/*--------------------------------*- C++ -*----------------------------------*\
| =========                 |                                                 |
| \\      /  F ield         | OpenFOAM: The Open Source CFD Toolbox           |
|  \\    /   O peration     | Version:  v1912                                 |
|   \\  /    A nd           | Website:  www.openfoam.com                      |
|    \\/     M anipulation  |                                                 |
\*---------------------------------------------------------------------------*/
FoamFile
{
    version     2.0;
    format      ascii;
    class       volScalarField;
    location    "98";
    object      alphat;
}
// * * * * * * * * * * * * * * * * * * * * * * * * * * * * * * * * * * * * * //

dimensions      [1 -1 -1 0 0 0 0];


internalField   nonuniform List<scalar> 
2000
(
3.09299e-06
2.31535e-05
5.05515e-05
6.49689e-05
6.72484e-05
6.80299e-05
6.72466e-05
6.49703e-05
5.05596e-05
2.31685e-05
1.3071e-05
0.00044679
0.000697618
0.000807581
0.000830467
0.000837634
0.000830451
0.000807581
0.00069766
0.000446903
8.32765e-05
0.00191346
0.00212412
0.00227086
0.00230696
0.00232144
0.00230692
0.00227082
0.00212415
0.00191354
0.000863787
0.00341098
0.00372193
0.00394068
0.0039959
0.00401886
0.00399583
0.00394059
0.003722
0.00341107
0.00263068
0.00521914
0.00555806
0.00577305
0.00584648
0.00587858
0.00584637
0.00577289
0.00555814
0.00521929
0.00509658
0.00756045
0.00777556
0.00782421
0.00790658
0.00794574
0.0079064
0.00782393
0.00777547
0.00756056
0.00819517
0.0108405
0.0096186
0.00958746
0.00970439
0.00975914
0.00970409
0.00958693
0.00961825
0.0108405
0.0120628
0.014177
0.0115216
0.0111719
0.0112674
0.0113246
0.011267
0.0111712
0.0115209
0.0141763
0.0168671
0.016912
0.0137227
0.013231
0.0133436
0.013395
0.0133433
0.0132304
0.013722
0.0169112
0.0211455
0.0189643
0.0166358
0.0165878
0.0167776
0.0168166
0.0167776
0.0165878
0.0166358
0.0189637
1.42584e-05
6.80681e-05
9.75419e-05
0.000109924
0.000116721
0.000118836
0.000116722
0.000109929
9.75572e-05
6.80857e-05
6.39981e-05
0.000837953
0.00099306
0.00106781
0.00111911
0.00113283
0.00111912
0.00106784
0.000993147
0.000838069
0.000684447
0.00300179
0.00307317
0.00316322
0.00325001
0.00327509
0.00325004
0.00316327
0.00307325
0.00300187
0.00255752
0.00504674
0.00536411
0.00555831
0.00567691
0.00571708
0.00567697
0.00555841
0.00536424
0.00504693
0.00443925
0.0069178
0.00779461
0.00809153
0.0082396
0.00829441
0.00823968
0.00809168
0.00779487
0.00691819
0.00638769
0.0090014
0.0105705
0.0108943
0.0110641
0.0111282
0.0110642
0.0108945
0.0105708
0.00900197
0.00827867
0.0115745
0.0137388
0.0140984
0.0142983
0.0143652
0.0142985
0.0140987
0.0137393
0.0115752
0.0102518
0.0145378
0.0172749
0.0175934
0.0178382
0.0178897
0.0178386
0.0175941
0.0172754
0.0145387
0.0128766
0.016217
0.0194002
0.019963
0.0202049
0.0202477
0.0202054
0.0199638
0.019401
0.0162178
0.0128982
0.0166326
0.019223
0.0196271
0.0198003
0.0198343
0.0198008
0.0196278
0.0192235
0.0166333
1.1617e-05
7.4048e-05
9.36871e-05
9.94179e-05
0.000102961
0.00010357
0.000102961
9.94211e-05
9.36967e-05
7.40716e-05
0.000293097
0.000783054
0.000846068
0.000862239
0.000876204
0.000877822
0.000876196
0.000862238
0.000846108
0.000783171
0.0024555
0.00281551
0.00257412
0.00258477
0.00261453
0.00262151
0.00261451
0.00258475
0.00257414
0.0028155
0.00530557
0.00506153
0.00448841
0.00450597
0.00455968
0.0045761
0.00455966
0.00450592
0.00448839
0.00506145
0.00760321
0.00696656
0.00629493
0.0063156
0.00639383
0.00642257
0.00639377
0.00631546
0.00629484
0.00696648
0.00963732
0.00891651
0.00815269
0.00810299
0.00819334
0.00823523
0.0081932
0.0081027
0.00815248
0.00891642
0.0117369
0.0114633
0.00991352
0.00980096
0.00988013
0.0099334
0.00987983
0.00980037
0.00991299
0.0114631
0.0142836
0.0148381
0.0116325
0.0111839
0.0112671
0.0113278
0.0112667
0.0111831
0.0116318
0.0148373
0.0178105
0.0172288
0.0137581
0.0131674
0.0132613
0.0133205
0.013261
0.0131668
0.0137573
0.0172279
0.0211807
0.018952
0.016497
0.0163497
0.0165486
0.0166034
0.0165486
0.0163497
0.0164969
0.0189514
5.76461e-05
9.1086e-05
0.000104057
0.000113751
0.000120875
0.000123016
0.000120875
0.000113754
0.000104068
9.11045e-05
0.000742252
0.000938489
0.000997906
0.00105549
0.00110009
0.0011131
0.00110008
0.0010555
0.000997956
0.00093859
0.00336975
0.00336024
0.00316563
0.00320721
0.00328468
0.00330605
0.00328468
0.00320725
0.00316565
0.00336025
0.00649199
0.00620095
0.00586819
0.00589806
0.00600962
0.0060439
0.00600968
0.00589817
0.0058682
0.00620097
0.00910964
0.00870775
0.00852629
0.00860651
0.0087524
0.00880275
0.00875251
0.0086067
0.00852637
0.00870793
0.0106306
0.0105978
0.0111304
0.0113176
0.0115002
0.0115648
0.0115003
0.0113179
0.0111307
0.0105983
0.0116278
0.0125199
0.0140056
0.0143933
0.0146191
0.0146953
0.0146193
0.0143936
0.0140061
0.0125206
0.0124247
0.0148923
0.0174551
0.0179977
0.0181686
0.0182195
0.0181689
0.0179983
0.0174557
0.0148932
0.0127017
0.0165454
0.0196735
0.020252
0.0204289
0.0204694
0.0204294
0.0202528
0.0196743
0.0165464
0.0120639
0.0166657
0.0192542
0.0197032
0.0198394
0.0198642
0.0198398
0.0197039
0.0192547
0.0166664
3.19054e-05
8.33546e-05
9.77797e-05
0.000100459
0.000102493
0.000102463
0.000102491
0.000100459
9.77848e-05
8.33753e-05
0.000455201
0.000747863
0.000839034
0.00085096
0.000861305
0.000861283
0.000861283
0.000850943
0.000839054
0.000747974
0.00285101
0.00258663
0.00251194
0.00251754
0.00253509
0.00253678
0.00253505
0.0025175
0.00251195
0.00258667
0.00642928
0.00507071
0.00460098
0.00454838
0.0045751
0.00457906
0.00457503
0.00454829
0.00460091
0.00507061
0.0100419
0.00770431
0.00674692
0.00660779
0.00664698
0.00665899
0.00664689
0.00660761
0.00674673
0.00770399
0.012723
0.0103606
0.00859553
0.00849177
0.00853729
0.00857059
0.00853711
0.00849141
0.00859519
0.01036
0.0147656
0.0129658
0.0103039
0.0100176
0.0100612
0.0101042
0.0100609
0.010017
0.0103033
0.0129652
0.0169492
0.0155976
0.0119427
0.0113452
0.0113799
0.0114277
0.0113796
0.0113444
0.0119418
0.0155968
0.0198828
0.0177672
0.0138628
0.0131353
0.0131896
0.0132372
0.0131893
0.0131347
0.013862
0.0177664
0.0218125
0.0191252
0.0164065
0.0162052
0.0163979
0.0164441
0.0163979
0.0162052
0.0164064
0.0191246
0.000101802
9.60617e-05
0.000104791
0.000112773
0.000118909
0.000120895
0.000118908
0.000112773
0.000104798
9.60746e-05
0.00108046
0.000938565
0.000988808
0.00104594
0.00109116
0.00110592
0.00109115
0.00104594
0.000988837
0.000938618
0.00395495
0.00321846
0.00311223
0.00317501
0.00325074
0.00327614
0.00325074
0.00317502
0.00311222
0.00321838
0.00748479
0.00626319
0.00583813
0.00585712
0.00595724
0.00598958
0.00595726
0.00585718
0.00583806
0.00626303
0.0103956
0.00922493
0.00869664
0.00867537
0.0087974
0.00883597
0.00879747
0.00867551
0.00869658
0.00922491
0.0122652
0.0116406
0.0114923
0.0115326
0.0116829
0.0117319
0.011683
0.0115328
0.0114924
0.0116409
0.0130654
0.013736
0.0144776
0.0146965
0.0148801
0.01494
0.0148803
0.0146967
0.0144779
0.0137366
0.012914
0.0155342
0.0178594
0.018203
0.0183619
0.0184102
0.0183623
0.0182036
0.0178599
0.0155352
0.0123639
0.016694
0.0198954
0.0204428
0.0206014
0.0206413
0.0206019
0.0204436
0.0198961
0.0166951
0.0115606
0.0167395
0.0193922
0.0198502
0.019953
0.0199777
0.0199535
0.019851
0.0193927
0.0167403
3.40968e-05
9.02914e-05
0.000104921
0.000106544
0.000107825
0.000107674
0.000107823
0.000106542
0.000104922
9.03048e-05
0.000223265
0.000741392
0.00085483
0.000860534
0.000865615
0.000864096
0.000865591
0.000860508
0.000854836
0.000741472
0.00160536
0.00243082
0.00251948
0.00253572
0.00254809
0.00254888
0.00254804
0.00253566
0.00251948
0.00243084
0.00453777
0.00477905
0.00470469
0.00467356
0.00469083
0.00469336
0.00469076
0.00467343
0.00470468
0.00477898
0.00880008
0.00761861
0.00684259
0.00677533
0.00681167
0.00682751
0.00681157
0.00677512
0.00684245
0.00761819
0.0130986
0.0107436
0.00885205
0.00865463
0.00869
0.00871655
0.00868983
0.00865426
0.00885168
0.0107427
0.015862
0.0136389
0.0106016
0.0101959
0.0102178
0.0102539
0.0102175
0.0101953
0.010601
0.0136382
0.0182041
0.0161266
0.0121222
0.0114259
0.0114295
0.0114704
0.0114292
0.0114252
0.0121212
0.0161257
0.021188
0.0180706
0.0138287
0.0130423
0.0130796
0.0131221
0.0130793
0.0130417
0.0138278
0.0180698
0.0228803
0.0191784
0.0162267
0.0160401
0.0162352
0.0162818
0.0162352
0.0160401
0.0162266
0.0191779
0.000121671
8.97666e-05
9.82099e-05
0.000105521
0.000111322
0.000113314
0.000111321
0.000105521
9.8216e-05
8.97783e-05
0.00135668
0.000909398
0.000955872
0.0010078
0.0010517
0.00106703
0.00105169
0.00100779
0.000955909
0.000909466
0.00436752
0.00293399
0.00291852
0.00300309
0.00308094
0.00310986
0.00308094
0.0030031
0.00291856
0.00293399
0.00815317
0.00556962
0.00544462
0.00553345
0.00563987
0.00567851
0.00563989
0.00553349
0.00544464
0.00556958
0.0111989
0.00857549
0.008316
0.00836276
0.00849499
0.00853906
0.00849505
0.00836286
0.00831599
0.00857553
0.0125483
0.0113186
0.0114267
0.0114306
0.0115847
0.0116319
0.0115849
0.0114308
0.0114267
0.0113187
0.0123551
0.0135473
0.0147808
0.0148476
0.0150192
0.0150681
0.0150194
0.0148478
0.0147809
0.0135477
0.0115854
0.0154388
0.0178912
0.0182166
0.0183937
0.0184365
0.0183941
0.0182172
0.0178917
0.0154395
0.0114035
0.0167846
0.0200186
0.0205425
0.0207094
0.0207438
0.0207099
0.0205434
0.0200193
0.0167856
0.0112182
0.0169481
0.0196187
0.0200552
0.0201424
0.0201633
0.0201429
0.020056
0.0196192
0.0169489
4.09076e-05
9.44503e-05
0.000111596
0.000114657
0.000116859
0.000117238
0.000116856
0.000114656
0.000111598
9.44631e-05
0.000170226
0.000751975
0.000891945
0.000902886
0.000906986
0.000906315
0.000906961
0.000902864
0.000891949
0.000752066
0.000729655
0.00244775
0.00270248
0.00272392
0.00274666
0.00275164
0.00274662
0.00272387
0.00270246
0.00244787
0.00242732
0.00479357
0.00482187
0.00484896
0.00489051
0.00490023
0.00489044
0.00484886
0.00482186
0.0047935
0.00660979
0.00769352
0.00698554
0.00693622
0.00698416
0.0070023
0.00698406
0.00693603
0.00698539
0.00769305
0.0107488
0.0107818
0.00892915
0.00874872
0.00878849
0.00881625
0.00878834
0.00874837
0.0089288
0.010781
0.0137421
0.0135902
0.0105311
0.0101595
0.0101829
0.0102208
0.0101827
0.010159
0.0105305
0.0135895
0.0166571
0.016036
0.0119226
0.0112914
0.0112987
0.0113428
0.0112984
0.0112906
0.0119218
0.0160349
0.020396
0.017834
0.0135923
0.0128937
0.0129444
0.0129906
0.0129441
0.012893
0.0135915
0.0178331
0.0240709
0.0190103
0.0160861
0.0159512
0.0161551
0.0162061
0.0161551
0.0159512
0.0160861
0.0190097
6.02189e-05
4.56699e-05
6.03262e-05
7.13978e-05
7.75442e-05
7.94376e-05
7.75431e-05
7.13976e-05
6.0334e-05
4.56869e-05
0.00127292
0.000616625
0.000657757
0.000717859
0.000764829
0.000780039
0.000764821
0.000717849
0.000657791
0.000616713
0.00343847
0.00208925
0.00226677
0.0024121
0.00249829
0.00252653
0.00249829
0.00241211
0.00226687
0.00208947
0.00569727
0.00424916
0.00462394
0.00484032
0.00498909
0.00503477
0.0049891
0.00484038
0.00462409
0.00424961
0.0095305
0.00747257
0.00770308
0.00780938
0.00799377
0.00804846
0.0079938
0.00780945
0.00770311
0.00747296
0.0118309
0.0105509
0.0109189
0.0109519
0.0111674
0.011227
0.0111675
0.0109521
0.0109189
0.0105515
0.010584
0.0131795
0.0141484
0.0142348
0.0144613
0.0145203
0.0144615
0.0142351
0.0141484
0.0131802
0.00987191
0.0154422
0.0171075
0.0174102
0.0176443
0.0176971
0.0176447
0.0174108
0.0171079
0.015443
0.010301
0.0168417
0.0193224
0.0198757
0.0200994
0.020141
0.0200999
0.0198766
0.019323
0.0168425
0.0108423
0.0169743
0.0194023
0.0198871
0.0200056
0.0200286
0.0200061
0.0198879
0.0194029
0.016975
0.0211595
0.0192673
0.0188874
0.019443
0.0197046
0.0197286
0.019705
0.0194436
0.0188881
0.0192669
0.0178875
0.0176255
0.0185263
0.0190563
0.0192174
0.0192091
0.0192179
0.019057
0.018527
0.0176253
0.014561
0.0148781
0.0159951
0.0164982
0.0166144
0.0166007
0.0166145
0.0164985
0.0159958
0.0148783
0.0118164
0.0124566
0.0132287
0.0136351
0.0137209
0.0137136
0.0137209
0.0136351
0.0132292
0.0124568
0.00956322
0.00994691
0.0103585
0.0106068
0.0106326
0.0106214
0.0106325
0.0106067
0.0103588
0.00994708
0.00710846
0.0071766
0.00730948
0.00744037
0.00743558
0.00742695
0.00743547
0.00744026
0.00730956
0.00717668
0.00437475
0.00424624
0.00422898
0.00428309
0.00426513
0.00425948
0.00426507
0.004283
0.00422895
0.00424626
0.00182704
0.00169397
0.00163834
0.00165351
0.00164177
0.00163909
0.00164174
0.00165346
0.00163829
0.00169396
0.00011719
0.000103337
9.76505e-05
0.000100229
0.000100133
0.000100113
0.000100131
0.000100225
9.76473e-05
0.000103336
8.77943e-06
8.42202e-06
8.27327e-06
8.50857e-06
8.59349e-06
8.61441e-06
8.59341e-06
8.50854e-06
8.27331e-06
8.42213e-06
0.0132254
0.0154118
0.0162707
0.0163363
0.0163878
0.0164096
0.0163879
0.0163364
0.0162706
0.015412
0.0135509
0.0139499
0.0135638
0.0134814
0.0134817
0.0135101
0.0134813
0.0134811
0.0135634
0.0139516
0.0131587
0.0123419
0.0118897
0.0119127
0.0119368
0.0119791
0.0119364
0.0119123
0.0118894
0.0123422
0.0116285
0.0107826
0.0105005
0.0105836
0.0106249
0.0106758
0.0106246
0.0105833
0.0105002
0.010783
0.00945572
0.00878507
0.00869508
0.0088083
0.00884886
0.00889682
0.00884877
0.0088082
0.00869491
0.00878533
0.00678066
0.00643452
0.00647131
0.00659186
0.00663972
0.00668663
0.00663975
0.0065919
0.00647121
0.0064347
0.0039103
0.00370526
0.00380905
0.00391307
0.00395441
0.00399113
0.00395451
0.00391317
0.00380899
0.00370533
0.00165909
0.00162366
0.00168527
0.00173062
0.00175651
0.00177132
0.00175655
0.00173067
0.00168527
0.0016237
0.000104827
9.87499e-05
0.000115217
0.000124854
0.000130931
0.000134184
0.000130943
0.000124869
0.000115219
9.87541e-05
4.7578e-06
4.56775e-06
5.03396e-06
5.41545e-06
5.64918e-06
5.75401e-06
5.64957e-06
5.41595e-06
5.03418e-06
4.56787e-06
0.0211846
0.0191507
0.0188343
0.0193031
0.0195621
0.0195983
0.0195625
0.0193037
0.0188349
0.0191504
0.0182062
0.0173735
0.0183516
0.0189155
0.0191162
0.0191248
0.0191166
0.0189161
0.0183524
0.0173723
0.0145713
0.014728
0.015915
0.0164405
0.0165962
0.0165982
0.0165964
0.0164408
0.0159156
0.0147282
0.0115546
0.0120717
0.012977
0.0133874
0.0135116
0.0135127
0.0135116
0.0133875
0.0129774
0.0120719
0.00888605
0.00924601
0.00984682
0.0101231
0.010208
0.0102204
0.010208
0.0101229
0.00984704
0.00924607
0.00624513
0.00628301
0.00676943
0.00693344
0.00697209
0.00697109
0.00697199
0.00693335
0.00676951
0.00628302
0.00343376
0.00342795
0.00368582
0.00377012
0.00380997
0.00382118
0.00380995
0.00377014
0.00368579
0.00342793
0.00159533
0.00155326
0.00158282
0.00159156
0.00159965
0.00160036
0.0015996
0.0015915
0.00158277
0.00155324
9.40188e-05
8.80507e-05
9.54722e-05
9.65566e-05
9.87678e-05
9.94977e-05
9.87645e-05
9.65556e-05
9.54668e-05
8.80486e-05
3.04046e-06
2.80996e-06
3.15824e-06
3.31755e-06
3.44429e-06
3.50261e-06
3.44434e-06
3.31767e-06
3.15814e-06
2.80993e-06
0.0124514
0.015164
0.016177
0.016229
0.0162508
0.0162647
0.0162508
0.0162291
0.016177
0.0151644
0.0131193
0.0133181
0.0132302
0.0131811
0.0131994
0.0132304
0.013199
0.0131807
0.0132299
0.0133183
0.0123834
0.0116592
0.0113485
0.0113882
0.011456
0.0115053
0.0114556
0.0113878
0.0113482
0.0116596
0.0105189
0.00984463
0.00970059
0.00979448
0.00989197
0.00994973
0.0098917
0.00979426
0.00970034
0.00984493
0.00814184
0.00779496
0.00793717
0.0080666
0.00817772
0.0082254
0.00817759
0.00806663
0.0079371
0.00779523
0.00553156
0.0053619
0.00555064
0.00565473
0.00575215
0.00578677
0.00575213
0.0056548
0.00555064
0.00536207
0.00346335
0.00342284
0.00352632
0.00358806
0.00365142
0.00367125
0.00365141
0.00358811
0.00352634
0.00342293
0.00178039
0.00178677
0.00181846
0.00184929
0.00187646
0.00188352
0.00187646
0.0018493
0.00181848
0.0017868
0.000121707
0.000124932
0.000137064
0.00014419
0.000151959
0.000153695
0.000151962
0.000144199
0.000137073
0.000124937
3.2054e-06
3.24485e-06
3.71028e-06
3.97886e-06
4.24198e-06
4.31904e-06
4.24219e-06
3.97928e-06
3.71056e-06
3.24497e-06
0.021233
0.019062
0.0186814
0.0191315
0.019418
0.0194551
0.0194184
0.0191321
0.018682
0.0190618
0.0179859
0.0171501
0.0180826
0.01868
0.0189324
0.018948
0.0189328
0.0186806
0.0180834
0.0171501
0.0140541
0.0143799
0.0156256
0.0161785
0.0163813
0.0163922
0.0163815
0.0161788
0.0156262
0.0143799
0.0110864
0.0116206
0.0123288
0.0126605
0.0127916
0.0128131
0.0127917
0.0126607
0.012329
0.0116207
0.00837971
0.00851528
0.0091706
0.00942341
0.00953048
0.00954923
0.00953051
0.00942353
0.00917077
0.00851536
0.005734
0.00597539
0.0063919
0.00653326
0.00660711
0.00661844
0.00660708
0.00653327
0.00639201
0.00597542
0.00365897
0.0038146
0.00396154
0.00402463
0.00406051
0.00406271
0.00406043
0.00402456
0.00396159
0.00381461
0.00180986
0.00185013
0.00187177
0.00189648
0.00190804
0.00190815
0.001908
0.00189642
0.00187178
0.00185013
0.000116592
0.00011674
0.000119083
0.000121114
0.000123191
0.000123303
0.000123186
0.000121108
0.000119082
0.000116738
2.73373e-06
2.64425e-06
2.81989e-06
2.89046e-06
2.98133e-06
3.00438e-06
2.98127e-06
2.89045e-06
2.81986e-06
2.64423e-06
0.0119578
0.0151225
0.0161441
0.0161991
0.016193
0.0162069
0.0161931
0.0161992
0.0161441
0.0151229
0.0126164
0.0130783
0.0130511
0.013033
0.0130484
0.0130824
0.013048
0.0130327
0.0130509
0.0130786
0.0118813
0.0114194
0.0112167
0.011291
0.0113727
0.011426
0.0113723
0.0112906
0.0112165
0.01142
0.0101617
0.00977853
0.00966175
0.0097672
0.00987972
0.00993721
0.00987941
0.00976694
0.00966159
0.00977884
0.00778958
0.00764131
0.00775707
0.00788247
0.00800809
0.00804888
0.00800796
0.00788244
0.00775706
0.00764154
0.00558618
0.00557053
0.00563962
0.00576187
0.00586161
0.00588578
0.00586154
0.00576185
0.00563969
0.00557071
0.00365843
0.00369576
0.00372066
0.00381621
0.00387873
0.0038927
0.0038787
0.00381619
0.00372071
0.00369587
0.00183395
0.00185777
0.00188177
0.00193289
0.00196335
0.00197141
0.00196335
0.00193289
0.0018818
0.0018578
0.000126631
0.000133504
0.000142472
0.000153796
0.000161636
0.000163362
0.000161639
0.000153801
0.000142482
0.000133508
3.29219e-06
3.46043e-06
3.78585e-06
4.087e-06
4.33265e-06
4.38716e-06
4.33278e-06
4.08726e-06
3.78617e-06
3.46054e-06
0.0215931
0.0189625
0.0184868
0.0189838
0.0192986
0.0193413
0.0192989
0.0189843
0.0184875
0.0189623
0.0178649
0.0170343
0.0178927
0.0185475
0.0188338
0.0188576
0.0188343
0.0185481
0.0178935
0.0170343
0.0138264
0.0143086
0.0151927
0.0155095
0.0157011
0.0157275
0.0157012
0.0155097
0.0151929
0.0143084
0.0109063
0.0110429
0.0116033
0.0119447
0.0120889
0.0121032
0.012089
0.0119449
0.0116036
0.011043
0.00795454
0.00825733
0.00877884
0.00903967
0.00913514
0.00914137
0.00913512
0.00903969
0.00877904
0.00825744
0.00581974
0.00613858
0.00644699
0.00660846
0.0066609
0.00666444
0.00666084
0.00660837
0.00644708
0.00613863
0.00392164
0.0041037
0.00423255
0.00431911
0.00434326
0.00434693
0.00434319
0.00431899
0.00423257
0.0041037
0.00192379
0.00197702
0.00201478
0.0020501
0.00206065
0.00206399
0.00206061
0.00205004
0.00201478
0.00197701
0.000122876
0.000124118
0.000126529
0.000129866
0.000131373
0.000131674
0.000131367
0.000129858
0.000126526
0.000124115
2.66207e-06
2.61408e-06
2.70448e-06
2.7996e-06
2.86763e-06
2.88075e-06
2.86752e-06
2.79948e-06
2.7044e-06
2.61404e-06
0.0116325
0.0152416
0.0162734
0.0163107
0.016275
0.0162833
0.0162751
0.0163108
0.0162734
0.015242
0.0121997
0.0130662
0.0130521
0.0129897
0.0129697
0.0129997
0.0129694
0.0129894
0.0130517
0.0130664
0.0116067
0.0113959
0.0113183
0.011378
0.0114395
0.0114966
0.011439
0.0113776
0.011318
0.0113962
0.0102673
0.010105
0.0100689
0.0102334
0.0103469
0.0104021
0.0103466
0.0102332
0.0100688
0.0101052
0.00816731
0.00815891
0.00824507
0.00839558
0.00851535
0.00855385
0.00851523
0.00839549
0.00824511
0.00815912
0.00618655
0.00627519
0.00631138
0.00645774
0.00655679
0.00658417
0.00655671
0.00645767
0.00631146
0.00627536
0.00400467
0.00408501
0.00409185
0.00420816
0.00427654
0.00429523
0.00427651
0.00420813
0.00409192
0.00408511
0.00185109
0.00187932
0.00189863
0.00195651
0.00199058
0.00200093
0.00199058
0.00195652
0.00189867
0.00187937
0.000128936
0.000137106
0.000144768
0.000156731
0.0001646
0.00016658
0.000164603
0.000156737
0.000144778
0.000137111
3.55913e-06
3.81225e-06
4.11549e-06
4.47405e-06
4.73634e-06
4.80223e-06
4.73646e-06
4.47427e-06
4.1158e-06
3.81234e-06
0.0221454
0.0189405
0.0183918
0.0189361
0.01926
0.0193082
0.0192603
0.0189366
0.0183924
0.0189403
0.0179811
0.0170752
0.0178956
0.0185806
0.0188679
0.0188958
0.0188683
0.0185812
0.0178964
0.0170752
0.0138687
0.0144236
0.015198
0.0155435
0.015736
0.0157613
0.0157361
0.0155437
0.0151983
0.0144238
0.010973
0.0113653
0.0118092
0.0121737
0.0123109
0.0123181
0.0123109
0.0121737
0.0118096
0.0113653
0.00815914
0.00849088
0.00889584
0.00917341
0.0092526
0.00925038
0.00925254
0.00917337
0.00889606
0.00849101
0.00578349
0.00606087
0.00631082
0.00649323
0.00653147
0.00653344
0.00653139
0.00649314
0.0063109
0.00606096
0.00375682
0.00388601
0.00401641
0.0041127
0.00412639
0.00413257
0.00412632
0.00411261
0.0040164
0.00388604
0.00185243
0.00188784
0.00193827
0.00196704
0.00197005
0.00197399
0.00197002
0.001967
0.00193825
0.00188783
0.000116459
0.00011573
0.000118457
0.000120687
0.00012076
0.000121099
0.000120754
0.00012068
0.00011845
0.000115729
2.3303e-06
2.27153e-06
2.33922e-06
2.46692e-06
2.52655e-06
2.54396e-06
2.52642e-06
2.46678e-06
2.33908e-06
2.27154e-06
0.0113078
0.0153216
0.0164673
0.0165501
0.0165268
0.0165302
0.0165268
0.0165502
0.0164673
0.015322
0.0124469
0.0139661
0.0138724
0.0136375
0.0135419
0.0135509
0.0135416
0.0136371
0.013872
0.0139664
0.0118626
0.0122261
0.0120435
0.011958
0.0119354
0.011965
0.011935
0.0119575
0.0120432
0.0122264
0.0106715
0.010545
0.010487
0.0105698
0.0106561
0.0107032
0.010656
0.0105697
0.0104868
0.0105451
0.00879319
0.00879217
0.00890059
0.00907966
0.00919503
0.00924759
0.00919496
0.00907958
0.00890057
0.00879239
0.00724728
0.00742582
0.00756239
0.00770866
0.00779878
0.00784112
0.00779873
0.00770859
0.00756244
0.007426
0.00547138
0.00567196
0.00569814
0.00572891
0.00576333
0.00578021
0.00576329
0.00572883
0.0056982
0.00567205
0.00287587
0.00291562
0.00287736
0.00289736
0.00292095
0.0029312
0.00292096
0.00289736
0.00287742
0.00291565
0.000302841
0.000313364
0.000310471
0.000317263
0.000324626
0.000327
0.000324629
0.000317267
0.000310488
0.000313364
1.22689e-05
1.3167e-05
1.39121e-05
1.44113e-05
1.48415e-05
1.49884e-05
1.48418e-05
1.44117e-05
1.39127e-05
1.31672e-05
)
;

boundaryField
{
    leftWall
    {
        type            compressible::alphatWallFunction;
        Prt             0.85;
        value           uniform 0;
    }
    rightWall
    {
        type            compressible::alphatWallFunction;
        Prt             0.85;
        value           uniform 0;
    }
    leftSides_periodic0
    {
        type            cyclic;
    }
    leftSides_periodic1
    {
        type            cyclic;
    }
    rightSides_periodic0
    {
        type            cyclic;
    }
    rightSides_periodic1
    {
        type            cyclic;
    }
    leftInOut_periodic0
    {
        type            cyclic;
    }
    leftInOut_periodic1
    {
        type            cyclic;
    }
    rightInOut_periodic0
    {
        type            cyclic;
    }
    rightInOut_periodic1
    {
        type            cyclic;
    }
}


// ************************************************************************* //
