/*--------------------------------*- C++ -*----------------------------------*\
| =========                 |                                                 |
| \\      /  F ield         | OpenFOAM: The Open Source CFD Toolbox           |
|  \\    /   O peration     | Version:  v1912                                 |
|   \\  /    A nd           | Website:  www.openfoam.com                      |
|    \\/     M anipulation  |                                                 |
\*---------------------------------------------------------------------------*/
FoamFile
{
    version     2.0;
    format      ascii;
    class       volScalarField;
    location    "98";
    object      omega;
}
// * * * * * * * * * * * * * * * * * * * * * * * * * * * * * * * * * * * * * //

dimensions      [0 0 -1 0 0 0 0];


internalField   nonuniform List<scalar> 
2000
(
2586.04
2592.92
2602.29
2607.22
2607.99
2608.26
2607.99
2607.22
2602.3
2592.93
1072.42
658.294
692.517
696.151
701.83
702.451
701.828
696.15
692.526
658.326
472.325
380.26
368.094
357.264
358.758
358.781
358.758
357.263
368.092
380.255
297.573
237.611
215.31
207.252
207.354
207.483
207.355
207.253
215.305
237.599
236.109
153.909
133.966
130.292
130.35
130.531
130.351
130.293
133.963
153.897
181.386
102.574
87.9301
86.8865
86.7188
86.8669
86.7197
86.8875
87.9285
102.566
128.289
70.4348
60.2697
59.7674
59.6284
59.7458
59.6292
59.7683
60.2685
70.4298
85.074
50.7406
42.4054
41.6701
41.5067
41.5842
41.5073
41.6707
42.4043
50.7367
56.4842
37.3496
30.7941
29.8859
29.7101
29.7442
29.7105
29.8863
30.7931
37.3465
39.6887
28.4009
24.5428
24.0621
24.0365
24.0521
24.0369
24.0625
24.5424
28.3991
2589.87
2608.35
2618.48
2622.73
2625.07
2625.79
2625.07
2622.73
2618.48
2608.36
573.778
618.303
660.786
680.633
686.03
688.006
686.026
680.63
660.795
618.333
286.884
321.499
323.04
326.345
329.339
330.223
329.337
326.343
323.038
321.507
217.147
214.093
199.535
195.827
197.052
197.331
197.052
195.826
199.53
214.087
189.658
148.766
130.965
127.601
127.86
128.003
127.861
127.602
130.962
148.755
159.841
102.004
87.6984
86.2972
86.4129
86.5591
86.414
86.2986
87.6962
101.995
121.056
70.2648
60.2262
59.6176
59.5365
59.6564
59.5374
59.6185
60.2247
70.2592
83.0511
50.4258
42.4758
41.6601
41.5743
41.6603
41.5751
41.6607
42.4747
50.4221
56.3172
37.0815
31.0036
30.0936
30.0039
30.0494
30.0045
30.0943
31.0026
37.0788
39.4145
28.0666
24.7181
24.2871
24.2599
24.2759
24.2603
24.2876
24.7179
28.065
2588.97
2610.41
2617.13
2619.08
2620.29
2620.49
2620.29
2619.08
2617.13
2610.42
493.761
632.247
676.293
688.793
691.275
692.238
691.273
688.791
676.301
632.28
239.382
295.889
319.554
326.709
328.663
329.254
328.661
326.707
319.556
295.899
182.635
186.191
188.504
191.264
192.5
192.837
192.499
191.263
188.504
186.187
163.458
131.911
122.933
123.563
124.375
124.594
124.375
123.563
122.932
131.902
144.525
94.7448
83.7658
83.3875
83.9727
84.1349
83.9733
83.3884
83.7642
94.7361
116.635
67.3856
58.1982
57.6091
57.9729
58.1057
57.9738
57.6103
58.197
67.3794
82.5863
48.3957
41.1185
40.3814
40.4855
40.5793
40.4861
40.3822
41.1173
48.3912
56.2727
35.7337
29.9853
29.1149
29.1109
29.1661
29.1114
29.1154
29.9842
35.7306
39.8568
27.603
24.3748
23.943
23.9338
23.9539
23.9342
23.9434
24.3745
27.6013
2604.77
2616.26
2620.72
2624.05
2626.51
2627.24
2626.51
2624.05
2620.72
2616.26
579.488
648.862
681.984
695.482
700.903
703.156
700.903
695.482
681.994
648.885
257.233
294.033
315.785
324.23
326.428
327.51
326.428
324.229
315.789
294.041
169.912
179.028
184.537
187.998
189.407
189.851
189.406
187.997
184.537
179.026
137.839
127.347
122.163
122.905
123.812
123.998
123.813
122.905
122.162
127.341
118.585
93.9785
83.7459
83.5702
84.176
84.3068
84.1768
83.5713
83.7439
93.9692
97.6584
67.3314
58.4203
57.8856
58.2714
58.3752
58.2724
57.8869
58.4191
67.3245
74.4047
48.3792
41.4076
40.715
40.8792
40.9525
40.88
40.716
41.4066
48.3747
54.0044
35.6883
30.3285
29.5838
29.6204
29.6598
29.621
29.5845
30.3277
35.6853
38.5465
27.2809
24.5439
24.1435
24.1314
24.1466
24.1318
24.144
24.5437
27.2795
2595.96
2613.61
2618.54
2619.44
2620.12
2620.11
2620.12
2619.44
2618.54
2613.62
548.439
660.175
691.917
699.818
702.847
704.037
702.846
699.819
691.924
660.202
245.733
294.772
320.48
328.956
330.964
332.069
330.963
328.956
320.485
294.782
156.94
169.945
181.503
187.619
188.947
189.638
188.947
187.619
181.505
169.945
124.824
116.177
116.896
120.219
121.137
121.5
121.137
120.219
116.896
116.173
108.833
86.0803
80.94
82.0628
82.7045
82.89
82.7052
82.0636
80.9396
86.0752
93.6206
64.7316
56.8847
56.9389
57.3567
57.4766
57.3575
56.9398
56.8836
64.7259
73.6362
47.6481
40.3157
39.8168
40.023
40.1036
40.0236
39.8175
40.3146
47.6434
53.6348
35.1974
29.4915
28.7866
28.8488
28.8918
28.8493
28.7871
29.4905
35.1942
38.7185
27.2143
24.2052
23.8205
23.8261
23.8445
23.8265
23.821
24.205
27.2127
2619.99
2617.97
2620.97
2623.72
2625.83
2626.51
2625.83
2623.72
2620.97
2617.98
629.836
667.949
688.49
696.879
701.875
703.467
701.875
696.881
688.498
667.971
268.636
302.108
319.993
326.784
329.374
330.402
329.374
326.785
319.999
302.119
159.05
172.846
182.876
188.051
189.582
190.256
189.582
188.052
182.878
172.847
116.752
116.157
117.921
121.081
122.04
122.435
122.041
121.082
117.921
116.152
94.5128
85.646
81.153
82.4914
83.1143
83.3304
83.1151
82.4926
81.1527
85.6392
78.4934
64.3723
57.1092
57.3335
57.7322
57.8625
57.7331
57.3347
57.1084
64.3672
63.725
47.5404
40.695
40.338
40.5473
40.6282
40.5481
40.3389
40.6941
47.5357
48.717
35.1526
29.9104
29.3628
29.4347
29.4759
29.4353
29.3635
29.9097
35.1495
36.547
27.0336
24.3555
24.0119
24.0184
24.034
24.0189
24.0123
24.3553
27.0322
2596.7
2616.01
2621
2621.53
2621.96
2621.91
2621.96
2621.53
2621
2616.01
593.008
674.888
698.299
704.496
707.082
707.894
707.081
704.497
698.306
674.911
261.351
300.287
320.316
327.313
329.691
330.669
329.691
327.315
320.321
300.3
151.348
167.499
179.685
185.567
187.098
187.811
187.098
185.569
179.689
167.503
108.76
110.67
114.855
118.757
119.763
120.218
119.763
118.758
114.857
110.67
90.3381
80.3211
78.8864
80.9284
81.5951
81.8678
81.5957
80.9294
78.8865
80.3186
77.6243
61.0266
55.6705
56.3125
56.7283
56.8919
56.729
56.3134
55.6698
61.0215
63.3522
46.2372
39.6717
39.4654
39.6857
39.7866
39.6862
39.466
39.6708
46.2329
48.491
34.5679
29.1215
28.5858
28.6596
28.7116
28.6601
28.5862
29.1207
34.5647
36.4695
26.8203
24.0337
23.7146
23.7363
23.755
23.7367
23.715
24.0335
26.8187
2626.86
2615.8
2618.7
2621.22
2623.22
2623.9
2623.21
2621.22
2618.7
2615.8
662.792
685.398
696.39
702.135
706.656
707.818
706.655
702.135
696.395
685.413
291.861
317.962
329.449
334.329
336.458
337.165
336.458
334.331
329.454
317.97
165.251
177.954
186.398
190.972
192.408
193.015
192.409
190.974
186.401
177.956
110.923
113.977
117.954
121.524
122.476
122.917
122.477
121.526
117.955
113.977
83.4174
80.4381
80.0293
82.1727
82.8021
83.0926
82.8029
82.1741
80.0298
80.4355
67.4287
60.0865
56.2997
57.1434
57.535
57.7169
57.5358
57.1446
56.2994
60.0832
55.7293
45.588
40.3275
40.307
40.5126
40.6215
40.5133
40.3079
40.3269
45.5847
44.0405
34.5085
29.7589
29.3719
29.4442
29.4984
29.4447
29.3726
29.7583
34.5056
34.1928
26.8015
24.2222
23.9549
23.9725
23.9907
23.973
23.9554
24.2221
26.8
2599.04
2617.44
2623.31
2624.33
2625.08
2625.2
2625.08
2624.33
2623.31
2617.45
625.973
678.695
698.79
703.606
705.47
705.76
705.469
703.606
698.795
678.709
260.06
302.944
320.627
325.924
327.281
327.681
327.281
325.925
320.632
302.955
145.535
170.275
181.687
186.185
187.386
187.862
187.387
186.186
181.691
170.279
104.226
111.112
115.986
119.406
120.314
120.725
120.314
119.407
115.988
111.112
83.8015
79.3398
78.9413
81.0879
81.7032
82.005
81.7039
81.089
78.9418
79.3373
70.5051
59.1571
55.4385
56.3193
56.6844
56.8845
56.6851
56.3202
55.4381
59.1536
57.6525
44.7755
39.5463
39.5046
39.6852
39.8118
39.6858
39.5051
39.5455
44.772
44.4858
33.9147
29.0885
28.6197
28.6675
28.7332
28.6679
28.6201
29.0877
33.9119
33.9216
26.5862
23.9357
23.6678
23.6975
23.7191
23.6979
23.6683
23.9355
26.5847
2605.63
2600.62
2605.66
2609.46
2611.57
2612.22
2611.57
2609.46
2605.66
2600.63
692.159
761.697
762.928
759.367
763.066
764.292
763.066
759.367
762.931
761.704
350.438
381.046
371.757
368.167
368.476
368.704
368.477
368.168
371.756
381.04
211.011
205.714
205.503
207.421
207.555
207.727
207.556
207.423
205.505
205.711
121.772
121.435
126.47
130.184
130.488
130.693
130.489
130.187
126.472
121.434
86.6397
81.219
84.5257
87.311
87.6004
87.7882
87.6013
87.3128
84.5274
81.2166
69.5753
59.9021
59.2475
60.4324
60.6173
60.7563
60.6182
60.4338
59.248
59.8987
56.2078
45.2895
42.4179
42.4161
42.4675
42.5541
42.4682
42.4171
42.4175
45.2861
44.2367
34.6035
31.0415
30.5636
30.5333
30.5744
30.5339
30.5643
31.0409
34.601
33.9618
26.9801
24.6903
24.3507
24.3308
24.3417
24.3313
24.3512
24.6901
26.9786
29.6942
25.0908
24.5802
24.8177
24.9662
25.0003
24.9666
24.8182
24.5806
25.0906
29.0741
28.8298
30.8253
31.9014
32.3502
32.4629
32.3503
31.9019
30.8264
28.8312
36.3316
40.3711
43.8441
45.3512
46.0472
46.2504
46.0476
45.3519
43.8455
40.3729
53.1176
58.7728
63.2242
64.9677
65.8522
66.1378
65.8527
64.9686
63.2257
58.7748
79.3062
85.5739
90.4431
92.5197
93.7565
94.1862
93.7572
92.5206
90.4449
85.5756
119.26
125.695
131.079
133.494
135.129
135.71
135.13
133.495
131.081
125.696
192.737
200.456
207.167
210.092
212.485
213.33
212.485
210.092
207.169
200.456
382.652
393.219
401.978
405.271
408.7
409.916
408.699
405.269
401.977
393.219
1115.33
1128.25
1132.89
1135.2
1138.87
1140.06
1138.87
1135.2
1132.89
1128.25
7261.09
7260.96
7260.91
7260.99
7261.02
7261.02
7261.02
7260.99
7260.91
7260.96
29.2601
24.9509
24.3869
24.5965
24.7195
24.75
24.7198
24.5969
24.3873
24.9509
29.0509
28.9329
30.6991
31.661
32.0354
32.1378
32.0355
31.6613
30.7
28.9309
37.469
40.9095
43.7522
45.1411
45.7362
45.9237
45.7364
45.1416
43.7534
40.911
54.6
59.7216
62.9344
64.5626
65.3218
65.5736
65.3221
64.5632
62.936
59.7232
81.7296
87.8959
90.8386
92.522
93.5352
93.8833
93.5355
92.5225
90.8401
87.8971
126.431
133.617
135.992
137.694
139.07
139.448
139.07
137.694
135.994
133.618
218.382
228.496
228.881
230.648
232.679
232.958
232.676
230.647
228.884
228.497
461.246
474.044
468.911
471.926
474.806
474.819
474.8
471.922
468.918
474.045
1160.82
1166.93
1158.82
1165.16
1169.19
1169.56
1169.18
1165.15
1158.83
1166.93
7259.74
7259.68
7259.83
7259.96
7260.04
7260.07
7260.04
7259.96
7259.83
7259.68
29.685
25.126
24.6552
24.9544
25.0793
25.1064
25.0797
24.9549
24.6556
25.1261
29.1091
29.964
31.4573
32.44
32.7542
32.8302
32.7544
32.4405
31.4583
29.9675
37.529
41.8494
44.3331
45.6646
46.1342
46.2699
46.1345
45.6653
44.3346
41.8514
54.6731
60.3202
63.2423
64.7553
65.3453
65.5542
65.3455
64.756
63.2442
60.3222
82.0725
88.3448
90.9274
92.5509
93.3045
93.4873
93.3044
92.5522
90.9296
88.3472
129.275
136.879
136.801
138.394
139.5
139.781
139.499
138.393
136.803
136.881
232.322
239.077
232.895
234.253
234.715
234.824
234.712
234.248
232.899
239.079
471.854
473.998
465.54
468.421
468.462
468.31
468.457
468.413
465.543
474
1131.69
1128.38
1124.71
1131.7
1132.48
1133.08
1132.48
1131.69
1124.71
1128.38
7259.17
7259.09
7259.21
7259.26
7259.3
7259.32
7259.3
7259.26
7259.21
7259.09
29.1216
24.9565
24.4614
24.6882
24.7703
24.7951
24.7705
24.6886
24.4618
24.9565
29.5419
29.9539
31.1216
31.9664
32.2005
32.2783
32.2006
31.9666
31.1225
29.9555
39.0901
41.918
44.0097
45.2033
45.5562
45.6899
45.5563
45.2036
44.0109
41.9196
57.5047
61.3822
63.2563
64.5812
64.9609
65.0982
64.9609
64.5813
63.2579
61.3842
89.158
93.2107
92.6682
93.7939
94.0156
94.1723
94.0151
93.7921
92.6693
93.212
146.802
150.29
147.075
148.266
147.967
147.973
147.965
148.263
147.076
150.292
254.231
256.971
253.618
256.207
256.196
256.297
256.193
256.203
253.619
256.973
483.901
484.101
485.361
491.567
493.469
494.486
493.47
491.566
485.364
484.103
1125.8
1124.56
1132.69
1142.67
1147.65
1149.97
1147.66
1142.68
1132.69
1124.56
7259.22
7259.24
7259.39
7259.48
7259.57
7259.59
7259.57
7259.48
7259.39
7259.24
29.4799
25.0787
24.7487
25.0496
25.1407
25.1668
25.141
25.05
24.7492
25.0788
29.5737
30.2826
31.803
32.676
32.8801
32.9469
32.8804
32.6764
31.804
30.284
39.0262
42.6513
44.7849
45.9327
46.2091
46.3156
46.2093
45.9332
44.7862
42.6537
57.6427
63.0685
64.7836
66.0341
66.305
66.4185
66.3051
66.0343
64.7851
63.0708
89.8694
96.1901
96.8777
98.24
98.3787
98.4814
98.3783
98.2391
96.8795
96.1923
146.925
151.231
150.157
152.043
152.087
152.18
152.086
152.041
150.159
151.233
246.046
247.458
246.738
249.758
250.234
250.627
250.233
249.756
246.739
247.459
453.94
450.082
453.506
458.203
459.905
460.998
459.905
458.202
453.506
450.083
1086.31
1082.58
1091.6
1097.91
1100.81
1102.59
1100.82
1097.91
1091.6
1082.58
7259.07
7259.04
7259.09
7259.12
7259.15
7259.16
7259.15
7259.12
7259.09
7259.04
28.6796
24.8684
24.4966
24.7067
24.7714
24.7946
24.7716
24.707
24.497
24.8685
30.0395
30.1974
31.3829
32.0902
32.2661
32.3358
32.2661
32.0904
31.3837
30.1987
40.6327
42.7242
44.577
45.5545
45.81
45.9245
45.81
45.5547
44.578
42.725
60.6313
63.2589
64.885
66.0763
66.3304
66.4469
66.3305
66.0764
64.8862
63.2611
94.827
96.8707
97.2235
98.4993
98.6265
98.7519
98.6261
98.4985
97.2251
96.8729
151.098
152.354
151.789
153.148
153.247
153.598
153.247
153.146
151.789
152.356
249.847
249.582
251.147
253.315
254.124
254.881
254.125
253.315
251.147
249.583
464.366
463.403
471.018
475.301
478.335
479.92
478.338
475.305
471.019
463.404
1107.76
1107.99
1119.14
1125.83
1131.72
1133.86
1131.72
1125.83
1119.15
1107.99
7259.25
7259.31
7259.42
7259.52
7259.6
7259.62
7259.6
7259.52
7259.42
7259.31
28.8003
25.0051
24.8302
25.107
25.1895
25.2106
25.1897
25.1074
24.8307
25.0052
30.0508
30.601
32.1739
32.8898
33.0539
33.1057
33.054
32.8902
32.1748
30.6025
40.5532
43.4859
45.6822
46.5864
46.7967
46.8762
46.7968
46.5868
45.6834
43.4892
60.8076
65.425
67.3619
68.2796
68.4499
68.562
68.45
68.2797
67.3631
65.4275
96.1836
100.509
101.891
102.841
103.015
103.236
103.015
102.841
101.892
100.511
151.784
154.678
156.168
157.623
158.099
158.509
158.1
157.622
156.17
154.679
244.285
245.122
247.83
250.227
251.429
252.141
251.43
250.227
247.832
245.123
440.128
437.57
442.847
446.323
448.755
449.835
448.755
446.325
442.849
437.571
1074.39
1072.91
1080.46
1085.82
1089.16
1090.62
1089.16
1085.82
1080.47
1072.91
7259.04
7259.03
7259.06
7259.09
7259.11
7259.11
7259.11
7259.09
7259.06
7259.03
27.9504
24.7915
24.5101
24.6882
24.752
24.7714
24.7522
24.6886
24.5104
24.7916
30.4678
30.4822
31.6951
32.3043
32.4809
32.5426
32.4809
32.3045
31.6959
30.4835
42.4128
44.1549
45.686
46.5419
46.8047
46.8953
46.8048
46.542
45.6871
44.1567
62.9613
65.4113
67.134
67.9902
68.2248
68.3663
68.2248
67.9903
67.1351
65.4135
96.6821
98.9796
100.431
101.376
101.668
101.929
101.668
101.375
100.432
98.9817
148.804
149.385
150.985
152.308
152.932
153.407
152.933
152.308
150.986
149.386
237.951
236.657
239.993
241.849
243.201
244.009
243.203
241.851
239.994
236.658
446.805
446.044
453.602
457.201
460.351
461.707
460.354
457.206
453.604
446.045
1101.69
1103.93
1114.12
1121.3
1127.32
1129.3
1127.32
1121.3
1114.13
1103.93
7259.34
7259.43
7259.53
7259.65
7259.74
7259.76
7259.74
7259.65
7259.53
7259.43
28.0108
24.9234
24.8425
25.1139
25.2127
25.2319
25.213
25.1143
24.843
24.9235
30.429
30.8395
32.4813
33.1729
33.377
33.4284
33.3771
33.1732
32.4822
30.8409
42.0021
44.3941
46.4149
47.2701
47.5749
47.6772
47.5751
47.2705
46.416
44.396
62.7809
65.7219
68.0878
69.0389
69.358
69.4936
69.3583
69.0392
68.089
65.7241
96.3101
98.9502
101.353
102.393
102.847
103.12
102.847
102.393
101.354
98.9522
148.529
150.604
153.604
154.932
155.768
156.26
155.769
154.933
153.606
150.605
240.475
242.159
246.524
248.4
249.991
250.729
249.992
248.402
246.527
242.159
445.417
445.499
451.583
454.856
457.718
458.779
457.72
454.858
451.586
445.499
1074.77
1076.83
1083.84
1089.77
1093.37
1094.31
1093.36
1089.77
1083.84
1076.83
7258.93
7258.91
7258.93
7258.98
7259
7259
7259
7258.98
7258.93
7258.91
27.7552
24.7982
24.4693
24.5494
24.5989
24.6167
24.5992
24.5498
24.4696
24.7982
29.1049
28.8264
30.2008
31.0393
31.3502
31.4431
31.3501
31.0395
30.2015
28.8276
41.0128
41.5986
43.4727
44.7199
45.2536
45.4461
45.2536
44.7204
43.4737
41.6004
59.2371
60.8056
63.2512
64.7405
65.3515
65.5937
65.3517
64.7412
63.2525
60.8078
88.5661
90.7142
93.7414
95.4705
96.1609
96.507
96.1611
95.4713
93.7427
90.7166
133.643
134.809
138.153
140.424
141.591
142.106
141.592
140.426
138.155
134.811
203.094
202.587
207.208
211.251
213.577
214.347
213.578
211.254
207.211
202.589
357.305
358.465
366.893
375.071
379.821
381.037
379.823
375.075
366.896
358.466
991.196
999.659
1017.76
1032.67
1041.91
1044.74
1041.91
1032.68
1017.77
999.664
7262.27
7262.57
7262.82
7262.98
7263.13
7263.18
7263.13
7262.99
7262.82
7262.57
)
;

boundaryField
{
    leftWall
    {
        blended         1;
        beta1           0.075;
        type            omegaWallFunction;
        value           nonuniform List<scalar> 
100
(
2586.04
2589.87
2588.97
2604.77
2595.96
2619.99
2596.7
2626.86
2599.04
2605.63
2592.92
2608.35
2610.41
2616.26
2613.61
2617.97
2616.01
2615.8
2617.44
2600.62
2602.29
2618.48
2617.13
2620.72
2618.54
2620.97
2621
2618.7
2623.31
2605.66
2607.22
2622.73
2619.08
2624.05
2619.44
2623.72
2621.53
2621.22
2624.33
2609.46
2607.99
2625.07
2620.29
2626.51
2620.12
2625.83
2621.96
2623.22
2625.08
2611.57
2608.26
2625.79
2620.49
2627.24
2620.11
2626.51
2621.91
2623.9
2625.2
2612.22
2607.99
2625.07
2620.29
2626.51
2620.12
2625.83
2621.96
2623.21
2625.08
2611.57
2607.22
2622.73
2619.08
2624.05
2619.44
2623.72
2621.53
2621.22
2624.33
2609.46
2602.3
2618.48
2617.13
2620.72
2618.54
2620.97
2621
2618.7
2623.31
2605.66
2592.93
2608.36
2610.42
2616.26
2613.62
2617.98
2616.01
2615.8
2617.45
2600.63
)
;
    }
    rightWall
    {
        blended         1;
        beta1           0.075;
        type            omegaWallFunction;
        value           nonuniform List<scalar> 
100
(
7261.09
7259.74
7259.17
7259.22
7259.07
7259.25
7259.04
7259.34
7258.93
7262.27
7260.96
7259.68
7259.09
7259.24
7259.04
7259.31
7259.03
7259.43
7258.91
7262.57
7260.91
7259.83
7259.21
7259.39
7259.09
7259.42
7259.06
7259.53
7258.93
7262.82
7260.99
7259.96
7259.26
7259.48
7259.12
7259.52
7259.09
7259.65
7258.98
7262.98
7261.02
7260.04
7259.3
7259.57
7259.15
7259.6
7259.11
7259.74
7259
7263.13
7261.02
7260.07
7259.32
7259.59
7259.16
7259.62
7259.11
7259.76
7259
7263.18
7261.02
7260.04
7259.3
7259.57
7259.15
7259.6
7259.11
7259.74
7259
7263.13
7260.99
7259.96
7259.26
7259.48
7259.12
7259.52
7259.09
7259.65
7258.98
7262.99
7260.91
7259.83
7259.21
7259.39
7259.09
7259.42
7259.06
7259.53
7258.93
7262.82
7260.96
7259.68
7259.09
7259.24
7259.04
7259.31
7259.03
7259.43
7258.91
7262.57
)
;
    }
    leftSides_periodic0
    {
        type            cyclic;
    }
    leftSides_periodic1
    {
        type            cyclic;
    }
    rightSides_periodic0
    {
        type            cyclic;
    }
    rightSides_periodic1
    {
        type            cyclic;
    }
    leftInOut_periodic0
    {
        type            cyclic;
    }
    leftInOut_periodic1
    {
        type            cyclic;
    }
    rightInOut_periodic0
    {
        type            cyclic;
    }
    rightInOut_periodic1
    {
        type            cyclic;
    }
}


// ************************************************************************* //
