/*--------------------------------*- C++ -*----------------------------------*\
| =========                 |                                                 |
| \\      /  F ield         | OpenFOAM: The Open Source CFD Toolbox           |
|  \\    /   O peration     | Version:  v1912                                 |
|   \\  /    A nd           | Website:  www.openfoam.com                      |
|    \\/     M anipulation  |                                                 |
\*---------------------------------------------------------------------------*/
FoamFile
{
    version     2.0;
    format      ascii;
    class       volVectorField;
    location    "98";
    object      wallShearStress;
}
// * * * * * * * * * * * * * * * * * * * * * * * * * * * * * * * * * * * * * //

dimensions      [1 -1 -2 0 0 0 0];


internalField   uniform (0 0 0);

boundaryField
{
    leftWall
    {
        type            calculated;
        value           nonuniform List<vector> 
100
(
(-1.4438e-05 -0.160278 0.00176552)
(-1.24915e-05 -0.0171145 -0.174122)
(-1.00718e-05 -0.000548035 -0.141661)
(-6.68446e-06 0.000202541 -0.333839)
(-5.96027e-06 0.000494134 -0.252663)
(-3.28266e-06 -0.000227675 -0.449997)
(-2.27554e-06 0.000374923 -0.276344)
(-2.06181e-06 2.2129e-05 -0.48294)
(-9.43297e-07 -0.000273264 -0.299947)
(9.18893e-06 0.0155313 -0.280044)
(-0.0519798 -0.010445 -0.189525)
(0.0471142 0.00221546 -0.357891)
(0.0305248 0.00081925 -0.383277)
(0.0102802 0.000285784 -0.425568)
(0.00988226 0.000171122 -0.414595)
(0.00195553 4.48882e-08 -0.439204)
(0.00643573 5.73487e-06 -0.434613)
(-0.00301004 -0.000223713 -0.420858)
(-0.00175337 -0.00109036 -0.444182)
(-0.0653753 -0.00528576 -0.27424)
(0.00195469 0.00283286 -0.300932)
(0.0335181 0.00248051 -0.438875)
(0.0141849 0.000353314 -0.436841)
(0.00266707 9.74056e-05 -0.456442)
(0.00121362 8.3534e-05 -0.448427)
(0.00104876 8.82962e-05 -0.45898)
(0.000289808 -8.03228e-05 -0.466887)
(-0.00246427 1.52307e-05 -0.441787)
(-0.00775176 -0.00131717 -0.481327)
(-0.0465008 -0.0045342 -0.332808)
(-0.0040263 0.00381827 -0.344208)
(0.0158075 0.00162928 -0.468429)
(0.00975241 5.00454e-05 -0.451344)
(0.00383434 3.82769e-05 -0.478)
(0.00274812 -8.1535e-06 -0.454237)
(0.00199289 0.000193844 -0.476258)
(0.00130576 -0.000230146 -0.470138)
(-0.00190485 0.000121183 -0.458579)
(-0.00484995 -0.00131037 -0.488177)
(-0.0284505 -0.00371831 -0.369141)
(-0.00149792 0.00355087 -0.349904)
(0.00911257 0.00172538 -0.483126)
(0.00592642 0.000132359 -0.460241)
(0.00227997 0.000100972 -0.493455)
(0.00101 -9.64675e-06 -0.458838)
(0.000696574 0.000212834 -0.489144)
(0.000294921 -0.000253738 -0.472946)
(-0.00154359 0.000135962 -0.471216)
(-0.00230445 -0.00123149 -0.493434)
(-0.014478 -0.00372413 -0.38614)
(4.45382e-06 0.0035804 -0.351943)
(6.51481e-06 0.00170648 -0.48777)
(4.7041e-06 9.26193e-05 -0.461815)
(1.11049e-06 5.97269e-05 -0.497991)
(1.04581e-06 -5.49554e-05 -0.458626)
(-6.74187e-07 0.000220194 -0.49322)
(-3.25119e-08 -0.00029035 -0.472534)
(-1.7133e-06 0.000172261 -0.475476)
(-4.78928e-07 -0.00123054 -0.494406)
(-4.89952e-06 -0.00370584 -0.391182)
(0.00150316 0.00355101 -0.349899)
(-0.00910318 0.00172583 -0.48313)
(-0.00592067 0.000132427 -0.460244)
(-0.00227838 0.000100878 -0.493457)
(-0.00100964 -9.66562e-06 -0.458834)
(-0.00069784 0.000212812 -0.489143)
(-0.000296711 -0.000253779 -0.472941)
(0.00154157 0.000135892 -0.471214)
(0.00230186 -0.00123153 -0.493428)
(0.0144693 -0.00372415 -0.386137)
(0.00403019 0.00381887 -0.344211)
(-0.015801 0.00163006 -0.46844)
(-0.00974832 5.03847e-05 -0.451354)
(-0.00383203 3.83067e-05 -0.478008)
(-0.00274671 -8.20305e-06 -0.454238)
(-0.00199305 0.000193747 -0.47626)
(-0.00130612 -0.000230231 -0.470133)
(0.00190441 0.000121184 -0.458578)
(0.00484935 -0.00131041 -0.488175)
(0.0284418 -0.00371836 -0.369141)
(-0.00196002 0.0028337 -0.300958)
(-0.0335239 0.00248152 -0.438912)
(-0.0141895 0.000353606 -0.436866)
(-0.00266852 9.76114e-05 -0.456467)
(-0.00121436 8.35e-05 -0.448439)
(-0.00104841 8.83074e-05 -0.458996)
(-0.000290595 -8.04385e-05 -0.466889)
(0.00246537 1.54311e-05 -0.441801)
(0.00775138 -0.00131734 -0.481331)
(0.0464991 -0.00453396 -0.332833)
(0.0519693 -0.01044 -0.189604)
(-0.047126 0.00221573 -0.35794)
(-0.0305343 0.000819804 -0.383343)
(-0.0102867 0.000286261 -0.425614)
(-0.00988616 0.000171327 -0.414648)
(-0.00195789 9.21252e-09 -0.439236)
(-0.00643658 5.78113e-06 -0.434645)
(0.00300866 -0.000223369 -0.420887)
(0.00175323 -0.00109007 -0.444211)
(0.0653827 -0.00528605 -0.274304)
)
;
    }
    rightWall
    {
        type            calculated;
        value           nonuniform List<vector> 
100
(
(-4.03314e-06 0.00773382 -0.671235)
(-1.43007e-05 0.00173761 -0.477616)
(-3.81866e-06 0.000303106 -0.370624)
(-3.92297e-06 -0.000353467 -0.371641)
(-1.04915e-06 -0.000119244 -0.339915)
(-1.43601e-06 -4.31303e-05 -0.37776)
(1.57802e-06 -9.30588e-05 -0.331882)
(-8.89077e-07 5.19515e-05 -0.397307)
(1.19086e-06 -0.00367 -0.306228)
(3.18229e-06 -0.00581597 -0.774191)
(-0.00675529 0.00815659 -0.658407)
(0.0121526 0.00173495 -0.467866)
(0.00635769 0.000176487 -0.355018)
(0.00441274 -0.000319977 -0.373163)
(-0.000981793 -0.000179895 -0.332111)
(0.00336958 -9.8781e-05 -0.387346)
(-0.00309422 -9.38188e-05 -0.326827)
(0.00119158 -0.000113056 -0.411778)
(-0.0102573 -0.00349459 -0.300544)
(-0.0280765 -0.00527797 -0.803082)
(0.000738577 0.0075488 -0.65263)
(0.0204735 0.000608587 -0.489537)
(0.00990556 6.27547e-05 -0.378191)
(0.00522917 -0.000241931 -0.401609)
(-0.000889108 -8.69661e-05 -0.344486)
(0.0034189 -9.1766e-05 -0.406193)
(-0.00302603 4.55913e-05 -0.332146)
(-0.000572815 -0.000141282 -0.42861)
(-0.011865 -0.00313325 -0.30411)
(-0.0379818 -0.00476953 -0.827744)
(0.00248949 0.00713372 -0.661593)
(0.0138273 0.000576607 -0.507648)
(0.00602574 0.000314404 -0.38865)
(0.0036719 -0.000206074 -0.416412)
(-0.000854651 -3.45325e-05 -0.348229)
(0.00333042 -0.000130426 -0.421737)
(-0.002341 0.000116992 -0.337587)
(6.76642e-06 -0.000203009 -0.446818)
(-0.00996919 -0.00278786 -0.313677)
(-0.0295866 -0.00474039 -0.842414)
(0.000817268 0.007054 -0.664846)
(0.00773842 0.000444326 -0.518264)
(0.00472513 0.000211514 -0.39649)
(0.00281579 -0.000200907 -0.430482)
(0.000187863 -5.50773e-05 -0.354079)
(0.00172462 -0.000176263 -0.434499)
(-0.00108638 0.000128695 -0.341953)
(-0.000577555 -0.000216008 -0.45989)
(-0.00547251 -0.00264566 -0.318531)
(-0.0160887 -0.0047033 -0.854882)
(6.62145e-06 0.00700744 -0.665604)
(1.33792e-05 0.0003263 -0.522862)
(6.29492e-06 0.000222764 -0.400226)
(3.74043e-06 -0.000188263 -0.434645)
(3.70859e-07 -1.98368e-05 -0.35563)
(5.72848e-07 -0.000150749 -0.437177)
(-4.74026e-07 0.000169683 -0.34267)
(-6.8366e-07 -0.000213136 -0.463029)
(-2.04329e-06 -0.00262732 -0.319767)
(-6.7714e-06 -0.00466493 -0.859162)
(-0.000810173 0.0070535 -0.664842)
(-0.00772101 0.000443638 -0.518282)
(-0.00471626 0.000211517 -0.396497)
(-0.00280946 -0.00020087 -0.430495)
(-0.000187314 -5.50403e-05 -0.354076)
(-0.00172344 -0.000176265 -0.434506)
(0.00108305 0.000128781 -0.341947)
(0.000577119 -0.000216011 -0.459896)
(0.00546736 -0.00264556 -0.318522)
(0.0160805 -0.00470302 -0.854889)
(-0.00248617 0.00713357 -0.66159)
(-0.0138228 0.000575529 -0.507671)
(-0.00602634 0.000314002 -0.388662)
(-0.00367031 -0.000206084 -0.416437)
(0.000854478 -3.45953e-05 -0.348231)
(-0.00332981 -0.000130416 -0.421752)
(0.00233843 0.000117077 -0.337579)
(-6.62752e-06 -0.00020302 -0.446829)
(0.00996644 -0.00278765 -0.313669)
(0.0295827 -0.00474019 -0.842425)
(-0.000743328 0.00754814 -0.652628)
(-0.0204789 0.000607646 -0.489547)
(-0.00991245 6.26382e-05 -0.378187)
(-0.00523417 -0.000241891 -0.401625)
(0.000887909 -8.68523e-05 -0.344484)
(-0.00342116 -9.18088e-05 -0.406211)
(0.00302627 4.58094e-05 -0.33214)
(0.000571633 -0.000141387 -0.428626)
(0.0118676 -0.00313265 -0.3041)
(0.0379842 -0.0047695 -0.827761)
(0.00674384 0.00815674 -0.658409)
(-0.0121727 0.00173292 -0.467871)
(-0.00636495 0.00017634 -0.355019)
(-0.00442075 -0.000320002 -0.37317)
(0.000980094 -0.000180003 -0.332109)
(-0.00337338 -9.87536e-05 -0.387352)
(0.00309597 -9.38016e-05 -0.326824)
(-0.00119368 -0.000113131 -0.411782)
(0.010261 -0.00349477 -0.300544)
(0.0280842 -0.0052779 -0.803085)
)
;
    }
    leftSides_periodic0
    {
        type            cyclic;
    }
    leftSides_periodic1
    {
        type            cyclic;
    }
    rightSides_periodic0
    {
        type            cyclic;
    }
    rightSides_periodic1
    {
        type            cyclic;
    }
    leftInOut_periodic0
    {
        type            cyclic;
    }
    leftInOut_periodic1
    {
        type            cyclic;
    }
    rightInOut_periodic0
    {
        type            cyclic;
    }
    rightInOut_periodic1
    {
        type            cyclic;
    }
}


// ************************************************************************* //
