-0.0075 	0 	0 	0
-0.0075 	-1.0473e-33 	-7.28079e-36 	-5.53503e-33
-0.00745622 	-0.00137647 	-9.56915e-06 	-0.00727469
-0.00745622 	-0.00137647 	-9.56915e-06 	-0.00727469
-0.00741165 	-0.00192109 	-1.76215e-05 	-0.0165446
-0.00741165 	-0.00192109 	-1.76215e-05 	-0.0165446
-0.00736628 	-0.00200769 	-2.54453e-05 	-0.0265441
-0.00736628 	-0.00200769 	-2.54453e-05 	-0.0265441
-0.0073201 	-0.00207853 	-2.9631e-05 	-0.0364569
-0.0073201 	-0.00207853 	-2.9631e-05 	-0.0364569
-0.00727309 	-0.00220863 	-3.20185e-05 	-0.0462299
-0.00727309 	-0.00220863 	-3.20185e-05 	-0.0462299
-0.00722524 	-0.0023371 	-3.26599e-05 	-0.0559599
-0.00722524 	-0.0023371 	-3.26599e-05 	-0.0559599
-0.00717653 	-0.00244268 	-3.15045e-05 	-0.0656212
-0.00717653 	-0.00244268 	-3.15045e-05 	-0.0656212
-0.00712695 	-0.00252057 	-2.83462e-05 	-0.0751315
-0.00712695 	-0.00252057 	-2.83462e-05 	-0.0751315
-0.00707647 	-0.00257284 	-2.27663e-05 	-0.0843955
-0.00707647 	-0.00257284 	-2.27663e-05 	-0.0843955
-0.0070251 	-0.00260449 	-1.44868e-05 	-0.0933293
-0.0070251 	-0.00260449 	-1.44868e-05 	-0.0933293
-0.0069728 	-0.00262224 	-3.58114e-06 	-0.101874
-0.0069728 	-0.00262224 	-3.58114e-06 	-0.101874
-0.00691956 	-0.00263382 	9.88429e-06 	-0.110001
-0.00691956 	-0.00263382 	9.88429e-06 	-0.110001
-0.00686537 	-0.00264559 	2.61597e-05 	-0.117716
-0.00686537 	-0.00264559 	2.61597e-05 	-0.117716
-0.00681021 	-0.00266036 	4.58512e-05 	-0.125044
-0.00681021 	-0.00266036 	4.58512e-05 	-0.125044
-0.00675406 	-0.00267743 	6.89536e-05 	-0.132016
-0.00675406 	-0.00267743 	6.89536e-05 	-0.132016
-0.0066969 	-0.00269629 	9.45052e-05 	-0.138644
-0.0066969 	-0.00269629 	9.45052e-05 	-0.138644
-0.00663871 	-0.00272039 	0.000121449 	-0.144933
-0.00663871 	-0.00272039 	0.000121449 	-0.144933
-0.00657949 	-0.00275658 	0.000148432 	-0.15089
-0.00657949 	-0.00275658 	0.000148432 	-0.15089
-0.0065192 	-0.00281304 	0.000175853 	-0.156542
-0.0065192 	-0.00281304 	0.000175853 	-0.156542
-0.00645783 	-0.00289143 	0.000208392 	-0.161923
-0.00645783 	-0.00289143 	0.000208392 	-0.161923
-0.00639535 	-0.00297681 	0.000250325 	-0.167071
-0.00639535 	-0.00297681 	0.000250325 	-0.167071
-0.00633176 	-0.0030353 	0.000297626 	-0.172053
-0.00633176 	-0.0030353 	0.000297626 	-0.172053
-0.00626703 	-0.00303742 	0.000339658 	-0.176937
-0.00626703 	-0.00303742 	0.000339658 	-0.176937
-0.00620114 	-0.0029977 	0.000373368 	-0.181665
-0.00620114 	-0.0029977 	0.000373368 	-0.181665
-0.00613406 	-0.0029638 	0.000409154 	-0.186072
-0.00613406 	-0.0029638 	0.000409154 	-0.186072
-0.00606579 	-0.00297189 	0.00045476 	-0.190087
-0.00606579 	-0.00297189 	0.00045476 	-0.190087
-0.00599629 	-0.00302481 	0.000504745 	-0.193776
-0.00599629 	-0.00302481 	0.000504745 	-0.193776
-0.00592554 	-0.00309836 	0.000551964 	-0.197247
-0.00592554 	-0.00309836 	0.000551964 	-0.197247
-0.00585352 	-0.00317157 	0.000597238 	-0.200568
-0.00585352 	-0.00317157 	0.000597238 	-0.200568
-0.00578022 	-0.0032429 	0.000649818 	-0.203755
-0.00578022 	-0.0032429 	0.000649818 	-0.203755
-0.00570559 	-0.003323 	0.000712248 	-0.206767
-0.00570559 	-0.003323 	0.000712248 	-0.206767
-0.00562963 	-0.00342205 	0.000766845 	-0.209537
-0.00562963 	-0.00342205 	0.000766845 	-0.209537
-0.00555231 	-0.00353221 	0.000790701 	-0.212144
-0.00555231 	-0.00353221 	0.000790701 	-0.212144
-0.0054736 	-0.00361983 	0.000794454 	-0.215
-0.0054736 	-0.00361983 	0.000794454 	-0.215
-0.00539348 	-0.00368021 	0.000835649 	-0.218446
-0.00539348 	-0.00368021 	0.000835649 	-0.218446
-0.00531193 	-0.00377106 	0.000918569 	-0.221941
-0.00531193 	-0.00377106 	0.000918569 	-0.221941
-0.00522891 	-0.00391341 	0.0010056 	-0.224842
-0.00522891 	-0.00391341 	0.0010056 	-0.224842
-0.0051444 	-0.00401527 	0.00108796 	-0.227525
-0.0051444 	-0.00401527 	0.00108796 	-0.227525
-0.00505838 	-0.00392207 	0.00112747 	-0.23087
-0.00505838 	-0.00392207 	0.00112747 	-0.23087
-0.00497081 	-0.00364054 	0.00112099 	-0.234815
-0.00497081 	-0.00364054 	0.00112099 	-0.234815
-0.00488168 	-0.00336464 	0.00113877 	-0.23838
-0.00488168 	-0.00336464 	0.00113877 	-0.23838
-0.00479094 	-0.00323048 	0.0012086 	-0.24111
-0.00479094 	-0.00323048 	0.0012086 	-0.24111
-0.00469858 	-0.00322612 	0.00128664 	-0.243232
-0.00469858 	-0.00322612 	0.00128664 	-0.243232
-0.00460456 	-0.00326228 	0.00134236 	-0.245102
-0.00460456 	-0.00326228 	0.00134236 	-0.245102
-0.00450886 	-0.00328633 	0.00138755 	-0.246891
-0.00450886 	-0.00328633 	0.00138755 	-0.246891
-0.00441144 	-0.00329606 	0.00143266 	-0.248617
-0.00441144 	-0.00329606 	0.00143266 	-0.248617
-0.00431227 	-0.00329603 	0.00147641 	-0.250273
-0.00431227 	-0.00329603 	0.00147641 	-0.250273
-0.00421133 	-0.00328893 	0.00151816 	-0.251867
-0.00421133 	-0.00328893 	0.00151816 	-0.251867
-0.00410857 	-0.00327678 	0.00155918 	-0.253408
-0.00410857 	-0.00327678 	0.00155918 	-0.253408
-0.00400397 	-0.00326131 	0.00159984 	-0.254897
-0.00400397 	-0.00326131 	0.00159984 	-0.254897
-0.0038975 	-0.00324558 	0.00164167 	-0.256342
-0.0038975 	-0.00324558 	0.00164167 	-0.256342
-0.00378912 	-0.00323081 	0.00168625 	-0.257781
-0.00378912 	-0.00323081 	0.00168625 	-0.257781
-0.00367879 	-0.00321286 	0.00172792 	-0.259303
-0.00367879 	-0.00321286 	0.00172792 	-0.259303
-0.00356649 	-0.00319405 	0.0017604 	-0.261001
-0.00356649 	-0.00319405 	0.0017604 	-0.261001
-0.00345217 	-0.0031902 	0.0017904 	-0.26284
-0.00345217 	-0.0031902 	0.0017904 	-0.26284
-0.0033358 	-0.00320917 	0.00182523 	-0.264597
-0.0033358 	-0.00320917 	0.00182523 	-0.264597
-0.00321735 	-0.00323425 	0.00186083 	-0.266074
-0.00321735 	-0.00323425 	0.00186083 	-0.266074
-0.00309677 	-0.00324158 	0.00188883 	-0.267294
-0.00309677 	-0.00324158 	0.00188883 	-0.267294
-0.00297403 	-0.00322579 	0.0019055 	-0.268377
-0.00297403 	-0.00322579 	0.0019055 	-0.268377
-0.00284909 	-0.00319664 	0.0019158 	-0.269399
-0.00284909 	-0.00319664 	0.0019158 	-0.269399
-0.0027219 	-0.00315899 	0.00192452 	-0.270374
-0.0027219 	-0.00315899 	0.00192452 	-0.270374
-0.00259244 	-0.0031087 	0.00193188 	-0.271301
-0.00259244 	-0.0031087 	0.00193188 	-0.271301
-0.00246065 	-0.00303827 	0.00193769 	-0.272176
-0.00246065 	-0.00303827 	0.00193769 	-0.272176
-0.00232651 	-0.00294138 	0.00194137 	-0.272994
-0.00232651 	-0.00294138 	0.00194137 	-0.272994
-0.00218995 	-0.00281685 	0.00194226 	-0.27375
-0.00218995 	-0.00281685 	0.00194226 	-0.27375
-0.00205095 	-0.00266929 	0.00194 	-0.274436
-0.00205095 	-0.00266929 	0.00194 	-0.274436
-0.00190946 	-0.00250423 	0.00193441 	-0.275054
-0.00190946 	-0.00250423 	0.00193441 	-0.275054
-0.00176543 	-0.00232558 	0.00192563 	-0.275603
-0.00176543 	-0.00232558 	0.00192563 	-0.275603
-0.00161881 	-0.00213675 	0.00191375 	-0.276079
-0.00161881 	-0.00213675 	0.00191375 	-0.276079
-0.00146957 	-0.001941 	0.00189885 	-0.276481
-0.00146957 	-0.001941 	0.00189885 	-0.276481
-0.00131765 	-0.00174252 	0.00188098 	-0.276808
-0.00131765 	-0.00174252 	0.00188098 	-0.276808
-0.001163 	-0.00154782 	0.0018598 	-0.277052
-0.001163 	-0.00154782 	0.0018598 	-0.277052
-0.00100559 	-0.00136312 	0.00183442 	-0.277207
-0.00100559 	-0.00136312 	0.00183442 	-0.277207
-0.000845345 	-0.00118978 	0.00180719 	-0.27727
-0.000845345 	-0.00118978 	0.00180719 	-0.27727
-0.000682232 	-0.00102405 	0.00177549 	-0.277246
-0.000682232 	-0.00102405 	0.00177549 	-0.277246
-0.000516194 	-0.000861701 	0.00173673 	-0.277144
-0.000516194 	-0.000861701 	0.00173673 	-0.277144
-0.000347178 	-0.000700204 	0.00169427 	-0.27699
-0.000347178 	-0.000700204 	0.00169427 	-0.27699
-0.000175132 	-0.00054345 	0.00161572 	-0.276776
-0.000175132 	-0.00054345 	0.00161572 	-0.276776
0 	-0.000403927 	0.0015179 	-0.27641
0 	-0.000403927 	0.0015179 	-0.27641
0 	-0.000403927 	0.0015179 	-0.27641
0 	-0.000403927 	0.0015179 	-0.27641
0.000175132 	-0.000265988 	0.00152155 	-0.276021
0.000175132 	0.0094639 	-0.00414243 	-0.229862
0.000347178 	-5.09964e-05 	0.00159939 	-0.276436
0.000347178 	0.010269 	-0.00339998 	-0.235587
0.000516194 	0.000307604 	0.00150261 	-0.278505
0.000516194 	0.012075 	-0.00387939 	-0.252599
0.000682232 	0.00069574 	0.00129876 	-0.281013
0.000682232 	0.0141249 	-0.00514655 	-0.272667
0.000845345 	0.000980738 	0.00123293 	-0.282407
0.000845345 	0.0155166 	-0.00545231 	-0.285257
0.00100559 	0.00117772 	0.00124353 	-0.282802
0.00100559 	0.0163317 	-0.00521073 	-0.291048
0.001163 	0.00132871 	0.0012196 	-0.282707
0.001163 	0.0168617 	-0.00518478 	-0.293471
0.00131765 	0.00145957 	0.00116752 	-0.28251
0.00131765 	0.0173103 	-0.00534165 	-0.295234
0.00146957 	0.00157669 	0.00111948 	-0.282309
0.00146957 	0.0177315 	-0.00545405 	-0.297067
0.00161881 	0.00168056 	0.00107422 	-0.282093
0.00161881 	0.0181216 	-0.00552367 	-0.298901
0.00176543 	0.00177272 	0.00102804 	-0.281858
0.00176543 	0.018477 	-0.00558716 	-0.300706
0.00190946 	0.00185461 	0.000983637 	-0.281592
0.00190946 	0.0187965 	-0.00563742 	-0.302476
0.00205095 	0.00192718 	0.000942959 	-0.281273
0.00205095 	0.0190826 	-0.00566675 	-0.304234
0.00218995 	0.00199174 	0.000905288 	-0.280892
0.00218995 	0.019342 	-0.00568882 	-0.306031
0.00232651 	0.00204949 	0.000868859 	-0.280451
0.00232651 	0.0195741 	-0.00571806 	-0.307901
0.00246065 	0.00209991 	0.000832612 	-0.279955
0.00246065 	0.0197557 	-0.00573798 	-0.309727
0.00259244 	0.00214211 	0.00079632 	-0.2794
0.00259244 	0.0198566 	-0.00571658 	-0.311274
0.0027219 	0.00217797 	0.000760224 	-0.278785
0.0027219 	0.0198817 	-0.00564172 	-0.31244
0.00284909 	0.00221301 	0.000724171 	-0.278112
0.00284909 	0.0198675 	-0.00558352 	-0.313313
0.00297403 	0.00225234 	0.000687265 	-0.277382
0.00297403 	0.0198438 	-0.00562261 	-0.314057
0.00309677 	0.00229422 	0.000649431 	-0.2766
0.00309677 	0.0198082 	-0.00560702 	-0.314924
0.00321735 	0.0023314 	0.000612578 	-0.275766
0.00321735 	0.019726 	-0.00540088 	-0.316136
0.0033358 	0.00235948 	0.000578891 	-0.274877
0.0033358 	0.0195572 	-0.00512653 	-0.317509
0.00345217 	0.00238157 	0.000548797 	-0.273923
0.00345217 	0.0192791 	-0.00501926 	-0.318252
0.00356649 	0.00240518 	0.000520498 	-0.272895
0.00356649 	0.0189255 	-0.00509078 	-0.318144
0.00367879 	0.00243498 	0.000492014 	-0.271794
0.00367879 	0.0185598 	-0.00511285 	-0.317781
0.00378912 	0.0181945 	-0.00500448 	-0.317454
0.00378912 	0.00246816 	0.000464234 	-0.27062
0.0038975 	0.00249787 	0.000437591 	-0.26937
0.0038975 	0.0177885 	-0.0048642 	-0.317094
0.00400397 	0.00252023 	0.000409383 	-0.268037
0.00400397 	0.0173023 	-0.00477039 	-0.316566
0.00410857 	0.00253349 	0.000379305 	-0.266616
0.00410857 	0.0167214 	-0.00468119 	-0.315815
0.00421133 	0.00253382 	0.000350247 	-0.265109
0.00421133 	0.0160407 	-0.00457762 	-0.314852
0.00431227 	0.0025172 	0.000324608 	-0.263527
0.00431227 	0.0152637 	-0.00448252 	-0.313736
0.00441144 	0.00248431 	0.000302309 	-0.261885
0.00441144 	0.0144056 	-0.00438983 	-0.312527
0.00450886 	0.00244133 	0.000280683 	-0.260187
0.00450886 	0.0134896 	-0.00426925 	-0.311234
0.00460456 	0.0023957 	0.000257461 	-0.258429
0.00460456 	0.0125377 	-0.00416062 	-0.309829
0.00469858 	0.00235245 	0.000232595 	-0.256616
0.00469858 	0.0115747 	-0.00412305 	-0.308414
0.00479094 	0.0023126 	0.000206741 	-0.254765
0.00479094 	0.0106241 	-0.00405903 	-0.307314
0.00488168 	0.00227397 	0.000181472 	-0.252882
0.00488168 	0.00968742 	-0.00388265 	-0.306847
0.00497081 	0.00223545 	0.000159262 	-0.250952
0.00497081 	0.00874651 	-0.00363723 	-0.306942
0.00505838 	0.00220028 	0.000139771 	-0.248954
0.00505838 	0.00776232 	-0.00350731 	-0.306706
0.0051444 	0.00217511 	0.000120559 	-0.24687
0.0051444 	0.00673792 	-0.00354282 	-0.305502
0.00522891 	0.00216551 	9.97701e-05 	-0.244691
0.00522891 	0.00574204 	-0.00355322 	-0.303779
0.00531193 	0.00481848 	-0.00345515 	-0.302027
0.00531193 	0.00217253 	7.73052e-05 	-0.242406
0.00539348 	0.00219302 	5.48822e-05 	-0.24001
0.00539348 	0.00395641 	-0.00332024 	-0.300327
0.0054736 	0.00222292 	3.39151e-05 	-0.237494
0.0054736 	0.00312571 	-0.00323313 	-0.298601
0.00555231 	0.00226057 	1.45933e-05 	-0.234852
0.00555231 	0.0023064 	-0.00317931 	-0.296779
0.00562963 	0.00230736 	-3.93975e-06 	-0.232076
0.00562963 	0.00148782 	-0.00311578 	-0.294762
0.00570559 	0.00236675 	-2.19884e-05 	-0.229154
0.00570559 	0.000667521 	-0.00303781 	-0.292457
0.00578022 	0.00244246 	-3.87519e-05 	-0.226068
0.00578022 	-0.000147856 	-0.00295672 	-0.289848
0.00585352 	0.00253626 	-5.39838e-05 	-0.222793
0.00585352 	-0.000949427 	-0.00288101 	-0.286972
0.00592554 	0.00264688 	-6.75677e-05 	-0.219304
0.00592554 	-0.00173164 	-0.00280934 	-0.283861
0.00599629 	0.00277089 	-7.89282e-05 	-0.21558
0.00599629 	-0.00249234 	-0.00273758 	-0.280513
0.00606579 	-0.00322957 	-0.0026617 	-0.276906
0.00606579 	0.00290455 	-8.80397e-05 	-0.211603
0.00613406 	0.00304489 	-9.52945e-05 	-0.207355
0.00613406 	-0.00394063 	-0.0025813 	-0.273021
0.00620114 	0.00318941 	-0.00010141 	-0.202816
0.00620114 	-0.00462289 	-0.00249992 	-0.268836
0.00626703 	0.00333647 	-0.000107432 	-0.197961
0.00626703 	-0.00526822 	-0.00242287 	-0.264294
0.00633176 	0.00348606 	-0.000112415 	-0.192755
0.00633176 	-0.00585542 	-0.00234741 	-0.259274
0.00639535 	0.00363821 	-0.000113914 	-0.187147
0.00639535 	-0.00635952 	-0.00226041 	-0.253592
0.00645783 	0.00379044 	-0.000111707 	-0.181083
0.00645783 	-0.00676982 	-0.00215539 	-0.247064
0.0065192 	0.0039372 	-0.000108027 	-0.174526
0.0065192 	-0.0070918 	-0.00204161 	-0.239639
0.00657949 	0.00407047 	-0.000105328 	-0.167465
0.00657949 	-0.00733841 	-0.00193664 	-0.23143
0.00663871 	0.00418244 	-0.000103143 	-0.159908
0.00663871 	-0.00751506 	-0.00184202 	-0.222551
0.0066969 	0.00426793 	-9.87079e-05 	-0.151855
0.0066969 	-0.00760983 	-0.00174253 	-0.213004
0.00675406 	0.00432238 	-9.17313e-05 	-0.143292
0.00675406 	-0.00760314 	-0.0016329 	-0.202718
0.00681021 	0.00433872 	-8.37819e-05 	-0.134197
0.00681021 	-0.00748042 	-0.00151581 	-0.191605
0.00686537 	0.00430554 	-7.55702e-05 	-0.124555
0.00686537 	-0.00723873 	-0.00139279 	-0.179578
0.00691956 	0.00420868 	-6.73205e-05 	-0.114391
0.00691956 	-0.00688691 	-0.00126426 	-0.166567
0.0069728 	0.00403548 	-5.90719e-05 	-0.103796
0.0069728 	-0.00644514 	-0.00113192 	-0.152611
0.0070251 	0.00377849 	-5.09678e-05 	-0.0929252
0.0070251 	-0.00594374 	-0.00100016 	-0.1379
0.00707647 	0.00343899 	-4.32054e-05 	-0.0819898
0.00707647 	-0.00541301 	-0.000870843 	-0.122753
0.00712695 	0.00302921 	-3.57395e-05 	-0.0712208
0.00712695 	-0.00487409 	-0.000745853 	-0.10757
0.00717653 	0.00257232 	-2.85874e-05 	-0.0608215
0.00717653 	-0.00433261 	-0.000627694 	-0.0927425
0.00722524 	0.00210141 	-2.18471e-05 	-0.0509134
0.00722524 	-0.00377079 	-0.000514669 	-0.0785168
0.00727309 	0.00165943 	-1.56401e-05 	-0.0415082
0.00727309 	-0.00314107 	-0.000408407 	-0.0648868
0.0073201 	0.00130293 	-1.04238e-05 	-0.0325095
0.0073201 	-0.00235936 	-0.000321375 	-0.0515462
0.00736628 	0.00111188 	-4.55828e-06 	-0.0237352
0.00736628 	-0.00129257 	-0.000189042 	-0.0378693
0.00741165 	0.00102065 	-1.86791e-06 	-0.0151424
0.00741165 	-0.000129868 	-0.000125451 	-0.0237239
0.00745622 	0.000714221 	-6.85722e-07 	-0.00708725
0.00745622 	0.000431614 	-6.41943e-05 	-0.0105082
0.0075 	0 	0 	0
0.0075 	0 	0 	0
