0 	0 	0 	0
0 	0 	0 	0
0.00752508 	-0.00038417 	0.00151842 	-0.276355
0.00752508 	-0.00038417 	0.00151842 	-0.276355
0.00757525 	-0.000344657 	0.00151947 	-0.276243
0.00762542 	-0.000305144 	0.00152051 	-0.276132
0.00762542 	-0.000305144 	0.00152051 	-0.276132
0.00767559 	-0.000265421 	0.00152175 	-0.276022
0.00772575 	-0.000202731 	0.00154445 	-0.276143
0.00777592 	-0.000140042 	0.00156715 	-0.276264
0.00782609 	-7.7352e-05 	0.00158985 	-0.276385
0.00782609 	-7.7352e-05 	0.00158985 	-0.276385
0.00787625 	1.06944e-05 	0.00158274 	-0.276792
0.00792642 	0.000117134 	0.00155402 	-0.277406
0.00797659 	0.000223574 	0.00152529 	-0.27802
0.00802676 	0.000332294 	0.00148964 	-0.278665
0.00802676 	0.000332294 	0.00148964 	-0.278665
0.00807692 	0.000449567 	0.00142805 	-0.279422
0.00812709 	0.000566839 	0.00136646 	-0.28018
0.00812709 	0.000566839 	0.00136646 	-0.28018
0.00817726 	0.000684111 	0.00130487 	-0.280938
0.00822742 	0.000774702 	0.00128052 	-0.281399
0.00822742 	0.000774702 	0.00128052 	-0.281399
0.00827759 	0.000862356 	0.00126027 	-0.281828
0.00832776 	0.000950011 	0.00124003 	-0.282257
0.00832776 	0.000950011 	0.00124003 	-0.282257
0.00837793 	0.00102079 	0.00123509 	-0.282487
0.00842809 	0.00108246 	0.0012384 	-0.282611
0.00842809 	0.00108246 	0.0012384 	-0.282611
0.00847826 	0.00114413 	0.00124172 	-0.282734
0.00847826 	0.00114413 	0.00124172 	-0.282734
0.00852843 	0.00119963 	0.00124006 	-0.282788
0.00852843 	0.00119963 	0.00124006 	-0.282788
0.0085786 	0.00124775 	0.00123243 	-0.282758
0.0085786 	0.00124775 	0.00123243 	-0.282758
0.00862876 	0.00129587 	0.00122481 	-0.282728
0.00867893 	0.00134219 	0.00121424 	-0.282687
0.00867893 	0.00134219 	0.00121424 	-0.282687
0.0087291 	0.00138464 	0.00119734 	-0.282623
0.00877926 	0.00142709 	0.00118044 	-0.282559
0.00877926 	0.00142709 	0.00118044 	-0.282559
0.00882943 	0.00146866 	0.00116379 	-0.282495
0.0088796 	0.00150733 	0.00114793 	-0.282428
0.0088796 	0.00150733 	0.00114793 	-0.282428
0.00897993 	0.00158391 	0.00111634 	-0.282294
0.00897993 	0.00158391 	0.00111634 	-0.282294
0.0090301 	0.00161882 	0.00110112 	-0.282221
0.00908027 	0.00165374 	0.00108591 	-0.282149
0.00908027 	0.00165374 	0.00108591 	-0.282149
0.00913043 	0.00168787 	0.00107056 	-0.282074
0.0091806 	0.0017194 	0.00105476 	-0.281994
0.0091806 	0.0017194 	0.00105476 	-0.281994
0.00923077 	0.00175093 	0.00103895 	-0.281913
0.00928094 	0.00178154 	0.00102326 	-0.281829
0.00928094 	0.00178154 	0.00102326 	-0.281829
0.0093311 	0.00181006 	0.00100779 	-0.281737
0.00938127 	0.00183859 	0.000992326 	-0.281644
0.00938127 	0.00183859 	0.000992326 	-0.281644
0.00943144 	0.00186588 	0.000977318 	-0.281543
0.00943144 	0.00186588 	0.000977318 	-0.281543
0.00948161 	0.00189161 	0.000962895 	-0.28143
0.00948161 	0.00189161 	0.000962895 	-0.28143
0.00953177 	0.00191734 	0.000948473 	-0.281317
0.00953177 	0.00191734 	0.000948473 	-0.281317
0.00958194 	0.00194157 	0.000934561 	-0.281188
0.00958194 	0.00194157 	0.000934561 	-0.281188
0.00963211 	0.00196487 	0.000920965 	-0.28105
0.00963211 	0.00196487 	0.000920965 	-0.28105
0.00968227 	0.00198817 	0.000907369 	-0.280913
0.00968227 	0.00198817 	0.000907369 	-0.280913
0.00973244 	0.00200971 	0.000893953 	-0.280755
0.00978261 	0.00203092 	0.00088057 	-0.280593
0.00983278 	0.00205185 	0.000867165 	-0.280428
0.00988294 	0.0020707 	0.00085361 	-0.280242
0.00988294 	0.0020707 	0.00085361 	-0.280242
0.00993311 	0.00208956 	0.000840055 	-0.280057
0.00998328 	0.00210715 	0.000826382 	-0.279859
0.00998328 	0.00210715 	0.000826382 	-0.279859
0.0100334 	0.00212322 	0.000812566 	-0.279648
0.0100334 	0.00212322 	0.000812566 	-0.279648
0.0100836 	0.00213928 	0.000798751 	-0.279437
0.0101338 	0.00215356 	0.000784794 	-0.279204
0.0101338 	0.00215356 	0.000784794 	-0.279204
0.0102341 	0.00218133 	0.000756763 	-0.278721
0.0102341 	0.00218133 	0.000756763 	-0.278721
0.0102843 	0.00219515 	0.000742541 	-0.278455
0.0103344 	0.00220897 	0.00072832 	-0.27819
0.0103344 	0.00220897 	0.00072832 	-0.27819
0.0103846 	0.00222419 	0.000713676 	-0.277905
0.0103846 	0.00222419 	0.000713676 	-0.277905
0.0104348 	0.00223998 	0.000698857 	-0.277612
0.0104849 	0.00225606 	0.000683898 	-0.277313
0.0104849 	0.00225606 	0.000683898 	-0.277313
0.0105351 	0.00227318 	0.000668434 	-0.276993
0.0105853 	0.0022903 	0.000652971 	-0.276673
0.0105853 	0.0022903 	0.000652971 	-0.276673
0.0106355 	0.00230615 	0.000637608 	-0.276332
0.0106856 	0.00232162 	0.000622275 	-0.275985
0.0106856 	0.00232162 	0.000622275 	-0.275985
0.0107358 	0.00233577 	0.000607334 	-0.275627
0.0107358 	0.00233577 	0.000607334 	-0.275627
0.010786 	0.00234766 	0.000593067 	-0.275251
0.010786 	0.00234766 	0.000593067 	-0.275251
0.0108361 	0.00235954 	0.000578808 	-0.274874
0.0108361 	0.00235954 	0.000578808 	-0.274874
0.0108863 	0.00236906 	0.000565835 	-0.274463
0.0109365 	0.00237859 	0.000552861 	-0.274052
0.0109365 	0.00237859 	0.000552861 	-0.274052
0.0109866 	0.00238868 	0.000540269 	-0.273613
0.0109866 	0.00238868 	0.000540269 	-0.273613
0.0110368 	0.00239904 	0.00052785 	-0.273162
0.011087 	0.00241061 	0.000515306 	-0.272695
0.011087 	0.00241061 	0.000515306 	-0.272695
0.0111371 	0.00242392 	0.000502583 	-0.272203
0.0111873 	0.00243754 	0.000489875 	-0.271704
0.0111873 	0.00243754 	0.000489875 	-0.271704
0.0112375 	0.00245263 	0.000477242 	-0.27117
0.0112876 	0.00246772 	0.00046461 	-0.270636
0.0112876 	0.00246772 	0.00046461 	-0.270636
0.0113378 	0.00248151 	0.000452269 	-0.270059
0.011388 	0.00249526 	0.000439937 	-0.26948
0.011388 	0.00249526 	0.000439937 	-0.26948
0.0114883 	0.00251694 	0.000413537 	-0.268233
0.0114883 	0.00251694 	0.000413537 	-0.268233
0.0115385 	0.0025246 	0.000399466 	-0.267569
0.0115886 	0.00253096 	0.00038504 	-0.266887
0.0115886 	0.00253096 	0.00038504 	-0.266887
0.0116388 	0.00253359 	0.000370758 	-0.266173
0.011689 	0.00253374 	0.000356571 	-0.265437
0.011689 	0.00253374 	0.000356571 	-0.265437
0.0117391 	0.00252924 	0.000343185 	-0.264673
0.0117893 	0.00252098 	0.000330444 	-0.263887
0.0117893 	0.00252098 	0.000330444 	-0.263887
0.0118395 	0.00250818 	0.000318494 	-0.263076
0.0118896 	0.00249154 	0.000307213 	-0.262246
0.0118896 	0.00249154 	0.000307213 	-0.262246
0.0119398 	0.0024718 	0.000296013 	-0.26139
0.0119398 	0.0024718 	0.000296013 	-0.26139
0.01199 	0.00244966 	0.000284877 	-0.260516
0.01199 	0.00244966 	0.000284877 	-0.260516
0.0120401 	0.00242642 	0.000273094 	-0.259612
0.0120401 	0.00242642 	0.000273094 	-0.259612
0.0120903 	0.0024025 	0.000260921 	-0.258691
0.0120903 	0.0024025 	0.000260921 	-0.258691
0.0121405 	0.00237919 	0.000247964 	-0.257737
0.0121405 	0.00237919 	0.000247964 	-0.257737
0.0121906 	0.00235611 	0.000234696 	-0.256769
0.0121906 	0.00235611 	0.000234696 	-0.256769
0.0122408 	0.00233423 	0.000220776 	-0.25577
0.0122408 	0.00233423 	0.000220776 	-0.25577
0.012291 	0.00231259 	0.000206733 	-0.254765
0.012291 	0.00231259 	0.000206733 	-0.254765
0.0123411 	0.00229123 	0.000192762 	-0.253724
0.0123411 	0.00229123 	0.000192762 	-0.253724
0.0123913 	0.00226981 	0.000179073 	-0.252674
0.0123913 	0.00226981 	0.000179073 	-0.252674
0.0124415 	0.00224813 	0.000166573 	-0.251588
0.0124916 	0.00222708 	0.000154626 	-0.250477
0.0124916 	0.00222708 	0.000154626 	-0.250477
0.012592 	0.00219045 	0.000132268 	-0.24814
0.012592 	0.00219045 	0.000132268 	-0.24814
0.0126421 	0.00217577 	0.000121064 	-0.246925
0.0126923 	0.00216967 	0.000108774 	-0.245635
0.0126923 	0.00216967 	0.000108774 	-0.245635
0.0127425 	0.00216666 	9.6099e-05 	-0.244318
0.0127425 	0.00216666 	9.6099e-05 	-0.244318
0.0127926 	0.0021709 	8.25238e-05 	-0.242937
0.0128428 	0.00218029 	6.88146e-05 	-0.241499
0.0128428 	0.00218029 	6.88146e-05 	-0.241499
0.012893 	0.00219289 	5.50218e-05 	-0.240025
0.0129431 	0.00221155 	4.18864e-05 	-0.23845
0.0129431 	0.00221155 	4.18864e-05 	-0.23845
0.0129933 	0.00223235 	2.90773e-05 	-0.236833
0.0130435 	0.00225634 	1.6762e-05 	-0.235149
0.0130435 	0.00225634 	1.6762e-05 	-0.235149
0.0130936 	0.00228558 	4.68641e-06 	-0.233368
0.0131438 	0.00231844 	-7.30852e-06 	-0.231531
0.0131438 	0.00231844 	-7.30852e-06 	-0.231531
0.013194 	0.00235767 	-1.92286e-05 	-0.229601
0.0132441 	0.00240586 	-3.0649e-05 	-0.22756
0.0132441 	0.00240586 	-3.0649e-05 	-0.22756
0.0132943 	0.0024605 	-4.16812e-05 	-0.225438
0.0133445 	0.00252469 	-5.2105e-05 	-0.223197
0.0133445 	0.00252469 	-5.2105e-05 	-0.223197
0.0133946 	0.00259943 	-6.17409e-05 	-0.2208
0.0134448 	0.00268067 	-7.06631e-05 	-0.218289
0.0134448 	0.00268067 	-7.06631e-05 	-0.218289
0.013495 	0.0027686 	-7.87189e-05 	-0.215648
0.0135452 	0.00286486 	-8.53341e-05 	-0.212784
0.0135452 	0.00286486 	-8.53341e-05 	-0.212784
0.0136455 	0.0030695 	-9.63358e-05 	-0.206582
0.0136455 	0.0030695 	-9.63358e-05 	-0.206582
0.0136957 	0.00317759 	-0.00010091 	-0.203187
0.0137458 	0.00328913 	-0.000105494 	-0.199524
0.0137458 	0.00328913 	-0.000105494 	-0.199524
0.013796 	0.00340338 	-0.000109661 	-0.195632
0.0138462 	0.00352049 	-0.000112754 	-0.191486
0.0138462 	0.00352049 	-0.000112754 	-0.191486
0.0138963 	0.00364056 	-0.00011388 	-0.187053
0.0138963 	0.00364056 	-0.00011388 	-0.187053
0.0139465 	0.00376281 	-0.000112108 	-0.182184
0.0139967 	0.0038833 	-0.000109379 	-0.176934
0.0139967 	0.0038833 	-0.000109379 	-0.176934
0.0140468 	0.00399827 	-0.00010679 	-0.17129
0.0140468 	0.00399827 	-0.00010679 	-0.17129
0.014097 	0.00410357 	-0.000104682 	-0.165231
0.0141472 	0.00419485 	-0.000102499 	-0.158739
0.0141973 	0.00426834 	-9.86557e-05 	-0.151791
0.0141973 	0.00426834 	-9.86557e-05 	-0.151791
0.0142475 	0.00431613 	-9.25325e-05 	-0.144276
0.0142977 	0.00433507 	-8.55585e-05 	-0.136229
0.0143478 	0.0043161 	-7.8182e-05 	-0.127621
0.0143478 	0.0043161 	-7.8182e-05 	-0.127621
0.014398 	0.00424723 	-7.0604e-05 	-0.118437
0.014398 	0.00424723 	-7.0604e-05 	-0.118437
0.0144482 	0.00411564 	-6.28894e-05 	-0.108699
0.0144983 	0.00391004 	-5.5116e-05 	-0.0984893
0.0144983 	0.00391004 	-5.5116e-05 	-0.0984893
0.0145485 	0.00362388 	-4.74328e-05 	-0.0879452
0.0145987 	0.00325885 	-3.99234e-05 	-0.0772558
0.0145987 	0.00325885 	-3.99234e-05 	-0.0772558
0.0146488 	0.00282757 	-3.25831e-05 	-0.0666314
0.014699 	0.00235512 	-2.54786e-05 	-0.0562517
0.014699 	0.00235512 	-2.54786e-05 	-0.0562517
0.0147492 	0.00188044 	-1.87439e-05 	-0.0462113
0.0147993 	0.00146044 	-1.27286e-05 	-0.0364855
0.0147993 	0.00146044 	-1.27286e-05 	-0.0364855
0.0148495 	0.00118132 	-6.69002e-06 	-0.0269241
0.0148495 	0.00118132 	-6.69002e-06 	-0.0269241
0.0148997 	0.00104475 	-2.57856e-06 	-0.0174121
0.0148997 	0.00104475 	-2.57856e-06 	-0.0174121
0.0149498 	0.000758116 	-8.55069e-07 	-0.00824114
0.0149498 	0.000758116 	-8.55069e-07 	-0.00824114
0.015 	0 	0 	0
