/*--------------------------------*- C++ -*----------------------------------*\
| =========                 |                                                 |
| \\      /  F ield         | OpenFOAM: The Open Source CFD Toolbox           |
|  \\    /   O peration     | Version:  v1912                                 |
|   \\  /    A nd           | Website:  www.openfoam.com                      |
|    \\/     M anipulation  |                                                 |
\*---------------------------------------------------------------------------*/
FoamFile
{
    version     2.0;
    format      ascii;
    class       volScalarField;
    location    "197.2";
    object      T;
}
// * * * * * * * * * * * * * * * * * * * * * * * * * * * * * * * * * * * * * //

dimensions      [0 0 0 1 0 0 0];


internalField   nonuniform List<scalar> 
10147
(
347.172
347.012
346.799
346.677
346.635
346.632
346.641
346.65
346.652
346.648
346.636
346.626
346.629
346.671
346.794
347.009
346.961
346.919
346.888
346.869
346.862
346.866
346.883
346.913
346.955
346.985
346.969
346.819
346.581
346.571
346.573
346.618
346.738
346.977
346.789
347.12
346.963
346.752
346.629
346.585
346.581
346.588
346.598
346.599
346.595
346.584
346.575
346.579
346.623
346.747
346.959
347.068
346.913
346.705
346.581
346.536
346.53
346.536
346.545
346.547
346.543
346.532
346.524
346.53
346.575
346.7
346.91
347.016
346.864
346.658
346.534
346.487
346.48
346.486
346.494
346.495
346.492
346.481
346.474
346.481
346.528
346.653
346.86
346.965
346.815
346.612
346.488
346.439
346.431
346.436
346.444
346.445
346.441
346.431
346.425
346.433
346.482
346.607
346.811
346.914
346.766
346.566
346.442
346.392
346.382
346.386
346.394
346.395
346.392
346.382
346.377
346.386
346.436
346.561
346.763
346.864
346.718
346.52
346.396
346.345
346.334
346.338
346.345
346.346
346.343
346.334
346.329
346.34
346.391
346.515
346.714
346.814
346.669
346.475
346.351
346.299
346.287
346.29
346.297
346.298
346.295
346.286
346.282
346.294
346.346
346.47
346.666
346.764
346.621
346.43
346.307
346.254
346.241
346.243
346.249
346.25
346.247
346.239
346.236
346.248
346.301
346.425
346.618
346.715
346.574
346.385
346.262
346.208
346.195
346.197
346.203
346.203
346.2
346.193
346.19
346.203
346.257
346.38
346.57
346.665
346.526
346.34
346.218
346.164
346.149
346.15
346.156
346.156
346.154
346.147
346.144
346.158
346.213
346.336
346.523
346.616
346.479
346.296
346.175
346.119
346.104
346.105
346.11
346.111
346.108
346.101
346.099
346.114
346.17
346.291
346.476
346.568
346.432
346.252
346.131
346.076
346.06
346.06
346.065
346.065
346.063
346.056
346.055
346.071
346.126
346.247
346.429
346.519
346.385
346.208
346.088
346.032
346.015
346.015
346.02
346.02
346.018
346.012
346.011
346.027
346.084
346.203
346.382
346.471
346.339
346.164
346.046
345.989
345.972
345.971
345.976
345.976
345.974
345.968
345.967
345.984
346.041
346.16
346.336
346.423
346.293
346.121
346.003
345.946
345.928
345.927
345.932
345.932
345.93
345.924
345.924
345.941
345.999
346.116
346.289
346.376
346.247
346.078
345.961
345.904
345.885
345.884
345.888
345.888
345.886
345.881
345.881
345.899
345.956
346.073
346.244
346.328
346.201
346.035
345.919
345.861
345.843
345.841
345.845
345.845
345.843
345.837
345.838
345.857
345.914
346.03
346.198
346.281
346.155
345.992
345.877
345.819
345.8
345.798
345.802
345.801
345.8
345.795
345.796
345.815
345.873
345.988
346.152
346.234
346.11
345.949
345.835
345.777
345.758
345.756
345.759
345.759
345.757
345.752
345.753
345.773
345.831
345.945
346.107
346.188
346.065
345.906
345.794
345.735
345.715
345.713
345.716
345.716
345.714
345.71
345.711
345.731
345.789
345.902
346.062
346.141
346.02
345.864
345.752
345.693
345.673
345.67
345.674
345.673
345.672
345.667
345.669
345.689
345.747
345.859
346.017
346.095
345.975
345.821
345.71
345.651
345.63
345.628
345.631
345.63
345.629
345.625
345.626
345.646
345.705
345.817
345.972
346.048
345.93
345.778
345.667
345.608
345.587
345.585
345.588
345.587
345.586
345.581
345.583
345.603
345.663
345.774
345.927
346.002
345.885
345.734
345.624
345.564
345.544
345.541
345.544
345.543
345.542
345.538
345.54
345.56
345.62
345.73
345.882
345.956
345.839
345.69
345.58
345.52
345.499
345.497
345.5
345.499
345.498
345.494
345.495
345.516
345.576
345.686
345.837
345.91
345.794
345.645
345.536
345.476
345.455
345.452
345.455
345.455
345.454
345.449
345.451
345.472
345.532
345.641
345.791
345.864
345.749
345.601
345.492
345.431
345.411
345.408
345.411
345.41
345.409
345.405
345.407
345.427
345.488
345.597
345.746
345.818
345.704
345.555
345.447
345.387
345.366
345.363
345.366
345.365
345.364
345.36
345.362
345.383
345.443
345.552
345.701
345.772
345.658
345.51
345.403
345.342
345.321
345.319
345.322
345.321
345.32
345.316
345.318
345.338
345.399
345.506
345.655
345.726
345.612
345.465
345.358
345.297
345.277
345.274
345.277
345.276
345.275
345.271
345.273
345.294
345.354
345.461
345.609
345.679
345.566
345.419
345.313
345.253
345.232
345.229
345.232
345.231
345.23
345.226
345.228
345.249
345.309
345.415
345.563
345.632
345.519
345.373
345.268
345.208
345.187
345.185
345.187
345.186
345.186
345.182
345.183
345.204
345.264
345.37
345.516
345.585
345.472
345.327
345.223
345.163
345.142
345.139
345.142
345.141
345.14
345.136
345.138
345.159
345.219
345.324
345.469
345.538
345.425
345.281
345.178
345.117
345.097
345.094
345.097
345.096
345.095
345.091
345.093
345.113
345.174
345.277
345.422
345.49
345.377
345.234
345.132
345.071
345.051
345.048
345.051
345.05
345.049
345.045
345.047
345.067
345.128
345.23
345.374
345.442
345.329
345.187
345.085
345.025
345.004
345.002
345.005
345.003
345.003
344.999
345.001
345.021
345.081
345.183
345.326
345.393
345.28
345.139
345.038
344.977
344.957
344.955
344.958
344.956
344.956
344.952
344.954
344.974
345.034
345.135
345.278
345.345
345.231
345.09
344.99
344.929
344.909
344.907
344.91
344.909
344.908
344.904
344.906
344.926
344.986
345.087
345.228
345.295
345.181
345.041
344.941
344.88
344.86
344.858
344.861
344.86
344.86
344.856
344.857
344.877
344.937
345.037
345.179
345.245
345.131
344.991
344.891
344.831
344.811
344.809
344.812
344.811
344.81
344.806
344.808
344.827
344.887
344.987
345.128
345.194
345.079
344.94
344.84
344.78
344.761
344.759
344.762
344.761
344.76
344.756
344.757
344.777
344.837
344.936
345.076
345.143
345.027
344.887
344.789
344.729
344.709
344.708
344.711
344.71
344.709
344.705
344.706
344.725
344.785
344.884
345.024
345.091
344.973
344.834
344.736
344.676
344.657
344.656
344.659
344.658
344.657
344.653
344.654
344.673
344.733
344.831
344.971
345.038
344.919
344.78
344.683
344.623
344.604
344.603
344.606
344.605
344.604
344.6
344.601
344.619
344.679
344.777
344.916
344.984
344.864
344.725
344.628
344.568
344.55
344.549
344.552
344.551
344.551
344.546
344.546
344.565
344.625
344.722
344.861
344.929
344.808
344.669
344.573
344.513
344.494
344.494
344.497
344.496
344.496
344.491
344.491
344.509
344.569
344.666
344.805
344.873
344.751
344.612
344.516
344.456
344.438
344.438
344.441
344.44
344.44
344.435
344.435
344.453
344.512
344.608
344.748
344.816
344.692
344.553
344.458
344.398
344.381
344.381
344.384
344.383
344.383
344.378
344.378
344.395
344.455
344.55
344.689
344.758
344.633
344.494
344.399
344.34
344.322
344.322
344.326
344.324
344.324
344.32
344.319
344.336
344.396
344.49
344.63
344.699
344.572
344.433
344.339
344.279
344.262
344.263
344.266
344.265
344.265
344.26
344.259
344.276
344.335
344.429
344.569
344.639
344.51
344.371
344.277
344.218
344.201
344.202
344.206
344.204
344.204
344.199
344.198
344.215
344.274
344.367
344.507
344.578
344.446
344.307
344.214
344.155
344.139
344.139
344.144
344.142
344.142
344.137
344.136
344.152
344.211
344.304
344.443
344.515
344.381
344.242
344.149
344.091
344.075
344.076
344.08
344.078
344.078
344.073
344.071
344.087
344.146
344.238
344.378
344.451
344.314
344.175
344.083
344.025
344.009
344.01
344.015
344.013
344.013
344.008
344.006
344.021
344.08
344.171
344.312
344.385
344.246
344.106
344.015
343.957
343.941
343.943
343.948
343.946
343.946
343.941
343.938
343.954
344.012
344.103
344.243
344.318
344.175
344.036
343.945
343.887
343.872
343.874
343.879
343.877
343.877
343.871
343.869
343.884
343.942
344.032
344.172
344.248
344.102
343.963
343.873
343.815
343.8
343.803
343.808
343.806
343.806
343.8
343.797
343.812
343.869
343.959
344.099
344.176
344.026
343.887
343.797
343.74
343.726
343.728
343.734
343.732
343.732
343.726
343.723
343.737
343.794
343.883
344.023
344.101
343.947
343.808
343.719
343.662
343.648
343.651
343.656
343.655
343.655
343.648
343.645
343.659
343.715
343.804
343.944
344.023
343.863
343.724
343.635
343.579
343.566
343.569
343.575
343.573
343.574
343.567
343.563
343.576
343.632
343.721
343.86
343.94
343.774
343.635
343.547
343.491
343.478
343.482
343.488
343.486
343.487
343.479
343.475
343.488
343.543
343.632
343.77
343.849
343.676
343.539
343.45
343.395
343.382
343.387
343.393
343.391
343.392
343.384
343.379
343.392
343.446
343.535
343.673
343.75
343.568
343.431
343.342
343.288
343.276
343.281
343.288
343.286
343.287
343.279
343.273
343.285
343.339
343.427
343.564
343.637
343.443
343.308
343.219
343.166
343.154
343.16
343.168
343.165
343.166
343.158
343.151
343.163
343.215
343.304
343.44
343.501
343.293
343.161
343.07
343.019
343.008
343.015
343.023
343.021
343.021
343.012
343.005
343.016
343.066
343.157
343.29
343.33
343.104
342.976
342.882
342.832
342.823
342.831
342.84
342.837
342.838
342.828
342.82
342.829
342.879
342.972
343.1
343.1
342.848
342.727
342.629
342.582
342.573
342.583
342.593
342.59
342.591
342.58
342.57
342.579
342.626
342.722
342.844
342.768
342.482
342.369
342.267
342.222
342.215
342.227
342.238
342.236
342.237
342.225
342.213
342.219
342.263
342.365
342.478
342.254
341.924
341.825
341.716
341.675
341.671
341.686
341.698
341.695
341.697
341.684
341.669
341.672
341.712
341.821
341.92
341.43
341.048
340.969
340.85
340.815
340.816
340.834
340.847
340.845
340.846
340.832
340.813
340.813
340.847
340.965
341.044
340.119
339.686
339.634
339.506
339.48
339.484
339.507
339.52
339.518
339.519
339.505
339.483
339.478
339.504
339.63
339.682
338.165
337.704
337.681
337.55
337.533
337.54
337.566
337.578
337.577
337.577
337.564
337.539
337.532
337.548
337.678
337.701
335.55
335.1
335.102
334.974
334.967
334.974
335.001
335.01
335.011
335.01
335
334.974
334.967
334.972
335.099
335.096
332.418
332.014
332.032
331.916
331.917
331.922
331.947
331.953
331.955
331.953
331.946
331.921
331.918
331.915
332.031
332.011
328.975
328.637
328.663
328.563
328.569
328.571
328.593
328.597
328.599
328.596
328.593
328.571
328.57
328.562
328.662
328.635
325.391
325.128
325.154
325.075
325.082
325.082
325.1
325.102
325.105
325.101
325.1
325.082
325.082
325.074
325.153
325.127
321.782
321.596
321.616
321.559
321.566
321.565
321.578
321.579
321.581
321.578
321.578
321.565
321.566
321.559
321.615
321.595
318.214
318.104
318.116
318.082
318.087
318.086
318.094
318.094
318.095
318.094
318.094
318.086
318.087
318.082
318.116
318.103
314.719
314.683
314.687
314.676
314.678
314.677
314.68
314.68
314.681
314.68
314.68
314.677
314.678
314.676
314.687
314.683
346.67
346.766
346.911
346.928
346.899
346.857
346.825
346.806
346.8
346.803
346.82
346.851
346.893
346.923
346.908
346.764
346.621
346.712
346.851
346.867
346.838
346.796
346.764
346.745
346.738
346.742
346.759
346.79
346.831
346.862
346.847
346.711
346.574
346.66
346.792
346.807
346.777
346.736
346.705
346.686
346.679
346.683
346.7
346.73
346.771
346.802
346.789
346.658
346.528
346.609
346.735
346.748
346.719
346.677
346.646
346.628
346.621
346.625
346.642
346.672
346.713
346.743
346.731
346.608
346.482
346.559
346.678
346.691
346.661
346.62
346.59
346.571
346.564
346.568
346.585
346.615
346.656
346.686
346.675
346.558
346.438
346.51
346.623
346.634
346.605
346.564
346.534
346.515
346.509
346.513
346.529
346.559
346.599
346.629
346.62
346.509
346.394
346.462
346.569
346.579
346.549
346.509
346.479
346.461
346.454
346.458
346.475
346.504
346.544
346.574
346.566
346.461
346.35
346.415
346.516
346.524
346.495
346.455
346.425
346.407
346.401
346.405
346.421
346.45
346.489
346.519
346.513
346.413
346.307
346.368
346.463
346.47
346.441
346.402
346.373
346.355
346.348
346.352
346.368
346.397
346.436
346.466
346.46
346.367
346.264
346.322
346.411
346.417
346.388
346.349
346.32
346.303
346.296
346.3
346.316
346.344
346.383
346.413
346.409
346.32
346.222
346.276
346.36
346.365
346.336
346.298
346.269
346.252
346.245
346.249
346.265
346.293
346.331
346.361
346.358
346.274
346.179
346.23
346.31
346.313
346.284
346.247
346.218
346.201
346.195
346.199
346.214
346.242
346.279
346.309
346.307
346.229
346.137
346.185
346.26
346.262
346.234
346.196
346.168
346.151
346.145
346.149
346.165
346.191
346.229
346.258
346.257
346.184
346.095
346.14
346.211
346.212
346.183
346.146
346.119
346.102
346.096
346.1
346.115
346.142
346.178
346.208
346.208
346.139
346.052
346.095
346.162
346.162
346.134
346.097
346.07
346.053
346.047
346.051
346.066
346.093
346.129
346.158
346.159
346.094
346.01
346.05
346.114
346.113
346.084
346.048
346.022
346.005
345.999
346.003
346.018
346.044
346.08
346.109
346.111
346.049
345.968
346.006
346.066
346.064
346.035
346
345.974
345.957
345.951
345.955
345.97
345.995
346.031
346.06
346.063
346.004
345.925
345.961
346.018
346.015
345.987
345.952
345.926
345.91
345.904
345.908
345.922
345.947
345.983
346.011
346.016
345.96
345.882
345.917
345.97
345.967
345.939
345.904
345.878
345.862
345.857
345.86
345.875
345.9
345.934
345.963
345.968
345.915
345.839
345.872
345.923
345.919
345.891
345.856
345.831
345.815
345.809
345.813
345.827
345.852
345.886
345.915
345.921
345.871
345.796
345.827
345.876
345.871
345.843
345.809
345.784
345.768
345.762
345.766
345.78
345.805
345.839
345.867
345.874
345.826
345.753
345.783
345.829
345.823
345.795
345.761
345.737
345.721
345.715
345.719
345.733
345.757
345.791
345.819
345.827
345.781
345.709
345.738
345.782
345.775
345.747
345.714
345.689
345.674
345.669
345.672
345.686
345.71
345.743
345.771
345.78
345.737
345.665
345.693
345.735
345.727
345.699
345.666
345.642
345.627
345.621
345.625
345.639
345.662
345.695
345.724
345.733
345.692
345.621
345.647
345.687
345.679
345.651
345.619
345.595
345.58
345.574
345.578
345.592
345.615
345.648
345.676
345.685
345.646
345.576
345.602
345.64
345.631
345.604
345.571
345.548
345.532
345.527
345.531
345.544
345.567
345.6
345.628
345.638
345.601
345.531
345.556
345.593
345.583
345.556
345.524
345.5
345.485
345.48
345.483
345.497
345.52
345.552
345.58
345.591
345.555
345.485
345.51
345.545
345.535
345.508
345.476
345.453
345.438
345.433
345.436
345.449
345.472
345.504
345.532
345.543
345.509
345.44
345.464
345.497
345.487
345.459
345.428
345.405
345.39
345.385
345.388
345.402
345.424
345.456
345.484
345.495
345.463
345.393
345.417
345.449
345.438
345.411
345.38
345.357
345.342
345.337
345.341
345.354
345.376
345.408
345.435
345.447
345.416
345.346
345.37
345.401
345.39
345.363
345.332
345.309
345.294
345.289
345.293
345.306
345.328
345.359
345.387
345.399
345.369
345.299
345.322
345.353
345.341
345.314
345.284
345.261
345.246
345.241
345.245
345.258
345.28
345.311
345.338
345.351
345.322
345.251
345.275
345.304
345.292
345.265
345.235
345.212
345.198
345.193
345.196
345.21
345.231
345.262
345.289
345.302
345.274
345.203
345.226
345.255
345.243
345.216
345.186
345.164
345.149
345.144
345.148
345.161
345.183
345.213
345.24
345.253
345.226
345.154
345.178
345.206
345.193
345.167
345.137
345.115
345.1
345.095
345.098
345.112
345.133
345.164
345.19
345.204
345.177
345.105
345.128
345.156
345.143
345.117
345.087
345.065
345.051
345.046
345.049
345.062
345.084
345.114
345.141
345.154
345.128
345.055
345.079
345.106
345.093
345.067
345.037
345.015
345.001
344.996
344.999
345.013
345.034
345.064
345.09
345.105
345.078
345.004
345.028
345.056
345.042
345.017
344.987
344.965
344.951
344.946
344.949
344.962
344.984
345.014
345.04
345.054
345.028
344.953
344.977
345.005
344.991
344.966
344.936
344.914
344.9
344.895
344.898
344.912
344.933
344.963
344.989
345.003
344.977
344.901
344.926
344.953
344.939
344.914
344.885
344.863
344.849
344.844
344.847
344.86
344.881
344.911
344.937
344.952
344.925
344.848
344.874
344.901
344.887
344.862
344.833
344.811
344.797
344.792
344.795
344.808
344.83
344.859
344.885
344.9
344.873
344.795
344.821
344.849
344.834
344.81
344.78
344.759
344.744
344.739
344.743
344.756
344.777
344.807
344.832
344.847
344.82
344.741
344.767
344.795
344.781
344.756
344.727
344.705
344.691
344.686
344.689
344.703
344.724
344.753
344.778
344.794
344.767
344.686
344.713
344.741
344.726
344.702
344.673
344.651
344.637
344.632
344.635
344.649
344.67
344.699
344.724
344.74
344.712
344.63
344.658
344.687
344.671
344.647
344.618
344.597
344.582
344.578
344.581
344.594
344.615
344.645
344.669
344.685
344.657
344.573
344.601
344.631
344.615
344.592
344.562
344.541
344.526
344.522
344.525
344.538
344.559
344.589
344.613
344.63
344.601
344.515
344.544
344.574
344.558
344.535
344.506
344.484
344.47
344.465
344.468
344.482
344.503
344.532
344.556
344.573
344.544
344.456
344.486
344.516
344.5
344.477
344.448
344.426
344.412
344.407
344.41
344.424
344.445
344.474
344.498
344.515
344.485
344.396
344.426
344.457
344.44
344.418
344.388
344.367
344.352
344.348
344.351
344.365
344.385
344.415
344.438
344.456
344.426
344.334
344.364
344.396
344.379
344.357
344.327
344.306
344.291
344.287
344.29
344.304
344.324
344.354
344.377
344.395
344.364
344.27
344.301
344.334
344.316
344.294
344.265
344.244
344.229
344.224
344.227
344.241
344.262
344.291
344.314
344.333
344.301
344.203
344.235
344.269
344.251
344.229
344.2
344.179
344.164
344.16
344.162
344.176
344.197
344.226
344.249
344.268
344.235
344.134
344.167
344.202
344.183
344.162
344.132
344.111
344.096
344.092
344.095
344.109
344.129
344.159
344.181
344.201
344.167
344.062
344.096
344.131
344.112
344.091
344.061
344.041
344.025
344.021
344.024
344.038
344.059
344.088
344.11
344.13
344.095
343.986
344.02
344.057
344.037
344.016
343.986
343.966
343.95
343.946
343.949
343.963
343.984
344.013
344.035
344.056
344.02
343.904
343.938
343.976
343.956
343.935
343.905
343.885
343.87
343.866
343.868
343.883
343.903
343.932
343.954
343.975
343.938
343.814
343.849
343.887
343.866
343.846
343.816
343.796
343.781
343.777
343.779
343.794
343.814
343.843
343.865
343.887
343.849
343.714
343.749
343.789
343.767
343.746
343.717
343.697
343.681
343.678
343.68
343.695
343.715
343.744
343.765
343.788
343.749
343.6
343.635
343.677
343.654
343.634
343.605
343.586
343.569
343.566
343.568
343.583
343.603
343.632
343.652
343.676
343.635
343.47
343.505
343.549
343.525
343.506
343.477
343.458
343.441
343.438
343.44
343.455
343.475
343.504
343.524
343.548
343.506
343.318
343.354
343.4
343.375
343.356
343.328
343.309
343.292
343.288
343.29
343.307
343.325
343.354
343.374
343.399
343.354
343.138
343.174
343.222
343.197
343.179
343.151
343.132
343.115
343.112
343.113
343.13
343.149
343.177
343.196
343.222
343.174
342.92
342.956
343.008
342.982
342.964
342.937
342.919
342.901
342.898
342.9
342.917
342.935
342.963
342.981
343.008
342.957
342.651
342.688
342.743
342.717
342.7
342.673
342.656
342.637
342.635
342.636
342.655
342.672
342.699
342.716
342.744
342.689
342.313
342.35
342.41
342.383
342.367
342.342
342.326
342.306
342.304
342.305
342.324
342.341
342.366
342.383
342.411
342.351
341.872
341.911
341.977
341.951
341.936
341.912
341.897
341.876
341.874
341.875
341.896
341.912
341.935
341.951
341.978
341.912
341.278
341.319
341.393
341.368
341.354
341.334
341.32
341.297
341.296
341.296
341.319
341.333
341.355
341.369
341.395
341.32
340.46
340.502
340.587
340.562
340.551
340.535
340.523
340.498
340.498
340.497
340.523
340.535
340.552
340.564
340.59
340.504
339.329
339.369
339.466
339.443
339.434
339.423
339.414
339.386
339.387
339.386
339.415
339.424
339.437
339.446
339.469
339.371
337.79
337.825
337.933
337.912
337.906
337.9
337.896
337.865
337.868
337.866
337.897
337.903
337.91
337.916
337.938
337.828
335.796
335.821
335.935
335.915
335.913
335.912
335.911
335.879
335.883
335.88
335.912
335.915
335.917
335.92
335.94
335.825
333.391
333.406
333.517
333.498
333.498
333.501
333.502
333.471
333.476
333.473
333.504
333.505
333.503
333.504
333.523
333.409
330.71
330.715
330.818
330.799
330.801
330.805
330.807
330.779
330.784
330.78
330.81
330.808
330.806
330.805
330.823
330.719
327.902
327.902
327.99
327.974
327.975
327.979
327.982
327.958
327.962
327.959
327.984
327.982
327.979
327.978
327.995
327.905
325.073
325.072
325.143
325.13
325.131
325.135
325.137
325.117
325.121
325.118
325.139
325.137
325.134
325.134
325.147
325.075
322.282
322.282
322.336
322.326
322.326
322.329
322.331
322.315
322.319
322.316
322.332
322.331
322.329
322.328
322.338
322.283
319.552
319.552
319.589
319.582
319.582
319.585
319.586
319.575
319.577
319.575
319.587
319.586
319.584
319.584
319.591
319.553
316.886
316.887
316.908
316.905
316.904
316.906
316.907
316.9
316.902
316.9
316.907
316.907
316.906
316.906
316.91
316.888
314.283
314.283
314.29
314.289
314.289
314.289
314.29
314.287
314.288
314.287
314.29
314.29
314.289
314.289
314.29
314.283
347.088
346.932
346.697
346.576
346.53
346.526
346.535
346.544
346.546
346.541
346.53
346.521
346.524
346.57
346.692
346.928
347.037
346.882
346.651
346.529
346.481
346.476
346.484
346.493
346.494
346.49
346.479
346.471
346.475
346.523
346.646
346.879
346.986
346.833
346.605
346.482
346.433
346.427
346.433
346.442
346.444
346.439
346.429
346.421
346.427
346.477
346.6
346.83
346.934
346.784
346.559
346.436
346.385
346.378
346.384
346.392
346.393
346.39
346.38
346.372
346.38
346.431
346.554
346.781
346.884
346.735
346.514
346.39
346.338
346.33
346.335
346.343
346.344
346.34
346.331
346.324
346.333
346.385
346.509
346.732
346.833
346.686
346.468
346.345
346.292
346.282
346.286
346.294
346.295
346.291
346.282
346.277
346.286
346.34
346.464
346.683
346.782
346.638
346.423
346.3
346.246
346.235
346.239
346.246
346.247
346.243
346.235
346.23
346.24
346.295
346.418
346.634
346.732
346.589
346.378
346.255
346.2
346.188
346.191
346.198
346.199
346.196
346.187
346.183
346.195
346.25
346.373
346.586
346.681
346.541
346.333
346.211
346.154
346.142
346.144
346.151
346.151
346.148
346.14
346.137
346.149
346.206
346.328
346.537
346.631
346.492
346.288
346.167
346.109
346.096
346.098
346.104
346.105
346.102
346.094
346.091
346.104
346.162
346.284
346.489
346.581
346.444
346.244
346.123
346.065
346.05
346.052
346.057
346.058
346.055
346.048
346.046
346.06
346.118
346.239
346.441
346.531
346.396
346.199
346.079
346.02
346.005
346.006
346.011
346.012
346.009
346.003
346.001
346.016
346.074
346.195
346.393
346.481
346.348
346.155
346.036
345.976
345.96
345.961
345.966
345.966
345.964
345.957
345.956
345.972
346.031
346.15
346.345
346.432
346.301
346.111
345.992
345.933
345.916
345.916
345.921
345.921
345.919
345.913
345.911
345.928
345.988
346.106
346.298
346.383
346.254
346.066
345.949
345.889
345.872
345.872
345.876
345.876
345.874
345.868
345.867
345.884
345.944
346.062
346.25
346.334
346.206
346.023
345.906
345.846
345.828
345.827
345.831
345.832
345.829
345.824
345.824
345.841
345.902
346.018
346.203
346.285
346.16
345.979
345.863
345.802
345.784
345.783
345.787
345.787
345.785
345.78
345.78
345.798
345.859
345.974
346.157
346.237
346.113
345.935
345.82
345.759
345.741
345.739
345.743
345.743
345.741
345.736
345.736
345.755
345.816
345.931
346.11
346.189
346.067
345.891
345.777
345.716
345.697
345.696
345.699
345.699
345.697
345.692
345.693
345.712
345.773
345.887
346.064
346.141
346.02
345.847
345.735
345.673
345.654
345.652
345.655
345.655
345.654
345.649
345.65
345.669
345.73
345.843
346.017
346.093
345.974
345.804
345.692
345.63
345.61
345.609
345.612
345.611
345.61
345.605
345.606
345.626
345.687
345.8
345.971
346.046
345.928
345.76
345.649
345.587
345.567
345.565
345.568
345.568
345.566
345.562
345.563
345.582
345.645
345.756
345.925
345.998
345.882
345.716
345.606
345.543
345.524
345.521
345.524
345.524
345.523
345.518
345.52
345.539
345.602
345.712
345.879
345.951
345.836
345.672
345.563
345.5
345.48
345.478
345.481
345.48
345.479
345.475
345.476
345.496
345.558
345.668
345.833
345.904
345.79
345.628
345.519
345.457
345.437
345.434
345.437
345.437
345.435
345.431
345.433
345.453
345.515
345.624
345.788
345.858
345.745
345.584
345.476
345.413
345.393
345.391
345.393
345.393
345.392
345.388
345.389
345.409
345.472
345.58
345.742
345.811
345.699
345.539
345.433
345.37
345.349
345.347
345.35
345.349
345.348
345.344
345.346
345.366
345.429
345.536
345.696
345.764
345.653
345.495
345.389
345.326
345.306
345.303
345.306
345.305
345.304
345.3
345.302
345.322
345.385
345.491
345.65
345.718
345.607
345.45
345.345
345.282
345.262
345.259
345.262
345.261
345.26
345.256
345.258
345.278
345.341
345.447
345.604
345.671
345.561
345.406
345.301
345.238
345.218
345.215
345.218
345.217
345.216
345.212
345.214
345.234
345.297
345.402
345.558
345.625
345.515
345.361
345.257
345.194
345.173
345.171
345.173
345.173
345.172
345.168
345.17
345.19
345.253
345.357
345.512
345.578
345.469
345.315
345.212
345.149
345.129
345.127
345.129
345.128
345.127
345.124
345.125
345.145
345.208
345.312
345.466
345.532
345.423
345.27
345.167
345.104
345.084
345.082
345.084
345.084
345.083
345.079
345.081
345.101
345.164
345.266
345.42
345.485
345.376
345.224
345.122
345.059
345.039
345.037
345.039
345.039
345.038
345.034
345.036
345.056
345.119
345.221
345.373
345.439
345.329
345.178
345.077
345.014
344.994
344.992
344.994
344.993
344.993
344.989
344.991
345.01
345.073
345.175
345.327
345.392
345.282
345.132
345.031
344.968
344.948
344.946
344.949
344.948
344.947
344.944
344.945
344.965
345.028
345.128
345.28
345.345
345.235
345.085
344.985
344.922
344.903
344.901
344.903
344.902
344.901
344.898
344.899
344.919
344.982
345.082
345.232
345.298
345.188
345.038
344.939
344.876
344.856
344.854
344.857
344.856
344.855
344.852
344.853
344.872
344.935
345.035
345.185
345.251
345.14
344.991
344.892
344.829
344.81
344.808
344.81
344.809
344.809
344.805
344.806
344.826
344.888
344.987
345.137
345.203
345.091
344.943
344.845
344.782
344.762
344.761
344.763
344.762
344.762
344.758
344.759
344.778
344.841
344.939
345.089
345.155
345.042
344.894
344.797
344.734
344.715
344.713
344.716
344.715
344.714
344.711
344.711
344.73
344.793
344.891
345.04
345.106
344.993
344.845
344.748
344.685
344.666
344.665
344.668
344.667
344.666
344.662
344.663
344.682
344.744
344.842
344.99
345.057
344.943
344.795
344.698
344.635
344.617
344.616
344.619
344.618
344.617
344.613
344.614
344.632
344.695
344.792
344.94
345.007
344.892
344.744
344.648
344.585
344.567
344.566
344.569
344.568
344.568
344.564
344.564
344.582
344.645
344.741
344.889
344.957
344.84
344.692
344.597
344.534
344.516
344.515
344.518
344.517
344.517
344.513
344.513
344.53
344.593
344.689
344.837
344.905
344.786
344.639
344.544
344.481
344.463
344.463
344.466
344.465
344.465
344.461
344.46
344.478
344.54
344.635
344.784
344.852
344.732
344.584
344.49
344.427
344.41
344.41
344.413
344.411
344.411
344.407
344.407
344.424
344.486
344.581
344.729
344.797
344.675
344.528
344.434
344.371
344.354
344.354
344.357
344.356
344.356
344.352
344.351
344.368
344.43
344.524
344.672
344.741
344.617
344.469
344.375
344.313
344.296
344.297
344.3
344.299
344.298
344.294
344.293
344.31
344.372
344.465
344.614
344.681
344.556
344.408
344.315
344.252
344.236
344.237
344.24
344.239
344.239
344.234
344.233
344.249
344.311
344.404
344.553
344.619
344.491
344.343
344.251
344.188
344.172
344.174
344.177
344.176
344.175
344.171
344.169
344.185
344.247
344.339
344.488
344.552
344.422
344.274
344.182
344.119
344.104
344.106
344.109
344.108
344.108
344.103
344.101
344.116
344.179
344.27
344.419
344.479
344.347
344.198
344.108
344.045
344.03
344.032
344.035
344.034
344.034
344.03
344.027
344.042
344.104
344.195
344.344
344.4
344.265
344.116
344.026
343.963
343.949
343.952
343.955
343.954
343.953
343.949
343.947
343.96
344.023
344.113
344.262
344.313
344.175
344.025
343.935
343.873
343.86
343.863
343.866
343.864
343.864
343.86
343.857
343.87
343.932
344.022
344.172
344.215
344.074
343.923
343.834
343.772
343.759
343.763
343.766
343.765
343.765
343.761
343.757
343.769
343.831
343.92
344.071
344.105
343.961
343.809
343.72
343.658
343.646
343.651
343.653
343.652
343.652
343.649
343.644
343.655
343.718
343.805
343.958
343.98
343.832
343.678
343.591
343.528
343.517
343.523
343.525
343.524
343.524
343.521
343.515
343.525
343.588
343.675
343.829
343.836
343.683
343.528
343.441
343.378
343.369
343.375
343.378
343.377
343.376
343.373
343.367
343.376
343.439
343.525
343.68
343.669
343.511
343.354
343.268
343.205
343.197
343.204
343.206
343.206
343.205
343.202
343.195
343.203
343.265
343.351
343.508
343.473
343.31
343.149
343.065
343.001
342.995
343.004
343.006
343.005
343.005
343.002
342.993
342.999
343.062
343.146
343.307
343.241
343.071
342.907
342.824
342.76
342.756
342.766
342.768
342.768
342.767
342.765
342.754
342.759
342.822
342.904
343.068
342.962
342.785
342.618
342.536
342.472
342.47
342.482
342.483
342.484
342.482
342.48
342.469
342.471
342.534
342.615
342.782
342.625
342.44
342.268
342.188
342.123
342.124
342.138
342.139
342.14
342.138
342.137
342.123
342.122
342.186
342.265
342.437
342.213
342.018
341.84
341.762
341.696
341.701
341.717
341.718
341.719
341.717
341.717
341.701
341.696
341.761
341.838
342.015
341.695
341.488
341.301
341.226
341.159
341.168
341.188
341.188
341.19
341.188
341.187
341.168
341.16
341.225
341.299
341.485
341.02
340.795
340.596
340.524
340.456
340.471
340.495
340.495
340.498
340.495
340.495
340.472
340.457
340.524
340.595
340.792
340.115
339.867
339.654
339.585
339.516
339.539
339.568
339.568
339.572
339.568
339.569
339.541
339.518
339.586
339.653
339.864
338.89
338.616
338.386
338.322
338.252
338.284
338.319
338.319
338.325
338.32
338.321
338.287
338.255
338.324
338.385
338.613
337.255
336.956
336.71
336.652
336.581
336.623
336.665
336.664
336.671
336.665
336.667
336.627
336.586
336.655
336.71
336.953
335.171
334.857
334.603
334.551
334.481
334.53
334.576
334.576