/*--------------------------------*- C++ -*----------------------------------*\
| =========                 |                                                 |
| \\      /  F ield         | OpenFOAM: The Open Source CFD Toolbox           |
|  \\    /   O peration     | Version:  v1912                                 |
|   \\  /    A nd           | Website:  www.openfoam.com                      |
|    \\/     M anipulation  |                                                 |
\*---------------------------------------------------------------------------*/
FoamFile
{
    version     2.0;
    format      ascii;
    class       volVectorField;
    location    "197.2";
    object      U;
}
// * * * * * * * * * * * * * * * * * * * * * * * * * * * * * * * * * * * * * //

dimensions      [0 1 -1 0 0 0 0];


internalField   nonuniform List<vector> 
10147
(
(3.1348e-07 0.00512938 0.270855)
(0.00182027 0.00282041 0.273412)
(0.000694907 0.00155484 0.277559)
(0.000481235 0.00182217 0.278702)
(-4.20367e-06 0.00173592 0.278947)
(8.32089e-05 0.00203551 0.278742)
(-2.0525e-05 0.00205582 0.278653)
(1.40082e-05 0.0022134 0.278575)
(1.5468e-05 0.00216391 0.278569)
(1.46756e-05 0.0022091 0.278618)
(4.61662e-05 0.00204803 0.278731)
(-6.35136e-05 0.00202513 0.278844)
(1.91207e-05 0.0017278 0.279053)
(-0.0004717 0.00181226 0.278796)
(-0.00068807 0.00154409 0.277634)
(-0.00181565 0.0028046 0.273464)
(5.8261e-05 -0.00310656 0.278837)
(2.68797e-05 -0.00323245 0.279302)
(6.78282e-05 -0.00328691 0.279537)
(3.28244e-05 -0.00336681 0.279576)
(8.6542e-06 -0.00335376 0.27961)
(-1.66236e-05 -0.00336675 0.279617)
(-5.23049e-05 -0.00328641 0.279614)
(-1.19483e-05 -0.00323158 0.279405)
(-4.37931e-05 -0.00310445 0.278954)
(0.00023993 -0.00296573 0.278009)
(2.34824e-05 -0.00316617 0.27716)
(0.000656957 -0.00320143 0.276559)
(-3.52321e-05 -0.00224968 0.275711)
(-5.58729e-05 -0.00233671 0.275892)
(-0.000131724 -0.00238301 0.27613)
(-0.00019791 -0.00242405 0.276063)
(-0.000713917 -0.00241121 0.274718)
(-0.000494392 -0.00129281 0.270921)
(0.000363177 -0.00197361 0.275675)
(-2.65912e-07 0.00499609 0.271275)
(0.00177245 0.00276917 0.273579)
(0.000692372 0.00160699 0.277407)
(0.000497748 0.001829 0.278487)
(5.154e-06 0.0017395 0.278758)
(9.09522e-05 0.00202979 0.278608)
(-1.75983e-05 0.00204936 0.27856)
(1.59332e-05 0.00220389 0.27851)
(1.55598e-05 0.00215467 0.278511)
(1.28994e-05 0.00219978 0.278552)
(4.33013e-05 0.00204168 0.278636)
(-7.11838e-05 0.00201975 0.278707)
(9.77228e-06 0.00173133 0.278861)
(-0.000488211 0.00181921 0.278579)
(-0.000685696 0.00159618 0.277479)
(-0.00176856 0.00275347 0.273628)
(-8.55418e-07 0.00486528 0.271604)
(0.00171457 0.00271756 0.273663)
(0.000678909 0.00165436 0.27718)
(0.000513599 0.00183405 0.278192)
(1.44383e-05 0.00174128 0.278483)
(9.79873e-05 0.00202234 0.278384)
(-1.45416e-05 0.00204109 0.278375)
(1.80494e-05 0.0021925 0.278353)
(1.56461e-05 0.00214356 0.27836)
(1.09314e-05 0.00218857 0.278393)
(4.03533e-05 0.00203356 0.278449)
(-7.81197e-05 0.00201259 0.27848)
(4.69097e-07 0.001733 0.278584)
(-0.000504104 0.00182436 0.278281)
(-0.00067245 0.00164351 0.277248)
(-0.00171142 0.00270203 0.273709)
(-1.43187e-06 0.00474083 0.271842)
(0.00165268 0.00266423 0.273665)
(0.000657114 0.00169515 0.276881)
(0.00052707 0.00183744 0.277823)
(2.36383e-05 0.00174097 0.27813)
(0.000104477 0.00201315 0.278076)
(-1.15365e-05 0.00203123 0.278104)
(2.02342e-05 0.00217951 0.278107)
(1.5713e-05 0.00213087 0.27812)
(8.86328e-06 0.00217575 0.278146)
(3.74595e-05 0.00202387 0.278176)
(-8.45103e-05 0.00200372 0.278169)
(-8.76682e-06 0.00173281 0.278228)
(-0.000517635 0.00182792 0.277909)
(-0.000650892 0.00168436 0.276947)
(-0.00165027 0.00264887 0.273707)
(-1.97711e-06 0.00462261 0.271993)
(0.0015916 0.00261199 0.273586)
(0.000632779 0.00172936 0.276514)
(0.000538339 0.00183882 0.277382)
(3.24824e-05 0.0017388 0.277701)
(0.000110589 0.00200228 0.277689)
(-8.64235e-06 0.00201964 0.277752)
(2.23888e-05 0.0021648 0.277778)
(1.57499e-05 0.00211649 0.277797)
(6.7705e-06 0.00216119 0.277816)
(3.46407e-05 0.00201248 0.277822)
(-9.05493e-05 0.00199309 0.27778)
(-1.76522e-05 0.00173074 0.277797)
(-0.000528956 0.00182945 0.277466)
(-0.000626786 0.00171862 0.276576)
(-0.00158989 0.00259684 0.273625)
(-2.48414e-06 0.00450875 0.272058)
(0.0015319 0.00256024 0.273428)
(0.000607282 0.00175803 0.276079)
(0.000547677 0.00183818 0.276875)
(4.09396e-05 0.00173481 0.277201)
(0.000116377 0.00198989 0.277227)
(-5.87386e-06 0.00200651 0.277322)
(2.4494e-05 0.00214855 0.27737)
(1.57572e-05 0.00210059 0.277394)
(4.6732e-06 0.00214507 0.277407)
(3.19076e-05 0.00199954 0.27739)
(-9.62928e-05 0.00198093 0.277316)
(-2.61559e-05 0.00172688 0.277295)
(-0.00053834 0.00182897 0.276957)
(-0.000601505 0.00174738 0.276139)
(-0.00153082 0.00254532 0.273465)
(-2.94848e-06 0.00439917 0.272039)
(0.00147387 0.00250917 0.273194)
(0.000581376 0.00178142 0.27558)
(0.000555286 0.00183555 0.276303)
(4.90131e-05 0.00172906 0.276633)
(0.000121881 0.00197605 0.276694)
(-3.2427e-06 0.0019919 0.276818)
(2.65389e-05 0.00213083 0.276887)
(1.57365e-05 0.00208326 0.276917)
(2.58539e-06 0.00212748 0.276924)
(2.92718e-05 0.00198514 0.276885)
(-0.000101783 0.00196732 0.276781)
(-3.42818e-05 0.00172129 0.276726)
(-0.000545991 0.0018265 0.276383)
(-0.000575797 0.00177087 0.275638)
(-0.00147339 0.0024945 0.273227)
(-3.36697e-06 0.00429358 0.271939)
(0.00141791 0.00245894 0.272884)
(0.000555713 0.00179985 0.275019)
(0.000561357 0.00183098 0.275669)
(5.67059e-05 0.00172165 0.276002)
(0.00012714 0.00196086 0.276093)
(-7.57693e-07 0.00197593 0.276245)
(2.85137e-05 0.00211174 0.276334)
(1.56896e-05 0.0020646 0.276367)
(5.20034e-07 0.00210852 0.276369)
(2.67424e-05 0.00196937 0.27631)
(-0.000107057 0.00195235 0.276179)
(-4.20332e-05 0.00171404 0.276093)
(-0.000552099 0.0018221 0.275747)
(-0.000550315 0.00178943 0.275074)
(-0.00141794 0.00244455 0.272915)
(-3.73791e-06 0.00419162 0.271757)
(0.00136428 0.00240955 0.2725)
(0.00053075 0.00181368 0.274396)
(0.000566069 0.00182452 0.274976)
(6.40251e-05 0.00171262 0.275308)
(0.000132182 0.00194437 0.275428)
(1.576e-06 0.00195864 0.275606)
(3.04118e-05 0.00209136 0.275713)
(1.56184e-05 0.00204468 0.27575)
(-1.51268e-06 0.00208825 0.275747)
(2.43263e-05 0.00195229 0.275669)
(-0.000112144 0.00193608 0.275512)
(-4.94174e-05 0.00170518 0.275398)
(-0.000556843 0.00181581 0.275053)
(-0.000525513 0.00180342 0.274449)
(-0.00136478 0.00239544 0.272529)
(-4.06088e-06 0.00409302 0.271496)
(0.00131318 0.00236099 0.272045)
(0.000506758 0.00182322 0.273715)
(0.000569586 0.00181624 0.274226)
(7.09794e-05 0.00170203 0.274557)
(0.000137027 0.00192665 0.274702)
(3.75578e-06 0.00194012 0.274903)
(3.22299e-05 0.00206976 0.275027)
(1.55252e-05 0.00202358 0.275068)
(-3.50503e-06 0.00206675 0.275061)
(2.20294e-05 0.00193398 0.274965)
(-0.000117061 0.00191859 0.274784)
(-5.6443e-05 0.00169478 0.274645)
(-0.00056039 0.0018077 0.274302)
(-0.000501662 0.00181313 0.273766)
(-0.00131407 0.00234719 0.272071)
(-4.33655e-06 0.00399751 0.271158)
(0.0012647 0.00231326 0.271519)
(0.000483871 0.0018288 0.272977)
(0.000572059 0.00180621 0.273423)
(7.75762e-05 0.00168994 0.273749)
(0.000141688 0.00190777 0.273917)
(5.77992e-06 0.00192043 0.27414)
(3.39664e-05 0.00204701 0.27428)
(1.5412e-05 0.00200137 0.274324)
(-5.45031e-06 0.00204409 0.274313)
(1.98572e-05 0.00191452 0.274201)
(-0.00012182 0.00189993 0.273999)
(-6.31171e-05 0.00168289 0.273836)
(-0.000562889 0.00179784 0.273496)
(-0.000478897 0.00181889 0.273026)
(-0.00126592 0.00229978 0.271544)
(-4.56648e-06 0.00390483 0.270743)
(0.00121885 0.00226633 0.270926)
(0.000462147 0.00183069 0.272183)
(0.000573625 0.0017945 0.272567)
(8.38208e-05 0.00167643 0.272889)
(0.000146179 0.00188778 0.273077)
(7.64722e-06 0.00189964 0.27332)
(3.562e-05 0.00202318 0.273475)
(1.5281e-05 0.00197811 0.273522)
(-7.34229e-06 0.00202033 0.273507)
(1.78149e-05 0.00189395 0.273381)
(-0.000126431 0.00188017 0.273158)
(-6.94448e-05 0.00166957 0.272975)
(-0.00056448 0.00178632 0.27264)
(-0.000457277 0.00182098 0.27223)
(-0.00122036 0.00225317 0.270948)
(-4.75293e-06 0.00381475 0.270254)
(0.00117563 0.00222017 0.270267)
(0.000441607 0.00182918 0.271336)
(0.000574413 0.0017812 0.271662)
(8.97173e-05 0.00166154 0.271978)
(0.000150508 0.00186674 0.272185)
(9.3577e-06 0.0018778 0.272446)
(3.71899e-05 0.00199834 0.272614)
(1.51347e-05 0.00195387 0.272664)
(-9.17585e-06 0.00199555 0.272646)
(1.59061e-05 0.00187234 0.272506)
(-0.000130903 0.00185935 0.272264)
(-7.54296e-05 0.00165488 0.272064)
(-0.000565291 0.0017732 0.271733)
(-0.000436824 0.00181968 0.271382)
(-0.00117735 0.00220734 0.270287)
(-4.89866e-06 0.00372706 0.269693)
(0.00113496 0.00217476 0.269543)
(0.000422255 0.00182453 0.270439)
(0.000574543 0.00176638 0.270709)
(9.52697e-05 0.00164535 0.27102)
(0.000154688 0.00184472 0.271243)
(1.09131e-05 0.00185499 0.271521)
(3.8676e-05 0.00197255 0.271701)
(1.49754e-05 0.00192872 0.271753)
(-1.0947e-05 0.00196983 0.271732)
(1.4132e-05 0.00184975 0.271579)
(-0.000135244 0.00183755 0.271321)
(-8.10755e-05 0.00163889 0.271104)
(-0.000565444 0.00175857 0.27078)
(-0.000417545 0.00181524 0.270483)
(-0.00113686 0.00216225 0.269561)
(-5.00683e-06 0.00364158 0.26906)
(0.00109677 0.00213005 0.268757)
(0.000404081 0.00181698 0.269491)
(0.000574126 0.00175012 0.269711)
(0.000100483 0.00162793 0.270015)
(0.000158732 0.00182177 0.270253)
(1.23166e-05 0.00183128 0.270546)
(4.00791e-05 0.00194588 0.270737)
(1.48053e-05 0.00190273 0.270792)
(-1.26531e-05 0.00194323 0.270768)
(1.24921e-05 0.00182624 0.270604)
(-0.000139465 0.00181482 0.27033)
(-8.6387e-05 0.00162167 0.270099)
(-0.000565047 0.0017425 0.269781)
(-0.000399431 0.00180791 0.269534)
(-0.00109879 0.00211788 0.268774)
(-5.08085e-06 0.00355815 0.268358)
(0.00106096 0.00208603 0.26791)
(0.000387065 0.00180677 0.268497)
(0.000573261 0.00173251 0.268669)
(0.000105364 0.00160934 0.268966)
(0.000162653 0.00179796 0.269217)
(1.35733e-05 0.00180671 0.269525)
(4.14006e-05 0.0019184 0.269726)
(1.46263e-05 0.00187596 0.269782)
(-1.42925e-05 0.00191581 0.269756)
(1.09842e-05 0.00180188 0.269581)
(-0.000143576 0.00179122 0.269294)
(-9.13704e-05 0.00160328 0.26905)
(-0.000564202 0.00172507 0.268738)
(-0.000382462 0.00179793 0.268538)
(-0.00106307 0.00207419 0.267925)
(-5.12424e-06 0.00347661 0.267589)
(0.00102745 0.00204267 0.267004)
(0.000371176 0.00179412 0.267455)
(0.000572041 0.00171362 0.267584)
(0.000109921 0.00158965 0.267875)
(0.000166463 0.00177334 0.268137)
(1.46892e-05 0.00178138 0.268457)
(4.26431e-05 0.00189018 0.268668)
(1.44403e-05 0.00184847 0.268725)
(-1.58648e-05 0.00188765 0.268698)
(9.60447e-06 0.00177673 0.268513)
(-0.00014759 0.00176682 0.268213)
(-9.60338e-05 0.00158379 0.267958)
(-0.000563002 0.00170638 0.267652)
(-0.000366608 0.00178551 0.267496)
(-0.00102961 0.00203116 0.267018)
(-5.14049e-06 0.00339686 0.266754)
(0.000996187 0.00199995 0.266041)
(0.000356375 0.00177925 0.266369)
(0.000570549 0.00169356 0.266457)
(0.000114165 0.00156897 0.266742)
(0.000170177 0.001748 0.267013)
(1.56718e-05 0.00175536 0.267346)
(4.38096e-05 0.0018613 0.267565)
(1.4249e-05 0.00182036 0.267624)
(-1.73708e-05 0.00185884 0.267595)
(8.34752e-06 0.00175088 0.267401)
(-0.000151518 0.00174169 0.267089)
(-0.000100389 0.0015633 0.266824)
(-0.000561528 0.0016865 0.266525)
(-0.000351831 0.00177086 0.266409)
(-0.000998359 0.00198877 0.266053)
(-5.13304e-06 0.00331879 0.265855)
(0.000967086 0.00195786 0.265023)
(0.000342619 0.00176237 0.265239)
(0.000568854 0.00167241 0.26529)
(0.000118114 0.00154736 0.265568)
(0.000173809 0.00172201 0.265848)
(1.65291e-05 0.00172873 0.266191)
(4.49041e-05 0.00183185 0.266419)
(1.40541e-05 0.00179171 0.266478)
(-1.88124e-05 0.00182948 0.266448)
(7.20695e-06 0.00172442 0.266246)
(-0.000155371 0.00171591 0.265923)
(-0.000104452 0.00154189 0.265649)
(-0.000559852 0.00166554 0.265357)
(-0.000338089 0.0017542 0.265278)
(-0.000969247 0.00194701 0.265033)
(-5.10517e-06 0.00324231 0.264892)
(0.000940084 0.00191639 0.263949)
(0.000329853 0.00174368 0.264065)
(0.000567011 0.00165028 0.264082)
(0.000121775 0.0015249 0.264353)
(0.000177372 0.00169541 0.264641)
(1.727e-05 0.00170152 0.264993)
(4.59313e-05 0.00180186 0.265228)
(1.38571e-05 0.00176253 0.265288)
(-2.01922e-05 0.00179956 0.265257)
(6.17593e-06 0.00169736 0.265048)
(-0.000159163 0.00168951 0.264716)
(-0.00010823 0.00151962 0.264435)
(-0.000558029 0.00164359 0.264148)
(-0.000325327 0.00173574 0.264103)
(-0.000942208 0.00190585 0.263959)
(-5.05996e-06 0.00316724 0.263868)
(0.000915105 0.00187543 0.262822)
(0.000317987 0.00172331 0.262848)
(0.000565139 0.00162719 0.262833)
(0.000125118 0.00150163 0.263098)
(0.000180879 0.00166818 0.263393)
(1.79033e-05 0.0016737 0.263753)
(4.68936e-05 0.00177127 0.263995)
(1.36588e-05 0.00173277 0.264055)
(-2.15116e-05 0.00176905 0.264023)
(5.24585e-06 0.00166969 0.263807)
(-0.000162905 0.00166249 0.263467)
(-0.000111693 0.00149653 0.263179)
(-0.000556177 0.00162068 0.2629)
(-0.000313457 0.00171559 0.262885)
(-0.00091717 0.0018652 0.262831)
(-5.0002e-06 0.00309336 0.262783)
(0.000892057 0.00183485 0.261642)
(0.000307112 0.00170134 0.261587)
(0.000563357 0.00160323 0.261544)
(0.000128109 0.00147758 0.2618)
(0.000184354 0.00164034 0.262103)
(1.84344e-05 0.00164526 0.262471)
(4.77861e-05 0.00174005 0.262719)
(1.34591e-05 0.00170238 0.262779)
(-2.27677e-05 0.00173791 0.262747)
(4.40835e-06 0.00164139 0.262524)
(-0.000166622 0.00163485 0.262177)
(-0.000114806 0.00147267 0.261881)
(-0.000554412 0.0015969 0.26161)
(-0.000302573 0.00169384 0.261624)
(-0.000894045 0.00182493 0.261649)
(-4.92855e-06 0.00302042 0.261639)
(0.000870843 0.00179444 0.26041)
(0.000297538 0.0016778 0.260284)
(0.000561679 0.00157831 0.260208)
(0.000130786 0.00145264 0.260449)
(0.000187848 0.00161175 0.260764)
(1.88758e-05 0.00161607 0.261141)
(4.86089e-05 0.0017081 0.261397)
(1.32568e-05 0.00167127 0.261458)
(-2.39642e-05 0.00170605 0.261424)
(3.64737e-06 0.00161233 0.261194)
(-0.000170367 0.00160644 0.260837)
(-0.000117607 0.0014479 0.26053)
(-0.000552744 0.00157216 0.260274)
(-0.000292987 0.00167051 0.26032)
(-0.000872738 0.00178483 0.260416)
(-4.84754e-06 0.00294815 0.260437)
(0.000851361 0.00175401 0.259127)
(0.000289333 0.00165257 0.258933)
(0.000560067 0.00155232 0.258817)
(0.000133252 0.00142671 0.259041)
(0.000191375 0.00158225 0.259367)
(1.92451e-05 0.00158598 0.259756)
(4.93777e-05 0.00167529 0.26002)
(1.3052e-05 0.00163931 0.260082)
(-2.51159e-05 0.00167331 0.260048)
(2.94822e-06 0.00158238 0.259808)
(-0.00017415 0.00157714 0.25944)
(-0.000120201 0.00142215 0.259122)
(-0.000551141 0.00154635 0.258882)
(-0.000284759 0.00164551 0.258968)
(-0.000853151 0.00174469 0.259132)
(-4.75956e-06 0.00287634 0.25918)
(0.000833504 0.00171339 0.257794)
(0.000282092 0.00162567 0.257525)
(0.000558395 0.00152528 0.25737)
(0.000135603 0.00139979 0.25758)
(0.000194899 0.0015519 0.257915)
(1.9544e-05 0.00155503 0.258314)
(5.01115e-05 0.00164158 0.258587)
(1.28479e-05 0.00160644 0.25865)
(-2.62329e-05 0.00163968 0.258614)
(2.31922e-06 0.00155155 0.258366)
(-0.000177932 0.00154697 0.257987)
(-0.000122686 0.0013954 0.25766)
(-0.000549484 0.00151949 0.257435)
(-0.000277482 0.00161882 0.25756)
(-0.000835181 0.00170435 0.257799)
(-4.66682e-06 0.00280483 0.257869)
(0.000817164 0.00167246 0.256413)
(0.000275136 0.00159727 0.256063)
(0.000556538 0.0014972 0.255872)
(0.000137872 0.00137188 0.256069)
(0.000198395 0.00152071 0.256412)
(1.97643e-05 0.00152323 0.256821)
(5.08193e-05 0.00160702 0.257101)
(1.26489e-05 0.00157272 0.257164)
(-2.73146e-05 0.00160521 0.257128)
(1.77651e-06 0.00151988 0.256872)
(-0.000181684 0.00151596 0.256484)
(-0.000125095 0.00136767 0.256149)
(-0.000547652 0.00149158 0.255937)
(-0.000270478 0.00159064 0.256096)
(-0.000818719 0.00166371 0.256417)
(-4.57135e-06 0.0027335 0.256507)
(0.000802253 0.00163115 0.254985)
(0.000268029 0.00156747 0.254549)
(0.000554499 0.00146806 0.25433)
(0.00014004 0.00134301 0.254516)
(0.000201847 0.00148869 0.254866)
(1.98983e-05 0.00149062 0.255282)
(5.14984e-05 0.00157167 0.255569)
(1.24573e-05 0.0015382 0.255632)
(-2.83534e-05 0.00156993 0.255595)
(1.33118e-06 0.00148739 0.255334)
(-0.000185389 0.00148412 0.254938)
(-0.000127407 0.00133895 0.254596)
(-0.000545649 0.00146261 0.254394)
(-0.000263325 0.00156106 0.254582)
(-0.000803683 0.00162268 0.254988)
(-4.47489e-06 0.00266227 0.255094)
(0.000788746 0.00158948 0.253511)
(0.000260789 0.00153634 0.252991)
(0.000552335 0.00143785 0.252749)
(0.000142071 0.00131316 0.252926)
(0.00020525 0.00145584 0.253282)
(1.99405e-05 0.00145722 0.253704)
(5.21415e-05 0.00153553 0.253996)
(1.22739e-05 0.0015029 0.254059)
(-2.93408e-05 0.00153387 0.254022)
(9.88978e-07 0.00145411 0.253755)
(-0.00018904 0.00145144 0.253353)
(-0.000129584 0.00130927 0.253006)
(-0.000543532 0.00143257 0.252813)
(-0.000256049 0.00153014 0.253023)
(-0.000790053 0.00158128 0.253514)
(-4.37901e-06 0.00259106 0.253632)
(0.000776596 0.00154748 0.251991)
(0.0002536 0.00150396 0.251392)
(0.00055012 0.00140659 0.251132)
(0.000143927 0.00128236 0.251302)
(0.000208601 0.00142217 0.251663)
(1.9888e-05 0.00142304 0.252091)
(5.27426e-05 0.00149864 0.252387)
(1.20989e-05 0.00146685 0.252449)
(-3.02717e-05 0.00149705 0.252413)
(7.51964e-07 0.00142004 0.252142)
(-0.000192636 0.00141795 0.251735)
(-0.00013159 0.00127862 0.251382)
(-0.000541371 0.00140148 0.251196)
(-0.000248835 0.00149797 0.251424)
(-0.000777778 0.00153955 0.251993)
(-4.28504e-06 0.00251992 0.252123)
(0.000765649 0.00150512 0.250422)
(0.000246628 0.0014704 0.249756)
(0.00054792 0.00137429 0.249482)
(0.000145581 0.00125061 0.249647)
(0.000211903 0.0013877 0.250012)
(1.974e-05 0.0013881 0.250445)
(5.32995e-05 0.00146101 0.250744)
(1.1932e-05 0.00143005 0.250806)
(-3.11449e-05 0.00145949 0.25077)
(6.19924e-07 0.00138521 0.250495)
(-0.000196177 0.00138364 0.250084)
(-0.000133393 0.00124703 0.249726)
(-0.000539233 0.00136934 0.249546)
(-0.000241848 0.00146462 0.249788)
(-0.000766704 0.00149746 0.250423)
(-4.1938e-06 0.00244885 0.250564)
(0.000755721 0.0014624 0.248804)
(0.000239967 0.00143573 0.248084)
(0.000545788 0.00134096 0.2478)
(0.000147012 0.00121792 0.24796)
(0.00021516 0.00135241 0.24833)
(1.94971e-05 0.00135238 0.248766)
(5.38129e-05 0.00142265 0.249068)
(1.1773e-05 0.00139251 0.249129)
(-3.19619e-05 0.0014212 0.249094)
(5.91697e-07 0.00134961 0.248816)
(-0.000199669 0.00134851 0.248401)
(-0.000134975 0.00121449 0.24804)
(-0.000537168 0.00133617 0.247863)
(-0.000235182 0.00143015 0.248115)
(-0.000756652 0.001455 0.248804)
(-4.10612e-06 0.00237778 0.248953)
(0.000746688 0.0014193 0.247139)
(0.000233643 0.0014 0.246376)
(0.000543757 0.0013066 0.246085)
(0.00014821 0.0011843 0.246243)
(0.000218376 0.00131629 0.246617)
(1.91602e-05 0.0013159 0.247055)
(5.42853e-05 0.00138354 0.24736)
(1.16217e-05 0.00135422 0.24742)
(-3.27257e-05 0.00138216 0.247385)
(6.66005e-07 0.00131323 0.247105)
(-0.000203116 0.00131256 0.246687)
(-0.000136324 0.00118102 0.246322)
(-0.000535211 0.00130197 0.246149)
(-0.00022886 0.00139461 0.246407)
(-0.000747502 0.00141215 0.247139)
(-4.02328e-06 0.00230665 0.247289)
(0.000738503 0.00137583 0.245428)
(0.000227633 0.0013632 0.244632)
(0.000541854 0.0012712 0.244338)
(0.000149168 0.00114972 0.244495)
(0.000221553 0.00127932 0.244871)
(1.87301e-05 0.0012786 0.245312)
(5.47202e-05 0.00134366 0.245618)
(1.1478e-05 0.00131515 0.245677)
(-3.34401e-05 0.00134235 0.245643)
(8.41583e-07 0.00127604 0.245361)
(-0.000206519 0.00127574 0.244942)
(-0.000137433 0.00114658 0.244574)
(-0.000533386 0.00126672 0.244402)
(-0.000222861 0.001358 0.244662)
(-0.000739211 0.00136892 0.245428)
(-3.94656e-06 0.00223544 0.245574)
(0.000731154 0.00133192 0.243675)
(0.000221896 0.00132533 0.242852)
(0.000540112 0.00123472 0.242559)
(0.000149873 0.00111414 0.242714)
(0.000224693 0.00124144 0.243093)
(1.8208e-05 0.00124045 0.243535)
(5.51212e-05 0.00130294 0.243843)
(1.13417e-05 0.00127524 0.243901)
(-3.41095e-05 0.00130169 0.243868)
(1.1168e-06 0.00123799 0.243585)
(-0.00020988 0.00123801 0.243164)
(-0.00013829 0.00111114 0.242793)
(-0.000531727 0.0012304 0.242622)
(-0.000217143 0.00132031 0.242882)
(-0.00073177 0.00132526 0.243674)
(-3.87682e-06 0.00216407 0.243809)
(0.00072463 0.00128747 0.241879)
(0.000216405 0.00128631 0.241036)
(0.000538581 0.00119712 0.240745)
(0.000150308 0.00107752 0.240901)
(0.00022779 0.00120259 0.241282)
(1.75952e-05 0.00120137 0.241725)
(5.54923e-05 0.00126131 0.242033)
(1.1212e-05 0.00123441 0.24209)
(-3.47389e-05 0.00126012 0.242058)
(1.48908e-06 0.00119901 0.241774)
(-0.000213194 0.00119931 0.241352)
(-0.000138876 0.00107466 0.240979)
(-0.000530284 0.00119295 0.240807)
(-0.00021168 0.00128148 0.241066)
(-0.000725166 0.00128104 0.241878)
(-3.81462e-06 0.00209242 0.241997)
(0.000718928 0.00124237 0.240043)
(0.000211197 0.00124608 0.239184)
(0.000537303 0.00115829 0.238894)
(0.000150467 0.00103976 0.239049)
(0.000230848 0.00116264 0.239433)
(1.68933e-05 0.00116125 0.239877)
(5.58373e-05 0.00121868 0.240187)
(1.10881e-05 0.00119257 0.240243)
(-3.53343e-05 0.00121755 0.240212)
(1.95531e-06 0.00115899 0.239926)
(-0.000216465 0.00115951 0.239503)
(-0.000139185 0.00103704 0.239128)
(-0.000529097 0.00115427 0.238956)
(-0.000206508 0.00124143 0.239214)
(-0.000719397 0.00123618 0.240041)
(-3.76035e-06 0.00202029 0.240139)
(0.000714027 0.0011965 0.238164)
(0.000206341 0.00120455 0.237295)
(0.000536286 0.0011181 0.237002)
(0.000150359 0.00100073 0.237157)
(0.000233868 0.00112147 0.237543)
(1.61036e-05 0.00111995 0.237988)
(5.61611e-05 0.00117489 0.238301)
(1.09694e-05 0.00114955 0.238356)
(-3.59016e-05 0.00117381 0.238325)
(2.51398e-06 0.00111779 0.238037)
(-0.000219696 0.00111848 0.237612)
(-0.000139226 0.00099813 0.237235)
(-0.000528173 0.00111423 0.237064)
(-0.000201697 0.00120007 0.237325)
(-0.000714441 0.00119053 0.238162)
(-3.71413e-06 0.00194753 0.238239)
(0.000709847 0.00114966 0.236241)
(0.000201823 0.00116154 0.235365)
(0.000535507 0.00107644 0.235067)
(0.000149999 0.000960286 0.235222)
(0.000236852 0.00107893 0.23561)
(1.5226e-05 0.00107732 0.236056)
(5.64689e-05 0.00112978 0.23637)
(1.08561e-05 0.00110521 0.236424)
(-3.64453e-05 0.00112876 0.236395)
(3.16564e-06 0.00107526 0.236104)
(-0.000222888 0.00107608 0.235679)
(-0.000139017 0.000957821 0.235299)
(-0.00052749 0.00107271 0.235129)
(-0.000197228 0.00115723 0.235394)
(-0.000710216 0.00114391 0.236239)
(-3.67574e-06 0.00187402 0.236297)
(0.00070628 0.00110165 0.234271)
(0.000197526 0.0011169 0.233391)
(0.000534937 0.00103318 0.233089)
(0.000149395 0.000918311 0.233243)
(0.000239798 0.00103488 0.233633)
(1.42613e-05 0.00103324 0.23408)
(5.67645e-05 0.00108323 0.234396)
(1.07484e-05 0.00105943 0.234448)
(-3.69685e-05 0.00108227 0.23442)
(3.91034e-06 0.00103127 0.234128)
(-0.000226038 0.00103218 0.233702)
(-0.000138564 0.000915974 0.23332)
(-0.000527022 0.00102959 0.23315)
(-0.000192984 0.00111276 0.233419)
(-0.000706614 0.00109611 0.234268)
(-3.64478e-06 0.0017995 0.234309)
(0.000703237 0.00105229 0.232254)
(0.000193305 0.00107054 0.231371)
(0.000534569 0.000988181 0.231066)
(0.000148546 0.000874659 0.231221)
(0.000242697 0.000989187 0.231613)
(1.32105e-05 0.000987546 0.23206)
(5.70514e-05 0.00103509 0.232377)
(1.06463e-05 0.00101204 0.232428)
(-3.74746e-05 0.00103418 0.232401)
(4.74689e-06 0.000985673 0.232107)
(-0.000229138 0.000986622 0.231681)
(-0.000137867 0.000872447 0.231298)
(-0.000526761 0.000984737 0.231127)
(-0.000188825 0.00106656 0.231399)
(-0.000703548 0.00104696 0.232251)
(-3.62114e-06 0.00172374 0.232272)
(0.000700652 0.00100142 0.23019)
(0.000189085 0.0010223 0.229306)
(0.000534413 0.000941299 0.228999)
(0.00014745 0.000829189 0.229155)
(0.000245539 0.000941688 0.229548)
(1.20746e-05 0.000940094 0.229995)
(5.73334e-05 0.000985198 0.230314)
(1.05493e-05 0.0009629 0.230364)
(-3.79681e-05 0.000984344 0.230337)
(5.6739e-06 0.000938315 0.230042)
(-0.000232177 0.000939259 0.229616)
(-0.000136922 0.0008271 0.229232)
(-0.000526715 0.000937996 0.22906)
(-0.000184675 0.00101848 0.229334)
(-0.000700952 0.000996298 0.230187)
(-3.60478e-06 0.0016466 0.230186)
(0.000698468 0.000948887 0.228078)
(0.000184837 0.000972046 0.227197)
(0.000534472 0.000892405 0.226888)
(0.000146105 0.000781768 0.227046)
(0.00024831 0.000892251 0.22744)
(1.0855e-05 0.000890743 0.227886)
(5.76147e-05 0.000933428 0.228206)
(1.0457e-05 0.000911868 0.228254)
(-3.84536e-05 0.000932625 0.228229)
(6.68969e-06 0.000889057 0.227933)
(-0.000235143 0.000889956 0.227507)
(-0.000135729 0.000779802 0.227122)
(-0.000526891 0.000889241 0.226949)
(-0.000180506 0.000968384 0.227224)
(-0.000698768 0.000943966 0.228075)
(-3.59541e-06 0.00156791 0.228051)
(0.000696624 0.000894543 0.22592)
(0.000180527 0.000919659 0.225042)
(0.000534752 0.00084138 0.224733)
(0.000144507 0.00073228 0.224893)
(0.000250995 0.000840752 0.225287)
(9.55326e-06 0.000839368 0.225733)
(5.78994e-05 0.00087965 0.226053)
(1.03691e-05 0.000858821 0.2261)
(-3.8936e-05 0.000878899 0.226076)
(7.79217e-06 0.000837775 0.225779)
(-0.000238019 0.000838589 0.225354)
(-0.000134284 0.000730435 0.224968)
(-0.000527292 0.000838355 0.224793)
(-0.000176284 0.000916153 0.225069)
(-0.000696936 0.000889819 0.225916)
(-3.59263e-06 0.00148753 0.225868)
(0.000695054 0.000838262 0.223713)
(0.00017612 0.000865034 0.222841)
(0.000535257 0.000788125 0.222533)
(0.000142655 0.000680625 0.222696)
(0.000253576 0.000787085 0.22309)
(8.17158e-06 0.000785861 0.223535)
(5.8192e-05 0.00082376 0.223855)
(1.02849e-05 0.000803653 0.223901)
(-3.94207e-05 0.000823059 0.223878)
(8.97861e-06 0.00078436 0.223581)
(-0.00024079 0.000785053 0.223156)
(-0.000132584 0.000678899 0.22277)
(-0.000527922 0.000785238 0.222593)
(-0.000171972 0.000861682 0.222868)
(-0.000695388 0.000833731 0.223709)
(-3.59587e-06 0.00140535 0.223635)
(0.000693693 0.000779942 0.22146)
(0.000171579 0.000808088 0.220596)
(0.00053599 0.000732562 0.220289)
(0.000140545 0.000626722 0.220454)
(0.000256033 0.000731166 0.220849)
(6.71274e-06 0.000730135 0.221292)
(5.84974e-05 0.00076567 0.221612)
(1.02038e-05 0.000746279 0.221657)
(-3.99135e-05 0.000765018 0.221635)
(1.02455e-05 0.000728726 0.221337)
(-0.000243434 0.000729263 0.220914)
(-0.000130627 0.000625114 0.220529)
(-0.000528785 0.000729812 0.220348)
(-0.000167536 0.000804888 0.220622)
(-0.000694059 0.0007756 0.221456)
(-3.60444e-06 0.00132125 0.221353)
(0.000692471 0.000719501 0.219158)
(0.000166871 0.000748759 0.218305)
(0.000536954 0.000674634 0.218)
(0.000138173 0.000570518 0.218169)
(0.000258341 0.000672934 0.218562)
(5.18038e-06 0.000672126 0.219004)
(5.88205e-05 0.000705318 0.219324)
(1.0125e-05 0.000686637 0.219367)
(-4.04208e-05 0.000704716 0.219346)
(1.15883e-05 0.000670808 0.219049)
(-0.000245928 0.00067116 0.218627)
(-0.000128408 0.000569028 0.218242)
(-0.000529883 0.000672021 0.218058)
(-0.000162939 0.00074571 0.218331)
(-0.000692878 0.000715346 0.219154)
(-3.61749e-06 0.00123518 0.219021)
(0.000691317 0.000656892 0.216808)
(0.000161963 0.000687014 0.215968)
(0.000538153 0.000614315 0.215664)
(0.000135536 0.000511988 0.215838)
(0.000260473 0.000612358 0.21623)
(3.57911e-06 0.000611799 0.216669)
(5.91668e-05 0.000642672 0.216989)
(1.00475e-05 0.000624697 0.217031)
(-4.09492e-05 0.000642118 0.217011)
(1.30012e-05 0.000610571 0.216714)
(-0.000248246 0.00061071 0.216295)
(-0.000125925 0.000510615 0.215911)
(-0.000531221 0.00061184 0.215722)
(-0.00015815 0.000684114 0.215994)
(-0.000691772 0.000652921 0.216804)
(-3.63402e-06 0.00114711 0.216639)
(0.000690154 0.000592099 0.214408)
(0.000156826 0.000622852 0.213584)
(0.000539587 0.000551613 0.213282)
(0.000132631 0.000451142 0.213461)
(0.000262399 0.000549439 0.213852)
(1.91481e-06 0.000549152 0.214288)
(5.95419e-05 0.000577732 0.214607)
(9.97019e-06 0.000560458 0.214648)
(-4.15064e-05 0.000577226 0.214629)
(1.44772e-05 0.000548014 0.214333)
(-0.000250358 0.000547918 0.213915)
(-0.000123174 0.000449885 0.213533)
(-0.000532797 0.000549274 0.213339)
(-0.000153138 0.0006201 0.213609)
(-0.000690663 0.000588309 0.214403)
(-3.65282e-06 0.00105704 0.214204)
(0.0006889 0.000525147 0.211957)
(0.000151431 0.000556312 0.211151)
(0.000541255 0.000486574 0.210852)
(0.000129455 0.000388031 0.211035)
(0.000264082 0.000484221 0.211424)
(1.94779e-07 0.000484222 0.211858)
(5.99516e-05 0.000510539 0.212175)
(9.89182e-06 0.000493965 0.212216)
(-4.21004e-05 0.00051008 0.212197)
(1.60074e-05 0.000483174 0.211902)
(-0.000252227 0.000482824 0.211487)
(-0.000120152 0.000386888 0.211107)
(-0.000534611 0.000484372 0.210908)
(-0.000147874 0.000553706 0.211176)
(-0.000689469 0.000521535 0.211952)
(-3.67251e-06 0.00096502 0.211715)
(0.000687469 0.000456109 0.209452)
(0.000145754 0.000487477 0.208668)
(0.000543153 0.000419291 0.20837)
(0.000126004 0.000322752 0.20856)
(0.000265481 0.000416791 0.208946)
(-1.57186e-06 0.000417093 0.209377)
(6.04021e-05 0.00044118 0.209692)
(9.81084e-06 0.000425304 0.209732)
(-4.27396e-05 0.000440769 0.209714)
(1.75806e-05 0.000416134 0.20942)
(-0.000253816 0.000415517 0.209008)
(-0.000116857 0.000321724 0.20863)
(-0.000536657 0.000417227 0.208426)
(-0.000142332 0.000485016 0.208692)
(-0.000688099 0.000452673 0.209447)
(-3.69148e-06 0.000871165 0.209167)
(0.000685765 0.00038511 0.206889)
(0.000139772 0.000416484 0.20613)
(0.000545272 0.000349913 0.205834)
(0.000122277 0.00025546 0.20603)
(0.000266551 0.000347293 0.206413)
(-3.37388e-06 0.000347905 0.206841)
(6.08996e-05 0.000369797 0.207154)
(9.72549e-06 0.000354621 0.207193)
(-4.34331e-05 0.000369433 0.207175)
(1.91836e-05 0.000347034 0.206884)
(-0.000255079 0.000346142 0.206475)
(-0.000113288 0.000254545 0.2061)
(-0.000538927 0.000347985 0.205889)
(-0.000136488 0.000414168 0.206154)
(-0.000686456 0.000381848 0.206884)
(-3.70788e-06 0.000775645 0.206557)
(0.000683684 0.000312341 0.204264)
(0.000133465 0.000343535 0.203533)
(0.000547596 0.00027865 0.203239)
(0.000118273 0.000186374 0.203442)
(0.000267239 0.000275935 0.203821)
(-5.19751e-06 0.000276858 0.204246)
(6.14501e-05 0.000296598 0.204556)
(9.63371e-06 0.000282123 0.204594)
(-4.41905e-05 0.00029628 0.204577)
(2.08e-05 0.000276076 0.204288)
(-0.000255966 0.000274904 0.203882)
(-0.000109443 0.000185571 0.203511)
(-0.000541404 0.000276859 0.203293)