0 	0 	0 	0
5.01672e-05 	0.00020962 	1.76691e-06 	0.0164645
0.000100334 	0.000264137 	2.94193e-06 	0.0310065
0.000150502 	0.00028446 	3.61901e-06 	0.0443651
0.000200669 	0.00032856 	3.7096e-06 	0.0568249
0.000250836 	0.00039016 	3.68796e-06 	0.0684278
0.000301003 	0.000457051 	3.57822e-06 	0.0792062
0.000351171 	0.000523904 	3.45209e-06 	0.0892134
0.000401338 	0.000587732 	3.34789e-06 	0.0984979
0.000451505 	0.000646629 	3.28816e-06 	0.107099
0.000501672 	0.000699496 	3.27139e-06 	0.11505
0.000551839 	0.000745913 	3.25864e-06 	0.12239
0.000602007 	0.000786062 	3.20784e-06 	0.129164
0.000652174 	0.000820553 	3.10823e-06 	0.135423
0.000702341 	0.000850155 	2.96511e-06 	0.141222
0.000752508 	0.000875586 	2.76372e-06 	0.146609
0.000802676 	0.000897402 	2.45513e-06 	0.151621
0.000852843 	0.000915421 	1.96977e-06 	0.156242
0.00090301 	0.000930233 	1.33592e-06 	0.160563
0.000953177 	0.000941862 	5.68651e-07 	0.164611
0.00100334 	0.000950394 	-3.21484e-07 	0.168412
0.00105351 	0.000955996 	-1.32831e-06 	0.17199
0.00110368 	0.000958845 	-2.45227e-06 	0.17536
0.00115385 	0.00095862 	-3.71269e-06 	0.178493
0.00120401 	0.000956351 	-5.06268e-06 	0.181466
0.00125418 	0.000952205 	-6.50178e-06 	0.184293
0.00130435 	0.000946326 	-8.02811e-06 	0.186988
0.00135452 	0.000938326 	-9.66286e-06 	0.189526
0.00140468 	0.000928642 	-1.13706e-05 	0.191942
0.00145485 	0.000917667 	-1.31275e-05 	0.194264
0.00150502 	0.000905513 	-1.49258e-05 	0.1965
0.00155518 	0.00089169 	-1.67839e-05 	0.19861
0.00160535 	0.00087687 	-1.86821e-05 	0.200648
0.00165552 	0.000861139 	-2.06096e-05 	0.20262
0.00170569 	0.000844094 	-2.25569e-05 	0.204504
0.00175585 	0.000825901 	-2.4477e-05 	0.206317
0.00180602 	0.000806892 	-2.6373e-05 	0.208082
0.00185619 	0.000786666 	-2.82241e-05 	0.209779
0.00190635 	0.000765344 	-3.00479e-05 	0.211416
0.00195652 	0.000743333 	-3.18539e-05 	0.213017
0.00200669 	0.000720126 	-3.36271e-05 	0.214555
0.00205686 	0.000696077 	-3.53542e-05 	0.216051
0.00210702 	0.000671471 	-3.70507e-05 	0.217518
0.00215719 	0.000645553 	-3.86578e-05 	0.218919
0.00220736 	0.000619152 	-4.02383e-05 	0.220297
0.00225753 	0.000591975 	-4.17763e-05 	0.221637
0.00230769 	0.000563935 	-4.32994e-05 	0.222935
0.00235786 	0.000535525 	-4.48188e-05 	0.224216
0.00240803 	0.000506069 	-4.63764e-05 	0.225445
0.00245819 	0.000476288 	-4.79579e-05 	0.226657
0.00250836 	0.000445851 	-4.95877e-05 	0.227836
0.00255853 	0.000414939 	-5.12467e-05 	0.228988
0.0026087 	0.00038369 	-5.29263e-05 	0.23012
0.00265886 	0.000351959 	-5.45966e-05 	0.231217
0.00270903 	0.000320113 	-5.62646e-05 	0.232305
0.0027592 	0.000287883 	-5.78582e-05 	0.233352
0.00280936 	0.000255612 	-5.94356e-05 	0.234393
0.00285953 	0.000223125 	-6.09269e-05 	0.2354
0.0029097 	0.000190564 	-6.23934e-05 	0.236396
0.00295987 	0.000157812 	-6.37972e-05 	0.237366
0.00301003 	0.000124912 	-6.518e-05 	0.238322
0.0030602 	9.17654e-05 	-6.65279e-05 	0.239255
0.00311037 	5.8384e-05 	-6.78574e-05 	0.240174
0.00316054 	2.46975e-05 	-6.9163e-05 	0.241072
0.0032107 	-9.24009e-06 	-7.04359e-05 	0.241956
0.00326087 	-4.34748e-05 	-7.16704e-05 	0.242821
0.00331104 	-7.78218e-05 	-7.28525e-05 	0.243673
0.0033612 	-0.000112308 	-7.39696e-05 	0.244506
0.00341137 	-0.000146615 	-7.50437e-05 	0.245328
0.00346154 	-0.00018065 	-7.60527e-05 	0.246132
0.00351171 	-0.00021424 	-7.70626e-05 	0.246927
0.00356187 	-0.000246851 	-7.80744e-05 	0.247704
0.00361204 	-0.000279049 	-7.91139e-05 	0.248477
0.00366221 	-0.000309484 	-8.02715e-05 	0.249231
0.00371237 	-0.000339858 	-8.1434e-05 	0.249984
0.00376254 	-0.000368235 	-8.27566e-05 	0.250718
0.00381271 	-0.000396613 	-8.40791e-05 	0.251452
0.00386288 	-0.000424406 	-8.53591e-05 	0.252169
0.00391304 	-0.00045208 	-8.66305e-05 	0.252882
0.00396321 	-0.000480604 	-8.76491e-05 	0.25358
0.00401338 	-0.000509714 	-8.84933e-05 	0.254267
0.00406355 	-0.000539786 	-8.91165e-05 	0.254944
0.00411371 	-0.000571965 	-8.9255e-05 	0.255597
0.00416388 	-0.000604144 	-8.93934e-05 	0.256251
0.00421405 	-0.000639284 	-8.90002e-05 	0.256866
0.00426421 	-0.000674442 	-8.86036e-05 	0.257481
0.00431438 	-0.000710495 	-8.82708e-05 	0.258071
0.00436455 	-0.000747068 	-8.79752e-05 	0.258648
0.00441472 	-0.00078364 	-8.78112e-05 	0.259217
0.00446488 	-0.00082021 	-8.80902e-05 	0.259761
0.00451505 	-0.000856779 	-8.83692e-05 	0.260305
0.00456522 	-0.000893203 	-8.89707e-05 	0.260826
0.00461538 	-0.000929586 	-8.96619e-05 	0.261342
0.00466555 	-0.000966113 	-9.03254e-05 	0.261849
0.00471572 	-0.00100299 	-9.09219e-05 	0.262336
0.00476589 	-0.00103986 	-9.15184e-05 	0.262824
0.00481605 	-0.00107762 	-9.18518e-05 	0.263289
0.00486622 	-0.00111566 	-9.21006e-05 	0.263748
0.00491639 	-0.00115397 	-9.23043e-05 	0.264201
0.00496656 	-0.00119352 	-9.22971e-05 	0.264629
0.00501672 	-0.00123308 	-9.22899e-05 	0.265057
0.00506689 	-0.00127357 	-9.21952e-05 	0.265467
0.00511706 	-0.00131481 	-9.20286e-05 	0.265864
0.00516722 	-0.00135606 	-9.1862e-05 	0.266261
0.00521739 	-0.00139876 	-9.1559e-05 	0.266629
0.00526756 	-0.00144166 	-9.12365e-05 	0.266993
0.00531773 	-0.00148476 	-9.08858e-05 	0.267353
0.00536789 	-0.00152898 	-9.0379e-05 	0.267684
0.00541806 	-0.0015732 	-8.98722e-05 	0.268015
0.00546823 	-0.00161772 	-8.92925e-05 	0.268334
0.00551839 	-0.00166272 	-8.8595e-05 	0.268631
0.00556856 	-0.00170771 	-8.78975e-05 	0.268929
0.00561873 	-0.00175284 	-8.71083e-05 	0.269208
0.0056689 	-0.00179808 	-8.62477e-05 	0.269472
0.00571906 	-0.00184332 	-8.53871e-05 	0.269736
0.00576923 	-0.00188842 	-8.4424e-05 	0.269977
0.0058194 	-0.00193345 	-8.3415e-05 	0.270207
0.00586957 	-0.00197848 	-8.2406e-05 	0.270438
0.00591973 	-0.00202301 	-8.12943e-05 	0.270642
0.0059699 	-0.0020674 	-8.01515e-05 	0.270838
0.00602007 	-0.00211178 	-7.90088e-05 	0.271035
0.00607023 	-0.00215527 	-7.77926e-05 	0.271204
0.0061204 	-0.00219854 	-7.65573e-05 	0.271367
0.00617057 	-0.0022418 	-7.5322e-05 	0.27153
0.00622074 	-0.00228386 	-7.40483e-05 	0.271667
0.0062709 	-0.00232554 	-7.27629e-05 	0.271796
0.00632107 	-0.00236723 	-7.14774e-05 	0.271926
0.00637124 	-0.00240757 	-7.0169e-05 	0.272033
0.0064214 	-0.00244729 	-6.88499e-05 	0.272129
0.00647157 	-0.00248701 	-6.75309e-05 	0.272226
0.00652174 	-0.00252548 	-6.61913e-05 	0.272305
0.00657191 	-0.00256289 	-6.48345e-05 	0.27237
0.00662207 	-0.00260031 	-6.34778e-05 	0.272434
0.00667224 	-0.00263682 	-6.21095e-05 	0.272489
0.00672241 	-0.00267167 	-6.07197e-05 	0.272523
0.00677258 	-0.00270651 	-5.93299e-05 	0.272558
0.00682274 	-0.00274108 	-5.79398e-05 	0.27259
0.00687291 	-0.00277315 	-5.65471e-05 	0.272597
0.00692308 	-0.00280522 	-5.51545e-05 	0.272604
0.00697324 	-0.00283729 	-5.37619e-05 	0.272611
0.00702341 	-0.00286708 	-5.2321e-05 	0.272599
0.00707358 	-0.00289626 	-5.08672e-05 	0.272581
0.00712375 	-0.00292545 	-4.94135e-05 	0.272564
0.00717391 	-0.00295344 	-4.79473e-05 	0.272536
0.00722408 	-0.00297981 	-4.64641e-05 	0.272494
0.00727425 	-0.00300617 	-4.49809e-05 	0.272453
0.00732441 	-0.00303254 	-4.34977e-05 	0.272411
0.00737458 	-0.00305648 	-4.20804e-05 	0.272345
0.00742475 	-0.0030804 	-4.06637e-05 	0.272278
0.00747492 	-0.00310432 	-3.92469e-05 	0.272211
0.00752508 	-0.0031273 	-3.78524e-05 	0.272131
0.00757525 	-0.00314935 	-3.64799e-05 	0.272038
0.00762542 	-0.0031714 	-3.51075e-05 	0.271946
0.00767559 	-0.00319344 	-3.37365e-05 	0.271853
0.00772575 	-0.00321359 	-3.25323e-05 	0.271738
0.00777592 	-0.00323374 	-3.13281e-05 	0.271623
0.00782609 	-0.0032539 	-3.01238e-05 	0.271508
0.00787625 	-0.00327279 	-2.903e-05 	0.271384
0.00792642 	-0.00329076 	-2.80163e-05 	0.271252
0.00797659 	-0.00330874 	-2.70025e-05 	0.271121
0.00802676 	-0.00332628 	-2.60247e-05 	0.270986
0.00807692 	-0.00334222 	-2.51816e-05 	0.27084
0.00812709 	-0.00335816 	-2.43386e-05 	0.270693
0.00817726 	-0.0033741 	-2.34955e-05 	0.270547
0.00822742 	-0.00338838 	-2.28963e-05 	0.270386
0.00827759 	-0.00340249 	-2.23239e-05 	0.270223
0.00832776 	-0.00341659 	-2.17515e-05 	0.27006
0.00837793 	-0.00342961 	-2.13518e-05 	0.269886
0.00842809 	-0.00344204 	-2.10453e-05 	0.269705
0.00847826 	-0.00345447 	-2.07388e-05 	0.269525
0.00852843 	-0.0034662 	-2.05532e-05 	0.269335
0.0085786 	-0.00347708 	-2.05122e-05 	0.269136
0.00862876 	-0.00348796 	-2.04712e-05 	0.268936
0.00867893 	-0.00349838 	-2.05078e-05 	0.26873
0.0087291 	-0.0035078 	-2.07112e-05 	0.268509
0.00877926 	-0.00351723 	-2.09146e-05 	0.268289
0.00882943 	-0.00352632 	-2.11628e-05 	0.268064
0.0088796 	-0.00353432 	-2.15569e-05 	0.267822
0.00892977 	-0.00354233 	-2.1951e-05 	0.26758
0.00897993 	-0.00355005 	-2.23706e-05 	0.267333
0.0090301 	-0.00355664 	-2.28883e-05 	0.267069
0.00908027 	-0.00356324 	-2.3406e-05 	0.266804
0.00913043 	-0.0035695 	-2.39257e-05 	0.266534
0.0091806 	-0.00357464 	-2.44519e-05 	0.266245
0.00923077 	-0.00357979 	-2.4978e-05 	0.265957
0.00928094 	-0.00358445 	-2.5496e-05 	0.265661
0.0093311 	-0.00358806 	-2.59959e-05 	0.265348
0.00938127 	-0.00359166 	-2.64957e-05 	0.265035
0.00943144 	-0.00359452 	-2.70501e-05 	0.26471
0.00948161 	-0.00359643 	-2.76743e-05 	0.264372
0.00953177 	-0.00359834 	-2.82985e-05 	0.264033
0.00958194 	-0.00359909 	-2.90804e-05 	0.263678
0.00963211 	-0.00359912 	-2.996e-05 	0.263313
0.00968227 	-0.00359915 	-3.08396e-05 	0.262949
0.00973244 	-0.0035974 	-3.19679e-05 	0.262561
0.00978261 	-0.00359534 	-3.31411e-05 	0.262169
0.00983278 	-0.00359298 	-3.43518e-05 	0.261774
0.00988294 	-0.00358859 	-3.58246e-05 	0.261355
0.00993311 	-0.0035842 	-3.72974e-05 	0.260937
0.00998328 	-0.00357862 	-3.88878e-05 	0.260505
0.0100334 	-0.0035716 	-4.06213e-05 	0.260059
0.0100836 	-0.00356458 	-4.23549e-05 	0.259613
0.0101338 	-0.00355511 	-4.45551e-05 	0.259144
0.0101839 	-0.00354511 	-4.68549e-05 	0.25867
0.0102341 	-0.00353433 	-4.93471e-05 	0.258189
0.0102843 	-0.00352114 	-5.24373e-05 	0.257687
0.0103344 	-0.00350796 	-5.55275e-05 	0.257185
0.0103846 	-0.00349255 	-5.86466e-05 	0.256662
0.0104348 	-0.00347623 	-6.17776e-05 	0.256131
0.0104849 	-0.0034593 	-6.47541e-05 	0.255593
0.0105351 	-0.00344013 	-6.71754e-05 	0.25503
0.0105853 	-0.00342096 	-6.95968e-05 	0.254467
0.0106355 	-0.00339979 	-7.15642e-05 	0.253875
0.0106856 	-0.00337803 	-7.33968e-05 	0.253275
0.0107358 	-0.00335533 	-7.53048e-05 	0.25266
0.010786 	-0.00333104 	-7.73425e-05 	0.25202
0.0108361 	-0.00330673 	-7.93858e-05 	0.25138
0.0108863 	-0.00327986 	-8.23043e-05 	0.250698
0.0109365 	-0.00325299 	-8.52228e-05 	0.250016
0.0109866 	-0.00322438 	-8.82686e-05 	0.249305
0.0110368 	-0.00319499 	-9.13724e-05 	0.248581
0.011087 	-0.00316474 	-9.42185e-05 	0.24784
0.0111371 	-0.00313324 	-9.66905e-05 	0.247073
0.0111873 	-0.0031015 	-9.91711e-05 	0.246299
0.0112375 	-0.00306855 	-0.000101693 	0.245491
0.0112876 	-0.00303559 	-0.000104215 	0.244682
0.0113378 	-0.00300163 	-0.000107239 	0.243829
0.011388 	-0.00296765 	-0.000110277 	0.242974
0.0114381 	-0.00293308 	-0.000113154 	0.242071
0.0114883 	-0.00289838 	-0.000115992 	0.241156
0.0115385 	-0.00286356 	-0.000118173 	0.240195
0.0115886 	-0.00282868 	-0.000120055 	0.239214
0.0116388 	-0.0027939 	-0.000121388 	0.2382
0.011689 	-0.00275918 	-0.000122358 	0.237166
0.0117391 	-0.0027245 	-0.000123377 	0.236108
0.0117893 	-0.00268984 	-0.000124435 	0.235033
0.0118395 	-0.00265519 	-0.000125812 	0.233934
0.0118896 	-0.00262055 	-0.00012746 	0.232815
0.0119398 	-0.00258597 	-0.000129054 	0.231665
0.01199 	-0.00255142 	-0.000130606 	0.230492
0.0120401 	-0.00251701 	-0.000131809 	0.229279
0.0120903 	-0.00248268 	-0.000132802 	0.228042
0.0121405 	-0.00244878 	-0.000133428 	0.226756
0.0121906 	-0.00241505 	-0.000133909 	0.225452
0.0122408 	-0.00238226 	-0.000133932 	0.224088
0.012291 	-0.00234965 	-0.000133869 	0.222712
0.0123411 	-0.00231847 	-0.000133305 	0.221262
0.0123913 	-0.00228761 	-0.000132664 	0.219797
0.0124415 	-0.00225806 	-0.000131703 	0.218269
0.0124916 	-0.00222924 	-0.000130572 	0.216705
0.0125418 	-0.00220143 	-0.000129204 	0.215093
0.012592 	-0.00217485 	-0.000127491 	0.21342
0.0126421 	-0.00214888 	-0.000125607 	0.211718
0.0126923 	-0.00212486 	-0.000123203 	0.209925
0.0127425 	-0.0021016 	-0.000120655 	0.208099
0.0127926 	-0.00208012 	-0.000117785 	0.206198
0.0128428 	-0.00206037 	-0.000114787 	0.204223
0.012893 	-0.0020417 	-0.000111709 	0.202203
0.0129431 	-0.00202582 	-0.00010864 	0.200044
0.0129933 	-0.00201086 	-0.000105444 	0.197822
0.0130435 	-0.0019973 	-0.000102051 	0.195503
0.0130936 	-0.00198503 	-9.80944e-05 	0.193053
0.0131438 	-0.00197337 	-9.3905e-05 	0.190533
0.013194 	-0.00196254 	-8.94286e-05 	0.187907
0.0132441 	-0.00195261 	-8.49082e-05 	0.185174
0.0132943 	-0.00194329 	-8.03879e-05 	0.182369
0.0133445 	-0.00193487 	-7.59016e-05 	0.179463
0.0133946 	-0.00192723 	-7.1437e-05 	0.17643
0.0134448 	-0.00191983 	-6.6956e-05 	0.173302
0.013495 	-0.00191258 	-6.24412e-05 	0.170069
0.0135452 	-0.00190468 	-5.78522e-05 	0.16665
0.0135953 	-0.00189591 	-5.32269e-05 	0.163107
0.0136455 	-0.00188605 	-4.85936e-05 	0.15943
0.0136957 	-0.00187453 	-4.40141e-05 	0.155589
0.0137458 	-0.00186057 	-3.96572e-05 	0.151546
0.013796 	-0.00184437 	-3.54587e-05 	0.14734
0.0138462 	-0.00182558 	-3.13932e-05 	0.142959
0.0138963 	-0.00180385 	-2.74215e-05 	0.13839
0.0139465 	-0.00177764 	-2.35192e-05 	0.13355
0.0139967 	-0.00174747 	-1.9733e-05 	0.12848
0.0140468 	-0.00171297 	-1.61793e-05 	0.12317
0.014097 	-0.00167363 	-1.29022e-05 	0.117602
0.0141472 	-0.00162885 	-9.87844e-06 	0.111758
0.0141973 	-0.00157783 	-7.05485e-06 	0.10562
0.0142475 	-0.00151795 	-4.5113e-06 	0.0991313
0.0142977 	-0.00144886 	-2.27158e-06 	0.092336
0.0143478 	-0.00136958 	-3.92892e-07 	0.0852378
0.014398 	-0.00128006 	1.15799e-06 	0.0778571
0.0144482 	-0.00118151 	2.42604e-06 	0.0702422
0.0144983 	-0.00107629 	3.39987e-06 	0.0624735
0.0145485 	-0.000967432 	4.05917e-06 	0.0546612
0.0145987 	-0.000858057 	4.42688e-06 	0.0469366
0.0146488 	-0.000750353 	4.53265e-06 	0.0394337
0.014699 	-0.000644437 	4.37177e-06 	0.0322678
0.0147492 	-0.0005375 	3.92456e-06 	0.0255195
0.0147993 	-0.000423032 	3.23046e-06 	0.0192333
0.0148495 	-0.000289104 	2.2001e-06 	0.013425
0.0148997 	-0.000137666 	1.12135e-06 	0.00816878
0.0149498 	-2.14414e-05 	4.72455e-07 	0.00368136
0.015 	0 	0 	0
