0 	0 	0 	0
0 	0 	0 	0
0.00752508 	0.000194314 	0.00118948 	-0.283429
0.00752508 	0.000194314 	0.00118948 	-0.283429
0.00757525 	0.000157114 	0.00119781 	-0.283502
0.00762542 	0.000119914 	0.00120615 	-0.283574
0.00762542 	0.000119914 	0.00120615 	-0.283574
0.00767559 	8.26973e-05 	0.00121448 	-0.283647
0.00772575 	4.35995e-05 	0.00122338 	-0.283697
0.00777592 	4.50159e-06 	0.00123228 	-0.283747
0.00782609 	-3.45963e-05 	0.00124119 	-0.283797
0.00782609 	-3.45963e-05 	0.00124119 	-0.283797
0.00787625 	-7.43009e-05 	0.00124937 	-0.283837
0.00792642 	-0.000114446 	0.00125703 	-0.28387
0.00797659 	-0.00015459 	0.00126469 	-0.283904
0.00802676 	-0.000194724 	0.00127219 	-0.283934
0.00802676 	-0.000194724 	0.00127219 	-0.283934
0.00807692 	-0.000234817 	0.00127909 	-0.283953
0.00812709 	-0.00027491 	0.00128599 	-0.283972
0.00812709 	-0.00027491 	0.00128599 	-0.283972
0.00817726 	-0.000315003 	0.00129289 	-0.283991
0.00822742 	-0.000354062 	0.00130082 	-0.283997
0.00822742 	-0.000354062 	0.00130082 	-0.283997
0.00827759 	-0.000393006 	0.00130886 	-0.284001
0.00832776 	-0.00043195 	0.0013169 	-0.284005
0.00832776 	-0.00043195 	0.0013169 	-0.284005
0.00837793 	-0.000469782 	0.00132488 	-0.283998
0.00842809 	-0.000507015 	0.00133282 	-0.283986
0.00842809 	-0.000507015 	0.00133282 	-0.283986
0.00847826 	-0.000544247 	0.00134077 	-0.283974
0.00847826 	-0.000544247 	0.00134077 	-0.283974
0.00852843 	-0.000580785 	0.00134858 	-0.283953
0.00852843 	-0.000580785 	0.00134858 	-0.283953
0.0085786 	-0.000616492 	0.00135621 	-0.283924
0.0085786 	-0.000616492 	0.00135621 	-0.283924
0.00862876 	-0.0006522 	0.00136385 	-0.283894
0.00867893 	-0.000687486 	0.00137132 	-0.283859
0.00867893 	-0.000687486 	0.00137132 	-0.283859
0.0087291 	-0.000721868 	0.00137841 	-0.283811
0.00877926 	-0.000756249 	0.00138551 	-0.283763
0.00877926 	-0.000756249 	0.00138551 	-0.283763
0.00882943 	-0.000790225 	0.00139249 	-0.28371
0.0088796 	-0.000822879 	0.00139906 	-0.283642
0.0088796 	-0.000822879 	0.00139906 	-0.283642
0.00897993 	-0.000887679 	0.00141214 	-0.283501
0.00897993 	-0.000887679 	0.00141214 	-0.283501
0.0090301 	-0.00091788 	0.00141844 	-0.283411
0.00908027 	-0.00094808 	0.00142475 	-0.283322
0.00908027 	-0.00094808 	0.00142475 	-0.283322
0.00913043 	-0.000977641 	0.00143102 	-0.283227
0.0091806 	-0.00100508 	0.00143719 	-0.283115
0.0091806 	-0.00100508 	0.00143719 	-0.283115
0.00923077 	-0.00103252 	0.00144336 	-0.283002
0.00928094 	-0.00105926 	0.0014495 	-0.282883
0.00928094 	-0.00105926 	0.0014495 	-0.282883
0.0093311 	-0.00108441 	0.00145553 	-0.282746
0.00938127 	-0.00110956 	0.00146157 	-0.282609
0.00938127 	-0.00110956 	0.00146157 	-0.282609
0.00943144 	-0.00113408 	0.00146751 	-0.282461
0.00943144 	-0.00113408 	0.00146751 	-0.282461
0.00948161 	-0.00115778 	0.00147334 	-0.282299
0.00948161 	-0.00115778 	0.00147334 	-0.282299
0.00953177 	-0.00118148 	0.00147916 	-0.282136
0.00953177 	-0.00118148 	0.00147916 	-0.282136
0.00958194 	-0.00120474 	0.00148481 	-0.281957
0.00958194 	-0.00120474 	0.00148481 	-0.281957
0.00963211 	-0.00122774 	0.00149033 	-0.281768
0.00963211 	-0.00122774 	0.00149033 	-0.281768
0.00968227 	-0.00125073 	0.00149586 	-0.281578
0.00968227 	-0.00125073 	0.00149586 	-0.281578
0.00973244 	-0.00127359 	0.00150109 	-0.281365
0.00978261 	-0.00129642 	0.00150626 	-0.281147
0.00983278 	-0.00131928 	0.00151138 	-0.280925
0.00988294 	-0.00134237 	0.00151611 	-0.280678
0.00988294 	-0.00134237 	0.00151611 	-0.280678
0.00993311 	-0.00136546 	0.00152084 	-0.280431
0.00998328 	-0.00138882 	0.00152531 	-0.280171
0.00998328 	-0.00138882 	0.00152531 	-0.280171
0.0100334 	-0.0014125 	0.00152947 	-0.279894
0.0100334 	-0.0014125 	0.00152947 	-0.279894
0.0100836 	-0.00143618 	0.00153364 	-0.279618
0.0101338 	-0.00146053 	0.00153734 	-0.279317
0.0101338 	-0.00146053 	0.00153734 	-0.279317
0.0102341 	-0.00150972 	0.0015444 	-0.278697
0.0102341 	-0.00150972 	0.0015444 	-0.278697
0.0102843 	-0.00153512 	0.0015474 	-0.278362
0.0103344 	-0.00156051 	0.0015504 	-0.278027
0.0103344 	-0.00156051 	0.0015504 	-0.278027
0.0103846 	-0.00158653 	0.00155284 	-0.277671
0.0103846 	-0.00158653 	0.00155284 	-0.277671
0.0104348 	-0.00161279 	0.00155504 	-0.277306
0.0104849 	-0.00163922 	0.00155704 	-0.276935
0.0104849 	-0.00163922 	0.00155704 	-0.276935
0.0105351 	-0.0016662 	0.00155829 	-0.276539
0.0105853 	-0.00169318 	0.00155955 	-0.276144
0.0105853 	-0.00169318 	0.00155955 	-0.276144
0.0106355 	-0.00172051 	0.00156005 	-0.275724
0.0106856 	-0.00174795 	0.00156033 	-0.275296
0.0106856 	-0.00174795 	0.00156033 	-0.275296
0.0107358 	-0.00177544 	0.00156022 	-0.274857
0.0107358 	-0.00177544 	0.00156022 	-0.274857
0.010786 	-0.00180302 	0.00155946 	-0.274396
0.010786 	-0.00180302 	0.00155946 	-0.274396
0.0108361 	-0.00183059 	0.00155869 	-0.273936
0.0108361 	-0.00183059 	0.00155869 	-0.273936
0.0108863 	-0.00185782 	0.00155682 	-0.273441
0.0109365 	-0.00188505 	0.00155494 	-0.272947
0.0109365 	-0.00188505 	0.00155494 	-0.272947
0.0109866 	-0.00191158 	0.00155229 	-0.272428
0.0109866 	-0.00191158 	0.00155229 	-0.272428
0.0110368 	-0.00193778 	0.00154928 	-0.271898
0.011087 	-0.00196335 	0.00154574 	-0.271354
0.011087 	-0.00196335 	0.00154574 	-0.271354
0.0111371 	-0.00198803 	0.00154143 	-0.270788
0.0111873 	-0.00201248 	0.00153684 	-0.270216
0.0111873 	-0.00201248 	0.00153684 	-0.270216
0.0112375 	-0.00203582 	0.00153088 	-0.269612
0.0112876 	-0.00205917 	0.00152492 	-0.269009
0.0112876 	-0.00205917 	0.00152492 	-0.269009
0.0113378 	-0.00208209 	0.0015171 	-0.268368
0.011388 	-0.002105 	0.00150922 	-0.267726
0.011388 	-0.002105 	0.00150922 	-0.267726
0.0114883 	-0.00215159 	0.00149 	-0.266368
0.0114883 	-0.00215159 	0.00149 	-0.266368
0.0115385 	-0.00217529 	0.00147912 	-0.265657
0.0115886 	-0.00219915 	0.00146773 	-0.264933
0.0115886 	-0.00219915 	0.00146773 	-0.264933
0.0116388 	-0.00222292 	0.00145546 	-0.264182
0.011689 	-0.00224662 	0.0014426 	-0.263414
0.011689 	-0.00224662 	0.0014426 	-0.263414
0.0117391 	-0.00226964 	0.00142973 	-0.262621
0.0117893 	-0.00229211 	0.00141686 	-0.261808
0.0117893 	-0.00229211 	0.00141686 	-0.261808
0.0118395 	-0.00231323 	0.00140236 	-0.260968
0.0118896 	-0.0023332 	0.00138649 	-0.260106
0.0118896 	-0.0023332 	0.00138649 	-0.260106
0.0119398 	-0.00235248 	0.00136575 	-0.259215
0.0119398 	-0.00235248 	0.00136575 	-0.259215
0.01199 	-0.00237122 	0.00134129 	-0.258303
0.01199 	-0.00237122 	0.00134129 	-0.258303
0.0120401 	-0.00239253 	0.00131707 	-0.257364
0.0120401 	-0.00239253 	0.00131707 	-0.257364
0.0120903 	-0.00241539 	0.001293 	-0.256409
0.0120903 	-0.00241539 	0.001293 	-0.256409
0.0121405 	-0.0024395 	0.00128064 	-0.25542
0.0121405 	-0.0024395 	0.00128064 	-0.25542
0.0121906 	-0.00246411 	0.00127294 	-0.254417
0.0121906 	-0.00246411 	0.00127294 	-0.254417
0.0122408 	-0.0024698 	0.00127247 	-0.253318
0.0122408 	-0.0024698 	0.00127247 	-0.253318
0.012291 	-0.00247191 	0.00127336 	-0.252201
0.012291 	-0.00247191 	0.00127336 	-0.252201
0.0123411 	-0.00242668 	0.00125415 	-0.250893
0.0123411 	-0.00242668 	0.00125415 	-0.250893
0.0123913 	-0.00237693 	0.00123107 	-0.249562
0.0123913 	-0.00237693 	0.00123107 	-0.249562
0.0124415 	-0.00230808 	0.00119174 	-0.248138
0.0124916 	-0.00224771 	0.00115286 	-0.246721
0.0124916 	-0.00224771 	0.00115286 	-0.246721
0.012592 	-0.00217425 	0.00108695 	-0.24392
0.012592 	-0.00217425 	0.00108695 	-0.24392
0.0126421 	-0.00216072 	0.00106454 	-0.242532
0.0126923 	-0.00217166 	0.00104985 	-0.241111
0.0126923 	-0.00217166 	0.00104985 	-0.241111
0.0127425 	-0.0021859 	0.00103235 	-0.23967
0.0127425 	-0.0021859 	0.00103235 	-0.23967
0.0127926 	-0.00220594 	0.00100626 	-0.238176
0.0128428 	-0.00222593 	0.000977798 	-0.236629
0.0128428 	-0.00222593 	0.000977798 	-0.236629
0.012893 	-0.0022459 	0.00094786 	-0.235049
0.0129431 	-0.00226479 	0.000920513 	-0.233377
0.0129431 	-0.00226479 	0.000920513 	-0.233377
0.0129933 	-0.00228291 	0.000892414 	-0.231664
0.0130435 	-0.00229985 	0.000863111 	-0.229889
0.0130435 	-0.00229985 	0.000863111 	-0.229889
0.0130936 	-0.00231485 	0.000833776 	-0.228022
0.0131438 	-0.00232832 	0.000804865 	-0.2261
0.0131438 	-0.00232832 	0.000804865 	-0.2261
0.013194 	-0.002339 	0.000777049 	-0.224086
0.0132441 	-0.00234387 	0.000749926 	-0.221954
0.0132441 	-0.00234387 	0.000749926 	-0.221954
0.0132943 	-0.00234373 	0.000722703 	-0.219737
0.0133445 	-0.00233523 	0.000694688 	-0.217391
0.0133445 	-0.00233523 	0.000694688 	-0.217391
0.0133946 	-0.00231609 	0.000664398 	-0.214891
0.0134448 	-0.0022904 	0.000633349 	-0.21228
0.0134448 	-0.0022904 	0.000633349 	-0.21228
0.013495 	-0.00225797 	0.000601885 	-0.209548
0.0135452 	-0.00221709 	0.000571851 	-0.206607
0.0135452 	-0.00221709 	0.000571851 	-0.206607
0.0136455 	-0.00211913 	0.000513359 	-0.20028
0.0136455 	-0.00211913 	0.000513359 	-0.20028
0.0136957 	-0.00205976 	0.000484347 	-0.196835
0.0137458 	-0.00199069 	0.000455224 	-0.193133
0.0137458 	-0.00199069 	0.000455224 	-0.193133
0.013796 	-0.00191394 	0.000426209 	-0.189219
0.0138462 	-0.00182922 	0.000397417 	-0.185075
0.0138462 	-0.00182922 	0.000397417 	-0.185075
0.0138963 	-0.00173632 	0.000368961 	-0.180679
0.0138963 	-0.00173632 	0.000368961 	-0.180679
0.0139465 	-0.00163272 	0.00034104 	-0.175918
0.0139967 	-0.00152098 	0.000313608 	-0.170841
0.0139967 	-0.00152098 	0.000313608 	-0.170841
0.0140468 	-0.00140146 	0.000286736 	-0.165428
0.0140468 	-0.00140146 	0.000286736 	-0.165428
0.014097 	-0.00127441 	0.000260513 	-0.15965
0.0141472 	-0.00114035 	0.000235038 	-0.153473
0.0141973 	-0.00100005 	0.000210429 	-0.146861
0.0141973 	-0.00100005 	0.000210429 	-0.146861
0.0142475 	-0.000854399 	0.000186939 	-0.139695
0.0142977 	-0.000706732 	0.000164533 	-0.132013
0.0143478 	-0.000560113 	0.000143381 	-0.123792
0.0143478 	-0.000560113 	0.000143381 	-0.123792
0.014398 	-0.000418022 	0.000123612 	-0.115014
0.014398 	-0.000418022 	0.000123612 	-0.115014
0.0144482 	-0.000284305 	0.000105327 	-0.105685
0.0144983 	-0.000162927 	8.85381e-05 	-0.0958581
0.0144983 	-0.000162927 	8.85381e-05 	-0.0958581
0.0145485 	-5.75412e-05 	7.31141e-05 	-0.0856369
0.0145987 	2.88932e-05 	5.89182e-05 	-0.0751784
0.0145987 	2.88932e-05 	5.89182e-05 	-0.0751784
0.0146488 	9.43936e-05 	4.59223e-05 	-0.0646706
0.014699 	0.000138128 	3.41e-05 	-0.0542981
0.014699 	0.000138128 	3.41e-05 	-0.0542981
0.0147492 	0.000160019 	2.34525e-05 	-0.0442065
0.0147993 	0.000159612 	1.41471e-05 	-0.034486
0.0147993 	0.000159612 	1.41471e-05 	-0.034486
0.0148495 	0.000134107 	6.42606e-06 	-0.0251999
0.0148495 	0.000134107 	6.42606e-06 	-0.0251999
0.0148997 	8.40863e-05 	1.43338e-06 	-0.0164072
0.0148997 	8.40863e-05 	1.43338e-06 	-0.0164072
0.0149498 	2.97555e-05 	-5.7402e-07 	-0.00806627
0.0149498 	2.97555e-05 	-5.7402e-07 	-0.00806627
0.015 	0 	0 	0
