/*--------------------------------*- C++ -*----------------------------------*\
| =========                 |                                                 |
| \\      /  F ield         | OpenFOAM: The Open Source CFD Toolbox           |
|  \\    /   O peration     | Version:  v1912                                 |
|   \\  /    A nd           | Website:  www.openfoam.com                      |
|    \\/     M anipulation  |                                                 |
\*---------------------------------------------------------------------------*/
FoamFile
{
    version     2.0;
    format      ascii;
    class       volScalarField;
    location    "198";
    object      nut;
}
// * * * * * * * * * * * * * * * * * * * * * * * * * * * * * * * * * * * * * //

dimensions      [0 2 -1 0 0 0 0];


internalField   nonuniform List<scalar> 
10077
(
1.59565e-05
1.45142e-05
1.28361e-05
1.25197e-05
1.25804e-05
1.25843e-05
1.25574e-05
1.25287e-05
1.25241e-05
1.25317e-05
1.25638e-05
1.25934e-05
1.25922e-05
1.25336e-05
1.28473e-05
1.45143e-05
1.55881e-05
1.42741e-05
1.28482e-05
1.25824e-05
1.26322e-05
1.26136e-05
1.25706e-05
1.25299e-05
1.25228e-05
1.2533e-05
1.25772e-05
1.26228e-05
1.26444e-05
1.25968e-05
1.28604e-05
1.42753e-05
1.52032e-05
1.40248e-05
1.28362e-05
1.2621e-05
1.26628e-05
1.26249e-05
1.25673e-05
1.25165e-05
1.25072e-05
1.25197e-05
1.2574e-05
1.26342e-05
1.26753e-05
1.26357e-05
1.28492e-05
1.40272e-05
1.48084e-05
1.37707e-05
1.28025e-05
1.26362e-05
1.26725e-05
1.26187e-05
1.2548e-05
1.24888e-05
1.24776e-05
1.24921e-05
1.25549e-05
1.26281e-05
1.26851e-05
1.26511e-05
1.28161e-05
1.37742e-05
1.44112e-05
1.35152e-05
1.27493e-05
1.2629e-05
1.26619e-05
1.25956e-05
1.25137e-05
1.24474e-05
1.24347e-05
1.24508e-05
1.25207e-05
1.2605e-05
1.26746e-05
1.26441e-05
1.27633e-05
1.35198e-05
1.40173e-05
1.32614e-05
1.26787e-05
1.26008e-05
1.26319e-05
1.25562e-05
1.2465e-05
1.23929e-05
1.23789e-05
1.23964e-05
1.2472e-05
1.25657e-05
1.26446e-05
1.26161e-05
1.26931e-05
1.3267e-05
1.36316e-05
1.30111e-05
1.25927e-05
1.25532e-05
1.25837e-05
1.25013e-05
1.24028e-05
1.2326e-05
1.23111e-05
1.23295e-05
1.24098e-05
1.25109e-05
1.25964e-05
1.25684e-05
1.26073e-05
1.30177e-05
1.32575e-05
1.27659e-05
1.24934e-05
1.24881e-05
1.25191e-05
1.24317e-05
1.2328e-05
1.22474e-05
1.22319e-05
1.22509e-05
1.23349e-05
1.24414e-05
1.25318e-05
1.25034e-05
1.25079e-05
1.27733e-05
1.28975e-05
1.25265e-05
1.23821e-05
1.2408e-05
1.24402e-05
1.23491e-05
1.22413e-05
1.21578e-05
1.21419e-05
1.21614e-05
1.22483e-05
1.23588e-05
1.24529e-05
1.24232e-05
1.23966e-05
1.25347e-05
1.25529e-05
1.22933e-05
1.22604e-05
1.2314e-05
1.23481e-05
1.22549e-05
1.2144e-05
1.20582e-05
1.20421e-05
1.20618e-05
1.2151e-05
1.22645e-05
1.23606e-05
1.23291e-05
1.22747e-05
1.23021e-05
1.22244e-05
1.20661e-05
1.21292e-05
1.22072e-05
1.22432e-05
1.21496e-05
1.20367e-05
1.19494e-05
1.19332e-05
1.19529e-05
1.20437e-05
1.21592e-05
1.22556e-05
1.22221e-05
1.21434e-05
1.20755e-05
1.19117e-05
1.18446e-05
1.19896e-05
1.20881e-05
1.21262e-05
1.20336e-05
1.19197e-05
1.18314e-05
1.18154e-05
1.1835e-05
1.19266e-05
1.20431e-05
1.21384e-05
1.21028e-05
1.20037e-05
1.18544e-05
1.16142e-05
1.1628e-05
1.18421e-05
1.19576e-05
1.19976e-05
1.19075e-05
1.1793e-05
1.17044e-05
1.16887e-05
1.17079e-05
1.17998e-05
1.19168e-05
1.20096e-05
1.1972e-05
1.1856e-05
1.16382e-05
1.13308e-05
1.14158e-05
1.1687e-05
1.18164e-05
1.18581e-05
1.17715e-05
1.16571e-05
1.15686e-05
1.15534e-05
1.15721e-05
1.16639e-05
1.17806e-05
1.18698e-05
1.18305e-05
1.17009e-05
1.14262e-05
1.10602e-05
1.12071e-05
1.15249e-05
1.16653e-05
1.17084e-05
1.16258e-05
1.15126e-05
1.14244e-05
1.14098e-05
1.14279e-05
1.15192e-05
1.16348e-05
1.172e-05
1.16791e-05
1.15387e-05
1.12178e-05
1.0801e-05
1.10014e-05
1.13561e-05
1.15055e-05
1.15497e-05
1.14711e-05
1.13603e-05
1.12726e-05
1.12587e-05
1.1276e-05
1.13668e-05
1.14799e-05
1.1561e-05
1.1519e-05
1.13699e-05
1.10123e-05
1.05518e-05
1.07981e-05
1.11811e-05
1.13378e-05
1.1383e-05
1.13078e-05
1.1201e-05
1.11142e-05
1.1101e-05
1.11176e-05
1.12074e-05
1.13165e-05
1.1394e-05
1.13509e-05
1.11948e-05
1.0809e-05
1.03113e-05
1.05965e-05
1.1e-05
1.11628e-05
1.12089e-05
1.11368e-05
1.10351e-05
1.09498e-05
1.09374e-05
1.09532e-05
1.10414e-05
1.11453e-05
1.12197e-05
1.11756e-05
1.10138e-05
1.06075e-05
1.00781e-05
1.03963e-05
1.08134e-05
1.09807e-05
1.10277e-05
1.09586e-05
1.08627e-05
1.07798e-05
1.07682e-05
1.07831e-05
1.08689e-05
1.0967e-05
1.10383e-05
1.09933e-05
1.0827e-05
1.04074e-05
9.85113e-06
1.01971e-05
1.06221e-05
1.07918e-05
1.08397e-05
1.07738e-05
1.06841e-05
1.06041e-05
1.05934e-05
1.06073e-05
1.06902e-05
1.0782e-05
1.08501e-05
1.08041e-05
1.06352e-05
1.02081e-05
9.62933e-06
9.99856e-06
1.04265e-05
1.05962e-05
1.0645e-05
1.05827e-05
1.04995e-05
1.04228e-05
1.04131e-05
1.0426e-05
1.05055e-05
1.05907e-05
1.06552e-05
1.06083e-05
1.0439e-05
1.00096e-05
9.4118e-06
9.80059e-06
1.02269e-05
1.03947e-05
1.04441e-05
1.03858e-05
1.0309e-05
1.02361e-05
1.02274e-05
1.02392e-05
1.03148e-05
1.03937e-05
1.0454e-05
1.04064e-05
1.02388e-05
9.81156e-06
9.19781e-06
9.60308e-06
1.00235e-05
1.01884e-05
1.02378e-05
1.01838e-05
1.01124e-05
1.00442e-05
1.00364e-05
1.00473e-05
1.01182e-05
1.01915e-05
1.02475e-05
1.01997e-05
1.0035e-05
9.61401e-06
8.98679e-06
9.40611e-06
9.81672e-06
9.97843e-06
1.00271e-05
9.977e-06
9.91027e-06
9.84739e-06
9.84039e-06
9.85039e-06
9.91589e-06
9.98452e-06
1.00364e-05
9.9893e-06
9.82789e-06
9.41697e-06
8.77834e-06
9.20917e-06
9.60689e-06
9.76511e-06
9.81278e-06
9.76607e-06
9.70325e-06
9.64575e-06
9.63941e-06
9.64869e-06
9.70872e-06
9.7734e-06
9.8218e-06
9.77556e-06
9.61773e-06
9.21986e-06
8.57219e-06
9.0113e-06
9.39444e-06
9.54879e-06
9.59584e-06
9.55155e-06
9.49204e-06
9.43918e-06
9.43349e-06
9.44205e-06
9.49737e-06
9.5587e-06
9.60455e-06
9.55885e-06
9.40495e-06
9.02173e-06
8.36783e-06
8.81117e-06
9.17887e-06
9.32897e-06
9.37565e-06
9.3331e-06
9.27639e-06
9.22754e-06
9.22249e-06
9.23034e-06
9.28159e-06
9.34006e-06
9.38406e-06
9.33866e-06
9.18907e-06
8.8213e-06
8.16474e-06
8.60773e-06
8.9593e-06
9.10481e-06
9.14716e-06
9.10997e-06
9.05566e-06
9.01025e-06
9.00584e-06
9.01298e-06
9.06072e-06
9.11674e-06
9.15466e-06
9.11416e-06
8.9692e-06
8.61754e-06
7.96258e-06
8.40054e-06
8.72826e-06
8.83667e-06
8.86598e-06
8.84927e-06
8.81883e-06
8.78685e-06
8.78307e-06
8.78951e-06
8.82342e-06
8.85545e-06
8.87308e-06
8.84483e-06
8.73678e-06
8.41001e-06
7.76078e-06
8.18924e-06
8.4342e-06
8.53959e-06
8.56925e-06
8.5513e-06
8.52214e-06
8.49733e-06
8.4923e-06
8.49978e-06
8.52654e-06
8.55718e-06
8.5761e-06
8.54733e-06
8.44238e-06
8.19829e-06
7.55829e-06
7.94387e-06
8.1238e-06
8.23473e-06
8.2681e-06
8.24344e-06
8.20911e-06
8.18241e-06
8.17756e-06
8.18475e-06
8.21338e-06
8.24909e-06
8.27472e-06
8.24229e-06
8.13192e-06
7.94993e-06
7.35486e-06
7.61833e-06
7.81282e-06
7.92784e-06
7.96478e-06
7.93396e-06
7.89471e-06
7.86493e-06
7.86085e-06
7.86719e-06
7.89883e-06
7.93937e-06
7.97114e-06
7.93523e-06
7.82087e-06
7.62388e-06
7.09989e-06
7.28584e-06
7.5057e-06
7.62061e-06
7.65967e-06
7.62519e-06
7.58331e-06
7.55171e-06
7.54853e-06
7.55388e-06
7.58727e-06
7.63037e-06
7.66574e-06
7.62776e-06
7.51356e-06
7.29153e-06
6.77943e-06
6.96928e-06
7.20337e-06
7.31438e-06
7.35399e-06
7.3183e-06
7.27611e-06
7.24447e-06
7.24212e-06
7.24654e-06
7.27989e-06
7.32324e-06
7.35976e-06
7.32123e-06
7.21095e-06
6.97509e-06
6.4634e-06
6.67137e-06
6.90606e-06
7.01072e-06
7.04965e-06
7.01452e-06
6.97368e-06
6.94338e-06
6.94172e-06
6.94535e-06
6.97728e-06
7.01921e-06
7.05511e-06
7.01723e-06
6.91328e-06
6.67716e-06
6.16938e-06
6.38854e-06
6.61389e-06
6.71107e-06
6.74851e-06
6.71496e-06
6.67649e-06
6.6483e-06
6.64723e-06
6.65017e-06
6.6799e-06
6.71942e-06
6.75367e-06
6.71722e-06
6.62073e-06
6.39414e-06
5.89679e-06
6.11668e-06
6.32711e-06
6.41664e-06
6.45208e-06
6.42068e-06
6.38507e-06
6.35929e-06
6.35868e-06
6.36104e-06
6.38829e-06
6.42489e-06
6.45695e-06
6.42244e-06
6.33354e-06
6.122e-06
5.64083e-06
5.85313e-06
6.0462e-06
6.12853e-06
6.16164e-06
6.13266e-06
6.10012e-06
6.07672e-06
6.0765e-06
6.07837e-06
6.10315e-06
6.13663e-06
6.16624e-06
6.13398e-06
6.05222e-06
5.85811e-06
5.39716e-06
5.5968e-06
5.77205e-06
5.84788e-06
5.87848e-06
5.85205e-06
5.82261e-06
5.80145e-06
5.80152e-06
5.803e-06
5.82546e-06
5.85579e-06
5.88281e-06
5.853e-06
5.77767e-06
5.60144e-06
5.16304e-06
5.34762e-06
5.50575e-06
5.5759e-06
5.60391e-06
5.58006e-06
5.55365e-06
5.53449e-06
5.5348e-06
5.53594e-06
5.55631e-06
5.58357e-06
5.60798e-06
5.58069e-06
5.51097e-06
5.3519e-06
4.93715e-06
5.10601e-06
5.24829e-06
5.31357e-06
5.33901e-06
5.31768e-06
5.29412e-06
5.27674e-06
5.27721e-06
5.27809e-06
5.29659e-06
5.32096e-06
5.34283e-06
5.31805e-06
5.25314e-06
5.10995e-06
4.71899e-06
4.87257e-06
5.00048e-06
5.06153e-06
5.08456e-06
5.06559e-06
5.04463e-06
5.02885e-06
5.02943e-06
5.0301e-06
5.04693e-06
5.06865e-06
5.08814e-06
5.06572e-06
5.00497e-06
4.87618e-06
4.50828e-06
4.64762e-06
4.76263e-06
4.8199e-06
4.84073e-06
4.82389e-06
4.80526e-06
4.79094e-06
4.7916e-06
4.7921e-06
4.8074e-06
4.82675e-06
4.84409e-06
4.82381e-06
4.76681e-06
4.65094e-06
4.30451e-06
4.43092e-06
4.53437e-06
4.58806e-06
4.60696e-06
4.59198e-06
4.57541e-06
4.56246e-06
4.56317e-06
4.56354e-06
4.57739e-06
4.59465e-06
4.61011e-06
4.59171e-06
4.53824e-06
4.43397e-06
4.10682e-06
4.22157e-06
4.31459e-06
4.36476e-06
4.38199e-06
4.36863e-06
4.35385e-06
4.34222e-06
4.34298e-06
4.34322e-06
4.3557e-06
4.37112e-06
4.38495e-06
4.36818e-06
4.31818e-06
4.22438e-06
3.91406e-06
4.01826e-06
4.10176e-06
4.14846e-06
4.16423e-06
4.15226e-06
4.13908e-06
4.12871e-06
4.12953e-06
4.12965e-06
4.14079e-06
4.15459e-06
4.16701e-06
4.15166e-06
4.1051e-06
4.02085e-06
3.72508e-06
3.81961e-06
3.89435e-06
3.93762e-06
3.95209e-06
3.94135e-06
3.92961e-06
3.92047e-06
3.92132e-06
3.92134e-06
3.93121e-06
3.94353e-06
3.95471e-06
3.94062e-06
3.89746e-06
3.82199e-06
3.53882e-06
3.62438e-06
3.69103e-06
3.73096e-06
3.74426e-06
3.73462e-06
3.7242e-06
3.71622e-06
3.7171e-06
3.71703e-06
3.72569e-06
3.73667e-06
3.74672e-06
3.73378e-06
3.69392e-06
3.62658e-06
3.35446e-06
3.43162e-06
3.49076e-06
3.52746e-06
3.53967e-06
3.53105e-06
3.52185e-06
3.51497e-06
3.51587e-06
3.51573e-06
3.52325e-06
3.53298e-06
3.542e-06
3.53012e-06
3.49345e-06
3.43365e-06
3.17136e-06
3.24061e-06
3.29277e-06
3.32636e-06
3.33753e-06
3.32987e-06
3.32181e-06
3.31594e-06
3.31686e-06
3.31665e-06
3.32312e-06
3.33168e-06
3.33973e-06
3.32886e-06
3.29527e-06
3.24248e-06
2.98904e-06
3.05083e-06
3.09648e-06
3.12709e-06
3.13727e-06
3.1305e-06
3.12351e-06
3.11859e-06
3.11951e-06
3.11925e-06
3.12474e-06
3.13221e-06
3.13935e-06
3.12944e-06
3.0988e-06
3.05254e-06
2.8072e-06
2.86192e-06
2.90151e-06
2.92926e-06
2.93847e-06
2.93255e-06
2.92657e-06
2.9225e-06
2.92342e-06
2.92312e-06
2.92772e-06
2.93416e-06
2.94043e-06
2.93147e-06
2.90366e-06
2.86349e-06
2.62552e-06
2.67357e-06
2.70752e-06
2.73254e-06
2.7408e-06
2.73569e-06
2.73064e-06
2.72736e-06
2.72828e-06
2.72794e-06
2.73173e-06
2.73721e-06
2.74265e-06
2.73461e-06
2.7095e-06
2.675e-06
2.44322e-06
2.48509e-06
2.51382e-06
2.53628e-06
2.54362e-06
2.53926e-06
2.53509e-06
2.53251e-06
2.53343e-06
2.53305e-06
2.53612e-06
2.5407e-06
2.54538e-06
2.53823e-06
2.51565e-06
2.48639e-06
2.25711e-06
2.29364e-06
2.31769e-06
2.338e-06
2.34447e-06
2.34076e-06
2.33738e-06
2.3354e-06
2.33634e-06
2.33593e-06
2.33837e-06
2.34216e-06
2.34618e-06
2.33987e-06
2.31942e-06
2.29484e-06
2.06786e-06
2.09925e-06
2.11916e-06
2.13739e-06
2.14303e-06
2.13998e-06
2.13731e-06
2.13584e-06
2.13676e-06
2.13633e-06
2.13824e-06
2.14129e-06
2.14464e-06
2.13912e-06
2.12073e-06
2.10033e-06
1.88156e-06
1.9081e-06
1.92423e-06
1.94042e-06
1.94527e-06
1.94284e-06
1.94082e-06
1.93979e-06
1.94067e-06
1.94025e-06
1.94168e-06
1.94406e-06
1.94676e-06
1.94202e-06
1.92566e-06
1.90907e-06
1.69908e-06
1.72109e-06
1.73377e-06
1.748e-06
1.75208e-06
1.75022e-06
1.74878e-06
1.74814e-06
1.74897e-06
1.74856e-06
1.74958e-06
1.75134e-06
1.75346e-06
1.74946e-06
1.73506e-06
1.72194e-06
1.52062e-06
1.53843e-06
1.54801e-06
1.56037e-06
1.56373e-06
1.56238e-06
1.56147e-06
1.56115e-06
1.56194e-06
1.56154e-06
1.5622e-06
1.56342e-06
1.565e-06
1.56171e-06
1.54916e-06
1.53918e-06
1.34663e-06
1.36063e-06
1.36749e-06
1.37811e-06
1.38079e-06
1.37989e-06
1.37944e-06
1.37939e-06
1.38012e-06
1.37974e-06
1.38011e-06
1.38085e-06
1.38195e-06
1.37931e-06
1.3685e-06
1.36127e-06
1.17799e-06
1.18856e-06
1.19307e-06
1.20209e-06
1.20415e-06
1.20366e-06
1.20359e-06
1.20375e-06
1.20442e-06
1.20406e-06
1.2042e-06
1.20452e-06
1.20521e-06
1.20317e-06
1.19396e-06
1.18911e-06
1.01578e-06
1.0233e-06
1.0258e-06
1.03336e-06
1.03485e-06
1.0347e-06
1.03496e-06
1.03527e-06
1.03589e-06
1.03556e-06
1.0355e-06
1.03548e-06
1.0358e-06
1.03431e-06
1.02656e-06
1.02376e-06
8.61072e-07
8.65508e-07
8.66004e-07
8.7219e-07
8.73092e-07
8.73305e-07
8.739e-07
8.74361e-07
8.74912e-07
8.74613e-07
8.74383e-07
8.73994e-07
8.73928e-07
8.73017e-07
8.66655e-07
8.65877e-07
7.13311e-07
7.11488e-07
7.07334e-07
7.11847e-07
7.114e-07
7.12564e-07
7.14138e-07
7.15019e-07
7.15542e-07
7.15252e-07
7.14587e-07
7.1321e-07
7.1218e-07
7.12579e-07
7.07856e-07
7.11731e-07
5.55793e-07
5.5245e-07
5.4779e-07
5.51272e-07
5.50574e-07
5.51801e-07
5.53384e-07
5.54233e-07
5.54671e-07
5.54429e-07
5.53759e-07
5.52343e-07
5.51228e-07
5.51876e-07
5.48207e-07
5.52627e-07
4.13313e-07
4.09419e-07
4.04839e-07
4.07436e-07
4.06663e-07
4.07818e-07
4.09277e-07
4.10038e-07
4.10388e-07
4.10195e-07
4.09577e-07
4.08253e-07
4.07189e-07
4.07914e-07
4.05159e-07
4.09541e-07
2.90315e-07
2.8654e-07
2.82518e-07
2.84381e-07
2.83674e-07
2.84661e-07
2.85886e-07
2.86502e-07
2.86768e-07
2.86622e-07
2.86113e-07
2.84991e-07
2.84074e-07
2.84742e-07
2.82751e-07
2.8662e-07
1.90291e-07
1.87135e-07
1.8398e-07
1.85254e-07
1.84689e-07
1.85455e-07
1.86389e-07
1.86844e-07
1.8703e-07
1.86928e-07
1.86549e-07
1.85689e-07
1.84972e-07
1.85508e-07
1.8414e-07
1.87184e-07
1.14933e-07
1.12649e-07
1.10464e-07
1.11274e-07
1.10878e-07
1.1141e-07
1.12049e-07
1.12353e-07
1.12472e-07
1.12407e-07
1.12152e-07
1.11561e-07
1.11061e-07
1.11437e-07
1.10565e-07
1.12677e-07
6.32152e-08
6.17918e-08
6.04709e-08
6.09395e-08
6.06994e-08
6.1025e-08
6.1411e-08
6.15913e-08
6.16605e-08
6.16228e-08
6.14706e-08
6.11123e-08
6.08057e-08
6.10339e-08
6.05289e-08
6.18063e-08
3.13355e-08
3.0577e-08
2.98857e-08
3.01276e-08
3.00033e-08
3.01761e-08
3.03794e-08
3.04736e-08
3.05091e-08
3.04898e-08
3.04101e-08
3.02211e-08
3.0058e-08
3.01761e-08
2.99153e-08
3.05841e-08
1.38496e-08
1.35062e-08
1.31958e-08
1.33058e-08
1.32513e-08
1.33303e-08
1.34225e-08
1.34653e-08
1.34813e-08
1.34726e-08
1.34364e-08
1.33506e-08
1.3276e-08
1.33277e-08
1.32091e-08
1.35094e-08
5.37159e-09
5.24047e-09
5.122e-09
5.16551e-09
5.14544e-09
5.17618e-09
5.21194e-09
5.22859e-09
5.23489e-09
5.23147e-09
5.2174e-09
5.18415e-09
5.1551e-09
5.17409e-09
5.12725e-09
5.24176e-09
1.77521e-09
1.73383e-09
1.69623e-09
1.71078e-09
1.70472e-09
1.71471e-09
1.72629e-09
1.73173e-09
1.73383e-09
1.73269e-09
1.72811e-09
1.71736e-09
1.70792e-09
1.71363e-09
1.69798e-09
1.73429e-09
4.73116e-10
4.62819e-10
4.53359e-10
4.57268e-10
4.55841e-10
4.58422e-10
4.61405e-10
4.62824e-10
4.63388e-10
4.63081e-10
4.61892e-10
4.59127e-10
4.56691e-10
4.58025e-10
4.53831e-10
4.62949e-10
9.17503e-11
8.99157e-11
8.8205e-11
8.8967e-11
8.87306e-11
8.92117e-11
8.97667e-11
9.00347e-11
9.01445e-11
9.00845e-11
8.98614e-11
8.93485e-11
8.88947e-11
8.91135e-11
8.82972e-11
8.99428e-11
1.06604e-11
1.04649e-11
1.028e-11
1.03685e-11
1.03456e-11
1.03994e-11
1.04614e-11
1.04916e-11
1.05044e-11
1.04974e-11
1.04723e-11
1.04153e-11
1.03645e-11
1.03854e-11
1.02908e-11
1.04682e-11
6.65874e-13
6.51436e-13
6.38709e-13
6.43603e-13
6.41923e-13
6.45766e-13
6.50015e-13
6.51988e-13
6.52714e-13
6.52327e-13
6.5066e-13
6.46702e-13
6.43044e-13
6.44587e-13
6.39307e-13
6.51578e-13
2.60838e-13
2.52402e-13
2.45715e-13
2.47107e-13
2.46009e-13
2.48022e-13
2.50142e-13
2.51027e-13
2.5125e-13
2.51142e-13
2.50361e-13
2.48348e-13
2.46405e-13
2.47439e-13
2.45888e-13
2.52392e-13
1.20411e-05
1.2779e-05
1.33917e-05
1.31647e-05
1.28819e-05
1.27311e-05
1.2688e-05
1.26797e-05
1.26792e-05
1.26836e-05
1.26951e-05
1.27393e-05
1.2889e-05
1.31688e-05
1.33921e-05
1.27787e-05
1.23998e-05
1.2955e-05
1.33551e-05
1.31229e-05
1.28676e-05
1.27577e-05
1.2737e-05
1.27434e-05
1.27456e-05
1.27472e-05
1.27438e-05
1.27656e-05
1.28743e-05
1.31266e-05
1.33547e-05
1.29536e-05
1.27133e-05
1.30971e-05
1.33067e-05
1.3068e-05
1.28375e-05
1.27637e-05
1.27628e-05
1.27821e-05
1.27867e-05
1.27857e-05
1.27693e-05
1.27713e-05
1.2844e-05
1.30713e-05
1.33056e-05
1.30948e-05
1.29774e-05
1.32048e-05
1.3247e-05
1.30019e-05
1.27937e-05
1.27511e-05
1.27674e-05
1.27976e-05
1.28042e-05
1.2801e-05
1.27735e-05
1.27584e-05
1.28e-05
1.30049e-05
1.32453e-05
1.32017e-05
1.31911e-05
1.32784e-05
1.31762e-05
1.2926e-05
1.27376e-05
1.27216e-05
1.27524e-05
1.27918e-05
1.28001e-05
1.27951e-05
1.27583e-05
1.27287e-05
1.27439e-05
1.29288e-05
1.31741e-05
1.32746e-05
1.33552e-05
1.33188e-05
1.30951e-05
1.28415e-05
1.26708e-05
1.26769e-05
1.27196e-05
1.27664e-05
1.27761e-05
1.27696e-05
1.27253e-05
1.26838e-05
1.26769e-05
1.28441e-05
1.30926e-05
1.33144e-05
1.34714e-05
1.33276e-05
1.30039e-05
1.27492e-05
1.25941e-05
1.26184e-05
1.26705e-05
1.27231e-05
1.27338e-05
1.27261e-05
1.26761e-05
1.26252e-05
1.26002e-05
1.27517e-05
1.30012e-05
1.33227e-05
1.35423e-05
1.33068e-05
1.29032e-05
1.26497e-05
1.25085e-05
1.2548e-05
1.26072e-05
1.2664e-05
1.26754e-05
1.2667e-05
1.26126e-05
1.25547e-05
1.25146e-05
1.26522e-05
1.29003e-05
1.33014e-05
1.3571e-05
1.32589e-05
1.27927e-05
1.25441e-05
1.24158e-05
1.24672e-05
1.25321e-05
1.25919e-05
1.26037e-05
1.25948e-05
1.25374e-05
1.24738e-05
1.24218e-05
1.25465e-05
1.27906e-05
1.32532e-05
1.3561e-05
1.31868e-05
1.26737e-05
1.24334e-05
1.23171e-05
1.23774e-05
1.24466e-05
1.25084e-05
1.25204e-05
1.25113e-05
1.24519e-05
1.2384e-05
1.23231e-05
1.24357e-05
1.26722e-05
1.3181e-05
1.35162e-05
1.30932e-05
1.25472e-05
1.23179e-05
1.22127e-05
1.2279e-05
1.23513e-05
1.24142e-05
1.24262e-05
1.24171e-05
1.23565e-05
1.22856e-05
1.22186e-05
1.23203e-05
1.25462e-05
1.30872e-05
1.34404e-05
1.29801e-05
1.24136e-05
1.21974e-05
1.21021e-05
1.21719e-05
1.22462e-05
1.23097e-05
1.23216e-05
1.23125e-05
1.22514e-05
1.21784e-05
1.21081e-05
1.21998e-05
1.2413e-05
1.2974e-05
1.3337e-05
1.28494e-05
1.22727e-05
1.20716e-05
1.19852e-05
1.20557e-05
1.21315e-05
1.21949e-05
1.22065e-05
1.21977e-05
1.21366e-05
1.20622e-05
1.1991e-05
1.20739e-05
1.22725e-05
1.28433e-05
1.32091e-05
1.27028e-05
1.21246e-05
1.19397e-05
1.18616e-05
1.19304e-05
1.20069e-05
1.207e-05
1.20811e-05
1.20727e-05
1.2012e-05
1.19369e-05
1.18674e-05
1.19421e-05
1.21247e-05
1.26968e-05
1.30596e-05
1.2542e-05
1.19691e-05
1.18007e-05
1.17306e-05
1.17961e-05
1.18725e-05
1.1935e-05
1.19457e-05
1.19377e-05
1.18776e-05
1.18026e-05
1.17364e-05
1.18034e-05
1.19695e-05
1.25361e-05
1.28912e-05
1.23684e-05
1.18062e-05
1.16535e-05
1.15919e-05
1.16531e-05
1.17284e-05
1.17902e-05
1.18003e-05
1.17929e-05
1.17334e-05
1.16596e-05
1.15977e-05
1.16566e-05
1.18069e-05
1.23626e-05
1.27064e-05
1.21834e-05
1.16361e-05
1.14984e-05
1.1445e-05
1.1502e-05
1.15751e-05
1.16358e-05
1.16454e-05
1.16385e-05
1.158e-05
1.15084e-05
1.1451e-05
1.15018e-05
1.16371e-05
1.21778e-05
1.25074e-05
1.19883e-05
1.14592e-05
1.13355e-05
1.12895e-05
1.1343e-05
1.1413e-05
1.14722e-05
1.14812e-05
1.14748e-05
1.14179e-05
1.13494e-05
1.12956e-05
1.13393e-05
1.14604e-05
1.19829e-05
1.22963e-05
1.17845e-05
1.12759e-05
1.11654e-05
1.11259e-05
1.11765e-05
1.12429e-05
1.13e-05
1.13083e-05
1.13026e-05
1.12477e-05
1.11829e-05
1.11322e-05
1.11695e-05
1.12772e-05
1.17792e-05
1.2075e-05
1.15729e-05
1.10867e-05
1.09885e-05
1.09549e-05
1.10033e-05
1.10654e-05
1.11202e-05
1.11277e-05
1.11228e-05
1.10701e-05
1.10096e-05
1.09612e-05
1.09928e-05
1.10881e-05
1.15679e-05
1.18452e-05
1.13545e-05
1.08924e-05
1.08057e-05
1.07773e-05
1.08239e-05
1.08815e-05
1.09337e-05
1.09404e-05
1.09362e-05
1.08862e-05
1.08301e-05
1.07836e-05
1.08101e-05
1.08938e-05
1.13497e-05
1.15756e-05
1.11301e-05
1.06933e-05
1.06173e-05
1.05936e-05
1.06389e-05
1.0692e-05
1.07413e-05
1.07473e-05
1.07438e-05
1.06966e-05
1.0645e-05
1.05999e-05
1.06219e-05
1.06948e-05
1.11254e-05
1.1167e-05
1.08999e-05
1.04898e-05
1.0424e-05
1.04043e-05
1.04486e-05
1.04977e-05
1.05436e-05
1.05488e-05
1.0546e-05
1.05023e-05
1.04546e-05
1.04106e-05
1.04286e-05
1.04913e-05
1.08954e-05
1.07542e-05
1.06641e-05
1.02824e-05
1.02261e-05
1.021e-05
1.02535e-05
1.02992e-05
1.03411e-05
1.03456e-05
1.03435e-05
1.03037e-05
1.02594e-05
1.02163e-05
1.02307e-05
1.02839e-05
1.06597e-05
1.03834e-05
1.03264e-05
1.00714e-05
1.00241e-05
1.00112e-05
1.0054e-05
1.00968e-05
1.01346e-05
1.01385e-05
1.01369e-05
1.01012e-05
1.00598e-05
1.00174e-05
1.00287e-05
1.0073e-05
1.03273e-05
1.00617e-05
9.98377e-06
9.85733e-06
9.81856e-06
9.80845e-06
9.85059e-06
9.89071e-06
9.92256e-06
9.92855e-06
9.92506e-06
9.89502e-06
9.85628e-06
9.8145e-06
9.8231e-06
9.85893e-06
9.98551e-06
9.77883e-06
9.67057e-06
9.62469e-06
9.6089e-06
9.60125e-06
9.62857e-06
9.64833e-06
9.65495e-06
9.66123e-06
9.65741e-06
9.65271e-06
9.63435e-06
9.60717e-06
9.61337e-06
9.62802e-06
9.67207e-06
9.51997e-06
9.38746e-06
9.34246e-06
9.34173e-06
9.33711e-06
9.35771e-06
9.37528e-06
9.3801e-06
9.38547e-06
9.38243e-06
9.37949e-06
9.36323e-06
9.34306e-06
9.34686e-06
9.34591e-06
9.38838e-06
9.27104e-06
9.12297e-06
9.05112e-06
9.05133e-06
9.04922e-06
9.07594e-06
9.09752e-06
9.10743e-06
9.11156e-06
9.10962e-06
9.10147e-06
9.08109e-06
9.05482e-06
9.0562e-06
9.05405e-06
9.12331e-06
9.02081e-06
8.86239e-06
8.7595e-06
8.75859e-06
8.75881e-06
8.79247e-06
8.81831e-06
8.83423e-06
8.83708e-06
8.83629e-06
8.82202e-06
8.79728e-06
8.76399e-06
8.76294e-06
8.7618e-06
8.86221e-06
8.76096e-06
8.5931e-06
8.46737e-06
8.46673e-06
8.46921e-06
8.50766e-06
8.5358e-06
8.55608e-06
8.55775e-06
8.55803e-06
8.5393e-06
8.51216e-06
8.47401e-06
8.4706e-06
8.46916e-06
8.5925e-06
8.48577e-06
8.30918e-06
8.17386e-06
8.17536e-06
8.17982e-06
8.22025e-06
8.2486e-06
8.27105e-06
8.27174e-06
8.2729e-06
8.25193e-06
8.22451e-06
8.18433e-06
8.17889e-06
8.17532e-06
8.30832e-06
8.19353e-06
8.01171e-06
7.87861e-06
7.8834e-06
7.88938e-06
7.92969e-06
7.95681e-06
7.97975e-06
7.97966e-06
7.98151e-06
7.95999e-06
7.93374e-06
7.89365e-06
7.88669e-06
7.87989e-06
8.01076e-06
7.88627e-06
7.70521e-06
7.58174e-06
7.59008e-06
7.59709e-06
7.63606e-06
7.66126e-06
7.6837e-06
7.68298e-06
7.68538e-06
7.66429e-06
7.63993e-06
7.60117e-06
7.59322e-06
7.58293e-06
7.70429e-06
7.56894e-06
7.39453e-06
7.28386e-06
7.29542e-06
7.30297e-06
7.34004e-06
7.36316e-06
7.38462e-06
7.38342e-06
7.38622e-06
7.36606e-06
7.34374e-06
7.30688e-06
7.29845e-06
7.28503e-06
7.39371e-06
7.24737e-06
7.0836e-06
6.98602e-06
7.00016e-06
7.00787e-06
7.04288e-06
7.06404e-06
7.08434e-06
7.08278e-06
7.08586e-06
7.06679e-06
7.04641e-06
7.01163e-06
7.0031e-06
6.98719e-06
7.08292e-06
6.92657e-06
6.77541e-06
6.68969e-06
6.70571e-06
6.7133e-06
6.74625e-06
6.7657e-06
6.7848e-06
6.78298e-06
6.78623e-06
6.76832e-06
6.74962e-06
6.71692e-06
6.70858e-06
6.69088e-06
6.77485e-06
6.61039e-06
6.4723e-06
6.39669e-06
6.41398e-06
6.42123e-06
6.45223e-06
6.47024e-06
6.4881e-06
6.48614e-06
6.48945e-06
6.47272e-06
6.45545e-06
6.42471e-06
6.41677e-06
6.39791e-06
6.47186e-06
6.30171e-06
6.17637e-06
6.10914e-06
6.12717e-06
6.13396e-06
6.16313e-06
6.17993e-06
6.19654e-06
6.19454e-06
6.19781e-06
6.18227e-06
6.16619e-06
6.1373e-06
6.12988e-06
6.11037e-06
6.17604e-06
6.00284e-06
5.88956e-06
5.82924e-06
5.84762e-06
5.85388e-06
5.88134e-06
5.89711e-06
5.91248e-06
5.91051e-06
5.91366e-06
5.8993e-06
5.88424e-06
5.85707e-06
5.85024e-06
5.83048e-06
5.88931e-06
5.71542e-06
5.61336e-06
5.55886e-06
5.57731e-06
5.58303e-06
5.6089e-06
5.62376e-06
5.63791e-06
5.63602e-06
5.63901e-06
5.62581e-06
5.61162e-06
5.58607e-06
5.57983e-06
5.5601e-06
5.61318e-06
5.44023e-06
5.34841e-06
5.29903e-06
5.31737e-06
5.32259e-06
5.34695e-06
5.36098e-06
5.37399e-06
5.3722e-06
5.37501e-06
5.36289e-06
5.34952e-06
5.32548e-06
5.31979e-06
5.30026e-06
5.34829e-06
5.17693e-06
5.09433e-06
5.04975e-06
5.06786e-06
5.07265e-06
5.09558e-06
5.1088e-06
5.12077e-06
5.11906e-06
5.12171e-06
5.11057e-06
5.098e-06
5.0754e-06
5.07017e-06
5.05097e-06
5.09427e-06
4.92421e-06
4.84985e-06
4.80996e-06
4.82776e-06
4.83225e-06
4.85377e-06
4.86615e-06
4.87722e-06
4.87556e-06
4.87809e-06
4.86781e-06
4.85605e-06
4.83486e-06
4.82998e-06
4.81117e-06
4.84985e-06
4.68016e-06
4.61319e-06
4.57796e-06
4.59539e-06
4.59968e-06
4.6198e-06
4.63133e-06
4.64159e-06
4.63996e-06
4.6424e-06
4.63289e-06
4.62195e-06
4.60217e-06
4.59753e-06
4.57918e-06
4.61324e-06
4.44288e-06
4.38256e-06
4.35193e-06
4.36891e-06
4.37308e-06
4.39181e-06
4.40249e-06
4.41202e-06
4.41041e-06
4.41278e-06
4.40395e-06
4.39386e-06
4.37546e-06
4.37098e-06
4.35314e-06
4.38265e-06
4.21074e-06
4.15647e-06
4.13027e-06
4.14674e-06
4.15084e-06
4.16821e-06
4.17803e-06
4.1869e-06
4.1853e-06
4.18761e-06
4.17942e-06
4.17015e-06
4.15313e-06
4.14874e-06
4.13149e-06
4.15661e-06
3.98255e-06
3.93381e-06
3.91179e-06
3.92767e-06
3.93174e-06
3.94778e-06
3.95677e-06
3.965e-06
3.96344e-06
3.96567e-06
3.95809e-06
3.94963e-06
3.93394e-06
3.92962e-06
3.91301e-06
3.934e-06
3.75743e-06
3.71379e-06
3.69564e-06
3.71088e-06
3.71494e-06
3.72967e-06
3.73788e-06
3.7455e-06
3.74397e-06
3.74613e-06
3.73913e-06
3.73145e-06
3.71705e-06
3.71277e-06
3.69685e-06
3.71402e-06
3.53482e-06
3.49589e-06
3.48127e-06
3.49585e-06
3.4999e-06
3.51338e-06
3.52084e-06
3.52785e-06
3.52637e-06
3.52845e-06
3.52204e-06
3.51507e-06
3.50193e-06
3.49768e-06
3.48249e-06
3.49616e-06
3.31438e-06
3.27982e-06
3.26841e-06
3.2823e-06
3.28634e-06
3.29861e-06
3.30538e-06
3.31179e-06
3.31038e-06
3.31236e-06
3.30652e-06
3.30024e-06
3.28829e-06
3.28408e-06
3.26962e-06
3.28012e-06
3.09597e-06
3.06547e-06
3.05696e-06
3.07016e-06
3.07419e-06
3.08531e-06
3.09143e-06
3.09725e-06
3.09592e-06
3.09778e-06
3.09251e-06
3.08687e-06
3.07607e-06
3.07188e-06
3.05816e-06
3.0658e-06
2.87956e-06
2.85286e-06
2.84695e-06
2.85948e-06
2.86351e-06
2.87354e-06
2.87905e-06
2.88428e-06
2.88304e-06
2.88479e-06
2.88008e-06
2.87503e-06
2.86531e-06
2.86115e-06
2.84814e-06
2.85321e-06
2.66504e-06
2.64186e-06
2.63831e-06
2.65025e-06
2.65429e-06
2.6633e-06
2.66826e-06
2.67291e-06
2.67177e-06
2.67339e-06
2.66924e-06
2.66474e-06
2.65602e-06
2.65187e-06
2.63949e-06
2.64224e-06
2.45137e-06
2.43131e-06
2.43001e-06
2.44161e-06
2.44574e-06
2.45389e-06
2.45836e-06
2.46246e-06
2.46143e-06
2.46291e-06
2.45931e-06
2.45529e-06
2.44744e-06
2.44321e-06
2.4312e-06
2.43172e-06
2.23576e-06
2.21869e-06
2.21904e-06
2.23001e-06
2.23408e-06
2.24133e-06
2.24536e-06
2.24895e-06
2.24802e-06
2.24939e-06
2.24627e-06
2.24266e-06
2.2357e-06
2.23154e-06
2.2202e-06
2.2191e-06
2.02479e-06
2.01051e-06
2.01224e-06
2.02254e-06
2.02654e-06
2.03292e-06
2.0365e-06
2.03958e-06
2.03876e-06
2.03999e-06
2.03736e-06
2.03417e-06
2.02806e-06
2.024e-06
2.01336e-06
2.01092e-06
1.8196e-06
1.8079e-06
1.81081e-06
1.82044e-06
1.82433e-06
1.82991e-06
1.83306e-06
1.83566e-06
1.83496e-06
1.83605e-06
1.83387e-06
1.83108e-06
1.82576e-06
1.82181e-06
1.81188e-06
1.80831e-06
1.62051e-06
1.6112e-06
1.61506e-06
1.62402e-06
1.62777e-06
1.63261e-06
1.63538e-06
1.63753e-06
1.63694e-06
1.63788e-06
1.63613e-06
1.6337e-06
1.6291e-06
1.6253e-06
1.61609e-06
1.6116e-06
1.42808e-06
1.42095e-06
1.42554e-06
1.43379e-06
1.43737e-06
1.44153e-06
1.44395e-06
1.44569e-06
1.44522e-06
1.44602e-06
1.44464e-06
1.44253e-06
1.4386e-06
1.43498e-06
1.4265e-06
1.42134e-06
1.24315e-06
1.23799e-06
1.24305e-06
1.25057e-06
1.25394e-06
1.25748e-06
1.25959e-06
1.26097e-06
1.2606e-06
1.26127e-06
1.26022e-06
1.2584e-06
1.25506e-06
1.25167e-06
1.24395e-06
1.23836e-06
1.06662e-06
1.06323e-06
1.06857e-06
1.07534e-06
1.07847e-06
1.08145e-06
1.08326e-06
1.08432e-06
1.08405e-06
1.08459e-06
1.08383e-06
1.08227e-06
1.07948e-06
1.07634e-06
1.06939e-06
1.06358e-06
8.98392e-07
8.96883e-07
9.02512e-07
9.08619e-07
9.11544e-07
9.13977e-07
9.15518e-07
9.16248e-07
9.16078e-07
9.16487e-07
9.16024e-07
9.14723e-07
9.12457e-07
9.09519e-07
9.03271e-07
8.97223e-07
7.29561e-07
7.32568e-07
7.40183e-07
7.46397e-07
7.49646e-07
7.51329e-07
7.52541e-07
7.52607e-07
7.52633e-07
7.52832e-07
7.5302e-07
7.52046e-07
7.50535e-07
7.47296e-07
7.40979e-07
7.32959e-07
5.64042e-07
5.67679e-07
5.744e-07
5.79627e-07
5.82403e-07
5.83725e-07
5.84716e-07
5.84659e-07
5.84723e-07
5.84848e-07
5.8512e-07
5.84333e-07
5.83157e-07
5.80392e-07
5.7508e-07
5.68027e-07
4.1622e-07
4.1997e-07
4.25552e-07
4.2978e-07
4.32052e-07
4.33056e-07
4.33836e-07
4.33709e-07
4.33791e-07
4.33862e-07
4.34163e-07
4.3355e-07
4.32666e-07
4.30404e-07
4.26109e-07
4.20264e-07
2.90073e-07
2.9346e-07
2.97816e-07
3.01059e-07
3.02819e-07
3.03547e-07
3.0413e-07
3.03979e-07
3.04061e-07
3.04095e-07
3.0438e-07
3.03926e-07
3.0329e-07
3.0154e-07
2.98246e-07
2.93691e-07
1.88686e-07
1.9139e-07
1.94536e-07
1.96854e-07
1.98122e-07
1.98619e-07
1.99026e-07
1.98887e-07
1.98957e-07
1.9897e-07
1.99204e-07
1.9889e-07
1.98459e-07
1.97198e-07
1.94845e-07
1.91558e-07
1.13185e-07
1.15086e-07
1.17151e-07
1.18665e-07
1.19499e-07
1.19813e-07
1.20075e-07
1.19969e-07
1.2002e-07
1.20023e-07
1.2019e-07
1.1999e-07
1.19719e-07
1.1889e-07
1.17353e-07
1.15197e-07
6.19234e-08
6.30887e-08
6.42997e-08
6.51871e-08
6.56782e-08
6.58596e-08
6.6011e-08
6.59441e-08
6.59762e-08
6.59753e-08
6.60787e-08
6.59628e-08
6.58069e-08
6.53188e-08
6.44184e-08
6.31541e-08
3.06013e-08
3.12171e-08
3.18426e-08
3.23019e-08
3.25573e-08
3.26514e-08
3.27298e-08
3.26943e-08
3.27115e-08
3.27104e-08
3.27648e-08
3.27048e-08
3.26239e-08
3.237e-08
3.1904e-08
3.1251e-08
1.35195e-08
1.37977e-08
1.40793e-08
1.42869e-08
1.44029e-08
1.44462e-08
1.4482e-08
1.44664e-08
1.44743e-08
1.44737e-08
1.44979e-08
1.44704e-08
1.4433e-08
1.43178e-08
1.4107e-08
1.38131e-08
5.25416e-09
5.36061e-09
5.46973e-09
5.55073e-09
5.59609e-09
5.61356e-09
5.62784e-09
5.62212e-09
5.62523e-09
5.62501e-09
5.63408e-09
5.62305e-09
5.60788e-09
5.56278e-09
5.48054e-09
5.36657e-09
1.74311e-09
1.77688e-09
1.81244e-09
1.83905e-09
1.85398e-09
1.85997e-09
1.86481e-09
1.86312e-09
1.86414e-09
1.86408e-09
1.86688e-09
1.8631e-09
1.85787e-09
1.84302e-09
1.81599e-09
1.77883e-09
4.66902e-10
4.75367e-10
4.84636e-10
4.91639e-10