/*--------------------------------*- C++ -*----------------------------------*\
| =========                 |                                                 |
| \\      /  F ield         | OpenFOAM: The Open Source CFD Toolbox           |
|  \\    /   O peration     | Version:  v1912                                 |
|   \\  /    A nd           | Website:  www.openfoam.com                      |
|    \\/     M anipulation  |                                                 |
\*---------------------------------------------------------------------------*/
FoamFile
{
    version     2.0;
    format      ascii;
    class       volVectorField;
    location    "198";
    object      U;
}
// * * * * * * * * * * * * * * * * * * * * * * * * * * * * * * * * * * * * * //

dimensions      [0 1 -1 0 0 0 0];


internalField   nonuniform List<vector> 
10077
(
(-3.53966e-06 0.000909819 0.2675)
(0.000662998 5.68831e-05 0.270163)
(0.00048149 -0.000836506 0.273493)
(0.000196828 -0.000831002 0.274612)
(5.64124e-05 -0.000761868 0.274635)
(1.36415e-05 -0.000628987 0.274464)
(4.20784e-06 -0.000537681 0.274359)
(8.94094e-06 -0.000476167 0.274297)
(1.98149e-05 -0.000465321 0.274297)
(2.89149e-05 -0.000477508 0.274336)
(2.96277e-05 -0.000539879 0.274431)
(1.17692e-05 -0.000630809 0.274558)
(-4.06123e-05 -0.000762442 0.274735)
(-0.000190694 -0.000832897 0.2747)
(-0.00048115 -0.000842264 0.273562)
(-0.000666427 4.73607e-05 0.27021)
(-3.60945e-06 0.000869731 0.267772)
(0.000664886 4.16687e-05 0.270152)
(0.00049173 -0.00082273 0.273129)
(0.000210822 -0.000818099 0.274174)
(6.5606e-05 -0.000756099 0.274213)
(1.91351e-05 -0.00062717 0.274086)
(6.29269e-06 -0.00053734 0.274018)
(9.55162e-06 -0.000476462 0.273981)
(1.95557e-05 -0.000465717 0.273987)
(2.78225e-05 -0.000477561 0.274019)
(2.715e-05 -0.0005391 0.274089)
(6.03352e-06 -0.000628379 0.274178)
(-4.98571e-05 -0.000756047 0.274311)
(-0.00020455 -0.000819489 0.27426)
(-0.0004913 -0.000828157 0.273195)
(-0.000668391 3.23672e-05 0.270196)
(-3.60188e-06 0.000830356 0.26795)
(0.0006658 2.6616e-05 0.27006)
(0.000500073 -0.000809314 0.272701)
(0.000223595 -0.000805174 0.273671)
(7.42568e-05 -0.000749976 0.273721)
(2.43515e-05 -0.000624952 0.273634)
(8.22271e-06 -0.000536651 0.273602)
(1.00559e-05 -0.000476461 0.273588)
(1.91987e-05 -0.000465823 0.2736)
(2.66452e-05 -0.000477314 0.273625)
(2.46655e-05 -0.000537977 0.273671)
(4.80918e-07 -0.000625583 0.273725)
(-5.85656e-05 -0.000749321 0.273817)
(-0.000217106 -0.000806097 0.273755)
(-0.000499413 -0.000814403 0.272764)
(-0.000669226 1.75247e-05 0.270101)
(-3.51709e-06 0.00079183 0.268036)
(0.000665827 1.18306e-05 0.269889)
(0.000506693 -0.000796163 0.272212)
(0.000235254 -0.000792238 0.273106)
(8.24043e-05 -0.000743505 0.273164)
(2.93084e-05 -0.000622368 0.273114)
(1.00111e-05 -0.00053563 0.273114)
(1.04614e-05 -0.000476211 0.273122)
(1.87499e-05 -0.000465751 0.27314)
(2.53898e-05 -0.00047688 0.273158)
(2.21742e-05 -0.000536567 0.273182)
(-4.90156e-06 -0.000622439 0.273203)
(-6.67766e-05 -0.000742251 0.273259)
(-0.000228477 -0.000792662 0.273189)
(-0.000505673 -0.000800915 0.272273)
(-0.000669018 2.98636e-06 0.269926)
(-3.36481e-06 0.000754186 0.268035)
(0.00066504 -2.61459e-06 0.26964)
(0.000511746 -0.000783276 0.271663)
(0.000245887 -0.000779288 0.272484)
(9.00722e-05 -0.000736666 0.272545)
(3.40128e-05 -0.00061934 0.272528)
(1.16632e-05 -0.000534191 0.272559)
(1.07781e-05 -0.000475584 0.272587)
(1.82251e-05 -0.000465289 0.27261)
(2.40758e-05 -0.000476055 0.272623)
(1.96962e-05 -0.000534748 0.272625)
(-1.01048e-05 -0.000618889 0.272616)
(-7.45131e-05 -0.000734865 0.272639)
(-0.000238761 -0.000779263 0.272565)
(-0.000510255 -0.000787705 0.271722)
(-0.000667863 -1.12251e-05 0.269675)
(-3.15574e-06 0.000717472 0.267948)
(0.000663516 -1.668e-05 0.269317)
(0.000515378 -0.000770638 0.271057)
(0.000255575 -0.000766363 0.271805)
(9.72834e-05 -0.000729504 0.271868)
(3.84721e-05 -0.000615916 0.271881)
(1.31849e-05 -0.000532374 0.27194)
(1.10147e-05 -0.000474625 0.271988)
(1.7638e-05 -0.000464512 0.272016)
(2.27223e-05 -0.000474911 0.272023)
(1.72513e-05 -0.000532574 0.272005)
(-1.51198e-05 -0.000614979 0.271968)
(-8.17963e-05 -0.000727196 0.271961)
(-0.000248054 -0.000765915 0.271885)
(-0.000513328 -0.000774753 0.271114)
(-0.000665857 -2.5055e-05 0.269349)
(-2.89913e-06 0.00068172 0.267778)
(0.000661333 -3.03295e-05 0.26892)
(0.000517733 -0.000758239 0.270395)
(0.000264396 -0.000753488 0.271072)
(0.000104062 -0.000722046 0.271135)
(4.26956e-05 -0.000612113 0.271175)
(1.45834e-05 -0.00053019 0.27126)
(1.11801e-05 -0.000473344 0.271326)
(1.70011e-05 -0.000463425 0.271359)
(2.13449e-05 -0.000473457 0.27136)
(1.48539e-05 -0.000530059 0.271325)
(-1.99427e-05 -0.000610727 0.271261)
(-8.86499e-05 -0.00071927 0.271227)
(-0.000256445 -0.000752644 0.271151)
(-0.000515054 -0.000762051 0.27045)
(-0.0006631 -3.84677e-05 0.26895)
(-2.60305e-06 0.000646954 0.267527)
(0.000658571 -4.35291e-05 0.268453)
(0.000518951 -0.000746064 0.269679)
(0.000272425 -0.000740676 0.270289)
(0.000110433 -0.00071431 0.270348)
(4.6693e-05 -0.000607944 0.270413)
(1.58659e-05 -0.000527647 0.270523)
(1.1283e-05 -0.00047174 0.270605)
(1.63256e-05 -0.000462027 0.270642)
(1.99567e-05 -0.000471694 0.270639)
(1.2515e-05 -0.000527209 0.270586)
(-2.45724e-05 -0.000606145 0.270498)
(-9.50973e-05 -0.000711107 0.270439)
(-0.000264018 -0.000739467 0.270366)
(-0.000515587 -0.000749585 0.269732)
(-0.000659688 -5.14309e-05 0.26848)
(-2.27475e-06 0.000613191 0.267195)
(0.000655314 -5.62532e-05 0.267916)
(0.000519162 -0.000734099 0.268909)
(0.000279733 -0.000727942 0.269455)
(0.000116418 -0.000706314 0.26951)
(5.04736e-05 -0.000603422 0.269597)
(1.70395e-05 -0.000524755 0.269729)
(1.13316e-05 -0.000469822 0.269827)
(1.56217e-05 -0.000460325 0.269868)
(1.85686e-05 -0.000469631 0.269861)
(1.02433e-05 -0.000524036 0.269792)
(-2.90089e-05 -0.000601249 0.269681)
(-0.000101161 -0.000702725 0.2696)
(-0.000270851 -0.000726396 0.269531)
(-0.000515074 -0.000737341 0.268961)
(-0.000655721 -6.39194e-05 0.267941)
(-1.92069e-06 0.000580441 0.266786)
(0.000651644 -6.84811e-05 0.267311)
(0.000518492 -0.00072233 0.268088)
(0.000286384 -0.000715293 0.268572)
(0.000122038 -0.000698073 0.268621)
(5.40454e-05 -0.000598562 0.268729)
(1.81105e-05 -0.000521523 0.268883)
(1.13331e-05 -0.000467595 0.268995)
(1.48979e-05 -0.000458326 0.269039)
(1.71903e-05 -0.000467272 0.269028)
(8.04618e-06 -0.00052055 0.268945)
(-3.32526e-05 -0.000596052 0.268812)
(-0.000106863 -0.000694138 0.268711)
(-0.000277019 -0.00071344 0.268648)
(-0.000513651 -0.000725307 0.268138)
(-0.000651294 -7.59132e-05 0.267334)
(-1.54671e-06 0.000548708 0.266301)
(0.000647643 -8.01963e-05 0.26664)
(0.000517059 -0.00071074 0.267216)
(0.000292442 -0.000702734 0.267642)
(0.000127314 -0.000689599 0.267685)
(5.74158e-05 -0.000593373 0.267811)
(1.90845e-05 -0.00051796 0.267984)
(1.12937e-05 -0.000465065 0.268109)
(1.41622e-05 -0.000456031 0.268157)
(1.58301e-05 -0.000464623 0.268142)
(5.92964e-06 -0.000516758 0.268045)
(-3.73044e-05 -0.000590563 0.267893)
(-0.000112223 -0.000685358 0.267774)
(-0.000282588 -0.000700602 0.267717)
(-0.000511446 -0.000713465 0.267264)
(-0.0006465 -8.73964e-05 0.266661)
(-1.15804e-06 0.00051799 0.265742)
(0.000643389 -9.13854e-05 0.265905)
(0.00051497 -0.000699311 0.266294)
(0.000297962 -0.000690265 0.266666)
(0.000132265 -0.000680902 0.266701)
(6.05912e-05 -0.000587866 0.266844)
(1.99664e-05 -0.000514074 0.267035)
(1.12188e-05 -0.000462237 0.267173)
(1.34212e-05 -0.000453445 0.267224)
(1.44952e-05 -0.000461689 0.267205)
(3.89875e-06 -0.000512667 0.267096)
(-4.11654e-05 -0.000584791 0.266925)
(-0.000117261 -0.000676392 0.26679)
(-0.000287621 -0.000687882 0.266741)
(-0.000508578 -0.000701799 0.266341)
(-0.00064143 -9.83564e-05 0.265925)
(-7.59415e-07 0.00048828 0.265111)
(0.000638959 -0.000102038 0.265108)
(0.000512328 -0.000688024 0.265323)
(0.000302998 -0.000677883 0.265644)
(0.000136909 -0.000671987 0.265671)
(6.35774e-05 -0.000582049 0.265829)
(2.07604e-05 -0.00050987 0.266038)
(1.1113e-05 -0.000459112 0.266187)
(1.26805e-05 -0.00045057 0.26624)
(1.31919e-05 -0.000458471 0.266218)
(1.95773e-06 -0.000508284 0.266098)
(-4.48367e-05 -0.000578744 0.26591)
(-0.000121994 -0.000667246 0.265759)
(-0.000292176 -0.000675278 0.265718)
(-0.000505154 -0.000690289 0.265369)
(-0.000636167 -0.000108783 0.265125)
(-3.55074e-07 0.000459568 0.264409)
(0.000634421 -0.000112147 0.264249)
(0.000509224 -0.000676858 0.264304)
(0.000307598 -0.000665583 0.264578)
(0.000141261 -0.000662862 0.264596)
(6.63793e-05 -0.000575928 0.264768)
(2.14699e-05 -0.000505353 0.264993)
(1.09802e-05 -0.000455695 0.265152)
(1.19452e-05 -0.000447407 0.265208)
(1.19255e-05 -0.000454973 0.265183)
(1.10215e-07 -0.000503611 0.265052)
(-4.83194e-05 -0.000572426 0.264849)
(-0.000126438 -0.000657925 0.264684)
(-0.000296305 -0.000662783 0.264652)
(-0.000501274 -0.000678913 0.264349)
(-0.000630792 -0.00011867 0.264265)
(5.11527e-08 0.000431843 0.263638)
(0.000629843 -0.000121704 0.263331)
(0.00050574 -0.000665791 0.263238)
(0.000311805 -0.00065336 0.263468)
(0.000145336 -0.000653529 0.263476)
(6.9001e-05 -0.000569508 0.263662)
(2.20978e-05 -0.000500527 0.263901)
(1.08235e-05 -0.000451985 0.26407)
(1.12193e-05 -0.000443957 0.264128)
(1.07008e-05 -0.000451193 0.264101)
(-1.64049e-06 -0.000498652 0.26396)
(-5.16144e-05 -0.000565841 0.263742)
(-0.000130608 -0.000648429 0.263563)
(-0.000300054 -0.000650389 0.263541)
(-0.000497025 -0.00066765 0.263282)
(-0.000625376 -0.000128009 0.263346)
(4.55812e-07 0.000405088 0.262801)
(0.000625284 -0.000130706 0.262355)
(0.00050195 -0.000654797 0.262125)
(0.00031566 -0.000641202 0.262313)
(0.000149147 -0.000643991 0.262312)
(7.14461e-05 -0.000562791 0.262511)
(2.26461e-05 -0.000495394 0.262764)
(1.06452e-05 -0.000447984 0.262941)
(1.05064e-05 -0.000440218 0.263001)
(9.52182e-06 -0.000447133 0.262971)
(-3.2912e-06 -0.000493407 0.262822)
(-5.47224e-05 -0.000558989 0.262591)
(-0.000134517 -0.000638761 0.262399)
(-0.000303465 -0.000638086 0.262386)
(-0.000492487 -0.000656476 0.262168)
(-0.000619986 -0.000136797 0.262368)
(8.55789e-07 0.000379288 0.261898)
(0.000620798 -0.000139147 0.261322)
(0.00049792 -0.000643852 0.260965)
(0.000319195 -0.000629098 0.261116)
(0.000152706 -0.000634248 0.261104)
(7.37171e-05 -0.000555778 0.261315)
(2.3116e-05 -0.000489955 0.261581)
(1.04472e-05 -0.000443689 0.261766)
(9.80944e-06 -0.000436188 0.261828)
(8.39257e-06 -0.000442789 0.261796)
(-4.83881e-06 -0.000487876 0.261639)
(-5.76438e-05 -0.00055187 0.261394)
(-0.000138176 -0.000628918 0.261191)
(-0.000306575 -0.000625861 0.261188)
(-0.000487728 -0.000645364 0.261007)
(-0.000614682 -0.000145029 0.261333)
(1.24827e-06 0.000354426 0.260932)
(0.000616433 -0.000147022 0.260233)
(0.000493708 -0.000632927 0.25976)
(0.000322442 -0.000617032 0.259875)
(0.000156022 -0.000624299 0.259852)
(7.5816e-05 -0.000548466 0.260075)
(2.35082e-05 -0.000484206 0.260353)
(1.02308e-05 -0.000439096 0.260545)
(9.13099e-06 -0.000431862 0.260609)
(7.31656e-06 -0.000438157 0.260575)
(-6.28042e-06 -0.000482056 0.260411)
(-6.03784e-05 -0.000544479 0.260154)
(-0.000141595 -0.000618898 0.259939)
(-0.000309415 -0.000613696 0.259946)
(-0.000482812 -0.000634286 0.259801)
(-0.000609516 -0.0001527 0.260243)
(1.6307e-06 0.000330484 0.259904)
(0.000612231 -0.000154328 0.259089)
(0.000489363 -0.000621994 0.258508)
(0.000325427 -0.000604985 0.25859)
(0.000159105 -0.000614139 0.258557)
(7.77439e-05 -0.000540854 0.258792)
(2.38232e-05 -0.000478146 0.259081)
(9.99678e-06 -0.0004342 0.25928)
(8.47319e-06 -0.000427234 0.259345)
(6.29695e-06 -0.000433231 0.259309)
(-7.61334e-06 -0.000475942 0.259138)
(-6.29257e-05 -0.000536812 0.25887)
(-0.000144783 -0.000608693 0.258644)
(-0.000312014 -0.000601573 0.258662)
(-0.000477789 -0.000623213 0.258548)
(-0.000604536 -0.000159806 0.259098)
(2.00077e-06 0.000307441 0.258815)
(0.000608228 -0.00016106 0.257891)
(0.00048493 -0.00061102 0.25721)
(0.000328174 -0.000592938 0.257263)
(0.000161961 -0.00060376 0.257219)
(7.95014e-05 -0.000532935 0.257464)
(2.4061e-05 -0.000471767 0.257765)
(9.74565e-06 -0.000428994 0.257969)
(7.83781e-06 -0.000422296 0.258036)
(5.33655e-06 -0.000428004 0.257999)
(-8.83508e-06 -0.000469527 0.257822)
(-6.52849e-05 -0.000528861 0.257542)
(-0.000147748 -0.000598295 0.257306)
(-0.000314397 -0.000589469 0.257334)
(-0.000472708 -0.000612113 0.257249)
(-0.000599783 -0.000166343 0.257899)
(2.35638e-06 0.000285271 0.257667)
(0.000604456 -0.000167214 0.25664)
(0.000480446 -0.000599975 0.255866)
(0.000330701 -0.000580866 0.255891)
(0.000164598 -0.000593153 0.255837)
(8.10885e-05 -0.000524703 0.256092)
(2.42213e-05 -0.000465066 0.256404)
(9.47771e-06 -0.000423469 0.256614)
(7.22627e-06 -0.00041704 0.256682)
(4.43781e-06 -0.000422466 0.256643)
(-9.94332e-06 -0.000462804 0.25646)
(-6.74548e-05 -0.00052062 0.25617)
(-0.000150494 -0.000587692 0.255923)
(-0.000316582 -0.000577361 0.255962)
(-0.000467606 -0.000600954 0.255904)
(-0.000595289 -0.000172306 0.256647)
(2.6956e-06 0.000263961 0.256461)
(0.00060094 -0.000172786 0.255336)
(0.000475944 -0.000588829 0.254475)
(0.000333026 -0.000568746 0.254476)
(0.000167021 -0.000582306 0.254411)
(8.25047e-05 -0.000516152 0.254676)
(2.43038e-05 -0.000458035 0.254998)
(9.19304e-06 -0.000417618 0.255213)
(6.63978e-06 -0.000411455 0.255282)
(3.60291e-06 -0.000416608 0.255243)
(-1.0936e-05 -0.000455767 0.255055)
(-6.94341e-05 -0.00051208 0.254753)
(-0.000153029 -0.000576871 0.254497)
(-0.000318587 -0.000565222 0.254547)
(-0.000462519 -0.000589706 0.254513)
(-0.000591085 -0.000177692 0.255341)
(3.01663e-06 0.000243572 0.255196)
(0.0005977 -0.000177778 0.253979)
(0.00047145 -0.000577553 0.253038)
(0.000335159 -0.000556552 0.253016)
(0.000169233 -0.000571207 0.252939)
(8.37489e-05 -0.000507276 0.253214)
(2.43077e-05 -0.000450669 0.253548)
(8.8916e-06 -0.000411433 0.253768)
(6.07931e-06 -0.000405534 0.253838)
(2.83375e-06 -0.000410423 0.253797)
(-1.18111e-05 -0.000448409 0.253604)
(-7.12207e-05 -0.000503233 0.253292)
(-0.000155355 -0.00056582 0.253026)
(-0.000320425 -0.000553028 0.253086)
(-0.000457473 -0.000578337 0.253075)
(-0.000587193 -0.000182501 0.253984)
(3.31783e-06 0.00022419 0.253875)
(0.000594748 -0.000182193 0.25257)
(0.000466985 -0.000566119 0.251553)
(0.000337112 -0.000544263 0.25151)
(0.000171238 -0.000559846 0.251423)
(8.48194e-05 -0.00049807 0.251707)
(2.42324e-05 -0.000442967 0.252052)
(8.57323e-06 -0.000404909 0.252276)
(5.54565e-06 -0.000399271 0.252347)
(2.13198e-06 -0.000403906 0.252305)
(-1.25667e-05 -0.000440725 0.252107)
(-7.28124e-05 -0.000494074 0.251785)
(-0.000157475 -0.000554524 0.251509)
(-0.000322107 -0.000540753 0.25158)
(-0.000452492 -0.00056682 0.25159)
(-0.000583627 -0.000186739 0.252574)
(3.59786e-06 0.000205961 0.252496)
(0.000592081 -0.00018598 0.25111)
(0.000462566 -0.000554507 0.25002)
(0.000338891 -0.000531859 0.249958)
(0.000173036 -0.000548214 0.24986)
(8.5714e-05 -0.000488533 0.250154)
(2.40767e-05 -0.000434927 0.250509)
(8.2377e-06 -0.000398046 0.250738)
(5.03944e-06 -0.000392666 0.250809)
(1.49909e-06 -0.000397055 0.250766)
(-1.32009e-05 -0.000432716 0.250564)
(-7.42061e-05 -0.000484599 0.250231)
(-0.00015939 -0.000542974 0.249947)
(-0.000323639 -0.000528378 0.250028)
(-0.000447595 -0.000555133 0.250056)
(-0.000580388 -0.000190354 0.251112)
(3.85579e-06 0.000188997 0.251058)
(0.000589694 -0.00018908 0.249596)
(0.000458205 -0.0005427 0.248438)
(0.000340501 -0.000519325 0.248359)
(0.000174629 -0.000536304 0.248251)
(8.64297e-05 -0.000478668 0.248554)
(2.38393e-05 -0.000426555 0.248919)
(7.88462e-06 -0.000390846 0.249152)
(4.56122e-06 -0.000385721 0.249224)
(9.36472e-07 -0.000389872 0.249181)
(-1.37114e-05 -0.000424385 0.248974)
(-7.53986e-05 -0.000474809 0.248631)
(-0.000161101 -0.000531162 0.248337)
(-0.000325027 -0.000515886 0.248429)
(-0.000442792 -0.000543259 0.248473)
(-0.000577472 -0.000193288 0.249598)
(4.09101e-06 0.000173332 0.24956)
(0.000587575 -0.000191394 0.24803)
(0.000453903 -0.000530674 0.246806)
(0.000341945 -0.000506651 0.246713)
(0.000176016 -0.000524118 0.246594)
(8.69634e-05 -0.000468469 0.246906)
(2.3519e-05 -0.000417835 0.24728)
(7.5136e-06 -0.00038328 0.247518)
(4.11144e-06 -0.000378407 0.247591)
(4.45395e-07 -0.000382327 0.247546)
(-1.40963e-05 -0.000415714 0.247335)
(-7.63866e-05 -0.000464698 0.246982)
(-0.000162607 -0.000519087 0.24668)
(-0.000326274 -0.000503266 0.246782)
(-0.000438088 -0.000531174 0.246841)
(-0.000574867 -0.000195447 0.248031)
(4.30314e-06 0.000158944 0.248)
(0.000585707 -0.000192846 0.246409)
(0.000449656 -0.000518386 0.245124)
(0.000343225 -0.000493809 0.245017)
(0.000177199 -0.000511636 0.244887)
(8.73141e-05 -0.000457916 0.245208)
(2.31157e-05 -0.000408739 0.245592)
(7.12451e-06 -0.00037531 0.245834)
(3.68998e-06 -0.000370688 0.245907)
(2.57933e-08 -0.000374383 0.245862)
(-1.43561e-05 -0.000406677 0.245646)
(-7.71697e-05 -0.000454244 0.245285)
(-0.000163912 -0.000506729 0.244973)
(-0.000327381 -0.00049049 0.245086)
(-0.000433477 -0.000518835 0.245158)
(-0.00057256 -0.000196752 0.246409)
(4.49181e-06 0.000145757 0.246376)
(0.000584079 -0.000193394 0.244731)
(0.000445452 -0.000505792 0.243387)
(0.000344344 -0.000480745 0.243267)
(0.000178185 -0.000498807 0.243125)
(8.74858e-05 -0.000446964 0.243456)
(2.26322e-05 -0.000399227 0.243851)
(6.71813e-06 -0.000366891 0.244098)
(3.2962e-06 -0.00036252 0.244171)
(-3.24575e-07 -0.000365994 0.244126)
(-1.44955e-05 -0.000397229 0.243905)
(-7.77537e-05 -0.000443401 0.243533)
(-0.00016502 -0.000494034 0.243211)
(-0.000328349 -0.000477499 0.243336)
(-0.000428947 -0.000506197 0.243421)
(-0.000570538 -0.000197161 0.244731)
(4.65663e-06 0.000133686 0.244687)
(0.000582678 -0.000193022 0.242994)
(0.000441253 -0.000492794 0.24159)
(0.000345298 -0.000467351 0.241455)
(0.000178974 -0.000485533 0.2413)
(8.74841e-05 -0.000435527 0.241643)
(2.20735e-05 -0.000389222 0.242049)
(6.29609e-06 -0.000357958 0.242302)
(2.9284e-06 -0.000353834 0.242376)
(-6.10725e-07 -0.000357094 0.24233)
(-1.45225e-05 -0.000387296 0.242104)
(-7.81454e-05 -0.000432081 0.241719)
(-0.000165935 -0.000480903 0.241386)
(-0.000329176 -0.000464188 0.241524)
(-0.000424457 -0.000493162 0.241623)
(-0.000568787 -0.000196656 0.242993)
(4.79751e-06 0.000122657 0.24293)
(0.000581472 -0.000191758 0.241192)
(0.000437012 -0.000479282 0.239721)
(0.000346083 -0.000453529 0.239574)
(0.000179565 -0.000471727 0.239407)
(8.73071e-05 -0.000423521 0.23976)
(2.14414e-05 -0.00037864 0.240178)
(5.85865e-06 -0.00034843 0.240435)
(2.58508e-06 -0.000344549 0.240509)
(-8.35623e-07 -0.000347601 0.240463)
(-1.444e-05 -0.00037679 0.240232)
(-7.83429e-05 -0.0004202 0.239836)
(-0.000166653 -0.000467248 0.239493)
(-0.000329856 -0.000450455 0.239643)
(-0.000419962 -0.000479618 0.239753)
(-0.000567272 -0.000195263 0.24119)
(4.91519e-06 0.000112629 0.241104)
(0.00058038 -0.000189623 0.239311)
(0.000432715 -0.00046519 0.237775)
(0.000346689 -0.000439197 0.23762)
(0.000179953 -0.000457311 0.237441)
(8.69482e-05 -0.000410882 0.237803)
(2.07332e-05 -0.000367425 0.23823)
(5.40423e-06 -0.000338263 0.238492)
(2.2664e-06 -0.000334619 0.238565)
(-9.97112e-07 -0.000337471 0.238519)
(-1.42443e-05 -0.000365656 0.238284)
(-7.83389e-05 -0.00040769 0.237879)
(-0.00016717 -0.000452989 0.237527)
(-0.000330382 -0.000436218 0.237688)
(-0.000415449 -0.000465498 0.237807)
(-0.000565908 -0.000193 0.239309)
(5.0114e-06 0.000103575 0.2392)
(0.000579334 -0.000186643 0.237339)
(0.000428358 -0.000450483 0.235747)
(0.000347108 -0.000424313 0.235588)
(0.000180132 -0.000442253 0.235398)
(8.64004e-05 -0.000397581 0.235768)
(1.99452e-05 -0.00035555 0.236202)
(4.93097e-06 -0.000327434 0.236466)
(1.97279e-06 -0.000324021 0.236539)
(-1.09232e-06 -0.000326681 0.236493)
(-1.3931e-05 -0.000353865 0.236256)
(-7.81265e-05 -0.000394524 0.235844)
(-0.000167482 -0.000438093 0.235484)
(-0.000330747 -0.000421434 0.235656)
(-0.000410916 -0.000450767 0.235779)
(-0.00056463 -0.000189892 0.237335)
(5.08714e-06 9.54599e-05 0.237202)
(0.000578315 -0.00018284 0.235268)
(0.000423938 -0.000435158 0.233634)
(0.000347331 -0.000408875 0.233472)
(0.000180099 -0.000426556 0.233273)
(8.56569e-05 -0.000383621 0.233648)
(1.90743e-05 -0.000343018 0.234089)
(4.43702e-06 -0.00031595 0.234354)
(1.70423e-06 -0.000312759 0.234426)
(-1.11941e-06 -0.000315238 0.234381)
(-1.34975e-05 -0.000341421 0.234143)
(-7.76993e-05 -0.000380702 0.233724)
(-0.000167583 -0.000422563 0.233359)
(-0.000330938 -0.000406099 0.23354)
(-0.00040636 -0.000435423 0.233665)
(-0.000563426 -0.000185962 0.235264)
(5.14124e-06 8.82893e-05 0.235097)
(0.000577314 -0.000178233 0.233099)
(0.000419451 -0.000419255 0.23143)
(0.000347343 -0.000392923 0.231269)
(0.000179846 -0.000410274 0.23106)
(8.47122e-05 -0.00036905 0.231441)
(1.81178e-05 -0.000329872 0.231887)
(3.92081e-06 -0.000303852 0.232151)
(1.46048e-06 -0.000300874 0.232224)
(-1.07719e-06 -0.000303181 0.232179)
(-1.29417e-05 -0.000328364 0.23194)
(-7.70524e-05 -0.000366273 0.231516)
(-0.000167468 -0.00040645 0.231146)
(-0.000330943 -0.000390254 0.231337)
(-0.000401775 -0.000419502 0.231461)
(-0.000562285 -0.000181229 0.233094)
(5.1718e-06 8.20875e-05 0.232881)
(0.000576311 -0.000172841 0.23083)
(0.000414887 -0.000402826 0.229133)
(0.000347129 -0.000376515 0.228972)
(0.000179367 -0.000393472 0.228754)
(8.35615e-05 -0.00035393 0.22914)
(1.70742e-05 -0.000316168 0.229591)
(3.38104e-06 -0.00029119 0.229855)
(1.24121e-06 -0.000288417 0.229927)
(-9.64993e-07 -0.000290562 0.229882)
(-1.22628e-05 -0.00031475 0.229644)
(-7.61814e-05 -0.000351296 0.229216)
(-0.00016713 -0.000389819 0.22884)
(-0.000330747 -0.000373954 0.22904)
(-0.000397151 -0.000403059 0.229163)
(-0.00056119 -0.000175714 0.230824)
(5.17818e-06 7.68504e-05 0.230555)
(0.000575283 -0.000166695 0.228458)
(0.000410233 -0.000385923 0.226737)
(0.000346671 -0.000359703 0.226578)
(0.000178655 -0.000376213 0.226352)
(8.22011e-05 -0.000338322 0.226742)
(1.59422e-05 -0.000301964 0.227198)
(2.81672e-06 -0.00027802 0.22746)
(1.04607e-06 -0.000275443 0.227532)
(-7.82476e-07 -0.000277435 0.227488)
(-1.14603e-05 -0.000300637 0.227251)
(-7.50831e-05 -0.000335832 0.226817)
(-0.000166563 -0.000372733 0.226437)
(-0.000330331 -0.000357253 0.226646)
(-0.000392476 -0.000386144 0.226767)
(-0.000560115 -0.000169447 0.228451)
(5.16076e-06 7.25528e-05 0.228115)
(0.000574196 -0.000159834 0.22598)
(0.000405475 -0.0003686 0.224238)
(0.000345953 -0.000342542 0.224082)
(0.000177703 -0.000358558 0.223847)
(8.06283e-05 -0.000322284 0.224241)
(1.47217e-05 -0.000287315 0.224702)
(2.22712e-06 -0.000264395 0.224963)
(8.74673e-07 -0.000262006 0.225035)
(-5.29563e-07 -0.000263853 0.22499)
(-1.05347e-05 -0.00028608 0.224754)
(-7.37553e-05 -0.000319939 0.224317)
(-0.00016576 -0.000355251 0.223932)
(-0.000329679 -0.000340203 0.22415)
(-0.000387736 -0.000368811 0.224268)
(-0.000559027 -0.000162468 0.225973)
(5.1202e-06 6.9153e-05 0.225562)
(0.000573014 -0.000152309 0.223392)
(0.000400598 -0.000350908 0.221631)
(0.000344954 -0.000325081 0.22148)
(0.000176505 -0.000340563 0.221235)
(7.88415e-05 -0.000305874 0.221635)
(1.34128e-05 -0.000272279 0.222099)
(1.61175e-06 -0.000250371 0.222359)
(7.26663e-07 -0.00024816 0.22243)
(-2.06432e-07 -0.000249871 0.222385)
(-9.48689e-06 -0.000271135 0.222151)
(-7.21969e-05 -0.000303673 0.22171)
(-0.000164716 -0.000337429 0.221321)
(-0.000328769 -0.000322854 0.221547)
(-0.000382913 -0.000351111 0.221661)
(-0.000557889 -0.000154828 0.223385)
(5.0572e-06 6.65947e-05 0.222893)
(0.000571698 -0.000144179 0.220692)
(0.000395586 -0.000332905 0.218914)
(0.000343655 -0.000307374 0.218767)
(0.000175056 -0.000322289 0.218514)
(7.68401e-05 -0.000289153 0.218918)
(1.20167e-05 -0.000256915 0.219386)
(9.70455e-07 -0.000236006 0.219643)
(6.0167e-07 -0.000233965 0.219714)
(1.86436e-07 -0.000235547 0.21967)
(-8.31862e-06 -0.000255861 0.219438)
(-7.04079e-05 -0.000287094 0.218992)
(-0.000163424 -0.000319326 0.218599)
(-0.000327584 -0.00030526 0.218834)
(-0.000377993 -0.0003331 0.218943)
(-0.000556661 -0.000146585 0.220684)
(4.97249e-06 6.48087e-05 0.220105)
(0.000570208 -0.000135515 0.217876)
(0.000390426 -0.000314652 0.216082)
(0.000342036 -0.000289484 0.215941)
(0.00017335 -0.000303802 0.215679)
(7.46255e-05 -0.000272187 0.216087)
(1.05352e-05 -0.00024129 0.216559)
(3.03432e-07 -0.000221365 0.216814)
(4.99305e-07 -0.000219486 0.216885)
(6.48152e-07 -0.000220948 0.216841)
(-7.03259e-06 -0.000240324 0.216611)
(-6.83902e-05 -0.000270268 0.216161)
(-0.000161881 -0.000301007 0.215764)
(-0.000326104 -0.00028748 0.216008)
(-0.00037296 -0.000314841 0.216111)
(-0.000555301 -0.00013781 0.217867)
(4.86683e-06 6.37136e-05 0.217194)
(0.000568503 -0.000126397 0.21494)
(0.000385104 -0.000296222 0.213132)
(0.000340079 -0.000271479 0.212998)
(0.000171384 -0.000285176 0.212727)
(7.22007e-05 -0.000255053 0.21314)
(8.97138e-06 -0.000225481 0.213615)
(-3.8868e-07 -0.000206525 0.213868)
(4.19136e-07 -0.000204798 0.213938)
(1.17729e-06 -0.000206148 0.213895)
(-5.63258e-06 -0.000224601 0.213667)
(-6.61471e-05 -0.000253271 0.213214)
(-0.000160083 -0.000282549 0.212813)
(-0.000324309 -0.000269585 0.213065)
(-0.000367803 -0.000296406 0.213161)
(-0.000553769 -0.000128584 0.214931)
(4.74106e-06 6.32163e-05 0.214159)
(0.000566544 -0.000116918 0.211882)
(0.000379609 -0.000277701 0.210063)
(0.000337766 -0.000253442 0.209937)
(0.000169157 -0.000266501 0.209657)
(6.95707e-05 -0.000237838 0.210074)
(7.32932e-06 -0.000209574 0.210553)
(-1.10475e-06 -0.000191572 0.210803)
(3.60646e-07 -0.000189988 0.210872)
(1.77179e-06 -0.000191234 0.210829)
(-4.12363e-06 -0.000208777 0.210604)
(-6.36845e-05 -0.000236189 0.210148)
(-0.000158029 -0.000264036 0.209742)
(-0.000322182 -0.000251657 0.210003)
(-0.000362508 -0.000277881 0.210092)
(-0.000552023 -0.000118999 0.211872)
(4.59618e-06 6.32128e-05 0.210997)
(0.000564289 -0.000107183 0.208699)
(0.000373931 -0.000259186 0.206872)
(0.00033508 -0.000235468 0.206755)
(0.000166668 -0.000247874 0.206467)
(6.67425e-05 -0.000220642 0.206888)
(5.61427e-06 -0.00019367 0.207369)
(-1.84315e-06 -0.000176605 0.207616)
(3.2321e-07 -0.000175156 0.207684)
(2.42886e-06 -0.000176304 0.207642)
(-2.51211e-06 -0.000192953 0.20742)
(-6.10102e-05 -0.000219123 0.206961)
(-0.00015572 -0.000245568 0.206552)
(-0.000319706 -0.000233789 0.206821)
(-0.000357065 -0.000259361 0.2069)
(-0.000550022 -0.00010916 0.20869)
(4.43329e-06 6.35905e-05 0.207706)
(0.000561698 -9.73051e-05 0.205391)
(0.000368061 -0.000240784 0.203557)
(0.000332007 -0.000217661 0.203451)
(0.000163919 -0.000229405 0.203155)
(6.37252e-05 -0.000203574 0.203579)
(3.83255e-06 -0.000177877 0.204063)
(-2.60175e-06 -0.000161732 0.204306)
(3.06084e-07 -0.00016041 0.204374)
(3.14498e-06 -0.000161466 0.204332)
(-8.05689e-07 -0.000177238 0.204114)
(-5.8134e-05 -0.00020218 0.203652)
(-0.000153157 -0.000227253 0.203239)
(-0.000316865 -0.000216086 0.203516)
(-0.000351463 -0.000240954 0.203585)
(-0.000547723 -9.91809e-05 0.205381)
(4.25362e-06 6.42322e-05 0.204283)
(0.00055873 -8.74033e-05 0.201955)
(0.000361986 -0.000222608 0.200117)
(0.000328531 -0.000200133 0.200022)
(0.000160912 -0.000211208 0.199719)
(6.05294e-05 -0.000186749 0.200147)
(1.99149e-06 -0.000162312 0.200632)
(-3.37802e-06 -0.000147068 0.200871)
(3.08419e-07 -0.000145863 0.200938)
(3.91602e-06 -0.000146835 0.200897)
(9.86864e-07 -0.000161746 0.200682)
(-5.50675e-05 -0.000185475 0.200219)
(-0.000150343 -0.000209206 0.199802)
(-0.000313646 -0.000198658 0.200087)
(-0.000345689 -0.000222774 0.200145)
(-0.000545082 -8.91795e-05 0.201944)
(4.05848e-06 6.502e-05 0.200725)
(0.00055534 -7.75968e-05 0.198387)
(0.000355697 -0.000204773 0.196549)
(0.000324639 -0.000182993 0.196466)
(0.00015765 -0.000193399 0.196156)
(5.71668e-05 -0.000170283 0.196587)
(9.92225e-08 -0.000147089 0.197073)
(-4.169e-06 -0.000132726 0.197309)
(3.29276e-07 -0.000131631 0.197374)
(4.73725e-06 -0.000132525 0.197334)
(2.8558e-06 -0.000146591 0.197123)
(-5.18235e-05 -0.000169124 0.196658)
(-0.000147283 -0.000191542 0.196239)
(-0.000310032 -0.000181616 0.19653)
(-0.000339732 -0.000204934 0.196576)
(-0.000542054 -7.92754e-05 0.198377)
(3.84926e-06 6.58404e-05 0.197028)
(0.000551483 -6.80012e-05 0.194686)
(0.00034918 -0.000187391 0.19285)
(0.000320316 -0.000166351 0.19278)
(0.000154139 -0.000176091 0.192463)
(5.36503e-05 -0.000154289 0.192896)
(-1.83531e-06 -0.000132319 0.193383)
(-4.9714e-06 -0.000118817 0.193614)
(3.67653e-07 -0.000117826 0.193679)
(5.6035e-06 -0.000118646 0.19364)
(4.79051e-06 -0.000131887 0.193432)
(-4.84162e-05 -0.000153238 0.192967)
(-0.00014398 -0.000174372 0.192546)
(-0.000306011 -0.000165069 0.192843)
(-0.000333578 -0.000187548 0.192877)
(-0.000538592 -6.95842e-05 0.194675)
(3.62735e-06 6.65874e-05 0.193189)
(0.000547111 -5.8724e-05 0.190846)
(0.000342421 -0.000170567 0.189016)
(0.000315551 -0.000150308 0.188959)
(0.000150383 -0.000159387 0.188637)
(4.99941e-05 -0.000138869 0.189071)
(-3.80238e-06 -0.000118107 0.189558)
(-5.78156e-06 -0.000105446 0.189785)
(4.22489e-07 -0.00010455 0.189848)
(6.50909e-06 -0.000105302 0.18981)
(6.77951e-06 -0.000117736 0.189606)
(-4.48606e-05 -0.000137922 0.189141)
(-0.000140442 -0.000157802 0.188719)
(-0.000301569 -0.000149117 0.189022)
(-0.00032721 -0.000170718 0.189042)
(-0.000534645 -6.02136e-05 0.190835)
(3.39423e-06 6.71659e-05 0.189202)
(0.000542175 -4.98625e-05 0.186863)
(0.000335407 -0.000154394 0.185041)
(0.000310327 -0.000134953 0.184998)
(0.000146387 -0.00014338 0.184672)
(4.62129e-05 -0.000124118 0.185107)
(-5.79147e-06 -0.000104546 0.185592)
(-6.59544e-06 -9.27032e-05 0.185815)
(4.92659e-07 -9.18953e-05 0.185876)
(7.44787e-06 -9.25846e-05 0.18584)
(8.81047e-06 -0.00010423 0.18564)
(-4.11727e-05 -0.000123268 0.185176)
(-0.000136673 -0.000141923 0.184753)
(-0.000296691 -0.00013385 0.18506)
(-0.000320615 -0.00015454 0.185068)
(-0.000530162 -5.12607e-05 0.186852)
(3.15138e-06 6.74937e-05 0.185061)
(0.000536622 -4.15005e-05 0.182731)
(0.000328121 -0.000138954 0.180921)
(0.000304634 -0.000120364 0.180891)
(0.000142157 -0.000128152 0.180562)
(4.23228e-05 -0.000110115 0.180997)
(-7.7912e-06 -9.17133e-05 0.18148)
(-7.40863e-06 -8.06677e-05 0.181699)
(5.76967e-07 -7.99412e-05 0.181759)