/*--------------------------------*- C++ -*----------------------------------*\
| =========                 |                                                 |
| \\      /  F ield         | OpenFOAM: The Open Source CFD Toolbox           |
|  \\    /   O peration     | Version:  v1912                                 |
|   \\  /    A nd           | Website:  www.openfoam.com                      |
|    \\/     M anipulation  |                                                 |
\*---------------------------------------------------------------------------*/
FoamFile
{
    version     2.0;
    format      ascii;
    class       volScalarField;
    location    "8.4";
    object      alphat;
}
// * * * * * * * * * * * * * * * * * * * * * * * * * * * * * * * * * * * * * //

dimensions      [1 -1 -1 0 0 0 0];


internalField   nonuniform List<scalar> 
34128
(
4.88246e-09
4.9842e-09
5.24773e-09
5.35225e-09
5.30589e-09
5.12739e-09
4.90068e-09
5.03701e-09
5.2975e-09
5.09555e-09
4.96182e-09
5.01131e-09
4.81748e-09
4.91135e-09
5.1541e-09
5.25172e-09
5.22362e-09
5.06357e-09
4.83537e-09
4.95975e-09
5.2211e-09
5.01919e-09
4.88159e-09
4.93617e-09
8.80345e-09
8.85407e-09
8.96143e-09
9.03018e-09
9.30758e-09
9.32781e-09
8.84467e-09
8.87901e-09
9.42437e-09
9.00826e-09
8.65711e-09
8.86359e-09
3.755e-08
3.73558e-08
3.66275e-08
3.65304e-08
3.88013e-08
3.998e-08
3.77781e-08
3.72396e-08
3.9726e-08
3.78432e-08
3.60567e-08
3.7294e-08
1.47144e-07
1.45946e-07
1.41753e-07
1.40896e-07
1.50681e-07
1.56497e-07
1.48154e-07
1.4523e-07
1.5471e-07
1.47525e-07
1.40545e-07
1.45706e-07
4.42197e-07
4.37881e-07
4.2332e-07
4.19912e-07
4.49721e-07
4.68873e-07
4.45408e-07
4.35283e-07
4.62025e-07
4.4164e-07
4.21738e-07
4.37452e-07
1.06716e-06
1.05508e-06
1.01638e-06
1.00638e-06
1.0778e-06
1.12689e-06
1.07484e-06
1.04765e-06
1.10674e-06
1.06141e-06
1.0171e-06
1.05495e-06
2.17059e-06
2.14256e-06
2.05835e-06
2.0348e-06
2.17736e-06
2.28116e-06
2.185e-06
2.12462e-06
2.23235e-06
2.1495e-06
2.06837e-06
2.14439e-06
3.8574e-06
3.80214e-06
3.64604e-06
3.59986e-06
3.84584e-06
4.03362e-06
3.87854e-06
3.76356e-06
3.93296e-06
3.80388e-06
3.67733e-06
3.80982e-06
6.1547e-06
6.05975e-06
5.80756e-06
5.72941e-06
6.10643e-06
6.40449e-06
6.17796e-06
5.98505e-06
6.22305e-06
6.04803e-06
5.8753e-06
6.08069e-06
9.00654e-06
8.86115e-06
8.49853e-06
8.38299e-06
8.90702e-06
9.33007e-06
9.02148e-06
8.7299e-06
9.03772e-06
8.82825e-06
8.61796e-06
8.90745e-06
1.22058e-05
1.20444e-05
1.16182e-05
1.1467e-05
1.21382e-05
1.2605e-05
1.21397e-05
1.17782e-05
1.22046e-05
1.20325e-05
1.18015e-05
1.21499e-05
1.51001e-05
1.49043e-05
1.45191e-05
1.44441e-05
1.51249e-05
1.55659e-05
1.49923e-05
1.45443e-05
1.50509e-05
1.49239e-05
1.46885e-05
1.5072e-05
1.81328e-05
1.79e-05
1.74778e-05
1.74147e-05
1.81827e-05
1.86604e-05
1.79722e-05
1.74318e-05
1.8016e-05
1.79194e-05
1.76918e-05
1.81439e-05
2.1265e-05
2.09922e-05
2.05376e-05
2.04934e-05
2.13431e-05
2.18486e-05
2.10409e-05
2.04024e-05
2.10593e-05
2.10089e-05
2.08037e-05
2.13259e-05
2.44618e-05
2.41464e-05
2.36655e-05
2.3648e-05
2.45714e-05
2.50956e-05
2.4166e-05
2.34233e-05
2.41466e-05
2.41588e-05
2.39914e-05
2.45839e-05
2.76969e-05
2.73362e-05
2.68359e-05
2.68535e-05
2.78408e-05
2.8376e-05
2.73252e-05
2.64717e-05
2.72533e-05
2.73434e-05
2.72302e-05
2.78933e-05
3.09555e-05
3.05463e-05
3.00325e-05
3.00927e-05
3.11341e-05
3.1676e-05
3.05072e-05
2.95365e-05
3.03665e-05
3.05464e-05
3.05051e-05
3.12414e-05
3.42368e-05
3.37739e-05
3.32485e-05
3.33565e-05
3.44447e-05
3.49948e-05
3.37143e-05
3.26202e-05
3.34857e-05
3.37618e-05
3.3812e-05
3.46278e-05
3.75555e-05
3.70298e-05
3.64882e-05
3.66449e-05
3.77769e-05
3.83454e-05
3.69645e-05
3.57403e-05
3.66229e-05
3.6995e-05
3.71595e-05
3.80656e-05
4.09415e-05
4.03387e-05
3.97672e-05
3.99677e-05
4.11458e-05
4.17535e-05
4.02918e-05
3.89287e-05
3.98023e-05
4.02641e-05
4.05693e-05
4.15806e-05
4.44368e-05
4.37357e-05
4.31119e-05
4.33448e-05
4.4576e-05
4.52541e-05
4.37418e-05
4.22288e-05
4.3058e-05
4.35982e-05
4.40752e-05
4.52099e-05
4.80874e-05
4.72601e-05
4.65549e-05
4.68046e-05
4.80984e-05
4.88866e-05
4.73636e-05
4.56896e-05
4.64299e-05
4.70332e-05
4.77174e-05
4.89959e-05
5.19367e-05
5.09501e-05
5.01298e-05
5.03799e-05
5.17474e-05
5.26895e-05
5.1205e-05
4.93594e-05
4.99585e-05
5.06055e-05
5.15361e-05
5.29813e-05
5.60243e-05
5.48405e-05
5.38673e-05
5.41046e-05
5.55553e-05
5.67006e-05
5.53137e-05
5.3286e-05
5.36836e-05
5.43496e-05
5.5569e-05
5.72082e-05
6.03921e-05
5.8967e-05
5.77975e-05
5.80079e-05
5.95541e-05
6.09604e-05
5.97471e-05
5.75234e-05
5.76482e-05
5.83001e-05
5.98538e-05
6.1724e-05
6.50984e-05
6.33758e-05
6.19552e-05
6.21206e-05
6.37784e-05
6.55214e-05
6.45878e-05
6.21467e-05
6.19041e-05
6.24959e-05
6.44404e-05
6.65952e-05
7.02348e-05
6.81355e-05
6.63892e-05
6.64827e-05
6.82739e-05
7.04585e-05
6.996e-05
6.727e-05
6.65237e-05
6.6992e-05
6.94066e-05
7.19253e-05
7.59443e-05
7.33497e-05
7.11741e-05
7.11544e-05
7.31142e-05
7.58814e-05
7.60476e-05
7.30652e-05
7.16126e-05
7.18735e-05
7.48776e-05
7.78735e-05
8.24442e-05
7.91759e-05
7.64242e-05
7.62303e-05
7.84091e-05
8.19521e-05
8.31096e-05
7.97854e-05
7.73255e-05
7.72736e-05
8.10507e-05
8.46777e-05
9.00131e-05
8.58227e-05
8.23179e-05
8.18622e-05
8.43319e-05
8.88842e-05
9.14456e-05
8.77728e-05
8.38903e-05
8.34039e-05
8.82101e-05
9.26351e-05
9.89426e-05
9.35263e-05
8.90866e-05
8.82876e-05
9.11234e-05
9.69305e-05
0.000101403
9.74223e-05
9.15977e-05
9.05362e-05
9.66644e-05
0.000102069
0.000109626
0.000102579
9.69689e-05
9.57276e-05
9.90255e-05
0.000106422
0.00011349
0.000109266
0.000100777
9.89602e-05
0.000106805
0.000113439
0.000122686
0.000113461
0.000106382
0.000104571
0.000108457
0.000117894
0.000128518
0.000124159
0.000111981
0.000109164
0.000119246
0.000127465
0.000139057
0.000126892
0.000117948
0.000115397
0.000120049
0.000132156
0.000147748
0.00014345
0.000126055
0.000121874
0.000134911
0.000145232
0.000160153
0.000143942
0.000132584
0.000129057
0.000134735
0.000150452
0.000173183
0.00016931
0.000144307
0.000138183
0.000155192
0.000168366
0.000188148
0.000166247
0.000151688
0.000146827
0.000153933
0.000174758
0.000207882
0.000205199
0.000168833
0.000159772
0.000182205
0.000199334
0.000226538
0.000196207
0.000177476
0.000170684
0.000179867
0.000207978
0.000245194
0.000247605
0.000202812
0.000189268
0.000219259
0.000242015
0.000280494
0.000229959
0.000213269
0.000203703
0.000215848
0.000238429
0.000287079
0.000292083
0.000236993
0.000227727
0.000271307
0.000302303
0.00033323
0.00026977
0.000252068
0.000245162
0.000251864
0.000278354
0.000342275
0.000351043
0.000279138
0.000266843
0.000329989
0.000373028
0.000401831
0.000323059
0.000299172
0.000289364
0.000297361
0.000331489
0.000412276
0.000425697
0.000335496
0.000319095
0.000400212
0.00045325
0.000486474
0.000392388
0.000361497
0.000348636
0.000358183
0.000399395
0.000498012
0.000516785
0.000408043
0.00038776
0.000487558
0.000551045
0.000589203
0.000478552
0.000440106
0.000424836
0.000435196
0.000483022
0.000601934
0.000626207
0.000497575
0.000473649
0.000593333
0.000668456
0.000712851
0.000583595
0.000536272
0.000518856
0.000529584
0.000584755
0.000725893
0.000754953
0.000606464
0.000578614
0.000719435
0.000807025
0.00085925
0.000709751
0.000652519
0.000633268
0.000643899
0.000706547
0.000870641
0.00090267
0.000736381
0.0007049
0.00086675
0.000967326
0.00102836
0.000858187
0.000790691
0.000770326
0.000780095
0.000849288
0.00103552
0.00106745
0.000887536
0.000853582
0.00103479
0.00114886
0.00121799
0.00102847
0.00095136
0.000931121
0.000938935
0.00101241
0.0012183
0.00124641
0.00105821
0.00102399
0.00122155
0.00134976
0.00142378
0.00121822
0.00113339
0.00111506
0.00111953
0.00119365
0.00141448
0.00143647
0.00124465
0.00121331
0.00142352
0.00156569
0.00163967
0.00142314
0.00133377
0.00131953
0.0013191
0.00138912
0.00161816
0.00163392
0.00144146
0.0014167
0.00163586
0.00179001
0.00185858
0.00163742
0.00154779
0.00153982
0.00153297
0.00159369
0.00182434
0.00183413
0.00164267
0.00162783
0.00185267
0.00201508
0.00207341
0.00185456
0.00176962
0.00176953
0.00175501
0.00180197
0.00202795
0.00198452
0.00184189
0.00183999
0.00206733
0.0022334
0.00227798
0.0020681
0.00199316
0.00200122
0.00197827
0.00200862
0.00222338
0.00192424
0.00194096
0.0020464
0.00227326
0.0024385
0.00246721
0.00227188
0.00221265
0.0022273
0.0021957
0.00220823
0.00231274
0.00190778
0.00179562
0.00221142
0.00246534
0.00262556
0.00263699
0.00215898
0.00242197
0.00244095
0.0024009
0.00239575
0.00236188
0.00195011
0.00169263
0.00214613
0.00264248
0.00279146
0.00245298
0.00198569
0.00249593
0.00263665
0.00258875
0.0025669
0.00248345
0.00203846
0.00164514
0.00210729
0.00279791
0.00293482
0.00221094
0.00188672
0.00243458
0.00281002
0.00275583
0.00271867
0.00268489
0.0021621
0.0016334
0.00211159
0.0029293
0.00305569
0.00205557
0.00183884
0.00242354
0.0029584
0.00290044
0.00284958
0.00294084
0.00231288
0.00164311
0.00214941
0.0030373
0.00315532
0.00196164
0.00182403
0.00246145
0.00308092
0.00302199
0.00295989
0.00302136
0.00248347
0.00166646
0.00221492
0.00312378
0.00323576
0.00190499
0.00183252
0.00252967
0.00317843
0.00312116
0.00305131
0.00308763
0.00266709
0.00169979
0.00230659
0.00319157
0.00329958
0.00187367
0.00185903
0.00261542
0.00325308
0.00319984
0.00312623
0.00314142
0.00285807
0.00174226
0.0024255
0.00324463
0.00326941
0.00186243
0.00190183
0.00271123
0.00330784
0.0032619
0.00318717
0.00318464
0.00304798
0.00179482
0.00257433
0.00328631
0.00324494
0.00186946
0.00196197
0.00281396
0.00334605
0.00331048
0.00323642
0.00321943
0.0032023
0.0018593
0.00275588
0.00331935
0.00324561
0.001895
0.00204276
0.00292457
0.00337099
0.00334541
0.0032756
0.00324755
0.00322667
0.00193763
0.00297381
0.00334683
0.00327414
0.00194089
0.00214942
0.00304673
0.00338497
0.00336879
0.00330689
0.0032704
0.00324665
0.00203164
0.00322384
0.00336986
0.00333332
0.0020103
0.00228938
0.00318618
0.00339117
0.00338306
0.00333188
0.00328901
0.00326328
0.00214233
0.00325232
0.00338934
0.00342485
0.00210749
0.00247319
0.00334179
0.00339152
0.00339042
0.00334946
0.00330409
0.00327721
0.00226898
0.00327818
0.00340596
0.00348282
0.0022369
0.0027142
0.00345738
0.00338744
0.00339257
0.00336056
0.00331607
0.00328877
0.002409
0.00330148
0.00342013
0.00349322
0.00240177
0.00302447
0.00346411
0.00338035
0.00339061
0.00336643
0.00332519
0.00329804
0.00255798
0.00332166
0.00343209
0.00350215
0.00260325
0.00338222
0.00346624
0.00337131
0.0033855
0.00336801
0.00333155
0.00330491
0.00271158
0.00333865
0.00344195
0.00350991
0.00283752
0.0034907
0.00346288
0.00334103
0.00337787
0.00336608
0.00333518
0.00330916
0.00286626
0.00335229
0.00344973
0.00351672
0.00309797
0.00349087
0.00345409
0.00329037
0.00336867
0.00336127
0.00333608
0.00331058
0.00301434
0.00336348
0.00345545
0.0035227
0.00336336
0.00348536
0.00344032
0.00327284
0.00335884
0.0033544
0.00333437
0.00330912
0.00314457
0.00337177
0.00345917
0.00352798
0.00345463
0.00347408
0.00342207
0.00328916
0.00334963
0.00329832
0.00332637
0.00330492
0.00324737
0.00337717
0.00346107
0.0035327
0.00343909
0.00345726
0.00339975
0.00331727
0.00334144
0.00321607
0.00312733
0.00325634
0.00331323
0.00337996
0.00346146
0.00353698
0.00341981
0.0034354
0.00337395
0.00330579
0.00333335
0.00316879
0.00296372
0.00312142
0.00331943
0.00338065
0.00346079
0.00354098
0.00339729
0.00340927
0.00334561
0.00329411
0.00332539
0.00316556
0.00285711
0.00299373
0.00332277
0.00337986
0.00345965
0.00354483
0.00337193
0.00337993
0.00331574
0.0032825
0.0033178
0.00320515
0.00280267
0.00288531
0.00332406
0.00337849
0.00345867
0.00354864
0.00334423
0.00334861
0.00328536
0.00327156
0.00331108
0.0032791
0.00279351
0.00280304
0.00332204
0.00337749
0.0034585
0.00355246
0.00331479
0.00331658
0.00325542
0.00326184
0.00330568
0.00328445
0.00282189
0.00274918
0.00329159
0.00337779
0.0034597
0.00355627
5.2521e-09
5.32031e-09
5.51284e-09
5.57951e-09
5.58397e-09
5.50109e-09
5.31379e-09
5.42966e-09
5.66035e-09
5.39588e-09
5.25585e-09
5.33947e-09
5.05224e-09
5.10915e-09
5.27771e-09
5.32774e-09
5.34017e-09
5.2849e-09
5.1164e-09
5.22638e-09
5.44061e-09
5.17321e-09
5.03093e-09
5.11225e-09
6.96705e-09
6.88043e-09
6.77178e-09
6.56141e-09
6.74279e-09
7.15228e-09
7.1477e-09
7.26105e-09
7.39973e-09
6.79344e-09
6.46603e-09
6.60177e-09
2.09007e-08
1.96389e-08
1.75747e-08
1.5642e-08
1.69256e-08
2.05813e-08
2.22227e-08
2.21787e-08
2.14879e-08
1.8454e-08
1.68958e-08
1.74148e-08
7.38599e-08
6.80405e-08
5.84671e-08
5.00345e-08
5.53549e-08
7.13007e-08
7.96262e-08
7.88352e-08
7.46205e-08
6.25839e-08
5.66225e-08
5.85902e-08
2.15196e-07
1.9679e-07
1.66618e-07
1.40633e-07
1.56379e-07
2.05428e-07
2.33004e-07
2.29826e-07
2.14892e-07
1.79407e-07
1.62481e-07
1.6827e-07
5.11872e-07
4.66153e-07
3.91626e-07
3.28241e-07
3.64938e-07
4.83956e-07
5.54859e-07
5.46027e-07
5.05622e-07
4.22511e-07
3.84521e-07
3.98086e-07
1.03111e-06
9.36186e-07
7.82632e-07
6.52865e-07
7.24075e-07
9.65681e-07
1.1171e-06
1.09774e-06
1.00761e-06
8.44573e-07
7.73554e-07
7.99963e-07
1.81785e-06
1.64715e-06
1.37287e-06
1.14102e-06
1.26059e-06
1.68702e-06
1.96615e-06
1.93086e-06
1.75851e-06
1.48009e-06
1.36498e-06
1.40916e-06
2.88025e-06
2.60623e-06
2.16951e-06
1.79838e-06
1.97663e-06
2.64949e-06
3.10746e-06
3.05218e-06
2.76072e-06
2.33468e-06
2.16841e-06
2.2337e-06
4.18879e-06
3.78747e-06
3.15377e-06
2.61012e-06
2.85084e-06
3.82109e-06
4.50537e-06
4.42929e-06
3.98306e-06
3.3854e-06
3.1667e-06
3.25387e-06
5.61043e-06
5.10134e-06
4.28741e-06
3.54635e-06
3.84541e-06
5.10507e-06
5.98455e-06
5.91423e-06
5.34524e-06
4.58838e-06
4.30796e-06
4.39291e-06
6.92758e-06
6.29923e-06
5.32327e-06
4.42978e-06
4.74296e-06
6.26053e-06
7.36861e-06
7.29494e-06
6.56812e-06
5.65904e-06
5.34307e-06
5.44124e-06
8.30622e-06
7.55219e-06
6.38826e-06
5.3165e-06
5.65337e-06
7.45222e-06
8.80917e-06
8.73703e-06
7.83488e-06
6.77221e-06
6.43486e-06
6.54482e-06
9.72763e-06
8.84337e-06
7.4884e-06
6.23525e-06
6.58318e-06
8.66213e-06
1.02854e-05
1.0221e-05
9.12791e-06
7.9163e-06
7.57113e-06
7.69044e-06
1.11757e-05
1.01584e-05
8.61413e-06
7.18074e-06
7.52502e-06
9.87582e-06
1.17795e-05
1.17306e-05
1.04336e-05
9.08028e-06
8.74189e-06
8.86754e-06
1.26385e-05
1.14871e-05
9.75972e-06
8.15126e-06
8.47604e-06
1.10841e-05
1.32778e-05
1.32546e-05
1.17439e-05
1.02571e-05
9.9404e-06
1.00692e-05
1.41096e-05
1.28245e-05
1.09238e-05
9.14899e-06
9.43842e-06
1.22838e-05
1.47728e-05
1.47872e-05
1.30566e-05
1.14445e-05
1.11638e-05
1.12927e-05
1.55893e-05
1.41715e-05
1.21095e-05
1.01802e-05
1.04194e-05
1.34781e-05
1.62642e-05
1.63293e-05
1.43759e-05
1.26454e-05
1.24137e-05
1.25401e-05
1.7085e-05
1.55356e-05
1.33257e-05
1.12558e-05
1.14315e-05
1.46768e-05
1.77599e-05
1.78895e-05
1.57126e-05
1.38687e-05
1.36973e-05
1.3819e-05
1.86125e-05
1.69308e-05
1.4587e-05
1.23921e-05
1.24929e-05
1.58965e-05
1.92756e-05
1.94844e-05
1.7084e-05
1.51304e-05
1.50286e-05
1.51441e-05
2.01944e-05
1.8378e-05
1.59146e-05
1.3611e-05
1.36276e-05
1.71605e-05
2.08337e-05
2.11376e-05
1.85143e-05
1.64531e-05
1.64283e-05
1.6537e-05
2.18585e-05
1.99039e-05
1.7336e-05
1.49405e-05
1.48651e-05
1.84988e-05
2.24624e-05
2.28781e-05
2.00335e-05
1.78663e-05
1.79241e-05
1.80265e-05
2.36384e-05
2.15413e-05
1.88852e-05
1.64133e-05
1.62402e-05
1.99482e-05
2.41963e-05
2.4741e-05
2.16775e-05
1.9405e-05
1.95503e-05
1.96488e-05
2.55756e-05
2.33306e-05
2.06025e-05
1.80671e-05
1.77946e-05
2.15538e-05
2.60805e-05
2.67703e-05
2.34886e-05
2.11108e-05
2.13496e-05
2.1451e-05
2.77266e-05
2.53243e-05
2.25378e-05
1.99489e-05
1.9579e-05
2.33741e-05
2.81783e-05
2.90272e-05
2.55201e-05
2.3035e-05
2.3379e-05
2.34977e-05
3.01719e-05
2.75929e-05
2.47551e-05
2.21185e-05
2.16595e-05
2.54876e-05
3.05804e-05
3.16009e-05
2.78426e-05
2.52452e-05
2.57188e-05
2.58799e-05
3.30288e-05
3.02341e-05
2.73414e-05
2.46581e-05
2.41262e-05
2.80018e-05
3.34176e-05
3.46229e-05
3.05545e-05
2.78358e-05
2.84853e-05
2.87287e-05
3.64644e-05
3.33833e-05
3.04173e-05
2.76852e-05
2.7107e-05
3.10657e-05
3.68746e-05
3.82833e-05
3.37963e-05
3.0941e-05
3.18463e-05
3.22305e-05
4.07137e-05
3.72267e-05
3.41518e-05
3.1372e-05
3.07857e-05
3.48858e-05
4.12092e-05
4.28529e-05
3.77683e-05
3.47538e-05
3.60417e-05
3.66477e-05
4.61008e-05
4.20186e-05
3.87824e-05
3.59694e-05
3.54276e-05
3.97485e-05
4.67806e-05
4.87131e-05
4.2755e-05
3.95498e-05
4.14095e-05
4.23472e-05
5.30716e-05
4.8105e-05
4.46406e-05
4.18395e-05
4.14133e-05
4.60525e-05
5.40865e-05
5.64027e-05
4.91586e-05
4.572e-05
4.84241e-05
4.98423e-05
6.20563e-05
5.5747e-05
5.19747e-05
4.92905e-05
4.90872e-05
5.41684e-05
6.36649e-05
6.65247e-05
5.73461e-05
5.36072e-05
5.75729e-05
5.96916e-05
7.37566e-05
6.53942e-05
6.1229e-05
5.88646e-05
5.90473e-05
6.47285e-05
7.6402e-05
8.00803e-05
6.79484e-05
6.38021e-05
6.96509e-05
7.28001e-05
8.92655e-05
7.7742e-05
7.31008e-05
7.14157e-05
7.22443e-05
7.87446e-05
9.36803e-05
9.86773e-05
8.19721e-05
7.72319e-05
8.59016e-05
9.05923e-05
0.000110285
9.38463e-05
8.866e-05
8.82755e-05
9.01873e-05
9.77995e-05
0.000114841
0.00012316
0.000101006
9.5343e-05
0.000108276
0.000115303
0.000139147
0.00011527
0.000109546
0.000111552
0.000115251
0.000121261
0.000139071
0.000150024
0.000126234
0.00012034
0.000139716
0.000148447
0.000170242
0.000140376
0.000136188
0.000142752
0.00014523
0.00014828
0.000170753
0.000185512
0.000153966
0.000149443
0.000174632
0.000186149
0.000211087
0.000170397
0.000166243
0.000177726
0.000181711
0.000183624
0.000212435
0.000232594
0.000190426
0.000185666
0.000220293
0.000236198
0.000264975
0.000209315
0.000205554
0.000224172
0.000230191
0.000230115
0.000267332
0.000294908
0.000238658
0.000233645
0.000280742
0.000302654
0.000335921
0.000260162
0.000257374
0.000286026
0.000294708
0.00029129
0.000338124
0.000374462
0.000302509
0.000297238
0.000360106
0.000388846
0.000425773
0.000326673
0.000325807
0.000367298
0.000378373
0.000369031
0.000426653
0.00047342
0.000384166
0.000379801
0.000460639
0.000497804
0.000537399
0.000410293
0.000412653
0.000470194
0.000483826
0.000465618
0.000535476
0.000593596
0.000485957
0.000483363
0.000585821
0.000633102
0.000673264
0.000513427
0.000520648
0.000598448
0.00061461
0.000583533
0.000666228
0.000735174
0.000610346
0.000610889
0.000738317
0.000796936
0.000834251
0.000638755
0.000652662
0.000754877
0.000773088
0.000724213
0.000819061
0.000896516
0.000758306
0.00076403
0.00091895
0.000989102
0.00101906
0.000787946
0.000810279
0.000940334
0.000959551
0.000887539
0.000992252
0.00107462
0.000928615
0.000942237
0.001126
0.00120624
0.00122393
0.000961001
0.000993089
0.00115296
0.00117157
0.00107151
0.00118212
0.00126523
0.00111741
0.00114221
0.00135486
0.00144182
0.0014429
0.00115571
0.00119819
0.00138801
0.00140389
0.00127221
0.00138332
0.00146267
0.00131821
0.00135787
0.00159781
0.00168717
0.00166845
0.00136749
0.00142018
0.00163811
0.00164904
0.001484
0.0015892
0.00138297
0.0015225
0.00158093
0.00184457
0.00193299
0.00189239
0.0015897
0.00165168
0.00189383
0.00189839
0.00169871
0.00154134
0.00131766
0.00146965
0.00177815
0.00208447
0.0021708
0.00210682
0.00181456
0.00188442
0.0021453
0.00214283
0.00168906
0.00148953
0.00129352
0.00135508
0.00172476
0.00230825
0.00239346
0.00222046
0.00203533
0.00211076
0.00238355
0.00237387
0.00170774
0.00148108
0.00130858
0.00127774
0.00168042
0.00250902
0.00259542
0.00204824
0.00189582
0.00203766
0.00260183
0.00258455
0.00178477
0.00151485
0.00135649
0.00124193
0.00166878
0.00268213
0.00277334
0.00189586
0.00175802
0.00193605
0.00279729
0.00277018
0.00193044
0.00158953
0.00143082
0.00123832
0.00169165
0.00282284
0.00292595
0.00179733
0.00167217
0.00188689
0.00297034
0.00292878
0.00215621
0.00170515
0.00152705
0.00125724
0.00174717
0.00293797
0.00305371
0.00173966
0.00161789
0.00187748
0.00311184
0.00306174
0.00247393
0.0018638
0.00164209
0.00129233
0.00183305
0.00303232
0.00315829
0.00170713
0.00158669
0.00189774
0.00322306
0.00317288
0.0028673
0.00206901
0.00177335
0.00133989
0.00195055
0.00310955
0.00324235
0.00169152
0.00157424
0.00194002
0.00330494
0.00325873
0.00307002
0.00232059
0.00191777
0.00139792
0.00210418
0.0031732
0.00330907
0.00168978
0.00157754
0.00199853
0.00336336
0.00332148
0.00314858
0.00261216
0.00207069
0.00146558
0.00229739
0.0032263
0.00336203
0.00170099
0.00159467
0.00206965
0.00340372
0.00336479
0.00321187
0.00292158
0.00222541
0.0015427
0.00253029
0.00327047
0.0033658
0.00172517
0.00162461
0.00215175
0.00343046
0.00339193
0.00326267
0.0031726
0.00237367
0.0016296
0.0028081
0.00330714
0.00332824
0.00176278
0.00166723
0.00224479
0.00344699
0.00340637
0.00330428
0.00320271
0.00250885
0.00172682
0.00313175
0.00333744
0.00331503
0.00181445
0.0017235
0.00235015
0.00345585
0.00341438
0.0033334
0.00322693
0.00262711
0.00183462
0.00321392
0.00336213
0.00332938
0.00188076
0.00179585
0.00247074
0.00345964
0.00341869
0.00335228
0.00324643
0.00272431
0.00195225
0.00324024
0.00338259
0.00337549
0.00196211
0.00188857
0.00261122
0.00345897
0.0034205
0.00336269
0.00326216
0.00279726
0.00207751
0.00326438
0.00339978
0.00345843
0.00205895
0.00200807
0.0027782
0.00345499
0.00342034
0.00336867
0.00327476
0.00284542
0.00220653
0.00328598
0.00341438
0.0035153
0.00217204
0.0021632
0.00297977
0.00344831
0.00341857
0.00337136
0.00328466
0.00286931
0.00233397
0.00330573
0.00342674
0.00352241
0.00230263
0.00236489
0.00322399
0.00343931
0.00341545
0.00337106
0.00329209
0.00286914
0.00245355
0.00332417
0.00343706
0.00352834
0.00245206
0.00262321
0.00348276
0.00342818
0.00341105
0.00336799
0.00329713
0.00284481
0.0025589
0.00334097
0.00344538
0.00353319
0.00262081
0.00294169
0.00347878
0.00341505
0.00340552
0.00336248
0.00329977
0.00279699
0.00264498
0.00335535
0.00345163
0.00353704
0.00280591
0.00329016
0.00347176
0.00340012
0.00339835
0.0033548
0.0033
0.00272825
0.00270945
0.00336683
0.00345576
0.00354001
0.00299953
0.00350265
0.0034609
0.00338355
0.00338904
0.00334527
0.00329783
0.00264297
0.00275177
0.00337538
0.00345782
0.00354226
0.00319314
0.00349663
0.00344501
0.00336555
0.00337677
0.00330785
0.00329344
0.00254646
0.00277234
0.00338106
0.00345798
0.00354403
0.00337371
0.00348533
0.00342338
0.00334641
0.0033618
0.00318585
0.00324347
0.00244469
0.00277313
0.00338395
0.00345657
0.00354558
0.00349096
0.00346873
0.00339598
0.00332653
0.00334577
0.00310295
0.00301386
0.00234496
0.00275846
0.00338455
0.00345415
0.00354723
0.00347429
0.00344807
0.00336589
0.00330627
0.00332929
0.00305048
0.00284687
0.00225512
0.00273489
0.00338361
0.00345138
0.00354932
0.00345488
0.00342427
0.00333387
0.00328614
0.00331276
0.00302224
0.00273773
0.00218169
0.00271079
0.00338202
0.00344909
0.00355212
0.00343334
0.00339854
0.0033012
0.00326928
0.00329795
0.00301262
0.0026735
0.00212898
0.00269502
0.0033808
0.00344809
0.00355584
0.00341001
0.00337208
0.00326937
0.00325521
0.00328799
0.00301375
0.00264299
0.00209932
0.00269486
0.00338089
0.00344903
0.00356053
5.72536e-09
5.76276e-09
5.85732e-09
5.86984e-09
5.92193e-09
5.95154e-09
5.83044e-09
5.89713e-09
6.06958e-09
5.78019e-09
5.6703e-09
5.78444e-09
5.61355e-09
5.63978e-09
5.71e-09
5.7108e-09
5.77096e-09
5.82171e-09
5.71682e-09
5.76985e-09
5.92533e-09
5.64611e-09
5.54687e-09
5.66451e-09
9.60762e-09
9.45256e-09
9.14069e-09
8.92648e-09
9.19668e-09
9.69741e-09
9.80118e-09
9.65705e-09
9.64629e-09
9.2542e-09
9.25416e-09
9.5639e-09
3.87094e-08
3.73551e-08
3.45441e-08
3.29356e-08
3.45989e-08
3.80673e-08
3.95485e-08
3.81218e-08
3.70354e-08
3.58064e-08
3.6457e-08
3.80869e-08
1.49078e-07
1.43095e-07
1.3081e-07
1.24045e-07
1.30863e-07
1.45387e-07
1.52264e-07
1.4596e-07
1.40554e-07
1.36421e-07
1.39775e-07
1.46357e-07
4.43612e-07
4.24948e-07
3.87381e-07
3.67227e-07
3.87394e-07
4.30745e-07
4.52475e-07
4.3308e-07
4.15314e-07
4.04533e-07
4.15986e-07
4.35535e-07
1.06044e-06
1.01472e-06
9.24932e-07
8.77848e-07
9.24765e-07
1.02612e-06
1.07915e-06
1.03248e-06
9.87373e-07
9.65688e-07
9.96152e-07
1.0419e-06
2.13544e-06
2.04255e-06
1.86491e-06
1.77364e-06
1.86435e-06
2.06058e-06
2.16641e-06
2.07316e-06
1.97929e-06
1.94488e-06
2.01194e-06
2.10089e-06
3.75754e-06
3.59427e-06
3.29225e-06
3.14085e-06
3.2917e-06
3.61801e-06
3.79795e-06
3.63711e-06
3.47034e-06
3.42738e-06
3.55482e-06
3.70427e-06
5.9404e-06
5.68656e-06
5.23273e-06
5.01114e-06
5.23355e-06
5.71336e-06
5.98004e-06
5.73327e-06
5.47417e-06
5.43458e-06
5.6489e-06
5.87278e-06
8.62298e-06
8.26635e-06
7.65023e-06
7.3585e-06
7.65575e-06
8.29323e-06
8.64447e-06
8.29964e-06
7.93989e-06
7.92256e-06
8.249e-06
8.55588e-06
1.1553e-05
1.12013e-05
1.04606e-05
1.01103e-05
1.04769e-05
1.12224e-05
1.14896e-05
1.10731e-05
1.07629e-05
1.07978e-05
1.12082e-05
1.15699e-05
1.42673e-05
1.38591e-05
1.30966e-05
1.27373e-05
1.31196e-05
1.38802e-05
1.41504e-05
1.36487e-05
1.33002e-05
1.3412e-05
1.38991e-05
1.43375e-05
1.71094e-05
1.66469e-05
1.58008e-05
1.54204e-05
1.5845e-05
1.66678e-05
1.69285e-05
1.63378e-05
1.5953e-05
1.61321e-05
1.67328e-05
1.72504e-05
2.00446e-05
1.95312e-05
1.86154e-05
1.82273e-05
1.86857e-05
1.95526e-05
1.9791e-05
1.91088e-05
1.86893e-05
1.895e-05
1.96782e-05
2.02773e-05
2.30454e-05
2.24846e-05
2.15152e-05
2.11346e-05
2.16172e-05
2.25096e-05
2.27126e-05
2.19386e-05
2.14848e-05
2.18389e-05
2.27098e-05
2.33941e-05
2.60958e-05
2.54891e-05
2.44822e-05
2.41256e-05
2.46241e-05
2.55242e-05
2.56791e-05
2.48148e-05
2.4326e-05
2.47806e-05
2.58107e-05
2.65864e-05
2.91918e-05
2.85369e-05
2.7507e-05
2.71919e-05
2.77005e-05
2.85927e-05
2.86887e-05
2.77372e-05
2.721e-05
2.77668e-05
2.89736e-05
2.98503e-05
3.23423e-05
3.16302e-05
3.0589e-05
3.03341e-05
3.08506e-05
3.1722e-05
3.17528e-05
3.07185e-05
3.01451e-05
3.08001e-05
3.22026e-05
3.31932e-05
3.55692e-05
3.47811e-05
3.37378e-05
3.35642e-05
3.4089e-05
3.49288e-05
3.48952e-05
3.3784e-05
3.31503e-05
3.38955e-05
3.55151e-05
3.66348e-05
3.89066e-05
3.80114e-05
3.69744e-05
3.69079e-05
3.74426e-05
3.82395e-05
3.81512e-05
3.69714e-05
3.62561e-05
3.70812e-05
3.89425e-05
4.0207e-05
4.23979e-05
4.13514e-05
4.03293e-05
4.04028e-05
4.09498e-05
4.16891e-05
4.15644e-05
4.03282e-05
3.95022e-05
4.03973e-05
4.25279e-05
4.39536e-05
4.60929e-05
4.48371e-05
4.38403e-05
4.4094e-05
4.46563e-05
4.53187e-05
4.51853e-05
4.39094e-05
4.29359e-05
4.38908e-05
4.63225e-05
4.79273e-05
5.00462e-05
4.85087e-05
4.75493e-05
4.80324e-05
4.86143e-05
4.91762e-05
4.90716e-05
4.77781e-05
4.66094e-05
4.76132e-05
5.03847e-05
5.219e-05
5.43219e-05
5.24109e-05
5.15023e-05
5.2273e-05
5.2882e-05
5.33184e-05
5.32934e-05
5.20104e-05
5.05811e-05
5.16206e-05
5.4784e-05
5.6818e-05
5.90019e-05
5.65969e-05
5.57533e-05
5.68815e-05
5.75312e-05
5.78173e-05
5.79415e-05
5.67056e-05
5.49216e-05
5.59805e-05
5.96119e-05
6.19125e-05
6.41984e-05
6.11363e-05
6.03725e-05
6.19484e-05
6.2661e-05
6.27696e-05
6.31382e-05
6.19996e-05
5.97248e-05
6.07844e-05
6.49985e-05
6.76149e-05
7.00664e-05
6.61236e-05
6.54594e-05
6.76083e-05
6.84171e-05
6.83102e-05
6.90485e-05
6.80788e-05
6.51225e-05
6.61652e-05
7.11312e-05
7.41219e-05
7.68147e-05
7.16884e-05
7.11556e-05
7.4062e-05
7.50134e-05
7.46267e-05
7.58913e-05
7.51933e-05
7.13013e-05
7.23165e-05
7.82727e-05
8.16994e-05
8.47155e-05
7.8006e-05
7.76597e-05
8.15979e-05
8.27535e-05
8.19746e-05
8.39526e-05
8.36708e-05
7.85187e-05
7.95125e-05
8.67758e-05
9.06915e-05
9.41001e-05
8.53093e-05
8.52431e-05
9.06107e-05
9.20488e-05
9.06913e-05
9.35978e-05
9.39289e-05
8.71212e-05
8.81264e-05
9.70804e-05
0.000101522
0.000105376
9.38837e-05
9.42435e-05
0.000101585
0.000103411
0.000101201
0.000105306
0.000106511
9.75525e-05
9.86252e-05
0.000109746
0.000114743
0.000119146
0.000104075
0.000105063
0.000115166
0.000117556
0.00011411
0.000119795
0.000122233
0.000110387
0.000111636
0.000125641
0.000131233
0.000136353
0.000116449
0.000118354
0.000132379
0.00013563
0.000130395
0.000138204
0.000142404
0.000126568
0.000128172
0.000146141
0.000152351
0.000158435
0.000131858
0.000135109
0.000154829
0.000159455
0.000151604
0.000162337
0.000169118
0.000147592
0.000149838
0.000173412
0.000180197
0.000187635
0.000151588
0.000156847
0.00018508
0.000191998
0.000180229
0.000194901
0.000205456
0.000175821
0.000179232
0.000210949
0.000218097
0.000227414
0.000177556
0.000185953
0.000227225
0.0002379
0.000220008
0.000231657
0.000241134
0.000211976
0.000220296
0.000264113
0.000271111
0.000275372
0.00021013
0.000224867
0.0002795
0.00028735
0.000258054
0.000272967
0.000285542
0.000247954
0.000261899
0.000321053
0.000331295
0.000327731
0.000244638
0.000263877
0.00033675
0.00034747
0.000307434
0.000326916
0.00034302
0.000295161
0.000313724
0.000389401
0.000400749
0.000395944
0.000289922
0.000315522
0.000413794
0.000427612
0.00037301
0.000395785
0.000414836
0.000357405
0.000382861
0.000476533
0.000488531
0.000479911
0.000349363
0.000383641
0.000512336
0.000528935
0.000455339
0.000480447
0.000501959
0.000435855
0.00046985
0.000583181
0.000595581
0.000581647
0.000424809
0.00046906
0.000635343
0.000654833
0.000556597
0.000583215
0.000606401
0.000532277
0.00057685
0.000711333
0.00072392
0.000703431
0.000517647
0.000574127
0.000786223
0.000808187
0.000679169
0.00070606
0.000729693
0.000649003
0.000706151
0.000861754
0.000874533
0.000846766
0.000630622
0.000701713
0.000966825
0.000990053
0.000824374
0.000849955
0.000872493
0.000787276
0.000858664
0.0010336
0.00104693
0.00101189
0.000766068
0.00085381
0.00117649
0.00119883
0.000991923
0.00101443
0.00103416
0.000946633
0.0010333
0.00122438
0.001239
0.00119729
0.00092516
0.00103088
0.00141149
0.00142988
0.00117962
0.00119725
0.00121235
0.00112451
0.0012267
0.00143062
0.00144704
0.00139942
0.00110731
0.00123134
0.00166557
0.00167588
0.00138348
0.00139446
0.00140307
0.00131624
0.00143348
0.00164952
0.0016661
0.00161278
0.00130974
0.0014513
0.00193258
0.00192837
0.0015984
0.00160069
0.00160119
0.00151554
0.00164715
0.00187268
0.00189037
0.00183051
0.00152738
0.00168478
0.00220238
0.00218015
0.00181859
0.00180978
0.00180134
0.00171529
0.0018603
0.00208738
0.00211402
0.00204542
0.00175324
0.00192423
0.00245757
0.00242669
0.00203739
0.0020146
0.0016978
0.00174381
0.00187509
0.00228691
0.00233267
0.00225054
0.00197923
0.00216148
0.00268759
0.0026535
0.00215408
0.00190012
0.00160997
0.00157149
0.00181615
0.00246706
0.00253857
0.00243871
0.0021973
0.00238865
0.00288567
0.00285061
0.00215755
0.0018038
0.00157772
0.00145869
0.00179791
0.00262459
0.00272252
0.0024347
0.0024003
0.00259845
0.00304785
0.00301309