/*--------------------------------*- C++ -*----------------------------------*\
| =========                 |                                                 |
| \\      /  F ield         | OpenFOAM: The Open Source CFD Toolbox           |
|  \\    /   O peration     | Version:  v1912                                 |
|   \\  /    A nd           | Website:  www.openfoam.com                      |
|    \\/     M anipulation  |                                                 |
\*---------------------------------------------------------------------------*/
FoamFile
{
    version     2.0;
    format      ascii;
    class       volScalarField;
    location    "8.4";
    object      omega;
}
// * * * * * * * * * * * * * * * * * * * * * * * * * * * * * * * * * * * * * //

dimensions      [0 0 -1 0 0 0 0];


internalField   nonuniform List<scalar> 
34128
(
156509
156509
156509
156509
156509
156509
156509
156509
156509
156509
156509
156509
25869
25867.2
25872.1
25871.7
25871.2
25870.4
25867.3
25869.7
25869.5
25865.6
25865.5
25866.4
8913.35
8912.13
8916.36
8916.25
8915.82
8915.02
8912.3
8914.37
8914.81
8911.13
8910.6
8911.38
4284.86
4284.3
4288.01
4288.09
4287.91
4287.07
4284.32
4286.2
4287.55
4283.92
4282.83
4283.63
2498.58
2498.51
2501.72
2501.87
2502.08
2501.43
2498.55
2500.3
2502.51
2498.59
2496.91
2497.9
1656.1
1656.32
1658.8
1658.82
1659.59
1659.49
1656.62
1658.17
1660.98
1656.6
1654.41
1655.71
1205.24
1205.52
1206.97
1206.62
1208.09
1208.95
1206.37
1207.59
1210.62
1205.74
1203.19
1204.86
942.155
942.288
942.404
941.468
943.721
945.884
943.812
944.555
947.456
942.152
939.452
941.532
778.215
778.007
776.684
774.991
778.018
781.645
780.401
780.538
782.889
777.371
774.694
777.066
670.328
669.647
666.774
664.294
668.014
673.173
673.002
672.451
673.912
668.328
665.853
668.466
595.713
594.493
590.092
586.78
591.064
597.746
598.818
597.544
597.876
592.387
590.289
593.067
541.591
539.815
534.005
529.886
534.564
542.644
545.06
543.08
542.138
536.89
535.323
538.185
500.45
498.142
491.103
486.253
491.149
500.415
504.214
501.586
499.309
494.422
493.507
496.378
467.707
464.919
456.861
451.393
456.321
466.523
471.689
468.507
464.908
460.465
460.289
463.102
440.473
437.283
428.413
422.467
427.259
438.119
444.589
440.968
436.124
432.177
432.78
435.478
416.864
413.246
403.886
397.617
402.132
413.312
421.005
417.093
411.111
407.711
409.084
411.614
395.614
391.563
382.016
375.594
379.713
390.861
399.509
395.62
388.638
385.833
387.912
390.223
375.844
371.378
361.932
355.536
359.161
369.91
379.247
375.679
367.857
365.683
368.365
370.406
356.813
352.103
343.024
336.837
339.887
349.903
359.636
356.484
348.178
346.659
349.801
351.439
338.117
333.304
324.868
319.065
321.474
330.433
340.318
337.625
329.187
328.334
331.759
332.85
319.492
314.681
307.144
301.912
303.631
311.232
320.929
318.828
310.604
310.408
313.912
314.354
300.723
296.041
289.595
285.159
286.16
292.138
301.284
299.935
292.21
292.672
295.993
295.754
281.696
277.29
272.1
268.655
268.937
273.068
281.302
280.814
273.895
274.968
277.907
276.921
262.374
258.406
254.573
252.301
251.904
254.005
260.989
261.425
255.583
257.202
259.578
257.801
242.782
239.424
237.004
236.054
234.887
234.981
240.413
241.788
237.323
239.424
240.992
238.405
222.983
220.422
219.488
219.683
217.892
216.071
219.676
221.97
219.175
221.695
222.174
218.783
203.069
201.502
202.089
203.25
200.92
197.355
198.908
202.066
201.165
204.003
203.177
199.011
183.139
182.782
184.849
186.81
183.965
178.92
178.236
182.179
183.327
186.363
184.067
179.169
163.303
164.4
167.811
170.389
167.133
160.855
157.832
162.41
165.698
168.803
164.908
159.345
143.99
146.707
151.021
153.983
150.417
143.447
138.482
142.997
148.33
151.368
145.882
139.996
126.142
130.237
134.803
137.66
134.038
127.081
120.871
124.796
131.594
134.49
127.9
122.026
109.887
114.997
119.492
122.048
118.642
111.827
105.064
108.155
115.92
118.681
111.336
105.682
95.0732
100.937
105.168
107.528
104.405
97.708
90.8009
93.1129
101.369
103.971
96.2287
90.8349
81.6521
87.9971
91.865
94.1374
91.3148
84.8134
77.9597
79.6339
88.0627
90.5196
82.5627
77.4174
69.6017
76.1703
79.6493
81.8555
79.3421
73.218
66.4559
67.6668
76.0333
78.2923
70.3129
65.4159
58.8987
65.4692
68.6038
70.6691
68.4696
62.872
56.2918
57.1537
65.2312
67.2642
59.451
54.8387
49.554
55.9245
58.7183
60.5744
58.6887
53.7265
47.4768
48.0344
55.6196
57.4154
49.9406
45.7252
41.5116
47.5424
49.9757
51.5691
49.9906
45.7288
39.9175
40.2248
47.1679
48.7263
41.7332
37.9618
34.6783
40.2276
42.3388
43.644
42.3588
38.7832
33.4084
33.4901
39.7974
41.1573
34.7498
31.4211
28.8086
33.7746
35.6521
36.7521
35.7161
32.6798
27.792
27.6944
33.3235
34.5222
28.7594
25.8609
23.7844
28.0927
29.7766
30.7165
29.8905
27.3276
23.0547
22.8618
27.6831
28.7087
23.6467
21.1738
19.6201
23.2662
24.7367
25.4581
24.8284
22.7732
19.1198
18.8949
22.9216
23.7738
19.4301
17.352
16.2004
19.2339
20.4977
21.0229
20.5602
18.9456
15.8845
15.6769
18.9625
19.6492
15.9962
14.2714
13.413
15.9119
16.9777
17.3346
17.009
15.7697
13.2513
13.0919
15.7165
16.2485
13.2296
11.8101
11.1628
13.209
14.0891
14.3067
14.0904
13.1668
11.1271
11.0311
13.0896
13.4801
11.0199
9.85476
9.36687
11.0339
11.7444
11.8502
11.7185
11.0566
9.42526
9.39673
10.9882
11.2524
9.26606
8.30514
7.94781
9.30013
9.8591
9.87771
9.80975
9.36078
8.06789
8.10104
9.32331
9.47808
7.87942
7.07813
6.83505
7.92837
8.35493
8.30767
8.28644
8.00684
6.99177
7.06819
8.01382
8.07676
6.78496
6.1106
5.96684
6.84887
7.16183
7.06657
7.07853
6.93038
6.14194
6.2405
6.98848
6.97694
5.92154
5.35208
5.29129
6.00193
6.21885
6.09058
6.1251
6.07603
5.46726
5.57514
6.186
6.11691
5.24056
4.76001
4.76607
5.33787
5.47443
5.32578
5.37475
5.39677
4.92881
5.04108
5.55768
5.44457
4.70401
4.29907
4.35728
4.81644
4.8859
4.7279
4.78526
4.85487
4.49853
4.60693
5.06581
4.91882
4.28202
3.94071
4.03878
4.40657
4.41905
4.26125
4.32271
4.42167
4.15446
4.25142
4.67384
4.50818
3.94982
3.66229
3.79114
4.07747
4.0488
3.89746
3.96019
4.07538
3.87844
3.96439
4.35873
4.18332
3.68436
3.44626
3.59461
3.81024
3.75501
3.61438
3.67652
3.79917
3.65817
3.73544
4.1098
3.92463
3.47739
3.27898
3.43669
3.59829
3.521
3.39546
3.45503
3.57974
3.48494
3.5544
3.9153
3.7212
3.3179
3.14986
3.3145
3.43376
3.33647
3.22782
3.28261
3.40626
3.35012
3.412
3.76329
3.56274
3.19548
3.05057
3.22344
3.30766
3.19433
3.10125
3.14945
3.26955
3.24562
3.30327
3.64312
3.43887
3.10188
2.97451
3.15232
3.21152
3.08708
3.0075
3.04779
3.16185
3.16065
3.21796
3.5461
3.34031
3.03032
2.91636
3.09587
3.13536
3.00742
2.93982
2.97118
3.07692
3.09217
3.15042
3.46621
3.25969
2.97473
2.87171
3.0501
3.07268
2.94865
2.89267
2.91326
3.00994
3.03712
3.09631
3.3986
3.19157
2.9307
2.83711
3.01178
3.02014
2.9049
2.86151
2.86964
2.95729
2.99269
3.05243
3.33865
3.13223
2.89505
2.81051
2.97783
2.97468
2.87151
2.84263
2.83951
2.91654
2.95675
3.01585
3.2831
3.07935
2.8647
2.79002
2.94608
2.93422
2.84522
2.83357
2.82043
2.88506
2.92772
2.98462
3.23034
3.03167
2.8385
2.7741
2.91557
2.89759
2.82401
2.83135
2.80999
2.86101
2.90443
2.95764
3.17983
2.98841
2.81553
2.76009
2.88629
2.86436
2.80657
2.83412
2.80609
2.84489
2.88606
2.93423
3.13159
2.94841
2.79518
2.74675
2.85877
2.83463
2.79209
2.84044
2.80712
2.83552
2.87197
2.91407
3.08606
2.91182
2.77706
2.73466
2.8338
2.80899
2.78048
2.84889
2.81193
2.83145
2.86174
2.89706
3.04353
2.87918
2.76101
2.72362
2.81215
2.78812
2.77239
2.85829
2.81944
2.83158
2.85501
2.88333
3.00261
2.85067
2.747
2.71355
2.79421
2.77229
2.76851
2.86766
2.82881
2.83492
2.8515
2.8731
2.96358
2.82655
2.73511
2.70446
2.78092
2.76154
2.76883
2.87623
2.83891
2.84064
2.85092
2.86654
2.92957
2.80621
2.72544
2.69645
2.77377
2.75597
2.77315
2.88356
2.84862
2.84777
2.85289
2.86373
2.90142
2.79017
2.71809
2.68962
2.77166
2.75587
2.78127
2.88951
2.85657
2.8565
2.85695
2.86453
2.87917
2.77858
2.71306
2.68402
2.77371
2.76129
2.79311
2.89419
2.86222
2.86665
2.86248
2.86856
2.8628
2.77131
2.71026
2.67968
2.77995
2.77217
2.80849
2.89783
2.8663
2.87635
2.86867
2.87506
2.85216
2.76807
2.70946
2.67655
2.79044
2.78819
2.82693
2.90072
2.86892
2.88468
2.87447
2.88303
2.84666
2.76841
2.7103
2.67457
2.80537
2.80879
2.84793
2.90304
2.87015
2.89078
2.8786
2.89122
2.84549
2.77155
2.71235
2.67364
2.82484
2.83323
2.87089
2.90476
2.86998
2.89397
2.87968
2.8983
2.8476
2.77662
2.71511
2.67368
2.84888
2.8606
2.89526
2.9059
2.86853
2.89447
2.8772
2.90305
2.8519
2.78262
2.71813
2.67462
156509
156509
156509
156509
156509
156509
156509
156509
156509
156509
156509
156509
25854.6
25850.7
25853.5
25852.1
25851.4
25853.6
25857.9
25857.7
25853.7
25847.4
25846.4
25846.8
8715.88
8678.14
8656.8
8648.78
8652.04
8687.05
8767.03
8741.39
8693.72
8659.84
8650.94
8652.74
4221.25
4208.69
4203.37
4200.33
4201.5
4213.47
4238.51
4230.99
4216.35
4202.13
4198.14
4199.34
2475.09
2469.99
2468.74
2467.01
2467.98
2473.68
2482.86
2480.46
2475.67
2466.88
2464.13
2465.47
1648.41
1645.98
1645.48
1643.94
1645.26
1649.34
1653.07
1652.31
1650.99
1643.94
1641.59
1643.32
1204.9
1203.39
1202.34
1200.45
1202.35
1206.58
1208.63
1208.23
1207.92
1201.41
1199.33
1201.52
945.466
944.12
941.896
939.342
941.894
947.095
949.074
948.497
947.999
941.645
939.882
942.513
783.523
781.748
778.129
774.944
777.984
784.403
787.296
786.291
784.814
778.613
777.43
780.418
676.66
674.287
669.278
665.414
668.827
676.494
680.659
679.151
676.354
670.391
669.907
673.136
602.442
599.4
593.159
588.674
592.295
601.062
606.627
604.65
600.39
594.776
595.083
598.426
548.288
544.562
537.343
532.364
536.015
545.624
552.565
550.227
544.506
539.337
540.486
543.824
506.813
502.42
494.531
489.23
492.743
502.87
511.053
508.514
501.445
496.788
498.779
502.007
473.516
468.489
460.256
454.83
458.067
468.354
477.564
475.014
466.792
462.684
465.47
468.496
445.553
439.93
431.684
426.342
429.196
439.274
449.233
446.876
437.762
434.221
437.703
440.439
421.065
415.016
406.957
401.908
404.303
413.837
424.19
422.221
412.532
409.566
413.599
415.952
398.791
392.488
384.816
380.263
382.142
390.815
401.347
399.767
389.867
387.484
391.878
393.745
377.86
371.476
364.389
360.516
361.844
369.352
379.805
378.612
368.908
367.119
371.649
372.911
357.784
351.359
345.064
342.03
342.783
348.876
358.92
358.301
349.048
347.868
352.28
352.899
338.092
331.739
326.406
324.337
324.505
329.003
338.266
338.367
329.857
329.299
333.327
333.353
318.446
312.366
308.132
307.089
306.675
309.498
317.609
318.485
311.035
311.105
314.481
313.873
298.689
293.1
290.124
290.035
289.053
290.257
296.835
298.452
292.431
293.072
295.654
294.262
278.761
273.891
272.301
273.012
271.481
271.14
275.933
278.213
273.915
275.087
276.633
274.453
258.683
254.752
254.514
255.769
253.784
252.052
254.973
257.794
255.426
257.075
257.391
254.456
238.541
235.743
236.748
238.34
236.128
233.058
234.083
237.285
236.961
239.012
237.967
234.346
218.466
216.955
219.039
220.956
218.483
214.242
213.431
216.828
218.56
220.927
218.461
214.251
198.627
198.495
201.452
203.581
200.868
195.705
193.203
196.6
200.298
202.891
199.018
194.341
179.203
180.468
184.077
186.224
183.326
177.557
173.579
176.802
182.282
185.009
179.821
174.813
160.372
162.976
167.02
168.974
165.979
159.915
154.706
157.639
164.638
167.412
161.08
155.874
142.28
146.103
150.406
151.999
148.985
142.9
136.67
139.298
147.509
150.25
143.02
137.72
125.025
129.953
134.376
135.502
132.53
126.66
119.771
121.918
131.043
133.688
125.828
120.476
108.932
114.821
119.088
119.672
116.787
111.356
104.232
105.694
115.401
117.892
109.657
104.377
94.1803
100.784
104.687
104.664
101.915
97.1135
90.1012
90.8893
100.728
103.017
94.6395
89.6203
80.8095
87.8144
91.2804
90.622
88.0565
84.0107
77.3514
77.5539
87.1296
89.1774
80.8805
76.2656
68.8159
75.9549
78.9392
77.6675
75.3278
72.0902
65.8803
65.6517
74.6847
76.4695
68.4533
64.3229
58.155
65.2222
67.6995
65.8938
63.811
61.3717
55.6987
55.1157
63.4472
64.9602
57.3933
53.738
48.735
55.6081
57.5759
55.3573
53.5497
51.8457
46.7614
45.8997
53.4373
54.6831
47.6963
44.4886
40.512
47.0761
48.5595
46.0717
44.5368
43.4699
38.9958
37.9359
44.6306
45.6267
39.3064
36.52
33.4166
39.5733
40.6144
37.9957
36.7165
36.1889
32.3374
31.1712
36.9846
37.7448
32.1374
29.7465
27.3937
33.0566
33.7042
31.0685
30.03
29.9592
26.719
25.5347
30.4643
30.998
26.1153
24.0899
22.3749
27.4803
27.7951
25.2392
24.4249
24.7214
22.0431
20.9142
25.0065
25.3339
21.1511
19.4541
18.2562
22.7692
22.8244
20.4301
19.8133
20.3792
18.2004
17.1832
20.508
20.6565
17.1204
15.7125
14.9254
18.8384
18.7066
16.5261
16.0759
16.8251
15.0801
14.2119
16.8533
16.8531
13.8932
12.7359
12.2692
15.5981
15.3448
13.4034
13.0881
13.9482
12.5729
11.8724
13.923
13.8042
11.3422
10.3994
10.1767
12.9578
12.6372
10.9384
10.7286
11.6411
10.5758
10.0426
11.6008
11.3912
9.34782
8.58702
8.54402
10.8297
10.4822
9.01457
8.88412
9.80411
8.99506
8.61117
9.77838
9.50251
7.80208
7.19515
7.27872
9.13093
8.78432
7.52599
7.45362
8.34838
7.74872
7.48728
8.35954
8.03696
6.61155
6.13385
6.30213
7.78629
7.45679
6.38053
6.34982
7.19772
6.76753
6.60265
7.2621
6.90691
5.70006
5.3275
5.55
6.72933
6.4245
5.50178
5.49989
6.28915
5.9957
5.88777
6.41848
6.03942
5.00681
4.7148
4.97152
5.90299
5.62442
4.82925
4.84513
5.57256
5.37405
5.29648
5.75717
5.37527
4.48196
4.24794
4.5273
5.25922
5.00498
4.31494
4.34051
4.99672
4.86233
4.81158
5.22457
4.85589
4.08564
3.89127
4.18421
4.75643
4.52433
3.92151
3.95167
4.52526
4.44499
4.42004
4.79659
4.44236
3.78711
3.61867
3.91301
4.35378
4.1415
3.61998
3.65244
4.14158
4.10944
4.1087
4.45849
4.11652
3.56369
3.41043
3.69693
4.02868
3.8313
3.38661
3.42263
3.83329
3.84334
3.86362
4.19589
3.86338
3.40147
3.25162
3.52845
3.77209
3.58402
3.20259
3.24628
3.58942
3.63462
3.67161
3.99349
3.66803
3.27922
3.13084
3.39968
3.57248
3.39045
3.06552
3.10994
3.39959
3.47216
3.52111
3.83702
3.51496
3.18479
3.03936
3.30176
3.41874
3.24152
2.96623
3.00246
3.25383
3.34646
3.40258
3.71432
3.3993
3.11056
2.97022
3.22647
3.30094
3.12847
2.89595
2.92258
3.14111
3.24984
3.3083
3.61557
3.31066
3.05082
2.91785
3.16809
3.21049
3.04323
2.84708
2.86511
3.05227
3.17463
3.23383
3.53319
3.23943
3.00146
2.87754
3.12091
3.14023
2.97891
2.81352
2.8251
2.98198
3.11425
3.17397
3.46172
3.17955
2.96031
2.84629
3.07972
3.08449
2.92999
2.79101
2.79897
2.92634
3.06646
3.12399
3.39759
3.12728
2.92565
2.82219
3.04103
3.0386
2.89231
2.7766
2.78359
2.88171
3.02727
3.08495
3.33856
3.08056
2.89623
2.80311
3.00365
2.99894
2.86276
2.76823
2.77382
2.85045
2.99523
3.05319
3.28318
3.03822
2.87124
2.78748
2.96736
2.96296
2.839
2.76385
2.76756
2.83014
2.96926
3.02676
3.2305
2.9993
2.84944
2.77424
2.93227
2.9291
2.81934
2.76298
2.76392
2.81892
2.94851
3.00448
3.18007
2.96338
2.82999
2.76283
2.89877
2.89672
2.80273
2.76463
2.76245
2.81314
2.93228
2.98563
3.13198
2.9309
2.81238
2.753
2.86751
2.86575
2.78857
2.76822
2.7628
2.81157
2.92008
2.9699
3.08676
2.90133
2.79637
2.74352
2.83919
2.8366
2.77664
2.77328
2.76461
2.81359
2.91154
2.9573
3.04518
2.87426
2.78191
2.73442
2.81452
2.80999
2.76684
2.7795
2.76761
2.81863
2.90636
2.94805
3.00815
2.85002
2.76914
2.72586
2.79402
2.78672
2.7591
2.78661
2.77144
2.82603
2.9043
2.94247
2.97669
2.82926
2.75828
2.71808
2.77775
2.76778
2.75343
2.79436
2.77628
2.83518
2.90511
2.94084
2.95018
2.81234
2.74956
2.71129
2.76554
2.75387
2.75077
2.80255
2.7823
2.84544
2.90847
2.94336
2.92891
2.79927
2.74318
2.70564
2.75727
2.74515
2.75244
2.81109
2.79
2.85623
2.91394
2.95041
2.91308
2.78999
2.7392
2.7012
2.75287
2.74169
2.75943
2.81988
2.79912
2.86694
2.92094
2.96207
2.90221
2.78444
2.73753
2.69794
2.75216
2.74401
2.77227
2.82886
2.80834
2.87717
2.92874
2.97613
2.89562
2.78226
2.73786
2.69574
2.75495
2.75156
2.78897
2.83812
2.81733
2.88615
2.93642
2.99077
2.89223
2.78283
2.73974
2.69439
2.76119
2.76407
2.80944
2.84765
2.82609
2.89331
2.94224
3.00401
2.89118
2.78539
2.74253
2.69366
2.771
2.78098
2.83309
2.85528
2.83355
2.89831
2.94364
3.01376
2.8918
2.789
2.74557
2.69336
2.78471
2.80166
2.8591
2.86194
2.83751
2.90116
2.9405
3.01792
2.89346
2.79277
2.74829
2.69333
156509
156509
156509
156509
156509
156509
156509
156509
156509
156509
156509
156509
25882
25882.3
25887.5
25887.1
25885.9
25884.5
25880.3
25882.5
25884.3
25881.1
25880.7
25880.8
8925.53
8925.79
8929.89
8929.39
8928.66
8927.83
8924.46
8926.29
8927.97
8924.8
8924.25
8924.54
4297.18
4297.39
4300.23
4299.58
4299.37
4299.36
4296.93
4298.32
4299.84
4296.44
4295.7
4296.4
2511.87
2511.8
2513.38
2512.46
2512.79
2513.82
2512.48
2513.44
2514.52
2510.66
2509.9
2511.09
1670.53
1669.92
1670.13
1668.84
1669.71
1671.96
1671.97
1672.48
1672.71
1668.38
1667.84
1669.52
1220.56
1219.18
1217.93
1216.23
1217.58
1221.12
1222.75
1222.78
1221.78
1217.1
1217.02
1219.14
957.914
955.561
952.88
950.804
952.524
957.285
960.705
960.276
957.737
952.926
953.529
955.963
793.812
790.563
786.598
784.055
786.104
791.961
797.017
796.209
792.125
787.362
788.669
791.256
685.25
681.028
676.039
673.22
675.41
682.05
688.667
687.611
681.975
677.455
679.543
682.12
609.566
604.368
598.679
595.799
597.952
605.011
612.99
611.854
604.8
600.664
603.542
605.962
554.091
547.964
541.916
539.2
541.165
548.267
557.322
556.29
548.057
544.393
548.003
550.144
511.398
504.423
498.349
496.014
497.678
504.457
514.251
513.504
504.397
501.248
505.479
507.244
476.961
469.241
463.442
461.686
462.971
469.093
479.261
478.966
469.325
466.706
471.398
472.709
447.914
439.571
434.312
433.297
434.159
439.339
449.478
449.805
439.984
437.897
442.849
443.638
422.383
413.561
409.063
408.91
409.328
413.336
423.086
424.068
414.484
412.931
417.914
418.122
399.022
389.959
386.417
387.198
387.163
389.814
398.83
400.474
391.54
390.525
395.293
394.867
376.988
367.925
365.491
367.226
366.74
367.894
375.865
378.187
370.258
369.782
374.086
372.987
355.7
346.89
345.672
348.335
347.406
346.968
353.634
356.598
350.016
350.068
353.666
351.794
334.758
326.477
326.542
330.074
328.716
326.615
331.776
335.307
330.337
330.932
333.6
330.848
313.91
306.455
307.71
311.844
310.166
306.528
310.085
314.073
310.897
312.066
313.502
309.973
293.027
286.695
288.998
293.436
291.484
286.524
288.47
292.779
291.544
293.135
293.196
289.02
272.073
267.143
270.279
274.759
272.589
266.61
266.932
271.403
272.2
274.085
272.685
267.933
251.079
247.793
251.594
255.954
253.561
246.859
245.535
249.995
252.825
254.908
251.957
246.734
230.129
228.68
232.939
236.897
234.313
227.266
224.38
228.658
233.439
235.599
231.065
225.499
209.335
209.864
214.346
217.596
214.891
207.865
203.591
207.526
214.098
216.203
210.105
204.338
188.827
191.418
195.873
198.145
195.383
188.714
183.299
186.754
194.889
196.801
189.204
183.381
168.733
173.414
177.593
178.665
175.903
169.887
163.635
166.501
175.915
177.494
168.49
162.758
149.197
155.914
159.573
159.285
156.571
151.455
144.75
146.932
157.283
158.389
148.108
142.64
130.647
138.988
141.886
140.138
137.528
133.537
127.039
128.357
139.109
139.619
128.567
123.7
113.728
122.997
124.847
121.762
119.355
116.662
110.742
111.367
121.693
121.698
110.604
106.507
98.3565
108.113
109.047
104.837
102.664
101.215
95.8202
96.092
105.619
105.212
94.3628
91.0115
84.4142
94.4237
94.6291
89.4838
87.5518
87.2323
82.2654
82.3288
91.064
90.2715
79.8358
77.086
71.8705
81.997
81.5776
75.71
74.0183
74.6689
70.109
70.0194
78.015
76.866
66.9896
64.7031
60.7153
70.7901
69.8508
63.4973
62.0395
63.4776
59.4355
59.1687
66.4222
64.9646
55.7833
53.8538
50.9525
60.7632
59.4103
52.8125
51.5809
53.616
50.1618
49.7797
56.2312
54.5298
46.1544
44.5491
42.5904
51.8766
50.2195
43.6099
42.5982
45.0407
42.1635
41.707
47.3709
45.515
38.017
36.7085
35.4902
44.0686
42.2299
35.8164
34.9972
37.6342
35.2146
34.7398
39.6726
37.7994
31.201
30.1629
29.4047
37.1744
35.2851
29.2088
28.5176
31.2015
29.2148
28.8053
32.9655
31.1531
25.4445
24.6443
24.2277
31.0882
29.2325
23.6096
23.0372
25.6901
24.1781
23.8724
27.235
25.495
20.6564
20.0473
19.9498
25.8514
24.0711
18.9987
18.5661
21.106
20.0023
19.8133
22.4498
20.8294
16.8053
16.3402
16.4521
21.419
19.7667
15.2901
14.9791
17.3466
16.5776
16.4999
18.5093
17.0371
13.7464
13.3862
13.6186
17.7165
16.2252
12.3503
12.1414
14.3025
13.7957
13.8119
15.3068
13.9947
11.3401
11.0528
11.3418
14.6624
13.3474
10.0498
9.92394
11.8645
11.555
11.642
12.7356
11.5817
9.45922
9.221
9.52509
12.1733
11.0354
8.26914
8.20843
9.92932
9.76301
9.89796
10.6934
9.68585
7.99307
7.78772
8.08463
10.1677
9.19667
6.90184
6.89105
8.40298
8.33803
8.50255
9.08589
8.20694
6.8476
6.66734
6.94901
8.5683
7.74658
5.85577
5.88378
7.20317
7.20942
7.39035
7.82908
7.05807
5.943
5.79082
6.05823
7.30406
6.61035
5.05058
5.11342
6.25963
6.31753
6.50518
6.85078
6.16607
5.23602
5.10375
5.36244
6.31206
5.72417
4.43315
4.51959
5.51541
5.61285
5.79912
6.09101
5.47368
4.69615
4.56331
4.82044
5.53825
5.03511
3.97215
4.05461
4.92721
5.05724
5.22396
5.49249
4.92987
4.28305
4.13466
4.39951
4.93751
4.50035
3.62997
3.70031
4.45849
4.61114
4.7517
5.0115
4.49613
3.96536
3.79811
4.07548
4.47281
4.08593
3.37731
3.43528
4.0804
4.2494
4.37183
4.62824
4.1589
3.72137
3.54015
3.82781
4.1147
3.76603
3.19305
3.23983
3.7776
3.96272
4.07101
4.3299
3.9021
3.53322
3.34402
3.63646
3.83956
3.52036
3.06369
3.09755
3.5406
3.73966
3.83518
4.1005
3.70832
3.38667
3.19553
3.48785
3.62422
3.33093
2.98006
2.99597
3.35907
3.56797
3.65155
3.92405
3.56337
3.2719
3.08372
3.37394
3.45417
3.18391
2.92087
2.92651
3.22187
3.43635
3.50926
3.78669
3.45627
3.1816
3.00078
3.28723
3.32334
3.07223
2.87694
2.88248
3.11615
3.33533
3.39943
3.67731
3.36848
3.10996
2.93927
3.22042
3.22493
2.99045
2.84321
2.85119
3.03172
3.25733
3.31489
3.58752
3.29295
3.05273
2.89349
3.16689
3.15129
2.93209
2.81712
2.82723
2.96548
3.1983
3.25091
3.51129
3.22825
3.00691
2.85963
3.12131
3.09532
2.89095
2.79732
2.80806
2.91692
3.15494
3.20374
3.44442
3.1719
2.97002
2.83408
3.07981
3.05117
2.86172
2.78265
2.79312
2.8823
3.11855
3.1705
3.38388
3.12161
2.93998
2.81389
3.04006
3.01436
2.84021
2.77212
2.78192
2.85941
3.08624
3.14314
3.3276
3.07623
2.9151
2.79761
3.00107
2.98171
2.82328
2.76488
2.77394
2.84123
3.06052
3.1203
3.27422
3.03488
2.89394
2.78415
2.9628
2.95113
2.80875
2.76016
2.76869
2.82794
3.03959
3.10056
3.22299
2.99706
2.87545
2.77271
2.92574
2.9214
2.79527
2.75731
2.76566
2.81926
3.02204
3.08298
3.17369
2.96254
2.85886
2.76279
2.89055
2.89203
2.782
2.75576
2.76443
2.81485
3.00722
3.0672
3.12662
2.93123
2.84376
2.75422
2.85787
2.86325
2.76909
2.75511
2.76463
2.8142
2.99473
3.05339
3.08269
2.90331
2.83018
2.74676
2.82812
2.83564
2.75716
2.75512
2.76599
2.81674
2.98437
3.04195
3.04263
2.87896
2.81774
2.74032
2.80156
2.80997
2.74656
2.75571
2.76832
2.8219
2.97606
3.03326
3.00724
2.85833
2.80652
2.73489
2.77818
2.78709
2.73788
2.75699
2.77154
2.82909
2.96982
3.02784
2.97708
2.84157
2.79707
2.73056
2.7579
2.76757
2.73215
2.7592
2.77549
2.83765
2.96565
3.02634
2.95281
2.82865
2.78992
2.72739
2.74074
2.75144
2.72972
2.76259
2.78009
2.84699
2.96344
3.02941
2.93498
2.81935
2.78513
2.72536
2.72572
2.73875
2.73041
2.76727
2.78523
2.85652
2.96291
3.03702
2.92382
2.81334
2.78273
2.72434
2.71365
2.72994
2.73431
2.77329
2.79072
2.86569
2.9634
3.04827
2.91912
2.81024
2.78257
2.72404
2.70482
2.72468
2.74171
2.78053
2.79622
2.87379
2.9637
3.06326
2.92005
2.80972
2.78416
2.72403
2.69879
2.72369
2.75483
2.78869
2.80107
2.88151
2.96208
3.08019
2.92533
2.8111
2.78693
2.72386
2.69531
2.72679
2.7725
2.79746
2.80486
2.88765
2.95799
3.09614
2.93262
2.81352
2.78998
2.72307
2.6944
2.73364
2.79353
2.80828
2.80824
2.89221
2.95323
3.10791
2.93886
2.81593
2.79253
2.72135
2.69635
2.74392
2.81716
2.81899
2.81292
2.89532
2.94771
3.11285
2.94139
2.81742
2.79467
2.7186
156509
156509
156509
156509
156509
156509
156509
156509
156509
156509
156509
156509
25862.6
25863
25868.7
25868.6
25866.4
25864.6
25861.5
25863.6
25865.3
25862.5
25862.3
25861.8
8664.35
8658.65
8660.67
8659.47
8657.4
8658.63
8665.32
8665.48
8658.99
8655.36
8657.16
8657.38
4212.94
4210.83
4212.77
4212.01
4211.03
4211.92
4213.82
4214.56
4212.72
4209.15
4209.61
4210.24
2480.45
2478.74
2479.67
2478.9
2478.65
2480.22
2481.85
2482.53
2481.22
2477.28
2477.63
2478.77
1659.5
1657.18
1656.89
1656.04
1656.36
1658.83
1661.48
1661.98
1659.9
1655.59
1656.31
1657.91
1218.58
1215.22
1213.7
1212.81
1213.57
1216.87
1221.02
1221.33
1217.92
1213.42
1214.79
1216.69
960.011
955.482
952.83
952.032
953.068
956.967
962.729
962.911
957.969
953.512
955.704
957.694
797.882
791.932
788.642
788.115
789.266
793.414
800.533
800.802
794.394
790.229
793.276
795.152
690.12
682.848
679.233
679.177
680.288
684.3
692.49
692.97
685.326
681.646
685.504
687.081
614.546
606.101
602.502
603.112
604.051
607.552
616.441
617.262
608.719
605.648
610.208
611.339
558.758
549.327
546.06
547.502
548.177
550.84
560.019
561.294
552.249
549.848
554.944
555.526
515.49
505.284
502.614
505.006
505.368
506.932
515.993
517.8
508.672
506.957
512.386
512.347
480.307
469.555
467.687
471.087
471.12
471.402
479.96
482.338
473.539
472.505
478.038
477.327
450.391
439.347
438.419
442.818
442.532
441.433
449.172
452.078
444.004
443.635
449.031
447.614
423.889
412.822
412.922
418.244
417.661
415.164
421.809
425.225
418.178
418.457
423.473
421.324
399.659
388.772
389.912
396.008
395.158
391.334
396.68
400.576
394.767
395.675
400.073
397.182
376.778
366.369
368.497
375.143
374.064
369.071
372.986
377.286
372.871
374.379
377.933
374.308
354.643
345.05
348.049
354.95
353.687
347.768
350.209
354.735
351.86
353.924
356.43
352.201
332.883
324.443
328.126
334.783
333.377
327.008
328.021
332.528
331.355
333.848
335.102
330.444
311.28
304.318
308.565
314.707
313.126
306.603
306.155
310.475
311.124
313.818
313.823
308.731
289.738
284.557
289.14
294.505
292.79
286.316
284.461
288.501
290.966
293.827
292.378
286.957
268.254
265.157
269.719
274.018
272.218
266.066
262.961
266.62
270.799
273.724
270.711
265.114
246.895
245.941
250.27
253.175
251.319
245.842
241.724
244.912
250.629
253.451
248.887
243.277
225.776
226.948
230.835
232.078
230.188
225.695
220.849
223.507
230.521
233.079
227.041
221.578
205.047
208.247
211.505
210.9
208.988
205.725
200.459
202.563
210.585
212.736
205.367
200.2
184.873
189.921
192.409
189.864
187.938
186.067
180.681
182.251
190.962
192.592
184.097
179.348
165.421
172.069
173.7
169.232
167.297
166.883
161.646
162.739
171.818
172.848
163.479
159.239
146.841
154.794
155.548
149.286
147.346
148.349
143.469
144.179
153.324
153.718
143.761
140.075
129.254
138.198
138.12
130.309
128.367
130.636
126.254
126.686
135.656
135.415
125.157
122.023
112.774
122.384
121.569
112.54
110.601
113.901
110.121
110.355
118.973
118.129
107.842
105.235
97.5289
107.479
106.028
96.1423
94.2165
98.2925
95.2028
95.2916
103.398
102.016
91.9466
89.8479
83.6196
93.6
91.613
81.2294
79.3361
83.9421
81.5983
81.5888
89.0305
87.1971
77.5352
75.9623
71.0966
80.83
78.4144
67.8741
66.0397
70.946
69.3501
69.2932
75.9439
73.7633
64.6846
63.6228
59.9618
69.2195
66.4923
56.1027
54.3571
59.3576
58.4494
58.3944
64.1828
61.7653
53.5089
52.8185
50.1652
58.7884
55.8669
45.8834
44.254
49.1739
48.852
48.8321
53.7501
51.2048
43.9307
43.4772
41.6209
49.5185
46.5113
37.1325
35.6433
40.3444
40.4984
40.5321
44.6115
42.0352
35.7631
35.4923
34.2531
41.3665
38.3697
29.7511
28.4277
32.8144
33.3371
33.4273
36.7261
34.1948
28.8713
28.7592
28.0025
34.2961
31.3928
23.6492
22.5139
26.5229
27.2983
27.4363
30.046
27.6256
23.192
23.1818
22.7891
28.2622
25.5234
18.7182
17.7767
21.366
22.2798
22.4552
24.4867
22.2348
18.6153
18.6428
18.5057
23.1861
20.6667
14.8127
14.054
17.2075
18.1695
18.3731
19.9348
17.8894
14.9863
15.003
15.0392
18.9747
16.7082
11.7743
11.1801
13.9052
14.8505
15.0752
16.2652
14.4461
12.1487
12.1244
12.2747
15.5279
13.5283
9.44915
8.99642
11.3192
12.2065
12.4471
13.3495
11.7608
9.95423
9.87704
10.1012
12.7435
11.0094
7.69545
7.35882
9.31887
10.1259
10.3782
11.0627
9.69625
8.26775
8.14277
8.41439
10.5216
9.03964
6.38839
6.14293
7.7864
8.50505
8.76521
9.28887
8.12791
6.98751
6.81749
7.11957
8.76807
7.51656
5.42416
5.24679
6.62041
7.2515
7.51538
7.92483
6.94815
6.03311
5.81264
6.13446
7.39704
6.34952
4.7217
4.59086
5.73736
6.28635
6.54898
6.88237
6.06794
5.34016
5.05531
5.39049
6.33313
5.46147
4.22358
4.10778
5.0611
5.54712
5.79465
6.08903
5.39787
4.82592
4.48758
4.83298
5.51263
4.78916
3.86929
3.75185
4.53073
4.96924
5.19079
5.47232
4.87648
4.42233
4.0654
4.40945
4.8834
4.28198
3.60186
3.50082
4.11224
4.50882
4.70516
4.98126
4.47798
4.10273
3.757
4.08028
4.40362
3.8997
3.39813
3.31995
3.78229
4.14806
4.32231
4.59507
4.18321
3.84993
3.53006
3.82489
4.03251
3.60658
3.24418
3.18761
3.52703
3.86719
4.02525
4.29824
3.96132
3.64848
3.3572
3.63031
3.74134
3.37995
3.1283
3.08929
3.33899
3.65747
3.79763
4.0731
3.79112
3.48759
3.22409
3.48565
3.51591
3.20764
3.04013
3.01504
3.20343
3.50546
3.62513
3.90252
3.65729
3.35962
3.12129
3.38012
3.34584
3.07775
2.97132
2.95802
3.106
3.39759
3.49532
3.77186
3.54745
3.25856
3.04163
3.3028
3.22122
2.98092
2.91791
2.91325
3.03527
3.32055
3.39785
3.66955
3.45335
3.17855
2.97879
3.2438
3.13163
2.91538
2.87676
2.87806
2.984
3.2649
3.32455
3.58688
3.37157
3.11547
2.92912
3.19518
3.06762
2.8724
2.84561
2.85036
2.94829
3.22361
3.26927
3.51752
3.3
3.06558
2.89001
3.15144
3.02143
2.84368
2.82235
2.82879
2.9221
3.1919
3.22743
3.45696
3.23662
3.02574
2.85941
3.10934
2.98704
2.8238
2.80517
2.81249
2.89904
3.16692
3.19572
3.40207
3.18006
2.99373
2.83518
3.0674
2.95998
2.80926
2.79248
2.80065
2.87905
3.14922
3.17166
3.35068
3.13034
2.96762
2.81569
3.02513
2.93705
2.79789
2.78323
2.79286
2.86263
3.13818
3.15375
3.30128
3.08588
2.94566
2.79975
2.9828
2.91607
2.78833
2.7771
2.78792
2.85012
3.12726
3.14043
3.25283
3.04513
2.92648
2.78656
2.94118
2.89558
2.77974
2.77264
2.78474
2.84122
3.11658
3.12961
3.20464
3.00768
2.90928
2.77562
2.90127
2.87432
2.77166
2.76913
2.78291
2.83564
3.10494
3.1192
3.15638
2.97414
2.89365
2.76662
2.86404
2.85283
2.76406
2.76633
2.78204
2.83306
3.09213
3.10756
3.10946
2.94415
2.87944
2.75945
2.83014
2.83155
2.75661
2.76406
2.78184
2.83314
3.07805
3.09381
3.06678
2.91768
2.86647
2.75413
2.79984
2.81128
2.74909
2.76232
2.7821
2.83549
3.06285
3.07841
3.0282
2.89529
2.85535
2.75073
2.77308
2.79241
2.74202
2.76119
2.78275
2.83968
3.04695
3.06296
2.9947
2.87715
2.84641
2.74928
2.7495
2.77527
2.73595
2.76088
2.78383
2.84508
3.03103
3.0497
2.96672
2.86326
2.8396
2.74972
2.72902
2.76016
2.73157
2.76171
2.78543
2.85101
3.01584
3.04073
2.94457
2.85349
2.83479
2.7518
2.71316