/*--------------------------------*- C++ -*----------------------------------*\
| =========                 |                                                 |
| \\      /  F ield         | OpenFOAM: The Open Source CFD Toolbox           |
|  \\    /   O peration     | Version:  v1912                                 |
|   \\  /    A nd           | Website:  www.openfoam.com                      |
|    \\/     M anipulation  |                                                 |
\*---------------------------------------------------------------------------*/
FoamFile
{
    version     2.0;
    format      ascii;
    class       volVectorField;
    location    "8.4";
    object      UMean;
}
// * * * * * * * * * * * * * * * * * * * * * * * * * * * * * * * * * * * * * //

dimensions      [0 1 -1 0 0 0 0];


internalField   nonuniform List<vector> 
34128
(
(1.67778e-06 -4.15605e-07 -0.00491812)
(6.57764e-07 -4.10992e-07 -0.00489748)
(5.8224e-08 -4.11762e-07 -0.00488882)
(-8.45054e-07 -4.11032e-07 -0.0048916)
(-1.16405e-06 -4.12882e-07 -0.00490908)
(-8.44183e-07 -4.18715e-07 -0.00492075)
(-1.48479e-07 -4.21256e-07 -0.00493422)
(1.31968e-06 -4.16692e-07 -0.00491681)
(4.34109e-07 -4.07701e-07 -0.00488088)
(-1.34677e-06 -4.11401e-07 -0.00489305)
(-1.30475e-06 -4.19195e-07 -0.00492868)
(8.62017e-08 -4.2087e-07 -0.00493025)
(4.80289e-06 4.81154e-06 -0.0147281)
(1.89877e-06 4.87766e-06 -0.0146682)
(2.00653e-07 4.88665e-06 -0.0146431)
(-2.46836e-06 4.88531e-06 -0.0146511)
(-3.35773e-06 4.84143e-06 -0.0147018)
(-2.42082e-06 4.78094e-06 -0.0147357)
(-4.72912e-07 4.74389e-06 -0.0147745)
(3.7417e-06 4.80515e-06 -0.0147241)
(1.19811e-06 4.91091e-06 -0.0146202)
(-3.83727e-06 4.87171e-06 -0.0146554)
(-3.67223e-06 4.77043e-06 -0.0147586)
(3.22684e-07 4.74803e-06 -0.0147632)
(7.71778e-06 1.04817e-05 -0.0246273)
(3.06943e-06 1.06717e-05 -0.0245301)
(3.64617e-07 1.07002e-05 -0.0244894)
(-4.05209e-06 1.06919e-05 -0.0245026)
(-5.44927e-06 1.05602e-05 -0.0245849)
(-3.90473e-06 1.03974e-05 -0.0246397)
(-8.18708e-07 1.02947e-05 -0.0247022)
(5.99349e-06 1.04653e-05 -0.0246205)
(1.89726e-06 1.076e-05 -0.0244528)
(-6.12174e-06 1.06537e-05 -0.0245096)
(-5.79981e-06 1.03679e-05 -0.0246767)
(6.55047e-07 1.03062e-05 -0.024684)
(1.04417e-05 2.24628e-05 -0.0345817)
(4.18576e-06 2.28404e-05 -0.0344495)
(5.60348e-07 2.29061e-05 -0.0343944)
(-5.5994e-06 2.2888e-05 -0.0344124)
(-7.44966e-06 2.26186e-05 -0.0345244)
(-5.30935e-06 2.23029e-05 -0.0345986)
(-1.19315e-06 2.20976e-05 -0.0346829)
(8.07627e-06 2.24352e-05 -0.0345722)
(2.53328e-06 2.30132e-05 -0.0343453)
(-8.20587e-06 2.2803e-05 -0.0344222)
(-7.69887e-06 2.22393e-05 -0.0346488)
(1.07584e-06 2.2123e-05 -0.0346587)
(1.29853e-05 3.61947e-05 -0.0445489)
(5.25642e-06 3.68218e-05 -0.0443846)
(7.91623e-07 3.69414e-05 -0.044316)
(-7.11745e-06 3.69111e-05 -0.0443387)
(-9.37171e-06 3.64541e-05 -0.0444785)
(-6.64861e-06 3.5939e-05 -0.0445703)
(-1.60352e-06 3.55976e-05 -0.0446741)
(9.99014e-06 3.61562e-05 -0.0445368)
(3.10706e-06 3.71072e-05 -0.0442561)
(-1.00944e-05 3.67588e-05 -0.0443513)
(-9.37823e-06 3.58281e-05 -0.0446324)
(1.58047e-06 3.56441e-05 -0.0446447)
(1.53533e-05 5.36885e-05 -0.054484)
(6.28478e-06 5.46255e-05 -0.0542905)
(1.0574e-06 5.48188e-05 -0.0542095)
(-8.61604e-06 5.47734e-05 -0.0542369)
(-1.12291e-05 5.40769e-05 -0.0544024)
(-7.93664e-06 5.33189e-05 -0.0545095)
(-2.05718e-06 5.28085e-05 -0.0546304)
(1.1734e-05 5.36392e-05 -0.0544694)
(3.61856e-06 5.50511e-05 -0.0541408)
(-1.1792e-05 5.45299e-05 -0.0542523)
(-1.08451e-05 5.31452e-05 -0.0545825)
(2.1665e-06 5.28837e-05 -0.0545969)
(1.75487e-05 7.42093e-05 -0.0643424)
(7.27168e-06 7.55157e-05 -0.0641226)
(1.35415e-06 7.58042e-05 -0.0640304)
(-1.01052e-05 7.57402e-05 -0.0640625)
(-1.30353e-05 7.47507e-05 -0.0642515)
(-9.18796e-06 7.37091e-05 -0.0643718)
(-2.56258e-06 7.29979e-05 -0.0645072)
(1.33045e-05 7.41494e-05 -0.0643254)
(4.06509e-06 7.61082e-05 -0.063955)
(-1.33056e-05 7.53796e-05 -0.0640808)
(-1.2108e-05 7.34559e-05 -0.0644544)
(2.83009e-06 7.311e-05 -0.0644707)
(1.95738e-05 9.76072e-05 -0.0740829)
(8.21592e-06 9.93407e-05 -0.07384)
(1.67669e-06 9.9748e-05 -0.0737375)
(-1.15938e-05 9.96615e-05 -0.0737744)
(-1.48026e-05 9.83241e-05 -0.073985)
(-1.04172e-05 9.69611e-05 -0.074116)
(-3.12883e-06 9.60186e-05 -0.0742635)
(1.46963e-05 9.7537e-05 -0.0740639)
(4.44176e-06 0.000100126 -0.0736576)
(-1.46439e-05 9.91556e-05 -0.0737958)
(-1.31765e-05 9.661e-05 -0.0742071)
(3.5664e-06 9.61759e-05 -0.0742251)
(2.14302e-05 0.000123664 -0.0836707)
(9.11487e-06 0.00012588 -0.0834075)
(2.019e-06 0.000126432 -0.0832957)
(-1.30885e-05 0.000126318 -0.0833375)
(-1.65413e-05 0.000124577 -0.0835677)
(-1.16386e-05 0.000122858 -0.0837073)
(-3.76527e-06 0.000121655 -0.0838648)
(1.59031e-05 0.000123584 -0.0836501)
(4.74209e-06 0.000126883 -0.0832135)
(-1.58171e-05 0.000125636 -0.0833621)
(-1.40602e-05 0.000122389 -0.0838058)
(4.37021e-06 0.000121866 -0.0838254)
(2.31202e-05 0.000152192 -0.0930794)
(9.96506e-06 0.000154944 -0.0927983)
(2.37492e-06 0.000155666 -0.0926781)
(-1.45933e-05 0.000155521 -0.0927249)
(-1.82602e-05 0.000153318 -0.0929731)
(-1.2866e-05 0.000151213 -0.0931192)
(-4.48115e-06 0.000149723 -0.0932847)
(1.69179e-05 0.000152101 -0.0930574)
(4.95846e-06 0.000156185 -0.0925953)
(-1.68352e-05 0.000154628 -0.0927528)
(-1.47682e-05 0.000150604 -0.0932241)
(5.23669e-06 0.000149994 -0.0932453)
(2.46462e-05 0.000183003 -0.102291)
(1.07626e-05 0.00018634 -0.101994)
(2.73859e-06 0.000187261 -0.101866)
(-1.61096e-05 0.000187077 -0.101918)
(-1.99657e-05 0.000184355 -0.102183)
(-1.41125e-05 0.000181839 -0.102334)
(-5.28555e-06 0.000180037 -0.102506)
(1.77328e-05 0.000182901 -0.102268)
(5.08236e-06 0.000187835 -0.101785)
(-1.77077e-05 0.000185937 -0.10195)
(-1.5308e-05 0.000181066 -0.102444)
(6.16197e-06 0.000180375 -0.102467)
(2.60108e-05 0.00021593 -0.111297)
(1.15036e-05 0.000219899 -0.110986)
(3.10456e-06 0.000221048 -0.110851)
(-1.76362e-05 0.000220819 -0.110908)
(-2.1663e-05 0.00021752 -0.111187)
(-1.53907e-05 0.00021457 -0.111342)
(-6.18736e-06 0.000212436 -0.11152)
(1.83389e-05 0.000215815 -0.111273)
(5.10461e-06 0.000221661 -0.110771)
(-1.84428e-05 0.000219391 -0.110943)
(-1.5685e-05 0.000213609 -0.111458)
(7.1435e-06 0.000212845 -0.111482)
(2.72159e-05 0.000250833 -0.120094)
(1.21842e-05 0.000255478 -0.119771)
(3.46768e-06 0.000256886 -0.119629)
(-1.9171e-05 0.000256603 -0.11969)
(-2.33562e-05 0.000252669 -0.119984)
(-1.67124e-05 0.000249268 -0.120142)
(-7.19584e-06 0.000246782 -0.120325)
(1.87251e-05 0.000250703 -0.12007)
(5.0153e-06 0.000257511 -0.119552)
(-1.90458e-05 0.00025484 -0.119729)
(-1.59015e-05 0.000248092 -0.120262)
(8.18038e-06 0.000247266 -0.120287)
(2.82618e-05 0.000287594 -0.128685)
(1.28002e-05 0.000292954 -0.12835)
(3.82241e-06 0.000294654 -0.128202)
(-2.07115e-05 0.000294309 -0.128268)
(-2.50489e-05 0.00028968 -0.128575)
(-1.80887e-05 0.000285815 -0.128735)
(-8.32092e-06 0.000282961 -0.128922)
(1.88777e-05 0.000287445 -0.128661)
(4.80352e-06 0.000295258 -0.128128)
(-1.95194e-05 0.00029216 -0.12831)
(-1.59569e-05 0.000284399 -0.12886)
(9.27283e-06 0.000283523 -0.128885)
(2.91465e-05 0.000326104 -0.13707)
(1.33462e-05 0.000332215 -0.136725)
(4.16197e-06 0.000334242 -0.136571)
(-2.22553e-05 0.000333826 -0.136641)
(-2.67444e-05 0.000328442 -0.13696)
(-1.95295e-05 0.000324103 -0.137122)
(-9.57293e-06 0.000320867 -0.137313)
(1.87789e-05 0.000325931 -0.137047)
(4.45747e-06 0.000334782 -0.1365)
(-1.98635e-05 0.000331231 -0.136687)
(-1.58476e-05 0.000322419 -0.137251)
(1.04216e-05 0.000321509 -0.137277)
(2.98657e-05 0.000366263 -0.145251)
(1.38162e-05 0.00037316 -0.144896)
(4.47769e-06 0.000375551 -0.144737)
(-2.38002e-05 0.000375054 -0.144809)
(-2.84455e-05 0.000368855 -0.145141)
(-2.1044e-05 0.000364036 -0.145304)
(-1.09626e-05 0.000360405 -0.145499)
(1.84078e-05 0.000366062 -0.145227)
(3.96474e-06 0.000375975 -0.144668)
(-2.00741e-05 0.000371948 -0.14486)
(-1.55672e-05 0.000362054 -0.145437)
(1.16277e-05 0.000361129 -0.145464)
(3.04129e-05 0.000407968 -0.153224)
(1.42026e-05 0.000415684 -0.152861)
(4.7584e-06 0.000418476 -0.152697)
(-2.53451e-05 0.000417891 -0.152772)
(-3.01548e-05 0.000410815 -0.153114)
(-2.26402e-05 0.00040551 -0.153279)
(-1.25011e-05 0.000401474 -0.153478)
(1.77394e-05 0.000407731 -0.153201)
(3.31262e-06 0.000418724 -0.152631)
(-2.01442e-05 0.000414199 -0.152828)
(-1.51068e-05 0.000403202 -0.153416)
(1.28918e-05 0.000402284 -0.153443)
(3.07797e-05 0.000451096 -0.160986)
(1.44963e-05 0.000459662 -0.160616)
(4.98982e-06 0.000462898 -0.160447)
(-2.68898e-05 0.000462214 -0.160524)
(-3.18751e-05 0.000454202 -0.160876)
(-2.43246e-05 0.000448406 -0.161042)
(-1.4199e-05 0.000443953 -0.161243)
(1.67455e-05 0.000450817 -0.160964)
(2.48874e-06 0.000462898 -0.160385)
(-2.00635e-05 0.000457853 -0.160584)
(-1.44556e-05 0.00044574 -0.161183)
(1.42139e-05 0.000444853 -0.161209)
(3.0956e-05 0.000495494 -0.168528)
(1.46872e-05 0.00050494 -0.168152)
(5.15441e-06 0.000508663 -0.167978)
(-2.84351e-05 0.000507874 -0.168057)
(-3.3609e-05 0.000498863 -0.168417)
(-2.61023e-05 0.000492573 -0.168583)
(-1.60666e-05 0.000487693 -0.168787)
(1.5395e-05 0.000495164 -0.168505)
(1.48188e-06 0.000508336 -0.16792)
(-1.9818e-05 0.00050275 -0.168121)
(-1.36008e-05 0.000489514 -0.168728)
(1.55931e-05 0.000488688 -0.168753)
(3.0931e-05 0.00054097 -0.175836)
(1.47641e-05 0.000551326 -0.175456)
(5.23145e-06 0.000555582 -0.175278)
(-2.99829e-05 0.000554679 -0.175357)
(-3.53589e-05 0.000544608 -0.175725)
(-2.79763e-05 0.000537819 -0.17589)
(-1.81124e-05 0.000532502 -0.176095)
(1.36559e-05 0.000540578 -0.175813)
(2.83017e-07 0.000554835 -0.175224)
(-1.93907e-05 0.00054869 -0.175427)
(-1.25284e-05 0.00053433 -0.176038)
(1.70274e-05 0.000533598 -0.176063)
(3.06938e-05 0.000587282 -0.182895)
(1.47159e-05 0.000598578 -0.182514)
(5.19763e-06 0.000603415 -0.182331)
(-3.15365e-05 0.000602392 -0.18241)
(-3.71277e-05 0.000591199 -0.182784)
(-2.99477e-05 0.000583905 -0.182947)
(-2.03437e-05 0.000578142 -0.183153)
(1.14965e-05 0.000586816 -0.182872)
(-1.11351e-06 0.000602145 -0.182283)
(-1.87612e-05 0.000595424 -0.182486)
(-1.12236e-05 0.000579948 -0.183098)
(1.85141e-05 0.000579347 -0.183122)
(3.02345e-05 0.000634144 -0.189686)
(1.45321e-05 0.000646409 -0.189306)
(5.02797e-06 0.000651877 -0.18912)
(-3.31002e-05 0.000650729 -0.189199)
(-3.89189e-05 0.00063835 -0.189576)
(-3.20152e-05 0.000630547 -0.189736)
(-2.27651e-05 0.000624328 -0.189941)
(8.88779e-06 0.000633588 -0.189664)
(-2.70874e-06 0.000649966 -0.189078)
(-1.79067e-05 0.000642654 -0.189279)
(-9.67062e-06 0.000626081 -0.18989)
(2.00499e-05 0.000625649 -0.189912)
(2.95449e-05 0.00068122 -0.196191)
(1.42041e-05 0.000694483 -0.195813)
(4.69711e-06 0.000700635 -0.195625)
(-3.46793e-05 0.000699356 -0.195702)
(-4.07365e-05 0.00068573 -0.196082)
(-3.41758e-05 0.000677412 -0.196238)
(-2.53787e-05 0.000670729 -0.196439)
(5.8058e-06 0.000680557 -0.196168)
(-4.49792e-06 0.000697949 -0.195591)
(-1.68018e-05 0.000690037 -0.195789)
(-7.85334e-06 0.000672392 -0.196392)
(2.16317e-05 0.000672173 -0.196414)
(2.86195e-05 0.000728133 -0.202389)
(1.37259e-05 0.000742423 -0.202017)
(4.18064e-06 0.000749314 -0.201827)
(-3.62799e-05 0.0007479 -0.201902)
(-4.25859e-05 0.000732962 -0.202282)
(-3.64244e-05 0.000724126 -0.202431)
(-2.81836e-05 0.000716972 -0.202629)
(2.23406e-06 0.000727339 -0.202365)
(-6.46939e-06 0.000745699 -0.201801)
(-1.54198e-05 0.000737184 -0.201994)
(-5.75582e-06 0.000718506 -0.202587)
(2.32572e-05 0.000718546 -0.202607)
(2.74562e-05 0.000774471 -0.208261)
(1.30955e-05 0.000789817 -0.207897)
(3.45673e-06 0.000797503 -0.207706)
(-3.79082e-05 0.00079595 -0.207779)
(-4.44734e-05 0.000779639 -0.208156)
(-3.87545e-05 0.00077028 -0.208298)
(-3.11754e-05 0.00076265 -0.20849)
(-1.83388e-06 0.000773521 -0.208236)
(-8.60364e-06 0.000792785 -0.207689)
(-1.37335e-05 0.00078367 -0.207875)
(-3.36267e-06 0.000764015 -0.208453)
(2.49253e-05 0.000764359 -0.208473)
(2.60572e-05 0.000819796 -0.21379)
(1.23159e-05 0.000836225 -0.213436)
(2.50756e-06 0.000844765 -0.213246)
(-3.95702e-05 0.000843068 -0.213315)
(-4.64065e-05 0.000825322 -0.213686)
(-4.11582e-05 0.000815439 -0.213821)
(-3.43458e-05 0.000807332 -0.214004)
(-6.39204e-06 0.000818657 -0.213763)
(-1.08726e-05 0.000838744 -0.213238)
(-1.17166e-05 0.000829043 -0.213416)
(-6.59744e-07 0.000808482 -0.213973)
(2.66378e-05 0.000809178 -0.213993)
(2.44296e-05 0.000863655 -0.218959)
(1.13957e-05 0.000881194 -0.218618)
(1.32083e-06 0.000890647 -0.21843)
(-4.12706e-05 0.000888801 -0.218495)
(-4.83934e-05 0.000869562 -0.218858)
(-4.36271e-05 0.000859154 -0.218983)
(-3.76824e-05 0.000850573 -0.219157)
(-1.14198e-05 0.000862289 -0.21893)
(-1.3239e-05 0.000883097 -0.218431)
(-9.34509e-06 0.000872835 -0.218599)
(2.36516e-06 0.00085146 -0.219132)
(2.83993e-05 0.000852555 -0.219152)
(2.25865e-05 0.000905589 -0.223756)
(1.03503e-05 0.000924265 -0.22343)
(-1.08926e-07 0.000934691 -0.223246)
(-4.30122e-05 0.000932691 -0.223307)
(-5.04419e-05 0.000911902 -0.223659)
(-4.61518e-05 0.000900969 -0.223774)
(-4.11681e-05 0.000891923 -0.223937)
(-1.68801e-05 0.000903952 -0.223725)
(-1.56562e-05 0.000925357 -0.223256)
(-6.59886e-06 0.000914572 -0.223413)
(5.72156e-06 0.000892497 -0.223918)
(3.02184e-05 0.000894037 -0.223938)
(2.05472e-05 0.00094515 -0.228173)
(9.20208e-06 0.000964986 -0.227864)
(-1.77915e-06 0.000976446 -0.227685)
(-4.47942e-05 0.000974284 -0.227742)
(-5.25589e-05 0.000951893 -0.228079)
(-4.87226e-05 0.000940441 -0.228183)
(-4.47803e-05 0.000930941 -0.228333)
(-2.27176e-05 0.000943189 -0.228139)
(-1.80685e-05 0.000965043 -0.227703)
(-3.46351e-06 0.000953788 -0.227847)
(9.4155e-06 0.000931152 -0.228321)
(3.21081e-05 0.000933179 -0.228342)
(1.83378e-05 0.000981909 -0.232205)
(7.98048e-06 0.00100293 -0.231915)
(-3.67835e-06 0.00101548 -0.231742)
(-4.66114e-05 0.00101315 -0.231794)
(-5.47486e-05 0.000989109 -0.232115)
(-5.13285e-05 0.000977143 -0.232207)
(-4.84906e-05 0.00096721 -0.232343)
(-2.88579e-05 0.000979562 -0.232168)
(-2.04114e-05 0.00100169 -0.231766)
(6.79783e-08 0.000990036 -0.231897)
(1.34487e-05 0.000967004 -0.232338)
(3.40859e-05 0.00096956 -0.23236)
(1.59921e-05 0.00101547 -0.23585)
(6.72185e-06 0.0010377 -0.23558)
(-5.78547e-06 0.00105141 -0.235415)
(-4.84528e-05 0.00104889 -0.235463)
(-5.70111e-05 0.00102316 -0.235764)
(-5.39572e-05 0.00101068 -0.235844)
(-5.2264e-05 0.00100034 -0.235966)
(-3.52071e-05 0.00101267 -0.23581)
(-2.26126e-05 0.00103488 -0.235445)
(3.99351e-06 0.00102291 -0.235562)
(1.78178e-05 0.00099967 -0.235967)
(3.61739e-05 0.00100279 -0.23599)
(1.35513e-05 0.00104549 -0.239113)
(5.46852e-06 0.00106894 -0.238865)
(-8.0696e-06 0.00108387 -0.23871)
(-5.03007e-05 0.00108115 -0.238752)
(-5.93406e-05 0.00105369 -0.239032)
(-5.65944e-05 0.00104072 -0.2391)
(-5.60576e-05 0.00103001 -0.239205)
(-4.16523e-05 0.00104215 -0.23907)
(-2.45938e-05 0.00106422 -0.238743)
(8.30043e-06 0.00105203 -0.238845)
(2.25135e-05 0.00102881 -0.239213)
(3.83978e-05 0.00103253 -0.239238)
(1.10643e-05 0.00107167 -0.242003)
(4.26743e-06 0.00109637 -0.241777)
(-1.049e-05 0.00111257 -0.241632)
(-5.2129e-05 0.00110964 -0.241669)
(-6.17235e-05 0.00108042 -0.241927)
(-5.92223e-05 0.00106697 -0.241981)
(-5.98205e-05 0.00105591 -0.242071)
(-4.80627e-05 0.0010677 -0.241956)
(-2.62727e-05 0.00108938 -0.241666)
(1.29643e-05 0.00107711 -0.241753)
(2.75198e-05 0.00105415 -0.242084)
(4.07859e-05 0.00105849 -0.242111)
(8.58674e-06 0.0010938 -0.244531)
(3.16817e-06 0.00111977 -0.244328)
(-1.29967e-05 0.00113729 -0.244195)
(-5.39029e-05 0.00113412 -0.244227)
(-6.4137e-05 0.00110312 -0.244461)
(-6.18186e-05 0.0010892 -0.244503)
(-6.34925e-05 0.00107785 -0.244576)
(-5.42928e-05 0.0010891 -0.244481)
(-2.75659e-05 0.00111013 -0.244228)
(1.79481e-05 0.00109791 -0.2443)
(3.2813e-05 0.00107548 -0.244594)
(4.33675e-05 0.00108047 -0.244624)
(6.17994e-06 0.00111173 -0.246716)
(2.22036e-06 0.00113898 -0.246535)
(-1.55309e-05 0.00115788 -0.246416)
(-5.55779e-05 0.00115444 -0.246442)
(-6.65471e-05 0.00112166 -0.246651)
(-6.43548e-05 0.00110728 -0.246681)
(-6.70037e-05 0.00109568 -0.246738)
(-6.01852e-05 0.00110617 -0.246662)
(-2.83924e-05 0.00112629 -0.246444)
(2.32015e-05 0.00111427 -0.246502)
(3.83605e-05 0.00109266 -0.246761)
(4.61694e-05 0.00109831 -0.246793)
(3.90878e-06 0.00112537 -0.248577)
(1.47039e-06 0.00115394 -0.248419)
(-1.80263e-05 0.00117425 -0.248313)
(-5.70999e-05 0.00117052 -0.248335)
(-6.89076e-05 0.00113595 -0.248518)
(-6.67939e-05 0.00112111 -0.248536)
(-7.02745e-05 0.00110931 -0.248578)
(-6.55755e-05 0.00111884 -0.24852)
(-2.86773e-05 0.00113777 -0.248335)
(2.86602e-05 0.00112611 -0.248379)
(4.41196e-05 0.00110562 -0.248604)
(4.92132e-05 0.00111195 -0.248639)
(1.83858e-06 0.00113474 -0.250139)
(9.57497e-07 0.00116464 -0.250003)
(-2.04107e-05 0.00118642 -0.249912)
(-5.84046e-05 0.00118237 -0.249929)
(-7.11591e-05 0.00114601 -0.250086)
(-6.90891e-05 0.00113072 -0.250093)
(-7.32159e-05 0.00111876 -0.250121)
(-7.02986e-05 0.0011271 -0.250078)
(-2.83579e-05 0.00114455 -0.249924)
(3.42453e-05 0.00113344 -0.249955)
(5.00358e-05 0.00111437 -0.250149)
(5.25112e-05 0.00112141 -0.250186)
(3.20633e-08 0.00113994 -0.251427)
(7.09209e-07 0.0011712 -0.251313)
(-2.26101e-05 0.00119447 -0.251236)
(-5.94248e-05 0.00119006 -0.251248)
(-7.32297e-05 0.00115195 -0.25138)
(-7.11829e-05 0.00113619 -0.251377)
(-7.57298e-05 0.00112411 -0.251391)
(-7.41961e-05 0.00113104 -0.251363)
(-2.73877e-05 0.00114675 -0.251236)
(3.98689e-05 0.00113636 -0.251255)
(5.60419e-05 0.00111903 -0.251422)
(5.60634e-05 0.00112678 -0.251461)
(-1.44947e-06 0.00114117 -0.25247)
(7.46333e-07 0.0011738 -0.252376)
(-2.45577e-05 0.0011986 -0.252314)
(-6.00981e-05 0.0011938 -0.252322)
(-7.50428e-05 0.00115397 -0.252429)
(-7.3014e-05 0.00113773 -0.252416)
(-7.77119e-05 0.00112556 -0.252419)
(-7.71285e-05 0.00113086 -0.252404)
(-2.57389e-05 0.00114458 -0.2523)
(4.54428e-05 0.0011351 -0.252308)
(6.20588e-05 0.0011198 -0.252451)
(5.985e-05 0.00112827 -0.252492)
(-2.56569e-06 0.00113869 -0.253298)
(1.0807e-06 0.00117271 -0.253223)
(-2.61957e-05 0.00119906 -0.253175)
(-6.03659e-05 0.00119383 -0.253179)
(-7.65252e-05 0.00115234 -0.253263)
(-7.45157e-05 0.00113559 -0.253241)
(-7.90679e-05 0.00112336 -0.253234)
(-7.89828e-05 0.00112682 -0.25323)
(-2.3405e-05 0.00113833 -0.253146)
(5.08787e-05 0.00112992 -0.253145)
(6.80054e-05 0.00111694 -0.253266)
(6.38361e-05 0.00112615 -0.253309)
(-3.30252e-06 0.00113282 -0.253941)
(1.69555e-06 0.00116826 -0.253884)
(-2.74685e-05 0.00119615 -0.25385)
(-6.01763e-05 0.00119046 -0.253849)
(-7.76011e-05 0.00114737 -0.253912)
(-7.56018e-05 0.00113007 -0.253882)
(-7.97063e-05 0.00111779 -0.253866)
(-7.96754e-05 0.00111921 -0.253872)
(-2.04044e-05 0.00112833 -0.253803)
(5.60905e-05 0.00112115 -0.253796)
(7.38016e-05 0.00111073 -0.253899)
(6.79798e-05 0.00112072 -0.253943)
(-3.66266e-06 0.00112385 -0.254428)
(2.56022e-06 0.00116074 -0.254387)
(-2.83326e-05 0.00119017 -0.254365)
(-5.94955e-05 0.001184 -0.254361)
(-7.81994e-05 0.00113937 -0.254405)
(-7.61819e-05 0.00112145 -0.254368)
(-7.95431e-05 0.00110913 -0.254345)
(-7.91626e-05 0.00110836 -0.254358)
(-1.67894e-05 0.00111495 -0.254302)
(6.09997e-05 0.00110914 -0.254289)
(7.93639e-05 0.0011015 -0.254376)
(7.22239e-05 0.0011123 -0.254421)
(-3.66954e-06 0.00111215 -0.254786)
(3.63542e-06 0.0011505 -0.254759)
(-2.87706e-05 0.00118146 -0.254749)
(-5.83146e-05 0.00117478 -0.254741)
(-7.82621e-05 0.00112869 -0.254767)
(-7.61786e-05 0.00111008 -0.254724)
(-7.85188e-05 0.00109771 -0.254696)
(-7.74405e-05 0.00109462 -0.254715)
(-1.26356e-05 0.00109857 -0.254669)
(6.55388e-05 0.00109425 -0.25465)
(8.46126e-05 0.00108958 -0.254726)
(7.64971e-05 0.00110121 -0.254772)
(-3.36582e-06 0.00109806 -0.255038)
(4.87164e-06 0.00113788 -0.255023)
(-2.87855e-05 0.00117036 -0.255024)
(-5.66448e-05 0.00116315 -0.255013)
(-7.77467e-05 0.00111568 -0.255024)
(-7.55238e-05 0.00109629 -0.254974)
(-7.65963e-05 0.00108384 -0.254943)
(-7.45438e-05 0.00107834 -0.254967)
(-8.02946e-06 0.0010796 -0.254929)
(6.96589e-05 0.00107688 -0.254906)
(8.94771e-05 0.00107528 -0.254972)
(8.07227e-05 0.0010878 -0.255019)
(-2.80817e-06 0.00108193 -0.255207)
(6.21496e-06 0.00112323 -0.255203)
(-2.84012e-05 0.00115718 -0.255213)
(-5.45158e-05 0.00114943 -0.255199)
(-7.66276e-05 0.00110067 -0.255197)
(-7.41632e-05 0.00108039 -0.255142)
(-7.3764e-05 0.00106786 -0.255108)
(-7.05415e-05 0.00105989 -0.255136)
(-3.06453e-06 0.00105845 -0.255103)
(7.33301e-05 0.00105738 -0.255078)
(9.39014e-05 0.00105895 -0.255136)
(8.48245e-05 0.00107241 -0.255183)
(-2.05954e-06 0.00106406 -0.25531)
(7.61156e-06 0.00110685 -0.255316)
(-2.76596e-05 0.00114222 -0.255334)
(-5.19721e-05 0.00113393 -0.255317)
(-7.48955e-05 0.00108395 -0.255304)
(-7.20596e-05 0.00106268 -0.255243)
(-7.00328e-05 0.00105004 -0.255208)
(-6.55244e-05 0.00103959 -0.25524)
(2.16718e-06 0.00103548 -0.255211)
(7.6542e-05 0.0010361 -0.255183)
(9.78467e-05 0.00104088 -0.255235)
(8.87327e-05 0.00105533 -0.255282)
(-1.18022e-06 0.00104474 -0.255364)
(9.0124e-06 0.001089 -0.255377)
(-2.6615e-05 0.00112576 -0.255402)
(-4.90649e-05 0.00111692 -0.255383)
(-7.25539e-05 0.00106579 -0.25536)
(-6.91919e-05 0.00104342 -0.255295)
(-6.54307e-05 0.00103064 -0.25526)
(-5.95929e-05 0.00101773 -0.255294)
(7.58378e-06 0.00101104 -0.255268)
(7.92991e-05 0.00101335 -0.255238)
(0.000101292 0.00102132 -0.255285)
(9.23875e-05 0.00103682 -0.255333)
(-2.20293e-07 0.0010242 -0.255378)
(1.03768e-05 0.00106992 -0.255399)
(-2.53268e-05 0.001108 -0.25543)
(-4.58439e-05 0.00109861 -0.255409)
(-6.96144e-05 0.0010464 -0.255378)
(-6.55542e-05 0.00102281 -0.255308)
(-5.99975e-05 0.00100988 -0.255273)
(-5.28463e-05 0.000994581 -0.25531)
(1.31186e-05 0.000985394 -0.255286)
(8.16154e-05 0.000989371 -0.255254)
(0.000104227 0.0010005 -0.255297)
(9.57402e-05 0.00101711 -0.255346)
(7.84547e-07 0.00100262 -0.255364)
(1.16735e-05 0.00104977 -0.25539)
(-2.38532e-05 0.00108913 -0.255427)
(-4.23513e-05 0.00107918 -0.255404)
(-6.60881e-05 0.00102593 -0.255365)
(-6.11514e-05 0.00100103 -0.255291)
(-5.37743e-05 0.000987929 -0.255258)
(-4.53728e-05 0.000970337 -0.255297)
(1.87284e-05 0.000958783 -0.255274)
(8.35114e-05 0.000964377 -0.255242)
(0.000106651 0.000978578 -0.255281)
(9.87501e-05 0.000996375 -0.25533)
(1.81527e-06 0.000980148 -0.255327)
(1.28785e-05 0.00102869 -0.255358)
(-2.22383e-05 0.00106925 -0.2554)
(-3.86191e-05 0.00105875 -0.255376)
(-6.19727e-05 0.00100451 -0.25533)
(-5.59964e-05 0.00097819 -0.255252)
(-4.6785e-05 0.000964909 -0.255221)
(-3.72466e-05 0.000945161 -0.255262)
(2.43928e-05 0.000931402 -0.25524)
(8.50161e-05 0.000938539 -0.255206)
(0.000108567 0.000955679 -0.255242)
(0.000101383 0.000974736 -0.255292)
(2.88317e-06 0.000956864 -0.255272)
(1.39883e-05 0.00100676 -0.255308)
(-2.04999e-05 0.00104846 -0.255355)
(-3.46451e-05 0.00103738 -0.255328)
(-5.7275e-05 0.000982195 -0.255277)
(-5.00996e-05 0.000954351 -0.255195)
(-3.90459e-05 0.000940905 -0.255167)
(-2.85216e-05 0.000919162 -0.25521)
(3.00813e-05 0.000903404 -0.255188)
(8.61456e-05 0.000911979 -0.255154)
(0.000109981 0.0009319 -0.255186)
(0.000103626 0.00095227 -0.255237)
(4.02627e-06 0.000932828 -0.255202)
(1.50072e-05 0.000984018 -0.255243)
(-1.86304e-05 0.00102679 -0.255294)
(-3.04261e-05 0.00101512 -0.255265)
(-5.19962e-05 0.000958964 -0.255209)
(-4.34521e-05 0.000929543 -0.255123)
(-3.05782e-05 0.000915954 -0.255098)
(-1.92165e-05 0.000892394 -0.255143)
(3.57496e-05 0.000874826 -0.255122)
(8.68851e-05 0.000884737 -0.255087)
(0.000110864 0.000907262 -0.255115)
(0.00010547 0.00092902 -0.255168)
(5.28861e-06 0.000908059 -0.25512)
(1.5951e-05 0.000960451 -0.255165)
(-1.66235e-05 0.00100422 -0.25522)
(-2.59889e-05 0.000991927 -0.25519)
(-4.61365e-05 0.000934789 -0.255128)
(-3.60438e-05 0.000903726 -0.255039)
(-2.13791e-05 0.000890049 -0.255019)
(-9.33481e-06 0.000864896 -0.255066)
(4.13833e-05 0.0008457 -0.255045)
(8.72009e-05 0.000856836 -0.255008)
(0.000111157 0.000881724 -0.255033)
(0.00010687 0.00090497 -0.255087)
(6.72374e-06 0.000882465 -0.255028)
(1.68139e-05 0.00093602 -0.255076)
(-1.44837e-05 0.000980706 -0.255135)
(-2.13494e-05 0.000967738 -0.255103)
(-3.97017e-05 0.000909651 -0.255036)
(-2.78752e-05 0.000876856 -0.254945)
(-1.14845e-05 0.000863179 -0.254929)
(1.09431e-06 0.000836707 -0.254978)
(4.69597e-05 0.000816126 -0.254957)
(8.70334e-05 0.000828286 -0.25492)
(0.000110794 0.000855268 -0.25494)
(0.000107736 0.00088004 -0.254996)
(8.33826e-06 0.000856057 -0.254926)
(1.75512e-05 0.000910751 -0.254979)
(-1.2211e-05 0.000956218 -0.255041)
(-1.65004e-05 0.00094252 -0.255007)
(-3.2651e-05 0.000883518 -0.254937)
(-1.90012e-05 0.000848971 -0.254843)
(-9.92709e-07 0.000835366 -0.254833)
(1.19901e-05 0.000807861 -0.254883)
(5.2396e-05 0.000786184 -0.254863)
(8.63179e-05 0.00079913 -0.254824)
(0.000109687 0.000827924 -0.25484)
(0.00010795 0.000854216 -0.254897)
(1.01086e-05 0.000828941 -0.254818)
(1.81344e-05 0.00088467 -0.254875)
(-9.8164e-06 0.00093079 -0.25494)
(-1.14469e-05 0.000916306 -0.254904)
(-2.49461e-05 0.00085641 -0.25483)
(-9.50034e-06 0.000820125 -0.254735)
(9.97431e-06 0.00080667 -0.254731)
(2.32309e-05 0.000778432 -0.254782)
(5.76023e-05 0.000755974 -0.254763)
(8.50324e-05 0.000769485 -0.254723)
(0.000107766 0.000799746 -0.254734)
(0.000107428 0.000827527 -0.254792)
(1.20199e-05 0.000801181 -0.254706)
(1.85563e-05 0.000857846 -0.254766)
(-7.31862e-06 0.000904442 -0.254833)
(-6.21634e-06 0.000889132 -0.254795)
(-1.65991e-05 0.000828371 -0.254719)
(5.51225e-07 0.000790361 -0.254623)
(2.12757e-05 0.000777165 -0.254625)
(3.46685e-05 0.00074854 -0.254679)
(6.25129e-05 0.000725619 -0.254661)
(8.31853e-05 0.000739447 -0.254618)
(0.000105009 0.000770795 -0.254624)
(0.000106128 0.00080001 -0.254683)
(1.40433e-05 0.000772842 -0.254592)
(1.88223e-05 0.000830332 -0.254654)
(-4.74009e-06 0.000877198 -0.254722)
(-8.54734e-07 0.000861005 -0.254683)
(-7.67488e-06 0.000799415 -0.254606)
(1.10332e-05 0.000759754 -0.25451)
(3.27711e-05 0.000746919 -0.254519)
(4.61454e-05 0.000718279 -0.254573)
(6.70806e-05 0.00069522 -0.254558)
(8.08003e-05 0.000709084 -0.254513)
(0.000101428 0.000741135 -0.254514)
(0.000104019 0.000771718 -0.254572)
(1.61447e-05 0.00074398 -0.254477)
(1.89521e-05 0.000802154 -0.254542)
(-2.09676e-06 0.000849071 -0.25461)
(4.57852e-06 0.000831916 -0.25457)
(1.7132e-06 0.000769546 -0.254492)
(2.17922e-05 0.000728362 -0.254397)
(4.43171e-05 0.000715987 -0.254414)
(5.75119e-05 0.000687709 -0.254469)
(7.12797e-05 0.00066485 -0.254455)
(7.7925e-05 0.000678467 -0.254407)
(9.70502e-05 0.000710806 -0.254403)
(0.000101073 0.000742681 -0.254461)
(1.82914e-05 0.000714626 -0.254364)
(1.89853e-05 0.00077334 -0.25443)
(6.09207e-07 0.000820066 -0.254497)
(1.00316e-05 0.000801861 -0.254456)
(1.14175e-05 0.000738778 -0.254378)
(3.26588e-05 0.000696224 -0.254287)
(5.57624e-05 0.000684397 -0.25431)
(6.86216e-05 0.000656882 -0.254365)
(7.50943e-05 0.000634566 -0.254354)
(7.46294e-05 0.000647648 -0.254304)
(9.19154e-05 0.000679842 -0.254295)
(9.72706e-05 0.000712904 -0.254351)
(2.04615e-05 0.000684795 -0.254254)
(1.89786e-05 0.000743904 -0.25432)
(3.39194e-06 0.000790187 -0.254385)
(1.54745e-05 0.000770837 -0.254345)
(2.12671e-05 0.000707107 -0.254266)
(4.34602e-05 0.00066337 -0.254179)
(6.69387e-05 0.000652178 -0.254208)
(7.93198e-05 0.000625838 -0.254265)
(7.84988e-05 0.000604408 -0.254255)
(7.09995e-05 0.000616666 -0.254203)
(8.60869e-05 0.000648286 -0.254189)
(9.26182e-05 0.000682392 -0.254245)
(2.26442e-05 0.000654489 -0.254148)
(1.90018e-05 0.000713845 -0.254213)
(6.2825e-06 0.000759425 -0.254276)
(2.08951e-05 0.000738837 -0.254235)
(3.10792e-05 0.00067453 -0.254158)
(5.40161e-05 0.000629826 -0.254076)
(7.76663e-05 0.000619359 -0.254111)
(8.94397e-05 0.000594598 -0.254167)
(8.14608e-05 0.000574395 -0.25416)
(6.71266e-05 0.000585563 -0.254107)
(7.96465e-05 0.000616175 -0.254088)
(8.71604e-05 0.00065115 -0.254142)
(2.48251e-05 0.000623702 -0.254047)
(1.91346e-05 0.000683157 -0.25411)
(9.30076e-06 0.000727766 -0.254169)
(2.62915e-05 0.000705868 -0.254129)
(4.06677e-05 0.000641054 -0.254053)
(6.41357e-05 0.000595614 -0.253978)
(8.77642e-05 0.000585958 -0.254017)
(9.88059e-05 0.000563168 -0.254074)
(8.39385e-05 0.00054454 -0.254069)
(6.31005e-05 0.000554361 -0.254014)
(7.26719e-05 0.000583546 -0.253992)
(8.09736e-05 0.000619171 -0.254044)
(2.69839e-05 0.000592415 -0.253952)
(1.94498e-05 0.000651824 -0.254011)
(1.24466e-05 0.00069521 -0.254067)
(3.16553e-05 0.00067193 -0.254027)
(4.98504e-05 0.000606696 -0.253953)
(7.36315e-05 0.000560752 -0.253885)
(9.70554e-05 0.00055199 -0.253928)
(0.000107239 0.000531554 -0.253985)
(8.58758e-05 0.000514824 -0.253983)
(5.89891e-05 0.000523071 -0.253927)
(6.52202e-05 0.000550429 -0.253901)
(7.41519e-05 0.000586442 -0.253951)
(2.91089e-05 0.000560597 -0.253862)
(1.99956e-05 0.000619834 -0.253918)
(1.57144e-05 0.000661758 -0.253969)
(3.69565e-05 0.000637037 -0.253931)
(5.84524e-05 0.000571479 -0.253859)
(8.23451e-05 0.000525259 -0.253798)
(0.000105368 0.000517465 -0.253845)
(0.00011456 0.000499747 -0.253901)
(8.72254e-05 0.000485196 -0.253902)
(5.48192e-05 0.000491706 -0.253846)
(5.73266e-05 0.000516846 -0.253816)
(6.68042e-05 0.000552954 -0.253864)
(3.12052e-05 0.000528219 -0.25378)
(2.08016e-05 0.000587175 -0.253831)
(1.90896e-05 0.000627406 -0.253876)
(4.21434e-05 0.000601215 -0.25384)
(6.63105e-05 0.000535428 -0.253771)
(9.01512e-05 0.000489155 -0.253719)
(0.000112532 0.000482396 -0.253768)
(0.000120608 0.000467721 -0.253823)
(8.79744e-05 0.000455612 -0.253826)
(5.05772e-05 0.000460274 -0.253771)
(4.90347e-05 0.000482826 -0.253738)
(5.90598e-05 0.000518696 -0.253784)
(3.32886e-05 0.000495254 -0.253705)
(2.18875e-05 0.00055383 -0.25375)
(2.25472e-05 0.000592156 -0.25379)
(4.71324e-05 0.000564498 -0.253756)
(7.32838e-05 0.000498578 -0.25369)
(9.69293e-05 0.000452453 -0.253646)
(0.000118369 0.000446801 -0.253696)
(0.000125266 0.000435449 -0.253751)
(8.81275e-05 0.000426026 -0.253755)
(4.6233e-05 0.000428764 -0.253702)
(4.04254e-05 0.000448387 -0.253667)
(5.10634e-05 0.000483654 -0.25371)
(3.53686e-05 0.000461658 -0.253637)
(2.32528e-05 0.000519778 -0.253677)
(2.60456e-05 0.00055602 -0.253711)
(5.18001e-05 0.000526932 -0.253679)