0 	0 	0 	0
0 	0 	0 	0
0.00752508 	-6.13234e-05 	0.00183758 	-0.278635
0.00752508 	-6.13234e-05 	0.00183758 	-0.278635
0.00757525 	-5.84656e-05 	0.00184403 	-0.27855
0.00762542 	-5.56077e-05 	0.00185048 	-0.278466
0.00762542 	-5.56077e-05 	0.00185048 	-0.278466
0.00767559 	-5.27472e-05 	0.00185693 	-0.278381
0.00772575 	-4.95984e-05 	0.00186284 	-0.278265
0.00777592 	-4.64497e-05 	0.00186874 	-0.278149
0.00782609 	-4.33009e-05 	0.00187465 	-0.278033
0.00782609 	-4.33009e-05 	0.00187465 	-0.278033
0.00787625 	-3.97687e-05 	0.00187952 	-0.277898
0.00792642 	-3.59585e-05 	0.00188364 	-0.277749
0.00797659 	-3.21483e-05 	0.00188776 	-0.277601
0.00802676 	-2.80521e-05 	0.00189156 	-0.277445
0.00802676 	-2.80521e-05 	0.00189156 	-0.277445
0.00807692 	-2.28835e-05 	0.00189415 	-0.277264
0.00812709 	-1.77149e-05 	0.00189675 	-0.277083
0.00812709 	-1.77149e-05 	0.00189675 	-0.277083
0.00817726 	-1.25464e-05 	0.00189934 	-0.276902
0.00822742 	-5.93155e-06 	0.00190211 	-0.276691
0.00822742 	-5.93155e-06 	0.00190211 	-0.276691
0.00827759 	8.42458e-07 	0.0019049 	-0.276478
0.00832776 	7.61646e-06 	0.00190769 	-0.276264
0.00832776 	7.61646e-06 	0.00190769 	-0.276264
0.00837793 	1.55426e-05 	0.00191003 	-0.27603
0.00842809 	2.40906e-05 	0.00191214 	-0.275785
0.00842809 	2.40906e-05 	0.00191214 	-0.275785
0.00847826 	3.26386e-05 	0.00191425 	-0.27554
0.00847826 	3.26386e-05 	0.00191425 	-0.27554
0.00852843 	4.20473e-05 	0.00191595 	-0.275281
0.00852843 	4.20473e-05 	0.00191595 	-0.275281
0.0085786 	5.24855e-05 	0.00191716 	-0.275006
0.0085786 	5.24855e-05 	0.00191716 	-0.275006
0.00862876 	6.29238e-05 	0.00191836 	-0.274731
0.00867893 	7.39968e-05 	0.0019193 	-0.274447
0.00867893 	7.39968e-05 	0.0019193 	-0.274447
0.0087291 	8.64344e-05 	0.00191967 	-0.274145
0.00877926 	9.8872e-05 	0.00192004 	-0.273842
0.00877926 	9.8872e-05 	0.00192004 	-0.273842
0.00882943 	0.000111816 	0.0019202 	-0.273533
0.0088796 	0.000126408 	0.0019197 	-0.273204
0.0088796 	0.000126408 	0.0019197 	-0.273204
0.00897993 	0.000156085 	0.00191851 	-0.272541
0.00897993 	0.000156085 	0.00191851 	-0.272541
0.0090301 	0.000173057 	0.00191707 	-0.272187
0.00908027 	0.000190029 	0.00191563 	-0.271833
0.00908027 	0.000190029 	0.00191563 	-0.271833
0.00913043 	0.000207607 	0.00191398 	-0.271473
0.0091806 	0.000227189 	0.0019116 	-0.271093
0.0091806 	0.000227189 	0.0019116 	-0.271093
0.00923077 	0.000246772 	0.00190922 	-0.270714
0.00928094 	0.000267207 	0.00190655 	-0.270327
0.00928094 	0.000267207 	0.00190655 	-0.270327
0.0093311 	0.000289546 	0.00190321 	-0.269923
0.00938127 	0.000311885 	0.00189987 	-0.269519
0.00938127 	0.000311885 	0.00189987 	-0.269519
0.00943144 	0.000335458 	0.00189612 	-0.269104
0.00943144 	0.000335458 	0.00189612 	-0.269104
0.00948161 	0.000360613 	0.00189185 	-0.268675
0.00948161 	0.000360613 	0.00189185 	-0.268675
0.00953177 	0.000385768 	0.00188757 	-0.268246
0.00953177 	0.000385768 	0.00188757 	-0.268246
0.00958194 	0.000412672 	0.00188281 	-0.267802
0.00958194 	0.000412672 	0.00188281 	-0.267802
0.00963211 	0.000440657 	0.00187773 	-0.267348
0.00963211 	0.000440657 	0.00187773 	-0.267348
0.00968227 	0.000468642 	0.00187266 	-0.266895
0.00968227 	0.000468642 	0.00187266 	-0.266895
0.00973244 	0.000499031 	0.00186686 	-0.266421
0.00978261 	0.000529855 	0.00186094 	-0.265944
0.00983278 	0.00056103 	0.00185489 	-0.265464
0.00988294 	0.000594668 	0.00184795 	-0.264964
0.00988294 	0.000594668 	0.00184795 	-0.264964
0.00993311 	0.000628305 	0.001841 	-0.264464
0.00998328 	0.000663165 	0.00183361 	-0.263954
0.00998328 	0.000663165 	0.00183361 	-0.263954
0.0100334 	0.000699511 	0.00182569 	-0.263431
0.0100334 	0.000699511 	0.00182569 	-0.263431
0.0100836 	0.000735858 	0.00181776 	-0.262909
0.0101338 	0.000774296 	0.00180912 	-0.262369
0.0101338 	0.000774296 	0.00180912 	-0.262369
0.0102341 	0.00085263 	0.00179132 	-0.261276
0.0102341 	0.00085263 	0.00179132 	-0.261276
0.0102843 	0.000893843 	0.00178162 	-0.260711
0.0103344 	0.000935056 	0.00177192 	-0.260147
0.0103344 	0.000935056 	0.00177192 	-0.260147
0.0103846 	0.000977753 	0.0017615 	-0.259569
0.0103846 	0.000977753 	0.0017615 	-0.259569
0.0104348 	0.00102106 	0.00175078 	-0.258985
0.0104849 	0.00106478 	0.00173997 	-0.258397
0.0104849 	0.00106478 	0.00173997 	-0.258397
0.0105351 	0.00110996 	0.00172878 	-0.257794
0.0105853 	0.00115514 	0.00171759 	-0.257191
0.0105853 	0.00115514 	0.00171759 	-0.257191
0.0106355 	0.00120161 	0.00170558 	-0.256573
0.0106856 	0.00124847 	0.00169331 	-0.255951
0.0106856 	0.00124847 	0.00169331 	-0.255951
0.0107358 	0.0012958 	0.00167999 	-0.255321
0.0107358 	0.0012958 	0.00167999 	-0.255321
0.010786 	0.00134393 	0.00166487 	-0.254679
0.010786 	0.00134393 	0.00166487 	-0.254679
0.0108361 	0.00139207 	0.00164973 	-0.254037
0.0108361 	0.00139207 	0.00164973 	-0.254037
0.0108863 	0.00144064 	0.0016332 	-0.253374
0.0109365 	0.00148921 	0.00161667 	-0.252711
0.0109365 	0.00148921 	0.00161667 	-0.252711
0.0109866 	0.00153753 	0.00160124 	-0.252032
0.0109866 	0.00153753 	0.00160124 	-0.252032
0.0110368 	0.00158573 	0.00158632 	-0.251346
0.011087 	0.0016338 	0.00157247 	-0.250649
0.011087 	0.0016338 	0.00157247 	-0.250649
0.0111371 	0.00168168 	0.00156017 	-0.249938
0.0111873 	0.00172968 	0.0015479 	-0.249222
0.0111873 	0.00172968 	0.0015479 	-0.249222
0.0112375 	0.00177826 	0.00153573 	-0.248485
0.0112876 	0.00182683 	0.00152357 	-0.247747
0.0112876 	0.00182683 	0.00152357 	-0.247747
0.0113378 	0.00187724 	0.00150766 	-0.246984
0.011388 	0.00192771 	0.00149164 	-0.24622
0.011388 	0.00192771 	0.00149164 	-0.24622
0.0114883 	0.00203269 	0.00145473 	-0.244645
0.0114883 	0.00203269 	0.00145473 	-0.244645
0.0115385 	0.00208665 	0.0014363 	-0.243837
0.0115886 	0.00214119 	0.00141799 	-0.243022
0.0115886 	0.00214119 	0.00141799 	-0.243022
0.0116388 	0.00219654 	0.00139939 	-0.242195
0.011689 	0.00225241 	0.00138061 	-0.24136
0.011689 	0.00225241 	0.00138061 	-0.24136
0.0117391 	0.0023087 	0.00136019 	-0.240512
0.0117893 	0.0023653 	0.00133848 	-0.239654
0.0117893 	0.0023653 	0.00133848 	-0.239654
0.0118395 	0.00242176 	0.00131539 	-0.238773
0.0118896 	0.00247808 	0.00129114 	-0.237871
0.0118896 	0.00247808 	0.00129114 	-0.237871
0.0119398 	0.00253354 	0.0012677 	-0.23693
0.0119398 	0.00253354 	0.0012677 	-0.23693
0.01199 	0.00258834 	0.00124487 	-0.235958
0.01199 	0.00258834 	0.00124487 	-0.235958
0.0120401 	0.00264179 	0.00122375 	-0.234946
0.0120401 	0.00264179 	0.00122375 	-0.234946
0.0120903 	0.00269444 	0.00120364 	-0.23391
0.0120903 	0.00269444 	0.00120364 	-0.23391
0.0121405 	0.00274561 	0.00118292 	-0.232847
0.0121405 	0.00274561 	0.00118292 	-0.232847
0.0121906 	0.0027962 	0.00116194 	-0.231775
0.0121906 	0.0027962 	0.00116194 	-0.231775
0.0122408 	0.00284494 	0.00113782 	-0.23069
0.0122408 	0.00284494 	0.00113782 	-0.23069
0.012291 	0.00289334 	0.00111311 	-0.229602
0.012291 	0.00289334 	0.00111311 	-0.229602
0.0123411 	0.00293867 	0.00108589 	-0.228493
0.0123411 	0.00293867 	0.00108589 	-0.228493
0.0123913 	0.00298319 	0.00105877 	-0.227376
0.0123913 	0.00298319 	0.00105877 	-0.227376
0.0124415 	0.00302432 	0.00103207 	-0.226229
0.0124916 	0.00306339 	0.00100565 	-0.225061
0.0124916 	0.00306339 	0.00100565 	-0.225061
0.012592 	0.0031321 	0.000952849 	-0.222627
0.012592 	0.0031321 	0.000952849 	-0.222627
0.0126421 	0.00316288 	0.000925764 	-0.221372
0.0126923 	0.0031882 	0.000897565 	-0.22006
0.0126923 	0.0031882 	0.000897565 	-0.22006
0.0127425 	0.00321161 	0.000869136 	-0.218728
0.0127425 	0.00321161 	0.000869136 	-0.218728
0.0127926 	0.00323059 	0.000840229 	-0.217348
0.0128428 	0.00324572 	0.000811667 	-0.215924
0.0128428 	0.00324572 	0.000811667 	-0.215924
0.012893 	0.00325843 	0.000783321 	-0.214472
0.0129431 	0.00326517 	0.000756336 	-0.21294
0.0129431 	0.00326517 	0.000756336 	-0.21294
0.0129933 	0.00326975 	0.000729409 	-0.211373
0.0130435 	0.00327108 	0.000702552 	-0.209753
0.0130435 	0.00327108 	0.000702552 	-0.209753
0.0130936 	0.00326871 	0.000674879 	-0.208053
0.0131438 	0.00326446 	0.000646682 	-0.206307
0.0131438 	0.00326446 	0.000646682 	-0.206307
0.013194 	0.00325744 	0.000617602 	-0.204486
0.0132441 	0.00324755 	0.000587763 	-0.202577
0.0132441 	0.00324755 	0.000587763 	-0.202577
0.0132943 	0.0032356 	0.000557632 	-0.200606
0.0133445 	0.00322057 	0.00052734 	-0.198545
0.0133445 	0.00322057 	0.00052734 	-0.198545
0.0133946 	0.00320101 	0.000496694 	-0.196368
0.0134448 	0.0031775 	0.000465975 	-0.194104
0.0134448 	0.0031775 	0.000465975 	-0.194104
0.013495 	0.00314926 	0.000435264 	-0.191741
0.0135452 	0.00310904 	0.000405914 	-0.189202
0.0135452 	0.00310904 	0.000405914 	-0.189202
0.0136455 	0.00299219 	0.000347636 	-0.183734
0.0136455 	0.00299219 	0.000347636 	-0.183734
0.0136957 	0.00290871 	0.000317467 	-0.18075
0.0137458 	0.00280265 	0.000286446 	-0.177528
0.0137458 	0.00280265 	0.000286446 	-0.177528
0.013796 	0.00268007 	0.00025598 	-0.174105
0.0138462 	0.00254177 	0.000226743 	-0.170459
0.0138462 	0.00254177 	0.000226743 	-0.170459
0.0138963 	0.00238909 	0.000199394 	-0.166569
0.0138963 	0.00238909 	0.000199394 	-0.166569
0.0139465 	0.00221974 	0.000173625 	-0.162319
0.0139967 	0.00203804 	0.000148615 	-0.15776
0.0139967 	0.00203804 	0.000148615 	-0.15776
0.0140468 	0.00184456 	0.000124739 	-0.152873
0.0140468 	0.00184456 	0.000124739 	-0.152873
0.014097 	0.0016391 	0.000102385 	-0.14763
0.0141472 	0.00142093 	8.17145e-05 	-0.142003
0.0141973 	0.00118904 	6.21835e-05 	-0.135961
0.0141973 	0.00118904 	6.21835e-05 	-0.135961
0.0142475 	0.000943126 	4.26607e-05 	-0.129396
0.0142977 	0.000689735 	2.44507e-05 	-0.122342
0.0143478 	0.000436777 	9.95557e-06 	-0.114775
0.0143478 	0.000436777 	9.95557e-06 	-0.114775
0.014398 	0.000197051 	2.13347e-07 	-0.106683
0.014398 	0.000197051 	2.13347e-07 	-0.106683
0.0144482 	-1.33836e-05 	-5.84081e-06 	-0.0980876
0.0144983 	-0.000177781 	-1.01137e-05 	-0.0890523
0.0144983 	-0.000177781 	-1.01137e-05 	-0.0890523
0.0145485 	-0.000282929 	-1.35502e-05 	-0.0796911
0.0145987 	-0.000325346 	-1.6218e-05 	-0.0701561
0.0145987 	-0.000325346 	-1.6218e-05 	-0.0701561
0.0146488 	-0.000317529 	-1.8358e-05 	-0.0606141
0.014699 	-0.000291873 	-1.99576e-05 	-0.0512115
0.014699 	-0.000291873 	-1.99576e-05 	-0.0512115
0.0147492 	-0.00030303 	-2.05162e-05 	-0.0420452
0.0147993 	-0.00043393 	-1.9949e-05 	-0.0331556
0.0147993 	-0.00043393 	-1.9949e-05 	-0.0331556
0.0148495 	-0.000814888 	-1.63565e-05 	-0.0245438
0.0148495 	-0.000814888 	-1.63565e-05 	-0.0245438
0.0148997 	-0.0013612 	-1.10252e-05 	-0.0161794
0.0148997 	-0.0013612 	-1.10252e-05 	-0.0161794
0.0149498 	-0.00132852 	-6.25401e-06 	-0.00800523
0.0149498 	-0.00132852 	-6.25401e-06 	-0.00800523
0.015 	0 	0 	0
