-0.0075 	0 	0 	0
-0.0075 	7.09162e-36 	-2.87847e-36 	1.8648e-31
-0.00745622 	5.82532e-07 	-2.36448e-07 	0.0153181
-0.00745622 	5.82532e-07 	-2.36448e-07 	0.0153181
-0.00741165 	5.76667e-07 	-7.74412e-07 	0.0297999
-0.00741165 	5.76667e-07 	-7.74412e-07 	0.0297999
-0.00736628 	4.21632e-07 	-1.69259e-06 	0.0435468
-0.00736628 	4.21632e-07 	-1.69259e-06 	0.0435468
-0.0073201 	3.60582e-07 	-2.98832e-06 	0.0565914
-0.0073201 	3.60582e-07 	-2.98832e-06 	0.0565914
-0.00727309 	3.87075e-07 	-4.69966e-06 	0.0689619
-0.00727309 	3.87075e-07 	-4.69966e-06 	0.0689619
-0.00722524 	4.6259e-07 	-6.82958e-06 	0.0806836
-0.00722524 	4.6259e-07 	-6.82958e-06 	0.0806836
-0.00717653 	5.76349e-07 	-9.39334e-06 	0.0917723
-0.00717653 	5.76349e-07 	-9.39334e-06 	0.0917723
-0.00712695 	7.21966e-07 	-1.24092e-05 	0.102222
-0.00712695 	7.21966e-07 	-1.24092e-05 	0.102222
-0.00707647 	8.93416e-07 	-1.59091e-05 	0.11201
-0.00707647 	8.93416e-07 	-1.59091e-05 	0.11201
-0.0070251 	1.08589e-06 	-1.99456e-05 	0.121111
-0.0070251 	1.08589e-06 	-1.99456e-05 	0.121111
-0.0069728 	1.29661e-06 	-2.45881e-05 	0.12952
-0.0069728 	1.29661e-06 	-2.45881e-05 	0.12952
-0.00691956 	1.52456e-06 	-2.99083e-05 	0.137255
-0.00691956 	1.52456e-06 	-2.99083e-05 	0.137255
-0.00686537 	1.76965e-06 	-3.59702e-05 	0.144352
-0.00686537 	1.76965e-06 	-3.59702e-05 	0.144352
-0.00681021 	2.03186e-06 	-4.28336e-05 	0.150867
-0.00681021 	2.03186e-06 	-4.28336e-05 	0.150867
-0.00675406 	2.31083e-06 	-5.05642e-05 	0.156857
-0.00675406 	2.31083e-06 	-5.05642e-05 	0.156857
-0.0066969 	2.60586e-06 	-5.9224e-05 	0.162377
-0.0066969 	2.60586e-06 	-5.9224e-05 	0.162377
-0.00663871 	2.91592e-06 	-6.88567e-05 	0.167475
-0.00663871 	2.91592e-06 	-6.88567e-05 	0.167475
-0.00657949 	3.23995e-06 	-7.94692e-05 	0.172192
-0.00657949 	3.23995e-06 	-7.94692e-05 	0.172192
-0.0065192 	3.57707e-06 	-9.10299e-05 	0.176572
-0.0065192 	3.57707e-06 	-9.10299e-05 	0.176572
-0.00645783 	3.92659e-06 	-0.000103491 	0.180655
-0.00645783 	3.92659e-06 	-0.000103491 	0.180655
-0.00639535 	4.28774e-06 	-0.000116801 	0.184481
-0.00639535 	4.28774e-06 	-0.000116801 	0.184481
-0.00633176 	4.65948e-06 	-0.000130909 	0.188081
-0.00633176 	4.65948e-06 	-0.000130909 	0.188081
-0.00626703 	5.04082e-06 	-0.00014576 	0.191481
-0.00626703 	5.04082e-06 	-0.00014576 	0.191481
-0.00620114 	5.43089e-06 	-0.000161297 	0.194704
-0.00620114 	5.43089e-06 	-0.000161297 	0.194704
-0.00613406 	5.82895e-06 	-0.00017746 	0.197772
-0.00613406 	5.82895e-06 	-0.00017746 	0.197772
-0.00606579 	6.23449e-06 	-0.000194188 	0.200702
-0.00606579 	6.23449e-06 	-0.000194188 	0.200702
-0.00599629 	6.64743e-06 	-0.000211416 	0.20351
-0.00599629 	6.64743e-06 	-0.000211416 	0.20351
-0.00592554 	7.06805e-06 	-0.000229074 	0.206212
-0.00592554 	7.06805e-06 	-0.000229074 	0.206212
-0.00585352 	7.49647e-06 	-0.000247091 	0.208823
-0.00585352 	7.49647e-06 	-0.000247091 	0.208823
-0.00578022 	7.9323e-06 	-0.000265382 	0.211355
-0.00578022 	7.9323e-06 	-0.000265382 	0.211355
-0.00570559 	8.37487e-06 	-0.000283844 	0.213819
-0.00570559 	8.37487e-06 	-0.000283844 	0.213819
-0.00562963 	8.82375e-06 	-0.000302376 	0.216222
-0.00562963 	8.82375e-06 	-0.000302376 	0.216222
-0.00555231 	9.27868e-06 	-0.000320877 	0.218573
-0.00555231 	9.27868e-06 	-0.000320877 	0.218573
-0.0054736 	9.73947e-06 	-0.000339242 	0.220876
-0.0054736 	9.73947e-06 	-0.000339242 	0.220876
-0.00539348 	1.0206e-05 	-0.000357366 	0.223137
-0.00539348 	1.0206e-05 	-0.000357366 	0.223137
-0.00531193 	1.0678e-05 	-0.000375143 	0.225358
-0.00531193 	1.0678e-05 	-0.000375143 	0.225358
-0.00522891 	1.11555e-05 	-0.000392468 	0.227543
-0.00522891 	1.11555e-05 	-0.000392468 	0.227543
-0.0051444 	1.16382e-05 	-0.000409238 	0.229695
-0.0051444 	1.16382e-05 	-0.000409238 	0.229695
-0.00505838 	1.21262e-05 	-0.000425353 	0.231814
-0.00505838 	1.21262e-05 	-0.000425353 	0.231814
-0.00497081 	1.26192e-05 	-0.000440718 	0.233901
-0.00497081 	1.26192e-05 	-0.000440718 	0.233901
-0.00488168 	1.31171e-05 	-0.000455241 	0.235957
-0.00488168 	1.31171e-05 	-0.000455241 	0.235957
-0.00479094 	1.362e-05 	-0.000468838 	0.23798
-0.00479094 	1.362e-05 	-0.000468838 	0.23798
-0.00469858 	1.41279e-05 	-0.000481427 	0.239969
-0.00469858 	1.41279e-05 	-0.000481427 	0.239969
-0.00460456 	1.46411e-05 	-0.000492931 	0.241922
-0.00460456 	1.46411e-05 	-0.000492931 	0.241922
-0.00450886 	1.51602e-05 	-0.000503297 	0.243839
-0.00450886 	1.51602e-05 	-0.000503297 	0.243839
-0.00441144 	1.56857e-05 	-0.0005125 	0.245718
-0.00441144 	1.56857e-05 	-0.0005125 	0.245718
-0.00431227 	1.62179e-05 	-0.00052055 	0.247556
-0.00431227 	1.62179e-05 	-0.00052055 	0.247556
-0.00421133 	1.6757e-05 	-0.000527484 	0.249352
-0.00421133 	1.6757e-05 	-0.000527484 	0.249352
-0.00410857 	1.73033e-05 	-0.000533364 	0.251103
-0.00410857 	1.73033e-05 	-0.000533364 	0.251103
-0.00400397 	1.7858e-05 	-0.00053827 	0.252807
-0.00400397 	1.7858e-05 	-0.00053827 	0.252807
-0.0038975 	1.84236e-05 	-0.000542295 	0.254463
-0.0038975 	1.84236e-05 	-0.000542295 	0.254463
-0.00378912 	1.9002e-05 	-0.00054553 	0.256072
-0.00378912 	1.9002e-05 	-0.00054553 	0.256072
-0.00367879 	1.95929e-05 	-0.000548053 	0.257639
-0.00367879 	1.95929e-05 	-0.000548053 	0.257639
-0.00356649 	2.01942e-05 	-0.000549928 	0.259161
-0.00356649 	2.01942e-05 	-0.000549928 	0.259161
-0.00345217 	2.08037e-05 	-0.000551214 	0.260638
-0.00345217 	2.08037e-05 	-0.000551214 	0.260638
-0.0033358 	2.14197e-05 	-0.000551976 	0.262067
-0.0033358 	2.14197e-05 	-0.000551976 	0.262067
-0.00321735 	2.20405e-05 	-0.000552284 	0.263445
-0.00321735 	2.20405e-05 	-0.000552284 	0.263445
-0.00309677 	2.26644e-05 	-0.000552215 	0.26477
-0.00309677 	2.26644e-05 	-0.000552215 	0.26477
-0.00297403 	2.32889e-05 	-0.00055185 	0.266038
-0.00297403 	2.32889e-05 	-0.00055185 	0.266038
-0.00284909 	2.39116e-05 	-0.000551273 	0.267248
-0.00284909 	2.39116e-05 	-0.000551273 	0.267248
-0.0027219 	2.45292e-05 	-0.000550571 	0.268397
-0.0027219 	2.45292e-05 	-0.000550571 	0.268397
-0.00259244 	2.51386e-05 	-0.000549829 	0.269481
-0.00259244 	2.51386e-05 	-0.000549829 	0.269481
-0.00246065 	2.57366e-05 	-0.000549126 	0.270498
-0.00246065 	2.57366e-05 	-0.000549126 	0.270498
-0.00232651 	2.63196e-05 	-0.000548532 	0.271445
-0.00232651 	2.63196e-05 	-0.000548532 	0.271445
-0.00218995 	2.68839e-05 	-0.000548107 	0.272322
-0.00218995 	2.68839e-05 	-0.000548107 	0.272322
-0.00205095 	2.74257e-05 	-0.000547895 	0.273124
-0.00205095 	2.74257e-05 	-0.000547895 	0.273124
-0.00190946 	2.79412e-05 	-0.000547929 	0.273852
-0.00190946 	2.79412e-05 	-0.000547929 	0.273852
-0.00176543 	2.84267e-05 	-0.000548219 	0.274503
-0.00176543 	2.84267e-05 	-0.000548219 	0.274503
-0.00161881 	2.88774e-05 	-0.000548759 	0.275077
-0.00161881 	2.88774e-05 	-0.000548759 	0.275077
-0.00146957 	2.92877e-05 	-0.000549522 	0.275575
-0.00146957 	2.92877e-05 	-0.000549522 	0.275575
-0.00131765 	2.96507e-05 	-0.000550463 	0.275996
-0.00131765 	2.96507e-05 	-0.000550463 	0.275996
-0.001163 	2.99591e-05 	-0.000551524 	0.27634
-0.001163 	2.99591e-05 	-0.000551524 	0.27634
-0.00100559 	3.02048e-05 	-0.000552643 	0.276608
-0.00100559 	3.02048e-05 	-0.000552643 	0.276608
-0.000845345 	3.03787e-05 	-0.000553702 	0.276799
-0.000845345 	3.03787e-05 	-0.000553702 	0.276799
-0.000682232 	3.04705e-05 	-0.00055468 	0.276911
-0.000682232 	3.04705e-05 	-0.00055468 	0.276911
-0.000516194 	3.04681e-05 	-0.000555578 	0.276944
-0.000516194 	3.04681e-05 	-0.000555578 	0.276944
-0.000347178 	3.0359e-05 	-0.000556247 	0.276896
-0.000347178 	3.0359e-05 	-0.000556247 	0.276896
-0.000175132 	3.01261e-05 	-0.000556787 	0.276763
-0.000175132 	3.01261e-05 	-0.000556787 	0.276763
0 	2.97531e-05 	-0.000557047 	0.276544
0 	2.97531e-05 	-0.000557047 	0.276544
0 	2.97531e-05 	-0.000557047 	0.276544
0 	2.97531e-05 	-0.000557047 	0.276544
0.000175132 	2.92422e-05 	-0.000556808 	0.27624
0.000175132 	3.35953e-05 	-0.000473549 	0.272448
0.000347178 	2.86085e-05 	-0.00055623 	0.275858
0.000347178 	3.46529e-05 	-0.00047519 	0.272142
0.000516194 	2.78741e-05 	-0.000555161 	0.275404
0.000516194 	3.55228e-05 	-0.00047618 	0.271756
0.000682232 	2.70599e-05 	-0.00055363 	0.274881
0.000682232 	3.62242e-05 	-0.000476556 	0.271294
0.000845345 	2.61802e-05 	-0.000551793 	0.274293
0.000845345 	3.67732e-05 	-0.00047675 	0.270761
0.00100559 	2.52482e-05 	-0.000549598 	0.273642
0.00100559 	3.71872e-05 	-0.00047656 	0.270161
0.001163 	2.42759e-05 	-0.000547064 	0.272932
0.001163 	3.74822e-05 	-0.000475983 	0.269497
0.00131765 	2.32743e-05 	-0.000544208 	0.272165
0.00131765 	3.76726e-05 	-0.000475027 	0.268773
0.00146957 	2.22526e-05 	-0.000541045 	0.271342
0.00146957 	3.7771e-05 	-0.000473699 	0.26799
0.00161881 	2.1219e-05 	-0.00053759 	0.270467
0.00161881 	3.77884e-05 	-0.000472011 	0.26715
0.00176543 	2.01805e-05 	-0.000533856 	0.26954
0.00176543 	3.77345e-05 	-0.000469973 	0.266257
0.00190946 	1.9143e-05 	-0.000529854 	0.268563
0.00190946 	3.76177e-05 	-0.000467596 	0.265312
0.00205095 	1.81113e-05 	-0.000525595 	0.267537
0.00205095 	3.74452e-05 	-0.000464887 	0.264316
0.00218995 	1.70896e-05 	-0.000521088 	0.266464
0.00218995 	3.72234e-05 	-0.000461854 	0.263271
0.00232651 	1.60811e-05 	-0.000516337 	0.265345
0.00232651 	3.69578e-05 	-0.000458501 	0.262178
0.00246065 	1.50888e-05 	-0.000511343 	0.264179
0.00246065 	3.6653e-05 	-0.000454831 	0.261038
0.00259244 	1.41149e-05 	-0.00050611 	0.262969
0.00259244 	3.63129e-05 	-0.000450846 	0.259851
0.0027219 	1.31613e-05 	-0.000500634 	0.261713
0.0027219 	3.59406e-05 	-0.000446542 	0.258618
0.00284909 	1.22295e-05 	-0.000494915 	0.260414
0.00284909 	3.55386e-05 	-0.000441916 	0.257341
0.00297403 	1.13208e-05 	-0.000488946 	0.259069
0.00297403 	3.51092e-05 	-0.000436959 	0.256018
0.00309677 	1.04362e-05 	-0.000482722 	0.257681
0.00309677 	3.46538e-05 	-0.000431662 	0.254651
0.00321735 	9.57632e-06 	-0.000476236 	0.256248
0.00321735 	3.41737e-05 	-0.000426014 	0.253238
0.0033358 	8.74185e-06 	-0.000469481 	0.25477
0.0033358 	3.36699e-05 	-0.000420004 	0.25178
0.00345217 	3.31431e-05 	-0.000413629 	0.250276
0.00345217 	7.93312e-06 	-0.000462452 	0.253246
0.00356649 	7.15044e-06 	-0.000455141 	0.251676
0.00356649 	3.25949e-05 	-0.000406889 	0.248724
0.00367879 	6.39414e-06 	-0.000447533 	0.250058
0.00367879 	3.20283e-05 	-0.000399776 	0.247126
0.00378912 	5.66459e-06 	-0.000439608 	0.248392
0.00378912 	3.14468e-05 	-0.000392274 	0.245481
0.0038975 	4.96191e-06 	-0.000431336 	0.246676
0.0038975 	3.08509e-05 	-0.000384345 	0.243788
0.00400397 	4.28586e-06 	-0.000422663 	0.244904
0.00400397 	3.02383e-05 	-0.000375911 	0.242037
0.00410857 	2.96067e-05 	-0.000366864 	0.240217
0.00410857 	3.63644e-06 	-0.000413518 	0.243072
0.00421133 	3.01348e-06 	-0.000403823 	0.241174
0.00421133 	2.89542e-05 	-0.000357112 	0.238318
0.00431227 	2.41567e-06 	-0.000393498 	0.239202
0.00431227 	2.82784e-05 	-0.000346592 	0.236335
0.00441144 	1.841e-06 	-0.000382486 	0.23715
0.00441144 	2.75766e-05 	-0.000335275 	0.234263
0.00450886 	1.28781e-06 	-0.000370768 	0.235012
0.00450886 	2.6846e-05 	-0.00032318 	0.232099
0.00460456 	7.55176e-07 	-0.000358345 	0.232783
0.00460456 	2.60839e-05 	-0.000310347 	0.229839
0.00469858 	2.42703e-07 	-0.000345234 	0.230458
0.00469858 	2.52882e-05 	-0.000296824 	0.227479
0.00479094 	-2.4976e-07 	-0.000331459 	0.228033
0.00479094 	2.44567e-05 	-0.000282663 	0.225015
0.00488168 	-7.22297e-07 	-0.000317048 	0.225504
0.00488168 	2.35874e-05 	-0.000267921 	0.222443
0.00497081 	-1.17494e-06 	-0.000302042 	0.222865
0.00497081 	2.26784e-05 	-0.000252664 	0.219758
0.00505838 	-1.60767e-06 	-0.000286495 	0.220114
0.00505838 	2.17281e-05 	-0.000236969 	0.216958
0.0051444 	-2.02034e-06 	-0.000270475 	0.217245
0.0051444 	2.07354e-05 	-0.000220928 	0.214038
0.00522891 	-2.41272e-06 	-0.000254069 	0.214257
0.00522891 	1.96997e-05 	-0.00020465 	0.210997
0.00531193 	-2.78445e-06 	-0.000237376 	0.211144
0.00531193 	1.86209e-05 	-0.000188258 	0.207831
0.00539348 	-3.13508e-06 	-0.000220515 	0.207905
0.00539348 	1.74998e-05 	-0.000171891 	0.204539
0.0054736 	-3.46406e-06 	-0.00020361 	0.204536
0.0054736 	1.63376e-05 	-0.000155694 	0.20112
0.00555231 	-3.77077e-06 	-0.000186794 	0.201034
0.00555231 	1.51361e-05 	-0.000139814 	0.19757
0.00562963 	-4.05451e-06 	-0.000170204 	0.197394
0.00562963 	1.38974e-05 	-0.000124393 	0.193888
0.00570559 	-4.31454e-06 	-0.000153969 	0.193613
0.00570559 	1.26241e-05 	-0.000109566 	0.190071
0.00578022 	-4.55006e-06 	-0.000138214 	0.189685
0.00578022 	1.13194e-05 	-9.54512e-05 	0.186115
0.00585352 	-4.76024e-06 	-0.000123053 	0.185605
0.00585352 	9.98659e-06 	-8.21508e-05 	0.182015
0.00592554 	-4.94421e-06 	-0.000108587 	0.181367
0.00592554 	8.62978e-06 	-6.97466e-05 	0.177767
0.00599629 	-5.10103e-06 	-9.4903e-05 	0.176963
0.00599629 	7.25341e-06 	-5.83001e-05 	0.173363
0.00606579 	-5.22963e-06 	-8.20719e-05 	0.172383
0.00606579 	5.86256e-06 	-4.78532e-05 	0.168794
0.00613406 	-5.32891e-06 	-7.01543e-05 	0.167616
0.00613406 	4.46264e-06 	-3.84285e-05 	0.164049
0.00620114 	3.05939e-06 	-3.00318e-05 	0.15911
0.00620114 	-5.39801e-06 	-5.91964e-05 	0.162646
0.00626703 	-5.43631e-06 	-4.9235e-05 	0.157456
0.00626703 	1.65975e-06 	-2.26603e-05 	0.153961
0.00633176 	2.7241e-07 	-1.62999e-05 	0.148588
0.00633176 	-5.44343e-06 	-4.02978e-05 	0.15203
0.00639535 	-1.09219e-06 	-1.09181e-05 	0.142977
0.00639535 	-5.41892e-06 	-3.23927e-05 	0.146354
0.00645783 	-5.36238e-06 	-2.55079e-05 	0.140412
0.00645783 	-2.42192e-06 	-6.46671e-06 	0.137111
0.0065192 	-5.27363e-06 	-1.96163e-05 	0.134187
0.0065192 	-3.70285e-06 	-2.88504e-06 	0.130974
0.00657949 	-5.15277e-06 	-1.46779e-05 	0.127663
0.00657949 	-4.91888e-06 	-1.03595e-07 	0.124548
0.00663871 	-4.99985e-06 	-1.064e-05 	0.120823
0.00663871 	-6.05153e-06 	1.9534e-06 	0.117817
0.0066969 	-4.81474e-06 	-7.42239e-06 	0.11365
0.0066969 	-7.08091e-06 	3.37298e-06 	0.11076
0.00675406 	-7.98701e-06 	4.24601e-06 	0.10334
0.00675406 	-4.59788e-06 	-4.93093e-06 	0.10611
0.00681021 	-8.74757e-06 	4.66135e-06 	0.0955367
0.00681021 	-4.35163e-06 	-3.06642e-06 	0.0981732
0.00686537 	-9.33618e-06 	4.70813e-06 	0.0873705
0.00686537 	-4.0814e-06 	-1.73332e-06 	0.0898542
0.00691956 	-9.72518e-06 	4.4741e-06 	0.0789114
0.00691956 	-3.79443e-06 	-8.47483e-07 	0.0812195
0.0069728 	-9.89074e-06 	4.04606e-06 	0.0702778
0.0069728 	-3.49808e-06 	-3.16426e-07 	0.0723869
0.0070251 	-3.19914e-06 	-4.49882e-08 	0.0635227
0.0070251 	-9.81827e-06 	3.50486e-06 	0.0616319
0.00707647 	-2.90277e-06 	5.68304e-08 	0.0548217
0.00707647 	-9.507e-06 	2.92043e-06 	0.0531605
0.00712695 	-2.61123e-06 	6.6047e-08 	0.0464733
0.00712695 	-8.9709e-06 	2.34781e-06 	0.0450432
0.00717653 	-2.32341e-06 	3.91964e-08 	0.0386261
0.00717653 	-8.23498e-06 	1.82392e-06 	0.0374192
0.00722524 	-2.03481e-06 	1.1028e-08 	0.0313673
0.00722524 	-7.32859e-06 	1.36927e-06 	0.0303699
0.00727309 	-6.27876e-06 	9.90894e-07 	0.0239233
0.00727309 	-1.73692e-06 	-2.69394e-09 	0.0247269
0.0073201 	-5.10521e-06 	6.84152e-07 	0.0180717
0.0073201 	-1.41324e-06 	-6.67759e-10 	0.0186964
0.00736628 	-3.81471e-06 	4.44282e-07 	0.0127888
0.00736628 	-1.02832e-06 	1.47807e-08 	0.013248
0.00741165 	-5.80726e-07 	2.05417e-08 	0.00834539
0.00741165 	-2.45696e-06 	2.48205e-07 	0.00803937
0.00745622 	-1.8935e-07 	1.80867e-08 	0.003948
0.00745622 	-1.16074e-06 	1.02263e-07 	0.00378366
0.0075 	0 	0 	0
0.0075 	0 	0 	0
