
400
(
0.000768509
0.000664406
0.000681944
0.00103589
0.000703455
0.00104768
0.00072178
0.0010508
0.000735983
0.00105379
0.00074607
0.0010552
0.000752516
0.00105361
0.000755649
0.00104791
0.000755386
0.00103766
0.00075137
0.00102058
0.000743727
0.000995426
0.000733043
0.000964355
0.000720038
0.000928756
0.000705615
0.000890573
0.000690754
0.000851652
0.000675793
0.000813851
0.000660033
0.000773846
0.00064755
0.00072767
0.000642476
0.000708707
0.000640107
0.000704576
0.000635972
0.000686806
0.000632971
0.000658883
0.000634137
0.000653209
0.00063639
0.000669376
0.000636801
0.000679663
0.000635288
0.000687233
0.000631633
0.000691243
0.000625645
0.000691224
0.00061719
0.000686455
0.000606282
0.000676638
0.000593093
0.000662074
0.000577884
0.0006435
0.000561006
0.000621642
0.000542888
0.000597515
0.000523946
0.000572049
0.000504541
0.000545989
0.000484961
0.000519875
0.000465413
0.000494056
0.000446036
0.000468673
0.000426942
0.00044379
0.000408177
0.000419413
0.000389693
0.000395511
0.000371409
0.000372137
0.000353277
0.000349411
0.000335283
0.00032745
0.000317325
0.000306358
0.000299224
0.000285479
0.000281236
0.000264264
0.000264343
0.000244655
0.000249001
0.00023029
0.000234433
0.000218903
0.000219881
0.000206739
0.000205199
0.000193561
0.000190479
0.000179818
0.000175883
0.000165981
0.000161593
0.000152671
0.000147731
0.000140395
0.000134322
0.000129074
0.000121342
0.000118221
0.000108778
0.00010746
9.66431e-05
9.67153e-05
8.49521e-05
8.60796e-05
7.37003e-05
7.56141e-05
6.28905e-05
6.53376e-05
5.25626e-05
5.52975e-05
4.28039e-05
4.5584e-05
3.37568e-05
3.63178e-05
2.56109e-05
2.7714e-05
1.85637e-05
2.00765e-05
1.27655e-05
1.36828e-05
8.27016e-06
8.69413e-06
5.0103e-06
5.10027e-06
2.81123e-06
2.72442e-06
1.43922e-06
1.29163e-06
6.55778e-07
5.14565e-07
2.55002e-07
1.48986e-07
7.89563e-08
1.30127e-08
1.81331e-08
-1.52095e-08
3.79128e-09
-7.62125e-09
1.8616e-09
-6.46347e-10
0.000719734
0.00074212
0.000765583
0.000785373
0.000800458
0.000810934
0.000817219
0.000819742
0.000818939
0.000815203
0.000808914
0.00080041
0.000790011
0.000778079
0.000765086
0.000751692
0.000738621
0.000726586
0.000716434
0.000707605
0.000698713
0.000689509
0.000679526
0.000669721
0.00066147
0.000653674
0.00064508
0.000635174
0.000623697
0.000610478
0.000595457
0.000578762
0.000560594
0.0005413
0.000521308
0.000501067
0.000480936
0.000461095
0.000441354
0.00042284
0.00040725
0.000393541
0.000379918
0.000365801
0.000351008
0.000335568
0.000319592
0.00030321
0.000286555
0.000269762
0.000252957
0.000236243
0.000219693
0.000203379
0.000187375
0.000171753
0.000156587
0.000141948
0.000127887
0.000114413
0.000101517
8.91887e-05
7.7395e-05
6.61053e-05
5.53273e-05
4.51325e-05
3.56653e-05
2.71197e-05
1.96998e-05
1.35698e-05
8.79954e-06
5.33118e-06
2.98915e-06
1.52883e-06
6.96168e-07
2.70709e-07
8.39117e-08
1.9469e-08
4.26096e-09
2.14195e-09
0.000823837
0.000836592
0.000847525
0.000856058
0.000862142
0.000866001
0.000867566
0.000866491
0.000862669
0.000856207
0.00084729
0.000836115
0.000822908
0.000807935
0.000791518
0.000774292
0.000757602
0.000742694
0.000729973
0.000718553
0.0007073
0.000696257
0.000685139
0.000674787
0.000666336
0.000658537
0.000650055
0.000640316
0.000629022
0.000615974
0.000601053
0.000584374
0.000566175
0.000546799
0.000526646
0.000506129
0.00048559
0.000465201
0.000444765
0.000425399
0.000408807
0.000394023
0.000379356
0.000364304
0.000348726
0.000332659
0.000316338
0.000300108
0.000284129
0.000268327
0.000252587
0.00023686
0.000221168
0.000205585
0.000190196
0.00017508
0.00016032
0.000145974
0.00013207
0.000118608
0.000105581
9.29896e-05
8.08185e-05
6.90561e-05
5.77458e-05
4.7006e-05
3.70245e-05
2.8031e-05
2.02566e-05
1.38753e-05
8.94772e-06
5.39336e-06
3.01058e-06
1.53385e-06
6.95926e-07
2.69471e-07
8.2827e-08
1.84169e-08
3.388e-09
1.54903e-09
0.000768509
0.000776416
0.000785397
0.000792466
0.000797667
0.000801137
0.000802863
0.000802398
0.000799115
0.000792374
0.000782103
0.000768749
0.000752935
0.000735471
0.000717187
0.000698393
0.000679013
0.000663658
0.000656015
0.000651055
0.000644558
0.00063972
0.000639751
0.000641457
0.000641667
0.000640151
0.000636608
0.000630787
0.000622516
0.000611778
0.000598689
0.000583496
0.000566586
0.000548387
0.000529284
0.000509604
0.000489616
0.000469518
0.000449447
0.0004295
0.000409734
0.000390175
0.000370846
0.00035178
0.000333
0.000314416
0.000295969
0.000278134
0.000261917
0.000247566
0.000234063
0.000220498
0.000206674
0.000192685
0.000178704
0.000164921
0.000151464
0.000138348
0.000125526
0.000112973
0.000100707
8.8753e-05
7.71238e-05
6.58414e-05
5.49811e-05
4.46774e-05
3.51159e-05
2.65222e-05
1.91205e-05
1.30709e-05
8.41834e-06
5.07248e-06
2.83266e-06
1.44424e-06
6.55535e-07
2.53763e-07
7.78716e-08
1.7081e-08
2.91832e-09
1.26868e-09
)
