/*--------------------------------*- C++ -*----------------------------------*\
| =========                 |                                                 |
| \\      /  F ield         | OpenFOAM: The Open Source CFD Toolbox           |
|  \\    /   O peration     | Version:  v1912                                 |
|   \\  /    A nd           | Website:  www.openfoam.com                      |
|    \\/     M anipulation  |                                                 |
\*---------------------------------------------------------------------------*/
FoamFile
{
    version     2.0;
    format      ascii;
    class       volScalarField;
    location    "11.2";
    object      heatTransferCoeff(T);
}
// * * * * * * * * * * * * * * * * * * * * * * * * * * * * * * * * * * * * * //

dimensions      [1 0 -3 -1 0 0 0];


internalField   uniform 0;

boundaryField
{
    leftWall
    {
        type            calculated;
        value           nonuniform List<scalar> 
216
(
-167.565
-169.871
-170.558
-172.836
-174.176
-176.458
-178.373
-180.633
-183.076
-185.297
-188.255
-190.48
-194.011
-196.399
-200.688
-203.537
-208.877
-212.528
-165.131
-167.336
-167.981
-170.171
-171.479
-173.703
-175.641
-177.924
-180.491
-182.871
-186.097
-188.641
-192.592
-195.405
-200.194
-203.433
-209.209
-213.064
-161.702
-163.982
-164.702
-167
-168.493
-170.882
-173.117
-175.643
-178.618
-181.333
-185.062
-188.019
-192.524
-195.757
-201.061
-204.597
-210.731
-214.648
-162.384
-164.919
-165.685
-168.213
-169.758
-172.35
-174.607
-177.276
-180.205
-182.966
-186.543
-189.425
-193.666
-196.733
-201.731
-205.129
-211.073
-215.048
-165.418
-167.929
-168.651
-171.136
-172.587
-175.125
-177.232
-179.83
-182.553
-185.206
-188.516
-191.23
-195.136
-197.964
-202.548
-205.646
-211.109
-214.761
-166.778
-169.274
-169.967
-172.438
-173.884
-176.41
-178.535
-181.134
-183.893
-186.556
-189.917
-192.638
-196.585
-199.374
-203.9
-206.786
-211.901
-214.952
-166.151
-168.626
-169.281
-171.735
-173.131
-175.611
-177.691
-180.222
-182.952
-185.552
-188.926
-191.619
-195.648
-198.473
-203.168
-206.163
-211.528
-214.734
-165.024
-167.308
-167.931
-170.226
-171.554
-173.894
-175.908
-178.331
-181.022
-183.567
-186.943
-189.641
-193.713
-196.593
-201.378
-204.492
-210.049
-213.525
-165.044
-167.229
-167.861
-170.091
-171.438
-173.784
-175.855
-178.368
-181.163
-183.876
-187.382
-190.299
-194.496
-197.612
-202.509
-205.884
-211.601
-215.438
-165.733
-167.96
-168.605
-170.863
-172.226
-174.609
-176.692
-179.26
-182.075
-184.876
-188.436
-191.509
-195.847
-199.247
-204.443
-208.286
-214.484
-218.948
-165.795
-167.769
-168.395
-170.383
-171.697
-173.79
-175.776
-178.031
-180.701
-183.174
-186.561
-189.316
-193.487
-196.619
-201.685
-205.336
-211.437
-215.756
-165.964
-167.634
-168.236
-169.915
-171.163
-172.94
-174.812
-176.737
-179.238
-181.358
-184.511
-186.876
-190.722
-193.406
-198.025
-201.157
-206.699
-210.474
)
;
    }
    rightWall
    {
        type            calculated;
        value           nonuniform List<scalar> 
216
(
-165.738
-167.673
-168.059
-170.082
-170.88
-173.046
-174.257
-176.579
-178.212
-180.701
-182.772
-185.453
-187.984
-190.895
-193.925
-197.107
-200.711
-204.225
-166.535
-168.441
-168.802
-170.798
-171.576
-173.721
-174.929
-177.254
-178.911
-181.442
-183.565
-186.328
-188.947
-191.968
-195.126
-198.438
-202.201
-205.851
-167.795
-169.733
-170.047
-172.06
-172.762
-174.889
-176.003
-178.281
-179.829
-182.3
-184.307
-187.009
-189.522
-192.488
-195.569
-198.833
-202.552
-206.153
-167.449
-169.309
-169.615
-171.546
-172.216
-174.237
-175.297
-177.434
-178.902
-181.194
-183.1
-185.591
-187.984
-190.728
-193.683
-196.745
-200.361
-203.823
-166.373
-168.09
-168.404
-170.194
-170.85
-172.741
-173.761
-175.768
-177.173
-179.325
-181.142
-183.479
-185.75
-188.325
-191.127
-194.021
-197.48
-200.826
-166.075
-167.875
-168.202
-170.059
-170.734
-172.705
-173.738
-175.85
-177.271
-179.556
-181.401
-183.904
-186.224
-188.997
-191.871
-194.989
-198.537
-202.109
-165.768
-167.789
-168.118
-170.164
-170.867
-173.004
-174.083
-176.354
-177.84
-180.289
-182.233
-184.913
-187.38
-190.35
-193.413
-196.737
-200.481
-204.235
-164.966
-166.913
-167.217
-169.172
-169.84
-171.865
-172.896
-175.037
-176.461
-178.761
-180.635
-183.149
-185.543
-188.34
-191.34
-194.495
-198.201
-201.801
-165.038
-166.869
-167.175
-169.029
-169.676
-171.601
-172.594
-174.623
-175.986
-178.15
-179.932
-182.271
-184.535
-187.107
-189.933
-192.814
-196.313
-199.607
-166.172
-168.177
-168.524
-170.563
-171.27
-173.37
-174.432
-176.605
-178.035
-180.295
-182.123
-184.497
-186.771
-189.306
-192.099
-194.882
-198.308
-201.469
-166.893
-168.971
-169.33
-171.442
-172.18
-174.351
-175.459
-177.705
-179.197
-181.54
-183.45
-185.921
-188.303
-190.952
-193.876
-196.786
-200.359
-203.644
-166.508
-168.552
-168.896
-170.979
-171.705
-173.86
-174.965
-177.221
-178.723
-181.107
-183.046
-185.597
-188.028
-190.791
-193.785
-196.822
-200.47
-203.866
)
;
    }
    leftSides_periodic0
    {
        type            cyclic;
    }
    leftSides_periodic1
    {
        type            cyclic;
    }
    rightSides_periodic0
    {
        type            cyclic;
    }
    rightSides_periodic1
    {
        type            cyclic;
    }
    leftInOut_periodic0
    {
        type            calculated;
        value           uniform 0;
    }
    leftInOut_periodic1
    {
        type            calculated;
        value           nonuniform 0();
    }
    rightInOut_periodic0
    {
        type            calculated;
        value           uniform 0;
    }
    rightInOut_periodic1
    {
        type            calculated;
        value           nonuniform 0();
    }
    procBoundary1to0
    {
        type            processor;
        value           uniform 0;
    }
    procBoundary1to2
    {
        type            processor;
        value           uniform 0;
    }
    procBoundary1to4
    {
        type            processor;
        value           uniform 0;
    }
}


// ************************************************************************* //
