/*--------------------------------*- C++ -*----------------------------------*\
| =========                 |                                                 |
| \\      /  F ield         | OpenFOAM: The Open Source CFD Toolbox           |
|  \\    /   O peration     | Version:  v1912                                 |
|   \\  /    A nd           | Website:  www.openfoam.com                      |
|    \\/     M anipulation  |                                                 |
\*---------------------------------------------------------------------------*/
FoamFile
{
    version     2.0;
    format      ascii;
    class       volScalarField;
    location    "11.2";
    object      k;
}
// * * * * * * * * * * * * * * * * * * * * * * * * * * * * * * * * * * * * * //

dimensions      [0 2 -2 0 0 0 0];


internalField   nonuniform List<scalar> 
34128
(
2.61084e-07
2.5713e-07
2.55266e-07
2.57966e-07
2.66877e-07
2.7767e-07
2.79162e-07
2.72912e-07
2.7148e-07
2.72049e-07
2.62273e-07
2.46696e-07
5.08351e-08
5.00831e-08
4.99825e-08
5.06984e-08
5.21885e-08
5.37184e-08
5.37325e-08
5.26518e-08
5.28845e-08
5.35082e-08
5.1628e-08
4.82166e-08
8.38693e-08
8.27604e-08
8.40202e-08
8.61852e-08
8.7324e-08
8.68524e-08
8.54417e-08
8.43867e-08
8.7435e-08
9.11123e-08
8.81214e-08
8.05215e-08
2.55906e-07
2.5267e-07
2.57529e-07
2.64768e-07
2.67301e-07
2.6383e-07
2.58577e-07
2.55906e-07
2.66972e-07
2.7987e-07
2.70823e-07
2.464e-07
6.3077e-07
6.22968e-07
6.3561e-07
6.53797e-07
6.59371e-07
6.49445e-07
6.35886e-07
6.29827e-07
6.58185e-07
6.90795e-07
6.68617e-07
6.07969e-07
1.28909e-06
1.27342e-06
1.3001e-06
1.33772e-06
1.34806e-06
1.32549e-06
1.29678e-06
1.28545e-06
1.34506e-06
1.41268e-06
1.3678e-06
1.24381e-06
2.30667e-06
2.27904e-06
2.32796e-06
2.39599e-06
2.4125e-06
2.36747e-06
2.31412e-06
2.29615e-06
2.40592e-06
2.52857e-06
2.44963e-06
2.22864e-06
3.73857e-06
3.69431e-06
3.77487e-06
3.88622e-06
3.90936e-06
3.82765e-06
3.7376e-06
3.71297e-06
3.89632e-06
4.09779e-06
3.97323e-06
3.61824e-06
5.60348e-06
5.53748e-06
5.65889e-06
5.82721e-06
5.856e-06
5.71877e-06
5.57803e-06
5.54892e-06
5.8322e-06
6.13799e-06
5.95828e-06
5.43414e-06
7.87279e-06
7.77962e-06
7.9489e-06
8.18715e-06
8.21897e-06
8.00361e-06
7.79742e-06
7.7687e-06
8.17861e-06
8.61301e-06
8.37292e-06
7.65223e-06
1.04693e-05
1.03432e-05
1.05634e-05
1.08824e-05
1.09133e-05
1.05953e-05
1.03096e-05
1.02888e-05
1.08492e-05
1.14321e-05
1.11322e-05
1.02005e-05
1.32763e-05
1.31111e-05
1.338e-05
1.37874e-05
1.38127e-05
1.33684e-05
1.29914e-05
1.29877e-05
1.3717e-05
1.4461e-05
1.41079e-05
1.2967e-05
1.61527e-05
1.59424e-05
1.62527e-05
1.67522e-05
1.67673e-05
1.61763e-05
1.56997e-05
1.57233e-05
1.66317e-05
1.75408e-05
1.71464e-05
1.58143e-05
1.89757e-05
1.8715e-05
1.90608e-05
1.96558e-05
1.96569e-05
1.89023e-05
1.83194e-05
1.83805e-05
1.94763e-05
2.05511e-05
2.01242e-05
1.8618e-05
2.16845e-05
2.13687e-05
2.17429e-05
2.24351e-05
2.24184e-05
2.14858e-05
2.07925e-05
2.09011e-05
2.21887e-05
2.34253e-05
2.29756e-05
2.13183e-05
2.42274e-05
2.38529e-05
2.42483e-05
2.50375e-05
2.49991e-05
2.38771e-05
2.3072e-05
2.32381e-05
2.47176e-05
2.61076e-05
2.56451e-05
2.38639e-05
2.65644e-05
2.61291e-05
2.65387e-05
2.74228e-05
2.73584e-05
2.60395e-05
2.51242e-05
2.53572e-05
2.70247e-05
2.85553e-05
2.80896e-05
2.62149e-05
2.86667e-05
2.81706e-05
2.85885e-05
2.95626e-05
2.94678e-05
2.79482e-05
2.69275e-05
2.72363e-05
2.90835e-05
3.07381e-05
3.02785e-05
2.83429e-05
3.05161e-05
2.99611e-05
3.03825e-05
3.14398e-05
3.13093e-05
2.95889e-05
2.8471e-05
2.88634e-05
3.0878e-05
3.26365e-05
3.21921e-05
3.02295e-05
3.21034e-05
3.14939e-05
3.19149e-05
3.30462e-05
3.28739e-05
3.09566e-05
2.97527e-05
3.02354e-05
3.24012e-05
3.42406e-05
3.38198e-05
3.18656e-05
3.34271e-05
3.27693e-05
3.31874e-05
3.43813e-05
3.41603e-05
3.20535e-05
3.07776e-05
3.1356e-05
3.36531e-05
3.5548e-05
3.51587e-05
3.32493e-05
3.44915e-05
3.37937e-05
3.42067e-05
3.545e-05
3.51721e-05
3.28874e-05
3.15557e-05
3.22337e-05
3.46386e-05
3.65618e-05
3.62114e-05
3.43844e-05
3.53044e-05
3.45761e-05
3.49823e-05
3.62599e-05
3.59165e-05
3.34689e-05
3.20998e-05
3.28794e-05
3.53653e-05
3.72875e-05
3.69832e-05
3.52775e-05
3.58737e-05
3.51262e-05
3.55235e-05
3.68179e-05
3.64003e-05
3.38095e-05
3.24233e-05
3.33042e-05
3.58404e-05
3.77304e-05
3.74799e-05
3.59348e-05
3.62051e-05
3.5451e-05
3.58367e-05
3.71277e-05
3.66282e-05
3.39189e-05
3.25372e-05
3.35163e-05
3.60683e-05
3.78931e-05
3.77042e-05
3.63602e-05
3.62989e-05
3.55528e-05
3.59232e-05
3.71877e-05
3.66007e-05
3.38032e-05
3.24493e-05
3.35197e-05
3.60487e-05
3.77745e-05
3.76551e-05
3.6552e-05
3.61493e-05
3.54278e-05
3.57778e-05
3.69906e-05
3.63132e-05
3.34639e-05
3.21621e-05
3.33127e-05
3.5776e-05
3.73691e-05
3.73268e-05
3.65028e-05
3.57406e-05
3.50637e-05
3.53864e-05
3.65177e-05
3.57534e-05
3.28983e-05
3.16735e-05
3.28872e-05
3.52363e-05
3.66625e-05
3.67047e-05
3.6195e-05
3.50307e-05
3.44249e-05
3.47106e-05
3.57235e-05
3.48888e-05
3.20945e-05
3.09729e-05
3.22206e-05
3.43943e-05
3.56191e-05
3.57525e-05
3.55847e-05
3.39675e-05
3.34612e-05
3.36995e-05
3.45583e-05
3.36811e-05
3.10304e-05
3.00379e-05
3.12763e-05
3.32087e-05
3.42057e-05
3.44326e-05
3.46159e-05
3.25458e-05
3.21588e-05
3.2343e-05
3.30251e-05
3.21348e-05
2.97005e-05
2.88559e-05
3.00401e-05
3.16829e-05
3.24424e-05
3.27579e-05
3.32768e-05
3.08342e-05
3.05755e-05
3.07027e-05
3.11987e-05
3.03153e-05
2.81422e-05
2.74551e-05
2.8554e-05
2.9883e-05
3.04056e-05
3.08028e-05
3.16326e-05
2.88585e-05
2.87252e-05
2.87982e-05
2.91135e-05
2.82581e-05
2.63743e-05
2.58405e-05
2.68292e-05
2.78434e-05
2.8146e-05
2.86118e-05
2.97028e-05
2.668e-05
2.6664e-05
2.66875e-05
2.68364e-05
2.60291e-05
2.44468e-05
2.40559e-05
2.49157e-05
2.56297e-05
2.57407e-05
2.62579e-05
2.7549e-05
2.43747e-05
2.44623e-05
2.44432e-05
2.44476e-05
2.37051e-05
2.24215e-05
2.21575e-05
2.28775e-05
2.33194e-05
2.3274e-05
2.38236e-05
2.52474e-05
2.20217e-05
2.21949e-05
2.21416e-05
2.20286e-05
2.1363e-05
2.0362e-05
2.02053e-05
2.07826e-05
2.09907e-05
2.08276e-05
2.13895e-05
2.28779e-05
1.96964e-05
1.99343e-05
1.9856e-05
1.96552e-05
1.90738e-05
1.8328e-05
1.82572e-05
1.86971e-05
1.87165e-05
1.84736e-05
1.90285e-05
2.05173e-05
1.74654e-05
1.77459e-05
1.76519e-05
1.7393e-05
1.68979e-05
1.63722e-05
1.63659e-05
1.66805e-05
1.6559e-05
1.62712e-05
1.68011e-05
1.82344e-05
1.5383e-05
1.56848e-05
1.55836e-05
1.52939e-05
1.48824e-05
1.45374e-05
1.45758e-05
1.47827e-05
1.4567e-05
1.42638e-05
1.47532e-05
1.60862e-05
1.34899e-05
1.37936e-05
1.36922e-05
1.33951e-05
1.3061e-05
1.28563e-05
1.29223e-05
1.30421e-05
1.27752e-05
1.24796e-05
1.2916e-05
1.41165e-05
1.18124e-05
1.2102e-05
1.20056e-05
1.17196e-05
1.14539e-05
1.13509e-05
1.14305e-05
1.14854e-05
1.12043e-05
1.09328e-05
1.13068e-05
1.23548e-05
1.03645e-05
1.06272e-05
1.05394e-05
1.02777e-05
1.00701e-05
1.00342e-05
1.01166e-05
1.01283e-05
9.86326e-06
9.62654e-06
9.9313e-06
1.08181e-05
9.14959e-06
9.37613e-06
9.29879e-06
9.06968e-06
8.90949e-06
8.91095e-06
8.98854e-06
8.97695e-06
8.75174e-06
8.55555e-06
8.7866e-06
9.51214e-06
8.16353e-06
8.34771e-06
8.28116e-06
8.08915e-06
7.96598e-06
7.9805e-06
8.04822e-06
8.03067e-06
7.86326e-06
7.70982e-06
7.8642e-06
8.43451e-06
7.39769e-06
7.53552e-06
7.47909e-06
7.3257e-06
7.23018e-06
7.23828e-06
7.29306e-06
7.2841e-06
7.18798e-06
7.07709e-06
7.1528e-06
7.57736e-06
6.84131e-06
6.93049e-06
6.88283e-06
6.76769e-06
6.6917e-06
6.67797e-06
6.71815e-06
6.72963e-06
6.71504e-06
6.64498e-06
6.64065e-06
6.93013e-06
6.48302e-06
6.52286e-06
6.48233e-06
6.40403e-06
6.34093e-06
6.29298e-06
6.31782e-06
6.35922e-06
6.43382e-06
6.40182e-06
6.31703e-06
6.48176e-06
6.31035e-06
6.30296e-06
6.26799e-06
6.22438e-06
6.16885e-06
6.0768e-06
6.08628e-06
6.16491e-06
6.33179e-06
6.33257e-06
6.17164e-06
6.22185e-06
6.29265e-06
6.25508e-06
6.22242e-06
6.1977e-06
6.14104e-06
6.01477e-06
6.01218e-06
6.12514e-06
6.34113e-06
6.37123e-06
6.1525e-06
6.13782e-06
6.38208e-06
6.31529e-06
6.2838e-06
6.27499e-06
6.21475e-06
6.05126e-06
6.03679e-06
6.18647e-06
6.4483e-06
6.49494e-06
6.23641e-06
6.16273e-06
6.54225e-06
6.46285e-06
6.43046e-06
6.42728e-06
6.36419e-06
6.17583e-06
6.15219e-06
6.32955e-06
6.59892e-06
6.64404e-06
6.39239e-06
6.28379e-06
6.71557e-06
6.64774e-06
6.61407e-06
6.60209e-06
6.54017e-06
6.35709e-06
6.32915e-06
6.50667e-06
6.73888e-06
6.77434e-06
6.56687e-06
6.46564e-06
6.86579e-06
6.81713e-06
6.78223e-06
6.75643e-06
6.69643e-06
6.54055e-06
6.51544e-06
6.66665e-06
6.85458e-06
6.88404e-06
6.71955e-06
6.65077e-06
6.99658e-06
6.96313e-06
6.92767e-06
6.89095e-06
6.83059e-06
6.69693e-06
6.67472e-06
6.79944e-06
6.95343e-06
6.98023e-06
6.8515e-06
6.80916e-06
7.11333e-06
7.09256e-06
7.05744e-06
7.01196e-06
6.94938e-06
6.83157e-06
6.81021e-06
6.91295e-06
7.04071e-06
7.06724e-06
6.9689e-06
6.94599e-06
7.219e-06
7.20951e-06
7.17579e-06
7.12305e-06
7.05679e-06
6.95024e-06
6.92844e-06
7.01257e-06
7.11951e-06
7.14737e-06
7.0753e-06
7.06664e-06
7.31487e-06
7.31598e-06
7.28479e-06
7.22586e-06
7.1548e-06
7.05624e-06
7.03334e-06
7.10144e-06
7.19137e-06
7.2216e-06
7.17249e-06
7.17418e-06
7.40129e-06
7.41268e-06
7.38513e-06
7.32085e-06
7.2442e-06
7.15129e-06
7.12705e-06
7.18125e-06
7.25698e-06
7.29022e-06
7.26115e-06
7.27012e-06
7.47821e-06
7.49965e-06
7.47679e-06
7.40791e-06
7.32517e-06
7.23622e-06
7.2107e-06
7.25286e-06
7.31659e-06
7.35321e-06
7.34146e-06
7.35516e-06
7.54551e-06
7.57673e-06
7.55946e-06
7.48671e-06
7.39769e-06
7.31143e-06
7.28487e-06
7.3167e-06
7.37031e-06
7.41045e-06
7.41339e-06
7.42966e-06
7.6032e-06
7.64379e-06
7.63288e-06
7.55701e-06
7.46173e-06
7.37724e-06
7.34998e-06
7.37308e-06
7.41822e-06
7.46192e-06
7.47698e-06
7.49392e-06
7.65145e-06
7.70085e-06
7.69688e-06
7.61866e-06
7.51737e-06
7.43401e-06
7.40641e-06
7.4223e-06
7.46048e-06
7.50764e-06
7.53234e-06
7.5483e-06
7.69062e-06
7.74812e-06
7.75149e-06
7.67172e-06
7.56486e-06
7.48219e-06
7.45463e-06
7.46472e-06
7.49731e-06
7.54777e-06
7.57973e-06
7.59331e-06
7.72124e-06
7.78599e-06
7.7969e-06
7.71637e-06
7.60454e-06
7.52234e-06
7.49518e-06
7.50076e-06
7.52903e-06
7.58255e-06
7.61953e-06
7.6296e-06
7.74397e-06
7.81499e-06
7.83345e-06
7.75294e-06
7.63689e-06
7.5551e-06
7.52866e-06
7.53092e-06
7.55601e-06
7.6123e-06
7.65221e-06
7.65789e-06
7.75961e-06
7.8358e-06
7.86165e-06
7.78188e-06
7.66246e-06
7.58116e-06
7.55573e-06
7.55573e-06
7.57868e-06
7.63739e-06
7.67834e-06
7.67904e-06
7.76906e-06
7.84926e-06
7.8821e-06
7.80376e-06
7.68191e-06
7.60127e-06
7.5771e-06
7.57578e-06
7.59752e-06
7.65828e-06
7.69857e-06
7.69394e-06
7.77334e-06
7.8563e-06
7.89557e-06
7.81924e-06
7.69596e-06
7.61623e-06
7.59351e-06
7.59171e-06
7.61306e-06
7.67546e-06
7.71361e-06
7.70355e-06
7.77355e-06
7.85799e-06
7.90295e-06
7.8291e-06
7.7054e-06
7.62688e-06
7.60574e-06
7.60417e-06
7.62587e-06
7.68947e-06
7.72422e-06
7.7089e-06
7.77087e-06
7.85552e-06
7.90525e-06
7.83422e-06
7.71109e-06
7.63408e-06
7.61459e-06
7.61388e-06
7.63656e-06
7.70089e-06
7.73124e-06
7.71102e-06
7.76654e-06
7.85017e-06
7.9036e-06
7.8356e-06
7.71396e-06
7.63873e-06
7.62089e-06
7.62156e-06
7.64576e-06
7.71037e-06
7.73556e-06
7.71099e-06
7.76183e-06
7.84328e-06
7.89927e-06
7.8343e-06
7.71499e-06
7.64176e-06
7.62551e-06
7.62798e-06
7.65413e-06
7.71857e-06
7.73811e-06
7.7099e-06
7.75799e-06
7.83623e-06
7.89356e-06
7.83149e-06
7.7152e-06
7.64411e-06
7.62931e-06
7.63392e-06
7.66235e-06
7.72616e-06
7.73985e-06
7.70881e-06
7.7562e-06
7.8304e-06
7.88786e-06
7.82839e-06
7.71563e-06
7.64672e-06
7.63315e-06
7.64015e-06
7.6711e-06
7.73388e-06
7.74176e-06
7.70877e-06
7.75757e-06
7.82709e-06
7.88353e-06
7.82623e-06
7.71731e-06
7.65051e-06
7.63791e-06
7.64746e-06
7.68104e-06
7.74243e-06
7.74483e-06
7.71076e-06
7.76302e-06
7.8275e-06
7.88191e-06
7.82623e-06
7.72128e-06
7.65636e-06
7.6444e-06
7.65659e-06
7.69283e-06
7.75252e-06
7.75003e-06
7.7157e-06
7.7733e-06
7.83267e-06
7.88421e-06
7.82955e-06
7.72847e-06
7.6651e-06
7.6534e-06
7.66826e-06
7.70707e-06
7.76487e-06
7.75827e-06
7.72443e-06
7.7889e-06
7.84338e-06
7.8915e-06
7.83726e-06
7.73974e-06
7.67745e-06
7.66562e-06
7.68311e-06
7.72433e-06
7.78013e-06
7.77044e-06
7.73766e-06
7.81001e-06
7.86018e-06
7.90462e-06
7.85025e-06
7.75581e-06
7.69401e-06
7.68165e-06
7.70169e-06
7.74508e-06
7.79895e-06
7.78729e-06
7.756e-06
2.79093e-07
2.74931e-07
2.74706e-07
2.79092e-07
2.8843e-07
2.98414e-07
2.9802e-07
2.90472e-07
2.90957e-07
2.94212e-07
2.83363e-07
2.64208e-07
5.22899e-08
5.14061e-08
5.15131e-08
5.26209e-08
5.41821e-08
5.52561e-08
5.47316e-08
5.35721e-08
5.43998e-08
5.56445e-08
5.36427e-08
4.96735e-08
7.5715e-08
7.39184e-08
7.49441e-08
7.80774e-08
7.9269e-08
7.65086e-08
7.3335e-08
7.30568e-08
7.82293e-08
8.34327e-08
8.06939e-08
7.28928e-08
2.24544e-07
2.18924e-07
2.22695e-07
2.33054e-07
2.35706e-07
2.2435e-07
2.13246e-07
2.1353e-07
2.31736e-07
2.49543e-07
2.41539e-07
2.16974e-07
5.51058e-07
5.37296e-07
5.47068e-07
5.729e-07
5.78729e-07
5.49181e-07
5.21261e-07
5.22785e-07
5.68827e-07
6.1342e-07
5.9389e-07
5.33159e-07
1.12451e-06
1.09666e-06
1.11726e-06
1.17022e-06
1.181e-06
1.11857e-06
1.0611e-06
1.06564e-06
1.16102e-06
1.25255e-06
1.21305e-06
1.08929e-06
2.00987e-06
1.96052e-06
1.99818e-06
2.09302e-06
2.11012e-06
1.99464e-06
1.89135e-06
1.9024e-06
2.07505e-06
2.23899e-06
2.16952e-06
1.94973e-06
3.25347e-06
3.17423e-06
3.23595e-06
3.38941e-06
3.41315e-06
3.2193e-06
3.05147e-06
3.07482e-06
3.35751e-06
3.62272e-06
3.51312e-06
3.16164e-06
4.86932e-06
4.75142e-06
4.84374e-06
5.0728e-06
5.10188e-06
4.80059e-06
4.54901e-06
4.59317e-06
5.02031e-06
5.41567e-06
5.25755e-06
4.74142e-06
6.82989e-06
6.6649e-06
6.7924e-06
7.11213e-06
7.14331e-06
6.70445e-06
6.3519e-06
6.42785e-06
7.03121e-06
7.58138e-06
7.37002e-06
6.66502e-06
9.06541e-06
8.84589e-06
9.00986e-06
9.43143e-06
9.45977e-06
8.85559e-06
8.38941e-06
8.50976e-06
9.3139e-06
1.00352e-05
9.77064e-06
8.86646e-06
1.14721e-05
1.11922e-05
1.13901e-05
1.19193e-05
1.19386e-05
1.11473e-05
1.05613e-05
1.0739e-05
1.17576e-05
1.26548e-05
1.23421e-05
1.12452e-05
1.39259e-05
1.35823e-05
1.38078e-05
1.44442e-05
1.44477e-05
1.34563e-05
1.2752e-05
1.29989e-05
1.42328e-05
1.52974e-05
1.49456e-05
1.36796e-05
1.63258e-05
1.59169e-05
1.61661e-05
1.69078e-05
1.6889e-05
1.56894e-05
1.48719e-05
1.5199e-05
1.66449e-05
1.78649e-05
1.74797e-05
1.6067e-05
1.86193e-05
1.81452e-05
1.84138e-05
1.92559e-05
1.92079e-05
1.77972e-05
1.68755e-05
1.72928e-05
1.89413e-05
2.02985e-05
1.9886e-05
1.83549e-05
2.07624e-05
2.02254e-05
2.05093e-05
2.1444e-05
2.13596e-05
1.974e-05
1.87267e-05
1.92428e-05
2.1079e-05
2.25496e-05
2.21158e-05
2.04993e-05
2.2721e-05
2.21259e-05
2.24218e-05
2.34384e-05
2.33099e-05
2.14891e-05
2.03999e-05
2.10219e-05
2.30255e-05
2.45816e-05
2.41315e-05
2.24658e-05
2.44713e-05
2.38252e-05
2.41305e-05
2.52157e-05
2.5035e-05
2.30257e-05
2.18789e-05
2.26117e-05
2.47581e-05
2.63685e-05
2.59067e-05
2.42301e-05
2.59985e-05
2.53108e-05
2.56238e-05
2.67618e-05
2.65201e-05
2.43399e-05
2.31558e-05
2.40022e-05
2.62631e-05
2.78943e-05
2.74246e-05
2.57769e-05
2.7296e-05
2.65778e-05
2.68971e-05
2.807e-05
2.77586e-05
2.54288e-05
2.42292e-05
2.51896e-05
2.75337e-05
2.9151e-05
2.86769e-05
2.70981e-05
2.83638e-05
2.76274e-05
2.79519e-05
2.91402e-05
2.87504e-05
2.62957e-05
2.51028e-05
2.61753e-05
2.85692e-05
3.01378e-05
2.96627e-05
2.81922e-05
2.92066e-05
2.84656e-05
2.87937e-05
2.9976e-05
2.95004e-05
2.69479e-05
2.57842e-05
2.69643e-05
2.93729e-05
3.08585e-05
3.03863e-05
2.90626e-05
2.98317e-05
2.91007e-05
2.943e-05
3.05837e-05
3.00164e-05
2.73955e-05
2.62827e-05
2.7563e-05
2.99505e-05
3.13202e-05
3.08553e-05
2.97151e-05
3.02463e-05
2.95412e-05
2.9868e-05
3.09692e-05
3.03068e-05
2.76492e-05
2.66079e-05
2.79779e-05
3.03072e-05
3.15308e-05
3.10787e-05
3.01566e-05
3.04554e-05
2.9793e-05
3.01123e-05
3.11366e-05
3.03786e-05
2.77187e-05
2.67679e-05
2.82129e-05
3.04464e-05
3.1497e-05
3.1064e-05
3.03922e-05
3.04599e-05
2.9858e-05
3.0163e-05
3.10862e-05
3.0236e-05
2.76113e-05
2.67676e-05
2.82684e-05
3.0368e-05
3.12231e-05
3.08167e-05
3.04236e-05
3.02567e-05
2.97327e-05
3.00159e-05
3.08147e-05
2.98802e-05
2.73316e-05
2.66084e-05
2.81402e-05
3.0069e-05
3.07116e-05
3.03405e-05
3.02484e-05
2.98345e-05
2.94065e-05
2.96591e-05
3.03118e-05
2.93089e-05
2.68814e-05
2.62878e-05
2.78199e-05
2.95408e-05
2.99613e-05
2.96363e-05
2.98585e-05
2.9162e-05
2.88491e-05
2.90624e-05
2.9551e-05
2.85106e-05
2.62581e-05
2.5798e-05
2.72878e-05
2.876e-05
2.89603e-05
2.86962e-05
2.92293e-05
2.82035e-05
2.80212e-05
2.81885e-05
2.85037e-05
2.74683e-05
2.5452e-05
2.51231e-05
2.65152e-05
2.77019e-05
2.76993e-05
2.75106e-05
2.83285e-05
2.69639e-05
2.69171e-05
2.70351e-05
2.71801e-05
2.61895e-05
2.44585e-05
2.42524e-05
2.54947e-05
2.63777e-05
2.61993e-05
2.60957e-05
2.71551e-05
2.55029e-05
2.55894e-05
2.56563e-05
2.56388e-05
2.47188e-05
2.32997e-05
2.32048e-05
2.42643e-05
2.48434e-05
2.45146e-05
2.45008e-05
2.57621e-05
2.38393e-05
2.40445e-05
2.40643e-05
2.39051e-05
2.30771e-05
2.1972e-05
2.19656e-05
2.28285e-05
2.3126e-05
2.26827e-05
2.27555e-05
2.41624e-05
2.20236e-05
2.23275e-05
2.23066e-05
2.20334e-05
2.13124e-05
2.05086e-05
2.05694e-05
2.12301e-05
2.12805e-05
2.07619e-05
2.09127e-05
2.24033e-05
2.01192e-05
2.04982e-05
2.04446e-05
2.00884e-05
1.94826e-05
1.89543e-05
1.90617e-05
1.95249e-05
1.93714e-05
1.88159e-05
1.90318e-05
2.05451e-05
1.81923e-05
1.86205e-05
1.85434e-05
1.81359e-05
1.7646e-05
1.73571e-05
1.74923e-05
1.7773e-05
1.74639e-05
1.69057e-05
1.71708e-05
1.86508e-05
1.63053e-05
1.6757e-05
1.66653e-05
1.6236e-05
1.58563e-05
1.57638e-05
1.59108e-05
1.60327e-05
1.56177e-05
1.50846e-05
1.53809e-05
1.67805e-05
1.45125e-05
1.4964e-05
1.48657e-05
1.44398e-05
1.41593e-05
1.42174e-05
1.43633e-05
1.43563e-05
1.38825e-05
1.33953e-05
1.37042e-05
1.49871e-05
1.28572e-05
1.32882e-05
1.31897e-05
1.27866e-05
1.25908e-05
1.27543e-05
1.289e-05
1.27869e-05
1.22963e-05
1.18682e-05
1.21717e-05
1.33137e-05
1.13705e-05
1.17651e-05
1.16708e-05
1.13039e-05
1.11764e-05
1.14039e-05
1.15236e-05
1.13573e-05
1.08851e-05
1.05225e-05
1.08042e-05
1.17923e-05
1.00718e-05
1.04189e-05
1.03309e-05
1.00077e-05
9.932e-06
1.01879e-05
1.02886e-05
1.00897e-05
9.66356e-06
9.36762e-06
9.61299e-06
1.0444e-05
8.97043e-06
9.26282e-06
9.18178e-06
8.90455e-06
8.86537e-06
9.12082e-06
9.20173e-06
8.99683e-06
8.63714e-06
8.4053e-06
8.60186e-06
9.2803e-06
8.06824e-06
8.30204e-06
8.22692e-06
7.99441e-06
7.97811e-06
8.21116e-06
8.27292e-06
8.08368e-06
7.80503e-06
7.63244e-06
7.76946e-06
8.30489e-06
7.36234e-06
7.53569e-06
7.46442e-06
7.27277e-06
7.26789e-06
7.46277e-06
7.50685e-06
7.34999e-06
7.16267e-06
7.04353e-06
7.11144e-06
7.5161e-06
6.8481e-06
6.95978e-06
6.88948e-06
6.73342e-06
6.73055e-06
6.87667e-06
6.90477e-06
6.79246e-06
6.70424e-06
6.63268e-06
6.62248e-06
6.90932e-06
6.52158e-06
6.56962e-06
6.49681e-06
6.3704e-06
6.36203e-06
6.45269e-06
6.46642e-06
6.40695e-06
6.4246e-06
6.39475e-06
6.29793e-06
6.47928e-06
6.37921e-06
6.3612e-06
6.28192e-06
6.17895e-06
6.15941e-06
6.19082e-06
6.19146e-06
6.18971e-06
6.31744e-06
6.31914e-06
6.13343e-06
6.22169e-06
6.36187e-06
6.31769e-06
6.23067e-06
6.13869e-06
6.10954e-06
6.08854e-06
6.07747e-06
6.12919e-06
6.31385e-06
6.34134e-06
6.0949e-06
6.1303e-06
6.44944e-06
6.37762e-06
6.2802e-06
6.19647e-06
6.15735e-06
6.07757e-06
6.05749e-06
6.16358e-06
6.40777e-06
6.44965e-06
6.15057e-06
6.13587e-06
6.61781e-06
6.52946e-06
6.42156e-06
6.3408e-06
6.29286e-06
6.16529e-06
6.1368e-06
6.28799e-06
6.56035e-06
6.60201e-06
6.28977e-06
6.24006e-06
6.80217e-06
6.72466e-06
6.61149e-06
6.52497e-06
6.47534e-06
6.32931e-06
6.29457e-06
6.46419e-06
6.70945e-06
6.74134e-06
6.47247e-06
6.41849e-06
6.95613e-06
6.89885e-06
6.78669e-06
6.6922e-06
6.64608e-06
6.51911e-06
6.48433e-06
6.63271e-06
6.82896e-06
6.85365e-06
6.64238e-06
6.61531e-06
7.08509e-06
7.04303e-06
6.93466e-06
6.83644e-06
6.79143e-06
6.68552e-06
6.65241e-06
6.77023e-06
6.92765e-06
6.94836e-06
6.78394e-06
6.78299e-06
7.1974e-06
7.16754e-06
7.06524e-06
6.9661e-06
6.91982e-06
6.82795e-06
6.79411e-06
6.88589e-06
7.01316e-06
7.03205e-06
6.90562e-06
6.92371e-06
7.29766e-06
7.27866e-06
7.18433e-06
7.08585e-06
7.03636e-06
6.95356e-06
6.91755e-06
6.98684e-06
7.08988e-06
7.10841e-06
7.01348e-06
7.04574e-06
7.38793e-06
7.37949e-06
7.29473e-06
7.19769e-06
7.14343e-06
7.06627e-06
7.02747e-06
7.07712e-06
7.16005e-06
7.1792e-06
7.11095e-06
7.15387e-06
7.46881e-06
7.47111e-06
7.39725e-06
7.30201e-06
7.24184e-06
7.16796e-06
7.12631e-06
7.15873e-06
7.22462e-06
7.24514e-06
7.19977e-06
7.25059e-06
7.54023e-06
7.5536e-06
7.49172e-06
7.39844e-06
7.33161e-06
7.25943e-06
7.21516e-06
7.23256e-06
7.28392e-06
7.30641e-06
7.28071e-06
7.33703e-06
7.60198e-06
7.62665e-06
7.5776e-06
7.48638e-06
7.41252e-06
7.34094e-06
7.29452e-06
7.29897e-06
7.33802e-06
7.363e-06
7.3541e-06
7.41369e-06
7.65397e-06
7.68999e-06
7.65436e-06
7.56533e-06
7.48437e-06
7.41271e-06
7.36466e-06
7.35815e-06
7.38696e-06
7.41489e-06
7.4201e-06
7.48085e-06
7.69632e-06
7.74348e-06
7.72165e-06
7.63498e-06
7.54714e-06
7.475e-06
7.4259e-06
7.4103e-06
7.43081e-06
7.4621e-06
7.4789e-06
7.53881e-06
7.72938e-06
7.78724e-06
7.77934e-06
7.69525e-06
7.601e-06
7.52822e-06
7.47863e-06
7.45571e-06
7.46975e-06
7.50472e-06
7.53072e-06
7.58795e-06
7.75368e-06
7.82155e-06
7.82751e-06
7.74626e-06
7.64626e-06
7.5729e-06
7.52336e-06
7.49477e-06
7.50402e-06
7.54292e-06
7.57588e-06
7.6288e-06
7.76988e-06
7.84689e-06
7.86641e-06
7.7883e-06
7.6834e-06
7.60966e-06
7.56069e-06
7.52791e-06
7.53392e-06
7.57691e-06
7.61472e-06
7.66196e-06
7.77881e-06
7.8639e-06
7.89644e-06
7.82178e-06
7.71295e-06
7.63921e-06
7.59129e-06
7.55568e-06
7.5598e-06
7.60693e-06
7.64767e-06
7.68811e-06
7.78138e-06
7.87332e-06
7.91816e-06
7.84722e-06
7.73558e-06
7.66227e-06
7.61585e-06
7.57862e-06
7.58205e-06
7.63325e-06
7.67513e-06
7.70798e-06
7.77863e-06
7.87605e-06
7.93222e-06
7.86527e-06
7.75197e-06
7.67965e-06
7.63513e-06
7.59732e-06
7.60107e-06
7.65615e-06
7.69758e-06
7.72234e-06
7.77169e-06
7.87311e-06
7.93941e-06
7.87664e-06
7.76292e-06
7.69216e-06
7.64987e-06
7.61242e-06
7.61731e-06
7.67594e-06
7.71548e-06
7.73199e-06
7.76175e-06
7.86564e-06
7.94068e-06
7.88217e-06
7.76925e-06
7.70064e-06
7.66088e-06
7.62456e-06
7.63122e-06
7.69293e-06
7.72935e-06
7.73777e-06
7.75011e-06
7.85486e-06
7.93706e-06
7.8828e-06
7.77187e-06
7.706e-06
7.66896e-06
7.63441e-06
7.64327e-06
7.70745e-06
7.73971e-06
7.74052e-06
7.73805e-06
7.84211e-06
7.92971e-06
7.87955e-06
7.77173e-06
7.70912e-06
7.67495e-06
7.64266e-06
7.65397e-06
7.71987e-06
7.74713e-06
7.74109e-06
7.72688e-06
7.82875e-06
7.9199e-06
7.87353e-06
7.76981e-06
7.71093e-06
7.67968e-06
7.65002e-06
7.6638e-06
7.73053e-06
7.75221e-06
7.74034e-06
7.71786e-06
7.81617e-06
7.90896e-06
7.86592e-06
7.76714e-06
7.71237e-06
7.68402e-06
7.65721e-06
7.6733e-06
7.73986e-06
7.75558e-06
7.7391e-06
7.71216e-06
7.80571e-06
7.89824e-06
7.85793e-06
7.76474e-06
7.71434e-06
7.68879e-06
7.66494e-06
7.68298e-06
7.74826e-06
7.75792e-06
7.73821e-06
7.71082e-06
7.79865e-06
7.88908e-06
7.85078e-06
7.76359e-06
7.71773e-06
7.69483e-06
7.67394e-06
7.69338e-06
7.75621e-06
7.75995e-06
7.73847e-06
7.71467e-06
7.7961e-06
7.88277e-06
7.84566e-06
7.76467e-06
7.72337e-06
7.70292e-06
7.68489e-06
7.70502e-06
7.76424e-06
7.76244e-06
7.74063e-06
7.72438e-06
7.799e-06
7.88048e-06
7.8437e-06
7.76885e-06
7.73201e-06
7.7138e-06
7.69847e-06
7.71846e-06
7.77291e-06
7.76619e-06
7.74544e-06
7.74032e-06
7.80807e-06
7.88323e-06
7.84589e-06
7.7769e-06
7.74433e-06
7.72812e-06
7.71531e-06
7.73424e-06
7.78288e-06
7.77206e-06
7.75359e-06
7.76261e-06
7.82377e-06
7.89184e-06
7.85309e-06
7.78948e-06
7.76086e-06
7.74645e-06
7.73599e-06
7.75291e-06
7.79487e-06
7.78093e-06
7.76574e-06
2.82771e-07
2.78171e-07
2.77907e-07
2.82652e-07
2.91726e-07
3.00482e-07
2.99651e-07
2.92907e-07
2.94596e-07
2.98654e-07
2.87601e-07
2.67886e-07
5.30415e-08
5.21283e-08
5.22545e-08
5.33527e-08
5.48006e-08
5.57286e-08
5.5301e-08
5.43717e-08
5.53174e-08
5.65453e-08
5.4454e-08
5.04218e-08
7.71207e-08
7.55669e-08
7.67635e-08
7.94688e-08
8.01479e-08
7.76248e-08
7.55551e-08
7.60393e-08
8.08005e-08
8.50778e-08
8.1935e-08
7.42773e-08
2.28898e-07
2.24208e-07
2.28599e-07
2.37392e-07
2.3826e-07
2.27933e-07
2.20799e-07
2.23634e-07
2.40175e-07
2.54568e-07
2.45174e-07
2.21241e-07
5.61721e-07
5.50352e-07
5.61732e-07
5.83587e-07
5.84876e-07
5.58021e-07
5.40178e-07
5.48028e-07
5.89682e-07
6.25522e-07
6.02505e-07
5.43546e-07
1.14607e-06
1.12324e-06
1.14727e-06
1.19199e-06
1.19326e-06
1.13654e-06
1.1e-06
1.11738e-06
1.20332e-06
1.27647e-06
1.22981e-06
1.11012e-06
2.04793e-06
2.00782e-06
2.0519e-06
2.1318e-06
2.13148e-06
2.02663e-06
1.96133e-06
1.99502e-06
2.14983e-06
2.28001e-06
2.19767e-06
1.98612e-06
3.31419e-06
3.25036e-06
3.32297e-06
3.45191e-06
3.44675e-06
3.27095e-06
3.1655e-06
3.22481e-06
3.47685e-06
3.68582e-06
3.55528e-06
3.21893e-06
4.95871e-06
4.86467e-06
4.97409e-06
5.16591e-06
5.15072e-06
4.87803e-06
4.72096e-06
4.81747e-06
5.1959e-06
5.50461e-06
5.315e-06
4.8244e-06
6.95309e-06
6.82283e-06
6.97548e-06
7.24221e-06
7.21007e-06
6.814e-06
6.59529e-06
6.74197e-06
7.27279e-06
7.69804e-06
7.44222e-06
6.77725e-06
9.22608e-06
9.05457e-06
9.25352e-06
9.60366e-06
9.54675e-06
9.00369e-06
8.71604e-06
8.92576e-06
9.62798e-06
1.01793e-05
9.85529e-06
9.0097e-06
1.1672e-05
1.14557e-05
1.16999e-05
1.21372e-05
1.2048e-05
1.13405e-05
1.09803e-05
1.12641e-05
1.21467e-05
1.28245e-05
1.24357e-05
1.14193e-05
1.41651e-05
1.39024e-05
1.41866e-05
1.47096e-05
1.45819e-05
1.37012e-05
1.3269e-05
1.36345e-05
1.46951e-05
1.54898e-05
1.50448e-05
1.38826e-05
1.66038e-05
1.62945e-05
1.66153e-05
1.72213e-05
1.70491e-05
1.599e-05
1.54888e-05
1.59428e-05
1.71765e-05
1.80763e-05
1.758e-05
1.62957e-05
1.89351e-05
1.85808e-05
1.89338e-05
1.96175e-05
1.93955e-05
1.81574e-05
1.75922e-05
1.81395e-05
1.95368e-05
2.05259e-05
1.99841e-05
1.86057e-05
2.11149e-05
2.07188e-05
2.10993e-05
2.18528e-05
2.15767e-05
2.01636e-05
1.95413e-05
2.01845e-05
2.17316e-05
2.27917e-05
2.22102e-05
2.07687e-05
2.31093e-05
2.26766e-05
2.308e-05
2.3893e-05
2.35594e-05
2.19796e-05
2.13086e-05
2.20482e-05
2.37279e-05
2.48387e-05
2.42233e-05
2.27509e-05
2.48946e-05
2.44324e-05
2.4854e-05
2.57142e-05
2.53204e-05
2.35863e-05
2.28761e-05
2.37103e-05
2.55024e-05
2.66432e-05
2.59996e-05
2.45289e-05
2.64563e-05
2.59733e-05
2.64084e-05
2.73017e-05
2.68455e-05
2.4973e-05
2.42341e-05
2.51591e-05
2.70414e-05
2.81915e-05
2.7525e-05
2.60882e-05
2.7788e-05
2.72938e-05
2.77376e-05
2.86486e-05
2.81287e-05
2.61365e-05
2.538e-05
2.63894e-05
2.83383e-05
2.94777e-05
2.87939e-05
2.74223e-05
2.88896e-05
2.83945e-05
2.88418e-05
2.97542e-05
2.91701e-05
2.70791e-05
2.63162e-05
2.74018e-05
2.9393e-05
3.05025e-05
2.98073e-05
2.85311e-05
2.97655e-05
2.92806e-05
2.97254e-05
3.0622e-05
2.99741e-05
2.78074e-05
2.70492e-05
2.82007e-05
3.02096e-05
3.12711e-05
3.05711e-05
2.94191e-05
3.04223e-05
2.99593e-05
3.03951e-05
3.12576e-05
3.05482e-05
2.83306e-05
2.75878e-05
2.87927e-05
3.07942e-05
3.17906e-05
3.10937e-05
3.00933e-05
3.08661e-05
3.04376e-05
3.08566e-05
3.16666e-05
3.08996e-05
2.86586e-05
2.79411e-05
2.91842e-05
3.11526e-05
3.2068e-05
3.13836e-05
3.05612e-05
3.11003e-05
3.07193e-05
3.11132e-05
3.1852e-05
3.10339e-05
2.87999e-05
2.81168e-05
2.93802e-05
3.12881e-05
3.21084e-05
3.14478e-05
3.0828e-05
3.11244e-05
3.08038e-05
3.11638e-05
3.18133e-05
3.09539e-05
2.87604e-05
2.81195e-05
2.93818e-05
3.12005e-05
3.19135e-05
3.12904e-05
3.08953e-05
3.09331e-05
3.06855e-05
3.10028e-05
3.15467e-05
3.0659e-05
2.85421e-05
2.795e-05
2.91865e-05
3.08864e-05
3.14822e-05
3.09124e-05
3.07601e-05
3.05146e-05
3.03516e-05
3.06182e-05
3.10425e-05
3.01446e-05
2.81433e-05
2.76055e-05
2.87876e-05
3.0337e-05
3.08091e-05
3.03112e-05
3.04139e-05
2.98401e-05
2.97719e-05
2.99815e-05
3.0277e-05
2.93959e-05
2.7556e-05
2.70767e-05
2.8169e-05
2.95309e-05
2.98772e-05
2.94743e-05
2.98332e-05
2.88765e-05
2.89085e-05
2.90579e-05
2.92234e-05
2.83918e-05
2.67634e-05
2.63456e-05
2.7307e-05
2.84449e-05
2.8671e-05
2.83849e-05
2.89847e-05
2.7627e-05
2.77564e-05
2.78465e-05
2.78894e-05
2.71343e-05
2.57555e-05
2.54007e-05
2.61971e-05
2.70898e-05
2.72062e-05
2.70504e-05
2.78617e-05
2.61464e-05
2.6367e-05
2.64002e-05
2.63294e-05
2.56658e-05
2.4556e-05
2.42638e-05
2.48772e-05
2.55184e-05
2.55343e-05
2.55139e-05
2.65107e-05
2.44565e-05
2.47536e-05
2.47372e-05
2.45704e-05
2.40067e-05
2.31623e-05
2.29265e-05
2.3359e-05
2.37603e-05
2.36919e-05
2.3801e-05
2.494e-05
2.26105e-05
2.29661e-05
2.29093e-05
2.26679e-05
2.22063e-05
2.16118e-05
2.14265e-05
2.16873e-05
2.18724e-05
2.1739e-05
2.19633e-05
2.31963e-05
2.06736e-05
2.10678e-05
2.09807e-05
2.06876e-05
2.03247e-05
1.9954e-05
1.98129e-05
1.99194e-05
1.99207e-05
1.97423e-05
2.00613e-05
2.13391e-05
1.87132e-05
1.91258e-05
1.90184e-05
1.8696e-05
1.84233e-05
1.82426e-05
1.81389e-05
1.81155e-05
1.79709e-05
1.77665e-05
1.81555e-05
1.94314e-05
1.67921e-05
1.72043e-05
1.70858e-05
1.67537e-05
1.65596e-05
1.65304e-05
1.64577e-05
1.63329e-05
1.60827e-05
1.58689e-05
1.63012e-05
1.75338e-05
1.49646e-05
1.536e-05
1.52379e-05
1.49126e-05
1.47834e-05
1.48663e-05
1.48182e-05
1.46219e-05
1.43057e-05
1.40962e-05
1.4545e-05
1.57005e-05
1.32737e-05
1.36392e-05
1.35191e-05
1.32128e-05
1.31346e-05
1.32921e-05
1.32624e-05
1.3024e-05
1.26778e-05
1.24829e-05
1.29236e-05
1.39767e-05
1.17504e-05
1.20765e-05
1.1962e-05
1.16829e-05
1.16426e-05
1.18413e-05
1.18245e-05
1.15698e-05
1.12249e-05
1.10516e-05
1.14628e-05
1.2397e-05
1.04138e-05
1.06945e-05
1.05875e-05
1.03401e-05
1.03267e-05
1.05388e-05
1.05295e-05
1.02801e-05
9.96173e-06
9.81447e-06
1.01784e-05
1.09853e-05
9.27329e-06
9.50568e-06
9.40621e-06
9.1924e-06
9.1971e-06
9.40095e-06
9.3941e-06
9.16654e-06
8.89393e-06
8.77508e-06
9.07798e-06
9.7559e-06
8.33028e-06
8.51382e-06
8.42112e-06
8.2406e-06
8.25708e-06
8.43687e-06
8.42768e-06
8.23345e-06
8.02063e-06
7.93115e-06
8.16235e-06
8.71485e-06
7.58086e-06
7.71689e-06
7.6295e-06
7.48076e-06
7.50498e-06
7.64999e-06
7.63385e-06
7.48006e-06
7.33667e-06
7.27689e-06
7.42807e-06
7.86219e-06
7.01795e-06
7.10926e-06
7.02543e-06
6.90639e-06
6.9362e-06
7.03995e-06
7.01242e-06
6.90249e-06
6.83459e-06
6.80493e-06
6.86926e-06
7.1941e-06
6.63319e-06
6.68366e-06
6.60174e-06
6.51012e-06
6.5448e-06
6.60426e-06
6.56127e-06
6.49548e-06
6.50596e-06
6.50785e-06
6.4793e-06
6.70469e-06
6.41857e-06
6.4326e-06
6.35121e-06
6.28466e-06
6.32431e-06
6.33941e-06