/*--------------------------------*- C++ -*----------------------------------*\
| =========                 |                                                 |
| \\      /  F ield         | OpenFOAM: The Open Source CFD Toolbox           |
|  \\    /   O peration     | Version:  v1912                                 |
|   \\  /    A nd           | Website:  www.openfoam.com                      |
|    \\/     M anipulation  |                                                 |
\*---------------------------------------------------------------------------*/
FoamFile
{
    version     2.0;
    format      ascii;
    class       surfaceScalarField;
    location    "11.2";
    object      phi;
}
// * * * * * * * * * * * * * * * * * * * * * * * * * * * * * * * * * * * * * //

dimensions      [1 0 -1 0 0 0 0];
oriented        oriented;


internalField   nonuniform List<scalar> 
97428
(
1.34149e-11
2.93281e-09
-1.5694e-07
-3.03447e-10
3.11548e-09
-1.55746e-07
-4.46032e-10
3.18881e-09
-1.55441e-07
-2.75967e-10
3.10648e-09
-1.56492e-07
-8.0271e-11
3.09224e-09
-1.59136e-07
-2.66279e-10
3.29885e-09
-1.62072e-07
-6.7893e-10
3.24667e-09
-1.62207e-07
-9.98605e-10
2.99345e-09
-1.6025e-07
-7.14357e-10
2.6594e-09
-1.60129e-07
9.21794e-11
2.5067e-09
-1.60685e-07
4.57501e-10
2.85779e-09
-1.57724e-07
3.17713e-09
-1.52603e-07
-2.68103e-11
1.14428e-08
-4.97279e-07
-1.00434e-09
1.21764e-08
-4.93748e-07
-1.43505e-09
1.24375e-08
-4.92985e-07
-9.1349e-10
1.20864e-08
-4.96177e-07
-2.98083e-10
1.19995e-08
-5.04084e-07
-7.47588e-10
1.27178e-08
-5.12908e-07
-1.93787e-09
1.25732e-08
-5.13316e-07
-2.91962e-09
1.16678e-08
-5.07438e-07
-2.13708e-09
1.04281e-08
-5.07126e-07
2.2374e-10
9.83685e-09
-5.08839e-07
1.36196e-09
1.11339e-08
-4.99849e-07
1.2413e-08
-4.84254e-07
-1.06346e-10
2.5533e-08
-8.69659e-07
-1.78724e-09
2.71898e-08
-8.63817e-07
-2.5242e-09
2.77305e-08
-8.62826e-07
-1.63175e-09
2.68956e-08
-8.6828e-07
-5.48251e-10
2.66347e-08
-8.81473e-07
-1.19288e-09
2.80958e-08
-8.96205e-07
-3.15347e-09
2.78553e-08
-8.96828e-07
-4.8453e-09
2.59866e-08
-8.86967e-07
-3.61127e-09
2.33342e-08
-8.8661e-07
3.01866e-10
2.20229e-08
-8.89628e-07
2.2607e-09
2.48076e-08
-8.74371e-07
2.77142e-08
-8.47789e-07
-2.02917e-10
4.52539e-08
-1.27364e-06
-2.62807e-09
4.82031e-08
-1.26553e-06
-3.69515e-09
4.90961e-08
-1.26463e-06
-2.40962e-09
4.75295e-08
-1.27251e-06
-8.03831e-10
4.69448e-08
-1.29095e-06
-1.60596e-09
4.93221e-08
-1.31149e-06
-4.35843e-09
4.90081e-08
-1.31221e-06
-6.81952e-09
4.59468e-08
-1.29834e-06
-5.16809e-09
4.14283e-08
-1.29819e-06
3.17101e-10
3.91174e-08
-1.30274e-06
3.14346e-09
4.39049e-08
-1.28097e-06
4.91424e-08
-1.24281e-06
-2.93952e-10
7.06269e-08
-1.70845e-06
-3.50178e-09
7.5237e-08
-1.69815e-06
-4.92419e-09
7.65329e-08
-1.69776e-06
-3.2199e-09
7.395e-08
-1.70824e-06
-1.03988e-09
7.28452e-08
-1.73183e-06
-1.98765e-09
7.62602e-08
-1.75797e-06
-5.58386e-09
7.59236e-08
-1.75859e-06
-8.88246e-09
7.15174e-08
-1.74073e-06
-6.83559e-09
6.47251e-08
-1.74115e-06
2.56007e-10
6.11393e-08
-1.74754e-06
4.00171e-09
6.84316e-08
-1.71902e-06
7.67417e-08
-1.66862e-06
-3.57439e-10
1.01644e-07
-2.17302e-06
-4.3808e-09
1.08285e-07
-2.16064e-06
-6.18282e-09
1.10008e-07
-2.16122e-06
-4.03021e-09
1.06085e-07
-2.17453e-06
-1.22832e-09
1.04222e-07
-2.2031e-06
-2.33808e-09
1.08753e-07
-2.23447e-06
-6.85994e-09
1.08477e-07
-2.23476e-06
-1.10705e-08
1.02644e-07
-2.213e-06
-8.63698e-09
9.32033e-08
-2.21444e-06
1.08051e-10
8.80725e-08
-2.22306e-06
4.82994e-09
9.83694e-08
-2.18756e-06
1.10535e-07
-2.12425e-06
-3.71055e-10
1.38274e-07
-2.66597e-06
-5.23508e-09
1.47317e-07
-2.65163e-06
-7.43825e-09
1.49462e-07
-2.6537e-06
-4.80381e-09
1.43834e-07
-2.67004e-06
-1.33866e-09
1.40937e-07
-2.70336e-06
-2.65619e-09
1.46633e-07
-2.73949e-06
-8.21373e-09
1.46539e-07
-2.73916e-06
-1.34133e-08
1.39256e-07
-2.71365e-06
-1.05879e-08
1.2681e-07
-2.71668e-06
-1.33307e-10
1.19869e-07
-2.72796e-06
5.62567e-09
1.33676e-07
-2.68532e-06
1.50527e-07
-2.60842e-06
-3.11508e-10
1.80473e-07
-3.1856e-06
-6.03218e-09
1.9229e-07
-3.16945e-06
-8.65383e-09
1.94815e-07
-3.17355e-06
-5.50039e-09
1.87077e-07
-3.19313e-06
-1.33872e-09
1.8284e-07
-3.23091e-06
-2.93949e-09
1.8973e-07
-3.27119e-06
-9.66743e-09
1.89985e-07
-3.26992e-06
-1.59311e-08
1.81278e-07
-3.24089e-06
-1.26944e-08
1.65469e-07
-3.24614e-06
-4.58245e-10
1.56446e-07
-3.26057e-06
6.38949e-09
1.74303e-07
-3.21066e-06
1.96706e-07
-3.11957e-06
-1.54156e-10
2.28194e-07
-3.73004e-06
-6.73757e-09
2.43156e-07
-3.71223e-06
-9.78964e-09
2.4598e-07
-3.71886e-06
-6.07694e-09
2.35688e-07
-3.74188e-06
-1.19544e-09
2.29779e-07
-3.7838e-06
-3.18391e-09
2.37887e-07
-3.82751e-06
-1.12373e-08
2.38709e-07
-3.82494e-06
-1.86338e-08
2.28633e-07
-3.79272e-06
-1.49518e-08
2.09088e-07
-3.80088e-06
-8.69434e-10
1.9771e-07
-3.81895e-06
7.12507e-09
2.20179e-07
-3.76174e-06
2.49051e-07
-3.65591e-06
1.27247e-10
2.81398e-07
-4.29738e-06
-7.31507e-09
2.99865e-07
-4.27802e-06
-1.08032e-08
3.02864e-07
-4.28765e-06
-6.48847e-09
2.89542e-07
-4.31431e-06
-8.75526e-10
2.81611e-07
-4.36e-06
-3.38385e-09
2.90964e-07
-4.40633e-06
-1.29332e-08
2.92621e-07
-4.40213e-06
-2.15202e-08
2.81253e-07
-4.36709e-06
-1.73444e-08
2.57562e-07
-4.37887e-06
-1.34956e-09
2.43553e-07
-4.4011e-06
7.83911e-09
2.71228e-07
-4.33661e-06
3.07538e-07
-4.2156e-06
5.60205e-10
3.40051e-07
-4.88585e-06
-7.72718e-09
3.6237e-07
-4.86501e-06
-1.16498e-08
3.6537e-07
-4.87802e-06
-6.68865e-09
3.48518e-07
-4.90853e-06
-3.45942e-10
3.382e-07
-4.95762e-06
-3.53221e-09
3.48834e-07
-5.00568e-06
-1.47585e-08
3.51647e-07
-4.99949e-06
-2.45785e-08
3.39065e-07
-4.96207e-06
-1.98459e-08
3.10773e-07
-4.97821e-06
-1.87688e-09
2.93852e-07
-5.00515e-06
8.54114e-09
3.27369e-07
-4.93346e-06
3.72133e-07
-4.7969e-06
1.17345e-09
4.04119e-07
-5.49396e-06
-7.93526e-09
4.30615e-07
-5.47164e-06
-1.22831e-08
4.33395e-07
-5.48834e-06
-6.62991e-09
4.12496e-07
-5.52294e-06
4.22277e-10
3.99421e-07
-5.57506e-06
-3.6203e-09
4.11376e-07
-5.62387e-06
-1.67101e-08
4.15716e-07
-5.61533e-06
-2.77866e-08
4.01993e-07
-5.57601e-06
-2.24198e-08
3.68592e-07
-5.59729e-06
-2.42331e-09
3.48469e-07
-5.62946e-06
9.24312e-09
3.88505e-07
-5.55069e-06
4.42792e-07
-5.3983e-06
1.99788e-09
4.7357e-07
-6.12072e-06
-7.89949e-09
5.04543e-07
-6.09681e-06
-1.26546e-08
5.06824e-07
-6.11744e-06
-6.26331e-09
4.81355e-07
-6.15645e-06
1.47514e-09
4.65141e-07
-6.21122e-06
-3.63786e-09
4.7848e-07
-6.25971e-06
-1.87794e-08
4.84749e-07
-6.24845e-06
-3.11139e-08
4.69942e-07
-6.20775e-06
-2.50211e-08
4.30869e-07
-6.23498e-06
-2.95483e-09
4.07254e-07
-6.273e-06
9.95923e-09
4.54534e-07
-6.18725e-06
5.19462e-07
-6.01869e-06
3.06533e-09
5.4832e-07
-6.76565e-06
-7.57837e-09
5.8404e-07
-6.73994e-06
-1.27133e-08
5.85492e-07
-6.76468e-06
-5.53791e-09
5.54926e-07
-6.80847e-06
2.83404e-09
5.35197e-07
-6.86552e-06
-3.57291e-09
5.49986e-07
-6.91251e-06
-2.09527e-08
5.58616e-07
-6.89811e-06
-3.45219e-08
5.42762e-07
-6.85663e-06
-2.75967e-08
4.97401e-07
-6.89069e-06
-3.43181e-09
4.70001e-07
-6.93516e-06
1.07054e-08
5.25296e-07
-6.84254e-06
6.02035e-07
-6.65753e-06
4.40812e-09
6.28223e-07
-7.42831e-06
-6.92862e-09
6.68939e-07
-7.40049e-06
-1.24051e-08
6.69175e-07
-7.4294e-06
-4.40105e-09
6.32987e-07
-7.47839e-06
4.53592e-09
6.09377e-07
-7.53734e-06
-3.41172e-09
6.25698e-07
-7.58156e-06
-2.32094e-08
6.37146e-07
-7.56362e-06
-3.79618e-08
6.20255e-07
-7.52198e-06
-3.00839e-08
5.6793e-07
-7.56378e-06
-3.80894e-09
5.36443e-07
-7.61526e-06
1.14983e-08
6.00568e-07
-7.51591e-06
6.9033e-07
-7.3143e-06
6.0575e-09
7.1311e-07
-8.10809e-06
-5.90598e-09
7.59055e-07
-8.07773e-06
-1.16731e-08
7.57646e-07
-8.11082e-06
-2.79939e-09
7.15307e-07
-8.16548e-06
6.6124e-09
6.87466e-07
-8.22595e-06
-3.13903e-09
7.05425e-07
-8.26607e-06
-2.55218e-08
7.20164e-07
-8.24417e-06
-4.13749e-08
7.02211e-07
-8.20308e-06
-3.24109e-08
6.4219e-07
-8.2535e-06
-4.03606e-09
6.06306e-07
-8.31252e-06
1.23546e-08
6.8011e-07
-8.20655e-06
7.84145e-07
-7.98829e-06
8.04316e-09
8.02787e-07
-8.80444e-06
-4.46568e-09
8.54191e-07
-8.77109e-06
-1.04586e-08
8.50669e-07
-8.8083e-06
-6.79571e-10
8.01651e-07
-8.86911e-06
9.09408e-09
7.69248e-07
-8.9307e-06
-2.73813e-09
7.88985e-07
-8.96533e-06
-2.78566e-08
8.07498e-07
-8.93909e-06
-4.46948e-08
7.88419e-07
-8.89932e-06
-3.44993e-08
7.1991e-07
-8.95926e-06
-4.05922e-09
6.79312e-07
-9.02625e-06
1.32905e-08
7.63677e-07
-8.91376e-06
8.83254e-07
-8.67889e-06
1.03921e-08
8.97036e-07
-9.51689e-06
-2.5632e-09
9.54139e-07
-9.48004e-06
-8.70206e-09
9.48014e-07
-9.52128e-06
2.01052e-09
8.91775e-07
-9.58873e-06
1.20087e-08
8.54503e-07
-9.65103e-06
-2.19115e-09
8.76208e-07
-9.67877e-06
-3.01747e-08
8.98981e-07
-9.64783e-06
-4.78491e-08
8.78662e-07
-9.61019e-06
-3.62662e-08
8.00817e-07
-9.68053e-06
-3.82183e-09
7.55185e-07
-9.75584e-06
1.43219e-08
8.51021e-07
-9.63689e-06
9.87414e-07
-9.38555e-06
1.31272e-08
9.9561e-07
-1.0245e-05
-1.55375e-10
1.05868e-06
-1.02041e-05
-6.3442e-09
1.04945e-06
-1.02493e-05
5.31995e-09
9.85434e-07
-1.03238e-05
1.53802e-08
9.43014e-07
-1.03864e-05
-1.47938e-09
9.66937e-07
-1.04059e-05
-3.24321e-08
9.94457e-07
-1.03699e-05
-5.07605e-08
9.72722e-07
-1.03353e-05
-3.76256e-08
8.8463e-07
-1.04169e-05
-3.26608e-09
8.33652e-07
-1.05007e-05
1.54635e-08
9.41897e-07
-1.03753e-05
1.09636e-06
-1.01078e-05
1.62658e-08
1.09824e-06
-1.09883e-05
2.79825e-09
1.16758e-06
-1.0943e-05
-3.32803e-09
1.15475e-06
-1.0992e-05
9.29233e-09
1.08238e-06
-1.1074e-05
1.92268e-08
1.03456e-06
-1.11363e-05
-5.83731e-10
1.06102e-06
-1.11461e-05
-3.45802e-08
1.09377e-06
-1.11049e-05
-5.33488e-08
1.07037e-06
-1.10743e-05
-3.84913e-08
9.71061e-07
-1.11679e-05
-2.33467e-09
9.14445e-07
-1.12604e-05
1.67282e-08
1.03606e-06
-1.11285e-05
1.20982e-06
-1.08451e-05
1.98177e-08
1.20461e-06
-1.17464e-05
6.33362e-09
1.28058e-06
-1.16962e-05
3.9853e-10
1.26369e-06
-1.17488e-05
1.39629e-08
1.18235e-06
-1.18386e-05
2.3559e-08
1.12891e-06
-1.19003e-05
5.15619e-10
1.15832e-06
-1.18991e-05
-3.65668e-08
1.19677e-06
-1.18526e-05
-5.5533e-08
1.17137e-06
-1.18269e-05
-3.87797e-08
1.05981e-06
-1.19331e-05
-9.73082e-10
9.97298e-07
-1.20341e-05
1.81267e-08
1.13328e-06
-1.18958e-05
1.32748e-06
-1.15971e-05
2.37833e-08
1.31441e-06
-1.25188e-05
1.04792e-08
1.39741e-06
-1.24634e-05
4.87947e-09
1.37601e-06
-1.25196e-05
1.93548e-08
1.28509e-06
-1.26172e-05
2.83769e-08
1.22585e-06
-1.26776e-05
1.83051e-09
1.2587e-06
-1.26644e-05
-3.8337e-08
1.30328e-06
-1.26124e-05
-5.72339e-08
1.27544e-06
-1.25926e-05
-3.84133e-08
1.15054e-06
-1.2712e-05
8.65181e-10
1.08195e-06
-1.28214e-05
1.96665e-08
1.23331e-06
-1.26766e-05
1.44902e-06
-1.23633e-05
2.81517e-08
1.42724e-06
-1.33048e-05
1.52537e-08
1.51775e-06
-1.32439e-05
1.01467e-08
1.49146e-06
-1.33036e-05
2.5475e-08
1.39034e-06
-1.34091e-05
3.36676e-08
1.32514e-06
-1.34676e-05
3.38052e-09
1.362e-06
-1.34413e-05
-3.98346e-08
1.41313e-06
-1.3384e-05
-5.83772e-08
1.38229e-06
-1.33712e-05
-3.73245e-08
1.24291e-06
-1.35041e-05
3.23151e-09
1.16812e-06
-1.36215e-05
2.13516e-08
1.33594e-06
-1.347e-05
1.5741e-06
-1.31429e-05
3.28983e-08
1.54272e-06
-1.41038e-05
2.06625e-08
1.64128e-06
-1.40373e-05
1.62156e-08
1.60975e-06
-1.41003e-05
3.231e-08
1.49781e-06
-1.42136e-05
3.94022e-08
1.42655e-06
-1.42695e-05
5.17462e-09
1.46805e-06
-1.42292e-05
-4.10036e-08
1.52611e-06
-1.41668e-05
-5.88967e-08
1.49157e-06
-1.41619e-05
-3.54603e-08
1.33654e-06
-1.43085e-05
6.14697e-09
1.25554e-06
-1.44333e-05
2.31809e-08
1.44092e-06
-1.42752e-05
1.70234e-06
-1.39355e-05
3.79831e-08
1.66038e-06
-1.49149e-05
2.66942e-08
1.7676e-06
-1.48428e-05
2.30801e-08
1.73056e-06
-1.49089e-05
3.98213e-08
1.60723e-06
-1.50296e-05
4.5533e-08
1.52984e-06
-1.50823e-05
7.21754e-09
1.57668e-06
-1.50275e-05
-4.17904e-08
1.64195e-06
-1.49604e-05
-5.87378e-08
1.60292e-06
-1.49642e-05
-3.27863e-08
1.43103e-06
-1.51244e-05
9.62763e-09
1.34394e-06
-1.52559e-05
2.51478e-08
1.54804e-06
-1.50912e-05
1.83332e-06
-1.474e-05
4.33495e-08
1.77975e-06
-1.57371e-05
3.33175e-08
1.89626e-06
-1.56596e-05
3.07088e-08
1.85354e-06
-1.57286e-05
4.7942e-08
1.71831e-06
-1.58562e-05
5.19919e-08
1.63477e-06
-1.59049e-05
9.50712e-09
1.68765e-06
-1.58351e-05
-4.21462e-08
1.76037e-06
-1.57638e-05
-5.78611e-08
1.71588e-06
-1.57771e-05
-2.92905e-08
1.52593e-06
-1.59506e-05
1.36707e-08
1.43302e-06
-1.6088e-05
2.72392e-08
1.65705e-06
-1.59168e-05
1.96662e-06
-1.55556e-05
4.89241e-08
1.90027e-06
-1.65693e-05
4.04785e-08
2.02676e-06
-1.64865e-05
3.90406e-08
1.97827e-06
-1.65583e-05
5.65743e-08
1.83074e-06
-1.6692e-05
5.86892e-08
1.74108e-06
-1.67361e-05
1.20329e-08
1.80072e-06
-1.66512e-05
-4.20289e-08
1.88101e-06
-1.65762e-05
-5.62445e-08
1.82998e-06
-1.65996e-05
-2.49868e-08
1.62078e-06
-1.67859e-05
1.82518e-08
1.5225e-06
-1.69283e-05
2.94344e-08
1.76773e-06
-1.67506e-05
2.10176e-06
-1.63811e-05
5.46167e-08
2.02132e-06
-1.74101e-05
4.80989e-08
2.15854e-06
-1.73225e-05
4.79833e-08
2.10431e-06
-1.73966e-05
6.55891e-08
1.9442e-06
-1.75357e-05
6.5514e-08
1.84851e-06
-1.75745e-05
1.47753e-08
1.91556e-06
-1.74746e-05
-4.14055e-08
2.00344e-06
-1.73966e-05
-5.38857e-08
1.94469e-06
-1.74306e-05
-1.99158e-08
1.71508e-06
-1.7629e-05
2.33242e-08
1.61205e-06
-1.77752e-05
3.17052e-08
1.87979e-06
-1.75913e-05
2.23822e-06
-1.72153e-05
6.03225e-08
2.14221e-06
-1.82583e-05
5.60763e-08
2.29093e-06
-1.81664e-05
5.74127e-08
2.23113e-06
-1.82425e-05
7.48275e-08
2.05834e-06
-1.8386e-05
7.2336e-08
1.95673e-06
-1.8419e-05
1.77046e-08
2.03178e-06
-1.83043e-05
-4.02539e-08
2.12717e-06
-1.8224e-05
-5.08022e-08
2.05941e-06
-1.82689e-05
-1.41449e-08
1.8083e-06
-1.84784e-05
2.88185e-08
1.70129e-06
-1.86273e-05
3.40152e-08
1.99293e-06
-1.84374e-05
2.37543e-06
-1.8057e-05
6.59247e-08
2.26216e-06
-1.91125e-05
6.42856e-08
2.42318e-06
-1.90169e-05
6.71752e-08
2.35813e-06
-1.90945e-05
8.41049e-08
2.17275e-06
-1.92414e-05
7.90091e-08
2.06535e-06
-1.92681e-05
2.07818e-08
2.14889e-06
-1.91391e-05
-3.8564e-08
2.25162e-06
-1.90572e-05
-4.70307e-08
2.17349e-06
-1.91131e-05
-7.76564e-09
1.89985e-06
-1.93328e-05
3.46436e-08
1.78977e-06
-1.94831e-05
3.63208e-08
2.10674e-06
-1.92877e-05
2.51274e-06
-1.89049e-05
7.12978e-08
2.38028e-06
-1.99714e-05
7.25811e-08
2.55442e-06
-1.98727e-05
7.70903e-08
2.48464e-06
-1.99515e-05
9.32152e-08
2.28693e-06
-2.01006e-05
8.53752e-08
2.17386e-06
-2.01206e-05
2.39587e-08
2.26627e-06
-1.99781e-05
-3.63379e-08
2.37609e-06
-1.98953e-05
-4.26243e-08
2.28622e-06
-1.99621e-05
-8.90697e-10
1.98907e-06
-2.01906e-05
4.06885e-08
1.87692e-06
-2.03411e-05
3.85711e-08
2.22067e-06
-2.01407e-05
2.64939e-06
-1.97578e-05
7.63092e-08
2.49554e-06
-2.08337e-05
8.07984e-08
2.68366e-06
-2.07328e-05
8.69527e-08
2.60986e-06
-2.08121e-05
1.01934e-07
2.40029e-06
-2.09622e-05
9.12673e-08
2.28167e-06
-2.09752e-05
2.71782e-08
2.38321e-06
-2.08202e-05
-3.35904e-08
2.49982e-06
-2.07371e-05
-3.76517e-08
2.39679e-06
-2.08145e-05
6.34737e-09
2.0752e-06
-2.10504e-05
4.68221e-08
1.96208e-06
-2.11998e-05
4.0708e-08
2.33406e-06
-2.09951e-05
2.78449e-06
-2.06145e-05
8.08222e-08
2.60679e-06
-2.16977e-05
8.87558e-08
2.80977e-06
-2.15956e-05
9.65354e-08
2.73289e-06
-2.1675e-05
1.10026e-07
2.51214e-06
-2.18248e-05
9.65148e-08
2.38807e-06
-2.18305e-05
3.03758e-08
2.4989e-06
-2.16642e-05
-3.03495e-08
2.62192e-06
-2.15816e-05
-3.21953e-08
2.50434e-06
-2.1669e-05
1.37992e-08
2.15744e-06
-2.19106e-05
5.28957e-08
2.0445e-06
-2.20575e-05
4.26668e-08
2.44615e-06
-2.18495e-05
2.91701e-06
-2.14737e-05
8.47002e-08
2.7128e-06
-2.25618e-05
9.6259e-08
2.93156e-06
-2.24596e-05
1.05597e-07
2.85277e-06
-2.25385e-05
1.17254e-07
2.62175e-06
-2.26866e-05
1.00952e-07
2.4923e-06
-2.26851e-05
3.34808e-08
2.61244e-06
-2.25091e-05
-2.66566e-08
2.74149e-06
-2.24275e-05
-2.63485e-08
2.60797e-06
-2.2524e-05
2.13047e-08
2.23494e-06
-2.27693e-05
5.87492e-08
2.12341e-06
-2.29124e-05
4.43795e-08
2.55607e-06
-2.27021e-05
3.0458e-06
-2.2334e-05
8.78117e-08
2.81231e-06
-2.34242e-05
1.03108e-07
3.04774e-06
-2.33231e-05
1.13891e-07
2.96848e-06
-2.34009e-05
1.2339e-07
2.72834e-06
-2.35459e-05
1.04425e-07
2.59354e-06
-2.35373e-05
3.64194e-08
2.72288e-06
-2.33536e-05
-2.25662e-08
2.85754e-06
-2.32736e-05
-2.02128e-08
2.70675e-06
-2.33779e-05
2.86991e-08
2.30687e-06
-2.36248e-05
6.42167e-08
2.19802e-06
-2.37627e-05
4.57775e-08
2.66293e-06
-2.35516e-05
3.16966e-06
-2.31937e-05
9.00356e-08
2.90405e-06
-2.42831e-05
1.09105e-07
3.15703e-06
-2.41843e-05
1.21178e-07
3.07896e-06
-2.42606e-05
1.28227e-07
2.83107e-06
-2.44011e-05
1.06805e-07
2.69093e-06
-2.43857e-05
3.9117e-08
2.82921e-06
-2.41963e-05
-1.8145e-08
2.96906e-06
-2.41185e-05
-1.38945e-08
2.79974e-06
-2.42291e-05
3.5819e-08
2.37239e-06
-2.44752e-05
6.91339e-08
2.26755e-06
-2.46068e-05
4.67955e-08
2.76577e-06
-2.43963e-05
3.28732e-06
-2.40514e-05
9.12653e-08
2.98675e-06
-2.51366e-05
1.14063e-07
3.25811e-06
-2.50416e-05
1.27233e-07
3.18315e-06
-2.51159e-05
1.31595e-07
2.92912e-06
-2.52506e-05
1.07988e-07
2.78358e-06
-2.52288e-05
4.1502e-08
2.9304e-06
-2.50361e-05
-1.34704e-08
3.07501e-06
-2.49608e-05
-7.50125e-09
2.88603e-06
-2.5076e-05
4.25083e-08
2.43075e-06
-2.53189e-05
7.3345e-08
2.33125e-06
-2.54431e-05
4.73763e-08
2.86363e-06
-2.52349e-05
3.39747e-06
-2.49055e-05
9.14132e-08
3.05925e-06
-2.5983e-05
1.17809e-07
3.34972e-06
-2.5893e-05
1.31862e-07
3.28e-06
-2.59649e-05
1.33364e-07
3.02166e-06
-2.60927e-05
1.07912e-07
2.87063e-06
-2.60652e-05
4.35083e-08
3.02541e-06
-2.58715e-05
-8.62924e-09
3.17438e-06
-2.57991e-05
-1.11422e-09
2.96471e-06
-2.59169e-05
4.86238e-08
2.48128e-06
-2.61541e-05
7.67109e-08
2.38848e-06
-2.627e-05
4.74751e-08
2.95555e-06
-2.60658e-05
3.49881e-06
-2.57542e-05
9.04143e-08
3.12048e-06
-2.68205e-05
1.202e-07
3.43069e-06
-2.67369e-05
1.34909e-07
3.3685e-06
-2.68061e-05
1.33462e-07
3.10788e-06
-2.69259e-05
1.06556e-07
2.95122e-06
-2.68935e-05
4.50786e-08
3.11321e-06
-2.67013e-05
-3.71516e-09
3.26615e-06
-2.6632e-05
5.08193e-09
3.03504e-06
-2.67504e-05
5.40398e-08
2.52336e-06
-2.69793e-05
7.91165e-08
2.43867e-06
-2.70862e-05
4.7065e-08
3.04063e-06
-2.6888e-05
3.59008e-06
-2.65961e-05
8.82279e-08
3.16954e-06
-2.76477e-05
1.21124e-07
3.49995e-06
-2.75716e-05
1.36266e-07
3.44772e-06
-2.76379e-05
1.31875e-07
3.18699e-06
-2.7749e-05
1.03946e-07
3.02456e-06
-2.77125e-05
4.61673e-08
3.19283e-06
-2.75243e-05
1.16929e-09
3.34938e-06
-2.74582e-05
1.10677e-08
3.09626e-06
-2.7575e-05
5.86527e-08
2.55661e-06
-2.77932e-05
8.0477e-08
2.48141e-06
-2.78906e-05
4.61408e-08
3.11801e-06
-2.77003e-05
3.67008e-06
-2.74298e-05
8.48399e-08
3.20573e-06
-2.84631e-05
1.20505e-07
3.5566e-06
-2.83957e-05
1.3588e-07
3.51681e-06
-2.84591e-05
1.28654e-07
3.2583e-06
-2.85608e-05
1.00154e-07
3.0899e-06
-2.85212e-05
4.67426e-08
3.26336e-06
-2.83392e-05
5.92548e-09
3.42318e-06
-2.82765e-05
1.67223e-08
3.1478e-06
-2.83894e-05
6.23808e-08
2.58078e-06
-2.85948e-05
8.07441e-08
2.51643e-06
-2.86824e-05
4.47227e-08
3.18692e-06
-2.85018e-05
3.73773e-06
-2.82539e-05
8.02621e-08
3.22858e-06
-2.92657e-05
1.18311e-07
3.59992e-06
-2.92079e-05
1.33754e-07
3.57506e-06
-2.92684e-05
1.23911e-07
3.32115e-06
-2.93606e-05
9.52983e-08
3.14662e-06
-2.93188e-05
4.67875e-08
3.324e-06
-2.91449e-05
1.04509e-08
3.48678e-06
-2.90856e-05
2.19567e-08
3.18921e-06
-2.91928e-05
6.51674e-08
2.5958e-06
-2.93834e-05
7.99099e-08
2.54361e-06
-2.94611e-05
4.28587e-08
3.24669e-06
-2.92918e-05
3.79208e-06
-2.90673e-05
7.45309e-08
3.23787e-06
-3.00549e-05
1.14552e-07
3.62943e-06
-3.00074e-05
1.29951e-07
3.6219e-06
-3.00652e-05
1.17813e-07
3.37499e-06
-3.01478e-05
8.95339e-08
3.19415e-06
-3.01047e-05
4.63005e-08
3.37408e-06
-2.99407e-05
1.46475e-08
3.53952e-06
-2.98848e-05
2.66866e-08
3.22018e-06
-2.99844e-05
6.69799e-08
2.60181e-06
-3.01585e-05
7.8007e-08
2.56294e-06
-3.02266e-05
4.06266e-08
3.29674e-06
-3.00701e-05
3.83238e-06
-2.98692e-05
6.77064e-08
3.23367e-06
-3.08303e-05
1.09278e-07
3.6449e-06
-3.07936e-05
1.24585e-07
3.65689e-06
-3.08489e-05
1.10573e-07
3.41934e-06
-3.09221e-05
8.30453e-08
3.23206e-06
-3.08786e-05
4.52949e-08
3.41308e-06
-3.07259e-05
1.84223e-08
3.58091e-06
-3.06733e-05
3.08354e-08
3.24062e-06
-3.07638e-05
6.78096e-08
2.5991e-06
-3.09203e-05
7.51068e-08
2.57458e-06
-3.09792e-05
3.81293e-08
3.33661e-06
-3.08366e-05
3.85804e-06
-3.06589e-05
5.98677e-08
3.21628e-06
-3.15919e-05
1.02577e-07
3.64632e-06
-3.15662e-05
1.17816e-07
3.67977e-06
-3.16195e-05
1.02439e-07
3.4538e-06
-3.16838e-05
7.60356e-08
3.26002e-06
-3.16405e-05
4.37979e-08
3.44065e-06
-3.15001e-05
2.16922e-08
3.61062e-06
-3.14508e-05
3.43354e-08
3.25057e-06
-3.1531e-05
6.76701e-08
2.58813e-06
-3.16691e-05
7.13163e-08
2.57874e-06
-3.17193e-05
3.54893e-08
3.36592e-06
-3.15915e-05
3.8687e-06
-3.14362e-05
5.11106e-08
3.18624e-06
-3.23402e-05
9.45709e-08
3.63393e-06
-3.23256e-05
1.09842e-07
3.69042e-06
-3.23773e-05
9.36736e-08
3.47806e-06
-3.24333e-05
6.87139e-08
3.27785e-06
-3.23909e-05
4.18483e-08
3.45663e-06
-3.22632e-05
2.43872e-08
3.6285e-06
-3.22171e-05
3.71297e-08
3.25024e-06
-3.22862e-05
6.65974e-08
2.56944e-06
-3.24057e-05
6.67735e-08
2.57569e-06
-3.24479e-05
3.28421e-08
3.38441e-06
-3.23353e-05
3.86418e-06
-3.22013e-05
4.15465e-08
3.14426e-06
-3.30759e-05
8.54109e-08
3.60813e-06
-3.30721e-05
1.00886e-07
3.68881e-06
-3.31227e-05
8.45475e-08
3.49184e-06
-3.31713e-05
6.12854e-08
3.28544e-06
-3.31302e-05
3.94949e-08
3.46105e-06
-3.30155e-05
2.64534e-08
3.63459e-06
-3.29724e-05
3.91757e-08
3.23998e-06
-3.30301e-05
6.46503e-08
2.54364e-06
-3.31311e-05
6.16418e-08
2.56572e-06
-3.3166e-05
3.03277e-08
3.39188e-06
-3.30687e-05
3.84455e-06
-3.29545e-05
3.13019e-08
3.09117e-06
-3.38001e-05
7.52754e-08
3.56949e-06
-3.38068e-05
9.11937e-08
3.67502e-06
-3.38568e-05
7.53229e-08
3.49495e-06
-3.38988e-05
5.39412e-08
3.28285e-06
-3.38594e-05
3.67949e-08
3.4541e-06
-3.37573e-05
2.78569e-08
3.62908e-06
-3.37173e-05
4.04503e-08
3.22026e-06
-3.37636e-05
6.19122e-08
2.51138e-06
-3.38466e-05
5.61031e-08
2.54912e-06
-3.3875e-05
2.80794e-08
3.38826e-06
-3.37928e-05
3.81003e-06
-3.36965e-05
2.05176e-08
3.02815e-06
-3.45145e-05
6.43662e-08
3.51874e-06
-3.45309e-05
8.102e-08
3.64928e-06
-3.45807e-05
6.62435e-08
3.48741e-06
-3.46171e-05
4.68502e-08
3.27024e-06
-3.45796e-05
3.38122e-08
3.43622e-06
-3.44897e-05
2.85873e-08
3.61239e-06
-3.44526e-05
4.09551e-08
3.19162e-06
-3.44878e-05
5.849e-08
2.47346e-06
-3.45541e-05
5.03477e-08
2.52645e-06
-3.45769e-05
2.62112e-08
3.37367e-06
-3.45088e-05
3.76109e-06
-3.44284e-05
9.34479e-09
2.95679e-06
-3.52212e-05
5.29012e-08
3.4571e-06
-3.52463e-05
7.06154e-08
3.61228e-06
-3.52964e-05
5.75112e-08
3.46964e-06
-3.53282e-05
4.01466e-08
3.24817e-06
-3.52926e-05
3.06163e-08
3.40805e-06
-3.52138e-05
2.86618e-08
3.58507e-06
-3.51795e-05
4.07254e-08
3.15489e-06
-3.52045e-05
5.45139e-08
2.43099e-06
-3.52556e-05
4.45563e-08
2.49842e-06
-3.52739e-05
2.48038e-08
3.34855e-06
-3.52187e-05
3.69855e-06
-3.51517e-05
-2.0974e-09
2.87864e-06
-3.59226e-05
4.10639e-08
3.38599e-06
-3.59555e-05
6.01567e-08
3.56489e-06
-3.60062e-05
4.9229e-08
3.44205e-06
-3.60345e-05
3.38952e-08
3.21728e-06
-3.60007e-05
2.72678e-08
3.37053e-06
-3.59316e-05
2.81216e-08
3.54807e-06
-3.58999e-05
3.98121e-08
3.11113e-06
-3.59159e-05
5.01031e-08
2.38491e-06
-3.59538e-05
3.888e-08
2.46555e-06
-3.59684e-05
2.39017e-08
3.31336e-06
-3.59244e-05
3.6236e-06
-3.58685e-05
-1.37344e-08
2.79501e-06
-3.66214e-05
2.89829e-08
3.30663e-06
-3.66608e-05
4.97641e-08
3.50781e-06
-3.67125e-05
4.14472e-08
3.40498e-06
-3.67381e-05
2.81157e-08
3.17814e-06
-3.67061e-05
2.38124e-08
3.32458e-06
-3.66455e-05
2.70166e-08
3.50239e-06
-3.66161e-05
3.8272e-08
3.06127e-06
-3.66243e-05
4.53686e-08
2.33589e-06
-3.6651e-05
3.34469e-08
2.42816e-06
-3.66627e-05
2.35245e-08
3.26853e-06
-3.66283e-05
3.53739e-06
-3.65812e-05
-2.5478e-08
2.70714e-06
-3.73198e-05
1.67818e-08
3.22016e-06
-3.73649e-05
3.95524e-08
3.44167e-06
-3.74175e-05
3.42064e-08
3.35881e-06
-3.74411e-05
2.28159e-08
3.13135e-06
-3.74108e-05
2.0295e-08
3.27111e-06
-3.73575e-05
2.54084e-08
3.44894e-06
-3.73303e-05
3.61864e-08
3.00612e-06
-3.7332e-05
4.04385e-08
2.28446e-06
-3.73494e-05
2.83697e-08
2.38652e-06
-3.73587e-05
2.36697e-08
3.21456e-06
-3.73322e-05
3.44112e-06
-3.72921e-05
-3.72425e-08
2.61611e-06
-3.802e-05
4.58039e-09
3.12758e-06
-3.80697e-05
2.9608e-08
3.36712e-06
-3.81233e-05
2.75086e-08
3.30396e-06
-3.81456e-05
1.79806e-08
3.07754e-06
-3.81169e-05
1.67623e-08
3.21106e-06
-3.80698e-05
2.33787e-08
3.38864e-06
-3.80446e-05
3.36544e-08
2.94642e-06
-3.80411e-05
3.54375e-08
2.23104e-06
-3.80509e-05
2.37365e-08
2.34081e-06
-3.80583e-05
2.43082e-08
3.15201e-06
-3.80381e-05
3.33599e-06
-3.80034e-05
-4.89556e-08
2.52288e-06
-3.87241e-05
-7.52322e-09
3.02981e-06
-3.87775e-05
1.99894e-08
3.28475e-06
-3.88321e-05
2.13317e-08
3.24086e-06
-3.88535e-05
1.35779e-08
3.01731e-06
-3.88263e-05
1.32541e-08
3.14528e-06
-3.87844e-05
2.10145e-08
3.32237e-06
-3.8761e-05
3.07825e-08
2.8828e-06
-3.87535e-05
3.04831e-08
2.17592e-06
-3.87573e-05
1.96118e-08
2.29118e-06
-3.87632e-05
2.53951e-08
3.08146e-06
-3.87479e-05
3.22322e-06
-3.8717e-05
-6.05571e-08
2.42824e-06
-3.94337e-05
-1.9448e-08
2.92761e-06
-3.94902e-05
1.07319e-08
3.19508e-06
-3.95456e-05
1.56377e-08
3.16995e-06
-3.95665e-05
9.56763e-09
2.95123e-06
-3.95409e-05
9.80539e-09
3.07458e-06
-3.95032e-05
1.84045e-08
3.25094e-06
-3.94815e-05
2.76796e-08
2.81582e-06
-3.9471e-05
2.5682e-08
2.11928e-06
-3.94701e-05
1.60398e-08
2.23775e-06
-3.94747e-05
2.68765e-08
3.00352e-06
-3.94632e-05
3.10398e-06
-3.9435e-05
-7.20003e-08
2.33282e-06
-4.01506e-05
-3.11372e-08
2.82165e-06
-4.02094e-05
1.85068e-09
3.09861e-06
-4.02655e-05
1.03799e-08
3.09165e-06
-4.02862e-05
5.90605e-09
2.87983e-06
-4.02621e-05
6.44575e-09
2.99965e-06
-4.0228e-05
1.56342e-08
3.17504e-06
-4.02078e-05
2.44512e-08
2.74593e-06
-4.01952e-05
2.11282e-08
2.06121e-06
-4.01907e-05
1.30483e-08
2.18057e-06
-4.01944e-05
2.86971e-08
2.9188e-06
-4.01854e-05
2.97937e-06
-4.01591e-05
-8.32494e-08
2.23713e-06
-4.08759e-05
-4.25507e-08
2.71242e-06
-4.09365e-05
-6.65425e-09
2.99575e-06
-4.09932e-05
5.50847e-09
3.00637e-06
-4.1014e-05
2.55043e-09
2.80357e-06
-4.09914e-05
3.19955e-09
2.92109e-06
-4.09602e-05
1.27826e-08
3.09529e-06
-4.09415e-05
2.11952e-08
2.67347e-06
-4.09274e-05
1.69037e-08
2.00173e-06
-4.09204e-05
1.06546e-08
2.1197e-06
-4.09231e-05
3.08058e-08
2.82788e-06
-4.09159e-05
2.85043e-06
-4.08907e-05
-9.42774e-08
2.14153e-06
-4.16109e-05
-5.36626e-08
2.60032e-06
-4.16728e-05
-1.47927e-08
2.88687e-06
-4.173e-05
9.74777e-10
2.91449e-06
-4.1751e-05
-5.38225e-10
2.72283e-06
-4.173e-05
8.73564e-11
2.83938e-06
-4.17013e-05
9.9195e-09
3.0122e-06
-4.16839e-05
1.80004e-08
2.5987e-06
-4.1669e-05
1.30804e-08
1.94078e-06
-4.166e-05
8.87102e-09
2.05516e-06
-4.1662e-05
3.31602e-08
2.73136e-06
-4.16559e-05
2.71813e-06
-4.16313e-05
-1.05061e-07
2.0463e-06
-4.23566e-05
-6.4456e-08
2.48568e-06
-4.24193e-05
-2.25791e-08
2.77226e-06
-4.24768e-05
-3.26781e-09
2.81633e-06
-4.24983e-05
-3.39323e-09
2.63795e-06
-4.24788e-05
-2.87255e-09
2.75491e-06
-4.24524e-05
7.10591e-09
2.92616e-06
-4.24362e-05
1.49472e-08
2.52179e-06
-4.24208e-05
9.72357e-09
1.87824e-06
-4.24104e-05
7.70994e-09
1.98696e-06
-4.24117e-05
3.57282e-08
2.6298e-06
-4.24062e-05
2.58333e-06
-4.2382e-05
-1.15575e-07
1.95162e-06
-4.31137e-05
-7.4917e-08
2.3687e-06
-4.31769e-05
-3.00291e-08
2.65221e-06
-4.32347e-05
-7.25897e-09
2.71223e-06
-4.32566e-05
-6.04105e-09
2.5492e-06
-4.32388e-05
-5.68238e-09
2.66797e-06
-4.32143e-05
4.39521e-09
2.83748e-06
-4.31993e-05
1.21093e-08
2.44284e-06
-4.31838e-05
6.89603e-09
1.81396e-06
-4.31723e-05
7.18763e-09
1.91509e-06
-4.3173e-05
3.84878e-08
2.52374e-06
-4.31678e-05
2.44686e-06
-4.31436e-05
-1.25791e-07
1.85764e-06
-4.38829e-05
-8.50292e-08
2.24958e-06
-4.39464e-05
-3.71527e-08
2.52693e-06
-4.40042e-05
-1.0996e-08
2.60242e-06
-4.40267e-05
-8.50077e-09
2.45681e-06
-4.40106e-05
-8.31741e-09
2.57879e-06
-4.3988e-05
1.83592e-09
2.74637e-06
-4.39741e-05
9.55731e-09
2.36187e-06
-4.39587e-05
4.66164e-09
1.74774e-06
-4.39464e-05
7.3269e-09
1.83955e-06
-4.39464e-05
4.14265e-08
2.41371e-06
-4.39412e-05
2.30948e-06
-4.39169e-05
-1.35668e-07
1.76443e-06
-4.46649e-05
-9.47693e-08
2.12843e-06
-4.47284e-05
-4.3953e-08
2.39664e-06
-4.47861e-05
-1.45345e-08
2.48717e-06
-4.48093e-05
-1.07834e-08
2.36095e-06
-4.47948e-05
-1.07628e-08
2.48749e-06
-4.47741e-05
-5.25531e-10
2.65297e-06
-4.47612e-05
7.3618e-09
2.27883e-06
-4.47461e-05
3.08844e-09
1.67933e-06
-4.47332e-05
8.15847e-09
1.76034e-06
-4.47325e-05
4.45392e-08
2.30024e-06
-4.47271e-05
2.1719e-06
-4.47027e-05
-1.45156e-07
1.67206e-06
-4.54602e-05
-1.04103e-07
2.00538e-06
-4.55235e-05
-5.04233e-08
2.26153e-06
-4.5581e-05
-1.7871e-08
2.36673e-06
-4.56048e-05
-1.28938e-08
2.26176e-06
-4.55921e-05
-1.30007e-08
2.39418e-06
-4.55731e-05
-2.64187e-09
2.55738e-06
-4.55614e-05
5.59616e-09
2.19363e-06
-4.55465e-05
2.2509e-09
1.60846e-06
-4.55332e-05
9.72139e-09
1.67742e-06
-4.55317e-05
4.78267e-08
2.18387e-06
-4.5526e-05
2.03484e-06
-4.55015e-05
-1.54188e-07
1.58053e-06
-4.62693e-05
-1.12983e-07
1.88052e-06
-4.63321e-05
-5.65459e-08
2.12181e-06
-4.63893e-05
-2.10065e-08
2.24134e-06
-4.64138e-05
-1.4829e-08
2.15936e-06
-4.6403e-05
-1.50103e-08
2.29889e-06
-4.63857e-05
-4.46283e-09
2.45961e-06
-4.6375e-05
4.33901e-09
2.10612e-06
-4.63605e-05
2.23126e-09
1.53482e-06
-4.63467e-05
1.20626e-08
1.59081e-06
-4.63445e-05
5.1294e-08
2.06512e-06
-4.63385e-05
1.89899e-06
-4.63139e-05
-1.62682e-07
1.48985e-06
-4.70927e-05
-1.21347e-07
1.75395e-06
-4.71549e-05
-6.22917e-08
1.97769e-06
-4.72116e-05
-2.39331e-08
2.11125e-06
-4.72368e-05
-1.65798e-08
2.05385e-06
-4.72279e-05
-1.67648e-08
2.20163e-06
-4.72124e-05
-5.93352e-09
2.35965e-06
-4.72027e-05
3.67569e-09
2.01609e-06
-4.71886e-05
3.11988e-09
1.45809e-06
-4.71743e-05
1.52357e-08
1.5005e-06
-4.71713e-05
5.49484e-08
1.94457e-06
-4.71649e-05
1.76502e-06
-4.71404e-05
-1.7054e-07
1.40001e-06
-4.79309e-05
-1.29118e-07
1.62575e-06
-4.79923e-05
-6.76202e-08
1.82941e-06
-4.80484e-05
-2.66356e-08
1.9767e-06
-4.80743e-05
-1.8131e-08
1.94532e-06
-4.80673e-05
-1.82322e-08
2.10239e-06
-4.80535e-05
-6.99309e-09
2.25744e-06
-4.80448e-05
3.69879e-09
1.9233e-06
-4.80311e-05
5.01453e-09
1.3779e-06
-4.80164e-05
1.92992e-08
1.40651e-06
-4.80125e-05
5.87979e-08
1.82278e-06
-4.80057e-05
1.63361e-06
-4.79813e-05
-1.77649e-07
1.31098e-06
-4.87844e-05
-1.36204e-07
1.49606e-06
-4.88448e-05
-7.24806e-08
1.67723e-06