/*--------------------------------*- C++ -*----------------------------------*\
| =========                 |                                                 |
| \\      /  F ield         | OpenFOAM: The Open Source CFD Toolbox           |
|  \\    /   O peration     | Version:  v1912                                 |
|   \\  /    A nd           | Website:  www.openfoam.com                      |
|    \\/     M anipulation  |                                                 |
\*---------------------------------------------------------------------------*/
FoamFile
{
    version     2.0;
    format      ascii;
    class       volSymmTensorField;
    location    "11.2";
    object      UPrime2Mean;
}
// * * * * * * * * * * * * * * * * * * * * * * * * * * * * * * * * * * * * * //

dimensions      [0 2 -2 0 0 0 0];


internalField   nonuniform List<symmTensor> 
34128
(
(1.82315e-11 -1.70758e-14 -6.754e-11 8.51333e-13 -2.16691e-09 8.12359e-06)
(1.40964e-11 -1.53792e-14 1.29503e-10 8.51271e-13 -2.16765e-09 8.13392e-06)
(1.37268e-11 5.03169e-15 1.0238e-10 8.51287e-13 -2.16749e-09 8.15487e-06)
(1.82713e-11 4.4433e-14 -2.1383e-10 8.51278e-13 -2.16711e-09 8.15934e-06)
(2.1961e-11 7.13964e-14 -3.8391e-10 8.51635e-13 -2.16776e-09 8.14276e-06)
(1.85728e-11 7.55184e-14 -2.78658e-10 8.51752e-13 -2.16838e-09 8.12299e-06)
(1.80658e-11 5.44691e-14 8.9741e-11 8.51933e-13 -2.16881e-09 8.11557e-06)
(1.91888e-11 4.01031e-14 3.61895e-10 8.5171e-13 -2.16813e-09 8.13033e-06)
(2.08132e-11 4.81591e-14 3.15242e-10 8.51501e-13 -2.16787e-09 8.15064e-06)
(2.15777e-11 7.82289e-14 9.86123e-11 8.51512e-13 -2.16753e-09 8.14906e-06)
(2.27736e-11 7.24055e-14 6.81779e-11 8.51714e-13 -2.16719e-09 8.12492e-06)
(2.84267e-11 2.87757e-14 3.17767e-10 8.52631e-13 -2.16829e-09 8.11255e-06)
(1.59484e-10 -3.79084e-13 -4.45837e-10 4.17235e-12 -8.59406e-09 3.22955e-05)
(1.23924e-10 -1.50106e-13 1.05671e-09 4.16159e-12 -8.59517e-09 3.23715e-05)
(1.20699e-10 1.34112e-13 8.31114e-10 4.16401e-12 -8.55296e-09 3.25313e-05)
(1.59931e-10 4.01309e-13 -1.59547e-09 4.16858e-12 -8.53584e-09 3.25659e-05)
(1.91533e-10 8.54958e-13 -2.95877e-09 4.1716e-12 -8.57257e-09 3.24393e-05)
(1.61917e-10 1.1662e-12 -2.20788e-09 4.17148e-12 -8.62487e-09 3.22879e-05)
(1.57554e-10 1.33794e-12 5.05779e-10 4.17205e-12 -8.64456e-09 3.22317e-05)
(1.67418e-10 1.55108e-12 2.52501e-09 4.17385e-12 -8.6128e-09 3.23445e-05)
(1.81474e-10 1.71983e-12 2.13417e-09 4.17329e-12 -8.57597e-09 3.24975e-05)
(1.88791e-10 2.0274e-12 5.34218e-10 4.18397e-12 -8.57193e-09 3.24856e-05)
(1.98811e-10 1.91501e-12 2.68013e-10 4.19759e-12 -8.60184e-09 3.23036e-05)
(2.48345e-10 1.42529e-12 2.08158e-09 4.20339e-12 -8.62162e-09 3.22094e-05)
(4.37234e-10 -1.20898e-12 -1.25548e-09 3.40062e-12 -7.12906e-09 6.26425e-05)
(3.41203e-10 -2.16891e-13 2.68539e-09 3.33615e-12 -7.11467e-09 6.28287e-05)
(3.32457e-10 4.18036e-13 2.29269e-09 3.39315e-12 -6.89927e-09 6.32277e-05)
(4.38373e-10 3.85773e-13 -3.5922e-09 3.43383e-12 -6.81997e-09 6.33149e-05)
(5.23201e-10 1.8133e-12 -6.86121e-09 3.40019e-12 -6.99747e-09 6.29992e-05)
(4.42306e-10 3.23245e-12 -4.87426e-09 3.34182e-12 -7.25036e-09 6.26222e-05)
(4.30621e-10 4.65582e-12 1.91109e-09 3.31507e-12 -7.34352e-09 6.24842e-05)
(4.57842e-10 6.19247e-12 6.99637e-09 3.35321e-12 -7.19131e-09 6.27669e-05)
(4.96041e-10 6.75541e-12 6.1043e-09 3.39222e-12 -7.00707e-09 6.31465e-05)
(5.17187e-10 7.4292e-12 2.24806e-09 3.45858e-12 -6.99e-09 6.31191e-05)
(5.43627e-10 7.03171e-12 1.5331e-09 3.50621e-12 -7.15445e-09 6.26705e-05)
(6.79761e-10 5.79585e-12 5.8507e-09 3.52542e-12 -7.25288e-09 6.24379e-05)
(8.48398e-10 -2.92799e-12 -2.34306e-09 6.68565e-12 -4.63584e-09 9.41246e-05)
(6.64938e-10 -1.99776e-13 4.90284e-09 6.45598e-12 -4.58905e-09 9.44514e-05)
(6.48199e-10 1.13834e-12 4.39465e-09 6.72525e-12 -4.01137e-09 9.51603e-05)
(8.4999e-10 2.84321e-13 -5.87145e-09 6.88656e-12 -3.80237e-09 9.53152e-05)
(1.0108e-09 3.80874e-12 -1.14758e-08 6.70545e-12 -4.26937e-09 9.47549e-05)
(8.54752e-10 7.66042e-12 -7.78621e-09 6.42492e-12 -4.936e-09 9.40878e-05)
(8.32733e-10 1.19336e-11 4.26397e-09 6.29348e-12 -5.17749e-09 9.38472e-05)
(8.86012e-10 1.65676e-11 1.33322e-08 6.46407e-12 -4.77582e-09 9.43497e-05)
(9.5954e-10 1.79737e-11 1.18944e-08 6.66168e-12 -4.28443e-09 9.50188e-05)
(1.00228e-09 1.93704e-11 5.2358e-09 6.90697e-12 -4.23307e-09 9.49734e-05)
(1.0517e-09 1.83937e-11 3.92073e-09 7.0347e-12 -4.67141e-09 9.41864e-05)
(1.31653e-09 1.5563e-11 1.13151e-08 7.08124e-12 -4.93212e-09 9.3779e-05)
(1.39017e-09 -5.50555e-12 -3.51973e-09 1.2546e-11 8.79737e-09 0.00012414)
(1.09438e-09 3.30135e-13 7.62686e-09 1.19748e-11 8.90998e-09 0.000124627)
(1.06737e-09 2.49672e-12 7.00287e-09 1.28257e-11 1.00968e-08 0.00012569)
(1.39113e-09 -5.75041e-13 -8.27924e-09 1.3275e-11 1.05186e-08 0.000125921)
(1.64798e-09 6.18871e-12 -1.64437e-08 1.26679e-11 9.5687e-09 0.000125081)
(1.39429e-09 1.4257e-11 -1.0712e-08 1.17761e-11 8.21966e-09 0.000124085)
(1.35943e-09 2.38965e-11 7.31607e-09 1.13552e-11 7.73646e-09 0.000123731)
(1.44767e-09 3.44239e-11 2.0916e-08 1.18729e-11 8.55285e-09 0.000124483)
(1.56727e-09 3.71753e-11 1.8957e-08 1.25164e-11 9.55891e-09 0.000125478)
(1.63966e-09 3.93586e-11 9.18456e-09 1.3158e-11 9.67369e-09 0.000125414)
(1.71784e-09 3.74632e-11 7.17137e-09 1.337e-11 8.77793e-09 0.000124248)
(2.1529e-09 3.23707e-11 1.79568e-08 1.34351e-11 8.25256e-09 0.000123647)
(2.05944e-09 -9.09473e-12 -4.62186e-09 2.72565e-11 2.78166e-08 0.000151239)
(1.62854e-09 1.60539e-12 1.07949e-08 2.60682e-11 2.80316e-08 0.000151897)
(1.58912e-09 4.89666e-12 9.99086e-09 2.81202e-11 3.00972e-08 0.000153337)
(2.05761e-09 -1.84168e-12 -1.07294e-08 2.91276e-11 3.08201e-08 0.000153646)
(2.42769e-09 9.68886e-12 -2.1519e-08 2.76415e-11 2.91764e-08 0.000152507)
(2.05547e-09 2.40977e-11 -1.35128e-08 2.55068e-11 2.68591e-08 0.000151169)
(2.0058e-09 4.20041e-11 1.08005e-08 2.44972e-11 2.60378e-08 0.000150699)
(2.13822e-09 6.18025e-11 2.91744e-08 2.57138e-11 2.74461e-08 0.000151713)
(2.31421e-09 6.6569e-11 2.67739e-08 2.7284e-11 2.91883e-08 0.000153044)
(2.42447e-09 6.97789e-11 1.37597e-08 2.86825e-11 2.94042e-08 0.000152963)
(2.5367e-09 6.6509e-11 1.09954e-08 2.89831e-11 2.78605e-08 0.000151405)
(3.18277e-09 5.79195e-11 2.52848e-08 2.9042e-11 2.69642e-08 0.000150604)
(2.85241e-09 -1.36474e-11 -5.51079e-09 5.45372e-11 5.37538e-08 0.00017465)
(2.26578e-09 4.05923e-12 1.43652e-08 5.23527e-11 5.41185e-08 0.000175483)
(2.21201e-09 8.76831e-12 1.32562e-08 5.65621e-11 5.7351e-08 0.000177303)
(2.84437e-09 -3.43855e-12 -1.31671e-08 5.85273e-11 5.84635e-08 0.000177687)
(3.34185e-09 1.45006e-11 -2.65304e-08 5.54703e-11 5.59004e-08 0.000176246)
(2.83208e-09 3.76403e-11 -1.61117e-08 5.11348e-11 5.23214e-08 0.000174568)
(2.76621e-09 6.71688e-11 1.44582e-08 4.9085e-11 5.10656e-08 0.000173988)
(2.95235e-09 1.00257e-10 3.75967e-08 5.15326e-11 5.32494e-08 0.00017526)
(3.19468e-09 1.07824e-10 3.48698e-08 5.47707e-11 5.59581e-08 0.000176921)
(3.35105e-09 1.12268e-10 1.86225e-08 5.7455e-11 5.63182e-08 0.000176825)
(3.50247e-09 1.0704e-10 1.50834e-08 5.78135e-11 5.39285e-08 0.000174884)
(4.39935e-09 9.33567e-11 3.28324e-08 5.77984e-11 5.25545e-08 0.00017389)
(3.76443e-09 -1.91056e-11 -6.08632e-09 9.94662e-11 8.59793e-08 0.000194039)
(3.00375e-09 8.15352e-12 1.83032e-08 9.57897e-11 8.65509e-08 0.000195045)
(2.93381e-09 1.46283e-11 1.67214e-08 1.03511e-10 9.12455e-08 0.000197234)
(3.74541e-09 -5.06228e-12 -1.55482e-08 1.06987e-10 9.2831e-08 0.000197685)
(4.3813e-09 2.09871e-11 -3.13525e-08 1.01395e-10 8.91182e-08 0.00019595)
(3.71709e-09 5.54292e-11 -1.84639e-08 9.35275e-11 8.39925e-08 0.000193952)
(3.63421e-09 1.00225e-10 1.80721e-08 8.98164e-11 8.22121e-08 0.000193271)
(3.88402e-09 1.51111e-10 4.5774e-08 9.42351e-11 8.53513e-08 0.000194786)
(4.2022e-09 1.62416e-10 4.28556e-08 1.00185e-10 8.92525e-08 0.000196755)
(4.41293e-09 1.68316e-10 2.34834e-08 1.04889e-10 8.9804e-08 0.000196648)
(4.60887e-09 1.60372e-10 1.91604e-08 1.05242e-10 8.63751e-08 0.000194348)
(5.79499e-09 1.39497e-10 4.01989e-08 1.05025e-10 8.4422e-08 0.000193178)
(4.79027e-09 -2.53819e-11 -6.29209e-09 1.67548e-10 1.23863e-07 0.000209362)
(3.83946e-09 1.44107e-11 2.25696e-08 1.61761e-10 1.24708e-07 0.000210536)
(3.75165e-09 2.30735e-11 2.03302e-08 1.74806e-10 1.31159e-07 0.00021307)
(4.75398e-09 -6.26999e-12 -1.78283e-08 1.80521e-10 1.33293e-07 0.000213578)
(5.53609e-09 2.95327e-11 -3.58869e-08 1.7113e-10 1.28202e-07 0.000211566)
(4.70285e-09 7.79476e-11 -2.05374e-08 1.5798e-10 1.21265e-07 0.000209277)
(4.60279e-09 1.41824e-10 2.14876e-08 1.51803e-10 1.18879e-07 0.00020851)
(4.92662e-09 2.15378e-10 5.3421e-08 1.59165e-10 1.23143e-07 0.000210244)
(5.32981e-09 2.3154e-10 5.04541e-08 1.69213e-10 1.2845e-07 0.00021249)
(5.60302e-09 2.39125e-10 2.81376e-08 1.76909e-10 1.29243e-07 0.000212375)
(5.84936e-09 2.2748e-10 2.30232e-08 1.77157e-10 1.24595e-07 0.000209753)
(7.36153e-09 1.96778e-10 4.70781e-08 1.76528e-10 1.2197e-07 0.000208429)
(5.92452e-09 -3.23733e-11 -6.11265e-09 2.64577e-10 1.66644e-07 0.000220756)
(4.76971e-09 2.34104e-11 2.71161e-08 2.55936e-10 1.67839e-07 0.000222088)
(4.6624e-09 3.47869e-11 2.40428e-08 2.76624e-10 1.76334e-07 0.000224937)
(5.86307e-09 -6.46142e-12 -1.99584e-08 2.85505e-10 1.79082e-07 0.000225491)
(6.79603e-09 4.05631e-11 -4.00505e-08 2.70725e-10 1.72392e-07 0.000223224)
(5.78165e-09 1.05646e-10 -2.23007e-08 2.50091e-10 1.63405e-07 0.000220681)
(5.66479e-09 1.92459e-10 2.46175e-08 2.40452e-10 1.60343e-07 0.000219841)
(6.07348e-09 2.9378e-10 6.03748e-08 2.51976e-10 1.65886e-07 0.000221767)
(6.57049e-09 3.16153e-10 5.75024e-08 2.67884e-10 1.72796e-07 0.000224252)
(6.91419e-09 3.25645e-10 3.24749e-08 2.79822e-10 1.73884e-07 0.000224133)
(7.21759e-09 3.09042e-10 2.6555e-08 2.79832e-10 1.67854e-07 0.000221233)
(9.09097e-09 2.65312e-10 5.32667e-08 2.78475e-10 1.64478e-07 0.000219779)
(7.16224e-09 -3.9951e-11 -5.565e-09 3.96615e-10 2.13592e-07 0.000228457)
(5.79157e-09 3.58019e-11 3.18833e-08 3.84252e-10 2.15217e-07 0.000229935)
(5.66314e-09 5.05379e-11 2.783e-08 4.15459e-10 2.26032e-07 0.000233065)
(7.06597e-09 -4.90384e-12 -2.18867e-08 4.28646e-10 2.2945e-07 0.000233654)
(8.15148e-09 5.45244e-11 -4.37697e-08 4.06549e-10 2.20953e-07 0.000231158)
(6.94626e-09 1.38936e-10 -2.37199e-08 3.7575e-10 2.09709e-07 0.000228398)
(6.8135e-09 2.52469e-10 2.74322e-08 3.61463e-10 2.05914e-07 0.0002275)
(7.31844e-09 3.86773e-10 6.65727e-08 3.78622e-10 2.12871e-07 0.000229589)
(7.91782e-09 4.17007e-10 6.39336e-08 4.02551e-10 2.21559e-07 0.000232275)
(8.33988e-09 4.28597e-10 3.64668e-08 4.20296e-10 2.22997e-07 0.000232155)
(8.70808e-09 4.05456e-10 2.97166e-08 4.19903e-10 2.1545e-07 0.000229024)
(1.09762e-08 3.4494e-10 5.86503e-08 4.1738e-10 2.11255e-07 0.000227466)
(8.49958e-09 -4.79407e-11 -4.68818e-09 5.6989e-10 2.63948e-07 0.000232747)
(6.90292e-09 5.23111e-11 3.68038e-08 5.52821e-10 2.66084e-07 0.000234355)
(6.75166e-09 7.11771e-11 3.16678e-08 5.98018e-10 2.79484e-07 0.00023773)
(8.35687e-09 -7.5399e-13 -2.35612e-08 6.1688e-10 2.83617e-07 0.000238343)
(9.59387e-09 7.18786e-11 -4.6979e-08 5.85184e-10 2.73117e-07 0.000235645)
(8.19053e-09 1.78196e-10 -2.47589e-08 5.41054e-10 2.59444e-07 0.000232709)
(8.04313e-09 3.22038e-10 2.99414e-08 5.20744e-10 2.54869e-07 0.000231767)
(8.65639e-09 4.94555e-10 7.20192e-08 5.45257e-10 2.63357e-07 0.000233988)
(9.36656e-09 5.34668e-10 6.97457e-08 5.79788e-10 2.73976e-07 0.000236835)
(9.8747e-09 5.48484e-10 4.01402e-08 6.05263e-10 2.75824e-07 0.00023672)
(1.03167e-08 5.16858e-10 3.2523e-08 6.04282e-10 2.66651e-07 0.000233406)
(1.3012e-08 4.35244e-10 6.3179e-08 6.00014e-10 2.61584e-07 0.000231768)
(9.93454e-09 -5.61761e-11 -3.52683e-09 7.91046e-10 3.16993e-07 0.000233905)
(8.10319e-09 7.36759e-11 4.18118e-08 7.68169e-10 3.19716e-07 0.000235628)
(7.92715e-09 9.76525e-11 3.55322e-08 8.31446e-10 3.35946e-07 0.000239212)
(9.73153e-09 7.0314e-12 -2.49426e-08 8.57598e-10 3.4083e-07 0.000239839)
(1.11166e-08 9.31253e-11 -4.96268e-08 8.13677e-10 3.28153e-07 0.000236967)
(9.51004e-09 2.23757e-10 -2.53854e-08 7.52543e-10 3.11917e-07 0.000233891)
(9.34951e-09 4.01335e-10 3.21641e-08 7.24646e-10 3.06525e-07 0.000232919)
(1.0084e-08 6.1734e-10 7.6733e-08 7.58474e-10 3.1664e-07 0.000235243)
(1.09134e-08 6.69785e-10 7.49519e-08 8.06632e-10 3.29314e-07 0.000238216)
(1.15152e-08 6.85826e-10 4.35301e-08 8.42161e-10 3.31635e-07 0.000238108)
(1.20415e-08 6.43365e-10 3.4999e-08 8.40387e-10 3.20765e-07 0.000234657)
(1.51956e-08 5.35916e-10 6.68155e-08 8.33628e-10 3.14788e-07 0.000232965)
(1.14676e-08 -6.43043e-11 -2.12692e-09 1.06667e-09 3.71952e-07 0.000232197)
(9.39385e-09 1.00873e-10 4.68372e-08 1.03683e-09 3.75337e-07 0.000234016)
(9.19072e-09 1.31011e-10 3.93958e-08 1.12298e-09 3.94622e-07 0.000237774)
(1.11878e-08 1.93809e-11 -2.59944e-08 1.15826e-09 4.00284e-07 0.000238406)
(1.27156e-08 1.1867e-10 -5.16686e-08 1.09908e-09 3.8527e-07 0.000235388)
(1.09025e-08 2.75906e-10 -2.55736e-08 1.01679e-09 3.66375e-07 0.000232209)
(1.07304e-08 4.90227e-10 3.41229e-08 9.79567e-10 3.60143e-07 0.000231218)
(1.15999e-08 7.54836e-10 8.07454e-08 1.02487e-09 3.71955e-07 0.000233619)
(1.25572e-08 8.22584e-10 7.95792e-08 1.09013e-09 3.86786e-07 0.000236682)
(1.32606e-08 8.40673e-10 4.66799e-08 1.13851e-09 3.89647e-07 0.000236585)
(1.38832e-08 7.84577e-10 3.71813e-08 1.13573e-09 3.77043e-07 0.000233042)
(1.75279e-08 6.45974e-10 6.95499e-08 1.12558e-09 3.70137e-07 0.000231318)
(1.31004e-08 -7.18305e-11 -5.4414e-10 1.40288e-09 4.27916e-07 0.000227902)
(1.07776e-08 1.3488e-10 5.18014e-08 1.36482e-09 4.32023e-07 0.000229799)
(1.05445e-08 1.72297e-10 4.32332e-08 1.47928e-09 4.54561e-07 0.000233695)
(1.27248e-08 3.7308e-11 -2.66678e-08 1.52575e-09 4.61014e-07 0.000234324)
(1.43879e-08 1.48932e-10 -5.30601e-08 1.44792e-09 4.43536e-07 0.000231188)
(1.23669e-08 3.34835e-10 -2.52986e-08 1.33993e-09 4.21928e-07 0.000227941)
(1.21844e-08 5.88385e-10 3.58624e-08 1.29146e-09 4.14844e-07 0.000226943)
(1.3204e-08 9.06567e-10 8.41221e-08 1.35055e-09 4.28397e-07 0.000229395)
(1.42983e-08 9.93167e-10 8.36908e-08 1.4368e-09 4.45451e-07 0.000232515)
(1.51112e-08 1.01289e-09 4.96642e-08 1.50133e-09 4.48925e-07 0.000232432)
(1.58441e-08 9.39881e-10 3.91428e-08 1.49742e-09 4.34596e-07 0.00022884)
(2.00114e-08 7.64343e-10 7.14287e-08 1.48287e-09 4.26763e-07 0.000227105)
(1.48355e-08 -7.81636e-11 1.1664e-09 1.80576e-09 4.84015e-07 0.000221323)
(1.22577e-08 1.76711e-10 5.66331e-08 1.75819e-09 4.88887e-07 0.000223278)
(1.19912e-08 2.22603e-10 4.70225e-08 1.9071e-09 5.14839e-07 0.000227277)
(1.43417e-08 6.18574e-11 -2.69179e-08 1.96699e-09 5.2209e-07 0.000227896)
(1.61311e-08 1.84311e-10 -5.3768e-08 1.86676e-09 5.02047e-07 0.000224669)
(1.39025e-08 4.00681e-10 -2.45419e-08 1.72816e-09 4.77716e-07 0.000221387)
(1.37105e-08 6.9536e-10 3.74296e-08 1.66638e-09 4.69779e-07 0.000220393)
(1.48963e-08 1.07191e-09 8.69271e-08 1.74161e-09 4.85092e-07 0.000222871)
(1.61371e-08 1.18151e-09 8.73502e-08 1.85316e-09 5.04404e-07 0.000226018)
(1.70679e-08 1.20216e-09 5.25519e-08 1.93774e-09 5.08568e-07 0.000225953)
(1.79272e-08 1.1085e-09 4.09519e-08 1.93268e-09 4.92567e-07 0.00022235)
(2.26496e-08 8.89748e-10 7.25063e-08 1.91258e-09 4.8383e-07 0.000220625)
(1.66769e-08 -8.25582e-11 2.96165e-09 2.2813e-09 5.39354e-07 0.000212755)
(1.3839e-08 2.2742e-10 6.12725e-08 2.22289e-09 5.45016e-07 0.000214749)
(1.35349e-08 2.83014e-10 5.07422e-08 2.41305e-09 5.74508e-07 0.000218818)
(1.60392e-08 9.40152e-11 -2.67085e-08 2.48874e-09 5.82552e-07 0.000219421)
(1.79443e-08 2.25132e-10 -5.37744e-08 2.36201e-09 5.59877e-07 0.000216131)
(1.55101e-08 4.73495e-10 -2.32997e-08 2.18761e-09 5.32855e-07 0.000212844)
(1.53088e-08 8.10544e-10 3.88544e-08 2.11026e-09 5.24077e-07 0.000211863)
(1.66778e-08 1.25005e-09 8.92017e-08 2.20403e-09 5.41136e-07 0.000214347)
(1.80752e-08 1.38746e-09 9.06015e-08 2.34558e-09 5.6271e-07 0.000217493)
(1.91327e-08 1.40795e-09 5.53857e-08 2.45473e-09 5.67644e-07 0.000217447)
(2.01369e-08 1.28943e-09 4.26522e-08 2.44868e-09 5.50069e-07 0.000213871)
(2.54475e-08 1.02066e-09 7.28296e-08 2.42184e-09 5.40477e-07 0.000212173)
(1.86297e-08 -8.41283e-11 4.81159e-09 2.83524e-09 5.93003e-07 0.000202492)
(1.55274e-08 2.8806e-10 6.56709e-08 2.76467e-09 5.99461e-07 0.000204505)
(1.51803e-08 3.5458e-10 5.43703e-08 3.00354e-09 6.32575e-07 0.000208613)
(1.7819e-08 1.3473e-10 -2.6013e-08 3.09755e-09 6.41399e-07 0.000209195)
(1.98276e-08 2.71658e-10 -5.3077e-08 2.93983e-09 6.16058e-07 0.000205867)
(1.71913e-08 5.53228e-10 -2.1583e-08 2.72426e-09 5.86419e-07 0.000202603)
(1.69797e-08 9.33182e-10 4.01506e-08 2.62893e-09 5.76824e-07 0.000201644)
(1.85504e-08 1.44003e-09 9.09655e-08 2.74351e-09 5.95589e-07 0.000204113)
(2.01147e-08 1.61068e-09 9.34693e-08 2.92016e-09 6.19394e-07 0.000207233)
(2.13087e-08 1.6295e-09 5.81817e-08 3.05912e-09 6.25182e-07 0.00020721)
(2.24788e-08 1.48146e-09 4.42634e-08 3.05252e-09 6.06173e-07 0.000203692)
(2.84116e-08 1.15532e-09 7.24383e-08 3.01775e-09 5.95803e-07 0.000202039)
(2.06999e-08 -8.18527e-11 6.70029e-09 3.47317e-09 6.4401e-07 0.00019082)
(1.73296e-08 3.5964e-10 6.97912e-08 3.38908e-09 6.51245e-07 0.000192833)
(1.69336e-08 4.3829e-10 5.78835e-08 3.68479e-09 6.88017e-07 0.00019695)
(1.96835e-08 1.84903e-10 -2.48166e-08 3.79971e-09 6.97596e-07 0.000197507)
(2.17821e-08 3.24075e-10 -5.16902e-08 3.60621e-09 6.69593e-07 0.000194167)
(1.89487e-08 6.39722e-10 -1.94192e-08 3.34393e-09 6.37453e-07 0.000190953)
(1.87244e-08 1.06238e-09 4.13139e-08 3.22802e-09 6.27081e-07 0.000190022)
(2.05158e-08 1.64072e-09 9.22155e-08 3.36554e-09 6.4748e-07 0.000192459)
(2.22583e-08 1.85069e-09 9.59555e-08 3.58274e-09 6.7345e-07 0.000195529)
(2.35994e-08 1.86583e-09 6.09267e-08 3.75753e-09 6.80179e-07 0.00019553)
(2.49595e-08 1.68317e-09 4.57773e-08 3.7512e-09 6.59917e-07 0.0001921)
(3.15492e-08 1.29174e-09 7.13609e-08 3.70733e-09 6.48872e-07 0.000190506)
(2.2894e-08 -7.45761e-11 8.62509e-09 4.20044e-09 6.91402e-07 0.000178022)
(1.92531e-08 4.43096e-10 7.36061e-08 4.1015e-09 6.99375e-07 0.000180016)
(1.8801e-08 5.35038e-10 6.12559e-08 4.46277e-09 7.39788e-07 0.000184114)
(2.16357e-08 2.45378e-10 -2.31186e-08 4.60125e-09 7.50085e-07 0.000184642)
(2.38095e-08 3.82479e-10 -4.9647e-08 4.36688e-09 7.19465e-07 0.000181313)
(2.07851e-08 7.32697e-10 -1.68528e-08 4.05229e-09 6.84985e-07 0.000178174)
(2.05442e-08 1.19713e-09 4.23224e-08 3.91301e-09 6.73888e-07 0.000177279)
(2.25761e-08 1.85082e-09 9.2928e-08 4.07534e-09 6.95819e-07 0.000179666)
(2.45083e-08 2.10683e-09 9.80387e-08 4.3389e-09 7.23852e-07 0.000182665)
(2.60089e-08 2.11572e-09 6.35767e-08 4.5564e-09 7.31609e-07 0.000182691)
(2.75859e-08 1.89297e-09 4.71578e-08 4.5516e-09 7.10313e-07 0.000179376)
(3.48678e-08 1.42771e-09 6.96127e-08 4.49762e-09 6.98728e-07 0.000177857)
(2.52186e-08 -6.10082e-11 1.05936e-08 5.02222e-09 7.34205e-07 0.000164376)
(2.13057e-08 5.3926e-10 7.70956e-08 4.90709e-09 7.42856e-07 0.000166333)
(2.07895e-08 6.45586e-10 6.44573e-08 5.3432e-09 7.86837e-07 0.000170383)
(2.36789e-08 3.16929e-10 -2.09339e-08 5.50793e-09 7.97804e-07 0.000170878)
(2.59117e-08 4.4685e-10 -4.69984e-08 5.22731e-09 7.64651e-07 0.000167584)
(2.27038e-08 8.31732e-10 -1.39448e-08 4.85479e-09 7.28036e-07 0.000164544)
(2.24401e-08 1.33627e-09 4.31392e-08 4.68916e-09 7.16281e-07 0.000163693)
(2.47324e-08 2.06888e-09 9.30634e-08 4.87779e-09 7.39608e-07 0.000166013)
(2.68666e-08 2.37821e-09 9.96768e-08 5.19389e-09 7.69569e-07 0.000168919)
(2.85407e-08 2.37766e-09 6.60598e-08 5.46191e-09 7.78437e-07 0.000168973)
(3.03652e-08 2.10901e-09 4.83428e-08 5.46047e-09 7.56361e-07 0.000165796)
(3.83746e-08 1.56073e-09 6.7197e-08 5.39559e-09 7.44402e-07 0.000164365)
(2.76793e-08 -3.97179e-11 1.26194e-08 5.94335e-09 7.71463e-07 0.000150153)
(2.34946e-08 6.48824e-10 8.02433e-08 5.81072e-09 7.8071e-07 0.000152058)
(2.29056e-08 7.70522e-10 6.74523e-08 6.33143e-09 8.28128e-07 0.000156031)
(2.58163e-08 4.00244e-10 -1.82938e-08 6.52512e-09 8.397e-07 0.00015649)
(2.80905e-08 5.17042e-10 -4.38132e-08 6.19268e-09 8.04143e-07 0.000153255)
(2.47074e-08 9.36254e-10 -1.07714e-08 5.7566e-09 7.65639e-07 0.000150337)
(2.44123e-08 1.47854e-09 4.37177e-08 5.56142e-09 7.5331e-07 0.000149535)
(2.69849e-08 2.2932e-09 9.25738e-08 5.77741e-09 7.77865e-07 0.000151773)
(2.93336e-08 2.66367e-09 1.00811e-07 6.15257e-09 8.09584e-07 0.000154566)
(3.11975e-08 2.64983e-09 6.82801e-08 6.47994e-09 8.19644e-07 0.000154648)
(3.33033e-08 2.32923e-09 4.92492e-08 6.4843e-09 7.97067e-07 0.000151631)
(4.2075e-08 1.68803e-09 6.41091e-08 6.40805e-09 7.84933e-07 0.000150301)
(3.02799e-08 -9.12544e-12 1.47163e-08 6.96835e-09 8.02254e-07 0.000135621)
(2.58258e-08 7.72308e-10 8.30326e-08 6.81689e-09 8.11997e-07 0.000137457)
(2.51548e-08 9.10219e-10 7.01992e-08 7.43234e-09 8.62661e-07 0.000141328)
(2.80502e-08 4.95909e-10 -1.52451e-08 7.65772e-09 8.74761e-07 0.000141746)
(3.03465e-08 5.92756e-10 -4.01766e-08 7.26775e-09 8.36971e-07 0.000138592)
(2.67976e-08 1.04553e-09 -7.4211e-09 6.76249e-09 7.96867e-07 0.000135818)
(2.646e-08 1.62254e-09 4.40072e-08 6.53435e-09 7.84062e-07 0.000135071)
(2.93315e-08 2.52189e-09 9.14104e-08 6.77823e-09 8.09647e-07 0.00013721)
(3.19076e-08 2.96171e-09 1.01373e-07 7.21934e-09 8.4292e-07 0.000139873)
(3.39801e-08 2.93009e-09 7.01247e-08 7.61597e-09 8.54242e-07 0.000139984)
(3.64046e-08 2.55127e-09 4.97795e-08 7.62926e-09 8.31466e-07 0.000137146)
(4.59718e-08 1.80648e-09 6.03407e-08 7.54165e-09 8.19386e-07 0.000135929)
(3.30219e-08 3.25064e-11 1.68927e-08 8.10125e-09 8.25727e-07 0.000121037)
(2.83033e-08 9.10023e-10 8.54427e-08 7.92963e-09 8.35851e-07 0.000122791)
(2.75413e-08 1.06479e-09 7.265e-08 8.65022e-09 8.89507e-07 0.000126533)
(3.03814e-08 6.04379e-10 -1.185e-08 8.91003e-09 9.0204e-07 0.000126908)
(3.26788e-08 6.73521e-10 -3.61873e-08 8.45677e-09 8.62231e-07 0.000123856)
(2.89745e-08 1.15868e-09 -3.99149e-09 7.87674e-09 8.20856e-07 0.000121246)
(2.85803e-08 1.76676e-09 4.39593e-08 7.612e-09 8.07688e-07 0.000120559)
(3.17674e-08 2.75278e-09 8.95325e-08 7.88362e-09 8.34074e-07 0.000122586)
(3.45841e-08 3.27049e-09 1.0129e-07 8.39797e-09 8.68667e-07 0.0001251)
(3.68867e-08 3.21589e-09 7.14711e-08 8.87492e-09 8.81312e-07 0.000125239)
(3.96704e-08 2.77249e-09 4.98302e-08 8.90104e-09 8.58651e-07 0.000122598)
(5.00637e-08 1.9126e-09 5.5887e-08 8.80267e-09 8.46883e-07 0.000121505)
(3.59025e-08 8.7083e-11 1.91468e-08 9.3455e-09 8.41125e-07 0.00010665)
(3.09277e-08 1.06204e-09 8.74466e-08 9.15233e-09 8.51501e-07 0.000108308)
(3.00667e-08 1.23405e-09 7.47505e-08 9.9886e-09 9.07833e-07 0.000111895)
(3.28087e-08 7.25957e-10 -8.18459e-09 1.02856e-08 9.2069e-07 0.000112225)
(3.50844e-08 7.58681e-10 -3.1955e-08 9.76331e-09 8.79117e-07 0.000109296)
(3.12357e-08 1.27463e-09 -5.85002e-10 9.10294e-09 8.36835e-07 0.000106868)
(3.07679e-08 1.90959e-09 4.35337e-08 8.79775e-09 8.2343e-07 0.000106246)
(3.42845e-08 2.98347e-09 8.69138e-08 9.09624e-09 8.50364e-07 0.000108145)
(3.73548e-08 3.58773e-09 1.00491e-07 9.6915e-09 8.86015e-07 0.000110495)
(3.9912e-08 3.5043e-09 7.21959e-08 1.02611e-08 9.00028e-07 0.000110662)
(4.30983e-08 2.98994e-09 4.92998e-08 1.03046e-08 8.77802e-07 0.000108232)
(5.4344e-08 2.00248e-09 5.07511e-08 1.01969e-08 8.66626e-07 0.000107272)
(3.89143e-08 1.56684e-10 2.14627e-08 1.07038e-08 8.4781e-07 9.26881e-05)
(3.36958e-08 1.22812e-09 8.9009e-08 1.04877e-08 8.58299e-07 9.42405e-05)
(3.27291e-08 1.41745e-09 7.64413e-08 1.14501e-08 9.16933e-07 9.76499e-05)
(3.53281e-08 8.60762e-10 -4.33705e-09 1.17871e-08 9.29989e-07 9.79303e-05)
(3.75569e-08 8.47373e-10 -2.75967e-08 1.11902e-08 8.86947e-07 9.51438e-05)
(3.35759e-08 1.39217e-09 2.6954e-09 1.04439e-08 8.44155e-07 9.29145e-05)
(3.30146e-08 2.04935e-09 4.27028e-08 1.00942e-08 8.30649e-07 9.23596e-05)
(3.68704e-08 3.21132e-09 8.35484e-08 1.04178e-08 8.57854e-07 9.41186e-05)
(4.0207e-08 3.91073e-09 9.89162e-08 1.1102e-08 8.94278e-07 9.62904e-05)
(4.30459e-08 3.79201e-09 7.21828e-08 1.17778e-08 9.09686e-07 9.64839e-05)
(4.66804e-08 3.20035e-09 4.80962e-08 1.18443e-08 8.88212e-07 9.42767e-05)
(5.87988e-08 2.07182e-09 4.49489e-08 1.17296e-08 8.7793e-07 9.34581e-05)
(4.20441e-08 2.43559e-10 2.38087e-08 1.21782e-08 8.45292e-07 7.93614e-05)
(3.6599e-08 1.40773e-09 9.00873e-08 1.19374e-08 8.55745e-07 8.07986e-05)
(3.55228e-08 1.61409e-09 7.766e-08 1.30361e-08 9.16249e-07 8.40084e-05)
(3.79321e-08 1.0087e-09 -4.06317e-10 1.3416e-08 9.29366e-07 8.42377e-05)
(4.00865e-08 9.38529e-10 -2.32334e-08 1.27391e-08 8.85185e-07 8.16108e-05)
(3.59862e-08 1.50996e-09 5.75018e-09 1.19013e-08 8.42303e-07 7.95928e-05)
(3.5309e-08 2.1843e-09 4.14538e-08 1.15028e-08 8.28845e-07 7.91081e-05)
(3.95082e-08 3.43345e-09 7.94523e-08 1.18489e-08 8.56027e-07 8.07162e-05)
(4.31229e-08 4.23626e-09 9.65166e-08 1.26306e-08 8.9292e-07 8.26979e-05)
(4.62734e-08 4.07527e-09 7.13289e-08 1.34276e-08 9.09729e-07 8.29163e-05)
(5.04025e-08 3.40016e-09 4.61429e-08 1.35232e-08 8.8931e-07 8.09402e-05)
(6.34065e-08 2.11585e-09 3.85108e-08 1.3405e-08 8.80238e-07 8.02681e-05)
(4.5272e-08 3.50121e-10 2.61375e-08 1.37693e-08 8.33231e-07 6.68502e-05)
(3.9623e-08 1.59993e-09 9.06328e-08 1.35023e-08 8.43496e-07 6.81655e-05)
(3.84372e-08 1.82261e-09 7.83423e-08 1.47469e-08 9.05384e-07 7.11566e-05)
(4.06092e-08 1.16944e-09 3.49932e-09 1.51726e-08 9.18411e-07 7.13334e-05)
(4.26594e-08 1.03086e-09 -1.8987e-08 1.44108e-08 8.73454e-07 6.88812e-05)
(3.84534e-08 1.6265e-09 8.48656e-09 1.34758e-08 8.30923e-07 6.70839e-05)
(3.76361e-08 2.31268e-09 3.97888e-08 1.3024e-08 8.17669e-07 6.66707e-05)
(4.21763e-08 3.64679e-09 7.46626e-08 1.33888e-08 8.44524e-07 6.8119e-05)
(4.60793e-08 4.5606e-09 9.32586e-08 1.42769e-08 8.81567e-07 6.99018e-05)
(4.95733e-08 4.34996e-09 6.95488e-08 1.52116e-08 8.99756e-07 7.01427e-05)
(5.42435e-08 3.58547e-09 4.33812e-08 1.53432e-08 8.80679e-07 6.84026e-05)
(6.81364e-08 2.12937e-09 3.14781e-08 1.52266e-08 8.73138e-07 6.78797e-05)
(4.85716e-08 4.78912e-10 2.83889e-08 1.54769e-08 8.11444e-07 5.53031e-05)
(4.27474e-08 1.80338e-09 9.05935e-08 1.51814e-08 8.21366e-07 5.64919e-05)
(4.14567e-08 2.04126e-09 7.84245e-08 1.65808e-08 8.84102e-07 5.92484e-05)
(4.33436e-08 1.34236e-09 7.26236e-09 1.70552e-08 8.96877e-07 5.93719e-05)
(4.52575e-08 1.12282e-09 -1.49783e-08 1.62041e-08 8.51537e-07 5.71069e-05)
(4.09606e-08 1.74016e-09 1.08213e-08 1.51664e-08 8.09809e-07 5.55361e-05)
(3.99776e-08 2.43277e-09 3.77201e-08 1.46565e-08 7.96922e-07 5.51943e-05)
(4.48484e-08 3.8481e-09 6.92297e-08 1.50351e-08 8.23139e-07 5.64766e-05)
(4.90478e-08 4.87946e-09 8.91162e-08 1.6039e-08 8.6e-07 5.80548e-05)
(5.29182e-08 4.6115e-09 6.67715e-08 1.71291e-08 8.79522e-07 5.83152e-05)
(5.81746e-08 3.7521e-09 3.97644e-08 1.73046e-08 8.62048e-07 5.68122e-05)
(7.29489e-08 2.10678e-09 2.38892e-08 1.71962e-08 8.56364e-07 5.64387e-05)
(5.19096e-08 6.32545e-10 3.0492e-08 1.72988e-08 7.79889e-07 4.48329e-05)
(4.59454e-08 2.01625e-09 8.99172e-08 1.69726e-08 7.89315e-07 4.5893e-05)
(4.45602e-08 2.26781e-09 7.78444e-08 1.85344e-08 8.52315e-07 4.84023e-05)
(4.61155e-08 1.52657e-09 1.07573e-08 1.90606e-08 8.64666e-07 4.84725e-05)
(4.78585e-08 1.21265e-09 -1.13259e-08 1.81163e-08 8.1936e-07 4.64043e-05)
(4.34864e-08 1.84914e-09 1.26815e-08 1.69703e-08 7.78898e-07 4.5062e-05)
(4.23121e-08 2.54286e-09 3.52648e-08 1.63974e-08 7.66544e-07 4.47904e-05)
(4.74941e-08 4.03403e-09 6.32075e-08 1.67835e-08 7.91811e-07 4.59029e-05)
(5.19948e-08 5.188e-09 8.40647e-08 1.79131e-08 8.28152e-07 4.72739e-05)
(5.62751e-08 4.85496e-09 6.29334e-08 1.91778e-08 8.48927e-07 4.75504e-05)
(6.21596e-08 3.89551e-09 3.52506e-08 1.94058e-08 8.3329e-07 4.62823e-05)
(7.77952e-08 2.04208e-09 1.57681e-08 1.93144e-08 8.29783e-07 4.60556e-05)
(5.52463e-08 8.13739e-10 3.2361e-08 1.92317e-08 7.38664e-07 3.55169e-05)
(4.9184e-08 2.23617e-09 8.85516e-08 1.88717e-08 7.47445e-07 3.64486e-05)
(4.77219e-08 2.49958e-09 7.65446e-08 2.06018e-08 8.10086e-07 3.87017e-05)
(4.89005e-08 1.72092e-09 1.38561e-08 2.11831e-08 8.21828e-07 3.87192e-05)
(5.04362e-08 1.29832e-09 -8.14314e-09 2.01428e-08 7.76994e-07 3.68544e-05)
(4.60058e-08 1.95137e-09 1.40074e-08 1.88829e-08 7.38267e-07 3.57388e-05)
(4.46154e-08 2.64123e-09 3.24493e-08 1.82417e-08 7.26618e-07 3.5535e-05)
(5.00794e-08 4.20112e-09 5.66575e-08 1.8628e-08 7.50624e-07 3.64767e-05)
(5.48822e-08 5.48083e-09 7.80861e-08 1.98932e-08 7.86098e-07 3.76412e-05)
(5.96048e-08 5.075e-09 5.79851e-08 2.13533e-08 8.0801e-07 3.79299e-05)
(6.61545e-08 4.01074e-09 2.981e-08 2.16431e-08 7.94415e-07 3.68909e-05)
(8.26181e-08 1.92863e-09 7.14342e-09 2.15799e-08 7.93397e-07 3.68057e-05)
(5.85352e-08 1.02537e-09 3.38852e-08 2.12694e-08 6.88018e-07 2.74017e-05)
(5.2423e-08 2.46059e-09 8.64329e-08 2.08721e-08 6.96019e-07 2.82073e-05)
(5.09093e-08 2.7337e-09 7.44712e-08 2.27744e-08 7.57638e-07 3.0199e-05)
(5.16696e-08 1.92372e-09 1.64447e-08 2.34142e-08 7.68578e-07 3.01652e-05)
(5.29601e-08 1.37736e-09 -5.52652e-09 2.22761e-08 7.24668e-07 2.85073e-05)
(4.84893e-08 2.04467e-09 1.47538e-08 2.08967e-08 6.88142e-07 2.76129e-05)
(4.68601e-08 2.7262e-09 2.93189e-08 2.01818e-08 6.77375e-07 2.74734e-05)
(5.25666e-08 4.3456e-09 4.96688e-08 2.05593e-08 6.99816e-07 2.8246e-05)
(5.76672e-08 5.75153e-09 7.12e-08 2.19707e-08 7.34072e-07 2.92078e-05)
(6.28616e-08 5.26524e-09 5.19274e-08 2.3648e-08 7.56967e-07 2.95047e-05)
(7.01069e-08 4.09168e-09 2.34661e-08 2.40104e-08 7.45582e-07 2.86857e-05)
(8.73508e-08 1.75869e-09 -1.90112e-09 2.39894e-08 7.47348e-07 2.87338e-05)
(6.17219e-08 1.26968e-09 3.49381e-08 2.34016e-08 6.28401e-07 2.05068e-05)
(5.56144e-08 2.6858e-09 8.34932e-08 2.2963e-08 6.35499e-07 2.11907e-05)
(5.4083e-08 2.96635e-09 7.15867e-08 2.50387e-08 6.95397e-07 2.29191e-05)
(5.43879e-08 2.13296e-09 1.84327e-08 2.57403e-08 7.05333e-07 2.28366e-05)
(5.53948e-08 1.44721e-09 -3.54757e-09 2.45035e-08 6.62814e-07 2.13864e-05)
(5.09025e-08 2.12672e-09 1.48933e-08 2.29995e-08 6.28949e-07 2.07035e-05)
(4.90154e-08 2.79638e-09 2.59362e-08 2.22054e-08 6.19242e-07 2.06238e-05)
(5.49137e-08 4.46388e-09 4.23626e-08 2.25634e-08 6.39828e-07 2.1232e-05)
(6.03013e-08 5.99323e-09 6.34777e-08 2.41317e-08 6.72513e-07 2.19985e-05)
(6.59926e-08 5.41927e-09 4.48265e-08 2.60494e-08 6.96193e-07 2.2299e-05)