0 	373
5.01672e-05 	370.855
0.000100334 	368.71
0.000150502 	366.565
0.000200669 	364.421
0.000250836 	362.276
0.000301003 	360.131
0.000351171 	358.374
0.000401338 	358.086
0.000451505 	357.798
0.000501672 	357.51
0.000551839 	357.222
0.000602007 	356.934
0.000652174 	356.646
0.000702341 	356.358
0.000752508 	356.125
0.000802676 	356.029
0.000852843 	355.932
0.00090301 	355.835
0.000953177 	355.738
0.00100334 	355.642
0.00105351 	355.545
0.00110368 	355.448
0.00115385 	355.352
0.00120401 	355.257
0.00125418 	355.207
0.00130435 	355.157
0.00135452 	355.107
0.00140468 	355.057
0.00145485 	355.007
0.00150502 	354.957
0.00155518 	354.907
0.00160535 	354.858
0.00165552 	354.808
0.00170569 	354.758
0.00175585 	354.712
0.00180602 	354.679
0.00185619 	354.646
0.00190635 	354.614
0.00195652 	354.581
0.00200669 	354.548
0.00205686 	354.515
0.00210702 	354.482
0.00215719 	354.449
0.00220736 	354.416
0.00225753 	354.383
0.00230769 	354.35
0.00235786 	354.317
0.00240803 	354.29
0.00245819 	354.266
0.00250836 	354.241
0.00255853 	354.216
0.0026087 	354.192
0.00265886 	354.167
0.00270903 	354.142
0.0027592 	354.118
0.00280936 	354.093
0.00285953 	354.068
0.0029097 	354.044
0.00295987 	354.019
0.00301003 	353.994
0.0030602 	353.97
0.00311037 	353.945
0.00316054 	353.925
0.0032107 	353.906
0.00326087 	353.886
0.00331104 	353.866
0.0033612 	353.846
0.00341137 	353.826
0.00346154 	353.806
0.00351171 	353.786
0.00356187 	353.766
0.00361204 	353.746
0.00366221 	353.726
0.00371237 	353.706
0.00376254 	353.687
0.00381271 	353.667
0.00386288 	353.647
0.00391304 	353.627
0.00396321 	353.607
0.00401338 	353.59
0.00406355 	353.573
0.00411371 	353.556
0.00416388 	353.539
0.00421405 	353.522
0.00426421 	353.504
0.00431438 	353.487
0.00436455 	353.47
0.00441472 	353.453
0.00446488 	353.436
0.00451505 	353.419
0.00456522 	353.402
0.00461538 	353.385
0.00466555 	353.368
0.00471572 	353.351
0.00476589 	353.334
0.00481605 	353.317
0.00486622 	353.3
0.00491639 	353.283
0.00496656 	353.266
0.00501672 	353.251
0.00506689 	353.235
0.00511706 	353.22
0.00516722 	353.204
0.00521739 	353.189
0.00526756 	353.174
0.00531773 	353.158
0.00536789 	353.143
0.00541806 	353.127
0.00546823 	353.112
0.00551839 	353.097
0.00556856 	353.081
0.00561873 	353.066
0.0056689 	353.05
0.00571906 	353.035
0.00576923 	353.02
0.0058194 	353.004
0.00586957 	352.989
0.00591973 	352.973
0.0059699 	352.958
0.00602007 	352.943
0.00607023 	352.927
0.0061204 	352.912
0.00617057 	352.897
0.00622074 	352.883
0.0062709 	352.868
0.00632107 	352.854
0.00637124 	352.839
0.0064214 	352.825
0.00647157 	352.81
0.00652174 	352.796
0.00657191 	352.782
0.00662207 	352.767
0.00667224 	352.753
0.00672241 	352.738
0.00677258 	352.724
0.00682274 	352.709
0.00687291 	352.695
0.00692308 	352.681
0.00697324 	352.666
0.00702341 	352.652
0.00707358 	352.637
0.00712375 	352.623
0.00717391 	352.608
0.00722408 	352.594
0.00727425 	352.58
0.00732441 	352.565
0.00737458 	352.551
0.00742475 	352.536
0.00747492 	352.522
0.00752508 	352.507
0.00757525 	352.491
0.00762542 	352.475
0.00767559 	352.46
0.00772575 	352.444
0.00777592 	352.428
0.00782609 	352.413
0.00787625 	352.397
0.00792642 	352.381
0.00797659 	352.366
0.00802676 	352.35
0.00807692 	352.334
0.00812709 	352.319
0.00817726 	352.303
0.00822742 	352.287
0.00827759 	352.272
0.00832776 	352.256
0.00837793 	352.24
0.00842809 	352.225
0.00847826 	352.209
0.00852843 	352.193
0.0085786 	352.178
0.00862876 	352.162
0.00867893 	352.146
0.0087291 	352.131
0.00877926 	352.115
0.00882943 	352.099
0.0088796 	352.083
0.00892977 	352.064
0.00897993 	352.045
0.0090301 	352.026
0.00908027 	352.007
0.00913043 	351.988
0.0091806 	351.969
0.00923077 	351.95
0.00928094 	351.931
0.0093311 	351.912
0.00938127 	351.893
0.00943144 	351.874
0.00948161 	351.855
0.00953177 	351.836
0.00958194 	351.817
0.00963211 	351.798
0.00968227 	351.779
0.00973244 	351.76
0.00978261 	351.741
0.00983278 	351.722
0.00988294 	351.703
0.00993311 	351.684
0.00998328 	351.665
0.0100334 	351.646
0.0100836 	351.623
0.0101338 	351.601
0.0101839 	351.578
0.0102341 	351.556
0.0102843 	351.533
0.0103344 	351.511
0.0103846 	351.488
0.0104348 	351.466
0.0104849 	351.443
0.0105351 	351.421
0.0105853 	351.398
0.0106355 	351.376
0.0106856 	351.353
0.0107358 	351.331
0.010786 	351.308
0.0108361 	351.286
0.0108863 	351.263
0.0109365 	351.241
0.0109866 	351.218
0.0110368 	351.195
0.011087 	351.168
0.0111371 	351.141
0.0111873 	351.113
0.0112375 	351.086
0.0112876 	351.058
0.0113378 	351.031
0.011388 	351.003
0.0114381 	350.976
0.0114883 	350.948
0.0115385 	350.921
0.0115886 	350.894
0.0116388 	350.866
0.011689 	350.839
0.0117391 	350.811
0.0117893 	350.784
0.0118395 	350.756
0.0118896 	350.729
0.0119398 	350.693
0.01199 	350.657
0.0120401 	350.621
0.0120903 	350.585
0.0121405 	350.549
0.0121906 	350.514
0.0122408 	350.478
0.012291 	350.442
0.0123411 	350.406
0.0123913 	350.37
0.0124415 	350.334
0.0124916 	350.298
0.0125418 	350.262
0.012592 	350.226
0.0126421 	350.185
0.0126923 	350.132
0.0127425 	350.08
0.0127926 	350.027
0.0128428 	349.975
0.012893 	349.922
0.0129431 	349.869
0.0129933 	349.817
0.0130435 	349.764
0.0130936 	349.712
0.0131438 	349.659
0.013194 	349.606
0.0132441 	349.554
0.0132943 	349.473
0.0133445 	349.383
0.0133946 	349.292
0.0134448 	349.202
0.013495 	349.111
0.0135452 	349.02
0.0135953 	348.93
0.0136455 	348.839
0.0136957 	348.749
0.0137458 	348.658
0.013796 	348.568
0.0138462 	348.346
0.0138963 	348.119
0.0139465 	347.891
0.0139967 	347.664
0.0140468 	347.436
0.014097 	347.208
0.0141472 	346.981
0.0141973 	346.753
0.0142475 	346.526
0.0142977 	345.527
0.0143478 	344.218
0.014398 	342.908
0.0144482 	341.599
0.0144983 	340.289
0.0145485 	338.98
0.0145987 	337.671
0.0146488 	336.361
0.014699 	333.399
0.0147492 	329.999
0.0147993 	326.599
0.0148495 	323.199
0.0148997 	319.8
0.0149498 	316.4
0.015 	313
