/*--------------------------------*- C++ -*----------------------------------*\
| =========                 |                                                 |
| \\      /  F ield         | OpenFOAM: The Open Source CFD Toolbox           |
|  \\    /   O peration     | Version:  v1912                                 |
|   \\  /    A nd           | Website:  www.openfoam.com                      |
|    \\/     M anipulation  |                                                 |
\*---------------------------------------------------------------------------*/
FoamFile
{
    version     2.0;
    format      ascii;
    class       volScalarField;
    location    "7.6";
    object      heatTransferCoeff(T);
}
// * * * * * * * * * * * * * * * * * * * * * * * * * * * * * * * * * * * * * //

dimensions      [1 0 -3 -1 0 0 0];


internalField   uniform 0;

boundaryField
{
    leftWall
    {
        type            calculated;
        value           nonuniform List<scalar> 
216
(
-220.951
-225.587
-233.671
-239.082
-248.412
-254.934
-266.057
-274.64
-288.711
-300.866
-319.911
-339.538
-370.771
-408.863
-468.724
-558.836
-822.544
-2783.58
-221.886
-226.535
-234.933
-240.491
-250.094
-256.378
-267.104
-274.749
-288.235
-300.406
-320.777
-341.847
-373.1
-408.465
-464.496
-552.359
-819.481
-2784.93
-221.915
-226.181
-234.212
-239.398
-248.905
-255.281
-266.389
-274.314
-287.861
-299.702
-319.898
-341.222
-372.741
-406.8
-459.659
-545.099
-816.028
-2785.66
-219.49
-223.615
-231.399
-236.583
-246.184
-253.179
-265.257
-274.739
-289.921
-303.296
-324.323
-345.797
-376.851
-410.563
-463.729
-549.812
-818.821
-2785.22
-219.809
-224.132
-232.027
-237.408
-247.072
-254.314
-266.661
-276.811
-292.696
-306.693
-327.505
-348.133
-378.289
-412.003
-464.833
-549.267
-818.256
-2785.75
-222.367
-227.052
-235.272
-240.969
-250.8
-258.234
-270.557
-280.639
-295.942
-308.879
-327.826
-346.637
-375.728
-409.841
-463.436
-548.263
-818.027
-2785.79
-225.107
-230.229
-238.875
-245.035
-255.199
-262.892
-275.125
-284.911
-299.557
-311.947
-330.383
-348.92
-377.275
-410.337
-462.981
-547.605
-815.726
-2784.5
-223.29
-227.863
-235.966
-241.69
-251.541
-259.032
-271.184
-280.962
-295.843
-308.752
-328.042
-347.051
-375.009
-407.119
-460.49
-547.783
-817.929
-2782.59
-221.458
-226.397
-234.757
-240.567
-250.305
-257.412
-269.119
-278.397
-293.121
-306.109
-325.928
-345.396
-373.684
-405.64
-459.346
-547.202
-817.576
-2782.97
-222.522
-228.181
-237.164
-243.417
-253.35
-260.334
-271.698
-280.463
-294.743
-307.404
-327.219
-347.253
-376.967
-410.482
-463.339
-546.691
-811.527
-2780.84
-222.474
-227.685
-236.054
-242.029
-251.765
-259.101
-270.998
-280.73
-295.868
-309.33
-329.326
-349.131
-378.312
-411.768
-464.952
-548.821
-813.769
-2782.35
-219.325
-224.48
-232.959
-239.529
-250.011
-258.377
-271.099
-281.516
-296.846
-310.206
-329.734
-349.233
-378.951
-415.055
-472.414
-559.233
-823.715
-2784.57
)
;
    }
    rightWall
    {
        type            calculated;
        value           nonuniform List<scalar> 
216
(
-207.092
-211.18
-216.853
-221.766
-228.748
-234.79
-243.435
-251.042
-261.906
-271.94
-286.349
-300.985
-322.7
-348.197
-391.666
-462.358
-705.12
-2830.82
-206.861
-210.816
-216.331
-221.162
-228.076
-234.177
-242.896
-250.709
-261.715
-271.911
-286.245
-300.734
-322.076
-347.615
-391.876
-463.478
-702.521
-2826.76
-208.088
-212.009
-217.377
-222.1
-228.78
-234.703
-243.138
-250.768
-261.54
-271.71
-286.044
-300.705
-322.108
-347.736
-392.015
-463.968
-702.964
-2830.9
-208.748
-212.669
-217.975
-222.553
-228.998
-234.581
-242.603
-249.783
-260.164
-270.086
-284.415
-299.242
-320.849
-346.488
-390.643
-462.692
-703.526
-2828.25
-208.415
-212.29
-217.523
-222.042
-228.406
-233.868
-241.752
-248.747
-259.007
-268.855
-283.394
-298.716
-321.319
-348.144
-393.116
-464.359
-704.102
-2828.42
-206.986
-210.87
-216.125
-220.787
-227.345
-233.117
-241.372
-248.756
-259.369
-269.43
-284.068
-299.477
-322.437
-349.817
-395.098
-465.583
-705.63
-2838.48
-206.052
-209.949
-215.244
-219.946
-226.565
-232.408
-240.733
-248.156
-258.754
-268.679
-282.998
-297.849
-320.157
-346.967
-392.244
-463.306
-702.242
-2825.26
-206.734
-210.681
-215.997
-220.68
-227.233
-232.967
-241.131
-248.385
-258.761
-268.456
-282.417
-296.691
-317.96
-343.205
-387.12
-459.863
-702.17
-2819.93
-207.537
-211.671
-217.177
-222.031
-228.738
-234.626
-242.93
-250.393
-260.989
-271.029
-285.276
-299.881
-321.193
-346.194
-389.141
-459.977
-702.154
-2826.83
-206.975
-210.981
-216.348
-221.063
-227.578
-233.361
-241.502
-249.059
-259.802
-270.437
-285.432
-301.148
-323.2
-348.721
-391.475
-462.042
-703.038
-2826.82
-206.511
-210.205
-215.149
-219.621
-225.776
-231.461
-239.374
-246.962
-257.573
-268.291
-283.105
-298.849
-320.854
-346.996
-391.255
-464.421
-705.247
-2825.91
-206.991
-210.804
-215.778
-220.443
-226.685
-232.602
-240.611
-248.367
-258.892
-269.524
-283.972
-299.47
-321.247
-347.697
-392.719
-466.459
-707.88
-2827.56
)
;
    }
    leftSides_periodic0
    {
        type            cyclic;
    }
    leftSides_periodic1
    {
        type            cyclic;
    }
    rightSides_periodic0
    {
        type            cyclic;
    }
    rightSides_periodic1
    {
        type            cyclic;
    }
    leftInOut_periodic0
    {
        type            calculated;
        value           nonuniform 0();
    }
    leftInOut_periodic1
    {
        type            calculated;
        value           uniform 0;
    }
    rightInOut_periodic0
    {
        type            calculated;
        value           nonuniform 0();
    }
    rightInOut_periodic1
    {
        type            calculated;
        value           uniform 0;
    }
    procBoundary4to1
    {
        type            processor;
        value           uniform 0;
    }
    procBoundary4to3
    {
        type            processor;
        value           uniform 0;
    }
    procBoundary4to5
    {
        type            processor;
        value           uniform 0;
    }
}


// ************************************************************************* //
