/*--------------------------------*- C++ -*----------------------------------*\
| =========                 |                                                 |
| \\      /  F ield         | OpenFOAM: The Open Source CFD Toolbox           |
|  \\    /   O peration     | Version:  v1912                                 |
|   \\  /    A nd           | Website:  www.openfoam.com                      |
|    \\/     M anipulation  |                                                 |
\*---------------------------------------------------------------------------*/
FoamFile
{
    version     2.0;
    format      ascii;
    class       volScalarField;
    location    "7.6";
    object      k;
}
// * * * * * * * * * * * * * * * * * * * * * * * * * * * * * * * * * * * * * //

dimensions      [0 2 -2 0 0 0 0];


internalField   nonuniform List<scalar> 
34128
(
6.57545e-07
6.37947e-07
6.32341e-07
6.42555e-07
6.68435e-07
7.05596e-07
7.24374e-07
6.92853e-07
6.77148e-07
6.89878e-07
6.91199e-07
6.91519e-07
1.06548e-07
1.03151e-07
1.02147e-07
1.04146e-07
1.08709e-07
1.14761e-07
1.17644e-07
1.12451e-07
1.09965e-07
1.1204e-07
1.12203e-07
1.12298e-07
6.39001e-08
6.0461e-08
5.92586e-08
6.27224e-08
6.77739e-08
7.14686e-08
7.21124e-08
6.85525e-08
6.74767e-08
6.87654e-08
6.85937e-08
6.90241e-08
1.25765e-07
1.1677e-07
1.13454e-07
1.24083e-07
1.37777e-07
1.44953e-07
1.44368e-07
1.36812e-07
1.35442e-07
1.37972e-07
1.37221e-07
1.38752e-07
2.83818e-07
2.62761e-07
2.54967e-07
2.80966e-07
3.13446e-07
3.28993e-07
3.26648e-07
3.09891e-07
3.07327e-07
3.12782e-07
3.10955e-07
3.14835e-07
5.61549e-07
5.20524e-07
5.054e-07
5.57811e-07
6.21894e-07
6.50904e-07
6.45636e-07
6.14021e-07
6.09536e-07
6.19603e-07
6.16071e-07
6.23958e-07
9.80404e-07
9.11209e-07
8.85862e-07
9.77726e-07
1.08751e-06
1.13433e-06
1.12455e-06
1.07297e-06
1.06616e-06
1.08216e-06
1.0762e-06
1.08981e-06
1.54958e-06
1.44557e-06
1.4077e-06
1.55229e-06
1.72068e-06
1.78753e-06
1.77155e-06
1.69687e-06
1.688e-06
1.7104e-06
1.70109e-06
1.72161e-06
2.26124e-06
2.11941e-06
2.06798e-06
2.27637e-06
2.51224e-06
2.59811e-06
2.57471e-06
2.47701e-06
2.46726e-06
2.49539e-06
2.4813e-06
2.50871e-06
3.09041e-06
2.91305e-06
2.8487e-06
3.12737e-06
3.43312e-06
3.53356e-06
3.50279e-06
3.38576e-06
3.37725e-06
3.40927e-06
3.38815e-06
3.42092e-06
3.99879e-06
3.79418e-06
3.71949e-06
4.06863e-06
4.43889e-06
4.54666e-06
4.51051e-06
4.38108e-06
4.37661e-06
4.40964e-06
4.37825e-06
4.41357e-06
4.9407e-06
4.72251e-06
4.64206e-06
5.05503e-06
5.47674e-06
5.58309e-06
5.54571e-06
5.41306e-06
5.4155e-06
5.44587e-06
5.40011e-06
5.43459e-06
5.86866e-06
5.65435e-06
5.57454e-06
6.03852e-06
6.4954e-06
6.59105e-06
6.55797e-06
6.43219e-06
6.44297e-06
6.46594e-06
6.4031e-06
6.43392e-06
6.76002e-06
6.5659e-06
6.49463e-06
6.99977e-06
7.4737e-06
7.54967e-06
7.52706e-06
7.41849e-06
7.43839e-06
7.44852e-06
7.36583e-06
7.39061e-06
7.59906e-06
7.4412e-06
7.38737e-06
7.92265e-06
8.39418e-06
8.44222e-06
8.43625e-06
8.35492e-06
8.38401e-06
8.37529e-06
8.27016e-06
8.28703e-06
8.37338e-06
8.26646e-06
8.23958e-06
8.79346e-06
9.24293e-06
9.25579e-06
9.27192e-06
9.22712e-06
9.26487e-06
9.23096e-06
9.10106e-06
9.10867e-06
9.07352e-06
9.02999e-06
9.03955e-06
9.60049e-06
1.00089e-05
9.98055e-06
1.00231e-05
1.00229e-05
1.00684e-05
1.0003e-05
9.84638e-06
9.84384e-06
9.69258e-06
9.72206e-06
9.77687e-06
1.03336e-05
1.06836e-05
1.06093e-05
1.06812e-05
1.07322e-05
1.07842e-05
1.06816e-05
1.04965e-05
1.04834e-05
1.02259e-05
1.03349e-05
1.04425e-05
1.09841e-05
1.12606e-05
1.11371e-05
1.124e-05
1.13466e-05
1.1404e-05
1.12594e-05
1.10445e-05
1.10208e-05
1.06711e-05
1.08626e-05
1.10286e-05
1.15449e-05
1.17359e-05
1.15615e-05
1.16956e-05
1.18604e-05
1.19217e-05
1.17313e-05
1.14858e-05
1.14521e-05
1.10275e-05
1.13013e-05
1.15292e-05
1.20109e-05
1.21074e-05
1.18824e-05
1.20464e-05
1.22696e-05
1.23335e-05
1.2095e-05
1.18188e-05
1.17765e-05
1.12964e-05
1.16489e-05
1.19396e-05
1.23779e-05
1.23751e-05
1.21019e-05
1.22933e-05
1.25726e-05
1.26376e-05
1.23506e-05
1.20445e-05
1.19956e-05
1.14804e-05
1.19048e-05
1.22562e-05
1.26436e-05
1.25408e-05
1.22244e-05
1.24393e-05
1.27697e-05
1.28343e-05
1.25004e-05
1.21667e-05
1.21134e-05
1.15834e-05
1.20696e-05
1.2476e-05
1.28068e-05
1.26083e-05
1.22557e-05
1.24892e-05
1.28633e-05
1.29259e-05
1.2549e-05
1.21912e-05
1.21361e-05
1.16099e-05
1.21448e-05
1.25976e-05
1.28687e-05
1.25831e-05
1.22031e-05
1.24497e-05
1.28581e-05
1.29168e-05
1.25028e-05
1.21258e-05
1.20717e-05
1.15651e-05
1.21334e-05
1.26214e-05
1.28321e-05
1.24723e-05
1.20747e-05
1.23284e-05
1.27605e-05
1.28137e-05
1.237e-05
1.19798e-05
1.19293e-05
1.14545e-05
1.20398e-05
1.25503e-05
1.2703e-05
1.22847e-05
1.18794e-05
1.21343e-05
1.25793e-05
1.26254e-05
1.21604e-05
1.17636e-05
1.1719e-05
1.12841e-05
1.18706e-05
1.23902e-05
1.24898e-05
1.203e-05
1.16261e-05
1.18767e-05
1.23242e-05
1.2362e-05
1.18846e-05
1.14884e-05
1.14512e-05
1.10608e-05
1.16335e-05
1.21493e-05
1.22028e-05
1.17183e-05
1.13241e-05
1.1565e-05
1.20058e-05
1.20349e-05
1.15538e-05
1.11652e-05
1.11361e-05
1.07915e-05
1.13378e-05
1.18382e-05
1.18535e-05
1.13594e-05
1.09818e-05
1.12083e-05
1.16342e-05
1.16548e-05
1.11785e-05
1.08041e-05
1.07834e-05
1.04832e-05
1.09925e-05
1.1468e-05
1.14525e-05
1.09617e-05
1.06069e-05
1.08144e-05
1.12176e-05
1.12309e-05
1.07679e-05
1.04138e-05
1.04015e-05
1.01422e-05
1.06056e-05
1.10484e-05
1.10087e-05
1.05324e-05
1.02057e-05
1.03904e-05
1.07639e-05
1.07714e-05
1.033e-05
1.00018e-05
9.99744e-06
9.76311e-06
1.0178e-05
1.05856e-05
1.0533e-05
1.00796e-05
9.78186e-06
9.94428e-06
1.02856e-05
1.02875e-05
9.87143e-06
9.57329e-06
9.57599e-06
9.35797e-06
9.72524e-06
1.00996e-05
1.00463e-05
9.62009e-06
9.34904e-06
9.49233e-06
9.80277e-06
9.79892e-06
9.40769e-06
9.14165e-06
9.15071e-06
8.94381e-06
9.26758e-06
9.61422e-06
9.57242e-06
9.17377e-06
8.92448e-06
9.05364e-06
9.33755e-06
9.32726e-06
8.95702e-06
8.7235e-06
8.73816e-06
8.53941e-06
8.82646e-06
9.15424e-06
9.13533e-06
8.76079e-06
8.52657e-06
8.6478e-06
8.91171e-06
8.89412e-06
8.5382e-06
8.33608e-06
8.35583e-06
8.16376e-06
8.42279e-06
8.74315e-06
8.75725e-06
8.40039e-06
8.17347e-06
8.29362e-06
8.54541e-06
8.51946e-06
8.16935e-06
7.99627e-06
8.02103e-06
7.83528e-06
8.07614e-06
8.40267e-06
8.45828e-06
8.11035e-06
7.88246e-06
8.00837e-06
8.25679e-06
8.22117e-06
7.86747e-06
7.72003e-06
7.7501e-06
7.57141e-06
7.80473e-06
8.15299e-06
8.25595e-06
7.90611e-06
7.66872e-06
7.80654e-06
8.06112e-06
8.01458e-06
7.64704e-06
7.52072e-06
7.55689e-06
7.38789e-06
7.62488e-06
8.01111e-06
8.1592e-06
7.79488e-06
7.54219e-06
7.6967e-06
7.96426e-06
7.90614e-06
7.51904e-06
7.40697e-06
7.44881e-06
7.29002e-06
7.54128e-06
7.97062e-06
8.13232e-06
7.7732e-06
7.49597e-06
7.67547e-06
7.92827e-06
7.88205e-06
7.47465e-06
7.37312e-06
7.42221e-06
7.27264e-06
7.54881e-06
7.97695e-06
8.11899e-06
7.79082e-06
7.52627e-06
7.69176e-06
7.90462e-06
7.88149e-06
7.50852e-06
7.41904e-06
7.46505e-06
7.33011e-06
7.59594e-06
7.98969e-06
8.11729e-06
7.8169e-06
7.57587e-06
7.71582e-06
7.89155e-06
7.88813e-06
7.56346e-06
7.48814e-06
7.52297e-06
7.40359e-06
7.64366e-06
8.01062e-06
8.12783e-06
7.85251e-06
7.62991e-06
7.74828e-06
7.88972e-06
7.90322e-06
7.62371e-06
7.56114e-06
7.58556e-06
7.47467e-06
7.69331e-06
8.04006e-06
8.14822e-06
7.89681e-06
7.68924e-06
7.78819e-06
7.89746e-06
7.92547e-06
7.68927e-06
7.63879e-06
7.6533e-06
7.54515e-06
7.74573e-06
8.0759e-06
8.17503e-06
7.94722e-06
7.75265e-06
7.83311e-06
7.91211e-06
7.95231e-06
7.75824e-06
7.71993e-06
7.72454e-06
7.615e-06
7.79993e-06
8.11514e-06
8.20497e-06
8.00064e-06
7.81782e-06
7.88015e-06
7.93098e-06
7.98104e-06
7.8279e-06
7.80231e-06
7.7966e-06
7.68315e-06
7.85417e-06
8.15504e-06
8.23559e-06
8.05425e-06
7.88225e-06
7.92664e-06
7.95179e-06
8.00945e-06
7.89553e-06
7.8834e-06
7.86672e-06
7.74826e-06
7.90675e-06
8.19365e-06
8.26534e-06
8.10592e-06
7.94379e-06
7.9705e-06
7.97281e-06
8.03599e-06
7.95903e-06
7.96098e-06
7.93256e-06
7.80918e-06
7.95633e-06
8.22993e-06
8.29338e-06
8.15427e-06
8.00083e-06
8.01042e-06
7.99287e-06
8.05979e-06
8.01703e-06
8.03339e-06
7.99242e-06
7.86508e-06
8.00211e-06
8.26363e-06
8.31928e-06
8.19855e-06
8.05238e-06
8.04577e-06
8.01126e-06
8.0805e-06
8.06886e-06
8.09957e-06
8.04533e-06
7.91555e-06
8.04387e-06
8.29458e-06
8.34232e-06
8.23831e-06
8.09799e-06
8.07632e-06
8.02769e-06
8.09813e-06
8.11432e-06
8.1589e-06
8.09088e-06
7.96061e-06
8.08179e-06
8.32236e-06
8.36149e-06
8.2729e-06
8.13736e-06
8.10168e-06
8.04189e-06
8.11289e-06
8.15348e-06
8.21089e-06
8.1288e-06
8.00062e-06
8.11603e-06
8.3468e-06
8.37616e-06
8.30164e-06
8.16995e-06
8.12123e-06
8.05346e-06
8.12488e-06
8.18648e-06
8.25475e-06
8.1588e-06
8.03597e-06
8.14667e-06
8.36781e-06
8.38581e-06
8.32449e-06
8.19526e-06
8.13446e-06
8.06205e-06
8.13408e-06
8.21327e-06
8.2904e-06
8.18096e-06
8.06692e-06
8.17361e-06
8.38422e-06
8.39015e-06
8.34161e-06
8.2135e-06
8.14133e-06
8.06749e-06
8.14049e-06
8.23387e-06
8.31828e-06
8.19555e-06
8.09362e-06
8.19704e-06
8.39544e-06
8.38957e-06
8.35277e-06
8.22527e-06
8.14244e-06
8.06986e-06
8.14427e-06
8.24877e-06
8.33744e-06
8.20269e-06
8.11611e-06
8.21762e-06
8.40136e-06
8.38477e-06
8.35831e-06
8.23064e-06
8.1385e-06
8.06948e-06
8.14578e-06
8.25872e-06
8.34765e-06
8.203e-06
8.13462e-06
8.23544e-06
8.40218e-06
8.37638e-06
8.35888e-06
8.2301e-06
8.13047e-06
8.0668e-06
8.14569e-06
8.26438e-06
8.34931e-06
8.19731e-06
8.14967e-06
8.25038e-06
8.39819e-06
8.36478e-06
8.35506e-06
8.22445e-06
8.11933e-06
8.0624e-06
8.14464e-06
8.26632e-06
8.34327e-06
8.1865e-06
8.16146e-06
8.26232e-06
8.38967e-06
8.35013e-06
8.3473e-06
8.21453e-06
8.10598e-06
8.05686e-06
8.14315e-06
8.26524e-06
8.33052e-06
8.17143e-06
8.17011e-06
8.27107e-06
8.3768e-06
8.3324e-06
8.33583e-06
8.20111e-06
8.0912e-06
8.05069e-06
8.14165e-06
8.26181e-06
8.31217e-06
8.15286e-06
8.17572e-06
8.27643e-06
8.3597e-06
8.31156e-06
8.3208e-06
8.18487e-06
8.07562e-06
8.0443e-06
8.1404e-06
8.25658e-06
8.28932e-06
8.13149e-06
8.17835e-06
8.27815e-06
8.33849e-06
8.28767e-06
8.30235e-06
8.16639e-06
8.05976e-06
8.03799e-06
8.13956e-06
8.24996e-06
8.26306e-06
8.10795e-06
8.17801e-06
8.27593e-06
8.31342e-06
8.26101e-06
8.28075e-06
8.14622e-06
8.04404e-06
8.03197e-06
8.13917e-06
8.2422e-06
8.23447e-06
8.08286e-06
8.17464e-06
8.26946e-06
8.28488e-06
8.23217e-06
8.25648e-06
8.12492e-06
8.02878e-06
8.02639e-06
8.13917e-06
8.23346e-06
8.20456e-06
8.05687e-06
8.16808e-06
8.25845e-06
8.25355e-06
8.20201e-06
8.23034e-06
8.10306e-06
8.01417e-06
8.02132e-06
8.13946e-06
8.22378e-06
8.17429e-06
8.03063e-06
8.15817e-06
8.24277e-06
8.22032e-06
8.17163e-06
8.20334e-06
8.08127e-06
8.00034e-06
8.01678e-06
8.13988e-06
8.21316e-06
8.14457e-06
8.00483e-06
8.14478e-06
8.22242e-06
8.18627e-06
8.14218e-06
8.17667e-06
8.06016e-06
7.98723e-06
8.01279e-06
8.14022e-06
8.2016e-06
8.11621e-06
7.9801e-06
8.12789e-06
8.19769e-06
8.1524e-06
8.11475e-06
8.15147e-06
8.04026e-06
7.97497e-06
8.00932e-06
8.1403e-06
8.18917e-06
8.08994e-06
7.957e-06
8.10764e-06
8.16911e-06
8.11973e-06
8.09021e-06
8.12876e-06
8.0219e-06
7.96376e-06
8.00636e-06
8.13992e-06
8.17603e-06
8.06637e-06
7.93575e-06
8.0844e-06
8.13745e-06
8.08877e-06
8.06875e-06
8.10925e-06
8.00508e-06
7.95382e-06
8.00393e-06
8.139e-06
8.16252e-06
8.04597e-06
7.91691e-06
8.05882e-06
8.10381e-06
8.06011e-06
8.05091e-06
8.09333e-06
7.99007e-06
7.94534e-06
8.00207e-06
8.1375e-06
8.14912e-06
8.02876e-06
7.9012e-06
8.03165e-06
8.06945e-06
8.03462e-06
8.03738e-06
8.08114e-06
7.97741e-06
7.93855e-06
8.00087e-06
8.13554e-06
8.13644e-06
8.01527e-06
7.88921e-06
8.00363e-06
8.03532e-06
8.01317e-06
8.02855e-06
8.07258e-06
7.96756e-06
7.93366e-06
8.00047e-06
8.13342e-06
8.12506e-06
8.00619e-06
7.88139e-06
7.97572e-06
8.00244e-06
7.9965e-06
8.02449e-06
8.06733e-06
7.9608e-06
7.93086e-06
8.00107e-06
8.13157e-06
8.11558e-06
8.00216e-06
7.87803e-06
7.94899e-06
7.97196e-06
7.98519e-06
8.02486e-06
8.0648e-06
7.95721e-06
7.93034e-06
8.00293e-06
8.1306e-06
8.109e-06
8.00365e-06
7.87923e-06
7.92458e-06
7.94498e-06
7.97956e-06
8.02902e-06
8.06419e-06
7.95667e-06
7.93223e-06
8.00633e-06
8.13118e-06
8.10642e-06
8.01092e-06
7.88486e-06
7.90365e-06
7.9226e-06
7.97969e-06
8.03604e-06
8.06446e-06
7.95889e-06
7.9366e-06
8.01159e-06
8.13405e-06
8.1088e-06
8.02393e-06
7.8946e-06
6.96491e-07
6.74043e-07
6.67297e-07
6.84729e-07
7.16795e-07
7.53099e-07
7.71234e-07
7.38758e-07
7.21801e-07
7.35269e-07
7.3966e-07
7.4166e-07
1.10087e-07
1.06527e-07
1.05455e-07
1.08392e-07
1.13524e-07
1.19119e-07
1.21979e-07
1.16882e-07
1.14225e-07
1.16448e-07
1.17265e-07
1.17534e-07
4.84234e-08
4.67977e-08
4.63179e-08
4.89255e-08
5.16001e-08
5.29492e-08
5.40589e-08
5.21922e-08
5.12243e-08
5.27415e-08
5.39534e-08
5.38523e-08
6.38866e-08
6.17197e-08
6.1143e-08
6.77386e-08
7.21748e-08
7.10982e-08
7.21823e-08
7.07567e-08
6.99924e-08
7.32212e-08
7.69589e-08
7.62808e-08
1.27102e-07
1.23176e-07
1.22322e-07
1.37902e-07
1.47041e-07
1.42187e-07
1.44049e-07
1.42408e-07
1.41362e-07
1.4856e-07
1.57723e-07
1.55858e-07
2.42537e-07
2.36213e-07
2.35328e-07
2.66307e-07
2.8292e-07
2.71119e-07
2.74548e-07
2.72939e-07
2.71374e-07
2.85113e-07
3.03554e-07
2.99438e-07
4.17092e-07
4.08742e-07
4.08759e-07
4.62501e-07
4.88595e-07
4.64832e-07
4.70745e-07
4.7049e-07
4.6842e-07
4.91312e-07
5.23509e-07
5.15476e-07
6.53265e-07
6.44893e-07
6.47707e-07
7.31476e-07
7.67315e-07
7.2476e-07
7.34248e-07
7.37996e-07
7.35808e-07
7.70077e-07
8.20491e-07
8.06144e-07
9.46764e-07
9.42456e-07
9.51078e-07
1.0707e-06
1.11391e-06
1.04438e-06
1.05876e-06
1.07046e-06
1.06899e-06
1.11609e-06
1.18835e-06
1.16461e-06
1.28653e-06
1.29251e-06
1.31105e-06
1.46971e-06
1.51484e-06
1.40964e-06
1.43053e-06
1.45506e-06
1.45553e-06
1.51587e-06
1.61208e-06
1.57545e-06
1.65649e-06
1.68064e-06
1.71408e-06
1.91162e-06
1.95038e-06
1.80147e-06
1.83072e-06
1.87321e-06
1.87701e-06
1.94991e-06
2.0702e-06
2.01725e-06
2.03805e-06
2.08889e-06
2.14279e-06
2.37566e-06
2.39776e-06
2.19881e-06
2.23829e-06
2.30335e-06
2.31178e-06
2.39552e-06
2.53806e-06
2.46594e-06
2.41239e-06
2.49778e-06
2.57778e-06
2.84135e-06
2.83639e-06
2.5824e-06
2.63381e-06
2.72576e-06
2.7396e-06
2.83087e-06
2.99272e-06
2.89919e-06
2.77178e-06
2.89866e-06
3.01091e-06
3.30014e-06
3.2579e-06
2.94521e-06
3.00974e-06
3.13209e-06
3.15189e-06
3.24695e-06
3.42445e-06
3.30782e-06
3.11099e-06
3.28458e-06
3.43482e-06
3.74434e-06
3.65554e-06
3.28203e-06
3.36007e-06
3.51523e-06
3.54142e-06
3.63628e-06
3.82531e-06
3.68452e-06
3.42621e-06
3.6495e-06
3.84258e-06
4.16697e-06
4.02395e-06
3.58918e-06
3.68012e-06
3.86924e-06
3.90215e-06
3.99285e-06
4.18899e-06
4.02366e-06
3.7148e-06
3.9883e-06
4.22765e-06
4.56156e-06
4.35882e-06
3.8642e-06
3.96636e-06
4.18911e-06
4.22904e-06
4.31196e-06
4.51066e-06
4.32119e-06
3.97506e-06
4.29668e-06
4.5839e-06
4.92212e-06
4.65671e-06
4.10565e-06
4.21634e-06
4.47082e-06
4.51803e-06
4.59011e-06
4.78695e-06
4.57451e-06
4.20609e-06
4.57125e-06
4.90577e-06
5.24325e-06
4.91508e-06
4.3131e-06
4.42876e-06
4.71143e-06
4.76608e-06
4.82513e-06
5.01601e-06
4.78259e-06
4.40777e-06
4.80951e-06
5.18846e-06
5.52034e-06
5.13241e-06
4.48715e-06
4.60354e-06
4.9092e-06
4.97132e-06
5.01627e-06
5.19755e-06
4.94587e-06
4.58067e-06
5.00993e-06
5.42803e-06
5.74979e-06
5.30832e-06
4.62942e-06
4.74191e-06
5.06393e-06
5.13336e-06
5.16433e-06
5.33291e-06
5.06638e-06
4.72601e-06
5.1719e-06
5.62163e-06
5.92959e-06
5.44375e-06
4.74244e-06
4.8463e-06
5.177e-06
5.25333e-06
5.27157e-06
5.42502e-06
5.14752e-06
4.84553e-06
5.2959e-06
5.76801e-06
6.05947e-06
5.54093e-06
4.82946e-06
4.92032e-06
5.25132e-06
5.33392e-06
5.34158e-06
5.47828e-06
5.19396e-06
4.94138e-06
5.38364e-06
5.86777e-06
6.14104e-06
5.60326e-06
4.89435e-06
4.96845e-06
5.29131e-06
5.37927e-06
5.37909e-06
5.4983e-06
5.21137e-06
5.01618e-06
5.43819e-06
5.92346e-06
6.17801e-06
5.63522e-06
4.94147e-06
4.99596e-06
5.30275e-06
5.39495e-06
5.38986e-06
5.49156e-06
5.20624e-06
5.07304e-06
5.464e-06
5.93986e-06
6.17627e-06
5.64242e-06
4.97553e-06
5.0087e-06
5.29267e-06
5.38778e-06
5.38047e-06
5.46525e-06
5.18551e-06
5.11572e-06
5.46697e-06
5.92407e-06
6.14383e-06
5.6314e-06
5.00145e-06
5.013e-06
5.269e-06
5.36562e-06
5.35815e-06
5.42694e-06
5.15639e-06
5.14864e-06
5.45435e-06
5.88522e-06
6.09037e-06
5.60948e-06
5.02437e-06
5.01536e-06
5.24022e-06
5.33698e-06
5.33044e-06
5.38437e-06
5.12606e-06
5.17692e-06
5.43445e-06
5.83398e-06
6.02661e-06
5.58435e-06
5.04944e-06
5.02222e-06
5.21486e-06
5.31048e-06
5.30488e-06
5.34503e-06
5.10144e-06
5.20629e-06
5.41623e-06
5.78168e-06
5.96349e-06
5.56365e-06
5.08163e-06
5.03957e-06
5.20091e-06
5.29437e-06
5.28861e-06
5.31588e-06
5.08887e-06
5.24296e-06
5.40875e-06
5.73951e-06
5.91139e-06
5.55455e-06
5.1256e-06
5.07263e-06
5.20539e-06
5.29598e-06
5.28808e-06
5.30305e-06
5.09387e-06
5.29348e-06
5.42078e-06
5.71788e-06
5.87961e-06
5.5634e-06
5.18556e-06
5.12573e-06
5.23368e-06
5.3211e-06
5.30875e-06
5.31167e-06
5.121e-06
5.34119e-06
5.43844e-06
5.70629e-06
5.85945e-06
5.57835e-06
5.24697e-06
5.18622e-06
5.27521e-06
5.35816e-06
5.33663e-06
5.32802e-06
5.1564e-06
5.38267e-06
5.46021e-06
5.70572e-06
5.85242e-06
5.59835e-06
5.30652e-06
5.25157e-06
5.32867e-06
5.40544e-06
5.36852e-06
5.34894e-06
5.19663e-06
5.4216e-06
5.49057e-06
5.72215e-06
5.86436e-06
5.62756e-06
5.36682e-06
5.32432e-06
5.39684e-06
5.46574e-06
5.40671e-06
5.37665e-06
5.24372e-06
5.46512e-06
5.53632e-06
5.76268e-06
5.90185e-06
5.67211e-06
5.4333e-06
5.40912e-06
5.48375e-06
5.54335e-06
5.45594e-06
5.41586e-06
5.30219e-06
5.52149e-06
5.60436e-06
5.83323e-06
5.97017e-06
5.73807e-06
5.51239e-06
5.511e-06
5.59292e-06
5.64223e-06
5.52154e-06
5.47194e-06
5.37735e-06
5.59835e-06
5.69986e-06
5.93706e-06
6.07207e-06
5.83024e-06
5.61019e-06
5.63421e-06
5.72662e-06
5.76515e-06
5.61016e-06
5.55069e-06
5.47412e-06
5.70137e-06
5.82659e-06
6.0755e-06
6.21118e-06
5.9568e-06
5.73575e-06
5.78656e-06
5.89015e-06
5.91878e-06
5.73109e-06
5.66175e-06
5.60132e-06
5.83946e-06
5.99049e-06
6.25197e-06
6.39203e-06
6.12431e-06
5.89825e-06
5.9747e-06
6.08856e-06
6.10799e-06
5.89205e-06
5.81379e-06
5.76772e-06
6.02014e-06
6.19617e-06
6.4697e-06
6.58961e-06
6.33542e-06
6.106e-06
6.2041e-06
6.30402e-06
6.32695e-06
6.10033e-06
6.01448e-06
5.98082e-06
6.24966e-06
6.42551e-06
6.67922e-06
6.77971e-06
6.54378e-06
6.33444e-06
6.42975e-06
6.51081e-06
6.53623e-06
6.32851e-06
6.24322e-06
6.21868e-06
6.47554e-06
6.64153e-06
6.8784e-06
6.96428e-06
6.74668e-06
6.55462e-06
6.64789e-06
6.71109e-06
6.73631e-06
6.54829e-06
6.46674e-06
6.44978e-06
6.68936e-06
6.84692e-06
7.06909e-06
7.14267e-06
6.94424e-06
6.76799e-06
6.8588e-06
6.90463e-06
6.92766e-06
6.76065e-06
6.68538e-06
6.67392e-06
6.89293e-06
7.04223e-06
7.25063e-06
7.31273e-06
7.13438e-06
6.97346e-06
7.06056e-06
7.08953e-06
7.10886e-06
6.96426e-06
6.89767e-06
6.88924e-06
7.08543e-06
7.22604e-06
7.42109e-06
7.47195e-06
7.3141e-06
7.16832e-06
7.25022e-06
7.26339e-06
7.27772e-06
7.15637e-06
7.10064e-06
7.09267e-06
7.26475e-06
7.39625e-06
7.57831e-06
7.61829e-06
7.48056e-06
7.34949e-06
7.42485e-06
7.42416e-06
7.43227e-06
7.33399e-06
7.29091e-06
7.28101e-06
7.42871e-06
7.55098e-06
7.72064e-06
7.75053e-06
7.63168e-06
7.51432e-06
7.58217e-06
7.57038e-06
7.5712e-06
7.49466e-06
7.46553e-06
7.45165e-06
7.57572e-06
7.68895e-06
7.84704e-06
7.86817e-06
7.76632e-06
7.66107e-06
7.72071e-06
7.70105e-06
7.69406e-06
7.63688e-06
7.62247e-06
7.60289e-06
7.70499e-06
7.80942e-06
7.95717e-06
7.97114e-06
7.8842e-06
7.78892e-06
7.83971e-06
7.81523e-06
7.80098e-06
7.76025e-06
7.76069e-06
7.73389e-06
7.81638e-06
7.91204e-06
8.05393e-06
8.06275e-06
7.98599e-06
7.89778e-06
7.94092e-06
7.91333e-06
7.89242e-06
7.86526e-06
7.88e-06
7.84452e-06
7.91009e-06
7.99885e-06
8.14083e-06
8.14611e-06
8.07558e-06
7.98993e-06
8.02764e-06
7.99783e-06
7.96952e-06
7.95309e-06
7.981e-06
7.93769e-06
7.98775e-06
8.07274e-06
8.21748e-06
8.21966e-06
8.15607e-06
8.06896e-06
8.10086e-06
8.07006e-06
8.03464e-06
8.02535e-06
8.06718e-06
8.01693e-06
8.05202e-06
8.13456e-06
8.28204e-06
8.28191e-06
8.22612e-06
8.13625e-06
8.15961e-06
8.12895e-06
8.08932e-06
8.08479e-06
8.14131e-06
8.08253e-06
8.10455e-06
8.18479e-06
8.33346e-06
8.33257e-06
8.28467e-06
8.19123e-06
8.2035e-06
8.17405e-06
8.13349e-06
8.13356e-06
8.20217e-06
8.13411e-06
8.14611e-06
8.22411e-06
8.37174e-06
8.37221e-06
8.33166e-06
8.23366e-06
8.23311e-06
8.20581e-06
8.16771e-06
8.17183e-06
8.24898e-06
8.17213e-06
8.1776e-06
8.25336e-06
8.39759e-06
8.40173e-06
8.3679e-06
8.26412e-06
8.2498e-06
8.22539e-06
8.19299e-06
8.2001e-06
8.28211e-06
8.19778e-06
8.19999e-06
8.27339e-06
8.41202e-06
8.42199e-06
8.39456e-06
8.28393e-06
8.25551e-06
8.23446e-06
8.21063e-06
8.21943e-06
8.30274e-06
8.2127e-06
8.21428e-06
8.28503e-06
8.41605e-06
8.43362e-06
8.41274e-06
8.29468e-06
8.25236e-06
8.2349e-06
8.22201e-06
8.2313e-06
8.31243e-06
8.2186e-06
8.2214e-06
8.28913e-06
8.41059e-06
8.43696e-06
8.42324e-06
8.29786e-06
8.24239e-06
8.2286e-06
8.2285e-06
8.23729e-06
8.31285e-06
8.21707e-06
8.22224e-06
8.28645e-06
8.39636e-06
8.43216e-06
8.42657e-06
8.29473e-06
8.22744e-06
8.21733e-06
8.23136e-06
8.23885e-06
8.3056e-06
8.20946e-06
8.21757e-06
8.27761e-06
8.37402e-06
8.41929e-06
8.42297e-06
8.28629e-06
8.20903e-06
8.20264e-06
8.23163e-06
8.23719e-06
8.29213e-06
8.19687e-06
8.20807e-06
8.26316e-06
8.34428e-06
8.39851e-06
8.41258e-06
8.27333e-06
8.18842e-06
8.18584e-06
8.23014e-06
8.23324e-06
8.27373e-06
8.18017e-06
8.19432e-06
8.24352e-06
8.30794e-06
8.37023e-06
8.39561e-06
8.25656e-06
8.16661e-06
8.168e-06
8.22748e-06
8.22768e-06
8.25152e-06
8.16008e-06
8.17679e-06
8.21909e-06
8.26613e-06
8.33525e-06
8.37247e-06
8.23662e-06
8.14441e-06
8.14992e-06
8.22406e-06
8.22096e-06
8.22648e-06
8.13726e-06
8.1559e-06
8.19033e-06
8.22029e-06
8.29486e-06
8.34395e-06
8.2142e-06
8.12244e-06
8.13223e-06
8.22008e-06
8.21332e-06
8.19949e-06
8.11235e-06
8.13204e-06
8.15778e-06
8.17224e-06
8.2508e-06
8.31122e-06
8.19006e-06
8.10117e-06
8.11535e-06
8.21562e-06
8.20489e-06
8.17138e-06
8.08598e-06
8.10565e-06
8.12213e-06
8.12406e-06
8.20515e-06
8.27584e-06
8.16502e-06
8.08098e-06
8.09954e-06
8.21069e-06
8.19566e-06
8.14293e-06
8.05885e-06
8.07727e-06
8.08443e-06
8.07779e-06
8.16007e-06
8.23957e-06
8.13995e-06
8.06182e-06
8.08495e-06
8.20519e-06
8.18561e-06
8.1149e-06
8.0317e-06
8.04762e-06
8.04589e-06
8.03363e-06
8.11746e-06
8.20422e-06
8.11568e-06
8.0438e-06
8.07164e-06
8.19904e-06
8.17468e-06
8.08801e-06
8.00533e-06
8.01712e-06
8.00708e-06
7.99167e-06
8.07883e-06
8.17133e-06
8.09296e-06
8.0273e-06
8.05969e-06
8.19217e-06
8.16289e-06
8.06298e-06
7.98057e-06
7.9863e-06
7.96874e-06
7.95291e-06
8.04479e-06
8.1421e-06
8.07187e-06
8.01273e-06
8.0492e-06
8.18455e-06
8.15037e-06
8.04046e-06
7.95814e-06
7.95596e-06
7.93198e-06
7.91855e-06
8.01537e-06
8.11723e-06
8.05287e-06
8.00048e-06
8.04029e-06
8.17629e-06
8.13744e-06
8.02079e-06
7.93866e-06
7.9269e-06
7.8978e-06
7.88968e-06
7.99126e-06
8.09706e-06
8.03664e-06
7.99082e-06
8.03312e-06
8.16764e-06
8.12466e-06
8.00459e-06
7.92278e-06
7.89993e-06
7.86713e-06
7.86718e-06
7.97336e-06
8.08156e-06
8.02379e-06
7.98399e-06
8.02791e-06
8.15902e-06
8.11256e-06
7.99275e-06
7.91115e-06
7.87588e-06
7.84082e-06
7.8517e-06
7.96217e-06
8.07054e-06
8.01474e-06
7.98008e-06
8.02491e-06
8.15107e-06
8.10212e-06
7.98618e-06
7.9045e-06
7.85554e-06
7.81966e-06
7.84364e-06
7.9577e-06
8.06363e-06
8.0096e-06
7.97909e-06
8.02432e-06
8.14456e-06
8.0946e-06
7.98562e-06
7.9033e-06
7.83966e-06
7.80437e-06
7.84319e-06
7.95951e-06
8.06011e-06
8.00827e-06
7.98094e-06
8.02632e-06
8.14042e-06
8.09137e-06
7.99156e-06
7.90761e-06
7.829e-06
7.79561e-06
7.85027e-06
7.96674e-06
8.05909e-06
8.01037e-06
7.98542e-06
8.03106e-06
8.13962e-06
8.09376e-06
8.00413e-06
7.91709e-06
7.44328e-07
7.22716e-07
7.15407e-07
7.39649e-07
7.75928e-07
8.0847e-07
8.26481e-07
7.96203e-07
7.79924e-07
7.9346e-07
7.9956e-07
8.00971e-07
1.19692e-07
1.16368e-07
1.15263e-07
1.19381e-07
1.25249e-07
1.30283e-07
1.33156e-07
1.28405e-07
1.25847e-07
1.27945e-07
1.28861e-07
1.29017e-07
6.56494e-08
6.48311e-08
6.47366e-08
6.84913e-08
7.18315e-08
7.3116e-08
7.44404e-08
7.27983e-08
7.18143e-08
7.23264e-08
7.24755e-08
7.22031e-08
1.18761e-07
1.19213e-07
1.2009e-07
1.29633e-07
1.3572e-07
1.35138e-07
1.37018e-07
1.36035e-07
1.35058e-07
1.34653e-07
1.34281e-07
1.33168e-07
2.6218e-07
2.64602e-07
2.67471e-07
2.90065e-07
3.02981e-07
2.9951e-07
3.0327e-07
3.02822e-07
3.01235e-07
2.99149e-07
2.97889e-07
2.95067e-07
5.15088e-07
5.21411e-07
5.28276e-07
5.7319e-07
5.96973e-07
5.87848e-07
5.94866e-07
5.96168e-07
5.93638e-07
5.88007e-07
5.85035e-07
5.79141e-07
8.95695e-07
9.09378e-07
9.234e-07
1.00103e-06
1.03881e-06
1.01939e-06
1.03112e-06
1.03703e-06
1.03363e-06
1.02133e-06
1.01516e-06
1.00422e-06
1.41135e-06
1.43772e-06
1.46324e-06
1.58332e-06
1.63603e-06
1.59989e-06
1.61784e-06
1.63304e-06
1.62947e-06
1.60613e-06
1.59429e-06
1.57573e-06
2.05457e-06
2.10085e-06
2.14313e-06
2.31266e-06
2.37804e-06
2.31762e-06
2.34342e-06
2.37406e-06
2.37167e-06
2.33205e-06
2.31088e-06
2.28175e-06
2.80337e-06
2.87804e-06
2.94278e-06
3.16437e-06
3.23675e-06
3.14478e-06
3.18028e-06
3.23289e-06
3.23346e-06
3.1721e-06
3.13682e-06
3.09443e-06
3.62488e-06
3.73635e-06
3.82913e-06
4.1004e-06
4.17144e-06
4.0425e-06
4.0897e-06
4.16992e-06
4.17513e-06
4.08707e-06
4.03229e-06
3.97485e-06
4.48024e-06
4.63516e-06
4.76072e-06
5.07476e-06
5.13509e-06
4.96691e-06
5.02758e-06
5.13889e-06
5.1499e-06
5.03131e-06
4.9517e-06
4.87895e-06
5.32907e-06
5.53048e-06
5.69301e-06
6.04313e-06
6.08335e-06
5.87393e-06
5.94995e-06
6.09629e-06
6.11315e-06
5.95917e-06
5.85067e-06
5.76292e-06
6.15279e-06
6.40366e-06
6.60725e-06
6.98612e-06
6.99796e-06
6.74694e-06
6.83961e-06
7.02347e-06
7.04569e-06
6.852e-06
6.7112e-06
6.6097e-06
6.93816e-06
7.23874e-06
7.48618e-06
7.88632e-06
7.8633e-06
7.57199e-06
7.6816e-06
7.90394e-06
7.93069e-06
7.69375e-06
7.51813e-06
7.40496e-06
7.67415e-06
8.02201e-06
8.31434e-06
8.7283e-06
8.66605e-06
8.33728e-06
8.46299e-06
8.72328e-06
8.75355e-06
8.47088e-06
8.25895e-06
8.13696e-06
8.35151e-06
8.74189e-06
9.07813e-06
9.49851e-06
9.39485e-06
9.03284e-06
9.17276e-06
9.46905e-06
9.50178e-06
9.1722e-06
8.9236e-06
8.7962e-06
8.96254e-06
9.3889e-06
9.76595e-06
1.01853e-05
1.00402e-05
9.65046e-06
9.80186e-06
1.01308e-05
1.01648e-05
9.78878e-06
9.50437e-06
9.3754e-06
9.50103e-06
9.95565e-06
1.03681e-05
1.07792e-05
1.05949e-05
1.01839e-05
1.03434e-05
1.07002e-05
1.07343e-05
1.03141e-05
9.99592e-06
9.86942e-06
9.96239e-06
1.04365e-05
1.08769e-05
1.12727e-05
1.10537e-05
1.0629e-05
1.07929e-05
1.11714e-05
1.12043e-05
1.0744e-05
1.03953e-05
1.02754e-05
1.03438e-05
1.08277e-05
1.12873e-05
1.16614e-05
1.14141e-05
1.09839e-05
1.11483e-05
1.15411e-05
1.15714e-05
1.10766e-05
1.07022e-05
1.05927e-05
1.06439e-05
1.11275e-05
1.15968e-05
1.19434e-05
1.16755e-05
1.12489e-05
1.14096e-05
1.18088e-05
1.18351e-05
1.13126e-05
1.0918e-05
1.08229e-05
1.08625e-05
1.13361e-05
1.18052e-05
1.21198e-05
1.18395e-05
1.14257e-05
1.15789e-05
1.19765e-05
1.19974e-05
1.14546e-05
1.10462e-05
1.0969e-05
1.10008e-05
1.14553e-05
1.19151e-05
1.21943e-05
1.19099e-05
1.15175e-05
1.16598e-05
1.20484e-05
1.20628e-05
1.15077e-05
1.10919e-05
1.10355e-05
1.10611e-05
1.14893e-05
1.19313e-05
1.21734e-05
1.18925e-05
1.15285e-05
1.16581e-05
1.20314e-05
1.20379e-05
1.14785e-05
1.10617e-05
1.10279e-05
1.10471e-05
1.1444e-05
1.18615e-05
1.20664e-05
1.1795e-05
1.14644e-05
1.15807e-05
1.19336e-05
1.19316e-05
1.13751e-05
1.09638e-05
1.09528e-05
1.09642e-05
1.13272e-05
1.17156e-05
1.18844e-05
1.16268e-05
1.13322e-05
1.14358e-05
1.1765e-05
1.17538e-05
1.12069e-05
1.08068e-05
1.08177e-05
1.08193e-05
1.11482e-05
1.15051e-05
1.16395e-05
1.13978e-05
1.11399e-05
1.12324e-05
1.15356e-05
1.15152e-05
1.09837e-05
1.05999e-05
1.06307e-05
1.06201e-05
1.09169e-05
1.12416e-05
1.13438e-05
1.11181e-05
1.08959e-05
1.09791e-05
1.12553e-05
1.12262e-05
1.07152e-05
1.03521e-05
1.04e-05
1.03753e-05
1.0643e-05
1.0936e-05
1.10077e-05
1.07971e-05
1.06085e-05
1.06844e-05
1.09328e-05
1.0896e-05
1.04103e-05
1.00714e-05
1.01333e-05
1.0093e-05
1.03345e-05
1.05966e-05
1.06393e-05
1.04423e-05
1.0285e-05
1.03552e-05
1.05756e-05
1.05323e-05
1.00763e-05
9.76483e-06
9.83728e-06
9.7801e-06
9.9977e-06
1.02301e-05
1.02457e-05
1.00602e-05
9.93172e-06
9.99764e-06
1.0191e-05
1.01427e-05
9.7194e-06
9.43791e-06
9.51773e-06
9.44052e-06
9.64001e-06
9.84726e-06
9.84047e-06
9.66285e-06
9.55734e-06
9.62246e-06
9.79257e-06
9.73987e-06
9.34868e-06
9.09751e-06
9.18074e-06
9.09057e-06
9.27845e-06
9.46618e-06
9.44319e-06
9.26872e-06
9.17929e-06
9.24785e-06
9.39961e-06
9.34275e-06
8.98061e-06
8.75883e-06
8.84171e-06
8.75053e-06
8.9333e-06
9.10729e-06
9.07464e-06
8.89839e-06
8.8178e-06
8.89414e-06
9.03267e-06
8.97152e-06
8.63396e-06
8.43973e-06
8.51906e-06
8.44168e-06
8.62537e-06
8.79092e-06
8.75456e-06
8.57201e-06
8.49321e-06
8.58144e-06
8.71164e-06
8.64574e-06
8.32736e-06
8.15833e-06
8.23168e-06
8.18485e-06
8.37485e-06
8.53622e-06
8.50067e-06
8.30823e-06
8.2247e-06
8.32839e-06
8.45473e-06
8.38324e-06
8.07816e-06
7.93168e-06
7.99756e-06
7.99832e-06
8.19935e-06
8.35924e-06
8.3265e-06
8.12177e-06
8.02806e-06
8.14956e-06
8.2757e-06
8.1976e-06
7.89961e-06
7.77225e-06
7.8302e-06
7.89512e-06
8.10655e-06
8.26579e-06
8.23588e-06
8.0214e-06
7.91556e-06
8.05477e-06
8.18333e-06
8.09702e-06
7.80158e-06
7.68812e-06
7.73932e-06
7.87898e-06
8.10041e-06
8.2351e-06
8.18805e-06
7.98951e-06
7.88807e-06
8.02847e-06
8.13786e-06
8.05965e-06
7.78718e-06
7.68698e-06
7.73165e-06
7.9185e-06
8.11689e-06
8.21615e-06
8.15271e-06
7.97501e-06
7.89432e-06
8.01897e-06
8.10814e-06
8.0374e-06
7.80783e-06
7.72456e-06
7.76452e-06
7.96808e-06
8.14167e-06
8.20828e-06
8.13201e-06
7.97514e-06
7.91158e-06
8.02297e-06
8.09598e-06
8.02803e-06
7.83656e-06
7.77102e-06
7.80704e-06
8.02475e-06
8.17497e-06
8.2123e-06
8.12567e-06
7.98911e-06
7.93957e-06
8.03979e-06
8.10061e-06
8.03143e-06
7.87245e-06
7.82512e-06
7.85857e-06
8.0853e-06
8.21415e-06
8.22626e-06
8.13146e-06
8.01398e-06
7.97572e-06
8.06664e-06
8.11909e-06
8.04529e-06
7.91303e-06
7.88417e-06
7.91657e-06
8.14524e-06
8.25536e-06
8.2471e-06
8.14644e-06
8.04609e-06
8.01652e-06
8.09996e-06
8.1476e-06
8.06636e-06
7.95516e-06
7.94472e-06
7.9774e-06
8.20038e-06
8.29493e-06
8.27184e-06
8.16776e-06
8.08204e-06
8.05858e-06
8.13645e-06
8.18235e-06
8.09147e-06
7.99594e-06
8.00351e-06
8.03739e-06
8.24777e-06
8.33024e-06