/*--------------------------------*- C++ -*----------------------------------*\
| =========                 |                                                 |
| \\      /  F ield         | OpenFOAM: The Open Source CFD Toolbox           |
|  \\    /   O peration     | Version:  v1912                                 |
|   \\  /    A nd           | Website:  www.openfoam.com                      |
|    \\/     M anipulation  |                                                 |
\*---------------------------------------------------------------------------*/
FoamFile
{
    version     2.0;
    format      ascii;
    class       volScalarField;
    location    "7.6";
    object      pPrime2Mean;
}
// * * * * * * * * * * * * * * * * * * * * * * * * * * * * * * * * * * * * * //

dimensions      [2 -2 -4 0 0 0 0];


internalField   nonuniform List<scalar> 
34128
(
4351.66
4351.79
4351.95
4352.11
4352.26
4352.41
4352.57
4352.77
4353.03
4353.31
4353.6
4353.84
4346.99
4347.13
4347.29
4347.45
4347.59
4347.73
4347.89
4348.09
4348.34
4348.62
4348.91
4349.13
4339.78
4339.91
4340.07
4340.22
4340.35
4340.5
4340.65
4340.84
4341.09
4341.35
4341.63
4341.85
4335.1
4335.23
4335.38
4335.53
4335.67
4335.8
4335.95
4336.14
4336.38
4336.64
4336.91
4337.13
4333.88
4334
4334.16
4334.31
4334.44
4334.58
4334.72
4334.91
4335.15
4335.41
4335.68
4335.89
4333.93
4334.05
4334.21
4334.36
4334.49
4334.63
4334.77
4334.96
4335.2
4335.46
4335.73
4335.94
4333.97
4334.1
4334.25
4334.4
4334.53
4334.67
4334.82
4335.01
4335.24
4335.5
4335.77
4335.98
4334.01
4334.14
4334.29
4334.44
4334.57
4334.71
4334.86
4335.05
4335.28
4335.54
4335.81
4336.02
4334.04
4334.17
4334.32
4334.47
4334.6
4334.74
4334.89
4335.08
4335.31
4335.57
4335.83
4336.05
4334.06
4334.19
4334.34
4334.49
4334.62
4334.76
4334.91
4335.1
4335.33
4335.59
4335.85
4336.06
4334.07
4334.2
4334.35
4334.5
4334.64
4334.77
4334.92
4335.11
4335.34
4335.6
4335.86
4336.07
4334.07
4334.2
4334.36
4334.51
4334.64
4334.78
4334.92
4335.11
4335.35
4335.6
4335.86
4336.07
4334.07
4334.2
4334.35
4334.5
4334.64
4334.77
4334.92
4335.11
4335.34
4335.6
4335.86
4336.07
4334.06
4334.19
4334.34
4334.49
4334.63
4334.77
4334.91
4335.1
4335.33
4335.58
4335.84
4336.05
4334.04
4334.17
4334.33
4334.48
4334.61
4334.75
4334.9
4335.08
4335.31
4335.56
4335.82
4336.03
4334.02
4334.15
4334.3
4334.45
4334.59
4334.72
4334.87
4335.06
4335.29
4335.54
4335.8
4336
4333.99
4334.12
4334.27
4334.42
4334.56
4334.69
4334.84
4335.03
4335.25
4335.5
4335.76
4335.97
4333.95
4334.08
4334.23
4334.39
4334.52
4334.66
4334.8
4334.99
4335.22
4335.46
4335.72
4335.93
4333.9
4334.04
4334.19
4334.34
4334.48
4334.61
4334.76
4334.94
4335.17
4335.42
4335.67
4335.88
4333.85
4333.98
4334.14
4334.29
4334.42
4334.56
4334.71
4334.89
4335.12
4335.36
4335.61
4335.82
4333.79
4333.93
4334.08
4334.23
4334.37
4334.5
4334.65
4334.83
4335.06
4335.3
4335.55
4335.76
4333.73
4333.86
4334.02
4334.17
4334.3
4334.44
4334.58
4334.77
4334.99
4335.23
4335.48
4335.68
4333.66
4333.79
4333.95
4334.1
4334.23
4334.37
4334.51
4334.7
4334.92
4335.16
4335.4
4335.61
4333.58
4333.71
4333.87
4334.02
4334.16
4334.29
4334.44
4334.62
4334.84
4335.08
4335.32
4335.52
4333.49
4333.63
4333.79
4333.94
4334.07
4334.21
4334.35
4334.53
4334.75
4334.99
4335.23
4335.43
4333.4
4333.54
4333.7
4333.85
4333.99
4334.12
4334.27
4334.44
4334.66
4334.9
4335.14
4335.34
4333.31
4333.45
4333.6
4333.76
4333.89
4334.03
4334.17
4334.35
4334.56
4334.8
4335.03
4335.23
4333.21
4333.35
4333.5
4333.66
4333.79
4333.93
4334.07
4334.25
4334.46
4334.69
4334.93
4335.12
4333.1
4333.24
4333.4
4333.55
4333.69
4333.82
4333.96
4334.14
4334.35
4334.58
4334.81
4335.01
4332.99
4333.13
4333.29
4333.44
4333.58
4333.71
4333.85
4334.03
4334.24
4334.46
4334.69
4334.89
4332.87
4333.01
4333.17
4333.32
4333.46
4333.6
4333.74
4333.91
4334.12
4334.34
4334.57
4334.76
4332.75
4332.89
4333.05
4333.2
4333.34
4333.48
4333.62
4333.79
4333.99
4334.22
4334.44
4334.63
4332.62
4332.76
4332.92
4333.08
4333.22
4333.35
4333.49
4333.66
4333.86
4334.08
4334.31
4334.5
4332.49
4332.63
4332.79
4332.95
4333.09
4333.22
4333.36
4333.53
4333.73
4333.95
4334.17
4334.36
4332.35
4332.5
4332.66
4332.81
4332.95
4333.09
4333.23
4333.39
4333.59
4333.81
4334.02
4334.21
4332.21
4332.36
4332.52
4332.68
4332.81
4332.95
4333.09
4333.25
4333.45
4333.66
4333.88
4334.06
4332.07
4332.22
4332.38
4332.53
4332.67
4332.81
4332.94
4333.11
4333.3
4333.51
4333.72
4333.91
4331.92
4332.07
4332.23
4332.39
4332.53
4332.66
4332.8
4332.96
4333.15
4333.36
4333.57
4333.75
4331.77
4331.92
4332.08
4332.24
4332.38
4332.51
4332.65
4332.81
4333
4333.2
4333.41
4333.59
4331.62
4331.77
4331.93
4332.09
4332.23
4332.36
4332.5
4332.65
4332.84
4333.05
4333.25
4333.42
4331.46
4331.61
4331.78
4331.93
4332.07
4332.2
4332.34
4332.5
4332.68
4332.88
4333.08
4333.26
4331.3
4331.45
4331.62
4331.78
4331.92
4332.05
4332.18
4332.34
4332.52
4332.72
4332.91
4333.09
4331.14
4331.29
4331.46
4331.62
4331.76
4331.89
4332.02
4332.18
4332.36
4332.55
4332.74
4332.91
4330.97
4331.13
4331.3
4331.46
4331.6
4331.73
4331.86
4332.01
4332.19
4332.38
4332.57
4332.74
4330.81
4330.97
4331.13
4331.29
4331.43
4331.56
4331.69
4331.84
4332.02
4332.21
4332.4
4332.56
4330.64
4330.8
4330.97
4331.13
4331.27
4331.4
4331.53
4331.68
4331.85
4332.04
4332.22
4332.38
4330.47
4330.63
4330.8
4330.96
4331.1
4331.23
4331.36
4331.51
4331.68
4331.86
4332.04
4332.2
4330.31
4330.47
4330.64
4330.8
4330.94
4331.07
4331.19
4331.34
4331.51
4331.69
4331.86
4332.02
4330.14
4330.3
4330.47
4330.63
4330.77
4330.9
4331.03
4331.17
4331.34
4331.51
4331.69
4331.84
4329.97
4330.13
4330.31
4330.47
4330.61
4330.73
4330.86
4331
4331.16
4331.34
4331.51
4331.66
4329.8
4329.97
4330.14
4330.3
4330.44
4330.57
4330.69
4330.83
4330.99
4331.16
4331.33
4331.48
4329.63
4329.8
4329.97
4330.14
4330.28
4330.4
4330.53
4330.66
4330.82
4330.99
4331.15
4331.3
4329.47
4329.64
4329.81
4329.97
4330.11
4330.24
4330.36
4330.49
4330.65
4330.81
4330.98
4331.12
4329.3
4329.47
4329.65
4329.81
4329.95
4330.07
4330.2
4330.33
4330.48
4330.64
4330.8
4330.95
4329.14
4329.31
4329.49
4329.65
4329.79
4329.91
4330.03
4330.16
4330.31
4330.47
4330.63
4330.77
4328.98
4329.15
4329.33
4329.49
4329.63
4329.76
4329.87
4330
4330.15
4330.3
4330.46
4330.6
4328.83
4329
4329.18
4329.34
4329.48
4329.6
4329.72
4329.84
4329.99
4330.14
4330.29
4330.43
4328.67
4328.85
4329.02
4329.19
4329.33
4329.45
4329.56
4329.69
4329.83
4329.98
4330.13
4330.26
4328.52
4328.7
4328.88
4329.04
4329.18
4329.3
4329.41
4329.54
4329.67
4329.82
4329.97
4330.1
4328.38
4328.55
4328.73
4328.9
4329.03
4329.15
4329.27
4329.39
4329.52
4329.67
4329.81
4329.94
4328.24
4328.42
4328.6
4328.76
4328.9
4329.01
4329.13
4329.24
4329.38
4329.52
4329.66
4329.79
4328.11
4328.28
4328.46
4328.63
4328.76
4328.88
4328.99
4329.11
4329.24
4329.37
4329.51
4329.64
4327.98
4328.16
4328.34
4328.5
4328.64
4328.75
4328.86
4328.98
4329.1
4329.24
4329.37
4329.5
4327.86
4328.04
4328.22
4328.38
4328.52
4328.63
4328.74
4328.85
4328.98
4329.11
4329.24
4329.37
4327.75
4327.93
4328.11
4328.27
4328.41
4328.52
4328.63
4328.74
4328.86
4328.99
4329.12
4329.25
4327.65
4327.83
4328.01
4328.17
4328.3
4328.42
4328.52
4328.63
4328.75
4328.88
4329.01
4329.13
4327.56
4327.74
4327.92
4328.08
4328.22
4328.33
4328.43
4328.54
4328.66
4328.78
4328.91
4329.03
4327.49
4327.67
4327.85
4328.01
4328.14
4328.25
4328.36
4328.46
4328.58
4328.7
4328.82
4328.95
4327.43
4327.61
4327.79
4327.95
4328.08
4328.19
4328.3
4328.4
4328.51
4328.63
4328.76
4328.88
4327.4
4327.57
4327.75
4327.91
4328.04
4328.15
4328.25
4328.35
4328.47
4328.59
4328.71
4328.83
4327.38
4327.56
4327.74
4327.9
4328.03
4328.14
4328.24
4328.34
4328.45
4328.56
4328.69
4328.81
4327.4
4327.58
4327.75
4327.91
4328.04
4328.15
4328.25
4328.34
4328.45
4328.57
4328.69
4328.81
4327.45
4327.62
4327.8
4327.95
4328.08
4328.19
4328.29
4328.38
4328.49
4328.61
4328.73
4328.85
4327.52
4327.7
4327.87
4328.02
4328.15
4328.26
4328.36
4328.45
4328.56
4328.67
4328.8
4328.91
4327.63
4327.8
4327.98
4328.13
4328.26
4328.36
4328.46
4328.55
4328.66
4328.77
4328.9
4329.02
4327.77
4327.93
4328.11
4328.26
4328.39
4328.49
4328.59
4328.68
4328.79
4328.9
4329.03
4329.15
4327.92
4328.08
4328.25
4328.4
4328.53
4328.64
4328.73
4328.83
4328.94
4329.05
4329.18
4329.3
4328.07
4328.24
4328.4
4328.55
4328.68
4328.79
4328.88
4328.98
4329.09
4329.2
4329.33
4329.46
4328.21
4328.37
4328.54
4328.69
4328.82
4328.92
4329.02
4329.12
4329.23
4329.35
4329.48
4329.6
4826.83
4827.01
4827.25
4827.48
4827.69
4827.91
4828.14
4828.43
4828.77
4829.15
4829.54
4829.87
4821.82
4822.01
4822.24
4822.46
4822.67
4822.89
4823.11
4823.39
4823.73
4824.1
4824.48
4824.81
4814.08
4814.27
4814.49
4814.71
4814.91
4815.12
4815.34
4815.61
4815.93
4816.29
4816.66
4816.97
4809.07
4809.25
4809.47
4809.68
4809.88
4810.08
4810.3
4810.56
4810.88
4811.23
4811.59
4811.89
4807.76
4807.94
4808.15
4808.37
4808.56
4808.77
4808.98
4809.24
4809.55
4809.9
4810.26
4810.56
4807.81
4807.99
4808.2
4808.42
4808.62
4808.82
4809.03
4809.29
4809.61
4809.95
4810.31
4810.61
4807.86
4808.04
4808.25
4808.47
4808.67
4808.87
4809.08
4809.34
4809.66
4810
4810.36
4810.66
4807.9
4808.08
4808.29
4808.51
4808.71
4808.91
4809.12
4809.38
4809.7
4810.04
4810.4
4810.7
4807.93
4808.11
4808.33
4808.54
4808.74
4808.94
4809.15
4809.41
4809.73
4810.07
4810.43
4810.73
4807.95
4808.13
4808.35
4808.56
4808.76
4808.96
4809.17
4809.44
4809.75
4810.09
4810.45
4810.75
4807.97
4808.15
4808.36
4808.58
4808.77
4808.98
4809.19
4809.45
4809.76
4810.1
4810.46
4810.76
4807.97
4808.15
4808.37
4808.58
4808.78
4808.98
4809.19
4809.45
4809.76
4810.11
4810.46
4810.76
4807.97
4808.15
4808.36
4808.58
4808.78
4808.98
4809.19
4809.45
4809.76
4810.1
4810.45
4810.75
4807.96
4808.14
4808.35
4808.57
4808.77
4808.97
4809.18
4809.44
4809.75
4810.09
4810.44
4810.74
4807.94
4808.12
4808.34
4808.55
4808.75
4808.95
4809.16
4809.42
4809.73
4810.07
4810.42
4810.71
4807.92
4808.1
4808.31
4808.53
4808.72
4808.93
4809.14
4809.39
4809.7
4810.04
4810.39
4810.68
4807.88
4808.06
4808.28
4808.49
4808.69
4808.89
4809.1
4809.36
4809.67
4810
4810.35
4810.64
4807.84
4808.02
4808.24
4808.45
4808.65
4808.85
4809.06
4809.32
4809.62
4809.96
4810.3
4810.6
4807.79
4807.98
4808.19
4808.41
4808.6
4808.81
4809.02
4809.27
4809.57
4809.91
4810.25
4810.54
4807.74
4807.92
4808.14
4808.35
4808.55
4808.75
4808.96
4809.22
4809.52
4809.85
4810.19
4810.48
4807.68
4807.86
4808.08
4808.29
4808.49
4808.69
4808.9
4809.15
4809.45
4809.78
4810.12
4810.41
4807.61
4807.79
4808.01
4808.22
4808.42
4808.62
4808.83
4809.08
4809.38
4809.71
4810.05
4810.34
4807.53
4807.72
4807.93
4808.15
4808.35
4808.55
4808.76
4809.01
4809.31
4809.63
4809.97
4810.26
4807.45
4807.64
4807.85
4808.07
4808.27
4808.47
4808.68
4808.93
4809.22
4809.55
4809.88
4810.17
4807.37
4807.55
4807.77
4807.98
4808.18
4808.38
4808.59
4808.84
4809.13
4809.45
4809.78
4810.07
4807.27
4807.46
4807.67
4807.89
4808.09
4808.29
4808.49
4808.74
4809.03
4809.35
4809.68
4809.97
4807.17
4807.36
4807.57
4807.79
4807.99
4808.19
4808.39
4808.64
4808.93
4809.25
4809.57
4809.86
4807.06
4807.25
4807.47
4807.68
4807.88
4808.08
4808.29
4808.53
4808.82
4809.14
4809.46
4809.74
4806.95
4807.14
4807.36
4807.57
4807.77
4807.97
4808.17
4808.42
4808.71
4809.02
4809.34
4809.62
4806.83
4807.02
4807.24
4807.46
4807.66
4807.85
4808.06
4808.3
4808.58
4808.9
4809.21
4809.49
4806.71
4806.9
4807.12
4807.34
4807.53
4807.73
4807.93
4808.18
4808.46
4808.77
4809.08
4809.36
4806.58
4806.77
4806.99
4807.21
4807.41
4807.6
4807.81
4808.05
4808.33
4808.63
4808.94
4809.22
4806.45
4806.64
4806.86
4807.08
4807.28
4807.47
4807.67
4807.91
4808.19
4808.49
4808.8
4809.07
4806.31
4806.5
4806.72
4806.94
4807.14
4807.33
4807.54
4807.77
4808.05
4808.35
4808.65
4808.92
4806.17
4806.36
4806.58
4806.8
4807
4807.19
4807.39
4807.63
4807.9
4808.2
4808.5
4808.77
4806.03
4806.22
4806.44
4806.66
4806.85
4807.05
4807.25
4807.48
4807.75
4808.05
4808.34
4808.61
4805.88
4806.07
4806.29
4806.51
4806.7
4806.9
4807.1
4807.33
4807.6
4807.89
4808.18
4808.44
4805.72
4805.92
4806.14
4806.35
4806.55
4806.75
4806.94
4807.17
4807.44
4807.73
4808.02
4808.28
4805.56
4805.76
4805.98
4806.2
4806.4
4806.59
4806.79
4807.01
4807.28
4807.56
4807.85
4808.11
4805.4
4805.6
4805.82
4806.04
4806.24
4806.43
4806.63
4806.85
4807.11
4807.39
4807.67
4807.93
4805.24
4805.44
4805.66
4805.88
4806.08
4806.27
4806.46
4806.69
4806.94
4807.22
4807.5
4807.75
4805.08
4805.27
4805.5
4805.72
4805.91
4806.1
4806.3
4806.52
4806.77
4807.05
4807.32
4807.57
4804.91
4805.11
4805.33
4805.55
4805.75
4805.94
4806.13
4806.35
4806.6
4806.87
4807.14
4807.39
4804.74
4804.94
4805.16
4805.38
4805.58
4805.77
4805.96
4806.18
4806.42
4806.69
4806.96
4807.2
4804.57
4804.77
4804.99
4805.21
4805.41
4805.6
4805.79
4806
4806.25
4806.51
4806.77
4807.02
4804.4
4804.6
4804.82
4805.04
4805.24
4805.43
4805.61
4805.83
4806.07
4806.33
4806.59
4806.83
4804.22
4804.43
4804.65
4804.87
4805.07
4805.25
4805.44
4805.65
4805.89
4806.15
4806.4
4806.64
4804.05
4804.25
4804.48
4804.7
4804.89
4805.08
4805.27
4805.47
4805.71
4805.96
4806.21
4806.45
4803.88
4804.08
4804.31
4804.53
4804.72
4804.91
4805.09
4805.3
4805.53
4805.78
4806.03
4806.26
4803.7
4803.91
4804.14
4804.35
4804.55
4804.73
4804.92
4805.12
4805.35
4805.59
4805.84
4806.07
4803.53
4803.74
4803.96
4804.18
4804.38
4804.56
4804.74
4804.94
4805.17
4805.41
4805.65
4805.88
4803.36
4803.57
4803.8
4804.01
4804.21
4804.39
4804.57
4804.77
4804.99
4805.23
4805.47
4805.69
4803.19
4803.4
4803.63
4803.85
4804.04
4804.22
4804.4
4804.6
4804.81
4805.05
4805.28
4805.5
4803.02
4803.23
4803.46
4803.68
4803.87
4804.05
4804.23
4804.42
4804.64
4804.87
4805.1
4805.32
4802.86
4803.07
4803.3
4803.52
4803.71
4803.89
4804.06
4804.25
4804.47
4804.69
4804.92
4805.13
4802.7
4802.91
4803.14
4803.35
4803.55
4803.73
4803.9
4804.09
4804.3
4804.52
4804.74
4804.95
4802.54
4802.75
4802.98
4803.2
4803.39
4803.57
4803.74
4803.92
4804.13
4804.35
4804.57
4804.77
4802.38
4802.6
4802.82
4803.04
4803.23
4803.41
4803.58
4803.76
4803.96
4804.18
4804.39
4804.6
4802.23
4802.44
4802.67
4802.89
4803.08
4803.26
4803.42
4803.6
4803.8
4804.01
4804.23
4804.43
4802.08
4802.3
4802.53
4802.74
4802.93
4803.11
4803.27
4803.45
4803.65
4803.85
4804.06
4804.26
4801.94
4802.16
4802.39
4802.6
4802.79
4802.96
4803.13
4803.3
4803.5
4803.7
4803.91
4804.1
4801.81
4802.02
4802.25
4802.47
4802.66
4802.83
4802.99
4803.16
4803.35
4803.55
4803.75
4803.95
4801.68
4801.89
4802.12
4802.34
4802.53
4802.69
4802.86
4803.03
4803.21
4803.41
4803.61
4803.8
4801.56
4801.77
4802
4802.22
4802.4
4802.57
4802.73
4802.9
4803.08
4803.28
4803.47
4803.66
4801.45
4801.66
4801.89
4802.11
4802.29
4802.46
4802.62
4802.78
4802.96
4803.15
4803.35
4803.53
4801.35
4801.56
4801.79
4802
4802.19
4802.35
4802.51
4802.67
4802.85
4803.04
4803.23
4803.42
4801.26
4801.48
4801.7
4801.91
4802.1
4802.26
4802.42
4802.58
4802.75
4802.94
4803.13
4803.31
4801.19
4801.4
4801.63
4801.84
4802.02
4802.18
4802.34
4802.49
4802.67
4802.85
4803.04
4803.22
4801.14
4801.35
4801.57
4801.78
4801.96
4802.12
4802.28
4802.43
4802.6
4802.78
4802.97
4803.15
4801.1
4801.31
4801.54
4801.75
4801.93
4802.08
4802.23
4802.39
4802.56
4802.74
4802.92
4803.1
4801.1
4801.31
4801.53
4801.73
4801.91
4802.07
4802.22
4802.37
4802.54
4802.71
4802.9
4803.08
4801.12
4801.32
4801.54
4801.75
4801.93
4802.08
4802.23
4802.38
4802.55
4802.72
4802.9
4803.08
4801.17
4801.38
4801.59
4801.8
4801.97
4802.13
4802.27
4802.42
4802.59
4802.76
4802.94
4803.12
4801.26
4801.46
4801.67
4801.88
4802.05
4802.2
4802.35
4802.5
4802.66
4802.84
4803.02
4803.2
4801.37
4801.57
4801.79
4801.99
4802.16
4802.31
4802.46
4802.61
4802.77
4802.95
4803.13
4803.31
4801.52
4801.72
4801.93
4802.13
4802.3
4802.45
4802.6
4802.75
4802.91
4803.09
4803.27
4803.45
4801.68
4801.87
4802.08
4802.28
4802.45
4802.6
4802.75
4802.9
4803.07
4803.24
4803.43
4803.62
4801.83
4802.03
4802.24
4802.43
4802.6
4802.76
4802.91
4803.06
4803.22
4803.4
4803.59
4803.78
4801.97
4802.17
4802.38
4802.57
4802.74
4802.9
4803.04
4803.2
4803.36
4803.55
4803.74
4803.94
5331.06
5331.24
5331.47
5331.72
5331.96
5332.21
5332.45
5332.71
5333
5333.3
5333.59
5333.81
5325.63
5325.8
5326.03
5326.28
5326.52
5326.76
5326.99
5327.25
5327.53
5327.83
5328.1
5328.32
5317.23
5317.4
5317.62
5317.86
5318.09
5318.32
5318.55
5318.8
5319.07
5319.36
5319.62
5319.83
5311.79
5311.96
5312.18
5312.41
5312.64
5312.87
5313.09
5313.33
5313.6
5313.87
5314.13
5314.33
5310.37
5310.54
5310.75
5310.98
5311.21
5311.43
5311.65
5311.9
5312.16
5312.43
5312.69
5312.89
5310.42
5310.59
5310.81
5311.04
5311.27
5311.49
5311.71
5311.95
5312.21
5312.49
5312.74
5312.94
5310.48
5310.64
5310.86
5311.09
5311.32
5311.54
5311.76
5312
5312.27
5312.54
5312.79
5312.99
5310.52
5310.69
5310.9
5311.13
5311.36
5311.58
5311.8
5312.05
5312.31
5312.58
5312.83
5313.03
5310.55
5310.72
5310.93
5311.17
5311.39
5311.62
5311.84
5312.08
5312.34
5312.61
5312.86
5313.06
5310.57
5310.74
5310.96
5311.19
5311.41
5311.64
5311.86
5312.1
5312.36
5312.63
5312.88
5313.08
5310.58
5310.75
5310.97
5311.2
5311.43
5311.65
5311.87
5312.11
5312.37
5312.64
5312.89
5313.09
5310.59
5310.75
5310.97
5311.2
5311.43
5311.65
5311.87
5312.11
5312.37
5312.64
5312.89
5313.09
5310.58
5310.75
5310.97
5311.2
5311.42
5311.65
5311.87
5312.11
5312.36
5312.63
5312.88
5313.08
5310.57
5310.73
5310.95
5311.18
5311.41
5311.63
5311.85
5312.09
5312.35
5312.61
5312.86
5313.06
5310.54
5310.71
5310.93
5311.16
5311.39
5311.61
5311.83
5312.07
5312.32
5312.59
5312.84
5313.03
5310.51
5310.68
5310.9
5311.13
5311.36
5311.58
5311.8
5312.03
5312.29
5312.55
5312.8
5313
5310.47
5310.64
5310.86
5311.09
5311.32
5311.54
5311.76
5311.99
5312.25
5312.51
5312.76
5312.95
5310.42
5310.59
5310.81
5311.04
5311.27
5311.49
5311.71
5311.94
5312.2
5312.46
5312.7
5312.9
5310.37
5310.54
5310.76
5310.99
5311.21
5311.44
5311.65
5311.89
5312.14
5312.4
5312.64
5312.84
5310.3
5310.48
5310.69
5310.93
5311.15
5311.37
5311.59
5311.82
5312.08
5312.33
5312.58
5312.77
5310.23
5310.4
5310.62
5310.86
5311.08
5311.3
5311.52
5311.75
5312
5312.26
5312.5
5312.69
5310.15
5310.33
5310.54
5310.78
5311
5311.22
5311.44
5311.67
5311.92
5312.17
5312.41
5312.61
5310.07
5310.24
5310.46
5310.69
5310.92
5311.14
5311.35
5311.58
5311.83
5312.08
5312.32
5312.51
5309.97
5310.15
5310.36
5310.6
5310.82
5311.04
5311.26
5311.49
5311.73
5311.98
5312.22
5312.41
5309.87
5310.05
5310.26
5310.5
5310.72
5310.94
5311.15
5311.38
5311.63
5311.88
5312.11
5312.3
5309.76
5309.94
5310.16
5310.39
5310.61
5310.83
5311.05
5311.27
5311.52
5311.77
5312
5312.19
5309.65
5309.83
5310.04
5310.28
5310.5
5310.72
5310.93
5311.16
5311.4
5311.65
5311.88
5312.07
5309.53
5309.7
5309.92
5310.16
5310.38
5310.6
5310.81
5311.03
5311.27
5311.52
5311.75
5311.94
5309.4
5309.58
5309.8
5310.03
5310.25
5310.47
5310.68
5310.9
5311.14
5311.38
5311.61
5311.8
5309.26
5309.44
5309.66
5309.9
5310.12
5310.34
5310.55
5310.77
5311.01
5311.24
5311.47
5311.66
5309.12
5309.31
5309.53
5309.76
5309.98
5310.2
5310.4
5310.63
5310.86
5311.1
5311.32
5311.51
5308.98
5309.16
5309.38
5309.61
5309.84
5310.05
5310.26
5310.48
5310.71
5310.95
5311.17
5311.35
5308.83
5309.01
5309.23
5309.46
5309.69
5309.9
5310.11
5310.32
5310.56
5310.79
5311.01
5311.19
5308.67
5308.86
5309.08
5309.31
5309.53
5309.74
5309.95
5310.17
5310.39
5310.63
5310.84
5311.02
5308.51
5308.69
5308.92
5309.15
5309.37
5309.58
5309.79
5310
5310.23
5310.46
5310.67
5310.85
5308.34
5308.53
5308.75
5308.99
5309.21
5309.42
5309.62
5309.83
5310.06
5310.28
5310.5
5310.67
5308.17
5308.36
5308.58
5308.82
5309.04
5309.25
5309.45
5309.66
5309.88
5310.11
5310.31
5310.49
5308
5308.19
5308.41
5308.64
5308.86
5309.07
5309.27
5309.48
5309.7
5309.92
5310.13
5310.3
5307.82
5308.01
5308.23
5308.47
5308.69
5308.89
5309.09
5309.3
5309.52
5309.74
5309.94
5310.11
5307.64
5307.83
5308.05
5308.29
5308.51
5308.71
5308.91
5309.12
5309.33
5309.55
5309.75
5309.92
5307.45
5307.65
5307.87
5308.1
5308.32
5308.53
5308.73
5308.93
5309.14
5309.35
5309.55
5309.72
5307.27
5307.46
5307.68
5307.92
5308.14
5308.34
5308.54
5308.74
5308.95
5309.16
5309.35
5309.52
5307.08
5307.27
5307.5
5307.73
5307.95
5308.15
5308.34
5308.54
5308.75
5308.96
5309.15
5309.32
5306.88
5307.08
5307.31
5307.54
5307.76
5307.96
5308.15
5308.35
5308.55
5308.76
5308.95
5309.11
5306.69
5306.89
5307.11
5307.35
5307.56
5307.77
5307.96
5308.15
5308.35
5308.55
5308.74
5308.9
5306.49
5306.69
5306.92
5307.16
5307.37
5307.57
5307.76
5307.95
5308.15
5308.35
5308.53
5308.7
5306.3
5306.5
5306.73
5306.96
5307.18
5307.37
5307.56
5307.75
5307.95
5308.14
5308.33
5308.48
5306.1
5306.3
5306.53
5306.77
5306.98
5307.18
5307.36
5307.55
5307.75
5307.94
5308.12
5308.27
5305.91
5306.11
5306.34
5306.57
5306.78
5306.98
5307.17
5307.35
5307.54
5307.73
5307.91
5308.06
5305.71
5305.92
5306.15
5306.38
5306.59
5306.79
5306.97
5307.15
5307.34
5307.52
5307.7
5307.85
5305.52
5305.72
5305.95
5306.18
5306.4
5306.59
5306.77
5306.95
5307.14
5307.32
5307.49
5307.64
5305.32
5305.53
5305.76
5305.99
5306.2
5306.4
5306.57
5306.75
5306.93
5307.11
5307.28
5307.43
5305.13
5305.34
5305.57
5305.8
5306.01
5306.2
5306.38
5306.55
5306.73
5306.91
5307.08
5307.22
5304.94
5305.15
5305.38
5305.62
5305.82
5306.01
5306.19
5306.36
5306.54
5306.71
5306.87
5307.02
5304.76
5304.97
5305.2
5305.43
5305.64
5305.83
5306
5306.17
5306.34
5306.51
5306.67
5306.82
5304.58
5304.79
5305.02
5305.25
5305.46
5305.64
5305.81
5305.98
5306.15
5306.32
5306.47
5306.62
5304.4
5304.61
5304.84
5305.07
5305.28
5305.46
5305.63
5305.79
5305.96
5306.12
5306.28
5306.42
5304.22
5304.43
5304.67
5304.89
5305.1
5305.28
5305.45
5305.61
5305.77
5305.94
5306.09
5306.23
5304.05
5304.26
5304.5
5304.72
5304.93
5305.11
5305.27
5305.43
5305.59
5305.75
5305.9
5306.04
5303.89
5304.1
5304.33
5304.56
5304.76
5304.94
5305.1
5305.26
5305.42
5305.57
5305.72
5305.86
5303.73
5303.94
5304.17
5304.4
5304.6
5304.78
5304.94
5305.09
5305.25
5305.4
5305.55
5305.68
5303.57
5303.79
5304.02
5304.25
5304.45
5304.63
5304.78
5304.93
5305.09
5305.23
5305.38
5305.51
5303.43
5303.65
5303.88
5304.1
5304.3
5304.48
5304.63
5304.78
5304.93
5305.08
5305.22
5305.35
5303.3
5303.51
5303.74
5303.97
5304.17
5304.34
5304.49
5304.64
5304.78
5304.93
5305.07
5305.2
5303.17
5303.39
5303.62
5303.84
5304.04
5304.21
5304.36
5304.5
5304.65
5304.79
5304.93
5305.05
5303.06
5303.27
5303.5
5303.73
5303.92
5304.09
5304.24
5304.38
5304.52
5304.66
5304.8
5304.93
5302.96
5303.17
5303.4
5303.63
5303.82
5303.99
5304.13
5304.27
5304.41
5304.55
5304.68
5304.81
5302.88
5303.09
5303.32
5303.54
5303.73
5303.9
5304.04
5304.18
5304.31
5304.45
5304.58
5304.71
5302.81
5303.03
5303.25
5303.47
5303.66
5303.83
5303.97
5304.1
5304.24
5304.37
5304.5
5304.63
5302.77
5302.98
5303.21
5303.43
5303.62
5303.78
5303.92
5304.05
5304.18
5304.32
5304.45
5304.58
5302.76
5302.97
5303.19
5303.41
5303.6
5303.76
5303.9
5304.03
5304.16
5304.29
5304.42
5304.55
5302.78
5302.99
5303.21
5303.42
5303.61
5303.77
5303.91
5304.03
5304.16
5304.29
5304.43
5304.56
5302.83
5303.04
5303.26
5303.47
5303.65
5303.81
5303.95
5304.07
5304.21
5304.33
5304.47
5304.6
5302.92
5303.13
5303.34
5303.55
5303.74
5303.89
5304.03
5304.15
5304.28
5304.41
5304.55
5304.68
5303.05
5303.25
5303.47
5303.67
5303.85
5304.01
5304.14
5304.27
5304.4
5304.53
5304.67
5304.8
5303.2
5303.4
5303.62
5303.82
5304
5304.15
5304.29
5304.42
5304.55
5304.68
5304.82
5304.96
5303.37
5303.57
5303.79
5303.99
5304.17
5304.32
5304.46
5304.58
5304.72
5304.85
5305
5305.14
5303.55
5303.74
5303.96
5304.16
5304.34
5304.49
5304.63
5304.75
5304.89
5305.03
5305.17
5305.32
5303.7
5303.89
5304.11
5304.31
5304.48
5304.64
5304.77
5304.9
5305.04
5305.18
5305.34
5305.49
5862.79
5862.94
5863.16
5863.4
5863.63
5863.86
5864.06
5864.27
5864.46
5864.63
5864.77
5864.84
5856.86
5857.01
5857.22
5857.45
5857.68
5857.91
5858.11
5858.31
5858.49
5858.66
5858.8
5858.86
5847.68
5847.83
5848.03
5848.26
5848.48
5848.7
5848.89
5849.08
5849.26
5849.42
5849.55
5849.61
5841.74
5841.89
5842.09
5842.31
5842.53
5842.74
5842.93
5843.11
5843.29
5843.44
5843.56
5843.62
5840.18
5840.33
5840.53
5840.75
5840.96
5841.17
5841.36
5841.54
5841.72
5841.87
5841.99
5842.04
5840.24
5840.39
5840.59
5840.81
5841.02
5841.23
5841.42
5841.6
5841.78
5841.93
5842.05
5842.1
5840.3
5840.44
5840.64
5840.86
5841.08
5841.29
5841.47
5841.66
5841.83
5841.98
5842.1
5842.16
5840.34
5840.48
5840.68
5840.91
5841.12
5841.33
5841.52
5841.7
5841.87
5842.02
5842.15
5842.2
5840.37
5840.52
5840.72
5840.94
5841.15
5841.36
5841.55
5841.73
5841.91
5842.06
5842.18
5842.23
5840.39
5840.54
5840.74
5840.96
5841.18
5841.39
5841.57
5841.76
5841.93
5842.08
5842.2
5842.25
5840.41
5840.55
5840.75
5840.97
5841.19
5841.4
5841.58
5841.77
5841.94
5842.09
5842.2
5842.25
5840.41
5840.55
5840.75
5840.97
5841.19
5841.4
5841.58
5841.77
5841.93
5842.08
5842.2
5842.25
5840.4
5840.54
5840.74
5840.96
5841.18
5841.39
5841.57
5841.76
5841.92
5842.07
5842.19
5842.24
5840.38
5840.52
5840.72
5840.95
5841.16
5841.37
5841.55
5841.74
5841.9
5842.05
5842.17
5842.22
5840.35
5840.5
5840.7
5840.92
5841.13
5841.34
5841.53
5841.71
5841.87
5842.02
5842.14
5842.19
5840.31
5840.46
5840.66
5840.88
5841.1
5841.3
5841.49
5841.67
5841.83
5841.98
5842.09
5842.14
5840.26
5840.41
5840.61
5840.83
5841.05
5841.26
5841.44
5841.62
5841.78
5841.93
5842.04
5842.09
5840.21
5840.36
5840.56
5840.78
5840.99
5841.2
5841.38
5841.56
5841.73
5841.87
5841.98
5842.03
5840.14
5840.29
5840.49
5840.71
5840.93
5841.14
5841.32
5841.49
5841.66
5841.8
5841.91
5841.96
5840.07
5840.22
5840.42
5840.64
5840.86
5841.06
5841.24
5841.42
5841.58
5841.72
5841.83
5841.88
5839.99
5840.14
5840.34
5840.56
5840.77
5840.98
5841.16
5841.33
5841.5
5841.64
5841.75
5841.8
5839.89
5840.05
5840.25
5840.47
5840.68
5840.89
5841.07
5841.24
5841.4
5841.54
5841.65
5841.7
5839.8
5839.95
5840.15
5840.37
5840.58
5840.79
5840.97
5841.14
5841.3
5841.44
5841.54
5841.59
5839.69
5839.84
5840.04
5840.26
5840.48
5840.68
5840.86
5841.03
5841.19
5841.33
5841.43
5841.48
5839.57
5839.73
5839.93
5840.15
5840.36
5840.56
5840.74
5840.91
5841.07
5841.2
5841.31
5841.36
5839.45
5839.6
5839.8
5840.02
5840.24
5840.44
5840.62
5840.79
5840.94
5841.08
5841.18
5841.23
5839.32
5839.47
5839.67
5839.89
5840.11
5840.31
5840.48
5840.65
5840.81
5840.94
5841.04
5841.09
5839.18
5839.33
5839.53
5839.76
5839.97
5840.17
5840.35
5840.51
5840.66
5840.79
5840.89
5840.94
5839.03
5839.19
5839.39
5839.61
5839.82
5840.02
5840.2
5840.36
5840.51
5840.64
5840.74
5840.79
5838.88
5839.04
5839.24
5839.46
5839.67
5839.87
5840.04
5840.21
5840.36
5840.48
5840.58
5840.63
5838.72
5838.88
5839.08
5839.3
5839.51
5839.71
5839.88
5840.04
5840.19
5840.32
5840.41
5840.46
5838.55
5838.71
5838.91
5839.14
5839.35
5839.54
5839.71
5839.88
5840.02
5840.14
5840.24
5840.29
5838.38
5838.54
5838.74
5838.96
5839.17
5839.37
5839.54
5839.7
5839.84
5839.97
5840.06
5840.1
5838.2
5838.36
5838.56
5838.79
5839
5839.19
5839.36
5839.52
5839.66
5839.78
5839.87
5839.92
5838.01
5838.18
5838.38
5838.6
5838.81
5839.01
5839.18
5839.33
5839.47
5839.59
5839.68
5839.72
5837.82
5837.99
5838.19
5838.42
5838.62
5838.82
5838.98
5839.14
5839.28
5839.39
5839.48
5839.52
5837.63
5837.8
5838
5838.22
5838.43
5838.62
5838.79
5838.94
5839.08
5839.19
5839.27
5839.32
5837.43
5837.6
5837.8
5838.03
5838.23
5838.42
5838.59
5838.74
5838.87
5838.98
5839.07
5839.11
5837.22
5837.4
5837.6
5837.82
5838.03
5838.22
5838.38
5838.53
5838.66
5838.77
5838.85
5838.89
5837.01
5837.19
5837.4
5837.62
5837.82
5838.01
5838.17
5838.32
5838.45
5838.56
5838.63
5838.68
5836.8
5836.98
5837.19
5837.41
5837.61
5837.8
5837.96
5838.1
5838.23
5838.34
5838.41
5838.45
5836.59
5836.76
5836.97
5837.19
5837.4
5837.58
5837.74
5837.88
5838.01
5838.11
5838.19
5838.23
5836.37
5836.55
5836.76
5836.98
5837.18
5837.37
5837.52
5837.66
5837.79
5837.89
5837.96
5838
5836.15
5836.33
5836.54
5836.76
5836.96
5837.15
5837.3
5837.44
5837.56
5837.66
5837.73
5837.77
5835.93
5836.11
5836.32
5836.54
5836.74
5836.92
5837.08
5837.21
5837.33
5837.43
5837.49
5837.53
5835.7
5835.89
5836.1
5836.32
5836.52
5836.7
5836.85
5836.98
5837.1
5837.19
5837.26
5837.3
5835.48
5835.66
5835.87
5836.09
5836.29
5836.47
5836.62
5836.75
5836.87
5836.96
5837.02
5837.06
5835.25
5835.44
5835.65
5835.87
5836.07
5836.25
5836.39
5836.52
5836.63
5836.72
5836.79
5836.82
5835.03
5835.21
5835.43
5835.65
5835.85
5836.02
5836.17
5836.29
5836.4
5836.49
5836.55
5836.58
5834.8
5834.99
5835.2
5835.42
5835.62
5835.8
5835.94
5836.06
5836.17
5836.25
5836.31
5836.35
5834.58
5834.77
5834.98
5835.2
5835.4
5835.57
5835.71
5835.83
5835.94
5836.02
5836.08
5836.11
5834.36
5834.55
5834.76
5834.98
5835.18
5835.35
5835.49
5835.61
5835.71
5835.79
5835.84
5835.87
5834.13
5834.33
5834.54
5834.76
5834.96
5835.13
5835.26
5835.38
5835.48
5835.55
5835.61
5835.64
5833.92
5834.11
5834.33
5834.55
5834.74
5834.91
5835.04
5835.15
5835.25
5835.32
5835.38
5835.41
5833.7
5833.9
5834.11
5834.33
5834.52
5834.69
5834.82
5834.93
5835.03
5835.1
5835.15
5835.18
5833.49
5833.69
5833.9
5834.12
5834.31
5834.47
5834.61
5834.71
5834.8
5834.87
5834.92
5834.95
5833.28
5833.48
5833.7
5833.91
5834.1
5834.26
5834.39
5834.5
5834.59
5834.65
5834.7
5834.73
5833.08
5833.27
5833.49
5833.71
5833.9
5834.06
5834.18
5834.29
5834.37
5834.44
5834.48
5834.51
5832.88
5833.08
5833.3
5833.51
5833.7
5833.86
5833.98
5834.08
5834.16
5834.22
5834.27
5834.3
5832.68
5832.89
5833.11
5833.32
5833.51
5833.66
5833.78
5833.88
5833.96
5834.02
5834.06
5834.09
5832.5
5832.7
5832.92
5833.13
5833.32
5833.47
5833.59
5833.69
5833.76
5833.82
5833.86
5833.89
5832.32
5832.52
5832.74
5832.96
5833.14
5833.29
5833.41
5833.5
5833.58
5833.63
5833.67
5833.7
5832.15
5832.36
5832.58
5832.79
5832.97
5833.12
5833.23
5833.32
5833.4
5833.45
5833.49
5833.51
5831.99
5832.2
5832.42
5832.63
5832.81
5832.96
5833.07
5833.16
5833.23
5833.28
5833.31
5833.34
5831.85
5832.05
5832.27
5832.48
5832.66
5832.8
5832.92
5833
5833.07
5833.12
5833.15
5833.18
5831.71
5831.92
5832.14
5832.35
5832.52
5832.67
5832.77
5832.86
5832.92
5832.97
5833.01
5833.03
5831.6
5831.8
5832.02
5832.23
5832.4
5832.54
5832.65
5832.73
5832.79
5832.84
5832.87
5832.9
5831.5
5831.7
5831.92
5832.12
5832.3
5832.44
5832.54
5832.62
5832.68
5832.72
5832.76
5832.79
5831.42
5831.62
5831.84
5832.04
5832.22
5832.35
5832.45
5832.53
5832.59
5832.63
5832.67
5832.7
5831.37
5831.57
5831.79
5831.99
5832.16
5832.29
5832.39
5832.47
5832.52
5832.57
5832.6
5832.63
5831.35
5831.55
5831.76
5831.96
5832.13
5832.26
5832.36
5832.43
5832.49
5832.53
5832.57
5832.6
5831.36