/*--------------------------------*- C++ -*----------------------------------*\
| =========                 |                                                 |
| \\      /  F ield         | OpenFOAM: The Open Source CFD Toolbox           |
|  \\    /   O peration     | Version:  v1912                                 |
|   \\  /    A nd           | Website:  www.openfoam.com                      |
|    \\/     M anipulation  |                                                 |
\*---------------------------------------------------------------------------*/
FoamFile
{
    version     2.0;
    format      ascii;
    class       volVectorField;
    location    "7.6";
    object      wallShearStress;
}
// * * * * * * * * * * * * * * * * * * * * * * * * * * * * * * * * * * * * * //

dimensions      [1 -1 -2 0 0 0 0];


internalField   uniform (0 0 0);

boundaryField
{
    leftWall
    {
        type            calculated;
        value           nonuniform List<vector> 
216
(
(-0.000601824 -5.36414e-05 0.191588)
(-0.000236638 -5.68535e-05 0.197188)
(6.27553e-06 -6.12662e-05 0.203816)
(0.00014431 -6.89309e-05 0.209959)
(0.000173272 -7.73697e-05 0.217978)
(0.00014508 -8.56967e-05 0.226094)
(-2.03234e-05 -9.14144e-05 0.237061)
(-0.000325831 -9.74019e-05 0.248456)
(-0.000671605 -0.000103968 0.263506)
(-0.000750166 -0.000115706 0.279712)
(-0.000327409 -0.000130109 0.301222)
(0.000585593 -0.000152482 0.324592)
(0.00181002 -0.00018585 0.355774)
(0.00298143 -0.000255215 0.38989)
(0.00358959 -0.000410324 0.447292)
(0.00274797 -0.000968454 0.505613)
(-8.598e-05 -0.00584021 0.71825)
(-0.00125662 -0.117995 1.88345)
(-3.23783e-05 -4.94196e-05 0.188677)
(0.000188493 -5.17316e-05 0.193996)
(0.00035831 -5.59801e-05 0.200898)
(0.000510712 -6.40864e-05 0.208204)
(0.000597517 -7.2183e-05 0.217729)
(0.00057025 -7.98465e-05 0.227431)
(0.000305225 -8.48301e-05 0.239403)
(-0.000226334 -9.16052e-05 0.25102)
(-0.000980115 -0.000101476 0.265443)
(-0.00171871 -0.000119712 0.280313)
(-0.00226173 -0.000142533 0.300131)
(-0.00244006 -0.000172859 0.32189)
(-0.00215443 -0.000206906 0.351873)
(-0.00130101 -0.000273843 0.384377)
(0.000575171 -0.000418624 0.439663)
(0.00347737 -0.000949928 0.498857)
(0.00293991 -0.00583842 0.719083)
(-0.000405337 -0.117713 1.88505)
(0.000692176 -4.636e-05 0.187829)
(0.00061534 -5.03593e-05 0.193024)
(0.000490898 -5.59709e-05 0.199908)
(0.000402735 -6.36124e-05 0.207645)
(0.000329335 -6.97764e-05 0.217749)
(0.000260173 -7.66368e-05 0.228141)
(7.64358e-05 -8.34748e-05 0.240647)
(-0.000259714 -9.4877e-05 0.252598)
(-0.000737496 -0.000109674 0.26706)
(-0.00113046 -0.000130933 0.281316)
(-0.00127855 -0.000156246 0.299635)
(-0.00108102 -0.00019229 0.318914)
(-0.000691083 -0.000236713 0.346169)
(-0.000337215 -0.000310772 0.376131)
(0.000222733 -0.000449831 0.43035)
(0.00145232 -0.000955188 0.492284)
(0.000710861 -0.00583665 0.719819)
(-0.00114253 -0.117777 1.88546)
(0.00109608 -4.38856e-05 0.189404)
(0.000878165 -4.85691e-05 0.195582)
(0.000594388 -5.43232e-05 0.203298)
(0.000301392 -6.18965e-05 0.211491)
(2.77935e-05 -6.8217e-05 0.221914)
(-0.000156337 -7.53027e-05 0.232379)
(-0.000246818 -8.22923e-05 0.245004)
(-0.000262272 -9.24907e-05 0.256837)
(-0.000297415 -0.000103935 0.271094)
(-0.000394634 -0.000119826 0.284975)
(-0.000615251 -0.000140535 0.303319)
(-0.000797602 -0.000173712 0.323248)
(-0.000764083 -0.000216249 0.35184)
(-0.000549353 -0.00029172 0.382975)
(-0.000561777 -0.00043752 0.436943)
(-0.00040077 -0.000955944 0.496453)
(0.000332998 -0.00581107 0.720967)
(-0.00108561 -0.117661 1.88511)
(0.000855569 -4.83837e-05 0.193243)
(0.000546597 -5.21973e-05 0.200136)
(0.00019213 -5.50314e-05 0.208198)
(-0.00016531 -5.98326e-05 0.215884)
(-0.000452652 -6.56261e-05 0.225432)
(-0.000586565 -7.40152e-05 0.234729)
(-0.000511668 -8.22702e-05 0.246598)
(-0.000322394 -9.1759e-05 0.258121)
(-0.00024845 -0.000101579 0.272648)
(-0.000507467 -0.000116903 0.28704)
(-0.00105252 -0.000140623 0.305819)
(-0.00149451 -0.000178674 0.325538)
(-0.00144314 -0.000227924 0.352747)
(-0.0010509 -0.000305325 0.382084)
(-0.000920141 -0.000448386 0.435496)
(-0.00123678 -0.000950404 0.496555)
(-0.00124767 -0.0058001 0.721786)
(-0.00333766 -0.11777 1.88476)
(0.000878516 -5.05564e-05 0.198532)
(0.000717468 -5.39509e-05 0.205098)
(0.000472237 -5.54908e-05 0.212446)
(0.000152007 -5.83144e-05 0.218867)
(-0.000151225 -6.25826e-05 0.226862)
(-0.000398435 -7.05517e-05 0.234605)
(-0.000526643 -7.9933e-05 0.245295)
(-0.000569514 -9.17278e-05 0.256438)
(-0.000623395 -0.000104292 0.271139)
(-0.000758077 -0.000121444 0.285968)
(-0.00082035 -0.000144641 0.304495)
(-0.000568882 -0.000180395 0.323416)
(-4.70336e-05 -0.000228021 0.34958)
(-0.000110355 -0.000310138 0.379288)
(-0.00151801 -0.000459229 0.434598)
(-0.00334789 -0.000981077 0.498009)
(-0.00250473 -0.00583439 0.722716)
(-0.0027068 -0.117815 1.88429)
(0.000841997 -4.4379e-05 0.201141)
(0.000929419 -4.86606e-05 0.207549)
(0.000871803 -5.1943e-05 0.214816)
(0.000623319 -5.60622e-05 0.221486)
(0.000264169 -6.06552e-05 0.229564)
(-0.000155801 -6.86539e-05 0.237377)
(-0.000520195 -7.89572e-05 0.247539)
(-0.000753547 -9.22848e-05 0.258094)
(-0.000774637 -0.000105945 0.271861)
(-0.000595564 -0.000121482 0.286142)
(-0.000223364 -0.000140652 0.303965)
(0.000174178 -0.000173747 0.322685)
(0.000309358 -0.000224168 0.348892)
(-0.000436957 -0.000310697 0.379445)
(-0.00192202 -0.000464512 0.434431)
(-0.00260805 -0.000976915 0.494816)
(-0.000594731 -0.00586257 0.715833)
(-0.00091376 -0.11789 1.88322)
(0.000476589 -3.92143e-05 0.196714)
(0.000615373 -4.37489e-05 0.203165)
(0.00062453 -4.96327e-05 0.210913)
(0.000466153 -5.79018e-05 0.218661)
(0.000179011 -6.55997e-05 0.227987)
(-0.000148679 -7.47421e-05 0.236916)
(-0.000421169 -8.44742e-05 0.24735)
(-0.000561283 -9.74448e-05 0.257197)
(-0.000540824 -0.000110949 0.269313)
(-0.000362849 -0.000127199 0.281919)
(2.35087e-05 -0.000146376 0.299047)
(0.000408966 -0.000176228 0.318966)
(0.000531012 -0.00021748 0.347694)
(-0.000244141 -0.000298332 0.380208)
(-0.00151878 -0.000452431 0.435405)
(-0.0021197 -0.000976155 0.49613)
(0.00179484 -0.00586762 0.719654)
(0.00684545 -0.118042 1.881)
(0.000197502 -4.4545e-05 0.194468)
(0.000247909 -4.92318e-05 0.200822)
(0.000255438 -5.488e-05 0.208748)
(0.000213917 -6.28143e-05 0.216486)
(0.000168695 -7.0909e-05 0.226099)
(0.000245557 -8.0008e-05 0.235106)
(0.000504311 -8.84065e-05 0.24584)
(0.000901015 -9.77383e-05 0.255563)
(0.00117434 -0.000107333 0.267579)
(0.00106084 -0.000121968 0.279766)
(0.000536421 -0.00014263 0.297079)
(-0.000119841 -0.000177025 0.317595)
(-0.000614026 -0.000220015 0.347525)
(-0.00125701 -0.000302827 0.380409)
(-0.00256262 -0.000463874 0.435375)
(-0.00362011 -0.000982863 0.495607)
(0.00241554 -0.00580532 0.71965)
(0.0147951 -0.117967 1.87972)
(0.000351747 -5.20078e-05 0.196294)
(0.000374481 -5.49455e-05 0.202678)
(0.000354947 -5.64135e-05 0.210518)
(0.000305226 -5.92969e-05 0.21764)
(0.00031252 -6.28995e-05 0.226604)
(0.000472508 -6.80973e-05 0.234878)
(0.000820846 -7.40127e-05 0.245688)
(0.00126421 -8.38262e-05 0.256259)
(0.00153059 -9.87765e-05 0.270394)
(0.00129832 -0.000121349 0.284867)
(0.000522175 -0.000148594 0.303789)
(-0.000393971 -0.000182375 0.323352)
(-0.000816923 -0.000226301 0.350349)
(-0.000837333 -0.000311819 0.380021)
(-0.000985004 -0.000483044 0.432865)
(-0.00142374 -0.00101679 0.488662)
(0.00266682 -0.00584216 0.706888)
(0.0136575 -0.117898 1.87577)
(0.000502111 -4.87987e-05 0.196506)
(0.00052205 -5.23977e-05 0.203302)
(0.000486863 -5.4288e-05 0.211336)
(0.000396487 -5.69201e-05 0.218677)
(0.000342364 -5.99707e-05 0.227567)
(0.000331151 -6.59793e-05 0.23587)
(0.000396821 -7.39138e-05 0.246722)
(0.000519305 -8.53268e-05 0.25772)
(0.000694441 -9.9029e-05 0.272371)
(0.000855959 -0.000117676 0.287422)
(0.000917876 -0.000139615 0.306566)
(0.000735945 -0.000172197 0.326067)
(0.000291627 -0.000215593 0.352685)
(9.40706e-07 -0.000299612 0.382081)
(0.00122876 -0.000453548 0.435115)
(0.00329384 -0.000956921 0.491141)
(0.00228549 -0.00577324 0.70851)
(0.00217208 -0.117788 1.87817)
(0.000245767 -4.87096e-05 0.196558)
(0.000272132 -5.42849e-05 0.203568)
(0.000257009 -5.76352e-05 0.211499)
(0.000185873 -6.14474e-05 0.218622)
(0.000154421 -6.47656e-05 0.226995)
(0.000152136 -7.06935e-05 0.234917)
(0.000217209 -7.76112e-05 0.245361)
(0.000293611 -8.62785e-05 0.256349)
(0.000363688 -9.24314e-05 0.271027)
(0.00035256 -9.9682e-05 0.28672)
(0.000223222 -0.000111061 0.307495)
(-6.15355e-05 -0.000136238 0.33059)
(-0.000431897 -0.000180955 0.361352)
(-0.000565495 -0.000266075 0.393185)
(0.000381677 -0.000405839 0.445785)
(0.00183113 -0.000910216 0.502158)
(0.000377879 -0.00582651 0.721459)
(0.00159929 -0.117972 1.88373)
)
;
    }
    rightWall
    {
        type            calculated;
        value           nonuniform List<vector> 
216
(
(-0.000132813 1.12287e-05 0.383398)
(-0.000389558 1.1181e-05 0.385835)
(-0.000621007 1.34836e-05 0.390877)
(-0.000797068 1.98667e-05 0.394766)
(-0.000984685 2.68358e-05 0.402571)
(-0.00100236 3.51624e-05 0.408723)
(-0.00085636 4.21793e-05 0.418642)
(-0.000455627 5.18549e-05 0.425544)
(0.000120694 6.23529e-05 0.435535)
(0.000669788 7.7912e-05 0.442887)
(0.00120181 9.47095e-05 0.455803)
(0.00146601 0.000122527 0.469125)
(0.00175215 0.000156604 0.493756)
(0.000864228 0.000248724 0.516098)
(-0.00233212 0.000348821 0.573975)
(-0.00524436 0.000871045 0.614867)
(-0.00216743 0.00699703 0.936332)
(-0.00959985 0.285647 2.36943)
(-0.000294085 1.67473e-05 0.386014)
(-0.00066345 2.05535e-05 0.387959)
(-0.000894068 2.58745e-05 0.392278)
(-0.00104259 3.39913e-05 0.395233)
(-0.00108381 4.18441e-05 0.401634)
(-0.000928862 4.9241e-05 0.406394)
(-0.000580181 5.34785e-05 0.415029)
(0.000127931 5.88811e-05 0.421491)
(0.000915838 6.53898e-05 0.432083)
(0.00154753 7.74343e-05 0.440795)
(0.00171943 9.1121e-05 0.455033)
(0.00135424 0.000113759 0.468836)
(0.00119558 0.000140493 0.493586)
(0.000800139 0.000223031 0.51686)
(-0.00109969 0.000334792 0.574733)
(-0.0056964 0.000895663 0.608481)
(-0.00745337 0.00696155 0.909415)
(-0.00873009 0.285999 2.32371)
(-0.000238786 2.42611e-05 0.385615)
(-0.000501002 2.92202e-05 0.388141)
(-0.000607348 3.25725e-05 0.39265)
(-0.000653786 3.60677e-05 0.395547)
(-0.000591393 3.97572e-05 0.400835)
(-0.000388189 4.68116e-05 0.404538)
(-0.000126842 5.46195e-05 0.411793)
(0.000427943 6.33285e-05 0.418197)
(0.00108204 7.04171e-05 0.429339)
(0.00178441 7.90254e-05 0.439567)
(0.00194016 8.81585e-05 0.454884)
(0.00115165 0.000110391 0.469409)
(-1.25369e-05 0.000135479 0.494604)
(-0.000962855 0.000215786 0.518837)
(-0.000647123 0.000328706 0.577449)
(0.000887248 0.000909944 0.610957)
(0.00250428 0.00711125 0.910254)
(0.00390905 0.284968 2.3503)
(-1.52196e-05 2.7486e-05 0.383193)
(-2.2581e-05 3.14863e-05 0.386604)
(4.35084e-05 3.30332e-05 0.391485)
(0.000119561 3.38797e-05 0.394884)
(0.000256329 3.56309e-05 0.399816)
(0.000524113 4.1906e-05 0.403443)
(0.000772309 5.10126e-05 0.409951)
(0.00113716 6.16455e-05 0.416151)
(0.00150861 7.01408e-05 0.426993)
(0.00190509 7.92932e-05 0.437856)
(0.00174716 9.06481e-05 0.454497)
(0.000614238 0.000117748 0.470355)
(-0.00119491 0.000150428 0.495524)
(-0.00220076 0.000232932 0.518002)
(-0.000293963 0.000330976 0.575568)
(0.00369476 0.000873444 0.611797)
(0.00379209 0.00707795 0.91521)
(0.000976481 0.286901 2.35015)
(-0.000112482 2.3872e-05 0.38067)
(3.83102e-05 2.64572e-05 0.384132)
(0.000209526 2.76359e-05 0.389081)
(0.000347626 2.86777e-05 0.393189)
(0.000559972 3.00202e-05 0.399179)
(0.000867073 3.45872e-05 0.404421)
(0.00119406 4.2282e-05 0.412649)
(0.00140579 5.22837e-05 0.420325)
(0.00142342 6.08665e-05 0.432234)
(0.0012254 7.05346e-05 0.443383)
(0.000757022 8.285e-05 0.460086)
(3.78347e-05 0.000110286 0.47503)
(-0.000899191 0.000141165 0.49854)
(-0.00124784 0.000221858 0.518067)
(0.00062179 0.000316184 0.574794)
(0.00392982 0.000865014 0.614739)
(0.00478761 0.00713545 0.924533)
(0.0204877 0.287389 2.3668)
(-2.9638e-05 2.37505e-05 0.379055)
(5.37138e-05 2.67478e-05 0.381578)
(6.6048e-05 2.86372e-05 0.386388)
(-0.000110371 2.92051e-05 0.390417)
(-0.000273343 2.69547e-05 0.397281)
(-0.000440124 2.52356e-05 0.403339)
(-0.00034372 2.62087e-05 0.413037)
(-0.000248159 3.30488e-05 0.422145)
(-8.16003e-05 4.29596e-05 0.435922)
(-0.000149924 5.75122e-05 0.44854)
(-0.000305909 7.76796e-05 0.465635)
(-0.000487245 0.000111224 0.479533)
(-0.00101384 0.00014444 0.50113)
(-0.00142976 0.000223367 0.518766)
(-0.00106092 0.000318421 0.574963)
(0.000811328 0.000882883 0.617719)
(0.00278502 0.0072286 0.941744)
(-0.00219986 0.287501 2.4021)
(0.000454664 2.68481e-05 0.378626)
(0.000478919 3.12311e-05 0.380835)
(0.000348032 3.44464e-05 0.386133)
(-0.000125656 3.70431e-05 0.389865)
(-0.00082155 3.64363e-05 0.396803)
(-0.00174923 3.59158e-05 0.402002)
(-0.00256106 3.51171e-05 0.410709)
(-0.00331566 3.99906e-05 0.418358)
(-0.00371009 4.84848e-05 0.430665)
(-0.00362949 6.48634e-05 0.442752)
(-0.00250337 8.6859e-05 0.46015)
(-0.000614199 0.000119372 0.475939)
(0.00095622 0.00015759 0.498539)
(0.00139637 0.00024191 0.516021)
(0.000496113 0.000339692 0.569432)
(-0.00147052 0.00088117 0.608879)
(-0.000475678 0.00711527 0.920659)
(-0.00727998 0.286367 2.35245)
(0.000809602 2.50206e-05 0.380169)
(0.000805207 2.86998e-05 0.382763)
(0.000652368 3.23601e-05 0.388348)
(0.000308165 3.94415e-05 0.392035)
(-0.000244833 4.76369e-05 0.398799)
(-0.000957551 5.73761e-05 0.403447)
(-0.00174593 6.52255e-05 0.410908)
(-0.00255632 7.30448e-05 0.416226)
(-0.00323893 8.13661e-05 0.424597)
(-0.00359272 9.37295e-05 0.432567)
(-0.00302629 0.000105996 0.447055)
(-0.00132987 0.000127056 0.463747)
(0.00135303 0.000157344 0.490043)
(0.00331096 0.000243554 0.512896)
(0.00278487 0.000342314 0.570734)
(-0.000734079 0.000862744 0.612266)
(0.000423901 0.00702364 0.915363)
(0.003013 0.286108 2.3447)
(0.000756344 1.94456e-05 0.381714)
(0.000736523 2.19099e-05 0.385107)
(0.000584342 2.44528e-05 0.390803)
(0.000434256 3.02742e-05 0.395032)
(0.000236874 3.71225e-05 0.401904)
(0.000149044 4.65267e-05 0.406976)
(0.000104797 5.59135e-05 0.414649)
(7.35806e-05 6.73628e-05 0.420169)
(-7.15665e-05 8.04002e-05 0.428615)
(-0.000563507 9.5042e-05 0.435965)
(-0.000937578 0.000110253 0.449076)
(-0.00062144 0.000130358 0.463022)
(0.0011054 0.000153679 0.486857)
(0.00216068 0.000234097 0.508934)
(0.000488458 0.000335681 0.569097)
(-0.00273924 0.00087393 0.613248)
(-0.0021049 0.0070774 0.918464)
(0.000478198 0.286245 2.35279)
(9.23882e-05 1.62525e-05 0.381873)
(-2.88833e-05 1.86707e-05 0.386098)
(-0.000225421 2.10929e-05 0.392302)
(-0.000326201 2.58505e-05 0.397133)
(-0.000403958 3.03119e-05 0.404196)
(-0.000299838 3.65892e-05 0.409277)
(-0.0001081 4.31813e-05 0.417048)
(0.000188101 5.36087e-05 0.422802)
(0.000547812 6.87957e-05 0.432568)
(0.000518713 8.86169e-05 0.440812)
(0.000740966 0.000109361 0.454718)
(0.00142666 0.000133171 0.467371)
(0.00321851 0.000157916 0.490418)
(0.00339079 0.00023693 0.513071)
(1.44468e-05 0.000343502 0.573621)
(-0.00437066 0.000891789 0.613973)
(-0.00401727 0.00707825 0.919182)
(-0.00316043 0.286061 2.35479)
(-0.000714163 2.18183e-05 0.381314)
(-0.000870415 2.48939e-05 0.3851)
(-0.00103882 2.77557e-05 0.391247)
(-0.00100374 3.27833e-05 0.395478)
(-0.000859245 3.75891e-05 0.402288)
(-0.000519945 4.41949e-05 0.406546)
(-0.000128438 5.02658e-05 0.414112)
(0.000280155 5.79422e-05 0.419308)
(0.000970676 6.6662e-05 0.429715)
(0.00155391 8.20694e-05 0.438491)
(0.00241021 9.87706e-05 0.453954)
(0.00300725 0.000121914 0.468782)
(0.00317362 0.000142147 0.495605)
(0.00156924 0.00022003 0.522412)
(-0.000334441 0.000334409 0.583051)
(-0.000945251 0.000892117 0.615799)
(-0.000590215 0.00712481 0.911153)
(0.00338594 0.286378 2.35133)
(-0.000698362 2.77697e-05 0.381474)
(-0.000829625 3.0414e-05 0.384295)
(-0.000917852 3.29262e-05 0.389893)
(-0.000675114 3.72008e-05 0.392975)
(-0.000269422 4.05913e-05 0.399418)
(0.000307526 4.56184e-05 0.403073)
(0.000791837 5.02687e-05 0.411291)
(0.000972113 5.63011e-05 0.417156)
(0.00104847 5.75209e-05 0.429156)
(0.0011439 6.19502e-05 0.439363)
(0.00132015 6.95303e-05 0.45665)
(0.00133385 9.75695e-05 0.473982)
(0.000474005 0.000137484 0.503473)
(-0.00115777 0.000227729 0.52999)
(4.1573e-05 0.000331026 0.586799)
(0.00336993 0.000867375 0.621228)
(0.0012314 0.00705549 0.926053)
(-0.00140101 0.285923 2.35772)
)
;
    }
    leftSides_periodic0
    {
        type            cyclic;
    }
    leftSides_periodic1
    {
        type            cyclic;
    }
    rightSides_periodic0
    {
        type            cyclic;
    }
    rightSides_periodic1
    {
        type            cyclic;
    }
    leftInOut_periodic0
    {
        type            calculated;
        value           nonuniform 0();
    }
    leftInOut_periodic1
    {
        type            calculated;
        value           uniform (0 0 0);
    }
    rightInOut_periodic0
    {
        type            calculated;
        value           nonuniform 0();
    }
    rightInOut_periodic1
    {
        type            calculated;
        value           uniform (0 0 0);
    }
    procBoundary4to1
    {
        type            processor;
        value           uniform (0 0 0);
    }
    procBoundary4to3
    {
        type            processor;
        value           uniform (0 0 0);
    }
    procBoundary4to5
    {
        type            processor;
        value           uniform (0 0 0);
    }
}


// ************************************************************************* //
