0 	0 	0 	0
5.01672e-05 	0.000481851 	-1.05682e-06 	0.0171939
0.000100334 	0.000334274 	4.80405e-08 	0.0340874
0.000150502 	-9.49961e-05 	1.89136e-06 	0.049673
0.000200669 	-0.000483488 	3.05159e-06 	0.0636825
0.000250836 	-0.00079617 	3.77648e-06 	0.0763846
0.000301003 	-0.00106535 	3.52935e-06 	0.0880214
0.000351171 	-0.00130359 	2.45488e-06 	0.0987361
0.000401338 	-0.00151693 	7.198e-07 	0.108623
0.000451505 	-0.00170902 	-1.39978e-06 	0.117747
0.000501672 	-0.00188223 	-3.52575e-06 	0.126157
0.000551839 	-0.00203808 	-5.81193e-06 	0.1339
0.000602007 	-0.00217755 	-8.88124e-06 	0.141029
0.000652174 	-0.00230143 	-1.30977e-05 	0.147597
0.000702341 	-0.00241045 	-1.82727e-05 	0.153663
0.000752508 	-0.00250537 	-2.38756e-05 	0.159274
0.000802676 	-0.00258685 	-2.94267e-05 	0.164473
0.000852843 	-0.0026537 	-3.51183e-05 	0.169244
0.00090301 	-0.00270881 	-4.11759e-05 	0.173689
0.000953177 	-0.00275314 	-4.7595e-05 	0.177841
0.00100334 	-0.00278762 	-5.43303e-05 	0.18173
0.00105351 	-0.00281318 	-6.13236e-05 	0.185383
0.00110368 	-0.00283054 	-6.85203e-05 	0.188818
0.00115385 	-0.00283881 	-7.58831e-05 	0.192008
0.00120401 	-0.0028413 	-8.32775e-05 	0.195033
0.00125418 	-0.0028388 	-9.06561e-05 	0.197909
0.00130435 	-0.00283198 	-9.79839e-05 	0.200649
0.00135452 	-0.00282047 	-0.000105199 	0.203228
0.00140468 	-0.00280561 	-0.000112308 	0.20568
0.00145485 	-0.00278826 	-0.000119336 	0.208033
0.00150502 	-0.00276868 	-0.000126292 	0.210294
0.00155518 	-0.00274605 	-0.000133143 	0.212422
0.00160535 	-0.00272178 	-0.000139903 	0.214472
0.00165552 	-0.00269609 	-0.000146578 	0.216452
0.00170569 	-0.00266858 	-0.000153135 	0.218336
0.00175585 	-0.0026398 	-0.000159698 	0.220143
0.00180602 	-0.00261021 	-0.000166272 	0.221895
0.00185619 	-0.00257959 	-0.000172872 	0.223571
0.00190635 	-0.00254822 	-0.000179441 	0.22518
0.00195652 	-0.00251642 	-0.000186022 	0.226747
0.00200669 	-0.00248396 	-0.000192717 	0.228245
0.00205686 	-0.00245119 	-0.000199868 	0.229694
0.00210702 	-0.0024182 	-0.000207322 	0.231112
0.00215719 	-0.00238499 	-0.000215667 	0.232456
0.00220736 	-0.00235209 	-0.000222549 	0.233774
0.00225753 	-0.00231969 	-0.000227089 	0.235047
0.00230769 	-0.0022915 	-0.000227499 	0.236256
0.00235786 	-0.00226547 	-0.000226578 	0.237436
0.00240803 	-0.00225201 	-0.000229878 	0.238507
0.00245819 	-0.00224167 	-0.00023802 	0.239553
0.00250836 	-0.00223766 	-0.000255975 	0.240544
0.00255853 	-0.00222263 	-0.000276531 	0.241578
0.0026087 	-0.00219978 	-0.000298933 	0.242643
0.00265886 	-0.00213926 	-0.000305523 	0.243867
0.00270903 	-0.0020698 	-0.000308357 	0.245127
0.0027592 	-0.00197848 	-0.000297424 	0.246411
0.00280936 	-0.00189034 	-0.000287497 	0.247664
0.00285953 	-0.00181919 	-0.000282959 	0.248753
0.0029097 	-0.00175627 	-0.000282096 	0.249787
0.00295987 	-0.00171409 	-0.000290489 	0.250685
0.00301003 	-0.00167854 	-0.000301685 	0.251541
0.0030602 	-0.00165396 	-0.000317523 	0.252326
0.00311037 	-0.00163109 	-0.000331775 	0.253085
0.00316054 	-0.00161044 	-0.000343965 	0.25381
0.0032107 	-0.0015896 	-0.000353806 	0.254509
0.00326087 	-0.00156855 	-0.000360867 	0.255177
0.00331104 	-0.00154772 	-0.000363168 	0.255828
0.0033612 	-0.00152716 	-0.000359551 	0.256456
0.00341137 	-0.00150801 	-0.000351409 	0.257096
0.00346154 	-0.001491 	-0.000336409 	0.257755
0.00351171 	-0.00147731 	-0.000325603 	0.258439
0.00356187 	-0.00147094 	-0.000324021 	0.259178
0.00361204 	-0.00146759 	-0.000327579 	0.259907
0.00366221 	-0.00147709 	-0.000353026 	0.260591
0.00371237 	-0.0014867 	-0.000378978 	0.26127
0.00376254 	-0.00150005 	-0.000421379 	0.261787
0.00381271 	-0.0015134 	-0.000463781 	0.262304
0.00386288 	-0.00149014 	-0.000500086 	0.262844
0.00391304 	-0.0014594 	-0.000535148 	0.263388
0.00396321 	-0.00137448 	-0.000541394 	0.264116
0.00401338 	-0.00125221 	-0.00052778 	0.264971
0.00406355 	-0.00112287 	-0.000501103 	0.265861
0.00411371 	-0.000978013 	-0.00044579 	0.266828
0.00416388 	-0.000833158 	-0.000390477 	0.267794
0.00421405 	-0.000764104 	-0.00035499 	0.268565
0.00426421 	-0.000695534 	-0.000319629 	0.269335
0.00431438 	-0.000679603 	-0.000323099 	0.270002
0.00436455 	-0.000694261 	-0.000349135 	0.270608
0.00441472 	-0.000718429 	-0.000382519 	0.271189
0.00446488 	-0.000774632 	-0.000440657 	0.271685
0.00451505 	-0.000830834 	-0.000498795 	0.272181
0.00456522 	-0.000883276 	-0.000538593 	0.272608
0.00461538 	-0.00093467 	-0.000573286 	0.273017
0.00466555 	-0.000979817 	-0.000598475 	0.273404
0.00471572 	-0.0010098 	-0.000600595 	0.27374
0.00476589 	-0.00103978 	-0.000602716 	0.274077
0.00481605 	-0.00105705 	-0.000597884 	0.274372
0.00486622 	-0.00107024 	-0.000590815 	0.274654
0.00491639 	-0.00108223 	-0.000585482 	0.27493
0.00496656 	-0.00108863 	-0.00058828 	0.275175
0.00501672 	-0.00109503 	-0.000591079 	0.275421
0.00506689 	-0.00110171 	-0.000598526 	0.275651
0.00511706 	-0.00110861 	-0.000609792 	0.275868
0.00516722 	-0.00111552 	-0.000621057 	0.276085
0.00521739 	-0.00112472 	-0.000632981 	0.276281
0.00526756 	-0.00113425 	-0.000644998 	0.276475
0.00531773 	-0.00114412 	-0.000657043 	0.276665
0.00536789 	-0.00115592 	-0.000669237 	0.276838
0.00541806 	-0.00116772 	-0.00068143 	0.277012
0.00546823 	-0.00117977 	-0.000694004 	0.277177
0.00551839 	-0.00119222 	-0.000707191 	0.27733
0.00556856 	-0.00120467 	-0.000720379 	0.277483
0.00561873 	-0.00121634 	-0.000733459 	0.277623
0.0056689 	-0.00122739 	-0.000746456 	0.277753
0.00571906 	-0.00123845 	-0.000759452 	0.277884
0.00576923 	-0.00124771 	-0.000771767 	0.277997
0.0058194 	-0.00125616 	-0.000783776 	0.278103
0.00586957 	-0.00126461 	-0.000795785 	0.278209
0.00591973 	-0.00127066 	-0.00080912 	0.278296
0.0059699 	-0.00127599 	-0.000822855 	0.278378
0.00602007 	-0.00128132 	-0.000836591 	0.278459
0.00607023 	-0.00128411 	-0.000851371 	0.278519
0.0061204 	-0.00128625 	-0.000866423 	0.278574
0.00617057 	-0.00128838 	-0.000881476 	0.278629
0.00622074 	-0.00128868 	-0.00088906 	0.278662
0.0062709 	-0.00128842 	-0.000894352 	0.278688
0.00632107 	-0.00128816 	-0.000899644 	0.278714
0.00637124 	-0.00128775 	-0.000896685 	0.278712
0.0064214 	-0.00128725 	-0.00088989 	0.278696
0.00647157 	-0.00128676 	-0.000883094 	0.278681
0.00652174 	-0.00128723 	-0.000886883 	0.278632
0.00657191 	-0.0012885 	-0.00089952 	0.278555
0.00662207 	-0.00128977 	-0.000912158 	0.278478
0.00667224 	-0.00129142 	-0.00094199 	0.278375
0.00672241 	-0.00129378 	-0.00100368 	0.278225
0.00677258 	-0.00129613 	-0.00106537 	0.278075
0.00682274 	-0.00129831 	-0.00112546 	0.277921
0.00687291 	-0.00129887 	-0.00117104 	0.277728
0.00692308 	-0.00129943 	-0.00121663 	0.277535
0.00697324 	-0.0013 	-0.00126222 	0.277342
0.00702341 	-0.00129711 	-0.00124994 	0.277159
0.00707358 	-0.00129331 	-0.00122224 	0.276977
0.00712375 	-0.0012895 	-0.00119455 	0.276796
0.00717391 	-0.0012839 	-0.00116594 	0.276623
0.00722408 	-0.00127584 	-0.00113608 	0.276462
0.00727425 	-0.00126778 	-0.00110622 	0.2763
0.00732441 	-0.00125971 	-0.00107636 	0.276139
0.00737458 	-0.00124941 	-0.00109232 	0.275976
0.00742475 	-0.00123909 	-0.00110869 	0.275813
0.00747492 	-0.00122877 	-0.00112507 	0.275649
0.00752508 	-0.00121752 	-0.00114758 	0.275483
0.00757525 	-0.00120534 	-0.00117623 	0.275314
0.00762542 	-0.00119316 	-0.00120487 	0.275145
0.00767559 	-0.00118096 	-0.00123341 	0.274976
0.00772575 	-0.0011663 	-0.00124931 	0.274803
0.00777592 	-0.00115165 	-0.00126521 	0.274631
0.00782609 	-0.00113699 	-0.00128112 	0.274458
0.00787625 	-0.00112105 	-0.00129353 	0.274279
0.00792642 	-0.00110418 	-0.0013034 	0.274096
0.00797659 	-0.00108731 	-0.00131327 	0.273913
0.00802676 	-0.00107097 	-0.00132278 	0.273722
0.00807692 	-0.00105661 	-0.00133097 	0.273499
0.00812709 	-0.00104226 	-0.00133915 	0.273276
0.00817726 	-0.0010279 	-0.00134734 	0.273052
0.00822742 	-0.00102879 	-0.00135165 	0.272725
0.00827759 	-0.00103137 	-0.00135554 	0.272385
0.00832776 	-0.00103394 	-0.00135942 	0.272046
0.00837793 	-0.00105799 	-0.0013687 	0.271569
0.00842809 	-0.00109364 	-0.00138089 	0.271017
0.00847826 	-0.00112928 	-0.00139308 	0.270465
0.00852843 	-0.00118158 	-0.00141101 	0.269796
0.0085786 	-0.00125381 	-0.00143581 	0.268987
0.00862876 	-0.00132604 	-0.00146061 	0.268177
0.00867893 	-0.00138937 	-0.00148248 	0.267396
0.0087291 	-0.00143356 	-0.00149802 	0.266674
0.00877926 	-0.00147776 	-0.00151357 	0.265952
0.00882943 	-0.00150503 	-0.00152532 	0.265312
0.0088796 	-0.0014772 	-0.00152472 	0.264938
0.00892977 	-0.00144938 	-0.00152412 	0.264565
0.00897993 	-0.00141553 	-0.00152198 	0.264217
0.0090301 	-0.00135855 	-0.00151396 	0.263968
0.00908027 	-0.00130156 	-0.00150593 	0.263719
0.00913043 	-0.00124457 	-0.00149866 	0.263457
0.0091806 	-0.00118754 	-0.00149391 	0.263154
0.00923077 	-0.00113052 	-0.00148916 	0.262851
0.00928094 	-0.00107407 	-0.00149119 	0.262517
0.0093311 	-0.0010189 	-0.00150837 	0.262114
0.00938127 	-0.000963735 	-0.00152555 	0.261711
0.00943144 	-0.000906843 	-0.0015546 	0.261266
0.00948161 	-0.000847735 	-0.00159887 	0.260768
0.00953177 	-0.000788627 	-0.00164314 	0.260269
0.00958194 	-0.000725827 	-0.00168667 	0.259729
0.00963211 	-0.000660742 	-0.00172973 	0.259163
0.00968227 	-0.000595657 	-0.0017728 	0.258597
0.00973244 	-0.000526608 	-0.00178344 	0.258026
0.00978261 	-0.000456843 	-0.00178822 	0.257453
0.00983278 	-0.00038676 	-0.00178853 	0.256886
0.00988294 	-0.000314447 	-0.00175753 	0.256355
0.00993311 	-0.000242135 	-0.00172652 	0.255823
0.00998328 	-0.000169579 	-0.00169386 	0.255307
0.0100334 	-9.67271e-05 	-0.00165918 	0.25481
0.0100836 	-2.38754e-05 	-0.0016245 	0.254312
0.0101338 	4.87681e-05 	-0.00160901 	0.25381
0.0101839 	0.000121367 	-0.00159762 	0.253306
0.0102341 	0.000194045 	-0.00159163 	0.252795
0.0102843 	0.000266967 	-0.00160239 	0.25226
0.0103344 	0.000339888 	-0.00161316 	0.251724
0.0103846 	0.000413733 	-0.00162603 	0.251162
0.0104348 	0.000487957 	-0.00163976 	0.250588
0.0104849 	0.000562534 	-0.00165087 	0.250007
0.0105351 	0.000638378 	-0.00165251 	0.249399
0.0105853 	0.000714222 	-0.00165416 	0.248791
0.0106355 	0.000791028 	-0.00164584 	0.248159
0.0106856 	0.000868119 	-0.00163457 	0.247519
0.0107358 	0.000945522 	-0.00162342 	0.246866
0.010786 	0.00102346 	-0.00161251 	0.246191
0.0108361 	0.00110141 	-0.00160164 	0.245516
0.0108863 	0.00118008 	-0.00159916 	0.244801
0.0109365 	0.00125875 	-0.00159667 	0.244086
0.0109866 	0.00133788 	-0.00159776 	0.243341
0.0110368 	0.00141722 	-0.00160047 	0.242582
0.011087 	0.00149672 	-0.0016016 	0.241808
0.0111371 	0.00157645 	-0.00160044 	0.241011
0.0111873 	0.00165607 	-0.0015973 	0.24021
0.0112375 	0.00173512 	-0.00158445 	0.239386
0.0112876 	0.00181417 	-0.00157161 	0.238562
0.0113378 	0.00189035 	-0.00155074 	0.237715
0.011388 	0.00196644 	-0.00152963 	0.236868
0.0114381 	0.00203837 	-0.00150721 	0.235995
0.0114883 	0.00210933 	-0.00148448 	0.235118
0.0115385 	0.00217669 	-0.00146336 	0.23421
0.0115886 	0.00224242 	-0.00144299 	0.233288
0.0116388 	0.00230649 	-0.00142723 	0.232332
0.011689 	0.00236945 	-0.00141451 	0.231352
0.0117391 	0.00243319 	-0.00140694 	0.230321
0.0117893 	0.00249757 	-0.00140351 	0.229248
0.0118395 	0.00256489 	-0.0013988 	0.228084
0.0118896 	0.00263469 	-0.00139301 	0.226844
0.0119398 	0.00270805 	-0.00137868 	0.22547
0.01199 	0.00278415 	-0.00135779 	0.223992
0.0120401 	0.00286209 	-0.00132961 	0.222388
0.0120903 	0.00294115 	-0.00129704 	0.220708
0.0121405 	0.00301827 	-0.00126961 	0.219067
0.0121906 	0.00309461 	-0.00124422 	0.217442
0.0122408 	0.00316642 	-0.00122843 	0.216004
0.012291 	0.00323737 	-0.00121445 	0.214602
0.0123411 	0.0033047 	-0.00119736 	0.213281
0.0123913 	0.00337172 	-0.00117902 	0.211947
0.0124415 	0.00343742 	-0.00115533 	0.210551
0.0124916 	0.00350264 	-0.00113067 	0.209106
0.0125418 	0.00356717 	-0.00110466 	0.207594
0.012592 	0.00363034 	-0.00107955 	0.206018
0.0126421 	0.00369285 	-0.00105489 	0.204409
0.0126923 	0.00375196 	-0.00103193 	0.202717
0.0127425 	0.00380964 	-0.00100869 	0.200991
0.0127926 	0.00386389 	-0.000984469 	0.199185
0.0128428 	0.00391487 	-0.000958365 	0.197294
0.012893 	0.0039638 	-0.000931083 	0.195351
0.0129431 	0.00400704 	-0.00090174 	0.193268
0.0129933 	0.00404796 	-0.000872632 	0.191138
0.0130435 	0.0040854 	-0.00084392 	0.18894
0.0130936 	0.0041187 	-0.000816499 	0.186669
0.0131438 	0.00414997 	-0.000789143 	0.184354
0.013194 	0.00417835 	-0.000761251 	0.181964
0.0132441 	0.00420401 	-0.000731907 	0.179464
0.0132943 	0.00422783 	-0.000701943 	0.176884
0.0133445 	0.00424902 	-0.000671515 	0.17418
0.0133946 	0.00426674 	-0.000641417 	0.171317
0.0134448 	0.00428178 	-0.000611449 	0.168338
0.013495 	0.00429375 	-0.000581573 	0.165229
0.0135452 	0.00430015 	-0.000551836 	0.161909
0.0135953 	0.00430263 	-0.000522393 	0.15846
0.0136455 	0.00430085 	-0.000493183 	0.154876
0.0136957 	0.00429357 	-0.000464077 	0.151129
0.0137458 	0.00427932 	-0.000435008 	0.147183
0.013796 	0.00425929 	-0.000406275 	0.143072
0.0138462 	0.00423299 	-0.000378094 	0.138783
0.0138963 	0.00419992 	-0.000350702 	0.134302
0.0139465 	0.00415694 	-0.000324441 	0.12955
0.0139967 	0.0041053 	-0.000298772 	0.124572
0.0140468 	0.0040443 	-0.000273707 	0.119362
0.014097 	0.00397257 	-0.000249445 	0.113906
0.0141472 	0.00388809 	-0.000226235 	0.108189
0.0141973 	0.00378775 	-0.000204059 	0.1022
0.0142475 	0.00366432 	-0.000182681 	0.0958863
0.0142977 	0.00351901 	-0.000161782 	0.0892998
0.0143478 	0.00335368 	-0.000141524 	0.082464
0.014398 	0.00317302 	-0.000122326 	0.075422
0.0144482 	0.00298363 	-0.000104395 	0.068241
0.0144983 	0.00279257 	-8.76798e-05 	0.0610093
0.0145485 	0.00260583 	-7.21554e-05 	0.0538307
0.0145987 	0.00242603 	-5.79018e-05 	0.0468107
0.0146488 	0.00224938 	-4.48841e-05 	0.040039
0.014699 	0.00206277 	-3.2942e-05 	0.0335722
0.0147492 	0.00184122 	-2.19972e-05 	0.02742
0.0147993 	0.00154243 	-1.22859e-05 	0.0215353
0.0148495 	0.00109418 	-4.57191e-06 	0.015791
0.0148997 	0.000493643 	-2.31938e-08 	0.0100767
0.0149498 	1.54529e-05 	1.2179e-06 	0.00463372
0.015 	0 	0 	0
