0 	0 	0 	0
5.01672e-05 	-1.64963e-05 	-5.41785e-06 	0.0202206
0.000100334 	-3.29926e-05 	-1.08357e-05 	0.0404412
0.000150502 	-4.94889e-05 	-1.62535e-05 	0.0606618
0.000200669 	-6.59852e-05 	-2.16714e-05 	0.0808825
0.000250836 	-8.24815e-05 	-2.70892e-05 	0.101103
0.000301003 	-9.89778e-05 	-3.25071e-05 	0.121324
0.000351171 	-0.000114111 	-3.89141e-05 	0.139395
0.000401338 	-0.00012409 	-4.90618e-05 	0.149337
0.000451505 	-0.000134069 	-5.92095e-05 	0.15928
0.000501672 	-0.000144048 	-6.93572e-05 	0.169223
0.000551839 	-0.000154027 	-7.95049e-05 	0.179165
0.000602007 	-0.000164006 	-8.96526e-05 	0.189108
0.000652174 	-0.000173985 	-9.98003e-05 	0.199051
0.000702341 	-0.000183964 	-0.000109948 	0.208993
0.000752508 	-0.000191972 	-0.00012028 	0.217608
0.000802676 	-0.000195094 	-0.000131068 	0.222932
0.000852843 	-0.000198215 	-0.000141857 	0.228255
0.00090301 	-0.000201336 	-0.000152645 	0.233578
0.000953177 	-0.000204458 	-0.000163433 	0.238902
0.00100334 	-0.000207579 	-0.000174222 	0.244225
0.00105351 	-0.000210701 	-0.00018501 	0.249549
0.00110368 	-0.000213822 	-0.000195799 	0.254872
0.00115385 	-0.000216944 	-0.000206587 	0.260195
0.00120401 	-0.000219885 	-0.000217294 	0.265415
0.00125418 	-0.00021912 	-0.000226328 	0.268512
0.00130435 	-0.000218355 	-0.000235362 	0.271608
0.00135452 	-0.00021759 	-0.000244397 	0.274705
0.00140468 	-0.000216826 	-0.000253431 	0.277801
0.00145485 	-0.000216061 	-0.000262465 	0.280898
0.00150502 	-0.000215296 	-0.000271499 	0.283994
0.00155518 	-0.000214531 	-0.000280534 	0.287091
0.00160535 	-0.000213766 	-0.000289568 	0.290187
0.00165552 	-0.000213002 	-0.000298602 	0.293284
0.00170569 	-0.000212237 	-0.000307636 	0.29638
0.00175585 	-0.000211152 	-0.000316022 	0.299187
0.00180602 	-0.000209186 	-0.000322626 	0.301196
0.00185619 	-0.000207221 	-0.000329229 	0.303206
0.00190635 	-0.000205256 	-0.000335833 	0.305215
0.00195652 	-0.00020329 	-0.000342436 	0.307225
0.00200669 	-0.000201325 	-0.00034904 	0.309234
0.00205686 	-0.000199359 	-0.000355643 	0.311244
0.00210702 	-0.000197394 	-0.000362247 	0.313253
0.00215719 	-0.000195428 	-0.00036885 	0.315263
0.00220736 	-0.000193463 	-0.000375454 	0.317272
0.00225753 	-0.000191497 	-0.000382057 	0.319282
0.00230769 	-0.000189532 	-0.000388661 	0.321291
0.00235786 	-0.000187566 	-0.000395265 	0.323301
0.00240803 	-0.000185681 	-0.000400194 	0.32486
0.00245819 	-0.000183831 	-0.000404377 	0.326219
0.00250836 	-0.000181981 	-0.00040856 	0.327578
0.00255853 	-0.000180132 	-0.000412743 	0.328937
0.0026087 	-0.000178282 	-0.000416926 	0.330295
0.00265886 	-0.000176432 	-0.00042111 	0.331654
0.00270903 	-0.000174582 	-0.000425293 	0.333013
0.0027592 	-0.000172733 	-0.000429476 	0.334372
0.00280936 	-0.000170883 	-0.000433659 	0.33573
0.00285953 	-0.000169033 	-0.000437842 	0.337089
0.0029097 	-0.000167184 	-0.000442025 	0.338448
0.00295987 	-0.000165334 	-0.000446208 	0.339807
0.00301003 	-0.000163484 	-0.000450392 	0.341165
0.0030602 	-0.000161634 	-0.000454575 	0.342524
0.00311037 	-0.000159796 	-0.00045872 	0.343873
0.00316054 	-0.00015845 	-0.000461208 	0.34477
0.0032107 	-0.000157104 	-0.000463696 	0.345668
0.00326087 	-0.000155758 	-0.000466184 	0.346566
0.00331104 	-0.000154412 	-0.000468672 	0.347464
0.0033612 	-0.000153066 	-0.00047116 	0.348362
0.00341137 	-0.00015172 	-0.000473648 	0.34926
0.00346154 	-0.000150375 	-0.000476136 	0.350158
0.00351171 	-0.000149029 	-0.000478624 	0.351056
0.00356187 	-0.000147683 	-0.000481112 	0.351954
0.00361204 	-0.000146337 	-0.0004836 	0.352852
0.00366221 	-0.000144991 	-0.000486088 	0.353749
0.00371237 	-0.000143645 	-0.000488577 	0.354647
0.00376254 	-0.000142299 	-0.000491065 	0.355545
0.00381271 	-0.000140953 	-0.000493553 	0.356443
0.00386288 	-0.000139607 	-0.000496041 	0.357341
0.00391304 	-0.000138261 	-0.000498529 	0.358239
0.00396321 	-0.000136915 	-0.000501017 	0.359137
0.00401338 	-0.000135941 	-0.000502583 	0.359712
0.00406355 	-0.000135004 	-0.000504059 	0.360256
0.00411371 	-0.000134066 	-0.000505535 	0.3608
0.00416388 	-0.000133128 	-0.000507011 	0.361344
0.00421405 	-0.00013219 	-0.000508486 	0.361888
0.00426421 	-0.000131253 	-0.000509962 	0.362432
0.00431438 	-0.000130315 	-0.000511438 	0.362976
0.00436455 	-0.000129377 	-0.000512914 	0.363519
0.00441472 	-0.00012844 	-0.000514389 	0.364063
0.00446488 	-0.000127502 	-0.000515865 	0.364607
0.00451505 	-0.000126564 	-0.000517341 	0.365151
0.00456522 	-0.000125626 	-0.000518817 	0.365695
0.00461538 	-0.000124689 	-0.000520293 	0.366239
0.00466555 	-0.000123751 	-0.000521768 	0.366783
0.00471572 	-0.000122813 	-0.000523244 	0.367327
0.00476589 	-0.000121876 	-0.00052472 	0.36787
0.00481605 	-0.000120938 	-0.000526196 	0.368414
0.00486622 	-0.00012 	-0.000527671 	0.368958
0.00491639 	-0.000119062 	-0.000529147 	0.369502
0.00496656 	-0.000118125 	-0.000530623 	0.370046
0.00501672 	-0.000117399 	-0.000531335 	0.370327
0.00506689 	-0.000116684 	-0.000532006 	0.370593
0.00511706 	-0.000115969 	-0.000532676 	0.37086
0.00516722 	-0.000115254 	-0.000533347 	0.371126
0.00521739 	-0.000114539 	-0.000534018 	0.371393
0.00526756 	-0.000113825 	-0.000534689 	0.371659
0.00531773 	-0.00011311 	-0.00053536 	0.371926
0.00536789 	-0.000112395 	-0.00053603 	0.372192
0.00541806 	-0.00011168 	-0.000536701 	0.372459
0.00546823 	-0.000110966 	-0.000537372 	0.372726
0.00551839 	-0.000110251 	-0.000538043 	0.372992
0.00556856 	-0.000109536 	-0.000538714 	0.373259
0.00561873 	-0.000108821 	-0.000539384 	0.373525
0.0056689 	-0.000108106 	-0.000540055 	0.373792
0.00571906 	-0.000107392 	-0.000540726 	0.374058
0.00576923 	-0.000106677 	-0.000541397 	0.374325
0.0058194 	-0.000105962 	-0.000542068 	0.374592
0.00586957 	-0.000105247 	-0.000542738 	0.374858
0.00591973 	-0.000104533 	-0.000543409 	0.375125
0.0059699 	-0.000103818 	-0.00054408 	0.375391
0.00602007 	-0.000103103 	-0.000544751 	0.375658
0.00607023 	-0.000102388 	-0.000545422 	0.375924
0.0061204 	-0.000101673 	-0.000546092 	0.376191
0.00617057 	-0.000101059 	-0.000546237 	0.376307
0.00622074 	-0.000100495 	-0.000546114 	0.376346
0.0062709 	-9.99318e-05 	-0.000545991 	0.376385
0.00632107 	-9.93681e-05 	-0.000545868 	0.376424
0.00637124 	-9.88045e-05 	-0.000545746 	0.376463
0.0064214 	-9.82409e-05 	-0.000545623 	0.376502
0.00647157 	-9.76773e-05 	-0.0005455 	0.376541
0.00652174 	-9.71136e-05 	-0.000545377 	0.37658
0.00657191 	-9.655e-05 	-0.000545255 	0.376619
0.00662207 	-9.59864e-05 	-0.000545132 	0.376658
0.00667224 	-9.54228e-05 	-0.000545009 	0.376697
0.00672241 	-9.48591e-05 	-0.000544886 	0.376736
0.00677258 	-9.42955e-05 	-0.000544764 	0.376775
0.00682274 	-9.37319e-05 	-0.000544641 	0.376814
0.00687291 	-9.31683e-05 	-0.000544518 	0.376853
0.00692308 	-9.26046e-05 	-0.000544395 	0.376892
0.00697324 	-9.2041e-05 	-0.000544273 	0.376931
0.00702341 	-9.14774e-05 	-0.00054415 	0.37697
0.00707358 	-9.09138e-05 	-0.000544027 	0.377009
0.00712375 	-9.03501e-05 	-0.000543904 	0.377048
0.00717391 	-8.97865e-05 	-0.000543782 	0.377087
0.00722408 	-8.92229e-05 	-0.000543659 	0.377126
0.00727425 	-8.86593e-05 	-0.000543536 	0.377165
0.00732441 	-8.80956e-05 	-0.000543413 	0.377204
0.00737458 	-8.7532e-05 	-0.000543291 	0.377243
0.00742475 	-8.69684e-05 	-0.000543168 	0.377282
0.00747492 	-8.64048e-05 	-0.000543045 	0.377321
0.00752508 	-8.58984e-05 	-0.000542538 	0.377256
0.00757525 	-8.54493e-05 	-0.000541647 	0.377086
0.00762542 	-8.50002e-05 	-0.000540755 	0.376916
0.00767559 	-8.45511e-05 	-0.000539864 	0.376746
0.00772575 	-8.41019e-05 	-0.000538973 	0.376576
0.00777592 	-8.36528e-05 	-0.000538082 	0.376406
0.00782609 	-8.32037e-05 	-0.00053719 	0.376236
0.00787625 	-8.27546e-05 	-0.000536299 	0.376066
0.00792642 	-8.23055e-05 	-0.000535408 	0.375896
0.00797659 	-8.18564e-05 	-0.000534517 	0.375726
0.00802676 	-8.14072e-05 	-0.000533625 	0.375556
0.00807692 	-8.09581e-05 	-0.000532734 	0.375386
0.00812709 	-8.0509e-05 	-0.000531843 	0.375216
0.00817726 	-8.00599e-05 	-0.000530951 	0.375046
0.00822742 	-7.96108e-05 	-0.00053006 	0.374876
0.00827759 	-7.91617e-05 	-0.000529169 	0.374706
0.00832776 	-7.87126e-05 	-0.000528278 	0.374536
0.00837793 	-7.82634e-05 	-0.000527386 	0.374366
0.00842809 	-7.78143e-05 	-0.000526495 	0.374196
0.00847826 	-7.73652e-05 	-0.000525604 	0.374026
0.00852843 	-7.69161e-05 	-0.000524712 	0.373856
0.0085786 	-7.6467e-05 	-0.000523821 	0.373686
0.00862876 	-7.60179e-05 	-0.00052293 	0.373516
0.00867893 	-7.55687e-05 	-0.000522039 	0.373346
0.0087291 	-7.51196e-05 	-0.000521147 	0.373176
0.00877926 	-7.46705e-05 	-0.000520256 	0.373006
0.00882943 	-7.42214e-05 	-0.000519365 	0.372836
0.0088796 	-7.38277e-05 	-0.000518173 	0.37258
0.00892977 	-7.35432e-05 	-0.000516389 	0.372157
0.00897993 	-7.32586e-05 	-0.000514606 	0.371733
0.0090301 	-7.29741e-05 	-0.000512822 	0.371309
0.00908027 	-7.26896e-05 	-0.000511038 	0.370886
0.00913043 	-7.24051e-05 	-0.000509255 	0.370462
0.0091806 	-7.21206e-05 	-0.000507471 	0.370039
0.00923077 	-7.18361e-05 	-0.000505687 	0.369615
0.00928094 	-7.15516e-05 	-0.000503904 	0.369191
0.0093311 	-7.1267e-05 	-0.00050212 	0.368768
0.00938127 	-7.09825e-05 	-0.000500336 	0.368344
0.00943144 	-7.0698e-05 	-0.000498553 	0.36792
0.00948161 	-7.04135e-05 	-0.000496769 	0.367497
0.00953177 	-7.0129e-05 	-0.000494985 	0.367073
0.00958194 	-6.98445e-05 	-0.000493202 	0.36665
0.00963211 	-6.956e-05 	-0.000491418 	0.366226
0.00968227 	-6.92754e-05 	-0.000489634 	0.365802
0.00973244 	-6.89909e-05 	-0.000487851 	0.365379
0.00978261 	-6.87064e-05 	-0.000486067 	0.364955
0.00983278 	-6.84219e-05 	-0.000484283 	0.364531
0.00988294 	-6.81374e-05 	-0.0004825 	0.364108
0.00993311 	-6.78529e-05 	-0.000480716 	0.363684
0.00998328 	-6.75684e-05 	-0.000478932 	0.363261
0.0100334 	-6.73013e-05 	-0.000477103 	0.362822
0.0100836 	-6.73593e-05 	-0.000474426 	0.362106
0.0101338 	-6.74173e-05 	-0.000471748 	0.36139
0.0101839 	-6.74753e-05 	-0.00046907 	0.360674
0.0102341 	-6.75333e-05 	-0.000466392 	0.359958
0.0102843 	-6.75913e-05 	-0.000463714 	0.359241
0.0103344 	-6.76494e-05 	-0.000461037 	0.358525
0.0103846 	-6.77074e-05 	-0.000458359 	0.357809
0.0104348 	-6.77654e-05 	-0.000455681 	0.357093
0.0104849 	-6.78234e-05 	-0.000453003 	0.356377
0.0105351 	-6.78814e-05 	-0.000450326 	0.355661
0.0105853 	-6.79395e-05 	-0.000447648 	0.354944
0.0106355 	-6.79975e-05 	-0.00044497 	0.354228
0.0106856 	-6.80555e-05 	-0.000442292 	0.353512
0.0107358 	-6.81135e-05 	-0.000439615 	0.352796
0.010786 	-6.81715e-05 	-0.000436937 	0.35208
0.0108361 	-6.82296e-05 	-0.000434259 	0.351364
0.0108863 	-6.82876e-05 	-0.000431581 	0.350648
0.0109365 	-6.83456e-05 	-0.000428903 	0.349931
0.0109866 	-6.84036e-05 	-0.000426226 	0.349215
0.0110368 	-6.8513e-05 	-0.000423432 	0.348465
0.011087 	-6.91463e-05 	-0.000419454 	0.347367
0.0111371 	-6.97796e-05 	-0.000415477 	0.34627
0.0111873 	-7.04128e-05 	-0.000411499 	0.345172
0.0112375 	-7.10461e-05 	-0.000407522 	0.344075
0.0112876 	-7.16794e-05 	-0.000403544 	0.342977
0.0113378 	-7.23127e-05 	-0.000399567 	0.34188
0.011388 	-7.29459e-05 	-0.000395589 	0.340782
0.0114381 	-7.35792e-05 	-0.000391612 	0.339685
0.0114883 	-7.42125e-05 	-0.000387634 	0.338587
0.0115385 	-7.48457e-05 	-0.000383657 	0.33749
0.0115886 	-7.5479e-05 	-0.000379679 	0.336392
0.0116388 	-7.61123e-05 	-0.000375702 	0.335294
0.011689 	-7.67456e-05 	-0.000371724 	0.334197
0.0117391 	-7.73788e-05 	-0.000367747 	0.333099
0.0117893 	-7.80121e-05 	-0.000363769 	0.332002
0.0118395 	-7.86454e-05 	-0.000359792 	0.330904
0.0118896 	-7.92787e-05 	-0.000355814 	0.329807
0.0119398 	-8.06376e-05 	-0.000349854 	0.328146
0.01199 	-8.20134e-05 	-0.000343848 	0.326472
0.0120401 	-8.33892e-05 	-0.000337842 	0.324798
0.0120903 	-8.47649e-05 	-0.000331836 	0.323124
0.0121405 	-8.61407e-05 	-0.00032583 	0.321449
0.0121906 	-8.75164e-05 	-0.000319824 	0.319775
0.0122408 	-8.88922e-05 	-0.000313818 	0.318101
0.012291 	-9.02679e-05 	-0.000307812 	0.316427
0.0123411 	-9.16437e-05 	-0.000301806 	0.314753
0.0123913 	-9.30194e-05 	-0.0002958 	0.313079
0.0124415 	-9.43952e-05 	-0.000289794 	0.311405
0.0124916 	-9.57709e-05 	-0.000283788 	0.309731
0.0125418 	-9.71467e-05 	-0.000277782 	0.308057
0.012592 	-9.85225e-05 	-0.000271776 	0.306383
0.0126421 	-0.000100046 	-0.000265071 	0.304413
0.0126923 	-0.000101901 	-0.000256798 	0.30178
0.0127425 	-0.000103756 	-0.000248526 	0.299147
0.0127926 	-0.000105611 	-0.000240253 	0.296514
0.0128428 	-0.000107466 	-0.00023198 	0.29388
0.012893 	-0.00010932 	-0.000223707 	0.291247
0.0129431 	-0.000111175 	-0.000215434 	0.288614
0.0129933 	-0.00011303 	-0.000207161 	0.285981
0.0130435 	-0.000114885 	-0.000198888 	0.283347
0.0130936 	-0.00011674 	-0.000190615 	0.280714
0.0131438 	-0.000118595 	-0.000182342 	0.278081
0.013194 	-0.00012045 	-0.000174069 	0.275448
0.0132441 	-0.000122305 	-0.000165796 	0.272815
0.0132943 	-0.000123552 	-0.000156784 	0.26893
0.0133445 	-0.000124578 	-0.000147502 	0.264591
0.0133946 	-0.000125604 	-0.000138221 	0.260252
0.0134448 	-0.00012663 	-0.00012894 	0.255912
0.013495 	-0.000127655 	-0.000119658 	0.251573
0.0135452 	-0.000128681 	-0.000110377 	0.247234
0.0135953 	-0.000129707 	-0.000101095 	0.242894
0.0136455 	-0.000130733 	-9.18141e-05 	0.238555
0.0136957 	-0.000131759 	-8.25327e-05 	0.234216
0.0137458 	-0.000132785 	-7.32514e-05 	0.229876
0.013796 	-0.000133811 	-6.397e-05 	0.225537
0.0138462 	-0.000131382 	-5.7134e-05 	0.218125
0.0138963 	-0.000128784 	-5.04171e-05 	0.210564
0.0139465 	-0.000126186 	-4.37003e-05 	0.203002
0.0139967 	-0.000123589 	-3.69834e-05 	0.195441
0.0140468 	-0.000120991 	-3.02665e-05 	0.187879
0.014097 	-0.000118393 	-2.35496e-05 	0.180318
0.0141472 	-0.000115796 	-1.68328e-05 	0.172756
0.0141973 	-0.000113198 	-1.01159e-05 	0.165194
0.0142475 	-0.000110601 	-3.39904e-06 	0.157633
0.0142977 	-0.000104778 	-4.91472e-07 	0.147747
0.0143478 	-9.76552e-05 	8.79764e-07 	0.136925
0.014398 	-9.05323e-05 	2.251e-06 	0.126102
0.0144482 	-8.34093e-05 	3.62224e-06 	0.11528
0.0144983 	-7.62864e-05 	4.99347e-06 	0.104457
0.0145485 	-6.91635e-05 	6.36471e-06 	0.0936346
0.0145987 	-6.20406e-05 	7.73594e-06 	0.082812
0.0146488 	-5.49176e-05 	9.10718e-06 	0.0719894
0.014699 	-4.72057e-05 	8.29994e-06 	0.0616057
0.0147492 	-3.93381e-05 	6.91662e-06 	0.0513381
0.0147993 	-3.14705e-05 	5.53329e-06 	0.0410705
0.0148495 	-2.36029e-05 	4.14997e-06 	0.0308029
0.0148997 	-1.57352e-05 	2.76665e-06 	0.0205352
0.0149498 	-7.86762e-06 	1.38332e-06 	0.0102676
0.015 	0 	0 	0
