-0.0075 	373
-0.00715932 	361.471
-0.00676191 	359.675
-0.00629832 	358.952
-0.00575752 	358.503
-0.00512667 	358.148
-0.00439077 	357.828
-0.00353231 	357.516
-0.00253089 	357.194
-0.00136271 	356.846
0 	356.459
0.00136271 	356.035
0.00253089 	355.59
0.00353231 	355.131
0.00439077 	354.644
0.00512667 	354.089
0.00575752 	353.385
0.00629832 	352.342
0.00676191 	350.097
0.00715932 	338.737
0.0075 	313
