/*--------------------------------*- C++ -*----------------------------------*\
| =========                 |                                                 |
| \\      /  F ield         | OpenFOAM: The Open Source CFD Toolbox           |
|  \\    /   O peration     | Version:  v1912                                 |
|   \\  /    A nd           | Website:  www.openfoam.com                      |
|    \\/     M anipulation  |                                                 |
\*---------------------------------------------------------------------------*/
FoamFile
{
    version     2.0;
    format      ascii;
    class       volScalarField;
    location    "10.4";
    object      T;
}
// * * * * * * * * * * * * * * * * * * * * * * * * * * * * * * * * * * * * * //

dimensions      [0 0 0 1 0 0 0];


internalField   nonuniform List<scalar> 
34128
(
371.842
371.838
371.825
371.844
371.845
371.83
371.836
371.846
371.848
371.86
371.862
371.852
369.515
369.501
369.464
369.521
369.524
369.476
369.494
369.526
369.534
369.567
369.573
369.544
367.157
367.13
367.07
367.169
367.171
367.084
367.115
367.177
367.194
367.245
367.25
367.201
364.776
364.733
364.651
364.794
364.794
364.66
364.706
364.809
364.838
364.901
364.899
364.828
362.387
362.323
362.222
362.409
362.405
362.218
362.282
362.436
362.482
362.549
362.533
362.439
360.015
359.926
359.807
360.035
360.026
359.78
359.868
360.085
360.149
360.21
360.174
360.056
357.69
357.575
357.439
357.701
357.685
357.381
357.501
357.788
357.867
357.912
357.852
357.709
355.454
355.314
355.163
355.448
355.421
355.067
355.228
355.584
355.671
355.691
355.606
355.443
353.348
353.189
353.029
353.322
353.278
352.888
353.097
353.515
353.601
353.588
353.482
353.304
351.413
351.244
351.084
351.37
351.303
350.895
351.153
351.619
351.692
351.642
351.522
351.338
349.681
349.514
349.367
349.631
349.536
349.129
349.43
349.923
349.975
349.891
349.766
349.584
348.174
348.022
347.899
348.131
348.003
347.615
347.946
348.444
348.473
348.362
348.238
348.064
346.898
346.771
346.678
346.871
346.714
346.357
346.701
347.184
347.193
347.067
346.947
346.785
345.849
345.753
345.691
345.844
345.664
345.35
345.685
346.134
346.133
346.005
345.887
345.74
345.019
344.951
344.916
345.032
344.842
344.578
344.884
345.285
345.283
345.164
345.046
344.917
344.386
344.341
344.326
344.41
344.226
344.015
344.277
344.62
344.624
344.522
344.403
344.293
343.923
343.896
343.892
343.95
343.786
343.628
343.837
344.117
344.131
344.048
343.93
343.842
343.599
343.582
343.585
343.624
343.489
343.378
343.534
343.751
343.774
343.708
343.595
343.531
343.381
343.371
343.376
343.402
343.301
343.229
343.336
343.496
343.523
343.471
343.37
343.327
343.241
343.235
343.241
343.258
343.19
343.147
343.214
343.324
343.351
343.309
343.226
343.2
343.155
343.152
343.159
343.171
343.129
343.105
343.142
343.214
343.236
343.201
343.139
343.126
343.105
343.104
343.112
343.12
343.097
343.084
343.102
343.145
343.159
343.132
343.09
343.084
343.077
343.077
343.085
343.091
343.081
343.073
343.081
343.103
343.11
343.089
343.064
343.062
343.062
343.061
343.069
343.074
343.071
343.067
343.068
343.079
343.079
343.064
343.05
343.049
343.052
343.051
343.059
343.063
343.064
343.061
343.06
343.064
343.06
343.05
343.042
343.042
343.045
343.044
343.05
343.054
343.058
343.055
343.054
343.055
343.048
343.043
343.037
343.036
343.038
343.037
343.042
343.047
343.051
343.048
343.048
343.048
343.04
343.039
343.032
343.031
343.032
343.03
343.035
343.039
343.044
343.041
343.041
343.042
343.035
343.036
343.028
343.027
343.026
343.024
343.028
343.033
343.037
343.034
343.034
343.036
343.032
343.032
343.024
343.022
343.02
343.019
343.022
343.027
343.03
343.027
343.027
343.03
343.028
343.029
343.019
343.017
343.015
343.014
343.017
343.021
343.023
343.021
343.021
343.024
343.025
343.024
343.015
343.013
343.01
343.01
343.012
343.016
343.018
343.015
343.015
343.019
343.021
343.019
343.011
343.009
343.007
343.007
343.008
343.012
343.013
343.011
343.011
343.014
343.018
343.015
343.008
343.006
343.004
343.004
343.005
343.008
343.009
343.007
343.007
343.01
343.014
343.011
343.005
343.004
343.002
343.002
343.003
343.005
343.006
343.005
343.005
343.007
343.01
343.007
343.003
343.002
343.001
343.001
343.002
343.003
343.004
343.003
343.003
343.004
343.007
343.004
343.002
343.001
343
343
343
343.002
343.002
343.002
343.002
343.003
343.005
343.002
343.001
343
343
343
343
343.001
343.001
343.001
343.001
343.001
343.003
343.001
343
343
342.999
342.999
342.999
343
343
343
343
343.001
343.001
343
343
343
342.999
342.999
342.999
343
343
343
343
343
343
342.999
342.999
342.999
342.999
342.999
342.999
342.999
343
343
343
343
343
342.999
342.999
342.999
342.999
342.999
342.999
342.999
342.999
343
343
342.999
342.999
342.999
342.999
342.999
342.999
342.999
342.999
342.999
342.999
343
343
342.999
342.999
342.999
342.999
342.999
342.999
342.999
342.999
342.999
342.999
343
343
342.999
342.999
342.999
342.999
342.999
342.999
342.999
342.999
342.999
342.999
343
343
342.999
342.999
342.999
342.999
342.999
342.999
342.999
342.999
342.999
342.999
343
343
342.999
342.999
342.999
342.999
342.999
342.999
342.999
342.999
342.999
343
343
343
342.999
342.999
342.999
342.999
342.999
342.999
342.999
342.999
343
343
343
343
342.999
342.999
342.999
342.999
342.999
343
343
342.999
343
343
343
343
342.999
342.999
342.999
343
343
343
343
343
343
343
343
343
343
342.999
342.999
343
343
343
343
343
343
343
343
343
343
342.999
343
343
343
343
343
343
343
343
343
343
343
343
343
343
343
343
343
343
343
343
343
343
343
343
343
343
343
343
343
343
343
343
343
343
343
343
343
343
343
343
343
343
343
343
343
343
343
343
343
343
343
343
343
343
343
343
343
343
343
343
343
343
343
343
343
343
343
343
343
343
343
343
343
343
343
343
343
343
343
343
343
343
343
343
343
343
343
343
343
343
343
343
343
343
343
343
343
343
343
343
343
343
343
343
343
343
343
343
343
343
343
343
343
343
343
343
343
343
343
343
343
343
343
343
343
343
343
343
343
343
343
343
343
343
343
343
343
343
343
343
343
343
343
343
343
343
343
343
343
343
343
343
343
343
343
343
343
343
343
343
343
343
343
343
343
343
343
343
343
343
343
343
343
343
343
343
343
343
343
343
343
343
343
343
343
343
343
343
343
343
343
343
343
343
343
343
343
343
343
343
343
343
343
343
343
343
343
343
343
343
343
343
343
343
343
343
343
343
343
343
343
343
343
343
343
343
343
343
343
343
343
343
343
343
343
343
343
343
343
343
343
343
343
343
343
343
343
343
343
343
343
343
343
343
343
343
343
343
343
343
343
343
343
343
343
343
343
343
343
343
343
343
343
343
343
343
343
343
343
343
343
343
343
343
343
343
343
343
343
343
343
343
343
343
343
343
343
343
343
343
343
343
343
343
343
343
343
343
343
343
343
343
343
343
343
343
343
343
343
343
343
343
343
343
343
343
343
343
343
343
343
343
343
343
343
343
343
343
343
371.818
371.812
371.801
371.822
371.822
371.803
371.809
371.822
371.826
371.835
371.836
371.827
369.442
369.423
369.39
369.455
369.454
369.395
369.412
369.456
369.468
369.494
369.495
369.467
367.035
367.001
366.947
367.056
367.054
366.948
366.98
367.062
367.086
367.124
367.119
367.072
364.608
364.555
364.48
364.635
364.628
364.469
364.522
364.654
364.691
364.734
364.717
364.649
362.179
362.102
362.009
362.207
362.193
361.974
362.055
362.249
362.3
362.34
362.304
362.212
359.772
359.67
359.558
359.795
359.769
359.488
359.609
359.874
359.938
359.963
359.904
359.788
357.421
357.293
357.167
357.432
357.387
357.049
357.221
357.563
357.634
357.634
357.548
357.409
355.163
355.015
354.879
355.16
355.09
354.702
354.935
355.351
355.421
355.389
355.277
355.118
353.039
352.878
352.742
353.025
352.921
352.498
352.797
353.277
353.337
353.268
353.134
352.962
351.087
350.925
350.8
351.072
350.927
350.488
350.846
351.372
351.416
351.313
351.163
350.982
349.34
349.189
349.086
349.335
349.149
348.711
349.113
349.664
349.691
349.561
349.401
349.217
347.823
347.693
347.617
347.835
347.612
347.195
347.619
348.168
348.185
348.04
347.873
347.691
346.547
346.444
346.393
346.577
346.329
345.949
346.368
346.893
346.908
346.764
346.588
346.414
345.511
345.434
345.404
345.552
345.298
344.969
345.356
345.837
345.859
345.728
345.545
345.384
344.702
344.648
344.63
344.745
344.505
344.236
344.571
344.991
345.027
344.916
344.729
344.588
344.096
344.06
344.046
344.133
343.924
343.72
343.989
344.337
344.389
344.301
344.117
344
343.663
343.639
343.626
343.687
343.522
343.379
343.579
343.852
343.915
343.848
343.679
343.588
343.367
343.352
343.338
343.379
343.261
343.171
343.305
343.507
343.575
343.526
343.381
343.316
343.177
343.169
343.154
343.178
343.103
343.052
343.134
343.273
343.338
343.302
343.191
343.147
343.063
343.06
343.045
343.056
343.014
342.991
343.035
343.122
343.177
343.154
343.078
343.051
343.001
343.001
342.988
342.989
342.97
342.963
342.982
343.03
343.073
343.06
343.016
343
342.973
342.975
342.963
342.957
342.951
342.952
342.959
342.98
343.01
343.005
342.987
342.978
342.964
342.966
342.956
342.946
342.946
342.951
342.952
342.957
342.974
342.977
342.976
342.971
342.965
342.966
342.958
342.947
342.948
342.954
342.954
342.951
342.958
342.967
342.975
342.972
342.97
342.971
342.964
342.953
342.953
342.959
342.96
342.953
342.954
342.967
342.978
342.977
342.976
342.976
342.971
342.961
342.96
342.964
342.966
342.961
342.958
342.972
342.981
342.981
342.982
342.981
342.977
342.97
342.967
342.97
342.973
342.969
342.966
342.979
342.985
342.985
342.986
342.984
342.982
342.977
342.973
342.974
342.978
342.977
342.975
342.984
342.987
342.988
342.99
342.987
342.987
342.984
342.979
342.979
342.982
342.984
342.983
342.989
342.989
342.99
342.993
342.99
342.99
342.989
342.984
342.983
342.986
342.989
342.99
342.992
342.99
342.992
342.994
342.991
342.992
342.992
342.988
342.986
342.988
342.993
342.995
342.993
342.991
342.993
342.996
342.993
342.994
342.995
342.991
342.989
342.991
342.995
342.998
342.994
342.991
342.993
342.996
342.994
342.995
342.996
342.994
342.992
342.993
342.997
342.999
342.995
342.992
342.994
342.997
342.995
342.996
342.997
342.995
342.994
342.994
342.998
343
342.995
342.993
342.995
342.997
342.995
342.997
342.998
342.997
342.996
342.996
342.998
343
342.995
342.994
342.996
342.997
342.996
342.997
342.998
342.998
342.997
342.997
342.998
342.999
342.996
342.995
342.997
342.998
342.997
342.998
342.999
342.998
342.998
342.998
342.998
342.999
342.996
342.996
342.997
342.998
342.997
342.998
342.999
342.999
342.999
342.998
342.999
342.999
342.997
342.997
342.998
342.998
342.998
342.998
342.999
342.999
342.999
342.999
342.999
342.998
342.997
342.997
342.998
342.998
342.998
342.998
342.999
342.999
342.999
342.999
342.999
342.998
342.998
342.998
342.998
342.998
342.998
342.999
342.999
342.999
342.999
342.999
342.999
342.998
342.998
342.998
342.999
342.999
342.998
342.999
342.999
342.999
342.999
342.999
342.999
342.998
342.998
342.999
342.999
342.999
342.999
342.999
342.999
342.999
342.999
342.999
342.999
342.998
342.998
342.999
342.999
342.999
342.999
342.999
342.999
342.999
343
342.999
342.999
342.999
342.999
342.999
342.999
342.999
342.999
342.999
342.999
342.999
343
343
342.999
342.999
342.999
342.999
342.999
342.999
342.999
342.999
342.999
343
343
343
342.999
342.999
342.999
342.999
342.999
342.999
342.999
342.999
342.999
343
343
343
342.999
342.999
342.999
342.999
342.999
342.999
342.999
342.999
343
343
343
343
342.999
342.999
342.999
342.999
342.999
343
343
342.999
343
343
343
343
343
342.999
342.999
343
343
343
343
343
343
343
343
343
343
342.999
342.999
343
343
343
343
343
343
343
343
343
343
343
343
343
343
343
343
343
343
343
343
343
343
343
343
343
343
343
343
343
343
343
343
343
343
343
343
343
343
343
343
343
343
343
343
343
343
343
343
343
343
343
343
343
343
343
343
343
343
343
343
343
343
343
343
343
343
343
343
343
343
343
343
343
343
343
343
343
343
343
343
343
343
343
343
343
343
343
343
343
343
343
343
343
343
343
343
343
343
343
343
343
343
343
343
343
343
343
343
343
343
343
343
343
343
343
343
343
343
343
343
343
343
343
343
343
343
343
343
343
343
343
343
343
343
343
343
343
343
343
343
343
343
343
343
343
343
343
343
343
343
343
343
343
343
343
343
343
343
343
343
343
343
343
343
343
343
343
343
343
343
343
343
343
343
343
343
343
343
343
343
343
343
343
343
343
343
343
343
343
343
343
343
343
343
343
343
343
343
343
343
343
343
343
343
343
343
343
343
343
343
343
343
343
343
343
343
343
343
343
343
343
343
343
343
343
343
343
343
343
343
343
343
343
343
343
343
343
343
343
343
343
343
343
343
343
343
343
343
343
343
343
343
343
343
343
343
343
343
343
343
343
343
343
343
343
343
343
343
343
343
343
343
343
343
343
343
343
343
343
343
343
343
343
343
343
343
343
343
343
343
343
343
343
343
343
343
343
343
343
343
343
343
343
343
343
343
343
343
343
343
343
343
343
343
343
343
343
343
343
343
343
343
343
343
343
343
343
343
343
343
343
343
343
343
343
343
343
343
343
343
343
343
343
343
343
343
343
343
343
343
371.777
371.768
371.757
371.78
371.779
371.756
371.762
371.781
371.786
371.793
371.791
371.782
369.318
369.291
369.26
369.328
369.323
369.251
369.274
369.333
369.35
369.368
369.361
369.331
366.829
366.781
366.729
366.844
366.831
366.705
366.75
366.859
366.889
366.914
366.895
366.843
364.32
364.248
364.177
364.336
364.312
364.126
364.202
364.374
364.418
364.44
364.403
364.326
361.812
361.712
361.624
361.825
361.783
361.531
361.652
361.899
361.957
361.965
361.902
361.799
359.333
359.205
359.104
359.337
359.269
358.952
359.132
359.463
359.53
359.513
359.419
359.291
356.918
356.767
356.659
356.915
356.811
356.433
356.685
357.102
357.172
357.121
356.995
356.842
354.614
354.447
354.342
354.608
354.456
354.029
354.36
354.857
354.923
354.833
354.675
354.503
352.466
352.295
352.203
352.466
352.26
351.8
352.204
352.767
352.826
352.699
352.511
352.325
350.519
350.357
350.287
350.535
350.274
349.8
350.263
350.867
350.921
350.764
350.551
350.357
348.809
348.666
348.622
348.846
348.537
348.071
348.567
349.187
349.241
349.067
348.832
348.636
347.358
347.24
347.219
347.414
347.074
346.638
347.136
347.743
347.805
347.629
347.373
347.184
346.168
346.074
346.069
346.234
345.887
345.502
345.969
346.537
346.615
346.449
346.175
346.001
345.227
345.154
345.158
345.293
344.965
344.645
345.054
345.561
345.659
345.509
345.226
345.076
344.511
344.456
344.462
344.569
344.283
344.036
344.368
344.799
344.914
344.783
344.505
344.384
343.991
343.949
343.954
344.037
343.807
343.631
343.88
344.227
344.35
344.236
343.98
343.892
343.629
343.599
343.602
343.664
343.494
343.378
343.55
343.814
343.934
343.835
343.617
343.558
343.39
343.369
343.373
343.416
343.301
343.23
343.339
343.528
343.636
343.549
343.378
343.343
343.242
343.227
343.233
343.26
343.189
343.149
343.211
343.338
343.426
343.352
343.229
343.211
343.154
343.145
343.153
343.169
343.127
343.106
343.139
343.218
343.281
343.221
343.141
343.134
343.106
343.101
343.109
343.118
343.095
343.084
343.1
343.145
343.185
343.139
343.092
343.091
343.08
343.077
343.086
343.09
343.079
343.073
343.08
343.103
343.124
343.091
343.066
343.068
343.066
343.065
343.073
343.076
343.07
343.066
343.07
343.08
343.087
343.066
343.053
343.055
343.057
343.057
343.064
343.067
343.065
343.062
343.065
343.068
343.066
343.054
343.047
343.048
343.051
343.051
343.057
343.061
343.061
343.058
343.06
343.061
343.054
343.049
343.042
343.043
343.044
343.045
343.05
343.056
343.057
343.053
343.054
343.056
343.049
343.046
343.038
343.038
343.038
343.039
343.043
343.05
343.051
343.047
343.048
343.051
343.045
343.042
343.034
343.033
343.032
343.033
343.036
343.043
343.045
343.041
343.041
343.045
343.042
343.038
343.029
343.028
343.026
343.026
343.029
343.036
343.038
343.034
343.033
343.038
343.038
343.033
343.024
343.023
343.02
343.02
343.023
343.029
343.031
343.027
343.026
343.032
343.033
343.026
343.019
343.018
343.015
343.014
343.017
343.022
343.024
343.021
343.02
343.025
343.027
343.02
343.014
343.014
343.01
343.01
343.012
343.016
343.018
343.016
343.015
343.019
343.02
343.015
343.01
343.01
343.007
343.006
343.008
343.011
343.013
343.012
343.01
343.013
343.015
343.01
343.007
343.007
343.004
343.004
343.005
343.007
343.009
343.008
343.007
343.009
343.01
343.006
343.005
343.005
343.002
343.002
343.003
343.004
343.006
343.005
343.005
343.006
343.006
343.004
343.003
343.003
343.001
343.001
343.001
343.003
343.004
343.003
343.003
343.004
343.003
343.002
343.002
343.002
343
343
343
343.001
343.002
343.002
343.002
343.002
343.001
343
343.001
343.001
342.999
342.999
343
343
343.001
343.001
343.001
343.001
343
343
343
343
342.999
342.999
342.999
343
343
343
343
343
342.999
342.999
343
343
342.999
342.999
342.999
343
343
343
343
343
342.999
342.999
343
343
342.999
342.999
342.999
342.999
343
343
343
342.999
342.999
342.999
342.999
342.999
342.999
342.999
342.999
342.999
343
343
343
342.999
342.999
342.999
342.999
342.999
342.999
342.999
342.999
342.999
342.999
343
343
342.999
342.999
342.999
342.999
342.999
342.999
342.999
342.999
342.999
342.999
343
343
342.999
342.999
342.999
342.999
342.999
342.999
342.999
342.999
342.999
342.999
343
343
342.999
342.999
342.999
342.999
342.999
342.999
342.999
342.999
342.999
343
343
343
342.999
342.999
342.999
342.999
342.999
342.999
342.999
342.999
342.999
343
343
343
342.999
342.999
342.999
342.999
342.999
343
343
342.999
343
343
343
343
343
342.999
342.999
342.999
342.999
343
343
342.999
343
343
343
343
343
342.999
343
343
342.999
343
343
343
343
343
343
343
343
343
343
343
343
343
343
343
343
343
343
343
343
343
343
343
343
343
343
343
343
343
343
343
343
343
343
343
343
343
343
343
343
343
343
343
343
343
343
343
343
343
343
343
343
343
343
343
343
343
343
343
343
343
343
343
343
343
343
343
343
343
343
343
343
343
343
343
343
343
343
343
343
343
343
343
343
343
343
343
343
343
343
343
343
343
343
343
343
343
343
343
343
343
343
343
343
343
343
343
343
343
343
343
343
343
343
343
343
343
343
343
343
343
343
343
343
343
343
343
343
343
343
343
343
343
343
343
343
343
343
343
343
343
343
343
343
343
343
343
343
343
343
343
343
343
343
343
343
343
343
343
343
343
343
343
343
343
343
343
343
343
343
343
343
343
343
343
343
343
343
343
343
343
343
343
343
343
343
343
343
343
343
343
343
343
343
343
343
343
343
343
343
343
343
343
343
343
343
343
343
343
343
343
343
343
343
343
343
343
343
343
343
343
343
343
343
343
343
343
343
343
343
343
343
343
343
343
343
343
343
343
343
343
343
343
343
343
343
343
343
343
343
343
343
343
343
343
343
343
343
343
343
343
343
343
343
343
343
343
343
343
343
343
343
343
343
343
343
343
343
343
343
343
343
343
343
343
343
343
343
343
343
343
343
343
343
343
343
343
343
343
343
343
343
343
343
343
343
343
343
343
343
343
343
343
343
343
343
343
343
343
343
343
343
343
343
343
343
343
343
343
343
343
343
343
343
343
343
343
343
343
343
343
343
343
343
343
343
343
343
343
343
343
343
343
343
343
343
343
343
343
343
371.747
371.737
371.727
371.751
371.749
371.722
371.73
371.754
371.76
371.764
371.76
371.75
369.229
369.198
369.169
369.241
369.232
369.149
369.179
369.253
369.272
369.28
369.266
369.235
366.681
366.626
366.579
366.699
366.679
366.535
366.594
366.728
366.76
366.767
366.737
366.683
364.117
364.034
363.972
364.137
364.099
363.889
363.991
364.197
364.241
364.238
364.184
364.106
361.558
361.447
361.374
361.578
361.512
361.232
361.394
361.683
361.737
361.711
361.629
361.526
359.034
358.897
358.82
359.056
358.949
358.6
358.837
359.216
359.275
359.219
359.101
358.973
356.584
356.427
356.354
356.613
356.452
356.04
356.363
356.83
356.892
356.799
356.643
356.49
354.252
354.085
354.026
354.296
354.071
353.608
354.018
354.565
354.627
354.497
354.3
354.127
352.086
351.918
351.881
352.151
351.86
351.364
351.848
352.457
352.524
352.364
352.124
351.934
350.13
349.971
349.957
350.219
349.87
349.365
349.898
350.542
350.622
350.442
350.159
349.959
348.42
348.276
348.28
348.527
348.14
347.654
348.2
348.849
348.951
348.765
348.441
348.241
346.976
346.849
346.865
347.091
346.696
346.256
346.777
347.399
347.528
347.346
346.991
346.8
345.802
345.692
345.711
345.912
345.541
345.169
345.629
346.196
346.352
346.182
345.812
345.642
344.886
344.792
344.808
344.981
344.662
344.37
344.745
345.233
345.41
345.255
344.893
344.751
344.202
344.123
344.135
344.276
344.026
343.815
344.096
344.492
344.676
344.537
344.208
344.099
343.715
343.652
343.659
343.769
343.592
343.451
343.642
343.945
344.121
343.998
343.722
343.645
343.388
343.34
343.344
343.423
343.31
343.224
343.342
343.557
343.713
343.607
343.397
343.344
343.181
343.147
343.149
343.2
343.137
343.09
343.154
343.294
343.421
343.336
343.191
343.157
343.06
343.037
343.037
343.066
343.037
343.013
343.043
343.126
343.22
343.157
343.069
343.048
342.995
342.982
342.979
342.991
342.981
342.973
342.984
343.025
343.088
343.049
343.005
342.99
342.964
342.959
342.952
342.954
342.954
342.954
342.957
342.97
343.009
342.991
342.975
342.965
342.954
342.954
342.944
342.94
342.943
342.947
342.947
342.946
342.966
342.966
342.966
342.959
342.954
342.957
342.946
342.939
342.942
342.948
342.948
342.94
342.948
342.96
342.967
342.962
342.959
342.964
342.952
342.945
342.946
342.952
342.952
342.944
342.946
342.963
342.973
342.969
342.966
342.971
342.96
342.954
342.953
342.958
342.959
342.952
342.953
342.97
342.979
342.977
342.973
342.977
342.968
342.963
342.96
342.964
342.965
342.962
342.962
342.976
342.984
342.983
342.979
342.982
342.975
342.97
342.966
342.969
342.97
342.97
342.972
342.981
342.987
342.988
342.984
342.985
342.981
342.977
342.972
342.974
342.975
342.977
342.979
342.984
342.989
342.991
342.987
342.987
342.985
342.981
342.977
342.978
342.979
342.982
342.985
342.985
342.99
342.993
342.989
342.989
342.988
342.985
342.981
342.981
342.982
342.986
342.988
342.986
342.991
342.994
342.991
342.99
342.99
342.988
342.984
342.985
342.985
342.989
342.989
342.987
342.992
342.994
342.992
342.992
342.992
342.99
342.987
342.988
342.988
342.991
342.99
342.988
342.992
342.995
342.994
342.993
342.994
342.992
342.99
342.99
342.991
342.992
342.991
342.989
342.993
342.996
342.995
342.994
342.995
342.994
342.992
342.993
342.993
342.993
342.992
342.991
342.994
342.996
342.996
342.995
342.996
342.995
342.994
342.995
342.995
342.995
342.993
342.993
342.995
342.997
342.996
342.996
342.997
342.996
342.996
342.996
342.996
342.996
342.994
342.994
342.996
342.997
342.997
342.997
342.997
342.997
342.997
342.997
342.997
342.996
342.995
342.995
342.996
342.997
342.998
342.997
342.998
342.998
342.998
342.998
342.998
342.997
342.996
342.996
342.997
342.998
342.998
342.998
342.998
342.998
342.998
342.999
342.998
342.998
342.997
342.997
342.997
342.998
342.998
342.998
342.998
342.999
342.999
342.999
342.999
342.998
342.998
342.998
342.998
342.998
342.999
342.998
342.998
342.999
342.999
342.999
342.999
342.998
342.998
342.998
342.998
342.998
342.999
342.999
342.999
342.999
342.999
342.999
342.999
342.998
342.998
342.999
342.998
342.998
342.999
342.999
342.999
342.999
342.999
342.999
342.999
342.999
342.999
342.999
342.999
342.999
342.999
342.999
342.999
342.999
342.999
342.999
342.999
342.999
342.999
342.999
342.999
342.999
342.999
342.999
342.999
342.999
342.999
343
342.999
342.999
342.999
342.999
342.999
342.999
342.999
342.999
342.999
342.999
342.999
343
342.999
342.999
342.999
342.999
342.999
342.999
342.999
342.999
342.999
342.999
342.999
343
343
342.999
342.999
342.999
342.999
342.999
343
343
342.999
342.999
343
343
343
342.999
342.999
342.999
342.999
342.999
343
343
342.999
342.999
343
343
343
342.999
342.999
343
342.999
342.999
343
343
342.999
342.999
343
343
343
343
343
343
342.999
342.999
343
343
343
343
343
343
343
343
343
343
343
343
343
343
343
343
343
343
343
343
343
343
343
343
343
343
343
343
343
343
343
343
343
343
343
343
343
343
343
343
343
343
343
343
343
343
343
343
343
343
343
343
343
343
343
343
343
343
343
343
343
343
343
343
343
343
343
343
343
343
343
343
343
343
343
343
343
343
343
343
343
343
343
343
343
343
343
343
343
343
343
343
343
343
343
343
343
343
343
343
343
343
343
343
343
343
343
343
343
343
343
343
343
343
343
343
343
343
343
343
343
343
343
343
343
343
343
343
343
343
343
343
343
343
343
343
343
343
343
343
343
343
343
343
343
343
343
343
343
343
343
343
343
343
343
343
343
343
343
343
343
343
343
343
343
343
343
343
343
343
343
343
343
343
343
343
343
343
343
343
343
343
343
343
343
343
343
343
343
343
343
343
343
343
343
343
343
343
343
343
343
343
343
343
343
343
343
343
343
343
343
343
343
343
343
343
343
343
343
343
343
343
343
343
343
343
343
343
343
343
343
343
343
343
343
343
343
343
343
343
343
343
343
343
343
343
343
343
343
343
343
343
343
343
343
343
343
343
343
343
343
343
343
343
343
343
343
343
343
343
343
343
343
343
343
343
343
343
343
343
343
343
343
343
343
343
343
343
343
343
343
343
343
343
343
343
343
343
343
343
343
343
343
343
343
343
343
343
343
343
343
343
343
343
343
343
343
343
343
343
343
343
343
343
343
343
343
343
343
343
343
343
343
343
343
343
343
343
343
343
343
343
343
343
343
343
343
343
371.698
371.685
371.675
371.7
371.695
371.664
371.677
371.706
371.713
371.713
371.707
371.695
369.081
369.041
369.014
369.088
369.07
368.976
369.02
369.111
369.13
369.129
369.107
369.072
366.433
366.365
366.324
366.444
366.407
366.244
366.331
366.493
366.525
366.515
366.471
366.411
363.77
363.672
363.621
363.785
363.716
363.48
363.626
363.872
363.914
363.885
363.813
363.726
361.115
360.987
360.934
361.137
361.021
360.71
360.933
361.272
361.323
361.266
361.156
361.041
358.502
358.35
358.305
358.539
358.36
357.976
358.29
358.726
358.786
358.693
358.537
358.394
355.978
355.808
355.78
356.037
355.783
355.334
355.744
356.273
356.345
356.214
356.004
355.834
353.596
353.418
353.413
353.683
353.352
352.856
353.351
353.957
354.048
353.883
353.614
353.422
351.413
351.234
351.253
351.528
351.129
350.612
351.166
351.825
351.945
351.755
351.423
351.217
349.477
349.305
349.343
349.614
349.172
348.665
349.239
349.919
350.076
349.871
349.483
349.274
347.825
347.663
347.711
347.969
347.519
347.055
347.606
348.27
348.468
348.258
347.827
347.63
346.47
346.321
346.372
346.609
346.187
345.793
346.28
346.894
347.127
346.92
346.47
346.297
345.404
345.269
345.318
345.526
345.164
344.854
345.251
345.786
346.041
345.839
345.403
345.263
344.602
344.484
344.529
344.701
344.417
344.191
344.487
344.927
345.185
344.992
344.599
344.497
344.028
343.928
343.97
344.104
343.899
343.747
343.948
344.287
344.527
344.348
344.022
343.954
343.638
343.558
343.597
343.693
343.559
343.462
343.586
343.831
344.036
343.877
343.629
343.589
343.389
343.328
343.362
343.426
343.345
343.286
343.356
343.521
343.681
343.547
343.375
343.354
343.238
343.194
343.223
343.262
343.216
343.181
343.218
343.32
343.433
343.33
343.22
343.211
343.151
343.123
343.145
343.167
343.141
343.12
343.14
343.197
343.269
343.196
343.132
343.13
343.104
343.088
343.103
343.116
343.099
343.087
343.099
343.129
343.167
343.12
343.086
343.087
343.08
343.072
343.081
343.09
343.078
343.071
343.08
343.094
343.109
343.082
343.064
343.067
343.067
343.066
343.07
343.078
343.068
343.064
343.071
343.078
343.08
343.066
343.056
343.059
343.06
343.063
343.065
343.072
343.064
343.061
343.067
343.073
343.067
343.06
343.053
343.055
343.056
343.059
343.061
343.069
343.062
343.059
343.063
343.07
343.063
343.056
343.05
343.053
343.052
343.055
343.058
343.065
343.059
343.057
343.06
343.067
343.061
343.053
343.047
343.049
343.046
343.048
343.053
343.059
343.056
343.053
343.054
343.063
343.058
343.048
343.043
343.044
343.039
343.041
343.047
343.052
343.05
343.048
343.048
343.056
343.053
343.042
343.037
343.039
343.032
343.034
343.04
343.044
343.044
343.041
343.041
343.048
343.046
343.035
343.032
343.032
343.025
343.027
343.033
343.036
343.037
343.035
343.034
343.039
343.037
343.028
343.026
343.026
343.018
343.02
343.026
343.028
343.03
343.028
343.027
343.03
343.029
343.022
343.021
343.02
343.013
343.015
343.02
343.022
343.023
343.022
343.02
343.022
343.021
343.017
343.016
343.015
343.009
343.011
343.015
343.016
343.018
343.016
343.015
343.015
343.015
343.013
343.012
343.011
343.005
343.007
343.011
343.012
343.013
343.012
343.011
343.01
343.01
343.009
343.009
343.008
343.003
343.005
343.007
343.008
343.009
343.008
343.007
343.006
343.006
343.007
343.006
343.005
343.002
343.003
343.005
343.006
343.006
343.006
343.005
343.004
343.004
343.005
343.004
343.003
343.001
343.001
343.003
343.004
343.004
343.004
343.003
343.002
343.002
343.003
343.002
343.002
343
343
343.001
343.002
343.002
343.002
343.002
343.001
343.001
343.002
343.001
343.001
343
343
343
343.001
343.001
343.001
343.001
343
343
343.001
343
343
342.999
342.999
343
343
343.001
343
343
343
343
343
343
342.999
342.999
342.999
342.999
343
343
343
343
342.999
343
343
342.999
342.999
342.999
342.999
342.999
343
343
343
343
342.999
343
343
342.999
342.999
342.999
342.999
342.999
342.999
343
342.999
343
342.999
342.999
343
342.999
342.999
342.999
342.999
342.999
342.999
342.999
342.999
343
342.999
342.999
342.999
342.999
342.999
342.999
342.999
342.999
342.999
342.999
342.999
342.999
342.999
342.999
342.999
342.999
342.999
342.999
342.999
342.999
342.999
342.999
342.999
343
342.999
342.999
342.999
342.999
342.999
343
342.999
342.999
342.999
342.999
342.999
343
342.999
342.999
342.999
342.999
342.999
343
343
342.999
342.999
342.999
343
343
342.999
342.999
342.999
342.999
342.999
343
343
342.999
342.999
342.999
343
343
342.999
343
343
342.999
342.999
343
343
342.999
342.999
343
343
343
343
343
343
342.999
342.999
343
343
342.999
342.999
343
343
343
343
343
343
342.999
342.999
343
343
343
343
343
343
343
343
343
343
342.999
343
343
343
343
343
343
343
343
343
343
343
343
343
343
343
343
343
343
343
343
343
343
343
343
343
343
343
343
343
343
343
343
343
343
343
343
343
343
343
343
343
343
343
343
343
343
343
343
343
343
343
343
343
343
343
343
343
343
343
343
343
343
343
343
343
343
343
343
343
343
343
343
343
343
343
343
343
343
343
343
343
343
343
343
343
343
343
343
343
343
343
343
343
343
343
343
343
343
343
343
343
343
343
343
343
343
343
343
343
343
343
343
343
343
343
343
343
343
343
343
343
343
343
343
343
343
343
343
343
343
343
343
343
343
343
343
343
343
343
343
343
343
343
343
343
343
343
343
343
343
343
343
343
343
343
343
343
343
343
343
343
343
343
343
343
343
343
343
343
343
343
343
343
343
343
343
343
343
343
343
343
343
343
343
343
343