0 	0 	0 	0
0 	-1.00298e-35 	-1.44139e-36 	1.84991e-31
5.01672e-05 	-8.50511e-07 	-1.83121e-07 	0.0172587
5.01672e-05 	-8.50511e-07 	-1.83121e-07 	0.0172587
0.000100334 	-1.02341e-06 	-7.87362e-07 	0.0332163
0.000150502 	-1.11576e-06 	-1.84212e-06 	0.0480338
0.000150502 	-1.11576e-06 	-1.84212e-06 	0.0480338
0.000200669 	-1.30646e-06 	-3.35216e-06 	0.0617931
0.000200669 	-1.30646e-06 	-3.35216e-06 	0.0617931
0.000250836 	-1.54048e-06 	-5.28761e-06 	0.0745719
0.000301003 	-1.77033e-06 	-7.63877e-06 	0.0864348
0.000301003 	-1.77033e-06 	-7.63877e-06 	0.0864348
0.000351171 	-1.98156e-06 	-1.03975e-05 	0.0974239
0.000401338 	-2.17041e-06 	-1.35697e-05 	0.107559
0.000451505 	-2.33633e-06 	-1.71774e-05 	0.116854
0.000451505 	-2.33633e-06 	-1.71774e-05 	0.116854
0.000501672 	-2.47956e-06 	-2.12557e-05 	0.125334
0.000551839 	-2.60052e-06 	-2.58416e-05 	0.133046
0.000551839 	-2.60052e-06 	-2.58416e-05 	0.133046
0.000602007 	-2.69977e-06 	-3.09645e-05 	0.140049
0.000602007 	-2.69977e-06 	-3.09645e-05 	0.140049
0.000652174 	-2.778e-06 	-3.6646e-05 	0.146415
0.000652174 	-2.778e-06 	-3.6646e-05 	0.146415
0.000702341 	-2.83607e-06 	-4.29048e-05 	0.152216
0.000702341 	-2.83607e-06 	-4.29048e-05 	0.152216
0.000752508 	-2.87488e-06 	-4.9757e-05 	0.157522
0.000802676 	-2.89513e-06 	-5.72178e-05 	0.162388
0.000852843 	-2.89501e-06 	-6.53845e-05 	0.166807
0.000852843 	-2.89501e-06 	-6.53845e-05 	0.166807
0.00090301 	-2.87887e-06 	-7.41296e-05 	0.17089
0.00090301 	-2.87887e-06 	-7.41296e-05 	0.17089
0.000953177 	-2.84843e-06 	-8.3403e-05 	0.174674
0.00100334 	-2.80526e-06 	-9.31526e-05 	0.178195
0.00100334 	-2.80526e-06 	-9.31526e-05 	0.178195
0.00105351 	-2.75075e-06 	-0.000103328 	0.181486
0.00105351 	-2.75075e-06 	-0.000103328 	0.181486
0.00110368 	-2.68591e-06 	-0.000113893 	0.184571
0.00115385 	-2.60939e-06 	-0.00012489 	0.187426
0.00120401 	-2.52508e-06 	-0.000136165 	0.190131
0.00120401 	-2.52508e-06 	-0.000136165 	0.190131
0.00130435 	-2.33616e-06 	-0.000159415 	0.195146
0.00130435 	-2.33616e-06 	-0.000159415 	0.195146
0.00135452 	-2.23131e-06 	-0.000171378 	0.197451
0.00135452 	-2.23131e-06 	-0.000171378 	0.197451
0.00140468 	-2.12111e-06 	-0.000183497 	0.199645
0.00145485 	-2.00703e-06 	-0.00019572 	0.201755
0.00145485 	-2.00703e-06 	-0.00019572 	0.201755
0.00150502 	-1.88949e-06 	-0.000208029 	0.203788
0.00150502 	-1.88949e-06 	-0.000208029 	0.203788
0.00155518 	-1.76745e-06 	-0.000220422 	0.205714
0.00155518 	-1.76745e-06 	-0.000220422 	0.205714
0.00160535 	-1.64294e-06 	-0.000232829 	0.207579
0.00160535 	-1.64294e-06 	-0.000232829 	0.207579
0.00165552 	-1.51624e-06 	-0.000245238 	0.209391
0.00165552 	-1.51624e-06 	-0.000245238 	0.209391
0.00170569 	-1.38653e-06 	-0.000257612 	0.211132
0.00170569 	-1.38653e-06 	-0.000257612 	0.211132
0.00175585 	-1.2544e-06 	-0.000269906 	0.212817
0.00175585 	-1.2544e-06 	-0.000269906 	0.212817
0.00180602 	-1.12062e-06 	-0.000282129 	0.214464
0.00180602 	-1.12062e-06 	-0.000282129 	0.214464
0.00185619 	-9.84472e-07 	-0.000294217 	0.216058
0.00185619 	-9.84472e-07 	-0.000294217 	0.216058
0.00190635 	-8.46325e-07 	-0.000306133 	0.217606
0.00190635 	-8.46325e-07 	-0.000306133 	0.217606
0.00195652 	-7.06938e-07 	-0.00031793 	0.219125
0.00195652 	-7.06938e-07 	-0.00031793 	0.219125
0.00200669 	-5.65436e-07 	-0.000329481 	0.220597
0.00200669 	-5.65436e-07 	-0.000329481 	0.220597
0.00205686 	-4.22475e-07 	-0.000340815 	0.222036
0.00210702 	-2.78547e-07 	-0.000352004 	0.223453
0.00210702 	-2.78547e-07 	-0.000352004 	0.223453
0.00215719 	-1.32351e-07 	-0.000362787 	0.224821
0.00220736 	1.47019e-08 	-0.000373392 	0.226171
0.00225753 	1.63128e-07 	-0.000383712 	0.227492
0.00225753 	1.63128e-07 	-0.000383712 	0.227492
0.00230769 	3.13175e-07 	-0.000393661 	0.22878
0.00230769 	3.13175e-07 	-0.000393661 	0.22878
0.00235786 	4.63924e-07 	-0.000403449 	0.230055
0.00235786 	4.63924e-07 	-0.000403449 	0.230055
0.00240803 	6.16834e-07 	-0.000412711 	0.231288
0.00240803 	6.16834e-07 	-0.000412711 	0.231288
0.00245819 	7.70525e-07 	-0.00042178 	0.232509
0.00245819 	7.70525e-07 	-0.00042178 	0.232509
0.00250836 	9.25796e-07 	-0.000430457 	0.233702
0.00250836 	9.25796e-07 	-0.000430457 	0.233702
0.00255853 	1.08253e-06 	-0.000438774 	0.234871
0.0026087 	1.2403e-06 	-0.000446835 	0.236024
0.0026087 	1.2403e-06 	-0.000446835 	0.236024
0.00265886 	1.40023e-06 	-0.000454378 	0.237145
0.00270903 	1.56068e-06 	-0.000461798 	0.238258
0.00270903 	1.56068e-06 	-0.000461798 	0.238258
0.0027592 	1.72396e-06 	-0.000468554 	0.239333
0.00280936 	1.88772e-06 	-0.000475202 	0.240401
0.00280936 	1.88772e-06 	-0.000475202 	0.240401
0.00285953 	2.05404e-06 	-0.000481278 	0.241436
0.00285953 	2.05404e-06 	-0.000481278 	0.241436
0.0029097 	2.22128e-06 	-0.000487159 	0.242461
0.0029097 	2.22128e-06 	-0.000487159 	0.242461
0.00295987 	2.39085e-06 	-0.00049255 	0.243457
0.00295987 	2.39085e-06 	-0.00049255 	0.243457
0.00301003 	2.56178e-06 	-0.00049769 	0.24444
0.0030602 	2.73495e-06 	-0.00050241 	0.245398
0.00311037 	2.90988e-06 	-0.000506853 	0.246339
0.00311037 	2.90988e-06 	-0.000506853 	0.246339
0.00316054 	3.08709e-06 	-0.000510933 	0.247259
0.00316054 	3.08709e-06 	-0.000510933 	0.247259
0.00326087 	3.4482e-06 	-0.000518223 	0.249043
0.00326087 	3.4482e-06 	-0.000518223 	0.249043
0.00331104 	3.6322e-06 	-0.000521464 	0.249907
0.0033612 	3.81894e-06 	-0.000524403 	0.250749
0.0033612 	3.81894e-06 	-0.000524403 	0.250749
0.00341137 	4.00756e-06 	-0.000527149 	0.251577
0.00341137 	4.00756e-06 	-0.000527149 	0.251577
0.00346154 	4.19903e-06 	-0.000529603 	0.252381
0.00346154 	4.19903e-06 	-0.000529603 	0.252381
0.00351171 	4.39179e-06 	-0.000531923 	0.253174
0.00356187 	4.58736e-06 	-0.000533949 	0.253941
0.00356187 	4.58736e-06 	-0.000533949 	0.253941
0.00361204 	4.78366e-06 	-0.000535905 	0.254702
0.00366221 	4.98303e-06 	-0.000537557 	0.255434
0.00366221 	4.98303e-06 	-0.000537557 	0.255434
0.00371237 	5.18253e-06 	-0.0005392 	0.256165
0.00371237 	5.18253e-06 	-0.0005392 	0.256165
0.00376254 	5.3861e-06 	-0.000540522 	0.256864
0.00376254 	5.3861e-06 	-0.000540522 	0.256864
0.00381271 	5.58968e-06 	-0.000541844 	0.257564
0.00381271 	5.58968e-06 	-0.000541844 	0.257564
0.00386288 	5.79723e-06 	-0.000542922 	0.258236
0.00391304 	6.00558e-06 	-0.000543951 	0.258903
0.00391304 	6.00558e-06 	-0.000543951 	0.258903
0.00396321 	6.21682e-06 	-0.000544827 	0.259551
0.00401338 	6.43004e-06 	-0.000545597 	0.260186
0.00401338 	6.43004e-06 	-0.000545597 	0.260186
0.00406355 	6.64465e-06 	-0.000546296 	0.260811
0.00406355 	6.64465e-06 	-0.000546296 	0.260811
0.00411371 	6.86234e-06 	-0.000546841 	0.261413
0.00411371 	6.86234e-06 	-0.000546841 	0.261413
0.00421405 	7.30156e-06 	-0.000547742 	0.262587
0.00421405 	7.30156e-06 	-0.000547742 	0.262587
0.00426421 	7.52312e-06 	-0.000548097 	0.263157
0.00426421 	7.52312e-06 	-0.000548097 	0.263157
0.00431438 	7.74674e-06 	-0.000548353 	0.263707
0.00431438 	7.74674e-06 	-0.000548353 	0.263707
0.00436455 	7.97154e-06 	-0.000548552 	0.264245
0.00436455 	7.97154e-06 	-0.000548552 	0.264245
0.00441472 	8.19692e-06 	-0.000548724 	0.264776
0.00441472 	8.19692e-06 	-0.000548724 	0.264776
0.00446488 	8.42424e-06 	-0.000548802 	0.265281
0.00446488 	8.42424e-06 	-0.000548802 	0.265281
0.00451505 	8.65156e-06 	-0.000548881 	0.265787
0.00451505 	8.65156e-06 	-0.000548881 	0.265787
0.00456522 	8.8802e-06 	-0.000548891 	0.266267
0.00456522 	8.8802e-06 	-0.000548891 	0.266267
0.00461538 	9.10921e-06 	-0.000548883 	0.266741
0.00461538 	9.10921e-06 	-0.000548883 	0.266741
0.00466555 	9.33845e-06 	-0.000548859 	0.267205
0.00471572 	9.56825e-06 	-0.000548797 	0.267646
0.00476589 	9.79805e-06 	-0.000548735 	0.268087
0.00476589 	9.79805e-06 	-0.000548735 	0.268087
0.00486622 	1.02574e-05 	-0.000548567 	0.268912
0.00486622 	1.02574e-05 	-0.000548567 	0.268912
0.00491639 	1.04868e-05 	-0.000548481 	0.269315
0.00496656 	1.07153e-05 	-0.000548397 	0.269692
0.00496656 	1.07153e-05 	-0.000548397 	0.269692
0.00501672 	1.09438e-05 	-0.000548313 	0.270068
0.00506689 	1.1171e-05 	-0.000548242 	0.270427
0.00511706 	1.13972e-05 	-0.000548183 	0.270771
0.00511706 	1.13972e-05 	-0.000548183 	0.270771
0.00521739 	1.18465e-05 	-0.000548102 	0.271432
0.00521739 	1.18465e-05 	-0.000548102 	0.271432
0.00526756 	1.20692e-05 	-0.000548085 	0.271745
0.00526756 	1.20692e-05 	-0.000548085 	0.271745
0.00531773 	1.22912e-05 	-0.000548077 	0.272053
0.00536789 	1.25091e-05 	-0.000548115 	0.272334
0.00536789 	1.25091e-05 	-0.000548115 	0.272334
0.00541806 	1.27271e-05 	-0.000548153 	0.272615
0.00546823 	1.29426e-05 	-0.000548214 	0.272885
0.00551839 	1.31542e-05 	-0.000548313 	0.273135
0.00551839 	1.31542e-05 	-0.000548313 	0.273135
0.00556856 	1.33658e-05 	-0.000548412 	0.273385
0.00556856 	1.33658e-05 	-0.000548412 	0.273385
0.0056689 	1.37763e-05 	-0.000548706 	0.273838
0.0056689 	1.37763e-05 	-0.000548706 	0.273838
0.00571906 	1.39798e-05 	-0.000548867 	0.274058
0.00576923 	1.41764e-05 	-0.000549065 	0.274258
0.00576923 	1.41764e-05 	-0.000549065 	0.274258
0.0058194 	1.43698e-05 	-0.000549281 	0.274449
0.0058194 	1.43698e-05 	-0.000549281 	0.274449
0.00591973 	1.47474e-05 	-0.000549746 	0.274808
0.00591973 	1.47474e-05 	-0.000549746 	0.274808
0.0059699 	1.49288e-05 	-0.000550005 	0.27497
0.0059699 	1.49288e-05 	-0.000550005 	0.27497
0.00602007 	1.51101e-05 	-0.000550265 	0.275132
0.00607023 	1.52804e-05 	-0.000550545 	0.275272
0.0061204 	1.54478e-05 	-0.000550831 	0.275407
0.0061204 	1.54478e-05 	-0.000550831 	0.275407
0.00617057 	1.56151e-05 	-0.000551118 	0.275541
0.00622074 	1.57703e-05 	-0.00055141 	0.275655
0.00622074 	1.57703e-05 	-0.00055141 	0.275655
0.0062709 	1.59216e-05 	-0.000551705 	0.275763
0.00632107 	1.6073e-05 	-0.000552 	0.275871
0.00632107 	1.6073e-05 	-0.000552 	0.275871
0.00637124 	1.62119e-05 	-0.000552287 	0.275962
0.00637124 	1.62119e-05 	-0.000552287 	0.275962
0.0064214 	1.6345e-05 	-0.00055257 	0.276044
0.0064214 	1.6345e-05 	-0.00055257 	0.276044
0.00647157 	1.64781e-05 	-0.000552853 	0.276126
0.00647157 	1.64781e-05 	-0.000552853 	0.276126
0.00652174 	1.65997e-05 	-0.000553129 	0.276194
0.00657191 	1.67119e-05 	-0.000553398 	0.276251
0.00657191 	1.67119e-05 	-0.000553398 	0.276251
0.00662207 	1.6824e-05 	-0.000553667 	0.276308
0.00667224 	1.69276e-05 	-0.000553921 	0.276357
0.00672241 	1.70156e-05 	-0.000554146 	0.276389
0.00672241 	1.70156e-05 	-0.000554146 	0.276389
0.00677258 	1.71035e-05 	-0.000554371 	0.276422
0.00682274 	1.71887e-05 	-0.000554588 	0.276452
0.00682274 	1.71887e-05 	-0.000554588 	0.276452
0.00687291 	1.7249e-05 	-0.000554735 	0.27646
0.00687291 	1.7249e-05 	-0.000554735 	0.27646
0.00692308 	1.73093e-05 	-0.000554882 	0.276469
0.00697324 	1.73695e-05 	-0.000555028 	0.276477
0.00702341 	1.74051e-05 	-0.000555122 	0.276466
0.00707358 	1.7434e-05 	-0.000555201 	0.276451
0.00707358 	1.7434e-05 	-0.000555201 	0.276451
0.00717391 	1.74778e-05 	-0.000555308 	0.276409
0.00717391 	1.74778e-05 	-0.000555308 	0.276409
0.00722408 	1.7473e-05 	-0.000555263 	0.27637
0.00722408 	1.7473e-05 	-0.000555263 	0.27637
0.00727425 	1.74683e-05 	-0.000555217 	0.276331
0.00727425 	1.74683e-05 	-0.000555217 	0.276331
0.00732441 	1.74635e-05 	-0.000555172 	0.276291
0.00732441 	1.74635e-05 	-0.000555172 	0.276291
0.00737458 	1.74249e-05 	-0.000555018 	0.276229
0.00737458 	1.74249e-05 	-0.000555018 	0.276229
0.00742475 	1.73859e-05 	-0.000554862 	0.276166
0.00747492 	1.73469e-05 	-0.000554707 	0.276103
0.00752508 	1.72906e-05 	-0.000554514 	0.276028
0.00752508 	1.72906e-05 	-0.000554514 	0.276028
0.00757525 	1.72168e-05 	-0.000554284 	0.275942
0.00762542 	1.7143e-05 	-0.000554054 	0.275856
0.00767559 	1.70689e-05 	-0.000553823 	0.275769
0.00767559 	1.70689e-05 	-0.000553823 	0.275769
0.00772575 	1.69613e-05 	-0.000553463 	0.275659
0.00777592 	1.68538e-05 	-0.000553103 	0.275549
0.00777592 	1.68538e-05 	-0.000553103 	0.275549
0.00782609 	1.67462e-05 	-0.000552743 	0.275439
0.00787625 	1.66206e-05 	-0.000552331 	0.275315
0.00787625 	1.66206e-05 	-0.000552331 	0.275315
0.00792642 	1.64819e-05 	-0.000551881 	0.275182
0.00797659 	1.63431e-05 	-0.000551431 	0.275049
0.00802676 	1.61984e-05 	-0.00055096 	0.274911
0.00802676 	1.61984e-05 	-0.00055096 	0.274911
0.00807692 	1.60311e-05 	-0.000550414 	0.274755
0.00807692 	1.60311e-05 	-0.000550414 	0.274755
0.00812709 	1.58638e-05 	-0.000549869 	0.274599
0.00817726 	1.56966e-05 	-0.000549323 	0.274443
0.00817726 	1.56966e-05 	-0.000549323 	0.274443
0.00822742 	1.55077e-05 	-0.000548656 	0.274267
0.00827759 	1.53164e-05 	-0.000547976 	0.274089
0.00827759 	1.53164e-05 	-0.000547976 	0.274089
0.00832776 	1.51251e-05 	-0.000547296 	0.273911
0.00832776 	1.51251e-05 	-0.000547296 	0.273911
0.00837793 	1.49208e-05 	-0.000546542 	0.273718
0.00842809 	1.47094e-05 	-0.000545749 	0.273517
0.00842809 	1.47094e-05 	-0.000545749 	0.273517
0.00847826 	1.44981e-05 	-0.000544956 	0.273316
0.00847826 	1.44981e-05 	-0.000544956 	0.273316
0.0085786 	1.40515e-05 	-0.000543208 	0.272882
0.0085786 	1.40515e-05 	-0.000543208 	0.272882
0.00862876 	1.38238e-05 	-0.000542304 	0.272659
0.00867893 	1.35918e-05 	-0.000541365 	0.272429
0.0087291 	1.33507e-05 	-0.000540351 	0.272183
0.00877926 	1.31096e-05 	-0.000539338 	0.271938
0.00882943 	1.2866e-05 	-0.000538299 	0.271687
0.0088796 	1.26145e-05 	-0.000537178 	0.271419
0.0088796 	1.26145e-05 	-0.000537178 	0.271419
0.00892977 	1.23629e-05 	-0.000536058 	0.271152
0.00892977 	1.23629e-05 	-0.000536058 	0.271152
0.00897993 	1.21096e-05 	-0.000534916 	0.270879
0.00897993 	1.21096e-05 	-0.000534916 	0.270879
0.0090301 	1.185e-05 	-0.00053369 	0.270589
0.00908027 	1.15904e-05 	-0.000532464 	0.270299
0.00908027 	1.15904e-05 	-0.000532464 	0.270299
0.00913043 	1.13293e-05 	-0.000531214 	0.270003
0.0091806 	1.10638e-05 	-0.000529883 	0.26969
0.0091806 	1.10638e-05 	-0.000529883 	0.26969
0.00923077 	1.07982e-05 	-0.000528552 	0.269377
0.00928094 	1.05314e-05 	-0.000527189 	0.269057
0.00928094 	1.05314e-05 	-0.000527189 	0.269057
0.0093311 	1.02618e-05 	-0.000525752 	0.268721
0.00938127 	9.99225e-06 	-0.000524316 	0.268386
0.00938127 	9.99225e-06 	-0.000524316 	0.268386
0.00943144 	9.72157e-06 	-0.000522833 	0.26804
0.00943144 	9.72157e-06 	-0.000522833 	0.26804
0.00948161 	9.44951e-06 	-0.00052129 	0.267681
0.00948161 	9.44951e-06 	-0.00052129 	0.267681
0.00953177 	9.17746e-06 	-0.000519747 	0.267322
0.00953177 	9.17746e-06 	-0.000519747 	0.267322
0.00958194 	8.90473e-06 	-0.000518137 	0.266948
0.00958194 	8.90473e-06 	-0.000518137 	0.266948
0.00963211 	8.63159e-06 	-0.000516486 	0.266566
0.00968227 	8.35845e-06 	-0.000514835 	0.266184
0.00968227 	8.35845e-06 	-0.000514835 	0.266184
0.00973244 	8.08539e-06 	-0.000513089 	0.265781
0.00978261 	7.81234e-06 	-0.000511327 	0.265375
0.00978261 	7.81234e-06 	-0.000511327 	0.265375
0.00983278 	7.53943e-06 	-0.000509551 	0.264966
0.00983278 	7.53943e-06 	-0.000509551 	0.264966
0.00988294 	7.26747e-06 	-0.000507674 	0.264535
0.00993311 	6.99552e-06 	-0.000505798 	0.264105
0.00993311 	6.99552e-06 	-0.000505798 	0.264105
0.00998328 	6.72444e-06 	-0.000503868 	0.263663
0.0100334 	6.45443e-06 	-0.000501873 	0.263207
0.0100836 	6.18442e-06 	-0.000499878 	0.262752
0.0100836 	6.18442e-06 	-0.000499878 	0.262752
0.0101338 	5.91661e-06 	-0.000497782 	0.262276
0.0101839 	5.64927e-06 	-0.000495663 	0.261795
0.0101839 	5.64927e-06 	-0.000495663 	0.261795
0.0102341 	5.38274e-06 	-0.000493513 	0.261308
0.0102341 	5.38274e-06 	-0.000493513 	0.261308
0.0102843 	5.11872e-06 	-0.000491266 	0.260801
0.0103344 	4.8547e-06 	-0.000489018 	0.260294
0.0103344 	4.8547e-06 	-0.000489018 	0.260294
0.0103846 	4.5934e-06 	-0.000486674 	0.259768
0.0103846 	4.5934e-06 	-0.000486674 	0.259768
0.0104348 	4.33324e-06 	-0.00048429 	0.259234
0.0104348 	4.33324e-06 	-0.00048429 	0.259234
0.0104849 	4.07401e-06 	-0.000481875 	0.258694
0.0104849 	4.07401e-06 	-0.000481875 	0.258694
0.0105351 	3.81816e-06 	-0.000479347 	0.258133
0.0105853 	3.56231e-06 	-0.00047682 	0.257571
0.0105853 	3.56231e-06 	-0.00047682 	0.257571
0.0106856 	3.05894e-06 	-0.000471497 	0.256398
0.0106856 	3.05894e-06 	-0.000471497 	0.256398
0.0107358 	2.80965e-06 	-0.000468759 	0.255797
0.010786 	2.56355e-06 	-0.00046592 	0.255177
0.010786 	2.56355e-06 	-0.00046592 	0.255177
0.0108361 	2.31749e-06 	-0.000463079 	0.254558
0.0108863 	2.07675e-06 	-0.000460072 	0.253907
0.0108863 	2.07675e-06 	-0.000460072 	0.253907
0.0109365 	1.83601e-06 	-0.000457064 	0.253257
0.0109365 	1.83601e-06 	-0.000457064 	0.253257
0.0109866 	1.59916e-06 	-0.000453935 	0.252584
0.0110368 	1.36408e-06 	-0.000450751 	0.251902
0.0110368 	1.36408e-06 	-0.000450751 	0.251902
0.011087 	1.13141e-06 	-0.00044749 	0.251206
0.011087 	1.13141e-06 	-0.00044749 	0.251206
0.0111371 	9.02239e-07 	-0.000444119 	0.25049
0.0111873 	6.74108e-07 	-0.000440714 	0.249768
0.0111873 	6.74108e-07 	-0.000440714 	0.249768
0.0112375 	4.51069e-07 	-0.000437141 	0.249018
0.0112876 	2.2803e-07 	-0.000433569 	0.248267
0.0112876 	2.2803e-07 	-0.000433569 	0.248267
0.0113378 	1.11576e-08 	-0.000429785 	0.247481
0.0113378 	1.11576e-08 	-0.000429785 	0.247481
0.011388 	-2.05526e-07 	-0.000425995 	0.246694
0.0114381 	-4.16903e-07 	-0.000422009 	0.245875
0.0114381 	-4.16903e-07 	-0.000422009 	0.245875
0.0114883 	-6.27034e-07 	-0.000417976 	0.245048
0.0115385 	-8.32726e-07 	-0.00041375 	0.244192
0.0115385 	-8.32726e-07 	-0.00041375 	0.244192
0.0115886 	-1.0364e-06 	-0.000409436 	0.243322
0.0116388 	-1.23648e-06 	-0.000404925 	0.242424
0.0116388 	-1.23648e-06 	-0.000404925 	0.242424
0.011689 	-1.43419e-06 	-0.000400283 	0.241507
0.0117391 	-1.62897e-06 	-0.00039543 	0.240561
0.0117893 	-1.82137e-06 	-0.000390407 	0.239592
0.0118395 	-2.01111e-06 	-0.000385152 	0.238591
0.0118395 	-2.01111e-06 	-0.000385152 	0.238591
0.0118896 	-2.19859e-06 	-0.000379701 	0.237565
0.0119398 	-2.38321e-06 	-0.00037399 	0.236503
0.0119398 	-2.38321e-06 	-0.00037399 	0.236503
0.01199 	-2.56564e-06 	-0.000368079 	0.235413
0.0120401 	-2.74477e-06 	-0.000361872 	0.234282
0.0120401 	-2.74477e-06 	-0.000361872 	0.234282
0.0120903 	-2.9219e-06 	-0.000355485 	0.233126
0.0120903 	-2.9219e-06 	-0.000355485 	0.233126
0.0121906 	-3.26693e-06 	-0.000341884 	0.23069
0.0121906 	-3.26693e-06 	-0.000341884 	0.23069
0.0122408 	-3.43423e-06 	-0.000334608 	0.229398
0.012291 	-3.60068e-06 	-0.000327256 	0.228093
0.012291 	-3.60068e-06 	-0.000327256 	0.228093
0.0123411 	-3.76194e-06 	-0.000319422 	0.226708
0.0123913 	-3.92223e-06 	-0.000311496 	0.225305
0.0123913 	-3.92223e-06 	-0.000311496 	0.225305
0.0124415 	-4.0784e-06 	-0.000303188 	0.223833
0.0124415 	-4.0784e-06 	-0.000303188 	0.223833
0.0124916 	-4.23249e-06 	-0.000294689 	0.222323
0.0124916 	-4.23249e-06 	-0.000294689 	0.222323
0.0125418 	-4.38364e-06 	-0.000285921 	0.22076
0.012592 	-4.53145e-06 	-0.000276861 	0.219132
0.0126421 	-4.67762e-06 	-0.000267658 	0.217472
0.0126421 	-4.67762e-06 	-0.000267658 	0.217472
0.0126923 	-4.819e-06 	-0.000258074 	0.215716
0.0127425 	-4.9588e-06 	-0.000248377 	0.213926
0.0127425 	-4.9588e-06 	-0.000248377 	0.213926
0.0127926 	-5.09489e-06 	-0.000238424 	0.212059
0.0128428 	-5.22778e-06 	-0.000228292 	0.210122
0.0128428 	-5.22778e-06 	-0.000228292 	0.210122
0.0129431 	-5.48424e-06 	-0.000207586 	0.206048
0.0129431 	-5.48424e-06 	-0.000207586 	0.206048
0.0129933 	-5.60753e-06 	-0.000197066 	0.203904
0.0130435 	-5.72738e-06 	-0.00018646 	0.201685
0.0130435 	-5.72738e-06 	-0.00018646 	0.201685
0.0131438 	-5.95432e-06 	-0.000165157 	0.196973
0.0131438 	-5.95432e-06 	-0.000165157 	0.196973
0.013194 	-6.06172e-06 	-0.000154528 	0.194489
0.0132441 	-6.16374e-06 	-0.000143993 	0.191895
0.0132441 	-6.16374e-06 	-0.000143993 	0.191895
0.0132943 	-6.26198e-06 	-0.000133545 	0.189225
0.0133445 	-6.35471e-06 	-0.000123246 	0.186446
0.0133445 	-6.35471e-06 	-0.000123246 	0.186446
0.0133946 	-6.44049e-06 	-0.000113186 	0.183535
0.0133946 	-6.44049e-06 	-0.000113186 	0.183535
0.0134448 	-6.52113e-06 	-0.000103318 	0.18053
0.0134448 	-6.52113e-06 	-0.000103318 	0.18053
0.013495 	-6.596e-06 	-9.36769e-05 	0.177419
0.0135452 	-6.66078e-06 	-8.446e-05 	0.17413
0.0135452 	-6.66078e-06 	-8.446e-05 	0.17413
0.0135953 	-6.71863e-06 	-7.55489e-05 	0.170721
0.0135953 	-6.71863e-06 	-7.55489e-05 	0.170721
0.0136455 	-6.76895e-06 	-6.69703e-05 	0.167183
0.0136455 	-6.76895e-06 	-6.69703e-05 	0.167183
0.0136957 	-6.80958e-06 	-5.88219e-05 	0.163478
0.0136957 	-6.80958e-06 	-5.88219e-05 	0.163478
0.0137458 	-6.83754e-06 	-5.12139e-05 	0.159565
0.013796 	-6.85454e-06 	-4.40491e-05 	0.155479
0.013796 	-6.85454e-06 	-4.40491e-05 	0.155479
0.0138462 	-6.85934e-06 	-3.73578e-05 	0.151207
0.0138462 	-6.85934e-06 	-3.73578e-05 	0.151207
0.0138963 	-6.85057e-06 	-3.11707e-05 	0.146733
0.0139465 	-6.82145e-06 	-2.56774e-05 	0.14197
0.0139465 	-6.82145e-06 	-2.56774e-05 	0.14197
0.0139967 	-6.77434e-06 	-2.07369e-05 	0.136959
0.0139967 	-6.77434e-06 	-2.07369e-05 	0.136959
0.0140468 	-6.70766e-06 	-1.63487e-05 	0.131688
0.0140468 	-6.70766e-06 	-1.63487e-05 	0.131688
0.014097 	-6.61933e-06 	-1.25209e-05 	0.126134
0.0141472 	-6.50724e-06 	-9.25383e-06 	0.120274
0.0141472 	-6.50724e-06 	-9.25383e-06 	0.120274
0.0141973 	-6.36938e-06 	-6.53342e-06 	0.114083
0.0142475 	-6.19838e-06 	-4.40217e-06 	0.10746
0.0142977 	-5.99441e-06 	-2.72824e-06 	0.100421
0.0142977 	-5.99441e-06 	-2.72824e-06 	0.100421
0.0143478 	-5.75322e-06 	-1.46604e-06 	0.0929551
0.014398 	-5.47071e-06 	-5.75272e-07 	0.0850807
0.014398 	-5.47071e-06 	-5.75272e-07 	0.0850807
0.0144482 	-5.14391e-06 	-6.1216e-09 	0.0768556
0.0144983 	-4.77146e-06 	3.02206e-07 	0.0683843
0.0144983 	-4.77146e-06 	3.02206e-07 	0.0683843
0.0145485 	-4.35403e-06 	4.17494e-07 	0.0598175
0.0145485 	-4.35403e-06 	4.17494e-07 	0.0598175
0.0145987 	-3.89493e-06 	4.07673e-07 	0.051337
0.0146488 	-3.40062e-06 	3.32335e-07 	0.0431257
0.014699 	-2.88104e-06 	2.35459e-07 	0.0353333
0.014699 	-2.88104e-06 	2.35459e-07 	0.0353333
0.0147492 	-2.3505e-06 	1.43123e-07 	0.028056
0.0147993 	-1.83111e-06 	6.80469e-08 	0.0213383
0.0147993 	-1.83111e-06 	6.80469e-08 	0.0213383
0.0148495 	-1.36287e-06 	1.11961e-08 	0.0151887
0.0148495 	-1.36287e-06 	1.11961e-08 	0.0151887
0.0148997 	-9.75906e-07 	-1.68071e-08 	0.00959727
0.0148997 	-9.75906e-07 	-1.68071e-08 	0.00959727
0.0149498 	-5.84207e-07 	-1.87581e-08 	0.00454721
0.0149498 	-5.84207e-07 	-1.87581e-08 	0.00454721
0.015 	0 	0 	0
0.015 	0 	0 	0
