
400
(
1.54007e-08
1.15199e-08
2.60518e-08
2.29403e-08
1.39144e-07
8.6743e-08
5.73374e-07
4.89717e-07
1.67277e-06
1.79897e-06
3.81239e-06
4.5938e-06
7.30506e-06
9.29367e-06
1.2327e-05
1.60116e-05
1.88939e-05
2.45738e-05
2.68835e-05
3.46448e-05
3.60859e-05
4.58669e-05
4.62608e-05
5.79564e-05
5.71818e-05
7.07361e-05
6.86633e-05
8.41273e-05
8.05695e-05
9.81273e-05
9.28121e-05
0.000112788
0.00010534
0.00012814
0.00011812
0.000144143
0.000131117
0.000160733
0.000144306
0.000177833
0.00015767
0.000195393
0.000171186
0.000213311
0.000184837
0.000231491
0.000198607
0.00024982
0.000212481
0.000268287
0.000226447
0.000286815
0.000240495
0.000305328
0.000254622
0.00032382
0.00026883
0.000342294
0.000283125
0.000360749
0.00029752
0.000379165
0.000312036
0.000397523
0.0003267
0.000415788
0.00034153
0.000433896
0.000356516
0.000451758
0.000371593
0.000469281
0.000386624
0.000486388
0.00040143
0.000502982
0.000415863
0.000518978
0.000429786
0.000534227
0.000443273
0.000548041
0.000456961
0.000561125
0.000472514
0.000575787
0.000491268
0.000598769
0.000511999
0.000628777
0.00053327
0.000655671
0.000555017
0.000682655
0.000576913
0.000711966
0.000598602
0.000741656
0.000620033
0.0007719
0.00064108
0.000803046
0.000661545
0.000834833
0.000681266
0.000867248
0.000700202
0.000900528
0.000718574
0.00093511
0.000737366
0.000971279
0.00075846
0.00100888
0.00078225
0.00104679
0.00080704
0.00108479
0.000831637
0.00112406
0.000855988
0.00116506
0.000880116
0.00120729
0.000903806
0.00125027
0.000926865
0.00129369
0.000949084
0.00133716
0.000970142
0.00138022
0.000989654
0.00142245
0.00100734
0.00146348
0.00102302
0.00150281
0.00103657
0.00153986
0.00104783
0.00157402
0.00105676
0.00160437
0.00106334
0.00163079
0.00106746
0.00165264
0.00106911
0.00166922
0.00106837
0.00168016
0.00106528
0.00168495
0.00105991
0.00168342
0.00105238
0.00167545
0.00104284
0.00166149
1.04119e-08
2.40053e-08
1.32905e-07
5.55405e-07
1.63368e-06
3.74577e-06
7.20378e-06
1.21712e-05
1.8638e-05
2.64512e-05
3.53726e-05
4.5139e-05
5.55153e-05
6.63257e-05
7.74508e-05
8.88166e-05
0.000100395
0.000112185
0.000124192
0.000136427
0.000148909
0.000161655
0.000174685
0.000188016
0.000201671
0.000215697
0.000230114
0.000244888
0.000259939
0.000275212
0.000290673
0.000306265
0.000321932
0.000337653
0.000353512
0.00036986
0.000387086
0.000404749
0.000421728
0.000437541
0.000452518
0.000467455
0.000484391
0.000504162
0.000525005
0.00054593
0.000567092
0.000588479
0.000609984
0.000631452
0.000652669
0.000673379
0.000693258
0.000712111
0.000730183
0.000748531
0.000769043
0.000792159
0.000816238
0.000840145
0.000863884
0.000887486
0.000910717
0.00093337
0.000955217
0.000975916
0.00099505
0.00101229
0.00102739
0.00104014
0.00105036
0.00105785
0.00106246
0.00106403
0.00106247
0.00105799
0.00105112
0.0010422
0.00103131
0.0010184
1.42927e-08
2.92645e-08
1.35324e-07
5.40808e-07
1.57125e-06
3.56957e-06
6.80072e-06
1.13804e-05
1.72679e-05
2.43105e-05
3.23054e-05
4.10509e-05
5.0384e-05
6.01993e-05
7.04381e-05
8.10727e-05
9.20978e-05
0.000103521
0.000115357
0.000127614
0.0001403
0.000153426
0.000167
0.000181033
0.000195548
0.00021058
0.000226136
0.000242154
0.000258529
0.000275178
0.000292033
0.000308997
0.000325961
0.000342848
0.000359706
0.000376889
0.00039484
0.000413182
0.000430818
0.000447368
0.000463252
0.000479183
0.000496986
0.000517209
0.000537924
0.000558341
0.000579075
0.000600354
0.000622038
0.000643842
0.000665482
0.000686734
0.000707306
0.000727006
0.000745896
0.000764414
0.000784184
0.000807023
0.000831816
0.00085655
0.000881046
0.000905366
0.000929159
0.00095208
0.000973881
0.000994304
0.00101307
0.0010299
0.00104448
0.0010565
0.00106567
0.00107167
0.00107412
0.00107275
0.00106713
0.00105696
0.00104273
0.00102543
0.00100536
0.000981835
1.54007e-08
3.1311e-08
1.41562e-07
5.58777e-07
1.61034e-06
3.6362e-06
6.90199e-06
1.15363e-05
1.75239e-05
2.47428e-05
3.30188e-05
4.21727e-05
5.20505e-05
6.25368e-05
7.35568e-05
8.50682e-05
9.70432e-05
0.000109456
0.000122282
0.000135493
0.000149061
0.000162958
0.000177152
0.000191624
0.000206358
0.00022133
0.000236516
0.000251888
0.00026742
0.000283091
0.00029888
0.000314768
0.000330728
0.000346724
0.00036271
0.000378623
0.000394378
0.000409863
0.000424954
0.000439612
0.000454007
0.00046869
0.000485109
0.000504315
0.000524919
0.000545681
0.000566999
0.000588788
0.000610656
0.000632422
0.000653892
0.0006749
0.000695315
0.000715097
0.000734287
0.000753249
0.0007736
0.000797114
0.000822618
0.000848042
0.00087315
0.000897996
0.000922247
0.000945575
0.000967748
0.000988529
0.00100768
0.00102495
0.00104011
0.00105292
0.00106315
0.00107058
0.001075
0.00107618
0.00107378
0.00106735
0.0010569
0.00104314
0.00102644
0.00100627
)
