
400
(
(0 0 0)
(-1.48538e-19 3.46754e-21 -1.63658e-18)
(-0.000959737 2.24045e-05 -0.0105743)
(-0.00274058 -0.000566036 -0.015188)
(-0.00137449 -1.25484e-06 -0.0214699)
(-0.00466878 0.00070911 -0.0356618)
(-0.00148197 -5.80277e-05 -0.0322218)
(-0.00498084 -0.000761473 -0.0552464)
(-0.00153577 -6.5465e-06 -0.0426103)
(-0.00515328 0.000331616 -0.0732362)
(-0.00156224 -7.38961e-05 -0.0526731)
(-0.00537087 -0.000340394 -0.0899138)
(-0.00153105 -7.56792e-05 -0.0624402)
(-0.00535918 -0.000183584 -0.105503)
(-0.00144437 -9.88719e-05 -0.0718912)
(-0.00512751 -0.000274415 -0.120034)
(-0.00131271 -0.00012142 -0.0809911)
(-0.00471482 -0.000330082 -0.133528)
(-0.0011478 -0.000144524 -0.0897006)
(-0.00416396 -0.000392188 -0.145984)
(-0.000960731 -0.000166978 -0.0979861)
(-0.0035156 -0.000449578 -0.157401)
(-0.000762321 -0.00018873 -0.105828)
(-0.00280706 -0.000503611 -0.167807)
(-0.00056334 -0.000209725 -0.113225)
(-0.00207747 -0.000553715 -0.177267)
(-0.000372714 -0.0002298 -0.120189)
(-0.00136415 -0.000600263 -0.185862)
(-0.000196498 -0.000248684 -0.126745)
(-0.000693274 -0.000642057 -0.193691)
(-3.82905e-05 -0.000266341 -0.132928)
(-8.34817e-05 -0.000679046 -0.20085)
(0.000100266 -0.000282973 -0.138774)
(0.000455341 -0.000711594 -0.207408)
(0.000218318 -0.000298905 -0.144313)
(0.000918604 -0.000741021 -0.21341)
(0.00031542 -0.000314151 -0.14957)
(0.00130187 -0.000768633 -0.218907)
(0.000391835 -0.000328425 -0.154567)
(0.00160354 -0.000793356 -0.223948)
(0.000448386 -0.000341659 -0.159325)
(0.00182435 -0.000814612 -0.22858)
(0.000486285 -0.000353929 -0.163866)
(0.00196676 -0.000833103 -0.232853)
(0.000507059 -0.000365454 -0.168207)
(0.00203471 -0.000848999 -0.236811)
(0.000512453 -0.000376493 -0.172367)
(0.00203326 -0.000863862 -0.240496)
(0.000504316 -0.000386988 -0.176358)
(0.00196827 -0.00087798 -0.243937)
(0.000484526 -0.000396876 -0.180194)
(0.00184592 -0.000890694 -0.247169)
(0.00045495 -0.000406249 -0.183885)
(0.00167272 -0.000902613 -0.250217)
(0.000417423 -0.000415216 -0.187439)
(0.00145531 -0.000913999 -0.253106)
(0.000373761 -0.000423885 -0.190869)
(0.00120021 -0.000925126 -0.255863)
(0.000325731 -0.000432311 -0.194184)
(0.000913839 -0.000936155 -0.258503)
(0.000274921 -0.000440531 -0.197395)
(0.000602209 -0.00094714 -0.261038)
(0.000222604 -0.000448606 -0.200512)
(0.000270769 -0.000958083 -0.263477)
(0.000169648 -0.00045665 -0.20354)
(-7.58444e-05 -0.000969137 -0.265823)
(0.000116523 -0.000464757 -0.206481)
(-0.000433968 -0.000980711 -0.268086)
(6.33634e-05 -0.000472491 -0.209332)
(-0.000800571 -0.000992931 -0.270271)
(1.00372e-05 -0.000478988 -0.212087)
(-0.00117288 -0.00100369 -0.272395)
(-4.38747e-05 -0.000482238 -0.214736)
(-0.00154843 -0.00101183 -0.274473)
(-9.9127e-05 -0.000495074 -0.217277)
(-0.00192579 -0.00100577 -0.276532)
(-0.000157003 -0.000527984 -0.219715)
(-0.00230517 -0.00108655 -0.278581)
(-0.000218637 -0.000554326 -0.222059)
(-0.00268976 -0.00121363 -0.280591)
(-0.000281727 -0.000545719 -0.22436)
(-0.00307793 -0.00123246 -0.282512)
(-0.0003375 -0.000490203 -0.226774)
(-0.00344585 -0.00112266 -0.28459)
(-0.000373899 -0.000452541 -0.229489)
(-0.00374968 -0.000845257 -0.287436)
(-0.000390414 -0.000509466 -0.232416)
(-0.00396285 -0.000905379 -0.291333)
(-0.000402229 -0.000590867 -0.235167)
(-0.00414764 -0.00127703 -0.295025)
(-0.000419035 -0.000624213 -0.237525)
(-0.00437452 -0.00142517 -0.297386)
(-0.000438745 -0.000612247 -0.239563)
(-0.00463066 -0.00144067 -0.299048)
(-0.000457473 -0.000593386 -0.241403)
(-0.00489819 -0.00131301 -0.300518)
(-0.000472214 -0.00060676 -0.243125)
(-0.00516354 -0.00131841 -0.301945)
(-0.00048214 -0.000627363 -0.244767)
(-0.00541963 -0.00142268 -0.303338)
(-0.000488208 -0.000639428 -0.24634)
(-0.00566791 -0.00145161 -0.304657)
(-0.000491991 -0.000652568 -0.247854)
(-0.00591064 -0.00149813 -0.305891)
(-0.000495615 -0.00066729 -0.249315)
(-0.00614969 -0.00155443 -0.30703)
(-0.000501194 -0.000684276 -0.25075)
(-0.00638509 -0.00161556 -0.308067)
(-0.000508415 -0.000703164 -0.252237)
(-0.00661498 -0.001677 -0.308974)
(-0.000513392 -0.000721737 -0.253875)
(-0.00683707 -0.00174116 -0.309669)
(-0.000513115 -0.000738829 -0.255634)
(-0.00705109 -0.00181193 -0.310045)
(-0.000509422 -0.000754692 -0.257304)
(-0.00725726 -0.0018906 -0.310125)
(-0.000506317 -0.00077099 -0.258707)
(-0.00745334 -0.00197435 -0.310117)
(-0.000505557 -0.000789495 -0.259853)
(-0.00763448 -0.002058 -0.310195)
(-0.000505432 -0.000808475 -0.260845)
(-0.00779396 -0.00213847 -0.310349)
(-0.000502907 -0.000826043 -0.261746)
(-0.00792593 -0.00221917 -0.310475)
(-0.000496235 -0.000842787 -0.262579)
(-0.00802686 -0.00230376 -0.310507)
(-0.000485184 -0.000859398 -0.263349)
(-0.0080947 -0.00239191 -0.310422)
(-0.000470182 -0.000875688 -0.264056)
(-0.00812802 -0.00248258 -0.310214)
(-0.000452065 -0.000891475 -0.264702)
(-0.00812603 -0.00257567 -0.30988)
(-0.000431805 -0.000906801 -0.265289)
(-0.00808857 -0.0026712 -0.309421)
(-0.000410021 -0.000921811 -0.265817)
(-0.00801634 -0.00276887 -0.308832)
(-0.000386736 -0.000936554 -0.266282)
(-0.00791128 -0.00286828 -0.308114)
(-0.000361874 -0.000950964 -0.266681)
(-0.00777645 -0.00296905 -0.307272)
(-0.000335725 -0.00096498 -0.267012)
(-0.0076156 -0.00307097 -0.306309)
(-0.000308691 -0.000978485 -0.26727)
(-0.00743229 -0.0031739 -0.305227)
(-0.000280965 -0.000991291 -0.267452)
(-0.00723023 -0.00327773 -0.304031)
(-0.000252846 -0.00100267 -0.267555)
(-0.0070134 -0.00338261 -0.302729)
(-0.000225185 -0.00101368 -0.267576)
(-0.00678591 -0.00348472 -0.301326)
(-0.000199293 -0.00102477 -0.267514)
(-0.00655152 -0.0035878 -0.299826)
(-0.000176748 -0.00103504 -0.267371)
(-0.00631307 -0.00369668 -0.298242)
(-0.000159109 -0.00104461 -0.267147)
(-0.00607348 -0.00381054 -0.296575)
(-0.000148154 -0.00105137 -0.26685)
(-0.00583461 -0.00391856 -0.294841)
(-0.000145954 -0.00105799 -0.266504)
(-0.00559973 -0.00403866 -0.293097)
(0 0 0)
(-0.000609042 2.8266e-07 -0.00979716)
(-0.000904604 3.6751e-07 -0.0194291)
(-0.00101444 -3.06141e-07 -0.0290832)
(-0.00108774 -4.015e-07 -0.0387775)
(-0.00114203 -2.931e-07 -0.0484251)
(-0.00116026 2.787e-07 -0.0579315)
(-0.0011443 1.41585e-06 -0.0672213)
(-0.00110126 3.10561e-06 -0.07623)
(-0.00103897 5.2544e-06 -0.0849022)
(-0.000964835 7.93837e-06 -0.0931966)
(-0.000885433 1.12438e-05 -0.101092)
(-0.000805308 1.51949e-05 -0.108591)
(-0.000726162 1.97008e-05 -0.115711)
(-0.000647462 2.46594e-05 -0.122473)
(-0.00056791 3.01118e-05 -0.128897)
(-0.000486814 3.60594e-05 -0.135013)
(-0.000404269 4.24656e-05 -0.140844)
(-0.000320567 4.93524e-05 -0.146409)
(-0.000235955 5.67211e-05 -0.151724)
(-0.000150649 6.4438e-05 -0.156804)
(-6.46985e-05 7.22202e-05 -0.16166)
(2.22814e-05 7.98698e-05 -0.166308)
(0.000111133 8.79211e-05 -0.17076)
(0.000202475 9.77412e-05 -0.175032)
(0.000295506 0.00010999 -0.179131)
(0.00038782 0.000122089 -0.183058)
(0.000477637 0.000130248 -0.186805)
(0.000566826 0.000135472 -0.190374)
(0.000660058 0.000142616 -0.193779)
(0.000759513 0.000156088 -0.197035)
(0.000862314 0.000171634 -0.200155)
(0.000963591 0.00017716 -0.203159)
(0.00106001 0.000176402 -0.206076)
(0.00115053 0.000189799 -0.208949)
(0.00123356 0.000225767 -0.211818)
(0.00130453 0.000258338 -0.214643)
(0.00135989 0.000255852 -0.21728)
(0.00139505 0.000240647 -0.219668)
(0.00138158 0.000248031 -0.221928)
(0.00126913 0.000267919 -0.224234)
(0.00102281 0.000264045 -0.226749)
(0.000676644 0.000236589 -0.229499)
(0.000398584 0.000245074 -0.232157)
(0.000300018 0.000285016 -0.234442)
(0.000304937 0.000301457 -0.236439)
(0.000320422 0.000290785 -0.238274)
(0.000321909 0.000276217 -0.239991)
(0.000322404 0.000272291 -0.241612)
(0.000325461 0.000272209 -0.243158)
(0.00032557 0.000271056 -0.244649)
(0.000319455 0.000270515 -0.246095)
(0.000304669 0.000269509 -0.247505)
(0.000279531 0.000266353 -0.248905)
(0.000245296 0.000261041 -0.250373)
(0.000207124 0.000256194 -0.25201)
(0.000169463 0.000253203 -0.253784)
(0.000131586 0.000251408 -0.255487)
(8.96975e-05 0.00024821 -0.256938)
(4.14113e-05 0.000241213 -0.258145)
(-1.24612e-05 0.000232301 -0.25921)
(-6.95937e-05 0.000223837 -0.260195)
(-0.000128502 0.000215497 -0.261123)
(-0.00018869 0.000206617 -0.261997)
(-0.000249862 0.000197337 -0.262818)
(-0.00031183 0.000187766 -0.263586)
(-0.000374335 0.00017777 -0.264305)
(-0.000436638 0.000167129 -0.264972)
(-0.000497384 0.000155736 -0.265585)
(-0.000555139 0.000143624 -0.266141)
(-0.000608878 0.000130881 -0.266637)
(-0.000657735 0.000117655 -0.267068)
(-0.000700669 0.000104203 -0.26743)
(-0.000736758 9.08663e-05 -0.267719)
(-0.000765579 7.64625e-05 -0.267929)
(-0.000787184 6.26975e-05 -0.268055)
(-0.000801932 5.1225e-05 -0.268091)
(-0.000810188 4.15363e-05 -0.26803)
(-0.000812018 3.7885e-05 -0.267857)
(-0.000807717 3.54925e-05 -0.267555)
(0 0 0)
(-0.000450279 -1.09376e-06 -0.0131393)
(-0.000586359 -4.84156e-07 -0.0252553)
(-0.000544456 1.06348e-06 -0.0369242)
(-0.000471118 5.29532e-06 -0.0483339)
(-0.000381682 1.08531e-05 -0.0594067)
(-0.000259293 1.79661e-05 -0.0700591)
(-0.00010628 2.65655e-05 -0.0802557)
(6.9576e-05 3.65477e-05 -0.0899729)
(0.000259561 4.7784e-05 -0.0991902)
(0.000455138 6.03424e-05 -0.107894)
(0.000648409 7.42858e-05 -0.116085)
(0.000833428 8.95928e-05 -0.123784)
(0.00100712 0.000106101 -0.131022)
(0.00116873 0.000123572 -0.137826)
(0.00131864 0.000141957 -0.144223)
(0.00145693 0.000161179 -0.150238)
(0.00158305 0.000181079 -0.155897)
(0.00169645 0.000201583 -0.16122)
(0.00179676 0.000222593 -0.16623)
(0.00188381 0.000243892 -0.170948)
(0.0019578 0.000265129 -0.175392)
(0.00201949 0.000286036 -0.179582)
(0.00207025 0.000307088 -0.183537)
(0.00211132 0.000329586 -0.187279)
(0.00214263 0.000354123 -0.190822)
(0.00216263 0.000378089 -0.194174)
(0.00217045 0.000397724 -0.197334)
(0.00216885 0.00041407 -0.200309)
(0.00216332 0.000431988 -0.203116)
(0.00215676 0.000455923 -0.205772)
(0.00214711 0.000481684 -0.20829)
(0.00213049 0.000497227 -0.210692)
(0.00210468 0.000506326 -0.213012)
(0.00206993 0.000529194 -0.2153)
(0.00202608 0.000573737 -0.21761)
(0.00197014 0.000613837 -0.219918)
(0.00190002 0.000618314 -0.22209)
(0.00181248 0.00060953 -0.224064)
(0.00168044 0.000622425 -0.225948)
(0.00145532 0.000647576 -0.2279)
(0.00110375 0.000649294 -0.230057)
(0.000658147 0.000627266 -0.232415)
(0.000280301 0.000640046 -0.234623)
(7.59093e-05 0.0006828 -0.23643)
(-3.23735e-05 0.000702007 -0.237995)
(-0.000136469 0.000695197 -0.239497)
(-0.000259594 0.000684983 -0.240968)
(-0.000387579 0.000685117 -0.242391)
(-0.00051581 0.000688193 -0.243765)
(-0.000648737 0.00068858 -0.245097)
(-0.000788391 0.000687552 -0.246389)
(-0.000935153 0.000685092 -0.247648)
(-0.00108715 0.000681954 -0.248891)
(-0.00123924 0.000677415 -0.250164)
(-0.00138363 0.000667919 -0.25156)
(-0.00151551 0.000653344 -0.253135)
(-0.00164533 0.000639154 -0.254719)
(-0.00178824 0.000627034 -0.256061)
(-0.00194312 0.000613123 -0.257149)
(-0.00210043 0.000594094 -0.258105)
(-0.00225462 0.000570832 -0.259003)
(-0.00240403 0.000545789 -0.259858)
(-0.00254771 0.000519091 -0.260668)
(-0.00268446 0.000490145 -0.261434)
(-0.00281319 0.000458785 -0.262159)
(-0.00293309 0.000424879 -0.262844)
(-0.00304343 0.00038835 -0.263488)
(-0.00314352 0.000349185 -0.264092)
(-0.00323288 0.000307394 -0.264653)
(-0.00331126 0.000262969 -0.265171)
(-0.00337865 0.000215734 -0.265641)
(-0.00343515 0.000165934 -0.266063)
(-0.00347995 0.000114844 -0.266445)
(-0.00350984 6.18647e-05 -0.266816)
(-0.00352022 4.76501e-06 -0.267216)
(-0.00351025 -5.58219e-05 -0.267641)
(-0.00348528 -0.000115022 -0.268006)
(-0.00345014 -0.000173252 -0.268218)
(-0.00340575 -0.0002347 -0.26823)
(0 0 0)
(-0.000800974 2.10281e-05 -0.0139165)
(-0.00105624 -2.1065e-06 -0.027296)
(-0.00101199 -5.66581e-05 -0.0400627)
(-0.000919143 -8.49676e-07 -0.0521667)
(-0.000801895 -6.27499e-05 -0.0636547)
(-0.000630077 -5.79918e-05 -0.0745678)
(-0.000406353 -7.37222e-05 -0.0849256)
(-0.000141882 -8.79776e-05 -0.094734)
(0.00015073 -0.000101994 -0.103988)
(0.000459242 -0.000114574 -0.112683)
(0.00077152 -0.000125688 -0.120822)
(0.0010754 -0.000135327 -0.128419)
(0.00136056 -0.0001434 -0.135499)
(0.0016197 -0.000149772 -0.142098)
(0.00184826 -0.000154495 -0.148253)
(0.00204401 -0.000157853 -0.153999)
(0.00220564 -0.000160291 -0.159365)
(0.00233244 -0.00016192 -0.164381)
(0.00242455 -0.000162553 -0.169073)
(0.00248284 -0.000162205 -0.17347)
(0.00250878 -0.00016102 -0.177597)
(0.00250427 -0.000159287 -0.181481)
(0.00247157 -0.000157326 -0.185143)
(0.00241316 -0.000155143 -0.188605)
(0.00233166 -0.000152743 -0.191885)
(0.00222976 -0.000150248 -0.195)
(0.00211023 -0.00014774 -0.197968)
(0.00197579 -0.000145287 -0.200803)
(0.00182899 -0.000142939 -0.203521)
(0.00167216 -0.000140695 -0.206132)
(0.0015074 -0.000138556 -0.208646)
(0.00133655 -0.000136583 -0.211073)
(0.00116119 -0.000134832 -0.213417)
(0.000982758 -0.000133095 -0.215683)
(0.000802564 -0.000131019 -0.217879)
(0.000621735 -0.00012674 -0.220011)
(0.000441007 -0.000132611 -0.222087)
(0.000260427 -0.000159101 -0.224111)
(8.02215e-05 -0.000179932 -0.22608)
(-9.55351e-05 -0.000166061 -0.228026)
(-0.000256561 -0.000104953 -0.230083)
(-0.000392397 -6.18639e-05 -0.232405)
(-0.000508697 -0.000114495 -0.234882)
(-0.000626338 -0.000193083 -0.237154)
(-0.000756345 -0.000223662 -0.239081)
(-0.000895637 -0.000207835 -0.240786)
(-0.00103898 -0.00018462 -0.242379)
(-0.0011822 -0.000193934 -0.243904)
(-0.00132341 -0.000211378 -0.245374)
(-0.00146252 -0.000221904 -0.246787)
(-0.00159984 -0.000235532 -0.248148)
(-0.00173544 -0.000251707 -0.249458)
(-0.00186787 -0.000268675 -0.250736)
(-0.00199296 -0.00028679 -0.252028)
(-0.00210415 -0.000310012 -0.253425)
(-0.00219809 -0.000338688 -0.254985)
(-0.00228633 -0.000366946 -0.256537)
(-0.00238425 -0.000392166 -0.257831)
(-0.00249009 -0.000417584 -0.258857)
(-0.0025934 -0.000446682 -0.25974)
(-0.00268794 -0.000479048 -0.260554)
(-0.00277176 -0.000512494 -0.261314)
(-0.00284421 -0.000546924 -0.262019)
(-0.00290478 -0.00058288 -0.262672)
(-0.00295343 -0.000620456 -0.263275)
(-0.00299056 -0.000659692 -0.263828)
(-0.00301681 -0.00070059 -0.264333)
(-0.00303287 -0.000743105 -0.264789)
(-0.00303962 -0.000787194 -0.265194)
(-0.00303811 -0.000832892 -0.265546)
(-0.00302961 -0.000880406 -0.265843)
(-0.00301545 -0.00092956 -0.266085)
(-0.00299604 -0.000978697 -0.266281)
(-0.00296945 -0.00102828 -0.266463)
(-0.00293233 -0.0010827 -0.266676)
(-0.00288506 -0.00114209 -0.266921)
(-0.0028342 -0.00120117 -0.267123)
(-0.00278628 -0.00126251 -0.267211)
(-0.00274398 -0.00132819 -0.267179)
)
