/*--------------------------------*- C++ -*----------------------------------*\
| =========                 |                                                 |
| \\      /  F ield         | OpenFOAM: The Open Source CFD Toolbox           |
|  \\    /   O peration     | Version:  v1912                                 |
|   \\  /    A nd           | Website:  www.openfoam.com                      |
|    \\/     M anipulation  |                                                 |
\*---------------------------------------------------------------------------*/
FoamFile
{
    version     2.0;
    format      ascii;
    class       volScalarField;
    location    "97.2";
    object      k;
}
// * * * * * * * * * * * * * * * * * * * * * * * * * * * * * * * * * * * * * //

dimensions      [0 2 -2 0 0 0 0];


internalField   nonuniform List<scalar> 
2000
(
8.04641e-06
6.02059e-05
0.000131439
0.000168982
0.000174891
0.000176919
0.000174886
0.000168986
0.00013146
6.0245e-05
1.40951e-05
0.000294103
0.000481429
0.000559502
0.000579764
0.000585204
0.000579751
0.000559501
0.000481464
0.000294192
3.9555e-05
0.000805402
0.000849422
0.000876195
0.000895473
0.000900853
0.00089546
0.000876177
0.000849423
0.000805426
0.000258177
0.00094684
0.000880738
0.000889168
0.000902655
0.000907519
0.000902644
0.000889144
0.000880727
0.000946793
0.000816683
0.000903316
0.000789133
0.000798615
0.000808415
0.000813332
0.000808405
0.000798593
0.000789119
0.000903242
0.00135804
0.000845882
0.000679842
0.000685219
0.000693213
0.000698084
0.000693204
0.000685197
0.000679821
0.000845798
0.00152789
0.000787667
0.000576281
0.000569024
0.000574325
0.000578614
0.000574315
0.000569001
0.000576247
0.000787577
0.00137196
0.000716159
0.000485549
0.000462161
0.000464041
0.000467196
0.000464032
0.000462139
0.000485506
0.000716065
0.00110054
0.000628578
0.000419818
0.000392436
0.000393241
0.000395148
0.000393238
0.000392423
0.000419783
0.000628496
0.000835905
0.000535714
0.000405474
0.000395995
0.000399894
0.000401021
0.000399902
0.000396003
0.000405467
0.000535663
3.70525e-05
0.000177641
0.000255053
0.000287674
0.000305626
0.000311209
0.00030563
0.000287686
0.000255093
0.000177688
3.6752e-05
0.000517354
0.000654068
0.0007239
0.00076441
0.000775909
0.000764412
0.000723916
0.000654133
0.00051745
0.000196378
0.000982077
0.0010273
0.00107262
0.00111102
0.00112213
0.00111102
0.00107263
0.00102733
0.000982133
0.000563429
0.00112858
0.00109852
0.00112178
0.00115375
0.00116354
0.00115375
0.00112179
0.00109852
0.00112858
0.000967128
0.0011128
0.00105757
0.00106861
0.00109351
0.00110167
0.00109352
0.00106863
0.00105756
0.00111277
0.00122318
0.00101744
0.000967543
0.000972434
0.000990711
0.000997313
0.00099073
0.000972463
0.000967536
0.00101741
0.00121248
0.000886029
0.000854145
0.00085555
0.000868448
0.00087358
0.000868472
0.000855587
0.000854143
0.000886006
0.000987376
0.000742802
0.000729644
0.000728441
0.000736807
0.000740372
0.000736834
0.00072848
0.000729646
0.000742784
0.000725391
0.000598223
0.000597953
0.000596931
0.000602158
0.000604279
0.000602185
0.000596967
0.000597957
0.000598207
0.000505845
0.000464233
0.000472242
0.000473522
0.000477009
0.000478087
0.000477028
0.000473549
0.000472247
0.000464224
3.02664e-05
0.000193339
0.000244733
0.000259665
0.000268943
0.000270532
0.000268945
0.000259673
0.000244758
0.000193401
0.000145415
0.000494374
0.000569941
0.000590927
0.000602392
0.000604271
0.000602384
0.000590924
0.000569975
0.000494472
0.000589979
0.000848071
0.000862366
0.000885653
0.000897878
0.000901684
0.000897866
0.000885638
0.000862382
0.000848101
0.00101264
0.000957004
0.00088143
0.000899303
0.000913045
0.000917838
0.000913032
0.000899284
0.000881425
0.000956962
0.00136706
0.00096137
0.000802465
0.000812274
0.000825759
0.000830775
0.000825748
0.000812254
0.000802443
0.000961276
0.00159459
0.000902324
0.000688873
0.000688768
0.000700073
0.000704904
0.000700064
0.000688747
0.00068884
0.000902208
0.00160937
0.000812166
0.000573524
0.000560674
0.000568476
0.000572762
0.000568467
0.000560652
0.000573481
0.000812052
0.00141876
0.000714899
0.000475335
0.000448336
0.000452598
0.000456023
0.000452591
0.000448315
0.000475287
0.000714794
0.00112593
0.000612622
0.000409836
0.000380465
0.000382926
0.000385305
0.000382924
0.000380453
0.000409799
0.000612539
0.000840841
0.0005203
0.000399331
0.000388369
0.000392739
0.00039431
0.000392747
0.000388376
0.000399322
0.000520251
0.000150271
0.000238069
0.000272242
0.000297845
0.000316691
0.000322356
0.000316692
0.000297853
0.000272269
0.000238118
0.000429742
0.000607285
0.000678118
0.000731094
0.000767677
0.000779162
0.000767672
0.000731102
0.000678161
0.00060737
0.000865525
0.000985994
0.00102513
0.00106773
0.00110034
0.0011112
0.00110034
0.00106774
0.00102515
0.000986033
0.00110096
0.00110602
0.0011
0.00112961
0.00115746
0.00116687
0.00115746
0.00112962
0.0011
0.00110602
0.00125271
0.00111943
0.00107015
0.00108773
0.00111115
0.00111895
0.00111116
0.00108775
0.00107014
0.00111939
0.00129958
0.00104597
0.000982197
0.000990839
0.00100966
0.00101588
0.00100968
0.000990869
0.000982189
0.00104592
0.00120082
0.000909256
0.000859106
0.000863444
0.000877693
0.000882486
0.000877718
0.000863481
0.000859104
0.000909215
0.000962642
0.000746038
0.000725859
0.00072826
0.000737897
0.000741204
0.000737925
0.0007283
0.000725862
0.000746012
0.000682781
0.000587351
0.000593148
0.0005953
0.000601048
0.000602971
0.000601074
0.000595337
0.000593155
0.000587339
0.000462627
0.000452098
0.000469659
0.00047254
0.000475414
0.000476254
0.000475433
0.000472567
0.000469666
0.000452095
8.32297e-05
0.000217829
0.00025554
0.000262414
0.000267702
0.000267601
0.000267697
0.000262414
0.000255553
0.000217883
0.000250443
0.000492777
0.000578174
0.000592482
0.00060202
0.000602954
0.000602003
0.000592471
0.000578193
0.000492869
0.000702173
0.000778634
0.000843307
0.000867487
0.000878382
0.00088212
0.000878365
0.000867471
0.000843324
0.000778676
0.00101053
0.000859256
0.000853894
0.000877639
0.00088854
0.000893231
0.000888526
0.00087762
0.000853899
0.000859237
0.00125441
0.000892161
0.000788274
0.000802207
0.000812478
0.000817071
0.000812466
0.000802186
0.00078826
0.000892089
0.00142722
0.000888609
0.000691763
0.000692148
0.000700945
0.000705152
0.000700936
0.000692126
0.000691731
0.000888501
0.00148455
0.000835908
0.000582636
0.000566388
0.000572731
0.000576297
0.000572723
0.000566364
0.000582591
0.000835789
0.0013794
0.000739864
0.000478464
0.000448432
0.000451902
0.000454643
0.000451896
0.00044841
0.000478416
0.000739754
0.00113102
0.000622263
0.000406143
0.000375248
0.000377417
0.000379287
0.000377415
0.000375236
0.000406107
0.000622178
0.000841124
0.000517637
0.000394362
0.000382957
0.000387404
0.000388736
0.000387411
0.000382963
0.000394355
0.000517591
0.000266672
0.000251189
0.0002742
0.000295286
0.000311506
0.000316756
0.000311505
0.000295287
0.000274217
0.000251223
0.00067923
0.000624967
0.0006783
0.000725961
0.000762539
0.000774519
0.000762533
0.00072596
0.000678328
0.000625023
0.00105973
0.000990533
0.00102922
0.00107128
0.00110531
0.00111713
0.0011053
0.00107128
0.00102923
0.000990552
0.00118693
0.00108611
0.00109839
0.00113301
0.00116171
0.00117211
0.00116172
0.00113303
0.00109839
0.0010861
0.0012097
0.00107515
0.00106192
0.00108818
0.00111144
0.00111993
0.00111145
0.0010882
0.00106191
0.00107511
0.00115499
0.00100015
0.000971621
0.000989924
0.00100836
0.00101495
0.00100838
0.000989955
0.000971618
0.00100011
0.00102143
0.000880597
0.000852544
0.000864287
0.000878472
0.000883368
0.000878496
0.000864325
0.000852545
0.000880558
0.000819327
0.000734776
0.000722649
0.000729738
0.000739694
0.000743033
0.000739721
0.000729779
0.000722654
0.000734748
0.000599438
0.000583708
0.00059155
0.000596416
0.000602324
0.000604265
0.000602351
0.000596453
0.000591558
0.000583694
0.000420282
0.000449968
0.000469381
0.000473467
0.000475899
0.00047674
0.000475918
0.000473494
0.000469389
0.000449966
8.89105e-05
0.000236144
0.000274429
0.000278497
0.000281796
0.000281372
0.000281789
0.000278492
0.000274432
0.000236179
0.0001327
0.00049934
0.000594453
0.000603115
0.000608643
0.000608205
0.000608625
0.000603098
0.000594462
0.00049941
0.000425662
0.000736741
0.000833904
0.0008592
0.000868835
0.000871548
0.00086882
0.000859185
0.000833926
0.000736793
0.000687413
0.000798072
0.000840976
0.00086793
0.000879247
0.000883641
0.000879235
0.000867913
0.000840991
0.000798077
0.000957364
0.000840327
0.00078161
0.000799371
0.000810068
0.000814923
0.000810058
0.000799351
0.000781603
0.000840275
0.00118945
0.000859747
0.00069431
0.00069566
0.000703903
0.000708311
0.000703895
0.000695638
0.000694281
0.000859652
0.00132724
0.000828943
0.000586664
0.000570118
0.000575267
0.00057888
0.00057526
0.000570094
0.000586619
0.000828828
0.00130699
0.00074229
0.000477886
0.000447631
0.000450039
0.000452731
0.000450032
0.000447608
0.000477838
0.000742179
0.0011093
0.000621556
0.00040005
0.000369986
0.00037181
0.000373639
0.000371808
0.000369972
0.000400014
0.000621471
0.000830999
0.000511546
0.000387266
0.000377362
0.000382108
0.000383447
0.000382114
0.000377368
0.000387261
0.000511501
0.000319427
0.000234533
0.000256792
0.000276101
0.000291412
0.000296671
0.000291409
0.000276099
0.000256808
0.000234564
0.000897076
0.000621241
0.000663221
0.000704811
0.000740032
0.000751966
0.000740025
0.000704806
0.000663251
0.0006213
0.00131261
0.000988126
0.00101478
0.0010547
0.00108881
0.00110089
0.00108881
0.00105471
0.0010148
0.000988152
0.00135999
0.00104023
0.00106765
0.00110767
0.00113703
0.0011479
0.00113703
0.00110768
0.00106766
0.00104023
0.00123719
0.000989266
0.00101964
0.00105703
0.00108155
0.00109072
0.00108156
0.00105706
0.00101966
0.000989256
0.00104224
0.000906192
0.000936438
0.000966558
0.000986446
0.000993702
0.000986463
0.000966592
0.000936448
0.000906177
0.000829334
0.000810041
0.000834532
0.000855103
0.000870397
0.000875787
0.00087042
0.000855142
0.000834539
0.000810023
0.00064261
0.000700236
0.000717383
0.000729718
0.000740344
0.000743975
0.000740371
0.000729759
0.00071739
0.000700217
0.000499723
0.000576105
0.000592187
0.000599506
0.000605677
0.000607734
0.000605703
0.000599544
0.000592196
0.000576092
0.000381533
0.000451656
0.000472256
0.00047722
0.000479499
0.000480306
0.000479519
0.000477248
0.000472264
0.000451653
0.000106663
0.000247152
0.000292113
0.000299974
0.000305714
0.000306696
0.000305707
0.00029997
0.000292117
0.000247185
0.00010675
0.000509361
0.000620703
0.000631987
0.000636265
0.000635984
0.000636247
0.000631971
0.00062071
0.000509432
0.000189997
0.000739608
0.000863551
0.000888462
0.000899205
0.000901327
0.000899191
0.000888449
0.000863569
0.000739673
0.000353554
0.000813759
0.000871526
0.000897174
0.000910267
0.000914271
0.000910257
0.000897161
0.000871539
0.00081377
0.000689117
0.000851956
0.000805783
0.000822821
0.0008344
0.00083931
0.000834392
0.000822805
0.000805778
0.000851905
0.00103113
0.000852235
0.000700832
0.000704603
0.000712821
0.00071761
0.000712815
0.000704584
0.000700808
0.000852138
0.00125267
0.000805057
0.000580324
0.000568149
0.000572859
0.000576933
0.000572851
0.000568126
0.000580286
0.000804944
0.00126175
0.000714766
0.000468528
0.000442796
0.000444883
0.000447977
0.000444875
0.000442773
0.000468484
0.000714659
0.00107245
0.000601813
0.000392762
0.000366202
0.000368067
0.000370172
0.000368063
0.000366188
0.000392729
0.000601732
0.000813126
0.000502629
0.000382342
0.000374531
0.000379601
0.00038109
0.000379607
0.000374536
0.000382337
0.000502586
0.000156836
0.000118706
0.000157048
0.000186088
0.000202201
0.000207164
0.000202198
0.000186088
0.000157068
0.00011875
0.000879137
0.000468136
0.000499997
0.000542997
0.000581168
0.000593609
0.000581162
0.00054299
0.000500024
0.000468207
0.00136805
0.000861806
0.000892549
0.000935465
0.000968157
0.00097947
0.000968155
0.000935469
0.000892576
0.00086187
0.00152171
0.00092325
0.00097792
0.00102432
0.0010535
0.00106342
0.0010535
0.00102434
0.000977948
0.000923309
0.00133318
0.00090327
0.000969287
0.00101111
0.00103708
0.00104571
0.00103709
0.00101114
0.00096931
0.000903311
0.0010202
0.000852869
0.00091806
0.000950763
0.00097238
0.000979555
0.000972397
0.000950797
0.000918076
0.000852891
0.000732834
0.000785602
0.00083365
0.000855128
0.000871123
0.000876584
0.000871147
0.000855167
0.000833658
0.000785601
0.000552158
0.000695798
0.000721519
0.000733913
0.000744455
0.000748122
0.000744482
0.000733954
0.000721526
0.000695781
0.000453374
0.000579661
0.000596229
0.000603585
0.000609585
0.000611602
0.000609612
0.000603624
0.000596238
0.000579643
0.000366248
0.000455372
0.000476075
0.000481039
0.000483364
0.000484081
0.000483385
0.000481068
0.000476084
0.000455366
0.000625351
0.000480585
0.000460875
0.000478569
0.000487666
0.00048885
0.000487683
0.000478594
0.0004609
0.000480574
0.000517273
0.000504893
0.000566702
0.000602728
0.000616066
0.000617849
0.000616083
0.000602756
0.000566745
0.000504914
0.000525881
0.000596524
0.000695647
0.00074155
0.000757862
0.000760463
0.000757873
0.000741573
0.000695698
0.000596561
0.000623583
0.000726734
0.000829289
0.000877597
0.000894715
0.000897981
0.000894719
0.00087761
0.00082934
0.000726773
0.000753086
0.000844516
0.00092849
0.000971768
0.000986689
0.000990018
0.000986684
0.00097177
0.000928531
0.000844547
0.000841314
0.000894492
0.000949072
0.000983061
0.000993999
0.000996965
0.000993989
0.000983052
0.000949094
0.00089451
0.00083624
0.000843522
0.00086732
0.000890098
0.000896052
0.000898289
0.000896039
0.00089008
0.000867318
0.000843526
0.000692783
0.00065956
0.000651427
0.000662316
0.000662877
0.000663661
0.000662861
0.000662293
0.000651405
0.000659555
0.000129254
0.000115195
0.000109177
0.000112207
0.000112412
0.000112489
0.000112409
0.000112203
0.000109174
0.000115194
6.21494e-05
5.95723e-05
5.84643e-05
6.01095e-05
6.06951e-05
6.08365e-05
6.06945e-05
6.01093e-05
5.84646e-05
5.95731e-05
0.000384825
0.000382251
0.000394225
0.000399025
0.000402153
0.000403136
0.000402157
0.000399033
0.000394229
0.000382256
0.000391268
0.000401037
0.000413546
0.000423716
0.000428596
0.000430819
0.000428585
0.000423707
0.000413547
0.00040106
0.000489813
0.000501467
0.000516434
0.000533618
0.000541575
0.000545657
0.000541559
0.000533603
0.000516435
0.000501501
0.00063048
0.000639304
0.000655793
0.000677786
0.000688218
0.000694105
0.000688205
0.000677775
0.000655792
0.00063934
0.000767068
0.000766254
0.00078349
0.000808061
0.000820426
0.000827849
0.00082042
0.000808057
0.000783488
0.000766287
0.000860191
0.000852764
0.000872576
0.000899591
0.000914911
0.000923778
0.000914913
0.000899595
0.000872573
0.000852792
0.000884232
0.000874882
0.000900813
0.000931625
0.000950457
0.000960093
0.000950467
0.00093164
0.000900817
0.000874905
0.000766332
0.000762227
0.000797129
0.000829941
0.000851256
0.00086027
0.000851273
0.000829968
0.000797142
0.000762247
0.000120201
0.000113774
0.000131828
0.000143609
0.000151088
0.000154879
0.000151102
0.000143626
0.00013183
0.000113779
3.35382e-05
3.2176e-05
3.54959e-05
3.81983e-05
3.98509e-05
4.05942e-05
3.98537e-05
3.82018e-05
3.54974e-05
3.21769e-05
0.000625886
0.000478323
0.000460968
0.000477729
0.000486316
0.000487666
0.000486331
0.000477752
0.000460992
0.000478316
0.00052711
0.000517226
0.000572848
0.000608349
0.00062045
0.000622073
0.000620467
0.000608377
0.00057289
0.000517249
0.000543582
0.000612089
0.000699849
0.000744026
0.000758427
0.000760633
0.000758442
0.00074405
0.000699897
0.000612125
0.000627605
0.000722774
0.000813709
0.0008588
0.000874241
0.000876979
0.000874249
0.000858815
0.000813757
0.000722809
0.000724155
0.000810376
0.000887314
0.000927727
0.000942685
0.000945536
0.000942682
0.000927727
0.000887355
0.000810402
0.000803034
0.000861562
0.000917281
0.000949673
0.00096215
0.000963806
0.000962132
0.000949657
0.000917311
0.000861578
0.000832819
0.000857435
0.000889888
0.000912912
0.000923003
0.000923874
0.000922974
0.000912886
0.000889899
0.000857442
0.000747639
0.00072893
0.000736664
0.000745326
0.000750394
0.000750834
0.000750361
0.000745291
0.000736649
0.000728924
0.000105047
9.79754e-05
0.000105843
0.000107636
0.000110138
0.000111
0.000110134
0.000107634
0.000105837
9.79731e-05
2.13911e-05
1.97512e-05
2.22164e-05
2.33308e-05
2.42229e-05
2.46346e-05
2.42233e-05
2.33317e-05
2.22156e-05
1.97509e-05
0.000360541
0.000376165
0.000393143
0.000397876
0.000399604
0.000400302
0.000399609
0.000397884
0.000393147
0.000376175
0.00038517
0.000396363
0.000408915
0.000418264
0.000421778
0.000423739
0.000421767
0.000418255
0.000408916
0.000396388
0.000480856
0.00048538
0.000495813
0.000510815
0.000517706
0.000521403
0.000517689
0.0005108
0.000495814
0.000485415
0.000600618
0.000599887
0.000608922
0.000627424
0.000637201
0.000642204
0.000637184
0.00062741
0.000608922
0.000599925
0.000724795
0.000720975
0.000729598
0.000750193
0.000762102
0.000767737
0.000762085
0.000750181
0.000729599
0.000721011
0.00084857
0.00084615
0.000854484
0.000877256
0.000891464
0.000897426
0.00089145
0.000877245
0.000854489
0.000846183
0.000948371
0.000953571
0.000965471
0.000992478
0.00100997
0.00101635
0.00100996
0.00099247
0.000965484
0.000953599
0.000883375
0.000892258
0.000921414
0.00095333
0.00097554
0.000982111
0.000975541
0.00095334
0.000921438
0.000892278
0.000135212
0.00013861
0.000153221
0.000162572
0.000172062
0.00017437
0.000172067
0.000162583
0.000153232
0.000138615
2.25601e-05
2.28395e-05
2.61406e-05
2.80353e-05
2.98982e-05
3.04426e-05
2.98997e-05
2.80382e-05
2.61426e-05
2.28403e-05
0.000622928
0.000475187
0.000458944
0.000475272
0.000483904
0.000485256
0.000483919
0.000475294
0.000458967
0.000475183
0.000529001
0.000515976
0.000570631
0.00060512
0.000616828
0.000618497
0.000616846
0.000605148
0.000570672
0.000516
0.000545166
0.000609041
0.000694097
0.000736438
0.000749798
0.000751912
0.000749813
0.000736462
0.000694144
0.000609076
0.000634846
0.000727425
0.000814966
0.000858096
0.000872002
0.000874551
0.00087201
0.000858109
0.000815011
0.000727458
0.000761437
0.000851056
0.000925458
0.000966202
0.000980028
0.000982727
0.000980024
0.000966199
0.000925499
0.000851081
0.000884059
0.000959887
0.00101041
0.00104686
0.00105979
0.00106242
0.00105977
0.00104684
0.00101044
0.000959903
0.000950012
0.000995426
0.00102265
0.0010534
0.00106455
0.00106681
0.00106452
0.00105337
0.00102267
0.000995431
0.000823008
0.000828994
0.000843418
0.000862464
0.000871112
0.000872969
0.000871085
0.000862431
0.000843417
0.000828988
0.000125032
0.000124645
0.000128118
0.000130951
0.000133504
0.000133824
0.000133498
0.000130945
0.000128117
0.000124643
1.92533e-05
1.86144e-05
1.98473e-05
2.03341e-05
2.09724e-05
2.11332e-05
2.09719e-05
2.0334e-05
1.98471e-05
1.86142e-05
0.000340967
0.000373802
0.0003929
0.000397435
0.000398202
0.000398872
0.000398206
0.000397444
0.000392904
0.000373813
0.000376619
0.000392381
0.000406761
0.000415164
0.000417801
0.000419748
0.00041779
0.000415156
0.000406762
0.000392406
0.000479544
0.00048453
0.000496366
0.000510386
0.000516808
0.000520465
0.000516789
0.000510371
0.000496367
0.000484565
0.000611741
0.000614068
0.000622092
0.000640159
0.000649832
0.000654688
0.000649811
0.000640143
0.000622093
0.000614108
0.000753714
0.000755378
0.000759354
0.000781699
0.000794067
0.000799595
0.000794049
0.000781684
0.000759356
0.000755418
0.000889387
0.000893379
0.000896592
0.000924432
0.000939555
0.000945799
0.000939541
0.000924418
0.000896598
0.000893415
0.000976192
0.000984795
0.000998376
0.00103286
0.0010523
0.00105982
0.0010523
0.00103285
0.000998388
0.000984824
0.00087438
0.000889772
0.000922834
0.000961714
0.000986611
0.000994648
0.000986619
0.000961728
0.000922858
0.000889791
0.000138472
0.00014602
0.000157411
0.000170902
0.000180536
0.000182795
0.00018054
0.00017091
0.000157423
0.000146025
2.31958e-05
2.4392e-05
2.66963e-05
2.88282e-05
3.05683e-05
3.09525e-05
3.05692e-05
2.88301e-05
2.66985e-05
2.43928e-05
0.000618851
0.000471301
0.000455646
0.000472673
0.00048185
0.000483248
0.000481864
0.000472695
0.00045567
0.000471299
0.000533889
0.000517863
0.000571204
0.000604747
0.000616848
0.000618502
0.000616864
0.000604773
0.000571245
0.000517888
0.000557289
0.000617861
0.000698694
0.000738449
0.000751616
0.00075356
0.00075163
0.00073847
0.000698738
0.000617896
0.000658792
0.000748096
0.000831189
0.000872848
0.00088614
0.000888526
0.000886147
0.000872859
0.000831233
0.000748128
0.000804254
0.000897184
0.000971089
0.00101183
0.00102481
0.001028
0.0010248
0.00101183
0.000971127
0.000897208
0.000954177
0.00103137
0.00108934
0.00112768
0.00114035
0.00114463
0.00114034
0.00112767
0.00108937
0.00103139
0.00101821
0.00106592
0.00110822
0.00114143
0.00115352
0.00115827
0.0011535
0.0011414
0.00110823
0.00106592
0.000851711
0.000864562
0.000887696
0.000909285
0.000918471
0.000921889
0.000918448
0.000909255
0.000887693
0.000864552
0.000130322
0.000131349
0.000134719
0.000138852
0.000140845
0.000141337
0.000140838
0.000138843
0.000134716
0.000131346
1.87481e-05
1.8402e-05
1.90283e-05
1.96908e-05
2.01666e-05
2.0257e-05
2.01658e-05
1.96899e-05
1.90277e-05
1.84017e-05
0.000323241
0.000375574
0.000396258
0.000399874
0.000399908
0.000400379
0.000399914
0.000399883
0.000396262
0.000375585
0.000369358
0.000395709
0.000410833
0.000416547
0.000418052
0.000419765
0.000418041
0.000416538
0.000410832
0.000395735
0.000488967
0.000499719
0.000513317
0.000525469
0.000531134
0.000534761
0.000531115
0.000525454
0.000513317
0.000499755
0.000649189
0.000657872
0.000670766
0.000690136
0.000699996
0.000705111
0.000699977
0.00069012
0.000670769
0.000657912
0.000815649
0.000824639
0.000834634
0.000859779
0.00087327
0.000879528
0.000873254
0.000859765
0.000834641
0.000824679
0.000943385
0.000951343
0.000959506
0.00099006
0.00100714
0.00101451
0.00100713
0.000990052
0.000959516
0.000951379
0.000981401
0.000990541
0.0010056
0.00104153
0.001063
0.00107137
0.001063
0.00104154
0.00100561
0.000990572
0.000841293
0.000857469
0.000885385
0.000923902
0.000948876
0.000957149
0.000948887
0.000923919
0.000885409
0.00085749
0.000140289
0.000149494
0.0001593
0.000173542
0.000183209
0.000185723
0.000183213
0.000173549
0.000159312
0.000149499
2.51155e-05
2.69174e-05
2.9066e-05
3.16086e-05
3.3468e-05
3.39332e-05
3.34689e-05
3.16102e-05
2.90683e-05
2.6918e-05
0.000617265
0.000469213
0.000453526
0.000471615
0.000481332
0.000482831
0.000481346
0.000471636
0.00045355
0.000469211
0.000544111
0.000523146
0.00057675
0.00061104
0.000624006
0.000625794
0.000624021
0.000611065
0.000576791
0.000523171
0.000578951
0.000635822
0.000716861
0.000757401
0.000771484
0.000773523
0.000771496
0.000757421
0.000716907
0.000635858
0.0006843
0.000770987
0.000852582
0.000894868
0.000908637
0.000911077
0.000908643
0.000894878
0.000852627
0.00077102
0.000812743
0.000896912
0.00097021
0.00101104
0.00102384
0.00102723
0.00102384
0.00101104
0.000970247
0.000896936
0.000933531
0.000999892
0.00106359
0.00110127
0.00111298
0.00111769
0.00111297
0.00110126
0.00106362
0.000999905
0.00100011
0.00104191
0.00109434
0.00112486
0.00113449
0.00113959
0.00113447
0.00112484
0.00109435
0.00104191
0.00086508
0.000878829
0.000906418
0.000922624
0.000927274
0.000930214
0.000927251
0.000922595
0.000906407
0.000878817
0.000123557
0.000122917
0.000126495
0.000129486
0.00012994
0.000130399
0.000129934
0.000129478
0.000126488
0.000122916
1.63815e-05
1.59579e-05
1.64217e-05
1.73141e-05
1.77298e-05
1.78508e-05
1.77289e-05
1.73131e-05
1.64207e-05
1.59579e-05
0.000312026
0.000377651
0.000400314
0.000403466
0.000403587
0.000403915
0.000403593
0.000403475
0.000400318
0.000377661
0.000359988
0.000399993
0.000416072
0.000420202
0.000421309
0.000422789
0.000421299
0.000420193
0.00041607
0.000400019
0.000483253
0.000505098
0.000519761
0.000530652
0.00053581
0.000539363
0.000535794
0.000530636
0.000519757
0.000505134
0.000652496
0.000668908
0.00068889
0.000709106
0.000719522
0.000725378
0.000719508
0.000709094
0.000688891
0.000668949
0.000846632
0.000868869
0.000894662
0.000921911
0.000937043
0.000944832
0.000937033
0.000921903
0.000894671
0.000868909
0.0010293
0.00105802
0.0010831
0.00111253
0.00113082
0.00113931
0.00113082
0.00111253
0.00108311
0.00105805
0.00112369
0.00115184
0.00116989
0.00119874
0.00121892
0.00122678
0.00121892
0.00119874
0.00116991
0.00115186
0.00101831
0.00103503
0.00104522
0.0010756
0.00109784
0.00110511
0.00109784
0.00107561
0.00104525
0.00103504
0.000296912
0.00030983
0.000312474
0.000323878
0.000334279
0.000337606
0.000334284
0.000323884
0.000312494
0.000309832
8.73164e-05
9.37218e-05
9.90017e-05
0.000102509
0.000105549
0.000106586
0.000105551
0.000102512
9.90064e-05
9.37226e-05
)
;

boundaryField
{
    leftWall
    {
        type            kqRWallFunction;
        value           nonuniform List<scalar> 
100
(
8.04641e-06
3.70525e-05
3.02664e-05
0.000150271
8.32297e-05
0.000266672
8.89105e-05
0.000319427
0.000106663
0.000156836
6.02059e-05
0.000177641
0.000193339
0.000238069
0.000217829
0.000251189
0.000236144
0.000234533
0.000247152
0.000118706
0.000131439
0.000255053
0.000244733
0.000272242
0.00025554
0.0002742
0.000274429
0.000256792
0.000292113
0.000157048
0.000168982
0.000287674
0.000259665
0.000297845
0.000262414
0.000295286
0.000278497
0.000276101
0.000299974
0.000186088
0.000174891
0.000305626
0.000268943
0.000316691
0.000267702
0.000311506
0.000281796
0.000291412
0.000305714
0.000202201
0.000176919
0.000311209
0.000270532
0.000322356
0.000267601
0.000316756
0.000281372
0.000296671
0.000306696
0.000207164
0.000174886
0.00030563
0.000268945
0.000316692
0.000267697
0.000311505
0.000281789
0.000291409
0.000305707
0.000202198
0.000168986
0.000287686
0.000259673
0.000297853
0.000262414
0.000295287
0.000278492
0.000276099
0.00029997
0.000186088
0.00013146
0.000255093
0.000244758
0.000272269
0.000255553
0.000274217
0.000274432
0.000256808
0.000292117
0.000157068
6.0245e-05
0.000177688
0.000193401
0.000238118
0.000217883
0.000251223
0.000236179
0.000234564
0.000247185
0.00011875
)
;
    }
    rightWall
    {
        type            kqRWallFunction;
        value           nonuniform List<scalar> 
100
(
6.21494e-05
3.35382e-05
2.13911e-05
2.25601e-05
1.92533e-05
2.31958e-05
1.87481e-05
2.51155e-05
1.63815e-05
8.73164e-05
5.95723e-05
3.2176e-05
1.97512e-05
2.28395e-05
1.86144e-05
2.4392e-05
1.8402e-05
2.69174e-05
1.59579e-05
9.37218e-05
5.84643e-05
3.54959e-05
2.22164e-05
2.61406e-05
1.98473e-05
2.66963e-05
1.90283e-05
2.9066e-05
1.64217e-05
9.90017e-05
6.01095e-05
3.81983e-05
2.33308e-05
2.80353e-05
2.03341e-05
2.88282e-05
1.96908e-05
3.16086e-05
1.73141e-05
0.000102509
6.06951e-05
3.98509e-05
2.42229e-05
2.98982e-05
2.09724e-05
3.05683e-05
2.01666e-05
3.3468e-05
1.77298e-05
0.000105549
6.08365e-05
4.05942e-05
2.46346e-05
3.04426e-05
2.11332e-05
3.09525e-05
2.0257e-05
3.39332e-05
1.78508e-05
0.000106586
6.06945e-05
3.98537e-05
2.42233e-05
2.98997e-05
2.09719e-05
3.05692e-05
2.01658e-05
3.34689e-05
1.77289e-05
0.000105551
6.01093e-05
3.82018e-05
2.33317e-05
2.80382e-05
2.0334e-05
2.88301e-05
1.96899e-05
3.16102e-05
1.73131e-05
0.000102512
5.84646e-05
3.54974e-05
2.22156e-05
2.61426e-05
1.98471e-05
2.66985e-05
1.90277e-05
2.90683e-05
1.64207e-05
9.90064e-05
5.95731e-05
3.21769e-05
1.97509e-05
2.28403e-05
1.86142e-05
2.43928e-05
1.84017e-05
2.6918e-05
1.59579e-05
9.37226e-05
)
;
    }
    leftSides_periodic0
    {
        type            cyclic;
    }
    leftSides_periodic1
    {
        type            cyclic;
    }
    rightSides_periodic0
    {
        type            cyclic;
    }
    rightSides_periodic1
    {
        type            cyclic;
    }
    leftInOut_periodic0
    {
        type            cyclic;
    }
    leftInOut_periodic1
    {
        type            cyclic;
    }
    rightInOut_periodic0
    {
        type            cyclic;
    }
    rightInOut_periodic1
    {
        type            cyclic;
    }
}


// ************************************************************************* //
