/*--------------------------------*- C++ -*----------------------------------*\
| =========                 |                                                 |
| \\      /  F ield         | OpenFOAM: The Open Source CFD Toolbox           |
|  \\    /   O peration     | Version:  v1912                                 |
|   \\  /    A nd           | Website:  www.openfoam.com                      |
|    \\/     M anipulation  |                                                 |
\*---------------------------------------------------------------------------*/
FoamFile
{
    version     2.0;
    format      ascii;
    class       volScalarField;
    location    "97.2";
    object      k;
}
// * * * * * * * * * * * * * * * * * * * * * * * * * * * * * * * * * * * * * //

dimensions      [0 2 -2 0 0 0 0];


internalField   nonuniform List<scalar> 
2528
(
6.34097e-07
1.16011e-06
7.82515e-07
6.37371e-07
2.68366e-07
4.63815e-07
3.36345e-07
2.29797e-07
1.24194e-06
2.02821e-06
1.53805e-06
9.49468e-07
4.30893e-06
6.89058e-06
5.24476e-06
3.245e-06
1.07788e-05
1.68861e-05
1.28881e-05
8.06961e-06
2.1931e-05
3.3569e-05
2.57443e-05
1.63873e-05
3.8719e-05
5.77296e-05
4.46022e-05
2.89918e-05
6.14709e-05
8.9044e-05
6.94806e-05
4.63298e-05
8.96883e-05
0.000126008
9.94959e-05
6.83503e-05
0.000122089
0.000166293
0.00013301
9.44461e-05
0.00015693
0.000207387
0.000168045
0.00012355
0.000192441
0.000247169
0.000202753
0.000154368
0.000227146
0.000284185
0.000235708
0.000185644
0.000260058
0.000317659
0.000266033
0.000216345
0.000290827
0.000347385
0.000293518
0.000245747
0.000319217
0.000373477
0.000318024
0.000273462
0.000345138
0.000396036
0.000339531
0.000299432
0.000368577
0.00041524
0.000358107
0.000323567
0.000389575
0.000431312
0.000373875
0.00034582
0.000408203
0.00044449
0.00038699
0.000366187
0.000424551
0.000455016
0.000397625
0.0003847
0.000438719
0.000463118
0.000405951
0.000401411
0.000450813
0.000469008
0.000412138
0.00041639
0.000460946
0.00047288
0.000416348
0.000429709
0.000469237
0.000474916
0.000418743
0.000441453
0.000475815
0.000475288
0.000419486
0.000451712
0.000480812
0.00047416
0.000418741
0.000460587
0.000484352
0.000471685
0.000416664
0.000468172
0.00048655
0.000468002
0.000413405
0.000474541
0.00048751
0.000463236
0.000409091
0.000479748
0.000487325
0.000457488
0.000403822
0.000483835
0.00048608
0.000450843
0.000397665
0.000486863
0.000483856
0.000443385
0.000390662
0.000488923
0.000480731
0.000435207
0.000382842
0.000490129
0.000476793
0.000426426
0.000374275
0.0004906
0.000472173
0.000417188
0.000365094
0.00049043
0.000467073
0.000407691
0.000355456
0.00048968
0.000461787
0.000398179
0.000345458
0.000488362
0.000456626
0.000388904
0.000335124
0.000486421
0.000451788
0.000380052
0.00032445
0.000483734
0.000447253
0.000371658
0.000313462
0.000480147
0.000442837
0.000363581
0.00030222
0.000475594
0.000438336
0.000355635
0.0002908
0.000470184
0.00043361
0.000347713
0.000279274
0.000464114
0.000428603
0.000339791
0.000267732
0.000457568
0.000423329
0.00033189
0.000256292
0.000450694
0.000417835
0.000324056
0.000245111
0.000443587
0.000412173
0.000316353
0.000234344
0.000436294
0.000406392
0.000308847
0.000224007
0.00042882
0.000400542
0.000301578
0.000214057
0.00042114
0.000394669
0.000294506
0.000204555
0.000413203
0.000388823
0.000287489
0.000195637
0.000404953
0.000383052
0.000280285
0.000187434
0.000396344
0.000377402
0.000272544
0.000179992
0.000387366
0.000371922
0.000263757
0.00017328
0.000378067
0.000366662
0.000253272
0.000167254
0.000368591
0.00036169
0.000241163
0.000161891
0.000359192
0.000357095
0.000228682
0.000157201
0.000350176
0.000352974
0.000217236
0.000153247
0.000341757
0.000349416
0.000207233
0.000150087
0.000334028
0.000346448
0.000198057
0.000147755
0.000326882
0.000343999
0.000189402
0.000146288
0.000319793
0.000341848
0.000181362
0.000145733
0.000312122
0.000339551
0.000174004
0.000146132
0.000303671
0.000336301
0.000167366
0.000147527
0.000294643
0.000330841
0.000161552
0.000149957
0.000285302
0.000321921
0.000156693
0.000153461
0.000275906
0.000309641
0.000152854
0.00015807
0.000266693
0.000295861
0.000150081
0.000163811
0.000257814
0.00028223
0.000148411
0.000170712
0.000249206
0.000269266
0.000147872
0.000178795
0.000240751
0.000256622
0.000148481
0.000187993
0.000232436
0.000244093
0.000150252
0.000198141
0.000224284
0.000231796
0.000153193
0.000209201
0.00021631
0.000219811
0.000157313
0.000221197
0.000208533
0.000208206
0.000162616
0.000234063
0.00020098
0.000197042
0.000169106
0.000247652
0.000193695
0.000186386
0.00017678
0.000261728
0.000186744
0.000176322
0.000185632
0.000276114
0.000180236
1.03959e-06
1.46966e-06
1.45417e-06
1.76229e-06
3.53562e-07
5.09254e-07
4.56233e-07
5.66354e-07
1.37584e-06
2.01498e-06
1.68362e-06
2.09563e-06
4.66789e-06
6.80537e-06
5.67843e-06
6.98737e-06
1.1513e-05
1.67059e-05
1.39675e-05
1.70016e-05
2.30707e-05
3.3321e-05
2.79141e-05
3.36278e-05
4.0076e-05
5.75417e-05
4.83273e-05
5.7602e-05
6.26187e-05
8.91925e-05
7.51714e-05
8.85878e-05
9.00327e-05
0.000126933
0.000107438
0.000125126
0.000120978
0.000168537
0.000143314
0.000164968
0.000153736
0.000211473
0.00018064
0.000205674
0.000186598
0.000253484
0.000217416
0.000245164
0.000218157
0.000292931
0.000252133
0.000281997
0.000247454
0.00032885
0.000283864
0.000315393
0.000273972
0.000360824
0.000312202
0.000345042
0.000297542
0.000388944
0.000337174
0.000370994
0.00031826
0.000413316
0.000358869
0.000393522
0.000336383
0.000434162
0.000377459
0.000413005
0.000352234
0.000451771
0.000393175
0.000429847
0.000366137
0.000466428
0.000406271
0.000444437
0.000378374
0.000478394
0.000417008
0.00045712
0.000389171
0.000487999
0.000425649
0.000468192
0.000398707
0.000495697
0.000432469
0.000477893
0.000407133
0.000502073
0.000437745
0.000486414
0.000414587
0.000507451
0.000441726
0.000493895
0.000421207
0.000512024
0.000444593
0.000500435
0.000427127
0.000516037
0.000446466
0.0005061
0.000432492
0.000519573
0.000447451
0.000510941
0.000437456
0.000522358
0.000447651
0.000514995
0.000442188
0.000523572
0.000447177
0.000518288
0.000446871
0.000523038
0.000446124
0.000520846
0.00045169
0.000521662
0.000444589
0.000522692
0.000456811
0.000520704
0.000442761
0.000523849
0.000462338
0.000520633
0.000440906
0.000524342
0.000468268
0.000521459
0.000438898
0.000524198
0.000474711
0.000523032
0.000435611
0.000523441
0.000482235
0.000525332
0.000429499
0.000522101
0.000491536
0.000528535
0.000421031
0.00052021
0.0005006
0.000532172
0.000411483
0.000517803
0.000500911
0.000531912
0.000402088
0.000514921
0.000491517
0.000519056
0.000393327
0.000511603
0.00047773
0.000499196
0.00038526
0.000507884
0.000464605
0.000477283
0.000377863
0.000503795
0.00045357
0.000456755
0.000371186
0.000499371
0.000444424
0.000438759
0.000365322
0.000494651
0.000436742
0.000423186
0.000360371
0.000489685
0.00043024
0.000409421
0.000356407
0.000484551
0.000424704
0.00039703
0.000353419
0.000479376
0.000419962
0.000385729
0.000351319
0.000474354
0.000415869
0.000375367
0.000350109
0.000469749
0.000412311
0.000365809
0.000349206
0.000465888
0.000409197
0.000356875
0.000346348
0.000463139
0.000406455
0.000348402
0.000336069
0.000461892
0.000404026
0.000340257
0.000321155
0.000462549
0.00040186
0.000332339
0.00030636
0.000465471
0.000399916
0.000324576
0.00029341
0.000470903
0.000398153
0.000316926
0.000282176
0.000478894
0.000396532
0.000309371
0.000272639
0.000489194
0.000395012
0.000301906
0.000264572
0.000502323
0.000393546
0.000294503
0.000257819
0.00051685
0.000392085
0.000287158
0.000252354
0.00051346
0.000390587
0.00027993
0.000248205
0.000489091
0.000388968
0.000272901
0.00024531
0.000458898
0.000387139
0.000266191
0.000243569
0.000432921
0.000385102
0.000259921
0.000242896
0.000411597
0.000382917
0.000254181
0.000243221
0.000394192
0.000380539
0.00024904
0.000244485
0.000379763
0.000377652
0.000244552
0.000246639
0.000367711
0.000373716
0.000240765
0.000249636
0.000357676
0.000368666
0.000237718
0.000253429
0.00034939
0.000362988
0.000235444
0.000257968
0.000342934
0.000357193
0.00023397
0.000263193
0.000338377
0.000351571
0.000233318
0.000269039
0.000335602
0.000346246
0.000233505
0.000275429
0.000334549
0.000341306
0.000234537
0.000282277
0.000335203
0.000336837
0.000236417
0.000289483
0.000337578
0.000332914
0.000239135
0.000296927
0.000341705
0.000329616
0.000242673
0.000304464
0.000347618
0.000327026
0.000247006
0.000311967
0.000355335
1.92581e-06
1.88809e-06
1.69526e-06
1.80294e-06
5.96005e-07
4.8537e-07
4.33348e-07
4.31748e-07
2.02728e-06
1.46547e-06
1.18926e-06
1.12116e-06
6.65938e-06
4.84642e-06
3.82221e-06
3.60724e-06
1.61925e-05
1.18777e-05
9.2514e-06
8.75853e-06
3.21056e-05
2.37017e-05
1.83307e-05
1.73753e-05
5.50913e-05
4.1006e-05
3.15915e-05
2.9919e-05
8.47263e-05
6.38057e-05
4.91012e-05
4.63664e-05
0.000119494
9.1372e-05
7.04193e-05
6.61802e-05
0.000157179
0.00012236
9.46591e-05
8.84019e-05
0.000195452
0.000155118
0.000120656
0.00011185
0.000232379
0.000188047
0.000147191
0.000135355
0.000266683
0.000219858
0.000173194
0.000157933
0.000297795
0.000249708
0.000197861
0.000178884
0.000325584
0.000277351
0.000220688
0.000197823
0.00035
0.000302591
0.000241465
0.000214662
0.000371133
0.000325356
0.000260143
0.000229381
0.000389172
0.00034567
0.000276721
0.000242042
0.000404363
0.000363626
0.000291263
0.000252769
0.000416981
0.000379363
0.000303884
0.000261726
0.000427309
0.000393044
0.000314739
0.000269102
0.000435625
0.000404843
0.000324015
0.000275097
0.00044219
0.000414939
0.000331924
0.000279907
0.000447241
0.000423504
0.000338662
0.00028372
0.000450982
0.000430695
0.000344369
0.000286701
0.000453581
0.000436656
0.000349151
0.000288976
0.000455173
0.000441513
0.000353086
0.000290651
0.000455876
0.000445375
0.000356232
0.000291819
0.000455802
0.000448333
0.000358637
0.000292564
0.000455053
0.000450469
0.000360346
0.000292966
0.000453723
0.000451857
0.000361406
0.000293091
0.00045186
0.000452574
0.000361868
0.000292979
0.000449493
0.000452681
0.000361782
0.000292638
0.000446634
0.000452225
0.000361202
0.000292062
0.000443289
0.000451224
0.000360161
0.000291244
0.000439465
0.000449664
0.000358658
0.000290187
0.000435167
0.000447487
0.000356661
0.000288908
0.000430338
0.000444576
0.00035415
0.000287435
0.00042482
0.000440759
0.000351131
0.000285818
0.000418379
0.000435868
0.000347636
0.000284131
0.000410945
0.000429852
0.000343697
0.000282452
0.000402712
0.000422895
0.000339351
0.000280815
0.000393926
0.000415296
0.000334632
0.00027916
0.000384711
0.000407239
0.000329573
0.000277392
0.000375134
0.0003988
0.000324203
0.00027543
0.000365262
0.00039004
0.00031855
0.00027322
0.00035513
0.000381012
0.000312631
0.000270726
0.000344744
0.000371753
0.000306454
0.000267928
0.000334105
0.000362292
0.000300013
0.000264827
0.000323212
0.000352647
0.000293285
0.000261438
0.000312063
0.000342832
0.000286234
0.000257788
0.000300649
0.000332857
0.000278805
0.000253913
0.000288959
0.00032273
0.000270949
0.000249855
0.000276992
0.000312464
0.000262719
0.000245651
0.000264728
0.000302077
0.000254308
0.000241322
0.000252187
0.000291604
0.000245931
0.000236864
0.000239411
0.000281103
0.000237733
0.000232246
0.000226415
0.000270636
0.000229832
0.00022738
0.000213225
0.000260262
0.000222326
0.000222118
0.000199872
0.000250046
0.000215301
0.000216253
0.000186402
0.00024006
0.00020883
0.000209586
0.000172886
0.00023038
0.000202995
0.000202231
0.000159436
0.000221089
0.0001979
0.00019468
0.000146229
0.000212271
0.000193611
0.000187322
0.000133546
0.000204008
0.000190152
0.000180263
0.000121803
0.000196406
0.000187527
0.000173507
0.000111547
0.000189606
0.000185723
0.000167035
0.000103177
0.000183714
0.000184708
0.000160818
9.65921e-05
0.000178795
0.000184428
0.000154806
9.15107e-05
0.000174899
0.000184806
0.000148935
8.76006e-05
0.000172058
0.000185751
0.000143153
8.45244e-05
0.000170278
0.000187156
0.000137416
8.20084e-05
0.000169539
0.000188911
0.000131694
7.98448e-05
0.000169794
0.000190909
0.000125965
7.78807e-05
0.00017097
0.000193066
0.00012022
7.60019e-05
0.000172983
0.00019535
0.000114457
7.4118e-05
0.000175737
0.000197801
0.000108681
7.21502e-05
0.000179135
0.000200564
0.000102896
7.00265e-05
0.000183083
0.000203931
9.71012e-05
8.20772e-07
9.64433e-07
1.01954e-06
1.35447e-06
2.33254e-07
2.80445e-07
2.78365e-07
5.15161e-07
8.3088e-07
9.92929e-07
9.34633e-07
2.22832e-06
2.83893e-06
3.35059e-06
3.16335e-06
7.63015e-06
7.10112e-06
8.28253e-06
7.85871e-06
1.88595e-05
1.44644e-05
1.66665e-05
1.58634e-05
3.77418e-05
2.55672e-05
2.9082e-05
2.77109e-05
6.51012e-05
4.06519e-05
4.56259e-05
4.34377e-05
0.000100293
5.94562e-05
6.58359e-05
6.25244e-05
0.000141256
8.12397e-05
8.87639e-05
8.39929e-05
0.000185131
0.000104939
0.00011318
0.000106622
0.000229067
0.000129374
0.000137823
0.000129186
0.000270861
0.000153464
0.000161614
0.000150696
0.000309521
0.000176581
0.000183896
0.000170731
0.000344526
0.000198337
0.000204374
0.000188957
0.000375622
0.000218459
0.000222851
0.000205171
0.000402764
0.00023679
0.000239245
0.000219274
0.000426047
0.000253269
0.000253561
0.00023125
0.000445657
0.000267902
0.000265862
0.000241144
0.000461831
0.000280729
0.000276248
0.000249049
0.000474834
0.000291755
0.000284844
0.00025509
0.000484924
0.000300903
0.000291789
0.0002594
0.000492323
0.000308042
0.000297256
0.0002621
0.000497199
0.000313136
0.000301481
0.000263271
0.000499719
0.000316418
0.000304749
0.000262984
0.000500193
0.000318402
0.000307295
0.000261403
0.000499218
0.000319662
0.000309143
0.000258896
0.000497529
0.000320607
0.000310038
0.000255991
0.000495524
0.000321388
0.000309637
0.000253164
0.000492945
0.000322025
0.00030791
0.000250714
0.000488671
0.000322541
0.000305349
0.000248851
0.000481753
0.000322989
0.000302636
0.000247701
0.000472648
0.000323414
0.000300163
0.000246907
0.000463146
0.000323827
0.000297924
0.000244864
0.000454457
0.000324207
0.000295824
0.000240286
0.000446644
0.000324523
0.000293786
0.000233405
0.000439685
0.000324741
0.000291789
0.000226099
0.000433806
0.00032483
0.000289814
0.000219656
0.000429405
0.000324761
0.000287828
0.000214012
0.000426358
0.000324504
0.000285801
0.000208901
0.000422547
0.000324041
0.000283711
0.000204198
0.000412361
0.000323361
0.000281548
0.000199852
0.000394248
0.000322469
0.000279314
0.000195809
0.000375428
0.000321382
0.000277014
0.000191999
0.000360456
0.000320122
0.000274651
0.000188361
0.00034764
0.000318712
0.000272222
0.000184842
0.00033541
0.000317179
0.000269717
0.000181402
0.000323596
0.000315555
0.000267121
0.000178012
0.000312338
0.000313877
0.000264411
0.000174654
0.000301749
0.000312192
0.000261561
0.000171322
0.000291893
0.00031056
0.000258564
0.000168019
0.000282811
0.000309059
0.000255462
0.000164756
0.000274516
0.000307789
0.000252334
0.000161558
0.000267049
0.000306875
0.000249251
0.00015846
0.000260468
0.000306464
0.000246254
0.000155509
0.000254833
0.000306732
0.000243347
0.000152762
0.000250193
0.000307884
0.000240504
0.000150276
0.000246583
0.000310144
0.000237677
0.000148108
0.000244022
0.000313758
0.00023482
0.000146316
0.000242579
0.000318981
0.000231899
0.000144948
0.000242353
0.000326083
0.000228896
0.000144054
0.000243005
0.000335359
0.000225808
0.000143676
0.000242218
0.000347237
0.0002226
0.000143848
0.000234628
0.000362112
0.000219173
0.000144594
0.000223788
0.000379666
0.000215379
0.000145941
0.000215575
0.000397938
0.000211134
0.000147926
0.000209003
0.000404044
0.00020653
0.000150599
0.000203397
0.000388079
0.000201783
0.000154021
0.000199163
0.000369996
0.000197077
0.000158278
0.000196612
0.000353641
0.000192511
0.000163483
0.000195864
0.000337334
0.000188111
0.000169788
0.00019697
0.000321911
0.000183842
0.000177226
0.000199932
0.000307876
0.000179628
0.000185897
0.000204718
0.000295466
0.000175394
0.000196182
0.000211275
0.000284702
0.000171174
0.000208446
0.000219548
0.0002755
0.000167142
0.000222959
0.000229508
0.000267721
0.000163552
0.000239647
0.000241026
0.00026142
0.000160657
0.000261258
0.000253872
0.000256688
0.000158682
0.000290264
0.000268168
0.000167025
0.000195493
0.000290179
0.000174389
0.000158788
0.000206071
0.000303036
0.000169491
0.000151811
0.000217235
0.000314633
0.000165765
0.000146167
0.000228952
0.000325463
0.000163389
0.000141939
0.000241186
0.000335874
0.00016252
0.000139211
0.000253892
0.000345988
0.000163253
0.000138059
0.000267022
0.000355867
0.00016558
0.000138542
0.000280534
0.000365533
0.000169339
0.000140693
0.000294373
0.000374978
0.000174178
0.000144514
0.000308472
0.000384169
0.000179489
0.000149954
0.000322725
0.000393052
0.000184465
0.000156817
0.000336972
0.000401552
0.000188814
0.000164869
0.000351359
0.000409577
0.000192839
0.000173906
0.000366482
0.000417005
0.000196907
0.000183588
0.000381504
0.000423691
0.000201288
0.00019363
0.000393587
0.000429461
0.000206154
0.000204002
0.000401976
0.000434139
0.000211598
0.000214726
0.000408244
0.000437713
0.000217653
0.000225786
0.000413827
0.000440358
0.000224308
0.000237108
0.000419112
0.000442256
0.000231526
0.000248578
0.000424248
0.000443538
0.000239254
0.000260146
0.000429311
0.000444289
0.00024744
0.000271863
0.000434348
0.000444566
0.00025604
0.0002838
0.00043938
0.000444404
0.000265036
0.00029599
0.000444408
0.000443822
0.000274447
0.000308437
0.000449418
0.000442828
0.000284316
0.000321123
0.000454389
0.000441423
0.000294695
0.000334012
0.000459294
0.000439607
0.0003056
0.000347097
0.0004641
0.000437378
0.000316894
0.00036043
0.000468767
0.000434739
0.000328261
0.000374044
0.000473251
0.000431698
0.000339431
0.000387842
0.000477495
0.000428273
0.000350043
0.000401521
0.000481438
0.000424505
0.000359524
0.000414666
0.000485011
0.000420474
0.000367685
0.000426904
0.000488132
0.000416306
0.000374684
0.000438046
0.000490707
0.000412134
0.000380826
0.00044814
0.000492643
0.000408025
0.000386385
0.000457377
0.000493907
0.000403944
0.000391525
0.00046595
0.000494533
0.000399812
0.00039632
0.000473979
0.000494584
0.000395546
0.000400802
0.000481515
0.000494128
0.000391086
0.000404996
0.000488573
0.000493229
0.000386386
0.000408937
0.000495165
0.000491947
0.000381422
0.000412636
0.000501326
0.000490334
0.000376186
0.000416062
0.000507121
0.00048843
0.00037068
0.000419114
0.000512602
0.000486237
0.000364904
0.000421636
0.00051775
0.000483713
0.00035884
0.000423461
0.000522458
0.00048078
0.000352446
0.000424443
0.000526554
0.000477344
0.000345662
0.000424454
0.000529842
0.000473305
0.000338418
0.000423376
0.000532121
0.000468525
0.000330633
0.000421084
0.000533187
0.000462849
0.000322209
0.000417428
0.000532834
0.000456093
0.000313025
0.000412226
0.000530835
0.00044805
0.000302932
0.000405291
0.000526923
0.000438487
0.000291733
0.000396426
0.000520786
0.000427151
0.000279212
0.000385441
0.000512077
0.000413776
0.000265209
0.000372163
0.00050042
0.000398093
0.000249622
0.000356443
0.000485424
0.000379845
0.000232404
0.000338163
0.000466697
0.000358804
0.000213581
0.000317252
0.000443879
0.000334811
0.000193256
0.000293709
0.000416673
0.000307803
0.000171601
0.000267627
0.00038491
0.000277859
0.000148903
0.000239223
0.000348617
0.000245243
0.000125736
0.000208866
0.000308101
0.000210319
0.000102881
0.000177012
0.000264002
0.000174089
8.12397e-05
0.000144751
0.000217192
0.000138146
6.16924e-05
0.000113539
0.000169945
0.000104411
4.49283e-05
8.49474e-05
0.000125311
7.4747e-05
3.13094e-05
6.03433e-05
8.63607e-05
5.04805e-05
2.08282e-05
4.05533e-05
5.52546e-05
3.20631e-05
1.31742e-05
2.56961e-05
3.26011e-05
1.90769e-05
7.86522e-06
1.52712e-05
1.75492e-05
1.05453e-05
4.37528e-06
8.42654e-06
8.44305e-06
5.32493e-06
2.219e-06
4.23565e-06
3.49591e-06
2.37756e-06
9.89322e-07
1.87363e-06
1.16687e-06
8.83209e-07
3.65075e-07
6.85802e-07
2.87306e-07
2.48936e-07
1.05657e-07
1.9151e-07
9.28298e-08
8.26513e-08
5.13159e-08
7.17678e-08
4.43501e-07
3.24903e-07
2.55338e-07
3.15126e-07
0.000325199
0.00025209
0.000319336
0.000364792
0.000324116
0.000257814
0.000326469
0.000375755
0.000323742
0.000264035
0.000333308
0.000387971
0.000324086
0.000270639
0.000339843
0.000401218
0.000325145
0.000277522
0.000346078
0.000415101
0.000326894
0.000284587
0.000352037
0.000429369
0.000329297
0.000291738
0.000357743
0.000443734
0.000332306
0.000298884
0.000363213
0.00045761
0.000335868
0.000305933
0.000368455
0.000470436
0.000339923
0.000312794
0.000373465
0.000482308
0.00034441
0.000319378
0.000378231
0.000494077
0.000349261
0.000325603
0.000382733
0.00050608
0.000354402
0.00033139
0.000386943
0.000518125
0.00035976
0.000336668
0.000390832
0.000530212
0.000365272
0.000341378
0.000394371
0.000542398
0.000370892
0.000345486
0.000397542
0.000554758
0.000376598
0.000349016
0.000400336
0.000567378
0.000382382
0.000352041
0.000402759
0.000580369
0.000388242
0.000354654
0.000404835
0.000593864
0.000394177
0.000356945
0.000406595
0.000608017
0.000400181
0.000359
0.000408085
0.000622959
0.000406246
0.000360897
0.000409352
0.000638866
0.000412359
0.000362706
0.000410454
0.00065615
0.000418498
0.000364491
0.00041146
0.000675396
0.000424633
0.000366306
0.000412455
0.00069659
0.000430732
0.000368196
0.000413563
0.000719157
0.000436775
0.000370201
0.000414965
0.000741585
0.000442764
0.000372357
0.000416905
0.00075666
0.000448719
0.000374693
0.000419678
0.000753808
0.000454642
0.000377237
0.000423609
0.000742505
0.000460521
0.000380009
0.000429078
0.000732427
0.000466336
0.000383028
0.00043662
0.000724575
0.000472069
0.000386314
0.000446713
0.000717828
0.00047772
0.000389888
0.000458653
0.000711776
0.000483314
0.000393773
0.000468558
0.00070666
0.000488909
0.000398
0.000469435
0.000702624
0.000494604
0.000402613
0.000458766
0.000699716
0.000500543
0.000407679
0.000444434
0.000697958
0.000506917
0.000413286
0.000432661
0.000697435
0.000513981
0.000419557
0.000423648
0.000698204
0.00052213
0.000426703
0.000416708
0.00069984
0.000531862
0.000434928
0.000411658
0.000700453
0.000543134
0.000443902
0.000408438
0.000697512
0.000554283
0.000452167
0.000406452
0.000690173
0.000561585
0.000457975
0.000403877
0.000680951
0.000563067
0.00046019
0.000399335
0.000672192
0.000560541
0.000460264
0.000392963
0.000664399
0.000557494
0.000460022
0.000385982
0.000657065
0.0005552
0.000460198
0.000379081
0.000649625
0.000553612
0.000460703
0.000371869
0.000641224
0.000552278
0.000461102
0.000363461
0.000631018
0.000550687
0.000460667
0.000353201
0.000618596
0.000547781
0.000458721
0.000340931
0.000604133
0.000542675
0.000454642
0.000326785
0.000587952
0.000534758
0.000448082
0.000310929
0.000570048
0.000523808
0.000438847
0.000293458
0.000550056
0.000509653
0.000426746
0.000274443
0.000527546
0.000492049
0.000411546
0.000253973
0.000502218
0.000470743
0.000393013
0.000232188
0.000473927
0.000445553
0.000370984
0.000209294
0.000442619
0.000416396
0.000345406
0.000185566
0.000408297
0.00038331
0.000316373
0.000161338
0.000371049
0.000346491
0.000284158
0.000136918
0.000331091
0.000306348
0.000249232
0.000112903
0.000288669
0.000263414
0.000212166
9.01448e-05
0.000244396
0.000218612
0.000173996
6.94997e-05
0.000199612
0.000173827
0.000136565
5.16445e-05
0.000156256
0.000131529
0.000102011
3.69442e-05
0.000116537
9.41845e-05
7.22245e-05
2.5412e-05
8.24282e-05
6.35794e-05
4.83423e-05
1.67696e-05
5.51199e-05
4.03425e-05
3.05177e-05
1.05671e-05
3.47488e-05
2.39547e-05
1.80845e-05
6.30371e-06
2.05485e-05
1.31821e-05
9.95399e-06
3.50873e-06
1.12761e-05
6.59189e-06
4.9853e-06
1.77983e-06
5.62464e-06
2.88816e-06
2.18907e-06
7.91248e-07
2.45706e-06
1.03698e-06
7.88096e-07
2.88134e-07
8.78732e-07
2.71226e-07
2.07e-07
7.72564e-08
2.28101e-07
6.16316e-08
4.78046e-08
2.17439e-08
4.85778e-08
1.87399e-07
1.47454e-07
8.34003e-08
1.34955e-07
6.76999e-05
0.000187468
0.000208302
9.13299e-05
6.51567e-05
0.000192144
0.000213715
8.56545e-05
6.23827e-05
0.000196991
0.000219757
8.00946e-05
5.93563e-05
0.00020194
0.000225997
7.46221e-05
5.60677e-05
0.000206937
0.000232172
6.92294e-05
5.25222e-05
0.000211946
0.000238159
6.3969e-05
4.87442e-05
0.000216953
0.00024369
5.89834e-05
4.47845e-05
0.000221961
0.000248371
5.4543e-05
4.07227e-05
0.000227003
0.000252036
5.10663e-05
3.66756e-05
0.000232147
0.000254712
4.92151e-05
3.2824e-05
0.000237504
0.000256541
4.98996e-05
2.9452e-05
0.000243236
0.000257737
5.33849e-05
2.69818e-05
0.000249552
0.000258573
5.91046e-05
2.59999e-05
0.000256696
0.000259356
6.64392e-05
2.73017e-05
0.000264953
0.000260389
7.48805e-05
3.13821e-05
0.00027459
0.000261992
8.40639e-05
3.79921e-05
0.000285516
0.000264456
9.37482e-05
4.65961e-05
0.000297388
0.000267822
0.000103792
5.68064e-05
0.000309919
0.000271966
0.000114125
6.84108e-05
0.000322845
0.000276664
0.000124717
8.1306e-05
0.000335952
0.00028161
0.000135557
9.53511e-05
0.000349144
0.000286583
0.000146639
0.000110268
0.000362341
0.000291479
0.000157943
0.000125773
0.000375377
0.000296264
0.000169423
0.000141664
0.00038817
0.000300943
0.000180994
0.000157798
0.000400743
0.000305543
0.000192542
0.00017407
0.000413192
0.000310099
0.000203961
0.000190408
0.000425597
0.000314656
0.000215224
0.000206783
0.000437885
0.000319264
0.000226349
0.000223239
0.000449857
0.000323974
0.000237621
0.000239818
0.000461325
0.000328824
0.0002495
0.000256513
0.000472232
0.000333834
0.0002622
0.00027339
0.00048266
0.000338975
0.000275666
0.00029058
0.000492761
0.000344124
0.00028974
0.000308207
0.000502713
0.000349037
0.000304236
0.000326279
0.000512691
0.000353419
0.000318978
0.000344586
0.000522846
0.000357073
0.000333845
0.000362781
0.000533186
0.000359992
0.000348751
0.000380577
0.000543511
0.000362278
0.000363559
0.000397862
0.000553496
0.000364038
0.000378127
0.000414662
0.00056281
0.000365332
0.000392352
0.000431042
0.000571173
0.000366167
0.00040613
0.000447094
0.000578363
0.000366501
0.00041934
0.000462866
0.000584204
0.000366253
0.000431877
0.000478253
0.000588553
0.000365319
0.000443687
0.000493026
0.000591325
0.000363589
0.000454737
0.000506932
0.000592484
0.000360967
0.000464965
0.00051977
0.000592009
0.000357369
0.000474255
0.000531379
0.000589848
0.000352699
0.000482444
0.000541595
0.00058591
0.000346843
0.000489352
0.00055023
0.000580073
0.000339698
0.000494791
0.000557054
0.000572199
0.00033116
0.000498576
0.000561802
0.000562141
0.00032114
0.000500513
0.000564182
0.000549745
0.000309571
0.000500381
0.000563883
0.000534829
0.000296404
0.000497928
0.000560552
0.000517241
0.000281611
0.000492874
0.000553855
0.000496852
0.000265192
0.000484917
0.000543435
0.00047355
0.000247179
0.000473744
0.000528937
0.000447253
0.00022765
0.000459035
0.000510025
0.000417916
0.000206735
0.000440484
0.000486396
0.000385559
0.000184567
0.000417819
0.000457811
0.000350292
0.000161406
0.000390841
0.00042414
0.00031223
0.000137766
0.000359484
0.000385424
0.000271696
0.000114347
0.000323868
0.000341952
0.000229543
9.19644e-05
0.000284313
0.000294191
0.000187155
7.14428e-05
0.000241359
0.000243292
0.000146362
5.34749e-05
0.000196565
0.00019163
0.000109172
3.84912e-05
0.000152309
0.000142431
7.73296e-05
2.65961e-05
0.000111412
9.90682e-05
5.18482e-05
1.75958e-05
7.64469e-05
6.40638e-05
3.28021e-05
1.10951e-05
4.89698e-05
3.82975e-05
1.94749e-05
6.61323e-06
2.91436e-05
2.0989e-05
1.07314e-05
3.67478e-06
1.59761e-05
1.03691e-05
5.37551e-06
1.86057e-06
7.92394e-06
4.4636e-06
2.35825e-06
8.25927e-07
3.43374e-06
1.56807e-06
8.46631e-07
3.0014e-07
1.2167e-06
3.97737e-07
2.19202e-07
7.84771e-08
3.11861e-07
7.82356e-08
4.12015e-08
1.40293e-08
6.22361e-08
1.97216e-07
8.94159e-08
2.58347e-08
1.5687e-07
0.000253542
0.000157847
0.000307492
0.00028416
0.00025197
0.000158267
0.000304518
0.000301755
0.000251909
0.000159983
0.000297354
0.00032094
0.000253346
0.000163083
0.000292734
0.000341914
0.000256332
0.000167705
0.000291372
0.000364852
0.000260957
0.000173926
0.000292926
0.000389709
0.00026736
0.000181877
0.000297079
0.000416118
0.000275464
0.000191882
0.000303666
0.000443434
0.000285102
0.000204243
0.000312576
0.000477297
0.000296379
0.000219225
0.000323601
0.000522865
0.000309373
0.000236953
0.000336472
0.000549928
0.000323986
0.00025729
0.000351032
0.000546653
0.000342683
0.000279682
0.000367175
0.000535756
0.000372167
0.00030759
0.000385564
0.000526794
0.000404275
0.000341016
0.000409433
0.000520956
0.00041863
0.000358051
0.000439118
0.000517846
0.000424836
0.000354428
0.000457272
0.000517145
0.000431805
0.000344706
0.000457949
0.000518693
0.000441223
0.000336492
0.000452835
0.000522353
0.000454368
0.000330884
0.000449048
0.000528006
0.000468045
0.000327635
0.000447578
0.00053554
0.000474478
0.000326448
0.000448004
0.000544859
0.00047641
0.00032713
0.000449861
0.000555868
0.000478476
0.000329512
0.000452848
0.000568465
0.000481579
0.000333435
0.000456708
0.000582475
0.000485769
0.000338759
0.000461223
0.000597439
0.000490977
0.000345368
0.000466207
0.000612832
0.000497206
0.000353173
0.000471484
0.000629198
0.000504484
0.000362117
0.000476921
0.000648722
0.000512806
0.000372158
0.000482627
0.000670589
0.000522151
0.000383246
0.000488897
0.000682648
0.000532626
0.000395247
0.000495533
0.000680128
0.000545145
0.000407971
0.000500594
0.000670662
0.000561249
0.000421944
0.000502702
0.000661049
0.000579493
0.000438678
0.000502727
0.000652976
0.000593025
0.000456812
0.000502193
0.000646448
0.000600271
0.000468606
0.000501551
0.00064104
0.000605231
0.000471669
0.000500713
0.000636427
0.000610491
0.000470576
0.000499499
0.000632358
0.000616365
0.000469261
0.000497773
0.000628614
0.000622662
0.00046853
0.000495434
0.000624986
0.00062916
0.000468229
0.000492399
0.00062129
0.000635624
0.000468105
0.000488601
0.000617366
0.000641427
0.000467988
0.000483985
0.000613077
0.000646057
0.000467728
0.000478505
0.000608302
0.000649352
0.000467182
0.000472115
0.000602951
0.000651325
0.000466219
0.000464773
0.000596924
0.000651961
0.000464722
0.000456438
0.000590133
0.000651168
0.000462585
0.000447069
0.000582457
0.00064882
0.000459713
0.000436623
0.000573756
0.0006448
0.00045602
0.000425051
0.000563871
0.000639
0.000451423
0.000412303
0.000552629
0.000631315
0.000445847
0.000398324
0.000539841
0.000621624
0.00043919
0.000383053
0.000525309
0.000609784
0.000431333
0.00036643
0.000508797
0.000595623
0.000422089
0.000348395
0.000490084
0.000578931
0.000411202
0.000328891
0.000468969
0.000559458
0.000398344
0.000307876
0.000445284
0.000536909
0.000383131
0.000285332
0.000418919
0.000510966