/*--------------------------------*- C++ -*----------------------------------*\
| =========                 |                                                 |
| \\      /  F ield         | OpenFOAM: The Open Source CFD Toolbox           |
|  \\    /   O peration     | Version:  v1912                                 |
|   \\  /    A nd           | Website:  www.openfoam.com                      |
|    \\/     M anipulation  |                                                 |
\*---------------------------------------------------------------------------*/
FoamFile
{
    version     2.0;
    format      ascii;
    class       surfaceScalarField;
    location    "97.2";
    object      phi;
}
// * * * * * * * * * * * * * * * * * * * * * * * * * * * * * * * * * * * * * //

dimensions      [1 0 -1 0 0 0 0];
oriented        oriented;


internalField   nonuniform List<scalar> 
6304
(
-6.12186e-06
1.87913e-05
2.26704e-06
-1.341e-06
-2.9845e-06
1.79794e-06
2.06094e-06
-3.48874e-06
3.04511e-06
-1.17965e-06
1.23546e-06
-9.62577e-06
3.76689e-05
7.53138e-06
-2.46474e-06
-8.74892e-06
7.61571e-06
3.73003e-06
-1.06147e-05
9.05667e-06
-3.78097e-06
6.32733e-06
-9.47324e-06
5.46837e-05
1.31763e-05
-2.03255e-06
-1.59941e-05
1.42414e-05
3.53355e-06
-1.81123e-05
1.51824e-05
-7.30535e-06
1.23224e-05
-9.20333e-06
6.99546e-05
1.88743e-05
-1.47493e-06
-2.43914e-05
2.09302e-05
3.23695e-06
-2.54094e-05
2.1364e-05
-1.12855e-05
1.83489e-05
-9.40382e-06
8.49116e-05
2.45567e-05
-1.3264e-06
-3.36395e-05
2.75651e-05
3.42957e-06
-3.30528e-05
2.75751e-05
-1.52318e-05
2.42795e-05
-9.71296e-06
0.000100057
3.02781e-05
-1.30822e-06
-4.35535e-05
3.42138e-05
3.75791e-06
-4.11285e-05
3.38326e-05
-1.89077e-05
3.02036e-05
-9.96567e-06
0.000115466
3.60568e-05
-1.29348e-06
-5.40032e-05
4.08885e-05
4.0634e-06
-4.95211e-05
4.01354e-05
-2.22024e-05
3.61541e-05
-1.00805e-05
0.000130994
4.18813e-05
-1.22392e-06
-6.48776e-05
4.75681e-05
4.27018e-06
-5.80251e-05
4.64608e-05
-2.50763e-05
4.21294e-05
-1.00207e-05
0.00014638
4.77246e-05
-1.07556e-06
-7.60702e-05
5.42166e-05
4.34135e-06
-6.63951e-05
5.27735e-05
-2.75306e-05
4.81111e-05
-9.78458e-06
0.000161324
5.35527e-05
-8.46628e-07
-8.74789e-05
6.07937e-05
4.26369e-06
-7.43771e-05
5.90342e-05
-2.95859e-05
5.4072e-05
-9.39864e-06
0.000175555
5.93331e-05
-5.50985e-07
-9.90128e-05
6.72659e-05
4.04194e-06
-8.17347e-05
6.52087e-05
-3.12676e-05
5.99847e-05
-8.90687e-06
0.000188877
6.50429e-05
-2.11934e-07
-0.000110598
7.36138e-05
3.69466e-06
-8.82685e-05
7.12765e-05
-3.25892e-05
6.58281e-05
-8.36947e-06
0.000201213
7.06698e-05
1.39128e-07
-0.00012218
7.98304e-05
3.24911e-06
-9.38249e-05
7.72305e-05
-3.3558e-05
7.15914e-05
-7.84029e-06
0.000212587
7.62185e-05
4.77427e-07
-0.00013371
8.59161e-05
2.74e-06
-9.83057e-05
8.30816e-05
-3.41869e-05
7.72693e-05
-7.33656e-06
0.000223079
8.16998e-05
7.83217e-07
-0.000145138
9.18884e-05
2.20032e-06
-0.000101675
8.88513e-05
-3.44781e-05
8.28596e-05
-6.85315e-06
0.000232784
8.71175e-05
1.05477e-06
-0.000156419
9.77687e-05
1.65127e-06
-0.000103928
9.45528e-05
-3.44293e-05
8.83718e-05
-6.3847e-06
0.0002418
9.24767e-05
1.29599e-06
-0.00016751
0.000103569
1.10361e-06
-0.000105073
0.000100196
-3.40396e-05
9.38226e-05
-5.93223e-06
0.000250208
9.77866e-05
1.50875e-06
-0.000178377
0.000109301
5.5665e-07
-0.000105121
0.00010579
-3.3306e-05
9.92255e-05
-5.5001e-06
0.000258086
0.000103058
1.69098e-06
-0.00018899
0.000114977
9.80901e-09
-0.00010409
0.000111345
-3.22251e-05
0.000104593
-5.09095e-06
0.000265514
0.000108305
1.84175e-06
-0.000199327
0.000120612
-5.40164e-07
-0.000101999
0.000116872
-3.08024e-05
0.000109936
-4.70581e-06
0.00027258
0.000113539
1.96103e-06
-0.000209367
0.000126212
-1.08292e-06
-9.88828e-05
0.000122376
-2.90377e-05
0.000115267
-4.3441e-06
0.000279371
0.000118772
2.04951e-06
-0.000219073
0.00013177
-1.61608e-06
-9.47761e-05
0.000127866
-2.69297e-05
0.000120598
-4.00403e-06
0.000285964
0.000124016
2.10842e-06
-0.00022841
0.00013729
-2.13952e-06
-8.97106e-05
0.000133348
-2.44778e-05
0.00012594
-3.68432e-06
0.000292391
0.000129276
2.13893e-06
-0.000237367
0.000142789
-2.65252e-06
-8.37177e-05
0.000138829
-2.16909e-05
0.000131302
-3.38523e-06
0.000298632
0.00013456
2.14188e-06
-0.000245949
0.000148285
-3.15314e-06
-7.68402e-05
0.000144323
-1.86057e-05
0.000136695
-3.10734e-06
0.000304633
0.000139873
2.11783e-06
-0.000254145
0.000153783
-3.63837e-06
-6.91503e-05
0.000149837
-1.52957e-05
0.000142127
-2.8507e-06
0.000310358
0.000145222
2.06698e-06
-0.000261886
0.00015927
-4.10526e-06
-6.07642e-05
0.000155378
-1.18456e-05
0.000147607
-2.61545e-06
0.000315815
0.00015061
1.98909e-06
-0.000269111
0.000164804
-4.55246e-06
-5.18254e-05
0.000160954
-8.28582e-06
0.000153142
-2.40188e-06
0.000321042
0.000156044
1.88375e-06
-0.000275891
0.000170509
-4.9811e-06
-4.24586e-05
0.000166568
-4.54781e-06
0.000158743
-2.2088e-06
0.000326076
0.000161526
1.75165e-06
-0.000282363
0.000176378
-5.39349e-06
-3.27415e-05
0.000172227
-4.8584e-07
0.000164415
-2.03227e-06
0.000330937
0.000167062
1.59516e-06
-0.000288581
0.000182236
-5.79046e-06
-2.27222e-05
0.000177938
4.00437e-06
0.000170166
-1.86766e-06
0.000335634
0.000172656
1.41657e-06
-0.000294534
0.000188015
-6.16591e-06
-1.24076e-05
0.0001837
8.83582e-06
0.000175995
-1.71138e-06
0.000340175
0.000178316
1.21705e-06
-0.000300187
0.00019377
-6.5147e-06
-1.68276e-06
0.00018949
1.37843e-05
0.000181903
-1.55855e-06
0.000344569
0.000184049
9.99174e-07
-0.000305488
0.000199555
-6.87943e-06
9.75116e-06
0.00019531
1.86577e-05
0.00018789
-1.39841e-06
0.000348837
0.000189849
7.69216e-07
-0.000310399
0.000205397
-7.2252e-06
2.20043e-05
0.000201276
2.34347e-05
0.000193957
-1.21296e-06
0.000353059
0.000195632
5.34527e-07
-0.000314879
0.000211284
-7.54555e-06
3.46001e-05
0.000207593
2.81349e-05
0.000200111
-9.85854e-07
0.000357365
0.000201319
2.97097e-07
-0.000318787
0.000217118
-7.8325e-06
4.68621e-05
0.000214224
3.27558e-05
0.000206356
-7.25012e-07
0.000361574
0.000207206
4.88789e-08
-0.000321892
0.000222807
-8.11722e-06
5.86869e-05
0.000220782
3.72837e-05
0.000212704
-4.8554e-07
0.000364776
0.000214084
-2.36326e-07
-0.000324252
0.000228613
-8.35883e-06
7.02405e-05
0.000227159
4.18986e-05
0.000219167
-3.55144e-07
0.000366102
0.000222028
-5.9602e-07
-0.000326876
0.00023545
-8.58514e-06
8.16537e-05
0.000233447
4.70298e-05
0.000225762
-3.92851e-07
0.000366259
0.000229546
-1.05066e-06
-0.00033124
0.000243773
-8.82536e-06
9.29307e-05
0.000239734
5.32973e-05
0.000232501
-5.59816e-07
0.00036606
0.000236501
-1.56504e-06
-0.00033689
0.000251689
-9.09458e-06
0.000104058
0.000246073
6.07749e-05
0.000239376
-7.51051e-07
0.000365924
0.000243173
-2.07828e-06
-0.000342919
0.0002588
-9.38234e-06
0.000115075
0.000252466
6.84707e-05
0.00024636
-8.80378e-07
0.000365935
0.00024982
-2.54516e-06
-0.000348763
0.000265484
-9.66015e-06
0.000126044
0.000258908
7.57972e-05
0.000253437
-9.27736e-07
0.000366016
0.000256587
-2.95959e-06
-0.000354194
0.000272079
-9.90596e-06
0.000137009
0.000265393
8.28197e-05
0.000260597
-9.2051e-07
0.000366123
0.000263474
-3.3417e-06
-0.000359173
0.000278765
-1.01162e-05
0.00014799
0.000271914
8.97318e-05
0.000267842
-8.9433e-07
0.000366253
0.000270475
-3.71331e-06
-0.0003637
0.000285562
-1.0295e-05
0.000158978
0.000278469
9.65761e-05
0.000275176
-8.78582e-07
0.000366429
0.000277591
-4.10073e-06
-0.000367772
0.000292465
-1.04307e-05
0.000169927
0.000285059
0.000103363
0.0002826
-9.05069e-07
0.000366701
0.000284827
-4.54403e-06
-0.000371367
0.000299467
-1.05027e-05
0.000180816
0.000291614
0.00011015
0.000290114
-1.01713e-06
0.000367156
0.000292188
-5.08067e-06
-0.000374455
0.000306562
-1.05155e-05
0.000191721
0.000298017
0.00011701
0.000297719
-1.26655e-06
0.000367915
0.000299678
-5.74316e-06
-0.000377013
0.000313753
-1.04952e-05
0.000202479
0.000304491
0.000124008
0.000305413
-1.7014e-06
0.000369138
0.000307301
-6.5698e-06
-0.000379025
0.000321056
-1.04621e-05
0.000212006
0.000311925
0.0001312
0.000313194
-2.36107e-06
0.000371007
0.000315062
-7.60121e-06
-0.000380471
0.000328497
-1.04306e-05
0.000218603
0.000320904
0.000138641
0.000321058
-3.29209e-06
0.000373736
0.000322964
-8.87635e-06
-0.00038134
0.000336112
-1.04023e-05
0.000222313
0.000329659
0.000146388
0.000329003
-4.55816e-06
0.000377589
0.000331013
-1.04531e-05
-0.000381623
0.000343941
-1.03799e-05
0.000223718
0.000337611
0.000154494
0.000337028
-6.16341e-06
0.000382818
0.000339211
-1.23491e-05
-0.000381303
0.000352029
-1.03726e-05
0.000223103
0.000345042
0.000163003
0.000345121
-7.82968e-06
0.000389402
0.000347559
-1.43495e-05
-0.000380394
0.000360406
-1.03739e-05
0.000220649
0.000352255
0.000172109
0.000353104
-8.70152e-06
0.000396499
0.000356058
-1.59384e-05
-0.000378807
0.00036903
-1.03439e-05
0.000216776
0.000359483
0.000182327
0.00036064
-9.10154e-06
0.00040367
0.000364707
-1.68779e-05
-0.000377015
0.000377747
-1.01982e-05
0.000211996
0.000366779
0.000193863
0.000368029
-9.3803e-06
0.000410957
0.000373511
-1.75808e-05
-0.00037508
0.000386412
-9.80871e-06
0.000206291
0.000374129
0.000205066
0.000377282
-9.91448e-06
0.000418886
0.00038249
-1.84296e-05
-0.000372889
0.000395048
-9.09092e-06
0.000199183
0.000381519
0.000212284
0.000390976
-1.0699e-05
0.000427886
0.000391681
-1.9408e-05
-0.000370449
0.00040375
-8.18037e-06
0.000190355
0.000388938
0.000217198
0.000404394
-1.16225e-05
0.000438011
0.000401144
-2.03607e-05
-0.000367867
0.000412541
-7.3949e-06
0.000179967
0.000396375
0.00022306
0.000415927
-1.26972e-05
0.000449426
0.000410926
-2.12575e-05
-0.000365232
0.000421409
-6.94991e-06
0.000168432
0.000403823
0.000229578
0.00042635
-1.39308e-05
0.000463202
0.000421062
-2.21159e-05
-0.000362601
0.000430355
-6.76638e-06
0.000156068
0.000411276
0.000235665
0.000436362
-1.52239e-05
0.000481288
0.000431654
-2.29432e-05
-0.000359965
0.000439373
-6.66583e-06
0.000143012
0.000418728
0.000241385
0.00044642
-1.63872e-05
0.000505892
0.000442826
-2.3741e-05
-0.000357191
0.000448456
-6.56283e-06
0.000129322
0.000426173
0.000247256
0.000456602
-1.72705e-05
0.000533108
0.000454517
-2.45068e-05
-0.00035404
0.000457598
-6.43519e-06
0.000115042
0.000433604
0.000253468
0.00046687
-1.78583e-05
0.000559196
0.000466455
-2.52366e-05
-0.000350252
0.000466793
-6.23495e-06
0.00010018
0.000441014
0.000260044
0.000477194
-1.82517e-05
0.000583832
0.000478258
-2.59263e-05
-0.00034565
0.000476035
-5.896e-06
8.46928e-05
0.000448394
0.000267002
0.000487569
-1.86041e-05
0.000608052
0.000489767
-2.65739e-05
-0.00034018
0.000485318
-5.41395e-06
6.85404e-05
0.000455733
0.000274252
0.000498016
-1.90008e-05
0.000632552
0.000501096
-2.71796e-05
-0.000333846
0.000494632
-4.83469e-06
5.17329e-05
0.000463019
0.000281674
0.000508547
-1.94003e-05
0.000657532
0.000512427
-2.77456e-05
-0.000326575
0.000503968
-4.19084e-06
3.43094e-05
0.000470237
0.000289218
0.000519165
-1.97486e-05
0.000683048
0.000523832
-2.82773e-05
-0.000318224
0.000513312
-3.48998e-06
1.63022e-05
0.000477369
0.000296881
0.000529866
-2.00452e-05
0.000709183
0.000535311
-2.8782e-05
-0.000308668
0.000522648
-2.74045e-06
-2.30025e-06
0.000484395
0.000304671
0.00054064
-2.02958e-05
0.000736037
0.000546866
-2.92689e-05
-0.000297843
0.000531958
-1.95721e-06
-2.13433e-05
0.000491287
0.000312615
0.000551474
-2.05065e-05
0.000763722
0.000558487
-2.9748e-05
-0.000285714
0.000541221
-1.15535e-06
-4.04039e-05
0.000498018
0.000320765
0.000562344
-2.06803e-05
0.000792348
0.000570173
-3.02518e-05
-0.000272223
0.000550425
-3.31219e-07
-5.99288e-05
0.000504568
0.000329224
0.000573231
-2.0746e-05
0.000581978
0.000821754
-3.07554e-05
0.000559613
-0.000257386
4.17723e-07
0.00051096
-8.33079e-05
0.000584165
0.00033795
-1.33387e-05
2.80177e-05
1.86246e-06
9.6522e-06
-2.46089e-05
3.43727e-06
-1.07787e-05
2.11707e-05
2.27542e-06
-2.7574e-05
3.76038e-06
-1.98094e-05
6.723e-05
8.37647e-06
1.34414e-05
-6.0682e-05
1.05125e-05
-1.41935e-05
4.88467e-05
8.9155e-06
-6.6791e-05
1.112e-05
-2.10942e-05
0.000105468
1.59449e-05
1.44554e-05
-9.95845e-05
1.77313e-05
-1.33782e-05
7.55135e-05
1.61664e-05
-0.000106234
1.85071e-05
-2.23147e-05
0.000142723
2.3405e-05
1.55329e-05
-0.000141169
2.4864e-05
-1.2603e-05
0.00010147
2.32792e-05
-0.000145698
2.57818e-05
-2.35107e-05
0.000179513
3.05689e-05
1.62214e-05
-0.000184967
3.18721e-05
-1.17922e-05
0.000126559
3.01717e-05
-0.00018537
3.29112e-05
-2.46002e-05
0.000215978
3.75877e-05
1.6746e-05
-0.000230649
3.88071e-05
-1.09801e-05
0.000150824
3.69376e-05
-0.00022523
3.99334e-05
-2.55373e-05
0.000252076
4.45215e-05
1.71909e-05
-0.000277939
4.56897e-05
-1.01693e-05
0.00017436
4.36196e-05
-0.000265137
4.68643e-05
-2.62875e-05
0.000287625
5.13823e-05
1.75828e-05
-0.000326555
5.25149e-05
-9.34757e-06
0.000197224
5.02285e-05
-0.000304839
5.36998e-05
-2.68276e-05
0.000322339
5.81604e-05
1.79283e-05
-0.000376201
5.92654e-05
-8.50359e-06
0.000219415
5.67589e-05
-0.000344006
6.04253e-05
-2.71571e-05
0.00035589
6.48362e-05
1.82368e-05
-0.000426596
6.59183e-05
-7.64165e-06
0.000240911
6.3196e-05
-0.000382301
6.70219e-05
-2.73037e-05
0.000387991
7.13885e-05
1.85278e-05
-0.000477522
7.2453e-05
-6.7836e-06
0.000261712
6.95223e-05
-0.00041945
7.3473e-05
-2.7314e-05
0.000418448
7.78011e-05
1.88226e-05
-0.000528835
7.88576e-05
-5.95636e-06
0.000281858
7.57242e-05
-0.000455272
7.97696e-05
-2.72409e-05
0.000447169
8.4069e-05
1.91273e-05
-0.000580447
8.51286e-05
-5.1803e-06
0.000301422
8.17955e-05
-0.000489675
8.59123e-05
-2.71391e-05
0.000474175
9.02004e-05
1.94524e-05
-0.000632345
9.1274e-05
-4.47309e-06
0.000320523
8.77345e-05
-0.000522648
9.19069e-05
-2.7043e-05
0.000499567
9.62037e-05
1.98016e-05
-0.000684564
9.73116e-05
-3.84032e-06
0.0003393
9.35506e-05
-0.000554251
9.77646e-05
-2.69535e-05
0.000523479
0.000102083
2.01443e-05
-0.000737102
0.000103253
-3.26758e-06
0.000357838
9.92609e-05
-0.000584561
0.000103498
-2.68692e-05
0.000546057
0.000107846
2.04608e-05
-0.000789931
0.000109107
-2.73995e-06
0.000376189
0.000104879
-0.000613655
0.000109116
-2.67995e-05
0.000567464
0.000113501
2.07519e-05
-0.000843031
0.000114884
-2.25181e-06
0.0003944
0.000110414
-0.000641608
0.00011463
-2.6749e-05
0.000587867
0.000119062
2.10143e-05
-0.000896383
0.000120594
-1.80031e-06
0.000412513
0.000115876
-0.000668494
0.000120053
-2.6709e-05
0.000607419
0.000124543
2.12382e-05
-0.000949944
0.000126252
-1.38291e-06
0.000430559
0.000121273
-0.00069438
0.000125397
-2.66725e-05
0.000626254
0.00012996
2.14021e-05
-0.00100364
0.000131862
-9.98586e-07
0.000448549
0.000126612
-0.000719328
0.000130676
-2.66731e-05
0.000644534
0.000135328
2.15134e-05
-0.00105744
0.000137417
-6.5067e-07
0.000466504
0.000131899
-0.0007434
0.000135904
-2.67512e-05
0.000662449
0.00014066
2.16047e-05
-0.00111139
0.000142925
-3.49215e-07
0.000484485
0.000137143
-0.000766665
0.000141098
-2.68939e-05
0.000680167
0.000145969
2.16804e-05
-0.00116553
0.000148405
-1.0328e-07
0.000502559
0.00014236
-0.000789202
0.000146274
-2.7066e-05
0.000697807
0.000151267
2.17419e-05
-0.00121989
0.000153873
9.04164e-08
0.000520786
0.000147567
-0.00081109
0.000151448
-2.72781e-05
0.00071549
0.000156567
2.17759e-05
-0.00127446
0.000159337
2.42187e-07
0.000539193
0.000152779
-0.000832392
0.000156633
-2.76493e-05
0.000733443
0.000161877
2.18493e-05
-0.00132945
0.000164795
3.59057e-07
0.000557865
0.000158008
-0.000853162
0.00016184
-2.82137e-05
0.000751929
0.000167204
2.2076e-05
-0.00138522
0.000170314
4.44201e-07
0.000576996
0.000163263
-0.000873451
0.000167078
-2.86288e-05
0.000770866
0.000172551
2.23053e-05
-0.00144164
0.000175994
4.98497e-07
0.000596626
0.000168549
-0.000893307
0.000172353
-2.85596e-05
0.000789836
0.000177925
2.22678e-05
-0.00149787
0.000181803
5.22769e-07
0.000616525
0.000173874
-0.000912777
0.000177674
-2.83398e-05
0.000808751
0.000183338
2.21093e-05
-0.00155361
0.000187592
5.20678e-07
0.000636608
0.000179242
-0.000931909
0.000183046
-2.83836e-05
0.00082793
0.000188798
2.20229e-05
-0.00160925
0.00019332
4.85926e-07
0.000656988
0.000184652
-0.000950761
0.000188477
-2.86543e-05
0.000847651
0.000194317
2.19356e-05
-0.00166505
0.000199033
3.23501e-07
0.000677817
0.000190072
-0.000969492
0.000193975
-2.89768e-05
0.00086801
0.000199905
2.19849e-05
-0.0017212
0.000204784
-1.85794e-07
0.000699624
0.000195473
-0.000988482
0.000199543
-2.92885e-05
0.000889045
0.000205561
2.24058e-05
-0.00177805
0.000210606
-1.07301e-06
0.000723162
0.000200968
-0.00100815
0.000205188
-2.96301e-05
0.000911043
0.00021119
2.28489e-05
-0.00183568
0.000216493
-1.71195e-06
0.000748143
0.00020685
-0.00102849
0.00021091
-3.08313e-05
0.000935823
0.000216646
2.25102e-05
-0.00189421
0.000222378
-1.27806e-06
0.000772649
0.000213192
-0.0010493
0.000216714
-3.42734e-05
0.000966964
0.000222183
2.20987e-05
-0.00195592
0.000228245
-3.63136e-07
0.000796126
0.00021952
-0.00107134
0.0002226
-3.92135e-05
0.00100539
0.000228806
2.30571e-05
-0.00202392
0.000234406
1.14953e-07
0.000820382
0.000225619
-0.0010946
0.000228571
-4.03325e-05
0.00104321
0.000236962
2.51209e-05
-0.00209564
0.000241648
1.2337e-07
0.000846991
0.000231594
-0.00111577
0.000234627
-3.58185e-05
0.00107371
0.000244808
2.55234e-05
-0.00216336
0.000250131
-3.40386e-08
0.000874463
0.000237569
-0.00113391
0.00024077
-3.15021e-05
0.00109881
0.000251897
2.46585e-05
-0.00222587
0.000258134
-2.36296e-07
0.000901576
0.000243599
-0.00115063
0.00024701
-2.97055e-05
0.00112225
0.000258546
2.44157e-05
-0.00228646
0.000265386
-4.68509e-07
0.000928977
0.00024969
-0.00116709
0.000253357
-2.94172e-05
0.00114584
0.000265089
2.41866e-05
-0.00234669
0.000272195
-7.24674e-07
0.000956694
0.00025584
-0.00118352
0.000259818
-2.95939e-05
0.00117008
0.000271699
2.36539e-05
-0.00240668
0.000278866
-1.00114e-06
0.000984428
0.000262048
-0.00119995
0.000266391
-2.97581e-05
0.00119499
0.000278404
2.30743e-05
-0.0024663
0.000285598
-1.29812e-06
0.00101212
0.000268319
-0.00121646
0.000273077
-2.98677e-05
0.00122055
0.000285211
2.24855e-05
-0.00252548
0.000292422
-1.61204e-06
0.00103976
0.000274659
-0.00123308
0.000279871
-2.99416e-05
0.00124678
0.000292123
2.18885e-05
-0.00258416
0.000299342
-1.92425e-06
0.00106727
0.000281082
-0.00124986
0.000286766
-3e-05
0.00127368
0.000299146
2.11866e-05
-0.00264221
0.000306357
-2.3219e-06
0.00109459
0.000287518
-0.00126693
0.000293755
-3.00593e-05
0.00130134
0.000306283
2.07835e-05
-0.00269993
0.000313469
-3.40864e-06
0.00112279
0.000293753
-0.00128502
0.00030083
-3.01328e-05
0.00132983
0.000313539
2.16221e-05
-0.00275859
0.000320682
-5.81772e-06
0.0011545
0.000299895
-0.0013055
0.000307983
-3.02302e-05
0.00135927
0.000320916
2.34538e-05
-0.00281918
0.000328
-8.40498e-06
0.00119077
0.000306981
-0.00132862
0.000315205
-3.03601e-05
0.00138984
0.000328417
2.28944e-05
-0.00287933
0.000335428
-7.37443e-06
0.00122521
0.000316149
-0.00135087
0.000322494
-3.05224e-05
0.00142173
0.000336039
2.02685e-05
-0.00293694
0.000342969
-4.32245e-06
0.0012538
0.0003253
-0.00137036
0.000329847
-3.0702e-05
0.00145512
0.000343778
1.84998e-05
-0.00299279
0.000350623
-2.40413e-06
0.00127859
0.000333449
-0.00138834
0.000337274
-3.08785e-05
0.00149011
0.000351635
1.74121e-05
-0.0030474
0.000358391
-1.68476e-06
0.00130149
0.000340941
-0.00140608
0.00034478
-3.10211e-05
0.00152701
0.000359612
1.62115e-05
-0.00310045
0.000366275
-1.24291e-06
0.00132269
0.000348177
-0.00142422
0.00035223
-3.1092e-05
0.00156736
0.000367708
1.48863e-05
-0.00315163
0.000374274
-1.2723e-06
0.00134258
0.000355418
-0.001445
0.000359453
-3.10748e-05
0.00161368
0.00037592
1.35448e-05
-0.00320083
0.000382385
-3.40298e-06
0.00136324
0.000362716
-0.00147354
0.000366936
-3.09484e-05
0.00166565
0.000384245
1.21857e-05
-0.0032481
0.000390609
-7.67422e-06
0.00138681
0.000370059
-0.00151202
0.00037646
-3.06783e-05
0.00171353
0.000392679
1.07906e-05
-0.00329341
0.000398941
-1.03586e-05
0.00141169
0.000377433
-0.00154848
0.000389819
-3.02685e-05
0.00175501
0.000401223
9.34732e-06
-0.00333658
0.00040736
-1.03417e-05
0.00143513
0.000384826
-0.00157764
0.000402659
-2.97497e-05
0.00179388
0.000409868
7.84032e-06
-0.0033774
0.000415835
-1.05282e-05
0.00145728
0.000392226
-0.00160339
0.000413524
-2.91168e-05
0.00183324
0.000418566
6.24812e-06
-0.00341565
0.000424348
-1.09308e-05
0.0014783
0.000399622
-0.0016288
0.000423119
-2.84531e-05
0.0018747
0.000427215
4.57701e-06
-0.00345116
0.000432891
-1.10928e-05
0.00149788
0.000407009
-0.00165472
0.000432185
-2.79158e-05
0.00191915
0.000435782
2.84825e-06
-0.00348395
0.000441462
-1.12128e-05
0.00151593
0.000414382
-0.00168129
0.000441258
-2.74669e-05
0.00196715
0.000444478
1.0806e-06
-0.00351404
0.000450053
-1.14012e-05
0.00153249
0.000421735
-0.00170864
0.000450473
-2.6799e-05
0.00201792
0.000453722
-7.08644e-07
-0.00354113
0.000458658
-1.16192e-05
0.00154758
0.000429063
-0.00173629
0.000459814
-2.56795e-05
0.00206984
0.000463578
-2.50518e-06
-0.00356472
0.000467272
-1.18625e-05
0.00156123
0.000436359
-0.00176351
0.000469273
-2.44038e-05
0.00212212
0.000473668
-4.30159e-06
-0.00358461
0.000475889
-1.21354e-05
0.00157349
0.000443619
-0.00179012
0.000478843
-2.32141e-05
0.00217485
0.000483755
-6.09685e-06
-0.00360084
0.000484502
-1.24462e-05
0.00158437
0.000450838
-0.00181647
0.000488513
-2.19202e-05
0.00222802
0.000493853
-7.8928e-06
-0.00361327
0.000493106
-1.27931e-05
0.00159393
0.000458012
-0.00184287
0.000498273
-2.04053e-05
0.00228139
0.000504041
-9.69174e-06
-0.00362164
0.000501699
-1.31723e-05
0.00160215
0.000465139
-0.00186944
0.000508114
-1.86923e-05
0.0023347
0.000514356
-1.14852e-05
-0.00362573
0.000510279
-1.35853e-05
0.00160905
0.00047222
-0.00189619
0.000518025
-1.67705e-05
0.00238767
0.000524794
-1.32459e-05
-0.00362538
0.000518848
-1.40414e-05
0.00161463
0.000479259
-0.00192313
0.000527997
-1.46281e-05
0.00244002
0.000535343
-1.5011e-05
-0.00362035
0.000527405
-1.45177e-05
0.00161881
0.000486265
-0.00195022
0.000538011
-1.22523e-05
0.00249145
0.000545991
-1.67792e-05
-0.00361046
0.000535946
-1.48339e-05
0.00162129
0.000493247
-0.00197727
0.000548048
-9.63482e-06
0.00254167
0.000556738
-1.85407e-05
-0.00359551
0.000544473
-1.51513e-05
0.00162189
0.000500232
-0.00200425
0.000558087
-6.71935e-06
0.000567666
0.00259014
-2.02035e-05
0.000553052
-0.00357536
-1.54395e-05
0.000507312
0.00162044
0.00056817
-0.00203094
-2.08595e-07
-2.1746e-06
4.13583e-06
7.90167e-07
-1.3317e-06
3.77673e-06
-6.4815e-07
-2.91151e-07
4.00894e-06
-7.00898e-07
3.91959e-06
-5.83916e-08
-4.86339e-06
1.06371e-05
1.28461e-06
-2.24991e-06
1.01092e-05
-1.27402e-06
7.78084e-07
1.04193e-05
-1.01672e-06
1.06418e-05
2.31659e-07
-6.79457e-06
1.68303e-05
1.43087e-06
-1.77721e-06
1.60937e-05
-1.71703e-06
3.44905e-06
1.66681e-05
-4.39251e-07
1.70151e-05
5.17255e-07
-8.3336e-06
2.32698e-05
1.58814e-06
-2.39036e-07
2.22972e-05
-2.19014e-06
7.41419e-06
2.31267e-05
6.54604e-07
2.36348e-05
7.80919e-07
-1.00235e-05
2.99289e-05
1.78731e-06
1.9384e-06
2.87333e-05
-2.65614e-06
1.23569e-05
2.97151e-05
1.90227e-06
3.05256e-05
1.02599e-06
-1.21226e-05
3.66975e-05
2.00455e-06
4.54205e-06
3.52687e-05
-3.10632e-06
1.80988e-05
3.63557e-05
3.11773e-06
3.7533e-05
1.2511e-06
-1.47533e-05
4.35146e-05
2.23125e-06
7.45147e-06
4.18411e-05
-3.53651e-06
2.4531e-05
4.30086e-05
4.20655e-06
4.45751e-05
1.45589e-06
-1.79694e-05
5.03286e-05
2.44671e-06
1.06085e-05
4.84054e-05
-3.94419e-06
3.15663e-05
4.96402e-05
5.13265e-06
5.15876e-05
1.64069e-06
-2.17899e-05
5.70948e-05
2.65598e-06
1.39701e-05
5.49246e-05
-4.32782e-06
3.91445e-05
5.6222e-05
5.89855e-06
5.85181e-05
1.80617e-06
-2.62192e-05
6.37774e-05
2.87816e-06
1.74827e-05
6.13675e-05
-4.68665e-06
4.72331e-05
6.27307e-05
6.52639e-06
6.53282e-05
1.95289e-06
-3.12616e-05
7.03534e-05
3.10858e-06
2.11006e-05
6.77104e-05
-5.02066e-06
5.57945e-05
6.9149e-05
7.04232e-06
7.19964e-05
2.08117e-06
-3.69252e-05
7.68139e-05
3.34537e-06
2.47811e-05
7.39411e-05
-5.33063e-06
6.4785e-05
7.54685e-05
7.45942e-06
7.8525e-05
2.19067e-06
-4.32295e-05
8.317e-05
3.58842e-06
2.84755e-05
8.00617e-05
-5.61788e-06
7.41491e-05
8.16948e-05
7.77635e-06
8.4927e-05
2.28188e-06
-5.02098e-05
8.94414e-05
3.83853e-06
3.21217e-05
8.6093e-05
-5.88411e-06
8.38271e-05
8.78353e-05
7.98657e-06
9.12108e-05
2.3565e-06
-5.7903e-05
9.56352e-05
4.09485e-06
3.56619e-05
9.20509e-05
-6.13116e-06
9.37662e-05
9.38943e-05
8.08009e-06
9.73883e-05
2.41573e-06
-6.63419e-05
0.000101753
4.35499e-06
3.9051e-05
9.79392e-05
-6.35973e-06
0.00010392
9.98792e-05
8.04541e-06
0.000103471
2.46009e-06
-7.55554e-05
0.000107801
4.6165e-06
4.22493e-05
0.000103763
-6.56969e-06
0.000114246
0.000105795
7.87105e-06
0.000109467
2.48991e-06
-8.55666e-05
0.000113783
4.8772e-06
4.52235e-05
0.000109529
-6.76143e-06
0.000124708
0.000111646
7.5463e-06
0.000115384
2.50542e-06
-9.63922e-05
0.000119707
5.13531e-06
4.7947e-05
0.000115244
-6.93555e-06
0.000135275
0.000117435
7.06238e-06
0.000121231
2.5068e-06
-0.000108046
0.000125586
5.38939e-06
5.03994e-05
0.000120917
-7.09237e-06
0.000145917
0.000123167
6.41309e-06
0.000127015
2.49408e-06
-0.000120545
0.00013144
5.6385e-06
5.25582e-05
0.000126555
-7.23248e-06
0.000156607
0.000128847
5.59373e-06
0.000132748
2.46725e-06
-0.000133909
0.000137287
5.88213e-06
5.43892e-05
0.000132164
-7.35718e-06
0.000167317
0.000134483
4.59901e-06
0.000138442
2.42627e-06
-0.000148147
0.000143132
6.11938e-06
5.58641e-05
0.000137747
-7.46793e-06
0.000178011
0.00014009
3.42403e-06
0.000144111
2.37125e-06
-0.000163234
0.00014895
6.3487e-06
5.69767e-05
0.000143301
-7.56566e-06
0.000188657
0.000145681
2.07251e-06
0.000149764
2.30242e-06
-0.000179088
0.0001547
6.56869e-06
5.77365e-05
0.00014883
-7.65067e-06
0.000199231
0.000151263
5.73859e-07
0.000155389
2.22015e-06
-0.000195591
0.000160356
6.77849e-06
5.81384e-05
0.000154357
-7.72291e-06
0.000209738
0.000156821
-1.00731e-06
0.000160962
2.1247e-06
-0.000212635
0.000165941
6.9774e-06
5.81297e-05
0.000159929
-7.78238e-06
0.000220227
0.000162326
-2.59323e-06
0.00016648
2.0159e-06
-0.000230155
0.000171503
7.1646e-06
5.76789e-05
0.000165591
-7.82904e-06
0.000230769
0.000167759
-4.15475e-06
0.000172
1.89322e-06
-0.00024812
0.00017708
7.3393e-06
5.6855e-05
0.000171344
-7.86265e-06
0.000241416
0.000173148
-5.75304e-06
0.000177621
1.75574e-06
-0.000266505
0.000182688
7.5004e-06
5.57649e-05
0.000177119
-7.88283e-06
0.000252173
0.000178542
-7.5213e-06
0.00018342
1.6023e-06
-0.000285278
0.000188329
7.64639e-06
5.44539e-05
0.000182827
-7.88885e-06
0.000263017
0.000183974
-9.55744e-06
0.000189368
1.43244e-06
-0.000304397
0.000194008
7.77647e-06
5.2934e-05
0.000188461
-7.87962e-06
0.00027388
0.000189484
-1.17788e-05
0.000195293
1.24634e-06
-0.000323819
0.000199735
7.89097e-06
5.11918e-05
0.000194094
-7.85405e-06
0.000284555
0.000195179
-1.39663e-05
0.000201066
1.04417e-06
-0.000343502
0.000205523
7.99031e-06
4.91918e-05
0.000199798
-7.81148e-06
0.000294661
0.000201205
-1.59629e-05
0.000206752
8.25752e-07
-0.000363414
0.000211381
8.07459e-06
4.69117e-05
0.000205594
-7.7518e-06
0.000303968
0.000207521
-1.77402e-05
0.000212486
5.90139e-07
-0.000383624
0.000217315
8.14387e-06
4.43295e-05
0.000211475
-7.67511e-06
0.000312925
0.000213744
-1.93086e-05
0.000218309
3.35568e-07
-0.000404349
0.00022333
8.19761e-06
4.13482e-05
0.000217448
-7.58163e-06
0.000322279
0.000219648
-2.06462e-05
0.000224191
6.03917e-08
-0.000425575
0.000229447
8.23252e-06
3.78412e-05
0.000223527
-7.47293e-06
0.000332131
0.000225404
-2.1748e-05
0.00023015
-2.37851e-07
-0.000446302
0.000235686
8.24345e-06
3.39886e-05
0.00022972
-7.35061e-06
0.000342133
0.000231238
-2.2761e-05
0.000236335
-5.56179e-07
-0.000465082
0.000242051
8.22524e-06
3.07703e-05
0.000236025
-7.21509e-06
0.000351982
0.00023721
-2.40871e-05
0.000242998
-8.9412e-07
-0.000482268
0.000248515
8.17358e-06
2.93503e-05
0.00024242
-7.0658e-06
0.000361544
0.00024327
-2.63259e-05
0.000250332
-1.22236e-06
-0.000498655
0.000255047
8.07874e-06
2.92416e-05
0.000248876
-6.90039e-06
0.000370741
0.000249404
-2.96222e-05
0.000257886
-1.5675e-06
-0.000514694
0.000261641
7.94051e-06
2.9668e-05
0.000255384
-6.71575e-06
0.000379487
0.000255621
-3.31261e-05
0.000264681
-1.93301e-06
-0.000530518
0.000268313
7.76367e-06
3.0135e-05
0.000261961
-6.51082e-06
0.000387697
0.000261925
-3.62621e-05
0.000271003
-2.34135e-06
-0.000546071
0.000275075
7.54598e-06
3.04158e-05
0.000268624
-6.28483e-06
0.000395275
0.000268319
-3.90368e-05
0.000277432
-2.78292e-06
-0.000561285
0.00028193
7.28253e-06
3.04907e-05
0.000275381
-6.03677e-06
0.000402124
0.000274807
-4.16148e-05
0.000284123
-3.25562e-06
-0.000576085
0.000288885
6.97108e-06
3.03745e-05
0.000282233
-5.76558e-06
0.000408146
0.00028139
-4.40425e-05
0.000290953
-3.75891e-06
-0.000590399
0.000295943
6.61138e-06
3.00803e-05
0.000289184
-5.47007e-06
0.000413252
0.000288072
-4.63213e-05
0.00029787
-4.29267e-06
-0.00060415
0.000303107
6.20371e-06
2.96156e-05
0.000296242
-5.14854e-06
0.00041728
0.000294854
-4.84738e-05
0.000304888
-4.85709e-06
-0.000617256
0.000310377
5.74783e-06
2.89857e-05
0.000303409
-4.79953e-06
0.000419853
0.000301739
-5.0537e-05
0.000312013
-5.45251e-06
-0.000629629
0.000317753
5.24277e-06
2.82023e-05
0.000310684
-4.42214e-06
0.000420695
0.000308726
-5.25603e-05
0.000319249
-6.07935e-06
-0.000641177
0.000325236
4.68824e-06
2.72872e-05
0.000318061
-4.01462e-06
0.000420568
0.000315817
-5.46008e-05
0.000326597
-6.73797e-06
-0.000651803
0.000332822
4.08627e-06
2.62674e-05
0.000325536
-3.57382e-06
0.000421375
0.000323007
-5.67169e-05
0.000334057
-7.42844e-06
-0.000661411
0.000340509
3.43083e-06
2.51774e-05
0.000333111
-3.1082e-06
0.000422944
0.000330273
-5.8976e-05
0.00034163
-8.1498e-06
-0.000669913
0.000348299
2.71911e-06
2.4054e-05
0.000340788
-2.62914e-06
0.00042415
0.000337593
-6.14486e-05
0.00034932
-8.89992e-06
-0.000677229
0.000356189
1.97575e-06
2.29094e-05
0.000348571
-2.14234e-06
0.000424246
0.000344962
-6.42058e-05
0.000357133
-9.67569e-06
-0.000683286
0.000364179
1.16011e-06
2.1798e-05
0.000356462
-1.65569e-06
0.000422864
0.000352372
-6.74621e-05
0.000365076
-1.04731e-05
-0.000688022
0.000372268
2.30328e-07
2.08156e-05
0.000364464
-1.19022e-06
0.000419878
0.00035982
-7.16216e-05
0.000373155
-1.12875e-05
-0.000691392
0.000380459
-7.55901e-07
2.00002e-05
0.000372579
-7.26364e-07
0.000415259
0.0003673
-7.65526e-05
0.000381346
-1.21147e-05
-0.000693369
0.000388754
-1.7548e-06
1.93522e-05
0.000380808
-2.49518e-07