/*--------------------------------*- C++ -*----------------------------------*\
| =========                 |                                                 |
| \\      /  F ield         | OpenFOAM: The Open Source CFD Toolbox           |
|  \\    /   O peration     | Version:  v1912                                 |
|   \\  /    A nd           | Website:  www.openfoam.com                      |
|    \\/     M anipulation  |                                                 |
\*---------------------------------------------------------------------------*/
FoamFile
{
    version     2.0;
    format      ascii;
    class       surfaceScalarField;
    location    "97.2";
    object      phi;
}
// * * * * * * * * * * * * * * * * * * * * * * * * * * * * * * * * * * * * * //

dimensions      [1 0 -1 0 0 0 0];
oriented        oriented;


internalField   nonuniform List<scalar> 
5500
(
3.32021e-05
0.000957495
3.37777e-05
1.33395e-05
-4.43924e-06
8.29906e-05
2.00822e-06
-2.06146e-05
0.000110418
1.82769e-06
-3.21093e-05
0.000120549
4.64533e-07
-3.04587e-05
0.000123167
-4.70009e-07
-3.07964e-05
0.000124051
-1.83186e-06
-3.04612e-05
0.000123167
-2.00748e-06
-3.21162e-05
0.000120551
-1.33339e-05
-2.06212e-05
0.000110427
-4.44957e-06
8.30081e-05
7.15754e-05
0.000872899
7.82948e-05
5.16417e-05
1.30903e-05
0.000234935
2.63459e-05
-1.70392e-05
0.000294916
1.36625e-05
-4.45409e-05
0.000314594
4.40873e-06
-4.54043e-05
0.000319691
-4.40666e-06
-4.59818e-05
0.000321247
-1.36618e-05
-4.54065e-05
0.00031969
-2.63443e-05
-4.45514e-05
0.000314597
-5.16345e-05
-1.70551e-05
0.000294932
1.30675e-05
0.000234974
7.06721e-05
0.00083398
0.000143862
6.18191e-05
4.50661e-05
0.000396596
3.67314e-05
2.70985e-06
0.000472029
1.92253e-05
-3.87615e-05
0.000495007
6.29634e-06
-4.37775e-05
0.000502253
-6.28845e-06
-4.46432e-05
0.000504288
-1.92205e-05
-4.37772e-05
0.000502251
-3.6729e-05
-3.87718e-05
0.00049501
-6.18135e-05
2.68499e-06
0.000472049
4.50249e-05
0.000396647
5.15938e-05
0.000879622
0.000253385
5.88515e-05
7.01075e-05
0.000574829
3.93642e-05
2.33157e-05
0.000653817
2.06565e-05
-2.60306e-05
0.000677674
6.8014e-06
-3.59594e-05
0.000686789
-6.79073e-06
-3.71307e-05
0.000689261
-2.06495e-05
-3.59555e-05
0.000686787
-3.93613e-05
-2.60388e-05
0.000677677
-5.8847e-05
2.32832e-05
0.000653838
7.00476e-05
0.000574885
6.94786e-05
0.000896877
0.00043689
5.96938e-05
0.000108851
0.00076986
3.97648e-05
4.3617e-05
0.000850829
2.08578e-05
-1.29073e-05
0.000876083
6.89183e-06
-2.80684e-05
0.000887001
-6.88058e-06
-2.94925e-05
0.000889951
-2.085e-05
-2.80612e-05
0.000886998
-3.97612e-05
-1.29129e-05
0.000876086
-5.96902e-05
4.35796e-05
0.00085085
0.000108777
0.000769915
6.82295e-05
0.000900601
0.000690345
5.86247e-05
0.000137059
0.00098817
4.03263e-05
5.88733e-05
0.00106912
2.12782e-05
-1.79085e-06
0.00109787
7.04222e-06
-2.20838e-05
0.00111083
-7.0322e-06
-2.37006e-05
0.00111438
-2.12706e-05
-2.20743e-05
0.00111083
-4.03218e-05
-1.79455e-06
0.00109787
-5.86208e-05
5.88336e-05
0.00106914
0.000136978
0.000988224
6.48702e-05
0.000873135
0.000998995
5.74753e-05
0.000152043
0.00123319
4.19425e-05
6.72795e-05
0.00131588
2.24356e-05
6.57522e-06
0.00134977
7.4073e-06
-1.84073e-05
0.0013651
-7.40049e-06
-2.0231e-05
0.00136939
-2.24288e-05
-1.83981e-05
0.0013651
-4.19366e-05
6.57117e-06
0.00134977
-5.74702e-05
6.72392e-05
0.0013159
0.000151963
0.00123324
6.37015e-05
0.000801156
0.00134146
5.72067e-05
0.000156923
0.00151119
4.46043e-05
6.79442e-05
0.00159738
2.43925e-05
1.11185e-05
0.0016371
8.00331e-06
-1.77082e-05
0.00165508
-8.00142e-06
-1.98573e-05
0.00166027
-2.43872e-05
-1.77031e-05
0.00165508
-4.45963e-05
1.11104e-05
0.00163711
-5.71988e-05
6.79038e-05
0.0015974
0.00015685
0.00151124
6.39737e-05
0.000688515
0.00170782
5.78276e-05
0.000152492
0.00183007
4.79115e-05
5.87899e-05
0.00191728
2.71284e-05
9.00378e-06
0.00196211
8.82203e-06
-2.2066e-05
0.00198288
-8.82513e-06
-2.4753e-05
0.00198913
-2.71244e-05
-2.20692e-05
0.00198288
-4.79008e-05
8.98738e-06
0.00196212
-5.78158e-05
5.87494e-05
0.00191731
0.00015243
0.00183011
6.34457e-05
0.00210343
0.000547475
5.92272e-05
0.0021936
0.000134718
5.14177e-05
0.00227565
3.64156e-05
3.0532e-05
0.00232358
-4.16839e-06
9.86362e-06
0.00234718
-3.48685e-05
-9.86896e-06
0.00235458
-3.82522e-05
-3.05274e-05
0.00234717
-3.48834e-05
-5.1404e-05
0.00232359
-4.19569e-06
-5.92122e-05
0.00227568
3.63767e-05
0.00219364
0.00013467
-2.90419e-05
5.22722e-05
3.96055e-05
-2.79638e-05
-2.02064e-05
0.000102119
-1.69896e-05
-2.33083e-05
0.000122752
-9.98625e-06
-1.63024e-05
0.000129848
-3.16456e-06
-1.73606e-05
0.000133706
3.15561e-06
-1.70096e-05
0.000134741
9.97948e-06
-1.73644e-05
0.000133707
1.69883e-05
-1.63095e-05
0.000129851
2.79725e-05
-2.33194e-05
0.000122762
-2.0213e-05
0.000102136
-2.23036e-05
5.33475e-05
0.00012185
-2.0042e-05
-6.0773e-05
0.00027324
-1.46378e-05
-4.94163e-05
0.00031562
-7.37336e-06
-3.85574e-05
0.000329585
-2.33502e-06
-3.83335e-05
0.000335626
2.33306e-06
-3.77416e-05
0.000337312
7.37105e-06
-3.83391e-05
0.000335627
1.46362e-05
-3.85669e-05
0.000329589
2.00478e-05
-4.94347e-05
0.000315636
-6.07925e-05
0.000273275
-1.31593e-05
6.2264e-06
0.000217327
-7.75369e-06
-9.73299e-05
0.000427747
-6.04225e-06
-6.70788e-05
0.000487981
-1.76606e-06
-5.51526e-05
0.000507326
-5.81721e-07
-5.22388e-05
0.000514974
5.87081e-07
-5.18093e-05
0.000517187
1.76996e-06
-5.22448e-05
0.000514974
6.0411e-06
-5.51585e-05
0.000507331
7.75654e-06
-6.71016e-05
0.000488001
-9.73674e-05
0.000427795
-6.63256e-06
-6.37716e-05
0.000336667
-3.97184e-07
-0.000117938
0.000589203
-9.711e-07
-7.51077e-05
0.00066242
1.50724e-06
-6.57037e-05
0.000685747
5.58858e-07
-5.97185e-05
0.000695217
-5.44547e-07
-5.94157e-05
0.000697972
-1.50175e-06
-5.97171e-05
0.000695216
9.59927e-07
-6.56943e-05
0.000685751
3.9834e-07
-7.5145e-05
0.000662443
-0.000117993
0.000589258
-4.0609e-06
-0.000116941
0.000498199
5.179e-06
-0.000131492
0.000774173
1.82257e-06
-7.58412e-05
0.000854919
2.84808e-06
-7.23169e-05
0.000881671
1.15605e-06
-6.42076e-05
0.000893182
-1.13951e-06
-6.36881e-05
0.000896519
-2.83984e-06
-6.41992e-05
0.000893181
-1.82146e-06
-7.23018e-05
0.000881675
-5.17619e-06
-7.58842e-05
0.000854944
-0.000131564
0.000774231
-4.74869e-06
-0.000135619
0.00071854
5.67324e-06
-0.00014178
0.000988036
2.69676e-06
-7.5676e-05
0.00107193
3.26894e-06
-7.78241e-05
0.0011028
1.39961e-06
-6.8179e-05
0.00111668
-1.38196e-06
-6.72172e-05
0.0011207
-3.25988e-06
-6.81632e-05
0.00111667
-2.69542e-06
-7.78031e-05
0.00110281
-5.6683e-06
-7.57277e-05
0.00107196
-0.000141869
0.000988093
-6.01454e-06
-0.000122455
0.000997884
3.91551e-06
-0.000150529
0.00123201
2.81252e-06
-7.70524e-05
0.00131836
3.39412e-06
-8.29953e-05
0.00135436
1.5352e-06
-7.22047e-05
0.00137098
-1.5186e-06
-7.06116e-05
0.00137584
-3.38564e-06
-7.21823e-05
0.00137098
-2.81045e-06
-8.29702e-05
0.00135437
-3.90697e-06
-7.71164e-05
0.00131839
-0.000150637
0.00123207
-5.24874e-06
-9.52841e-05
0.00132482
2.32111e-06
-0.000155824
0.00150891
3.20715e-06
-7.94199e-05
0.00159886
3.58562e-06
-8.70222e-05
0.00164075
1.68513e-06
-7.567e-05
0.00166045
-1.67252e-06
-7.3313e-05
0.00166633
-3.57919e-06
-7.56435e-05
0.00166045
-3.20485e-06
-8.69961e-05
0.00164076
-2.31037e-06
-7.94998e-05
0.00159889
-0.00015596
0.00150897
-2.46687e-06
-6.7579e-05
0.0016851
2.79652e-06
-0.000155904
0.00182488
4.37844e-06
-8.04518e-05
0.00191673
4.00093e-06
-8.85152e-05
0.00196398
1.86768e-06
-7.76216e-05
0.00198697
-1.86342e-06
-7.45474e-05
0.00199409
-3.99832e-06
-7.75963e-05
0.00198697
-4.3783e-06
-8.84909e-05
0.00196399
-2.79295e-06
-8.05452e-05
0.00191677
-0.000156099
0.00182494
1.69238e-06
0.00207752
-4.49571e-05
4.38777e-06
0.0021832
-0.000148197
6.56516e-06
0.00227176
-7.87358e-05
4.78599e-06
0.0023225
-8.56527e-05
2.00667e-06
0.00234885
-7.65128e-05
-2.01323e-06
0.00235739
-7.33349e-05
-4.78871e-06
0.00234885
-7.64952e-05
-6.57145e-06
0.00232251
-8.56304e-05
-4.45212e-06
0.0022718
-7.87854e-05
0.00218325
-0.000148561
-1.55973e-05
3.63842e-06
6.71743e-05
-1.42231e-05
-1.25432e-05
0.000113288
-9.60156e-06
-6.52364e-06
0.000124655
-6.25568e-06
-3.03286e-06
0.000129535
-1.98704e-06
-3.42048e-06
0.000132858
1.9813e-06
-2.90728e-06
0.00013368
6.25151e-06
-3.4212e-06
0.000132858
9.60159e-06
-3.03582e-06
0.000129537
1.42284e-05
-6.52601e-06
0.000124661
-1.25494e-05
0.000113304
-2.65654e-05
-9.60226e-06
0.000188241
-2.84851e-05
-3.49831e-05
0.000297599
-1.83414e-05
-2.40581e-05
0.000323011
-1.0655e-05
-1.3832e-05
0.000332697
-3.57119e-06
-1.30923e-05
0.000338214
3.5667e-06
-1.24231e-05
0.00033969
1.0652e-05
-1.30939e-05
0.000338214
1.83418e-05
-1.38371e-05
0.000332701
2.84905e-05
-2.40611e-05
0.000323023
-3.49997e-05
0.000297631
-2.58191e-05
-4.04521e-05
0.000299834
-2.88621e-05
-5.77874e-05
0.000453595
-1.87219e-05
-4.29534e-05
0.000496736
-1.03298e-05
-2.6394e-05
0.000511497
-3.54534e-06
-2.34909e-05
0.000518588
3.54484e-06
-2.29973e-05
0.000520672
1.03298e-05
-2.34926e-05
0.000518588
1.87227e-05
-2.63989e-05
0.0005115
2.88666e-05
-4.29556e-05
0.000496752
-5.78132e-05
0.000453638
-2.32005e-05
-7.94894e-05
0.000422122
-2.57392e-05
-7.56209e-05
0.000609575
-1.74432e-05
-5.77831e-05
0.000668954
-9.36186e-06
-3.73191e-05
0.000688591
-3.23057e-06
-3.1804e-05
0.000697399
3.23336e-06
-3.15689e-05
0.000700079
9.36434e-06
-3.1805e-05
0.000697398
1.74445e-05
-3.73214e-05
0.000688594
2.57434e-05
-5.77842e-05
0.000668973
-7.56546e-05
0.000609626
-2.14116e-05
-0.000115537
0.000577084
-2.28443e-05
-8.73535e-05
0.000787339
-1.67888e-05
-6.74994e-05
0.00085858
-8.94139e-06
-4.62613e-05
0.000882766
-3.05378e-06
-3.8013e-05
0.000893504
3.05822e-06
-3.79508e-05
0.000896789
8.94529e-06
-3.8013e-05
0.000893502
1.67907e-05
-4.626e-05
0.000882769
2.28492e-05
-6.75002e-05
0.000858602
-8.7394e-05
0.000787394
-2.08382e-05
-0.000136071
0.000780764
-2.15493e-05
-9.46684e-05
0.000996063
-1.71854e-05
-7.39037e-05
0.00107397
-9.22665e-06
-5.43152e-05
0.0011029
-3.08467e-06
-4.33402e-05
0.00111586
3.08879e-06
-4.32402e-05
0.00111981
9.23077e-06
-4.33392e-05
0.00111586
1.71882e-05
-5.43105e-05
0.0011029
2.15559e-05
-7.3905e-05
0.00107399
-9.47138e-05
0.000996118
-2.09468e-05
-0.000136764
0.00104048
-2.14574e-05
-0.000100433
0.00123829
-1.81275e-05
-7.85663e-05
0.00131969
-9.93045e-06
-6.19085e-05
0.00135375
-3.23122e-06
-4.83594e-05
0.0013693
3.23303e-06
-4.78944e-05
0.00137403
9.93363e-06
-4.83586e-05
0.0013693
1.81317e-05
-6.19022e-05
0.00135376
2.14663e-05
-7.85687e-05
0.00131972
-0.00010048
0.00123834
-2.04781e-05
-0.000122913
0.00135194
-2.11492e-05
-0.000105688
0.00151484
-1.87054e-05
-8.13711e-05
0.00159922
-1.05953e-05
-6.81071e-05
0.00163884
-3.35413e-06
-5.24828e-05
0.00165733
3.35188e-06
-5.12603e-05
0.00166299
1.05965e-05
-5.24839e-05
0.00165733
1.87115e-05
-6.81029e-05
0.00163885
2.1161e-05
-8.13748e-05
0.00159925
-0.000105733
0.00151489
-1.86655e-05
-0.000104597
0.00170413
-1.96458e-05
-0.000109699
0.00182988
-1.80527e-05
-8.14614e-05
0.00191523
-1.08088e-05
-7.13126e-05
0.00195994
-3.3504e-06
-5.46111e-05
0.00198164
3.34349e-06
-5.22829e-05
0.00198842
1.08078e-05
-5.46163e-05
0.00198164
1.80619e-05
-7.13153e-05
0.00195995
1.96612e-05
-8.1466e-05
0.00191526
-0.00010974
0.00182992
-1.50576e-05
0.0020912
-8.81453e-05
-1.66524e-05
0.00218608
-0.000110988
-1.56838e-05
0.00226779
-7.84582e-05
-1.03513e-05
0.00231585
-6.99999e-05
-3.18577e-06
0.00234088
-5.38112e-05
3.17613e-06
0.00234895
-5.02054e-05
1.03491e-05
0.00234088
-5.38213e-05
1.56955e-05
0.00231586
-7.00133e-05
1.66718e-05
0.00226782
-7.84637e-05
0.00218613
-0.000111025
-5.27109e-06
-4.637e-06
8.23622e-05
-3.63148e-06
-6.29567e-06
0.000117944
-3.04399e-06
-3.02247e-06
0.00012709
-2.30539e-06
-2.20668e-06
0.000131003
-7.09605e-07
-2.60278e-06
0.000133865
7.08228e-07
-2.22682e-06
0.000134489
2.30373e-06
-2.6017e-06
0.000133865
3.04352e-06
-2.20686e-06
0.000131004
3.63396e-06
-3.02408e-06
0.000127095
-6.30035e-06
0.000117959
-1.14584e-05
-2.06991e-05
0.000227231
-1.16049e-05
-1.73876e-05
0.000308838
-8.11834e-06
-1.23089e-05
0.000328811
-5.17474e-06
-8.83804e-06
0.000336385
-1.81167e-06
-9.12947e-06
0.000341378
1.81313e-06
-8.74683e-06
0.000342585
5.1752e-06
-9.1264e-06
0.000341377
8.11908e-06
-8.83732e-06
0.000336387
1.1608e-05
-1.23105e-05
0.00032882
-1.73963e-05
0.000308865
-1.21417e-05
-4.84133e-05
0.00035184
-1.33292e-05
-3.18185e-05
0.000469213
-8.97359e-06
-2.45768e-05
0.000504648
-5.28729e-06
-1.77081e-05
0.00051668
-1.94545e-06
-1.72109e-05
0.000523328
1.95167e-06
-1.71609e-05
0.000525189
5.29142e-06
-1.72051e-05
0.000523327
8.97568e-06
-1.77045e-05
0.000516683
1.33314e-05
-2.45759e-05
0.000504661
-3.18285e-05
0.000469251
-1.12245e-05
-8.24415e-05
0.000478606
-1.2072e-05
-4.64372e-05
0.000625041
-7.99837e-06
-3.62152e-05
0.000676519
-4.38112e-06
-2.63511e-05
0.000693617
-1.66048e-06
-2.45627e-05
0.00070203
1.67132e-06
-2.49813e-05
0.000704568
4.38885e-06
-2.45534e-05
0.000702029
8.00177e-06
-2.63427e-05
0.000693619
1.20734e-05
-3.62098e-05
0.000676535
-4.64467e-05
0.000625087
-1.02079e-05
-0.000114792
0.000629855
-1.01266e-05
-5.80561e-05
0.000798877
-6.79774e-06
-4.50099e-05
0.000864046
-3.44196e-06
-3.33314e-05
0.000886391
-1.32266e-06
-2.99395e-05
0.000896761
1.33718e-06
-3.08304e-05
0.000899979
3.45278e-06
-2.99262e-05
0.000896759
6.80256e-06
-3.33166e-05
0.000886393
1.0128e-05
-4.49992e-05
0.000864066
-5.80645e-05
0.000798927
-9.58188e-06
-0.000136479
0.00082162
-8.66105e-06
-6.55395e-05
0.00100263
-6.12718e-06
-5.12429e-05
0.00107767
-2.90853e-06
-3.88885e-05
0.00110523
-1.10276e-06
-3.37231e-05
0.00111784
1.11946e-06
-3.5001e-05
0.00112176
2.92163e-06
-3.37058e-05
0.00111784
6.13372e-06
-3.88667e-05
0.00110524
8.66376e-06
-5.12268e-05
0.00107769
-6.55469e-05
0.00100268
-9.52426e-06
-0.000142858
0.00106592
-8.13159e-06
-7.05935e-05
0.00124195
-6.20249e-06
-5.63528e-05
0.00132287
-2.89267e-06
-4.41919e-05
0.00135575
-1.04511e-06
-3.71926e-05
0.00137092
1.06225e-06
-3.87123e-05
0.00137563
2.90708e-06
-3.71722e-05
0.00137092
6.2112e-06
-4.41638e-05
0.00135575
8.13691e-06
-5.6332e-05
0.0013229
-7.05999e-05
0.001242
-9.7179e-06
-0.00013659
0.00136512
-8.1875e-06
-7.56466e-05
0.00151836
-6.76349e-06
-6.10215e-05
0.00160246
-3.24475e-06
-4.97879e-05
0.00164092
-1.09616e-06
-4.10876e-05
0.00165908
1.11188e-06
-4.26652e-05
0.00166474
3.25939e-06
-4.10658e-05
0.00165908
6.7749e-06
-4.97559e-05
0.00164092
8.19691e-06
-6.09974e-05
0.00160249
-7.56521e-05
0.00151841
-9.58092e-06
-0.000125311
0.00171203
-8.11803e-06
-8.1278e-05
0.00183404
-7.36448e-06
-6.50525e-05
0.0019185
-3.73586e-06
-5.55729e-05
0.0019621
-1.17659e-06
-4.55444e-05
0.00198354
1.1889e-06
-4.69501e-05
0.00199034
3.74958e-06
-4.55238e-05
0.00198354
7.37916e-06
-5.5541e-05
0.00196211
8.13319e-06
-6.50278e-05
0.00191854
-8.1284e-05
0.00183409
-8.63563e-06
0.00209847
-0.000115274
-7.50186e-06
0.00219034
-8.66764e-05
-7.60115e-06
0.00227089
-6.80602e-05
-4.176e-06
0.00231801
-6.11554e-05
-1.23964e-06
0.0023428
-5.04021e-05
1.24684e-06
0.00235092
-5.14055e-05
4.18772e-06
0.0023428
-5.03856e-05
7.61952e-06
0.00231802
-6.11291e-05
7.52391e-06
0.00227093
-6.80384e-05
0.00219039
-8.66857e-05
-4.51059e-06
-7.08538e-06
9.84752e-05
-3.33808e-06
-3.24652e-06
0.000120018
-1.91077e-06
-1.83047e-06
0.000127493
-1.26276e-06
-3.27209e-07
0.000130682
-3.03368e-07
-1.55559e-07
0.000133061
3.02527e-07
3.23102e-07
0.00013356
1.262e-06
-1.55173e-07
0.00013306
1.91072e-06
-3.2679e-07
0.000130682
3.33927e-06
-1.82998e-06
0.000127496
-3.24981e-06
0.00012003
-1.20162e-05
-1.53065e-05
0.000259498
-1.25513e-05
-7.77566e-06
0.000313902
-7.00929e-06
-8.29012e-06
0.000329728
-4.56796e-06
-2.02407e-06
0.000335641
-1.47309e-06
-1.77766e-06
0.000339905
1.4721e-06
-8.9195e-07
0.000340855
4.56719e-06
-1.77677e-06
0.000339903
7.00997e-06
-2.02356e-06
0.000335641
1.25544e-05
-8.28941e-06
0.000329735
-7.78562e-06
0.000313926
-1.56773e-05
-2.51042e-05
0.000393007
-1.86594e-05
-1.42031e-05
0.000478623
-1.09547e-05
-1.84589e-05
0.000507112
-6.93775e-06
-5.93211e-06
0.000516571
-2.38787e-06
-5.47293e-06
0.000522473
2.38785e-06
-4.47191e-06
0.000523993
6.93792e-06
-5.47157e-06
0.000522472
1.09562e-05
-5.93155e-06
0.000516572
1.86638e-05
-1.84582e-05
0.000507122
-1.42198e-05
0.000478656
-1.67817e-05
-3.81038e-05
0.000525184
-2.11791e-05
-2.17646e-05
0.000637
-1.3211e-05
-3.0083e-05
0.000680174
-8.15046e-06
-1.16375e-05
0.000694261
-2.87641e-06
-1.06435e-05
0.000701927
2.87764e-06
-9.76141e-06
0.000704103
8.15182e-06
-1.06418e-05
0.000701925
1.32133e-05
-1.16368e-05
0.000694263
2.11844e-05
-3.00824e-05
0.000680188
-2.17872e-05
0.000637041
-1.66072e-05
-5.2963e-05
0.000677944
-2.14046e-05
-2.87524e-05
0.000810662
-1.43527e-05
-4.08032e-05
0.000867714
-8.65079e-06
-1.8106e-05
0.000887157
-3.08754e-06
-1.61986e-05
0.000896753
3.08969e-06
-1.55867e-05
0.000899626
8.65321e-06
-1.61967e-05
0.000896751
1.4356e-05
-1.81051e-05
0.000887158
2.14109e-05
-4.08027e-05
0.000867731
-2.87799e-05
0.000810708
-1.58116e-05
-6.55069e-05
0.000865801
-2.0353e-05
-3.34963e-05
0.00101191
-1.49138e-05
-4.90835e-05
0.00108051
-8.81846e-06
-2.44383e-05
0.00110547
-3.16053e-06
-2.12557e-05
0.00111724
3.16271e-06
-2.09739e-05
0.00112082
8.82152e-06
-2.12543e-05
0.00111724
1.49183e-05
-2.4438e-05
0.00110547
2.03606e-05
-4.90837e-05
0.00108053
-3.35275e-05
0.00101196
-1.48284e-05
-7.04081e-05
0.00110049
-1.88321e-05
-3.54979e-05
0.00124795
-1.52798e-05
-5.45389e-05
0.00132478
-8.91481e-06
-3.03366e-05
0.00135528
-3.19133e-06
-2.55795e-05
0.00136952
3.19225e-06
-2.56e-05
0.00137387
8.91785e-06
-2.55797e-05
0.00136952
1.52857e-05
-3.0338e-05
0.00135528
1.88416e-05
-5.454e-05
0.0013248
-3.55317e-05
0.001248
-1.37739e-05
-6.55879e-05
0.00138786
-1.72215e-05
-3.60219e-05
0.00152233
-1.55225e-05
-5.73587e-05
0.00160358
-9.01757e-06
-3.57321e-05
0.00163981
-3.21126e-06
-2.92192e-05
0.00165691
3.20969e-06
-2.94362e-05
0.00166215
9.01995e-06
-2.92227e-05
0.00165691
1.55302e-05
-3.57375e-05
0.00163981
1.72332e-05
-5.7361e-05
0.00160361
-3.60563e-05
0.00152238
-1.23756e-05
-5.3845e-05
0.00172506
-1.53084e-05
-3.61544e-05
0.00183711
-1.53566e-05
-5.75598e-05
0.00191875
-9.04214e-06
-4.00126e-05
0.00196006
-3.19499e-06
-3.18412e-05
0.00198031
3.19082e-06
-3.20759e-05
0.0019866
9.0437e-06
-3.18494e-05
0.00198031
1.5366e-05
-4.0024e-05
0.00196007
1.53227e-05
-5.75634e-05
0.00191878
-3.61876e-05
0.00183715
-1.01904e-05
0.00210491
-3.98932e-05
-1.27106e-05
0.00219222
-3.55046e-05
-1.44039e-05
0.00226969
-5.46616e-05
-8.93421e-06
0.00231429
-4.17633e-05
-3.11388e-06
0.00233776
-3.26163e-05
3.10935e-06
0.0023452
-3.25841e-05
8.93589e-06
0.00233776
-3.26295e-05
1.44149e-05
0.0023143
-4.17817e-05
1.27271e-05
0.00226972
-5.46661e-05
0.00219226
-3.55354e-05
-4.89742e-07
-1.75745e-06
0.000101215
-1.08014e-06
-1.2815e-06
0.00012189
-1.37338e-06
-1.8974e-06
0.000129683
-9.0111e-07
-2.63452e-06
0.000132844
-2.96979e-07
-2.78459e-06
0.000135241
2.97958e-07
-2.87755e-06
0.000135842
9.01706e-07
-2.78418e-06
0.000135241
1.37325e-06
-2.63325e-06
0.000132844
1.08077e-06
-1.89732e-06
0.000129686
-1.28101e-06
0.000121899
-2.05506e-06
-1.03972e-05
0.000272254
-3.03388e-06
-5.77942e-06
0.000319379
-2.21632e-06
-7.29109e-06
0.000334304
-1.63229e-06
-7.32239e-06
0.000339744
-5.28119e-07
-7.79527e-06
0.000343811
5.31684e-07
-7.89341e-06
0.000344811
1.63466e-06
-7.79356e-06
0.00034381
2.21688e-06
-7.31845e-06
0.000339744
3.03523e-06
-7.29029e-06
0.00033431
-5.77854e-06
0.000319397
-3.21441e-06
-2.64339e-05
0.000415479
-4.19567e-06
-1.28534e-05
0.000486678
-2.3286e-06
-1.44206e-05
0.000512375
-1.72957e-06
-1.22552e-05
0.000520905
-5.72933e-07
-1.29597e-05
0.000526481
5.79777e-07
-1.30025e-05
0.000527949
1.73445e-06
-1.29559e-05
0.000526479
2.33042e-06
-1.22474e-05
0.000520905
4.19709e-06
-1.4418e-05
0.000512383
-1.28522e-05
0.000486706
-3.95209e-06
-4.49519e-05
0.000551612
-4.86473e-06
-2.08108e-05
0.00064587
-2.30713e-06
-2.17088e-05
0.000684905
-1.59749e-06
-1.64979e-05
0.000697794
-5.41937e-07
-1.72145e-05
0.000705126
5.52183e-07
-1.71944e-05
0.000707201
1.60504e-06
-1.7208e-05
0.000705124
2.31036e-06
-1.64853e-05
0.000697795
4.86615e-06
-2.17031e-05
0.000684918
-2.08094e-05
0.000645907
-4.41527e-06
-6.26546e-05
0.000704483
-5.22097e-06
-2.8054e-05
0.00081871
-2.25861e-06
-2.84995e-05
0.000871542
-1.37941e-06
-1.9843e-05
0.000889623
-4.72261e-07
-2.03005e-05
0.000898932
4.85801e-07
-2.02239e-05
0.000901698
1.38954e-06
-2.02906e-05
0.00089893
2.26339e-06
-1.98248e-05
0.000889624
5.22278e-06
-2.84898e-05
0.000871559
-2.80528e-05
0.000818753
-4.60995e-06
-7.6599e-05
0.000888971
-5.24188e-06
-3.34401e-05
0.00101793
-2.20749e-06
-3.4406e-05
0.00108338
-1.1541e-06
-2.25083e-05
0.00110708
-3.88644e-07
-2.24565e-05
0.00111863
4.05028e-07
-2.23368e-05
0.00112214
1.16644e-06
-2.24427e-05
0.00111863
2.21411e-06
-2.24843e-05
0.00110709
5.24483e-06
-3.4392e-05
0.0010834
-3.34394e-05
0.00101797
-4.5958e-06
-8.44113e-05
0.0011175
-4.98148e-06
-3.67288e-05
0.00125163
-2.20901e-06
-3.91922e-05
0.00132679
-9.93368e-07
-2.47507e-05
0.00135631
-3.20533e-07
-2.40132e-05
0.00137041
3.38759e-07
-2.38717e-05
0.00137475
1.00728e-06
-2.39952e-05
0.00137041
2.21785e-06
-2.47216e-05
0.00135631
4.98673e-06
-3.91743e-05
0.00132681
-3.67288e-05
0.00125167
-4.5253e-06
-8.63071e-05
0.00139881
-4.60245e-06
-3.88145e-05
0.0015245
-2.31922e-06
-4.28791e-05
0.00160499
-9.29689e-07
-2.68118e-05
0.00164048
-2.8654e-07
-2.5283e-05
0.00165754
3.04886e-07
-2.51553e-05
0.00166284
9.44373e-07
-2.52616e-05
0.00165754
2.33078e-06
-2.67797e-05
0.00164048
4.61139e-06
-4.28586e-05
0.00160501
-3.88153e-05
0.00152454
-4.42203e-06
-8.45024e-05
0.00173211
-4.14718e-06
-4.0631e-05
0.00183865
-2.48978e-06
-4.54604e-05
0.00191968
-9.24911e-07
-2.89426e-05
0.00196063
-2.64621e-07
-2.66146e-05
0.00198098
2.80728e-07
-2.65416e-05
0.00198744
9.39463e-07
-2.65918e-05
0.00198098
2.50465e-06
-2.89108e-05
0.00196064
4.1612e-06
-4.54396e-05
0.00191971
-4.0633e-05
0.00183869
-4.13934e-06
0.00210931
-8.06028e-05
-3.48035e-06
0.00219307
-4.21476e-05
-2.52957e-06
0.0022701
-4.6817e-05
-9.02437e-07
0.00231498
-3.1263e-05
-2.31911e-07
0.00233881
-2.83352e-05
2.43411e-07
0.00234657
-2.83821e-05
9.15934e-07
0.00233881
-2.83146e-05
2.54853e-06
0.00231499
-3.1237e-05
3.50035e-06
0.00227012
-4.67985e-05
0.00219311
-4.21518e-05
-2.98383e-06
-6.91351e-07
0.000107876
-1.98021e-06
-7.0595e-07
0.000121592
-7.60942e-07
1.66572e-08
0.000128447
-4.93929e-07
1.66282e-06
0.000130914
-9.18678e-08
1.966e-06
0.000132873
9.25608e-08
2.3407e-06
0.000133317
4.94628e-07
1.96648e-06
0.000132872
7.6162e-07
1.66381e-06
0.000130913
1.98056e-06
1.81382e-08
0.000128449
-7.06802e-07
0.000121601
-8.74556e-06
4.38683e-06
0.000284676
-9.5004e-06
-4.40765e-07
0.000319868
-5.59628e-06
-2.38575e-06
0.000332803
-3.68022e-06
2.36408e-06
0.000337127
-1.17248e-06
2.68558e-06
0.000340584
1.17278e-06
3.45541e-06
0.000341351
3.68076e-06
2.68647e-06
0.000340582
5.59743e-06
2.36599e-06
0.000337125
9.50281e-06
-2.38363e-06
0.000332806
-4.45974e-07
0.000319885
-1.2347e-05
8.34854e-06
0.000436226
-1.55688e-05
-1.97597e-06
0.000491435
-9.83538e-06
-8.9347e-06
0.00051319
-6.42362e-06
-1.79162e-07
0.000520037
-2.14644e-06
-6.04622e-08
0.00052495
2.14624e-06
9.79574e-07
0.000526132
6.42388e-06
-5.9435e-08
0.000524948
9.83682e-06
-1.76797e-07
0.000520035
1.55736e-05
-8.93346e-06
0.000513197
-1.98728e-06
0.00049146
-1.37707e-05
6.35991e-06
0.000581158
-1.87282e-05
-6.36596e-06
0.000655218
-1.25127e-05
-1.83033e-05
0.000688058
-8.09184e-06
-5.4771e-06
0.000698672
-2.76585e-06
-5.51893e-06
0.000705259
2.76551e-06
-4.33843e-06
0.000706988
8.09218e-06
-5.51807e-06
0.000705256
1.25147e-05
-5.47479e-06
0.000698671
1.8735e-05
-1.83038e-05
0.000688068
-6.38291e-06
0.00065525
-1.38414e-05
-1.70699e-06
0.00074025
-1.97694e-05
-1.22815e-05
0.000830554
-1.41035e-05
-2.83236e-05
0.000875897
-9.02217e-06
-1.2206e-05
0.000891271
-3.12941e-06
-1.21944e-05
0.000899715
3.12896e-06
-1.09705e-05
0.000902072
9.02277e-06
-1.21941e-05
0.000899712
1.41065e-05
-1.22045e-05
0.00089127
1.97778e-05
-2.83262e-05
0.00087591
-1.23029e-05
0.000830593
-1.33162e-05
-1.27018e-05
0.000926616
-1.95827e-05
-1.76205e-05
0.00102953
-1.50274e-05
-3.71809e-05
0.00108768
-9.51911e-06
-1.91577e-05
0.00110853
-3.3386e-06
-1.88056e-05
0.00111906
3.33758e-06
-1.7608e-05
0.0011221
9.51982e-06
-1.88065e-05
0.00111906
1.50315e-05
-1.91581e-05
0.00110853
1.95927e-05
-3.71858e-05
0.0010877
-1.76454e-05
0.00102958
-1.25341e-05
-2.18126e-05
0.0011517
-1.87778e-05
-2.1065e-05
0.00126131
-1.55884e-05
-4.38111e-05
0.00133023
-9.8124e-06
-2.55512e-05
0.00135693
-3.46677e-06
-2.45876e-05
0.00136984
3.46428e-06
-2.34416e-05
0.00137365
9.81282e-06
-2.45908e-05
0.00136984
1.55941e-05
-2.5555e-05
0.00135693
1.87894e-05
-4.38185e-05
0.00133025
-2.1092e-05
0.00126136
-1.15771e-05
-2.49247e-05
0.0014251
-1.76147e-05
-2.27521e-05
0.00153222
-1.59314e-05
-4.81786e-05
0.00160767
-1.00393e-05
-3.10848e-05
0.00164012
-3.55706e-06
-2.92665e-05
0.00165573
3.55224e-06
-2.81113e-05
0.0016604
1.0039e-05
-2.92733e-05
0.00165573
1.59387e-05
-3.10939e-05
0.00164012
1.76282e-05
-4.81882e-05
0.00160769
-2.27799e-05
0.00153227
-1.03451e-05
-2.15183e-05
0.00174941
-1.60906e-05
-2.35606e-05
0.0018452
-1.59698e-05
-5.02014e-05
0.00192158
-1.02216e-05
-3.49944e-05
0.00195879
-3.62067e-06
-3.21669e-05
0.00197728
3.61381e-06
-3.08472e-05
0.00198294
1.02208e-05
-3.21782e-05
0.00197728
1.59789e-05
-3.50102e-05
0.0019588
1.61061e-05
-5.02121e-05
0.0019216
-2.35875e-05
0.00184525
-8.65566e-06
0.00212009
-1.49617e-05
-1.41102e-05
0.00219865
-2.36803e-05
-1.55112e-05
0.00227009
-4.87901e-05
-1.03415e-05
0.00231014
-3.53197e-05
-3.66557e-06
0.00233153
-3.15666e-05
3.65934e-06
0.00233828
-2.98804e-05
1.03415e-05
0.00233153
-3.15825e-05
1.5522e-05
0.00231014
-3.53419e-05
1.41271e-05
0.00227011
-4.87999e-05
0.00219868
-2.37051e-05
1.82551e-06
-3.6784e-06
0.000107906
1.6284e-06
3.32863e-06
0.000118461
1.7642e-06
7.17848e-07
0.000127594
1.42636e-06
-2.25689e-07
0.000131478
5.02454e-07
-4.78133e-07
0.000134276
-5.00438e-07
-8.0887e-07
0.000135129
-1.42542e-06
-4.77475e-07
0.000134275
-1.76473e-06
-2.25344e-07
0.000131478
-1.62851e-06
7.15788e-07
0.000127597
3.32531e-06
0.00011847
3.02605e-06
-1.75657e-05
0.000292513
4.46029e-06
5.56315e-06
0.0003162
4.73192e-06
1.44734e-06
0.000331802
3.07382e-06
8.0107e-07
0.000337759
1.14441e-06
-7.52044e-08
0.00034211
-1.13804e-06
-5.28036e-07
0.000343352
-3.06938e-06
-7.3042e-08
0.000342109
-4.73088e-06
8.03559e-07
0.000337758
-4.46103e-06
1.44536e-06
0.000331807
5.5585e-06
0.000316215
2.74632e-06
-2.88763e-05
0.000442043
5.13782e-06
7.92103e-06
0.000486686
5.83671e-06
3.51013e-06
0.000510429
3.56627e-06
4.29338e-06
0.000518815
1.3568e-06
2.66577e-06
0.000524419
-1.34687e-06
2.36018e-06
0.000525948
-3.55878e-06
2.67008e-06
0.000524417
-5.83399e-06
4.29965e-06
0.000518814
-5.13905e-06
3.51075e-06
0.000510436
7.91753e-06
0.000486709
1.73271e-06
-3.12168e-05
0.000580032
4.23874e-06
1.05959e-05
0.000650037
5.69036e-06
5.61873e-06
0.000684498
3.49338e-06
8.82422e-06
0.000696338
1.35009e-06
6.53102e-06
0.000703537
-1.33717e-06
6.51848e-06
0.000705517
-3.48334e-06
6.5379e-06
0.000703535
-5.68618e-06
8.83544e-06
0.000696338
-4.24004e-06
5.62362e-06
0.000684509
1.05944e-05
0.000650068
3.56062e-07
-2.6008e-05
0.000734328
2.885e-06
1.30069e-05
0.000825614
5.27969e-06
6.68666e-06
0.000872434
3.39021e-06
1.32272e-05
0.000888757
1.32282e-06
1.04392e-05
0.000897874
-1.30718e-06
1.07601e-05
0.00090046
-3.37784e-06
1.04489e-05
0.000897872
-5.27405e-06
1.32441e-05
0.000888758
-2.88582e-06
6.69681e-06
0.000872449
1.30073e-05
0.000825651
-2.983e-07
-1.86044e-05
0.000919809
2.10185e-06
1.5359e-05
0.00102478
5.14968e-06
7.20076e-06
0.00108412
3.52144e-06
1.74252e-05
0.00110596
1.36797e-06
1.43343e-05
0.00111732
-1.34985e-06
1.49469e-05
0.00112064
-3.50687e-06
1.43469e-05
0.00111732
-5.14239e-06
1.74481e-05
0.00110596
-2.10153e-06
7.21644e-06
0.00108414
1.5361e-05
0.00102482
-3.44324e-07
-1.29527e-05
0.00114674
2.21706e-06
1.81398e-05
0.00125597
5.44681e-06
8.17525e-06
0.00132603
3.95269e-06
2.16994e-05
0.00135415
1.50539e-06
1.85124e-05
0.00136811
-1.48524e-06
1.93033e-05
0.00137229
-3.93617e-06
1.85279e-05
0.00136811
-5.43759e-06
2.17277e-05
0.00135415
-2.21478e-06
8.19578e-06
0.00132605
1.81422e-05
0.00125602
4.58968e-08
-9.78507e-06
0.00142185
3.06574e-06
2.1918e-05
0.00152542
6.07065e-06
1.01096e-05
0.00160273
4.62824e-06
2.5861e-05
0.0016374
1.71349e-06
2.27875e-05
0.00165437
-1.69227e-06
2.35697e-05
0.00165954
-4.61032e-06
2.28054e-05
0.00165437
-6.05904e-06
2.58931e-05
0.00163741
-3.06028e-06
1.01331e-05
0.00160276
2.19193e-05
0.00152547
7.6005e-07
-7.53453e-06
0.00174566
4.3777e-06
2.66716e-05
0.00183683
6.90231e-06
1.25659e-05
0.0019166
5.48954e-06
2.881e-05
0.00195726
1.97288e-06
2.60096e-05
0.00197758
-1.95228e-06
2.65171e-05
0.00198392
-5.47123e-06
2.60285e-05
0.00197758
-6.88795e-06
2.88425e-05
0.00195726
-4.36759e-06
1.2589e-05
0.00191663
2.66656e-05
0.00183688
1.46859e-06
0.00211437
-4.72973e-06
6.08933e-06
0.00219012
3.05789e-05
7.90397e-06
0.00226683
1.40091e-05
6.51696e-06
0.00231208
2.82582e-05
2.29565e-06
0.002336
2.57586e-05
-2.27808e-06
0.00234367
2.56988e-05
-6.49965e-06
0.002336
2.57765e-05
-7.88627e-06
0.00231209
2.82856e-05
-6.07326e-06
0.00226686
1.4027e-05
0.00219016
3.05658e-05
1.19672e-06
1.54719e-05
9.00417e-05
5.04673e-06
4.43056e-06
0.00011018
4.51663e-06
6.60293e-06
0.000121521
2.57505e-06
6.76923e-06
0.00012665
8.93311e-07
6.16286e-06
0.000129794
-8.92027e-07
6.26888e-06
0.000130645
-2.57398e-06
6.16346e-06
0.000129793
-4.51521e-06
6.76942e-06
0.00012665
-5.04687e-06
6.60476e-06
0.000121524
4.42711e-06
0.000110192
-4.00617e-06
3.85888e-05
0.000277415
-4.91715e-06
1.26209e-05
0.00030892
-2.41897e-06
8.85931e-06
0.000327047
-1.35247e-06
9.29347e-06
0.000334168
-3.68583e-07
8.03838e-06
0.000339251
3.69278e-07
8.26973e-06
0.000340614
1.35262e-06
8.03994e-06
0.000339249
2.41972e-06
9.29376e-06
0.000334166
4.91934e-06
8.86041e-06
0.000327052
1.26114e-05
0.000308937
-6.86188e-06
6.40919e-05
0.000430277
-1.03853e-05
1.53637e-05
0.000487466
-6.67034e-06
4.83027e-06
0.000510743
-3.8551e-06
5.96502e-06
0.000519328
-1.17687e-06
4.22604e-06
0.000525553