/*--------------------------------*- C++ -*----------------------------------*\
| =========                 |                                                 |
| \\      /  F ield         | OpenFOAM: The Open Source CFD Toolbox           |
|  \\    /   O peration     | Version:  v1912                                 |
|   \\  /    A nd           | Website:  www.openfoam.com                      |
|    \\/     M anipulation  |                                                 |
\*---------------------------------------------------------------------------*/
FoamFile
{
    version     2.0;
    format      ascii;
    class       volVectorField;
    location    "97.2";
    object      wallShearStress;
}
// * * * * * * * * * * * * * * * * * * * * * * * * * * * * * * * * * * * * * //

dimensions      [1 -1 -2 0 0 0 0];


internalField   uniform (0 0 0);

boundaryField
{
    leftWall
    {
        type            calculated;
        value           nonuniform List<vector> 
100
(
(-1.44421e-05 -0.160288 0.00177387)
(-1.24946e-05 -0.0171147 -0.17412)
(-1.00748e-05 -0.000548079 -0.141661)
(-6.68755e-06 0.000202427 -0.333832)
(-5.96244e-06 0.000494155 -0.252665)
(-3.2854e-06 -0.000227719 -0.449992)
(-2.27598e-06 0.000374927 -0.27635)
(-2.06407e-06 2.20292e-05 -0.482925)
(-9.41507e-07 -0.00027324 -0.299963)
(9.19735e-06 0.0155306 -0.280011)
(-0.0519785 -0.0104455 -0.189505)
(0.0471182 0.00221545 -0.357881)
(0.0305265 0.000819283 -0.383279)
(0.0102814 0.000285775 -0.425565)
(0.00988297 0.000171133 -0.4146)
(0.0019564 2.54828e-08 -0.439202)
(0.00643562 5.74098e-06 -0.434621)
(-0.00300924 -0.000223711 -0.420852)
(-0.00175465 -0.00109048 -0.444195)
(-0.065382 -0.00528599 -0.274213)
(0.00195758 0.00283316 -0.30092)
(0.0335218 0.00248069 -0.438873)
(0.0141863 0.000353369 -0.436845)
(0.00266785 9.74244e-05 -0.456443)
(0.00121389 8.35474e-05 -0.448433)
(0.00104927 8.83084e-05 -0.458982)
(0.000289631 -8.03326e-05 -0.466895)
(-0.00246417 1.52717e-05 -0.441786)
(-0.00775326 -0.00131736 -0.481338)
(-0.0465081 -0.00453457 -0.332795)
(-0.00402472 0.00381881 -0.344202)
(0.0158099 0.00162945 -0.468432)
(0.00975333 5.00795e-05 -0.451348)
(0.00383494 3.82945e-05 -0.478004)
(0.00274835 -8.15652e-06 -0.454241)
(0.00199328 0.000193866 -0.476262)
(0.00130573 -0.000230178 -0.470143)
(-0.00190502 0.000121257 -0.458581)
(-0.00485081 -0.00131053 -0.488186)
(-0.0284556 -0.00371865 -0.369135)
(-0.00149709 0.00355131 -0.349898)
(0.00911367 0.00172553 -0.483131)
(0.00592689 0.00013239 -0.460245)
(0.00228033 0.000100998 -0.493461)
(0.00101013 -9.65404e-06 -0.458841)
(0.000696783 0.000212862 -0.489149)
(0.000294904 -0.00025378 -0.47295)
(-0.00154375 0.000136041 -0.47122)
(-0.00230482 -0.00123165 -0.493442)
(-0.0144805 -0.00372449 -0.386136)
(4.45553e-06 0.00358085 -0.351937)
(6.51598e-06 0.00170663 -0.487776)
(4.70485e-06 9.26524e-05 -0.461818)
(1.11124e-06 5.97542e-05 -0.497998)
(1.046e-06 -5.49671e-05 -0.458629)
(-6.73818e-07 0.000220228 -0.493226)
(-3.26773e-08 -0.0002904 -0.472538)
(-1.71345e-06 0.000172341 -0.47548)
(-4.7965e-07 -0.00123069 -0.494414)
(-4.9045e-06 -0.00370621 -0.391179)
(0.00150234 0.00355146 -0.349892)
(-0.00910427 0.00172598 -0.483135)
(-0.00592113 0.000132458 -0.460248)
(-0.00227873 0.000100903 -0.493463)
(-0.00100977 -9.67292e-06 -0.458838)
(-0.000698048 0.000212841 -0.489148)
(-0.000296696 -0.00025382 -0.472945)
(0.00154173 0.000135971 -0.471217)
(0.00230223 -0.00123169 -0.493436)
(0.0144718 -0.00372452 -0.386133)
(0.00402861 0.0038194 -0.344205)
(-0.0158034 0.00163023 -0.468443)
(-0.00974924 5.04188e-05 -0.451358)
(-0.00383263 3.83244e-05 -0.478012)
(-0.00274695 -8.20608e-06 -0.454242)
(-0.00199345 0.000193769 -0.476263)
(-0.00130609 -0.000230265 -0.470138)
(0.00190457 0.000121258 -0.458579)
(0.0048502 -0.00131057 -0.488183)
(0.0284469 -0.00371869 -0.369135)
(-0.00196292 0.002834 -0.300947)
(-0.0335276 0.0024817 -0.43891)
(-0.0141909 0.00035366 -0.43687)
(-0.0026693 9.76303e-05 -0.456468)
(-0.00121463 8.35133e-05 -0.448445)
(-0.00104891 8.83197e-05 -0.458997)
(-0.000290418 -8.04484e-05 -0.466897)
(0.00246527 1.5472e-05 -0.441801)
(0.00775288 -0.00131753 -0.481341)
(0.0465064 -0.00453433 -0.33282)
(0.051968 -0.0104405 -0.189585)
(-0.04713 0.00221571 -0.35793)
(-0.030536 0.000819837 -0.383345)
(-0.0102879 0.000286252 -0.425611)
(-0.00988686 0.000171338 -0.414653)
(-0.00195877 -1.01275e-08 -0.439234)
(-0.00643648 5.78727e-06 -0.434653)
(0.00300786 -0.000223367 -0.420881)
(0.00175452 -0.00109019 -0.444224)
(0.0653894 -0.00528629 -0.274277)
)
;
    }
    rightWall
    {
        type            calculated;
        value           nonuniform List<vector> 
100
(
(-4.03483e-06 0.00773376 -0.671242)
(-1.42994e-05 0.00173777 -0.47762)
(-3.81844e-06 0.000303126 -0.37063)
(-3.92433e-06 -0.000353455 -0.371641)
(-1.04837e-06 -0.000119277 -0.339925)
(-1.43727e-06 -4.30881e-05 -0.377762)
(1.5793e-06 -9.31142e-05 -0.331892)
(-8.89862e-07 5.20071e-05 -0.397309)
(1.19257e-06 -0.00366998 -0.306239)
(3.19112e-06 -0.00581609 -0.774178)
(-0.00675465 0.00815654 -0.658414)
(0.0121546 0.00173511 -0.467869)
(0.00635814 0.000176492 -0.355022)
(0.0044136 -0.000319952 -0.373164)
(-0.000981996 -0.000179921 -0.332119)
(0.00337028 -9.87693e-05 -0.38735)
(-0.00309474 -9.38669e-05 -0.326836)
(0.00119183 -0.00011303 -0.411782)
(-0.0102588 -0.00349454 -0.300554)
(-0.028082 -0.00527802 -0.803072)
(0.000740399 0.00754868 -0.652636)
(0.0204763 0.000608648 -0.489545)
(0.00990636 6.27787e-05 -0.378196)
(0.00523039 -0.000241912 -0.401614)
(-0.000889288 -8.69814e-05 -0.344494)
(0.00341988 -9.17555e-05 -0.4062)
(-0.00302672 4.55753e-05 -0.332154)
(-0.000572529 -0.000141277 -0.428617)
(-0.0118671 -0.0031331 -0.304119)
(-0.0379892 -0.0047695 -0.827737)
(0.00249126 0.0071335 -0.6616)
(0.0138297 0.000576648 -0.507661)
(0.00602633 0.000314444 -0.388656)
(0.00367289 -0.00020606 -0.416421)
(-0.000854896 -3.45259e-05 -0.348237)
(0.00333123 -0.000130427 -0.421747)
(-0.00234159 0.000116993 -0.337594)
(6.92224e-06 -0.000203007 -0.446829)
(-0.00997079 -0.00278765 -0.313686)
(-0.0295928 -0.00474034 -0.842411)
(0.000818288 0.00705375 -0.664855)
(0.00773969 0.000444362 -0.51828)
(0.00472547 0.000211561 -0.396496)
(0.00281639 -0.000200882 -0.430494)
(0.000187793 -5.50684e-05 -0.354086)
(0.00172509 -0.000176277 -0.434511)
(-0.0010867 0.000128708 -0.341959)
(-0.000577493 -0.00021602 -0.459902)
(-0.00547345 -0.00264541 -0.318539)
(-0.0160922 -0.00470324 -0.854881)
(6.62358e-06 0.00700718 -0.665613)
(1.33792e-05 0.000326338 -0.522879)
(6.29474e-06 0.000222806 -0.400232)
(3.74164e-06 -0.000188247 -0.434657)
(3.70319e-07 -1.98301e-05 -0.355637)
(5.73668e-07 -0.00015077 -0.43719)
(-4.75378e-07 0.0001697 -0.342676)
(-6.8352e-07 -0.000213145 -0.463043)
(-2.04581e-06 -0.00262705 -0.319775)
(-6.77884e-06 -0.00466487 -0.859162)
(-0.000811189 0.00705325 -0.66485)
(-0.00772229 0.000443673 -0.518298)
(-0.0047166 0.000211564 -0.396503)
(-0.00281006 -0.000200845 -0.430506)
(-0.000187246 -5.50313e-05 -0.354083)
(-0.00172391 -0.000176279 -0.434518)
(0.00108337 0.000128794 -0.341953)
(0.000577056 -0.000216023 -0.459909)
(0.0054683 -0.00264531 -0.318531)
(0.016084 -0.00470296 -0.854889)
(-0.00248793 0.00713335 -0.661597)
(-0.0138252 0.00057557 -0.507684)
(-0.00602692 0.000314042 -0.388668)
(-0.00367131 -0.000206071 -0.416446)
(0.000854723 -3.45887e-05 -0.348239)
(-0.00333062 -0.000130417 -0.421762)
(0.00233903 0.000117078 -0.337587)
(-6.78334e-06 -0.000203018 -0.44684)
(0.00996803 -0.00278744 -0.313677)
(0.0295889 -0.00474014 -0.842421)
(-0.000745152 0.00754803 -0.652634)
(-0.0204818 0.000607707 -0.489556)
(-0.00991325 6.26626e-05 -0.378193)
(-0.00523539 -0.000241872 -0.40163)
(0.000888088 -8.68676e-05 -0.344492)
(-0.00342215 -9.17984e-05 -0.406217)
(0.00302696 4.57934e-05 -0.332148)
(0.000571346 -0.000141382 -0.428633)
(0.0118697 -0.00313249 -0.304109)
(0.0379916 -0.00476947 -0.827755)
(0.00674319 0.00815669 -0.658416)
(-0.0121747 0.00173308 -0.467873)
(-0.0063654 0.000176345 -0.355022)
(-0.00442162 -0.000319976 -0.373171)
(0.000980297 -0.000180029 -0.332118)
(-0.00337409 -9.87419e-05 -0.387355)
(0.00309649 -9.38495e-05 -0.326834)
(-0.00119394 -0.000113106 -0.411786)
(0.0102625 -0.00349472 -0.300555)
(0.0280897 -0.00527794 -0.803074)
)
;
    }
    leftSides_periodic0
    {
        type            cyclic;
    }
    leftSides_periodic1
    {
        type            cyclic;
    }
    rightSides_periodic0
    {
        type            cyclic;
    }
    rightSides_periodic1
    {
        type            cyclic;
    }
    leftInOut_periodic0
    {
        type            cyclic;
    }
    leftInOut_periodic1
    {
        type            cyclic;
    }
    rightInOut_periodic0
    {
        type            cyclic;
    }
    rightInOut_periodic1
    {
        type            cyclic;
    }
}


// ************************************************************************* //
