0 	0 	0 	0
5.01672e-05 	0.000628542 	-2.74526e-06 	0.0144888
0.000100334 	0.000764844 	-4.49311e-06 	0.0272693
0.000150502 	0.000726625 	-6.22587e-06 	0.0390745
0.000200669 	0.000722838 	-6.44709e-06 	0.0501462
0.000250836 	0.000756515 	-5.08212e-06 	0.0604945
0.000301003 	0.000796856 	-2.53103e-06 	0.0701344
0.000351171 	0.000832615 	1.31224e-06 	0.0791084
0.000401338 	0.000859864 	6.43732e-06 	0.0874607
0.000451505 	0.000877723 	1.28006e-05 	0.0952288
0.000501672 	0.000886813 	2.02891e-05 	0.102445
0.000551839 	0.000888874 	2.8743e-05 	0.109141
0.000602007 	0.000886401 	3.8078e-05 	0.115351
0.000652174 	0.000881678 	4.8285e-05 	0.121115
0.000702341 	0.000876008 	5.92966e-05 	0.126474
0.000752508 	0.000869738 	7.09442e-05 	0.131472
0.000802676 	0.000862497 	8.30875e-05 	0.136145
0.000852843 	0.000853294 	9.58353e-05 	0.140484
0.00090301 	0.000842553 	0.000109172 	0.144564
0.000953177 	0.00083083 	0.000123062 	0.148412
0.00100334 	0.000818609 	0.000137475 	0.15205
0.00105351 	0.000806299 	0.000152392 	0.155497
0.00110368 	0.00079427 	0.000167823 	0.158767
0.00115385 	0.000783183 	0.00018392 	0.161835
0.00120401 	0.000773162 	0.00020052 	0.164765
0.00125418 	0.000764362 	0.000217606 	0.167569
0.00130435 	0.000756903 	0.00023516 	0.170258
0.00135452 	0.000751454 	0.000253317 	0.17281
0.00140468 	0.000747957 	0.000271998 	0.175254
0.00145485 	0.000746142 	0.000291111 	0.177615
0.00150502 	0.00074598 	0.00031064 	0.179897
0.00155518 	0.000748495 	0.000330823 	0.182067
0.00160535 	0.000752699 	0.000351418 	0.184172
0.00165552 	0.000758449 	0.000372397 	0.186219
0.00170569 	0.000766433 	0.000393946 	0.188186
0.00175585 	0.000776359 	0.000416023 	0.19009
0.00180602 	0.000787649 	0.000438478 	0.19195
0.00185619 	0.000800947 	0.000461509 	0.193746
0.00190635 	0.000815987 	0.000485047 	0.195488
0.00195652 	0.000832095 	0.000508893 	0.197195
0.00200669 	0.000849986 	0.000533243 	0.198844
0.00205686 	0.000869017 	0.000557907 	0.200452
0.00210702 	0.000888804 	0.000582777 	0.202033
0.00215719 	0.000910202 	0.000608098 	0.203552
0.00220736 	0.000932136 	0.000633585 	0.205048
0.00225753 	0.000954929 	0.00065934 	0.206507
0.00230769 	0.000978554 	0.000685401 	0.207925
0.00235786 	0.00100253 	0.000711596 	0.209326
0.00240803 	0.00102731 	0.000738184 	0.210675
0.00245819 	0.00105228 	0.000764902 	0.212008
0.00250836 	0.00107763 	0.000791882 	0.213306
0.00255853 	0.0011032 	0.000819058 	0.214575
0.0026087 	0.00112892 	0.000846374 	0.215824
0.00265886 	0.00115497 	0.000873912 	0.217035
0.00270903 	0.00118109 	0.000901503 	0.218236
0.0027592 	0.00120786 	0.000929333 	0.219391
0.00280936 	0.00123479 	0.0009572 	0.22054
0.00285953 	0.00126258 	0.000985258 	0.221651
0.0029097 	0.00129075 	0.00101337 	0.22275
0.00295987 	0.0013199 	0.00104163 	0.223819
0.00301003 	0.00134968 	0.00106991 	0.224875
0.0030602 	0.00138053 	0.00109821 	0.225907
0.00311037 	0.00141221 	0.00112637 	0.226924
0.00316054 	0.00144498 	0.00115434 	0.227923
0.0032107 	0.00147847 	0.00118186 	0.228908
0.00326087 	0.0015128 	0.00120885 	0.229877
0.00331104 	0.00154717 	0.00123527 	0.230831
0.0033612 	0.00158159 	0.00126099 	0.231769
0.00341137 	0.00161513 	0.00128677 	0.232691
0.00346154 	0.00164732 	0.00131267 	0.23359
0.00351171 	0.00167824 	0.00133912 	0.234473
0.00356187 	0.00170638 	0.00136677 	0.235324
0.00361204 	0.00173383 	0.0013946 	0.236165
0.00366221 	0.0017583 	0.00142316 	0.236965
0.00371237 	0.00178273 	0.00145169 	0.237763
0.00376254 	0.00180548 	0.00147916 	0.23852
0.00381271 	0.00182823 	0.00150662 	0.239276
0.00386288 	0.00185075 	0.00153227 	0.240004
0.00391304 	0.00187324 	0.00155755 	0.240726
0.00396321 	0.0018959 	0.00158202 	0.241429
0.00401338 	0.00191869 	0.00160594 	0.242119
0.00406355 	0.00194168 	0.00162983 	0.242799
0.00411371 	0.00196511 	0.00165365 	0.243458
0.00416388 	0.00198854 	0.00167747 	0.244117
0.00421405 	0.00201289 	0.00170104 	0.244744
0.00426421 	0.00203725 	0.00172462 	0.245372
0.00431438 	0.00206222 	0.00174772 	0.245981
0.00436455 	0.00208756 	0.00177054 	0.246579
0.00441472 	0.00211307 	0.00179316 	0.247171
0.00446488 	0.0021392 	0.00181511 	0.24774
0.00451505 	0.00216533 	0.00183706 	0.24831
0.00456522 	0.00219198 	0.00185829 	0.248859
0.00461538 	0.00221878 	0.00187932 	0.249401
0.00466555 	0.00224574 	0.00190006 	0.249936
0.00471572 	0.00227313 	0.00192012 	0.250453
0.00476589 	0.00230052 	0.00194018 	0.250969
0.00481605 	0.00232831 	0.00195945 	0.251466
0.00486622 	0.00235623 	0.00197848 	0.251957
0.00491639 	0.00238423 	0.00199731 	0.252444
0.00496656 	0.00241259 	0.00201527 	0.252911
0.00501672 	0.00244095 	0.00203323 	0.253378
0.00506689 	0.00246949 	0.00205058 	0.253832
0.00511706 	0.00249819 	0.00206742 	0.254275
0.00516722 	0.00252689 	0.00208427 	0.254718
0.00521739 	0.00255577 	0.00210005 	0.255142
0.00526756 	0.00258468 	0.00211568 	0.255562
0.00531773 	0.0026136 	0.00213111 	0.255979
0.00536789 	0.00264258 	0.00214539 	0.256378
0.00541806 	0.00267156 	0.00215967 	0.256776
0.00546823 	0.00270049 	0.0021734 	0.257167
0.00551839 	0.00272934 	0.00218623 	0.257545
0.00556856 	0.00275818 	0.00219907 	0.257924
0.00561873 	0.00278681 	0.00221109 	0.258291
0.0056689 	0.00281527 	0.00222247 	0.258649
0.00571906 	0.00284372 	0.00223386 	0.259008
0.00576923 	0.00287175 	0.00224427 	0.259354
0.0058194 	0.00289959 	0.00225424 	0.259694
0.00586957 	0.00292743 	0.00226422 	0.260034
0.00591973 	0.00295465 	0.00227316 	0.26036
0.0059699 	0.00298169 	0.00228178 	0.260683
0.00602007 	0.00300873 	0.00229041 	0.261005
0.00607023 	0.00303495 	0.00229801 	0.261313
0.0061204 	0.00306095 	0.00230535 	0.261618
0.00617057 	0.00308696 	0.00231269 	0.261922
0.00622074 	0.00311186 	0.00231908 	0.262214
0.0062709 	0.00313642 	0.00232518 	0.262502
0.00632107 	0.00316098 	0.00233128 	0.26279
0.00637124 	0.00318415 	0.00233654 	0.263066
0.0064214 	0.00320666 	0.00234142 	0.263338
0.00647157 	0.00322918 	0.00234629 	0.263609
0.00652174 	0.00325024 	0.00235046 	0.263872
0.00657191 	0.00327009 	0.00235403 	0.264127
0.00662207 	0.00328994 	0.00235761 	0.264382
0.00667224 	0.0033087 	0.00236067 	0.264632
0.00672241 	0.00332544 	0.00236279 	0.264872
0.00677258 	0.00334219 	0.00236491 	0.265112
0.00682274 	0.0033586 	0.00236687 	0.26535
0.00687291 	0.00337202 	0.00236739 	0.265575
0.00692308 	0.00338543 	0.00236792 	0.2658
0.00697324 	0.00339885 	0.00236844 	0.266025
0.00702341 	0.0034095 	0.00236797 	0.266239
0.00707358 	0.00341941 	0.00236724 	0.266449
0.00712375 	0.00342931 	0.00236651 	0.26666
0.00717391 	0.00343751 	0.00236519 	0.266863
0.00722408 	0.00344333 	0.00236305 	0.267057
0.00727425 	0.00344916 	0.00236092 	0.26725
0.00732441 	0.00345499 	0.00235879 	0.267444
0.00737458 	0.00345576 	0.00235297 	0.26762
0.00742475 	0.00345649 	0.00234711 	0.267795
0.00747492 	0.00345722 	0.00234126 	0.267971
0.00752508 	0.00345525 	0.00233363 	0.268147
0.00757525 	0.00345058 	0.00232423 	0.268323
0.00762542 	0.0034459 	0.00231483 	0.2685
0.00767559 	0.00344119 	0.00230546 	0.268677
0.00772575 	0.00343177 	0.00229866 	0.268896
0.00777592 	0.00342236 	0.00229185 	0.269116
0.00782609 	0.00341294 	0.00228505 	0.269335
0.00787625 	0.00340109 	0.00228148 	0.26961
0.00792642 	0.00338749 	0.00228027 	0.269925
0.00797659 	0.00337388 	0.00227905 	0.270239
0.00802676 	0.00335917 	0.00227756 	0.270568
0.00807692 	0.00334027 	0.00227508 	0.27095
0.00812709 	0.00332138 	0.0022726 	0.271331
0.00817726 	0.00330248 	0.00227012 	0.271713
0.00822742 	0.00327708 	0.00226061 	0.272025
0.00827759 	0.00325097 	0.00225033 	0.272329
0.00832776 	0.00322485 	0.00224004 	0.272633
0.00837793 	0.00319445 	0.00222536 	0.272837
0.00842809 	0.00316172 	0.0022083 	0.272986
0.00847826 	0.003129 	0.00219124 	0.273135
0.00852843 	0.00309466 	0.00217379 	0.273239
0.0085786 	0.00305839 	0.00215587 	0.273289
0.00862876 	0.00302213 	0.00213794 	0.27334
0.00867893 	0.00298547 	0.0021212 	0.273381
0.0087291 	0.00294797 	0.00210702 	0.273402
0.00877926 	0.00291047 	0.00209284 	0.273424
0.00882943 	0.00287287 	0.00207942 	0.273445
0.0088796 	0.00283491 	0.0020685 	0.273466
0.00892977 	0.00279696 	0.00205757 	0.273486
0.00897993 	0.0027589 	0.00204617 	0.273506
0.0090301 	0.00272047 	0.00203294 	0.273522
0.00908027 	0.00268203 	0.00201971 	0.273539
0.00913043 	0.0026435 	0.00200503 	0.273551
0.0091806 	0.00260467 	0.00198549 	0.273552
0.00923077 	0.00256585 	0.00196596 	0.273552
0.00928094 	0.00252713 	0.00194613 	0.273548
0.0093311 	0.00248867 	0.00192561 	0.273536
0.00938127 	0.00245021 	0.00190509 	0.273523
0.00943144 	0.00241189 	0.0018863 	0.273511
0.00948161 	0.00237375 	0.00186974 	0.2735
0.00953177 	0.00233561 	0.00185317 	0.27349
0.00958194 	0.00229637 	0.00183866 	0.273489
0.00963211 	0.00225645 	0.00182543 	0.273495
0.00968227 	0.00221652 	0.00181219 	0.273501
0.00973244 	0.00217326 	0.00179876 	0.273505
0.00978261 	0.00212939 	0.0017853 	0.273508
0.00983278 	0.00208503 	0.00177122 	0.273506
0.00988294 	0.00203725 	0.00175284 	0.27346
0.00993311 	0.00198947 	0.00173446 	0.273414
0.00998328 	0.00194092 	0.00171412 	0.273333
0.0100334 	0.00189143 	0.00169139 	0.27321
0.0100836 	0.00184195 	0.00166865 	0.273087
0.0101338 	0.00179363 	0.00164618 	0.272911
0.0101839 	0.00174557 	0.00162376 	0.272723
0.0102341 	0.00169831 	0.00160207 	0.272525
0.0102843 	0.00165352 	0.00158266 	0.272297
0.0103344 	0.00160874 	0.00156324 	0.27207
0.0103846 	0.00156581 	0.00154556 	0.271825
0.0104348 	0.00152364 	0.00152859 	0.271573
0.0104849 	0.0014817 	0.00151164 	0.271317
0.0105351 	0.00144058 	0.00149476 	0.271044
0.0105853 	0.00139946 	0.00147788 	0.270772
0.0106355 	0.00135848 	0.00145979 	0.270481
0.0106856 	0.00131754 	0.00144134 	0.270185
0.0107358 	0.00127667 	0.00142262 	0.26988
0.010786 	0.00123591 	0.00140345 	0.269559
0.0108361 	0.00119516 	0.00138428 	0.269237
0.0108863 	0.00115511 	0.00136547 	0.268888
0.0109365 	0.00111506 	0.00134665 	0.268539
0.0109866 	0.00107593 	0.00132804 	0.268169
0.0110368 	0.00103724 	0.00130951 	0.26779
0.011087 	0.000999369 	0.00129106 	0.267397
0.0111371 	0.000962706 	0.00127271 	0.266985
0.0111873 	0.000926499 	0.00125439 	0.266566
0.0112375 	0.000892527 	0.00123622 	0.266116
0.0112876 	0.000858556 	0.00121804 	0.265666
0.0113378 	0.000827805 	0.00120004 	0.265176
0.011388 	0.000797153 	0.00118204 	0.264684
0.0114381 	0.000769686 	0.00116419 	0.264155
0.0114883 	0.000742966 	0.00114638 	0.263617
0.0115385 	0.000719367 	0.0011287 	0.263045
0.0115886 	0.000697187 	0.00111106 	0.262456
0.0116388 	0.000678079 	0.00109352 	0.261835
0.011689 	0.000660997 	0.00107604 	0.261192
0.0117391 	0.000646977 	0.00105863 	0.260515
0.0117893 	0.00063542 	0.00104128 	0.259813
0.0118395 	0.000627008 	0.00102399 	0.259075
0.0118896 	0.000621252 	0.00100674 	0.258308
0.0119398 	0.000618876 	0.000989579 	0.257503
0.01199 	0.000619098 	0.000972471 	0.256667
0.0120401 	0.00062313 	0.000955478 	0.255786
0.0120903 	0.000629464 	0.000938554 	0.254877
0.0121405 	0.000640243 	0.00092175 	0.253912
0.0121906 	0.000652786 	0.000904993 	0.252926
0.0122408 	0.00067056 	0.00088831 	0.25187
0.012291 	0.000689322 	0.00087164 	0.250802
0.0123411 	0.000714164 	0.000854985 	0.249648
0.0123913 	0.000740124 	0.00083829 	0.248476
0.0124415 	0.00077079 	0.000821422 	0.247232
0.0124916 	0.0008037 	0.000804618 	0.245949
0.0125418 	0.000839772 	0.000787903 	0.244611
0.012592 	0.000880041 	0.000771804 	0.243209
0.0126421 	0.000922382 	0.00075601 	0.241775
0.0126923 	0.000973881 	0.000740307 	0.24026
0.0127425 	0.00102905 	0.000724258 	0.238717
0.0127926 	0.00109295 	0.000707265 	0.23711
0.0128428 	0.00116232 	0.000689429 	0.235426
0.012893 	0.0012351 	0.000671067 	0.233694
0.0129431 	0.00130673 	0.000652821 	0.231765
0.0129933 	0.00137355 	0.000635343 	0.229735
0.0130435 	0.00143298 	0.000619049 	0.227549
0.0130936 	0.00148138 	0.000603979 	0.225162
0.0131438 	0.00152627 	0.000588984 	0.222681
0.013194 	0.00156822 	0.000573522 	0.220072
0.0132441 	0.00161534 	0.000556698 	0.217373
0.0132943 	0.00166747 	0.000539062 	0.214617
0.0133445 	0.00172838 	0.000520399 	0.211787
0.0133946 	0.00179823 	0.000501153 	0.208848
0.0134448 	0.00187196 	0.00048172 	0.205818
0.013495 	0.0019488 	0.000462195 	0.202678
0.0135452 	0.00202413 	0.000442821 	0.199323
0.0135953 	0.00209591 	0.000423489 	0.195818
0.0136455 	0.00216348 	0.000404141 	0.192149
0.0136957 	0.00222503 	0.000384653 	0.188275
0.0137458 	0.00227911 	0.000364898 	0.18415
0.013796 	0.00232703 	0.00034498 	0.17982
0.0138462 	0.00236814 	0.00032493 	0.175268
0.0138963 	0.00240163 	0.000304794 	0.170478
0.0139465 	0.00242348 	0.000284593 	0.165342
0.0139967 	0.00243484 	0.000264375 	0.159912
0.0140468 	0.00243463 	0.000244145 	0.154172
0.014097 	0.00242133 	0.000223922 	0.148095
0.0141472 	0.00239317 	0.000203753 	0.141653
0.0141973 	0.00234821 	0.000183744 	0.134812
0.0142475 	0.0022817 	0.000164194 	0.127466
0.0142977 	0.00219613 	0.00014521 	0.119655
0.0143478 	0.00209254 	0.000126876 	0.111367
0.014398 	0.00197228 	0.000109305 	0.102591
0.0144482 	0.0018362 	9.26347e-05 	0.0933336
0.0144983 	0.00168431 	7.70028e-05 	0.0836408
0.0145485 	0.00151654 	6.24653e-05 	0.0736214
0.0145987 	0.00133427 	4.90414e-05 	0.0634559
0.0146488 	0.00114125 	3.68223e-05 	0.0533774
0.014699 	0.000943195 	2.59395e-05 	0.0436322
0.0147492 	0.000746422 	1.65543e-05 	0.0344351
0.0147993 	0.000556193 	8.71541e-06 	0.0259454
0.0148495 	0.000375584 	3.35591e-06 	0.0182767
0.0148997 	0.000211827 	3.93167e-08 	0.0114904
0.0149498 	8.36802e-05 	-1.29938e-06 	0.00549376
0.015 	0 	0 	0
