/*--------------------------------*- C++ -*----------------------------------*\
| =========                 |                                                 |
| \\      /  F ield         | OpenFOAM: The Open Source CFD Toolbox           |
|  \\    /   O peration     | Version:  v1912                                 |
|   \\  /    A nd           | Website:  www.openfoam.com                      |
|    \\/     M anipulation  |                                                 |
\*---------------------------------------------------------------------------*/
FoamFile
{
    version     2.0;
    format      ascii;
    class       volScalarField;
    location    "11.2";
    object      heatTransferCoeff(T);
}
// * * * * * * * * * * * * * * * * * * * * * * * * * * * * * * * * * * * * * //

dimensions      [1 0 -3 -1 0 0 0];


internalField   uniform 0;

boundaryField
{
    leftWall
    {
        type            calculated;
        value           nonuniform List<scalar> 
216
(
-214.238
-218.986
-227.44
-233.96
-244.703
-253.208
-266.128
-276.359
-291.26
-303.865
-322.889
-342.542
-372.856
-408.108
-461.998
-546.709
-817.065
-2795.67
-214.218
-219.699
-229.122
-236.713
-248.647
-258.277
-272.321
-283.422
-299.006
-311.847
-331.012
-350.841
-381.52
-416.515
-468.828
-550.317
-816.86
-2792.15
-217.237
-222.267
-230.903
-237.358
-247.815
-255.815
-268.252
-278.126
-292.863
-305.204
-323.692
-342.549
-372.6
-409.107
-466.638
-553.728
-816.606
-2785.28
-221.704
-225.577
-232.814
-237.518
-246.142
-252.224
-262.913
-271.405
-285.464
-298.07
-317.599
-337.398
-367.465
-403.358
-461.471
-549.982
-811.799
-2779.27
-227.152
-231.467
-239.191
-244.422
-253.597
-260.189
-271.426
-280.461
-295.177
-308.219
-327.615
-346.327
-375.25
-411.097
-468.499
-552.098
-809.901
-2782.35
-229.559
-234.665
-243.156
-249.184
-259.069
-266.355
-278.373
-288.344
-304.226
-318.298
-338.14
-355.679
-381.211
-411.587
-465.012
-550.974
-816.075
-2784.72
-223.836
-228.553
-236.809
-242.514
-252.382
-259.655
-271.96
-282.031
-298.144
-312.339
-332.983
-351.842
-379.496
-411.903
-467.195
-553.965
-820.807
-2784.38
-219.849
-225.089
-233.959
-240.017
-250.114
-257.09
-268.744
-277.672
-292.705
-306.299
-327.558
-348.492
-379.329
-414.798
-470.796
-554.126
-815.983
-2784.34
-218.608
-224.063
-233.122
-239.266
-249.314
-256.064
-267.306
-275.653
-289.888
-302.535
-322.725
-342.822
-372.644
-406.25
-459.882
-544.37
-812.412
-2785.22
-218.886
-223.025
-230.844
-235.943
-245.512
-252.541
-264.804
-274.58
-289.932
-302.869
-322.302
-341.182
-369.495
-401.446
-454.575
-543.015
-817.676
-2788.59
-223.698
-228.104
-236.312
-241.964
-252.039
-259.511
-271.808
-281.267
-295.68
-307.335
-324.923
-341.884
-368.638
-401.011
-455.769
-543.51
-811.124
-2784.95
-224.057
-228.343
-236.138
-241.369
-250.624
-257.33
-268.702
-277.821
-292.439
-305.564
-325.441
-345.335
-374.55
-408.535
-462.997
-548.447
-812.851
-2784.42
)
;
    }
    rightWall
    {
        type            calculated;
        value           nonuniform List<scalar> 
216
(
-207.023
-210.91
-216.291
-220.847
-227.403
-233
-241.177
-248.485
-259.158
-269.328
-283.902
-299.272
-321.612
-348.68
-393.157
-463.747
-701.704
-2825.24
-205.2
-209.313
-215.064
-219.947
-227.01
-233.101
-241.99
-249.965
-261.432
-272.06
-286.927
-301.835
-323.477
-349.782
-394.472
-467.121
-709.274
-2827.19
-205.146
-209.179
-214.813
-219.571
-226.474
-232.349
-241.006
-248.637
-259.711
-269.82
-284.281
-298.807
-320.699
-347.749
-394.006
-467.383
-709.222
-2810.79
-207.794
-211.474
-216.49
-220.733
-226.899
-232.086
-239.894
-246.673
-256.864
-266.191
-280.115
-294.501
-316.777
-344.276
-390.18
-461.468
-702.099
-2818.57
-209.535
-212.986
-217.63
-221.674
-227.505
-232.51
-239.992
-246.594
-256.614
-266.034
-280.207
-294.809
-316.878
-343.459
-388.57
-459.951
-697.867
-2816.75
-208.426
-211.934
-216.76
-220.984
-227.07
-232.345
-240.147
-247.153
-257.649
-267.687
-282.538
-297.8
-320.501
-347.351
-392.866
-464.323
-699.694
-2808.72
-205.645
-209.58
-215.04
-219.842
-226.66
-232.648
-241.268
-249.075
-260.398
-271.212
-286.669
-302.403
-325.269
-351.348
-394.523
-463.164
-705.073
-2821.7
-205.246
-209.254
-214.738
-219.661
-226.544
-232.725
-241.444
-249.459
-260.774
-271.578
-286.724
-302.336
-324.968
-351.025
-393.769
-461.919
-703.356
-2819.86
-206.736
-210.798
-216.104
-220.984
-227.543
-233.572
-241.853
-249.616
-260.419
-270.965
-285.692
-300.983
-322.911
-348.47
-391.769
-462.074
-703.687
-2820.84
-207.724
-212.039
-217.484
-222.438
-228.868
-234.717
-242.588
-249.968
-260.282
-270.625
-285.418
-301.428
-324.327
-350.746
-393.435
-461.096
-699.578
-2824.54
-208.6
-212.85
-218.306
-223.151
-229.609
-235.326
-243.171
-250.364
-260.505
-270.61
-285.269
-301.425
-324.73
-351.841
-395.063
-463.834
-703.371
-2830.72
-208.367
-212.345
-217.545
-222.187
-228.577
-234.219
-242.151
-249.307
-259.441
-269.072
-282.801
-297.302
-318.829
-345.627
-391.834
-466.239
-706.364
-2829.15
)
;
    }
    leftSides_periodic0
    {
        type            cyclic;
    }
    leftSides_periodic1
    {
        type            cyclic;
    }
    rightSides_periodic0
    {
        type            cyclic;
    }
    rightSides_periodic1
    {
        type            cyclic;
    }
    leftInOut_periodic0
    {
        type            calculated;
        value           nonuniform 0();
    }
    leftInOut_periodic1
    {
        type            calculated;
        value           uniform 0;
    }
    rightInOut_periodic0
    {
        type            calculated;
        value           nonuniform 0();
    }
    rightInOut_periodic1
    {
        type            calculated;
        value           uniform 0;
    }
    procBoundary5to2
    {
        type            processor;
        value           uniform 0;
    }
    procBoundary5to3throughleftSides_periodic0
    {
        type            processorCyclic;
        value           uniform 0;
    }
    procBoundary5to3throughrightSides_periodic0
    {
        type            processorCyclic;
        value           uniform 0;
    }
    procBoundary5to4
    {
        type            processor;
        value           uniform 0;
    }
}


// ************************************************************************* //
