/*--------------------------------*- C++ -*----------------------------------*\
| =========                 |                                                 |
| \\      /  F ield         | OpenFOAM: The Open Source CFD Toolbox           |
|  \\    /   O peration     | Version:  v1912                                 |
|   \\  /    A nd           | Website:  www.openfoam.com                      |
|    \\/     M anipulation  |                                                 |
\*---------------------------------------------------------------------------*/
FoamFile
{
    version     2.0;
    format      ascii;
    class       volVectorField;
    location    "11.2";
    object      UMean;
}
// * * * * * * * * * * * * * * * * * * * * * * * * * * * * * * * * * * * * * //

dimensions      [0 1 -1 0 0 0 0];


internalField   nonuniform List<vector> 
34128
(
(1.70537e-06 -2.3164e-07 -0.00482642)
(6.51192e-07 -2.26263e-07 -0.00480403)
(-2.5172e-08 -2.28527e-07 -0.00480613)
(-6.18432e-07 -2.29583e-07 -0.00481655)
(-7.40425e-07 -2.3124e-07 -0.00483267)
(3.20424e-08 -2.36128e-07 -0.00484061)
(1.05754e-06 -2.34669e-07 -0.00483814)
(1.61596e-06 -2.28239e-07 -0.00481374)
(1.72767e-07 -2.2096e-07 -0.00478795)
(-1.93279e-06 -2.25786e-07 -0.0048037)
(-1.84371e-06 -2.35485e-07 -0.00484121)
(-1.88721e-07 -2.36804e-07 -0.00484409)
(4.90156e-06 4.64854e-06 -0.0145031)
(1.88909e-06 4.72214e-06 -0.0144382)
(-2.28649e-08 4.70374e-06 -0.0144442)
(-1.77023e-06 4.67987e-06 -0.0144745)
(-2.09294e-06 4.6469e-06 -0.0145215)
(1.43965e-07 4.60498e-06 -0.0145446)
(3.06643e-06 4.6176e-06 -0.0145372)
(4.64386e-06 4.70331e-06 -0.0144663)
(4.57566e-07 4.78689e-06 -0.0143916)
(-5.57727e-06 4.72773e-06 -0.0144373)
(-5.31234e-06 4.60695e-06 -0.0145462)
(-5.24103e-07 4.58256e-06 -0.0145545)
(7.89551e-06 1.08189e-05 -0.0242975)
(3.05894e-06 1.1028e-05 -0.0241923)
(2.21022e-08 1.09787e-05 -0.0242019)
(-2.85981e-06 1.09047e-05 -0.024251)
(-3.34214e-06 1.08016e-05 -0.0243277)
(3.05169e-07 1.06884e-05 -0.0243654)
(5.00137e-06 1.07274e-05 -0.024353)
(7.51617e-06 1.09738e-05 -0.0242378)
(7.03528e-07 1.1208e-05 -0.0241169)
(-9.02023e-06 1.10414e-05 -0.024191)
(-8.57714e-06 1.06962e-05 -0.0243677)
(-7.97646e-07 1.06255e-05 -0.0243812)
(1.06947e-05 2.2699e-05 -0.0341698)
(4.16417e-06 2.3114e-05 -0.0340269)
(1.0892e-07 2.30211e-05 -0.0340398)
(-3.89257e-06 2.28722e-05 -0.0341065)
(-4.49692e-06 2.26627e-05 -0.0342114)
(5.09114e-07 2.24465e-05 -0.0342629)
(6.86107e-06 2.25229e-05 -0.0342455)
(1.0234e-05 2.30132e-05 -0.0340886)
(9.07276e-07 2.34721e-05 -0.0339248)
(-1.22691e-05 2.31411e-05 -0.0340254)
(-1.1644e-05 2.24585e-05 -0.0342658)
(-1.01588e-06 2.23188e-05 -0.0342839)
(1.33022e-05 3.68154e-05 -0.0440736)
(5.2041e-06 3.75038e-05 -0.0438962)
(2.32163e-07 3.73555e-05 -0.0439117)
(-4.87695e-06 3.71062e-05 -0.0439948)
(-5.56713e-06 3.67504e-05 -0.0441264)
(7.48105e-07 3.63996e-05 -0.0441906)
(8.64281e-06 3.65276e-05 -0.0441681)
(1.27972e-05 3.7345e-05 -0.0439727)
(1.06573e-06 3.81001e-05 -0.0437695)
(-1.53301e-05 3.75494e-05 -0.0438946)
(-1.45174e-05 3.64172e-05 -0.0441938)
(-1.18298e-06 3.61874e-05 -0.0442162)
(1.57182e-05 5.4624e-05 -0.0539605)
(6.17558e-06 5.56518e-05 -0.0537519)
(3.83493e-07 5.54382e-05 -0.0537694)
(-5.82315e-06 5.50634e-05 -0.0538673)
(-6.56312e-06 5.45209e-05 -0.0540239)
(1.01347e-06 5.4006e-05 -0.0540998)
(1.03424e-05 5.42002e-05 -0.0540722)
(1.52044e-05 5.54253e-05 -0.0538416)
(1.17606e-06 5.65461e-05 -0.0536029)
(-1.82084e-05 5.57211e-05 -0.0537503)
(-1.72006e-05 5.40292e-05 -0.054103)
(-1.30149e-06 5.369e-05 -0.0541291)
(1.79436e-05 7.55248e-05 -0.0637829)
(7.07503e-06 7.69566e-05 -0.0635466)
(5.53245e-07 7.66691e-05 -0.0635655)
(-6.74157e-06 7.61432e-05 -0.0636767)
(-7.49505e-06 7.53714e-05 -0.0638565)
(1.29545e-06 7.46639e-05 -0.0639427)
(1.1954e-05 7.49404e-05 -0.0639099)
(1.74521e-05 7.66532e-05 -0.0636478)
(1.23421e-06 7.82082e-05 -0.0633779)
(-2.09101e-05 7.7054e-05 -0.0635452)
(-1.96979e-05 7.46928e-05 -0.0639458)
(-1.37505e-06 7.42269e-05 -0.0639751)
(1.99804e-05 9.9351e-05 -0.0734973)
(7.89885e-06 0.00010125 -0.0732366)
(7.31339e-07 0.000100881 -0.0732562)
(-7.64172e-06 0.000100179 -0.0733793)
(-8.37231e-06 9.9134e-05 -0.0735806)
(1.58362e-06 9.82063e-05 -0.0736756)
(1.34706e-05 9.85822e-05 -0.0736379)
(1.9535e-05 0.000100862 -0.0733479)
(1.23509e-06 0.000102918 -0.0730507)
(-2.34419e-05 0.00010138 -0.0732357)
(-2.20148e-05 9.82406e-05 -0.0736786)
(-1.4082e-06 9.76327e-05 -0.0737107)
(2.1832e-05 0.000125882 -0.0830669)
(8.64377e-06 0.000128307 -0.082785)
(9.08119e-07 0.000127854 -0.0828046)
(-8.53114e-06 0.000126952 -0.0829384)
(-9.20304e-06 0.000125587 -0.0831593)
(1.86726e-06 0.000124412 -0.0832617)
(1.48846e-05 0.000124906 -0.0832191)
(2.14471e-05 0.00012783 -0.0829049)
(1.17279e-06 0.00013045 -0.0825843)
(-2.58111e-05 0.000128476 -0.0827848)
(-2.41574e-05 0.000124451 -0.0832647)
(-1.40615e-06 0.000123688 -0.083299)
(2.35035e-05 0.00015492 -0.0924634)
(9.30719e-06 0.000157929 -0.0921632)
(1.07504e-06 0.000157388 -0.0921824)
(-9.41477e-06 0.000156263 -0.0923257)
(-9.99376e-06 0.000154531 -0.0925646)
(2.13573e-06 0.000153085 -0.092673)
(1.6189e-05 0.000153716 -0.0926257)
(2.31815e-05 0.000157359 -0.0922903)
(1.04068e-06 0.000160605 -0.0919496)
(-2.80251e-05 0.000158141 -0.092164)
(-2.61319e-05 0.000153126 -0.0926759)
(-1.37424e-06 0.000152198 -0.0927121)
(2.50008e-05 0.000186272 -0.101668)
(9.88731e-06 0.000189917 -0.101352)
(1.22505e-06 0.000189289 -0.101371)
(-1.02947e-05 0.000187919 -0.101522)
(-1.07493e-05 0.000185772 -0.101778)
(2.37866e-06 0.000184032 -0.101891)
(1.73765e-05 0.00018482 -0.101839)
(2.47308e-05 0.000189254 -0.101485)
(8.31391e-07 0.000193182 -0.101127)
(-3.00908e-05 0.000190178 -0.101354)
(-2.79438e-05 0.000184073 -0.101894)
(-1.31759e-06 0.000182972 -0.101932)
(2.63308e-05 0.000219766 -0.110671)
(1.03831e-05 0.000224096 -0.110341)
(1.35273e-06 0.000223383 -0.110359)
(-1.11702e-05 0.000221749 -0.110518)
(-1.14729e-05 0.00021914 -0.110788)
(2.58586e-06 0.000217084 -0.110906)
(1.84403e-05 0.000218051 -0.11085)
(2.60864e-05 0.000223344 -0.110479)
(5.36778e-07 0.000228006 -0.110106)
(-3.20139e-05 0.000224411 -0.110344)
(-2.95975e-05 0.000217121 -0.110909)
(-1.24082e-06 0.000215842 -0.110948)
(2.75e-05 0.000255259 -0.11947)
(1.07944e-05 0.000260318 -0.119127)
(1.45411e-06 0.000259526 -0.119144)
(-1.20386e-05 0.00025761 -0.119311)
(-1.21667e-05 0.00025449 -0.119595)
(2.74731e-06 0.0002521 -0.119716)
(1.93725e-05 0.000253267 -0.119656)
(2.72382e-05 0.000259485 -0.11927)
(1.47719e-07 0.000264926 -0.118884)
(-3.37989e-05 0.000260691 -0.119132)
(-3.10954e-05 0.000252127 -0.119719)
(-1.14781e-06 0.000250667 -0.119759)
(2.85134e-05 0.00029263 -0.128066)
(1.11211e-05 0.000298459 -0.127711)
(1.52633e-06 0.000297593 -0.127728)
(-1.28955e-05 0.000295378 -0.127901)
(-1.2832e-05 0.000291701 -0.128198)
(2.85268e-06 0.000288962 -0.128322)
(2.01639e-05 0.000290352 -0.128258)
(2.81727e-05 0.000297555 -0.127859)
(-3.46067e-07 0.000303814 -0.12746)
(-3.54472e-05 0.000298891 -0.127718)
(-3.24368e-05 0.000288971 -0.128326)
(-1.04178e-06 0.00028733 -0.128366)
(2.93737e-05 0.000331768 -0.13646)
(1.13631e-05 0.000338402 -0.136095)
(1.56719e-06 0.00033747 -0.136111)
(-1.37354e-05 0.000334941 -0.13629)
(-1.34694e-05 0.000330663 -0.136599)
(2.89101e-06 0.000327561 -0.136725)
(2.08024e-05 0.000329196 -0.136658)
(2.88727e-05 0.000337444 -0.136247)
(-9.55954e-07 0.000344553 -0.135837)
(-3.69577e-05 0.000338894 -0.136104)
(-3.3618e-05 0.000327544 -0.13673)
(-9.25509e-07 0.000325724 -0.136771)
(3.00814e-05 0.000372574 -0.144653)
(1.15201e-05 0.000380046 -0.144279)
(1.57489e-06 0.000379057 -0.144294)
(-1.45517e-05 0.0003762 -0.144478)
(-1.40793e-05 0.000371276 -0.144798)
(2.85066e-06 0.0003678 -0.144927)
(2.12735e-05 0.000369703 -0.144856)
(2.9317e-05 0.00037905 -0.144433)
(-1.69425e-06 0.000387037 -0.144013)
(-3.83255e-05 0.000380594 -0.144289)
(-3.46318e-05 0.000367745 -0.144933)
(-8.01535e-07 0.000365751 -0.144973)
(3.06347e-05 0.000414943 -0.152643)
(1.15912e-05 0.000423282 -0.15226)
(1.54769e-06 0.000422245 -0.152276)
(-1.53369e-05 0.000419047 -0.152464)
(-1.46617e-05 0.000413438 -0.152794)
(2.7192e-06 0.000409577 -0.152925)
(2.15598e-05 0.000411772 -0.152851)
(2.94801e-05 0.000422271 -0.152418)
(-2.57395e-06 0.000431155 -0.151989)
(-3.95431e-05 0.00042388 -0.152272)
(-3.54675e-05 0.000409471 -0.152931)
(-6.72424e-07 0.00040731 -0.152972)
(3.10292e-05 0.000458753 -0.160424)
(1.15752e-05 0.000467987 -0.160035)
(1.48361e-06 0.000466911 -0.16005)
(-1.60832e-05 0.00046336 -0.160242)
(-1.52165e-05 0.000457024 -0.16058)
(2.4836e-06 0.000452771 -0.160713)
(2.16413e-05 0.00045528 -0.160637)
(2.93325e-05 0.000466983 -0.160194)
(-3.60826e-06 0.000476779 -0.159758)
(-4.05991e-05 0.000468623 -0.160049)
(-3.61118e-05 0.000452598 -0.160721)
(-5.40947e-07 0.000450281 -0.160761)
(3.12589e-05 0.00050385 -0.167988)
(1.14704e-05 0.000514004 -0.167593)
(1.3803e-06 0.000512899 -0.167608)
(-1.67819e-05 0.000508982 -0.167803)
(-1.57436e-05 0.000501884 -0.168149)
(2.13048e-06 0.000497228 -0.168283)
(2.14956e-05 0.000500076 -0.168204)
(2.88415e-05 0.000513034 -0.167754)
(-4.81e-06 0.000523749 -0.167313)
(-4.14791e-05 0.000514662 -0.167609)
(-3.65483e-05 0.000496971 -0.168292)
(-4.10151e-07 0.000494511 -0.168331)
(3.13163e-05 0.000550039 -0.175322)
(1.1275e-05 0.000561137 -0.174923)
(1.23487e-06 0.00056001 -0.174937)
(-1.74246e-05 0.000555718 -0.175134)
(-1.62434e-05 0.000547823 -0.175486)
(1.64664e-06 0.000542755 -0.17562)
(2.1099e-05 0.000545967 -0.175539)
(2.7972e-05 0.000560226 -0.175085)
(-6.19072e-06 0.000571864 -0.174641)
(-4.21656e-05 0.000561796 -0.174941)
(-3.67584e-05 0.000542395 -0.175632)
(-2.83245e-07 0.000539807 -0.175669)
(3.11931e-05 0.000597079 -0.182409)
(1.09875e-05 0.000609144 -0.182009)
(1.04388e-06 0.000608002 -0.182022)
(-1.8003e-05 0.000603326 -0.182219)
(-1.67165e-05 0.000594601 -0.182576)
(1.01959e-06 0.000589111 -0.182709)
(2.04271e-05 0.000592712 -0.182627)
(2.66883e-05 0.00060832 -0.182171)
(-7.75983e-06 0.000620875 -0.181726)
(-4.26385e-05 0.000609775 -0.182028)
(-3.67214e-05 0.000588625 -0.182723)
(-1.63275e-07 0.000585931 -0.182759)
(3.08813e-05 0.000644678 -0.189231)
(1.06071e-05 0.00065773 -0.188831)
(8.03367e-07 0.000656582 -0.188843)
(-1.85099e-05 0.000651514 -0.18904)
(-1.71648e-05 0.000641929 -0.1894)
(2.3814e-07 0.000636008 -0.189531)
(1.94557e-05 0.000640022 -0.189448)
(2.49558e-05 0.000657021 -0.188992)
(-9.52358e-06 0.00067048 -0.18855)
(-4.28751e-05 0.000658298 -0.188853)
(-3.64154e-05 0.000635371 -0.189547)
(-5.25924e-08 0.000632593 -0.189582)
(3.0374e-05 0.0006925 -0.195767)
(1.01342e-05 0.000706557 -0.195371)
(5.08973e-07 0.000705408 -0.195382)
(-1.89397e-05 0.000699942 -0.195577)
(-1.75915e-05 0.000689471 -0.195938)
(-7.07101e-07 0.000683108 -0.196065)
(1.81623e-05 0.000687561 -0.195981)
(2.27433e-05 0.000705991 -0.19553)
(-1.1484e-05 0.000720329 -0.195094)
(-4.28511e-05 0.000707017 -0.195396)
(-3.58174e-05 0.000682292 -0.196084)
(4.78787e-08 0.000679459 -0.196117)
(2.96658e-05 0.000740163 -0.201999)
(9.57066e-06 0.000755241 -0.201608)
(1.56043e-07 0.000754097 -0.201618)
(-1.92889e-05 0.000748229 -0.20181)
(-1.80022e-05 0.000736849 -0.202169)
(-1.82331e-06 0.000730035 -0.202292)
(1.65273e-05 0.000734952 -0.202208)
(2.00252e-05 0.000754844 -0.201764)
(-1.3638e-05 0.000770026 -0.201338)
(-4.25411e-05 0.000755538 -0.201636)
(-3.49038e-05 0.00072901 -0.202313)
(1.39512e-07 0.000726153 -0.202344)
(2.8754e-05 0.000787251 -0.207905)
(8.92064e-06 0.000803362 -0.207523)
(-2.60197e-07 0.000802229 -0.207531)
(-1.9557e-05 0.000795958 -0.20772)
(-1.84046e-05 0.00078365 -0.208074)
(-3.11513e-06 0.000776376 -0.208191)
(1.45346e-05 0.000781783 -0.208107)
(1.67839e-05 0.00080316 -0.207675)
(-1.59764e-05 0.000819136 -0.207262)
(-4.19192e-05 0.00080343 -0.207553)
(-3.36511e-05 0.000775108 -0.208214)
(2.26946e-07 0.000772262 -0.208244)
(2.76387e-05 0.000833321 -0.213468)
(8.19048e-06 0.000850475 -0.213096)
(-7.44403e-07 0.000849357 -0.213103)
(-1.97463e-05 0.000842686 -0.213287)
(-1.88096e-05 0.000829435 -0.213634)
(-4.58451e-06 0.000821695 -0.213743)
(1.21735e-05 0.000827616 -0.213661)
(1.3012e-05 0.000850489 -0.213244)
(-1.84829e-05 0.000867192 -0.212848)
(-4.09601e-05 0.000850233 -0.21313)
(-3.2036e-05 0.000820149 -0.213769)
(3.19068e-07 0.000817353 -0.213798)
(2.63243e-05 0.000877916 -0.218671)
(7.38928e-06 0.000896117 -0.218313)
(-1.30079e-06 0.000895019 -0.218319)
(-1.98624e-05 0.000887952 -0.218496)
(-1.92308e-05 0.000873751 -0.218833)
(-6.23058e-06 0.00086554 -0.218934)
(9.43959e-06 0.000871999 -0.218853)
(8.71426e-06 0.000896366 -0.218455)
(-2.11336e-05 0.000913709 -0.218079)
(-3.96398e-05 0.000895471 -0.21835)
(-3.00367e-05 0.000863678 -0.218962)
(4.29956e-07 0.000860975 -0.21899)
(2.48189e-05 0.000920573 -0.223502)
(6.52905e-06 0.000939821 -0.22316)
(-1.93271e-06 0.000938748 -0.223164)
(-1.99143e-05 0.000931294 -0.223335)
(-1.96847e-05 0.000916141 -0.223659)
(-8.04959e-06 0.000907457 -0.223751)
(6.33576e-06 0.000914478 -0.223672)
(3.91002e-06 0.000940318 -0.223296)
(-2.38962e-05 0.000958194 -0.222943)
(-3.79368e-05 0.00093866 -0.2232)
(-2.76327e-05 0.000905239 -0.22378)
(5.7967e-07 0.000902675 -0.223807)
(2.31357e-05 0.000960837 -0.227952)
(5.62484e-06 0.000981129 -0.227627)
(-2.64207e-06 0.000980085 -0.227631)
(-1.99135e-05 0.000972256 -0.227794)
(-2.019e-05 0.000956158 -0.228103)
(-1.00348e-05 0.000947001 -0.228184)
(2.87359e-06 0.000954605 -0.228107)
(-1.36553e-06 0.000981879 -0.227756)
(-2.673e-05 0.00100016 -0.227428)
(-3.58333e-05 0.000979322 -0.22767)
(-2.48063e-05 0.000944388 -0.228214)
(7.948e-07 0.000942011 -0.228241)
(2.12927e-05 0.000998276 -0.232015)
(4.69471e-06 0.0010196 -0.23171)
(-3.42878e-06 0.00101859 -0.231713)
(-1.98737e-05 0.0010104 -0.231867)
(-2.07671e-05 0.000993375 -0.232159)
(-1.21763e-05 0.000983749 -0.232229)
(-9.25678e-07 0.000991957 -0.232155)
(-7.05993e-06 0.0010206 -0.231831)
(-2.95852e-05 0.00103913 -0.231531)
(-3.33161e-05 0.001017 -0.231755)
(-2.15433e-05 0.0009807 -0.23226)
(1.10864e-06 0.000978562 -0.232286)
(1.93135e-05 0.00103249 -0.23569)
(3.75938e-06 0.00105483 -0.235406)
(-4.29003e-06 0.00105387 -0.235409)
(-1.98099e-05 0.00104534 -0.235555)
(-2.14366e-05 0.0010274 -0.235828)
(-1.44611e-05 0.00101731 -0.235886)
(-5.03016e-06 0.00102615 -0.235814)
(-1.31026e-05 0.00105608 -0.235519)
(-3.24035e-05 0.00107467 -0.235247)
(-3.03785e-05 0.00105127 -0.235453)
(-1.78341e-05 0.00101379 -0.235916)
(1.56084e-06 0.00101194 -0.235943)
(1.72263e-05 0.00106313 -0.238981)
(2.84179e-06 0.00108647 -0.23872)
(-5.21967e-06 0.00108555 -0.238722)
(-1.97371e-05 0.00107671 -0.238859)
(-2.22181e-05 0.0010579 -0.239111)
(-1.68722e-05 0.00104736 -0.239157)
(-9.39645e-06 0.00105683 -0.239088)
(-1.94048e-05 0.00108793 -0.238824)
(-3.5119e-05 0.00110638 -0.238582)
(-2.7021e-05 0.00108176 -0.238767)
(-1.36752e-05 0.00104331 -0.239186)
(2.19654e-06 0.00104182 -0.239214)
(1.50647e-05 0.00108989 -0.241897)
(1.96625e-06 0.00111421 -0.241658)
(-6.20756e-06 0.00111336 -0.241661)
(-1.96687e-05 0.00110422 -0.241789)
(-2.31279e-05 0.00108457 -0.242019)
(-1.93888e-05 0.0010736 -0.242052)
(-1.39691e-05 0.00108372 -0.241986)
(-2.58601e-05 0.00111586 -0.241753)
(-3.76585e-05 0.00113394 -0.24154)
(-2.32533e-05 0.00110814 -0.241704)
(-9.0706e-06 0.001069 -0.24208)
(3.06468e-06 0.00106792 -0.242108)
(1.28665e-05 0.00111257 -0.24445)
(1.15737e-06 0.00113783 -0.244234)
(-7.239e-06 0.00113705 -0.244238)
(-1.96152e-05 0.00112765 -0.244357)
(-2.41773e-05 0.00110722 -0.244564)
(-2.19856e-05 0.00109582 -0.244585)
(-1.86803e-05 0.0011066 -0.244522)
(-3.23459e-05 0.00113961 -0.24432)
(-3.99443e-05 0.00115707 -0.244136)
(-1.90948e-05 0.00113017 -0.244279)
(-4.03384e-06 0.00109063 -0.24461)
(4.21558e-06 0.00109003 -0.24464)
(1.06727e-05 0.00113099 -0.246656)
(4.38703e-07 0.00115717 -0.246464)
(-8.29441e-06 0.00115648 -0.246469)
(-1.95825e-05 0.00114686 -0.246579)
(-2.53699e-05 0.00112568 -0.246763)
(-2.46316e-05 0.00111388 -0.246772)
(-2.34501e-05 0.00112533 -0.246712)
(-3.87259e-05 0.00115901 -0.246541)
(-4.18956e-05 0.00117559 -0.246383)
(-1.45762e-05 0.00114769 -0.246505)
(1.4103e-06 0.00110807 -0.246794)
(5.69756e-06 0.00110802 -0.246825)
(8.52681e-06 0.0011451 -0.248538)
(-1.68839e-07 0.00117215 -0.248369)
(-9.34906e-06 0.00117157 -0.248375)
(-1.95703e-05 0.00116176 -0.248477)
(-2.66992e-05 0.00113991 -0.248638)
(-2.72899e-05 0.00112772 -0.248634)
(-2.8187e-05 0.00113983 -0.248577)
(-4.48533e-05 0.00117398 -0.248435)
(-4.34318e-05 0.0011894 -0.248304)
(-9.74069e-06 0.00116058 -0.248405)
(7.22345e-06 0.00112126 -0.248654)
(7.55275e-06 0.00112182 -0.248686)
(6.47201e-06 0.00115488 -0.250118)
(-6.48868e-07 0.00118278 -0.249971)
(-1.03732e-05 0.00118233 -0.24998)
(-1.95698e-05 0.00117236 -0.250073)
(-2.81462e-05 0.00114991 -0.250212)
(-2.99164e-05 0.00113735 -0.250196)
(-3.27898e-05 0.00115011 -0.250142)
(-5.05754e-05 0.0011845 -0.250028)
(-4.44769e-05 0.00119846 -0.249919)
(-4.64482e-06 0.00116886 -0.250001)
(1.33513e-05 0.00113021 -0.250212)
(9.81231e-06 0.00113146 -0.250246)
(4.55031e-06 0.00116046 -0.251422)
(-9.91569e-07 0.00118916 -0.251297)
(-1.1334e-05 0.00118886 -0.251308)
(-1.95675e-05 0.00117879 -0.251394)
(-2.96778e-05 0.00115579 -0.251511)
(-3.2461e-05 0.00114286 -0.251484)
(-3.71492e-05 0.00115627 -0.251433)
(-5.57397e-05 0.00119065 -0.251344)
(-4.49629e-05 0.00120287 -0.251256)
(6.44551e-07 0.00117262 -0.251319)
(1.97219e-05 0.00113503 -0.251496)
(1.24917e-05 0.00113705 -0.251532)
(2.80322e-06 0.00116201 -0.252479)
(-1.18961e-06 0.00119147 -0.252374)
(-1.2203e-05 0.00119136 -0.252389)
(-1.95471e-05 0.00118122 -0.252468)
(-3.12498e-05 0.00115775 -0.252563)
(-3.48711e-05 0.00114447 -0.252527)
(-4.11489e-05 0.0011585 -0.252478)
(-6.02028e-05 0.00119261 -0.252412)
(-4.48335e-05 0.00120282 -0.252341)
(6.05303e-06 0.00117206 -0.252388)
(2.62477e-05 0.00113593 -0.252535)
(1.55824e-05 0.00113881 -0.252571)
(1.25852e-06 0.00115983 -0.253319)
(-1.2421e-06 0.00119 -0.253233)
(-1.29562e-05 0.0011901 -0.253251)
(-1.94883e-05 0.00117994 -0.253324)
(-3.28071e-05 0.00115608 -0.2534)
(-3.70885e-05 0.00114244 -0.253355)
(-4.46796e-05 0.00115707 -0.253308)
(-6.38396e-05 0.00119065 -0.253262)
(-4.40515e-05 0.0011986 -0.253205)
(1.15034e-05 0.00116745 -0.253237)
(3.28356e-05 0.00113317 -0.253359)
(1.90565e-05 0.00113701 -0.253396)
(-7.46416e-08 0.00115421 -0.253974)
(-1.16173e-06 0.00118505 -0.253904)
(-1.35666e-05 0.00118539 -0.253926)
(-1.93692e-05 0.00117526 -0.253993)
(-3.42896e-05 0.00115107 -0.254051)
(-3.90434e-05 0.00113706 -0.253998)
(-4.76428e-05 0.00115226 -0.253953)
(-6.65487e-05 0.00118506 -0.253924)
(-4.25999e-05 0.00119051 -0.253879)
(1.692e-05 0.00115913 -0.253899)
(3.93874e-05 0.00112707 -0.253998)
(2.28714e-05 0.00113196 -0.254036)
(-1.20028e-06 0.00114547 -0.25447)
(-9.67156e-07 0.00117695 -0.254416)
(-1.40138e-05 0.00117755 -0.254441)
(-1.91754e-05 0.0011675 -0.254503)
(-3.564e-05 0.00114305 -0.254546)
(-4.06668e-05 0.00112864 -0.254486)
(-4.99496e-05 0.00114437 -0.254442)
(-6.8258e-05 0.00117616 -0.254428)
(-4.04864e-05 0.0011789 -0.254392)
(2.22265e-05 0.00114742 -0.2544)
(4.57998e-05 0.00111792 -0.254482)
(2.69647e-05 0.00112397 -0.254521)
(-2.13537e-06 0.00113396 -0.254836)
(-6.83783e-07 0.00116603 -0.254796)
(-1.42928e-05 0.00116693 -0.254824)
(-1.8904e-05 0.001157 -0.254882)
(-3.6802e-05 0.00113234 -0.25491)
(-4.18999e-05 0.00111751 -0.254844)
(-5.15318e-05 0.00113372 -0.254802)
(-6.89264e-05 0.00116428 -0.2548)
(-3.77422e-05 0.00116416 -0.25477)
(2.73523e-05 0.00113271 -0.254769)
(5.19746e-05 0.00110607 -0.254837)
(3.1257e-05 0.00111337 -0.254876)
(-2.9086e-06 0.00112004 -0.255096)
(-3.41962e-07 0.00115266 -0.255067)
(-1.44098e-05 0.00115387 -0.255099)
(-1.85571e-05 0.00114412 -0.255153)
(-3.77246e-05 0.0011193 -0.255169)
(-4.26911e-05 0.00110399 -0.255097)
(-5.23444e-05 0.00112064 -0.255057)
(-6.85486e-05 0.00114979 -0.255064)
(-3.44149e-05 0.00114669 -0.255039)
(3.22402e-05 0.00111537 -0.255031)
(5.78239e-05 0.00109186 -0.255087)
(3.56597e-05 0.00110051 -0.255127)
(-3.55793e-06 0.00110406 -0.255272)
(2.51609e-08 0.00113718 -0.255253)
(-1.43831e-05 0.00113873 -0.255288)
(-1.81435e-05 0.00112919 -0.255338)
(-3.83668e-05 0.00110425 -0.255343)
(-4.29987e-05 0.00108841 -0.255266)
(-5.23677e-05 0.00110546 -0.255228)
(-6.71525e-05 0.00113303 -0.255243)
(-3.05664e-05 0.00112686 -0.255221)
(3.68488e-05 0.00109579 -0.255206)
(6.32779e-05 0.00107562 -0.255254)
(4.00833e-05 0.00108572 -0.255295)
(-4.12613e-06 0.00108632 -0.255381)
(3.82935e-07 0.00111989 -0.255372)
(-1.42418e-05 0.00112181 -0.255409)
(-1.76781e-05 0.00111252 -0.255455)
(-3.87e-05 0.00108749 -0.255452)
(-4.2793e-05 0.00107106 -0.255371)
(-5.16035e-05 0.00108846 -0.255334)
(-6.47906e-05 0.00111433 -0.255355)
(-2.62655e-05 0.00110506 -0.255335)
(4.11536e-05 0.00107432 -0.255315)
(6.82879e-05 0.00105764 -0.255356)
(4.44448e-05 0.0010693 -0.255398)
(-4.65468e-06 0.00106711 -0.25544)
(6.97491e-07 0.00110108 -0.255438)
(-1.40215e-05 0.0011034 -0.255478)
(-1.71789e-05 0.00109438 -0.255521)
(-3.87072e-05 0.00106927 -0.25551)
(-4.20559e-05 0.0010522 -0.255424)
(-5.007e-05 0.0010699 -0.25539)
(-6.15297e-05 0.00109398 -0.255415)
(-2.15801e-05 0.0010816 -0.255396)
(4.51449e-05 0.00105127 -0.255372)
(7.28264e-05 0.00103819 -0.255409)
(4.86736e-05 0.0010515 -0.255451)
(-5.17853e-06 0.00104666 -0.255461)
(9.38322e-07 0.00108098 -0.255464)
(-1.3761e-05 0.00108372 -0.255507)
(-1.66623e-05 0.001075 -0.255546)
(-3.83805e-05 0.0010498 -0.255528)
(-4.07796e-05 0.00103202 -0.25544)
(-4.77963e-05 0.00105 -0.255408)
(-5.74421e-05 0.00107222 -0.255437)
(-1.65717e-05 0.00105678 -0.255417)
(4.88236e-05 0.0010269 -0.25539)
(7.68829e-05 0.00101749 -0.255423)
(5.27136e-05 0.00103254 -0.255466)
(-5.72337e-06 0.00102517 -0.255451)
(1.08112e-06 0.00105978 -0.255461)
(-1.35016e-05 0.00106295 -0.255504)
(-1.6141e-05 0.00105455 -0.255541)
(-3.77159e-05 0.00102925 -0.255517)
(-3.89642e-05 0.0010107 -0.255426)
(-4.48121e-05 0.00102891 -0.255397)
(-5.25963e-05 0.00104926 -0.255428)
(-1.12871e-05 0.00103083 -0.255409)
(5.2198e-05 0.00100144 -0.255378)
(8.04555e-05 0.000995723 -0.255408)
(5.65198e-05 0.00101258 -0.255453)
(-6.3037e-06 0.00100277 -0.25542)
(1.10358e-06 0.00103761 -0.255433)
(-1.32745e-05 0.00104123 -0.255479)
(-1.56252e-05 0.00103315 -0.255513)
(-3.67e-05 0.00100772 -0.255483)
(-3.66141e-05 0.00098834 -0.255389)
(-4.11336e-05 0.00100677 -0.255363)
(-4.70514e-05 0.00102525 -0.255397)
(-5.7567e-06 0.00100392 -0.255376)
(5.52865e-05 0.000975045 -0.255344)
(8.35503e-05 0.000973001 -0.255371)
(6.00557e-05 0.000991753 -0.255417)
(-6.9094e-06 0.000979554 -0.25537)
(1.00315e-06 0.00101455 -0.255388)
(-1.30819e-05 0.00101864 -0.255434)
(-1.50998e-05 0.00101088 -0.255465)
(-3.53329e-05 0.000985273 -0.255431)
(-3.37431e-05 0.000965002 -0.255335)
(-3.67759e-05 0.000983632 -0.255312)
(-4.08455e-05 0.00100028 -0.255348)
(-1.64602e-08 0.000976219 -0.255326)
(5.80975e-05 0.00094786 -0.255291)
(8.61707e-05 0.000949411 -0.255316)
(6.33069e-05 0.000970125 -0.255363)
(-7.50534e-06 0.000955579 -0.255306)
(7.89256e-07 0.000990664 -0.255327)
(-1.29088e-05 0.000995245 -0.255375)
(-1.45415e-05 0.000987764 -0.255403)
(-3.3615e-05 0.00096191 -0.255364)
(-3.03519e-05 0.000940695 -0.255265)
(-3.17553e-05 0.000959538 -0.255246)
(-3.39901e-05 0.000974418 -0.255284)
(5.89275e-06 0.000947775 -0.255262)
(6.06118e-05 0.000919922 -0.255224)
(8.82912e-05 0.000924986 -0.255247)
(6.6265e-05 0.000947719 -0.255296)
(-8.04306e-06 0.000930861 -0.25523)
(4.71422e-07 0.000965946 -0.255254)
(-1.27568e-05 0.000971039 -0.255303)
(-1.39527e-05 0.000963783 -0.255328)
(-3.15382e-05 0.000937584 -0.255284)
(-2.64545e-05 0.000915381 -0.255184)
(-2.60708e-05 0.000934474 -0.255169)
(-2.64874e-05 0.000947684 -0.255209)
(1.19506e-05 0.000918608 -0.255185)
(6.27941e-05 0.000891253 -0.255144)
(8.98615e-05 0.000899698 -0.255165)
(6.88887e-05 0.000924525 -0.255217)
(-8.46596e-06 0.000905338 -0.255144)
(2.71651e-08 0.000940376 -0.255171)
(-1.26436e-05 0.000945967 -0.25522)
(-1.33344e-05 0.000938887 -0.255241)
(-2.90989e-05 0.000912263 -0.255194)
(-2.20792e-05 0.000889024 -0.255092)
(-1.97613e-05 0.000908404 -0.255083)
(-1.83583e-05 0.000920107 -0.255124)
(1.81412e-05 0.000888799 -0.255099)
(6.45975e-05 0.000861874 -0.255055)
(9.08277e-05 0.000873521 -0.255074)
(7.11075e-05 0.000900471 -0.255127)
(-8.75379e-06 0.000879022 -0.25505)
(-5.92984e-07 0.000913967 -0.255079)
(-1.25806e-05 0.000920027 -0.255129)
(-1.2666e-05 0.000913046 -0.255146)
(-2.62527e-05 0.000885929 -0.255094)
(-1.72536e-05 0.000861648 -0.254993)
(-1.2916e-05 0.000881324 -0.254989)
(-9.65133e-06 0.000891689 -0.255032)
(2.44234e-05 0.00085841 -0.255005)
(6.59703e-05 0.000831833 -0.254958)
(9.11157e-05 0.000846478 -0.254975)
(7.28269e-05 0.000875522 -0.25503)
(-8.90609e-06 0.000851981 -0.254949)
(-1.398e-06 0.000886755 -0.254981)
(-1.258e-05 0.000893267 -0.25503)
(-1.19307e-05 0.000886282 -0.255043)
(-2.29457e-05 0.000858608 -0.254988)
(-1.19998e-05 0.000833283 -0.254887)
(-5.63473e-06 0.000853284 -0.254889)
(-4.36775e-07 0.00086248 -0.254934)
(3.07547e-05 0.000827528 -0.254905)
(6.69021e-05 0.000801257 -0.254856)
(9.06709e-05 0.000818625 -0.254869)
(7.39643e-05 0.000849698 -0.254927)
(-8.91039e-06 0.000824275 -0.254844)
(-2.36797e-06 0.000858818 -0.254878)
(-1.26561e-05 0.000865718 -0.254926)
(-1.11261e-05 0.000858636 -0.254935)
(-1.91528e-05 0.000830338 -0.254877)
(-6.34973e-06 0.000803975 -0.254778)
(1.99332e-06 0.000824337 -0.254787)
(9.19372e-06 0.00083258 -0.254833)
(3.71072e-05 0.000796283 -0.254802)
(6.74181e-05 0.000770258 -0.25475)
(8.94846e-05 0.000790018 -0.254761)
(7.44729e-05 0.000823036 -0.254819)
(-8.76133e-06 0.000795973 -0.254736)
(-3.472e-06 0.000830219 -0.254772)
(-1.28189e-05 0.000837408 -0.254819)
(-1.02562e-05 0.000830116 -0.254824)
(-1.48851e-05 0.000801132 -0.254764)
(-3.62958e-07 0.000773785 -0.254667)
(9.90575e-06 0.000794525 -0.254683)
(1.91344e-05 0.000802054 -0.25473)
(4.34425e-05 0.000764783 -0.254698)
(6.75506e-05 0.000738921 -0.254644)
(8.757e-05 0.000760728 -0.254651)
(7.43317e-05 0.000795578 -0.25471)
(-8.45984e-06 0.000767129 -0.254628)
(-4.66649e-06 0.000800998 -0.254665)
(-1.30638e-05 0.000808358 -0.254711)
(-9.33665e-06 0.000800713 -0.254711)
(-1.01926e-05 0.000771003 -0.25465)
(5.89308e-06 0.000742756 -0.254556)
(1.80382e-05 0.000763879 -0.254579)
(2.92781e-05 0.000770945 -0.254627)
(4.97119e-05 0.000733102 -0.254595)
(6.73393e-05 0.000707327 -0.254538)
(8.49546e-05 0.0007308 -0.254542)
(7.35342e-05 0.000767343 -0.254601)
(-8.00051e-06 0.000737779 -0.254522)
(-5.89088e-06 0.000771191 -0.254559)
(-1.33634e-05 0.000778581 -0.254602)
(-8.38327e-06 0.000770416 -0.254598)
(-5.14626e-06 0.00073996 -0.254536)
(1.23456e-05 0.000710917 -0.254447)
(2.63154e-05 0.000732416 -0.254477)
(3.9518e-05 0.000739299 -0.254525)
(5.58638e-05 0.0007013 -0.254493)
(6.68322e-05 0.000675539 -0.254434)
(8.16805e-05 0.000700267 -0.254435)
(7.20866e-05 0.00073833 -0.254494)
(-7.36324e-06 0.000707937 -0.254418)
(-7.06471e-06 0.000740826 -0.254454)
(-1.36672e-05 0.000748087 -0.254494)
(-7.39761e-06 0.000739214 -0.254487)
(1.65576e-07 0.000707996 -0.254424)
(1.89218e-05 0.000678286 -0.254341)
(3.46531e-05 0.000700145 -0.254378)
(4.97286e-05 0.000707146 -0.254426)
(6.18343e-05 0.000669423 -0.254394)
(6.60803e-05 0.000643607 -0.254333)
(7.78115e-05 0.000669168 -0.254331)
(7.00155e-05 0.000708539 -0.254389)
(-6.51795e-06 0.000677607 -0.254317)
(-8.09039e-06 0.000709917 -0.254352)
(-1.38998e-05 0.000716879 -0.254388)
(-6.35964e-06 0.000707093 -0.254378)
(5.64358e-06 0.000675098 -0.254315)
(2.55449e-05 0.000644872 -0.254238)
(4.29466e-05 0.000667079 -0.254281)
(5.97673e-05 0.000674509 -0.254329)
(6.75464e-05 0.000637505 -0.254298)
(6.51319e-05 0.000611576 -0.254236)
(7.34291e-05 0.000637533 -0.254231)
(6.73703e-05 0.000677964 -0.254288)
(-5.43955e-06 0.000646788 -0.254221)
(-8.85912e-06 0.000678472 -0.254254)
(-1.39843e-05 0.000684949 -0.254286)
(-5.22861e-06 0.000674046 -0.254272)
(1.11865e-05 0.00064126 -0.254211)
(3.2132e-05 0.000610681 -0.254141)
(5.10653e-05 0.000633225 -0.254189)
(6.94803e-05 0.000641399 -0.254237)
(7.29118e-05 0.000605571 -0.254206)
(6.403e-05 0.000579475 -0.254143)
(6.86133e-05 0.000605388 -0.254136)
(6.42221e-05 0.000646591 -0.254192)
(-4.11497e-06 0.000615454 -0.25413)
(-9.26642e-06 0.000646491 -0.254159)
(-1.38481e-05 0.000652301 -0.254187)
(-3.95592e-06 0.000640062 -0.254171)
(1.66953e-05 0.000606481 -0.254111)
(3.85974e-05 0.000575721 -0.254048)
(5.88651e-05 0.000598594 -0.254101)
(7.87028e-05 0.000607829 -0.254148)
(7.783e-05 0.000573622 -0.254119)
(6.27991e-05 0.000547318 -0.254056)
(6.34227e-05 0.00057275 -0.254046)
(6.06486e-05 0.000614404 -0.254101)
(-2.53218e-06 0.000583572 -0.254045)
(-9.2259e-06 0.000613973 -0.25407)
(-1.34147e-05 0.000618938 -0.254093)
(-2.4959e-06 0.000605142 -0.254075)
(2.20742e-05 0.000570764 -0.254016)
(4.48649e-05 0.000540003 -0.253962)
(6.61994e-05 0.000563193 -0.254019)
(8.72572e-05 0.000573806 -0.254065)
(8.22022e-05 0.000541634 -0.254036)
(6.14292e-05 0.000515114 -0.253975)
(5.7894e-05 0.000539632 -0.253962)
(5.67331e-05 0.000581389 -0.254016)
(-6.74258e-07 0.000551114 -0.253965)
(-8.67196e-06 0.000580909 -0.253986)
(-1.26169e-05 0.000584861 -0.254004)
(-8.15711e-07 0.000569296 -0.253984)
(2.72344e-05 0.000534115 -0.253928)
(5.08726e-05 0.00050354 -0.253882)
(7.29226e-05 0.000527038 -0.253941)
(9.49707e-05 0.000539323 -0.253986)
(8.59503e-05 0.000509586 -0.25396)
(5.98744e-05 0.000482865 -0.253899)
(5.20693e-05 0.000506044 -0.253885)
(5.25692e-05 0.000547531 -0.253937)
(1.47884e-06 0.000518046 -0.253892)
(-7.56454e-06 0.000547284 -0.253908)
(-1.14117e-05 0.000550075 -0.253921)
(1.08953e-06 0.000532545 -0.2539)
(3.21045e-05 0.000496547 -0.253847)
(5.6558e-05 0.000466339 -0.253809)
(7.88824e-05 0.00049015 -0.25387)
(0.000101686 0.000504377 -0.253913)
(8.90109e-05 0.000477455 -0.253889)
(5.80697e-05 0.000450554 -0.253831)
(4.60116e-05 0.00047199 -0.253815)
(4.82568e-05 0.000512813 -0.253864)
(3.94087e-06 0.00048432 -0.253825)
(-5.89464e-06 0.000513082 -0.253837)
(-9.79208e-06 0.000514588 -0.253845)