/*--------------------------------*- C++ -*----------------------------------*\
| =========                 |                                                 |
| \\      /  F ield         | OpenFOAM: The Open Source CFD Toolbox           |
|  \\    /   O peration     | Version:  v1912                                 |
|   \\  /    A nd           | Website:  www.openfoam.com                      |
|    \\/     M anipulation  |                                                 |
\*---------------------------------------------------------------------------*/
FoamFile
{
    version     2.0;
    format      ascii;
    class       volSymmTensorField;
    location    "11.2";
    object      UPrime2Mean;
}
// * * * * * * * * * * * * * * * * * * * * * * * * * * * * * * * * * * * * * //

dimensions      [0 2 -2 0 0 0 0];


internalField   nonuniform List<symmTensor> 
34128
(
(2.31305e-10 -1.51827e-12 1.41742e-10 1.4643e-10 1.16449e-08 7.13112e-06)
(2.60032e-10 -1.26245e-12 2.06085e-10 1.4643e-10 1.16596e-08 7.14172e-06)
(2.59782e-10 -8.96819e-13 5.1365e-10 1.46439e-10 1.16565e-08 7.14287e-06)
(2.68937e-10 -8.46088e-13 6.51067e-10 1.46439e-10 1.16529e-08 7.14353e-06)
(3.86143e-10 -8.06406e-13 1.18047e-10 1.46443e-10 1.16461e-08 7.1353e-06)
(2.96607e-10 -9.29152e-14 -4.73069e-11 1.46435e-10 1.16384e-08 7.12734e-06)
(2.67444e-10 2.65756e-13 4.09213e-10 1.46441e-10 1.16401e-08 7.12715e-06)
(3.06387e-10 6.71566e-13 2.75859e-10 1.46444e-10 1.16552e-08 7.14176e-06)
(3.38856e-10 1.23455e-13 -1.63916e-10 1.46451e-10 1.16697e-08 7.1525e-06)
(2.69684e-10 -5.48455e-13 -5.39322e-10 1.46446e-10 1.16604e-08 7.1454e-06)
(2.29286e-10 -2.85362e-13 -5.40648e-10 1.46431e-10 1.16361e-08 7.12485e-06)
(1.67656e-10 1.23628e-12 1.9595e-10 1.46406e-10 1.16447e-08 7.12389e-06)
(1.97193e-09 8.18058e-12 -1.91907e-10 3.24784e-10 -4.85399e-08 2.51139e-05)
(2.22139e-09 4.39024e-12 6.70864e-10 3.24693e-10 -4.85581e-08 2.51886e-05)
(2.19238e-09 9.62047e-12 3.61613e-09 3.24566e-10 -4.85827e-08 2.52024e-05)
(2.27925e-09 1.08447e-11 4.72889e-09 3.24781e-10 -4.84829e-08 2.52108e-05)
(3.27637e-09 9.14911e-12 1.2906e-09 3.24864e-10 -4.83908e-08 2.51469e-05)
(2.53221e-09 9.51155e-12 6.17295e-10 3.24851e-10 -4.84846e-08 2.50887e-05)
(2.29654e-09 3.55088e-12 4.34578e-09 3.24763e-10 -4.85039e-08 2.50872e-05)
(2.61003e-09 -1.14525e-12 3.38231e-09 3.24737e-10 -4.84648e-08 2.51919e-05)
(2.86865e-09 1.78175e-12 7.05775e-10 3.24556e-10 -4.85045e-08 2.52655e-05)
(2.30897e-09 8.02113e-12 -1.85208e-09 3.24668e-10 -4.85008e-08 2.52175e-05)
(1.95002e-09 3.20623e-12 -1.91419e-09 3.2484e-10 -4.85157e-08 2.50701e-05)
(1.41221e-09 -2.07283e-12 3.55109e-09 3.2494e-10 -4.8496e-08 2.5063e-05)
(5.29945e-09 1.12001e-12 6.64555e-10 1.61159e-10 5.07032e-08 4.53235e-05)
(5.98105e-09 -5.79194e-12 2.75179e-09 1.61483e-10 5.08859e-08 4.5503e-05)
(5.8467e-09 1.72185e-11 9.78109e-09 1.61173e-10 5.08397e-08 4.55496e-05)
(6.09604e-09 1.42833e-11 1.1246e-08 1.6236e-10 5.11314e-08 4.55722e-05)
(8.76913e-09 1.30452e-11 3.07448e-09 1.62563e-10 5.12327e-08 4.5405e-05)
(6.8065e-09 3.11923e-11 1.95769e-09 1.61886e-10 5.07704e-08 4.5268e-05)
(6.20236e-09 1.85103e-11 1.06956e-08 1.61589e-10 5.07277e-08 4.52657e-05)
(7.00338e-09 1.11695e-11 7.90927e-09 1.62278e-10 5.11688e-08 4.55145e-05)
(7.65862e-09 1.05043e-11 1.80492e-09 1.62088e-10 5.12989e-08 4.5686e-05)
(6.22565e-09 2.04344e-11 -4.38595e-09 1.61892e-10 5.1153e-08 4.55758e-05)
(5.23124e-09 9.35988e-12 -4.80942e-09 1.61317e-10 5.06537e-08 4.52208e-05)
(3.7576e-09 2.10204e-11 8.40114e-09 1.61335e-10 5.06833e-08 4.52011e-05)
(1.00852e-08 1.94915e-11 2.16387e-09 8.69498e-11 -3.26337e-08 6.42716e-05)
(1.14049e-08 1.45311e-12 6.16346e-09 8.692e-11 -3.23569e-08 6.45824e-05)
(1.1048e-08 6.20408e-11 1.80235e-08 8.56389e-11 -3.24133e-08 6.46872e-05)
(1.15501e-08 5.44366e-11 1.81042e-08 9.04924e-11 -3.15757e-08 6.47249e-05)
(1.66184e-08 4.97226e-11 4.53027e-09 9.1774e-11 -3.12655e-08 6.44092e-05)
(1.29498e-08 8.70845e-11 3.80945e-09 8.94891e-11 -3.23515e-08 6.41836e-05)
(1.18545e-08 4.77563e-11 1.81627e-08 8.80941e-11 -3.24759e-08 6.41836e-05)
(1.33003e-08 2.11934e-11 1.27138e-08 8.96965e-11 -3.1567e-08 6.46044e-05)
(1.44734e-08 2.74585e-11 2.80302e-09 8.79545e-11 -3.14519e-08 6.48916e-05)
(1.1884e-08 6.6079e-11 -7.80592e-09 8.80905e-11 -3.16873e-08 6.4711e-05)
(9.93936e-09 3.43909e-11 -8.95721e-09 8.78919e-11 -3.2634e-08 6.40985e-05)
(7.08169e-09 4.3147e-11 1.41993e-08 8.86418e-11 -3.25633e-08 6.40582e-05)
(1.62094e-08 2.89358e-11 3.59659e-09 5.85039e-11 3.46477e-08 8.05774e-05)
(1.83701e-08 1.42589e-12 1.04579e-08 5.9496e-11 3.53309e-08 8.10356e-05)
(1.76402e-08 1.2424e-10 2.73808e-08 5.68392e-11 3.53407e-08 8.1227e-05)
(1.84895e-08 9.96008e-11 2.35255e-08 6.94247e-11 3.69027e-08 8.1275e-05)
(2.65929e-08 9.22765e-11 4.84709e-09 7.24429e-11 3.71871e-08 8.07674e-05)
(2.08012e-08 1.73599e-10 6.05539e-09 6.55126e-11 3.50937e-08 8.04591e-05)
(1.91275e-08 1.02427e-10 2.57889e-08 6.21127e-11 3.4906e-08 8.04672e-05)
(2.13241e-08 5.43789e-11 1.70558e-08 6.73965e-11 3.67745e-08 8.1067e-05)
(2.3092e-08 5.56918e-11 3.61754e-09 6.39722e-11 3.71362e-08 8.14759e-05)
(1.91563e-08 1.2517e-10 -1.16737e-08 6.32345e-11 3.66161e-08 8.12267e-05)
(1.59529e-08 6.84112e-11 -1.39244e-08 6.08944e-11 3.45371e-08 8.03306e-05)
(1.12736e-08 1.01847e-10 2.08039e-08 6.23335e-11 3.46238e-08 8.02599e-05)
(2.35603e-08 4.62133e-11 4.5307e-09 1.29989e-10 5.48244e-08 9.37435e-05)
(2.67639e-08 1.23783e-11 1.53501e-08 1.32257e-10 5.60341e-08 9.43569e-05)
(2.54845e-08 2.26647e-10 3.72103e-08 1.27648e-10 5.62662e-08 9.46633e-05)
(2.67785e-08 1.7016e-10 2.63762e-08 1.54851e-10 5.88576e-08 9.47128e-05)
(3.84747e-08 1.58597e-10 3.52629e-09 1.61031e-10 5.89238e-08 9.39747e-05)
(3.02086e-08 3.0084e-10 8.61997e-09 1.4511e-10 5.55394e-08 9.36009e-05)
(2.79013e-08 1.82597e-10 3.28593e-08 1.37945e-10 5.53027e-08 9.3624e-05)
(3.09085e-08 1.02021e-10 2.03766e-08 1.49714e-10 5.83807e-08 9.4395e-05)
(3.3308e-08 9.68485e-11 4.11835e-09 1.42837e-10 5.89889e-08 9.49232e-05)
(2.79227e-08 2.16673e-10 -1.57336e-08 1.40847e-10 5.81541e-08 9.46138e-05)
(2.31623e-08 1.26023e-10 -1.94722e-08 1.35318e-10 5.45828e-08 9.34265e-05)
(1.62337e-08 1.88293e-10 2.79321e-08 1.38377e-10 5.46599e-08 9.33143e-05)
(3.2035e-08 6.21967e-11 4.69477e-09 2.55195e-10 8.92014e-08 0.000103705)
(3.64848e-08 3.40253e-11 2.06292e-08 2.60019e-10 9.11621e-08 0.000104475)
(3.44608e-08 3.71989e-10 4.71369e-08 2.53739e-10 9.18688e-08 0.000104921)
(3.62982e-08 2.59581e-10 2.61749e-08 3.05099e-10 9.5763e-08 0.000104963)
(5.20613e-08 2.42784e-10 4.3298e-10 3.1553e-10 9.51949e-08 0.000103963)
(4.10305e-08 4.69211e-10 1.1524e-08 2.83853e-10 9.0274e-08 0.000103547)
(3.8063e-08 2.91259e-10 3.89814e-08 2.70778e-10 9.00443e-08 0.000103592)
(4.18999e-08 1.70334e-10 2.2394e-08 2.93659e-10 9.46329e-08 0.000104517)
(4.49321e-08 1.50532e-10 4.24743e-09 2.81634e-10 9.55523e-08 0.000105156)
(3.80723e-08 3.3749e-10 -1.9723e-08 2.77219e-10 9.43478e-08 0.000104799)
(3.14719e-08 2.0831e-10 -2.53384e-08 2.65519e-10 8.87651e-08 0.000103327)
(2.18747e-08 3.15173e-10 3.53429e-08 2.71065e-10 8.87499e-08 0.000103162)
(4.15431e-08 7.18995e-11 3.9675e-09 4.49766e-10 1.30732e-07 0.000110615)
(4.74473e-08 7.0453e-11 2.6164e-08 4.59075e-10 1.33694e-07 0.000111538)
(4.44705e-08 5.67243e-10 5.70248e-08 4.52639e-10 1.35198e-07 0.00011214)
(4.69498e-08 3.66578e-10 2.30065e-08 5.40879e-10 1.40677e-07 0.000112168)
(6.7171e-08 3.43044e-10 -4.2401e-09 5.55908e-10 1.389e-07 0.000110887)
(5.31417e-08 6.79369e-10 1.48725e-08 4.99185e-10 1.32264e-07 0.000110453)
(4.95136e-08 4.2911e-10 4.40516e-08 4.77648e-10 1.32125e-07 0.000110525)
(5.41628e-08 2.60431e-10 2.30813e-08 5.17793e-10 1.38493e-07 0.000111581)
(5.77973e-08 2.16055e-10 4.01319e-09 4.98529e-10 1.39768e-07 0.00011232)
(4.95081e-08 4.88885e-10 -2.335e-08 4.90205e-10 1.38169e-07 0.000111928)
(4.08026e-08 3.19978e-10 -3.1197e-08 4.67896e-10 1.30044e-07 0.000110191)
(2.81243e-08 4.9011e-10 4.28687e-08 4.76905e-10 1.29821e-07 0.000109961)
(5.20118e-08 6.81082e-11 2.33873e-09 7.34007e-10 1.79491e-07 0.000114729)
(5.95872e-08 1.25033e-10 3.18964e-08 7.50779e-10 1.83739e-07 0.000115795)
(5.5441e-08 8.17969e-10 6.69187e-08 7.47571e-10 1.86434e-07 0.000116566)
(5.86586e-08 4.87742e-10 1.73489e-08 8.88883e-10 1.93803e-07 0.000116575)
(8.36514e-08 4.55705e-10 -1.00797e-08 9.07201e-10 1.90107e-07 0.000115006)
(6.644e-08 9.30387e-10 1.88108e-08 8.1351e-10 1.81643e-07 0.000114574)
(6.21737e-08 5.95625e-10 4.81774e-08 7.80748e-10 1.81697e-07 0.000114678)
(6.75867e-08 3.72374e-10 2.26072e-08 8.45951e-10 1.90083e-07 0.000115841)
(7.17647e-08 2.91973e-10 3.46938e-09 8.17051e-10 1.91738e-07 0.000116665)
(6.21527e-08 6.70617e-10 -2.63061e-08 8.03002e-10 1.89737e-07 0.000116252)
(5.10962e-08 4.65277e-10 -3.66615e-08 7.6358e-10 1.7853e-07 0.000114274)
(3.49282e-08 7.21203e-10 5.0432e-08 7.76876e-10 1.77941e-07 0.000113972)
(6.33896e-08 4.24372e-11 -1.45279e-10 1.12547e-09 2.33045e-07 0.000116338)
(7.28662e-08 2.00869e-10 3.78189e-08 1.15399e-09 2.38873e-07 0.000117536)
(6.73289e-08 1.12888e-09 7.69686e-08 1.15987e-09 2.43211e-07 0.000118479)
(7.1377e-08 6.18864e-10 9.86679e-09 1.37426e-09 2.52809e-07 0.000118473)
(1.01385e-07 5.76743e-10 -1.65914e-08 1.3919e-09 2.46384e-07 0.000116618)
(8.0852e-08 1.22065e-09 2.34696e-08 1.24688e-09 2.36034e-07 0.000116204)
(7.59901e-08 7.89134e-10 5.1577e-08 1.20011e-09 2.36388e-07 0.000116339)
(8.20912e-08 5.04617e-10 2.12465e-08 1.29962e-09 2.47005e-07 0.000117588)
(8.67289e-08 3.76539e-10 2.68797e-09 1.25827e-09 2.4903e-07 0.000118483)
(7.59533e-08 8.82601e-10 -2.82985e-08 1.23653e-09 2.46638e-07 0.000118059)
(6.23183e-08 6.4918e-10 -4.1321e-08 1.17113e-09 2.31845e-07 0.00011587)
(4.22513e-08 1.01608e-09 5.80432e-08 1.18912e-09 2.30686e-07 0.00011549)
(7.56496e-08 -1.44475e-11 -3.43657e-09 1.6429e-09 2.90598e-07 0.000115738)
(8.72753e-08 3.00637e-10 4.39421e-08 1.68918e-09 2.9831e-07 0.000117054)
(8.0122e-08 1.50338e-09 8.73506e-08 1.71309e-09 3.04792e-07 0.000118168)
(8.50863e-08 7.54238e-10 1.22464e-09 2.02463e-09 3.16995e-07 0.000118152)
(1.20294e-07 7.01689e-10 -2.33266e-08 2.03382e-09 3.06958e-07 0.000116025)
(9.63368e-08 1.54821e-09 2.89203e-08 1.82102e-09 2.94709e-07 0.000115638)
(9.09386e-08 1.00727e-09 5.44828e-08 1.7576e-09 2.95462e-07 0.000115801)
(9.76298e-08 6.54797e-10 1.9285e-08 1.90203e-09 3.085e-07 0.000117118)
(1.0262e-07 4.67974e-10 1.73307e-09 1.84498e-09 3.10853e-07 0.000118068)
(9.08846e-08 1.12466e-09 -2.90866e-08 1.8135e-09 3.08091e-07 0.000117644)
(7.446e-08 8.7717e-10 -4.47887e-08 1.71053e-09 2.89259e-07 0.000115275)
(5.00794e-08 1.38204e-09 6.57778e-08 1.73275e-09 2.87289e-07 0.000114813)
(8.87892e-08 -1.12401e-10 -7.53003e-09 2.30479e-09 3.50766e-07 0.000113214)
(1.02835e-07 4.26718e-10 5.026e-08 2.377e-09 3.60665e-07 0.000114632)
(9.38381e-08 1.94369e-09 9.81971e-08 2.43149e-09 3.69839e-07 0.000115913)
(9.97956e-08 8.87046e-10 -8.05962e-09 2.86861e-09 3.85058e-07 0.000115898)
(1.40336e-07 8.26111e-10 -2.99753e-08 2.85659e-09 3.70474e-07 0.000113516)
(1.12886e-07 1.91091e-09 3.51585e-08 2.55805e-09 3.56351e-07 0.00011316)
(1.07025e-07 1.24717e-09 5.70634e-08 2.47562e-09 3.57587e-07 0.000113348)
(1.14189e-07 8.2001e-10 1.69341e-08 2.67668e-09 3.73214e-07 0.000114717)
(1.19402e-07 5.6488e-10 6.39133e-10 2.60016e-09 3.75815e-07 0.000115707)
(1.06949e-07 1.3971e-09 -2.85039e-08 2.55694e-09 3.72712e-07 0.000115289)
(8.75374e-08 1.15584e-09 -4.67406e-08 2.40191e-09 3.49461e-07 0.00011277)
(5.84173e-08 1.82597e-09 7.37459e-08 2.42653e-09 3.46411e-07 0.000112228)
(1.02829e-07 -2.61452e-10 -1.24861e-08 3.13039e-09 4.12206e-07 0.000109035)
(1.19593e-07 5.81407e-10 5.67196e-08 3.23934e-09 4.24591e-07 0.00011054)
(1.08524e-07 2.4511e-09 1.09538e-07 3.34122e-09 4.37052e-07 0.000111982)
(1.15541e-07 1.00944e-09 -1.76962e-08 3.9369e-09 4.55719e-07 0.000111978)
(1.61508e-07 9.45532e-10 -3.63897e-08 3.88479e-09 4.35613e-07 0.00010936)
(1.30524e-07 2.30664e-09 4.21002e-08 3.48161e-09 4.1968e-07 0.000109036)
(1.24284e-07 1.50572e-09 5.93906e-08 3.37807e-09 4.21467e-07 0.000109244)
(1.31787e-07 9.97304e-10 1.4294e-08 3.64836e-09 4.39818e-07 0.000110654)
(1.37072e-07 6.66444e-10 -5.96571e-10 3.54805e-09 4.42552e-07 0.000111669)
(1.24174e-07 1.70084e-09 -2.64812e-08 3.49117e-09 4.3914e-07 0.000111262)
(1.0159e-07 1.49297e-09 -4.69492e-08 3.26665e-09 4.11172e-07 0.000108623)
(6.7288e-08 2.35434e-09 8.20469e-08 3.28989e-09 4.06751e-07 0.000108002)
(1.17805e-07 -4.71578e-10 -1.83933e-08 4.13968e-09 4.7348e-07 0.00010346)
(1.37616e-07 7.67181e-10 6.32139e-08 4.29937e-09 4.88645e-07 0.000105037)
(1.24247e-07 3.02617e-09 1.21278e-07 4.47028e-09 5.05027e-07 0.000106633)
(1.32375e-07 1.11271e-09 -2.75782e-08 5.26228e-09 5.27579e-07 0.000106652)
(1.83823e-07 1.05555e-09 -4.25433e-08 5.14407e-09 5.0094e-07 0.000103818)
(1.49296e-07 2.7331e-09 4.95989e-08 4.61693e-09 4.83307e-07 0.000103527)
(1.4277e-07 1.77952e-09 6.14496e-08 4.49042e-09 4.857e-07 0.000103749)
(1.50463e-07 1.18375e-09 1.13596e-08 4.84318e-09 5.0687e-07 0.000105188)
(1.55644e-07 7.72566e-10 -2.00708e-09 4.7142e-09 5.09583e-07 0.000106214)
(1.42605e-07 2.03757e-09 -2.30406e-08 4.64179e-09 5.05899e-07 0.000105822)
(1.16671e-07 1.89768e-09 -4.5286e-08 4.32758e-09 4.73013e-07 0.000103092)
(7.67271e-08 2.97319e-09 9.07315e-08 4.34308e-09 4.66914e-07 0.000102396)
(1.33757e-07 -7.52761e-10 -2.53432e-08 5.35328e-09 5.33076e-07 9.6748e-05)
(1.56978e-07 9.86345e-10 6.95916e-08 5.58142e-09 5.51304e-07 9.83832e-05)
(1.41084e-07 3.66866e-09 1.33197e-07 5.84866e-09 5.72276e-07 0.000100126)
(1.50358e-07 1.18753e-09 -3.77619e-08 6.87957e-09 5.99126e-07 0.000100179)
(2.07301e-07 1.15135e-09 -4.85029e-08 6.66111e-09 5.64914e-07 9.71473e-05)
(1.69256e-07 3.18726e-09 5.74818e-08 5.99077e-09 5.45751e-07 9.68902e-05)
(1.62541e-07 2.06484e-09 6.31446e-08 5.83955e-09 5.48791e-07 9.7121e-05)
(1.70264e-07 1.37646e-09 8.03219e-09 6.28844e-09 5.72826e-07 9.85785e-05)
(1.75141e-07 8.83881e-10 -3.64612e-09 6.12536e-09 5.75332e-07 9.96e-05)
(1.62289e-07 2.40925e-09 -1.82643e-08 6.03558e-09 5.71416e-07 9.92271e-05)
(1.32842e-07 2.37997e-09 -4.17067e-08 5.60887e-09 5.33512e-07 9.64328e-05)
(8.67758e-08 3.68804e-09 9.97845e-08 5.60715e-09 5.25421e-07 9.56674e-05)
(1.50724e-07 -1.11489e-09 -3.34251e-08 6.79272e-09 5.89428e-07 8.91574e-05)
(1.77745e-07 1.24108e-09 7.56641e-08 7.11136e-09 6.10989e-07 9.08364e-05)
(1.59115e-07 4.37768e-09 1.44968e-07 7.50862e-09 6.37238e-07 9.27176e-05)
(1.69549e-07 1.22424e-09 -4.84572e-08 8.82592e-09 6.68752e-07 9.28127e-05)
(2.31953e-07 1.22772e-09 -5.43955e-08 8.46411e-09 6.25905e-07 8.96008e-05)
(1.90456e-07 3.66546e-09 6.55705e-08 7.63168e-09 6.0546e-07 8.93815e-05)
(1.83656e-07 2.35745e-09 6.43193e-08 7.454e-09 6.09182e-07 8.9616e-05)
(1.91236e-07 1.5725e-09 4.15408e-09 8.01281e-09 6.3606e-07 9.10801e-05)
(1.95581e-07 1.00181e-09 -5.57854e-09 7.80977e-09 6.38146e-07 9.20836e-05)
(1.83268e-07 2.8183e-09 -1.22882e-08 7.70071e-09 6.34039e-07 9.17325e-05)
(1.5016e-07 2.95071e-09 -3.62494e-08 7.13644e-09 5.91127e-07 8.89024e-05)
(9.74772e-08 4.50389e-09 1.09108e-07 7.10425e-09 5.80723e-07 8.80728e-05)
(1.68728e-07 -1.56812e-09 -4.26889e-08 8.4801e-09 6.40954e-07 8.09435e-05)
(1.99969e-07 1.53304e-09 8.12235e-08 8.91623e-09 6.66099e-07 8.26524e-05)
(1.7841e-07 5.1516e-09 1.56193e-07 9.48456e-09 6.98316e-07 8.46626e-05)
(1.89996e-07 1.21275e-09 -5.99292e-08 1.11406e-08 7.34781e-07 8.48035e-05)
(2.57767e-07 1.27875e-09 -6.03553e-08 1.05824e-08 6.82225e-07 8.14292e-05)
(2.12935e-07 4.16301e-09 7.36932e-08 9.56968e-09 6.60842e-07 8.12548e-05)
(2.06157e-07 2.65237e-09 6.47937e-08 9.36359e-09 6.65277e-07 8.14888e-05)
(2.13412e-07 1.76852e-09 -4.39272e-10 1.0046e-08 6.94901e-07 8.29458e-05)
(2.16971e-07 1.12848e-09 -7.86755e-09 9.79677e-09 6.96329e-07 8.39174e-05)
(2.05563e-07 3.26729e-09 -5.29001e-09 9.66644e-09 6.92075e-07 8.35909e-05)
(1.68668e-07 3.62113e-09 -2.90221e-08 8.93754e-09 6.44285e-07 8.07548e-05)
(1.08869e-07 5.42524e-09 1.18519e-07 8.8573e-09 6.31243e-07 7.98669e-05)
(1.87766e-07 -2.12319e-09 -5.31191e-08 1.04376e-08 6.86097e-07 7.23584e-05)
(2.23667e-07 1.86286e-09 8.60602e-08 1.10239e-08 7.15051e-07 7.40831e-05)
(1.9902e-07 5.98792e-09 1.66443e-07 1.18128e-08 7.53908e-07 7.62102e-05)
(2.1172e-07 1.14249e-09 -7.24117e-08 1.38644e-08 7.95507e-07 7.63967e-05)
(2.8469e-07 1.29748e-09 -6.64851e-08 1.30458e-08 7.32182e-07 7.28799e-05)
(2.367e-07 4.67412e-09 8.16907e-08 1.18358e-08 7.10309e-07 7.27598e-05)
(2.30057e-07 2.94342e-09 6.43984e-08 1.1599e-08 7.15491e-07 7.29901e-05)
(2.36796e-07 1.96051e-09 -5.87596e-09 1.2418e-08 7.47678e-07 7.44243e-05)
(2.39285e-07 1.26661e-09 -1.05623e-08 1.21162e-08 7.48202e-07 7.53507e-05)
(2.29161e-07 3.75881e-09 2.51641e-09 1.19626e-08 7.43839e-07 7.50514e-05)
(1.88386e-07 4.40245e-09 -2.01964e-08 1.10402e-08 6.91426e-07 7.22411e-05)
(1.20978e-07 6.45599e-09 1.27752e-07 1.08894e-08 6.75424e-07 7.13009e-05)
(2.07798e-07 -2.7917e-09 -6.46186e-08 1.26871e-08 7.23386e-07 6.36468e-05)
(2.48803e-07 2.22979e-09 8.99744e-08 1.34624e-08 7.56337e-07 6.53727e-05)
(2.20959e-07 6.88317e-09 1.75298e-07 1.45309e-08 8.02462e-07 6.76008e-05)
(2.34701e-07 1.00232e-09 -8.60313e-08 1.70395e-08 8.49239e-07 6.78286e-05)
(3.12609e-07 1.27594e-09 -7.28289e-08 1.58841e-08 7.74137e-07 6.4193e-05)
(2.61709e-07 5.19197e-09 8.94149e-08 1.44613e-08 7.52336e-07 6.4138e-05)
(2.55322e-07 3.2229e-09 6.30038e-08 1.41914e-08 7.58298e-07 6.43626e-05)
(2.61351e-07 2.1436e-09 -1.22161e-08 1.51587e-08 7.92771e-07 6.57566e-05)
(2.6246e-07 1.4194e-09 -1.3688e-08 1.4798e-08 7.92147e-07 6.66253e-05)
(2.53997e-07 4.29542e-09 1.08834e-08 1.46191e-08 7.87708e-07 6.63552e-05)
(2.09291e-07 5.30568e-09 -1.0007e-08 1.34728e-08 7.31061e-07 6.36045e-05)
(1.33811e-07 7.59955e-09 1.36474e-07 1.32231e-08 7.11785e-07 6.26189e-05)
(2.28729e-07 -3.58641e-09 -7.70005e-08 1.5249e-08 7.51489e-07 5.50392e-05)
(2.75272e-07 2.63116e-09 9.27837e-08 1.62594e-08 7.88577e-07 5.67509e-05)
(2.4419e-07 7.83284e-09 1.82378e-07 1.76776e-08 8.42519e-07 5.90599e-05)
(2.58865e-07 7.80833e-10 -1.00753e-07 2.07082e-08 8.94356e-07 5.93206e-05)
(3.4134e-07 1.20519e-09 -7.93571e-08 1.9126e-08 8.06566e-07 5.55958e-05)
(2.87857e-07 5.70872e-09 9.67242e-08 1.74773e-08 7.85508e-07 5.56166e-05)
(2.81857e-07 3.48125e-09 6.05425e-08 1.71713e-08 7.9229e-07 5.58343e-05)
(2.86983e-07 2.312e-09 -1.94348e-08 1.82967e-08 8.28674e-07 5.71697e-05)
(2.86381e-07 1.5903e-09 -1.72385e-08 1.78707e-08 8.26676e-07 5.79698e-05)
(2.79942e-07 4.87956e-09 1.95305e-08 1.76647e-08 8.22186e-07 5.77303e-05)
(2.3131e-07 6.3413e-09 1.24537e-09 1.62628e-08 7.61832e-07 5.50742e-05)
(1.47346e-07 8.85874e-09 1.443e-07 1.58797e-08 7.38982e-07 5.40507e-05)
(2.50403e-07 -4.52128e-09 -8.99882e-08 1.81421e-08 7.69274e-07 4.6745e-05)
(3.02888e-07 3.06205e-09 9.4328e-08 1.94415e-08 8.10572e-07 4.84265e-05)
(2.68616e-07 8.83133e-09 1.87358e-07 2.12917e-08 8.72774e-07 5.07911e-05)
(2.84068e-07 4.6681e-10 -1.16351e-07 2.49126e-08 9.29362e-07 5.10734e-05)
(3.70614e-07 1.07571e-09 -8.59608e-08 2.27981e-08 8.28129e-07 4.72955e-05)
(3.14957e-07 6.21564e-09 1.03478e-07 2.09141e-08 8.08584e-07 4.74009e-05)
(3.09493e-07 3.70679e-09 5.70221e-08 2.05683e-08 8.16231e-07 4.76115e-05)
(3.1353e-07 2.45907e-09 -2.74198e-08 2.18587e-08 8.54051e-07 4.88703e-05)
(3.1087e-07 1.78284e-09 -2.11719e-08 2.13616e-08 8.50487e-07 4.95927e-05)
(3.06787e-07 5.51352e-09 2.81481e-08 2.11269e-08 8.45962e-07 4.93842e-05)
(2.54304e-07 7.51914e-09 1.31915e-08 1.94363e-08 7.82564e-07 4.68575e-05)
(1.6153e-07 1.02359e-08 1.50815e-07 1.88779e-08 7.55872e-07 4.5805e-05)
(2.72592e-07 -5.61155e-09 -1.03221e-07 2.13826e-08 7.75867e-07 3.89452e-05)
(3.31366e-07 3.51484e-09 9.44742e-08 2.30336e-08 8.21363e-07 4.05805e-05)
(2.94058e-07 9.87199e-09 1.89986e-07 2.54119e-08 8.92119e-07 4.29705e-05)
(3.10088e-07 5.01654e-11 -1.32412e-07 2.96937e-08 9.52943e-07 4.32607e-05)
(4.00066e-07 8.77956e-10 -9.24547e-08 2.69245e-08 8.37732e-07 3.94727e-05)
(3.4273e-07 6.70318e-09 1.09535e-07 2.48e-08 8.20546e-07 3.96681e-05)
(3.37973e-07 3.88565e-09 5.25281e-08 2.44107e-08 8.29109e-07 3.98723e-05)
(3.40752e-07 2.57754e-09 -3.59797e-08 2.58684e-08 8.67799e-07 4.10375e-05)
(3.3568e-07 2.00037e-09 -2.54094e-08 2.52949e-08 8.62522e-07 4.16754e-05)
(3.34235e-07 6.19932e-09 3.64051e-08 2.50304e-08 8.57973e-07 4.1498e-05)
(2.78059e-07 8.84816e-09 2.53939e-08 2.30174e-08 7.92326e-07 3.91335e-05)
(1.76268e-07 1.17328e-08 1.55598e-07 2.22336e-08 7.61567e-07 3.80622e-05)
(2.94992e-07 -6.87338e-09 -1.16263e-07 2.49835e-08 7.70697e-07 3.17871e-05)
(3.60319e-07 3.97901e-09 9.31243e-08 2.70581e-08 8.20278e-07 3.33599e-05)
(3.20257e-07 1.09471e-08 1.90089e-07 3.00756e-08 8.99694e-07 3.57413e-05)
(3.36612e-07 -4.76694e-10 -1.48355e-07 3.50902e-08 9.64027e-07 3.60247e-05)
(4.29238e-07 6.03224e-10 -9.8589e-08 3.1526e-08 8.34586e-07 3.22751e-05)
(3.70799e-07 7.161e-09 1.1475e-07 2.91616e-08 8.20652e-07 3.25616e-05)
(3.66947e-07 4.00183e-09 4.72177e-08 2.87242e-08 8.30193e-07 3.27608e-05)
(3.68325e-07 2.65989e-09 -4.48605e-08 3.03461e-08 8.69099e-07 3.38179e-05)
(3.60495e-07 2.24584e-09 -2.98371e-08 2.96921e-08 8.62022e-07 3.43673e-05)
(3.61896e-07 6.93858e-09 4.39613e-08 2.93967e-08 8.57457e-07 3.42201e-05)
(3.02281e-07 1.03362e-08 3.73545e-08 2.7027e-08 7.90473e-07 3.20465e-05)
(1.91421e-07 1.33508e-08 1.58243e-07 2.59588e-08 7.55483e-07 3.09681e-05)
(3.17224e-07 -8.32326e-09 -1.2862e-07 2.89547e-08 7.53533e-07 2.53796e-05)
(3.89258e-07 4.44088e-09 9.02239e-08 3.15348e-08 8.06966e-07 2.68746e-05)
(3.46858e-07 1.20479e-08 1.87579e-07 3.53192e-08 8.94923e-07 2.92103e-05)
(3.63239e-07 -1.11709e-09 -1.63479e-07 4.11383e-08 9.61827e-07 2.94725e-05)
(4.57578e-07 2.44788e-10 -1.04068e-07 3.66197e-08 8.18248e-07 2.58138e-05)
(3.98686e-07 7.57778e-09 1.18979e-07 3.40229e-08 8.08475e-07 2.61872e-05)
(3.95968e-07 4.03754e-09 4.13057e-08 3.35321e-08 8.19063e-07 2.63836e-05)
(3.95841e-07 2.69867e-09 -5.3767e-08 3.5308e-08 8.57463e-07 2.73214e-05)
(3.84928e-07 2.52167e-09 -3.4313e-08 3.45706e-08 8.48563e-07 2.77808e-05)
(3.8929e-07 7.73223e-09 5.0482e-08 3.42435e-08 8.43992e-07 2.76625e-05)
(3.26594e-07 1.19894e-08 4.85293e-08 3.1483e-08 7.7668e-07 2.57031e-05)
(2.06804e-07 1.50903e-08 1.58384e-07 3.00614e-08 7.37382e-07 2.46306e-05)
(3.38839e-07 -9.97695e-09 -1.39756e-07 3.33021e-08 7.24504e-07 1.97924e-05)
(4.176e-07 4.88363e-09 8.57723e-08 3.64802e-08 7.81418e-07 2.11955e-05)
(3.73419e-07 1.31644e-08 1.8246e-07 4.11768e-08 8.77533e-07 2.34475e-05)
(3.89485e-07 -1.868e-09 -1.77012e-07 4.78704e-08 9.45878e-07 2.36755e-05)
(4.8446e-07 -2.00834e-10 -1.08575e-07 4.2219e-08 7.88658e-07 2.01615e-05)
(4.25821e-07 7.94106e-09 1.22082e-07 3.94051e-08 7.83921e-07 2.06127e-05)
(4.24504e-07 3.97363e-09 3.50456e-08 3.88547e-08 7.9564e-07 2.08085e-05)
(4.22814e-07 2.68696e-09 -6.23855e-08 4.07655e-08 8.32764e-07 2.16197e-05)
(4.08529e-07 2.82969e-09 -3.86771e-08 3.99439e-08 8.22083e-07 2.19904e-05)
(4.15855e-07 8.58018e-09 5.56551e-08 3.95841e-08 8.17524e-07 2.18995e-05)
(3.50547e-07 1.38117e-08 5.83527e-08 3.63991e-08 7.50962e-07 2.01703e-05)
(2.22187e-07 1.69504e-08 1.55718e-07 3.45448e-08 7.07383e-07 1.91174e-05)
(3.59336e-07 -1.18479e-08 -1.49121e-07 3.80283e-08 6.84093e-07 1.50563e-05)
(4.44684e-07 5.28744e-09 7.98298e-08 4.19075e-08 7.43971e-07 1.63551e-05)
(3.99414e-07 1.42855e-08 1.74833e-07 4.76802e-08 8.47567e-07 1.84863e-05)
(4.14789e-07 -2.71799e-09 -1.88186e-07 5.53145e-08 9.16057e-07 1.86698e-05)
(5.092e-07 -7.32587e-10 -1.11806e-07 4.8334e-08 7.46142e-07 1.53528e-05)
(4.51564e-07 8.23682e-09 1.23931e-07 4.53268e-08 7.47238e-07 1.58679e-05)
(4.51947e-07 3.79039e-09 2.87089e-08 4.47093e-08 7.60188e-07 1.60655e-05)
(4.48691e-07 2.61865e-09 -7.04063e-08 4.67253e-08 7.95246e-07 1.67474e-05)
(4.30805e-07 3.17113e-09 -4.27665e-08 4.58215e-08 7.82889e-07 1.70329e-05)
(4.40967e-07 9.481e-09 5.92063e-08 4.54271e-08 7.78372e-07 1.69675e-05)
(3.73625e-07 1.58037e-08 6.62663e-08 4.17854e-08 7.13674e-07 1.54766e-05)
(2.37301e-07 1.89288e-08 1.50028e-07 3.94075e-08 6.65967e-07 1.44576e-05)
(3.78176e-07 -1.39454e-08 -1.56179e-07 4.31323e-08 6.33123e-07 1.1166e-05)
(4.69798e-07 5.62981e-09 7.2522e-08 4.78265e-08 6.95295e-07 1.23508e-05)
(4.24251e-07 1.53985e-08 1.64888e-07 5.48579e-08 8.05371e-07 1.43272e-05)
(4.38543e-07 -3.64528e-09 -1.96299e-07 6.34936e-08 8.72591e-07 1.44594e-05)
(5.31092e-07 -1.34365e-09 -1.13496e-07 5.49712e-08 6.91405e-07 1.13873e-05)
(4.75226e-07 8.44923e-09 1.24421e-07 5.18034e-08 6.99004e-07 1.19483e-05)
(4.77641e-07 3.46843e-09 2.25639e-08 5.11095e-08 7.133e-07 1.21499e-05)
(4.72872e-07 2.48871e-09 -7.75452e-08 5.3189e-08 7.4552e-07 1.27041e-05)
(4.5123e-07 3.54674e-09 -4.64311e-08 5.22081e-08 7.31647e-07 1.29098e-05)
(4.63966e-07 1.04315e-08 6.09138e-08 5.17763e-08 7.27216e-07 1.2868e-05)
(3.95274e-07 1.79617e-08 7.17532e-08 4.76472e-08 6.65492e-07 1.16153e-05)
(2.51845e-07 2.102e-08 1.41197e-07 4.46438e-08 6.13959e-07 1.06442e-05)
(3.94815e-07 -1.6272e-08 -1.60444e-07 4.86097e-08 5.72717e-07 8.08533e-06)
(4.92218e-07 5.88628e-09 6.40404e-08 5.42433e-08 6.36359e-07 9.1491e-06)
(4.47292e-07 1.64892e-08 1.52906e-07 6.27348e-08 7.51582e-07 1.09418e-05)
(4.60114e-07 -4.61623e-09 -2.00789e-07 7.24246e-08 8.16049e-07 1.10202e-05)
(5.49439e-07 -2.02044e-09 -1.13454e-07 6.21345e-08 6.25501e-07 8.23342e-06)
(4.96111e-07 8.56027e-09 1.23476e-07 5.88472e-08 6.40103e-07 8.81945e-06)
(5.00909e-07 2.98984e-09 1.68575e-08 5.8066e-08 6.55878e-07 9.02679e-06)
(4.94739e-07 2.29342e-09 -8.35614e-08 6.01531e-08 6.84538e-07 9.4592e-06)
(4.69281e-07 3.95693e-09 -4.95511e-08 5.91046e-08 6.69355e-07 9.59219e-06)
(4.84192e-07 1.14266e-08 6.06198e-08 5.86306e-08 6.6507e-07 9.57167e-06)
(4.14922e-07 2.02764e-08 7.43728e-08 5.3986e-08 6.07383e-07 8.54911e-06)
(2.655e-07 2.32152e-08 1.29229e-07 5.02435e-08 5.52489e-07 7.63881e-06)
(4.08731e-07 -1.88216e-08 -1.61519e-07 5.44532e-08 5.04249e-07 5.75272e-06)
(5.11244e-07 6.03135e-09 5.46395e-08 6.11603e-08 5.68392e-07 6.69176e-06)
(4.6789e-07 1.75415e-08 1.39245e-07 7.13305e-08 6.87098e-07 8.27865e-06)
(4.78881e-07 -5.58462e-09 -2.01287e-07 8.21171e-08 7.47321e-07 8.30487e-06)
(5.63605e-07 -2.74206e-09 -1.11586e-07 6.98255e-08 5.49787e-07 5.83408e-06)
(5.13561e-07 8.54966e-09 1.21062e-07 6.64672e-08 5.71681e-07 6.42313e-06)
(5.21097e-07 2.33942e-09 1.17994e-08 6.55851e-08 5.89085e-07 6.63689e-06)
(5.13687e-07 2.03048e-09 -8.82718e-08 6.7609e-08 6.13558e-07 6.95747e-06)
(4.84463e-07 4.4019e-09 -5.20512e-08 6.65068e-08 5.973e-07 7.02552e-06)
(5.01021e-07 1.24587e-08 5.82394e-08 6.59834e-08 5.93233e-07 7.02405e-06)
(4.32018e-07 2.27314e-08 7.37942e-08 6.07982e-08 5.4056e-07 6.21629e-06)
(2.77945e-07 2.55002e-08 1.14254e-07 5.61919e-08 4.82944e-07 5.37816e-06)
(4.19463e-07 -2.15761e-08 -1.59127e-07 6.06525e-08 4.2928e-07 4.08793e-06)
(5.26251e-07 6.03992e-09 4.46291e-08 6.8576e-08 4.92827e-07 4.90197e-06)
(4.8542e-07 1.85379e-08 1.24323e-07 8.06584e-08 6.13045e-07 6.26914e-06)
(4.94274e-07 -6.49184e-09 -1.9767e-07 9.25717e-08 6.67595e-07 6.24901e-06)
(5.73054e-07 -3.48037e-09 -1.07916e-07 7.80437e-08 4.65867e-07 4.11308e-06)
(5.26998e-07 8.39486e-09 1.17195e-07 7.46681e-08 4.95105e-07 4.68329e-06)
(5.37609e-07 1.50598e-09 7.55053e-09 7.36691e-08 5.14299e-07 4.9032e-06)
(5.29161e-07 1.69912e-09 -9.15613e-08 7.55427e-08 5.34092e-07 5.12492e-06)
(4.96343e-07 4.88157e-09 -5.39126e-08 7.4406e-08 5.17006e-07 5.13641e-06)
(5.13913e-07 1.3518e-08 5.37652e-08 7.38231e-08 5.13242e-07 5.15142e-06)
(4.46065e-07 2.5302e-08 6.98267e-08 6.80755e-08 4.66429e-07 4.53737e-06)
(2.88875e-07 2.78548e-08 9.65359e-08 6.24708e-08 4.06907e-07 3.78038e-06)
(4.26641e-07 -2.45042e-08 -1.53152e-07 6.71944e-08 3.495e-07 2.99884e-06)
(5.36733e-07 5.88885e-09 3.43618e-08 7.64841e-08 4.11253e-07 3.69113e-06)
(4.99327e-07 1.94596e-08 1.08607e-07 9.07233e-08 5.30749e-07 4.8336e-06)
(5.05817e-07 -7.26832e-09 -1.90083e-07 1.03779e-07 5.78328e-07 4.77642e-06)
(5.77402e-07 -4.20076e-09 -1.02591e-07 8.67865e-08 3.7553e-07 2.98148e-06)
(5.35979e-07 8.07154e-09 1.11945e-07 8.34501e-08 4.11919e-07 3.51272e-06)
(5.49957e-07 4.83809e-10 4.21564e-09 8.23149e-08 4.33069e-07 3.73737e-06)
(5.40693e-07 1.30012e-09 -9.33882e-08 8.39348e-08 4.47857e-07 3.8754e-06)
(5.04586e-07 5.39538e-09 -5.51791e-08 8.27879e-08 4.30183e-07 3.83877e-06)
(5.22455e-07 1.45921e-08 4.72681e-08 8.2132e-08 4.26812e-07 3.86746e-06)
(4.56661e-07 2.79543e-08 6.24439e-08 7.58039e-08 3.86533e-07 3.42183e-06)
(2.98023e-07 3.02515e-08 7.64703e-08 6.90573e-08 3.2609e-07 2.752e-06)
(4.30024e-07 -2.75597e-08 -1.4367e-07 7.40623e-08 2.66663e-07 2.38793e-06)
(5.42343e-07 5.55897e-09 2.42135e-08 8.48727e-08 3.25359e-07 2.9651e-06)
(5.09164e-07 2.02875e-08 9.25879e-08 1.01519e-07 4.41714e-07 3.88699e-06)
(5.13168e-07 -7.83627e-09 -1.7894e-07 1.15715e-07 4.81222e-07 3.80451e-06)
(5.76453e-07 -4.86374e-09 -9.58838e-08 9.60489e-08 2.80683e-07 2.34381e-06)
(5.40236e-07 7.55442e-09 1.05443e-07 9.28065e-08 3.23789e-07 2.81904e-06)
(5.57797e-07 -7.26084e-10 1.84115e-09 9.15127e-08 3.47064e-07 3.04594e-06)
(5.47946e-07 8.35898e-10 -9.37837e-08 9.27597e-08 3.56717e-07 3.11656e-06)
(5.08987e-07 5.94184e-09 -5.5957e-08 9.16313e-08 3.38672e-07 3.04008e-06)
(5.26398e-07 1.56659e-08 3.88944e-08 9.08859e-08 3.35779e-07 3.07939e-06)
(4.63533e-07 3.06449e-08 5.17996e-08 8.39628e-08 3.02505e-07 2.77448e-06)
(3.05177e-07 3.26553e-08 5.45785e-08 7.59248e-08 2.42276e-07 2.1945e-06)
(4.2952e-07 -3.06815e-08 -1.3096e-07 8.12359e-08 1.82519e-07 2.15791e-06)
(5.42928e-07 5.03714e-09 1.45606e-08 9.37234e-08 2.36879e-07 2.62959e-06)
(5.14633e-07 2.10031e-08 7.67532e-08 1.13026e-07 3.47578e-07 3.34349e-06)
(5.16145e-07 -8.11377e-09 -1.64897e-07 1.28344e-07 3.78175e-07 3.24874e-06)
(5.70233e-07 -5.42753e-09 -8.81688e-08 1.05823e-07 1.83278e-07 2.1036e-06)
(5.39711e-07 6.81862e-09 9.78784e-08 1.02723e-07 2.32458e-07 2.50982e-06)
(5.60963e-07 -2.11472e-09 4.21601e-10 1.01245e-07 2.58017e-07 2.73561e-06)
(5.50734e-07 3.10506e-10 -9.28414e-08 1.01985e-07 2.62618e-07 2.75516e-06)
(5.09491e-07 6.51775e-09 -5.64038e-08 1.00908e-07 2.44385e-07 2.64661e-06)
(5.25691e-07 1.67214e-08 2.88598e-08 1.00053e-07 2.42034e-07 2.69334e-06)