/*--------------------------------*- C++ -*----------------------------------*\
| =========                 |                                                 |
| \\      /  F ield         | OpenFOAM: The Open Source CFD Toolbox           |
|  \\    /   O peration     | Version:  v1912                                 |
|   \\  /    A nd           | Website:  www.openfoam.com                      |
|    \\/     M anipulation  |                                                 |
\*---------------------------------------------------------------------------*/
FoamFile
{
    version     2.0;
    format      ascii;
    class       volVectorField;
    location    "11.2";
    object      wallShearStress;
}
// * * * * * * * * * * * * * * * * * * * * * * * * * * * * * * * * * * * * * //

dimensions      [1 -1 -2 0 0 0 0];


internalField   uniform (0 0 0);

boundaryField
{
    leftWall
    {
        type            calculated;
        value           nonuniform List<vector> 
216
(
(0.000443717 -5.01873e-05 0.192477)
(0.000240382 -5.65813e-05 0.198775)
(1.75999e-05 -6.16832e-05 0.206641)
(-6.09232e-05 -6.70721e-05 0.21341)
(2.4587e-05 -7.03362e-05 0.222152)
(0.000308768 -7.50404e-05 0.230192)
(0.000618252 -8.11244e-05 0.241171)
(0.000807974 -9.16935e-05 0.252494)
(0.000778293 -0.000104651 0.268023)
(0.000545861 -0.000124599 0.284199)
(0.000222648 -0.000153079 0.304377)
(6.80314e-05 -0.000198366 0.324075)
(0.000459574 -0.000247893 0.349507)
(0.00118576 -0.000313366 0.376967)
(0.00126861 -0.000426413 0.430279)
(0.000685952 -0.000943453 0.492622)
(0.00120948 -0.00598299 0.724349)
(0.0265925 -0.117674 1.911)
(0.000137883 -4.46459e-05 0.198198)
(0.000182861 -4.94575e-05 0.204458)
(0.000142014 -5.40919e-05 0.211993)
(0.000115232 -5.95816e-05 0.218116)
(-3.34978e-05 -6.31386e-05 0.226612)
(-0.000196859 -6.81082e-05 0.23482)
(-0.00047397 -7.35293e-05 0.246892)
(-0.000733974 -8.23893e-05 0.259356)
(-0.000824554 -9.22993e-05 0.275753)
(-0.000412919 -0.000108425 0.291562)
(0.000745241 -0.000136143 0.310808)
(0.00252351 -0.000184046 0.329569)
(0.00406282 -0.000242238 0.355041)
(0.00366777 -0.000314869 0.382848)
(0.000517567 -0.000436106 0.434426)
(-0.00280165 -0.000936878 0.492071)
(-0.00129376 -0.00590967 0.724856)
(0.0284677 -0.115872 1.90792)
(6.5769e-05 -5.07852e-05 0.19565)
(0.000454683 -5.41551e-05 0.201569)
(0.000683314 -5.67961e-05 0.208573)
(0.000713758 -6.07196e-05 0.214462)
(0.000333185 -6.55869e-05 0.222416)
(-0.000241672 -7.56685e-05 0.230027)
(-0.00091128 -9.16031e-05 0.241178)
(-0.00136069 -0.000111023 0.252799)
(-0.00156532 -0.000123333 0.268252)
(-0.00121781 -0.00012868 0.282968)
(-0.000200484 -0.000132174 0.300896)
(0.00134882 -0.000147699 0.319735)
(0.00281124 -0.000183299 0.34898)
(0.00302836 -0.000268203 0.384188)
(0.00118698 -0.000433338 0.43975)
(-0.00303889 -0.00097033 0.491993)
(-0.00562154 -0.00589093 0.715925)
(0.0144546 -0.114928 1.8912)
(0.000586062 -5.50131e-05 0.190364)
(0.00101765 -5.87771e-05 0.196388)
(0.00126206 -6.15651e-05 0.203608)
(0.00125626 -6.57157e-05 0.210433)
(0.000876285 -7.05561e-05 0.218765)
(0.000319717 -7.71139e-05 0.226447)
(-0.000175817 -8.54611e-05 0.236292)
(-0.000210452 -0.000100825 0.246302)
(0.000240102 -0.000122231 0.260323)
(0.00111293 -0.000143441 0.275635)
(0.0017253 -0.000153025 0.295454)
(0.00111997 -0.000159201 0.316311)
(-0.000906052 -0.000176714 0.345255)
(-0.00193258 -0.000255602 0.378548)
(-0.000403274 -0.0004349 0.432719)
(-0.000922471 -0.00100157 0.485831)
(-0.00332798 -0.0059109 0.705966)
(-0.00406491 -0.117679 1.8784)
(0.0010988 -4.68919e-05 0.196051)
(0.00149186 -5.17038e-05 0.202903)
(0.00177858 -5.74374e-05 0.210865)
(0.00190953 -6.59599e-05 0.218706)
(0.00176234 -7.33985e-05 0.227667)
(0.00130628 -7.73962e-05 0.235795)
(0.00056318 -7.48299e-05 0.245097)
(-0.000136613 -7.46241e-05 0.254029)
(-0.000490745 -8.23247e-05 0.266738)
(-0.000208573 -0.000104381 0.282528)
(0.0002839 -0.00013202 0.304913)
(5.92215e-05 -0.000162647 0.328748)
(-0.00135981 -0.000207665 0.356281)
(-0.00187391 -0.000296624 0.383104)
(0.000418883 -0.000454827 0.431871)
(0.00188507 -0.000995304 0.48612)
(0.000758715 -0.00595035 0.700159)
(0.0163932 -0.117985 1.88204)
(0.000453071 -3.72721e-05 0.201786)
(0.000797082 -4.12301e-05 0.209282)
(0.00119249 -4.5483e-05 0.217985)
(0.00162335 -5.30693e-05 0.22665)
(0.00193313 -6.12306e-05 0.236561)
(0.00187763 -7.11544e-05 0.245717)
(0.00122933 -7.96847e-05 0.255931)
(6.28895e-06 -8.7299e-05 0.264992)
(-0.00138949 -9.78864e-05 0.276224)
(-0.00220165 -0.000113502 0.288545)
(-0.00197389 -0.000135418 0.306626)
(-0.00106898 -0.000169919 0.327638)
(-0.00062247 -0.000217413 0.355514)
(-0.000419024 -0.000300453 0.38473)
(0.00180005 -0.000444299 0.43654)
(0.00610102 -0.000988287 0.493921)
(0.00734915 -0.00590369 0.718539)
(-0.0224791 -0.11114 1.88305)
(-0.000430872 -3.88785e-05 0.196938)
(-0.000277942 -4.25985e-05 0.203838)
(-1.90713e-05 -4.58411e-05 0.212358)
(0.000405684 -5.08934e-05 0.220875)
(0.000895351 -5.5752e-05 0.231237)
(0.00130023 -6.47789e-05 0.24111)
(0.00139082 -7.44986e-05 0.252764)
(0.000947215 -8.58467e-05 0.263255)
(7.6381e-05 -9.5585e-05 0.275773)
(-0.00081861 -0.000110404 0.2883)
(-0.00119473 -0.000129819 0.306576)
(-0.000878274 -0.000159933 0.328183)
(-0.000583021 -0.000203358 0.357663)
(-0.000394277 -0.000280376 0.386949)
(0.000713192 -0.000404391 0.437844)
(0.0036694 -0.000884253 0.497089)
(0.0042459 -0.00571558 0.718229)
(-0.0706552 -0.117281 1.87996)
(-0.000485971 -4.61066e-05 0.191577)
(-0.000464099 -5.01871e-05 0.1975)
(-0.000339001 -5.39317e-05 0.205278)
(-6.96506e-05 -5.80343e-05 0.213033)
(0.000230185 -5.98256e-05 0.223114)
(0.00053665 -6.29564e-05 0.233099)
(0.000572717 -6.50565e-05 0.245756)
(8.82985e-05 -7.12084e-05 0.257929)
(-0.00113937 -8.15766e-05 0.272996)
(-0.00274962 -0.000104187 0.28821)
(-0.00393482 -0.000132734 0.309114)
(-0.0036582 -0.00016318 0.331715)
(-0.00195363 -0.000203943 0.359802)
(-0.000599685 -0.000288146 0.385626)
(-0.00121818 -0.000436358 0.433607)
(-0.000773129 -0.000925391 0.490505)
(0.00100649 -0.00576897 0.70572)
(-0.0460466 -0.123457 1.87953)
(-0.000143024 -4.30402e-05 0.189481)
(-0.000308614 -4.60959e-05 0.195296)
(-0.000390842 -4.92515e-05 0.20273)
(-0.000350459 -5.49566e-05 0.210253)
(-0.000343902 -6.14389e-05 0.220067)
(-0.000343362 -7.05142e-05 0.23009)
(-0.000582899 -8.02572e-05 0.242901)
(-0.00109027 -9.56313e-05 0.255309)
(-0.0021037 -0.000115156 0.270026)
(-0.00327782 -0.000142693 0.283634)
(-0.00393291 -0.000171956 0.300986)
(-0.00291875 -0.000204328 0.319277)
(-0.000306299 -0.000241402 0.345383)
(0.0014445 -0.000316325 0.374085)
(0.000689367 -0.000457636 0.426272)
(0.00144936 -0.000945251 0.484407)
(0.00312262 -0.00574274 0.70536)
(-0.0124513 -0.122319 1.87944)
(-0.00023255 -4.41237e-05 0.191866)
(-0.000533023 -4.84044e-05 0.198183)
(-0.00077184 -5.22169e-05 0.205515)
(-0.000898377 -5.82606e-05 0.212859)
(-0.000927804 -6.77843e-05 0.221867)
(-0.000802545 -8.22354e-05 0.230889)
(-0.000601498 -9.93132e-05 0.242141)
(-0.000308017 -0.000117593 0.253043)
(-0.000158801 -0.000133588 0.266058)
(-0.000278339 -0.000146286 0.278011)
(-0.000588361 -0.000157814 0.293088)
(-0.000304201 -0.000181759 0.310218)
(0.000995721 -0.000227408 0.33858)
(0.00193657 -0.000308557 0.373621)
(0.000558387 -0.000449406 0.430471)
(-0.00171647 -0.000941274 0.489616)
(-0.00251462 -0.00580358 0.713578)
(0.00640996 -0.118182 1.88742)
(-0.000220321 -5.26765e-05 0.198029)
(-0.000333293 -5.88678e-05 0.204274)
(-0.000367691 -6.45556e-05 0.211072)
(-0.000326691 -7.14232e-05 0.217481)
(-7.40985e-05 -7.89528e-05 0.224913)
(0.000361419 -8.88278e-05 0.231916)
(0.000951139 -0.00010061 0.240751)
(0.00154678 -0.000113409 0.249806)
(0.00190885 -0.000124202 0.262064)
(0.00165112 -0.000133514 0.275239)
(0.000564364 -0.000145491 0.292591)
(-0.000734307 -0.000175616 0.31216)
(-0.000860095 -0.000225851 0.341176)
(0.000589491 -0.000318499 0.375009)
(0.00117751 -0.000478727 0.429399)
(-0.00120868 -0.00100274 0.48439)
(-0.00336892 -0.00589481 0.702879)
(0.0092013 -0.117909 1.88312)
(0.000406846 -5.57686e-05 0.195251)
(0.000574922 -6.01749e-05 0.20141)
(0.000822005 -6.30875e-05 0.208564)
(0.00108684 -6.58645e-05 0.215404)
(0.00150044 -6.65422e-05 0.223535)
(0.00198501 -6.88318e-05 0.231303)
(0.00252815 -7.3567e-05 0.241253)
(0.00286358 -8.35353e-05 0.25187)
(0.00276804 -9.68332e-05 0.266364)
(0.0019924 -0.000115132 0.282289)
(0.000775259 -0.000140592 0.302347)
(-0.000166564 -0.000176005 0.323027)
(0.000179916 -0.000217771 0.349945)
(0.00207973 -0.00029197 0.379286)
(0.00373485 -0.000444481 0.431238)
(0.00350664 -0.000984327 0.487324)
(0.00226136 -0.0059303 0.704605)
(0.00357081 -0.118028 1.88202)
)
;
    }
    rightWall
    {
        type            calculated;
        value           nonuniform List<vector> 
216
(
(-0.000800047 2.4228e-05 0.3817)
(-0.000928713 2.66357e-05 0.385508)
(-0.00088516 2.84931e-05 0.390406)
(-0.000759971 3.07332e-05 0.394707)
(-0.000382319 3.28045e-05 0.400341)
(0.000123934 3.71755e-05 0.40538)
(0.000722863 4.29288e-05 0.413416)
(0.00116886 5.22636e-05 0.421639)
(0.00139421 6.25353e-05 0.434172)
(0.00133547 7.84502e-05 0.445548)
(0.000976203 9.85646e-05 0.460571)
(0.0012523 0.000132165 0.472521)
(0.00141482 0.00016625 0.49442)
(0.00132723 0.000247415 0.514956)
(0.00244433 0.000353161 0.572758)
(0.00399236 0.000918651 0.607941)
(0.00456879 0.00717296 0.900954)
(0.0115145 0.286268 2.34526)
(-0.000677721 2.26073e-05 0.386272)
(-0.000794544 2.58572e-05 0.389236)
(-0.000761869 2.77413e-05 0.39237)
(-0.000743539 3.01602e-05 0.395503)
(-0.000546546 3.30777e-05 0.399543)
(-0.000449917 3.88774e-05 0.404553)
(-0.000223593 4.68849e-05 0.412234)
(-7.82603e-05 5.6789e-05 0.421472)
(0.000411103 6.52795e-05 0.433843)
(0.00129907 7.6688e-05 0.445582)
(0.00247748 9.09637e-05 0.459557)
(0.00342324 0.000113263 0.472345)
(0.00268943 0.000133689 0.49644)
(0.0012753 0.000209253 0.522512)
(0.00268247 0.000306376 0.586335)
(0.00713923 0.000814114 0.626984)
(0.00822404 0.00694052 0.920418)
(-0.0228669 0.286115 2.3485)
(-0.00066337 2.44971e-05 0.382843)
(-0.00042111 2.79816e-05 0.384739)
(-0.000173732 3.13799e-05 0.387136)
(-0.000111055 3.55656e-05 0.390133)
(-5.55405e-05 3.84453e-05 0.394604)
(-0.000270607 4.23519e-05 0.400615)
(-0.000227021 4.66601e-05 0.408756)
(-0.000226635 5.40349e-05 0.418307)
(0.00029382 6.01126e-05 0.430066)
(0.000924267 6.55248e-05 0.442353)
(0.00158742 7.13711e-05 0.457872)
(0.00114582 9.33861e-05 0.474157)
(-0.00140708 0.000125285 0.498809)
(-0.00419061 0.00020846 0.522066)
(-0.00316462 0.000281276 0.581576)
(0.000746273 0.000738229 0.625816)
(-0.00140771 0.00656597 0.913542)
(-0.0194447 0.284775 2.26987)
(0.000574005 3.24917e-05 0.376381)
(0.000789318 3.349e-05 0.378239)
(0.000804489 3.58857e-05 0.381682)
(0.000503127 3.90044e-05 0.385199)
(-1.84876e-05 4.0214e-05 0.390952)
(-0.000856127 4.08401e-05 0.397219)
(-0.00129335 4.09486e-05 0.405901)
(-0.00148684 4.72981e-05 0.415152)
(-0.000932307 6.011e-05 0.426965)
(-0.000598217 8.01804e-05 0.439474)
(-0.000468931 9.95672e-05 0.455307)
(-0.00106851 0.000122764 0.470609)
(-0.00216972 0.000150876 0.490923)
(-0.00348079 0.000237245 0.508864)
(-0.00456084 0.000335075 0.564414)
(-0.00605869 0.000844938 0.611103)
(-0.00776682 0.00689128 0.910604)
(0.0127388 0.286317 2.31416)
(0.00173465 3.35084e-05 0.377006)
(0.00182125 3.52434e-05 0.380583)
(0.00170924 3.68515e-05 0.386317)
(0.00125363 3.93626e-05 0.39009)
(0.000551369 4.52989e-05 0.396104)
(-0.00053236 5.6064e-05 0.400127)
(-0.00136511 6.64679e-05 0.407397)
(-0.00190845 7.3609e-05 0.413786)
(-0.00141111 7.71617e-05 0.42423)
(-0.000515823 8.52114e-05 0.434953)
(0.000789633 9.70961e-05 0.450793)
(0.00133908 0.000120932 0.466913)
(0.000714238 0.000151777 0.489155)
(-0.000978883 0.000250145 0.508485)
(-0.00277822 0.000366246 0.562147)
(-0.00399758 0.000928454 0.600703)
(-0.00622804 0.0072955 0.892575)
(0.00128797 0.287921 2.34287)
(0.00140325 2.08805e-05 0.381075)
(0.00154177 2.31688e-05 0.38587)
(0.00170634 2.6087e-05 0.392876)
(0.0016746 3.35635e-05 0.396805)
(0.0017039 4.63796e-05 0.40333)
(0.00152759 6.44773e-05 0.406693)
(0.00137143 7.76174e-05 0.413904)
(0.000890072 8.05699e-05 0.418638)
(0.000387744 7.02904e-05 0.42801)
(-0.000431056 6.13917e-05 0.436711)
(-0.00111395 6.45592e-05 0.452979)
(-0.00151711 9.31575e-05 0.471255)
(-0.000893419 0.000138228 0.497532)
(0.000774121 0.000226204 0.517008)
(0.00259978 0.000316681 0.566899)
(0.00604774 0.000861037 0.601035)
(0.0125341 0.00711894 0.890019)
(0.010952 0.288108 2.30744)
(0.000130511 1.62866e-05 0.384631)
(0.000290284 1.70782e-05 0.388706)
(0.000724164 1.78779e-05 0.395085)
(0.00116731 2.42074e-05 0.398654)
(0.00185471 3.09706e-05 0.405695)
(0.00241609 3.97633e-05 0.410133)
(0.00274491 4.46365e-05 0.419177)
(0.00228806 4.8861e-05 0.425395)
(0.000966456 5.30553e-05 0.436329)
(-0.00124375 6.50201e-05 0.444404)
(-0.00344529 8.56066e-05 0.458025)
(-0.00419333 0.000115154 0.47029)
(-0.00197437 0.000141414 0.492064)
(0.00118223 0.000214303 0.512664)
(0.00128553 0.000303021 0.573483)
(0.00143554 0.00081007 0.620731)
(0.00919568 0.00690614 0.926328)
(0.0100593 0.28696 2.34051)
(-0.000498465 2.09468e-05 0.384562)
(-0.000369331 2.39018e-05 0.387094)
(-1.67278e-06 2.45938e-05 0.39267)
(0.000373237 2.78604e-05 0.395612)
(0.000755158 2.78307e-05 0.402949)
(0.000858382 2.88538e-05 0.407774)
(0.000697876 2.94888e-05 0.418039)
(0.000119117 3.64499e-05 0.425449)
(-0.000568533 4.97635e-05 0.437849)
(-0.00112061 7.17369e-05 0.445981)
(-0.00122087 9.48952e-05 0.457904)
(-0.000614645 0.000119387 0.46677)
(0.000758261 0.000140701 0.487042)
(0.000848888 0.00022593 0.510307)
(-0.00181768 0.000349893 0.574978)
(-0.00255779 0.000874073 0.620343)
(0.000695796 0.00702857 0.919669)
(-0.00816538 0.286254 2.3451)
(-0.000255379 2.30418e-05 0.383777)
(-3.66984e-06 2.75888e-05 0.386064)
(0.000352351 3.03844e-05 0.392081)
(0.000562199 3.38675e-05 0.394962)
(0.000573754 3.57679e-05 0.40247)
(0.000235625 3.99068e-05 0.406488)
(-0.000387908 4.32365e-05 0.415732)
(-0.00093854 5.18325e-05 0.42166)
(-0.00123855 6.02184e-05 0.432922)
(-0.000818607 7.25113e-05 0.441283)
(-0.000392064 8.53625e-05 0.4549)
(-0.000223847 0.0001095 0.467296)
(-0.00045085 0.000141909 0.490755)
(-0.00116632 0.000234411 0.515131)
(-0.00253964 0.000343535 0.574973)
(-0.00144169 0.000878085 0.614804)
(0.0021996 0.00705345 0.915802)
(-0.00874115 0.286613 2.34301)
(-0.000669436 1.15707e-05 0.380875)
(-0.000472065 1.13671e-05 0.384251)
(-5.36842e-05 1.33335e-05 0.3918)
(0.000269769 1.93157e-05 0.397169)
(0.000428672 2.5355e-05 0.406948)
(0.000384977 3.27253e-05 0.413235)
(-0.000116149 3.94905e-05 0.42261)
(-0.000363434 5.0929e-05 0.427847)
(-0.000731981 6.52511e-05 0.436888)
(-0.000366664 8.09751e-05 0.444389)
(-0.000222962 9.70407e-05 0.457317)
(4.9152e-05 0.000123487 0.469251)
(0.000315027 0.000161728 0.489644)
(0.00081133 0.000256803 0.50975)
(0.000762555 0.000377851 0.565942)
(0.000687119 0.000932121 0.604667)
(0.00103371 0.00710951 0.912435)
(-0.00910545 0.286873 2.34937)
(-0.00186489 1.14239e-05 0.379302)
(-0.00245189 1.24045e-05 0.382935)
(-0.00270156 1.586e-05 0.389842)
(-0.00267266 2.34818e-05 0.396555)
(-0.00245196 2.99316e-05 0.406328)
(-0.00187162 3.52657e-05 0.414451)
(-0.00149502 4.0654e-05 0.423393)
(-0.000731174 5.18105e-05 0.429228)
(-0.000290119 7.04955e-05 0.436886)
(0.000754107 9.02165e-05 0.444276)
(0.00172701 0.000104871 0.45723)
(0.00298855 0.00011917 0.470819)
(0.00382173 0.000136113 0.49361)
(0.00389233 0.000216583 0.515208)
(0.00377217 0.000325925 0.572665)
(0.00370283 0.000881706 0.611526)
(0.00357304 0.00709834 0.922052)
(-0.00164168 0.286475 2.36209)
(-0.00188895 3.30276e-05 0.380612)
(-0.00262061 3.79366e-05 0.383312)
(-0.00306814 4.07814e-05 0.387104)
(-0.00307095 4.41269e-05 0.39099)
(-0.0027104 4.75919e-05 0.396018)
(-0.00183221 5.2072e-05 0.401616)
(-0.000916391 5.72427e-05 0.408687)
(0.000290395 6.27232e-05 0.416397)
(0.00111745 6.91382e-05 0.426548)
(0.00181145 7.63337e-05 0.437485)
(0.00183618 8.33699e-05 0.453601)
(0.00158865 9.75578e-05 0.471694)
(0.00113699 0.000114915 0.500857)
(0.0012517 0.000198095 0.526452)
(0.00220727 0.000309449 0.581885)
(0.000940774 0.000859772 0.615068)
(-0.00292543 0.00708174 0.920536)
(0.00207755 0.286615 2.3579)
)
;
    }
    leftSides_periodic0
    {
        type            cyclic;
    }
    leftSides_periodic1
    {
        type            cyclic;
    }
    rightSides_periodic0
    {
        type            cyclic;
    }
    rightSides_periodic1
    {
        type            cyclic;
    }
    leftInOut_periodic0
    {
        type            calculated;
        value           nonuniform 0();
    }
    leftInOut_periodic1
    {
        type            calculated;
        value           uniform (0 0 0);
    }
    rightInOut_periodic0
    {
        type            calculated;
        value           nonuniform 0();
    }
    rightInOut_periodic1
    {
        type            calculated;
        value           uniform (0 0 0);
    }
    procBoundary5to2
    {
        type            processor;
        value           uniform (0 0 0);
    }
    procBoundary5to3throughleftSides_periodic0
    {
        type            processorCyclic;
        value           uniform (0 0 0);
    }
    procBoundary5to3throughrightSides_periodic0
    {
        type            processorCyclic;
        value           uniform (0 0 0);
    }
    procBoundary5to4
    {
        type            processor;
        value           uniform (0 0 0);
    }
}


// ************************************************************************* //
