/*--------------------------------*- C++ -*----------------------------------*\
| =========                 |                                                 |
| \\      /  F ield         | OpenFOAM: The Open Source CFD Toolbox           |
|  \\    /   O peration     | Version:  v1912                                 |
|   \\  /    A nd           | Website:  www.openfoam.com                      |
|    \\/     M anipulation  |                                                 |
\*---------------------------------------------------------------------------*/
FoamFile
{
    version     2.0;
    format      ascii;
    class       volScalarField;
    location    "196.8";
    object      T;
}
// * * * * * * * * * * * * * * * * * * * * * * * * * * * * * * * * * * * * * //

dimensions      [0 0 0 1 0 0 0];


internalField   nonuniform List<scalar> 
10147
(
347.164
347.008
346.798
346.678
346.636
346.633
346.641
346.65
346.652
346.648
346.636
346.627
346.63
346.672
346.793
347.004
346.963
346.92
346.888
346.869
346.862
346.866
346.883
346.914
346.957
346.987
346.968
346.812
346.582
346.572
346.575
346.619
346.737
346.969
346.781
347.112
346.958
346.751
346.63
346.586
346.582
346.589
346.598
346.599
346.595
346.584
346.576
346.58
346.624
346.746
346.955
347.06
346.909
346.704
346.582
346.537
346.531
346.537
346.545
346.546
346.543
346.532
346.525
346.531
346.576
346.699
346.905
347.009
346.859
346.657
346.535
346.488
346.481
346.486
346.494
346.495
346.492
346.481
346.475
346.482
346.529
346.652
346.856
346.958
346.81
346.611
346.488
346.44
346.431
346.436
346.444
346.444
346.441
346.432
346.426
346.434
346.483
346.606
346.807
346.907
346.762
346.565
346.442
346.393
346.383
346.387
346.394
346.395
346.392
346.382
346.377
346.387
346.437
346.56
346.758
346.857
346.713
346.519
346.397
346.346
346.335
346.338
346.345
346.346
346.343
346.334
346.33
346.341
346.391
346.514
346.71
346.807
346.665
346.474
346.352
346.3
346.288
346.29
346.297
346.297
346.295
346.286
346.283
346.295
346.346
346.469
346.662
346.757
346.617
346.429
346.307
346.255
346.241
346.243
346.249
346.25
346.247
346.239
346.236
346.249
346.302
346.424
346.614
346.708
346.569
346.384
346.263
346.209
346.195
346.197
346.202
346.203
346.2
346.193
346.19
346.204
346.258
346.379
346.566
346.659
346.522
346.339
346.219
346.165
346.15
346.151
346.156
346.156
346.154
346.147
346.145
346.159
346.214
346.335
346.518
346.61
346.475
346.295
346.175
346.12
346.105
346.105
346.11
346.11
346.108
346.101
346.1
346.115
346.17
346.29
346.471
346.561
346.428
346.251
346.132
346.077
346.06
346.06
346.065
346.065
346.063
346.056
346.055
346.072
346.127
346.246
346.424
346.513
346.381
346.207
346.089
346.033
346.016
346.015
346.02
346.02
346.018
346.012
346.011
346.028
346.084
346.203
346.378
346.465
346.335
346.163
346.046
345.99
345.972
345.971
345.976
345.975
345.973
345.968
345.968
345.985
346.041
346.159
346.331
346.417
346.288
346.12
346.004
345.947
345.929
345.928
345.932
345.931
345.93
345.924
345.924
345.942
345.999
346.116
346.285
346.369
346.242
346.077
345.962
345.905
345.886
345.884
345.888
345.888
345.886
345.881
345.881
345.9
345.957
346.072
346.239
346.322
346.197
346.034
345.92
345.862
345.843
345.841
345.845
345.844
345.843
345.838
345.839
345.858
345.915
346.029
346.194
346.275
346.151
345.991
345.878
345.82
345.801
345.798
345.802
345.801
345.8
345.795
345.796
345.816
345.873
345.987
346.148
346.228
346.106
345.948
345.836
345.778
345.758
345.756
345.759
345.758
345.757
345.752
345.754
345.774
345.831
345.944
346.103
346.181
346.061
345.905
345.794
345.736
345.716
345.713
345.716
345.715
345.714
345.71
345.712
345.732
345.79
345.901
346.058
346.135
346.016
345.863
345.752
345.694
345.674
345.671
345.673
345.673
345.671
345.667
345.669
345.69
345.748
345.859
346.013
346.088
345.971
345.82
345.71
345.652
345.631
345.628
345.631
345.63
345.629
345.625
345.627
345.647
345.706
345.816
345.968
346.042
345.925
345.777
345.668
345.609
345.588
345.585
345.588
345.587
345.586
345.581
345.584
345.604
345.663
345.773
345.923
345.996
345.88
345.733
345.624
345.565
345.544
345.541
345.544
345.543
345.542
345.538
345.54
345.561
345.62
345.729
345.878
345.949
345.835
345.689
345.581
345.521
345.5
345.497
345.5
345.499
345.498
345.494
345.496
345.517
345.576
345.685
345.832
345.903
345.79
345.645
345.537
345.477
345.456
345.453
345.455
345.454
345.453
345.449
345.452
345.473
345.532
345.641
345.787
345.857
345.745
345.6
345.492
345.432
345.411
345.408
345.411
345.41
345.409
345.405
345.407
345.428
345.488
345.596
345.742
345.811
345.699
345.555
345.448
345.388
345.367
345.363
345.366
345.365
345.364
345.36
345.363
345.384
345.444
345.551
345.697
345.765
345.654
345.509
345.403
345.343
345.322
345.319
345.321
345.321
345.32
345.316
345.318
345.339
345.399
345.506
345.651
345.719
345.608
345.464
345.359
345.298
345.277
345.274
345.277
345.276
345.275
345.271
345.274
345.295
345.355
345.46
345.605
345.673
345.562
345.419
345.314
345.254
345.233
345.23
345.232
345.231
345.23
345.226
345.229
345.25
345.31
345.415
345.559
345.626
345.515
345.373
345.269
345.209
345.188
345.185
345.187
345.186
345.185
345.182
345.184
345.205
345.265
345.369
345.512
345.579
345.468
345.327
345.224
345.164
345.142
345.14
345.142
345.141
345.14
345.137
345.139
345.16
345.22
345.323
345.465
345.531
345.421
345.28
345.178
345.118
345.097
345.094
345.097
345.095
345.095
345.091
345.093
345.114
345.174
345.276
345.418
345.484
345.373
345.233
345.132
345.072
345.051
345.048
345.051
345.05
345.049
345.045
345.048
345.068
345.128
345.23
345.37
345.436
345.325
345.186
345.085
345.025
345.005
345.002
345.004
345.003
345.003
344.999
345.001
345.022
345.082
345.182
345.322
345.387
345.277
345.138
345.038
344.978
344.958
344.955
344.957
344.956
344.956
344.952
344.954
344.974
345.034
345.135
345.274
345.338
345.227
345.09
344.99
344.93
344.91
344.907
344.91
344.908
344.908
344.904
344.906
344.926
344.986
345.086
345.225
345.289
345.178
345.04
344.941
344.881
344.861
344.859
344.861
344.86
344.86
344.856
344.858
344.878
344.937
345.037
345.175
345.239
345.127
344.99
344.891
344.832
344.811
344.809
344.812
344.811
344.81
344.806
344.808
344.828
344.888
344.986
345.124
345.189
345.075
344.939
344.841
344.781
344.761
344.759
344.762
344.761
344.76
344.756
344.758
344.777
344.837
344.935
345.073
345.137
345.023
344.887
344.789
344.729
344.71
344.708
344.711
344.71
344.709
344.705
344.707
344.726
344.785
344.883
345.02
345.085
344.97
344.834
344.737
344.677
344.658
344.656
344.659
344.658
344.657
344.653
344.654
344.674
344.733
344.83
344.967
345.032
344.916
344.78
344.683
344.624
344.604
344.603
344.606
344.605
344.604
344.6
344.601
344.62
344.68
344.776
344.913
344.978
344.861
344.725
344.629
344.569
344.55
344.549
344.552
344.551
344.551
344.546
344.547
344.566
344.625
344.721
344.858
344.923
344.804
344.669
344.573
344.514
344.495
344.494
344.497
344.496
344.496
344.491
344.492
344.51
344.569
344.665
344.802
344.868
344.747
344.612
344.516
344.457
344.439
344.438
344.441
344.44
344.44
344.435
344.436
344.454
344.513
344.608
344.744
344.811
344.689
344.553
344.458
344.399
344.381
344.381
344.384
344.383
344.383
344.378
344.378
344.396
344.455
344.55
344.686
344.753
344.629
344.494
344.399
344.34
344.323
344.322
344.326
344.324
344.324
344.32
344.32
344.337
344.396
344.49
344.627
344.694
344.569
344.433
344.339
344.28
344.263
344.263
344.266
344.265
344.265
344.26
344.26
344.277
344.336
344.429
344.566
344.634
344.507
344.371
344.277
344.219
344.202
344.202
344.206
344.204
344.204
344.199
344.199
344.216
344.274
344.367
344.504
344.573
344.443
344.307
344.214
344.156
344.139
344.14
344.144
344.142
344.142
344.137
344.136
344.153
344.211
344.304
344.44
344.511
344.378
344.242
344.15
344.091
344.075
344.076
344.08
344.078
344.078
344.073
344.072
344.088
344.146
344.238
344.375
344.447
344.312
344.175
344.084
344.025
344.009
344.01
344.015
344.013
344.013
344.008
344.006
344.022
344.08
344.172
344.309
344.381
344.243
344.107
344.015
343.958
343.942
343.943
343.948
343.946
343.946
343.941
343.939
343.954
344.012
344.103
344.24
344.314
344.173
344.036
343.945
343.888
343.872
343.874
343.879
343.877
343.877
343.872
343.87
343.885
343.942
344.032
344.17
344.245
344.1
343.963
343.873
343.816
343.801
343.803
343.808
343.806
343.806
343.8
343.798
343.812
343.87
343.959
344.097
344.173
344.024
343.887
343.798
343.741
343.726
343.729
343.734
343.732
343.732
343.726
343.723
343.738
343.794
343.884
344.021
344.098
343.944
343.808
343.719
343.662
343.648
343.651
343.656
343.655
343.655
343.649
343.645
343.659
343.715
343.805
343.941
344.02
343.861
343.725
343.636
343.58
343.566
343.569
343.575
343.573
343.574
343.567
343.563
343.577
343.632
343.721
343.858
343.937
343.771
343.636
343.547
343.491
343.478
343.482
343.488
343.486
343.487
343.479
343.475
343.488
343.543
343.632
343.768
343.847
343.674
343.539
343.45
343.395
343.383
343.387
343.394
343.391
343.392
343.384
343.38
343.392
343.447
343.536
343.671
343.748
343.565
343.432
343.342
343.289
343.277
343.281
343.288
343.286
343.287
343.279
343.274
343.286
343.339
343.428
343.562
343.635
343.441
343.309
343.219
343.166
343.154
343.16
343.168
343.165
343.166
343.158
343.151
343.163
343.215
343.305
343.437
343.5
343.291
343.162
343.07
343.019
343.008
343.015
343.023
343.02
343.021
343.012
343.005
343.016
343.067
343.158
343.287
343.329
343.101
342.977
342.882
342.832
342.823
342.83
342.839
342.837
342.838
342.828
342.82
342.829
342.879
342.972
343.097
343.099
342.846
342.727
342.629
342.581
342.573
342.583
342.593
342.59
342.591
342.58
342.57
342.578
342.626
342.723
342.842
342.766
342.48
342.37
342.267
342.221
342.215
342.227
342.238
342.235
342.236
342.224
342.212
342.218
342.263
342.365
342.476
342.253
341.922
341.826
341.715
341.673
341.671
341.685
341.697
341.695
341.696
341.683
341.668
341.67
341.712
341.822
341.918
341.429
341.046
340.97
340.85
340.813
340.815
340.833
340.846
340.843
340.845
340.831
340.812
340.81
340.847
340.965
341.042
340.117
339.686
339.634
339.506
339.476
339.483
339.505
339.519
339.517
339.518
339.503
339.481
339.475
339.503
339.631
339.682
338.163
337.705
337.682
337.549
337.529
337.538
337.564
337.576
337.575
337.575
337.563
337.537
337.528
337.547
337.679
337.701
335.548
335.101
335.102
334.973
334.963
334.972
334.999
335.009
335.009
335.008
334.998
334.972
334.963
334.972
335.1
335.098
332.417
332.015
332.032
331.915
331.913
331.92
331.945
331.952
331.954
331.951
331.945
331.92
331.914
331.914
332.031
332.013
328.974
328.639
328.663
328.562
328.566
328.57
328.592
328.595
328.598
328.595
328.591
328.57
328.566
328.562
328.661
328.637
325.391
325.13
325.153
325.074
325.08
325.081
325.099
325.101
325.104
325.1
325.099
325.081
325.08
325.074
325.153
325.128
321.782
321.597
321.616
321.559
321.564
321.564
321.577
321.578
321.58
321.578
321.577
321.564
321.564
321.558
321.615
321.596
318.214
318.104
318.116
318.082
318.086
318.086
318.093
318.094
318.095
318.093
318.093
318.086
318.086
318.082
318.116
318.104
314.719
314.683
314.687
314.676
314.677
314.677
314.68
314.68
314.68
314.68
314.68
314.677
314.677
314.676
314.687
314.683
346.657
346.759
346.911
346.93
346.901
346.858
346.826
346.806
346.799
346.804
346.821
346.852
346.894
346.924
346.907
346.757
346.609
346.705
346.85
346.868
346.839
346.797
346.765
346.745
346.738
346.742
346.76
346.791
346.833
346.863
346.847
346.704
346.562
346.653
346.791
346.808
346.779
346.737
346.705
346.686
346.679
346.683
346.7
346.731
346.773
346.803
346.788
346.651
346.516
346.602
346.734
346.749
346.72
346.679
346.647
346.628
346.621
346.625
346.642
346.673
346.715
346.744
346.73
346.601
346.471
346.552
346.678
346.692
346.663
346.621
346.59
346.571
346.564
346.568
346.586
346.616
346.657
346.687
346.674
346.551
346.427
346.504
346.622
346.635
346.606
346.565
346.534
346.515
346.509
346.513
346.53
346.56
346.601
346.631
346.619
346.502
346.383
346.456
346.568
346.58
346.551
346.51
346.48
346.461
346.454
346.458
346.475
346.505
346.545
346.575
346.565
346.454
346.34
346.408
346.515
346.525
346.496
346.456
346.426
346.407
346.401
346.405
346.422
346.451
346.491
346.521
346.512
346.407
346.297
346.362
346.462
346.471
346.443
346.403
346.373
346.355
346.348
346.352
346.369
346.398
346.437
346.467
346.459
346.36
346.255
346.315
346.411
346.418
346.39
346.351
346.321
346.303
346.297
346.301
346.317
346.345
346.384
346.414
346.408
346.314
346.212
346.27
346.359
346.366
346.337
346.299
346.27
346.252
346.246
346.25
346.266
346.294
346.332
346.362
346.357
346.268
346.17
346.224
346.309
346.314
346.286
346.248
346.219
346.201
346.195
346.199
346.215
346.243
346.281
346.31
346.306
346.223
346.128
346.179
346.259
346.263
346.235
346.197
346.169
346.152
346.145
346.149
346.165
346.192
346.23
346.259
346.256
346.178
346.086
346.134
346.21
346.213
346.185
346.148
346.12
346.102
346.096
346.1
346.116
346.143
346.18
346.209
346.207
346.133
346.044
346.089
346.161
346.163
346.135
346.098
346.071
346.054
346.048
346.051
346.067
346.094
346.13
346.159
346.159
346.088
346.001
346.045
346.113
346.113
346.086
346.049
346.022
346.005
345.999
346.003
346.018
346.045
346.081
346.11
346.11
346.044
345.959
346
346.065
346.065
346.037
346.001
345.974
345.957
345.952
345.955
345.97
345.996
346.032
346.061
346.062
345.999
345.917
345.956
346.017
346.016
345.988
345.953
345.926
345.91
345.904
345.908
345.923
345.948
345.984
346.012
346.015
345.955
345.874
345.911
345.97
345.968
345.94
345.905
345.879
345.862
345.857
345.86
345.875
345.901
345.936
345.964
345.967
345.91
345.831
345.867
345.922
345.919
345.892
345.857
345.831
345.815
345.81
345.813
345.828
345.853
345.888
345.916
345.92
345.866
345.788
345.822
345.875
345.871
345.844
345.81
345.784
345.768
345.763
345.766
345.781
345.806
345.84
345.868
345.873
345.821
345.745
345.778
345.828
345.824
345.796
345.762
345.737
345.721
345.716
345.719
345.734
345.758
345.792
345.82
345.826
345.777
345.701
345.733
345.781
345.776
345.749
345.715
345.69
345.674
345.669
345.672
345.686
345.711
345.744
345.772
345.779
345.732
345.658
345.688
345.734
345.728
345.701
345.667
345.643
345.627
345.622
345.625
345.639
345.663
345.697
345.725
345.732
345.687
345.613
345.643
345.687
345.68
345.653
345.62
345.595
345.58
345.575
345.578
345.592
345.616
345.649
345.677
345.685
345.642
345.569
345.597
345.639
345.632
345.605
345.572
345.548
345.533
345.527
345.531
345.545
345.568
345.601
345.629
345.637
345.596
345.524
345.552
345.592
345.584
345.557
345.525
345.501
345.485
345.48
345.484
345.497
345.521
345.553
345.581
345.59
345.551
345.479
345.506
345.544
345.536
345.509
345.477
345.453
345.438
345.433
345.436
345.45
345.473
345.505
345.533
345.542
345.505
345.433
345.459
345.497
345.487
345.461
345.429
345.405
345.39
345.385
345.389
345.402
345.425
345.457
345.484
345.495
345.459
345.387
345.413
345.449
345.439
345.412
345.381
345.358
345.343
345.337
345.341
345.354
345.377
345.409
345.436
345.447
345.412
345.34
345.366
345.401
345.39
345.364
345.333
345.31
345.295
345.29
345.293
345.307
345.329
345.361
345.388
345.399
345.365
345.293
345.318
345.352
345.342
345.315
345.284
345.261
345.247
345.241
345.245
345.258
345.281
345.312
345.339
345.35
345.318
345.245
345.271
345.304
345.293
345.267
345.236
345.213
345.198
345.193
345.196
345.21
345.232
345.263
345.29
345.302
345.27
345.197
345.222
345.255
345.244
345.218
345.187
345.164
345.149
345.144
345.148
345.161
345.183
345.214
345.241
345.253
345.222
345.148
345.174
345.205
345.194
345.168
345.138
345.115
345.1
345.095
345.099
345.112
345.134
345.165
345.191
345.204
345.173
345.099
345.125
345.156
345.144
345.118
345.088
345.066
345.051
345.046
345.049
345.063
345.085
345.115
345.141
345.154
345.124
345.049
345.075
345.106
345.094
345.068
345.038
345.016
345.001
344.996
344.999
345.013
345.035
345.065
345.091
345.104
345.074
344.999
345.025
345.055
345.043
345.018
344.988
344.966
344.951
344.946
344.949
344.963
344.984
345.015
345.04
345.054
345.024
344.948
344.974
345.004
344.992
344.967
344.937
344.915
344.9
344.895
344.898
344.912
344.934
344.964
344.989
345.003
344.973
344.896
344.922
344.953
344.94
344.915
344.885
344.863
344.849
344.844
344.847
344.861
344.882
344.912
344.938
344.951
344.922
344.843
344.87
344.901
344.888
344.863
344.833
344.811
344.797
344.792
344.795
344.809
344.83
344.86
344.885
344.899
344.87
344.79
344.818
344.848
344.835
344.81
344.781
344.759
344.744
344.74
344.743
344.756
344.778
344.807
344.832
344.847
344.817
344.736
344.764
344.795
344.781
344.757
344.727
344.706
344.691
344.686
344.689
344.703
344.724
344.754
344.779
344.794
344.764
344.681
344.71
344.741
344.727
344.703
344.673
344.652
344.637
344.632
344.635
344.649
344.67
344.7
344.725
344.74
344.709
344.626
344.655
344.686
344.672
344.648
344.619
344.597
344.582
344.578
344.581
344.594
344.615
344.645
344.67
344.685
344.654
344.569
344.598
344.63
344.616
344.592
344.563
344.541
344.526
344.522
344.525
344.539
344.56
344.589
344.614
344.629
344.598
344.511
344.541
344.574
344.559
344.535
344.506
344.484
344.47
344.465
344.468
344.482
344.503
344.533
344.557
344.573
344.541
344.452
344.483
344.516
344.5
344.477
344.448
344.426
344.412
344.407
344.41
344.424
344.445
344.475
344.498
344.515
344.483
344.392
344.423
344.457
344.441
344.418
344.389
344.367
344.352
344.348
344.351
344.365
344.386
344.415
344.439
344.456
344.423
344.33
344.362
344.396
344.38
344.357
344.328
344.306
344.291
344.287
344.29
344.304
344.325
344.354
344.378
344.395
344.361
344.266
344.298
344.333
344.317
344.294
344.265
344.244
344.229
344.224
344.227
344.241
344.262
344.292
344.315
344.332
344.298
344.199
344.233
344.268
344.251
344.229
344.2
344.179
344.164
344.159
344.162
344.176
344.197
344.227
344.249
344.268
344.233
344.131
344.165
344.201
344.184
344.162
344.132
344.111
344.096
344.092
344.095
344.109
344.13
344.159
344.182
344.2
344.165
344.058
344.093
344.13
344.112
344.091
344.061
344.04
344.025
344.021
344.024
344.038
344.059
344.088
344.111
344.13
344.093
343.982
344.018
344.056
344.037
344.016
343.986
343.965
343.95
343.946
343.949
343.963
343.984
344.013
344.035
344.055
344.018
343.9
343.936
343.975
343.956
343.935
343.905
343.885
343.869
343.865
343.868
343.882
343.903
343.932
343.954
343.974
343.936
343.81
343.847
343.886
343.866
343.845
343.816
343.796
343.78
343.776
343.779
343.793
343.814
343.843
343.864
343.886
343.847
343.71
343.747
343.788
343.766
343.746
343.717
343.697
343.681
343.677
343.679
343.694
343.714
343.744
343.765
343.787
343.747
343.596
343.634
343.676
343.654
343.634
343.605
343.585
343.569
343.565
343.567
343.583
343.602
343.631
343.652
343.675
343.634
343.466
343.504
343.547
343.525
343.505
343.476
343.457
343.44
343.437
343.439
343.455
343.474
343.503
343.523
343.547
343.504
343.314
343.352
343.398
343.374
343.355
343.327
343.308
343.291
343.288
343.289
343.306
343.324
343.353
343.373
343.398
343.353
343.134
343.173
343.221
343.196
343.177
343.15
343.131
343.114
343.111
343.112
343.129
343.147
343.176
343.195
343.22
343.173
342.916
342.956
343.006
342.981
342.963
342.936
342.918
342.9
342.897
342.898
342.916
342.934
342.961
342.98
343.006
342.956
342.647
342.688
342.741
342.716
342.698
342.672
342.655
342.636
342.633
342.635
342.653
342.67
342.697
342.715
342.741
342.688
342.308
342.351
342.408
342.382
342.365
342.341
342.324
342.304
342.302
342.303
342.323
342.339
342.364
342.382
342.408
342.351
341.868
341.912
341.975
341.95
341.933
341.911
341.896
341.874
341.873
341.873
341.895
341.91
341.933
341.95
341.976
341.913
341.274
341.321
341.391
341.366
341.351
341.332
341.319
341.295
341.294
341.295
341.318
341.331
341.352
341.367
341.393
341.322
340.456
340.505
340.585
340.561
340.548
340.532
340.522
340.496
340.496
340.496
340.521
340.533
340.55
340.563
340.587
340.507
339.325
339.374
339.464
339.442
339.431
339.421
339.413
339.385
339.386
339.385
339.413
339.422
339.434
339.445
339.467
339.377
337.788
337.832
337.931
337.911
337.903
337.898
337.894
337.864
337.866
337.864
337.895
337.901
337.907
337.915
337.936
337.835
335.795
335.829
335.934
335.914
335.91
335.91
335.909
335.878
335.882
335.879
335.911
335.913
335.914
335.92
335.939
335.832
333.391
333.413
333.517
333.498
333.495
333.499
333.501
333.47
333.475
333.472
333.503
333.503
333.5
333.503
333.522
333.417
330.711
330.722
330.817
330.799
330.798
330.803
330.807
330.779
330.784
330.78
330.809
330.807
330.803
330.804
330.822
330.725
327.903
327.907
327.989
327.973
327.973
327.978
327.982
327.957
327.962
327.958
327.984
327.981
327.978
327.978
327.994
327.91
325.075
325.076
325.143
325.13
325.13
325.134
325.137
325.117
325.121
325.118
325.139
325.137
325.133
325.133
325.147
325.078
322.284
322.284
322.335
322.325
322.325
322.329
322.331
322.315
322.319
322.316
322.332
322.331
322.328
322.328
322.338
322.286
319.553
319.554
319.589
319.582
319.582
319.585
319.586
319.575
319.578
319.576
319.587
319.586
319.584
319.584
319.591
319.555
316.887
316.888
316.908
316.905
316.904
316.906
316.907
316.9
316.902
316.901
316.907
316.907
316.905
316.906
316.91
316.888
314.283
314.283
314.29
314.289
314.289
314.289
314.29
314.287
314.288
314.288
314.29
314.29
314.289
314.289
314.29
314.284
347.075
346.924
346.696
346.578
346.532
346.527
346.535
346.544
346.545
346.541
346.53
346.522
346.526
346.572
346.691
346.92
347.024
346.875
346.65
346.531
346.483
346.477
346.484
346.492
346.494
346.49
346.479
346.472
346.477
346.525
346.645
346.871
346.973
346.826
346.604
346.484
346.435
346.428
346.434
346.442
346.443
346.439
346.429
346.422
346.429
346.478
346.599
346.822
346.922
346.777
346.558
346.438
346.387
346.379
346.384
346.392
346.393
346.389
346.38
346.374
346.382
346.432
346.553
346.773
346.871
346.728
346.513
346.392
346.34
346.331
346.335
346.342
346.344
346.34
346.331
346.325
346.335
346.387
346.508
346.724
346.821
346.679
346.467
346.347
346.294
346.283
346.287
346.294
346.295
346.291
346.283
346.278
346.288
346.341
346.462
346.676
346.77
346.63
346.422
346.302
346.247
346.236
346.239
346.245
346.246
346.243
346.235
346.231
346.242
346.296
346.417
346.627
346.72
346.582
346.377
346.257
346.202
346.189
346.192
346.198
346.199
346.196
346.188
346.184
346.196
346.252
346.372
346.579
346.67
346.534
346.332
346.212
346.156
346.143
346.145
346.15
346.151
346.148
346.141
346.138
346.151
346.207
346.327
346.53
346.62
346.485
346.287
346.168
346.111
346.097
346.098
346.104
346.104
346.102
346.094
346.092
346.106
346.163
346.283
346.482
346.57
346.437
346.242
346.124
346.066
346.051
346.052
346.057
346.058
346.055
346.049
346.047
346.061
346.119
346.238
346.434
346.52
346.39
346.198
346.08
346.022
346.006
346.007
346.011
346.012
346.009
346.003
346.002
346.017
346.076
346.194
346.386
346.471
346.342
346.154
346.037
345.978
345.962
345.961
345.966
345.966
345.964
345.958
345.957
345.973
346.032
346.149
346.339
346.422
346.295
346.109
345.994
345.934
345.917
345.917
345.921
345.921
345.919
345.913
345.913
345.929
345.989
346.105
346.291
346.373
346.247
346.065
345.95
345.891
345.873
345.872
345.876
345.876
345.874
345.868
345.868
345.886
345.946
346.061
346.244
346.324
346.2
346.022
345.907
345.847
345.829
345.828
345.831
345.832
345.829
345.824
345.825
345.843
345.903
346.017
346.197
346.275
346.154
345.978
345.864
345.804
345.785
345.784
345.787
345.787
345.785
345.78
345.781
345.799
345.86
345.974
346.151
346.227
346.107
345.934
345.822
345.761
345.742
345.74
345.743
345.743
345.741
345.736
345.737
345.756
345.817
345.93
346.104
346.179
346.061
345.89
345.779
345.718
345.698
345.696
345.699
345.699
345.697
345.693
345.694
345.713
345.774
345.886
346.058
346.131
346.015
345.846
345.736
345.674
345.655
345.653
345.655
345.655
345.654
345.649
345.651
345.67
345.731
345.842
346.012
346.084
345.969
345.803
345.693
345.631
345.611
345.609
345.612
345.611
345.61
345.606
345.607
345.627
345.689
345.799
345.966
346.037
345.923
345.759
345.65
345.588
345.568
345.565
345.568
345.568
345.566
345.562
345.564
345.584
345.646
345.755
345.92
345.99
345.877
345.715
345.607
345.545
345.525
345.522
345.524
345.524
345.523
345.519
345.521
345.541
345.603
345.711
345.874
345.943
345.831
345.671
345.564
345.502
345.481
345.478
345.481
345.48
345.479
345.475
345.477
345.497
345.56
345.667
345.828
345.896
345.786
345.627
345.52
345.458
345.438
345.435
345.437
345.437
345.435
345.432
345.434
345.454
345.516
345.623
345.783
345.85
345.74
345.583
345.477
345.415
345.394
345.391
345.394
345.393
345.392
345.388
345.39
345.411
345.473
345.579
345.737
345.803
345.694
345.539
345.434
345.371
345.35
345.347
345.35
345.349
345.348
345.344
345.347
345.367
345.43
345.535
345.691
345.757
345.649
345.494
345.39
345.327
345.307
345.304
345.306
345.305
345.304
345.301
345.303
345.323
345.386
345.491
345.646
345.71
345.603
345.45
345.346
345.283
345.263
345.26
345.262
345.261
345.26
345.257
345.259
345.279
345.342
345.446
345.6
345.664
345.557
345.405
345.302
345.239
345.218
345.216
345.218
345.217
345.216
345.213
345.215
345.235
345.298
345.401
345.554
345.618
345.511
345.36
345.258
345.195
345.174
345.171
345.173
345.173
345.172
345.168
345.171
345.191
345.254
345.356
345.508
345.572
345.465
345.315
345.213
345.15
345.13
345.127
345.129
345.128
345.127
345.124
345.126
345.146
345.209
345.311
345.462
345.525
345.419
345.27
345.168
345.105
345.085
345.082
345.084
345.084
345.083
345.079
345.081
345.102
345.164
345.266
345.416
345.479
345.372
345.224
345.123
345.06
345.04
345.037
345.039
345.039
345.038
345.034
345.036
345.057
345.119
345.22
345.37
345.433
345.326
345.178
345.078
345.015
344.995
344.992
344.994
344.993
344.993
344.989
344.991
345.011
345.074
345.174
345.323
345.386
345.279
345.132
345.032
344.969
344.949
344.947
344.949
344.948
344.947
344.944
344.946
344.966
345.028
345.128
345.276
345.339
345.232
345.085
344.986
344.923
344.903
344.901
344.903
344.902
344.901
344.898
344.9
344.92
344.982
345.081
345.229
345.292
345.184
345.038
344.94
344.877
344.857
344.855
344.857
344.856
344.855
344.852
344.853
344.873
344.936
345.034
345.182
345.245
345.137
344.991
344.893
344.83
344.81
344.808
344.81
344.809
344.809
344.805
344.807
344.826
344.889
344.987
345.134
345.197
345.088
344.943
344.845
344.782
344.763
344.761
344.763
344.762
344.762
344.758
344.76
344.779
344.842
344.939
345.086
345.15
345.04
344.894
344.797
344.734
344.715
344.713
344.716
344.715
344.714
344.711
344.712
344.731
344.794
344.89
345.037
345.101
344.99
344.845
344.748
344.685
344.667
344.665
344.668
344.667
344.666
344.662
344.663
344.682
344.745
344.841
344.988
345.052
344.94
344.795
344.699
344.636
344.617
344.616
344.619
344.618
344.617
344.613
344.614
344.633
344.695
344.791
344.937
345.003
344.889
344.744
344.648
344.585
344.567
344.566
344.569
344.568
344.567
344.564
344.564
344.582
344.645
344.74
344.886
344.952
344.837
344.692
344.597
344.534
344.516
344.515
344.518
344.517
344.516
344.513
344.513
344.531
344.593
344.688
344.834
344.9
344.784
344.638
344.544
344.481
344.464
344.463
344.466
344.465
344.464
344.46
344.46
344.478
344.541
344.635
344.781
344.847
344.729
344.584
344.49
344.427
344.41
344.409
344.412
344.411
344.411
344.407
344.407
344.424
344.486
344.58
344.727
344.793
344.673
344.527
344.434
344.371
344.354
344.354
344.357
344.356
344.355
344.351
344.351
344.368
344.43
344.523
344.67
344.736
344.615
344.468
344.376
344.313
344.296
344.297
344.3
344.298
344.298
344.294
344.293
344.309
344.372
344.465
344.612
344.677
344.554
344.407
344.315
344.252
344.236
344.237
344.24
344.238
344.238
344.234
344.233
344.249
344.311
344.403
344.551
344.615
344.489
344.342
344.251
344.188
344.172
344.173
344.176
344.175
344.175
344.171
344.169
344.185
344.247
344.339
344.487
344.548
344.42
344.273
344.182
344.119
344.104
344.105
344.108
344.107
344.107
344.103
344.101
344.116
344.179
344.269
344.418
344.475
344.346
344.198
344.107
344.044
344.03
344.032
344.035
344.034
344.033
344.029
344.027
344.041
344.104
344.194
344.343
344.396
344.264
344.115
344.025
343.963
343.949
343.951
343.954
343.953
343.953
343.949
343.946
343.96
344.022
344.112
344.261
344.308
344.174
344.024
343.935
343.872
343.859
343.862
343.865
343.864
343.863
343.86
343.856
343.869
343.932
344.021
344.171
344.211
344.073
343.922
343.834
343.771
343.758
343.762
343.765
343.764
343.764
343.76
343.756
343.768
343.831
343.919
344.07
344.101
343.96
343.808
343.72
343.657
343.645
343.65
343.652
343.652
343.651
343.648
343.643
343.654
343.717
343.804
343.957
343.976
343.831
343.677
343.59
343.527
343.516
343.522
343.524
343.523
343.523
343.52
343.514
343.524
343.587
343.674
343.828
343.833
343.683
343.527
343.44
343.377
343.368
343.374
343.377
343.376
343.376
343.372
343.366
343.375
343.438
343.523
343.68
343.666
343.511
343.352
343.267
343.203
343.196
343.203
343.205
343.205
343.204
343.201
343.193
343.201
343.264
343.349
343.508
343.47
343.31
343.148
343.064
343
342.994
343.003
343.004
343.004
343.003
343.001
342.992
342.998
343.061
343.145
343.307
343.238
343.072
342.906
342.823
342.758
342.754
342.765
342.767
342.767
342.766
342.763
342.753
342.757
342.82
342.903
343.069
342.96
342.787
342.617
342.535
342.47
342.468
342.481
342.482
342.483
342.481
342.479
342.467
342.469
342.533
342.614
342.784
342.624
342.442
342.267
342.187
342.121
342.123
342.137
342.138
342.139
342.137
342.136
342.122
342.12
342.185
342.265
342.439
342.213
342.021
341.84
341.761
341.694
341.7
341.716
341.717
341.718
341.716
341.715
341.699
341.694
341.759
341.837
342.018
341.696
341.491
341.301
341.225
341.157
341.167
341.187
341.187
341.189
341.187
341.186
341.167
341.158
341.224
341.299
341.488
341.022
340.799
340.597
340.523
340.454
340.47
340.494
340.494
340.498
340.495
340.494
340.471
340.455
340.523
340.595
340.796
340.119
339.873
339.656
339.585
339.514
339.538
339.568
339.568
339.572
339.568
339.568
339.54
339.517
339.585
339.654
339.87
338.896
338.623
338.389
338.322
338.25
338.283
338.319
338.319
338.325
338.32
338.321
338.286
338.254
338.323
338.388
338.62
337.263
336.964
336.714
336.652
336.58
336.622
336.665
336.665
336.672
336.666
336.667
336.626
336.585
336.655
336.714
336.961
335.181
334.865
334.607
334.551
334.481
334.53
334.577
334.577
334.586
334.579