/*--------------------------------*- C++ -*----------------------------------*\
| =========                 |                                                 |
| \\      /  F ield         | OpenFOAM: The Open Source CFD Toolbox           |
|  \\    /   O peration     | Version:  v1912                                 |
|   \\  /    A nd           | Website:  www.openfoam.com                      |
|    \\/     M anipulation  |                                                 |
\*---------------------------------------------------------------------------*/
FoamFile
{
    version     2.0;
    format      ascii;
    class       volVectorField;
    location    "196.8";
    object      UMean;
}
// * * * * * * * * * * * * * * * * * * * * * * * * * * * * * * * * * * * * * //

dimensions      [0 1 -1 0 0 0 0];


internalField   nonuniform List<vector> 
10147
(
(3.43102e-05 0.00511258 0.271305)
(0.00182555 0.00256999 0.273937)
(0.000627919 0.0016216 0.278087)
(0.000537294 0.00184432 0.279194)
(9.07459e-05 0.00174492 0.279318)
(0.000148777 0.00205528 0.279031)
(2.29498e-05 0.00207745 0.278866)
(2.77416e-05 0.00224068 0.278729)
(1.01424e-06 0.00220336 0.278669)
(-2.82882e-05 0.00225603 0.278684)
(-1.2641e-05 0.0021047 0.278785)
(-0.00013426 0.00208584 0.278909)
(-5.66331e-05 0.00177803 0.279149)
(-0.0004859 0.00186746 0.27895)
(-0.000566623 0.0016333 0.277857)
(-0.00175358 0.00256804 0.273797)
(6.47066e-05 -0.00317741 0.27926)
(4.46179e-05 -0.00331262 0.279647)
(7.57106e-05 -0.0033696 0.279815)
(4.08418e-05 -0.00343847 0.279801)
(1.60045e-05 -0.00342215 0.27978)
(-1.08953e-05 -0.00342682 0.279761)
(-4.48652e-05 -0.00334933 0.279747)
(-1.54494e-05 -0.00329034 0.27955)
(-3.27739e-05 -0.0031558 0.27913)
(0.000228031 -0.00302889 0.278218)
(2.67665e-05 -0.00320941 0.277366)
(0.000677755 -0.00319483 0.276798)
(-1.97719e-05 -0.00227855 0.275626)
(-3.89006e-05 -0.00235523 0.275807)
(-0.000107062 -0.00240892 0.276079)
(-0.000166205 -0.0024378 0.276051)
(-0.000615256 -0.00243113 0.274821)
(-0.000468627 -0.00142956 0.27118)
(0.000416667 -0.00199374 0.275958)
(3.49843e-05 0.00498199 0.271731)
(0.00178124 0.00253749 0.274113)
(0.000635928 0.0016607 0.277945)
(0.000553327 0.00185122 0.278988)
(0.000100003 0.00174872 0.27913)
(0.000156254 0.00204873 0.278893)
(2.4895e-05 0.00207049 0.278768)
(2.84443e-05 0.00223099 0.278659)
(1.30563e-07 0.00219391 0.278609)
(-3.07068e-05 0.00224653 0.27862)
(-1.58323e-05 0.00209803 0.278697)
(-0.000142191 0.00207951 0.278784)
(-6.53941e-05 0.00178186 0.278976)
(-0.000500579 0.0018745 0.278753)
(-0.000572906 0.00167237 0.277719)
(-0.00170762 0.0025357 0.273973)
(3.56664e-05 0.00485412 0.272067)
(0.00172986 0.00250354 0.274206)
(0.000634205 0.00169564 0.277728)
(0.00056816 0.00185613 0.2787)
(0.000109053 0.00175065 0.278856)
(0.000163125 0.0020405 0.278665)
(2.69199e-05 0.00206175 0.278577)
(2.92873e-05 0.00221944 0.278496)
(-7.50565e-07 0.00218259 0.278454)
(-3.32491e-05 0.00223513 0.278462)
(-1.90574e-05 0.00208954 0.278516)
(-0.00014948 0.00207145 0.278569)
(-7.39409e-05 0.00178374 0.278717)
(-0.000514074 0.00187951 0.278475)
(-0.000569485 0.00170726 0.277506)
(-0.00165461 0.00250192 0.274065)
(3.63563e-05 0.00473111 0.272312)
(0.00167503 0.00246819 0.274217)
(0.000625232 0.00172537 0.277439)
(0.00058111 0.0018589 0.278338)
(0.00011784 0.00175053 0.278502)
(0.000169486 0.00203052 0.278353)
(2.894e-05 0.00205126 0.2783)
(3.02119e-05 0.00220608 0.278244)
(-1.62663e-06 0.00216949 0.278212)
(-3.58493e-05 0.00222191 0.278217)
(-2.22355e-05 0.00207927 0.278249)
(-0.00015623 0.00206162 0.27827)
(-8.22179e-05 0.00178355 0.278379)
(-0.000525707 0.00188235 0.278123)
(-0.000558847 0.00173696 0.27722)
(-0.00159815 0.00246677 0.274076)
(3.70608e-05 0.00461301 0.272469)
(0.00161968 0.0024326 0.274146)
(0.000612629 0.00175004 0.277081)
(0.000592297 0.00185948 0.277904)
(0.000126252 0.00174856 0.278074)
(0.000175455 0.00201894 0.277962)
(3.09091e-05 0.00203911 0.277941)
(3.11579e-05 0.00219103 0.27791)
(-2.50447e-06 0.00215472 0.277886)
(-3.84582e-05 0.00220698 0.277888)
(-2.53371e-05 0.00206729 0.2779)
(-0.000162567 0.00205013 0.277891)
(-9.01048e-05 0.00178145 0.277965)
(-0.00053559 0.00188295 0.277698)
(-0.000544602 0.00176158 0.276866)
(-0.00154117 0.00243138 0.274005)
(3.77827e-05 0.00449909 0.272541)
(0.00156502 0.00239662 0.273997)
(0.000598079 0.00177012 0.276655)
(0.00060189 0.00185786 0.277402)
(0.000134264 0.00174478 0.277574)
(0.0001811 0.00200584 0.277497)
(3.28076e-05 0.0020254 0.277506)
(3.20999e-05 0.00217438 0.277497)
(-3.38583e-06 0.00213836 0.277481)
(-4.10529e-05 0.00219043 0.27748)
(-2.83473e-05 0.00205371 0.277473)
(-0.000168562 0.00203707 0.277437)
(-9.75781e-05 0.0017775 0.277478)
(-0.000543889 0.00188133 0.277205)
(-0.000528431 0.00178161 0.276443)
(-0.00148488 0.00239561 0.273856)
(3.85232e-05 0.00438914 0.272528)
(0.00151177 0.00236039 0.273771)
(0.000582586 0.00178587 0.276163)
(0.000610047 0.00185412 0.276835)
(0.000141884 0.00173927 0.277006)
(0.000186469 0.0019913 0.27696)
(3.46241e-05 0.0020102 0.276997)
(3.30239e-05 0.00215624 0.27701)
(-4.27048e-06 0.00212053 0.277)
(-4.36195e-05 0.00217236 0.276998)
(-3.12566e-05 0.0020386 0.276973)
(-0.000174266 0.00202253 0.276911)
(-0.000104644 0.00177179 0.276924)
(-0.000550765 0.00187755 0.276647)
(-0.000511336 0.0017973 0.275956)
(-0.00143 0.0023596 0.27363)
(3.92824e-05 0.00428293 0.272433)
(0.00146039 0.00232401 0.273468)
(0.000566832 0.00179754 0.275609)
(0.000616924 0.00184831 0.276206)
(0.000149122 0.00173209 0.276374)
(0.000191601 0.0019754 0.276355)
(3.6352e-05 0.0019936 0.276418)
(3.39203e-05 0.0021367 0.276451)
(-5.15744e-06 0.00210131 0.276448)
(-4.61483e-05 0.00215286 0.276444)
(-3.4059e-05 0.00202206 0.276403)
(-0.000179717 0.00200658 0.276317)
(-0.000111315 0.00176437 0.276304)
(-0.000556373 0.00187168 0.276027)
(-0.000494002 0.00180891 0.275406)
(-0.00137698 0.00232345 0.273327)
(4.00591e-05 0.00418022 0.272256)
(0.00141119 0.00228753 0.273092)
(0.000551265 0.0018054 0.274993)
(0.000622666 0.00184054 0.275517)
(0.000155992 0.00172331 0.27568)
(0.000196524 0.00195821 0.275686)
(3.79875e-05 0.00197568 0.275774)
(3.47828e-05 0.00211583 0.275825)
(-6.04616e-06 0.00208078 0.275829)
(-4.86333e-05 0.00213202 0.275822)
(-3.67509e-05 0.00200416 0.275766)
(-0.000184944 0.00198929 0.275658)
(-0.000117608 0.00175531 0.275622)
(-0.000560862 0.00186381 0.275346)
(-0.000476878 0.00181668 0.274794)
(-0.00132615 0.00228719 0.272951)
(4.08515e-05 0.00408075 0.272001)
(0.00136435 0.00225097 0.272643)
(0.000536157 0.00180969 0.274318)
(0.000627407 0.00183089 0.274771)
(0.000162509 0.00171299 0.274928)
(0.000201258 0.0019398 0.274956)
(3.95284e-05 0.00195652 0.275065)
(3.56075e-05 0.00209372 0.275135)
(-6.93664e-06 0.00205903 0.275144)
(-5.10709e-05 0.00210992 0.275136)
(-3.93305e-05 0.00198497 0.275065)
(-0.000189966 0.00197073 0.274938)
(-0.000123539 0.00174468 0.274881)
(-0.000564366 0.00185405 0.274608)
(-0.000460239 0.00182089 0.274122)
(-0.00127768 0.00225086 0.272503)
(4.16569e-05 0.00398429 0.271667)
(0.00131994 0.00221435 0.272124)
(0.000521663 0.00181067 0.273585)
(0.000631267 0.00181945 0.27397)
(0.000168684 0.00170119 0.27412)
(0.000205819 0.00192023 0.274168)
(4.09721e-05 0.00193618 0.274297)
(3.63916e-05 0.00207044 0.274383)
(-7.82861e-06 0.00203613 0.274397)
(-5.3458e-05 0.00208663 0.274388)
(-4.17955e-05 0.00196457 0.274304)
(-0.000194797 0.00195097 0.274158)
(-0.00012912 0.00173253 0.274083)
(-0.00056701 0.00184247 0.273814)
(-0.000444241 0.00182177 0.273392)
(-0.00123166 0.00221446 0.271984)
(4.24725e-05 0.00389062 0.271256)
(0.001278 0.00217768 0.271536)
(0.000507863 0.00180856 0.272796)
(0.000634362 0.00180631 0.273116)
(0.000174524 0.00168798 0.273258)
(0.000210216 0.00189955 0.273323)
(4.23162e-05 0.00191473 0.273472)
(3.71316e-05 0.00204606 0.273572)
(-8.72153e-06 0.00201216 0.273592)
(-5.57916e-05 0.00206222 0.273582)
(-4.41441e-05 0.00194302 0.273486)
(-0.000199449 0.00193007 0.273323)
(-0.000134364 0.00171894 0.273232)
(-0.000568909 0.00182917 0.272968)
(-0.000428968 0.00181955 0.272607)
(-0.00118811 0.00217801 0.271396)
(4.32951e-05 0.00379953 0.270771)
(0.0012385 0.00214096 0.270881)
(0.000494796 0.00180358 0.271953)
(0.000636795 0.00179157 0.272213)
(0.00018004 0.0016734 0.272346)
(0.00021446 0.00187784 0.272427)
(4.35593e-05 0.00189224 0.272592)
(3.78249e-05 0.00202066 0.272707)
(-9.61515e-06 0.00198717 0.272731)
(-5.807e-05 0.00203677 0.27272)
(-4.63748e-05 0.0019204 0.272613)
(-0.000203931 0.0019081 0.272435)
(-0.000139278 0.00170396 0.272329)
(-0.00057017 0.00181426 0.272072)
(-0.000414464 0.00181446 0.271768)
(-0.00114703 0.0021415 0.270742)
(4.4121e-05 0.00371084 0.270213)
(0.00120138 0.00210421 0.270162)
(0.000482479 0.00179594 0.271058)
(0.000638665 0.00177532 0.271262)
(0.000185241 0.00165753 0.271386)
(0.000218561 0.00185514 0.27148)
(4.47035e-05 0.00186877 0.271661)
(3.84713e-05 0.0019943 0.271788)
(-1.05093e-05 0.00196124 0.271817)
(-6.02931e-05 0.00201034 0.271806)
(-4.84873e-05 0.00189676 0.271689)
(-0.000208257 0.0018851 0.271496)
(-0.000143874 0.00168765 0.271378)
(-0.000570893 0.00179781 0.271127)
(-0.000400746 0.00180671 0.270877)
(-0.00110835 0.00210496 0.270024)
(4.49468e-05 0.00362436 0.269584)
(0.00116657 0.00206744 0.26938)
(0.000470914 0.00178585 0.270114)
(0.000640064 0.00175763 0.270264)
(0.000190136 0.00164044 0.270379)
(0.000222536 0.00183152 0.270485)
(4.57534e-05 0.00184439 0.27068)
(3.90731e-05 0.00196705 0.270819)
(-1.14042e-05 0.00193444 0.270852)
(-6.2462e-05 0.001983 0.270841)
(-5.0484e-05 0.00187218 0.270714)
(-0.000212438 0.00186116 0.270509)
(-0.000148161 0.00167009 0.27038)
(-0.000571169 0.00177991 0.270135)
(-0.000387819 0.00179649 0.269936)
(-0.00107201 0.00206838 0.269242)
(4.57691e-05 0.00353994 0.268886)
(0.00113399 0.00203066 0.268537)
(0.000460089 0.0017735 0.269121)
(0.000641074 0.00173862 0.269223)
(0.000194737 0.00162218 0.269328)
(0.000226398 0.00180704 0.269443)
(4.67128e-05 0.00181918 0.269651)
(3.96322e-05 0.00193898 0.269802)
(-1.23e-05 0.00190684 0.269838)
(-6.45786e-05 0.00195483 0.269827)
(-5.23697e-05 0.00184673 0.269692)
(-0.00021649 0.00183632 0.269476)
(-0.000152151 0.00165135 0.269337)
(-0.000571084 0.00176067 0.269099)
(-0.000375671 0.00178399 0.268946)
(-0.00103793 0.00203178 0.2684)
(4.6585e-05 0.00345745 0.268119)
(0.00110355 0.00199387 0.267634)
(0.000449988 0.00175906 0.268081)
(0.000641773 0.00171835 0.268138)
(0.000199058 0.00160284 0.268233)
(0.00023016 0.00178176 0.268358)
(4.75863e-05 0.00179319 0.268577)
(4.01504e-05 0.00191016 0.268738)
(-1.31956e-05 0.00187851 0.268778)
(-6.66458e-05 0.00192589 0.268767)
(-5.41508e-05 0.00182048 0.268624)
(-0.000220426 0.00181066 0.268397)
(-0.000155858 0.0016315 0.26825)
(-0.000570715 0.00174017 0.26802)
(-0.000364287 0.0017694 0.26791)
(-0.00100604 0.00199518 0.267498)
(4.73918e-05 0.00337677 0.267287)
(0.00107519 0.00195711 0.266674)
(0.000440587 0.00174272 0.266996)
(0.000642233 0.00169694 0.267011)
(0.000203111 0.00158249 0.267096)
(0.000233836 0.00175576 0.267228)
(4.83792e-05 0.00176652 0.267459)
(4.06305e-05 0.00188068 0.267629)
(-1.40886e-05 0.00184952 0.267671)
(-6.86667e-05 0.00189628 0.267661)
(-5.58366e-05 0.00179351 0.267512)
(-0.000224263 0.00178424 0.267275)
(-0.000159295 0.00161061 0.267121)
(-0.000570132 0.0017185 0.266898)
(-0.000353643 0.0017529 0.266828)
(-0.000976252 0.00195858 0.266539)
(4.81868e-05 0.00329778 0.26639)
(0.00104882 0.00192039 0.265658)
(0.000431864 0.00172465 0.265867)
(0.000642521 0.00167447 0.265842)
(0.000206909 0.00156122 0.265918)
(0.000237439 0.00172912 0.266057)
(4.90988e-05 0.00173924 0.266296)
(4.10766e-05 0.00185063 0.266475)
(-1.49763e-05 0.00181998 0.26652)
(-7.06435e-05 0.00186607 0.266511)
(-5.74393e-05 0.00176591 0.266355)
(-0.000228021 0.00175716 0.266111)
(-0.000162481 0.00158879 0.265951)
(-0.000569398 0.00169577 0.265735)
(-0.000343713 0.00173466 0.265702)
(-0.000948509 0.00192202 0.265524)
(4.8968e-05 0.00322042 0.26543)
(0.00102439 0.00188375 0.264586)
(0.000423798 0.00170502 0.264693)
(0.000642697 0.00165105 0.264633)
(0.000210464 0.0015391 0.264699)
(0.000240985 0.00170187 0.264843)
(4.97536e-05 0.00171139 0.265091)
(4.14929e-05 0.00182002 0.265278)
(-1.58573e-05 0.0017899 0.265325)
(-7.25784e-05 0.00183529 0.265316)
(-5.89709e-05 0.00173771 0.265155)
(-0.000231721 0.00172944 0.264904)
(-0.000165434 0.0015661 0.264739)
(-0.000568572 0.00167208 0.264531)
(-0.000334472 0.00171486 0.264531)
(-0.000922733 0.00188552 0.264453)
(4.97339e-05 0.00314451 0.264408)
(0.0010018 0.00184712 0.263461)
(0.00041637 0.00168394 0.263475)
(0.000642836 0.00162671 0.263382)
(0.000213781 0.00151615 0.26344)
(0.000244486 0.00167399 0.263587)
(5.03515e-05 0.00168293 0.263842)
(4.18821e-05 0.00178882 0.264036)
(-1.67303e-05 0.00175923 0.264086)
(-7.44732e-05 0.00180391 0.264079)
(-6.04413e-05 0.00170887 0.263912)
(-0.000235381 0.00170108 0.263655)
(-0.000168164 0.00154257 0.263487)
(-0.000567721 0.00164746 0.263285)
(-0.000325894 0.00169359 0.263316)
(-0.000898847 0.00184904 0.263329)
(5.04848e-05 0.00306988 0.263324)
(0.000980979 0.00181043 0.262282)
(0.000409583 0.00166144 0.262214)
(0.000642997 0.00160151 0.262091)
(0.000216863 0.0014924 0.262137)
(0.000247954 0.00164549 0.26229)
(5.0897e-05 0.00165382 0.262551)
(4.22448e-05 0.00175696 0.262752)
(-1.75953e-05 0.00172791 0.262804)
(-7.63282e-05 0.00177187 0.262798)
(-6.18561e-05 0.00167938 0.262627)
(-0.000239014 0.00167207 0.262363)
(-0.000170683 0.00151823 0.262191)
(-0.000566907 0.00162198 0.261998)
(-0.000317975 0.00167091 0.262058)
(-0.000876758 0.00181247 0.262152)
(5.12231e-05 0.00299625 0.262181)
(0.000961824 0.0017735 0.261051)
(0.000403486 0.00163754 0.260909)
(0.000643189 0.0015754 0.260753)
(0.000219737 0.00146773 0.260784)
(0.000251426 0.00161624 0.260945)
(5.13979e-05 0.00162398 0.261214)
(4.25841e-05 0.00172439 0.261423)
(-1.84532e-05 0.00169588 0.261476)
(-7.81476e-05 0.00173909 0.261471)
(-6.32251e-05 0.00164913 0.261295)
(-0.000242662 0.00164231 0.261024)
(-0.000173024 0.00149296 0.260845)
(-0.000566136 0.00159558 0.260665)
(-0.000310759 0.00164683 0.260757)
(-0.000856365 0.00177566 0.260922)
(5.19506e-05 0.00292337 0.26098)
(0.000944233 0.00173617 0.259768)
(0.000398062 0.0016122 0.259557)
(0.000643374 0.00154824 0.259361)
(0.000222453 0.00144204 0.259374)
(0.000254926 0.00158611 0.259544)
(5.18653e-05 0.00159327 0.259824)
(4.29104e-05 0.00169096 0.260042)
(-1.93063e-05 0.00166299 0.260097)
(-7.99449e-05 0.00170545 0.260093)
(-6.45628e-05 0.00161799 0.259909)
(-0.000246354 0.00161166 0.259629)
(-0.000175242 0.00146668 0.259442)
(-0.000565375 0.00156815 0.259278)
(-0.000304219 0.00162131 0.259408)
(-0.000837563 0.00173846 0.25964)
(5.26682e-05 0.00285102 0.259723)
(0.000928104 0.00169833 0.258434)
(0.000393142 0.00158537 0.25815)
(0.000643489 0.00152005 0.257914)
(0.000225047 0.00141535 0.257911)
(0.000258439 0.00155511 0.258087)
(5.23001e-05 0.00156166 0.258377)
(4.32319e-05 0.00165661 0.258604)
(-2.01555e-05 0.00162917 0.258661)
(-8.1729e-05 0.00167088 0.258658)
(-6.58715e-05 0.00158594 0.258467)
(-0.000250084 0.00158011 0.258179)
(-0.000177382 0.00143937 0.257984)
(-0.000564569 0.00153966 0.257836)
(-0.000298183 0.0015943 0.258005)
(-0.000820248 0.00170073 0.258308)
(5.33753e-05 0.00277904 0.258411)
(0.000913336 0.00165988 0.257052)
(0.000388478 0.0015571 0.256689)
(0.000643487 0.00149083 0.256416)
(0.000227536 0.00138766 0.256398)
(0.000261945 0.00152326 0.256581)
(5.26955e-05 0.00152921 0.256879)
(4.35487e-05 0.00162141 0.257114)
(-2.09994e-05 0.00159451 0.257173)
(-8.34973e-05 0.00163545 0.25717)
(-6.71435e-05 0.00155303 0.256974)
(-0.000253835 0.00154771 0.256678)
(-0.000179468 0.00141106 0.256478)
(-0.000563675 0.00151015 0.256343)
(-0.000292407 0.00156586 0.256546)
(-0.000804322 0.00166239 0.256927)
(5.40713e-05 0.0027073 0.257047)
(0.000899835 0.00162079 0.255621)
(0.000383873 0.00152752 0.255176)
(0.000643368 0.0014606 0.254874)
(0.000229914 0.00135898 0.254844)
(0.000265426 0.00149058 0.255032)
(5.3044e-05 0.00149594 0.255336)
(4.38563e-05 0.0015854 0.255577)
(-2.18365e-05 0.00155903 0.255637)
(-8.52435e-05 0.0015992 0.255636)
(-6.83702e-05 0.0015193 0.255434)
(-0.000257593 0.00151448 0.255133)
(-0.000181503 0.00138176 0.254928)
(-0.000562696 0.00147961 0.254805)
(-0.000286696 0.00153609 0.255036)
(-0.000789692 0.00162339 0.255498)
(5.4755e-05 0.00263573 0.255631)
(0.000887523 0.00158104 0.254144)
(0.000379264 0.00149668 0.253618)
(0.000643164 0.00142936 0.253291)
(0.000232168 0.00132932 0.253252)
(0.000268872 0.00145709 0.253444)
(5.33399e-05 0.00146188 0.253753)
(4.41494e-05 0.00154861 0.254)
(-2.26662e-05 0.00152277 0.25406)
(-8.6962e-05 0.00156216 0.25406)
(-6.95457e-05 0.00148476 0.253855)
(-0.000261355 0.00148041 0.253549)
(-0.000183478 0.00135146 0.25334)
(-0.000561662 0.00144805 0.253226)
(-0.00028099 0.00150507 0.253481)
(-0.00077628 0.00158374 0.254023)
(5.54245e-05 0.00256427 0.254166)
(0.000876346 0.00154068 0.252621)
(0.000374681 0.00146468 0.252019)
(0.000642918 0.00139714 0.251673)
(0.000234282 0.00129868 0.251625)
(0.000272283 0.00142279 0.251821)
(5.35805e-05 0.00142705 0.252135)
(4.44245e-05 0.00151107 0.252386)
(-2.3489e-05 0.00148576 0.252447)
(-8.86506e-05 0.00152437 0.252448)
(-7.06672e-05 0.00144945 0.252239)
(-0.000265121 0.00144554 0.25193)
(-0.000185377 0.00132019 0.251717)
(-0.000560618 0.00141551 0.251611)
(-0.000275322 0.00147288 0.251884)
(-0.000764029 0.00154347 0.252501)
(5.60782e-05 0.00249289 0.252652)
(0.000866225 0.00149974 0.251052)
(0.000370179 0.00143157 0.250381)
(0.000642679 0.00136396 0.250021)
(0.000236247 0.00126709 0.249967)
(0.000275664 0.00138769 0.250167)
(5.37666e-05 0.00139146 0.250484)
(4.4681e-05 0.00147279 0.250739)
(-2.43067e-05 0.00144801 0.2508)
(-9.03103e-05 0.00148583 0.250802)
(-7.17353e-05 0.00141337 0.25059)
(-0.000268899 0.00140987 0.250277)
(-0.000187185 0.00128796 0.250062)
(-0.000559609 0.00138199 0.249961)
(-0.000269745 0.00143958 0.250248)
(-0.000752852 0.00150261 0.250932)
(5.67154e-05 0.00242163 0.25109)
(0.000857062 0.00145822 0.249433)
(0.000365798 0.00139741 0.248706)
(0.000642488 0.00132983 0.248336)
(0.000238055 0.00123454 0.248277)
(0.000279025 0.0013518 0.24848)
(5.39011e-05 0.00135512 0.2488)
(4.49207e-05 0.00143377 0.249058)
(-2.51219e-05 0.00140953 0.249119)
(-9.19453e-05 0.00144656 0.249122)
(-7.27524e-05 0.00137653 0.248908)
(-0.000272698 0.0013734 0.248593)
(-0.00018889 0.00125478 0.248374)
(-0.000558674 0.0013475 0.248278)
(-0.0002643 0.00140523 0.248575)
(-0.000742647 0.00146117 0.249314)
(5.7337e-05 0.00235042 0.249477)
(0.000848775 0.00141615 0.247766)
(0.000361559 0.00136223 0.246995)
(0.000642378 0.00129476 0.246617)
(0.000239706 0.00120104 0.246556)
(0.000282378 0.00131509 0.246761)
(5.39883e-05 0.00131801 0.247084)
(4.5147e-05 0.00139402 0.247344)
(-2.59371e-05 0.00137031 0.247405)
(-9.35614e-05 0.00140654 0.247409)
(-7.37228e-05 0.00133893 0.247193)
(-0.00027653 0.00133613 0.246876)
(-0.000190484 0.00122064 0.246654)
(-0.000557845 0.00131207 0.246561)
(-0.000259007 0.00136987 0.246866)
(-0.000733329 0.00141916 0.247647)
(5.79449e-05 0.00227919 0.247811)
(0.0008413 0.00137351 0.246052)
(0.000357464 0.00132604 0.245247)
(0.000642379 0.00125872 0.244866)
(0.000241198 0.00116657 0.244802)
(0.00028573 0.00127755 0.24501)
(5.4032e-05 0.00128009 0.245335)
(4.53645e-05 0.00135349 0.245597)
(-2.67544e-05 0.00133032 0.245658)
(-9.51663e-05 0.00136574 0.245663)
(-7.46503e-05 0.00130052 0.245445)
(-0.000280403 0.00129802 0.245126)
(-0.000191959 0.00118554 0.244902)
(-0.00055715 0.00127565 0.24481)
(-0.000253867 0.00133348 0.245119)
(-0.00072483 0.00137659 0.245934)
(5.85411e-05 0.00220792 0.246092)
(0.000834595 0.00133028 0.244293)
(0.000353506 0.0012888 0.243461)
(0.000642519 0.00122168 0.24308)
(0.000242533 0.00113107 0.243016)
(0.00028909 0.0012391 0.243225)
(5.40355e-05 0.00124132 0.243552)
(4.55777e-05 0.00131212 0.243816)
(-2.75756e-05 0.00128948 0.243876)
(-9.67674e-05 0.00132411 0.243883)
(-7.55377e-05 0.00126126 0.243664)
(-0.000284323 0.00125902 0.243343)
(-0.000193311 0.00114942 0.243117)
(-0.000556614 0.00123823 0.243025)
(-0.000248876 0.00129605 0.243334)
(-0.000717106 0.00133342 0.244176)
(5.91274e-05 0.00213653 0.244321)
(0.000828631 0.00128636 0.242491)
(0.000349677 0.00125046 0.241639)
(0.000642828 0.00118356 0.241259)
(0.000243709 0.00109449 0.241195)
(0.000292465 0.00119969 0.241407)
(5.40019e-05 0.00120161 0.241734)
(4.57902e-05 0.00126983 0.242)
(-2.84021e-05 0.00124773 0.24206)
(-9.83716e-05 0.00128154 0.242068)
(-7.63885e-05 0.00122107 0.241848)
(-0.000288294 0.00121906 0.241526)
(-0.000194534 0.00111223 0.241297)
(-0.000556265 0.00119972 0.241205)
(-0.000244026 0.00125751 0.241513)
(-0.000710125 0.00128956 0.242375)
(5.97055e-05 0.00206488 0.242502)
(0.000823379 0.00124167 0.240647)
(0.000345983 0.0012109 0.23978)
(0.000643332 0.00114429 0.239402)
(0.000244727 0.00105674 0.239338)
(0.000295862 0.0011592 0.239552)
(5.39338e-05 0.00116087 0.23988)
(4.60055e-05 0.00122652 0.240148)
(-2.92354e-05 0.00120496 0.240208)
(-9.99867e-05 0.00123796 0.240217)
(-7.7208e-05 0.00117983 0.239995)
(-0.00029232 0.00117802 0.239672)
(-0.000195624 0.00107386 0.23944)
(-0.00055613 0.00116004 0.239348)
(-0.000239326 0.00121776 0.239655)
(-0.000703857 0.00124491 0.240531)
(6.02766e-05 0.00199282 0.240636)
(0.000818802 0.00119606 0.23876)
(0.000342434 0.00117005 0.237883)
(0.00064405 0.00110372 0.237504)
(0.00024559 0.00101766 0.23744)
(0.000299292 0.00111748 0.237656)
(5.38335e-05 0.00111893 0.237985)
(4.62278e-05 0.00118205 0.238256)
(-3.00776e-05 0.00116102 0.238315)
(-0.000101623 0.00119321 0.238325)
(-7.80044e-05 0.00113741 0.238102)
(-0.000296405 0.00113577 0.237777)
(-0.00019658 0.00103417 0.237542)
(-0.000556225 0.00111906 0.23745)
(-0.000234788 0.0011767 0.237758)
(-0.000698265 0.00119934 0.238645)
(6.08416e-05 0.00192018 0.238725)
(0.000814836 0.00114937 0.236829)
(0.000339012 0.00112774 0.235945)
(0.000644988 0.00106172 0.235563)
(0.000246306 0.000977145 0.235499)
(0.000302758 0.0010744 0.235717)
(5.37023e-05 0.00107566 0.236048)
(4.64608e-05 0.00113625 0.23632)
(-3.09303e-05 0.00111575 0.236379)
(-0.000103288 0.00114713 0.23639)
(-7.87855e-05 0.00109366 0.236165)
(-0.000300552 0.00109215 0.23584)
(-0.000197404 0.00099305 0.235602)
(-0.000556558 0.00107663 0.23551)
(-0.000230396 0.00113418 0.235822)
(-0.000693285 0.00115269 0.236715)
(6.14013e-05 0.00184679 0.236772)
(0.000811404 0.00110143 0.234852)
(0.000335666 0.00108381 0.233964)
(0.000646146 0.00101815 0.233578)
(0.00024688 0.000935056 0.233514)
(0.000306262 0.00102983 0.233735)
(5.35416e-05 0.00103093 0.234066)
(4.6708e-05 0.00108901 0.234341)
(-3.17945e-05 0.00106904 0.234399)
(-0.000104989 0.0010996 0.234412)
(-7.95552e-05 0.00104845 0.234184)
(-0.00030476 0.00104705 0.233859)
(-0.000198098 0.000950357 0.233619)
(-0.00055713 0.00103264 0.233525)
(-0.000226107 0.00109005 0.233841)
(-0.000688845 0.00110478 0.234739)
(6.19566e-05 0.00177245 0.234774)
(0.000808445 0.00105208 0.232828)
(0.000332337 0.00103814 0.231938)
(0.000647521 0.000972895 0.231548)
(0.000247315 0.00089125 0.231486)
(0.000309802 0.000983612 0.231709)
(5.33525e-05 0.000984588 0.232041)
(4.69725e-05 0.00104016 0.232317)
(-3.26706e-05 0.00102072 0.232375)
(-0.00010673 0.00105046 0.232389)
(-8.03151e-05 0.00100162 0.23216)
(-0.000309022 0.0010003 0.231834)
(-0.00019866 0.000905949 0.231591)
(-0.000557943 0.000986932 0.231497)
(-0.00022187 0.00104416 0.231816)
(-0.000684884 0.00105544 0.232716)
(6.25078e-05 0.00169693 0.232728)
(0.000805904 0.00100115 0.230756)
(0.000328982 0.000990585 0.229865)
(0.000649116 0.000925796 0.229474)
(0.00024761 0.000845591 0.229415)
(0.000313373 0.000935602 0.229639)
(5.31364e-05 0.000936485 0.229971)
(4.72576e-05 0.000989568 0.230249)
(-3.3559e-05 0.000970656 0.230307)
(-0.000108514 0.000999566 0.230322)
(-8.10664e-05 0.000953036 0.230091)
(-0.000313328 0.000951761 0.229765)
(-0.000199086 0.000859689 0.22952)
(-0.000559002 0.000939377 0.229423)
(-0.000217645 0.000996391 0.229745)
(-0.000681352 0.00100452 0.230645)
(6.3055e-05 0.00162006 0.230634)
(0.000803727 0.000948517 0.228636)
(0.000325567 0.000941012 0.227747)
(0.000650934 0.000876729 0.227356)
(0.000247764 0.000797949 0.227299)
(0.000316969 0.000885669 0.227526)
(5.28942e-05 0.000886489 0.227857)
(4.7566e-05 0.000937097 0.228137)
(-3.44602e-05 0.000918711 0.228194)
(-0.000110345 0.000946792 0.22821)
(-8.18094e-05 0.000902558 0.227978)
(-0.000317668 0.000901303 0.227651)
(-0.000199371 0.000811449 0.227404)
(-0.000560311 0.000889842 0.227305)
(-0.000213406 0.000946593 0.227629)
(-0.000678201 0.000951878 0.228526)
(6.35977e-05 0.00154169 0.22849)
(0.000801856 0.00089403 0.226469)
(0.00032206 0.000889301 0.225584)
(0.000652974 0.000825579 0.225192)
(0.000247774 0.000748213 0.225139)
(0.00032058 0.000833694 0.225368)
(5.26262e-05 0.000834479 0.2257)
(4.79e-05 0.000882628 0.225981)
(-3.5374e-05 0.000864767 0.226037)
(-0.000112227 0.000892015 0.226053)
(-8.25445e-05 0.000850066 0.22582)
(-0.000322026 0.000848805 0.225494)
(-0.000199507 0.000761115 0.225245)
(-0.000561874 0.000838215 0.225142)
(-0.000209127 0.000894652 0.225466)
(-0.000675377 0.000897377 0.22636)
(6.41351e-05 0.00146169 0.226296)
(0.000800234 0.000837578 0.224253)
(0.000318429 0.000835351 0.223375)
(0.000655238 0.000772246 0.222984)
(0.000247634 0.000696286 0.222936)
(0.00032419 0.000779574 0.223166)
(5.23324e-05 0.000780353 0.223497)
(4.82617e-05 0.000826058 0.223779)
(-3.63002e-05 0.000808722 0.223835)
(-0.000114162 0.000835133 0.223852)
(-8.32713e-05 0.000795459 0.223618)
(-0.000326384 0.000794165 0.223292)
(-0.000199488 0.000708594 0.22304)
(-0.000563692 0.000784398 0.222935)
(-0.000204781 0.000840465 0.223259)
(-0.000672824 0.000840901 0.224145)
(6.46662e-05 0.00137992 0.224053)
(0.000798796 0.000779067 0.221989)
(0.000314643 0.000779077 0.221119)
(0.000657723 0.000716654 0.220731)
(0.000247335 0.000642093 0.220688)
(0.000327784 0.00072323 0.22092)
(5.20119e-05 0.000724028 0.221251)
(4.86534e-05 0.000767307 0.221533)
(-3.72383e-05 0.000750496 0.221588)
(-0.000116152 0.000776068 0.221606)
(-8.3989e-05 0.000738653 0.221371)
(-0.000330723 0.000737303 0.221045)
(-0.000199304 0.000653813 0.220792)
(-0.000565765 0.000728315 0.220682)
(-0.00020034 0.00078395 0.221005)
(-0.000670485 0.000782355 0.221882)
(6.519e-05 0.00129628 0.221759)
(0.000797478 0.000718426 0.219676)
(0.000310667 0.000720424 0.218818)
(0.000660423 0.000658749 0.218431)
(0.000246868 0.000585586 0.218395)
(0.000331338 0.000664606 0.218629)
(5.16641e-05 0.000665446 0.218959)
(4.9077e-05 0.00070632 0.219242)
(-3.81871e-05 0.000690033 0.219296)
(-0.000118198 0.000714761 0.219315)
(-8.46963e-05 0.000679591 0.219078)
(-0.000335018 0.000678162 0.218753)
(-0.000198943 0.000596724 0.218498)
(-0.000568089 0.000669914 0.218383)
(-0.000195777 0.00072505 0.218705)
(-0.000668297 0.000721669 0.219571)
(6.57048e-05 0.00121072 0.219415)
(0.000796209 0.000655616 0.217314)
(0.000306471 0.00065936 0.216469)
(0.000663331 0.000598505 0.216086)
(0.00024622 0.000526743 0.216057)
(0.000334826 0.000603674 0.216292)
(5.12879e-05 0.000604579 0.216621)
(4.95343e-05 0.000643068 0.216905)
(-3.91452e-05 0.000627308 0.216958)
(-0.000120301 0.000651188 0.216977)
(-8.53913e-05 0.000618243 0.21674)
(-0.000339238 0.000616715 0.216415)
(-0.000198393 0.000537306 0.216158)
(-0.000570659 0.00060917 0.216038)
(-0.000191063 0.000663735 0.216358)
(-0.000666196 0.000658805 0.217211)
(6.62085e-05 0.0011232 0.21702)
(0.000794913 0.000590629 0.214901)
(0.000302021 0.000595887 0.214073)
(0.000666431 0.000535932 0.213693)
(0.000245376 0.000465578 0.213672)
(0.000338216 0.000540442 0.213908)
(5.08821e-05 0.000541432 0.214237)
(5.00272e-05 0.000577558 0.21452)
(-4.01103e-05 0.000562328 0.214573)
(-0.00012246 0.000585354 0.214592)
(-8.60717e-05 0.000554613 0.214355)
(-0.000343351 0.000552969 0.21403)
(-0.000197637 0.000475575 0.213772)
(-0.000573463 0.000546089 0.213645)
(-0.000186172 0.00060001 0.213963)
(-0.000664112 0.000593754 0.2148)
(6.66986e-05 0.00103373 0.214571)
(0.000793508 0.000523497 0.212436)
(0.000297282 0.000530048 0.211627)
(0.000669705 0.000471076 0.21125)
(0.000244315 0.000402147 0.211239)
(0.000341469 0.000474956 0.211476)
(5.04453e-05 0.000476048 0.211804)
(5.0557e-05 0.000509837 0.212087)
(-4.10797e-05 0.00049514 0.212139)
(-0.000124673 0.000517306 0.212158)
(-8.67344e-05 0.000488745 0.211921)
(-0.000347315 0.000486969 0.211596)
(-0.000196655 0.000411584 0.211337)
(-0.000576487 0.00048072 0.211203)
(-0.000181076 0.000533915 0.211519)
(-0.000661968 0.000526549 0.212336)
(6.71717e-05 0.000942357 0.212066)
(0.000791904 0.000454297 0.209916)
(0.00029222 0.00046193 0.20913)
(0.000673126 0.000404031 0.208756)
(0.000243017 0.000336552 0.208755)
(0.000344539 0.000407309 0.208993)
(4.9976e-05 0.000408518 0.20932)
(5.1125e-05 0.000439998 0.209602)
(-4.20501e-05 0.000425839 0.209653)
(-0.000126935 0.000447138 0.209673)
(-8.73755e-05 0.00042073 0.209435)
(-0.000351082 0.000418809 0.209111)
(-0.000195429 0.000345437 0.20885)
(-0.000579705 0.000413163 0.208709)
(-0.00017575 0.000465538 0.209023)
(-0.000659682 0.000457268 0.209818)
(6.76238e-05 0.000849194 0.209502)
(0.00079 0.000383163 0.207337)
(0.000286799 0.000391675 0.206576)
(0.000676655 0.000334947 0.206206)
(0.000241455 0.00026895 0.206216)
(0.000347371 0.000337651 0.206455)
(4.94726e-05 0.000338989 0.206781)
(5.17321e-05 0.00036819 0.207062)
(-4.30166e-05 0.000354576 0.207113)
(-0.000129241 0.000374999 0.207132)
(-8.79899e-05 0.000350711 0.206894)
(-0.000354595 0.000348637 0.206571)
(-0.000193936 0.000277291 0.206309)
(-0.000583088 0.000343568 0.206159)
(-0.000170164 0.000395022 0.206472)
(-0.000657163 0.000386044 0.207241)
(6.80497e-05 0.000754411 0.206874)
(0.000787684 0.00031029 0.204694)
(0.00028098 0.000319487 0.203963)
(0.000680243 0.000264034 0.203596)
(0.000239598 0.000199564 0.203618)
(0.000349901 0.000266195 0.203857)
(4.89333e-05 0.00026767 0.204182)
(5.23788e-05 0.000294627 0.204461)
(-4.39734e-05 0.000281565 0.204512)
(-0.00013158 0.000301103 0.20453)
(-8.85712e-05 0.000278898 0.204294)
(-0.000357789 0.000276664 0.20397)
(-0.000192154 0.00020737 0.203708)