/*--------------------------------*- C++ -*----------------------------------*\
| =========                 |                                                 |
| \\      /  F ield         | OpenFOAM: The Open Source CFD Toolbox           |
|  \\    /   O peration     | Version:  v1912                                 |
|   \\  /    A nd           | Website:  www.openfoam.com                      |
|    \\/     M anipulation  |                                                 |
\*---------------------------------------------------------------------------*/
FoamFile
{
    version     2.0;
    format      ascii;
    class       volSymmTensorField;
    location    "196.8";
    object      UPrime2Mean;
}
// * * * * * * * * * * * * * * * * * * * * * * * * * * * * * * * * * * * * * //

dimensions      [0 2 -2 0 0 0 0];


internalField   nonuniform List<symmTensor> 
10147
(
(1.92073e-07 -2.27929e-08 1.69496e-07 3.67695e-07 -1.61474e-06 9.48713e-06)
(1.42626e-07 1.22979e-07 -4.77941e-07 3.95846e-07 -4.00576e-07 8.07876e-06)
(2.18602e-07 -3.94156e-08 1.05848e-07 4.26747e-08 4.06182e-08 4.36245e-06)
(5.802e-08 4.02048e-09 2.23677e-07 3.34132e-08 -1.25923e-07 2.68624e-06)
(7.26211e-08 -8.66041e-10 1.84342e-07 4.54326e-08 -5.09939e-08 1.02388e-06)
(5.27849e-08 -4.83923e-09 7.08486e-08 3.75584e-08 -4.12103e-08 4.75122e-07)
(5.57078e-08 -5.9105e-09 1.29625e-08 3.00589e-08 -6.21798e-09 2.42873e-07)
(1.03599e-07 -1.19262e-09 1.35813e-08 1.63351e-08 9.55585e-09 1.12132e-07)
(1.19987e-07 1.62495e-08 7.75183e-08 1.68736e-08 2.4473e-08 2.01976e-07)
(8.4056e-08 1.06562e-08 9.12454e-08 2.59716e-08 1.74051e-08 2.69615e-07)
(8.24218e-08 -1.78294e-09 9.99509e-08 4.02482e-08 6.65655e-09 2.93456e-07)
(7.38485e-08 -1.26879e-08 8.51645e-08 4.2347e-08 3.52197e-09 2.93629e-07)
(5.69839e-08 -2.56009e-08 3.0432e-08 5.51468e-08 -4.00035e-08 2.91765e-07)
(2.80274e-08 -1.15164e-08 -2.57738e-08 5.39599e-08 -3.32032e-09 3.04264e-07)
(1.95404e-07 6.78918e-08 -2.35429e-09 7.88823e-08 7.09358e-08 6.63122e-07)
(2.95359e-07 -1.12465e-07 5.27232e-07 4.00462e-07 -1.41952e-07 3.74961e-06)
(1.98635e-08 1.05602e-08 -1.8005e-08 4.57956e-08 -1.14733e-07 4.74872e-07)
(2.93076e-08 1.56323e-10 -3.49806e-09 4.06538e-08 -3.96464e-08 2.84235e-07)
(4.87914e-08 -8.53179e-09 -5.09068e-09 2.98268e-08 1.00594e-08 3.73673e-07)
(1.04511e-07 -1.76646e-08 2.29105e-08 1.82429e-08 1.4735e-08 4.65845e-07)
(1.16791e-07 -4.50608e-10 1.03214e-07 9.975e-09 7.71421e-09 9.18802e-07)
(7.26691e-08 7.18293e-09 7.98695e-08 1.00391e-08 7.02311e-09 1.04974e-06)
(5.46771e-08 7.71496e-09 5.68078e-08 1.26129e-08 1.64297e-08 1.02321e-06)
(2.91109e-08 1.94968e-09 3.5635e-08 1.23935e-08 1.48297e-08 8.71727e-07)
(1.88091e-08 -3.50325e-09 2.3753e-09 1.47e-08 -1.19187e-08 5.29711e-07)
(1.80027e-08 1.09518e-09 -1.56701e-08 2.15397e-08 -2.44097e-08 3.7844e-07)
(5.15328e-08 9.03985e-09 -2.97834e-08 1.96155e-08 -5.94532e-08 4.54908e-07)
(1.74691e-07 -5.82075e-09 -4.90197e-08 8.54176e-08 -1.33835e-07 1.1668e-06)
(4.28924e-08 6.81298e-09 5.81e-08 8.78831e-09 4.95777e-09 6.42855e-07)
(2.51957e-08 2.53561e-09 2.71562e-08 7.83143e-09 -1.77624e-08 5.6886e-07)
(1.90045e-08 1.59879e-09 -7.33917e-09 1.0327e-08 -4.04261e-08 3.77519e-07)
(1.97788e-08 9.19024e-09 -2.2163e-08 1.66338e-08 -3.15555e-08 3.18687e-07)
(7.01437e-08 2.50141e-08 4.12757e-08 2.01719e-08 -1.17045e-08 5.13518e-07)
(1.45397e-07 -6.51357e-09 1.61073e-07 7.64842e-08 -2.91218e-07 2.92429e-06)
(1.16133e-07 8.88089e-09 2.76034e-08 2.8083e-08 -7.26087e-08 1.12968e-06)
(1.93826e-07 -2.39679e-08 1.84014e-07 3.32766e-07 -1.51467e-06 9.15513e-06)
(1.36658e-07 1.12531e-07 -4.38254e-07 3.44333e-07 -3.86102e-07 8.04095e-06)
(2.03454e-07 -2.55357e-08 1.23777e-07 3.29057e-08 2.56261e-08 4.55774e-06)
(5.89615e-08 2.48571e-09 2.33461e-07 3.28642e-08 -1.30655e-07 2.75914e-06)
(7.30324e-08 -1.20023e-09 1.79795e-07 4.49912e-08 -4.60993e-08 9.73171e-07)
(5.30795e-08 -4.58984e-09 6.2291e-08 3.75056e-08 -3.11497e-08 4.23027e-07)
(5.61232e-08 -5.67655e-09 5.03416e-09 2.99412e-08 3.07222e-09 2.20078e-07)
(1.05672e-07 -1.90068e-09 1.29639e-08 1.60671e-08 1.51035e-08 1.13021e-07)
(1.20589e-07 1.48767e-08 8.23437e-08 1.57059e-08 2.42379e-08 2.28216e-07)
(8.40592e-08 9.3919e-09 9.73868e-08 2.44038e-08 1.70027e-08 2.94247e-07)
(8.26029e-08 -2.91046e-09 1.03858e-07 3.86739e-08 7.75506e-09 3.03417e-07)
(7.31537e-08 -1.35346e-08 8.41414e-08 4.07169e-08 7.91427e-09 2.83324e-07)
(5.52332e-08 -2.53988e-08 1.98895e-08 5.32452e-08 -3.10557e-08 2.72059e-07)
(2.81052e-08 -1.0588e-08 -3.01986e-08 5.21031e-08 5.86938e-09 3.25199e-07)
(1.80913e-07 5.32799e-08 2.31321e-09 6.70835e-08 7.53495e-08 7.53007e-07)
(2.94557e-07 -1.02807e-07 5.22301e-07 3.48902e-07 -1.33009e-07 3.73236e-06)
(1.9574e-07 -2.49402e-08 1.98823e-07 3.01593e-07 -1.41778e-06 8.81771e-06)
(1.27447e-07 9.58555e-08 -3.93583e-07 2.98474e-07 -3.70539e-07 7.97893e-06)
(1.83903e-07 -1.25486e-08 1.46541e-07 2.55012e-08 1.11453e-08 4.72923e-06)
(6.03203e-08 9.06281e-10 2.43703e-07 3.22395e-08 -1.34558e-07 2.81852e-06)
(7.35269e-08 -1.67959e-09 1.75188e-07 4.45e-08 -4.08539e-08 9.2362e-07)
(5.34509e-08 -4.48974e-09 5.44094e-08 3.74304e-08 -2.09591e-08 3.80715e-07)
(5.66178e-08 -5.51562e-09 -1.87345e-09 2.98448e-08 1.24572e-08 2.10053e-07)
(1.07914e-07 -2.60129e-09 1.33864e-08 1.58754e-08 2.0689e-08 1.25787e-07)
(1.21282e-07 1.35362e-08 8.7593e-08 1.46326e-08 2.39236e-08 2.63193e-07)
(8.4037e-08 8.15622e-09 1.03583e-07 2.29209e-08 1.63053e-08 3.25353e-07)
(8.27413e-08 -3.99263e-09 1.07824e-07 3.71383e-08 8.37746e-09 3.18974e-07)
(7.25024e-08 -1.42943e-08 8.34735e-08 3.91099e-08 1.17419e-08 2.77687e-07)
(5.35889e-08 -2.51749e-08 1.04427e-08 5.13006e-08 -2.29303e-08 2.58905e-07)
(2.85843e-08 -9.70745e-09 -3.34916e-08 5.02047e-08 1.39738e-08 3.54527e-07)
(1.61518e-07 3.93105e-08 5.92093e-09 5.76597e-08 7.80269e-08 8.43053e-07)
(2.89705e-07 -8.69586e-08 5.14156e-07 3.03016e-07 -1.2362e-07 3.70178e-06)
(1.9779e-07 -2.57333e-08 2.13576e-07 2.74984e-07 -1.32546e-06 8.47837e-06)
(1.18265e-07 7.86017e-08 -3.46101e-07 2.54336e-07 -3.54762e-07 7.89545e-06)
(1.63109e-07 -2.28978e-09 1.72568e-07 2.06354e-08 -2.20591e-09 4.87541e-06)
(6.17e-08 -6.01713e-10 2.54378e-07 3.15508e-08 -1.37609e-07 2.86443e-06)
(7.40862e-08 -2.26776e-09 1.70523e-07 4.39259e-08 -3.53663e-08 8.76315e-07)
(5.38493e-08 -4.53601e-09 4.71565e-08 3.73342e-08 -1.07857e-08 3.48428e-07)
(5.71307e-08 -5.43246e-09 -7.78389e-09 2.97647e-08 2.1801e-08 2.1227e-07)
(1.10229e-07 -3.28203e-09 1.47547e-08 1.57497e-08 2.62672e-08 1.49681e-07)
(1.22063e-07 1.22537e-08 9.32162e-08 1.36587e-08 2.35922e-08 3.06248e-07)
(8.40039e-08 6.97281e-09 1.09792e-07 2.15391e-08 1.53917e-08 3.62497e-07)
(8.28442e-08 -5.01417e-09 1.11812e-07 3.56613e-08 8.57627e-09 3.3986e-07)
(7.18975e-08 -1.49517e-08 8.314e-08 3.75482e-08 1.50167e-08 2.76554e-07)
(5.20669e-08 -2.49469e-08 2.10096e-09 4.93146e-08 -1.56906e-08 2.51195e-07)
(2.90206e-08 -8.98877e-09 -3.58366e-08 4.82854e-08 2.09965e-08 3.89745e-07)
(1.40351e-07 2.78424e-08 8.71065e-09 5.0807e-08 7.93807e-08 9.30539e-07)
(2.84101e-07 -7.04656e-08 5.03764e-07 2.58818e-07 -1.14506e-07 3.65954e-06)
(1.9997e-07 -2.63655e-08 2.2809e-07 2.52096e-07 -1.23775e-06 8.1384e-06)
(1.1087e-07 6.48789e-08 -2.97413e-07 2.16719e-07 -3.39045e-07 7.79314e-06)
(1.46309e-07 5.01507e-09 2.00169e-07 1.76193e-08 -1.42873e-08 4.99696e-06)
(6.30825e-08 -2.0283e-09 2.65335e-07 3.08087e-08 -1.39786e-07 2.89786e-06)
(7.47337e-08 -2.99068e-09 1.6579e-07 4.33133e-08 -2.9716e-08 8.3183e-07)
(5.42324e-08 -4.71327e-09 4.04274e-08 3.72083e-08 -7.02327e-10 3.25798e-07)
(5.76088e-08 -5.41958e-09 -1.2795e-08 2.96937e-08 3.10528e-08 2.25838e-07)
(1.12545e-07 -3.93448e-09 1.69771e-08 1.56808e-08 3.1835e-08 1.83806e-07)
(1.22921e-07 1.10355e-08 9.915e-08 1.27802e-08 2.32761e-08 3.56606e-07)
(8.39641e-08 5.84739e-09 1.15992e-07 2.02589e-08 1.43133e-08 4.05241e-07)
(8.29128e-08 -5.97556e-09 1.158e-07 3.42486e-08 8.40086e-09 3.65721e-07)
(7.13301e-08 -1.551e-08 8.30853e-08 3.60347e-08 1.77689e-08 2.7954e-07)
(5.06961e-08 -2.46923e-08 -5.2376e-09 4.73218e-08 -9.30277e-09 2.47821e-07)
(2.93596e-08 -8.40732e-09 -3.73959e-08 4.63804e-08 2.70403e-08 4.28845e-07)
(1.22737e-07 1.9246e-08 1.10756e-08 4.58762e-08 7.96808e-08 1.01399e-06)
(2.79608e-07 -5.74266e-08 4.91925e-07 2.21094e-07 -1.0571e-07 3.60735e-06)
(2.02275e-07 -2.68403e-08 2.42204e-07 2.31727e-07 -1.15452e-06 7.79966e-06)
(1.04937e-07 5.38265e-08 -2.48577e-07 1.83774e-07 -3.23457e-07 7.67475e-06)
(1.3311e-07 1.02075e-08 2.28517e-07 1.58697e-08 -2.5163e-08 5.09495e-06)
(6.44928e-08 -3.38453e-09 2.7646e-07 3.0031e-08 -1.41117e-07 2.91996e-06)
(7.54672e-08 -3.82921e-09 1.60964e-07 4.26563e-08 -2.39548e-08 7.90596e-07)
(5.45667e-08 -5.00614e-09 3.41334e-08 3.70474e-08 9.23044e-09 3.12286e-07)
(5.80091e-08 -5.46927e-09 -1.702e-08 2.96231e-08 4.01771e-08 2.49753e-07)
(1.14803e-07 -4.54917e-09 1.99481e-08 1.56566e-08 3.73865e-08 2.27125e-07)
(1.23843e-07 9.88749e-09 1.05307e-07 1.19907e-08 2.30055e-08 4.13305e-07)
(8.39196e-08 4.78351e-09 1.22131e-07 1.90778e-08 1.31213e-08 4.52944e-07)
(8.29487e-08 -6.87691e-09 1.1975e-07 3.29014e-08 7.90309e-09 3.96076e-07)
(7.07928e-08 -1.59747e-08 8.32463e-08 3.45706e-08 2.00417e-08 2.86188e-07)
(4.94758e-08 -2.44163e-08 -1.16785e-08 4.53332e-08 -3.71453e-09 2.47815e-07)
(2.96011e-08 -7.93325e-09 -3.83302e-08 4.45156e-08 3.22027e-08 4.70115e-07)
(1.08331e-07 1.27063e-08 1.31036e-08 4.22753e-08 7.90838e-08 1.09229e-06)
(2.75942e-07 -4.69662e-08 4.79213e-07 1.88011e-07 -9.72567e-08 3.54694e-06)
(2.04696e-07 -2.71719e-08 2.55788e-07 2.13539e-07 -1.07579e-06 7.46442e-06)
(1.00162e-07 4.47376e-08 -2.00359e-07 1.55216e-07 -3.08158e-07 7.54295e-06)
(1.22775e-07 1.36896e-08 2.57037e-07 1.5056e-08 -3.48385e-08 5.17071e-06)
(6.59476e-08 -4.66877e-09 2.87667e-07 2.92269e-08 -1.4165e-07 2.93197e-06)
(7.6283e-08 -4.76817e-09 1.56026e-07 4.19583e-08 -1.81396e-08 7.52913e-07)
(5.48285e-08 -5.40093e-09 2.81914e-08 3.68467e-08 1.89526e-08 3.07239e-07)
(5.82999e-08 -5.57669e-09 -2.05872e-08 2.9545e-08 4.91488e-08 2.82999e-07)
(1.16959e-07 -5.12338e-09 2.35453e-08 1.56651e-08 4.29096e-08 2.78543e-07)
(1.24813e-07 8.8096e-09 1.116e-07 1.12816e-08 2.27986e-08 4.75375e-07)
(8.38727e-08 3.78046e-09 1.28159e-07 1.79902e-08 1.18588e-08 5.04889e-07)
(8.2955e-08 -7.72191e-09 1.23621e-07 3.16182e-08 7.13299e-09 4.30403e-07)
(7.02791e-08 -1.63549e-08 8.35647e-08 3.31541e-08 2.18784e-08 2.96086e-07)
(4.83996e-08 -2.41228e-08 -1.73307e-08 4.33623e-08 1.12981e-09 2.50349e-07)
(2.97409e-08 -7.54949e-09 -3.87848e-08 4.27102e-08 3.65777e-08 5.12128e-07)
(9.64331e-08 7.85979e-09 1.48489e-08 3.96807e-08 7.77587e-08 1.16464e-06)
(2.72827e-07 -3.83798e-08 4.66043e-07 1.59281e-07 -8.92287e-08 3.47994e-06)
(2.0722e-07 -2.73739e-08 2.68738e-07 1.97216e-07 -1.00157e-06 7.13504e-06)
(9.63669e-08 3.71966e-08 -1.53339e-07 1.30721e-07 -2.93268e-07 7.40023e-06)
(1.14825e-07 1.58156e-08 2.85279e-07 1.49019e-08 -4.33427e-08 5.22581e-06)
(6.74651e-08 -5.88265e-09 2.98881e-07 2.8406e-08 -1.41444e-07 2.93517e-06)
(7.71802e-08 -5.79211e-09 1.50969e-07 4.12242e-08 -1.23225e-08 7.18972e-07)
(5.50027e-08 -5.88324e-09 2.25232e-08 3.66025e-08 2.84233e-08 3.09971e-07)
(5.84591e-08 -5.73609e-09 -2.36259e-08 2.94524e-08 5.79499e-08 3.24574e-07)
(1.18984e-07 -5.6547e-09 2.76389e-08 1.56959e-08 4.84012e-08 3.37015e-07)
(1.25819e-07 7.79412e-09 1.17942e-07 1.06415e-08 2.26524e-08 5.41851e-07)
(8.38273e-08 2.83222e-09 1.34028e-07 1.69862e-08 1.05498e-08 5.60291e-07)
(8.29384e-08 -8.51792e-09 1.27374e-07 3.03924e-08 6.1252e-09 4.68115e-07)
(6.97847e-08 -1.66623e-08 8.39904e-08 3.1779e-08 2.33114e-08 3.08838e-07)
(4.74597e-08 -2.38155e-08 -2.23008e-08 4.14227e-08 5.29181e-09 2.54766e-07)
(2.97805e-08 -7.23829e-09 -3.88873e-08 4.09861e-08 4.0257e-08 5.53752e-07)
(8.6597e-08 4.38142e-09 1.63583e-08 3.78233e-08 7.58545e-08 1.23052e-06)
(2.70122e-07 -3.12561e-08 4.52709e-07 1.34584e-07 -8.16773e-08 3.40784e-06)
(2.09832e-07 -2.74598e-08 2.80974e-07 1.82501e-07 -9.31808e-07 6.81383e-06)
(9.3421e-08 3.09066e-08 -1.0795e-07 1.0982e-07 -2.78872e-07 7.24887e-06)
(1.08886e-07 1.68812e-08 3.12906e-07 1.51919e-08 -5.07257e-08 5.26191e-06)
(6.90641e-08 -7.02909e-09 3.10042e-07 2.75769e-08 -1.40567e-07 2.93081e-06)
(7.81616e-08 -6.88472e-09 1.45788e-07 4.04582e-08 -6.54863e-09 6.88846e-07)
(5.50835e-08 -6.43862e-09 1.70457e-08 3.63122e-08 3.76236e-08 3.19771e-07)
(5.84747e-08 -5.94038e-09 -2.62583e-08 2.93395e-08 6.65667e-08 3.73594e-07)
(1.20858e-07 -6.14005e-09 3.21153e-08 1.57402e-08 5.38632e-08 4.01614e-07)
(1.26866e-07 6.83493e-09 1.24236e-07 1.00606e-08 2.25556e-08 6.11624e-07)
(8.37964e-08 1.93494e-09 1.39692e-07 1.60576e-08 9.20791e-09 6.18179e-07)
(8.29142e-08 -9.26883e-09 1.30974e-07 2.92184e-08 4.90651e-09 5.08437e-07)
(6.9312e-08 -1.69052e-08 8.44873e-08 3.04403e-08 2.43676e-08 3.23945e-07)
(4.66476e-08 -2.34981e-08 -2.6688e-08 3.95277e-08 8.83532e-09 2.60559e-07)
(2.97264e-08 -6.98393e-09 -3.87498e-08 3.93657e-08 4.33247e-08 5.94108e-07)
(7.84759e-08 1.99561e-09 1.76651e-08 3.64936e-08 7.35037e-08 1.28969e-06)
(2.67739e-07 -2.53036e-08 4.39416e-07 1.13451e-07 -7.46294e-08 3.33198e-06)
(2.12509e-07 -2.74428e-08 2.92434e-07 1.69193e-07 -8.66445e-07 6.50283e-06)
(9.12156e-08 2.56465e-08 -6.45109e-08 9.20895e-08 -2.65029e-07 7.09089e-06)
(1.04637e-07 1.71224e-08 3.39671e-07 1.57591e-08 -5.70541e-08 5.28078e-06)
(7.07634e-08 -8.11162e-09 3.21092e-07 2.6747e-08 -1.39093e-07 2.92001e-06)
(7.92329e-08 -8.0299e-09 1.40478e-07 3.96645e-08 -8.56457e-10 6.62466e-07)
(5.50735e-08 -7.05355e-09 1.16638e-08 3.59739e-08 4.6546e-08 3.35945e-07)
(5.83424e-08 -6.18179e-09 -2.85923e-08 2.92016e-08 7.49831e-08 4.29359e-07)
(1.22572e-07 -6.5766e-09 3.68866e-08 1.57906e-08 5.92948e-08 4.71623e-07)
(1.27964e-07 5.93535e-09 1.30411e-07 9.53348e-09 2.25176e-08 6.83654e-07)
(8.37982e-08 1.09208e-09 1.45132e-07 1.52027e-08 7.86859e-09 6.77622e-07)
(8.29036e-08 -9.9719e-09 1.3441e-07 2.80975e-08 3.52426e-09 5.50629e-07)
(6.8868e-08 -1.70855e-08 8.50474e-08 2.91389e-08 2.50971e-08 3.4098e-07)
(4.59547e-08 -2.31731e-08 -3.05776e-08 3.76923e-08 1.18229e-08 2.67321e-07)
(2.95881e-08 -6.77229e-09 -3.84682e-08 3.7871e-08 4.58544e-08 6.3251e-07)
(7.17773e-08 4.79287e-10 1.87891e-08 3.55305e-08 7.08255e-08 1.34207e-06)
(2.65614e-07 -2.0309e-08 4.26303e-07 9.54638e-08 -6.80954e-08 3.25352e-06)
(2.15227e-07 -2.73359e-08 3.03078e-07 1.57124e-07 -8.05376e-07 6.2037e-06)
(8.96561e-08 2.12433e-08 -2.32428e-08 7.71334e-08 -2.51782e-07 6.92815e-06)
(1.0181e-07 1.67306e-08 3.65402e-07 1.64772e-08 -6.24063e-08 5.28422e-06)
(7.258e-08 -9.13435e-09 3.31979e-07 2.59228e-08 -1.37095e-07 2.9037e-06)
(8.0403e-08 -9.21201e-09 1.35029e-07 3.88463e-08 4.72484e-09 6.39647e-07)
(5.49817e-08 -7.71508e-09 6.28349e-09 3.55866e-08 5.51848e-08 3.57952e-07)
(5.80653e-08 -6.45196e-09 -3.07202e-08 2.90344e-08 8.3177e-08 4.91294e-07)
(1.24123e-07 -6.96152e-09 4.18861e-08 1.58406e-08 6.46888e-08 5.46536e-07)
(1.29122e-07 5.09401e-09 1.3645e-07 9.05441e-09 2.25439e-08 7.57276e-07)
(8.38437e-08 3.03065e-10 1.50369e-07 1.44182e-08 6.56457e-09 7.3801e-07)
(8.29245e-08 -1.06266e-08 1.37708e-07 2.70289e-08 2.02665e-09 5.94238e-07)
(6.84587e-08 -1.72073e-08 8.56841e-08 2.7875e-08 2.55531e-08 3.5976e-07)
(4.53726e-08 -2.28419e-08 -3.40399e-08 3.59335e-08 1.43122e-08 2.747e-07)
(2.93766e-08 -6.59054e-09 -3.81221e-08 3.65248e-08 4.79109e-08 6.68429e-07)
(6.62535e-08 -3.51054e-10 1.97409e-08 3.48144e-08 6.79207e-08 1.38778e-06)
(2.63698e-07 -1.61088e-08 4.13464e-07 8.02301e-08 -6.20757e-08 3.17348e-06)
(2.1796e-07 -2.71523e-08 3.12882e-07 1.46152e-07 -7.48476e-07 5.91777e-06)
(8.86588e-08 1.75592e-08 1.57104e-08 6.45853e-08 -2.39162e-07 6.76246e-06)
(1.0018e-07 1.58582e-08 3.89978e-07 1.72521e-08 -6.68663e-08 5.27402e-06)
(7.45286e-08 -1.0102e-08 3.42656e-07 2.51095e-08 -1.34645e-07 2.8827e-06)
(8.16839e-08 -1.04164e-08 1.29421e-07 3.80068e-08 1.01797e-08 6.20071e-07)
(5.48206e-08 -8.41009e-09 8.24276e-10 3.51495e-08 6.35329e-08 3.85397e-07)
(5.76512e-08 -6.74219e-09 -3.27195e-08 2.88341e-08 9.11298e-08 5.58913e-07)
(1.25516e-07 -7.29139e-09 4.70597e-08 1.58849e-08 7.00311e-08 6.25952e-07)
(1.3034e-07 4.30537e-09 1.42394e-07 8.61835e-09 2.26276e-08 8.32287e-07)
(8.39391e-08 -4.35652e-10 1.55451e-07 1.37011e-08 5.31527e-09 7.99005e-07)
(8.29917e-08 -1.12368e-08 1.4091e-07 2.60112e-08 4.49597e-10 6.39004e-07)
(6.80883e-08 -1.72771e-08 8.64139e-08 2.66483e-08 2.57808e-08 3.80213e-07)
(4.48932e-08 -2.25054e-08 -3.71363e-08 3.427e-08 1.63578e-08 2.8239e-07)
(2.91032e-08 -6.42755e-09 -3.77763e-08 3.53522e-08 4.95546e-08 7.01493e-07)
(6.17032e-08 -6.44676e-10 2.05253e-08 3.4259e-08 6.48718e-08 1.42702e-06)
(2.6195e-07 -1.25756e-08 4.00969e-07 6.73872e-08 -5.65611e-08 3.09282e-06)
(2.20681e-07 -2.6905e-08 3.21839e-07 1.36155e-07 -6.95604e-07 5.646e-06)
(8.81494e-08 1.44811e-08 5.22693e-08 5.41136e-08 -2.27196e-07 6.5957e-06)
(9.95693e-08 1.46277e-08 4.13321e-07 1.80145e-08 -7.05223e-08 5.25192e-06)
(7.66225e-08 -1.10199e-08 3.53086e-07 2.4311e-08 -1.3181e-07 2.85777e-06)
(8.30924e-08 -1.16304e-08 1.23605e-07 3.71481e-08 1.55124e-08 6.03248e-07)
(5.46054e-08 -9.12578e-09 -4.78425e-09 3.46621e-08 7.159e-08 4.17987e-07)
(5.71123e-08 -7.04411e-09 -3.46699e-08 2.85981e-08 9.88457e-08 6.31927e-07)
(1.2676e-07 -7.563e-09 5.23705e-08 1.59176e-08 7.53056e-08 7.09616e-07)
(1.31619e-07 3.56762e-09 1.48401e-07 8.2217e-09 2.27565e-08 9.09182e-07)
(8.40917e-08 -1.12608e-09 1.60512e-07 1.30505e-08 4.13032e-09 8.60699e-07)
(8.31125e-08 -1.18018e-08 1.44084e-07 2.50436e-08 -1.17386e-09 6.8485e-07)
(6.77621e-08 -1.72999e-08 8.72476e-08 2.54616e-08 2.58294e-08 4.02297e-07)
(4.45086e-08 -2.21641e-08 -3.99236e-08 3.27218e-08 1.80142e-08 2.90139e-07)
(2.87807e-08 -6.27386e-09 -3.74815e-08 3.43804e-08 5.08419e-08 7.3148e-07)
(5.79686e-08 -5.2405e-10 2.11456e-08 3.38057e-08 6.17462e-08 1.46012e-06)
(2.60337e-07 -9.6078e-09 3.8887e-07 5.66076e-08 -5.15331e-08 3.01248e-06)
(2.23364e-07 -2.66066e-08 3.29961e-07 1.27028e-07 -6.46608e-07 5.38922e-06)
(8.80608e-08 1.19129e-08 8.6414e-08 4.542e-08 -2.15902e-07 6.42974e-06)
(9.98327e-08 1.31398e-08 4.35387e-07 1.87154e-08 -7.34649e-08 5.21965e-06)
(7.88729e-08 -1.18935e-08 3.63234e-07 2.35301e-08 -1.28656e-07 2.82957e-06)
(8.46473e-08 -1.28434e-08 1.17502e-07 3.62737e-08 2.07482e-08 5.88764e-07)
(5.43488e-08 -9.85616e-09 -1.05916e-08 3.41253e-08 7.94076e-08 4.55581e-07)
(5.64612e-08 -7.35547e-09 -3.66544e-08 2.83251e-08 1.06382e-07 7.10281e-07)
(1.27865e-07 -7.77543e-09 5.77942e-08 1.59348e-08 8.05346e-08 7.97684e-07)
(1.32957e-07 2.88257e-09 1.54667e-07 7.86179e-09 2.29196e-08 9.88938e-07)
(8.431e-08 -1.76768e-09 1.65746e-07 1.2467e-08 3.00846e-09 9.23663e-07)
(8.32914e-08 -1.23145e-08 1.47362e-07 2.4123e-08 -2.82804e-09 7.3204e-07)
(6.74883e-08 -1.72811e-08 8.8196e-08 2.43211e-08 2.57458e-08 4.25966e-07)
(4.42111e-08 -2.18177e-08 -4.24542e-08 3.13112e-08 1.93355e-08 2.97756e-07)
(2.84218e-08 -6.12164e-09 -3.72765e-08 3.36376e-08 5.18239e-08 7.58309e-07)
(5.4924e-08 -9.15882e-11 2.16066e-08 3.34187e-08 5.85972e-08 1.48748e-06)
(2.58831e-07 -7.12153e-09 3.77209e-07 4.75972e-08 -4.69642e-08 2.93336e-06)
(2.25985e-07 -2.62688e-08 3.37274e-07 1.18678e-07 -6.01333e-07 5.14809e-06)
(8.83322e-08 9.77071e-09 1.18178e-07 3.82381e-08 -2.05295e-07 6.26636e-06)
(1.00846e-07 1.14771e-08 4.56166e-07 1.93218e-08 -7.57833e-08 5.17889e-06)
(8.1288e-08 -1.27284e-08 3.73076e-07 2.27685e-08 -1.25243e-07 2.7987e-06)
(8.63665e-08 -1.40497e-08 1.11038e-07 3.53876e-08 2.59537e-08 5.76466e-07)
(5.40638e-08 -1.06011e-08 -1.66539e-08 3.35408e-08 8.70586e-08 4.98197e-07)
(5.57117e-08 -7.67735e-09 -3.87512e-08 2.80143e-08 1.13787e-07 7.94043e-07)
(1.28837e-07 -7.93107e-09 6.33037e-08 1.59349e-08 8.57703e-08 8.90689e-07)
(1.34347e-07 2.25116e-09 1.61295e-07 7.53615e-09 2.31126e-08 1.0725e-06)
(8.46024e-08 -2.35944e-09 1.71321e-07 1.19504e-08 1.94066e-09 9.88722e-07)
(8.35365e-08 -1.27731e-08 1.50894e-07 2.32497e-08 -4.51919e-09 7.81114e-07)
(6.72765e-08 -1.72254e-08 8.93272e-08 2.32344e-08 2.55555e-08 4.51316e-07)
(4.39931e-08 -2.14657e-08 -4.47657e-08 3.00609e-08 2.03708e-08 3.05111e-07)
(2.80396e-08 -5.96456e-09 -3.71891e-08 3.31531e-08 5.25466e-08 7.82024e-07)
(5.24643e-08 5.66221e-10 2.19149e-08 3.308e-08 5.54672e-08 1.5096e-06)
(2.57406e-07 -5.04567e-09 3.66016e-07 4.00941e-08 -4.28248e-08 2.85628e-06)
(2.28524e-07 -2.5903e-08 3.43817e-07 1.11024e-07 -5.59615e-07 4.92308e-06)
(8.89102e-08 7.98293e-09 1.47631e-07 3.2333e-08 -1.95378e-07 6.10707e-06)
(1.025e-07 9.70673e-09 4.75677e-07 1.98132e-08 -7.75598e-08 5.13128e-06)
(8.3874e-08 -1.3529e-08 3.82587e-07 2.2028e-08 -1.21625e-07 2.76569e-06)
(8.82653e-08 -1.52477e-08 1.0415e-07 3.44926e-08 3.12036e-08 5.66355e-07)
(5.37722e-08 -1.13577e-08 -2.30812e-08 3.29117e-08 9.45638e-08 5.45954e-07)
(5.48843e-08 -8.00694e-09 -4.10507e-08 2.7666e-08 1.21046e-07 8.83427e-07)
(1.29691e-07 -8.03277e-09 6.88554e-08 1.59157e-08 9.10269e-08 9.89076e-07)
(1.35784e-07 1.67327e-09 1.68301e-07 7.24278e-09 2.33403e-08 1.16062e-06)
(8.49793e-08 -2.90127e-09 1.77343e-07 1.14996e-08 9.23036e-10 1.05677e-06)
(8.38587e-08 -1.31797e-08 1.54809e-07 2.24262e-08 -6.26303e-09 8.3273e-07)
(6.71349e-08 -1.7135e-08 9.07595e-08 2.22081e-08 2.52631e-08 4.78644e-07)
(4.38471e-08 -2.11068e-08 -4.68786e-08 2.89915e-08 2.11579e-08 3.12125e-07)
(2.76456e-08 -5.79781e-09 -3.72393e-08 3.29558e-08 5.30501e-08 8.02759e-07)
(5.04963e-08 1.37672e-09 2.20778e-08 3.27853e-08 5.23913e-08 1.52703e-06)
(2.56044e-07 -3.32097e-09 3.55312e-07 3.3869e-08 -3.9089e-08 2.78192e-06)
(2.30968e-07 -2.55182e-08 3.49629e-07 1.03992e-07 -5.21273e-07 4.71438e-06)
(8.97489e-08 6.4909e-09 1.74863e-07 2.74996e-08 -1.86147e-07 5.95302e-06)
(1.047e-07 7.88312e-09 4.93951e-07 2.01795e-08 -7.88748e-08 5.07829e-06)
(8.66371e-08 -1.43003e-08 3.9173e-07 2.1312e-08 -1.17845e-07 2.73057e-06)
(9.03605e-08 -1.64327e-08 9.67543e-08 3.35932e-08 3.65089e-08 5.58447e-07)
(5.34998e-08 -1.21193e-08 -2.99841e-08 3.22423e-08 1.0189e-07 5.98961e-07)
(5.40032e-08 -8.34111e-09 -4.3642e-08 2.72815e-08 1.28118e-07 9.78661e-07)
(1.30443e-07 -8.08432e-09 7.43932e-08 1.58757e-08 9.62821e-08 1.09321e-06)
(1.3727e-07 1.14767e-09 1.7565e-07 6.98047e-09 2.36125e-08 1.25373e-06)
(8.54493e-08 -3.39397e-09 1.83849e-07 1.11138e-08 -3.58226e-11 1.12868e-06)
(8.42665e-08 -1.3535e-08 1.59201e-07 2.16526e-08 -8.06755e-09 8.87609e-07)
(6.70696e-08 -1.70104e-08 9.26105e-08 2.12474e-08 2.48596e-08 5.08333e-07)
(4.37668e-08 -2.0742e-08 -4.88064e-08 2.81276e-08 2.17267e-08 3.18753e-07)
(2.72506e-08 -5.61804e-09 -3.74411e-08 3.30724e-08 5.33655e-08 8.20714e-07)
(4.89354e-08 2.2794e-09 2.21009e-08 3.25409e-08 4.93974e-08 1.54035e-06)
(2.5473e-07 -1.89939e-09 3.45108e-07 2.87231e-08 -3.57325e-08 2.71075e-06)
(2.33307e-07 -2.51236e-08 3.54741e-07 9.75207e-08 -4.86132e-07 4.52191e-06)
(9.08079e-08 5.24593e-09 1.9998e-07 2.35616e-08 -1.77593e-07 5.80506e-06)
(1.07359e-07 6.04756e-09 5.11033e-07 2.0419e-08 -7.98107e-08 5.02109e-06)
(8.95861e-08 -1.50515e-08 4.00452e-07 2.06208e-08 -1.13896e-07 2.69256e-06)
(9.26703e-08 -1.75985e-08 8.875e-08 3.26943e-08 4.1833e-08 5.52771e-07)
(5.3271e-08 -1.28785e-08 -3.74308e-08 3.15372e-08 1.08987e-07 6.57231e-07)
(5.3091e-08 -8.67633e-09 -4.65875e-08 2.68633e-08 1.34961e-07 1.07978e-06)
(1.31107e-07 -8.08896e-09 7.98679e-08 1.58147e-08 1.01501e-07 1.20329e-06)
(1.38806e-07 6.73929e-10 1.83293e-07 6.74821e-09 2.39376e-08 1.35202e-06)
(8.60186e-08 -3.83812e-09 1.90827e-07 1.07917e-08 -9.17466e-10 1.20508e-06)
(8.47646e-08 -1.38402e-08 1.64111e-07 2.09281e-08 -9.92133e-09 9.46435e-07)
(6.70841e-08 -1.68513e-08 9.49756e-08 2.0359e-08 2.43462e-08 5.40853e-07)
(4.37485e-08 -2.03752e-08 -5.05177e-08 2.75043e-08 2.20768e-08 3.24871e-07)
(2.68652e-08 -5.42158e-09 -3.78043e-08 3.35266e-08 5.35038e-08 8.36083e-07)
(4.77051e-08 3.2241e-09 2.19759e-08 3.23594e-08 4.65019e-08 1.55009e-06)
(2.53453e-07 -7.4321e-10 3.35377e-07 2.44874e-08 -3.27339e-08 2.64302e-06)
(2.35539e-07 -2.47288e-08 3.59178e-07 9.1556e-08 -4.53993e-07 4.34476e-06)
(9.20492e-08 4.20508e-09 2.23134e-07 2.03659e-08 -1.69666e-07 5.66287e-06)
(1.10407e-07 4.228e-09 5.26983e-07 2.0533e-08 -8.03882e-08 4.95948e-06)
(9.27308e-08 -1.57919e-08 4.08668e-07 1.9954e-08 -1.09766e-07 2.65084e-06)
(9.52105e-08 -1.87396e-08 8.00699e-08 3.17994e-08 4.71223e-08 5.49446e-07)
(5.3108e-08 -1.36295e-08 -4.54595e-08 3.08017e-08 1.15808e-07 7.20693e-07)
(5.21685e-08 -9.01019e-09 -4.9924e-08 2.64144e-08 1.41538e-07 1.18663e-06)
(1.31699e-07 -8.04918e-09 8.5232e-08 1.57332e-08 1.06643e-07 1.31914e-06)
(1.40392e-07 2.52809e-10 1.91184e-07 6.54477e-09 2.43223e-08 1.45548e-06)
(8.66899e-08 -4.23216e-09 1.98246e-07 1.05319e-08 -1.69561e-09 1.28618e-06)
(8.53566e-08 -1.4097e-08 1.69541e-07 2.02535e-08 -1.18012e-08 1.00968e-06)
(6.71832e-08 -1.66606e-08 9.78976e-08 1.9553e-08 2.37435e-08 5.76707e-07)
(4.37919e-08 -2.00136e-08 -5.19465e-08 2.71617e-08 2.21812e-08 3.30306e-07)
(2.65002e-08 -5.20264e-09 -3.83294e-08 3.43484e-08 5.34616e-08 8.48874e-07)
(4.67412e-08 4.1718e-09 2.1665e-08 3.22569e-08 4.37054e-08 1.55666e-06)
(2.52197e-07 1.77444e-10 3.26048e-07 2.10185e-08 -3.0079e-08 2.57877e-06)
(2.37669e-07 -2.43426e-08 3.62949e-07 8.60541e-08 -4.24623e-07 4.18132e-06)
(9.34409e-08 3.33073e-09 2.44456e-07 1.77807e-08 -1.62293e-07 5.52521e-06)
(1.13786e-07 2.44088e-09 5.41825e-07 2.05264e-08 -8.06236e-08 4.89236e-06)
(9.60807e-08 -1.65298e-08 4.16253e-07 1.93121e-08 -1.05508e-07 2.6051e-06)
(9.79945e-08 -1.98523e-08 7.07003e-08 3.09106e-08 5.2314e-08 5.48632e-07)
(5.30308e-08 -1.43672e-08 -5.40704e-08 3.00401e-08 1.22311e-07 7.89119e-07)
(5.12543e-08 -9.34049e-09 -5.36632e-08 2.5937e-08 1.47811e-07 1.29874e-06)
(1.32233e-07 -7.96824e-09 9.04427e-08 1.56308e-08 1.11663e-07 1.44026e-06)
(1.42029e-07 -1.16338e-10 1.99264e-07 6.36906e-09 2.47607e-08 1.56379e-06)
(8.7463e-08 -4.57472e-09 2.06072e-07 1.0332e-08 -2.3601e-09 1.37177e-06)
(8.60487e-08 -1.43095e-08 1.75463e-07 1.96313e-08 -1.36769e-08 1.07743e-06)
(6.7375e-08 -1.64446e-08 1.01369e-07 1.88433e-08 2.30801e-08 6.16345e-07)
(4.39008e-08 -1.96663e-08 -5.3066e-08 2.71336e-08 2.20428e-08 3.3508e-07)
(2.61646e-08 -4.95463e-09 -3.89903e-08 3.5575e-08 5.3212e-08 8.58763e-07)
(4.59937e-08 5.099e-09 2.11332e-08 3.22538e-08 4.10002e-08 1.56035e-06)
(2.50952e-07 8.84807e-10 3.17039e-07 1.81917e-08 -2.77629e-08 2.51795e-06)
(2.39703e-07 -2.39738e-08 3.66034e-07 8.09716e-08 -3.97779e-07 4.02993e-06)
(9.49641e-08 2.5894e-09 2.64025e-07 1.56954e-08 -1.55417e-07 5.39112e-06)
(1.17453e-07 6.96262e-10 5.55542e-07 2.04081e-08 -8.05669e-08 4.81917e-06)
(9.96521e-08 -1.72693e-08 4.23089e-07 1.86937e-08 -1.01172e-07 2.5553e-06)
(1.01033e-07 -2.09334e-08 6.0668e-08 3.0029e-08 5.73522e-08 5.50474e-07)
(5.30577e-08 -1.50865e-08 -6.32326e-08 2.92561e-08 1.28446e-07 8.62046e-07)
(5.03668e-08 -9.66518e-09 -5.78055e-08 2.54328e-08 1.53731e-07 1.41532e-06)
(1.32723e-07 -7.84901e-09 9.54667e-08 1.55074e-08 1.16511e-07 1.5658e-06)
(1.43712e-07 -4.34273e-10 2.07462e-07 6.2203e-09 2.52477e-08 1.6763e-06)
(8.8335e-08 -4.86655e-09 2.14262e-07 1.01901e-08 -2.90353e-09 1.4613e-06)
(8.68505e-08 -1.44816e-08 1.81853e-07 1.90632e-08 -1.55153e-08 1.14938e-06)
(6.76697e-08 -1.62094e-08 1.05358e-07 1.8243e-08 2.23824e-08 6.59926e-07)
(4.40796e-08 -1.93345e-08 -5.3897e-08 2.74324e-08 2.17e-08 3.39485e-07)
(2.58766e-08 -4.67446e-09 -3.97371e-08 3.72416e-08 5.27193e-08 8.6545e-07)
(4.54251e-08 5.99894e-09 2.03941e-08 3.23794e-08 3.83895e-08 1.56136e-06)
(2.49709e-07 1.4007e-09 3.08301e-07 1.59011e-08 -2.57588e-08 2.46049e-06)
(2.41653e-07 -2.36316e-08 3.68442e-07 7.6269e-08 -3.73207e-07 3.88876e-06)
(9.66076e-08 1.95196e-09 2.81953e-07 1.40161e-08 -1.49002e-07 5.25995e-06)
(1.21369e-07 -9.74694e-10 5.68077e-07 2.01963e-08 -8.02699e-08 4.73972e-06)
(1.03458e-07 -1.80131e-08 4.29106e-07 1.80972e-08 -9.68282e-08 2.50184e-06)
(1.04334e-07 -2.19809e-08 5.01745e-08 2.91561e-08 6.21664e-08 5.55379e-07)
(5.32047e-08 -1.57844e-08 -7.29119e-08 2.84547e-08 1.34153e-07 9.38647e-07)
(4.95237e-08 -9.98241e-09 -6.23637e-08 2.4904e-08 1.59244e-07 1.53536e-06)
(1.33183e-07 -7.69465e-09 1.00277e-07 1.53634e-08 1.2114e-07 1.69465e-06)
(1.45434e-07 -7.03327e-10 2.15705e-07 6.09767e-09 2.5775e-08 1.79204e-06)
(8.93e-08 -5.11007e-09 2.22755e-07 1.01041e-08 -3.31757e-09 1.55399e-06)
(8.77722e-08 -1.46147e-08 1.88676e-07 1.8548e-08 -1.72794e-08 1.22486e-06)
(6.80765e-08 -1.59543e-08 1.09809e-07 1.77596e-08 2.16772e-08 7.07151e-07)
(4.43313e-08 -1.90155e-08 -5.45542e-08 2.80725e-08 2.12443e-08 3.44252e-07)
(2.5654e-08 -4.36571e-09 -4.05242e-08 3.93685e-08 5.19443e-08 8.69031e-07)
(4.50046e-08 6.84528e-09 1.95094e-08 3.26714e-08 3.58519e-08 1.55946e-06)
(2.48464e-07 1.75193e-09 2.99825e-07 1.40592e-08 -2.40472e-08 2.40597e-06)
(2.43531e-07 -2.33205e-08 3.70223e-07 7.19048e-08 -3.50602e-07 3.75591e-06)
(9.83599e-08 1.3935e-09 2.98353e-07 1.26617e-08 -1.42989e-07 5.13085e-06)
(1.25469e-07 -2.50691e-09 5.79307e-07 1.98931e-08 -7.97989e-08 4.65358e-06)
(1.07493e-07 -1.87562e-08 4.34588e-07 1.75191e-08 -9.25544e-08 2.4488e-06)
(1.07896e-07 -2.2986e-08 3.97758e-08 2.82915e-08 6.66268e-08 5.64089e-07)
(5.3485e-08 -1.64538e-08 -8.28601e-08 2.76379e-08 1.39278e-07 1.01661e-06)
(4.87422e-08 -1.02898e-08 -6.73074e-08 2.43522e-08 1.64231e-07 1.65594e-06)
(1.33628e-07 -7.50838e-09 1.04807e-07 1.52e-08 1.25472e-07 1.82449e-06)
(1.47188e-07 -9.24922e-10 2.23886e-07 5.99982e-09 2.63361e-08 1.90883e-06)
(9.03498e-08 -5.30859e-09 2.3139e-07 1.00703e-08 -3.57688e-09 1.64796e-06)
(8.88223e-08 -1.47121e-08 1.95668e-07 1.80865e-08 -1.88537e-08 1.30181e-06)
(6.86024e-08 -1.5683e-08 1.14315e-07 1.7404e-08 2.11195e-08 7.56822e-07)
(4.46586e-08 -1.87113e-08 -5.53777e-08 2.90839e-08 2.08904e-08 3.5124e-07)
(2.55002e-08 -4.03707e-09 -4.13537e-08 4.19569e-08 5.09701e-08 8.71972e-07)
(4.46794e-08 7.57079e-09 1.85693e-08 3.31414e-08 3.33565e-08 1.55422e-06)
(2.47216e-07 1.97505e-09 2.91579e-07 1.25963e-08 -2.26e-08 2.35336e-06)
(2.45332e-07 -2.3047e-08 3.71355e-07 6.7841e-08 -3.29673e-07 3.62946e-06)
(1.00199e-07 8.8988e-10 3.13245e-07 1.1564e-08 -1.37323e-07 5.00267e-06)