-0.0075 	0 	0 	0
-0.0075 	-1.62389e-35 	-1.38687e-36 	1.85533e-31
-0.00745622 	-1.33392e-06 	-1.13923e-07 	0.0152404
-0.00745622 	-1.33392e-06 	-1.13923e-07 	0.0152404
-0.00741165 	-2.03805e-06 	-5.43386e-07 	0.0296741
-0.00741165 	-2.03805e-06 	-5.43386e-07 	0.0296741
-0.00736628 	-2.58278e-06 	-1.32825e-06 	0.0433974
-0.00736628 	-2.58278e-06 	-1.32825e-06 	0.0433974
-0.0073201 	-3.18931e-06 	-2.51191e-06 	0.0564332
-0.0073201 	-3.18931e-06 	-2.51191e-06 	0.0564332
-0.00727309 	-3.83152e-06 	-4.08443e-06 	0.0688071
-0.00727309 	-3.83152e-06 	-4.08443e-06 	0.0688071
-0.00722524 	-4.45753e-06 	-6.06191e-06 	0.0805429
-0.00722524 	-4.45753e-06 	-6.06191e-06 	0.0805429
-0.00717653 	-5.04826e-06 	-8.45539e-06 	0.0916523
-0.00717653 	-5.04826e-06 	-8.45539e-06 	0.0916523
-0.00712695 	-5.59564e-06 	-1.12859e-05 	0.102126
-0.00712695 	-5.59564e-06 	-1.12859e-05 	0.102126
-0.00707647 	-6.09537e-06 	-1.45902e-05 	0.111936
-0.00707647 	-6.09537e-06 	-1.45902e-05 	0.111936
-0.0070251 	-6.54513e-06 	-1.84261e-05 	0.121057
-0.0070251 	-6.54513e-06 	-1.84261e-05 	0.121057
-0.0069728 	-6.94418e-06 	-2.28676e-05 	0.129483
-0.0069728 	-6.94418e-06 	-2.28676e-05 	0.129483
-0.00691956 	-7.2932e-06 	-2.79913e-05 	0.137232
-0.00691956 	-7.2932e-06 	-2.79913e-05 	0.137232
-0.00686537 	-7.59395e-06 	-3.38654e-05 	0.144341
-0.00686537 	-7.59395e-06 	-3.38654e-05 	0.144341
-0.00681021 	-7.84894e-06 	-4.05547e-05 	0.150867
-0.00681021 	-7.84894e-06 	-4.05547e-05 	0.150867
-0.00675406 	-8.06102e-06 	-4.81296e-05 	0.156868
-0.00675406 	-8.06102e-06 	-4.81296e-05 	0.156868
-0.0066969 	-8.23263e-06 	-5.6655e-05 	0.162401
-0.0066969 	-8.23263e-06 	-5.6655e-05 	0.162401
-0.00663871 	-8.36594e-06 	-6.61767e-05 	0.16751
-0.00663871 	-8.36594e-06 	-6.61767e-05 	0.16751
-0.00657949 	-8.46354e-06 	-7.67024e-05 	0.172239
-0.00657949 	-8.46354e-06 	-7.67024e-05 	0.172239
-0.0065192 	-8.52847e-06 	-8.81997e-05 	0.176628
-0.0065192 	-8.52847e-06 	-8.81997e-05 	0.176628
-0.00645783 	-8.56387e-06 	-0.000100621 	0.18072
-0.00645783 	-8.56387e-06 	-0.000100621 	0.18072
-0.00639535 	-8.57254e-06 	-0.000113913 	0.184554
-0.00639535 	-8.57254e-06 	-0.000113913 	0.184554
-0.00633176 	-8.55673e-06 	-0.000128025 	0.188161
-0.00633176 	-8.55673e-06 	-0.000128025 	0.188161
-0.00626703 	-8.51835e-06 	-0.000142901 	0.191568
-0.00626703 	-8.51835e-06 	-0.000142901 	0.191568
-0.00620114 	-8.45916e-06 	-0.000158485 	0.194799
-0.00620114 	-8.45916e-06 	-0.000158485 	0.194799
-0.00613406 	-8.38076e-06 	-0.000174716 	0.197874
-0.00613406 	-8.38076e-06 	-0.000174716 	0.197874
-0.00606579 	-8.28469e-06 	-0.000191535 	0.200811
-0.00606579 	-8.28469e-06 	-0.000191535 	0.200811
-0.00599629 	-8.17252e-06 	-0.000208873 	0.203627
-0.00599629 	-8.17252e-06 	-0.000208873 	0.203627
-0.00592554 	-8.04557e-06 	-0.000226663 	0.206336
-0.00592554 	-8.04557e-06 	-0.000226663 	0.206336
-0.00585352 	-7.90459e-06 	-0.000244828 	0.208955
-0.00585352 	-7.90459e-06 	-0.000244828 	0.208955
-0.00578022 	-7.74984e-06 	-0.00026328 	0.211494
-0.00578022 	-7.74984e-06 	-0.00026328 	0.211494
-0.00570559 	-7.58147e-06 	-0.000281918 	0.213965
-0.00570559 	-7.58147e-06 	-0.000281918 	0.213965
-0.00562963 	-7.39974e-06 	-0.000300641 	0.216375
-0.00562963 	-7.39974e-06 	-0.000300641 	0.216375
-0.00555231 	-7.20495e-06 	-0.000319346 	0.218731
-0.00555231 	-7.20495e-06 	-0.000319346 	0.218731
-0.0054736 	-6.99738e-06 	-0.000337931 	0.221038
-0.0054736 	-6.99738e-06 	-0.000337931 	0.221038
-0.00539348 	-6.77725e-06 	-0.000356289 	0.223302
-0.00539348 	-6.77725e-06 	-0.000356289 	0.223302
-0.00531193 	-6.54471e-06 	-0.000374314 	0.225526
-0.00531193 	-6.54471e-06 	-0.000374314 	0.225526
-0.00522891 	-6.29991e-06 	-0.000391901 	0.227712
-0.00522891 	-6.29991e-06 	-0.000391901 	0.227712
-0.0051444 	-6.04288e-06 	-0.000408947 	0.229864
-0.0051444 	-6.04288e-06 	-0.000408947 	0.229864
-0.00505838 	-5.77363e-06 	-0.000425353 	0.231982
-0.00505838 	-5.77363e-06 	-0.000425353 	0.231982
-0.00497081 	-5.49211e-06 	-0.000441022 	0.234067
-0.00497081 	-5.49211e-06 	-0.000441022 	0.234067
-0.00488168 	-5.19819e-06 	-0.000455863 	0.23612
-0.00488168 	-5.19819e-06 	-0.000455863 	0.23612
-0.00479094 	-4.89177e-06 	-0.000469791 	0.238138
-0.00479094 	-4.89177e-06 	-0.000469791 	0.238138
-0.00469858 	-4.57273e-06 	-0.000482721 	0.240122
-0.00469858 	-4.57273e-06 	-0.000482721 	0.240122
-0.00460456 	-4.24095e-06 	-0.000494579 	0.242069
-0.00460456 	-4.24095e-06 	-0.000494579 	0.242069
-0.00450886 	-3.89623e-06 	-0.000505313 	0.243978
-0.00450886 	-3.89623e-06 	-0.000505313 	0.243978
-0.00441144 	-3.5382e-06 	-0.000514902 	0.245847
-0.00441144 	-3.5382e-06 	-0.000514902 	0.245847
-0.00431227 	-3.16621e-06 	-0.000523359 	0.247674
-0.00431227 	-3.16621e-06 	-0.000523359 	0.247674
-0.00421133 	-2.77937e-06 	-0.000530726 	0.249458
-0.00421133 	-2.77937e-06 	-0.000530726 	0.249458
-0.00410857 	-2.37694e-06 	-0.000537063 	0.251197
-0.00410857 	-2.37694e-06 	-0.000537063 	0.251197
-0.00400397 	-1.95905e-06 	-0.000542449 	0.252887
-0.00400397 	-1.95905e-06 	-0.000542449 	0.252887
-0.0038975 	-1.52678e-06 	-0.000546972 	0.254529
-0.0038975 	-1.52678e-06 	-0.000546972 	0.254529
-0.00378912 	-1.08097e-06 	-0.000550714 	0.256124
-0.00378912 	-1.08097e-06 	-0.000550714 	0.256124
-0.00367879 	-6.21126e-07 	-0.000553747 	0.257676
-0.00367879 	-6.21126e-07 	-0.000553747 	0.257676
-0.00356649 	-1.46084e-07 	-0.00055613 	0.259184
-0.00356649 	-1.46084e-07 	-0.00055613 	0.259184
-0.00345217 	3.44552e-07 	-0.000557917 	0.260646
-0.00345217 	3.44552e-07 	-0.000557917 	0.260646
-0.0033358 	8.50047e-07 	-0.000559168 	0.262059
-0.0033358 	8.50047e-07 	-0.000559168 	0.262059
-0.00321735 	1.36914e-06 	-0.000559948 	0.263422
-0.00321735 	1.36914e-06 	-0.000559948 	0.263422
-0.00309677 	1.90036e-06 	-0.000560324 	0.264732
-0.00309677 	1.90036e-06 	-0.000560324 	0.264732
-0.00297403 	2.44199e-06 	-0.00056037 	0.265985
-0.00297403 	2.44199e-06 	-0.00056037 	0.265985
-0.00284909 	2.99203e-06 	-0.000560162 	0.26718
-0.00284909 	2.99203e-06 	-0.000560162 	0.26718
-0.0027219 	3.54821e-06 	-0.00055978 	0.268313
-0.0027219 	3.54821e-06 	-0.00055978 	0.268313
-0.00259244 	4.1081e-06 	-0.000559298 	0.269383
-0.00259244 	4.1081e-06 	-0.000559298 	0.269383
-0.00246065 	4.66902e-06 	-0.00055879 	0.270387
-0.00246065 	4.66902e-06 	-0.00055879 	0.270387
-0.00232651 	5.22795e-06 	-0.000558317 	0.271321
-0.00232651 	5.22795e-06 	-0.000558317 	0.271321
-0.00218995 	5.7816e-06 	-0.000557933 	0.272185
-0.00218995 	5.7816e-06 	-0.000557933 	0.272185
-0.00205095 	6.32632e-06 	-0.000557679 	0.272977
-0.00205095 	6.32632e-06 	-0.000557679 	0.272977
-0.00190946 	6.85778e-06 	-0.000557581 	0.273694
-0.00190946 	6.85778e-06 	-0.000557581 	0.273694
-0.00176543 	7.37087e-06 	-0.00055765 	0.274336
-0.00176543 	7.37087e-06 	-0.00055765 	0.274336
-0.00161881 	7.8598e-06 	-0.00055788 	0.274902
-0.00161881 	7.8598e-06 	-0.00055788 	0.274902
-0.00146957 	8.31832e-06 	-0.000558245 	0.275392
-0.00146957 	8.31832e-06 	-0.000558245 	0.275392
-0.00131765 	8.74002e-06 	-0.000558704 	0.275807
-0.00131765 	8.74002e-06 	-0.000558704 	0.275807
-0.001163 	9.11814e-06 	-0.000559206 	0.276146
-0.001163 	9.11814e-06 	-0.000559206 	0.276146
-0.00100559 	9.44513e-06 	-0.000559693 	0.276409
-0.00100559 	9.44513e-06 	-0.000559693 	0.276409
-0.000845345 	9.712e-06 	-0.000560151 	0.276596
-0.000845345 	9.712e-06 	-0.000560151 	0.276596
-0.000682232 	9.90794e-06 	-0.000560487 	0.276705
-0.000682232 	9.90794e-06 	-0.000560487 	0.276705
-0.000516194 	1.0021e-05 	-0.000560593 	0.276735
-0.000516194 	1.0021e-05 	-0.000560593 	0.276735
-0.000347178 	1.00379e-05 	-0.000560488 	0.276684
-0.000347178 	1.00379e-05 	-0.000560488 	0.276684
-0.000175132 	9.94989e-06 	-0.000559988 	0.276549
-0.000175132 	9.94989e-06 	-0.000559988 	0.276549
0 	9.75364e-06 	-0.000559123 	0.276329
0 	9.75364e-06 	-0.000559123 	0.276329
0 	9.75364e-06 	-0.000559123 	0.276329
0 	9.75364e-06 	-0.000559123 	0.276329
0.000175132 	9.44975e-06 	-0.000558006 	0.276024
0.000175132 	3.25741e-06 	-0.000460627 	0.272564
0.000347178 	9.04881e-06 	-0.00055649 	0.275643
0.000347178 	4.35878e-06 	-0.000460749 	0.272253
0.000516194 	8.56182e-06 	-0.000554705 	0.275189
0.000516194 	5.28273e-06 	-0.000460779 	0.271862
0.000682232 	7.99941e-06 	-0.000552646 	0.274667
0.000682232 	6.04282e-06 	-0.000460677 	0.271397
0.000845345 	7.37729e-06 	-0.000550213 	0.27408
0.000845345 	6.65653e-06 	-0.000460104 	0.270862
0.00100559 	6.70925e-06 	-0.000547482 	0.273432
0.00100559 	7.13979e-06 	-0.000459226 	0.27026
0.001163 	6.00714e-06 	-0.00054447 	0.272724
0.001163 	7.50775e-06 	-0.000458052 	0.269595
0.00131765 	5.28121e-06 	-0.000541193 	0.271959
0.00131765 	7.77452e-06 	-0.000456588 	0.26887
0.00146957 	4.54027e-06 	-0.00053767 	0.27114
0.00146957 	7.95253e-06 	-0.000454847 	0.268088
0.00161881 	3.79185e-06 	-0.000533913 	0.270268
0.00161881 	8.0527e-06 	-0.000452836 	0.26725
0.00176543 	3.04228e-06 	-0.000529934 	0.269345
0.00176543 	8.08474e-06 	-0.000450562 	0.266359
0.00190946 	2.29692e-06 	-0.000525741 	0.268372
0.00190946 	8.05724e-06 	-0.000448031 	0.265417
0.00205095 	1.56025e-06 	-0.000521339 	0.267351
0.00205095 	7.97774e-06 	-0.000445246 	0.264424
0.00218995 	8.36062e-07 	-0.000516734 	0.266282
0.00218995 	7.85281e-06 	-0.000442211 	0.263382
0.00232651 	1.27481e-07 	-0.000511925 	0.265168
0.00232651 	7.68816e-06 	-0.000438925 	0.262293
0.00246065 	-5.62942e-07 	-0.000506912 	0.264007
0.00246065 	7.48882e-06 	-0.000435383 	0.261157
0.00259244 	-1.23312e-06 	-0.000501692 	0.262802
0.00259244 	7.25917e-06 	-0.00043158 	0.259974
0.0027219 	-1.88137e-06 	-0.000496259 	0.261552
0.0027219 	7.00304e-06 	-0.000427507 	0.258746
0.00284909 	-2.50635e-06 	-0.000490608 	0.260258
0.00284909 	6.72375e-06 	-0.000423155 	0.257473
0.00297403 	-3.107e-06 	-0.00048473 	0.25892
0.00297403 	6.42421e-06 	-0.000418511 	0.256156
0.00309677 	-3.68248e-06 	-0.000478616 	0.257538
0.00309677 	6.10702e-06 	-0.00041356 	0.254794
0.00321735 	-4.23218e-06 	-0.000472256 	0.256111
0.00321735 	5.77452e-06 	-0.000408288 	0.253387
0.0033358 	-4.75558e-06 	-0.00046564 	0.254639
0.0033358 	5.42889e-06 	-0.000402678 	0.251934
0.00345217 	5.07217e-06 	-0.000396719 	0.250436
0.00345217 	-5.25229e-06 	-0.000458758 	0.253122
0.00356649 	-5.72195e-06 	-0.000451603 	0.251559
0.00356649 	4.70627e-06 	-0.000390411 	0.248891
0.00367879 	-6.16426e-06 	-0.000444161 	0.249948
0.00367879 	4.33354e-06 	-0.000383747 	0.247298
0.00378912 	-6.57905e-06 	-0.000436412 	0.24829
0.00378912 	3.95711e-06 	-0.000376711 	0.245659
0.0038975 	-6.96611e-06 	-0.00042833 	0.246581
0.0038975 	3.58061e-06 	-0.00036928 	0.243972
0.00400397 	-7.3252e-06 	-0.000419868 	0.244818
0.00400397 	3.208e-06 	-0.000361389 	0.24223
0.00410857 	2.84252e-06 	-0.000352929 	0.240422
0.00410857 	-7.65653e-06 	-0.000410955 	0.242995
0.00421133 	-7.96102e-06 	-0.000401511 	0.241107
0.00421133 	2.48522e-06 	-0.000343793 	0.238536
0.00431227 	-8.23979e-06 	-0.000391453 	0.239147
0.00431227 	2.13574e-06 	-0.000333907 	0.236566
0.00441144 	-8.49321e-06 	-0.000380717 	0.237107
0.00441144 	1.79363e-06 	-0.000323231 	0.234508
0.00450886 	-8.7208e-06 	-0.000369274 	0.234982
0.00450886 	1.45852e-06 	-0.000311774 	0.232358
0.00460456 	-8.92195e-06 	-0.000357124 	0.232766
0.00460456 	1.1303e-06 	-0.000299571 	0.230113
0.00469858 	-9.09632e-06 	-0.000344281 	0.230454
0.00469858 	8.09097e-07 	-0.000286669 	0.227768
0.00479094 	-9.24373e-06 	-0.000330768 	0.228043
0.00479094 	4.95081e-07 	-0.000273121 	0.225319
0.00488168 	-9.36408e-06 	-0.000316614 	0.225526
0.00488168 	1.88415e-07 	-0.000258983 	0.222761
0.00497081 	-9.45728e-06 	-0.000301858 	0.222901
0.00497081 	-1.10827e-07 	-0.000244322 	0.220091
0.00505838 	-9.52328e-06 	-0.000286551 	0.220162
0.00505838 	-4.02672e-07 	-0.000229211 	0.217306
0.0051444 	-9.56209e-06 	-0.000270759 	0.217306
0.0051444 	-6.87261e-07 	-0.00021374 	0.2144
0.00522891 	-9.57377e-06 	-0.000254563 	0.21433
0.00522891 	-9.64856e-07 	-0.000198012 	0.211372
0.00531193 	-9.55848e-06 	-0.000238064 	0.211229
0.00531193 	-1.23583e-06 	-0.000182148 	0.20822
0.00539348 	-9.51644e-06 	-0.000221373 	0.208002
0.00539348 	-1.50068e-06 	-0.000166282 	0.204941
0.0054736 	-9.44795e-06 	-0.000204615 	0.204645
0.0054736 	-1.75995e-06 	-0.000150557 	0.201534
0.00555231 	-9.35339e-06 	-0.000187923 	0.201154
0.00555231 	-2.0143e-06 	-0.000135118 	0.197996
0.00562963 	-9.23317e-06 	-0.000171431 	0.197525
0.00562963 	-2.26442e-06 	-0.000120108 	0.194325
0.00570559 	-9.08779e-06 	-0.000155269 	0.193755
0.00570559 	-2.5111e-06 	-0.00010566 	0.190519
0.00578022 	-8.91778e-06 	-0.000139564 	0.189838
0.00578022 	-2.75517e-06 	-9.18924e-05 	0.186573
0.00585352 	-8.72375e-06 	-0.00012443 	0.185769
0.00585352 	-2.99752e-06 	-7.89097e-05 	0.182484
0.00592554 	-8.5064e-06 	-0.000109971 	0.181541
0.00592554 	-3.23908e-06 	-6.67951e-05 	0.178245
0.00599629 	-8.26655e-06 	-9.62737e-05 	0.177147
0.00599629 	-3.48079e-06 	-5.56114e-05 	0.17385
0.00606579 	-8.00523e-06 	-8.34126e-05 	0.172578
0.00606579 	-3.72359e-06 	-4.54021e-05 	0.16929
0.00613406 	-7.72364e-06 	-7.14497e-05 	0.167821
0.00613406 	-3.96825e-06 	-3.6192e-05 	0.164552
0.00620114 	-4.2154e-06 	-2.79887e-05 	0.159622
0.00620114 	-7.42282e-06 	-6.0433e-05 	0.162862
0.00626703 	-7.10361e-06 	-5.03994e-05 	0.157682
0.00626703 	-4.4655e-06 	-2.07893e-05 	0.154481
0.00633176 	-4.71853e-06 	-1.45811e-05 	0.149114
0.00633176 	-6.76713e-06 	-4.13777e-05 	0.152267
0.00639535 	-4.97389e-06 	-9.33529e-06 	0.143508
0.00639535 	-6.41501e-06 	-3.33794e-05 	0.146599
0.00645783 	-6.04934e-06 	-2.63959e-05 	0.140665
0.00645783 	-5.23037e-06 	-5.0065e-06 	0.137645
0.0065192 	-5.6725e-06 	-2.04028e-05 	0.134446
0.0065192 	-5.48586e-06 	-1.53676e-06 	0.131508
0.00657949 	-5.28718e-06 	-1.53625e-05 	0.127925
0.00657949 	-5.73724e-06 	1.14124e-06 	0.125079
0.00663871 	-4.89691e-06 	-1.12241e-05 	0.121088
0.00663871 	-5.98033e-06 	3.10143e-06 	0.118343
0.0066969 	-4.50599e-06 	-7.91044e-06 	0.113914
0.0066969 	-6.20938e-06 	4.42821e-06 	0.111278
0.00675406 	-6.41671e-06 	5.21098e-06 	0.103847
0.00675406 	-4.11785e-06 	-5.32944e-06 	0.106372
0.00681021 	-6.59199e-06 	5.5397e-06 	0.0960275
0.00681021 	-3.73439e-06 	-3.38154e-06 	0.0984295
0.00686537 	-6.72095e-06 	5.50394e-06 	0.0878358
0.00686537 	-3.35785e-06 	-1.97199e-06 	0.0900974
0.00691956 	-6.78614e-06 	5.19062e-06 	0.0793402
0.00691956 	-2.99148e-06 	-1.01798e-06 	0.0814407
0.0069728 	-6.76924e-06 	4.68545e-06 	0.0706582
0.0069728 	-2.63869e-06 	-4.28479e-07 	0.072577
0.0070251 	-2.30182e-06 	-1.09376e-07 	0.0636738
0.0070251 	-6.65346e-06 	4.06863e-06 	0.061954
0.00707647 	-1.98134e-06 	2.90466e-08 	0.0549293
0.00707647 	-6.42663e-06 	3.40944e-06 	0.0534184
0.00712695 	-1.67641e-06 	6.30088e-08 	0.0465378
0.00712695 	-6.08393e-06 	2.76145e-06 	0.0452366
0.00717653 	-1.38622e-06 	4.84294e-08 	0.0386527
0.00717653 	-5.62864e-06 	2.16021e-06 	0.0375537
0.00722524 	-1.11179e-06 	1.92299e-08 	0.0313645
0.00722524 	-5.0706e-06 	1.62432e-06 	0.0304549
0.00727309 	-4.42428e-06 	1.16049e-06 	0.02397
0.00727309 	-8.58499e-07 	-8.14859e-09 	0.0247042
0.0073201 	-3.70877e-06 	7.71665e-07 	0.0180906
0.0073201 	-6.40643e-07 	-2.67037e-08 	0.0186629
0.00736628 	-2.95205e-06 	4.52911e-07 	0.0127881
0.00736628 	-4.91329e-07 	-4.02542e-08 	0.0132107
0.00741165 	-4.13292e-07 	-3.47405e-08 	0.00831039
0.00741165 	-2.13954e-06 	2.19702e-07 	0.0080269
0.00745622 	-2.96388e-07 	-2.15068e-08 	0.0039252
0.00745622 	-1.17335e-06 	7.06059e-08 	0.00377149
0.0075 	0 	0 	0
0.0075 	0 	0 	0
