/*--------------------------------*- C++ -*----------------------------------*\
| =========                 |                                                 |
| \\      /  F ield         | OpenFOAM: The Open Source CFD Toolbox           |
|  \\    /   O peration     | Version:  v1912                                 |
|   \\  /    A nd           | Website:  www.openfoam.com                      |
|    \\/     M anipulation  |                                                 |
\*---------------------------------------------------------------------------*/
FoamFile
{
    version     2.0;
    format      ascii;
    class       volScalarField;
    location    "198.8";
    object      heatTransferCoeff(T);
}
// * * * * * * * * * * * * * * * * * * * * * * * * * * * * * * * * * * * * * //

dimensions      [1 0 -3 -1 0 0 0];


internalField   uniform 0;

boundaryField
{
    leftWall
    {
        type            calculated;
        value           nonuniform List<scalar> 
128
(
-238.223
-318.151
-232.539
-307.605
-237.559
-274.131
-227.837
-55.4221
-296.905
-257.683
-300.38
-243.665
-307.072
-220.074
-299.772
-122.066
-312.318
-221.504
-315.564
-209.26
-315.953
-197.125
-292.774
-122.948
-303.295
-240.318
-303.354
-227.367
-301.383
-211.456
-276.062
-125.009
-300.77
-242.814
-301.79
-229.063
-301.262
-211.802
-277.607
-124.358
-302.425
-244.65
-303.414
-228.957
-302.211
-210.528
-276.017
-123.423
-302.145
-245.305
-303.295
-229.17
-302.116
-210.472
-275.69
-123.246
-302.457
-245.739
-303.551
-229.115
-302.11
-210.031
-275.08
-122.635
-302.296
-245.731
-303.463
-229.169
-302.121
-210.168
-275.246
-122.801
-302.49
-245.823
-303.607
-229.218
-302.193
-210.143
-275.178
-122.694
-302.174
-245.484
-303.366
-229.398
-302.247
-210.696
-275.894
-123.348
-302.474
-244.876
-303.514
-229.243
-302.39
-210.808
-276.289
-123.559
-300.794
-243.049
-301.851
-229.377
-301.396
-212.142
-277.861
-124.514
-303.344
-240.547
-303.414
-227.648
-301.504
-211.757
-276.283
-125.145
-312.41
-221.635
-315.671
-209.406
-316.09
-197.298
-292.943
-123.077
-297.108
-257.736
-300.586
-243.791
-307.255
-220.253
-299.972
-122.104
)
;
    }
    rightWall
    {
        type            calculated;
        value           nonuniform 0();
    }
    leftSides_periodic0
    {
        type            cyclic;
    }
    leftSides_periodic1
    {
        type            cyclic;
    }
    rightSides_periodic0
    {
        type            cyclic;
    }
    rightSides_periodic1
    {
        type            cyclic;
    }
    leftInOut_periodic0
    {
        type            cyclic;
    }
    leftInOut_periodic1
    {
        type            cyclic;
    }
    rightInOut_periodic0
    {
        type            cyclic;
    }
    rightInOut_periodic1
    {
        type            cyclic;
    }
    procBoundary2to0
    {
        type            processor;
        value           uniform 0;
    }
    procBoundary2to0throughleftSides_periodic1
    {
        type            processorCyclic;
        value           uniform 0;
    }
    procBoundary2to1throughleftSides_periodic1
    {
        type            processorCyclic;
        value           uniform 0;
    }
    procBoundary2to1throughrightSides_periodic1
    {
        type            processorCyclic;
        value           uniform 0;
    }
    procBoundary2to3
    {
        type            processor;
        value           uniform 0;
    }
    procBoundary2to3throughrightInOut_periodic1
    {
        type            processorCyclic;
        value           uniform 0;
    }
}


// ************************************************************************* //
