/*--------------------------------*- C++ -*----------------------------------*\
| =========                 |                                                 |
| \\      /  F ield         | OpenFOAM: The Open Source CFD Toolbox           |
|  \\    /   O peration     | Version:  v1912                                 |
|   \\  /    A nd           | Website:  www.openfoam.com                      |
|    \\/     M anipulation  |                                                 |
\*---------------------------------------------------------------------------*/
FoamFile
{
    version     2.0;
    format      ascii;
    class       volVectorField;
    location    "198.8";
    object      wallShearStress;
}
// * * * * * * * * * * * * * * * * * * * * * * * * * * * * * * * * * * * * * //

dimensions      [1 -1 -2 0 0 0 0];


internalField   uniform (0 0 0);

boundaryField
{
    leftWall
    {
        type            calculated;
        value           nonuniform List<vector> 
128
(
(-2.92174e-05 -8.30108e-05 -0.279809)
(-2.21509e-05 0.00010163 -0.386582)
(-2.61116e-05 -0.000118476 -0.288051)
(-3.35092e-05 0.000152855 -0.374623)
(-1.13816e-05 -0.000205221 -0.309228)
(-3.93444e-05 0.000177813 -0.301519)
(4.66783e-05 -0.000525189 -0.331438)
(7.06907e-05 -0.00111972 0.189253)
(0.0103872 -1.57821e-05 -0.320721)
(-0.00996672 1.79178e-05 -0.336014)
(0.0114156 -2.51525e-05 -0.329051)
(-0.013401 1.90233e-05 -0.32888)
(0.0126994 -6.95992e-05 -0.338551)
(-0.0177701 -1.45008e-05 -0.298363)
(-0.000190963 -0.000448937 -0.342026)
(-0.0362503 -0.00114686 -0.0632041)
(0.00372977 3.02324e-05 -0.349991)
(-0.00239061 -2.73359e-05 -0.301235)
(0.00368374 2.87801e-05 -0.358796)
(-0.00313188 -4.28004e-05 -0.29145)
(0.00400406 1.38539e-05 -0.366608)
(-0.00321172 -8.93976e-05 -0.264355)
(0.00713693 -0.000298603 -0.361044)
(0.00494213 -0.00120471 -0.0387075)
(0.00132314 7.12961e-06 -0.341926)
(-0.000957201 3.26868e-06 -0.316936)
(0.00153643 -6.84596e-06 -0.350084)
(-0.00132322 -3.03971e-08 -0.304711)
(0.0015765 -4.39237e-05 -0.359064)
(-0.00178343 -3.79348e-05 -0.269764)
(0.00163798 -0.00036049 -0.354254)
(0.00107438 -0.00115697 -0.00735861)
(0.000649553 -1.78764e-06 -0.338194)
(-0.000350738 7.42565e-06 -0.319603)
(0.000896267 -1.31592e-05 -0.347494)
(-0.000759836 5.80082e-06 -0.306823)
(0.00159915 -4.48831e-05 -0.357025)
(-0.000988738 -2.86185e-05 -0.270485)
(0.00432936 -0.000353617 -0.352254)
(0.0022875 -0.00116146 -0.0117113)
(0.000315862 -6.46673e-06 -0.338376)
(-7.31345e-05 1.27264e-05 -0.321238)
(0.000488046 -2.06265e-05 -0.348484)
(-0.000315606 9.5358e-06 -0.305773)
(0.000780762 -5.44757e-05 -0.358967)
(-0.000553315 -3.50561e-05 -0.266372)
(0.00216982 -0.000355431 -0.351681)
(0.00195086 -0.00118081 -0.00500723)
(9.8655e-05 -8.59547e-06 -0.337584)
(-1.75455e-05 1.2362e-05 -0.321714)
(0.000234978 -2.13804e-05 -0.347907)
(-0.000179228 9.97821e-06 -0.305531)
(0.000593224 -5.19116e-05 -0.358186)
(-0.00021717 -3.15914e-05 -0.265434)
(0.00189947 -0.000347762 -0.350017)
(0.00131145 -0.00117753 -0.00522737)
(4.63051e-05 -9.95112e-06 -0.337368)
(1.58558e-05 1.44443e-05 -0.322049)
(0.00010536 -2.44044e-05 -0.347937)
(-5.23664e-05 1.10836e-05 -0.30527)
(0.000218473 -5.6872e-05 -0.358462)
(-0.000116828 -3.53723e-05 -0.264427)
(0.000725716 -0.000351611 -0.349532)
(0.000586291 -0.00118764 -0.00384059)
(3.37544e-06 -9.97045e-06 -0.337186)
(7.52519e-06 1.31509e-05 -0.322009)
(5.85119e-06 -2.31927e-05 -0.347705)
(1.12998e-05 1.0646e-05 -0.305205)
(5.91779e-06 -5.35654e-05 -0.358039)
(8.46615e-06 -3.26059e-05 -0.264398)
(-2.24859e-05 -0.000347592 -0.349129)
(-5.73972e-05 -0.00118215 -0.00432609)
(-3.95763e-05 -9.84776e-06 -0.337438)
(-1.25479e-06 1.44959e-05 -0.322142)
(-9.59557e-05 -2.4369e-05 -0.348008)
(7.43281e-05 1.11287e-05 -0.30538)
(-0.000211268 -5.68171e-05 -0.358544)
(0.000132063 -3.52308e-05 -0.264557)
(-0.000771385 -0.00035178 -0.349654)
(-0.000699694 -0.00118763 -0.0039113)
(-9.7349e-05 -8.39061e-06 -0.337683)
(2.64101e-05 1.2393e-05 -0.321909)
(-0.000233063 -2.12392e-05 -0.347999)
(0.000195182 1.00345e-05 -0.305789)
(-0.000593356 -5.18643e-05 -0.358299)
(0.000227506 -3.1293e-05 -0.265722)
(-0.0019431 -0.000348125 -0.35027)
(-0.00141259 -0.00117751 -0.00536433)
(-0.00031596 -6.24933e-06 -0.338505)
(7.08212e-05 1.27343e-05 -0.321485)
(-0.000492782 -2.04622e-05 -0.348605)
(0.000317445 9.60489e-06 -0.306098)
(-0.000788113 -5.43679e-05 -0.359119)
(0.000562062 -3.47049e-05 -0.266743)
(-0.00220319 -0.000355839 -0.352011)
(-0.00199065 -0.00118073 -0.00521764)
(-0.000655503 -1.56017e-06 -0.338307)
(0.00033956 7.54844e-06 -0.319845)
(-0.000911651 -1.30247e-05 -0.347586)
(0.000749295 5.81947e-06 -0.307178)
(-0.00162035 -4.48013e-05 -0.357123)
(0.00098718 -2.81549e-05 -0.270948)
(-0.0043522 -0.000354078 -0.352527)
(-0.00229993 -0.00116101 -0.0119983)
(-0.00133416 7.28023e-06 -0.342051)
(0.000940022 3.52553e-06 -0.317174)
(-0.00155255 -6.82776e-06 -0.35018)
(0.00130045 5.14773e-08 -0.305037)
(-0.0015945 -4.41691e-05 -0.359159)
(0.00177115 -3.74055e-05 -0.270182)
(-0.00162469 -0.000360896 -0.354511)
(-0.00100012 -0.00115672 -0.00760771)
(-0.00375226 3.0416e-05 -0.350198)
(0.00236903 -2.70911e-05 -0.301409)
(-0.0037027 2.88113e-05 -0.358988)
(0.00310894 -4.26917e-05 -0.291643)
(-0.00402538 1.36259e-05 -0.366798)
(0.00319179 -8.91971e-05 -0.264589)
(-0.00712874 -0.000298112 -0.361297)
(-0.00487337 -0.00120439 -0.0388899)
(-0.0104227 -1.55432e-05 -0.320976)
(0.00994108 1.80734e-05 -0.336112)
(-0.011449 -2.51629e-05 -0.329269)
(0.0133693 1.91821e-05 -0.329046)
(-0.0127335 -6.95524e-05 -0.338715)
(0.0177368 -1.41823e-05 -0.298627)
(0.000187821 -0.00044924 -0.342217)
(0.0363688 -0.00114615 -0.0635289)
)
;
    }
    rightWall
    {
        type            calculated;
        value           nonuniform 0();
    }
    leftSides_periodic0
    {
        type            cyclic;
    }
    leftSides_periodic1
    {
        type            cyclic;
    }
    rightSides_periodic0
    {
        type            cyclic;
    }
    rightSides_periodic1
    {
        type            cyclic;
    }
    leftInOut_periodic0
    {
        type            cyclic;
    }
    leftInOut_periodic1
    {
        type            cyclic;
    }
    rightInOut_periodic0
    {
        type            cyclic;
    }
    rightInOut_periodic1
    {
        type            cyclic;
    }
    procBoundary2to0
    {
        type            processor;
        value           uniform (0 0 0);
    }
    procBoundary2to0throughleftSides_periodic1
    {
        type            processorCyclic;
        value           uniform (0 0 0);
    }
    procBoundary2to1throughleftSides_periodic1
    {
        type            processorCyclic;
        value           uniform (0 0 0);
    }
    procBoundary2to1throughrightSides_periodic1
    {
        type            processorCyclic;
        value           uniform (0 0 0);
    }
    procBoundary2to3
    {
        type            processor;
        value           uniform (0 0 0);
    }
    procBoundary2to3throughrightInOut_periodic1
    {
        type            processorCyclic;
        value           uniform (0 0 0);
    }
}


// ************************************************************************* //
