/*--------------------------------*- C++ -*----------------------------------*\
| =========                 |                                                 |
| \\      /  F ield         | OpenFOAM: The Open Source CFD Toolbox           |
|  \\    /   O peration     | Version:  v1906                                 |
|   \\  /    A nd           | Web:      www.OpenFOAM.com                      |
|    \\/     M anipulation  |                                                 |
\*---------------------------------------------------------------------------*/
FoamFile
{
    version     2.0;
    format      ascii;
    class       volScalarField;
    location    "200";
    object      nut;
}
// * * * * * * * * * * * * * * * * * * * * * * * * * * * * * * * * * * * * * //

dimensions      [0 2 -1 0 0 0 0];


internalField   nonuniform List<scalar> 
252800
(
1.12548e-11
1.10042e-11
1.03416e-11
7.14852e-12
6.74277e-12
6.70716e-12
6.77865e-12
6.85062e-12
7.34861e-12
7.3396e-12
7.89402e-12
8.02693e-12
7.78223e-12
8.45345e-12
8.38155e-12
8.64843e-12
8.77551e-12
8.49302e-12
8.96551e-12
8.85984e-12
8.87804e-12
8.9896e-12
8.6844e-12
8.95689e-12
8.83268e-12
8.65243e-12
8.74488e-12
8.42638e-12
8.44675e-12
8.28817e-12
7.91132e-12
7.98226e-12
7.6725e-12
7.38662e-12
7.1282e-12
6.69703e-12
6.77149e-12
6.57338e-12
6.38114e-12
6.57098e-12
6.24856e-11
6.10059e-11
3.98256e-11
4.14781e-11
4.08138e-11
6.95988e-11
7.1185e-11
6.39243e-11
6.74354e-11
6.62136e-11
6.66167e-11
6.78891e-11
6.44712e-11
6.85031e-11
6.72794e-11
6.80798e-11
6.93673e-11
6.59047e-11
7.04347e-11
6.91587e-11
6.90567e-11
7.03368e-11
6.68061e-11
7.03774e-11
6.90786e-11
6.80687e-11
6.93106e-11
6.58012e-11
6.85009e-11
6.72096e-11
6.66541e-11
6.78812e-11
6.44121e-11
6.74747e-11
6.61788e-11
7.00109e-11
7.12431e-11
6.71627e-11
4.5253e-11
4.60274e-11
5.3464e-10
5.21204e-10
4.98637e-10
3.40348e-10
3.4114e-10
5.76859e-10
5.90162e-10
5.68439e-10
5.69727e-10
5.61747e-10
5.60436e-10
5.67865e-10
5.50591e-10
5.70899e-10
5.637e-10
5.69206e-10
5.76815e-10
5.56702e-10
5.84774e-10
5.77366e-10
5.76735e-10
5.84191e-10
5.63592e-10
5.84399e-10
5.76763e-10
5.69311e-10
5.76468e-10
5.55879e-10
5.71008e-10
5.6358e-10
5.60773e-10
5.68096e-10
5.47697e-10
5.69742e-10
5.63409e-10
5.84032e-10
5.89559e-10
5.59386e-10
3.66147e-10
3.68296e-10
2.92137e-09
2.848e-09
2.75768e-09
1.79457e-09
1.81455e-09
2.88659e-09
2.95195e-09
2.88563e-09
2.94182e-09
2.91337e-09
2.89852e-09
2.92281e-09
2.85686e-09
2.94314e-09
2.92026e-09
2.94816e-09
2.97358e-09
2.90952e-09
3.01311e-09
2.9895e-09
2.98764e-09
3.01164e-09
2.94512e-09
3.01148e-09
2.98627e-09
2.94941e-09
2.97167e-09
2.90427e-09
2.94383e-09
2.91956e-09
2.90024e-09
2.92401e-09
2.8724e-09
2.94123e-09
2.92457e-09
2.93754e-09
2.94379e-09
2.81313e-09
1.86351e-09
1.85884e-09
1.12037e-08
1.09262e-08
1.0627e-08
6.66182e-09
6.75443e-09
1.01792e-08
1.04085e-08
1.02788e-08
1.06832e-08
1.06123e-08
1.05518e-08
1.06078e-08
1.04582e-08
1.07081e-08
1.06582e-08
1.07626e-08
1.08234e-08
1.06818e-08
1.09671e-08
1.09147e-08
1.09113e-08
1.09654e-08
1.08146e-08
1.09617e-08
1.09024e-08
1.07685e-08
1.08156e-08
1.0566e-08
1.07105e-08
1.06538e-08
1.05575e-08
1.0611e-08
1.05195e-08
1.06806e-08
1.06521e-08
1.03981e-08
1.03653e-08
9.95302e-09
6.69303e-09
6.64138e-09
3.34274e-08
3.26156e-08
1.94355e-08
1.91707e-08
1.94123e-08
2.77776e-08
2.84041e-08
2.98445e-08
3.00355e-08
2.99079e-08
2.97779e-08
2.98777e-08
2.99977e-08
3.02684e-08
3.01906e-08
3.05096e-08
3.06245e-08
3.03924e-08
3.10445e-08
3.09581e-08
3.09554e-08
3.1048e-08
3.07878e-08
3.10295e-08
3.09202e-08
3.05276e-08
3.0598e-08
3.03184e-08
3.02726e-08
3.01671e-08
2.97919e-08
2.98797e-08
2.96141e-08
3.00311e-08
2.999e-08
2.84584e-08
2.82526e-08
2.72238e-08
1.86347e-08
1.84345e-08
8.23889e-08
8.04333e-08
7.8082e-08
4.53825e-08
4.57483e-08
6.19963e-08
6.33954e-08
6.35223e-08
6.91221e-08
6.89824e-08
6.89181e-08
6.90588e-08
6.99082e-08
7.02959e-08
7.02274e-08
7.10677e-08
7.12453e-08
7.09846e-08
7.22843e-08
7.21851e-08
7.21955e-08
7.23119e-08
7.19784e-08
7.22477e-08
7.20862e-08
7.11099e-08
7.11671e-08
7.0778e-08
7.02969e-08
7.01285e-08
6.89464e-08
6.90371e-08
6.87757e-08
6.91302e-08
6.90385e-08
6.36681e-08
6.29879e-08
6.08766e-08
4.25394e-08
4.20227e-08
1.7361e-07
1.69576e-07
9.55114e-08
9.16232e-08
9.17111e-08
1.17313e-07
1.19945e-07
1.20887e-07
1.34749e-07
1.34769e-07
1.35325e-07
1.35485e-07
1.38219e-07
1.38676e-07
1.38722e-07
1.40652e-07
1.40882e-07
1.40777e-07
1.43104e-07
1.43058e-07
1.43115e-07
1.43202e-07
1.42934e-07
1.43024e-07
1.42832e-07
1.40734e-07
1.40685e-07
1.40282e-07
1.38657e-07
1.38405e-07
1.35378e-07
1.35375e-07
1.34586e-07
1.34817e-07
1.34523e-07
1.20704e-07
1.19057e-07
8.58229e-08
8.24648e-08
8.1457e-08
3.19904e-07
3.12584e-07
3.01379e-07
1.6173e-07
1.60506e-07
1.93449e-07
1.97726e-07
2.00251e-07
2.28366e-07
2.28847e-07
2.31088e-07
2.31243e-07
2.37572e-07
2.38055e-07
2.38383e-07
2.42235e-07
2.425e-07
2.4282e-07
2.46651e-07
2.46755e-07
2.46918e-07
2.46899e-07
2.46901e-07
2.46498e-07
2.46307e-07
2.42369e-07
2.42078e-07
2.41803e-07
2.37986e-07
2.37601e-07
2.31181e-07
2.30929e-07
2.30839e-07
2.28581e-07
2.27773e-07
1.99299e-07
1.96106e-07
1.44941e-07
1.39467e-07
1.37893e-07
5.25368e-07
5.13437e-07
4.9335e-07
2.54399e-07
2.50288e-07
2.7963e-07
2.8564e-07
3.42288e-07
3.44612e-07
3.45894e-07
3.5108e-07
3.51223e-07
3.63077e-07
3.6361e-07
3.64393e-07
3.71097e-07
3.71396e-07
3.72384e-07
3.78274e-07
3.78618e-07
3.78955e-07
3.78762e-07
3.79206e-07
3.78014e-07
3.77841e-07
3.71287e-07
3.70624e-07
3.70582e-07
3.63448e-07
3.62844e-07
3.51223e-07
3.50565e-07
3.50834e-07
3.45073e-07
3.43341e-07
2.8843e-07
2.83069e-07
2.76059e-07
2.10416e-07
2.0835e-07
7.83103e-07
7.65302e-07
3.8715e-07
3.56147e-07
3.46516e-07
3.66058e-07
3.73685e-07
3.82648e-07
4.6521e-07
4.6836e-07
4.79761e-07
4.79763e-07
4.82283e-07
5.02227e-07
5.0367e-07
5.1449e-07
5.1478e-07
5.16755e-07
5.25969e-07
5.26646e-07
5.27113e-07
5.26669e-07
5.27762e-07
5.25525e-07
5.25404e-07
5.14645e-07
5.13456e-07
5.1386e-07
5.01819e-07
5.00968e-07
4.79868e-07
4.7854e-07
4.7964e-07
4.66314e-07
4.62362e-07
3.78045e-07
3.70022e-07
3.62139e-07
2.80518e-07
2.78627e-07
1.07622e-06
1.05108e-06
5.09339e-07
4.62457e-07
4.4565e-07
4.40261e-07
4.49474e-07
4.61901e-07
5.74578e-07
5.79097e-07
5.97289e-07
5.97502e-07
6.28779e-07
6.29855e-07
6.32521e-07
6.49562e-07
6.49961e-07
6.53535e-07
6.65616e-07
6.66914e-07
6.68143e-07
6.67258e-07
6.69485e-07
6.65004e-07
6.64915e-07
6.49938e-07
6.47843e-07
6.48742e-07
6.29345e-07
6.27645e-07
5.97733e-07
5.954e-07
5.96922e-07
5.76043e-07
5.70293e-07
4.55239e-07
4.44734e-07
4.35922e-07
3.47888e-07
3.46458e-07
1.39285e-06
1.35981e-06
1.29375e-06
5.70105e-07
5.45324e-07
5.08125e-07
5.17984e-07
5.3252e-07
6.69186e-07
6.74455e-07
6.94317e-07
6.94528e-07
7.34918e-07
7.36389e-07
7.39405e-07
7.59909e-07
7.60441e-07
7.64312e-07
7.79918e-07
7.81302e-07
7.82555e-07
7.81641e-07
7.839e-07
7.7915e-07
7.78944e-07
7.60187e-07
7.57859e-07
7.58673e-07
7.35639e-07
7.33598e-07
6.94677e-07
6.9197e-07
6.93798e-07
6.70791e-07
6.64026e-07
5.24659e-07
5.12768e-07
4.21353e-07
4.12166e-07
4.11226e-07
1.71165e-06
1.67076e-06
7.64268e-07
6.81323e-07
6.48037e-07
5.74013e-07
5.84209e-07
6.00663e-07
7.54983e-07
7.61088e-07
7.83128e-07
7.83213e-07
7.89056e-07
8.30634e-07
8.34111e-07
8.57018e-07
8.57467e-07
8.62091e-07
8.79273e-07
8.80936e-07
8.82289e-07
8.81144e-07
8.83998e-07
8.78431e-07
8.7834e-07
8.57296e-07
8.54594e-07
8.55851e-07
8.29799e-07
8.27655e-07
7.83508e-07
7.80391e-07
7.82784e-07
7.56857e-07
7.49244e-07
5.91704e-07
5.78661e-07
5.70078e-07
4.783e-07
4.77976e-07
2.00431e-06
1.95639e-06
1.85713e-06
7.89406e-07
7.48291e-07
6.3722e-07
6.47514e-07
6.65702e-07
8.37545e-07
8.44491e-07
8.68802e-07
8.68772e-07
9.20323e-07
9.21478e-07
9.25421e-07
9.50679e-07
9.51043e-07
9.56426e-07
9.75021e-07
9.76968e-07
9.78441e-07
9.77062e-07
9.80525e-07
9.7412e-07
9.74152e-07
9.5097e-07
9.47892e-07
9.26074e-07
9.20581e-07
9.18326e-07
8.69231e-07
8.65704e-07
8.68643e-07
8.39716e-07
8.31234e-07
6.55732e-07
6.41739e-07
6.33756e-07
5.46227e-07
5.46605e-07
2.26948e-06
2.21544e-06
9.98217e-07
8.87457e-07
8.40435e-07
6.98187e-07
7.08336e-07
7.28074e-07
9.17883e-07
9.25656e-07
9.52247e-07
9.5213e-07
1.00917e-06
1.01026e-06
1.01465e-06
1.04229e-06
1.0426e-06
1.04867e-06
1.06873e-06
1.07094e-06
1.07254e-06
1.07095e-06
1.07495e-06
1.06778e-06
1.06791e-06
1.0426e-06
1.03917e-06
1.04125e-06
1.00932e-06
1.00691e-06
9.52745e-07
9.48822e-07
9.52241e-07
9.20367e-07
9.10969e-07
7.17192e-07
7.02455e-07
6.23662e-07
6.15944e-07
6.17055e-07
2.5228e-06
2.46321e-06
1.1128e-06
9.90263e-07
9.36901e-07
7.58805e-07
7.68555e-07
9.84627e-07
9.97743e-07
1.00635e-06
1.03524e-06
1.03507e-06
1.04335e-06
1.09897e-06
1.10378e-06
1.1338e-06
1.13408e-06
1.14075e-06
1.16239e-06
1.16481e-06
1.16652e-06
1.16476e-06
1.1692e-06
1.16139e-06
1.16157e-06
1.13415e-06
1.13041e-06
1.13276e-06
1.09799e-06
1.09537e-06
1.03582e-06
1.03152e-06
1.03535e-06
1.00057e-06
9.90158e-07
7.7801e-07
7.62671e-07
7.56855e-07
6.89518e-07
6.91482e-07
2.79595e-06
2.73063e-06
2.59309e-06
1.10203e-06
1.04141e-06
8.20802e-07
8.29949e-07
8.52775e-07
1.08001e-06
1.08949e-06
1.12011e-06
1.11996e-06
1.1289e-06
1.19141e-06
1.19664e-06
1.22908e-06
1.22939e-06
1.23654e-06
1.25991e-06
1.26251e-06
1.2643e-06
1.26241e-06
1.26718e-06
1.25887e-06
1.25907e-06
1.22948e-06
1.22547e-06
1.19775e-06
1.19042e-06
1.18751e-06
1.12069e-06
1.11604e-06
1.12012e-06
1.08313e-06
1.07151e-06
8.40024e-07
8.24122e-07
7.72751e-07
7.68617e-07
7.71576e-07
3.10104e-06
3.02957e-06
1.37716e-06
1.22649e-06
1.15734e-06
8.86217e-07
8.94637e-07
9.19382e-07
1.16682e-06
1.17724e-06
1.21096e-06
1.21091e-06
1.22045e-06
1.29177e-06
1.2974e-06
1.33281e-06
1.33318e-06
1.34069e-06
1.36667e-06
1.36941e-06
1.37127e-06
1.36928e-06
1.3743e-06
1.36558e-06
1.36574e-06
1.33323e-06
1.32899e-06
1.29837e-06
1.29069e-06
1.28729e-06
1.21166e-06
1.20665e-06
1.21082e-06
1.17039e-06
1.15715e-06
9.05444e-07
8.88866e-07
8.86645e-07
8.55106e-07
8.59216e-07
3.44414e-06
3.36602e-06
1.53551e-06
1.36715e-06
1.2879e-06
9.57222e-07
9.64869e-07
9.92083e-07
1.26429e-06
1.2759e-06
1.31424e-06
1.31437e-06
1.40127e-06
1.40422e-06
1.41028e-06
1.44752e-06
1.44799e-06
1.45567e-06
1.48215e-06
1.48498e-06
1.48695e-06
1.48492e-06
1.49006e-06
1.48101e-06
1.48111e-06
1.44815e-06
1.44378e-06
1.44626e-06
1.40321e-06
1.3991e-06
1.31514e-06
1.30966e-06
1.27731e-06
1.26847e-06
1.25312e-06
9.76601e-07
9.59085e-07
9.59142e-07
9.50987e-07
9.56418e-07
3.81868e-06
3.7336e-06
1.7133e-06
1.52503e-06
1.43428e-06
1.03564e-06
1.04248e-06
1.07276e-06
1.37169e-06
1.38489e-06
1.43211e-06
1.43242e-06
1.52057e-06
1.52402e-06
1.53052e-06
1.56857e-06
1.56866e-06
1.57638e-06
1.60295e-06
1.60573e-06
1.60688e-06
1.6048e-06
1.61009e-06
1.60178e-06
1.60211e-06
1.56893e-06
1.56471e-06
1.56776e-06
1.5233e-06
1.5187e-06
1.4334e-06
1.42741e-06
1.38654e-06
1.37683e-06
1.35892e-06
1.05536e-06
1.03662e-06
1.03927e-06
1.05825e-06
1.06519e-06
4.20786e-06
4.11601e-06
1.905e-06
1.69666e-06
1.59398e-06
1.12086e-06
1.12632e-06
1.45461e-06
1.48183e-06
1.49707e-06
1.54877e-06
1.54873e-06
1.55946e-06
1.643e-06
1.64889e-06
1.68454e-06
1.68482e-06
1.6924e-06
1.71971e-06
1.72245e-06
1.72379e-06
1.72179e-06
1.72684e-06
1.71853e-06
1.71864e-06
1.68521e-06
1.68101e-06
1.68375e-06
1.64213e-06
1.63815e-06
1.54972e-06
1.54407e-06
1.54876e-06
1.48826e-06
1.46763e-06
1.14026e-06
1.12075e-06
1.12666e-06
1.17874e-06
1.18737e-06
4.59372e-06
4.49573e-06
4.26473e-06
1.87911e-06
1.76483e-06
1.21194e-06
1.21491e-06
1.55547e-06
1.58496e-06
1.60105e-06
1.65898e-06
1.65922e-06
1.67002e-06
1.75263e-06
1.75877e-06
1.79592e-06
1.79635e-06
1.80424e-06
1.83375e-06
1.83659e-06
1.83807e-06
1.83604e-06
1.84115e-06
1.83251e-06
1.83246e-06
1.79687e-06
1.79244e-06
1.79508e-06
1.75206e-06
1.74773e-06
1.66036e-06
1.65456e-06
1.65886e-06
1.59215e-06
1.56996e-06
1.22907e-06
1.21016e-06
1.22031e-06
1.31367e-06
1.32417e-06
4.96637e-06
4.86305e-06
2.31252e-06
2.0692e-06
1.94409e-06
1.31151e-06
1.31128e-06
1.34507e-06
1.68282e-06
1.69957e-06
1.76116e-06
1.76156e-06
1.77275e-06
1.85766e-06
1.86403e-06
1.90242e-06
1.90294e-06
1.91116e-06
1.94253e-06
1.94548e-06
1.947e-06
1.94492e-06
1.95014e-06
1.94122e-06
1.94108e-06
1.90366e-06
1.89903e-06
1.90168e-06
1.85732e-06
1.85274e-06
1.76298e-06
1.75691e-06
1.76112e-06
1.69054e-06
1.66743e-06
1.32525e-06
1.30775e-06
1.32284e-06
1.46168e-06
1.47413e-06
5.32159e-06
5.21366e-06
4.95161e-06
2.25995e-06
2.1251e-06
1.41925e-06
1.41535e-06
1.44815e-06
1.77757e-06
1.79468e-06
1.85865e-06
1.85913e-06
1.87038e-06
1.95434e-06
1.96068e-06
1.99852e-06
1.99901e-06
2.00747e-06
2.03959e-06
2.04261e-06
2.04405e-06
2.0419e-06
2.04727e-06
2.03823e-06
2.03808e-06
2.00002e-06
1.99531e-06
1.9981e-06
1.95426e-06
1.94982e-06
1.86092e-06
1.85477e-06
1.8589e-06
1.78581e-06
1.7624e-06
1.42882e-06
1.41345e-06
1.43378e-06
1.61521e-06
1.62946e-06
5.65695e-06
5.5445e-06
5.26863e-06
2.45077e-06
2.30728e-06
1.53149e-06
1.52446e-06
1.55547e-06
1.86778e-06
1.88485e-06
1.94975e-06
1.95021e-06
1.96109e-06
2.03927e-06
2.04529e-06
2.08037e-06
2.0807e-06
2.08927e-06
2.1207e-06
2.12376e-06
2.12497e-06
2.12275e-06
2.1283e-06
2.11934e-06
2.1193e-06
2.08215e-06
2.07747e-06
2.08059e-06
2.03957e-06
2.03572e-06
1.95251e-06
1.94658e-06
1.95057e-06
1.87652e-06
1.8536e-06
1.53719e-06
1.5241e-06
1.5485e-06
1.77306e-06
1.78891e-06
5.9793e-06
5.86296e-06
5.57524e-06
2.64415e-06
2.493e-06
1.65343e-06
1.64266e-06
1.67053e-06
1.95274e-06
1.96932e-06
2.03339e-06
2.03374e-06
2.04383e-06
2.11145e-06
2.11685e-06
2.14701e-06
2.14702e-06
2.15561e-06
2.1848e-06
2.18789e-06
2.18873e-06
2.18642e-06
2.19222e-06
2.1835e-06
2.1837e-06
2.14906e-06
2.14454e-06
2.14818e-06
2.1122e-06
2.10939e-06
2.03673e-06
2.03127e-06
1.97512e-06
1.96192e-06
1.94039e-06
1.65413e-06
1.64428e-06
1.67305e-06
1.93725e-06
1.95451e-06
6.29249e-06
6.17298e-06
3.1401e-06
2.84835e-06
2.69029e-06
1.78663e-06
1.7713e-06
2.00939e-06
2.03334e-06
2.04894e-06
2.11005e-06
2.1102e-06
2.11916e-06
2.17191e-06
2.17648e-06
2.19982e-06
2.19937e-06
2.20791e-06
2.23338e-06
2.23646e-06
2.23685e-06
2.23442e-06
2.24054e-06
2.2322e-06
2.23276e-06
2.20213e-06
2.19787e-06
2.20221e-06
2.17322e-06
2.17184e-06
2.11405e-06
2.10927e-06
2.11287e-06
2.04283e-06
2.02363e-06
1.78091e-06
1.7754e-06
1.80918e-06
2.11669e-06
2.13539e-06
6.59887e-06
6.47691e-06
6.17171e-06
3.06578e-06
2.90139e-06
1.93036e-06
1.90963e-06
1.92718e-06
2.11216e-06
2.12628e-06
2.18213e-06
2.18199e-06
2.1895e-06
2.22384e-06
2.22736e-06
2.24231e-06
2.24131e-06
2.24968e-06
2.27006e-06
2.2731e-06
2.27294e-06
2.27039e-06
2.27684e-06
2.26905e-06
2.27006e-06
2.24489e-06
2.241e-06
2.24613e-06
2.22579e-06
2.22613e-06
2.18678e-06
2.18289e-06
2.13502e-06
2.12178e-06
2.1057e-06
1.91685e-06
1.91665e-06
1.95624e-06
2.31363e-06
2.33384e-06
6.8992e-06
6.7755e-06
6.4646e-06
3.29628e-06
3.12581e-06
2.08361e-06
2.05674e-06
2.06792e-06
2.19185e-06
2.20434e-06
2.25423e-06
2.25367e-06
2.25953e-06
2.273e-06
2.27535e-06
2.28083e-06
2.27922e-06
2.28723e-06
2.3013e-06
2.30424e-06
2.30343e-06
2.30081e-06
2.3075e-06
2.30052e-06
2.30203e-06
2.28363e-06
2.28024e-06
2.28617e-06
2.27564e-06
2.27785e-06
2.25941e-06
2.25656e-06
2.21461e-06
2.20154e-06
2.18885e-06
2.06127e-06
2.06702e-06
2.11327e-06
2.52761e-06
2.54963e-06
7.19322e-06
7.06851e-06
6.754e-06
3.53993e-06
3.36357e-06
2.24724e-06
2.21361e-06
2.21807e-06
2.27573e-06
2.28664e-06
2.33122e-06
2.33025e-06
2.33451e-06
2.32644e-06
2.32762e-06
2.32335e-06
2.3211e-06
2.32862e-06
2.33556e-06
2.33834e-06
2.33685e-06
2.33417e-06
2.34104e-06
2.33505e-06
2.3371e-06
2.32637e-06
2.32354e-06
2.33027e-06
2.32983e-06
2.33387e-06
2.33695e-06
2.33512e-06
2.29847e-06
2.28552e-06
2.2762e-06
2.21525e-06
2.22743e-06
2.28115e-06
2.75894e-06
2.78313e-06
7.4828e-06
7.3578e-06
7.04163e-06
3.79827e-06
3.61666e-06
2.42396e-06
2.38305e-06
2.36428e-06
2.36727e-06
2.37647e-06
2.41641e-06
2.41523e-06
2.40024e-06
2.3897e-06
2.38979e-06
2.37639e-06
2.37356e-06
2.38052e-06
2.3801e-06
2.38269e-06
2.38063e-06
2.37794e-06
2.38491e-06
2.37991e-06
2.38247e-06
2.37964e-06
2.3774e-06
2.38481e-06
2.39388e-06
2.39958e-06
2.42292e-06
2.42191e-06
2.4248e-06
2.37702e-06
2.37132e-06
2.38159e-06
2.40066e-06
2.46247e-06
3.00966e-06
3.03612e-06
7.77922e-06
7.65439e-06
7.33755e-06
4.07324e-06
3.88685e-06
2.61693e-06
2.56829e-06
2.55777e-06
2.46806e-06
2.4754e-06
2.5118e-06
2.51067e-06
2.47844e-06
2.46606e-06
2.46521e-06
2.44391e-06
2.44061e-06
2.44696e-06
2.43963e-06
2.44201e-06
2.43956e-06
2.4369e-06
2.44385e-06
2.43981e-06
2.44279e-06
2.44747e-06
2.44578e-06
2.45367e-06
2.47108e-06
2.47817e-06
2.5194e-06
2.51895e-06
2.49022e-06
2.47763e-06
2.47583e-06
2.56341e-06
2.58989e-06
2.6602e-06
3.28042e-06
3.30921e-06
8.10869e-06
7.98386e-06
7.66504e-06
4.37017e-06
4.1786e-06
2.82731e-06
2.77059e-06
2.7517e-06
2.57994e-06
2.58527e-06
2.61933e-06
2.61854e-06
2.61935e-06
2.55806e-06
2.55642e-06
2.52875e-06
2.52513e-06
2.52462e-06
2.51733e-06
2.5195e-06
2.51687e-06
2.51429e-06
2.52109e-06
2.51793e-06
2.52123e-06
2.5327e-06
2.53152e-06
2.53966e-06
2.56395e-06
2.57214e-06
2.62832e-06
2.62819e-06
2.62956e-06
2.58917e-06
2.59154e-06
2.76198e-06
2.79632e-06
2.87543e-06
3.57134e-06
3.60246e-06
8.50842e-06
8.38253e-06
5.01935e-06
4.6972e-06
4.49846e-06
3.05535e-06
2.9903e-06
2.96264e-06
2.70551e-06
2.70874e-06
2.74173e-06
2.74153e-06
2.74167e-06
2.66881e-06
2.66652e-06
2.63408e-06
2.63026e-06
2.63529e-06
2.61644e-06
2.61838e-06
2.61578e-06
2.61333e-06
2.61987e-06
2.61748e-06
2.62102e-06
2.6385e-06
2.63779e-06
2.64597e-06
2.67558e-06
2.68459e-06
2.75234e-06
2.7523e-06
2.75246e-06
2.71425e-06
2.72096e-06
2.97771e-06
3.02024e-06
3.79711e-06
3.88183e-06
3.91527e-06
9.01051e-06
8.88167e-06
5.39522e-06
5.06008e-06
4.85075e-06
3.29852e-06
3.22501e-06
2.87056e-06
2.84785e-06
2.84902e-06
2.88266e-06
2.88329e-06
2.81785e-06
2.80241e-06
2.79966e-06
2.76414e-06
2.76022e-06
2.76456e-06
2.7412e-06
2.74292e-06
2.74051e-06
2.73822e-06
2.74441e-06
2.7427e-06
2.74641e-06
2.76908e-06
2.76879e-06
2.77685e-06
2.81006e-06
2.81961e-06
2.89512e-06
2.89491e-06
2.89362e-06
2.856e-06
2.86703e-06
3.20832e-06
3.25908e-06
3.35636e-06
4.20958e-06
4.2453e-06
9.59407e-06
9.46078e-06
5.8121e-06
5.45547e-06
5.23136e-06
3.54225e-06
3.46017e-06
3.03778e-06
3.00939e-06
3.00894e-06
3.04685e-06
3.04857e-06
2.97952e-06
2.96387e-06
2.96086e-06
2.9243e-06
2.92041e-06
2.92408e-06
2.89724e-06
2.89873e-06
2.89672e-06
2.89461e-06
2.90038e-06
2.89919e-06
2.903e-06
2.9298e-06
2.92986e-06
2.93761e-06
2.97238e-06
2.98213e-06
3.06138e-06
3.06074e-06
3.05773e-06
3.01704e-06
3.0317e-06
3.43968e-06
3.49802e-06
3.60526e-06
4.5479e-06
4.58601e-06
1.01428e-05
1.00061e-05
9.62938e-06
5.84523e-06
5.60409e-06
3.78043e-06
3.69017e-06
3.64109e-06
3.18716e-06
3.18716e-06
3.2404e-06
3.2435e-06
3.24331e-06
3.1591e-06
3.15608e-06
3.12083e-06
3.11714e-06
3.12023e-06
3.0913e-06
3.09261e-06
3.09124e-06
3.08935e-06
3.09462e-06
3.09369e-06
3.0975e-06
3.12695e-06
3.12725e-06
3.17015e-06
3.16839e-06
3.17804e-06
3.2573e-06
3.25597e-06
3.25091e-06
3.19539e-06
3.2105e-06
3.66665e-06
3.73128e-06
3.84882e-06
4.87611e-06
4.91769e-06
1.0519e-05
1.03827e-05
6.56427e-06
6.17729e-06
5.92734e-06
4.00858e-06
3.91192e-06
3.86066e-06
3.39302e-06
3.39467e-06
3.47082e-06
3.47559e-06
3.47574e-06
3.39449e-06
3.39165e-06
3.3601e-06
3.35681e-06
3.35945e-06
3.33021e-06
3.33137e-06
3.33097e-06
3.32931e-06
3.33403e-06
3.33298e-06
3.33667e-06
3.36691e-06
3.36726e-06
3.40627e-06
3.40446e-06
3.41376e-06
3.4904e-06
3.48816e-06
3.48066e-06
3.40252e-06
3.41637e-06
3.88667e-06
3.95518e-06
4.0816e-06
5.18818e-06
5.23292e-06
1.071e-05
1.05777e-05
1.02026e-05
6.44407e-06
6.19552e-06
4.23643e-06
4.13615e-06
4.08565e-06
3.63253e-06
3.63711e-06
3.74207e-06
3.74871e-06
3.74944e-06
3.67396e-06
3.67143e-06
3.64557e-06
3.64286e-06
3.6453e-06
3.61784e-06
3.61896e-06
3.61991e-06
3.61845e-06
3.62266e-06
3.62099e-06
3.62444e-06
3.65307e-06
3.65327e-06
3.68646e-06
3.68438e-06
3.69334e-06
3.76458e-06
3.76123e-06
3.75109e-06
3.644e-06
3.65488e-06
4.11076e-06
4.18043e-06
4.31274e-06
5.48533e-06
5.53271e-06
1.07935e-05
1.06683e-05
1.03089e-05
6.69873e-06
6.4527e-06
4.47314e-06
4.37032e-06
4.32262e-06
3.89295e-06
3.90162e-06
4.0365e-06
4.04473e-06
3.9963e-06
3.98172e-06
3.98002e-06
3.9621e-06
3.95988e-06
3.96324e-06
3.94182e-06
3.94325e-06
3.94555e-06
3.94405e-06
3.94846e-06
3.94531e-06
3.9486e-06
3.96999e-06
3.96947e-06
3.97458e-06
3.99207e-06
4.00076e-06
4.06223e-06
4.05732e-06
4.04551e-06
3.90703e-06
3.9138e-06
4.34567e-06
4.41495e-06
5.63807e-06
5.77366e-06
5.82319e-06
1.08584e-05
1.07408e-05
7.29652e-06
6.95119e-06
6.70835e-06
4.71184e-06
4.60594e-06
4.55973e-06
4.14757e-06
4.15859e-06
4.31925e-06
4.32904e-06
4.29021e-06
4.27707e-06
4.27659e-06
4.27049e-06
4.26935e-06
4.27419e-06
4.25819e-06
4.26039e-06
4.26611e-06
4.26446e-06
4.26936e-06
4.26191e-06
4.26444e-06
4.27935e-06
4.2775e-06
4.28154e-06
4.28741e-06
4.29496e-06
4.34751e-06
4.34132e-06
4.32779e-06
4.16346e-06
4.16748e-06
4.58154e-06
4.65133e-06
4.79417e-06
6.06292e-06
6.11435e-06
1.091e-05
1.08007e-05
7.53347e-06
7.20466e-06
6.96557e-06
4.95107e-06
4.84114e-06
4.79428e-06
4.39251e-06
4.40462e-06
4.57963e-06
4.59077e-06
4.56378e-06
4.55222e-06
4.55198e-06
4.55315e-06
4.55278e-06
4.55677e-06
4.5476e-06
4.54942e-06
4.55596e-06
4.55482e-06
4.55831e-06
4.55143e-06
4.55336e-06
4.56185e-06
4.5601e-06
4.56258e-06
4.56216e-06
4.56877e-06
4.60945e-06
4.60255e-06
4.58701e-06
4.40895e-06
4.41153e-06
4.81576e-06
4.88766e-06
5.03643e-06
6.3558e-06
6.40905e-06
1.09539e-05
1.08531e-05
7.77202e-06
7.46056e-06
7.22559e-06
5.19688e-06
5.08327e-06
5.03648e-06
4.64063e-06
4.65429e-06
4.84482e-06
4.85703e-06
4.86232e-06
4.83088e-06
4.83139e-06
4.8393e-06
4.83927e-06
4.84343e-06
4.83632e-06
4.83823e-06
4.84558e-06
4.84447e-06
4.84787e-06
4.84013e-06
4.84199e-06
4.84818e-06
4.84618e-06
4.8482e-06
4.84072e-06
4.84652e-06
4.87558e-06
4.86757e-06
4.8509e-06
4.65727e-06
4.6583e-06
5.05717e-06
5.13063e-06
5.28508e-06
6.65284e-06
6.70783e-06
1.09948e-05
1.0903e-05
8.01347e-06
7.71985e-06
7.48923e-06
5.44875e-06
5.33174e-06
5.2855e-06
4.90083e-06
4.91611e-06
5.12183e-06
5.13509e-06
5.13369e-06
5.12411e-06
5.12552e-06
5.14101e-06
5.14137e-06
5.14588e-06
5.14105e-06
5.14313e-06
5.1515e-06
5.15039e-06
5.15379e-06
5.14482e-06
5.14656e-06
5.15012e-06
5.14775e-06
5.14931e-06
5.13383e-06
5.13862e-06
5.15337e-06
5.14413e-06
5.12648e-06
4.91757e-06
4.91676e-06
5.30503e-06
5.3797e-06
5.53961e-06
6.95435e-06
7.01104e-06
1.10376e-05
1.09549e-05
8.2583e-06
7.98262e-06
7.75643e-06
5.70588e-06
5.58567e-06
5.54025e-06
5.17028e-06
5.18716e-06
5.40708e-06
5.42132e-06
5.42957e-06
5.42757e-06
5.42998e-06
5.45342e-06
5.4542e-06
5.45914e-06
5.4567e-06
5.45894e-06
5.46843e-06
5.46732e-06
5.47069e-06
5.4604e-06
5.46196e-06
5.46276e-06
5.45996e-06
5.44414e-06
5.43718e-06
5.44082e-06
5.4392e-06
5.4287e-06
5.2175e-06
5.18698e-06
5.18422e-06
5.55851e-06
5.63417e-06
5.79939e-06
7.25961e-06
7.31793e-06
1.10862e-05
1.10125e-05
8.50646e-06
8.24841e-06
8.02662e-06
5.96698e-06
5.84379e-06
5.79932e-06
5.44621e-06
5.46459e-06
5.6972e-06
5.71233e-06
5.74386e-06
5.73704e-06
5.74048e-06
5.77154e-06
5.77276e-06
5.77809e-06
5.77631e-06
5.77862e-06
5.78952e-06
5.7885e-06
5.79162e-06
5.77999e-06
5.78124e-06
5.78117e-06
5.77796e-06
5.77854e-06
5.74661e-06
5.749e-06
5.72978e-06
5.71798e-06
5.69889e-06
5.46271e-06
5.45804e-06
5.81625e-06
5.89277e-06
6.06301e-06
7.56726e-06
7.62711e-06
1.11446e-05
1.10796e-05
1.08508e-05
8.51643e-06
8.29889e-06
6.23094e-06
6.10499e-06
6.0614e-06
5.72603e-06
5.74576e-06
5.98962e-06
6.00557e-06
6.01734e-06
6.04803e-06
6.05253e-06
6.09006e-06
6.09182e-06
6.0973e-06
6.09957e-06
6.10194e-06
6.11372e-06
6.11282e-06
6.1156e-06
6.10316e-06
6.10406e-06
6.10013e-06
6.09659e-06
6.0964e-06
6.0578e-06
6.05877e-06
6.02261e-06
6.00947e-06
5.77495e-06
5.74218e-06
5.73576e-06
6.07709e-06
6.15441e-06
6.32932e-06
7.87554e-06
7.93679e-06
1.12164e-05
1.11598e-05
1.09479e-05
8.78651e-06
8.57295e-06
6.49699e-06
6.36844e-06
6.32553e-06
6.00788e-06
6.02884e-06
6.28233e-06
6.29913e-06
6.31287e-06
6.35781e-06
6.36339e-06
6.40997e-06
6.41235e-06
6.41804e-06
6.42539e-06
6.42784e-06
6.44055e-06
6.43976e-06
6.44221e-06
6.42886e-06
6.42937e-06
6.42038e-06
6.41644e-06
6.41537e-06
6.36753e-06
6.36687e-06
6.31587e-06
6.30129e-06
6.28127e-06
6.0236e-06
6.01565e-06
6.34014e-06
6.41829e-06
7.99438e-06
8.1834e-06
8.24591e-06
1.13058e-05
1.12571e-05
1.10604e-05
9.05891e-06
8.84893e-06
6.7651e-06
6.6341e-06
6.59157e-06
6.29047e-06
6.31253e-06
6.57323e-06
6.59092e-06
6.60673e-06
6.66702e-06
6.6737e-06
6.72969e-06
6.73272e-06
6.73868e-06
6.75164e-06
6.7542e-06
6.76786e-06
6.76718e-06
6.7693e-06
6.75499e-06
6.75506e-06
6.74045e-06
6.73609e-06
6.68704e-06
6.67668e-06
6.67435e-06
6.60753e-06
6.59146e-06
6.57096e-06
6.30573e-06
6.29651e-06
6.60533e-06
6.68441e-06
6.86767e-06
8.49031e-06
8.55392e-06
1.14163e-05
1.13748e-05
1.11916e-05
9.33426e-06
9.12739e-06
7.03583e-06
6.90251e-06
6.86007e-06
6.572e-06
6.59491e-06
6.85808e-06
6.87671e-06
6.97192e-06
6.97351e-06
6.98131e-06
7.04678e-06
7.05047e-06
7.05671e-06
7.07564e-06
7.07829e-06
7.09289e-06
7.09232e-06
7.0941e-06
7.07885e-06
7.07845e-06
7.0579e-06
7.05309e-06
7.05023e-06
6.98314e-06
6.9791e-06
6.8934e-06
6.87591e-06
6.85479e-06
6.58679e-06
6.57667e-06
6.87319e-06
6.95329e-06
8.59646e-06
8.79615e-06
8.86068e-06
1.15505e-05
1.15155e-05
1.13437e-05
9.61293e-06
9.40861e-06
7.30971e-06
7.17412e-06
7.13142e-06
6.84874e-06
6.87214e-06
7.13551e-06
7.15513e-06
7.27119e-06
7.27514e-06
7.28405e-06
7.35893e-06
7.36328e-06
7.3698e-06
7.39494e-06
7.39769e-06
7.41317e-06
7.41273e-06
7.41415e-06
7.39803e-06
7.39714e-06
7.37043e-06
7.36518e-06
7.36141e-06
7.28477e-06
7.27897e-06
7.17164e-06
7.15281e-06
7.13095e-06
6.86319e-06
6.85257e-06
7.14416e-06
7.22543e-06
7.41578e-06
9.1008e-06
9.16607e-06
1.17096e-05
1.16803e-05
1.15179e-05
9.89496e-06
9.6926e-06
7.5871e-06
7.44923e-06
7.40588e-06
7.11659e-06
7.13994e-06
7.40663e-06
7.4272e-06
7.44837e-06
7.57005e-06
7.58008e-06
7.66418e-06
7.66918e-06
7.67599e-06
7.70752e-06
7.71037e-06
7.72667e-06
7.72635e-06
7.72742e-06
7.7105e-06
7.7091e-06
7.67608e-06
7.6704e-06
7.66574e-06
7.57976e-06
7.57218e-06
7.44365e-06
7.42347e-06
7.40089e-06
7.13026e-06
7.11946e-06
7.41851e-06
7.50117e-06
7.6948e-06
9.40425e-06
9.47008e-06
1.18936e-05
1.18692e-05
1.17141e-05
1.01804e-05
9.97937e-06
7.86874e-06
7.72852e-06
7.6843e-06
7.38048e-06
7.40348e-06
7.67137e-06
7.69281e-06
7.71563e-06
7.85712e-06
7.8682e-06
7.9609e-06
7.96653e-06
7.97364e-06
8.01169e-06
8.01462e-06
8.03168e-06
8.03148e-06
8.03219e-06
8.01456e-06
8.01264e-06
7.97324e-06
7.96712e-06
7.96162e-06
7.86695e-06
7.85766e-06
7.70922e-06
7.6878e-06
7.42852e-06
7.39325e-06
7.38268e-06
7.697e-06
7.78119e-06
9.49439e-06
9.70652e-06
9.77277e-06
1.20717e-05
1.20522e-05
1.06319e-05
1.0469e-05
1.02686e-05
8.15519e-06
8.01253e-06
7.64112e-06
7.64103e-06
7.66344e-06
7.93042e-06
7.95255e-06
7.97674e-06
8.13557e-06
8.14753e-06
8.24817e-06
8.25442e-06
8.26182e-06
8.306e-06
8.30902e-06
8.3269e-06
8.32681e-06
8.32718e-06
8.30881e-06
8.30635e-06
8.26097e-06
8.25442e-06
8.2481e-06
8.14549e-06
8.13471e-06
7.9689e-06
7.94644e-06
7.92278e-06
7.65281e-06
7.64281e-06
7.9802e-06
8.06596e-06
8.26623e-06
1.00076e-05
1.00742e-05
1.22122e-05
1.21983e-05
1.08948e-05
1.07429e-05
1.05459e-05
8.44546e-06
8.30033e-06
7.8996e-06
7.89863e-06
7.92024e-06
8.18425e-06
8.20687e-06
8.39303e-06
8.4056e-06
8.41832e-06
8.52582e-06
8.53266e-06
8.54028e-06
8.59024e-06
8.59331e-06
8.61183e-06
8.61188e-06
8.61187e-06
8.59297e-06
8.59004e-06
8.53903e-06
8.53212e-06
8.52497e-06
8.41558e-06
8.40351e-06
8.22307e-06
8.19985e-06
8.17589e-06
7.90937e-06
7.9002e-06
8.26724e-06
8.3546e-06
8.5583e-06
1.03071e-05
1.03738e-05
1.23321e-05
1.23242e-05
1.22016e-05
1.10014e-05
1.08102e-05
8.73546e-06
8.58792e-06
8.54067e-06
8.15328e-06
8.17392e-06
8.43327e-06
8.45622e-06
8.65367e-06
8.66779e-06
8.68116e-06
8.79489e-06
8.80227e-06
8.81002e-06
8.865e-06
8.8681e-06
8.88719e-06
8.88737e-06
8.88699e-06
8.86768e-06
8.86432e-06
8.80845e-06
8.80122e-06
8.79328e-06
8.67777e-06
8.66461e-06
8.47224e-06
8.44845e-06
8.4243e-06
8.16296e-06
8.15485e-06
8.55406e-06
8.64309e-06
1.03829e-05
1.06043e-05
1.06712e-05
1.24981e-05
1.24948e-05
1.23814e-05
1.12711e-05
1.10834e-05
9.01264e-06
8.86316e-06
8.81364e-06
8.40485e-06
8.42435e-06
8.67755e-06
8.70073e-06
8.90735e-06
8.92281e-06
8.93674e-06
9.05602e-06
9.06391e-06
9.12632e-06
9.13102e-06
9.13414e-06
9.15384e-06
9.15415e-06
9.1534e-06
9.13365e-06
9.12992e-06
9.06988e-06
9.0624e-06
9.05371e-06
8.93279e-06
8.91867e-06
8.71654e-06
8.69235e-06
8.44512e-06
8.41345e-06
8.4066e-06
8.82816e-06
8.91927e-06
1.06747e-05
1.08985e-05
1.09653e-05
1.27831e-05
1.27811e-05
1.2667e-05
1.15622e-05
1.13735e-05
9.28621e-06
9.13494e-06
9.08286e-06
8.65306e-06
8.67128e-06
8.91703e-06
8.94032e-06
9.15425e-06
9.1709e-06
9.1853e-06
9.3094e-06
9.31774e-06
9.32557e-06
9.38861e-06
9.39174e-06
9.41202e-06
9.41247e-06
9.41135e-06
9.39123e-06
9.38715e-06
9.32353e-06
9.31584e-06
9.30645e-06
9.18089e-06
9.16593e-06
8.95593e-06
8.93147e-06
8.90725e-06
8.66061e-06
8.65519e-06
9.09872e-06
9.19198e-06
9.40257e-06
1.11888e-05
1.12556e-05
1.31945e-05
1.31903e-05
1.30647e-05
1.18771e-05
1.16822e-05
9.55745e-06
9.40456e-06
9.34979e-06
8.89759e-06
8.91442e-06
9.15146e-06
9.17475e-06
9.39432e-06
9.41199e-06
9.42677e-06
9.55493e-06
9.56368e-06
9.57149e-06
9.63775e-06
9.64087e-06
9.66169e-06
9.66227e-06
9.66079e-06
9.64036e-06
9.63597e-06
9.56931e-06
9.56145e-06
9.55143e-06
9.42198e-06
9.40631e-06
9.19017e-06
9.16556e-06
9.14146e-06
8.90411e-06
8.90029e-06
9.36712e-06
9.46253e-06
9.67446e-06
1.14744e-05
1.1541e-05
1.36148e-05
1.3608e-05
1.23582e-05
1.22053e-05
1.20009e-05
9.82563e-06
9.67129e-06
9.61373e-06
9.13804e-06
9.15334e-06
9.38045e-06
9.40364e-06
9.62721e-06
9.64574e-06
9.66082e-06
9.79225e-06
9.80136e-06
9.80912e-06
9.87812e-06
9.88122e-06
9.90249e-06
9.9032e-06
9.90138e-06
9.88071e-06
9.87604e-06
9.80683e-06
9.79884e-06
9.78826e-06
9.65574e-06
9.63948e-06
9.41886e-06
9.39424e-06
9.37035e-06
9.14353e-06
9.14146e-06
9.63268e-06
9.73021e-06
9.94318e-06
1.17543e-05
1.18206e-05
1.39891e-05
1.39805e-05
1.38334e-05
1.24859e-05
1.22799e-05
1.00901e-05
9.93448e-06
9.87406e-06
9.37408e-06
9.38773e-06