/*--------------------------------*- C++ -*----------------------------------*\
| =========                 |                                                 |
| \\      /  F ield         | OpenFOAM: The Open Source CFD Toolbox           |
|  \\    /   O peration     | Version:  v1906                                 |
|   \\  /    A nd           | Web:      www.OpenFOAM.com                      |
|    \\/     M anipulation  |                                                 |
\*---------------------------------------------------------------------------*/
FoamFile
{
    version     2.0;
    format      ascii;
    class       volScalarField;
    location    "200";
    object      pPrime2Mean;
}
// * * * * * * * * * * * * * * * * * * * * * * * * * * * * * * * * * * * * * //

dimensions      [2 -2 -4 0 0 0 0];


internalField   nonuniform List<scalar> 
252800
(
615.068
619.388
717.525
970.811
1015.08
1218.84
1221.34
1266.61
1271.51
1278.78
1332.5
1338.44
1343.67
1374.57
1376.91
1392.02
1393.21
1394.42
1401.54
1402.05
1404.37
1404.37
1404.41
1402.13
1401.66
1394.41
1393.26
1391.99
1376.43
1373.99
1341.49
1336.04
1329.25
1274.72
1268.93
1223.92
1219.9
1218.56
1201.36
1202.87
453.293
460.521
948.312
1015.94
1049.49
1213.17
1214.98
1262.6
1266.12
1271.94
1333.78
1338.43
1342.58
1374.43
1376.27
1391.96
1392.88
1393.87
1401.29
1401.7
1404.08
1404.08
1404.13
1401.83
1401.47
1393.99
1393.08
1392.09
1376.07
1374.16
1340.95
1336.7
1331.27
1268.61
1264.23
1217.19
1213.89
1213.23
1194.54
1195.47
453.112
460.348
549.116
1015.83
1049.38
1213.16
1214.98
1219.79
1266.17
1271.99
1333.8
1338.45
1372.33
1374.43
1376.27
1391.96
1392.89
1393.87
1401.29
1401.7
1404.08
1404.08
1404.13
1401.83
1401.47
1393.99
1393.09
1392.09
1376.08
1374.17
1340.96
1336.71
1331.29
1268.67
1264.28
1217.19
1213.88
1213.21
1194.41
1195.34
452.834
460.082
548.815
1015.66
1049.22
1213.17
1215
1262.74
1266.27
1272.09
1333.83
1338.47
1342.62
1374.44
1376.28
1391.96
1392.89
1393.87
1401.3
1401.7
1404.08
1404.08
1404.13
1401.83
1401.47
1394
1393.09
1392.09
1376.08
1374.18
1340.99
1336.74
1276.2
1268.76
1264.38
1217.22
1213.9
1213.2
1194.21
1195.14
452.437
459.7
548.38
1015.41
1048.99
1213.19
1215.05
1219.89
1266.42
1272.23
1333.88
1338.51
1342.65
1374.46
1376.29
1391.97
1392.9
1393.88
1401.3
1401.7
1404.08
1404.08
1404.13
1401.84
1401.48
1394.01
1393.1
1378
1376.1
1374.19
1341.02
1336.79
1276.33
1268.91
1264.52
1217.27
1213.93
1213.2
1193.92
1194.84
451.907
459.189
947.526
1015.07
1048.66
1213.22
1215.13
1263.09
1266.62
1272.42
1333.94
1338.57
1372.37
1374.47
1376.31
1391.98
1392.91
1393.89
1401.3
1401.71
1404.08
1404.08
1404.13
1401.84
1401.48
1394.01
1393.11
1392.11
1376.12
1374.21
1341.07
1336.84
1331.45
1269.1
1264.72
1217.36
1213.99
1213.2
1193.52
1194.43
451.206
458.515
547.029
1014.62
1048.24
1213.28
1215.24
1220.11
1266.88
1272.67
1334.02
1338.63
1372.4
1374.5
1376.33
1391.99
1392.92
1393.9
1401.31
1401.71
1404.09
1404.09
1404.14
1401.85
1401.48
1394.03
1393.12
1392.13
1376.14
1374.23
1341.14
1336.92
1276.75
1269.36
1264.99
1217.48
1214.08
1213.22
1193
1193.89
450.261
457.609
946.634
1014.07
1047.73
1213.37
1215.4
1220.28
1267.2
1272.97
1334.12
1338.72
1372.42
1374.52
1376.35
1392.01
1392.93
1393.91
1401.31
1401.72
1404.09
1404.09
1404.14
1401.85
1401.49
1394.04
1393.14
1392.15
1376.17
1374.26
1341.22
1337.01
1277.05
1269.68
1265.32
1217.65
1214.22
1194.81
1192.36
1193.23
448.97
456.377
544.607
1013.4
1047.11
1213.5
1215.6
1220.52
1267.61
1273.36
1334.24
1338.82
1372.46
1374.55
1376.39
1392.03
1392.95
1393.93
1401.32
1401.72
1404.1
1404.09
1404.14
1401.86
1401.5
1394.06
1393.16
1392.17
1376.2
1374.3
1341.32
1337.12
1331.79
1270.08
1265.73
1217.88
1214.4
1194.16
1191.58
1192.42
447.227
454.723
542.738
1012.61
1046.37
1213.67
1215.87
1264.59
1268.1
1273.83
1334.38
1338.94
1372.5
1374.59
1376.43
1392.05
1392.97
1393.95
1401.33
1401.73
1404.1
1404.1
1404.15
1401.87
1401.51
1394.08
1393.18
1392.19
1376.24
1374.34
1341.43
1337.25
1331.96
1270.57
1266.23
1218.17
1214.63
1213.42
1190.63
1191.44
444.946
452.567
944.528
1011.69
1045.5
1213.89
1216.21
1221.18
1268.7
1274.39
1334.56
1339.08
1343.17
1374.64
1376.47
1392.08
1393
1393.97
1401.34
1401.74
1404.11
1404.11
1404.16
1401.88
1401.52
1394.11
1393.21
1392.22
1376.29
1374.39
1341.57
1337.41
1332.16
1271.15
1266.84
1218.53
1214.92
1213.54
1189.51
1190.28
442.106
449.897
943.638
1010.65
1044.53
1214.16
1216.62
1221.63
1269.4
1275.05
1334.76
1339.25
1372.6
1374.7
1376.52
1392.11
1393.03
1394
1401.35
1401.76
1404.12
1404.12
1404.17
1401.89
1401.53
1394.13
1393.24
1392.25
1376.34
1374.44
1341.74
1337.59
1332.39
1271.84
1267.55
1218.97
1215.28
1213.7
1188.21
1188.94
438.771
446.777
533.676
1009.52
1043.48
1214.48
1217.1
1222.15
1270.2
1275.81
1334.99
1339.44
1372.66
1374.76
1376.58
1392.14
1393.06
1394.03
1401.37
1401.77
1404.13
1404.12
1404.18
1401.9
1401.55
1394.16
1393.27
1392.29
1376.41
1374.51
1341.92
1337.8
1332.65
1272.63
1268.37
1219.48
1215.7
1190.16
1186.74
1187.41
435.082
443.347
941.784
1008.35
1042.37
1214.87
1217.67
1222.76
1271.11
1276.66
1335.25
1339.66
1343.7
1374.83
1376.65
1392.18
1393.1
1394.06
1401.38
1401.78
1404.14
1404.14
1404.19
1401.92
1401.56
1394.2
1393.31
1392.33
1376.48
1374.58
1342.13
1338.04
1332.95
1273.52
1269.29
1220.09
1216.2
1214.13
1185.09
1185.7
431.234
439.796
525.406
1007.15
1041.22
1215.31
1218.32
1223.46
1272.13
1277.61
1335.54
1339.9
1372.81
1374.9
1376.73
1392.23
1393.14
1394.1
1401.4
1401.8
1404.15
1404.14
1404.2
1401.94
1401.58
1394.25
1393.36
1378.44
1376.56
1374.66
1342.36
1338.31
1333.28
1274.52
1270.33
1220.78
1216.78
1214.41
1183.25
1183.8
427.47
436.355
940.093
1005.93
1040.04
1215.82
1219.06
1224.24
1273.25
1278.67
1335.85
1340.16
1372.89
1374.99
1376.81
1392.27
1393.18
1394.14
1401.42
1401.81
1404.16
1404.16
1404.21
1401.95
1401.6
1394.29
1393.41
1392.43
1376.65
1374.75
1342.62
1338.6
1333.64
1275.62
1271.47
1221.56
1217.43
1185.66
1181.2
1181.68
424.084
433.308
939.384
1004.71
1038.84
1216.39
1219.89
1271.13
1274.48
1279.82
1336.2
1340.45
1344.43
1375.08
1376.9
1392.33
1393.23
1394.19
1401.43
1401.83
1404.17
1404.17
1404.22
1401.98
1401.63
1394.34
1393.46
1392.49
1376.75
1374.85
1342.89
1338.91
1334.04
1276.82
1272.73
1222.43
1218.17
1215.1
1178.92
1179.31
421.453
431.015
513.575
1003.52
1037.64
1217.03
1220.8
1226.1
1275.83
1281.08
1336.58
1340.76
1344.71
1375.19
1377
1392.39
1393.29
1394.24
1401.46
1401.85
1404.19
1404.18
1404.23
1402
1401.65
1394.4
1393.52
1378.71
1376.85
1374.96
1343.2
1339.26
1334.47
1278.14
1274.11
1223.4
1218.99
1181.73
1176.37
1176.66
420.069
429.949
938.464
1002.39
1036.45
1217.73
1221.81
1227.17
1277.29
1282.46
1336.99
1341.11
1345.03
1375.3
1377.1
1392.45
1393.35
1394.3
1401.48
1401.87
1404.2
1404.2
1404.25
1402.02
1401.68
1394.46
1393.59
1378.82
1376.97
1375.07
1343.53
1339.63
1334.94
1279.57
1275.61
1224.47
1219.88
1215.95
1173.51
1173.7
420.563
430.718
938.424
1001.38
1035.33
1218.49
1222.91
1228.34
1278.89
1283.95
1337.44
1341.48
1373.32
1375.42
1377.22
1392.52
1393.41
1394.36
1401.51
1401.9
1404.22
1404.21
1404.27
1402.05
1401.7
1394.53
1393.66
1392.7
1377.09
1375.2
1343.89
1340.04
1287.55
1281.13
1277.24
1225.63
1220.86
1216.43
1170.31
1170.38
423.686
434.045
938.836
1000.58
1034.33
1219.29
1224.09
1229.59
1280.62
1285.57
1337.92
1341.88
1373.45
1375.55
1377.35
1392.59
1393.48
1394.42
1401.54
1401.93
1404.24
1404.24
1404.29
1402.08
1401.74
1394.6
1393.73
1392.78
1377.22
1375.34
1344.28
1340.49
1289.1
1282.83
1279.02
1226.87
1221.9
1216.93
1166.71
1166.64
430.257
440.724
939.852
1000.09
1033.53
1220.14
1225.35
1279.42
1282.49
1287.33
1338.45
1342.32
1346.14
1375.69
1377.49
1392.67
1393.56
1394.49
1401.57
1401.96
1404.26
1404.26
1404.31
1402.11
1401.77
1394.67
1393.81
1392.87
1377.37
1375.48
1344.7
1340.97
1336.61
1284.65
1280.93
1228.21
1223.01
1217.44
1162.68
1162.46
441.076
451.527
524.101
1000
1033.01
1221.02
1226.68
1281.5
1284.5
1289.21
1339.02
1342.8
1346.58
1375.85
1377.63
1392.76
1393.64
1394.57
1401.6
1401.99
1404.28
1404.28
1404.33
1402.14
1401.81
1394.76
1393.9
1392.96
1377.53
1375.64
1345.16
1341.49
1337.26
1286.62
1282.99
1229.62
1224.18
1217.96
1158.16
1157.77
456.848
467.137
944.322
1000.42
1032.84
1221.93
1228.07
1233.87
1286.64
1291.22
1339.63
1343.31
1347.04
1376.01
1377.8
1392.85
1393.72
1394.65
1401.64
1402.02
1404.3
1404.3
1404.35
1402.18
1401.85
1394.84
1393.99
1393.06
1377.7
1375.82
1345.65
1342.05
1337.95
1288.71
1285.18
1231.11
1225.39
1218.47
1153.12
1152.54
478.165
488.128
553.838
1001.44
1033.09
1222.85
1229.53
1235.45
1288.91
1293.34
1340.28
1343.85
1347.54
1376.19
1377.96
1392.95
1393.81
1394.73
1401.68
1402.06
1404.33
1404.32
1404.38
1402.22
1401.89
1394.94
1394.09
1393.17
1377.87
1376
1346.17
1342.64
1338.68
1290.92
1287.49
1232.67
1226.65
1218.96
1147.55
1146.77
505.517
514.978
576.46
1003.16
1033.86
1223.81
1231.05
1237.1
1291.29
1295.57
1340.96
1344.42
1348.06
1376.37
1378.14
1393.05
1393.91
1394.82
1401.72
1402.1
1404.35
1404.35
1404.4
1402.26
1401.93
1395.03
1394.2
1393.28
1378.06
1376.19
1346.73
1343.27
1339.46
1293.25
1289.93
1234.29
1227.96
1219.45
1141.49
1140.48
539.299
548.072
604.766
1005.7
1035.24
1224.8
1232.64
1238.82
1293.77
1297.9
1341.68
1345.02
1348.62
1376.56
1378.32
1393.16
1394.01
1394.92
1401.76
1402.14
1404.38
1404.38
1404.43
1402.3
1401.98
1395.14
1394.31
1393.4
1378.26
1376.4
1347.31
1343.93
1300.89
1295.68
1292.47
1235.99
1229.32
1219.95
1134.98
1133.72
579.799
587.69
966.815
1009.12
1037.28
1225.83
1234.29
1293.78
1296.35
1300.32
1342.43
1345.66
1349.2
1376.76
1378.51
1393.26
1394.11
1395.01
1401.8
1402.18
1404.41
1404.4
1404.46
1402.34
1402.02
1395.24
1394.42
1393.51
1378.46
1376.61
1347.92
1344.62
1341.13
1298.2
1295.11
1237.77
1230.75
1220.47
1128.04
1126.53
627.175
633.985
679.375
1013.46
1040.04
1226.89
1236.01
1242.49
1299.01
1302.81
1343.21
1346.32
1349.8
1376.96
1378.71
1393.37
1394.21
1395.1
1401.85
1402.22
1404.44
1404.43
1404.49
1402.39
1402.07
1395.34
1394.53
1393.63
1378.67
1376.82
1348.56
1345.34
1305.59
1300.8
1297.84
1239.61
1232.22
1220.99
1120.71
1118.92
681.429
686.957
725.831
1018.74
1043.5
1227.97
1237.78
1244.42
1301.74
1305.37
1344.02
1347.01
1350.43
1377.18
1378.91
1393.49
1394.32
1395.21
1401.89
1402.26
1404.47
1404.47
1404.52
1402.44
1402.12
1395.45
1394.64
1393.76
1378.89
1377.05
1349.22
1346.09
1308.04
1303.46
1300.63
1241.5
1233.73
1221.52
1112.99
1110.9
742.385
746.435
778.243
1024.92
1047.65
1229.07
1239.58
1246.39
1304.53
1307.98
1344.87
1347.72
1351.09
1377.4
1379.12
1393.61
1394.43
1395.31
1401.94
1402.31
1404.5
1404.5
1404.55
1402.49
1402.18
1395.57
1394.76
1393.88
1379.11
1377.28
1349.92
1346.87
1310.55
1306.19
1303.5
1243.44
1235.27
1222.04
1104.89
1102.5
809.749
812.131
836.356
1031.96
1052.46
1230.18
1241.42
1305.23
1307.38
1310.66
1345.74
1348.47
1375.58
1377.62
1379.34
1393.72
1394.54
1395.42
1401.99
1402.36
1404.53
1404.53
1404.59
1402.54
1402.23
1395.68
1394.88
1394.01
1379.35
1377.52
1350.64
1347.68
1344.86
1308.98
1306.42
1245.41
1236.83
1222.55
1096.46
1093.74
883.29
883.822
899.973
1039.84
1057.91
1231.3
1243.28
1250.43
1310.28
1313.38
1346.64
1349.24
1375.82
1377.85
1379.56
1393.85
1394.66
1395.52
1402.04
1402.41
1404.56
1404.56
1404.62
1402.59
1402.28
1395.8
1395.01
1394.14
1379.58
1377.77
1351.39
1348.52
1315.72
1311.82
1309.39
1247.4
1238.4
1223.06
1087.74
1084.69
963.15
961.647
969.237
1048.6
1064.05
1232.42
1245.15
1252.49
1313.23
1316.15
1347.58
1350.04
1353.2
1378.09
1379.78
1393.97
1394.78
1401.76
1402.1
1402.45
1404.6
1404.59
1404.65
1402.64
1402.34
1395.92
1395.14
1394.28
1379.83
1378.04
1352.16
1349.4
1346.92
1314.7
1312.41
1249.41
1239.99
1223.56
1078.81
1075.41
1050.04
1046.3
1059.23
1058.47
1071.07
1233.55
1247.04
1254.57
1316.22
1318.96
1348.55
1350.88
1353.97
1378.35
1380.02
1394.1
1394.9
1395.75
1402.15
1402.51
1404.63
1404.63
1404.69
1402.7
1402.4
1396.04
1395.27
1394.42
1380.09
1378.31
1352.98
1350.31
1348.01
1317.63
1315.47
1251.45
1241.59
1091.12
1069.76
1066
1144.89
1138.7
1078.64
1069.8
1079.29
1234.7
1248.94
1317.53
1319.25
1321.82
1349.56
1351.76
1376.63
1378.61
1380.27
1394.23
1395.03
1395.87
1402.21
1402.56
1404.67
1404.67
1404.73
1402.76
1402.47
1396.18
1395.41
1394.57
1380.35
1378.59
1353.82
1351.25
1349.13
1320.61
1318.58
1253.5
1243.2
1224.61
1060.71
1056.6
1247.92
1239.06
1100.37
1082.85
1088.91
1235.87
1250.85
1320.69
1322.32
1324.71
1350.62
1352.67
1376.93
1378.88
1380.53
1394.37
1395.16
1395.99
1402.27
1402.62
1404.71
1404.71
1404.77
1402.82
1402.53
1396.31
1395.55
1394.72
1380.63
1378.89
1354.71
1352.24
1350.3
1323.62
1321.71
1255.56
1244.83
1225.19
1051.82
1047.36
1357.65
1345.94
1313.72
1097.51
1099.88
1237.07
1252.76
1260.9
1325.42
1327.65
1351.71
1353.63
1356.49
1379.18
1380.81
1394.52
1395.3
1396.12
1402.34
1402.68
1404.76
1404.75
1404.81
1402.89
1402.6
1396.45
1395.7
1382.58
1380.93
1379.2
1355.64
1353.27
1351.52
1326.67
1324.87
1257.61
1246.46
1225.81
1043.28
1038.47
1470.82
1456.19
1149.26
1113.24
1111.79
1238.29
1254.65
1263
1328.55
1330.62
1352.87
1354.64
1357.41
1379.48
1381.09
1394.67
1395.44
1396.26
1402.41
1402.75
1404.8
1404.8
1404.86
1402.96
1402.68
1396.6
1395.86
1382.87
1381.24
1379.54
1356.62
1354.36
1352.79
1329.75
1328.05
1259.65
1248.09
1226.49
1035.29
1030.16
1583.54
1565.99
1512.18
1129.37
1124.11
1239.54
1256.51
1265.08
1331.71
1333.63
1354.08
1355.7
1358.39
1379.81
1381.4
1394.84
1395.6
1396.41
1402.48
1402.82
1404.85
1404.85
1404.91
1403.03
1402.76
1396.77
1396.03
1383.19
1381.57
1379.9
1357.66
1355.51
1354.13
1332.88
1331.26
1261.65
1249.72
1227.27
1028.1
1022.65
1692.43
1672.09
1608.09
1145.44
1136.49
1240.83
1258.35
1267.13
1334.9
1336.67
1355.36
1356.84
1378.32
1380.16
1381.73
1395.01
1395.77
1396.56
1402.56
1402.9
1404.91
1404.91
1404.97
1403.12
1402.85
1396.94
1396.21
1395.41
1381.93
1380.28
1358.76
1356.73
1355.54
1336.04
1334.47
1263.63
1251.34
1049.5
1021.9
1016.18
1795.26
1772.3
1223.27
1161.21
1148.78
1242.17
1260.15
1269.15
1338.1
1339.75
1356.71
1358.03
1378.73
1380.54
1382.08
1395.19
1395.94
1396.73
1402.65
1402.98
1404.97
1404.96
1405.02
1403.2
1402.94
1397.12
1396.4
1395.61
1382.31
1380.69
1359.93
1358.02
1357.02
1339.22
1337.69
1265.57
1252.96
1229.15
1016.89
1010.93
1890.59
1865.23
1246.08
1176.6
1160.91
1243.57
1261.92
1271.13
1341.29
1342.83
1358.13
1359.3
1379.16
1380.93
1382.45
1395.38
1396.12
1396.9
1402.74
1403.07
1405.03
1405.02
1405.09
1403.3
1403.04
1397.31
1396.6
1395.82
1382.71
1381.12
1361.16
1359.37
1358.56
1342.41
1340.88
1267.46
1254.58
1230.29
1013.23
1007.08
1977.41
1949.91
1267.67
1191.54
1172.86
1245.03
1263.65
1273.07
1344.46
1345.91
1359.6
1360.61
1362.89
1381.35
1382.84
1395.58
1396.31
1397.08
1402.84
1403.16
1405.09
1405.09
1405.15
1403.39
1403.14
1397.51
1396.81
1396.04
1383.13
1381.57
1362.44
1360.78
1360.17
1345.58
1344.04
1269.31
1256.2
1231.59
1011.08
1004.78
2055
2025.63
1287.93
1206.01
1184.62
1246.58
1265.35
1274.96
1347.58
1348.97
1361.14
1361.99
1380.11
1381.78
1383.24
1395.79
1396.51
1397.27
1402.94
1403.26
1405.16
1405.16
1405.22
1403.49
1403.25
1397.71
1397.03
1396.26
1383.57
1382.05
1363.79
1362.26
1361.84
1348.73
1347.14
1271.12
1257.84
1233.06
1010.55
1004.16
2122.85
2091.92
1306.84
1220.02
1196.21
1248.22
1267.03
1276.83
1350.66
1352
1362.73
1363.42
1365.48
1382.23
1383.67
1396.01
1396.72
1397.46
1403.04
1403.36
1405.23
1405.23
1405.29
1403.6
1403.36
1397.92
1397.25
1385.5
1384.02
1382.55
1365.2
1363.79
1353.03
1351.85
1350.18
1272.89
1259.5
1234.74
1011.77
1005.34
2180.72
2148.52
1324.42
1233.61
1207.69
1249.98
1268.71
1278.67
1353.69
1354.99
1364.37
1364.92
1381.15
1382.71
1384.11
1396.22
1396.93
1397.66
1403.15
1403.46
1405.31
1405.3
1405.37
1403.71
1403.48
1398.14
1397.48
1396.73
1384.51
1383.08
1366.66
1365.38
1365.35
1354.92
1353.15
1274.64
1261.19
1236.63
1014.82
1008.41
2228.57
2195.42
2085.12
1246.83
1219.11
1251.87
1270.39
1280.5
1356.64
1357.93
1366.08
1366.47
1368.27
1383.2
1384.57
1396.45
1397.14
1397.87
1403.27
1403.57
1405.39
1405.38
1405.45
1403.83
1403.6
1398.37
1397.71
1396.98
1385.01
1383.63
1368.18
1367.04
1358.83
1357.93
1356.04
1276.38
1262.95
1238.77
1019.78
1013.44
2266.57
2232.79
2120.04
1259.76
1230.54
1253.92
1272.11
1282.34
1359.51
1360.8
1367.83
1368.07
1369.75
1383.72
1385.04
1396.68
1397.37
1398.08
1403.39
1403.68
1405.47
1405.46
1405.53
1403.95
1403.73
1398.6
1397.96
1397.23
1385.53
1384.2
1369.75
1368.74
1369.07
1360.87
1358.83
1278.13
1264.78
1053.9
1026.69
1020.5
2295.07
2260.95
2146.78
1272.5
1242.06
1256.15
1273.88
1284.2
1362.3
1363.61
1369.63
1369.72
1371.27
1384.26
1385.54
1396.92
1397.59
1398.29
1403.51
1403.8
1405.55
1405.55
1405.62
1404.07
1403.86
1398.84
1398.21
1387.43
1386.07
1384.8
1371.37
1370.5
1370.99
1363.73
1361.52
1279.92
1266.72
1243.85
1035.58
1029.58
2314.54
2280.37
2165.78
1285.14
1253.76
1258.58
1275.74
1286.12
1364.97
1366.32
1371.47
1371.42
1383.53
1384.82
1386.05
1397.16
1397.83
1398.51
1403.63
1403.92
1405.64
1405.63
1405.71
1404.2
1403.99
1399.08
1398.46
1397.76
1386.64
1385.43
1373.04
1372.3
1372.95
1366.5
1364.1
1281.76
1268.79
1071.46
1046.44
1040.7
2325.57
2291.63
2177.53
1297.76
1265.7
1261.24
1277.69
1288.1
1367.52
1368.93
1373.33
1373.15
1384.19
1385.4
1386.59
1397.4
1398.06
1398.73
1403.76
1404.04
1405.73
1405.72
1405.8
1404.33
1404.13
1399.33
1398.72
1398.03
1387.22
1386.07
1374.75
1374.14
1374.94
1369.15
1366.55
1283.69
1271.01
1250.16
1059.23
1053.81
2328.81
2295.36
2182.62
1310.46
1277.95
1264.16
1279.79
1290.17
1369.95
1371.42
1375.22
1374.92
1376.07
1385.99
1387.14
1397.65
1398.3
1398.96
1403.89
1404.16
1405.83
1405.82
1405.89
1404.46
1404.27
1399.58
1398.98
1398.31
1387.82
1386.74
1376.5
1376.01
1376.94
1371.68
1368.87
1285.72
1273.42
1253.82
1073.91
1068.86
2324.93
2292.21
2181.61
1323.29
1290.55
1267.34
1282.03
1292.35
1372.24
1373.79
1377.12
1376.71
1377.73
1386.61
1387.7
1397.9
1398.53
1399.19
1404.02
1404.29
1405.92
1405.91
1405.99
1404.6
1404.41
1399.83
1399.24
1398.58
1388.44
1387.43
1378.27
1377.9
1374.54
1374.08
1371.05
1287.89
1276.02
1110.68
1090.38
1085.75
2314.64
2282.87
1428.83
1336.29
1303.52
1270.8
1284.47
1369.59
1374.38
1376.02
1379.03
1378.51
1379.4
1387.24
1388.27
1398.15
1398.77
1399.41
1404.16
1404.42
1406.02
1406.01
1406.09
1404.74
1404.56
1400.08
1399.51
1398.86
1389.07
1388.14
1380.06
1379.8
1380.95
1376.33
1373.08
1290.21
1278.85
1262.22
1108.53
1104.37
2298.68
2268.05
1439.2
1349.49
1316.86
1274.57
1287.11
1371.24
1376.36
1378.1
1380.94
1380.33
1387.04
1387.88
1388.86
1398.4
1399.01
1399.64
1404.29
1404.55
1406.11
1406.1
1406.19
1404.87
1404.7
1400.33
1399.77
1399.14
1389.73
1388.87
1381.86
1381.71
1382.94
1378.43
1374.96
1292.71
1281.93
1266.96
1128.23
1124.57
2277.79
2248.47
2148.28
1362.91
1330.58
1278.65
1289.98
1299.81
1378.18
1380.03
1382.82
1382.14
1387.8
1388.54
1389.47
1398.64
1399.24
1399.86
1404.43
1404.68
1406.21
1406.2
1406.28
1405.01
1404.85
1400.58
1400.03
1399.41
1390.39
1389.61
1383.66
1383.61
1384.9
1380.37
1376.69
1295.41
1285.28
1163.54
1149.31
1146.2
2252.67
2224.8
2129.13
1376.51
1344.63
1283.03
1293.09
1302.66
1379.84
1381.79
1384.69
1383.94
1388.58
1389.21
1390.08
1398.88
1399.47
1404.38
1404.56
1404.81
1406.31
1406.3
1406.38
1405.15
1404.99
1400.82
1400.29
1399.69
1391.07
1390.37
1385.46
1385.5
1382.65
1382.14
1378.27
1298.34
1288.9
1183.59
1171.58
1169.04
2223.94
2197.65
2106.9
1390.26
1358.94
1287.73
1296.46
1305.71
1381.33
1383.39
1386.51
1385.72
1389.36
1389.9
1390.71
1399.12
1399.69
1400.29
1404.69
1404.94
1406.41
1406.4
1406.48
1405.28
1405.13
1401.07
1400.55
1399.96
1391.77
1391.15
1387.24
1387.37
1388.71
1383.75
1379.69
1301.49
1292.8
1283.36
1194.84
1192.89
2192.15
2167.54
2082.02
1404.05
1373.41
1292.74
1300.09
1308.98
1382.66
1384.82
1388.3
1387.47
1390.16
1390.59
1391.34
1399.36
1399.92
1400.5
1404.82
1405.06
1406.51
1406.5
1406.59
1405.42
1405.27
1401.31
1400.8
1400.23
1392.47
1391.94
1389
1389.2
1390.54
1385.18
1380.96
1304.88
1296.99
1289.5
1218.85
1217.5
2157.83
2134.97
1487.62
1417.78
1387.92
1298.02
1303.98
1312.45
1383.83
1386.09
1390.02
1389.18
1390.97
1391.3
1391.98
1399.59
1400.13
1400.71
1404.95
1405.19
1406.61
1406.6
1406.68
1405.55
1405.41
1401.54
1401.05
1400.5
1393.19
1392.73
1390.72
1390.99
1392.31
1386.45
1382.09
1308.51
1301.45
1295.93
1243.37
1242.63
2121.57
2100.52
2026.15
1431.34
1402.35
1303.57
1308.13
1316.14
1384.84
1387.19
1391.69
1390.85
1391.78
1392
1392.62
1399.82
1400.34
1400.91
1405.08
1405.31
1406.7
1406.69
1406.78
1405.68
1405.54
1401.77
1401.29
1400.77
1393.91
1393.53
1392.41
1392.72
1388.34
1387.56
1383.08
1312.39
1306.18
1302.62
1268.14
1268
2084.03
2064.82
1996.2
1444.63
1416.58
1309.36
1312.52
1320.02
1385.71
1388.15
1393.28
1392.45
1392.43
1392.71
1393.27
1400.04
1400.55
1401.11
1405.2
1405.43
1406.8
1406.78
1406.88
1405.8
1405.67
1401.99
1401.52
1395.39
1394.63
1394.34
1394.04
1394.4
1395.61
1388.51
1383.95
1316.48
1311.16
1293.43
1292.89
1293.34
2045.89
2028.51
1965.66
1457.59
1430.53
1315.34
1317.14
1324.1
1386.44
1388.95
1394.79
1394
1393.4
1393.43
1393.92
1400.26
1400.75
1401.3
1405.31
1405.54
1406.89
1406.88
1406.97
1405.92
1405.79
1402.21
1401.76
1401.29
1395.36
1395.15
1395.61
1396
1397.13
1389.32
1384.7
1320.79
1316.35
1316.6
1317.35
1318.38
2007.74
1992.17
1935
1470.09
1444.06
1321.49
1321.95
1328.34
1387.05
1389.62
1396.21
1395.46
1395.28
1394.14
1394.57
1400.47
1400.94
1401.48
1405.42
1405.65
1406.98
1406.97
1407.06
1406.04
1405.91
1402.42
1401.98
1401.54
1396.09
1395.96
1397.12
1397.53
1398.56
1390
1385.35
1325.3
1321.74
1337.57
1341.27
1342.84
1970.09
1956.27
1904.66
1482.03
1457.05
1327.76
1326.95
1332.74
1387.55
1390.16
1397.55
1396.85
1396.6
1394.84
1395.21
1400.67
1401.13
1401.66
1405.53
1405.75
1407.07
1407.06
1407.15
1406.15
1406.02
1402.62
1402.2
1401.79
1396.82
1396.76
1398.56
1398.98
1399.9
1390.55
1385.92
1329.98
1327.29
1331.04
1364.4
1366.48
1933.36
1921.24
1535
1493.29
1469.37
1334.11
1332.09
1381.45
1387.95
1390.6
1398.79
1398.15
1397.85
1395.54
1395.85
1400.87
1401.3
1401.82
1405.63
1405.85
1407.15
1407.14
1407.24
1406.26
1406.13
1402.82
1402.41
1402.03
1397.54
1397.56
1399.91
1400.33
1401.13
1391
1386.41
1334.8
1332.96
1338.3
1386.5
1389.05
1897.92
1887.41
1541.19
1503.77
1480.91
1340.49
1337.35
1381.93
1388.28
1390.93
1399.92
1399.36
1396.56
1396.23
1396.48
1401.06
1401.47
1401.99
1405.72
1405.94
1407.23
1407.22
1407.32
1406.36
1406.23
1403.01
1402.62
1402.27
1398.26
1398.35
1401.18
1401.59
1402.25
1391.36
1386.84
1339.74
1338.72
1345.52
1407.37
1410.34
1864.08
1855.09
1546.74
1513.38
1491.58
1346.85
1342.68
1346.6
1388.54
1391.19
1400.96
1400.48
1400.09
1396.9
1397.1
1401.25
1401.63
1402.14
1405.81
1406.03
1407.31
1407.29
1407.39
1406.45
1406.32
1403.19
1402.81
1402.49
1398.97
1399.12
1402.36
1402.76
1403.28
1391.64
1387.23
1344.76
1344.53
1352.63
1426.82
1430.16
1832.08
1824.49
1551.6
1522.03
1501.27
1353.15
1348.04
1382.85
1388.74
1391.37
1401.89
1401.49
1401.08
1397.56
1397.7
1401.43
1401.79
1402.28
1405.89
1406.11
1407.38
1407.37
1407.46
1406.53
1406.41
1403.36
1403
1402.72
1399.66
1399.87
1403.45
1403.83
1404.2
1391.86
1387.59
1349.83
1350.33
1359.6
1444.7
1448.36
1802.1
1795.81
1555.73
1529.68
1509.93
1359.33
1353.4
1383.3
1388.91
1391.5
1402.72
1402.41
1398.72
1398.2
1398.29
1401.59
1401.94
1402.42
1405.96
1406.18
1407.44
1407.43
1407.53
1406.61
1406.48
1403.53
1403.19
1402.94
1400.34
1400.61
1404.45
1404.79
1405.02
1392.04
1387.93
1354.9
1356.09
1366.36
1460.9
1464.83
1774.26
1769.14
1559.1
1536.28
1517.52
1365.36
1358.71
1360.77
1389.06
1391.6
1403.45
1403.23
1399.38
1398.81
1398.86
1401.76
1402.08
1402.55
1406.02
1406.24
1407.5
1407.49
1407.59
1406.68
1406.56
1403.69
1403.36
1403.15
1401
1401.31
1405.35
1405.66
1393.81
1392.18
1388.26
1359.94
1361.76
1372.87
1475.36
1479.5
1748.6
1744.53
1724
1541.82
1524.01
1371.19
1363.93
1365.4
1389.19
1391.66
1404.08
1403.95
1403.51
1399.39
1399.39
1401.91
1402.21
1402.68
1406.08
1406.3
1407.56
1407.54
1407.64
1406.74
1406.62
1403.84
1403.53
1403.35
1401.63
1401.99
1406.16
1406.43
1393.98
1392.31
1388.59
1364.91
1367.3
1473.47
1488.02
1492.32
1725.17
1722.02
1563.58
1546.3
1529.41
1376.77
1369.01
1369.92
1389.32
1391.71
1404.61
1404.57
1400.6
1399.94
1399.91
1402.06
1402.33
1402.79
1406.13
1406.35
1407.6
1407.59
1407.69
1406.79
1406.67
1403.98
1403.69
1403.55
1402.24
1402.64
1406.88
1407.11
1406.9
1392.42
1388.93
1369.76
1372.66
1384.97
1498.91
1503.32
1703.93
1701.59
1686.73
1549.74
1533.73
1382.09
1373.93
1374.31
1389.46
1391.75
1405.05
1405.11
1404.68
1400.46
1400.39
1402.2
1402.45
1402.9
1406.17
1406.39
1407.65
1407.63
1407.73
1406.84
1406.72
1404.11
1403.84
1403.73
1402.82
1403.25
1407.52
1407.7
1394.27
1392.54
1389.28
1374.47
1377.82
1390.5
1508.06
1512.52
1684.84
1683.2
1565.15
1552.22
1537.04
1387.09
1378.64
1378.53
1389.62
1391.81
1405.43
1405.57
1401.66
1400.96
1400.86
1402.34
1402.57
1403.01
1406.22
1406.43
1407.68
1407.67
1407.77
1406.88
1406.76
1404.25
1403.99
1403.92
1403.37
1403.82
1408.07
1408.21
1407.73
1392.67
1389.66
1378.99
1382.73
1395.66
1515.54
1520.02
1667.86
1666.79
1564.98
1553.8
1539.41
1391.79
1383.13
1382.56
1389.83
1391.9
1405.75
1405.98
1405.58
1401.44
1401.32
1402.49
1402.69
1403.12
1406.26
1406.48
1407.73
1407.72
1407.82
1406.93
1406.81
1404.38
1404.14
1404.1
1403.89
1404.37
1408.55
1408.64
1408.05
1392.83
1390.07
1383.3
1387.37
1505.75
1521.46
1525.91
1652.88
1652.29
1643.35
1554.6
1540.93
1396.16
1387.37
1386.39
1390.08
1392.05
1406.06
1406.35
1402.66
1401.93
1401.77
1402.64
1402.83
1403.25
1406.32
1406.53
1407.78
1407.77
1407.87
1406.98
1406.87
1404.52
1404.3
1404.29
1404.4
1404.9
1408.97
1409.02
1408.33
1393.03
1390.52
1387.38
1391.72
1404.76
1525.96
1530.35
1639.75
1639.55
1563.15
1554.72
1541.74
1400.2
1391.36
1390
1390.4
1392.24
1406.35
1406.71
1406.36
1402.41
1402.24
1402.81
1402.97
1403.39
1406.38
1406.6
1407.84
1407.83
1407.93
1407.04
1406.93
1404.67
1404.46
1404.48
1404.88
1405.39
1409.35
1409.36
1394.99
1393.27
1391
1391.21
1395.76
1513.73
1529.21
1533.53
436.467
360.261
867.965
1054.8
1074.52
1212.62
1211.42
1260.1
1262.47
1273.99
1332.93
1339.65
1370.17
1374.53
1377.21
1391.79
1392.93
1395.04
1401.24
1401.95
1404.18
1404.01
1404.28
1401.81
1401.46
1394.47
1393.09
1380.17
1376.32
1373.78
1343.25
1337.65
1325.47
1265.28
1262.66
1218.42
1210.15
1200.4
1190.81
1195.84
310.561
254.971
934.369
1087.13
1099.27
1207.66
1206.35
1257.31
1258.34
1267.33
1334.3
1339.31
1370.99
1374.37
1376.4
1391.77
1392.61
1394.32
1401.01
1401.57
1403.89
1403.74
1404.01
1401.53
1401.29
1393.97
1392.92
1391.39
1375.91
1374.04
1342.18
1338.01
1328.41
1260.39
1258.82
1212.05
1205.46
1209.4
1186.11
1189.75
310.438
254.886
934.257
1086.97
1099.13
1207.65
1206.36
1257.36
1258.4
1267.39
1334.31
1339.32
1371
1374.38
1376.4
1391.78
1392.61
1400.51
1401.02
1401.57
1403.89
1403.74
1404.01
1401.53
1401.29
1393.97
1392.92
1391.39
1375.91
1374.04
1342.19
1338.02
1328.43
1260.45
1258.88
1212.06
1205.47
1209.38
1185.94
1189.6
310.249
254.752
514.634
1086.74
1098.93
1207.68
1206.42
1257.47
1258.51
1267.49
1334.34
1339.34
1345.35
1374.39
1376.41
1391.78
1392.61
1394.33
1401.02
1401.58
1403.89
1403.74
1404.01
1401.54
1401.29
1393.98
1392.92
1379.02
1375.92
1374.05
1342.21
1338.05
1277.37
1260.57
1258.99
1212.11
1205.51
1209.37
1185.69
1189.36
309.98
254.559
514.248
1086.38
1098.63
1207.73
1206.51
1219.33
1258.68
1267.64
1334.38
1339.37
1345.38
1374.4
1376.42
1391.79
1392.62
1394.33
1401.02
1401.58
1403.9
1403.75
1404.01
1401.54
1401.3
1393.98
1392.93
1391.41
1375.94
1374.07
1342.25
1338.08
1277.5
1260.73
1259.15
1212.2
1205.6
1209.36
1185.31
1188.99
309.622
254.301
933.494
1085.89
1098.21
1207.81
1206.66
1257.83
1258.91
1267.85
1334.44
1339.41
1345.42
1374.42
1376.44
1391.8
1392.63
1394.34
1401.03
1401.58
1403.9
1403.75
1402.37
1401.54
1401.3
1393.99
1392.94
1391.42
1375.96
1374.09
1342.28
1338.12
1328.59
1260.96
1259.37
1212.33
1205.73
1193.43
1184.78
1188.49
309.146
253.959
933.049
1085.26
1097.67
1207.92
1206.86
1219.63
1259.2
1268.12
1334.5
1339.46
1371.06
1374.44
1376.46
1391.81
1392.64
1400.53
1401.03
1401.58
1403.9
1403.75
1404.02
1401.55
1401.31
1394
1392.95
1391.43
1375.98
1374.11
1342.34
1338.17
1328.69
1261.25
1259.65
1212.52
1205.91
1209.37
1184.11
1187.85
308.505
253.501
512.132
1084.47
1097
1208.09
1207.13
1219.87
1259.57
1268.45
1334.59
1339.52
1371.09
1374.47
1376.48
1391.83
1392.66
1394.37
1401.04
1401.59
1403.91
1403.76
1404.02
1401.55
1401.31
1394.02
1392.97
1391.45
1376.01
1374.14
1342.4
1338.24
1278.22
1261.61
1260.01
1212.77
1206.16
1209.4
1183.27
1187.05
307.631
252.884
510.902
1083.51
1096.19
1208.31
1207.48
1220.17
1260.02
1268.87
1334.69
1339.59
1371.12
1374.51
1376.52
1391.84
1392.67
1394.38
1401.04
1401.6
1403.91
1403.76
1404.02
1401.56
1401.32
1394.04
1392.99
1391.47
1376.05
1374.18
1342.48
1338.32
1278.59
1262.06
1260.46
1213.1
1206.49
1191.74
1182.24
1186.07
306.459
252.073
509.262
1082.35
1095.21
1208.6
1207.94
1259.41
1260.57
1269.37
1334.82
1339.68
1371.17
1374.55
1376.56
1391.87
1392.7
1400.55
1401.05
1401.61
1403.92
1403.77
1404.03
1401.57
1401.33
1394.06
1393.01
1391.5
1376.09
1374.22
1342.57
1338.42
1329.12
1262.6
1260.99
1213.52
1206.92
1209.54
1180.99
1184.87
304.95
251.056
930.13
1080.98
1094.06
1208.96
1208.5
1221.03
1261.23
1269.97
1334.96
1339.78
1371.21
1374.6
1376.61
1391.9
1392.72
1394.43
1401.06
1401.62
1403.92
1403.77
1404.04
1401.58
1401.34
1394.08
1393.04
1391.53
1376.15
1374.27
1342.68
1338.54
1329.32
1263.26
1261.65
1214.03
1207.44
1209.65
1179.5
1183.45
303.123
249.881
929.118
1079.4
1092.73
1209.4
1209.17
1221.6
1262
1270.68
1335.13
1339.9
1345.94
1374.66
1376.66
1391.93
1392.75
1400.58
1401.08
1401.63
1403.93
1403.78
1404.05
1401.59
1401.35
1394.11
1393.07
1391.56
1376.2
1374.33
1342.81
1338.67
1329.57
1264.02
1262.41
1214.66
1208.07
1209.79
1177.75
1181.79
301.072
248.657
501.452
1077.62
1091.25
1209.92
1209.97
1261.66
1262.89
1271.49
1335.33
1340.04
1371.34
1374.73
1376.73
1391.96
1392.78
1394.48
1401.09
1401.64
1403.94
1403.79
1404.06
1401.6
1401.37
1394.14
1393.1
1391.6
1376.27
1374.4
1342.95
1338.82
1329.84
1264.9
1263.29
1215.39
1208.82
1187.55
1175.76
1179.9
298.963
247.557
926.972
1075.66
1089.63
1210.53
1210.9
1262.65
1263.89
1272.4
1335.55
1340.19
1371.41
1374.8
1376.8
1392
1392.82
1394.51