/*--------------------------------*- C++ -*----------------------------------*\
| =========                 |                                                 |
| \\      /  F ield         | OpenFOAM: The Open Source CFD Toolbox           |
|  \\    /   O peration     | Version:  v1906                                 |
|   \\  /    A nd           | Web:      www.OpenFOAM.com                      |
|    \\/     M anipulation  |                                                 |
\*---------------------------------------------------------------------------*/
FoamFile
{
    version     2.0;
    format      ascii;
    class       volScalarField;
    location    "200";
    object      T;
}
// * * * * * * * * * * * * * * * * * * * * * * * * * * * * * * * * * * * * * //

dimensions      [0 0 0 1 0 0 0];


internalField   nonuniform List<scalar> 
252800
(
372.113
372.076
371.943
370.222
370.211
370.402
370.401
370.709
370.65
370.681
370.684
370.657
370.729
370.658
370.685
370.682
370.656
370.727
370.651
370.678
370.676
370.65
370.722
370.652
370.679
370.683
370.657
370.729
370.66
370.686
370.685
370.658
370.732
370.654
370.672
370.442
370.388
370.436
369.643
369.582
371.087
370.988
368.229
367.929
367.828
367.995
368.061
368.486
368.517
368.527
368.547
368.547
368.543
368.546
368.545
368.54
368.541
368.536
368.533
368.531
368.528
368.53
368.526
368.534
368.533
368.541
368.543
368.539
368.549
368.547
368.548
368.55
368.549
368.527
368.506
368.088
368.033
367.952
367.16
367.132
369.669
369.512
368.939
364.728
364.568
364.809
364.912
364.989
365.624
365.64
365.673
365.672
365.662
365.672
365.67
365.661
365.664
365.654
365.651
365.647
365.644
365.647
365.639
365.653
365.651
365.664
365.668
365.66
365.677
365.672
365.674
365.677
365.675
365.639
365.606
364.953
364.868
364.741
363.532
363.49
368.179
367.98
367.255
361.899
361.691
361.934
362.061
362.878
362.945
362.965
363.009
363.009
362.999
363.012
363.008
362.998
363.002
362.989
362.986
362.981
362.977
362.982
362.97
362.99
362.986
363.002
363.008
362.996
363.018
363.012
363.01
363.016
362.965
362.965
362.921
362.111
362.006
361.851
360.387
360.336
366.657
366.432
365.632
359.617
359.378
359.547
359.679
359.777
360.634
360.655
360.708
360.709
360.697
360.719
360.714
360.706
360.711
360.695
360.696
360.689
360.686
360.691
360.677
360.699
360.695
360.71
360.717
360.71
360.725
360.717
360.709
360.715
360.655
360.655
360.607
359.731
359.621
359.46
357.928
357.875
365.077
364.849
358.575
357.916
357.67
357.736
357.859
358.731
358.804
358.825
358.883
358.885
358.889
358.907
358.904
358.901
358.905
358.89
358.895
358.889
358.886
358.891
358.877
358.898
358.893
358.904
358.91
358.896
358.913
358.905
358.885
358.889
358.882
358.824
358.776
357.907
357.803
357.655
356.213
356.164
363.464
363.25
362.51
356.697
356.464
356.449
356.555
356.645
357.455
357.477
357.543
357.545
357.568
357.584
357.582
357.587
357.591
357.58
357.588
357.583
357.581
357.586
357.574
357.59
357.586
357.59
357.594
357.583
357.588
357.58
357.545
357.547
357.476
357.473
357.427
356.599
356.505
356.38
355.114
355.071
361.939
361.748
356.367
355.823
355.612
355.536
355.626
355.711
356.485
356.509
356.588
356.59
356.633
356.647
356.648
356.662
356.665
356.658
356.67
356.668
356.666
356.669
356.662
356.672
356.669
356.664
356.666
356.658
356.65
356.642
356.588
356.588
356.508
356.501
356.456
355.664
355.58
354.497
354.412
354.377
360.642
360.472
359.889
355.174
354.981
354.849
354.925
355.008
355.765
355.79
355.883
355.886
355.95
355.963
355.965
355.989
355.992
355.988
356.006
356.004
356.004
356.006
356.001
356.007
356.004
355.991
355.992
355.985
355.964
355.956
355.883
355.881
355.878
355.779
355.733
354.96
354.882
353.983
353.916
353.888
359.613
359.459
358.935
354.657
354.477
354.285
354.351
355.127
355.194
355.221
355.327
355.33
355.414
355.427
355.431
355.464
355.467
355.465
355.489
355.488
355.489
355.491
355.487
355.489
355.486
355.465
355.465
355.459
355.427
355.418
355.327
355.323
355.321
355.207
355.159
354.384
354.311
354.245
353.512
353.49
358.802
358.66
354.621
354.21
354.038
353.787
353.846
353.93
354.705
354.735
354.854
354.857
354.866
354.975
354.98
355.021
355.024
355.025
355.054
355.054
355.056
355.057
355.054
355.054
355.051
355.022
355.02
355.015
354.973
354.963
354.853
354.847
354.846
354.718
354.668
353.878
353.807
353.754
353.144
353.128
358.138
358.004
354.188
353.798
353.63
353.323
353.376
353.462
354.258
354.29
354.422
354.425
354.549
354.563
354.57
354.62
354.624
354.626
354.661
354.662
354.664
354.665
354.663
354.66
354.657
354.62
354.618
354.613
354.56
354.55
354.42
354.413
354.413
354.27
354.218
353.407
353.338
353.295
352.787
352.776
357.566
357.437
357.006
353.405
353.239
352.879
352.926
353.015
353.828
353.862
354.004
354.008
354.151
354.167
354.175
354.234
354.238
354.242
354.283
354.284
354.287
354.287
354.286
354.281
354.278
354.234
354.23
354.226
354.163
354.151
354.002
353.993
353.994
353.84
353.785
352.957
352.89
352.454
352.434
352.427
357.05
356.924
353.391
353.026
352.861
352.455
352.497
352.587
353.407
353.442
353.59
353.594
353.611
353.772
353.782
353.849
353.853
353.858
353.905
353.906
353.91
353.91
353.91
353.902
353.899
353.848
353.843
353.839
353.767
353.754
353.588
353.578
353.579
353.417
353.362
352.527
352.462
352.434
352.085
352.082
356.563
356.44
356.041
352.659
352.496
352.052
352.09
352.179
352.993
353.029
353.18
353.184
353.36
353.377
353.388
353.462
353.466
353.473
353.525
353.527
353.531
353.53
353.531
353.522
353.519
353.461
353.455
353.381
353.371
353.357
353.177
353.165
353.167
353.002
352.947
352.119
352.056
352.034
351.746
351.746
356.088
355.968
352.649
352.305
352.144
351.672
351.707
351.794
352.589
352.625
352.775
352.78
352.968
352.985
352.997
353.077
353.081
353.089
353.144
353.147
353.152
353.151
353.152
353.141
353.138
353.075
353.069
353.065
352.978
352.964
352.772
352.759
352.761
352.597
352.543
351.734
351.674
351.423
351.421
351.423
355.617
355.501
352.297
351.965
351.808
351.318
351.349
352.126
352.198
352.232
352.379
352.383
352.405
352.599
352.611
352.696
352.7
352.708
352.767
352.769
352.775
352.774
352.776
352.763
352.76
352.693
352.686
352.683
352.591
352.576
352.375
352.362
352.364
352.204
352.152
351.374
351.317
351.306
351.113
351.118
355.148
355.036
354.683
351.641
351.489
350.991
351.018
351.097
351.821
351.854
351.995
351.999
352.022
352.221
352.234
352.322
352.326
352.335
352.396
352.399
352.405
352.404
352.406
352.392
352.389
352.319
352.312
352.225
352.213
352.197
351.991
351.978
351.98
351.826
351.777
351.041
350.988
350.821
350.825
350.831
354.684
354.577
351.64
351.335
351.189
350.69
350.714
350.788
351.464
351.495
351.628
351.633
351.656
351.857
351.871
351.961
351.965
351.975
352.037
352.04
352.046
352.044
352.048
352.032
352.029
351.957
351.95
351.862
351.848
351.833
351.624
351.61
351.613
351.467
351.422
350.735
350.686
350.682
350.559
350.566
354.231
354.128
351.339
351.05
350.911
350.417
350.437
350.506
351.13
351.159
351.282
351.287
351.496
351.512
351.526
351.617
351.621
351.631
351.693
351.697
351.703
351.701
351.705
351.689
351.686
351.613
351.605
351.603
351.503
351.488
351.279
351.264
351.15
351.131
351.09
350.457
350.412
350.411
350.314
350.322
353.794
353.696
351.059
350.786
350.654
350.172
350.189
350.252
350.821
350.848
350.962
350.966
351.173
351.189
351.203
351.293
351.297
351.308
351.369
351.372
351.378
351.377
351.381
351.364
351.361
351.289
351.281
351.28
351.179
351.165
350.958
350.943
350.839
350.821
350.783
350.206
350.165
350.166
350.092
350.101
353.375
353.282
350.8
350.543
350.418
349.952
349.966
350.493
350.538
350.563
350.667
350.671
350.695
350.889
350.902
350.99
350.993
351.004
351.064
351.068
351.073
351.071
351.076
351.059
351.056
350.985
350.977
350.976
350.878
350.864
350.663
350.649
350.653
350.537
350.503
349.981
349.944
349.948
349.892
349.901
352.975
352.888
352.628
350.321
350.204
349.756
349.767
350.24
350.28
350.302
350.396
350.4
350.423
350.609
350.622
350.706
350.71
350.721
350.777
350.781
350.787
350.785
350.79
350.773
350.771
350.702
350.694
350.694
350.599
350.585
350.392
350.378
350.383
350.277
350.247
349.78
349.747
349.753
349.713
349.722
352.595
352.513
350.344
350.119
350.01
349.582
349.59
349.638
350.043
350.063
350.148
350.151
350.173
350.349
350.362
350.442
350.445
350.456
350.51
350.514
350.52
350.517
350.522
350.506
350.504
350.437
350.429
350.43
350.339
350.326
350.143
350.13
350.134
350.04
350.014
349.601
349.572
349.579
349.553
349.562
352.232
352.156
351.932
349.935
349.833
349.426
349.433
349.475
349.828
349.845
349.92
349.923
349.944
350.108
350.12
350.195
350.198
350.209
350.26
350.264
350.27
350.267
350.273
350.257
350.255
350.191
350.183
350.184
350.097
350.086
349.915
349.902
349.907
349.823
349.801
349.441
349.417
349.425
349.41
349.419
351.888
351.817
351.611
349.766
349.672
349.289
349.293
349.33
349.631
349.646
349.711
349.714
349.734
349.884
349.895
349.965
349.968
349.979
350.028
350.032
350.036
350.034
350.04
350.023
350.022
349.961
349.954
349.955
349.874
349.864
349.707
349.695
349.7
349.626
349.607
349.3
349.279
349.288
349.283
349.292
351.561
351.495
351.307
349.612
349.525
349.166
349.168
349.2
349.452
349.465
349.521
349.523
349.542
349.677
349.687
349.752
349.753
349.764
349.81
349.814
349.818
349.816
349.821
349.806
349.804
349.747
349.74
349.741
349.667
349.658
349.516
349.505
349.459
349.447
349.431
349.173
349.155
349.165
349.169
349.178
351.252
351.192
349.633
349.471
349.392
349.056
349.057
349.274
349.289
349.301
349.347
349.349
349.366
349.485
349.494
349.552
349.554
349.564
349.606
349.61
349.614
349.612
349.617
349.602
349.601
349.548
349.541
349.543
349.475
349.468
349.342
349.332
349.337
349.284
349.271
349.06
349.045
349.056
349.066
349.075
350.962
350.907
350.751
349.342
349.27
348.958
348.957
348.98
349.142
349.152
349.189
349.191
349.206
349.308
349.317
349.368
349.369
349.379
349.416
349.42
349.424
349.421
349.427
349.412
349.411
349.363
349.357
349.359
349.299
349.292
349.184
349.175
349.146
349.136
349.126
348.958
348.947
348.958
348.974
348.983
350.691
350.641
350.501
349.224
349.159
348.87
348.867
348.886
349.009
349.018
349.047
349.047
349.062
349.146
349.153
349.197
349.198
349.208
349.24
349.244
349.247
349.245
349.25
349.236
349.236
349.192
349.186
349.189
349.136
349.132
349.041
349.034
349.012
349.003
348.996
348.868
348.859
348.871
348.892
348.9
350.44
350.394
350.269
349.118
349.058
348.79
348.786
348.802
348.89
348.897
348.919
348.919
348.932
348.998
349.005
349.041
349.041
349.05
349.078
349.082
349.084
349.082
349.088
349.075
349.074
349.036
349.031
349.034
348.989
348.986
348.913
348.906
348.892
348.884
348.879
348.785
348.779
348.791
348.818
348.826
350.208
350.167
350.054
349.021
348.967
348.718
348.713
348.783
348.784
348.789
348.804
348.804
348.866
348.865
348.871
348.9
348.9
348.908
348.931
348.934
348.937
348.934
348.94
348.928
348.928
348.896
348.891
348.894
348.857
348.855
348.799
348.793
348.798
348.777
348.774
348.711
348.707
348.72
348.752
348.76
349.996
349.959
349.859
348.933
348.884
348.653
348.647
348.656
348.689
348.693
348.703
348.702
348.749
348.747
348.752
348.774
348.774
348.782
348.8
348.803
348.805
348.802
348.808
348.797
348.797
348.77
348.766
348.769
348.739
348.738
348.697
348.692
348.69
348.683
348.681
348.644
348.641
348.655
348.692
348.7
349.803
349.77
349.681
348.853
348.81
348.593
348.586
348.594
348.605
348.608
348.613
348.612
348.62
348.643
348.647
348.664
348.663
348.688
348.684
348.687
348.688
348.686
348.691
348.681
348.682
348.659
348.655
348.66
348.636
348.635
348.607
348.603
348.608
348.599
348.599
348.582
348.582
348.596
348.639
348.646
349.631
349.602
348.86
348.782
348.742
348.539
348.531
348.537
348.53
348.533
348.533
348.532
348.539
348.551
348.555
348.567
348.566
348.573
348.583
348.585
348.586
348.584
348.589
348.58
348.58
348.562
348.559
348.563
348.544
348.545
348.527
348.524
348.529
348.523
348.525
348.527
348.527
348.583
348.59
348.597
349.48
349.454
348.788
348.718
348.682
348.489
348.481
348.468
348.463
348.465
348.462
348.461
348.476
348.471
348.474
348.483
348.482
348.488
348.495
348.497
348.498
348.496
348.501
348.492
348.493
348.478
348.475
348.48
348.465
348.466
348.456
348.453
348.459
348.457
348.459
348.475
348.477
348.492
348.545
348.552
349.35
349.326
348.724
348.66
348.627
348.443
348.434
348.41
348.403
348.405
348.4
348.398
348.406
348.401
348.404
348.41
348.408
348.415
348.419
348.421
348.421
348.419
348.424
348.415
348.417
348.405
348.402
348.407
348.395
348.397
348.393
348.391
348.396
348.397
348.4
348.428
348.43
348.445
348.503
348.511
349.238
349.216
349.157
348.609
348.578
348.399
348.39
348.391
348.349
348.351
348.344
348.341
348.346
348.34
348.343
348.346
348.345
348.351
348.353
348.355
348.355
348.353
348.358
348.35
348.351
348.342
348.339
348.339
348.334
348.336
348.337
348.335
348.341
348.343
348.346
348.384
348.387
348.402
348.465
348.472
349.141
349.121
348.616
348.562
348.533
348.358
348.348
348.349
348.301
348.302
348.293
348.291
348.296
348.287
348.288
348.291
348.29
348.295
348.296
348.298
348.298
348.296
348.301
348.293
348.294
348.287
348.284
348.285
348.28
348.282
348.286
348.285
348.29
348.294
348.297
348.342
348.346
348.361
348.429
348.436
349.056
349.037
348.987
348.518
348.491
348.319
348.309
348.309
348.256
348.257
348.248
348.245
348.25
348.239
348.241
348.242
348.241
348.246
348.246
348.248
348.248
348.246
348.251
348.243
348.245
348.238
348.236
348.238
348.233
348.235
348.241
348.239
348.244
348.249
348.253
348.302
348.306
348.322
348.394
348.401
348.981
348.963
348.917
348.478
348.451
348.281
348.27
348.27
348.215
348.216
348.206
348.204
348.201
348.196
348.198
348.2
348.198
348.203
348.202
348.204
348.204
348.203
348.207
348.2
348.201
348.195
348.193
348.197
348.19
348.192
348.199
348.198
348.203
348.208
348.212
348.263
348.268
348.352
348.36
348.367
348.914
348.898
348.485
348.44
348.414
348.244
348.234
348.233
348.177
348.177
348.167
348.165
348.162
348.157
348.159
348.16
348.159
348.164
348.163
348.165
348.165
348.163
348.168
348.16
348.161
348.156
348.154
348.158
348.151
348.153
348.16
348.159
348.164
348.17
348.174
348.227
348.232
348.248
348.328
348.335
348.854
348.839
348.447
348.403
348.378
348.209
348.198
348.197
348.14
348.141
348.131
348.128
348.125
348.121
348.122
348.124
348.123
348.128
348.127
348.128
348.129
348.127
348.131
348.124
348.125
348.12
348.118
348.121
348.114
348.116
348.124
348.122
348.127
348.133
348.137
348.191
348.196
348.212
348.297
348.303
348.801
348.786
348.41
348.369
348.344
348.174
348.163
348.162
348.105
348.105
348.095
348.093
348.097
348.086
348.087
348.09
348.089
348.093
348.092
348.094
348.094
348.093
348.097
348.089
348.091
348.085
348.083
348.087
348.079
348.081
348.088
348.087
348.091
348.098
348.102
348.156
348.161
348.178
348.266
348.272
348.751
348.737
348.376
348.335
348.311
348.14
348.129
348.127
348.07
348.07
348.06
348.058
348.056
348.052
348.054
348.056
348.055
348.06
348.059
348.061
348.061
348.06
348.064
348.057
348.058
348.052
348.05
348.053
348.046
348.047
348.053
348.052
348.057
348.063
348.067
348.121
348.127
348.143
348.234
348.241
348.705
348.692
348.341
348.302
348.278
348.106
348.095
348.093
348.036
348.036
348.026
348.024
348.028
348.019
348.021
348.024
348.023
348.027
348.027
348.029
348.029
348.028
348.031
348.024
348.025
348.02
348.018
348.017
348.012
348.014
348.019
348.018
348.032
348.029
348.032
348.087
348.093
348.109
348.204
348.211
348.66
348.648
348.307
348.269
348.245
348.072
348.061
348.059
348.002
348.002
347.992
347.991
347.99
347.986
347.988
347.992
347.991
347.995
347.995
347.997
347.998
347.996
347.999
347.993
347.994
347.987
347.985
347.988
347.979
347.981
347.985
347.984
347.988
347.995
347.998
348.053
348.059
348.076
348.173
348.18
348.617
348.605
348.569
348.236
348.213
348.039
348.028
348.026
347.969
347.969
347.959
347.957
347.96
347.954
347.955
347.96
347.959
347.963
347.964
347.965
347.966
347.964
347.968
347.961
347.962
347.955
347.953
347.956
347.947
347.948
347.951
347.95
347.964
347.961
347.965
348.02
348.026
348.042
348.143
348.149
348.573
348.562
348.526
348.204
348.181
348.006
347.994
347.992
347.935
347.935
347.925
347.923
347.926
347.92
347.922
347.927
347.927
347.931
347.932
347.933
347.934
347.933
347.936
347.929
347.93
347.923
347.921
347.924
347.914
347.915
347.917
347.916
347.92
347.927
347.931
347.986
347.992
348.1
348.112
348.119
348.529
348.517
348.483
348.171
348.148
347.972
347.961
347.958
347.901
347.901
347.89
347.888
347.892
347.887
347.889
347.895
347.894
347.898
347.9
347.901
347.902
347.901
347.904
347.897
347.898
347.891
347.889
347.885
347.881
347.882
347.883
347.882
347.886
347.894
347.897
347.953
347.959
347.976
348.081
348.088
348.482
348.472
348.439
348.137
348.114
347.939
347.927
347.924
347.867
347.866
347.856
347.854
347.857
347.854
347.855
347.862
347.861
347.865
347.868
347.869
347.87
347.869
347.872
347.865
347.865
347.858
347.856
347.858
347.847
347.848
347.848
347.847
347.851
347.859
347.863
347.919
347.926
348.038
348.05
348.057
348.435
348.425
348.393
348.103
348.08
347.905
347.893
347.89
347.832
347.832
347.82
347.819
347.823
347.82
347.822
347.828
347.828
347.832
347.834
347.836
347.837
347.836
347.839
347.832
347.832
347.824
347.822
347.824
347.813
347.814
347.813
347.812
347.815
347.824
347.828
347.885
347.892
347.909
348.018
348.025
348.386
348.377
348.346
348.068
348.046
347.871
347.86
347.856
347.797
347.797
347.785
347.784
347.787
347.785
347.787
347.794
347.794
347.798
347.801
347.802
347.804
347.802
347.805
347.798
347.799
347.79
347.788
347.79
347.779
347.779
347.777
347.776
347.78
347.789
347.793
347.851
347.858
347.875
347.986
347.993
348.336
348.328
348.298
348.032
348.011
347.837
347.825
347.822
347.762
347.761
347.749
347.748
347.751
347.75
347.752
347.76
347.759
347.763
347.767
347.768
347.77
347.769
347.771
347.764
347.765
347.756
347.754
347.756
347.744
347.744
347.741
347.74
347.756
347.754
347.758
347.817
347.824
347.941
347.954
347.961
348.287
348.278
348.026
347.997
347.976
347.803
347.791
347.732
347.726
347.725
347.712
347.711
347.714
347.714
347.716
347.725
347.724
347.728
347.732
347.733
347.735
347.734
347.736
347.729
347.73
347.721
347.719
347.72
347.708
347.708
347.705
347.703
347.707
347.718
347.721
347.782
347.79
347.806
347.921
347.928
348.237
348.229
347.988
347.96
347.94
347.768
347.756
347.696
347.689
347.688
347.675
347.674
347.68
347.678
347.68
347.689
347.688
347.692
347.696
347.698
347.699
347.698
347.701
347.694
347.694
347.685
347.683
347.684
347.671
347.672
347.668
347.666
347.67
347.681
347.685
347.747
347.755
347.771
347.888
347.894
348.186
348.179
348.154
347.924
347.904
347.733
347.721
347.716
347.652
347.651
347.637
347.636
347.643
347.641
347.643
347.652
347.652
347.655
347.66
347.662
347.663
347.662
347.664
347.657
347.658
347.648
347.646
347.648
347.634
347.635
347.63
347.629
347.632
347.644
347.648
347.712
347.719
347.841
347.854
347.86
348.136
348.129
348.105
347.887
347.867
347.697
347.685
347.68
347.615
347.614
347.599
347.598
347.605
347.603
347.605
347.615
347.615
347.625
347.623
347.624
347.626
347.625
347.627
347.621
347.621
347.611
347.609
347.61
347.597
347.597
347.592
347.59
347.608
347.607
347.611
347.676
347.684
347.806
347.82
347.826
348.085
348.079
348.056
347.849
347.83
347.661
347.649
347.644
347.577
347.576
347.561
347.559
347.566
347.565
347.567
347.577
347.577
347.58
347.586
347.587
347.588
347.588
347.59
347.583
347.583
347.573
347.571
347.572
347.558
347.558
347.553
347.552
347.555
347.569
347.573
347.64
347.648
347.665
347.785
347.791
348.035
348.029
348.008
347.811
347.793
347.625
347.613
347.607
347.539
347.537
347.521
347.52
347.527
347.526
347.528
347.538
347.538
347.541
347.547
347.548
347.55
347.549
347.551
347.544
347.544
347.534
347.532
347.533
347.519
347.519
347.513
347.512
347.515
347.53
347.534
347.604
347.612
347.628
347.75
347.756
347.986
347.981
347.795
347.773
347.755
347.588
347.576
347.57
347.5
347.498
347.481
347.48
347.487
347.486
347.488
347.498
347.498
347.502
347.508
347.509
347.51
347.509
347.511
347.505
347.505
347.494
347.492
347.493
347.48
347.479
347.474
347.473
347.476
347.491
347.496
347.567
347.575
347.592
347.715
347.72
347.938
347.933
347.914
347.735
347.718
347.551
347.539
347.533
347.46
347.458
347.441
347.44
347.447
347.446
347.447
347.458
347.458
347.461
347.467
347.469
347.47
347.47
347.471
347.465
347.465
347.454
347.452
347.453
347.439
347.439
347.433
347.432
347.452
347.452
347.456
347.529
347.538
347.554
347.679
347.684
347.891
347.886
347.868
347.697
347.68
347.514
347.501
347.495
347.42
347.418
347.4
347.398
347.401
347.404
347.406
347.417
347.417
347.42
347.427
347.428
347.43
347.429
347.431
347.424
347.424
347.413
347.411
347.401
347.398
347.398
347.392
347.391
347.394
347.412
347.416
347.492
347.5
347.628
347.642
347.648
347.844
347.84
347.822
347.658
347.641
347.476
347.463
347.456
347.38
347.378
347.358
347.357
347.364
347.363
347.364
347.375
347.375
347.378
347.385
347.386
347.388
347.387
347.389
347.383
347.382
347.371
347.369
347.37
347.356
347.356
347.35
347.349
347.352
347.371
347.376
347.453
347.462
347.479
347.605
347.611
347.797
347.793
347.776
347.619
347.602
347.437
347.425
347.418
347.339
347.337
347.316
347.314
347.317
347.32
347.322
347.333
347.333
347.336
347.343
347.344
347.346
347.345
347.346
347.34
347.34
347.329
347.327
347.328
347.314
347.313
347.308
347.307
347.31
347.33
347.335
347.415
347.424
347.553
347.567
347.573
347.751
347.747
347.731
347.579
347.563
347.399
347.386
347.379
347.298
347.295
347.273
347.272
347.274
347.277
347.278
347.289
347.289
347.292
347.299
347.3
347.302
347.301
347.303
347.297
347.296
347.285
347.283
347.284
347.27
347.27
347.265
347.264
347.267
347.289
347.294
347.376
347.385
347.402
347.53
347.535
347.705
347.701
347.557
347.54
347.523
347.36
347.347
347.264
347.256
347.254
347.23
347.228
347.231
347.233
347.235
347.245
347.245
347.248
347.255
347.256
347.258
347.257
347.259
347.252
347.252
347.241
347.24
347.24
347.226
347.226
347.222
347.221
347.224
347.247
347.252
347.336
347.346
347.363
347.491
347.497
347.659
347.656
347.516
347.499
347.483
347.32
347.307
347.222
347.214
347.211
347.186
347.185
347.189
347.188
347.19
347.2
347.2
347.203
347.21
347.211
347.213
347.212
347.214
347.207
347.207
347.197
347.195
347.195
347.182
347.182
347.178
347.177
347.18
347.205
347.21
347.297
347.307
347.323
347.452
347.457
347.613
347.61
347.474
347.458
347.443
347.28
347.267
347.259
347.171
347.168
347.141
347.14
347.142
347.143
347.145
347.154
347.155
347.157
347.164
347.165
347.167
347.167
347.168
347.162
347.162
347.151
347.149
347.15
347.137
347.136
347.133
347.133
347.136
347.162
347.168
347.257
347.267
347.283
347.413
347.418
347.567
347.564
347.432
347.417
347.401
347.239
347.226
347.136
347.128
347.125
347.096
347.095
347.097
347.097
347.099
347.108
347.109
347.111
347.118
347.119
347.121
347.12
347.121
347.116
347.116
347.105
347.103
347.103
347.091
347.091
347.088
347.088
347.091
347.119
347.125
347.216
347.226
347.242
347.372
347.377
347.521
347.518
347.39
347.375
347.359
347.198
347.185
347.093
347.084
347.081
347.051
347.049
347.052
347.051
347.052
347.061
347.062
347.064
347.071
347.072
347.074
347.073
347.074
347.068
347.068
347.058
347.056
347.056
347.044
347.044
347.043
347.042
347.046
347.075
347.081
347.174
347.185
347.201
347.331
347.336
347.474
347.472
347.347
347.332
347.317
347.156
347.143
347.134
347.04
347.036
347.005
347.003
347.004
347.003
347.005
347.014
347.014
347.016
347.023
347.024
347.026
347.025
347.026
347.02
347.02
347.01
347.008
347.008
346.997
346.997
346.996
346.996
347.029
347.031
347.037
347.132
347.143
347.159
347.289
347.294
347.428
347.425
347.412
347.289
347.274
347.113
347.1
347.091
346.995
346.991
346.958
346.956
346.958
346.955
346.957
346.965
346.965
346.968
346.974
346.975
346.977
346.976
346.977
346.972
346.972
346.961
346.96
346.96
346.95
346.95
346.95
346.95
346.984
346.986
346.992
347.089
347.1
347.232
347.247
347.252
347.38
347.378
347.259
347.245
347.23
347.07
347.057
347.047
346.95
346.946
346.911
346.909
346.908
346.907
346.908
346.916
346.916
346.918
346.925
346.926
346.928
346.927
346.928
346.922
346.922
346.912
346.911
346.911
346.901
346.901
346.903
346.903
346.906
346.941
346.947
347.046
347.057
347.073
347.203
347.208
347.332
347.33
347.318
347.2
347.185
347.026
347.013
347.003
346.904
346.9
346.864
346.862
346.863
346.858
346.859
346.866
346.867
346.869
346.875
346.876
346.877
346.877
346.878
346.873
346.872
346.863
346.861
346.861
346.852
346.852
346.855
346.855
346.893
346.895
346.902
347.002
347.013
347.029
347.159
347.164
347.284
347.282
347.167
347.154
347.14
346.981
346.968
346.958
346.858
346.853
346.815
346.813
346.81
346.809
346.81
346.816
346.816
346.818
346.824
346.825
346.827
346.826
346.827
346.822
346.822
346.812
346.811
346.811
346.803
346.803
346.807
346.807
346.811
346.849
346.855
346.957
346.968
346.984
347.114
347.119
347.235
347.233
347.12
347.107
347.093
346.935
346.922
346.912
346.81
346.806
346.766
346.764
346.765
346.758
346.759
346.765
346.765
346.767
346.773
346.774
346.775
346.775
346.775
346.77
346.77
346.761
346.76
346.76
346.752
346.752
346.758
346.758
346.762
346.801
346.808
346.912
346.923
347.053
347.068
347.072
347.185
347.183
347.171
347.059
347.045
346.888
346.875
346.865
346.762
346.758
346.717
346.715
346.708
346.707
346.708
346.713
346.713
346.715
346.721
346.721
346.723
346.722
346.723
346.718
346.718
346.709
346.708
346.708
346.701
346.701
346.708
346.709
346.713
346.754
346.761
346.865
346.876
346.892
347.02
347.025
347.134
347.132
347.023
347.011
346.997
346.841
346.828
346.818
346.714
346.709
346.667
346.664
346.665
346.656
346.656
346.661
346.661
346.663
346.668
346.668
346.67
346.669
346.67
346.665
346.665
346.657
346.656
346.656
346.65
346.65
346.658
346.659
346.702
346.705
346.712
346.817
346.828
346.958
346.972
346.976
372.288
372.323
370.394
369.684
369.862
370.228
370.131
370.662
370.412
370.531
370.521
370.4
370.684
370.407
370.525
370.521
370.403
370.681
370.399
370.517
370.515
370.397
370.677
370.4
370.518
370.523
370.405
370.686
370.409
370.526
370.521
370.402
370.686
370.417
370.52
370.275
370.121
369.819
369.322
369.352
371.528
371.611
368.244
367.494
367.53
368.021
368.104
368.486
368.568
368.561
368.554
368.557
368.546
368.566
368.557
368.552
368.56
368.541
368.553
368.543
368.54
368.55
368.531
368.554
368.545
368.553
368.563
368.545
368.569
368.559
368.554
368.56
368.553
368.576
368.537
368.123
368.081
367.922
367.064
367.063
370.36
370.489
365.22
364.061
364.111
364.851
364.982
365.575
365.709
365.697
365.686
365.694
365.671
365.709
365.693
365.684
365.699
365.653
365.687
365.67
365.666
365.683
365.648
365.69
365.673
365.686
365.704
365.67
365.714
365.696
365.686
365.699
365.682
365.723
365.659
365.011
364.946
364.695
363.393
363.389
369.048
369.206
367.343
361.071
361.124
361.988
362.149
362.881
363.059
363.04
363.029
363.042
363.007
363.064
363.041
363.03
363.053
363.001
363.038
363.013
363.009
363.033
362.983
363.042
363.018
363.034
363.058
363.02
363.07
363.045
363.03
363.048
363.009
363.076
362.992
362.182
362.104
361.794
360.227
360.22
367.607
367.773
365.724
358.711
358.757
359.602
359.77
359.87
360.762
360.741
360.733
360.749
360.706
360.78
360.754
360.744
360.77
360.709
360.756
360.727
360.724
360.752
360.692
360.76
360.733
360.747
360.776
360.718
360.787
360.756
360.734
360.755
360.703
360.781
360.687
359.805
359.723
359.401
357.768
357.759
366.017
366.175
358.631
357.017
357.053
357.782
357.935
358.734
358.929
358.909
358.907
358.923
358.883
358.967
358.942
358.936
358.962
358.904
358.952
358.925
358.922
358.949
358.896
358.956
358.93
358.94
358.967
358.911
358.973
358.943
358.908
358.927
358.893
358.946
358.855
357.97
357.89
356.34
356.066
356.057
364.33
364.471
357.365
355.871
355.897
356.477
356.603
356.716
357.567
357.552
357.56
357.572
357.578
357.633
357.614
357.615
357.636
357.588
357.634
357.612
357.61
357.631
357.586
357.637
357.615
357.618
357.639
357.594
357.638
357.612
357.561
357.574
357.549
357.582
357.497
356.642
356.562
356.325
354.986
354.978
362.707
362.83
361.157
355.097
355.113
355.544
355.642
355.768
356.584
356.575
356.596
356.604
356.64
356.685
356.672
356.681
356.697
356.666
356.705
356.689
356.687
356.702
356.67
356.706
356.69
356.684
356.698
356.666
356.688
356.666
356.597
356.602
356.549
356.597
356.517
355.685
355.604
355.426
354.307
354.301
361.32
361.427
359.947
354.538
354.544
354.837
354.912
355.053
355.856
355.852
355.885
355.89
355.954
355.993
355.985
356.003
356.014
355.995
356.032
356.02
356.019
356.03
356.007
356.033
356.02
356.005
356.014
355.99
355.994
355.975
355.885
355.885
355.829
355.867
355.79
354.961
354.877
353.988
353.832
353.827
360.221
360.315
358.986
354.089
354.087
354.258
354.314
355.12
355.281
355.281
355.324
355.326
355.416
355.452
355.447
355.473
355.482
355.488
355.509
355.501
355.499
355.507
355.491
355.509
355.499
355.475
355.48
355.462
355.451
355.433
355.324
355.319
355.319
355.291
355.214
354.368
354.28
354.193
353.446
353.443
359.36
359.445
354.672
353.692
353.681
353.746
353.786
353.958
354.792
354.795
354.846
354.846
354.961
354.995
354.994
355.027
355.034
355.029
355.07
355.064
355.063
355.068
355.057
355.069
355.06
355.028
355.03
355.016
354.993
354.976
354.846
354.836
354.842
354.801
354.722
353.846
353.754
353.7
353.093
353.091
358.659
358.736
354.241
353.318
353.299
353.269
353.296
353.484
354.346
354.351
354.41
354.407
354.437
354.581
354.582
354.623
354.629
354.658
354.673
354.669
354.668
354.672
354.665
354.672
354.664
354.624
354.623
354.613
354.578
354.56
354.409
354.395
354.406
354.354
354.272
353.362
353.265
353.24
352.749
352.748
358.06
358.13
357.044
352.952
352.927
352.814
352.83
353.74
353.916
353.924
353.988
353.984
354.148
354.182
354.186
354.235
354.239
354.244
354.292
354.29
354.289
354.29
354.287
354.29
354.284
354.234
354.231
354.224
354.178
354.16
353.987
353.97
353.985
353.924
353.84
352.901
352.799
352.453
352.405
352.406
357.521
357.586
353.446
352.594
352.563
352.381
352.388
353.316
353.494
353.503
353.571
353.565
353.75