/*--------------------------------*- C++ -*----------------------------------*\
| =========                 |                                                 |
| \\      /  F ield         | OpenFOAM: The Open Source CFD Toolbox           |
|  \\    /   O peration     | Version:  v1912                                 |
|   \\  /    A nd           | Website:  www.openfoam.com                      |
|    \\/     M anipulation  |                                                 |
\*---------------------------------------------------------------------------*/
FoamFile
{
    version     2.0;
    format      ascii;
    class       volScalarField;
    location    "10";
    object      alphat;
}
// * * * * * * * * * * * * * * * * * * * * * * * * * * * * * * * * * * * * * //

dimensions      [1 -1 -1 0 0 0 0];


internalField   nonuniform List<scalar> 
34128
(
2.12814e-09
2.02576e-09
1.91546e-09
1.88374e-09
1.8723e-09
1.81735e-09
1.81594e-09
1.90906e-09
2.05155e-09
2.17963e-09
2.19074e-09
2.09717e-09
2.51135e-09
2.42419e-09
2.30494e-09
2.26447e-09
2.23529e-09
2.15478e-09
2.16024e-09
2.28398e-09
2.46177e-09
2.60233e-09
2.59242e-09
2.4771e-09
1.20148e-08
1.21056e-08
1.17021e-08
1.14618e-08
1.10875e-08
1.04696e-08
1.06017e-08
1.14013e-08
1.23971e-08
1.29057e-08
1.25077e-08
1.18833e-08
7.67232e-08
7.79921e-08
7.56851e-08
7.40873e-08
7.13987e-08
6.71854e-08
6.81619e-08
7.35074e-08
8.00302e-08
8.30157e-08
7.99974e-08
7.59438e-08
3.27557e-07
3.33689e-07
3.24423e-07
3.17582e-07
3.05881e-07
2.87892e-07
2.92144e-07
3.14916e-07
3.42658e-07
3.54939e-07
3.41653e-07
3.24507e-07
1.02323e-06
1.04433e-06
1.01771e-06
9.96531e-07
9.59542e-07
9.03949e-07
9.17364e-07
9.87559e-07
1.073e-06
1.10971e-06
1.06764e-06
1.01517e-06
2.55335e-06
2.61209e-06
2.55357e-06
2.50179e-06
2.40828e-06
2.27187e-06
2.3058e-06
2.47706e-06
2.68499e-06
2.77115e-06
2.66539e-06
2.53869e-06
5.37029e-06
5.50956e-06
5.40764e-06
5.30236e-06
5.10288e-06
4.82257e-06
4.89527e-06
5.24384e-06
5.66494e-06
5.83193e-06
5.60945e-06
5.35509e-06
9.85712e-06
1.01454e-05
1.00042e-05
9.82011e-06
9.44876e-06
8.94955e-06
9.08611e-06
9.69837e-06
1.04327e-05
1.07096e-05
1.03047e-05
9.86505e-06
1.61915e-05
1.67215e-05
1.6573e-05
1.6289e-05
1.56713e-05
1.48814e-05
1.51116e-05
1.60631e-05
1.71943e-05
1.7598e-05
1.69451e-05
1.62734e-05
2.42771e-05
2.51554e-05
2.50645e-05
2.46707e-05
2.37349e-05
2.26023e-05
2.29571e-05
2.42914e-05
2.58628e-05
2.63927e-05
2.54413e-05
2.45149e-05
3.37666e-05
3.50973e-05
3.51577e-05
3.46594e-05
3.3348e-05
3.18531e-05
3.23596e-05
3.40753e-05
3.60769e-05
3.67155e-05
3.54423e-05
3.42687e-05
4.29829e-05
4.48778e-05
4.53931e-05
4.49596e-05
4.33522e-05
4.16967e-05
4.23736e-05
4.41041e-05
4.60105e-05
4.65413e-05
4.51554e-05
4.40064e-05
5.14386e-05
5.37678e-05
5.45765e-05
5.41064e-05
5.21819e-05
5.03107e-05
5.11224e-05
5.30306e-05
5.51531e-05
5.57367e-05
5.41513e-05
5.28764e-05
5.99909e-05
6.27702e-05
6.39265e-05
6.34272e-05
6.11836e-05
5.91325e-05
6.00761e-05
6.21173e-05
6.44283e-05
6.50583e-05
6.32879e-05
6.19103e-05
6.85193e-05
7.17607e-05
7.33181e-05
7.27986e-05
7.02404e-05
6.8054e-05
6.91233e-05
7.12444e-05
7.37082e-05
7.43733e-05
7.24374e-05
7.09867e-05
7.69103e-05
8.06211e-05
8.26294e-05
8.20994e-05
7.92369e-05
7.69669e-05
7.81529e-05
8.02951e-05
8.28709e-05
8.35573e-05
8.14786e-05
7.99892e-05
8.5069e-05
8.92524e-05
9.17576e-05
9.12271e-05
8.80757e-05
8.57793e-05
8.70711e-05
8.91717e-05
9.18149e-05
9.25063e-05
9.03099e-05
8.88199e-05
9.2924e-05
9.758e-05
0.000100625
0.000100104
9.66818e-05
9.44212e-05
9.58066e-05
9.78004e-05
0.000100465
0.000101143
9.88553e-05
9.74052e-05
0.000100434
0.000105563
0.00010919
0.000108687
0.000105012
0.000102852
0.000104319
0.00010614
0.000108782
0.000109429
0.000107074
0.000105704
0.0001076
0.000113204
0.000117462
0.000116981
0.000113066
0.000111075
0.000112614
0.000114196
0.000116777
0.000117376
0.000114972
0.000113723
0.000114472
0.000120564
0.000125509
0.000125049
0.0001209
0.00011915
0.000120754
0.000122032
0.000124522
0.000125052
0.000122613
0.000121525
0.000121147
0.000127753
0.000133454
0.000133009
0.000128628
0.000127202
0.000128866
0.000129766
0.000132137
0.000132573
0.000130106
0.000129224
0.000127753
0.00013491
0.000141446
0.000141006
0.000136399
0.000135399
0.000137116
0.000137551
0.00013976
0.000140063
0.000137576
0.000136959
0.000134405
0.000142152
0.000149602
0.000149164
0.00014436
0.000143917
0.000145671
0.000145524
0.000147499
0.000147598
0.000145112
0.000144843
0.000141158
0.000149525
0.00015796
0.000157532
0.000152597
0.000152874
0.000154636
0.000153755
0.000155365
0.000155153
0.000152707
0.00015291
0.000147962
0.000156956
0.000166415
0.000166028
0.00016109
0.000162275
0.000164002
0.000162192
0.000163223
0.000162545
0.000160212
0.000161052
0.000154624
0.000164185
0.000174635
0.000174362
0.000169638
0.00017194
0.00017356
0.000170584
0.000170715
0.000169368
0.000167272
0.000168961
0.000160732
0.000170673
0.000181933
0.000181905
0.000177743
0.00018134
0.000182745
0.000178344
0.00017715
0.000174924
0.000173248
0.000176015
0.000165637
0.000175617
0.000187355
0.000187743
0.000184588
0.000189586
0.000190633
0.00018458
0.000181638
0.000178424
0.00017733
0.000181334
0.000168699
0.000178334
0.000190157
0.000191089
0.000189326
0.000195752
0.000196291
0.000188462
0.000183703
0.000179858
0.000179227
0.00018421
0.000170083
0.000179259
0.000190912
0.000192275
0.000191619
0.000199291
0.000199221
0.000190018
0.000184007
0.000179648
0.00017947
0.000185156
0.000169953
0.000178533
0.000189807
0.000191575
0.000191868
0.000200169
0.000199683
0.000189643
0.000182595
0.000177837
0.000178088
0.000184317
0.000168382
0.000176235
0.000186932
0.000189081
0.000190267
0.000198921
0.000198052
0.000187442
0.000179574
0.000174595
0.000175209
0.000181781
0.000165513
0.000172535
0.00018247
0.000184946
0.000186944
0.000195694
0.000194466
0.000183565
0.000175175
0.000170231
0.000171095
0.000177736
0.000161588
0.000167712
0.000176723
0.000179432
0.000182103
0.000190685
0.000189141
0.000178274
0.000169784
0.000165174
0.00016613
0.000172513
0.000156947
0.000162154
0.000170101
0.000172903
0.000176053
0.000184205
0.000182414
0.00017195
0.000163902
0.000159947
0.000160793
0.00016657
0.000152018
0.000156338
0.000163105
0.000165817
0.000169202
0.00017669
0.000174748
0.000165087
0.000158098
0.000155141
0.000155643
0.000160448
0.0001473
0.000150801
0.000156305
0.000158706
0.000162044
0.000168682
0.000166715
0.000158261
0.000152996
0.000151385
0.000151283
0.000154742
0.00014334
0.000146122
0.000150325
0.000152148
0.000155137
0.000160804
0.000158962
0.000152127
0.000149256
0.000149329
0.000148345
0.000150085
0.000140727
0.000142955
0.000145803
0.000146745
0.000149077
0.000153725
0.000152183
0.000147369
0.000147571
0.000149671
0.000147494
0.000147127
0.000140123
0.00014198
0.0001434
0.000143123
0.00014449
0.000148143
0.000147098
0.000144703
0.0001487
0.000153224
0.000149475
0.000146575
0.00014228
0.000143947
0.000143836
0.000141955
0.000142039
0.000144785
0.000144468
0.000144917
0.000153568
0.000161057
0.000155215
0.000149239
0.000148119
0.000149789
0.000147971
0.000144016
0.00014247
0.000144441
0.000145129
0.000148955
0.000163436
0.000174743
0.000166008
0.000156157
0.000158915
0.000160808
0.000156973
0.000150303
0.000146693
0.000148045
0.000150101
0.000158072
0.000180216
0.000196751
0.000183824
0.000168807
0.000176587
0.000178996
0.000172598
0.000162237
0.000155942
0.000156843
0.000160775
0.000174127
0.000206963
0.000231064
0.000211799
0.000189482
0.000204166
0.000207532
0.000197642
0.000182017
0.000172056
0.000172671
0.000179245
0.000200057
0.000248627
0.00028401
0.000254931
0.000221859
0.000246364
0.000251393
0.000236586
0.000213183
0.000197948
0.000198437
0.000208856
0.000240567
0.000311914
0.000357269
0.000319196
0.000271742
0.000307856
0.000315717
0.000295134
0.000261201
0.000238234
0.000238765
0.000254888
0.000301036
0.000384767
0.000428462
0.00039329
0.000344517
0.000389039
0.000401408
0.000377084
0.000331712
0.000297167
0.000297971
0.000322484
0.000383324
0.000465123
0.000515935
0.000474858
0.000416068
0.000471072
0.000486792
0.000457158
0.000404569
0.000368838
0.000374422
0.000405128
0.000466368
0.000561804
0.000618542
0.000572454
0.0005043
0.000569828
0.000588963
0.00055461
0.000491813
0.000447451
0.000454993
0.00049433
0.00056761
0.000674402
0.000737033
0.000685929
0.000608995
0.000684604
0.000707503
0.000668464
0.000596045
0.000544045
0.000553903
0.000601686
0.000686137
0.000803828
0.000871998
0.000816241
0.000730518
0.000816195
0.000843227
0.000799468
0.000717279
0.000657512
0.000669971
0.000726728
0.000822707
0.000950217
0.00102308
0.000963571
0.000869601
0.000964704
0.000996161
0.000947905
0.000856468
0.00078872
0.000803947
0.000870229
0.000977381
0.00111258
0.00118884
0.00112701
0.00102596
0.00112909
0.00116513
0.00111296
0.00101361
0.000938258
0.000956259
0.00103199
0.00114895
0.00128875
0.00136672
0.00130447
0.0011981
0.00130706
0.00134767
0.00129254
0.00118746
0.00110557
0.00112616
0.00121048
0.00133484
0.00147544
0.00155327
0.00149277
0.00138322
0.00149517
0.00154013
0.00148342
0.00137545
0.00128878
0.00131156
0.0014028
0.00153126
0.00166857
0.00174438
0.00168786
0.00157747
0.00168914
0.00173805
0.00168141
0.00157382
0.00148471
0.00150908
0.00160482
0.00173352
0.00186361
0.00193571
0.00188522
0.00177629
0.00188422
0.00193657
0.0018818
0.00177796
0.00168908
0.00171431
0.00181162
0.00193651
0.00205599
0.00212301
0.00208023
0.00197489
0.00207568
0.00213087
0.00207978
0.00198286
0.00189694
0.00192221
0.00201792
0.00213516
0.00224152
0.00230245
0.00226856
0.00216872
0.00225921
0.00231662
0.00227088
0.00218358
0.00210315
0.00212762
0.00221861
0.00232494
0.00241659
0.00247086
0.00244647
0.00235388
0.00243124
0.0024903
0.00245131
0.00237523
0.00230285
0.00232568
0.0024092
0.0025021
0.00257837
0.00262585
0.00261097
0.00252734
0.00258907
0.00264935
0.00261816
0.00255396
0.00249183
0.00251225
0.00258606
0.00266387
0.00272492
0.00276581
0.00275992
0.00268696
0.00273108
0.0027922
0.00276948
0.00271759
0.0026669
0.00268412
0.0027466
0.00280851
0.00285514
0.00288992
0.00289206
0.00283118
0.00285672
0.0029182
0.00290422
0.00286478
0.00282588
0.00283914
0.00288929
0.00293524
0.00296867
0.002998
0.00300694
0.0029594
0.00296586
0.00302744
0.00302215
0.002995
0.00296647
0.00297613
0.00301357
0.00304411
0.00306583
0.00309044
0.00310481
0.00307082
0.003059
0.00312064
0.00312371
0.00310823
0.00308844
0.00309484
0.00311967
0.00313582
0.00314743
0.00316803
0.00318649
0.00316582
0.00313721
0.00319887
0.00320981
0.00320498
0.00319289
0.00319572
0.00320849
0.00321155
0.00321463
0.00323184
0.00325319
0.00324534
0.00320187
0.00326342
0.00328173
0.00328623
0.00328072
0.00327979
0.00328133
0.00327281
0.00326885
0.00328312
0.00330644
0.00331068
0.0032546
0.00331563
0.00334094
0.00335328
0.00335315
0.00334853
0.00333979
0.00332127
0.00331165
0.00332375
0.00334826
0.0033633
0.00329704
0.0033571
0.00338899
0.00340764
0.00341171
0.0034036
0.00338552
0.00335864
0.00334458
0.00335513
0.00338202
0.0034048
0.00333078
0.00338955
0.00342739
0.00345091
0.00345809
0.00344661
0.00341999
0.00338657
0.00336916
0.00337865
0.00340788
0.00343672
0.00335727
0.00341515
0.00345757
0.00348467
0.00349398
0.00347928
0.00344567
0.00340655
0.00338676
0.00339562
0.00342685
0.00346054
0.00337775
0.00343543
0.00348081
0.00351039
0.00352102
0.00350325
0.00346387
0.00341985
0.00339856
0.0034072
0.00344006
0.00347756
0.00339326
0.00345108
0.00349818
0.00352938
0.00354067
0.00351997
0.00347526
0.00342745
0.00340552
0.00341433
0.00344851
0.00348892
0.00340456
0.00346265
0.00351053
0.00354276
0.00355418
0.00353068
0.00348112
0.00343005
0.00340829
0.00341769
0.00345294
0.00349549
0.00341217
0.00347061
0.00351848
0.00355136
0.00356253
0.00353632
0.00348218
0.00342859
0.00340733
0.0034177
0.00345383
0.00349788
0.0034163
0.00347516
0.00352234
0.00355578
0.0035664
0.00353756
0.00347882
0.00342346
0.00340264
0.00341443
0.00345133
0.00349634
2.28902e-09
2.18659e-09
2.07156e-09
2.03825e-09
2.0148e-09
1.9379e-09
1.93659e-09
2.05037e-09
2.22047e-09
2.36447e-09
2.36232e-09
2.24754e-09
2.56623e-09
2.48992e-09
2.39077e-09
2.35242e-09
2.30233e-09
2.20286e-09
2.20946e-09
2.34579e-09
2.5485e-09
2.70744e-09
2.68439e-09
2.54966e-09
1.02495e-08
1.05558e-08
1.06333e-08
1.04621e-08
9.8868e-09
9.28387e-09
9.43681e-09
1.01186e-08
1.11191e-08
1.17097e-08
1.12864e-08
1.06543e-08
6.28306e-08
6.56714e-08
6.69084e-08
6.58168e-08
6.17278e-08
5.77657e-08
5.88909e-08
6.32465e-08
6.96527e-08
7.31521e-08
7.00273e-08
6.60451e-08
2.66542e-07
2.79394e-07
2.854e-07
2.80699e-07
2.6304e-07
2.46343e-07
2.51215e-07
2.6956e-07
2.96705e-07
3.11161e-07
2.97506e-07
2.80803e-07
8.30676e-07
8.72289e-07
8.92901e-07
8.78177e-07
8.22978e-07
7.72071e-07
7.87317e-07
8.43297e-07
9.26726e-07
9.7017e-07
9.27252e-07
8.76502e-07
2.06889e-06
2.17684e-06
2.234e-06
2.19759e-06
2.06016e-06
1.93734e-06
1.97545e-06
2.1103e-06
2.31282e-06
2.41564e-06
2.30882e-06
2.18726e-06
4.34297e-06
4.58002e-06
4.71491e-06
4.64021e-06
4.3525e-06
4.10533e-06
4.18574e-06
4.4557e-06
4.86463e-06
5.06648e-06
4.84449e-06
4.60266e-06
7.95661e-06
8.41115e-06
8.68937e-06
8.55785e-06
8.03382e-06
7.60441e-06
7.75263e-06
8.21718e-06
8.9281e-06
9.26888e-06
8.87054e-06
8.45663e-06
1.30484e-05
1.38259e-05
1.43362e-05
1.41325e-05
1.32813e-05
1.26212e-05
1.28656e-05
1.35699e-05
1.46621e-05
1.51712e-05
1.45386e-05
1.39125e-05
1.95399e-05
2.07465e-05
2.15916e-05
2.13083e-05
2.00515e-05
1.9136e-05
1.95031e-05
2.04621e-05
2.19769e-05
2.26663e-05
2.1759e-05
2.09037e-05
2.71567e-05
2.88802e-05
3.01625e-05
2.9801e-05
2.80881e-05
2.69257e-05
2.74351e-05
2.86259e-05
3.05561e-05
3.14185e-05
3.0224e-05
2.91502e-05
3.4478e-05
3.67064e-05
3.85751e-05
3.8273e-05
3.62658e-05
3.50628e-05
3.57057e-05
3.68e-05
3.86562e-05
3.94852e-05
3.8231e-05
3.71915e-05
4.13253e-05
4.39789e-05
4.62794e-05
4.59327e-05
4.35994e-05
4.23081e-05
4.30562e-05
4.42125e-05
4.62933e-05
4.72265e-05
4.58071e-05
4.46674e-05
4.82876e-05
5.13585e-05
5.40978e-05
5.37024e-05
5.10667e-05
4.97378e-05
5.05796e-05
5.17571e-05
5.40402e-05
5.50673e-05
5.3499e-05
5.22851e-05
5.52695e-05
5.87423e-05
6.19185e-05
6.14712e-05
5.85671e-05
5.72585e-05
5.81793e-05
5.93313e-05
6.17866e-05
6.28911e-05
6.11947e-05
5.99389e-05
6.21824e-05
6.60341e-05
6.96363e-05
6.91346e-05
6.60043e-05
6.47791e-05
6.57616e-05
6.68384e-05
6.943e-05
7.05912e-05
6.87903e-05
6.7529e-05
6.8952e-05
7.31537e-05
7.71636e-05
7.66053e-05
7.32977e-05
7.2223e-05
7.32479e-05
7.41975e-05
7.68852e-05
7.80785e-05
7.61983e-05
7.49707e-05
7.55223e-05
8.00408e-05
8.44358e-05
8.38179e-05
8.03864e-05
7.95318e-05
8.0579e-05
8.1348e-05
8.40892e-05
8.52865e-05
8.33523e-05
8.2199e-05
8.18626e-05
8.66631e-05
9.14192e-05
9.07367e-05
8.72361e-05
8.66734e-05
8.77223e-05
8.82568e-05
9.10089e-05
9.21798e-05
9.02149e-05
8.91763e-05
8.79755e-05
9.30268e-05
9.8122e-05
9.7366e-05
9.38494e-05
9.36533e-05
9.46827e-05
9.49291e-05
9.76521e-05
9.87647e-05
9.67877e-05
9.59026e-05
9.39053e-05
9.91841e-05
0.000104601
0.000103758
0.000100276
0.000100525
0.000101514
0.000101417
0.000104074
0.000105095
0.000103118
0.000102424
9.97363e-05
0.000105229
0.000110957
0.000110012
0.000106612
0.000107394
0.000108317
0.000107817
0.000110372
0.00011126
0.000109289
0.000108826
0.000105574
0.000111276
0.00011731
0.000116248
0.000112985
0.000114393
0.000115224
0.00011425
0.000116653
0.000117351
0.000115394
0.000115211
0.000111513
0.000117421
0.000123754
0.000122574
0.000119516
0.000121658
0.00012236
0.000120826
0.000122991
0.000123417
0.000121488
0.000121657
0.000117596
0.000123697
0.000130316
0.000129039
0.000126283
0.000129269
0.000129799
0.000127594
0.000129376
0.000129412
0.000127545
0.000128162
0.000123774
0.000130031
0.000136909
0.000135598
0.000133269
0.000137213
0.00013751
0.000134494
0.000135675
0.000135173
0.000133424
0.00013461
0.000129873
0.000136202
0.00014328
0.000142054
0.000140318
0.000145309
0.000145297
0.000141305
0.000141591
0.000140384
0.000138842
0.00014073
0.000135549
0.000141775
0.000148921
0.000147979
0.00014705
0.00015306
0.000152642
0.000147556
0.000146605
0.000144558
0.000143344
0.000146041
0.000140276
0.000146132
0.000153138
0.000152724
0.00015284
0.000159701
0.000158778
0.000152555
0.000150093
0.000147225
0.000146415
0.000149911
0.000143536
0.000148769
0.000155446
0.000155705
0.000157042
0.000164484
0.000162975
0.000155683
0.000151929
0.000148605
0.000148086
0.000152008
0.000145423
0.000150089
0.000156381
0.000157161
0.000159406
0.000167052
0.000165043
0.000157173
0.000152536
0.000148889
0.000148621
0.000152804
0.00014609
0.000150164
0.000156
0.000157267
0.000160196
0.000167752
0.000165381
0.000157224
0.000151928
0.000148112
0.000148039
0.00015232
0.000145609
0.000149066
0.000154376
0.000156091
0.000159566
0.000166804
0.00016413
0.000155915
0.000150231
0.000146434
0.000146474
0.000150663
0.000144121
0.000146962
0.000151678
0.000153762
0.000157627
0.000164338
0.000161425
0.000153397
0.000147692
0.000144131
0.000144169
0.000148058
0.000141868
0.000144125
0.000148182
0.000150498
0.000154567
0.000160569
0.000157502
0.000149935
0.000144644
0.00014158
0.00014147
0.00014483
0.000139187
0.000140925
0.000144263
0.000146611
0.000150665
0.000155828
0.000152715
0.000145907
0.000141512
0.000139236
0.000138809
0.000141384
0.0001365
0.000137817
0.000140376
0.000142496
0.000146293
0.000150552
0.000147525
0.000141787
0.000138803
0.000137603
0.000136676
0.000138203
0.000134299
0.00013532
0.000137033
0.000138613
0.000141901
0.000145263
0.000142481
0.000138126
0.000137079
0.000137233
0.000135607
0.000135826
0.000133134
0.000134002
0.000134777
0.000135477
0.000137996
0.000140542
0.000138189
0.000135517
0.000136952
0.000138745
0.000136192
0.000134844
0.000133612
0.00013445
0.000134201
0.000133655
0.000135137
0.000137008
0.000135298
0.000134617
0.000139118
0.000142875
0.000139111
0.000135918
0.000136413
0.000137346
0.000135977
0.000133778
0.000133938
0.000135315
0.000134508
0.000136173
0.000144436
0.000150587
0.000145217
0.000139818
0.000142386
0.00014356
0.000140931
0.000136592
0.000135098
0.000136182
0.000136601
0.000141085
0.000154072
0.000163271
0.000155685
0.000147536
0.000152701
0.000154303
0.000150188
0.000143051
0.000139463
0.00014046
0.000142542
0.000150547
0.000169764
0.000183087
0.000172276
0.000160494
0.000169099
0.000171403
0.000165434
0.000154501
0.000148158
0.000149283
0.000153649
0.000166321
0.000194293
0.000213568
0.000197797
0.000180899
0.000194342
0.000197796
0.000189375
0.000173011
0.000162833
0.000164312
0.000171917
0.000191202
0.000232226
0.000259973
0.000236773
0.00021233
0.000232796
0.000238176
0.000226461
0.000201967
0.000186093
0.000188181
0.000200556
0.000229744
0.000289563
0.000310684
0.00029435
0.000260309
0.00028822
0.000295814
0.000281505
0.000246624
0.000222135
0.00022514
0.00024462
0.000287124
0.000344178
0.000369909
0.000352084
0.000327168
0.000351089
0.00035178
0.000335654
0.000305783
0.000275085
0.000279142
0.000308692
0.000364936
0.000414961
0.000444876
0.000424122
0.00039443
0.000423626
0.000424261
0.000404605
0.00036661
0.000339735
0.000348091
0.000387483
0.000444813
0.000501908
0.000534316
0.000511929
0.000479306
0.000512813
0.000513042
0.000490294
0.000444883
0.00041131
0.000422486
0.00047366
0.000542914
0.000603907
0.00063833
0.000614582
0.000580465
0.000617407
0.000617112
0.000591344
0.000539842
0.000500982
0.000515137
0.000577865
0.000657866
0.00072201
0.000758078
0.000733223
0.000698279
0.000738306
0.000737725
0.000708678
0.000650811
0.000607234
0.000624489
0.000699305
0.00079051
0.000856927
0.000894017
0.000868678
0.000834019
0.000876418
0.000875931
0.000843521
0.000779106
0.000730601
0.000751069
0.000838952
0.000941162
0.00100835
0.00104563
0.00102082
0.000988024
0.00103166
0.00103155
0.000996122
0.00092537
0.000872068
0.000895704
0.000996893
0.00110886
0.00117482
0.00121134
0.00118839
0.0011594
0.00120275
0.00120335
0.00116546
0.00108909
0.00103156
0.00105813
0.00117187
0.00129127
0.00135373
0.00138851
0.00136897
0.0013459
0.00138714
0.00138884
0.00134911
0.00126844
0.00120771
0.0012368
0.00136122
0.00148479
0.00154152
0.00157369
0.00155914
0.00154402
0.00158118
0.00158401
0.00154375
0.00146032
0.00139778
0.00142884
0.001561
0.00168486
0.00173397
0.00176289
0.00175474
0.00174926
0.00178038
0.0017845
0.00174499
0.0016606
0.0015979
0.00163024
0.00176641
0.00188645
0.00192665
0.0019519
0.0019513
0.00195652
0.0019799
0.00198531
0.00194792
0.0018645
0.00180333
0.00183622
0.0019722
0.00208455
0.00211522
0.00213671
0.00214436
0.0021606
0.00217495
0.00218156
0.00214762
0.00206708
0.00200899
0.00204168
0.00217324
0.00227459
0.00229574
0.00231369
0.00232989
0.00235662
0.00236121
0.00236887
0.00233957
0.00226373
0.00220992
0.00224166
0.00236494
0.00245278
0.002465
0.00247988
0.00250449
0.00254043
0.00253512
0.00254369
0.00252001
0.00245106
0.00240166
0.00243178
0.00254355
0.00261625
0.00262056
0.00263303
0.00266555
0.00270876
0.00269403
0.00270344
0.00268608
0.00262659
0.00258056
0.00260848
0.00270633
0.00276316
0.0027608
0.00277165
0.00281127
0.0028595
0.00283607
0.00284658
0.00283589
0.00278684
0.00274396
0.00276918
0.00285159
0.0028926
0.00288487
0.00289496
0.00294068
0.00299184
0.00295995
0.00297249
0.0029685
0.0029303
0.00289029
0.00291233
0.00297861
0.00300446
0.0029926
0.0030028
0.0030535
0.00310553
0.00306579
0.00308138
0.00308377
0.003056
0.00302032
0.00303737
0.0030875
0.00309931
0.00308442
0.00309554
0.00315006
0.00320204
0.00315455
0.00317413
0.00318226
0.00316401
0.00313445
0.00314452
0.00317903
0.00317822
0.0031612
0.00317398
0.0032312
0.0032825
0.00322771
0.00325204
0.00326502
0.00325517
0.00323108
0.00323461
0.00325443
0.00324258
0.00322416
0.00323919
0.00329815
0.00334828
0.0032871
0.00331685
0.00333345
0.0033308
0.00331141
0.0033088
0.00331527
0.00329396
0.00327472
0.00329231
0.00335227
0.00340088
0.00333459
0.00337006
0.0033892
0.00339252
0.00337689
0.00336876
0.00336323
0.00333402
0.00331442
0.00333394
0.00339455
0.00344194
0.00337197
0.0034132
0.00343397
0.00344205
0.00342928
0.00341709
0.00340007
0.00336436
0.00334479
0.00336558
0.00342479
0.00347315
0.00340095
0.0034476
0.00346948
0.00348113
0.00347037
0.00345395
0.0034276
0.0033865
0.00336731
0.00338894
0.00344644
0.00349611
0.00342302
0.0034743
0.00349731
0.00351141
0.0035019
0.00348148
0.00344618
0.00340178
0.0033833
0.00340558
0.00346159
0.00351234
0.00343949
0.00349452
0.0035189
0.00353436
0.00352549
0.00350129
0.00345751
0.00341136
0.00339389
0.00341684
0.00347164
0.00352314
0.00345144
0.00350975
0.00353544
0.00355128
0.00354258
0.00351477
0.00346379
0.0034162
0.00339998
0.00342378
0.00347768
0.00352965
0.0034597
0.00352108
0.00354788
0.00356323
0.00355435
0.0035231
0.00346575
0.00341683
0.00340221
0.00342721
0.00348053
0.00353272
0.00346485
0.00352914
0.00355691
0.00357098
0.00356176
0.00352723
0.003464
0.003413
0.00340095
0.0034276
0.00348067
0.00353291
0.00346719
0.0035342
0.00356292
0.00357507
0.00356548
0.00352782
0.00345887
0.00340459
0.00339628
0.00342517
0.00347831
0.0035305
2.30415e-09
2.20704e-09
2.09992e-09
2.06544e-09
2.03738e-09
1.9618e-09
1.96169e-09
2.07453e-09
2.24857e-09
2.39597e-09
2.39061e-09
2.27385e-09
2.60296e-09
2.52624e-09
2.42402e-09
2.37876e-09
2.33056e-09
2.23996e-09
2.24602e-09
2.37909e-09
2.58639e-09
2.7479e-09
2.72247e-09
2.5879e-09
1.07082e-08
1.09116e-08
1.07871e-08
1.04995e-08
1.00443e-08
9.59408e-09
9.71484e-09
1.03488e-08
1.13704e-08
1.19506e-08
1.1537e-08
1.09438e-08
6.61261e-08
6.81773e-08
6.78685e-08
6.59285e-08
6.27582e-08
5.99105e-08
6.07896e-08
6.48022e-08
7.13387e-08
7.4737e-08
7.17001e-08
6.80164e-08
2.80863e-07
2.90244e-07
2.8941e-07
2.81031e-07
2.67442e-07
2.55572e-07
2.59354e-07
2.76232e-07
3.03911e-07
3.17878e-07
3.04613e-07
2.89219e-07
8.75723e-07
9.06336e-07
9.0509e-07
8.78881e-07
8.36717e-07
8.00866e-07
8.12625e-07
8.64104e-07
9.49085e-07
9.90825e-07
9.4915e-07
9.02523e-07
2.18189e-06
2.26205e-06
2.26344e-06
2.19853e-06
2.09444e-06
2.00893e-06
2.03813e-06
2.16205e-06
2.36805e-06
2.46612e-06
2.36248e-06
2.25123e-06
4.58193e-06
4.75968e-06
4.77467e-06
4.64057e-06
4.42482e-06
4.2551e-06
4.31628e-06
4.56419e-06
4.97945e-06
5.17015e-06
4.95505e-06
4.73479e-06
8.39787e-06
8.74196e-06
8.79527e-06
8.55616e-06
8.16754e-06
7.87748e-06
7.98954e-06
8.4159e-06
9.13645e-06
9.45458e-06
9.06925e-06
8.69435e-06
1.37785e-05
1.43718e-05
1.4505e-05
1.41274e-05
1.3504e-05
1.30663e-05
1.32499e-05
1.38964e-05
1.50013e-05
1.54696e-05
1.48586e-05
1.4295e-05
2.06444e-05
2.15706e-05
2.18395e-05
2.13004e-05
2.03921e-05
1.97976e-05
2.00717e-05
2.09536e-05
2.2483e-05
2.31058e-05
2.22309e-05
2.14659e-05
2.87094e-05
3.00374e-05
3.0504e-05
2.97959e-05
2.85753e-05
2.78372e-05
2.82152e-05
2.93147e-05
3.12599e-05
3.20225e-05
3.08716e-05
2.99174e-05
3.64749e-05
3.81894e-05
3.90276e-05
3.83249e-05
3.69196e-05
3.61973e-05
3.6667e-05
3.76829e-05
3.95696e-05
4.02754e-05
3.90653e-05
3.81486e-05
4.37542e-05
4.57907e-05
4.68462e-05
4.60428e-05
4.44245e-05
4.36589e-05
4.41984e-05
4.52949e-05
4.74149e-05
4.81942e-05
4.68162e-05
4.58059e-05
5.11647e-05
5.35174e-05
5.47967e-05
5.38985e-05
5.20847e-05
5.13034e-05
5.19022e-05
5.30531e-05
5.53851e-05
5.62247e-05
5.46895e-05
5.36035e-05
5.86028e-05
6.12621e-05
6.27707e-05
6.17882e-05
5.98003e-05
5.90326e-05
5.96786e-05
6.08538e-05
6.33679e-05
6.42498e-05
6.25712e-05
6.14317e-05
6.59702e-05
6.89233e-05
7.0667e-05
6.9614e-05
6.74751e-05
6.67507e-05
6.74309e-05
6.85981e-05
7.12589e-05
7.21617e-05
7.03555e-05
6.91867e-05
7.31839e-05
7.64157e-05
7.84024e-05
7.72948e-05
7.5028e-05
7.43764e-05
7.50774e-05
7.62026e-05
7.89705e-05
7.98709e-05
7.79534e-05
7.67808e-05
8.01799e-05
8.36748e-05
8.59166e-05
8.47711e-05
8.23974e-05
8.18476e-05
8.25563e-05
8.36045e-05
8.6438e-05
8.73109e-05
8.52983e-05
8.4147e-05
8.69207e-05
9.06659e-05
9.31794e-05
9.20115e-05
8.9548e-05
8.91289e-05
8.98331e-05
9.07689e-05
9.36273e-05
9.44472e-05
9.23537e-05
9.12478e-05
9.34049e-05
9.73937e-05
0.000100203
9.90244e-05
9.64821e-05
9.62233e-05
9.69121e-05
9.76999e-05
0.000100546
0.000101288
9.91233e-05
9.80855e-05
9.96745e-05
0.00010391
0.000107046
0.000105866
0.00010325
0.000103184
0.000103848
0.00010445
0.000107251
0.000107888
0.000105656
0.000104709
0.000105812
0.000110307
0.000113814
0.000112638
0.000109948
0.000110115
0.000110744
0.000111119
0.000113836
0.000114337
0.000112037
0.000111208
0.00011192
0.000116693
0.000120624
0.000119466
0.000116706
0.000117155
0.000117737
0.000117826
0.000120404
0.000120723
0.000118359
0.000117685
0.000118082
0.000123156
0.000127571
0.000126458
0.000123644
0.00012443
0.00012495
0.000124675
0.000127026
0.000127095
0.000124679
0.000124213
0.000124327
0.00012971
0.000134675
0.000133663
0.000130831
0.000132014
0.000132448
0.000131707
0.000133687
0.000133411
0.000130976
0.000130796
0.000130584
0.000136262
0.000141839
0.00014102
0.000138246
0.000139874
0.000140188
0.000138856
0.000140251
0.000139508
0.000137115
0.000137325
0.000136656
0.000142571
0.000148795
0.000148307
0.000145719
0.000147813
0.00014796
0.000145898
0.000146424
0.000145077
0.000142821
0.000143543
0.000142175
0.000148193
0.000155021
0.000155048
0.000152848
0.000155387
0.0001553
0.000152362
0.000151701
0.000149641
0.000147645
0.000148992
0.000146607
0.000152515
0.000159802
0.000160537
0.000158983
0.000161879
0.000161471
0.000157553
0.000155463
0.000152703
0.000151051
0.000153059
0.000149466
0.000155094
0.000162591
0.000164126
0.00016344
0.000166562
0.00016576
0.000160838
0.000157532
0.000154403
0.000152987
0.000155382
0.000151027
0.00015635
0.000163873
0.000165963
0.000165934
0.000169118
0.000167971
0.000162427
0.000158313
0.000154925
0.000153741
0.000156402
0.000151362
0.000156322
0.000163734
0.00016628
0.000166757
0.000169882
0.000168471
0.000162532
0.000157816
0.000154297
0.000153325
0.00015615
0.000150541
0.000155088
0.000162248
0.000165156
0.000166072
0.000169049
0.000167407
0.000161235
0.000156154
0.00015267
0.000151864
0.000154721
0.000148725
0.000152824
0.000159586
0.000162726
0.000163997
0.000166749
0.000164912
0.000158695
0.000153551
0.000150307
0.000149589
0.000152317
0.000146167
0.000149807
0.000156023
0.000159221
0.000160728
0.000163191
0.000161216
0.000155176
0.000150342
0.000147577
0.000146838
0.000149247
0.000143212
0.0001464
0.000151931
0.000154975
0.00015656
0.000158691
0.000156662
0.000151057
0.000146954
0.000144932
0.000144041
0.000145914
0.000140276
0.000143032
0.000147754
0.000150409
0.000151881
0.000153665
0.000151698
0.000146811
0.000143902
0.000142864
0.000141679
0.000142796
0.000137831
0.000140179
0.000144005
0.000146015
0.00014716
0.000148612
0.000146857
0.000142989
0.000141742
0.000141906
0.000140277
0.000140426
0.000136393
0.000138377
0.000141251
0.000142337
0.000142931
0.000144092
0.000142739
0.000140207
0.000141072
0.000142648
0.000140405
0.000139387
0.000136532
0.000138201
0.000140082
0.000139964
0.000139778
0.000140719
0.00014
0.000139138
0.000142561
0.00014577
0.000142706
0.00014033
0.000138895
0.000140278
0.000141138
0.000139542
0.000138337
0.000139159
0.000139356
0.000140537
0.000147015
0.000152133
0.000147966
0.000143992
0.000144282
0.000145369
0.000145177
0.000141815
0.000139329
0.000140159
0.000141625
0.000145302
0.000155506
0.000162932
0.000157232
0.000151312
0.000153745
0.000154488
0.000153194
0.00014772
0.000143625
0.000144619
0.000147815
0.000154615
0.000169594
0.000179954
0.00017203
0.00016361
0.000168801
0.000169097
0.000166603
0.000158545
0.000152373
0.000153722
0.000159302
0.000170183
0.000191708
0.000206002
0.000194709
0.000182881
0.000191767
0.000191415
0.000187556
0.000176228
0.00016724
0.000169168
0.000178139
0.000194635
0.000225781
0.000245736
0.000229014
0.000212256
0.000226241
0.000224879
0.000219458
0.000203837
0.000190806
0.000193571
0.000207559
0.000232139
0.000278089
0.000306023
0.000280943
0.000256613
0.000276932
0.000274408
0.000267623
0.000246289
0.000227179
0.000231057
0.000252674
0.000289328
0.000345217
0.000368625
0.000354974
0.000320887
0.000349838
0.000344997
0.000332099
0.000307857
0.000281814
0.000287317
0.000318606
0.000371537
0.000414709
0.000442326
0.000425871
0.000403583
0.000421309
0.000414621
0.00039854
0.000367902
0.000347113
0.000360863
0.000401505
0.000451275
0.000500874
0.000531203
0.000512991
0.000488
0.000509568
0.000501183
0.000482107