/*--------------------------------*- C++ -*----------------------------------*\
| =========                 |                                                 |
| \\      /  F ield         | OpenFOAM: The Open Source CFD Toolbox           |
|  \\    /   O peration     | Version:  v1912                                 |
|   \\  /    A nd           | Website:  www.openfoam.com                      |
|    \\/     M anipulation  |                                                 |
\*---------------------------------------------------------------------------*/
FoamFile
{
    version     2.0;
    format      ascii;
    class       volScalarField;
    location    "10";
    object      omega;
}
// * * * * * * * * * * * * * * * * * * * * * * * * * * * * * * * * * * * * * //

dimensions      [0 0 -1 0 0 0 0];


internalField   nonuniform List<scalar> 
34128
(
156508
156508
156508
156508
156508
156508
156508
156508
156508
156508
156508
156508
25805.8
25806.2
25807
25807.6
25805.2
25802.7
25803.5
25804.7
25806.1
25808.9
25810.1
25808.9
8856.47
8856.41
8856.58
8856.99
8855.17
8853.09
8853.65
8854.88
8856.36
8859
8859.99
8858.81
4230.77
4230.19
4229.73
4229.88
4228.47
4226.6
4226.99
4228.43
4230.3
4232.9
4233.67
4232.29
2443.14
2442.01
2440.88
2440.75
2439.56
2437.67
2437.95
2439.8
2442.33
2445.17
2445.71
2443.95
1597.79
1596.14
1594.33
1593.91
1592.82
1590.74
1590.93
1593.34
1596.71
1599.92
1600.2
1597.96
1144.33
1142.26
1139.83
1139.12
1138.03
1135.69
1135.81
1138.82
1143.1
1146.69
1146.67
1143.93
879.782
877.432
874.511
873.533
872.345
869.706
869.786
873.4
878.556
882.487
882.123
878.904
715.861
713.395
710.14
708.928
707.581
704.64
704.7
708.865
714.806
718.978
718.239
714.615
609.326
606.92
603.51
602.114
600.543
597.32
597.386
602.016
608.61
612.919
611.796
607.855
537.114
534.93
531.546
530.01
528.17
524.697
524.797
529.79
536.886
541.239
539.741
535.574
486.141
484.315
481.129
479.491
477.351
473.671
473.83
479.08
486.531
490.848
489.007
484.695
448.643
447.28
444.438
442.735
440.279
436.446
436.689
442.087
449.744
453.961
451.824
447.45
419.848
419.017
416.634
414.904
412.129
408.211
408.554
413.997
421.714
425.786
423.408
419.054
396.752
396.487
394.646
392.923
389.841
385.912
386.367
391.752
399.402
403.296
400.738
396.479
377.435
377.74
376.492
374.8
371.442
367.581
368.15
373.381
380.856
384.55
381.873
377.769
360.66
361.51
360.876
359.232
355.645
351.93
352.609
357.597
364.809
368.287
365.543
361.644
345.612
346.967
346.944
345.353
341.597
338.108
338.885
343.548
350.428
353.675
350.909
347.257
331.753
333.558
334.123
332.583
328.729
325.54
326.402
330.664
337.156
340.144
337.401
334.038
318.712
320.905
322.016
320.523
316.65
313.836
314.766
318.556
324.602
327.29
324.621
321.591
306.231
308.746
310.339
308.892
305.089
302.725
303.682
306.948
312.479
314.803
312.267
309.631
294.115
296.888
298.882
297.489
293.849
291.996
292.936
295.64
300.553
302.479
300.116
297.936
282.217
285.19
287.473
286.159
282.782
281.476
282.363
284.474
288.674
290.165
288.017
286.321
270.413
273.509
275.988
274.796
271.769
271.031
271.831
273.31
276.725
277.74
275.854
274.672
258.601
261.722
264.343
263.316
260.702
260.538
261.217
262.045
264.608
265.091
263.512
262.895
246.667
249.745
252.467
251.633
249.505
249.884
250.429
250.6
252.221
252.099
250.88
250.894
234.526
237.502
240.27
239.665
238.111
239
239.396
238.902
239.457
238.648
237.85
238.567
222.085
224.888
227.656
227.327
226.438
227.818
228.054
226.855
226.204
224.616
224.307
225.81
209.229
211.782
214.517
214.52
214.397
216.273
216.333
214.351
212.331
209.852
210.111
212.51
195.812
198.033
200.708
201.111
201.881
204.27
204.12
201.261
197.694
194.256
195.116
198.523
181.718
183.55
186.148
186.999
188.751
191.672
191.272
187.454
182.54
178.831
179.863
183.787
167.835
169.52
172.068
173.104
175.086
178.376
177.711
173.474
168.224
164.373
165.536
169.584
154.817
156.39
158.908
160.102
162.109
165.276
164.587
160.327
154.824
150.812
152.133
156.299
142.623
144.071
146.567
147.938
149.987
153.008
152.297
148.003
142.19
138.002
139.508
143.815
131.12
132.422
134.895
136.466
138.599
141.475
140.722
136.361
130.168
125.829
127.532
131.974
120.191
121.326
123.771
125.56
127.809
130.535
129.721
125.269
118.682
114.218
116.119
120.673
109.756
110.708
113.112
115.126
117.509
120.071
119.18
114.634
107.696
103.132
105.215
109.864
99.7685
100.523
102.867
105.11
107.629
110.007
109.028
104.403
97.1869
92.5738
94.8085
99.523
90.21
90.7512
93.0192
95.491
98.1311
100.303
99.233
94.5476
87.1639
82.5708
84.9146
89.6493
81.0806
81.3772
83.5969
86.2716
89.0081
90.9512
89.7911
85.0966
77.659
73.16
75.5642
80.2618
72.3819
72.4701
74.6337
77.4717
80.2713
81.9672
80.7238
76.082
68.7149
64.3819
66.7954
71.3799
64.1697
64.0918
66.1736
69.1226
71.945
73.3843
72.0696
67.5431
60.3758
56.2761
58.6467
63.0414
56.5025
56.2923
58.2641
61.2625
64.0623
65.2464
63.8767
59.525
52.6828
48.8754
51.1528
55.2906
49.4214
49.113
50.9486
53.9304
56.6619
57.6031
56.1973
52.0754
45.6699
42.2053
44.3425
48.1663
42.9609
42.5862
44.2635
47.1627
49.7828
50.5013
49.0811
45.2403
39.3632
36.2819
38.2356
41.7
37.1481
36.7357
38.2371
40.9906
43.4605
43.9817
42.5709
39.0586
33.7718
31.0661
32.8223
35.9168
31.9735
31.5416
32.8693
35.4356
37.724
38.0765
36.6986
33.5345
28.8588
26.447
28.0457
30.8086
27.3475
26.9086
28.109
30.4939
32.5917
32.8059
31.48
28.6233
24.5258
22.4006
23.8316
26.2701
23.2346
22.8089
23.8941
26.0798
27.9887
28.0954
26.8346
24.2626
20.7392
18.9526
20.1687
22.2543
19.6903
19.29
20.2227
22.1506
23.8435
23.8706
22.6993
20.4748
17.5239
16.0401
17.0573
18.8153
16.6721
16.305
17.0973
18.7644
20.2374
20.2094
19.1473
17.2531
14.8218
13.6045
14.4407
15.9024
14.1277
13.7972
14.4633
15.8801
17.141
17.0797
16.1353
14.544
12.5729
11.5847
12.2609
13.4621
12.0049
11.7128
12.2672
13.4516
14.5136
14.4348
13.6103
12.2919
10.7165
9.92161
10.4596
11.4368
10.2496
9.9949
10.4533
11.4278
12.3096
12.2245
11.5163
10.4377
9.19445
8.55993
8.98115
9.76948
8.80919
8.58855
8.96594
9.75626
10.4786
10.395
9.79564
8.9233
7.95333
7.44981
7.77428
8.40615
7.63466
7.44381
7.75342
8.38603
8.97042
8.89282
8.39248
7.69435
6.94521
6.54738
6.79303
7.29746
6.68154
6.51621
6.76939
7.26963
7.73679
7.66769
7.25513
6.70175
6.12834
5.8149
5.99734
6.39948
5.91071
5.76696
5.97307
6.36418
6.73334
6.67366
6.33732
5.90253
5.46719
5.22064
5.35303
5.67406
5.28861
5.16278
5.32973
5.63207
5.92044
5.87009
5.5988
5.26009
4.93215
4.73829
4.83151
5.08875
4.78699
4.67593
4.81027
5.04113
5.26363
5.22198
5.00547
4.74395
4.49886
4.3464
4.40928
4.61647
4.38255
4.28358
4.39071
4.56441
4.73369
4.69985
4.52902
4.32919
4.14759
4.02764
4.06726
4.23497
4.05628
3.96715
4.05153
4.17973
4.3063
4.27932
4.14635
3.99566
3.86253
3.76807
3.7901
3.92617
3.79288
3.71166
3.77696
3.86975
3.96151
3.94055
3.83884
3.72728
3.63107
3.55657
3.56552
3.67555
3.58006
3.50509
3.55435
3.62003
3.68315
3.66749
3.5916
3.51125
3.44313
3.38424
3.38376
3.47163
3.40788
3.33784
3.37361
3.41802
3.45815
3.44733
3.3928
3.33742
3.29066
3.244
3.23697
3.30564
3.26822
3.20226
3.22668
3.25415
3.27605
3.26982
3.23304
3.19772
3.16723
3.13015
3.11889
3.17043
3.15499
3.09225
3.10712
3.12091
3.12968
3.12677
3.10483
3.08571
3.06766
3.03813
3.02444
3.06118
3.06329
3.00295
3.0098
3.01262
3.0121
3.01166
3.0022
2.99626
2.98778
2.96426
2.94951
2.9734
2.98913
2.93055
2.93062
2.92478
2.91726
2.91929
2.92038
2.9252
2.92418
2.90558
2.89075
2.90341
2.92926
2.87208
2.86631
2.85378
2.84101
2.84549
2.85553
2.86919
2.87404
2.85966
2.84538
2.84816
2.88108
2.82527
2.81428
2.79669
2.78009
2.78682
2.80456
2.82547
2.83503
2.82405
2.81079
2.80521
2.84253
2.78817
2.77246
2.75117
2.73183
2.74055
2.76502
2.79183
2.80523
2.79708
2.78371
2.77253
2.81199
2.75912
2.73925
2.71533
2.69405
2.70461
2.7351
2.76644
2.78303
2.77732
2.76378
2.74847
2.78824
2.73642
2.71342
2.68767
2.66502
2.67722
2.71252
2.74787
2.76708
2.76354
2.75008
2.73168
2.7704
2.71901
2.69406
2.66701
2.64336
2.65699
2.69615
2.73498
2.75635
2.75472
2.74161
2.72105
2.75785
2.70662
2.68052
2.65247
2.62801
2.64283
2.68549
2.72699
2.75
2.75003
2.73754
2.71568
2.7502
2.69908
2.67239
2.64342
2.61819
2.63393
2.67963
2.72338
2.74751
2.7489
2.73724
2.7149
2.74728
2.69628
2.66942
2.63944
2.6134
2.62977
2.67813
2.72348
2.7485
2.75094
2.74028
2.71822
2.74909
2.69824
2.67158
2.64031
2.61333
2.63005
2.68086
2.72707
2.75297
2.75602
2.74644
2.7254
156508
156508
156508
156508
156508
156508
156508
156508
156508
156508
156508
156508
25807.7
25808
25808.9
25809.6
25807.2
25804.6
25805.4
25806.7
25808
25811.2
25812.6
25811.1
8858.73
8858.62
8858.88
8859.35
8857.44
8855.2
8855.82
8857.15
8858.68
8861.65
8862.71
8861.18
4233.26
4232.68
4232.31
4232.49
4230.94
4228.84
4229.3
4230.9
4232.95
4235.88
4236.6
4234.86
2445.99
2444.95
2443.93
2443.8
2442.4
2440.21
2440.54
2442.65
2445.51
2448.69
2449.08
2446.92
1601.03
1599.58
1597.95
1597.5
1596.09
1593.65
1593.91
1596.64
1600.5
1604.07
1604.09
1601.4
1147.89
1146.16
1144.01
1143.24
1141.7
1138.96
1139.17
1142.57
1147.48
1151.47
1151.07
1147.84
883.548
881.689
879.178
878.083
876.351
873.301
873.493
877.523
883.423
887.766
886.926
883.201
719.689
717.886
715.174
713.781
711.805
708.486
708.69
713.262
720.021
724.608
723.314
719.199
613.086
611.511
608.773
607.112
604.865
601.345
601.588
606.579
614.016
618.723
616.994
612.61
540.692
539.492
536.893
535.009
532.473
528.834
529.143
534.411
542.326
547.042
544.919
540.39
489.452
488.738
486.418
484.363
481.53
477.86
478.258
483.66
491.856
496.491
494.028
489.468
451.629
451.471
449.55
447.374
444.25
440.638
441.14
446.535
454.834
459.322
456.583
452.085
422.481
422.909
421.481
419.222
415.831
412.364
412.976
418.23
426.484
430.775
427.829
423.464
399.036
400.041
399.167
396.85
393.236
389.996
390.715
395.713
403.795
407.852
404.768
400.588
379.396
380.942
380.646
378.29
374.509
371.573
372.386
377.032
384.838
388.629
385.475
381.527
362.336
364.366
364.632
362.253
358.373
355.812
356.695
360.916
368.357
371.851
368.691
365.023
347.05
349.493
350.271
347.887
343.986
341.858
342.778
346.524
353.516
356.679
353.579
350.235
332.996
335.773
336.982
334.62
330.782
329.129
330.048
333.289
339.749
342.555
339.568
336.592
319.797
322.827
324.375
322.066
318.376
317.22
318.092
320.818
326.671
329.1
326.263
323.692
307.18
310.379
312.179
309.962
306.496
305.829
306.638
308.836
314.018
316.059
313.396
311.25
294.938
298.224
300.205
298.12
294.945
294.749
295.483
297.138
301.611
303.215
300.766
299.065
282.907
286.191
288.322
286.403
283.573
283.829
284.472
285.573
289.281
290.394
288.191
286.99
270.95
274.169
276.42
274.692
272.263
272.939
273.481
274.029
276.887
277.413
275.522
274.88
258.946
262.065
264.372
262.882
260.926
261.985
262.422
262.404
264.269
264.139
262.61
262.608
246.81
249.758
252.064
250.892
249.472
250.897
251.202
250.59
251.312
250.464
249.352
250.031
234.437
237.13
239.406
238.644
237.802
239.584
239.729
238.465
237.913
236.281
235.648
237.055
221.721
224.077
226.305
226.051
225.836
227.967
227.915
225.926
223.961
221.468
221.385
223.575
208.555
210.485
212.643
213.009
213.488
215.888
215.6
212.867
209.32
205.881
206.434
209.468
194.805
196.209
198.271
199.377
200.65
203.235
202.672
199.15
193.866
189.535
190.719
194.592
180.357
181.193
183.204
185.031
187.185
189.871
188.99
184.657
178.31
173.884
175.275
179.246
165.994
166.709
168.791
170.842
173.184
175.753
174.729
170.278
163.699
159.295
160.815
164.744
152.505
153.146
155.304
157.526
159.863
162.24
161.204
156.769
150.033
145.648
147.293
151.183
139.872
140.418
142.644
145.062
147.411
149.588
148.524
144.087
137.188
132.798
134.572
138.445
127.969
128.394
130.675
133.321
135.718
137.677
136.558
132.098
125.066
120.638
122.535
126.423
116.688
116.973
119.298
122.19
124.656
126.375
125.177
120.688
113.562
109.108
111.106
115.023
105.956
106.098
108.455
111.588
114.127
115.585
114.289
109.786
102.615
98.1952
100.261
104.174
95.7418
95.7482
98.1297
101.47
104.068
105.251
103.846
99.3603
92.2191
87.9006
89.9962
93.8457
86.0406
85.9457
88.3336
91.8155
94.4516
95.3512
93.8318
89.4183
82.3934
78.235
80.3215
84.0347
76.8782
76.7586
79.0724
82.6249
85.2655
85.893
84.26
79.9565
73.1605
69.2194
71.2554
74.7602
68.3098
68.1843
70.373
73.9167
76.5213
76.9013
75.1619
70.9997
64.5476
60.8775
62.8215
66.0724
60.3451
60.2284
62.2622
65.7181
68.2442
68.4114
66.5795
62.5883
56.5841
53.228
55.0431
58.0124
52.9916
52.9031
54.7633
58.0602
60.4676
60.46
58.5572
54.7668
49.2957
46.2836
47.9396
50.6104
46.2692
46.219
47.8949
50.9729
53.227
53.0788
51.1361
47.5771
42.7009
40.0474
41.5229
43.8888
40.1919
40.182
41.6699
44.483
46.556
46.2987
44.353
41.053
36.8074
34.5155
35.7983
37.859
34.7647
34.7922
36.0938
38.6118
40.4854
40.1498
38.2391
35.223
31.6008
29.6268
30.7417
32.5116
29.9254
29.9841
31.1334
33.371
35.0402
34.6576
32.8138
30.0676
26.9803
25.2828
26.2512
27.7507
25.5848
25.6705
26.6947
28.6765
30.1665
29.7584
27.9813
25.4843
22.8854
21.4868
22.2861
23.5184
21.7709
21.875
22.7532
24.4552
25.7708
25.3557
23.6592
21.4789
19.3712
18.2353
18.8822
19.8758
18.4827
18.5929
19.3404
20.7812
21.9041
21.5102
19.9443
18.0685
16.3926
15.4844
15.9943
16.7776
15.6815
15.7901
16.4217
17.6234
18.5669
18.2072
16.7923
15.1997
13.8954
13.1796
13.5693
14.1708
13.3216
13.4222
13.9534
14.9436
15.7224
15.4026
14.1482
12.8156
11.821
11.264
11.551
11.9994
11.3525
11.4397
11.8865
12.6946
13.3273
13.0487
11.9545
10.8541
10.1112
9.68256
9.88405
10.2063
9.72339
9.79456
10.1704
10.8251
11.3315
11.0925
10.1512
9.25368
8.71071
8.38392
8.51589
8.73684
8.38522
8.44198
8.75631
9.2838
9.68319
9.48027
8.68057
7.95657
7.56882
7.32164
7.39847
7.53996
7.29249
7.33657
7.59888
8.02182
8.33197
8.16091
7.48867
6.91039
6.64062
6.45485
6.48902
6.56968
6.40417
6.43732
6.65677
6.99397
7.23094
7.08716
6.52722
6.06925
5.88731
5.7484
5.75042
5.78568
5.68426
5.70933
5.89151
6.15991
6.33771
6.21683
5.75406
5.39406
5.27619
5.1727
5.15115
5.15348
5.10192
5.12049
5.27123
5.48458
5.61518
5.51328
5.13336
4.85227
4.78015
4.70323
4.66495
4.64429
4.63129
4.64472
4.7689
4.93824
5.03162
4.94537
4.63534
4.4173
4.37712
4.31991
4.27027
4.23441
4.25099
4.26037
4.36206
4.49614
4.56051
4.4872
4.23567
4.06775
4.0493
4.00651
3.94961
3.90465
3.9436
3.94968
4.03227
4.13789
4.18005
4.11753
3.91475
3.78655
3.78236
3.74996
3.6889
3.63954
3.69503
3.69825
3.76456
3.84614
3.87257
3.81916
3.6569
3.56017
3.56489
3.53976
3.4769
3.42672
3.49393
3.4945
3.5469
3.60712
3.62385
3.57825
3.4497
3.3779
3.38776
3.36755
3.3046
3.25623
3.33146
3.32911
3.36963
3.41232
3.42251
3.38373
3.28325
3.23127
3.24371
3.22659
3.16484
3.11984
3.20083
3.19461
3.22503
3.25343
3.25931
3.22671
3.14971
3.11354
3.12692
3.1115
3.0519
3.01134
3.09597
3.08498
3.1069
3.12411
3.12549
3.10007
3.04282
3.01934
3.03268
3.01791
2.96114
2.92487
3.01183
2.99539
3.01031
3.01895
3.01527
2.99809
2.95758
2.94435
2.95717
2.94229
2.88883
2.85647
2.94433
2.92197
2.93129
2.9335
2.92631
2.91618
2.88996
2.88507
2.89722
2.88172
2.83184
2.80306
2.89017
2.86151
2.86668
2.86416
2.8547
2.85077
2.8367
2.83867
2.85023
2.83392
2.78771
2.76215
2.84677
2.81176
2.81394
2.80801
2.79735
2.79876
2.79515
2.80282
2.814
2.79753
2.75478
2.73169
2.81214
2.77098
2.77104
2.76278
2.75169
2.75703
2.76317
2.77562
2.7867
2.77073
2.73266
2.70997
2.78476
2.73791
2.73642
2.72667
2.71569
2.72491
2.73892
2.75554
2.7668
2.75179
2.71827
2.69551
2.76348
2.71181
2.70884
2.69828
2.68773
2.70046
2.72196
2.74135
2.75303
2.73925
2.70982
2.6871
2.74747
2.69192
2.6874
2.67656
2.66656
2.68238
2.71092
2.7321
2.74438
2.73194
2.70614
2.68369
2.73613
2.67739
2.67146
2.66074
2.65121
2.66972
2.7042
2.72708
2.74008
2.72892
2.70632
2.68444
2.7291
2.66768
2.66062
2.6503
2.64103
2.66176
2.7014
2.72596
2.73962
2.7295
2.70964
2.68865
2.72624
2.66265
2.65463
2.64492
2.63558
2.65803
2.70224
2.7291
2.74271
2.7332
2.71564
2.69583
2.72754
2.66236
2.65345
2.64447
2.63464
2.65832
2.70674
2.73677
2.74932
2.7398
2.72402
2.70568
156508
156508
156508
156508
156508
156508
156508
156508
156508
156508
156508
156508
25808.4
25808.7
25809.6
25810.3
25807.9
25805.4
25806.2
25807.4
25808.7
25812
25813.4
25811.8
8859.3
8859.18
8859.49
8859.97
8858.07
8855.87
8856.48
8857.75
8859.26
8862.28
8863.39
8861.82
4233.74
4233.19
4232.89
4233.06
4231.49
4229.44
4229.88
4231.44
4233.5
4236.48
4237.23
4235.45
2446.44
2445.45
2444.52
2444.36
2442.92
2440.8
2441.13
2443.17
2446.08
2449.32
2449.7
2447.52
1601.47
1600.11
1598.57
1598.06
1596.6
1594.29
1594.54
1597.19
1601.11
1604.74
1604.73
1602.04
1148.34
1146.72
1144.65
1143.79
1142.22
1139.65
1139.86
1143.14
1148.11
1152.16
1151.72
1148.51
883.999
882.274
879.821
878.606
876.855
874.056
874.235
878.107
884.068
888.454
887.565
883.891
720.144
718.484
715.799
714.267
712.289
709.295
709.479
713.846
720.652
725.268
723.924
719.889
613.54
612.106
609.361
607.558
605.32
602.194
602.409
607.146
614.611
619.335
617.558
613.278
541.146
540.072
537.434
535.414
532.895
529.709
529.977
534.948
542.872
547.595
545.427
541.014
489.91
489.295
486.913
484.734
481.918
478.745
479.087
484.157
492.35
496.986
494.48
490.033
452.099
452.002
450.002
447.72
444.603
441.515
441.945
446.986
455.279
459.766
456.983
452.582
422.971
423.415
421.897
419.54
416.15
413.216
413.74
418.636
426.887
431.176
428.184
423.891
399.552
400.524
399.555
397.138
393.525
390.806
391.419
396.075
404.16
408.215
405.084
400.953
379.941
381.406
381.012
378.547
374.77
372.322
373.014
377.35
385.167
388.955
385.75
381.838
362.907
364.815
364.977
362.482
358.605
356.482
357.234
361.193
368.652
372.131
368.923
365.289
347.637
349.938
350.585
348.085
344.187
342.431
343.221
346.764
353.769
356.885
353.769
350.464
333.581
336.211
337.237
334.773
330.952
329.593
330.398
333.492
339.933
342.671
339.704
336.78
320.355
323.218
324.559
322.173
318.514
317.571
318.367
320.984
326.771
329.106
326.318
323.833
307.682
310.675
312.286
310.023
306.604
306.084
306.845
308.962
314.013
315.917
313.339
311.324
295.352
298.386
300.225
298.136
295.022
294.928
295.628
297.22
301.458
302.889
300.562
299.029
283.203
286.2
288.23
286.37
283.618
283.948
284.559
285.596
288.943
289.85
287.822
286.794
271.084
273.998
276.183
274.614
272.268
272.99
273.499
273.945
276.331
276.693
274.988
274.491
258.891
261.67
263.994
262.779
260.862
261.902
262.323
262.171
263.535
263.298
261.972
262.007
246.528
249.114
251.567
250.771
249.322
250.609
250.912
250.182
250.449
249.559
248.668
249.281
233.898
236.233
238.809
238.502
237.586
239.033
239.197
237.909
236.97
235.373
234.971
236.212
220.904
222.928
225.626
225.885
225.567
227.087
227.092
225.266
222.991
220.627
220.771
222.693
207.433
209.083
211.911
212.819
213.178
214.747
214.567
212.139
208.383
205.187
205.935
208.606
193.344
194.56
197.526
199.178
200.311
201.902
201.501
198.387
193.031
189.016
190.357
193.816
178.58
179.441
182.453
184.851
186.827
188.411
187.754
183.897
177.549
173.403
174.903
178.549
164.313
165.047
168.004
170.592
172.814
174.297
173.507
169.535
163.017
158.824
160.424
164.097
150.968
151.606
154.514
157.224
159.493
160.846
160.009
156.054
149.438
145.186
146.889
150.592
138.474
139.016
141.88
144.729
147.046
148.268
147.371
143.411
136.674
132.349
134.162
137.912
126.705
127.15
129.969
132.973
135.357
136.446
135.462
131.468
124.596
120.201
122.122
125.923
115.564
115.912
118.672
121.835
124.299
125.248
124.151
120.108
113.114
108.687
110.692
114.532
104.987
105.241
107.92
111.23
113.771
114.573
113.344
109.253
102.176
97.8036
99.8574
103.684
94.9415
95.1002
97.6654
101.112
103.71
104.36
102.985
98.8622
91.7972
87.5448
89.6122
93.3573
85.4168
85.4631
87.9034
91.4616
94.0853
94.579
93.055
88.9277
81.9982
77.9167
79.9622
83.5495
76.4166
76.3645
78.6809
82.2809
84.8929
85.2271
83.5582
79.4661
72.7963
68.9401
70.9241
74.2813
67.9493
67.8539
70.0292
73.5882
76.1462
76.3196
74.5202
70.5124
64.2161
60.6384
62.5201
65.616
60.0272
59.9563
61.9702
65.41
67.8709
67.886
65.9798
62.1103
56.2867
53.028
54.7728
57.5876
52.7112
52.6852
54.5229
57.776
60.1008
59.965
57.9833
54.3056
49.0326
46.1204
47.701
50.2213
46.0264
46.0502
47.7039
50.7154
52.871
52.5992
50.5786
47.14
42.4725
39.9139
41.3125
43.5383
39.9854
40.0561
41.5252
44.2542
46.2135
45.8276
43.8084
40.6444
36.608
34.3886
35.6076
37.5492
34.5804
34.6889
35.9835
38.4117
40.1529
39.6787
37.7043
34.8331
31.4237
29.5223
30.5742
32.2325
29.767
29.9089
31.0531
33.1958
34.7033
34.1658
32.2823
29.7024
26.8235
25.2184
26.1113
27.4956
25.4638
25.6398
26.6465
28.5217
29.8441
29.2698
27.4618
25.1728
22.7469
21.4268
22.1614
23.2947
21.6625
21.85
22.7182
24.3221
25.5021
24.9196
23.1775
21.1979
19.2534
18.1859
18.7774
19.6817
18.3911
18.578
19.3188
20.6694
21.6609
21.0945
19.5034
17.8213
16.2933
15.4451
15.9067
16.6119
15.6048
15.7826
16.4095
17.5308
18.351
17.8189
16.3943
14.9858
13.8126
13.149
13.4968
14.03
13.258
13.4202
13.9479
14.8681
15.535
15.0475
13.7934
12.6327
11.7528
11.2405
11.4915
11.8805
11.3
11.4427
11.8857
12.6339
13.1677
12.7301
11.6419
10.6993
10.0555
9.66475
9.83558
10.1066
9.68027
9.80325
10.1733
10.7771
11.1979
10.8115
9.87929
9.12392
8.66561
8.37057
8.47658
8.6538
8.34985
8.45481
8.76391
9.24651
9.57297
9.23631
8.44654
7.8485
7.53249
7.31173
7.3667
7.47111
7.26343
7.35358
7.61248
7.9934
8.24242
7.95195
7.28914
6.82077
6.61144
6.44753
6.46338
6.51277
6.38019
6.45846
6.6744
6.97279
7.15918
6.9103
6.35835
5.99507
5.86389
5.743
5.72973
5.7387
5.66433
5.73119
5.91271
6.14457
6.28097
6.06872
5.61192
5.33262
5.25734
5.16868
5.13441
5.11465
5.0852
5.1419
5.295
5.47388
5.57094
5.3904
5.0142
4.80125
4.76489
4.70016
4.65137
4.61201
4.61708
4.66474
4.79438
4.9312
4.99767
4.84434
4.53577
4.37473
4.36464
4.31748
4.25919
4.20734
4.23876
4.27834
4.38843
4.49201
4.53497
4.40488
4.15269
4.03199
4.03889
4.00447
3.94053
3.88166
3.93294
3.96522
4.05881
4.13632
4.16135
4.05112
3.84578
3.75625
3.77347
3.74814
3.68141
3.61966
3.68558
3.71119
3.79066
3.84807
3.85939
3.76622
3.59979
3.53421
3.55708
3.53803
3.47066
3.4091
3.48538
3.50482
3.57204
3.61525
3.61515
3.53668
3.4026
3.35538
3.38069
3.36581
3.29934
3.24017
3.32318
3.33692
3.39337
3.42623
3.41753
3.35177
3.24462
3.21145
3.23708
3.22479
3.16035
3.10502
3.19157
3.2001
3.24697
3.27207
3.25775
3.20295
3.11824
3.09587
3.12047
3.10958
3.04798
2.9973
3.08468
3.08846
3.12665
3.14578
3.12884
3.08344
3.0174
3.0034
3.02618
3.01586
2.95765
2.91185
2.99793
2.99723
3.02763
3.04187
3.02615
2.98782
2.93726
2.92983
2.9504
2.94009
2.88562
2.8445
2.9277
2.92259
2.94606
2.95672
2.94283
2.91172
2.87398
2.87178
2.89004
2.87935
2.82877
2.79171
2.87113
2.86166
2.87918
2.88747
2.87523
2.85158
2.82449
2.82647
2.84255
2.83114
2.78449
2.75082
2.82587
2.81169
2.82424
2.8309
2.82113
2.80487
2.78633
2.79168
2.80583
2.79335
2.75064
2.72005
2.79002
2.77071
2.77926
2.78485
2.77782
2.76994
2.75751
2.76557
2.77815
2.76438
2.72551
2.6977
2.76203
2.73734
2.74274
2.74766
2.74348
2.74276
2.7364
2.74668
2.75809
2.74298
2.70778
2.68232
2.74065
2.71079
2.71352
2.7181
2.7167
2.72188
2.72166
2.73384
2.74448
2.72814
2.69626
2.67275
2.72487
2.6902
2.69076
2.69524
2.6964
2.70629
2.71235
2.72616
2.73637
2.71897
2.68991
2.66799
2.71392
2.67481
2.6738
2.67834
2.68173
2.69563
2.70795
2.723
2.73302
2.71472
2.68784
2.66729
2.70723
2.66416
2.66219
2.66687
2.67209
2.68972
2.70789
2.72384
2.73384
2.71476
2.68934
2.67
2.70449
2.658
2.65563
2.66049
2.66711
2.68782
2.71178
2.72854
2.73848
2.71857
2.69401
2.67573
2.70556
2.65621
2.65398
2.65906
2.66658
2.6897
2.71949
2.73722
2.7468
2.72586
2.70154
2.68418
156508
156508
156508
156508
156508
156508
156508
156508
156508
156508
156508
156508
25810.7
25810.8
25811.8
25812.6
25810.2
25807.6
25808.4
25809.6
25810.9
25814.5
25816.1
25814.2
8861.7
8861.5
8861.88
8862.37
8860.38
8858.07
8858.72
8860.08
8861.68
8865.02
8866.16
8864.27
4236.33
4235.76
4235.52
4235.68
4233.97
4231.75
4232.23
4233.95
4236.23
4239.52
4240.2
4238.08
2449.37
2448.47
2447.62
2447.41
2445.75
2443.41
2443.77
2446.05
2449.32
2452.88
2453.09
2450.53
1604.79
1603.63
1602.23
1601.63
1599.86
1597.27
1597.57
1600.52
1604.95
1608.92
1608.63
1605.52
1151.99
1150.71
1148.87
1147.87
1145.89
1143.03
1143.29
1146.92
1152.53
1156.93
1156.1
1152.45
887.874
886.639
884.522
883.121
880.871
877.763
878.033
882.265
888.951
893.701
892.333
888.218
724.102
723.089
720.864
719.092
716.536
713.264
713.572
718.283
725.859
730.827
728.939
724.484
617.452
616.811
614.652
612.548
609.681
606.343
606.718
611.75
619.981
625.03
622.676
618.023
544.901
544.745
542.809
540.417
537.255
533.958
534.423
539.61
548.247
553.252
550.51
545.795
493.42
493.818
492.229
489.594
486.172
483.022
483.595
488.773
497.583
502.441
499.402
494.747
455.302
456.277
455.122
452.285
448.658
445.756
446.443
451.464
460.232
464.861
461.627
457.139
425.836
427.367
426.685
423.709
419.928
417.367
418.166
422.899
431.435
435.778
432.445
428.215
402.071
404.102
403.89
400.842
396.964
394.825
395.72
400.06
408.214
412.23
408.886
404.981
382.127
384.574
384.796
381.74
377.836
376.177
377.145
381.012
388.666
392.33
389.055
385.513
364.782
367.541
368.153
365.142
361.292
360.144
361.157
364.495
371.56
374.864
371.71
368.551
349.226
352.177
353.147
350.227
346.505
345.877
346.9
349.673
356.095
359.046
356.027
353.266
334.907
337.938
339.251
336.457
332.918
332.795
333.798
335.995
341.748
344.31
341.458
339.107
321.435
324.477
326.074
323.444
320.148
320.495
321.451
323.081
328.124
330.263
327.624
325.682
308.522
311.533
313.346
310.918
307.921
308.688
309.574
310.658
314.942
316.624
314.231
312.718
295.952
298.879
300.878
298.686
296.037
297.155
297.957
298.524
301.999
303.188
301.059
300.012
283.54
286.34
288.473
286.6
284.343
285.725
286.442
286.527
289.115
289.713
287.941
287.387
271.172
273.767
275.997
274.548
272.72
274.3
274.915
274.552
276.108
276.057
274.741
274.705
258.722
261.042
263.334
262.385
261.072
262.818
263.291
262.473
262.86
262.11
261.288
261.85
246.088
248.071
250.394
250.034
249.299
251.168
251.497
250.177
249.272
247.772
247.49
248.7
233.182
234.766
237.091
237.417
237.311
239.252
239.413
237.559
235.249
232.942
233.25
235.122
219.922
221.038
223.325
224.447
225.02
226.98
226.933
224.533
220.685
217.506
218.463
221.016
206.214
206.78
208.976
211.025
212.339
214.281
213.965
210.955
205.446
201.336
202.996
206.257
191.943
191.87
193.909
197.012
199.165
200.982
200.332
196.689
189.433
184.716
186.804
190.726
177.017
176.461
178.511
182.287
185.365
186.946
185.9
181.624
173.705
168.966
171.11
175.058
162.347
161.792
163.947
167.841
171.037
172.368
171.2
166.875
158.969
154.289
156.431
160.297
148.598
148.099
150.341
154.279
157.372
158.521
157.308
153.015
145.201
140.597
142.723
146.484
135.753
135.302
137.6
141.584
144.587
145.545
144.256
139.99
132.286
127.785
129.876
133.505
123.701
123.29
125.615
129.645
132.581
133.319
131.914
127.674
120.128
115.775
117.802
121.251
112.342
111.981
114.308
118.362
121.234
121.721
120.167
115.965
108.667
104.499
106.441
109.649
101.615
101.331
103.643
107.665
110.454
110.666
108.939
104.801
97.8775
93.8938
95.7282
98.6663
91.4881
91.3351
93.6163
97.5153
100.184
100.108
98.1964
94.1595
87.7115
83.9464
85.6443
88.3026
81.9543
82.0142
84.2227
87.8941
90.4044
90.0364
87.9412
84.0476
78.1525
74.6612
76.1921
78.5826
73.0261
73.3351
75.4195
78.8026
81.114
80.4652
78.1999
74.493
69.2155
66.0409
67.3852
69.5321
64.7273
65.256
67.1939
70.2529
72.3307
71.4262
69.0153
65.5359
60.9212
58.0874
59.2409
61.1341
57.0848
57.766
59.5513
62.2641
64.0825
62.9604
60.4379
57.2213
53.2865
50.8098
51.7754
53.402
50.0685
50.8694
52.5013
54.858
56.4026
55.1107
52.5182
49.5936
46.3289
44.2159
45.0022
46.3539
43.6789
44.5729
46.0534
48.0574
49.3252
47.9172
45.3011
42.6926
40.0638
38.3178
38.9348
40.0044
37.923
38.8833
40.215
41.8842
42.8824
41.4144
38.8217
36.5504
34.5013
33.0937
33.5618
34.3633
32.7884
33.7888
34.9819
36.3558
37.1019
35.6276
33.0903
31.0913
29.5477
28.4176
28.7691
29.3541
28.1807
29.1972
30.2695
31.3891
31.9289
30.464
27.9986
26.2091
25.1207
24.2562
24.4904
24.89
24.0585
25.0526
26.005
26.8871
27.2577
25.8197
23.4839
21.9769
21.2913
20.6565
20.7906
21.0164
20.4736
21.417
22.2463
22.9316
23.1374
21.7884
19.631
18.3866
18.0224
17.5771
17.6281
17.7106
17.3926
18.2682
18.982
19.5002
19.5803
18.3445
16.3889
15.3823
15.2649
14.9694
14.9538
14.9232
14.7756
15.5721
16.1811
16.5638
16.551
15.4406
13.6995
12.901
12.9624
12.7805
12.7135
12.5981
12.5752
13.2867
13.8029
14.0809
14.0037
13.0215
11.496
10.8737
11.0561
10.9572
10.852
10.6768
10.7413
11.3665
11.8023
12.0028
11.8844
11.027
9.70876
9.23208
9.48885
9.44837
9.31616
9.10238
9.2247
9.76581
10.133
10.2791
10.1372
9.3967
8.27098
7.91176
8.20728
8.20597
8.05625
7.82103
7.97884
8.44122
8.75064
8.85992
8.70803
8.07353
7.12125
6.85485
7.16315
7.18667
7.02728
6.78389
6.9608
7.35225
7.61371
7.69864
7.546
7.00537
6.2055
6.01101
6.31423
6.3523
6.18944
5.94774
6.13225
6.46213
6.68471
6.75265
6.60534
6.14614
5.47762
5.33787
5.62449
5.66995
5.50842
5.27536
5.45978
5.73785
5.92871
5.98429
5.84597
5.45636
4.89936
4.80058
5.06387
5.11188
4.95524
4.73542
4.91488
5.14986
5.31477
5.36109
5.23373
4.903
4.43965
4.37107
4.60763
4.65505
4.50582
4.30204
4.47367
4.67294
4.81633
4.85565
4.74011
4.45896
4.0737
4.02703
4.23577
4.2806
4.14048
3.95409
4.11647
4.28611
4.41136
4.44524
4.34179
4.10234
3.78197
3.75089
3.9322
3.97321
3.84323
3.6746
3.82725
3.97213
4.08187
4.11131
4.01988
3.81564
3.54914
3.52885
3.68408
3.72053
3.60121
3.45006
3.59304
3.71701
3.81327
3.83883
3.75928
3.58494
3.36324
3.35012
3.48116
3.51263
3.40409
3.26976
3.40343
3.50945
3.59385
3.61572
3.54793
3.39919
3.2149
3.20618
3.31529
3.34155
3.24361
3.12517
3.25003
3.34035
3.41418
3.43313
3.37622
3.24957
3.09672
3.09032
3.17995
3.2009
3.11316
3.00954
3.12616
3.20242
3.26676
3.28423
3.23649
3.12904
3.00284
2.99724
3.06991
3.08556
3.00742
2.91747
3.02644
3.0898
3.14563
3.1629
3.12261
3.032
2.92854
2.92292
2.98093
2.9914
2.92218
2.84469
2.94658
2.99777
3.04591
3.0641
3.02964
2.95403
2.86995
2.86416
2.90958
2.91508
2.85407
2.78776
2.88296
2.92255
2.96371
2.983
2.95491
2.89157
2.82392
2.81823
2.85304
2.85388
2.80042
2.74405
2.83255
2.861
2.89556
2.9157
2.89524
2.84177
2.78795
2.7829
2.80898
2.80557
2.75898
2.71121
2.79284
2.81076
2.83932
2.86018
2.84661
2.80236
2.76029
2.75633
2.77546
2.76824
2.72772
2.68694
2.76181
2.76993
2.79309
2.81448
2.80718
2.77161