-0.0075 	0 	0 	0
-0.00745622 	0.00196535 	9.79483e-06 	0.0147162
-0.00741165 	0.0028072 	2.22537e-05 	0.0290873
-0.00736628 	0.00312789 	3.93312e-05 	0.0427783
-0.0073201 	0.0033753 	5.89317e-05 	0.0555686
-0.00727309 	0.00356798 	7.94275e-05 	0.0675484
-0.00722524 	0.00364719 	0.000101431 	0.0788313
-0.00717653 	0.00361325 	0.000124126 	0.0894818
-0.00712695 	0.00347876 	0.000146896 	0.0995422
-0.00707647 	0.00325684 	0.000169098 	0.109033
-0.0070251 	0.00296055 	0.000190196 	0.117961
-0.0069728 	0.00260397 	0.000209794 	0.126332
-0.00691956 	0.00220302 	0.000227456 	0.134158
-0.00686537 	0.0017766 	0.000242976 	0.141463
-0.00681021 	0.00134535 	0.000256608 	0.148276
-0.00675406 	0.000926691 	0.000268449 	0.154635
-0.0066969 	0.000531538 	0.000278021 	0.160578
-0.00663871 	0.000165613 	0.000285029 	0.166135
-0.00657949 	-0.00016701 	0.000289687 	0.171339
-0.0065192 	-0.000461813 	0.000292037 	0.176217
-0.00645783 	-0.000714318 	0.000292094 	0.180799
-0.00639535 	-0.000922083 	0.000290671 	0.185102
-0.00633176 	-0.00108764 	0.000288595 	0.189139
-0.00626703 	-0.00121855 	0.000285755 	0.192918
-0.00620114 	-0.00132323 	0.000281832 	0.196456
-0.00613406 	-0.00140762 	0.000277076 	0.199778
-0.00606579 	-0.00147512 	0.000271652 	0.202911
-0.00599629 	-0.00152864 	0.000265105 	0.205876
-0.00592554 	-0.00157172 	0.000257415 	0.20869
-0.00585352 	-0.00160818 	0.000249339 	0.211368
-0.00578022 	-0.00164146 	0.000241241 	0.213918
-0.00570559 	-0.00167409 	0.000232844 	0.216353
-0.00562963 	-0.0017076 	0.000224031 	0.218682
-0.00555231 	-0.00174291 	0.000214886 	0.220912
-0.0054736 	-0.00178077 	0.000205348 	0.223052
-0.00539348 	-0.00182188 	0.000195312 	0.225109
-0.00531193 	-0.00186671 	0.000184849 	0.227087
-0.00522891 	-0.00191535 	0.000174099 	0.228993
-0.0051444 	-0.00196732 	0.000163079 	0.23083
-0.00505838 	-0.00202169 	0.00015174 	0.2326
-0.00497081 	-0.00207757 	0.000140047 	0.234306
-0.00488168 	-0.00213428 	0.000128012 	0.235951
-0.00479094 	-0.00219121 	0.000115545 	0.237538
-0.00469858 	-0.0022478 	0.000102528 	0.239069
-0.00460456 	-0.00230361 	8.90053e-05 	0.240548
-0.00450886 	-0.00235839 	7.50477e-05 	0.241975
-0.00441144 	-0.00241204 	6.068e-05 	0.243355
-0.00431227 	-0.0024646 	4.59223e-05 	0.244688
-0.00421133 	-0.00251611 	3.07804e-05 	0.245976
-0.00410857 	-0.00256643 	1.52534e-05 	0.247223
-0.00400397 	-0.00261514 	-6.58566e-07 	0.248429
-0.0038975 	-0.00266159 	-1.69269e-05 	0.249597
-0.00378912 	-0.00270516 	-3.34625e-05 	0.250723
-0.00367879 	-0.00274536 	-5.01817e-05 	0.251807
-0.00356649 	-0.00278187 	-6.71031e-05 	0.252847
-0.00345217 	-0.00281442 	-8.42349e-05 	0.253842
-0.0033358 	-0.00284268 	-0.000102082 	0.254792
-0.00321735 	-0.00286591 	-0.000119102 	0.255701
-0.00309677 	-0.00288636 	-0.000133109 	0.256559
-0.00297403 	-0.00291124 	-0.000149047 	0.257328
-0.00284909 	-0.00293717 	-0.000173995 	0.258019
-0.0027219 	-0.00293433 	-0.000203381 	0.258788
-0.00259244 	-0.00287374 	-0.000219597 	0.259798
-0.00246065 	-0.00278414 	-0.000225046 	0.260881
-0.00232651 	-0.00271091 	-0.000237688 	0.261787
-0.00218995 	-0.00265879 	-0.000256807 	0.26251
-0.00205095 	-0.00261353 	-0.000273649 	0.26314
-0.00190946 	-0.00256298 	-0.000286924 	0.263736
-0.00176543 	-0.00250575 	-0.000299694 	0.264302
-0.00161881 	-0.00244404 	-0.00031226 	0.264828
-0.00146957 	-0.00237919 	-0.000324108 	0.265309
-0.00131765 	-0.00231233 	-0.000335072 	0.265742
-0.001163 	-0.00224388 	-0.000344937 	0.266126
-0.00100559 	-0.00217321 	-0.000354097 	0.26646
-0.000845345 	-0.00210176 	-0.000362652 	0.266743
-0.000682232 	-0.00203348 	-0.000370044 	0.266972
-0.000516194 	-0.00196933 	-0.000376096 	0.267148
-0.000347178 	-0.00190673 	-0.000383136 	0.267269
-0.000175132 	-0.0018463 	-0.000390595 	0.267341
0 	-0.00179573 	-0.00039485 	0.267381
0.000175132 	-0.00175891 	-0.000396206 	0.267397
0.000347178 	-0.00172632 	-0.000396759 	0.26738
0.000516194 	-0.00168601 	-0.000398127 	0.267312
0.000682232 	-0.00164774 	-0.000399309 	0.267186
0.000845345 	-0.00162865 	-0.000399321 	0.267004
0.00100559 	-0.00162777 	-0.000398882 	0.266768
0.001163 	-0.00163727 	-0.000397884 	0.266475
0.00131765 	-0.00165107 	-0.000396736 	0.266125
0.00146957 	-0.00166677 	-0.000395866 	0.265718
0.00161881 	-0.00168531 	-0.000392603 	0.265253
0.00176543 	-0.0017064 	-0.000385744 	0.26473
0.00190946 	-0.00172815 	-0.000381246 	0.264147
0.00205095 	-0.00174958 	-0.00038391 	0.263496
0.00218995 	-0.00177052 	-0.000389264 	0.262772
0.00232651 	-0.001791 	-0.000390016 	0.261974
0.00246065 	-0.00181114 	-0.000385977 	0.261111
0.00259244 	-0.00183082 	-0.000381031 	0.260186
0.0027219 	-0.00184965 	-0.000376201 	0.259205
0.00284909 	-0.00186704 	-0.000371195 	0.258172
0.00297403 	-0.00188239 	-0.000365991 	0.25709
0.00309677 	-0.00189524 	-0.000360369 	0.255961
0.00321735 	-0.0019052 	-0.000354206 	0.254785
0.0033358 	-0.00191179 	-0.000347581 	0.253565
0.00345217 	-0.00191815 	-0.000339558 	0.252283
0.00356649 	-0.00193643 	-0.000330129 	0.250862
0.00367879 	-0.00199168 	-0.000323904 	0.249182
0.00378912 	-0.0020996 	-0.00032176 	0.247205
0.0038975 	-0.00220091 	-0.000316639 	0.24519
0.00400397 	-0.00223598 	-0.000307595 	0.24333
0.00410857 	-0.00222817 	-0.000299845 	0.241504
0.00421133 	-0.0022129 	-0.000294525 	0.239663
0.00431227 	-0.00220141 	-0.000289048 	0.237832
0.00441144 	-0.00219409 	-0.000281845 	0.235957
0.00450886 	-0.00219341 	-0.000274314 	0.233958
0.00460456 	-0.0021991 	-0.000267354 	0.231826
0.00469858 	-0.00220197 	-0.000260292 	0.229607
0.00479094 	-0.00219388 	-0.000252492 	0.227314
0.00488168 	-0.00217566 	-0.000244156 	0.224898
0.00497081 	-0.00215148 	-0.000235846 	0.222318
0.00505838 	-0.00212354 	-0.000227931 	0.219597
0.0051444 	-0.00209156 	-0.000220334 	0.216789
0.00522891 	-0.00205436 	-0.000212727 	0.21392
0.00531193 	-0.00201099 	-0.000204953 	0.210972
0.00539348 	-0.00196095 	-0.000197051 	0.207914
0.0054736 	-0.00190385 	-0.000189126 	0.204719
0.00555231 	-0.00183928 	-0.000181247 	0.201378
0.00562963 	-0.00176686 	-0.000173513 	0.19789
0.00570559 	-0.00168618 	-0.000166022 	0.194254
0.00578022 	-0.00159673 	-0.000158627 	0.190467
0.00585352 	-0.00149797 	-0.000151153 	0.18652
0.00592554 	-0.00138982 	-0.000143623 	0.182398
0.00599629 	-0.00127291 	-0.000136188 	0.178085
0.00606579 	-0.00114801 	-0.000128898 	0.173566
0.00613406 	-0.00101593 	-0.000121612 	0.168826
0.00620114 	-0.000877526 	-0.000114281 	0.163852
0.00626703 	-0.000733675 	-0.000107037 	0.158626
0.00633176 	-0.000585325 	-0.000100081 	0.153135
0.00639535 	-0.000433621 	-9.34461e-05 	0.147365
0.00645783 	-0.000279978 	-8.69215e-05 	0.141299
0.0065192 	-0.000126139 	-8.03643e-05 	0.134927
0.00657949 	2.57716e-05 	-7.38479e-05 	0.128239
0.00663871 	0.000173152 	-6.74564e-05 	0.121229
0.0066969 	0.000312881 	-6.11883e-05 	0.113898
0.00675406 	0.000441703 	-5.5069e-05 	0.106249
0.00681021 	0.000556744 	-4.9014e-05 	0.098288
0.00686537 	0.000654429 	-4.28945e-05 	0.0900322
0.00691956 	0.000728844 	-3.68207e-05 	0.0815391
0.0069728 	0.000772749 	-3.09776e-05 	0.072911
0.0070251 	0.000780203 	-2.54789e-05 	0.0642858
0.00707647 	0.000748452 	-2.04042e-05 	0.0558194
0.00712695 	0.000679053 	-1.58552e-05 	0.0476641
0.00717653 	0.000578062 	-1.18988e-05 	0.0399434
0.00722524 	0.000455125 	-8.51515e-06 	0.0327361
0.00727309 	0.00032255 	-5.65996e-06 	0.0260722
0.0073201 	0.000196332 	-3.50353e-06 	0.0199353
0.00736628 	0.000100468 	-1.60843e-06 	0.0142507
0.00741165 	5.59335e-05 	-8.6955e-07 	0.00895883
0.00745622 	4.213e-05 	-4.22239e-07 	0.00416327
0.0075 	0 	0 	0
