0 	0 	0 	0
5.01672e-05 	0.00208595 	1.15796e-05 	0.0167749
0.000100334 	0.00289191 	2.67646e-05 	0.0327037
0.000150502 	0.0032178 	4.64547e-05 	0.0474267
0.000200669 	0.00346043 	6.79875e-05 	0.0608617
0.000250836 	0.00360759 	9.04303e-05 	0.0731905
0.000301003 	0.0036289 	0.000113658 	0.0845696
0.000351171 	0.00353811 	0.000136847 	0.0951023
0.000401338 	0.00335439 	0.000159338 	0.104861
0.000451505 	0.00309548 	0.000180588 	0.113895
0.000501672 	0.00277803 	0.000200227 	0.122245
0.000551839 	0.00241841 	0.000217968 	0.129954
0.000602007 	0.0020333 	0.000233633 	0.137066
0.000652174 	0.00163944 	0.000247312 	0.14363
0.000702341 	0.00125178 	0.000259255 	0.149697
0.000752508 	0.000881312 	0.000269548 	0.155318
0.000802676 	0.000534495 	0.000277949 	0.160533
0.000852843 	0.000218722 	0.000284012 	0.165329
0.00090301 	-6.87021e-05 	0.00028831 	0.169801
0.000953177 	-0.000326722 	0.00029096 	0.173982
0.00100334 	-0.000554553 	0.000292058 	0.1779
0.00105351 	-0.000752022 	0.000291836 	0.18158
0.00110368 	-0.000918867 	0.000290693 	0.185036
0.00115385 	-0.00105018 	0.000289065 	0.188226
0.00120401 	-0.00115999 	0.000287025 	0.191228
0.00125418 	-0.00125225 	0.000284492 	0.194057
0.00130435 	-0.00133013 	0.000281443 	0.196727
0.00135452 	-0.00139325 	0.000277885 	0.199212
0.00140468 	-0.00144593 	0.000273997 	0.201556
0.00145485 	-0.00149101 	0.000269708 	0.203791
0.00150502 	-0.00152943 	0.000264964 	0.205928
0.00155518 	-0.00155998 	0.00025951 	0.207924
0.00160535 	-0.00158736 	0.000253951 	0.209839
0.00165552 	-0.00161228 	0.00024834 	0.211682
0.00170569 	-0.00163506 	0.000242799 	0.213428
0.00175585 	-0.00165723 	0.000237182 	0.215095
0.00180602 	-0.00167921 	0.000231496 	0.216709
0.00185619 	-0.00170135 	0.000225676 	0.218247
0.00190635 	-0.00172404 	0.000219775 	0.21972
0.00195652 	-0.00174716 	0.000213815 	0.221152
0.00200669 	-0.00177129 	0.000207736 	0.222517
0.00205686 	-0.0017964 	0.000201532 	0.223834
0.00210702 	-0.00182216 	0.000195247 	0.225121
0.00215719 	-0.00184974 	0.000188811 	0.226338
0.00220736 	-0.00187801 	0.000182352 	0.22753
0.00225753 	-0.0019074 	0.000175855 	0.228682
0.00230769 	-0.00193786 	0.000169326 	0.229788
0.00235786 	-0.00196875 	0.000162781 	0.230876
0.00240803 	-0.00200045 	0.000156169 	0.231909
0.00245819 	-0.00203226 	0.000149528 	0.232923
0.00250836 	-0.00206427 	0.000142828 	0.2339
0.00255853 	-0.00209623 	0.000136086 	0.234848
0.0026087 	-0.00212815 	0.000129312 	0.235773
0.00265886 	-0.00215972 	0.000122442 	0.23666
0.00270903 	-0.00219119 	0.000115549 	0.237537
0.0027592 	-0.00222193 	0.000108479 	0.238369
0.00280936 	-0.00225252 	0.000101386 	0.239194
0.00285953 	-0.0022823 	9.41699e-05 	0.239983
0.0029097 	-0.00231178 	8.69254e-05 	0.24076
0.00295987 	-0.00234049 	7.96089e-05 	0.241509
0.00301003 	-0.00236879 	7.22615e-05 	0.242243
0.0030602 	-0.00239642 	6.48627e-05 	0.242953
0.00311037 	-0.0024236 	5.74348e-05 	0.243648
0.00316054 	-0.00245019 	4.99691e-05 	0.244322
0.0032107 	-0.00247632 	4.24761e-05 	0.244981
0.00326087 	-0.00250192 	3.49509e-05 	0.245621
0.00331104 	-0.00252706 	2.7401e-05 	0.246248
0.0033612 	-0.00255163 	1.98204e-05 	0.246856
0.00341137 	-0.00257572 	1.22195e-05 	0.247453
0.00346154 	-0.00259908 	4.58778e-06 	0.248032
0.00351171 	-0.00262198 	-3.05439e-06 	0.248601
0.00356187 	-0.00264387 	-1.07196e-05 	0.249151
0.00361204 	-0.00266543 	-1.83826e-05 	0.249696
0.00366221 	-0.0026856 	-2.60365e-05 	0.250217
0.00371237 	-0.00270571 	-3.36888e-05 	0.250738
0.00376254 	-0.00272399 	-4.12914e-05 	0.251231
0.00381271 	-0.00274227 	-4.88939e-05 	0.251724
0.00386288 	-0.00275891 	-5.64602e-05 	0.252193
0.00391304 	-0.00277521 	-6.40191e-05 	0.252658
0.00396321 	-0.00279032 	-7.15538e-05 	0.253106
0.00401338 	-0.00280461 	-7.9072e-05 	0.253542
0.00406355 	-0.00281824 	-8.66452e-05 	0.25397
0.00411371 	-0.00283042 	-9.43395e-05 	0.25438
0.00416388 	-0.0028426 	-0.000102034 	0.25479
0.00421405 	-0.00285245 	-0.000109245 	0.255175
0.00426421 	-0.00286229 	-0.000116453 	0.25556
0.00431438 	-0.00287129 	-0.000122787 	0.255927
0.00436455 	-0.0028798 	-0.000128615 	0.256284
0.00441472 	-0.00288869 	-0.0001346 	0.256631
0.00446488 	-0.00289886 	-0.000141114 	0.256946
0.00451505 	-0.00290902 	-0.000147629 	0.25726
0.00456522 	-0.00291938 	-0.000156884 	0.257545
0.00461538 	-0.0029298 	-0.000166901 	0.257822
0.00466555 	-0.00293684 	-0.000177377 	0.258107
0.00471572 	-0.00293572 	-0.000188969 	0.258411
0.00476589 	-0.00293461 	-0.00020056 	0.258715
0.00481605 	-0.00291657 	-0.000208135 	0.259084
0.00486622 	-0.00289309 	-0.000214419 	0.259476
0.00491639 	-0.00286774 	-0.000219962 	0.259871
0.00496656 	-0.00283363 	-0.000222036 	0.260283
0.00501672 	-0.00279952 	-0.00022411 	0.260695
0.00506689 	-0.00276911 	-0.000227641 	0.261067
0.00511706 	-0.00274172 	-0.00023237 	0.261405
0.00516722 	-0.00271433 	-0.000237098 	0.261744
0.00521739 	-0.00269416 	-0.000243834 	0.262019
0.00526756 	-0.00267501 	-0.000250858 	0.262285
0.00531773 	-0.00265629 	-0.000257737 	0.262545
0.00536789 	-0.00263996 	-0.000263816 	0.262772
0.00541806 	-0.00262362 	-0.000269895 	0.262999
0.00546823 	-0.00260668 	-0.000275449 	0.26322
0.00551839 	-0.00258875 	-0.000280155 	0.263432
0.00556856 	-0.00257083 	-0.000284862 	0.263643
0.00561873 	-0.00255178 	-0.000289423 	0.263847
0.0056689 	-0.00253185 	-0.000293871 	0.264044
0.00571906 	-0.00251191 	-0.000298319 	0.264241
0.00576923 	-0.00249117 	-0.000302664 	0.264427
0.0058194 	-0.00247005 	-0.000306964 	0.264607
0.00586957 	-0.00244893 	-0.000311263 	0.264787
0.00591973 	-0.00242729 	-0.00031532 	0.264952
0.0059699 	-0.00240549 	-0.000319302 	0.265114
0.00602007 	-0.00238369 	-0.000323285 	0.265275
0.00607023 	-0.00236167 	-0.000326981 	0.265422
0.0061204 	-0.0023396 	-0.000330601 	0.265565
0.00617057 	-0.00231752 	-0.000334221 	0.265708
0.00622074 	-0.00229534 	-0.00033752 	0.265837
0.0062709 	-0.00227314 	-0.000340721 	0.265961
0.00632107 	-0.00225093 	-0.000343921 	0.266086
0.00637124 	-0.00222851 	-0.00034693 	0.266198
0.0064214 	-0.00220599 	-0.000349849 	0.266305
0.00647157 	-0.00218347 	-0.000352768 	0.266411
0.00652174 	-0.00216103 	-0.000355556 	0.266508
0.00657191 	-0.00213866 	-0.000358234 	0.266597
0.00662207 	-0.00211629 	-0.000360912 	0.266685
0.00667224 	-0.0020944 	-0.000363449 	0.266767
0.00672241 	-0.0020734 	-0.000365722 	0.266838
0.00677258 	-0.0020524 	-0.000367996 	0.266909
0.00682274 	-0.00203156 	-0.000370225 	0.266978
0.00687291 	-0.00201217 	-0.000372054 	0.267031
0.00692308 	-0.00199279 	-0.000373882 	0.267084
0.00697324 	-0.00197341 	-0.000375711 	0.267137
0.00702341 	-0.00195466 	-0.000377745 	0.267177
0.00707358 	-0.00193608 	-0.000379835 	0.267213
0.00712375 	-0.0019175 	-0.000381925 	0.267249
0.00717391 	-0.00189932 	-0.00038405 	0.267278
0.00722408 	-0.0018817 	-0.000386225 	0.267299
0.00727425 	-0.00186408 	-0.0003884 	0.26732
0.00732441 	-0.00184646 	-0.000390575 	0.267341
0.00737458 	-0.00183195 	-0.000391803 	0.267353
0.00742475 	-0.00181746 	-0.000393022 	0.267364
0.00747492 	-0.00180297 	-0.000394241 	0.267375
0.00752508 	-0.00179045 	-0.000395044 	0.267383
0.00757525 	-0.00177991 	-0.000395433 	0.267388
0.00762542 	-0.00176936 	-0.000395821 	0.267393
0.00767559 	-0.00175883 	-0.000396208 	0.267397
0.00772575 	-0.00174932 	-0.000396369 	0.267392
0.00777592 	-0.00173982 	-0.00039653 	0.267387
0.00782609 	-0.00173031 	-0.000396691 	0.267382
0.00787625 	-0.00171938 	-0.000396994 	0.267369
0.00792642 	-0.00170742 	-0.000397401 	0.267348
0.00797659 	-0.00169546 	-0.000397807 	0.267328
0.00802676 	-0.00168358 	-0.000398203 	0.267304
0.00807692 	-0.00167201 	-0.00039856 	0.267266
0.00812709 	-0.00166045 	-0.000398917 	0.267228
0.00817726 	-0.00164889 	-0.000399274 	0.26719
0.00822742 	-0.00164245 	-0.000399312 	0.267136
0.00827759 	-0.00163658 	-0.000399316 	0.26708
0.00832776 	-0.00163071 	-0.000399319 	0.267024
0.00837793 	-0.00162847 	-0.000399231 	0.266956
0.00842809 	-0.00162819 	-0.000399094 	0.266882
0.00847826 	-0.00162792 	-0.000398957 	0.266808
0.00852843 	-0.00162915 	-0.000398737 	0.266725
0.0085786 	-0.00163217 	-0.000398419 	0.266632
0.00862876 	-0.0016352 	-0.000398101 	0.266539
0.00867893 	-0.00163869 	-0.000397766 	0.266439
0.0087291 	-0.00164316 	-0.000397394 	0.266326
0.00877926 	-0.00164764 	-0.000397021 	0.266212
0.00882943 	-0.00165228 	-0.000396669 	0.266094
0.0088796 	-0.00165747 	-0.000396382 	0.265959
0.00892977 	-0.00166265 	-0.000396094 	0.265825
0.00897993 	-0.00166806 	-0.00039564 	0.265686
0.0090301 	-0.00167429 	-0.000394543 	0.265529
0.00908027 	-0.00168052 	-0.000393445 	0.265373
0.00913043 	-0.00168698 	-0.000392059 	0.265211
0.0091806 	-0.0016942 	-0.000389712 	0.265033
0.00923077 	-0.00170142 	-0.000387365 	0.264854
0.00928094 	-0.00170875 	-0.000385259 	0.264668
0.0093311 	-0.00171632 	-0.000383693 	0.264464
0.00938127 	-0.0017239 	-0.000382126 	0.264261
0.00943144 	-0.00173148 	-0.00038166 	0.264046
0.00948161 	-0.00173908 	-0.000382605 	0.263815
0.00953177 	-0.00174668 	-0.000383549 	0.263585
0.00958194 	-0.00175425 	-0.000385104 	0.263335
0.00963211 	-0.0017618 	-0.000387036 	0.263073
0.00968227 	-0.00176936 	-0.000388968 	0.262812
0.00973244 	-0.00177689 	-0.000389498 	0.262523
0.00978261 	-0.00178442 	-0.000389774 	0.262231
0.00983278 	-0.00179194 	-0.000389827 	0.261934
0.00988294 	-0.00179947 	-0.000388317 	0.261611
0.00993311 	-0.001807 	-0.000386806 	0.261288
0.00998328 	-0.00181452 	-0.000385128 	0.260952
0.0100334 	-0.00182201 	-0.000383245 	0.2606
0.0100836 	-0.0018295 	-0.000381363 	0.260248
0.0101338 	-0.00183683 	-0.000379489 	0.259872
0.0101839 	-0.00184413 	-0.000377617 	0.259492
0.0102341 	-0.00185132 	-0.000375721 	0.259106
0.0102843 	-0.00185817 	-0.000373746 	0.258698
0.0103344 	-0.00186503 	-0.000371771 	0.258291
0.0103846 	-0.0018714 	-0.000369715 	0.257864
0.0104348 	-0.00187757 	-0.000367625 	0.25743
0.0104849 	-0.00188353 	-0.00036549 	0.25699
0.0105351 	-0.00188878 	-0.000363193 	0.256528
0.0105853 	-0.00189404 	-0.000360895 	0.256067
0.0106355 	-0.00189843 	-0.000358392 	0.255584
0.0106856 	-0.00190258 	-0.000355828 	0.255094
0.0107358 	-0.00190623 	-0.000353175 	0.254595
0.010786 	-0.00190902 	-0.000350369 	0.254078
0.0108361 	-0.00191181 	-0.000347559 	0.253561
0.0108863 	-0.00191455 	-0.0003441 	0.253009
0.0109365 	-0.00191729 	-0.000340641 	0.252457
0.0109866 	-0.00192366 	-0.000336716 	0.251855
0.0110368 	-0.00193168 	-0.000332579 	0.251231
0.011087 	-0.0019465 	-0.000328995 	0.250556
0.0111371 	-0.00197118 	-0.000326214 	0.249805
0.0111873 	-0.00199999 	-0.000323739 	0.24903
0.0112375 	-0.00204906 	-0.000322764 	0.248131
0.0112876 	-0.00209814 	-0.000321789 	0.247232
0.0113378 	-0.00214509 	-0.00031946 	0.2463
0.011388 	-0.00219199 	-0.00031709 	0.245367
0.0114381 	-0.00221429 	-0.000313188 	0.24448
0.0114883 	-0.00223082 	-0.000308927 	0.243604
0.0115385 	-0.00223341 	-0.000305039 	0.242728
0.0115886 	-0.00222966 	-0.000301322 	0.241852
0.0116388 	-0.00222368 	-0.00029828 	0.240962
0.011689 	-0.00221622 	-0.000295682 	0.240064
0.0117391 	-0.00220973 	-0.000293016 	0.239159
0.0117893 	-0.00220402 	-0.000290294 	0.238249
0.0118395 	-0.0021994 	-0.000287073 	0.237318
0.0118896 	-0.0021957 	-0.000283429 	0.236369
0.0119398 	-0.00219389 	-0.000279653 	0.235375
0.01199 	-0.00219354 	-0.000275774 	0.234346
0.0120401 	-0.00219527 	-0.000272039 	0.233262
0.0120903 	-0.00219825 	-0.000268391 	0.232144
0.0121405 	-0.0022002 	-0.000264657 	0.230979
0.0121906 	-0.00220173 	-0.000260889 	0.229794
0.0122408 	-0.00219827 	-0.000256726 	0.228559
0.012291 	-0.00219387 	-0.000252489 	0.227313
0.0123411 	-0.0021838 	-0.00024788 	0.225977
0.0123913 	-0.00217305 	-0.000243259 	0.224619
0.0124415 	-0.00215944 	-0.000238581 	0.223167
0.0124916 	-0.00214483 	-0.000233963 	0.221671
0.0125418 	-0.00212882 	-0.000229429 	0.220112
0.012592 	-0.00211105 	-0.000224964 	0.2185
0.0126421 	-0.0020924 	-0.000220533 	0.216863
0.0126923 	-0.00207047 	-0.000216021 	0.215163
0.0127425 	-0.00204727 	-0.000211456 	0.213438
0.0127926 	-0.00202107 	-0.000206758 	0.211657
0.0128428 	-0.00199204 	-0.000201961 	0.209814
0.012893 	-0.00196126 	-0.0001971 	0.207933
0.0129431 	-0.00192556 	-0.000192139 	0.205934
0.0129933 	-0.00188768 	-0.000187153 	0.203883
0.0130435 	-0.00184653 	-0.000182131 	0.201753
0.0130936 	-0.00180057 	-0.000177113 	0.199514
0.0131438 	-0.0017518 	-0.000172115 	0.197211
0.013194 	-0.00169852 	-0.000167167 	0.19481
0.0132441 	-0.00163997 	-0.000162202 	0.192298
0.0132943 	-0.00157774 	-0.00015719 	0.189708
0.0133445 	-0.00151015 	-0.000152075 	0.187006
0.0133946 	-0.00143621 	-0.000146853 	0.184166
0.0134448 	-0.00135797 	-0.000141597 	0.181223
0.013495 	-0.00127506 	-0.000136325 	0.178164
0.0135452 	-0.0011851 	-0.000131063 	0.174908
0.0135953 	-0.00109089 	-0.000125747 	0.171516
0.0136455 	-0.000992364 	-0.000120364 	0.167979
0.0136957 	-0.000888848 	-0.000114881 	0.164259
0.0137458 	-0.000779983 	-0.000109369 	0.160308
0.013796 	-0.000667315 	-0.000103925 	0.15617
0.0138462 	-0.000550993 	-9.85792e-05 	0.15183
0.0138963 	-0.000431242 	-9.33451e-05 	0.147271
0.0139465 	-0.00030786 	-8.81056e-05 	0.1424
0.0139967 	-0.000182641 	-8.27726e-05 	0.137268
0.0140468 	-5.65272e-05 	-7.73782e-05 	0.131862
0.014097 	6.93305e-05 	-7.19589e-05 	0.126167
0.0141472 	0.000193432 	-6.65467e-05 	0.120165
0.0141973 	0.000313845 	-6.11425e-05 	0.113841
0.0142475 	0.000426909 	-5.57718e-05 	0.107128
0.0142977 	0.000531035 	-5.03672e-05 	0.100067
0.0143478 	0.00062336 	-4.48408e-05 	0.092658
0.014398 	0.000699226 	-3.92381e-05 	0.0849194
0.0144482 	0.000752429 	-3.36818e-05 	0.0769041
0.0144983 	0.000776388 	-2.82935e-05 	0.0687007
0.0145485 	0.000765744 	-2.31679e-05 	0.0604302
0.0145987 	0.000717945 	-1.84045e-05 	0.0522344
0.0146488 	0.000634484 	-1.41092e-05 	0.0442568
0.014699 	0.000521361 	-1.03382e-05 	0.0366193
0.0147492 	0.000388845 	-7.08771e-06 	0.0294045
0.0147993 	0.000252099 	-4.45631e-06 	0.0226468
0.0148495 	0.000135308 	-2.29717e-06 	0.0163167
0.0148997 	6.7697e-05 	-1.06472e-06 	0.0103567
0.0149498 	4.41073e-05 	-4.86316e-07 	0.00485023
0.015 	0 	0 	0
