/*--------------------------------*- C++ -*----------------------------------*\
| =========                 |                                                 |
| \\      /  F ield         | OpenFOAM: The Open Source CFD Toolbox           |
|  \\    /   O peration     | Version:  v1912                                 |
|   \\  /    A nd           | Website:  www.openfoam.com                      |
|    \\/     M anipulation  |                                                 |
\*---------------------------------------------------------------------------*/
FoamFile
{
    version     2.0;
    format      ascii;
    class       volScalarField;
    location    "196.8";
    object      pPrime2Mean;
}
// * * * * * * * * * * * * * * * * * * * * * * * * * * * * * * * * * * * * * //

dimensions      [2 -2 -4 0 0 0 0];


internalField   nonuniform List<scalar> 
10077
(
1637.94
1638.65
1639.61
1640.53
1641.74
1642.55
1643.14
1643.67
1644.05
1643.55
1642.13
1640.45
1638.71
1637.63
1637.36
1637.24
1637.91
1638.59
1639.56
1640.47
1641.66
1642.48
1643.06
1643.58
1643.94
1643.44
1642.04
1640.37
1638.66
1637.59
1637.31
1637.21
1637.85
1638.5
1639.47
1640.37
1641.55
1642.36
1642.94
1643.45
1643.78
1643.28
1641.91
1640.25
1638.57
1637.52
1637.23
1637.15
1637.77
1638.4
1639.36
1640.25
1641.41
1642.23
1642.79
1643.29
1643.59
1643.09
1641.74
1640.11
1638.47
1637.43
1637.14
1637.07
1637.69
1638.29
1639.25
1640.12
1641.26
1642.08
1642.63
1643.13
1643.39
1642.89
1641.58
1639.97
1638.36
1637.34
1637.04
1636.99
1637.61
1638.19
1639.13
1640
1641.12
1641.93
1642.48
1642.96
1643.19
1642.69
1641.4
1639.82
1638.25
1637.25
1636.95
1636.92
1637.52
1638.09
1639.02
1639.87
1640.97
1641.78
1642.32
1642.79
1642.99
1642.5
1641.23
1639.67
1638.14
1637.16
1636.86
1636.84
1637.44
1637.99
1638.9
1639.75
1640.83
1641.63
1642.17
1642.62
1642.8
1642.3
1641.07
1639.52
1638.03
1637.07
1636.77
1636.76
1637.36
1637.89
1638.79
1639.63
1640.69
1641.49
1642.01
1642.46
1642.61
1642.11
1640.9
1639.38
1637.92
1636.98
1636.68
1636.69
1637.28
1637.8
1638.68
1639.51
1640.55
1641.34
1641.86
1642.3
1642.42
1641.92
1640.74
1639.24
1637.81
1636.89
1636.59
1636.62
1637.21
1637.71
1638.58
1639.39
1640.41
1641.2
1641.72
1642.14
1642.24
1641.74
1640.58
1639.1
1637.7
1636.8
1636.5
1636.55
1637.13
1637.62
1638.47
1639.27
1640.28
1641.07
1641.57
1641.98
1642.06
1641.57
1640.43
1638.97
1637.6
1636.71
1636.42
1636.49
1637.06
1637.54
1638.37
1639.16
1640.15
1640.93
1641.43
1641.83
1641.89
1641.39
1640.27
1638.84
1637.5
1636.63
1636.34
1636.42
1636.99
1637.46
1638.27
1639.05
1640.02
1640.8
1641.3
1641.68
1641.72
1641.23
1640.12
1638.71
1637.4
1636.55
1636.26
1636.36
1636.92
1637.38
1638.17
1638.95
1639.9
1640.67
1641.16
1641.53
1641.55
1641.06
1639.98
1638.59
1637.3
1636.47
1636.18
1636.3
1636.86
1637.3
1638.07
1638.84
1639.78
1640.55
1641.03
1641.39
1641.39
1640.9
1639.84
1638.47
1637.2
1636.39
1636.11
1636.24
1636.79
1637.23
1637.98
1638.74
1639.66
1640.42
1640.9
1641.25
1641.23
1640.75
1639.7
1638.35
1637.11
1636.31
1636.04
1636.19
1636.73
1637.16
1637.89
1638.64
1639.54
1640.3
1640.78
1641.11
1641.08
1640.59
1639.56
1638.23
1637.02
1636.24
1635.97
1636.13
1636.67
1637.09
1637.8
1638.54
1639.43
1640.18
1640.65
1640.98
1640.93
1640.45
1639.43
1638.12
1636.93
1636.16
1635.9
1636.08
1636.61
1637.02
1637.71
1638.45
1639.32
1640.07
1640.53
1640.85
1640.79
1640.3
1639.3
1638.01
1636.84
1636.09
1635.83
1636.02
1636.55
1636.96
1637.63
1638.35
1639.21
1639.96
1640.42
1640.72
1640.64
1640.16
1639.18
1637.9
1636.76
1636.02
1635.77
1635.97
1636.49
1636.89
1637.54
1638.26
1639.11
1639.85
1640.3
1640.59
1640.51
1640.03
1639.05
1637.8
1636.67
1635.95
1635.71
1635.92
1636.43
1636.83
1637.46
1638.18
1639.01
1639.74
1640.19
1640.47
1640.37
1639.89
1638.94
1637.7
1636.59
1635.89
1635.65
1635.87
1636.38
1636.77
1637.38
1638.09
1638.91
1639.64
1640.08
1640.35
1640.24
1639.76
1638.82
1637.6
1636.51
1635.82
1635.59
1635.82
1636.32
1636.71
1637.31
1638.01
1638.81
1639.53
1639.98
1640.23
1640.11
1639.64
1638.71
1637.5
1636.44
1635.76
1635.53
1635.78
1636.27
1636.65
1637.23
1637.93
1638.72
1639.43
1639.87
1640.12
1639.99
1639.52
1638.6
1637.41
1636.36
1635.7
1635.48
1635.73
1636.22
1636.6
1637.16
1637.85
1638.63
1639.34
1639.77
1640.01
1639.87
1639.4
1638.49
1637.32
1636.29
1635.64
1635.42
1635.68
1636.17
1636.54
1637.09
1637.77
1638.54
1639.24
1639.68
1639.9
1639.75
1639.28
1638.38
1637.23
1636.22
1635.58
1635.37
1635.64
1636.12
1636.49
1637.02
1637.69
1638.45
1639.15
1639.58
1639.79
1639.64
1639.17
1638.28
1637.15
1636.15
1635.52
1635.32
1635.6
1636.08
1636.44
1636.95
1637.62
1638.37
1639.07
1639.49
1639.69
1639.53
1639.06
1638.18
1637.06
1636.08
1635.47
1635.28
1635.56
1636.03
1636.39
1636.89
1637.55
1638.29
1638.98
1639.4
1639.6
1639.42
1638.96
1638.09
1636.98
1636.02
1635.42
1635.23
1635.52
1635.98
1636.34
1636.83
1637.49
1638.22
1638.9
1639.32
1639.5
1639.32
1638.86
1638
1636.91
1635.96
1635.37
1635.19
1635.48
1635.94
1636.29
1636.77
1637.42
1638.15
1638.82
1639.24
1639.41
1639.23
1638.76
1637.91
1636.84
1635.9
1635.32
1635.15
1635.44
1635.9
1636.25
1636.71
1637.36
1638.08
1638.75
1639.16
1639.33
1639.13
1638.67
1637.83
1636.77
1635.84
1635.27
1635.11
1635.4
1635.86
1636.21
1636.66
1637.3
1638.01
1638.68
1639.09
1639.25
1639.05
1638.59
1637.75
1636.7
1635.79
1635.23
1635.07
1635.37
1635.82
1636.17
1636.61
1637.24
1637.95
1638.61
1639.02
1639.17
1638.96
1638.5
1637.68
1636.64
1635.74
1635.18
1635.03
1635.34
1635.78
1636.13
1636.56
1637.19
1637.89
1638.54
1638.95
1639.09
1638.88
1638.42
1637.61
1636.58
1635.69
1635.14
1635
1635.31
1635.75
1636.09
1636.51
1637.14
1637.83
1638.48
1638.89
1639.02
1638.81
1638.35
1637.54
1636.52
1635.64
1635.1
1634.96
1635.27
1635.71
1636.05
1636.47
1637.09
1637.78
1638.42
1638.83
1638.95
1638.73
1638.28
1637.47
1636.47
1635.6
1635.07
1634.93
1635.25
1635.68
1636.02
1636.43
1637.04
1637.72
1638.37
1638.77
1638.89
1638.66
1638.21
1637.41
1636.41
1635.56
1635.03
1634.9
1635.22
1635.65
1635.99
1636.39
1637
1637.67
1638.31
1638.71
1638.83
1638.6
1638.14
1637.35
1636.37
1635.52
1635
1634.88
1635.19
1635.62
1635.96
1636.35
1636.95
1637.63
1638.26
1638.66
1638.77
1638.54
1638.08
1637.3
1636.32
1635.48
1634.97
1634.85
1635.16
1635.59
1635.93
1636.31
1636.91
1637.58
1638.21
1638.61
1638.71
1638.48
1638.03
1637.24
1636.27
1635.44
1634.94
1634.82
1635.14
1635.57
1635.9
1636.28
1636.87
1637.54
1638.17
1638.56
1638.66
1638.42
1637.97
1637.19
1636.23
1635.41
1634.91
1634.8
1635.12
1635.54
1635.87
1636.25
1636.84
1637.5
1638.12
1638.52
1638.61
1638.37
1637.92
1637.15
1636.19
1635.38
1634.88
1634.78
1635.09
1635.51
1635.84
1636.21
1636.8
1637.46
1638.08
1638.47
1638.56
1638.32
1637.87
1637.1
1636.15
1635.34
1634.85
1634.76
1635.07
1635.49
1635.82
1636.19
1636.77
1637.43
1638.04
1638.43
1638.52
1638.27
1637.82
1637.06
1636.12
1635.31
1634.83
1634.74
1635.05
1635.47
1635.8
1636.16
1636.74
1637.39
1638
1638.39
1638.47
1638.22
1637.78
1637.02
1636.08
1635.29
1634.81
1634.72
1635.03
1635.45
1635.77
1636.13
1636.71
1637.36
1637.97
1638.36
1638.43
1638.18
1637.73
1636.98
1636.05
1635.26
1634.78
1634.7
1635.01
1635.43
1635.75
1636.11
1636.68
1637.33
1637.93
1638.32
1638.39
1638.14
1637.69
1636.94
1636.02
1635.24
1634.76
1634.68
1635
1635.41
1635.73
1636.08
1636.65
1637.3
1637.9
1638.29
1638.36
1638.1
1637.66
1636.91
1635.99
1635.21
1634.74
1634.67
1634.98
1635.39
1635.71
1636.06
1636.63
1637.28
1637.87
1638.26
1638.32
1638.07
1637.62
1636.87
1635.97
1635.19
1634.72
1634.65
1634.96
1635.37
1635.7
1636.04
1636.6
1637.25
1637.85
1638.23
1638.29
1638.03
1637.59
1636.84
1635.94
1635.17
1634.71
1634.64
1634.95
1635.35
1635.68
1636.02
1636.58
1637.23
1637.82
1638.21
1638.26
1638
1637.56
1636.82
1635.92
1635.15
1634.69
1634.62
1634.93
1635.34
1635.66
1636
1636.56
1637.21
1637.8
1638.18
1638.24
1637.97
1637.53
1636.79
1635.9
1635.13
1634.68
1634.61
1634.92
1635.33
1635.65
1635.99
1636.54
1637.19
1637.77
1638.16
1638.21
1637.95
1637.5
1636.77
1635.88
1635.11
1634.66
1634.6
1634.91
1635.31
1635.64
1635.97
1636.52
1637.17
1637.75
1638.14
1638.19
1637.92
1637.48
1636.74
1635.86
1635.1
1634.65
1634.59
1634.9
1635.3
1635.62
1635.96
1636.51
1637.15
1637.73
1638.12
1638.17
1637.9
1637.46
1636.72
1635.84
1635.09
1634.64
1634.58
1634.89
1635.29
1635.61
1635.95
1636.49
1637.14
1637.72
1638.1
1638.15
1637.88
1637.44
1636.71
1635.83
1635.07
1634.63
1634.57
1634.88
1635.28
1635.6
1635.94
1636.48
1637.12
1637.7
1638.08
1638.13
1637.86
1637.42
1636.69
1635.81
1635.06
1634.62
1634.56
1634.87
1635.27
1635.59
1635.92
1636.47
1637.11
1637.69
1638.07
1638.11
1637.84
1637.4
1636.67
1635.8
1635.05
1634.61
1634.56
1634.86
1635.26
1635.58
1635.92
1636.46
1637.1
1637.67
1638.06
1638.1
1637.83
1637.39
1636.66
1635.79
1635.04
1634.6
1634.55
1634.85
1635.26
1635.58
1635.91
1636.45
1637.09
1637.66
1638.04
1638.09
1637.82
1637.37
1636.65
1635.78
1635.03
1634.59
1634.54
1634.85
1635.25
1635.57
1635.9
1636.44
1637.08
1637.65
1638.03
1638.07
1637.8
1637.36
1636.64
1635.77
1635.03
1634.59
1634.54
1634.84
1635.24
1635.56
1635.89
1636.43
1637.07
1637.64
1638.02
1638.06
1637.79
1637.35
1636.63
1635.76
1635.02
1634.58
1634.53
1634.84
1635.24
1635.56
1635.89
1636.43
1637.06
1637.64
1638.02
1638.06
1637.78
1637.34
1636.62
1635.75
1635.01
1634.58
1634.53
1634.83
1635.23
1635.55
1635.88
1636.42
1637.06
1637.63
1638.01
1638.05
1637.78
1637.34
1636.61
1635.75
1635.01
1634.57
1634.53
1634.83
1635.23
1635.55
1635.88
1636.41
1637.05
1637.62
1638
1638.04
1637.77
1637.33
1636.61
1635.74
1635
1634.57
1634.52
1634.83
1635.23
1635.55
1635.87
1636.41
1637.05
1637.62
1638
1638.04
1637.76
1637.32
1636.6
1635.74
1635
1634.57
1634.52
1634.82
1635.22
1635.54
1635.87
1636.41
1637.05
1637.61
1637.99
1638.03
1637.76
1637.32
1636.6
1635.74
1635
1634.56
1634.52
1634.82
1635.22
1635.54
1635.87
1636.4
1637.04
1637.61
1637.99
1638.03
1637.76
1637.31
1636.59
1635.73
1634.99
1634.56
1634.52
1634.82
1635.22
1635.54
1635.87
1636.4
1637.04
1637.61
1637.99
1638.02
1637.75
1637.31
1636.59
1635.73
1634.99
1634.56
1634.52
1634.82
1635.22
1635.54
1635.86
1636.4
1637.04
1637.6
1637.98
1638.02
1637.75
1637.31
1636.59
1635.73
1634.99
1634.56
1634.51
1634.82
1635.21
1635.53
1635.86
1636.4
1637.03
1637.6
1637.98
1638.02
1637.75
1637.31
1636.59
1635.73
1634.99
1634.56
1634.51
1634.81
1635.21
1635.53
1635.86
1636.39
1637.03
1637.6
1637.98
1638.01
1637.74
1637.3
1636.58
1635.72
1634.99
1634.56
1634.51
1634.81
1635.21
1635.53
1635.86
1636.39
1637.03
1637.6
1637.98
1638.01
1637.74
1637.3
1636.58
1635.72
1634.99
1634.55
1634.51
1634.81
1635.21
1635.53
1635.86
1636.39
1637.03
1637.6
1637.98
1638.01
1637.74
1637.3
1636.58
1635.72
1634.99
1634.55
1634.51
1634.81
1635.21
1635.53
1635.86
1636.39
1637.03
1637.6
1637.98
1638.01
1637.74
1637.3
1636.58
1635.72
1634.98
1634.55
1634.51
1634.81
1635.21
1635.53
1635.86
1636.39
1637.03
1637.6
1637.97
1638.01
1637.74
1637.3
1636.58
1635.72
1634.98
1634.55
1634.51
1634.81
1609.25
1608.99
1609.1
1609.77
1611.1
1611.88
1612.17
1612.73
1613.46
1613.3
1612.21
1611.17
1610.41
1609.85
1609.77
1609.53
1609.19
1608.93
1609.06
1609.73
1611.03
1611.82
1612.11
1612.67
1613.38
1613.21
1612.15
1611.12
1610.35
1609.8
1609.71
1609.46
1609.11
1608.85
1609
1609.66
1610.93
1611.72
1612.02
1612.57
1613.26
1613.09
1612.05
1611.03
1610.26
1609.72
1609.6
1609.35
1609.01
1608.76
1608.92
1609.58
1610.82
1611.6
1611.92
1612.46
1613.11
1612.94
1611.94
1610.92
1610.15
1609.61
1609.48
1609.23
1608.91
1608.67
1608.84
1609.5
1610.7
1611.47
1611.81
1612.35
1612.96
1612.79
1611.82
1610.81
1610.03
1609.5
1609.36
1609.1
1608.8
1608.57
1608.76
1609.42
1610.57
1611.34
1611.7
1612.23
1612.8
1612.64
1611.69
1610.7
1609.92
1609.39
1609.23
1608.97
1608.69
1608.47
1608.68
1609.33
1610.45
1611.22
1611.59
1612.11
1612.65
1612.48
1611.57
1610.58
1609.8
1609.28
1609.1
1608.84
1608.57
1608.37
1608.6
1609.25
1610.34
1611.1
1611.48
1612
1612.5
1612.33
1611.45
1610.47
1609.69
1609.17
1608.98
1608.72
1608.46
1608.27
1608.52
1609.17
1610.22
1610.98
1611.37
1611.88
1612.35
1612.18
1611.33
1610.36
1609.57
1609.06
1608.85
1608.59
1608.35
1608.18
1608.44
1609.09
1610.11
1610.86
1611.26
1611.77
1612.21
1612.04
1611.21
1610.25
1609.46
1608.96
1608.73
1608.47
1608.24
1608.08
1608.36
1609.01
1610
1610.74
1611.16
1611.65
1612.07
1611.9
1611.09
1610.15
1609.36
1608.85
1608.62
1608.35
1608.13
1607.99
1608.28
1608.93
1609.9
1610.63
1611.05
1611.55
1611.94
1611.76
1610.98
1610.04
1609.25
1608.75
1608.5
1608.23
1608.02
1607.9
1608.21
1608.85
1609.8
1610.52
1610.95
1611.44
1611.8
1611.63
1610.87
1609.94
1609.15
1608.65
1608.39
1608.12
1607.91
1607.81
1608.14
1608.78
1609.7
1610.42
1610.85
1611.33
1611.68
1611.5
1610.76
1609.84
1609.05
1608.55
1608.28
1608
1607.8
1607.73
1608.06
1608.71
1609.6
1610.31
1610.75
1611.23
1611.55
1611.37
1610.65
1609.74
1608.95
1608.45
1608.17
1607.89
1607.7
1607.64
1607.99
1608.63
1609.5
1610.21
1610.66
1611.12
1611.43
1611.25
1610.55
1609.65
1608.85
1608.36
1608.06
1607.79
1607.6
1607.56
1607.92
1608.56
1609.41
1610.11
1610.57
1611.02
1611.31
1611.13
1610.44
1609.55
1608.76
1608.27
1607.96
1607.69
1607.5
1607.48
1607.85
1608.49
1609.32
1610.02
1610.48
1610.93
1611.19
1611.01
1610.34
1609.46
1608.66
1608.18
1607.86
1607.59
1607.41
1607.41
1607.79
1608.42
1609.24
1609.92
1610.39
1610.83
1611.08
1610.9
1610.24
1609.37
1608.57
1608.09
1607.76
1607.49
1607.31
1607.33
1607.72
1608.36
1609.15
1609.83
1610.3
1610.74
1610.97
1610.79
1610.15
1609.28
1608.49
1608
1607.67
1607.39
1607.22
1607.26
1607.66
1608.29
1609.07
1609.74
1610.21
1610.65
1610.86
1610.68
1610.05
1609.2
1608.4
1607.91
1607.57
1607.3
1607.13
1607.18
1607.59
1608.23
1608.99
1609.65
1610.13
1610.56
1610.76
1610.58
1609.96
1609.11
1608.32
1607.83
1607.48
1607.21
1607.05
1607.12
1607.53
1608.17
1608.91
1609.57
1610.05
1610.47
1610.66
1610.47
1609.87
1609.03
1608.23
1607.75
1607.39
1607.12
1606.96
1607.05
1607.47
1608.1
1608.83
1609.49
1609.97
1610.38
1610.56
1610.38
1609.78
1608.95
1608.15
1607.67
1607.31
1607.04
1606.89
1606.98
1607.42
1608.04
1608.76
1609.41
1609.89
1610.3
1610.46
1610.28
1609.7
1608.87
1608.08
1607.59
1607.22
1606.96
1606.81
1606.92
1607.36
1607.99
1608.69
1609.33
1609.82
1610.22
1610.37
1610.19
1609.61
1608.79
1608
1607.51
1607.14
1606.88
1606.74
1606.86
1607.31
1607.93
1608.62
1609.25
1609.75
1610.14
1610.28
1610.1
1609.53
1608.72
1607.93
1607.43
1607.06
1606.81
1606.67
1606.81
1607.25
1607.88
1608.55
1609.18
1609.68
1610.07
1610.2
1610.01
1609.46
1608.65
1607.86
1607.36
1606.98
1606.74
1606.61
1606.75
1607.2
1607.82
1608.49
1609.11
1609.61
1609.99
1610.11
1609.93
1609.38
1608.58
1607.79
1607.29
1606.91
1606.67
1606.54
1606.7
1607.15
1607.77
1608.42
1609.04
1609.54
1609.92
1610.03
1609.85
1609.31
1608.51
1607.72
1607.22
1606.84
1606.6
1606.48
1606.65
1607.11
1607.72
1608.36
1608.98
1609.48
1609.85
1609.96
1609.77
1609.24
1608.45
1607.66
1607.16
1606.77
1606.54
1606.42
1606.6
1607.06
1607.68
1608.31
1608.91
1609.42
1609.79
1609.88
1609.69
1609.17
1608.39
1607.6
1607.09
1606.71
1606.48
1606.36
1606.55
1607.02
1607.63
1608.25
1608.85
1609.36
1609.73
1609.81
1609.62
1609.1
1608.33
1607.55
1607.03
1606.64
1606.42
1606.31
1606.5
1606.98
1607.59
1608.2
1608.8
1609.3
1609.66
1609.74
1609.55
1609.04
1608.27
1607.49
1606.97
1606.58
1606.36
1606.26
1606.46
1606.94
1607.55
1608.15
1608.74
1609.25
1609.61
1609.68
1609.49
1608.98
1608.21
1607.44
1606.92
1606.53
1606.31
1606.21
1606.42
1606.9
1607.51
1608.1
1608.69
1609.2
1609.55
1609.62
1609.43
1608.92
1608.16
1607.39
1606.86
1606.47
1606.26
1606.16
1606.38
1606.87
1607.47
1608.06
1608.64
1609.15
1609.5
1609.56
1609.37
1608.87
1608.11
1607.34
1606.81
1606.42
1606.21
1606.12
1606.34
1606.83
1607.44
1608.01
1608.59
1609.11
1609.45
1609.5
1609.31
1608.82
1608.06
1607.3
1606.76
1606.37
1606.17
1606.08
1606.31
1606.8
1607.4
1607.97
1608.54
1609.06
1609.4
1609.45
1609.26
1608.77
1608.02
1607.26
1606.72
1606.33
1606.12
1606.04
1606.28
1606.77
1607.37
1607.93
1608.5
1609.02
1609.36
1609.4
1609.21
1608.72
1607.97
1607.22
1606.67
1606.28
1606.08
1606
1606.24
1606.74
1607.34
1607.9
1608.46
1608.98
1609.31
1609.35
1609.16
1608.68
1607.93
1607.18
1606.63
1606.24
1606.04
1605.97
1606.21
1606.72
1607.31
1607.86
1608.42
1608.94
1609.27
1609.31
1609.12
1608.63
1607.89
1607.14
1606.59
1606.2
1606.01
1605.93
1606.19
1606.69
1607.28
1607.83
1608.39
1608.91
1609.23
1609.26
1609.07
1608.59
1607.86
1607.11
1606.55
1606.16
1605.97
1605.9
1606.16
1606.67
1607.26
1607.8
1608.35
1608.87
1609.2
1609.22
1609.03
1608.55
1607.82
1607.08
1606.51
1606.13
1605.94
1605.87
1606.13
1606.64
1607.23
1607.77
1608.32
1608.84
1609.16
1609.19
1608.99
1608.52
1607.79
1607.05
1606.48
1606.09
1605.91
1605.85
1606.11
1606.62
1607.21
1607.74
1608.29
1608.81
1609.13
1609.15
1608.96
1608.48
1607.75
1607.02
1606.44
1606.06
1605.88
1605.82
1606.09
1606.6
1607.19
1607.71
1608.26
1608.78
1609.09
1609.11
1608.92
1608.45
1607.73
1606.99
1606.41
1606.03
1605.85
1605.8
1606.07
1606.58
1607.16
1607.69
1608.23
1608.75
1609.07
1609.08
1608.89
1608.42
1607.7
1606.96
1606.38
1606
1605.83
1605.77
1606.04
1606.56
1607.14
1607.66
1608.2
1608.73
1609.04
1609.05
1608.86
1608.39
1607.67
1606.94
1606.36
1605.97
1605.8
1605.75
1606.03
1606.54
1607.13
1607.64
1608.18
1608.7
1609.01
1609.02
1608.83
1608.36
1607.64
1606.92
1606.33
1605.95
1605.78
1605.73
1606.01
1606.53
1607.11
1607.62
1608.15
1608.68
1608.99
1609
1608.8
1608.34
1607.62
1606.9
1606.3
1605.92
1605.75
1605.72
1605.99
1606.51
1607.09
1607.6
1608.13
1608.66
1608.96
1608.97
1608.78
1608.31
1607.6
1606.88
1606.28
1605.9
1605.73
1605.7
1605.98
1606.5
1607.07
1607.58
1608.11
1608.64
1608.94
1608.95
1608.75
1608.29
1607.58
1606.86
1606.26
1605.88
1605.72
1605.68
1605.96
1606.49
1607.06
1607.57
1608.09
1608.62
1608.92
1608.92
1608.73
1608.27
1607.56
1606.84
1606.24
1605.86
1605.7
1605.67
1605.95
1606.47
1607.05
1607.55
1608.07
1608.6
1608.9
1608.9
1608.71
1608.25
1607.54
1606.82
1606.22
1605.84
1605.68
1605.65
1605.93
1606.46
1607.03
1607.54
1608.06
1608.58
1608.88
1608.89
1608.69
1608.23
1607.52
1606.81
1606.2
1605.83
1605.67
1605.64
1605.92
1606.45
1607.02
1607.52
1608.04
1608.57
1608.87
1608.87
1608.67
1608.22
1607.51
1606.8
1606.19
1605.81
1605.65
1605.63
1605.91
1606.44
1607.01
1607.51
1608.03
1608.55
1608.85
1608.85
1608.66
1608.2
1607.49
1606.78
1606.17
1605.8
1605.64
1605.62
1605.9
1606.43
1607
1607.5
1608.02
1608.54
1608.84
1608.84
1608.64
1608.19
1607.48
1606.77
1606.16
1605.79
1605.63
1605.61
1605.89
1606.43
1606.99
1607.49
1608.01
1608.53
1608.83
1608.83
1608.63
1608.17
1607.47
1606.76
1606.15
1605.78
1605.62
1605.6
1605.89
1606.42
1606.99
1607.48
1608
1608.52
1608.82
1608.81
1608.62
1608.16
1607.46
1606.75
1606.14
1605.77
1605.61
1605.6
1605.88
1606.41
1606.98
1607.47
1607.99
1608.51
1608.81
1608.8
1608.61
1608.15
1607.45
1606.74
1606.13
1605.76
1605.6
1605.59
1605.87
1606.41
1606.97
1607.46
1607.98
1608.5
1608.8
1608.79
1608.6
1608.14
1607.44
1606.74
1606.12
1605.75
1605.59
1605.58
1605.87
1606.4
1606.97
1607.46
1607.97
1608.5
1608.79
1608.79
1608.59
1608.14
1607.43
1606.73
1606.11
1605.74
1605.59
1605.58
1605.86
1606.4
1606.96
1607.45
1607.96
1608.49
1608.78
1608.78
1608.58
1608.13
1607.43
1606.72
1606.1
1605.74
1605.58
1605.58
1605.86
1606.39
1606.96
1607.45
1607.96
1608.48
1608.78
1608.77
1608.58
1608.12
1607.42
1606.72
1606.1
1605.73
1605.57
1605.57
1605.86
1606.39
1606.95
1607.44
1607.95
1608.48
1608.77
1608.77
1608.57
1608.12
1607.42
1606.71
1606.09
1605.73
1605.57
1605.57
1605.85
1606.39
1606.95
1607.44
1607.95
1608.48
1608.77
1608.76
1608.57
1608.11
1607.41
1606.71
1606.09
1605.72
1605.57
1605.57
1605.85
1606.38
1606.95
1607.44
1607.95
1608.47
1608.76
1608.76
1608.56
1608.11
1607.41
1606.71
1606.09
1605.72
1605.56
1605.56
1605.85
1606.38
1606.95
1607.43
1607.94
1608.47
1608.76
1608.76
1608.56
1608.11
1607.41
1606.71
1606.08
1605.72
1605.56
1605.56
1605.85
1606.38
1606.94
1607.43
1607.94
1608.47
1608.76
1608.75
1608.56
1608.1
1607.4
1606.7
1606.08
1605.71
1605.56
1605.56
1605.84
1606.38
1606.94
1607.43
1607.94
1608.46
1608.76
1608.75
1608.55
1608.1
1607.4
1606.7
1606.08
1605.71
1605.56
1605.56
1605.84
1606.38
1606.94
1607.43
1607.94
1608.46
1608.75
1608.75
1608.55
1608.1
1607.4
1606.7
1606.08
1605.71
1605.55
1605.56
1605.84
1606.38
1606.94
1607.43
1607.94
1608.46
1608.75
1608.75
1608.55
1608.1
1607.4
1606.7
1606.07
1605.71
1605.55
1605.55
1605.84
1606.38
1606.94
1607.43
1607.93
1608.46
1608.75
1608.74
1608.55
1608.1
1607.4
1606.7
1606.07
1605.71
1605.55
1605.55
1605.84
1606.38
1606.94
1607.42
1607.93
1608.46
1608.75
1608.74
1608.55
1608.1
1607.39
1606.7
1606.07
1605.71
1605.55
1605.55
1605.84
1606.37
1606.94
1607.42
1607.93
1608.46
1608.75
1608.74
1608.55
1608.09
1607.39
1606.69
1606.07
1605.7
1605.55
1605.55
1605.84
1606.37
1606.94
1607.42
1607.93
1608.46
1608.75
1608.74
1608.55
1608.09
1607.39
1606.69
1606.07
1605.7
1605.55
1605.55
1605.84
1606.37
1606.94
1607.42
1607.93
1608.46
1608.75
1608.74
1608.55
1608.09
1607.39
1606.69
1606.07
1605.7
1605.55
1569.38
1569.5
1569.14
1568.73
1568.02
1567.59
1567.68
1567.95
1568.32
1568.53
1568.51
1568.31
1567.93
1567.83
1567.91
1568.41
1569.36
1569.48
1569.13
1568.7
1568
1567.58
1567.67
1567.94
1568.31
1568.51
1568.49
1568.3
1567.93
1567.84
1567.92
1568.42
1569.32
1569.43
1569.09
1568.65
1567.98
1567.56
1567.64
1567.91
1568.27
1568.47
1568.45
1568.27
1567.93
1567.83
1567.92
1568.43
1569.27
1569.38
1569.03
1568.58
1567.94
1567.53
1567.6
1567.87
1568.22
1568.42
1568.41
1568.23
1567.92
1567.82
1567.92
1568.42
1569.21
1569.31
1568.98
1568.52
1567.9
1567.5
1567.56
1567.83
1568.17
1568.37
1568.36
1568.19
1567.9
1567.81
1567.91
1568.42
1569.16
1569.25
1568.92
1568.45
1567.86
1567.47
1567.52
1567.79
1568.13
1568.32
1568.31
1568.15
1567.89
1567.8
1567.91
1568.41
1569.11
1569.19
1568.86
1568.39
1567.82
1567.44
1567.48
1567.74
1568.08
1568.27
1568.26
1568.1
1567.87
1567.78
1567.9
1568.4
1569.06
1569.13
1568.8
1568.33
1567.78
1567.41
1567.44
1567.7
1568.03
1568.22
1568.22
1568.06
1567.86
1567.77
1567.9
1568.39
1569.01
1569.08
1568.75
1568.27
1567.74
1567.38
1567.4
1567.66
1567.98
1568.18
1568.17
1568.02
1567.84
1567.76
1567.89
1568.38
1568.96
1569.02
1568.69
1568.21
1567.7
1567.36
1567.37
1567.62
1567.93
1568.13
1568.13
1567.99
1567.83
1567.75
1567.89
1568.37
1568.92
1568.97
1568.64
1568.15
1567.66
1567.33
1567.33
1567.58
1567.89
1568.09
1568.08
1567.95
1567.81
1567.74
1567.88
1568.36
1568.88
1568.92
1568.59
1568.1
1567.63
1567.3
1567.3
1567.54
1567.85
1568.04
1568.04
1567.91
1567.8
1567.73
1567.88
1568.35
1568.84
1568.87
1568.54
1568.05
1567.59
1567.27
1567.26
1567.51
1567.8
1568
1568
1567.88
1567.78
1567.71
1567.87
1568.34
1568.8
1568.83
1568.49
1568
1567.55
1567.25
1567.23
1567.47
1567.76
1567.96
1567.96
1567.85
1567.77
1567.7
1567.87
1568.33
1568.77
1568.78
1568.44
1567.95
1567.52
1567.22
1567.2
1567.43
1567.72
1567.92
1567.93
1567.81
1567.75
1567.7
1567.86
1568.32
1568.73
1568.74
1568.4
1567.91
1567.49
1567.19
1567.17
1567.4
1567.68
1567.88
1567.89
1567.78
1567.74
1567.68
1567.86
1568.31
1568.7
1568.69
1568.35
1567.86
1567.45
1567.17
1567.14
1567.37
1567.65
1567.84
1567.86
1567.75
1567.73
1567.68
1567.85
1568.3
1568.66
1568.65
1568.31
1567.82
1567.42
1567.14
1567.11
1567.33
1567.61
1567.81
1567.82
1567.72
1567.71
1567.67
1567.85
1568.29
1568.63
1568.61
1568.27
1567.78
1567.39
1567.12
1567.09
1567.3
1567.57
1567.77
1567.79
1567.7
1567.7
1567.66
1567.85
1568.28
1568.6
1568.57
1568.22
1567.74
1567.36
1567.1
1567.06
1567.27
1567.54
1567.74
1567.76
1567.67
1567.68
1567.65
1567.84
1568.27
1568.57
1568.53
1568.18
1567.7
1567.33
1567.08
1567.04
1567.24
1567.51
1567.71
1567.73
1567.65
1567.67
1567.64
1567.84
1568.26
1568.54
1568.49
1568.14
1567.66
1567.3
1567.05
1567.01
1567.21
1567.47
1567.68
1567.7
1567.62
1567.66
1567.63
1567.83
1568.25
1568.51
1568.45
1568.1
1567.62
1567.27
1567.03
1566.99
1567.19
1567.44
1567.64
1567.67
1567.6
1567.64
1567.63
1567.83
1568.23
1568.48
1568.42
1568.07
1567.59
1567.24
1567.01
1566.97
1567.16
1567.41
1567.61
1567.65
1567.57
1567.63
1567.62
1567.83
1568.22
1568.45
1568.38
1568.03
1567.55
1567.21
1566.99
1566.95
1567.13
1567.38
1567.59
1567.62
1567.55
1567.62
1567.61
1567.82
1568.21
1568.42
1568.35
1567.99
1567.52
1567.18
1566.97
1566.92
1567.11
1567.35
1567.56
1567.59
1567.53
1567.6
1567.61
1567.82
1568.2
1568.4
1568.31
1567.96
1567.49
1567.16
1566.95
1566.9
1567.08
1567.33
1567.53
1567.57
1567.51
1567.59
1567.6
1567.81
1568.19
1568.37
1568.28
1567.92
1567.46
1567.13
1566.94
1566.89
1567.06
1567.3
1567.51
1567.55
1567.49
1567.57
1567.59
1567.81
1568.17
1568.35
1568.25
1567.89
1567.43
1567.11
1566.92
1566.87
1567.04
1567.27
1567.48
1567.53
1567.47
1567.56
1567.59
1567.8
1568.16
1568.32
1568.21
1567.86
1567.4
1567.09
1566.9
1566.85
1567.01
1567.25
1567.46
1567.5
1567.46
1567.55
1567.58
1567.8
1568.15
1568.29
1568.18
1567.82
1567.37
1567.06
1566.88
1566.83
1566.99
1567.23
1567.43
1567.49
1567.44
1567.53
1567.58
1567.8
1568.13
1568.27
1568.15
1567.79
1567.34
1567.04
1566.87
1566.82
1566.97
1567.2
1567.41
1567.47
1567.42
1567.52
1567.57
1567.79
1568.12
1568.25
1568.13
1567.76
1567.32
1567.02
1566.85
1566.8
1566.95
1567.18
1567.39
1567.45
1567.41
1567.51
1567.57
1567.79
1568.11
1568.22
1568.1
1567.73
1567.29
1567
1566.84
1566.79
1566.93
1567.16
1567.37
1567.43
1567.39
1567.49
1567.56
1567.79
1568.1
1568.2
1568.07
1567.71
1567.27
1566.98
1566.82
1566.77
1566.92
1567.14
1567.35
1567.41
1567.38
1567.48
1567.56
1567.78
1568.09
1568.18
1568.04
1567.68
1567.25
1566.96
1566.81
1566.76
1566.9
1567.12
1567.33
1567.39
1567.37
1567.47
1567.55
1567.78
1568.07
1568.16
1568.02
1567.65
1567.22
1566.94
1566.79
1566.75
1566.88
1567.1
1567.31
1567.38
1567.35
1567.45
1567.55
1567.77
1568.06
1568.14
1567.99
1567.63
1567.2
1566.93
1566.78
1566.73
1566.87
1567.09
1567.29
1567.36
1567.34
1567.44
1567.54
1567.77
1568.05
1568.12
1567.97
1567.6
1567.18
1566.91
1566.77
1566.72
1566.85
1567.07
1567.28
1567.35
1567.33
1567.42
1567.54
1567.77
1568.04
1568.1
1567.95
1567.58
1567.16
1566.89
1566.76
1566.71
1566.84
1567.05
1567.26
1567.33
1567.32
1567.41
1567.53
1567.76
1568.03
1568.08
1567.93
1567.56
1567.14
1566.88
1566.74
1566.7
1566.82
1567.04
1567.24
1567.32
1567.31
1567.4
1567.53
1567.76
1568.01
1568.07
1567.91
1567.54
1567.12
1566.86
1566.73
1566.69
1566.81
1567.02
1567.23
1567.31
1567.3
1567.39
1567.53
1567.75
1568
1568.05
1567.89
1567.52
1567.1
1566.85
1566.72
1566.68
1566.79
1567.01
1567.21
1567.29
1567.29
1567.37
1567.52
1567.75
1567.99
1568.04
1567.87
1567.5
1567.09
1566.84
1566.71
1566.67
1566.78
1567
1567.2
1567.28
1567.28
1567.36
1567.52
1567.75
1567.98
1568.02
1567.85
1567.48
1567.07
1566.82
1566.7
1566.66
1566.77
1566.98
1567.19
1567.27
1567.27
1567.35
1567.52
1567.74
1567.97
1568.01
1567.83
1567.46
1567.06
1566.81
1566.69
1566.65
1566.76
1566.97
1567.17
1567.26
1567.27
1567.34
1567.51
1567.74
1567.96
1567.99
1567.81
1567.44
1567.04
1566.8
1566.68
1566.64
1566.75
1566.96
1567.16
1567.25
1567.26
1567.33
1567.51
1567.74
1567.95
1567.98
1567.8
1567.43
1567.03
1566.79
1566.67
1566.63
1566.74
1566.95
1567.15
1567.24
1567.25
1567.32
1567.51
1567.73
1567.94
1567.96
1567.78
1567.41
1567.01
1566.78
1566.66
1566.63
1566.73
1566.94
1567.14
1567.23
1567.24
1567.31
1567.5
1567.73
1567.93
1567.95
1567.77
1567.4
1567
1566.76
1566.65
1566.62
1566.72
1566.93
1567.13
1567.22
1567.24
1567.3
1567.5
1567.72
1567.92
1567.94
1567.75
1567.38
1566.99
1566.76
1566.65
1566.61
1566.71
1566.92
1567.12
1567.21
1567.23
1567.29
1567.5
1567.72
1567.91
1567.93
1567.74
1567.37
1566.98
1566.75
1566.64
1566.61
1566.7
1566.91
1567.11
1567.2
1567.22
1567.28
1567.49
1567.72
1567.91
1567.92
1567.73
1567.36
1566.97
1566.74
1566.63
1566.6
1566.69
1566.9
1567.1
1567.19
1567.22
1567.27
1567.49
1567.71
1567.9
1567.91
1567.71
1567.35
1566.96
1566.73
1566.63
1566.59
1566.68
1566.89
1567.09
1567.18
1567.21
1567.27
1567.49
1567.71
1567.89
1567.9
1567.7
1567.34
1566.95
1566.72
1566.62
1566.59
1566.68
1566.88
1567.08
1567.18
1567.21
1567.26
1567.48
1567.71
1567.88
1567.89
1567.69
1567.33
1566.94
1566.71
1566.61
1566.58
1566.67
1566.87
1567.07
1567.17
1567.2
1567.25
1567.48
1567.71
1567.88
1567.88
1567.68
1567.32
1566.93
1566.71
1566.61
1566.58
1566.66
1566.87
1567.07
1567.16
1567.2
1567.24
1567.48
1567.7
1567.87
1567.88
1567.67
1567.31
1566.92
1566.7
1566.6
1566.57
1566.66
1566.86
1567.06
1567.16
1567.19
1567.24
1567.48
1567.7
1567.87
1567.87
1567.67
1567.3
1566.92
1566.7
1566.6
1566.57
1566.65
1566.85
1567.06
1567.15
1567.19
1567.23
1567.47
1567.7
1567.86
1567.86
1567.66
1567.29
1566.91
1566.69
1566.59
1566.56
1566.65
1566.85
1567.05
1567.15
1567.19
1567.23
1567.47
1567.7
1567.86
1567.86
1567.65
1567.29
1566.9
1566.69
1566.59
1566.56
1566.64
1566.84
1567.04
1567.14
1567.18
1567.22
1567.47
1567.69
1567.85
1567.85
1567.65
1567.28
1566.9
1566.68
1566.59
1566.56
1566.64
1566.84
1567.04
1567.14
1567.18
1567.22
1567.47
1567.69
1567.85
1567.85
1567.64
1567.28
1566.89
1566.68
1566.58
1566.55
1566.64
1566.84
1567.04
1567.14
1567.18
1567.22
1567.47
1567.69
1567.84
1567.84
1567.64
1567.27
1566.89
1566.68
1566.58
1566.55
1566.63
1566.83
1567.03
1567.13
1567.18
1567.21
1567.47
1567.69
1567.84
1567.84
1567.63
1567.27
1566.89
1566.67
1566.58
1566.55
1566.63
1566.83
1567.03
1567.13
1567.17
1567.21
1567.46
1567.69
1567.84
1567.84
1567.63
1567.26
1566.88
1566.67
1566.57
1566.55
1566.63
1566.83
1567.03
1567.13
1567.17
1567.21
1567.46
1567.69
1567.84
1567.83
1567.63
1567.26
1566.88
1566.67
1566.57
1566.55
1566.63
1566.82
1567.02
1567.13
1567.17
1567.21
1567.46
1567.69
1567.83
1567.83
1567.62
1567.26
1566.88
1566.67
1566.57
1566.54
1566.62
1566.82
1567.02
1567.12
1567.17
1567.2
1567.46
1567.68
1567.83
1567.83
1567.62
1567.26
1566.88
1566.66
1566.57
1566.54
1566.62
1566.82
1567.02
1567.12
1567.17
1567.2
1567.46
1567.68
1567.83
1567.83
1567.62
1567.25
1566.88
1566.66
1566.57
1566.54
1566.62
1566.82
1567.02
1567.12
1567.17
1567.2
1567.46
1567.68
1567.83
1567.83
1567.62
1567.25
1566.87
1566.66
1566.57
1566.54
1566.62
1566.82
1567.02
1567.12
1567.17
1567.2
1567.46
1567.68
1567.83
1567.82
1567.62
1567.25
1566.87
1566.66
1566.57
1566.54
1566.62
1566.82
1567.02
1567.12
1567.16
1567.2
1567.46
1567.68
1567.83
1567.82
1567.62
1567.25
1566.87
1566.66
1566.57
1566.54
1566.62
1566.82
1567.02
1567.12
1567.16
1567.2
1567.46
1567.68