/*--------------------------------*- C++ -*----------------------------------*\
| =========                 |                                                 |
| \\      /  F ield         | OpenFOAM: The Open Source CFD Toolbox           |
|  \\    /   O peration     | Version:  v1912                                 |
|   \\  /    A nd           | Website:  www.openfoam.com                      |
|    \\/     M anipulation  |                                                 |
\*---------------------------------------------------------------------------*/
FoamFile
{
    version     2.0;
    format      ascii;
    class       volScalarField;
    location    "196.8";
    object      T;
}
// * * * * * * * * * * * * * * * * * * * * * * * * * * * * * * * * * * * * * //

dimensions      [0 0 0 1 0 0 0];


internalField   nonuniform List<scalar> 
10077
(
347.042
346.872
346.622
346.497
346.448
346.442
346.449
346.458
346.459
346.455
346.445
346.437
346.443
346.491
346.617
346.868
346.989
346.823
346.577
346.451
346.401
346.394
346.401
346.409
346.41
346.406
346.396
346.389
346.396
346.446
346.572
346.819
346.937
346.774
346.532
346.406
346.355
346.347
346.353
346.36
346.362
346.358
346.349
346.341
346.349
346.401
346.527
346.771
346.886
346.726
346.488
346.362
346.309
346.3
346.305
346.313
346.314
346.311
346.301
346.295
346.304
346.357
346.483
346.723
346.835
346.678
346.444
346.318
346.264
346.254
346.259
346.266
346.267
346.264
346.255
346.249
346.259
346.313
346.439
346.675
346.784
346.63
346.4
346.274
346.219
346.208
346.212
346.219
346.221
346.217
346.209
346.203
346.214
346.269
346.395
346.627
346.734
346.583
346.356
346.231
346.175
346.163
346.167
346.173
346.175
346.171
346.163
346.158
346.17
346.226
346.351
346.58
346.684
346.535
346.312
346.188
346.131
346.118
346.122
346.128
346.129
346.126
346.118
346.114
346.126
346.183
346.308
346.532
346.635
346.488
346.269
346.145
346.088
346.074
346.077
346.083
346.084
346.081
346.073
346.069
346.083
346.141
346.264
346.485
346.586
346.441
346.226
346.103
346.045
346.03
346.033
346.038
346.039
346.036
346.029
346.026
346.04
346.098
346.221
346.438
346.537
346.394
346.183
346.061
346.002
345.987
345.989
345.994
345.995
345.992
345.985
345.982
345.997
346.056
346.178
346.391
346.488
346.348
346.14
346.019
345.959
345.943
345.945
345.95
345.951
345.948
345.941
345.939
345.955
346.014
346.135
346.345
346.439
346.301
346.097
345.977
345.917
345.9
345.902
345.906
345.907
345.904
345.898
345.896
345.912
345.973
346.093
346.298
346.391
346.255
346.054
345.936
345.875
345.858
345.858
345.863
345.864
345.861
345.855
345.854
345.87
345.931
346.05
346.252
346.343
346.209
346.012
345.894
345.833
345.815
345.816
345.82
345.821
345.818
345.812
345.811
345.828
345.89
346.008
346.206
346.295
346.163
345.969
345.853
345.791
345.773
345.773
345.777
345.778
345.775
345.77
345.769
345.787
345.848
345.965
346.16
346.248
346.118
345.927
345.811
345.75
345.731
345.731
345.735
345.735
345.733
345.727
345.727
345.745
345.807
345.923
346.115
346.201
346.072
345.885
345.77
345.708
345.689
345.689
345.692
345.693
345.69
345.685
345.685
345.704
345.766
345.881
346.07
346.154
346.027
345.843
345.729
345.667
345.648
345.647
345.65
345.65
345.648
345.643
345.644
345.662
345.725
345.839
346.025
346.108
345.983
345.801
345.688
345.625
345.606
345.605
345.608
345.608
345.606
345.602
345.602
345.621
345.684
345.797
345.98
346.062
345.938
345.758
345.647
345.584
345.564
345.563
345.566
345.566
345.564
345.56
345.56
345.58
345.643
345.755
345.935
346.016
345.893
345.716
345.606
345.542
345.523
345.521
345.524
345.524
345.522
345.518
345.519
345.538
345.602
345.713
345.89
345.97
345.849
345.674
345.564
345.501
345.481
345.479
345.482
345.482
345.48
345.476
345.477
345.497
345.56
345.67
345.846
345.925
345.804
345.632
345.523
345.459
345.439
345.438
345.44
345.44
345.439
345.435
345.436
345.455
345.519
345.628
345.802
345.879
345.76
345.59
345.482
345.418
345.398
345.396
345.398
345.398
345.397
345.393
345.394
345.414
345.478
345.586
345.757
345.834
345.716
345.547
345.44
345.376
345.356
345.354
345.356
345.356
345.355
345.351
345.352
345.372
345.436
345.543
345.713
345.789
345.672
345.504
345.398
345.334
345.314
345.312
345.314
345.314
345.313
345.309
345.31
345.33
345.394
345.501
345.669
345.744
345.628
345.461
345.356
345.291
345.271
345.27
345.272
345.272
345.27
345.267
345.268
345.288
345.352
345.458
345.625
345.699
345.583
345.418
345.313
345.249
345.229
345.227
345.229
345.229
345.228
345.224
345.225
345.245
345.309
345.415
345.58
345.653
345.538
345.374
345.27
345.205
345.185
345.184
345.186
345.186
345.185
345.181
345.182
345.202
345.266
345.371
345.536
345.608
345.493
345.33
345.226
345.161
345.141
345.14
345.142
345.142
345.141
345.137
345.138
345.157
345.222
345.326
345.491
345.561
345.447
345.284
345.181
345.116
345.096
345.095
345.097
345.097
345.096
345.092
345.093
345.112
345.177
345.28
345.445
345.515
345.4
345.237
345.135
345.069
345.05
345.049
345.051
345.051
345.05
345.046
345.047
345.066
345.131
345.234
345.397
345.467
345.351
345.189
345.087
345.022
345.003
345.002
345.004
345.004
345.003
344.999
344.999
345.018
345.084
345.186
345.349
345.417
345.301
345.14
345.039
344.973
344.954
344.953
344.956
344.955
344.954
344.951
344.951
344.97
345.035
345.136
345.298
345.366
345.249
345.089
344.989
344.923
344.904
344.903
344.905
344.905
344.904
344.901
344.901
344.919
344.985
345.085
345.247
345.313
345.196
345.036
344.937
344.871
344.852
344.852
344.854
344.853
344.852
344.849
344.849
344.867
344.933
345.033
345.193
345.259
345.141
344.982
344.883
344.817
344.798
344.798
344.8
344.8
344.799
344.795
344.795
344.814
344.879
344.978
345.138
345.202
345.084
344.925
344.827
344.761
344.743
344.743
344.745
344.744
344.743
344.74
344.74
344.758
344.824
344.922
345.082
345.144
345.025
344.867
344.769
344.703
344.685
344.685
344.687
344.687
344.686
344.683
344.682
344.7
344.766
344.863
345.023
345.084
344.964
344.806
344.709
344.643
344.625
344.626
344.628
344.627
344.626
344.623
344.622
344.64
344.706
344.802
344.962
345.021
344.901
344.743
344.647
344.58
344.563
344.564
344.566
344.565
344.564
344.561
344.56
344.577
344.644
344.739
344.898
344.957
344.835
344.677
344.582
344.515
344.498
344.499
344.501
344.5
344.5
344.497
344.495
344.512
344.579
344.674
344.833
344.889
344.767
344.609
344.514
344.447
344.431
344.432
344.434
344.433
344.432
344.43
344.428
344.444
344.511
344.605
344.764
344.819
344.696
344.538
344.444
344.377
344.36
344.362
344.364
344.363
344.363
344.36
344.358
344.374
344.441
344.534
344.693
344.747
344.622
344.463
344.371
344.303
344.287
344.29
344.291
344.291
344.29
344.287
344.284
344.3
344.367
344.46
344.619
344.671
344.545
344.386
344.294
344.226
344.211
344.214
344.215
344.215
344.214
344.211
344.208
344.223
344.291
344.383
344.542
344.592
344.464
344.305
344.214
344.146
344.132
344.135
344.136
344.136
344.135
344.132
344.129
344.143
344.211
344.302
344.461
344.509
344.38
344.221
344.131
344.062
344.048
344.052
344.053
344.053
344.052
344.05
344.046
344.06
344.128
344.218
344.377
344.423
344.292
344.133
344.043
343.975
343.961
343.965
343.967
343.966
343.966
343.963
343.959
343.972
344.04
344.129
344.29
344.333
344.2
344.04
343.952
343.883
343.87
343.874
343.876
343.875
343.875
343.872
343.867
343.88
343.949
344.037
344.197
344.238
344.103
343.943
343.855
343.786
343.774
343.779
343.78
343.78
343.779
343.777
343.771
343.783
343.852
343.939
344.1
344.138
344.001
343.84
343.754
343.684
343.673
343.678
343.68
343.679
343.678
343.676
343.67
343.681
343.751
343.837
343.998
344.032
343.893
343.731
343.646
343.576
343.565
343.572
343.573
343.572
343.572
343.569
343.563
343.574
343.643
343.728
343.89
343.919
343.779
343.616
343.532
343.461
343.451
343.458
343.46
343.459
343.459
343.456
343.449
343.459
343.529
343.612
343.776
343.799
343.656
343.492
343.409
343.339
343.329
343.337
343.339
343.338
343.337
343.335
343.327
343.336
343.406
343.489
343.653
343.67
343.524
343.359
343.277
343.207
343.198
343.206
343.208
343.207
343.207
343.204
343.196
343.204
343.275
343.356
343.521
343.529
343.381
343.215
343.135
343.064
343.056
343.065
343.067
343.066
343.066
343.063
343.054
343.061
343.132
343.212
343.377
343.376
343.225
343.058
342.979
342.908
342.901
342.911
342.913
342.912
342.912
342.909
342.899
342.906
342.976
343.055
343.221
343.208
343.053
342.885
342.808
342.736
342.731
342.741
342.743
342.743
342.742
342.739
342.729
342.734
342.806
342.882
343.05
343.022
342.863
342.694
342.619
342.546
342.542
342.553
342.556
342.555
342.555
342.551
342.54
342.544
342.616
342.69
342.86
342.813
342.65
342.479
342.406
342.333
342.33
342.343
342.345
342.344
342.344
342.341
342.328
342.331
342.403
342.476
342.647
342.575
342.408
342.235
342.164
342.091
342.089
342.103
342.105
342.104
342.104
342.101
342.087
342.089
342.161
342.231
342.405
342.3
342.127
341.951
341.883
341.809
341.809
341.824
341.827
341.826
341.826
341.822
341.807
341.808
341.881
341.948
342.124
341.973
341.791
341.61
341.545
341.47
341.472
341.49
341.493
341.492
341.492
341.488
341.471
341.469
341.543
341.607
341.788
341.563
341.371
341.184
341.122
341.047
341.052
341.071
341.076
341.075
341.075
341.07
341.05
341.045
341.121
341.181
341.368
341.033
340.828
340.632
340.576
340.498
340.507
340.53
340.535
340.534
340.535
340.528
340.505
340.497
340.574
340.629
340.824
340.323
340.1
339.893
339.843
339.764
339.777
339.804
339.812
339.811
339.811
339.803
339.776
339.764
339.842
339.891
340.097
339.344
339.1
338.879
338.837
338.756
338.775
338.807
338.816
338.816
338.816
338.806
338.774
338.757
338.837
338.877
339.096
337.984
337.717
337.482
337.45
337.367
337.392
337.43
337.442
337.442
337.442
337.43
337.392
337.368
337.45
337.48
337.714
336.15
335.864
335.619
335.597
335.514
335.545
335.589
335.602
335.602
335.602
335.589
335.546
335.516
335.598
335.618
335.861
333.841
333.55
333.305
333.292
333.212
333.247
333.293
333.308
333.308
333.308
333.293
333.248
333.215
333.294
333.305
333.547
331.181
330.904
330.674
330.666
330.593
330.628
330.672
330.687
330.687
330.688
330.673
330.629
330.596
330.668
330.674
330.901
328.344
328.096
327.893
327.888
327.825
327.857
327.897
327.91
327.91
327.911
327.897
327.858
327.827
327.89
327.893
328.093
325.462
325.253
325.084
325.08
325.027
325.055
325.089
325.1
325.1
325.1
325.089
325.056
325.03
325.082
325.083
325.251
322.601
322.437
322.305
322.302
322.261
322.283
322.309
322.319
322.318
322.319
322.31
322.284
322.263
322.303
322.304
322.435
319.789
319.672
319.577
319.576
319.546
319.562
319.581
319.588
319.587
319.588
319.581
319.563
319.548
319.576
319.577
319.67
317.032
316.962
316.906
316.905
316.888
316.897
316.909
316.912
316.912
316.912
316.909
316.898
316.889
316.906
316.906
316.962
314.332
314.309
314.291
314.29
314.285
314.288
314.291
314.293
314.293
314.293
314.292
314.288
314.285
314.291
314.291
314.309
346.579
346.701
346.843
346.854
346.824
346.776
346.744
346.723
346.717
346.72
346.74
346.771
346.818
346.849
346.84
346.699
346.531
346.647
346.783
346.793
346.763
346.716
346.685
346.664
346.658
346.661
346.68
346.711
346.757
346.788
346.779
346.646
346.485
346.595
346.724
346.734
346.704
346.658
346.626
346.606
346.6
346.603
346.622
346.652
346.698
346.729
346.72
346.593
346.44
346.544
346.666
346.675
346.645
346.6
346.569
346.549
346.543
346.546
346.565
346.595
346.64
346.671
346.663
346.543
346.395
346.494
346.609
346.618
346.588
346.544
346.514
346.493
346.487
346.491
346.509
346.539
346.583
346.614
346.606
346.493
346.351
346.445
346.554
346.562
346.532
346.489
346.459
346.439
346.433
346.436
346.455
346.484
346.527
346.558
346.551
346.444
346.308
346.397
346.5
346.507
346.477
346.435
346.405
346.385
346.38
346.383
346.401
346.43
346.472
346.502
346.497
346.396
346.266
346.35
346.447
346.453
346.423
346.381
346.352
346.333
346.327
346.331
346.348
346.376
346.418
346.448
346.444
346.349
346.223
346.304
346.394
346.399
346.37
346.329
346.3
346.281
346.276
346.279
346.296
346.324
346.365
346.395
346.392
346.302
346.181
346.258
346.343
346.347
346.318
346.277
346.249
346.23
346.225
346.228
346.245
346.272
346.313
346.343
346.34
346.256
346.14
346.212
346.292
346.295
346.266
346.226
346.199
346.18
346.175
346.178
346.195
346.222
346.261
346.291
346.29
346.211
346.098
346.167
346.242
346.244
346.215
346.176
346.149
346.131
346.125
346.128
346.145
346.172
346.211
346.24
346.24
346.166
346.057
346.122
346.193
346.193
346.165
346.127
346.1
346.082
346.076
346.08
346.096
346.122
346.161
346.19
346.19
346.121
346.016
346.078
346.144
346.144
346.115
346.078
346.051
346.033
346.028
346.031
346.047
346.073
346.111
346.14
346.142
346.077
345.975
346.034
346.096
346.094
346.066
346.029
346.003
345.985
345.98
345.983
345.999
346.025
346.062
346.091
346.093
346.033
345.933
345.99
346.048
346.046
346.018
345.981
345.955
345.938
345.933
345.936
345.952
345.977
346.014
346.042
346.046
345.989
345.892
345.946
346.001
345.998
345.97
345.934
345.908
345.891
345.886
345.889
345.905
345.929
345.966
345.994
345.998
345.945
345.851
345.902
345.954
345.95
345.922
345.886
345.861
345.844
345.839
345.842
345.858
345.882
345.918
345.946
345.951
345.901
345.809
345.859
345.907
345.902
345.875
345.839
345.815
345.798
345.793
345.796
345.811
345.835
345.871
345.899
345.905
345.857
345.768
345.815
345.86
345.855
345.828
345.793
345.768
345.752
345.747
345.75
345.765
345.789
345.824
345.852
345.858
345.814
345.726
345.771
345.814
345.808
345.781
345.746
345.722
345.706
345.701
345.704
345.719
345.742
345.777
345.805
345.812
345.77
345.684
345.727
345.768
345.761
345.734
345.7
345.676
345.66
345.655
345.658
345.673
345.696
345.731
345.758
345.766
345.726
345.641
345.683
345.721
345.715
345.688
345.654
345.63
345.614
345.609
345.612
345.627
345.65
345.684
345.712
345.719
345.682
345.598
345.639
345.675
345.668
345.642
345.608
345.584
345.568
345.563
345.566
345.581
345.604
345.638
345.665
345.673
345.638
345.553
345.595
345.629
345.622
345.595
345.561
345.538
345.522
345.518
345.52
345.535
345.558
345.591
345.619
345.627
345.594
345.508
345.55
345.583
345.575
345.549
345.515
345.492
345.476
345.472
345.474
345.489
345.512
345.545
345.572
345.581
345.549
345.462
345.504
345.536
345.528
345.502
345.469
345.446
345.43
345.425
345.428
345.443
345.465
345.499
345.525
345.535
345.503
345.415
345.457
345.49
345.481
345.455
345.422
345.4
345.383
345.379
345.381
345.397
345.419
345.452
345.478
345.488
345.456
345.368
345.41
345.442
345.434
345.408
345.375
345.352
345.336
345.332
345.334
345.349
345.371
345.405
345.431
345.44
345.409
345.32
345.362
345.394
345.385
345.36
345.327
345.305
345.288
345.284
345.286
345.302
345.323
345.356
345.383
345.392
345.362
345.272
345.314
345.345
345.336
345.311
345.278
345.256
345.239
345.235
345.238
345.253
345.275
345.308
345.334
345.343
345.313
345.222
345.265
345.295
345.286
345.261
345.228
345.207
345.19
345.186
345.188
345.204
345.225
345.258
345.284
345.294
345.264
345.172
345.214
345.244
345.235
345.21
345.178
345.156
345.139
345.135
345.138
345.153
345.174
345.207
345.233
345.243
345.214
345.121
345.163
345.192
345.183
345.158
345.126
345.104
345.088
345.084
345.086
345.102
345.123
345.155
345.18
345.191
345.162
345.068
345.11
345.139
345.129
345.105
345.073
345.052
345.035
345.031
345.033
345.049
345.07
345.102
345.127
345.137
345.11
345.013
345.056
345.084
345.074
345.05
345.018
344.997
344.98
344.976
344.979
344.994
345.015
345.047
345.072
345.082
345.055
344.957
345
345.027
345.018
344.994
344.962
344.941
344.924
344.921
344.923
344.939
344.959
344.991
345.016
345.026
344.999
344.899
344.942
344.969
344.96
344.936
344.904
344.884
344.866
344.863
344.865
344.881
344.901
344.933
344.957
344.967
344.941
344.838
344.882
344.909
344.899
344.876
344.845
344.824
344.807
344.803
344.805
344.821
344.841
344.873
344.897
344.907
344.882
344.776
344.82
344.846
344.837
344.814
344.783
344.762
344.745
344.742
344.744
344.76
344.78
344.811
344.835
344.845
344.82
344.711
344.756
344.782
344.773
344.749
344.719
344.699
344.681
344.678
344.68
344.696
344.716
344.747
344.771
344.781
344.755
344.644
344.689
344.715
344.706
344.683
344.653
344.633
344.615
344.612
344.614
344.63
344.65
344.68
344.704
344.714
344.689
344.574
344.62
344.646
344.637
344.614
344.584
344.564
344.547
344.543
344.545
344.562
344.581
344.612
344.635
344.645
344.62
344.501
344.549
344.574
344.566
344.543
344.513
344.493
344.476
344.473
344.474
344.491
344.51
344.541
344.564
344.573
344.549
344.426
344.475
344.5
344.492
344.469
344.439
344.42
344.402
344.399
344.401
344.418
344.437
344.467
344.49
344.499
344.475
344.348
344.398
344.423
344.415
344.393
344.363
344.344
344.326
344.323
344.325
344.342
344.36
344.39
344.413
344.422
344.398
344.267
344.318
344.343
344.335
344.313
344.284
344.265
344.247
344.244
344.245
344.262
344.281
344.311
344.334
344.342
344.318
344.182
344.235
344.26
344.253
344.231
344.201
344.183
344.164
344.161
344.163
344.18
344.199
344.229
344.251
344.259
344.235
344.094
344.148
344.173
344.166
344.145
344.115
344.097
344.078
344.076
344.077
344.095
344.113
344.142
344.165
344.173
344.148
344.001
344.057
344.083
344.076
344.055
344.026
344.007
343.989
343.986
343.987
344.005
344.023
344.053
344.074
344.082
344.057
343.904
343.962
343.988
343.982
343.961
343.932
343.914
343.895
343.892
343.893
343.911
343.929
343.959
343.98
343.987
343.962
343.803
343.863
343.888
343.883
343.862
343.833
343.815
343.796
343.794
343.795
343.813
343.831
343.86
343.881
343.888
343.863
343.696
343.758
343.784
343.778
343.758
343.729
343.711
343.692
343.69
343.691
343.709
343.727
343.756
343.777
343.783
343.758
343.582
343.646
343.673
343.668
343.648
343.62
343.602
343.582
343.58
343.581
343.6
343.617
343.646
343.666
343.672
343.647
343.462
343.528
343.555
343.551
343.531
343.503
343.485
343.466
343.464
343.465
343.483
343.501
343.529
343.549
343.555
343.528
343.333
343.402
343.429
343.425
343.406
343.378
343.361
343.341
343.339
343.34
343.359
343.376
343.405
343.424
343.429
343.402
343.194
343.266
343.294
343.29
343.272
343.244
343.227
343.207
343.205
343.206
343.225
343.242
343.27
343.289
343.294
343.266
343.044
343.119
343.147
343.145
343.127
343.099
343.082
343.062
343.06
343.061
343.08
343.097
343.125
343.143
343.147
343.119
342.881
342.958
342.987
342.986
342.969
342.941
342.924
342.904
342.902
342.902
342.922
342.939
342.967
342.985
342.987
342.959
342.701
342.782
342.812
342.811
342.795
342.767
342.75
342.73
342.728
342.729
342.749
342.765
342.793
342.81
342.812
342.782
342.501
342.586
342.617
342.617
342.602
342.575
342.558
342.538
342.536
342.536
342.556
342.573
342.601
342.617
342.618
342.587
342.278
342.367
342.4
342.401
342.386
342.359
342.343
342.322
342.32
342.321
342.341
342.357
342.385
342.4
342.4
342.368
342.024
342.118
342.152
342.155
342.141
342.114
342.098
342.077
342.076
342.076
342.097
342.113
342.14
342.154
342.153
342.119
341.729
341.829
341.866
341.87
341.858
341.832
341.816
341.794
341.793
341.793
341.814
341.83
341.857
341.87
341.867
341.83
341.375
341.483
341.524
341.53
341.52
341.494
341.478
341.457
341.456
341.456
341.477
341.493
341.52
341.53
341.525
341.484
340.932
341.052
341.097
341.107
341.1
341.074
341.058
341.036
341.035
341.035
341.057
341.073
341.099
341.108
341.099
341.053
340.362
340.495
340.548
340.562
340.557
340.532
340.517
340.494
340.494
340.493
340.516
340.531
340.558
340.563
340.55
340.497
339.601
339.752
339.815
339.834
339.834
339.809
339.795
339.771
339.771
339.77
339.794
339.809
339.835
339.836
339.818
339.755
338.562
338.736
338.81
338.836
338.842
338.818
338.805
338.78
338.78
338.779
338.804
338.819
338.844
338.839
338.814
338.739
337.14
337.338
337.425
337.46
337.473
337.45
337.437
337.412
337.413
337.412
337.438
337.452
337.476
337.464
337.43
337.342
335.256
335.475
335.574
335.617
335.635
335.614
335.603
335.577
335.578
335.577
335.603
335.617
335.639
335.622
335.58
335.48
332.936
333.164
333.267
333.313
333.335
333.316
333.306
333.281
333.282
333.281
333.307
333.319
333.34
333.318
333.273
333.168
330.317
330.537
330.635
330.68
330.703
330.686
330.676
330.653
330.655
330.654
330.677
330.689
330.707
330.685
330.642
330.542
327.569
327.766
327.853
327.892
327.913
327.899
327.89
327.871
327.872
327.871
327.891
327.902
327.917
327.897
327.859
327.771
324.807
324.973
325.045
325.077
325.095
325.084
325.076
325.06
325.061
325.06
325.077
325.086
325.098
325.082
325.05
324.977
322.086
322.216
322.271
322.297
322.31
322.302
322.295
322.283
322.284
322.283
322.296
322.303
322.313
322.3
322.275
322.219
319.42
319.513
319.552
319.57
319.58
319.574
319.569
319.561
319.561
319.561
319.57
319.575
319.582
319.573
319.555
319.515
316.813
316.868
316.891
316.902
316.907
316.904
316.901
316.896
316.896
316.896
316.901
316.905
316.909
316.903
316.893
316.869
314.26
314.278
314.286
314.289
314.291
314.29
314.289
314.287
314.287
314.287
314.289
314.29
314.291
314.29
314.286
314.278
347.035
346.863
346.613
346.489
346.44
346.433
346.439
346.447
346.449
346.445
346.435
346.428
346.434
346.483
346.608
346.859
346.982
346.814
346.569
346.443
346.393
346.385
346.391
346.399
346.401
346.397
346.387
346.38
346.388
346.438
346.564
346.811
346.93
346.766
346.524
346.399
346.347
346.338
346.344
346.351
346.353
346.349
346.34
346.333
346.342
346.394
346.519
346.763
346.879
346.718
346.48
346.355
346.302
346.292
346.297
346.304
346.306
346.302
346.293
346.287
346.296
346.349
346.475
346.715
346.828
346.67
346.436
346.311
346.257
346.246
346.251
346.258
346.259
346.256
346.247
346.242
346.252
346.306
346.431
346.667
346.777
346.622
346.392
346.268
346.213
346.201
346.205
346.212
346.213
346.21
346.201
346.196
346.208
346.263
346.388
346.619
346.727
346.575
346.349
346.225
346.169
346.156
346.16
346.166
346.167
346.164
346.156
346.152
346.164
346.22
346.344
346.572
346.677
346.527
346.305
346.182
346.125
346.112
346.115
346.121
346.122
346.119
346.111
346.108
346.12
346.177
346.301
346.524
346.627
346.48
346.262
346.14
346.082
346.068
346.071
346.076
346.077
346.074
346.067
346.064
346.077
346.135
346.258
346.477
346.578
346.433
346.219
346.097
346.039
346.025
346.027
346.032
346.033
346.03
346.023
346.02
346.034
346.093
346.215
346.43
346.529
346.386
346.176
346.055
345.996
345.981
345.983
345.988
345.989
345.986
345.979
345.977
345.992
346.051
346.172
346.383
346.48
346.34
346.133
346.013
345.954
345.938
345.939
345.944
345.945
345.942
345.936
345.934
345.949
346.009
346.129
346.337
346.431
346.293
346.09
345.972
345.912
345.895
345.896
345.901
345.901
345.899
345.893
345.891
345.907
345.967
346.086
346.29
346.382
346.247
346.048
345.93
345.87
345.853
345.853
345.857
345.858
345.855
345.85
345.849
345.865
345.926
346.044
346.244
346.334
346.201
346.005
345.889
345.828
345.81
345.81
345.814
345.815
345.812
345.807
345.806
345.824
345.884
346.001
346.198
346.286
346.155
345.963
345.847
345.786
345.768
345.768
345.772
345.772
345.77
345.764
345.764
345.782
345.843
345.959
346.152
346.238
346.109
345.92
345.806
345.744
345.726
345.725
345.729
345.729
345.727
345.722
345.722
345.74
345.802
345.916
346.106
346.191
346.064
345.878
345.765
345.703
345.684
345.683
345.686
345.687
345.685
345.68
345.68
345.699
345.76
345.874
346.061
346.144
346.018
345.835
345.723
345.661
345.642
345.641
345.644
345.644
345.642
345.638
345.638
345.657
345.719
345.832
346.015
346.097
345.973
345.793
345.682
345.62
345.6
345.599
345.602
345.602
345.6
345.596
345.596
345.615
345.678
345.789
345.97
346.05
345.928
345.751
345.64
345.578
345.558
345.556
345.559
345.559
345.557
345.553
345.554
345.574
345.636
345.747
345.925
346.003
345.883
345.708
345.599
345.536
345.516
345.514
345.517
345.517
345.515
345.511
345.512
345.532
345.595
345.704
345.88
345.957
345.838
345.665
345.557
345.494
345.474
345.472
345.475
345.475
345.473
345.469
345.47
345.49
345.553
345.661
345.835
345.91
345.793
345.623
345.515
345.452
345.432
345.43
345.432
345.432
345.43
345.427
345.428
345.448
345.511
345.619
345.79
345.864
345.748
345.58
345.473
345.41
345.389
345.387
345.39
345.39
345.388
345.384
345.386
345.406
345.469
345.576
345.745
345.818
345.703
345.536
345.43
345.367
345.346
345.345
345.347
345.347
345.345
345.342
345.343
345.363
345.426
345.533
345.7
345.771
345.658
345.492
345.387
345.323
345.303
345.301
345.304
345.303
345.302
345.298
345.299
345.319
345.383
345.489
345.655
345.725
345.612
345.448
345.343
345.279
345.259
345.257
345.26
345.26
345.258
345.255
345.255
345.275
345.339
345.444
345.61
345.678
345.566
345.403
345.299
345.234
345.214
345.213
345.215
345.215
345.214
345.21
345.211
345.231
345.295
345.399
345.564
345.631
345.52
345.357
345.253
345.189
345.169
345.168
345.17
345.17
345.168
345.165
345.166
345.185
345.25
345.353
345.517
345.583
345.472
345.31
345.207
345.143
345.123
345.122
345.124
345.123
345.122
345.119
345.12
345.139
345.204
345.306
345.47
345.535
345.424
345.262
345.161
345.096
345.076
345.075
345.077
345.076
345.075
345.072
345.073
345.092
345.157
345.259
345.421
345.486
345.374
345.214
345.113
345.048
345.028
345.027
345.029
345.028
345.027
345.024
345.025
345.044
345.109
345.21
345.371
345.435
345.323
345.164
345.064
344.999
344.979
344.978
344.98
344.979
344.978
344.975
344.976
344.995
345.06
345.16
345.32
345.383
345.271
345.113
345.013
344.948
344.929
344.928
344.929
344.929
344.928
344.925
344.925
344.945
345.01
345.109
345.268
345.33
345.218
345.06
344.961
344.896
344.877
344.876
344.878
344.877
344.876
344.873
344.874
344.893
344.958
345.056
345.215
345.276
345.163
345.006
344.908
344.843
344.824
344.823
344.825
344.824
344.823
344.82
344.82
344.84
344.905
345.002
345.16
345.219
345.106
344.95
344.853
344.788
344.769
344.768
344.77
344.769
344.768
344.765
344.766
344.784
344.85
344.947
345.104
345.162
345.048
344.893
344.796
344.731
344.712
344.711
344.713
344.712
344.712
344.709
344.709
344.727
344.793
344.889
345.045
345.102
344.988
344.833
344.737
344.672
344.653
344.653
344.655
344.654
344.653
344.65
344.65
344.668
344.734
344.83
344.985
345.041
344.926
344.771
344.676
344.61
344.592
344.592
344.594
344.593
344.592
344.59
344.589
344.607
344.673
344.768
344.923
344.977
344.862
344.707
344.613
344.547
344.529
344.529
344.531
344.53
344.53
344.527
344.526
344.544
344.61
344.704
344.859
344.912
344.796
344.641
344.548
344.481
344.464
344.464
344.466
344.465
344.465
344.462
344.461
344.478
344.544
344.638
344.793
344.845
344.727
344.573
344.48
344.413
344.396
344.397
344.399
344.398
344.397
344.394
344.393
344.41
344.476
344.569
344.724
344.775
344.656
344.502
344.409
344.342
344.326
344.327
344.329
344.328
344.327
344.324
344.323
344.34
344.406
344.498
344.653
344.703
344.583
344.428
344.336
344.269
344.253
344.254
344.256
344.255
344.255
344.252
344.25
344.266
344.333
344.424
344.58
344.628
344.506
344.351
344.261
344.193
344.177
344.179
344.181
344.18
344.18
344.177
344.175
344.19
344.257
344.348
344.504
344.551
344.427
344.272
344.182
344.114
344.099
344.101
344.103
344.102
344.102
344.099
344.096
344.112
344.179
344.269
344.425
344.471
344.345
344.19
344.1
344.032
344.017
344.02
344.022
344.021
344.021
344.018
344.015
344.03
344.097
344.186
344.343
344.387
344.26
344.104
344.015
343.947
343.933
343.936
343.938
343.937
343.937
343.933
343.93
343.944
344.012
344.1
344.257
344.3
344.171
344.014
343.926
343.858
343.844
343.848
343.85
343.849
343.849
343.845
343.841
343.855
343.923
344.011
344.168
344.21
344.078
343.921
343.833
343.764
343.751
343.755
343.758
343.756
343.757
343.753
343.749
343.762
343.83
343.917
344.075
344.114
343.98
343.822
343.736
343.667
343.654
343.659
343.661
343.66
343.66
343.656
343.651
343.664
343.733
343.819
343.977
344.014
343.877
343.719
343.633
343.563
343.552
343.557
343.559
343.558
343.558
343.554
343.549
343.561
343.63
343.715
343.874
343.907
343.768
343.609
343.524
343.454
343.443
343.449
343.452
343.45
343.45
343.446
343.441
343.452
343.521
343.605
343.765
343.794
343.652
343.492
343.408
343.338
343.327
343.334
343.337
343.335
343.336
343.331
343.325
343.335
343.405
343.489
343.649
343.673
343.528
343.367
343.284
343.213
343.204
343.21
343.214
343.212
343.212
343.208
343.201
343.211
343.281
343.363
343.524
343.542
343.393
343.231
343.149
343.079
343.07
343.077
343.081
343.079
343.08
343.075
343.067
343.076
343.147
343.228
343.39
343.399
343.247
343.084
343.003
342.932
342.924
342.932
342.936
342.934
342.935
342.93
342.922
342.93
343.001
343.081
343.244
343.242
343.086
342.922
342.843
342.772
342.765
342.774
342.778
342.776
342.777
342.772
342.762
342.769
342.841
342.919
343.083
343.069
342.908
342.743
342.666
342.594
342.588
342.598
342.602
342.6
342.601
342.596
342.586
342.592
342.663
342.74
342.905
342.874
342.709
342.543
342.467
342.394
342.39
342.4
342.405
342.403
342.404
342.398
342.388
342.392
342.464
342.539
342.706
342.653
342.482
342.314
342.24
342.167
342.164
342.176
342.181
342.179
342.18
342.174
342.162
342.166
342.238
342.311
342.479
342.396
342.218
342.048
341.976
341.902
341.901
341.914
341.92
341.917
341.919
341.912
341.899
341.901
341.974
342.045
342.215
342.088
341.901
341.726
341.657
341.582
341.583
341.597
341.604
341.601
341.603
341.596
341.581
341.581
341.655
341.723
341.897
341.702
341.503
341.322
341.256
341.18
341.183
341.201
341.209
341.206
341.208
341.199
341.182
341.179
341.255
341.319
341.499
341.2
340.985
340.798
340.736
340.658
340.665
340.685
340.695
340.691
340.694
340.684
340.664
340.658
340.735
340.795
340.982
340.525
340.29
340.092
340.036
339.956
339.967
339.991
340.003
340
340.002
339.99
339.967
339.957
340.036
340.09
340.286
339.587
339.326
339.117
339.068
338.986
339.002
339.031
339.045
339.042
339.045
339.031
339.002
338.987
339.068
339.115
339.323
338.273
337.983
337.76
337.721
337.636
337.659
337.694
337.711
337.707
337.711
337.694
337.66
337.639
337.722
337.759
337.979
336.478
336.164
335.932
335.902
335.817
335.845
335.885
335.905
335.901
335.906
335.886
335.847
335.82
335.904
335.931
336.16
334.189
333.865
333.634
333.613
333.53
333.562
333.605
333.627
333.623
333.627
333.606
333.565
333.533
333.615
333.634
333.861
331.523
331.21
330.994
330.978
330.902
330.935
330.977
330.999
330.995
330.999
330.979
330.938
330.906
330.981
330.994
331.207