/*--------------------------------*- C++ -*----------------------------------*\
| =========                 |                                                 |
| \\      /  F ield         | OpenFOAM: The Open Source CFD Toolbox           |
|  \\    /   O peration     | Version:  v1912                                 |
|   \\  /    A nd           | Website:  www.openfoam.com                      |
|    \\/     M anipulation  |                                                 |
\*---------------------------------------------------------------------------*/
FoamFile
{
    version     2.0;
    format      ascii;
    class       volVectorField;
    location    "196.4";
    object      U;
}
// * * * * * * * * * * * * * * * * * * * * * * * * * * * * * * * * * * * * * //

dimensions      [0 1 -1 0 0 0 0];


internalField   nonuniform List<vector> 
10077
(
(2.36868e-06 -0.00172929 -0.00501336)
(0.00252374 5.86096e-05 -0.00312058)
(0.000974724 -4.17155e-07 -0.0025012)
(0.000163445 -6.06947e-06 -0.00451104)
(0.00037372 -5.36919e-06 -0.00448643)
(0.000185533 -5.99044e-06 -0.00491642)
(0.000140995 -6.2938e-06 -0.00499857)
(5.80131e-05 -6.32425e-06 -0.00509871)
(-1.03365e-06 -6.45307e-06 -0.00509018)
(-6.05901e-05 -6.31742e-06 -0.00509394)
(-0.000143316 -6.28353e-06 -0.0049865)
(-0.000187586 -5.97737e-06 -0.0049001)
(-0.000374701 -5.36388e-06 -0.00446654)
(-0.000161816 -6.07774e-06 -0.00449464)
(-0.000971481 -4.18089e-07 -0.00249083)
(-0.00252286 5.86257e-05 -0.00310065)
(7.41295e-06 0.00454168 -0.0150382)
(0.000438279 0.000163009 -0.00654459)
(0.002171 -7.16185e-05 -0.00471967)
(4.54347e-05 -3.56417e-05 -0.0107036)
(0.000704564 -3.82558e-05 -0.0105752)
(0.000366692 -3.75627e-05 -0.011824)
(0.000320907 -3.79934e-05 -0.0120592)
(0.000131094 -3.74357e-05 -0.0123557)
(-3.6274e-06 -3.79361e-05 -0.0123307)
(-0.000139593 -3.74358e-05 -0.0123415)
(-0.000328021 -3.80166e-05 -0.0120232)
(-0.000372071 -3.75906e-05 -0.0117749)
(-0.000705879 -3.83051e-05 -0.0105152)
(-3.9935e-05 -3.57051e-05 -0.0106532)
(-0.00216225 -7.1615e-05 -0.00468768)
(-0.000436221 0.000163066 -0.0064849)
(1.22255e-05 -0.00277249 -0.0245602)
(-0.00490759 0.000262019 -0.00750358)
(0.00249761 -0.000175056 -0.00433676)
(-0.000289682 -7.60631e-05 -0.014238)
(0.000821414 -8.89277e-05 -0.0139816)
(0.000444271 -8.54222e-05 -0.0160273)
(0.00044262 -8.64458e-05 -0.0164079)
(0.000180341 -8.50072e-05 -0.0168978)
(-5.88778e-06 -8.61148e-05 -0.016857)
(-0.000193889 -8.50165e-05 -0.0168743)
(-0.00045345 -8.65251e-05 -0.016348)
(-0.000451941 -8.55238e-05 -0.0159455)
(-0.000822311 -8.90676e-05 -0.0138813)
(0.000298364 -7.62204e-05 -0.0141532)
(-0.00248487 -0.000175043 -0.00428306)
(0.00490971 0.000262064 -0.00740496)
(1.64993e-05 0.00209093 -0.032259)
(-0.00956074 0.000372496 -0.00610752)
(0.00258028 -0.000325173 -0.00151015)
(-0.000612883 -0.000126194 -0.0152322)
(0.000903888 -0.000152841 -0.0148454)
(0.000495727 -0.000144382 -0.017676)
(0.000539784 -0.000145891 -0.0181971)
(0.000219291 -0.000143113 -0.0188763)
(-7.47962e-06 -0.000144939 -0.0188201)
(-0.000236453 -0.000143139 -0.0188435)
(-0.00055311 -0.000146054 -0.0181137)
(-0.000505007 -0.000144596 -0.0175618)
(-0.000904327 -0.000153087 -0.0147056)
(0.000623774 -0.000126463 -0.0151135)
(-0.0025646 -0.000325135 -0.00143549)
(0.00956197 0.000372483 -0.00597159)
(2.01602e-05 -0.0010535 -0.0375998)
(-0.0126596 0.000467359 -0.00255035)
(0.00266436 -0.000509269 0.0035402)
(-0.000880676 -0.000178808 -0.0138658)
(0.000978648 -0.00022377 -0.013348)
(0.000533664 -0.000208022 -0.0169469)
(0.000616751 -0.000210111 -0.017603)
(0.000249469 -0.000205672 -0.0184657)
(-8.45635e-06 -0.00020833 -0.0183945)
(-0.000268943 -0.000205716 -0.0184238)
(-0.000631555 -0.000210374 -0.0174965)
(-0.000544047 -0.000208368 -0.0168011)
(-0.000978662 -0.000224158 -0.0131699)
(0.000892978 -0.000179212 -0.0137141)
(-0.00264652 -0.000509181 0.00363477)
(0.0126593 0.000467249 -0.00237903)
(2.31323e-05 -0.000564144 -0.0406097)
(-0.0148148 0.000566691 0.00290408)
(0.00268927 -0.000712637 0.0105398)
(-0.00111723 -0.000231904 -0.0103553)
(0.00102256 -0.000298441 -0.00970256)
(0.000549296 -0.000273573 -0.0140427)
(0.000669566 -0.000276403 -0.014826)
(0.000269285 -0.000270012 -0.0158643)
(-8.90827e-06 -0.000273612 -0.0157788)
(-0.000289938 -0.000270077 -0.0158136)
(-0.000684937 -0.000276781 -0.0146972)
(-0.000560272 -0.000274074 -0.0138663)
(-0.00102208 -0.000299016 -0.0094877)
(0.00113027 -0.000232464 -0.0101717)
(-0.00267002 -0.00071247 0.0106529)
(0.0148123 0.000566469 0.00310862)
(2.53417e-05 -0.000962465 -0.0412741)
(-0.0162246 0.000669709 0.00998675)
(0.00263255 -0.000928165 0.0191443)
(-0.00132843 -0.000282847 -0.00496131)
(0.00102937 -0.000373601 -0.00417196)
(0.000541033 -0.000339073 -0.00921103)
(0.000697779 -0.000342892 -0.0101117)
(0.000278613 -0.000334409 -0.0113152)
(-8.90213e-06 -0.000339037 -0.0112162)
(-0.000299447 -0.000334491 -0.011256)
(-0.000712915 -0.000343384 -0.00996172)
(-0.000552128 -0.000339729 -0.00900582)
(-0.0010283 -0.000374346 -0.0039227)
(0.00134159 -0.000283546 -0.00474763)
(-0.00261261 -0.000927886 0.0192741)
(0.0162196 0.000669362 0.0102217)
(2.67612e-05 -0.00125243 -0.0396924)
(-0.0170122 0.00077839 0.0183809)
(0.00249044 -0.00114935 0.028924)
(-0.00151445 -0.000329424 0.00197532)
(0.000999621 -0.000446197 0.00289767)
(0.000510543 -0.000401525 -0.00278271)
(0.000702832 -0.00040659 -0.00378988)
(0.000278148 -0.000395981 -0.00514587)
(-8.51471e-06 -0.000401697 -0.0050346)
(-0.000298323 -0.000396069 -0.00507882)
(-0.000717065 -0.000407185 -0.00362034)
(-0.000521349 -0.000402322 -0.00255102)
(-0.000997916 -0.000447084 0.00317814)
(0.00152721 -0.000330235 0.00221659)
(-0.00247046 -0.00114893 0.0290681)
(0.0170045 0.0007779 0.0186428)
(2.74435e-05 -0.00158119 -0.0361589)
(-0.0172637 0.000891642 0.0277195)
(0.00227576 -0.00137046 0.0394202)
(-0.00167358 -0.000369844 0.0100472)
(0.000938584 -0.000513595 0.0110929)
(0.000461882 -0.000458327 0.0048367)
(0.000687919 -0.000464839 0.00373297)
(0.000269351 -0.00045207 0.00223659)
(-7.83629e-06 -0.000458917 0.00235907)
(-0.000288215 -0.000452157 0.00231089)
(-0.000700746 -0.000465523 0.00392023)
(-0.00047208 -0.000459252 0.00509213)
(-0.000936221 -0.000514596 0.0114009)
(0.00168554 -0.00037074 0.0103132)
(-0.00225632 -0.00136987 0.0395759)
(0.0172531 0.000891007 0.0280041)
(2.75156e-05 -0.00187582 -0.0311183)
(-0.0170312 0.00101046 0.0376382)
(0.00200897 -0.00158507 0.0502424)
(-0.00180317 -0.000402558 0.0188589)
(0.000855466 -0.000573485 0.0200142)
(0.000400732 -0.000507311 0.0132442)
(0.00065756 -0.000515403 0.0120513)
(0.000254226 -0.000500436 0.0104242)
(-6.95717e-06 -0.000508438 0.0105569)
(-0.00027132 -0.000500512 0.0105052)
(-0.000668642 -0.000516166 0.0122547)
(-0.000410099 -0.000508352 0.0135208)
(-0.000852475 -0.000574574 0.0203465)
(0.00181401 -0.000403515 0.0191466)
(-0.0019905 -0.00158428 0.0504073)
(0.0170176 0.00100966 0.0379414)
(2.71321e-05 -0.00215128 -0.0250154)
(-0.0163526 0.00113355 0.0478394)
(0.00170676 -0.00178848 0.0611981)
(-0.0019003 -0.000425904 0.0281057)
(0.000761053 -0.000623733 0.0293562)
(0.000333273 -0.000546573 0.0221243)
(0.000616678 -0.00055634 0.020847)
(0.000234905 -0.000539151 0.0190959)
(-5.95014e-06 -0.000548321 0.019238)
(-0.00024993 -0.000539209 0.0191833)
(-0.000625812 -0.000557171 0.0210653)
(-0.000341673 -0.000547716 0.02242)
(-0.000757496 -0.000624883 0.0297096)
(0.00190982 -0.000426894 0.0284129)
(-0.00168957 -0.00178747 0.0613705)
(0.0163364 0.00113253 0.048158)
(2.64364e-05 -0.00240885 -0.0181773)
(-0.0152854 0.00125845 0.0581863)
(0.00138536 -0.00197759 0.0722124)
(-0.0019646 -0.000438555 0.0376531)
(0.000662956 -0.000662913 0.0389949)
(0.000264281 -0.000574608 0.031309)
(0.00056933 -0.000586101 0.0299447)
(0.000213162 -0.000566639 0.0280641)
(-4.86146e-06 -0.000576982 0.0282162)
(-0.000225925 -0.000566675 0.0281581)
(-0.000576388 -0.000586993 0.0301782)
(-0.00027161 -0.000575845 0.0316237)
(-0.00065887 -0.000664103 0.0393685)
(0.00197268 -0.000439556 0.037979)
(-0.00136965 -0.00197634 0.072391)
(0.0152672 0.00125723 0.058517)
(2.55302e-05 -0.00265338 -0.0108014)
(-0.013905 0.00138954 0.0685979)
(0.00105841 -0.00214866 0.0831732)
(-0.00199888 -0.000439937 0.0474996)
(0.000563869 -0.000690005 0.0489263)
(0.000195623 -0.000590475 0.0407983)
(0.000517576 -0.000603751 0.0393458)
(0.000189868 -0.000581965 0.0373328)
(-3.7141e-06 -0.00059349 0.037495)
(-0.000200226 -0.000581975 0.0374336)
(-0.000522466 -0.000604698 0.0395947)
(-0.000201801 -0.000591799 0.0411316)
(-0.000559262 -0.000691214 0.0493186)
(0.00200547 -0.000440934 0.0478432)
(-0.00104428 -0.00214717 0.0833564)
(0.0138858 0.00138812 0.0689373)
(2.44804e-05 -0.002871 -0.00298062)
(-0.0123102 0.0015293 0.0789483)
(0.000735338 -0.00229875 0.0939623)
(-0.00200775 -0.000429925 0.0576098)
(0.00046404 -0.00070406 0.0590992)
(0.000127651 -0.000593407 0.0505877)
(0.000462355 -0.000608483 0.0490537)
(0.000165373 -0.000584311 0.0469204)
(-2.53646e-06 -0.000597026 0.0470908)
(-0.000173249 -0.000584293 0.0470272)
(-0.000465045 -0.000609482 0.0493167)
(-0.00013263 -0.000594811 0.0509377)
(-0.000458927 -0.000705269 0.0595075)
(0.00201287 -0.000430907 0.0579688)
(-0.000722783 -0.00229703 0.094149)
(0.0122907 0.00152762 0.0792928)
(2.33237e-05 -0.00305745 0.00531758)
(-0.0105835 0.00167734 0.0891338)
(0.000426052 -0.00242622 0.104486)
(-0.00199587 -0.000408635 0.0678915)
(0.000363958 -0.00070472 0.0694176)
(6.07688e-05 -0.000583067 0.0605876)
(0.00040473 -0.000599897 0.0589793)
(0.000140111 -0.000573235 0.0567401)
(-1.36643e-06 -0.000587141 0.0569167)
(-0.000145508 -0.000573191 0.0568522)
(-0.000405256 -0.000600947 0.0592551)
(-6.45466e-05 -0.000584552 0.0609521)
(-0.000358377 -0.000705917 0.0698386)
(0.00199956 -0.000409589 0.0682632)
(-0.000415012 -0.00242428 0.104675)
(0.0105645 0.00167539 0.0894805)
(2.20875e-05 -0.00323086 0.0141396)
(-0.00878343 0.00183443 0.0990728)
(0.000139548 -0.00253032 0.114671)
(-0.00196638 -0.000376173 0.0782572)
(0.000265151 -0.0006921 0.0797925)
(-4.18152e-06 -0.000559674 0.0707101)
(0.000345929 -0.000578171 0.0690348)
(0.000114594 -0.000548895 0.0667051)
(-2.31998e-07 -0.000563995 0.0668855)
(-0.000117577 -0.000548831 0.0668216)
(-0.000344377 -0.000579276 0.069322)
(1.5748e-06 -0.000561243 0.0710872)
(-0.000259163 -0.000693273 0.0802232)
(0.00196872 -0.000377091 0.078639)
(-0.000129894 -0.00252818 0.114862)
(0.00876555 0.00183218 0.0994188)
(2.08045e-05 -0.00340533 0.0234382)
(-0.0069639 0.00199966 0.108702)
(-0.000117584 -0.002611 0.124463)
(-0.00192177 -0.000332889 0.088624)
(0.000169287 -0.000666602 0.0901413)
(-6.61643e-05 -0.000523723 0.0808728)
(0.000287202 -0.000543766 0.0791375)
(8.93494e-05 -0.000511725 0.0767331)
(8.44723e-07 -0.000528023 0.076915)
(-9.00339e-05 -0.000511652 0.0768532)
(-0.0002837 -0.000544932 0.0794347)
(6.46758e-05 -0.00052538 0.0812603)
(-0.000162956 -0.000667746 0.0905786)
(0.00192286 -0.000333769 0.0890133)
(0.000126033 -0.00260869 0.124655)
(0.00694777 0.00199707 0.109045)
(1.95091e-05 -0.00357954 0.0331093)
(-0.00517518 0.00217154 0.117972)
(-0.000341081 -0.00266876 0.13382)
(-0.0018649 -0.000279413 0.0989065)
(7.75817e-05 -0.000629019 0.100381)
(-0.000124436 -0.000475835 0.0909902)
(0.000229625 -0.000497335 0.0892024)
(6.48268e-05 -0.000462331 0.0867393)
(1.84393e-06 -0.000479837 0.0869204)
(-6.337e-05 -0.000462265 0.0868621)
(-0.000224333 -0.000498572 0.0895082)
(0.000123994 -0.000477586 0.091386)
(-7.09738e-05 -0.000630142 0.100822)
(0.00186487 -0.00028027 0.0993008)
(0.000348543 -0.00266631 0.134012)
(0.00516131 0.00216859 0.11831)
(1.82351e-05 -0.00375293 0.0430165)
(-0.00346379 0.00234833 0.126848)
(-0.000528822 -0.00270452 0.142712)
(-0.001799 -0.000216732 0.109011)
(-9.10888e-06 -0.000580401 0.110423)
(-0.000178468 -0.00041688 0.100967)
(0.000174158 -0.000439732 0.0991356)
(4.14355e-05 -0.000401457 0.0966289)
(2.74824e-06 -0.000420175 0.0968077)
(-3.80327e-05 -0.000401412 0.0967537)
(-0.000167265 -0.000441054 0.0994483)
(0.000178984 -0.000418747 0.101369)
(1.59279e-05 -0.000581516 0.110866)
(0.00179801 -0.000217576 0.109408)
(0.00053554 -0.00270198 0.142904)
(0.00345258 0.00234499 0.127178)
(1.7013e-05 -0.00392786 0.053006)
(-0.00187202 0.00252811 0.1353)
(-0.000680611 -0.00271956 0.151119)
(-0.001727 -0.000146071 0.118837)
(-9.009e-05 -0.000521942 0.120178)
(-0.000227507 -0.000348039 0.1107)
(0.000121829 -0.000372108 0.108835)
(1.96017e-05 -0.000330247 0.106299)
(3.54569e-06 -0.000350203 0.106475)
(-1.44751e-05 -0.000330261 0.106426)
(-0.000113544 -0.000373527 0.109153)
(0.000228885 -0.000350044 0.111106)
(9.7079e-05 -0.000523071 0.120619)
(0.00172524 -0.000146929 0.119235)
(0.000686835 -0.00271697 0.15131)
(0.00186369 0.00252437 0.135623)
(1.58654e-05 -0.00409846 0.0629357)
(-0.000436329 0.00270908 0.14331)
(-0.00079791 -0.00271547 0.159033)
(-0.00165062 -6.86492e-05 0.12829)
(-0.000163984 -0.000454968 0.129555)
(-0.000270507 -0.000270873 0.120091)
(7.36577e-05 -0.000295921 0.118212)
(-3.0476e-07 -0.000249994 0.115673)
(4.23289e-06 -0.000271212 0.115843)
(6.92361e-06 -0.000250091 0.1158)
(-6.42044e-05 -0.000297464 0.118532)
(0.000272651 -0.000273038 0.1205)
(0.00017113 -0.000456134 0.129994)
(0.00164829 -6.95548e-05 0.128688)
(0.000803886 -0.00271289 0.159223)
(0.000430942 0.00270491 0.143623)
(1.48036e-05 -0.00425339 0.0727176)
(0.00081527 0.00288952 0.150865)
(-0.000883545 -0.0026941 0.16645)
(-0.00157046 1.46798e-05 0.137321)
(-0.000228804 -0.00038102 0.138487)
(-0.0003069 -0.000186543 0.129126)
(3.01707e-05 -0.000212377 0.12725)
(-1.80977e-05 -0.000161904 0.124728)
(4.81489e-06 -0.000184385 0.124891)
(2.59845e-05 -0.000162083 0.124854)
(-1.97631e-05 -0.000214062 0.127569)
(0.00030971 -0.000188897 0.129535)
(0.000236083 -0.000382252 0.138922)
(0.00156779 1.36866e-05 0.137715)
(0.000889503 -0.00269156 0.166639)
(-0.00081779 0.00288492 0.151169)
(1.38291e-05 -0.00438365 0.0823196)
(0.0018691 0.0030685 0.15796)
(-0.000941361 -0.00265774 0.173379)
(-0.00148678 0.000103252 0.145945)
(-0.000283604 -0.000301129 0.146991)
(-0.000336655 -9.59815e-05 0.137821)
(-8.45984e-06 -0.000122508 0.135956)
(-3.37023e-05 -6.72078e-05 0.133455)
(5.2965e-06 -9.1006e-05 0.133611)
(4.26425e-05 -6.75206e-05 0.133581)
(1.9625e-05 -0.000124347 0.136274)
(0.00034003 -9.85526e-05 0.138228)
(0.000290978 -0.000302462 0.147418)
(0.00148394 0.000102134 0.146333)
(0.000947507 -0.00265528 0.173567)
(-0.00186873 0.00306342 0.158254)
(1.29426e-05 -0.004488 0.0917349)
(0.00273432 0.00324653 0.164599)
(-0.000975861 -0.00260888 0.179832)
(-0.00140049 0.000196037 0.154182)
(-0.000328689 -0.000216072 0.155102)
(-0.000360015 -4.16864e-07 0.146168)
(-4.21456e-05 -2.75481e-05 0.144321)
(-4.70828e-05 3.26758e-05 0.141842)
(5.68343e-06 7.55425e-06 0.141992)
(5.68743e-05 3.22281e-05 0.141968)
(5.38896e-05 -2.95612e-05 0.144636)
(0.000363865 -3.21854e-06 0.146571)
(0.000336129 -0.000217536 0.155519)
(0.00139766 0.000194766 0.154562)
(0.000982367 -0.00260656 0.180018)
(-0.00273091 0.00324099 0.164883)
(1.21429e-05 -0.00456917 0.100959)
(0.00343292 0.00341937 0.170802)
(-0.000991982 -0.00254925 0.185829)
(-0.00131319 0.000291782 0.162031)
(-0.000365014 -0.000127053 0.162821)
(-0.000377226 9.93123e-05 0.154173)
(-7.08885e-05 7.16518e-05 0.152351)
(-5.82456e-05 0.000136728 0.149899)
(5.98535e-06 0.000110287 0.150043)
(6.8706e-05 0.000136131 0.150025)
(8.30552e-05 6.94514e-05 0.152662)
(0.000381479 9.62601e-05 0.15457)
(0.000372521 -0.000128692 0.163226)
(0.00131054 0.000290304 0.162402)
(0.000998984 -0.00254711 0.186013)
(-0.00342635 0.00341343 0.171076)
(1.14312e-05 -0.00462896 0.109981)
(0.00398412 0.0035823 0.176623)
(-0.000994691 -0.00247952 0.191392)
(-0.00122599 0.000389758 0.169499)
(-0.000393388 -3.50091e-05 0.170149)
(-0.00038848 0.000202557 0.161849)
(-9.47609e-05 0.00017444 0.160063)
(-6.72397e-05 0.000244231 0.157648)
(6.21151e-06 0.000216444 0.157787)
(7.82083e-05 0.000243451 0.157774)
(0.000107216 0.000172039 0.160368)
(0.000393082 0.00019923 0.162238)
(0.00040099 -3.68785e-05 0.170542)
(0.00122369 0.000388006 0.169857)
(0.00100229 -0.00247759 0.191574)
(-0.00397447 0.00357593 0.176886)
(1.08073e-05 -0.00466647 0.118781)
(0.00439635 0.00373675 0.182101)
(-0.000988709 -0.00240079 0.196548)
(-0.00113956 0.000489291 0.176593)
(-0.000414337 5.92391e-05 0.177097)
(-0.000394125 0.000308724 0.169212)
(-0.000113947 0.000280253 0.167475)
(-7.41565e-05 0.000354608 0.165112)
(6.3723e-06 0.000325556 0.165245)
(8.54926e-05 0.000353695 0.165237)
(0.000126576 0.000277632 0.167771)
(0.000399036 0.00030509 0.169591)
(0.00042207 5.70749e-05 0.177474)
(0.00113777 0.000487197 0.176938)
(0.000996967 -0.00239912 0.196728)
(-0.00438396 0.00372995 0.182353)
(1.02704e-05 -0.00467953 0.127335)
(0.00467103 0.00388174 0.187246)
(-0.000977647 -0.00231452 0.201326)
(-0.00105464 0.00058948 0.183324)
(-0.000428592 0.00015483 0.183673)
(-0.000394657 0.000417242 0.176274)
(-0.000128711 0.000388571 0.174599)
(-7.91142e-05 0.000467454 0.172307)
(6.47746e-06 0.000437196 0.172433)
(9.0696e-05 0.000466413 0.172431)
(0.00014142 0.000385702 0.174884)
(0.000399849 0.00041326 0.176639)
(0.000436491 0.0001523 0.184031)
(0.00105349 0.000586967 0.183652)
(0.000986591 -0.00231313 0.201505)
(-0.00465631 0.00387454 0.187488)
(9.81849e-06 -0.00466741 0.135616)
(0.00481846 0.0040143 0.192066)
(-0.000963721 -0.00222142 0.205757)
(-0.000972109 0.000689324 0.189696)
(-0.000437096 0.000250874 0.189884)
(-0.000390719 0.000527502 0.183036)
(-0.000139399 0.000498849 0.181437)
(-8.22584e-05 0.00058235 0.179237)
(6.53516e-06 0.000550898 0.179355)
(9.39827e-05 0.000581164 0.17936)
(0.000152115 0.000495694 0.18171)
(0.000396176 0.000523119 0.183385)
(0.000445191 0.0002479 0.190222)
(0.000971694 0.000686312 0.190005)
(0.000973357 -0.00222036 0.205933)
(-0.00480173 0.00400672 0.192298)
(9.44835e-06 -0.00462906 0.143599)
(0.00485832 0.00413338 0.196572)
(-0.000948748 -0.00212215 0.209873)
(-0.000892837 0.000787622 0.195705)
(-0.000440917 0.0003464 0.195735)
(-0.000383096 0.000638748 0.18949)
(-0.000146435 0.000610405 0.187979)
(-8.37692e-05 0.000698728 0.185894)
(6.5536e-06 0.000666101 0.186001)
(9.55501e-05 0.000697389 0.186015)
(0.000159103 0.000606916 0.188237)
(0.000388813 0.000633902 0.189821)
(0.000449231 0.000342899 0.196051)
(0.000893216 0.000784032 0.195994)
(0.000959068 -0.00212143 0.210049)
(-0.00483991 0.00412544 0.196794)
(9.15572e-06 -0.00456063 0.151261)
(0.00481157 0.0042379 0.200776)
(-0.000934667 -0.00201816 0.213714)
(-0.000817449 0.000882981 0.201344)
(-0.000441093 0.000440268 0.201224)
(-0.000372645 0.000749919 0.195614)
(-0.000150303 0.000722249 0.194201)
(-8.38594e-05 0.000815749 0.192252)
(6.54073e-06 0.00078194 0.192347)
(9.56284e-05 0.000814243 0.192371)
(0.000162887 0.000718368 0.194444)
(0.000378622 0.000744541 0.195925)
(0.000449642 0.000436164 0.201518)
(0.000818647 0.000878741 0.201613)
(0.000945653 -0.00201779 0.213887)
(-0.00479179 0.00422963 0.200989)
(8.9353e-06 -0.00445925 0.158587)
(0.00469835 0.00432764 0.204694)
(-0.000923859 -0.00191107 0.217306)
(-0.000746189 0.000973981 0.206611)
(-0.000438483 0.000531235 0.206352)
(-0.000360172 0.000859578 0.201381)
(-0.000151508 0.000832994 0.200071)
(-8.27618e-05 0.000932137 0.198275)
(6.5052e-06 0.00089712 0.198354)
(9.44688e-05 0.000930447 0.19839)
(0.00016399 0.000828662 0.200297)
(0.000366416 0.000853599 0.201671)
(0.000447274 0.00052647 0.206624)
(0.000748209 0.000969038 0.20686)
(0.000935486 -0.00191106 0.217478)
(-0.00467753 0.00431905 0.204899)
(8.78187e-06 -0.00432627 0.165562)
(0.00453643 0.00440312 0.208343)
(-0.000919085 -0.00180171 0.220668)
(-0.000679011 0.00105943 0.21151)
(-0.00043372 0.000618175 0.211123)
(-0.000346345 0.000965994 0.206768)
(-0.000150539 0.000940886 0.20556)
(-8.07111e-05 0.00104617 0.203926)
(6.45642e-06 0.00100992 0.203989)
(9.2326e-05 0.00104428 0.204037)
(0.000162915 0.000936048 0.205769)
(0.000352863 0.000959356 0.207038)
(0.000442761 0.000612717 0.211375)
(0.000681841 0.00105376 0.211741)
(0.000931314 -0.00180207 0.220839)
(-0.00451488 0.00439423 0.20854)
(8.69024e-06 -0.00416666 0.17216)
(0.00433962 0.00446446 0.21174)
(-0.000922201 -0.00169021 0.223817)
(-0.000615806 0.0011383 0.216054)
(-0.00042731 0.00070024 0.21555)
(-0.000331699 0.00106749 0.211764)
(-0.000147851 0.00104405 0.210651)
(-7.79291e-05 0.00115584 0.209181)
(6.40344e-06 0.00111832 0.209225)
(8.944e-05 0.00115373 0.209287)
(0.000160128 0.00103868 0.210845)
(0.000338497 0.00106017 0.212015)
(0.000436606 0.000694086 0.215783)
(0.000619424 0.0011319 0.216268)
(0.000934968 -0.00169094 0.223986)
(-0.00431761 0.00445528 0.21193)
(8.65423e-06 -0.00398146 0.178338)
(0.00411669 0.00451166 0.214905)
(-0.000933662 -0.00157686 0.226766)
(-0.00055651 0.00120993 0.220259)
(-0.000419724 0.000776865 0.219648)
(-0.000316714 0.0011627 0.216373)
(-0.000143871 0.00114096 0.215344)
(-7.46211e-05 0.00125939 0.214029)
(6.35386e-06 0.0012206 0.214055)
(8.60321e-05 0.00125705 0.214131)
(0.000156068 0.00113508 0.215524)
(0.0003238 0.0011547 0.216605)
(0.00042928 0.000770036 0.219865)
(0.000560884 0.00120283 0.220458)
(0.000946892 -0.00157796 0.226934)
(-0.00409443 0.00450223 0.215088)
(8.66469e-06 -0.00382436 0.184039)
(0.00387088 0.00454497 0.217855)
(-0.000951089 -0.00146196 0.229531)
(-0.000501114 0.00127396 0.224143)
(-0.000411427 0.000847795 0.223436)
(-0.000301868 0.00125073 0.220604)
(-0.000139029 0.00123052 0.219648)
(-7.09884e-05 0.00135545 0.218477)
(6.31321e-06 0.0013154 0.218485)
(8.23158e-05 0.00135287 0.218574)
(0.000151173 0.00122415 0.219815)
(0.00030925 0.00124207 0.220822)
(0.000421241 0.000840331 0.22364)
(0.000506203 0.0012662 0.22433)
(0.000964683 -0.00146343 0.229698)
(-0.0038485 0.00453531 0.218032)
(8.70719e-06 -0.00368806 0.189206)
(0.00360502 0.00456359 0.220609)
(-0.000969813 -0.00134512 0.232129)
(-0.000449652 0.00133026 0.227726)
(-0.000402874 0.000912949 0.226934)
(-0.000287633 0.00133116 0.224476)
(-0.000133751 0.00131226 0.223579)
(-6.72298e-05 0.00144334 0.222538)
(6.28509e-06 0.00140208 0.222528)
(7.84976e-05 0.00144053 0.22263)
(0.000145869 0.00130544 0.223735)
(0.000295316 0.00132191 0.22468)
(0.000412945 0.000904897 0.227126)
(0.000455412 0.0013219 0.227902)
(0.000983665 -0.00134694 0.232294)
(-0.00358257 0.00455369 0.220782)
(8.76167e-06 -0.00350589 0.193826)
(0.00332852 0.00456616 0.223194)
(-0.000986285 -0.00122537 0.234587)
(-0.000402223 0.001379 0.231026)
(-0.000394544 0.000972414 0.23016)
(-0.000274466 0.00140392 0.228008)
(-0.000128438 0.00138607 0.227157)
(-6.35327e-05 0.00152287 0.226229)
(6.27135e-06 0.00148045 0.226204)
(7.47694e-05 0.00151984 0.226318)
(0.00014056 0.00137885 0.227304)
(0.000282448 0.00139413 0.228201)
(0.000404874 0.00096383 0.230343)
(0.000408605 0.0013701 0.231194)
(0.00100032 -0.00122751 0.234751)
(-0.00330595 0.00455601 0.223362)
(8.81923e-06 -0.00325567 0.198024)
(0.00305509 0.00455184 0.225635)
(-0.00100026 -0.00110265 0.23693)
(-0.000358961 0.00142032 0.234062)
(-0.000386875 0.00102634 0.23313)
(-0.00026277 0.00146918 0.231223)
(-0.000123439 0.00145212 0.230404)
(-6.00607e-05 0.00159418 0.229573)
(6.27254e-06 0.00155067 0.229533)
(7.1296e-05 0.00159093 0.229658)
(0.000135592 0.00144456 0.230545)
(0.000271045 0.00145891 0.231406)
(0.000397465 0.00101728 0.233307)
(0.000365917 0.00141094 0.234224)
(0.00101445 -0.00110509 0.237094)
(-0.00303234 0.00454145 0.2258)
(8.88423e-06 -0.00294785 0.201919)
(0.0027974 0.00452064 0.227955)
(-0.00101448 -0.000977449 0.23917)
(-0.000319572 0.00145424 0.236851)
(-0.000379866 0.00107496 0.23586)
(-0.00025262 0.0015273 0.234142)
(-0.000118921 0.0015108 0.233346)
(-5.69074e-05 0.00165763 0.232593)
(6.28956e-06 0.00161313 0.232539)
(6.81725e-05 0.00165419 0.232675)
(0.000131125 0.00150294 0.233481)
(0.000261176 0.00151661 0.234318)
(0.000390717 0.00106548 0.236032)
(0.000327064 0.00144445 0.237007)
(0.00102882 -0.000980177 0.239333)
(-0.0027744 0.00451001 0.228116)
(8.95848e-06 -0.00266288 0.205543)
(0.00256248 0.00447302 0.230166)
(-0.00103088 -0.000849811 0.241312)
(-0.00028311 0.0014815 0.239409)
(-0.000372869 0.00111869 0.238368)
(-0.000243478 0.00157874 0.236794)
(-0.000114722 0.00156256 0.236009)
(-5.40234e-05 0.00171371 0.235319)
(6.32717e-06 0.00166829 0.235253)
(6.53589e-05 0.00171008 0.235398)
(0.000127005 0.00155444 0.23614)
(0.000252299 0.00156767 0.236965)
(0.000383974 0.00110885 0.238537)
(0.000291094 0.00147134 0.239563)
(0.00104535 -0.000852853 0.241475)
(-0.00253923 0.00446219 0.230324)
(9.03846e-06 -0.00239528 0.208926)
(0.00235006 0.0044101 0.23228)
(-0.00104916 -0.000720078 0.243362)
(-0.000248618 0.00150351 0.24177)
(-0.000365112 0.00115821 0.24069)
(-0.000234524 0.00162422 0.239219)
(-0.000110532 0.0016081 0.238439)
(-5.12533e-05 0.00176306 0.237793)
(6.39327e-06 0.0017168 0.237717)
(6.27157e-05 0.00175926 0.23787)
(0.000122934 0.00159977 0.238568)
(0.000243604 0.00161284 0.239387)
(0.000376454 0.00114805 0.240857)
(0.000257038 0.00149304 0.241921)
(0.00106371 -0.000723479 0.243524)
(-0.00232655 0.00439911 0.232436)
(9.11946e-06 -0.00210244 0.212093)
(0.00215927 0.00433286 0.234305)
(-0.00106853 -0.00058874 0.245324)
(-0.00021518 0.00152114 0.243973)
(-0.00035642 0.00119413 0.242869)
(-0.000225378 0.00166463 0.241471)
(-0.000106243 0.00164837 0.24069)
(-4.84951e-05 0.0018067 0.240075)
(6.48993e-06 0.00175966 0.239992)
(6.01449e-05 0.00180275 0.240151)
(0.000118812 0.00163986 0.240818)
(0.000234727 0.00165298 0.241637)
(0.000367972 0.00118372 0.243034)
(0.000223977 0.00151041 0.244123)
(0.00108311 -0.000592508 0.245486)
(-0.00213551 0.00432172 0.234459)
(9.19767e-06 -0.00180051 0.215067)
(0.00199194 0.00424206 0.236249)
(-0.00108824 -0.000456109 0.247204)
(-0.00018248 0.00153426 0.246048)
(-0.00034726 0.00122673 0.24493)
(-0.000216378 0.00170054 0.243583)
(-0.000102069 0.00168398 0.242799)
(-4.58078e-05 0.00184537 0.242208)
(6.61084e-06 0.00179762 0.242118)
(5.76927e-05 0.00184129 0.242283)
(0.000114844 0.00167532 0.242927)
(0.00022601 0.00168866 0.243747)
(0.000358996 0.00121611 0.245094)
(0.000191601 0.00152333 0.246197)
(0.00110282 -0.000460241 0.247366)
(-0.00196793 0.00423077 0.2364)
(9.26991e-06 -0.00149148 0.217872)
(0.00185066 0.00413852 0.238117)
(-0.00110753 -0.000322497 0.249006)
(-0.00015118 0.00154302 0.248008)
(-0.00033805 0.0012563 0.246885)
(-0.000207955 0.00173244 0.245573)
(-9.82532e-05 0.00171547 0.244785)
(-4.3299e-05 0.0018796 0.244212)
(6.75012e-06 0.0018312 0.244117)
(5.54548e-05 0.0018754 0.244286)
(0.000111261 0.00170668 0.244912)
(0.000217875 0.00172036 0.245737)
(0.000349956 0.00124551 0.247049)
(0.000160578 0.00153194 0.248157)
(0.00112207 -0.000326999 0.249167)
(-0.00182639 0.00412708 0.238266)
(9.33377e-06 -0.00117636 0.22053)
(0.00173732 0.00402327 0.239914)
(-0.00112567 -0.000188214 0.250734)
(-0.000121585 0.0015484 0.249866)
(-0.000328828 0.00128338 0.248747)
(-0.000200115 0.00176102 0.247456)
(-9.4824e-05 0.00174353 0.246664)
(-4.09794e-05 0.00191011 0.246104)
(6.90652e-06 0.00186111 0.246004)
(5.34395e-05 0.0019058 0.246177)
(0.000108088 0.00173463 0.246791)
(0.000210325 0.00174876 0.24762)
(0.000340898 0.00127244 0.248912)
(0.000131223 0.0015372 0.250015)
(0.00114015 -0.000193093 0.250893)
(-0.00171282 0.00401168 0.240061)
(9.38783e-06 -0.0008563 0.223065)
(0.00165225 0.00389748 0.241646)
(-0.00114201 -5.35867e-05 0.252391)
(-9.34965e-05 0.00155122 0.251635)
(-0.000319519 0.00130838 0.250526)
(-0.000192691 0.00178688 0.249248)
(-9.17154e-05 0.00176878 0.24845)
(-3.88107e-05 0.0019375 0.247899)
(7.07996e-06 0.00188796 0.247796)
(5.16084e-05 0.00193309 0.247972)
(0.000105259 0.00175979 0.248578)
(0.000203193 0.00177447 0.249412)
(0.000331748 0.00129733 0.250692)
(0.000103337 0.00153994 0.251784)
(0.00115638 -5.88536e-05 0.25255)
(-0.00162763 0.00388575 0.241791)
(9.43172e-06 -0.000532684 0.225499)
(0.00159416 0.00376261 0.243316)
(-0.00115599 8.10358e-05 0.253981)
(-6.67819e-05 0.001552 0.253324)
(-0.000310076 0.00133163 0.252233)
(-0.000185568 0.00181052 0.250959)
(-8.88851e-05 0.00179171 0.250156)
(-3.67651e-05 0.00196227 0.249612)
(7.26983e-06 0.00191225 0.249506)
(4.99322e-05 0.00195778 0.249684)
(0.00010273 0.00178264 0.250285)
(0.000196365 0.00179797 0.251123)
(0.000322459 0.00132049 0.2524)
(7.67919e-05 0.00154066 0.253474)
(0.00117024 7.53683e-05 0.254139)
(-0.00156956 0.00375073 0.243459)
(9.46517e-06 -0.000206415 0.227854)
(0.00156022 0.00361956 0.244928)
(-0.00116724 0.000215238 0.255507)
(-4.13509e-05 0.00155135 0.254943)
(-0.000300469 0.00135344 0.253874)
(-0.000178662 0.00183232 0.252599)
(-8.63029e-05 0.00181272 0.251793)
(-3.48232e-05 0.00198484 0.251252)
(7.47532e-06 0.00193439 0.251144)
(4.83896e-05 0.00198027 0.251324)
(0.00010047 0.0018036 0.251921)
(0.000189756 0.00181967 0.252764)
(0.000313 0.00134222 0.254042)
(5.15005e-05 0.00153998 0.255094)
(0.00118136 0.000209159 0.255664)
(-0.00153581 0.00360751 0.245069)
(9.48728e-06 0.000121531 0.230148)
(0.00154366 0.00346997 0.246487)
(-0.00117557 0.000348508 0.256973)
(-1.71347e-05 0.00154984 0.256499)
(-0.000290677 0.00137406 0.255455)
(-0.000171904 0.00185263 0.254177)
(-8.39386e-05 0.00183214 0.253367)
(-3.29663e-05 0.00200553 0.252828)
(7.69578e-06 0.00195472 0.252719)
(4.69606e-05 0.0020009 0.2529)
(9.84459e-05 0.00182297 0.253496)
(0.000183297 0.00183989 0.254342)
(0.00030335 0.00136277 0.255624)
(2.73971e-05 0.00153845 0.256651)
(0.00118951 0.000342011 0.257128)
(-0.00151958 0.00345775 0.246625)
(9.49774e-06 0.000450706 0.232392)
(0.00153659 0.00331594 0.247994)
(-0.00118079 0.000480228 0.25838)
(5.92436e-06 0.00154804 0.257998)
(-0.00028068 0.00139366 0.256982)
(-0.000165229 0.00187167 0.255698)
(-8.17576e-05 0.00185022 0.254886)
(-3.11736e-05 0.00202467 0.254348)
(7.93071e-06 0.00197353 0.254239)
(4.56236e-05 0.00201998 0.25442)
(9.66238e-05 0.00184102 0.255015)
(0.000176922 0.00185886 0.255863)
(0.00029349 0.00138232 0.257151)
(4.4269e-06 0.00153665 0.25815)
(0.00119456 0.000473309 0.258534)
(-0.00151291 0.00330355 0.24813)
(9.49785e-06 0.00078031 0.234589)
(0.001534 0.00315887 0.249455)
(-0.00118266 0.00060971 0.259733)
(2.78817e-05 0.00154648 0.259443)
(-0.000270458 0.00141236 0.258457)
(-0.000158576 0.00188965 0.257167)