-0.0075 	0 	0 	0
-0.00715932 	-0.000150691 	-3.05561e-05 	0.138185
-0.00676191 	-0.000249224 	-9.31368e-05 	0.219492
-0.00629832 	-0.000275329 	-0.000173385 	0.268379
-0.00575752 	-0.000259593 	-0.000257276 	0.300905
-0.00512667 	-0.000229245 	-0.000336047 	0.325211
-0.00439077 	-0.000198959 	-0.000403246 	0.344371
-0.00353231 	-0.000174255 	-0.000458626 	0.359381
-0.00253089 	-0.000154299 	-0.000504726 	0.370353
-0.00136271 	-0.000136096 	-0.00054085 	0.377032
0 	-0.00011885 	-0.000561845 	0.378838
0.00136271 	-0.000104732 	-0.000561857 	0.375258
0.00253089 	-9.63648e-05 	-0.00053986 	0.366597
0.00353231 	-9.61257e-05 	-0.000498991 	0.353508
0.00439077 	-0.000106586 	-0.00043671 	0.335998
0.00512667 	-0.000128786 	-0.00034601 	0.31292
0.00575752 	-0.00015815 	-0.000229043 	0.281539
0.00629832 	-0.000178785 	-0.000105448 	0.2368
0.00676191 	-0.000158229 	-1.55137e-05 	0.166575
0.00715932 	-8.1457e-05 	9.72967e-06 	0.0737301
0.0075 	0 	0 	0
