/*--------------------------------*- C++ -*----------------------------------*\
| =========                 |                                                 |
| \\      /  F ield         | OpenFOAM: The Open Source CFD Toolbox           |
|  \\    /   O peration     | Version:  v1912                                 |
|   \\  /    A nd           | Website:  www.openfoam.com                      |
|    \\/     M anipulation  |                                                 |
\*---------------------------------------------------------------------------*/
FoamFile
{
    version     2.0;
    format      ascii;
    class       volScalarField;
    location    "197.2";
    object      T;
}
// * * * * * * * * * * * * * * * * * * * * * * * * * * * * * * * * * * * * * //

dimensions      [0 0 0 1 0 0 0];


internalField   nonuniform List<scalar> 
10077
(
372.866
370.95
371.363
371.533
371.512
371.52
371.517
371.515
371.514
371.516
371.518
371.521
371.513
371.534
371.363
370.949
372.454
366.903
368.116
368.612
368.551
368.573
368.566
368.559
368.555
368.561
368.569
368.576
368.554
368.614
368.118
366.901
371.749
363.102
364.975
365.756
365.661
365.697
365.685
365.673
365.669
365.677
365.69
365.702
365.666
365.76
364.978
363.099
370.748
359.845
362.112
363.091
362.975
363.022
363.008
362.992
362.987
362.997
363.014
363.028
362.981
363.096
362.115
359.841
369.444
357.368
359.714
360.765
360.648
360.706
360.692
360.676
360.672
360.681
360.699
360.712
360.654
360.77
359.716
357.363
367.769
355.728
357.89
358.917
358.814
358.883
358.873
358.862
358.858
358.866
358.88
358.888
358.819
358.921
357.891
355.721
365.8
354.752
356.581
357.573
357.488
357.573
357.571
357.569
357.565
357.572
357.575
357.577
357.491
357.575
356.58
354.743
363.906
354.161
355.629
356.621
356.551
356.658
356.663
356.673
356.669
356.675
356.666
356.659
356.55
356.62
355.626
354.15
362.369
353.74
354.892
355.917
355.856
355.988
356.002
356.022
356.018
356.024
356.003
355.988
355.852
355.914
354.889
353.727
361.195
353.386
354.284
355.357
355.3
355.459
355.48
355.511
355.506
355.511
355.479
355.457
355.294
355.353
354.279
353.372
360.281
353.057
353.739
354.88
354.824
355.01
355.036
355.077
355.071
355.076
355.034
355.005
354.816
354.874
353.734
353.042
359.533
352.73
353.225
354.443
354.385
354.6
354.633
354.684
354.677
354.682
354.629
354.593
354.375
354.435
353.219
352.714
358.886
352.396
352.737
354.017
353.955
354.201
354.24
354.301
354.294
354.299
354.234
354.193
353.943
354.007
352.73
352.379
358.302
352.06
352.276
353.593
353.527
353.8
353.845
353.915
353.907
353.913
353.837
353.79
353.513
353.581
352.269
352.042
357.745
351.728
351.846
353.172
353.102
353.398
353.447
353.526
353.517
353.523
353.439
353.386
353.087
353.158
351.838
351.71
357.192
351.406
351.447
352.756
352.684
352.997
353.051
353.136
353.126
353.132
353.041
352.984
352.667
352.741
351.439
351.388
356.635
351.098
351.08
352.348
352.275
352.601
352.658
352.749
352.739
352.744
352.647
352.587
352.258
352.333
351.073
351.081
356.079
350.808
350.747
351.954
351.881
352.214
352.274
352.368
352.358
352.363
352.262
352.199
351.863
351.938
350.739
350.792
355.528
350.539
350.445
351.577
351.505
351.841
351.902
351.999
351.988
351.994
351.89
351.825
351.486
351.56
350.438
350.523
354.991
350.291
350.175
351.223
351.152
351.487
351.549
351.646
351.636
351.641
351.536
351.471
351.133
351.206
350.167
350.276
354.476
350.064
349.935
350.896
350.827
351.158
351.219
351.315
351.305
351.31
351.206
351.141
350.808
350.879
349.927
350.05
353.984
349.86
349.722
350.596
350.53
350.852
350.911
351.004
350.994
350.999
350.898
350.835
350.512
350.579
349.714
349.847
353.516
349.677
349.534
350.321
350.26
350.567
350.624
350.713
350.704
350.708
350.611
350.55
350.242
350.305
349.527
349.665
353.071
349.515
349.369
350.068
350.012
350.302
350.356
350.442
350.433
350.437
350.343
350.285
349.995
350.053
349.362
349.503
352.649
349.371
349.225
349.837
349.786
350.056
350.108
350.19
350.182
350.185
350.095
350.04
349.77
349.822
349.218
349.359
352.248
349.242
349.098
349.626
349.58
349.828
349.877
349.955
349.947
349.95
349.864
349.812
349.565
349.612
349.091
349.232
351.87
349.127
348.986
349.433
349.394
349.616
349.661
349.735
349.727
349.73
349.65
349.601
349.379
349.42
348.979
349.117
351.514
349.025
348.888
349.258
349.224
349.42
349.461
349.53
349.522
349.525
349.45
349.406
349.211
349.246
348.881
349.015
351.183
348.933
348.8
349.099
349.072
349.239
349.275
349.338
349.331
349.333
349.265
349.226
349.059
349.088
348.794
348.924
350.875
348.852
348.722
348.956
348.934
349.073
349.104
349.16
349.154
349.155
349.094
349.061
348.923
348.946
348.716
348.843
350.592
348.78
348.651
348.828
348.811
348.922
348.948
348.997
348.991
348.992
348.939
348.91
348.801
348.819
348.645
348.772
350.333
348.716
348.587
348.715
348.702
348.786
348.807
348.849
348.844
348.845
348.8
348.776
348.693
348.706
348.581
348.708
350.099
348.659
348.528
348.614
348.606
348.666
348.683
348.717
348.714
348.713
348.676
348.657
348.597
348.607
348.522
348.652
349.889
348.608
348.474
348.526
348.52
348.561
348.574
348.602
348.599
348.598
348.568
348.552
348.513
348.519
348.468
348.601
349.704
348.562
348.425
348.448
348.445
348.469
348.48
348.502
348.5
348.498
348.474
348.461
348.438
348.442
348.419
348.556
349.544
348.521
348.379
348.38
348.378
348.39
348.398
348.416
348.414
348.412
348.393
348.383
348.371
348.374
348.373
348.514
349.409
348.483
348.336
348.319
348.319
348.321
348.328
348.341
348.341
348.338
348.323
348.315
348.312
348.313
348.33
348.477
349.296
348.448
348.295
348.266
348.266
348.262
348.268
348.278
348.278
348.275
348.263
348.256
348.259
348.26
348.289
348.442
349.2
348.415
348.257
348.218
348.218
348.21
348.216
348.224
348.224
348.221
348.211
348.204
348.212
348.212
348.251
348.409
349.117
348.384
348.219
348.174
348.175
348.165
348.17
348.177
348.177
348.174
348.165
348.159
348.169
348.169
348.213
348.378
349.044
348.354
348.183
348.135
348.136
348.125
348.13
348.136
348.136
348.133
348.125
348.119
348.13
348.13
348.177
348.348
348.981
348.324
348.148
348.099
348.099
348.088
348.094
348.099
348.1
348.096
348.089
348.082
348.093
348.093
348.142
348.318
348.924
348.295
348.113
348.065
348.065
348.054
348.06
348.065
348.066
348.062
348.055
348.048
348.058
348.059
348.107
348.289
348.873
348.267
348.08
348.032
348.031
348.022
348.028
348.033
348.034
348.03
348.023
348.016
348.024
348.026
348.074
348.261
348.827
348.238
348.047
347.999
347.998
347.99
347.997
348.002
348.003
347.999
347.992
347.984
347.991
347.993
348.041
348.233
348.783
348.21
348.014
347.967
347.965
347.959
347.966
347.972
347.973
347.969
347.961
347.953
347.959
347.961
348.008
348.205
348.74
348.182
347.982
347.936
347.933
347.928
347.936
347.942
347.943
347.939
347.931
347.922
347.926
347.929
347.976
348.176
348.698
348.153
347.95
347.904
347.9
347.897
347.906
347.912
347.914
347.909
347.901
347.891
347.893
347.897
347.943
348.148
348.654
348.125
347.918
347.872
347.867
347.866
347.875
347.882
347.884
347.879
347.87
347.859
347.86
347.865
347.912
348.119
348.608
348.096
347.886
347.84
347.834
347.835
347.844
347.852
347.853
347.849
347.839
347.828
347.827
347.833
347.88
348.09
348.559
348.066
347.854
347.807
347.801
347.803
347.813
347.821
347.822
347.818
347.808
347.796
347.793
347.8
347.848
348.061
348.51
348.036
347.822
347.774
347.767
347.77
347.781
347.79
347.791
347.787
347.776
347.763
347.759
347.767
347.816
348.031
348.459
348.005
347.79
347.74
347.732
347.737
347.749
347.758
347.759
347.755
347.743
347.73
347.725
347.733
347.783
348
348.408
347.974
347.757
347.706
347.697
347.704
347.715
347.725
347.726
347.722
347.71
347.697
347.69
347.699
347.751
347.969
348.356
347.943
347.724
347.671
347.662
347.669
347.682
347.692
347.693
347.689
347.676
347.662
347.654
347.664
347.718
347.938
348.304
347.911
347.691
347.635
347.626
347.635
347.647
347.657
347.659
347.654
347.642
347.627
347.618
347.628
347.685
347.906
348.251
347.879
347.657
347.599
347.589
347.599
347.612
347.623
347.624
347.62
347.606
347.592
347.582
347.592
347.651
347.874
348.198
347.846
347.623
347.563
347.552
347.562
347.576
347.587
347.589
347.584
347.57
347.555
347.544
347.556
347.617
347.841
348.145
347.812
347.589
347.526
347.514
347.525
347.539
347.55
347.552
347.547
347.533
347.518
347.507
347.519
347.583
347.807
348.093
347.778
347.554
347.488
347.476
347.487
347.501
347.513
347.515
347.51
347.496
347.48
347.468
347.481
347.548
347.774
348.042
347.744
347.519
347.45
347.437
347.449
347.463
347.475
347.477
347.472
347.457
347.442
347.429
347.443
347.513
347.739
347.993
347.709
347.483
347.412
347.397
347.41
347.424
347.436
347.438
347.433
347.418
347.402
347.39
347.405
347.477
347.704
347.944
347.673
347.448
347.373
347.357
347.37
347.384
347.396
347.398
347.393
347.378
347.362
347.349
347.365
347.441
347.669
347.895
347.637
347.411
347.333
347.316
347.329
347.343
347.356
347.358
347.353
347.338
347.322
347.309
347.326
347.405
347.633
347.848
347.601
347.375
347.293
347.275
347.287
347.302
347.314
347.316
347.311
347.296
347.28
347.267
347.286
347.369
347.597
347.8
347.564
347.338
347.252
347.233
347.245
347.259
347.272
347.274
347.269
347.254
347.238
347.225
347.245
347.331
347.56
347.753
347.526
347.3
347.211
347.19
347.202
347.216
347.229
347.231
347.226
347.211
347.195
347.183
347.204
347.294
347.522
347.706
347.488
347.262
347.169
347.147
347.158
347.172
347.185
347.187
347.182
347.167
347.151
347.14
347.162
347.256
347.484
347.659
347.449
347.223
347.127
347.104
347.114
347.128
347.141
347.143
347.138
347.122
347.107
347.096
347.12
347.217
347.445
347.612
347.409
347.184
347.085
347.059
347.069
347.082
347.095
347.097
347.092
347.077
347.062
347.052
347.078
347.178
347.405
347.565
347.369
347.144
347.042
347.014
347.023
347.036
347.049
347.051
347.046
347.031
347.016
347.007
347.035
347.139
347.365
347.517
347.328
347.104
346.998
346.969
346.976
346.989
347.002
347.004
346.999
346.984
346.97
346.962
346.991
347.098
347.324
347.47
347.286
347.063
346.954
346.923
346.929
346.942
346.954
346.956
346.951
346.936
346.923
346.916
346.947
347.057
347.282
347.422
347.243
347.021
346.909
346.877
346.881
346.893
346.905
346.907
346.902
346.888
346.875
346.87
346.903
347.015
347.239
347.373
347.199
346.979
346.864
346.83
346.833
346.844
346.856
346.857
346.853
346.839
346.827
346.823
346.858
346.973
347.195
347.324
347.154
346.935
346.819
346.782
346.784
346.794
346.805
346.807
346.803
346.789
346.778
346.775
346.812
346.93
347.15
347.274
347.108
346.891
346.772
346.734
346.734
346.744
346.755
346.756
346.752
346.739
346.728
346.727
346.766
346.885
347.104
347.224
347.061
346.845
346.725
346.685
346.684
346.693
346.703
346.705
346.7
346.688
346.678
346.678
346.719
346.84
347.057
370.552
370.994
371.464
371.36
371.301
371.264
371.244
371.229
371.227
371.229
371.244
371.264
371.301
371.36
371.464
370.994
365.736
367.011
368.403
368.095
367.923
367.813
367.753
367.709
367.702
367.709
367.752
367.811
367.921
368.094
368.402
367.012
361.293
363.181
365.394
364.905
364.634
364.46
364.367
364.297
364.287
364.296
364.365
364.457
364.632
364.903
365.393
363.182
357.815
359.797
362.585
361.982
361.65
361.436
361.322
361.237
361.225
361.236
361.32
361.431
361.646
361.979
362.583
359.799
355.694
357.181
360.185
359.582
359.238
359.026
358.911
358.827
358.815
358.825
358.908
359.02
359.233
359.577
360.182
357.183
354.63
355.461
358.362
357.868
357.551
357.376
357.275
357.205
357.193
357.202
357.27
357.369
357.544
357.861
358.358
355.461
354.083
354.457
357.103
356.756
356.479
356.349
356.265
356.212
356.2
356.209
356.259
356.341
356.469
356.748
357.098
354.457
353.753
353.87
356.247
356.033
355.789
355.698
355.629
355.588
355.578
355.585
355.622
355.688
355.778
356.023
356.241
353.869
353.52
353.485
355.633
355.526
355.307
355.247
355.188
355.159
355.148
355.155
355.181
355.236
355.295
355.515
355.627
353.483
353.335
353.196
355.159
355.137
354.937
354.902
354.852
354.831
354.82
354.827
354.843
354.89
354.925
355.126
355.152
353.193
353.176
352.955
354.765
354.816
354.63
354.615
354.572
354.557
354.547
354.553
354.563
354.602
354.616
354.804
354.758
352.951
353.031
352.737
354.421
354.532
354.357
354.36
354.324
354.315
354.305
354.311
354.314
354.347
354.343
354.52
354.413
352.733
352.893
352.532
354.107
354.271
354.104
354.124
354.093
354.09
354.08
354.085
354.083
354.11
354.089
354.258
354.1
352.527
352.759
352.334
353.815
354.021
353.863
353.897
353.871
353.874
353.864
353.869
353.861
353.883
353.847
354.008
353.808
352.329
352.624
352.14
353.537
353.78
353.627
353.676
353.654
353.662
353.651
353.656
353.643
353.661
353.611
353.766
353.529
352.134
352.488
351.946
353.266
353.542
353.395
353.456
353.439
353.451
353.441
353.445
353.428
353.441
353.378
353.527
353.258
351.94
352.35
351.753
353.001
353.307
353.165
353.237
353.225
353.241
353.231
353.235
353.213
353.221
353.148
353.292
352.993
351.747
352.207
351.561
352.743
353.074
352.937
353.019
353.011
353.03
353.02
353.024
352.998
353.003
352.919
353.059
352.735
351.555
352.061
351.371
352.493
352.842
352.707
352.801
352.796
352.819
352.809
352.813
352.783
352.784
352.689
352.826
352.485
351.365
351.911
351.187
352.254
352.608
352.476
352.581
352.579
352.607
352.597
352.6
352.566
352.563
352.458
352.592
352.246
351.181
351.757
351.009
352.025
352.376
352.247
352.359
352.361
352.392
352.381
352.385
352.347
352.341
352.228
352.359
352.017
351.003
351.598
350.838
351.808
352.146
352.022
352.137
352.141
352.175
352.165
352.168
352.127
352.119
352.003
352.129
351.8
350.832
351.437
350.675
351.603
351.921
351.802
351.918
351.924
351.959
351.949
351.952
351.91
351.9
351.783
351.905
351.595
350.669
351.273
350.52
351.411
351.703
351.589
351.703
351.71
351.746
351.736
351.739
351.696
351.685
351.57
351.687
351.403
350.515
351.108
350.373
351.229
351.493
351.384
351.495
351.502
351.538
351.528
351.531
351.487
351.477
351.365
351.478
351.222
350.368
350.942
350.235
351.06
351.293
351.188
351.293
351.3
351.335
351.326
351.328
351.286
351.275
351.17
351.277
351.052
350.23
350.778
350.104
350.901
351.101
351.002
351.1
351.106
351.141
351.131
351.134
351.092
351.082
350.985
351.086
350.894
350.099
350.615
349.981
350.752
350.921
350.827
350.916
350.921
350.954
350.945
350.947
350.907
350.899
350.81
350.906
350.745
349.977
350.455
349.865
350.613
350.751
350.661
350.741
350.745
350.776
350.767
350.769
350.732
350.725
350.645
350.736
350.606
349.861
350.299
349.757
350.482
350.591
350.506
350.576
350.578
350.607
350.598
350.6
350.565
350.56
350.49
350.577
350.475
349.753
350.147
349.655
350.359
350.441
350.361
350.42
350.421
350.446
350.438
350.44
350.408
350.405
350.346
350.428
350.352
349.651
350.001
349.56
350.244
350.301
350.225
350.273
350.271
350.293
350.285
350.287
350.259
350.258
350.21
350.288
350.237
349.556
349.861
349.47
350.134
350.169
350.098
350.133
350.129
350.148
350.14
350.141
350.117
350.119
350.083
350.156
350.127
349.466
349.727
349.385
350.03
350.045
349.978
350.001
349.994
350.009
350.002
350.003
349.983
349.987
349.964
350.033
350.023
349.382
349.599
349.306
349.93
349.928
349.865
349.876
349.867
349.878
349.871
349.872
349.856
349.863
349.851
349.916
349.924
349.302
349.477
349.23
349.835
349.817
349.758
349.759
349.747
349.754
349.748
349.748
349.737
349.746
349.745
349.806
349.829
349.227
349.362
349.159
349.744
349.713
349.658
349.648
349.634
349.638
349.632
349.632
349.625
349.636
349.645
349.703
349.738
349.156
349.253
349.091
349.656
349.615
349.563
349.545
349.529
349.529
349.523
349.523
349.52
349.533
349.551
349.605
349.65
349.088
349.15
349.026
349.571
349.522
349.473
349.448
349.43
349.427
349.422
349.422
349.421
349.436
349.462
349.512
349.564
349.023
349.052
348.964
349.488
349.434
349.388
349.357
349.339
349.333
349.328
349.328
349.33
349.346
349.377
349.425
349.481
348.961
348.959
348.903
349.407
349.351
349.308
349.272
349.253
349.245
349.241
349.24
349.244
349.261
349.297
349.341
349.4
348.9
348.871
348.845
349.328
349.271
349.231
349.192
349.172
349.163
349.159
349.158
349.164
349.181
349.22
349.262
349.321
348.842
348.786
348.788
349.25
349.195
349.157
349.116
349.096
349.086
349.082
349.082
349.088
349.106
349.147
349.187
349.244
348.784
348.706
348.731
349.175
349.122
349.086
349.045
349.025
349.014
349.01
349.009
349.016
349.034
349.076
349.114
349.168
348.728
348.629
348.675
349.1
349.052
349.018
348.976
348.956
348.945
348.941
348.94
348.948
348.966
349.008
349.043
349.094
348.672
348.556
348.62
349.027
348.983
348.952
348.91
348.891
348.879
348.875
348.875
348.883
348.9
348.941
348.975
349.021
348.617
348.485
348.566
348.956
348.917
348.887
348.847
348.827
348.816
348.811
348.811
348.819
348.837
348.877
348.908
348.95
348.563
348.417
348.512
348.885
348.852
348.824
348.785
348.765
348.753
348.749
348.749
348.758
348.775
348.814
348.843
348.879
348.509
348.352
348.458
348.815
348.788
348.762
348.724
348.705
348.692
348.688
348.688
348.697
348.714
348.752
348.779
348.809
348.455
348.288
348.404
348.746
348.726
348.702
348.665
348.645
348.632
348.628
348.627
348.637
348.655
348.692
348.717
348.74
348.401
348.227
348.351
348.678
348.665
348.642
348.605
348.585
348.572
348.568
348.568
348.577
348.595
348.632
348.656
348.672
348.348
348.166
348.298
348.61
348.605
348.583
348.546
348.526
348.513
348.509
348.508
348.518
348.536
348.573
348.597
348.604
348.295
348.106
348.244
348.544
348.546
348.524
348.487
348.467
348.454
348.45
348.449
348.459
348.478
348.514
348.537
348.538
348.241
348.047
348.191
348.479
348.486
348.465
348.429
348.408
348.395
348.391
348.391
348.401
348.419
348.455
348.478
348.473
348.188
347.989
348.138
348.415
348.427
348.406
348.37
348.35
348.336
348.332
348.332
348.342
348.361
348.396
348.419
348.41
348.134
347.931
348.084
348.354
348.368
348.347
348.312
348.291
348.277
348.272
348.273
348.283
348.302
348.337
348.36
348.348
348.081
347.873
348.03
348.293
348.309
348.288
348.253
348.232
348.218
348.213
348.214
348.224
348.244
348.279
348.301
348.287
348.027
347.816
347.976
348.233
348.25
348.229
348.194
348.173
348.158
348.154
348.154
348.165
348.185
348.22
348.242
348.227
347.973
347.759
347.922
348.173
348.191
348.17
348.135
348.113
348.099
348.094
348.095
348.106
348.126
348.161
348.183
348.167
347.919
347.703
347.867
348.113
348.132
348.111
348.076
348.054
348.039
348.034
348.035
348.046
348.067
348.102
348.124
348.107
347.864
347.647
347.813
348.053
348.073
348.052
348.017
347.994
347.979
347.974
347.975
347.987
348.008
348.043
348.065
348.048
347.81
347.592
347.758
347.993
348.014
347.992
347.957
347.934
347.919
347.914
347.915
347.927
347.948
347.983
348.006
347.988
347.755
347.537
347.703
347.934
347.955
347.933
347.897
347.873
347.858
347.853
347.854
347.866
347.889
347.924
347.947
347.928
347.7
347.482
347.648
347.874
347.895
347.873
347.837
347.813
347.797
347.792
347.793
347.806
347.829
347.865
347.888
347.869
347.645
347.429
347.592
347.814
347.836
347.814
347.777
347.752
347.736
347.731
347.732
347.745
347.769
347.805
347.829
347.809
347.59
347.376
347.537
347.755
347.777
347.754
347.717
347.691
347.675
347.669
347.671
347.684
347.709
347.745
347.77
347.75
347.534
347.323
347.482
347.695
347.717
347.694
347.656
347.63
347.613
347.608
347.61
347.623
347.648
347.685
347.71
347.69
347.479
347.271
347.426
347.636
347.658
347.634
347.596
347.569
347.552
347.546
347.548
347.562
347.588
347.626
347.651
347.631
347.424
347.219
347.371
347.576
347.598
347.574
347.535
347.507
347.49
347.484
347.487
347.501
347.527
347.566
347.591
347.571
347.369
347.168
347.316
347.516
347.538
347.513
347.474
347.446
347.428
347.422
347.425
347.44
347.466
347.505
347.532
347.512
347.313
347.117
347.26
347.456
347.478
347.453
347.413
347.384
347.366
347.36
347.363
347.378
347.406
347.445
347.472
347.452
347.258
347.067
347.205
347.397
347.418
347.392
347.352
347.323
347.305
347.298
347.301
347.317
347.345
347.385
347.412
347.392
347.203
347.017
347.15
347.337
347.358
347.331
347.291
347.261
347.243
347.236
347.239
347.255
347.283
347.324
347.352
347.332
347.148
346.967
347.095
347.276
347.298
347.27
347.229
347.199
347.18
347.174
347.177
347.193
347.222
347.263
347.292
347.272
347.093
346.917
347.04
347.216
347.237
347.209
347.168
347.137
347.118
347.112
347.115
347.132
347.161
347.202
347.231
347.212
347.038
346.868
346.986
347.156
347.176
347.148
347.106
347.075
347.056
347.05
347.053
347.07
347.099
347.141
347.17
347.152
346.984
346.818
346.931
347.095
347.115
347.086
347.044
347.013
346.994
346.987
346.991
347.008
347.038
347.079
347.109
347.091
346.929
346.769
346.876
347.034
347.053
347.024
346.982
346.951
346.931
346.925
346.928
346.945
346.975
347.017
347.047
347.03
346.874
346.719
346.821
346.972
346.99
371.275
371.128
371.129
371.163
371.167
371.155
371.155
371.15
371.151
371.15
371.155
371.155
371.167
371.164
371.129
371.128
367.82
367.388
367.394
367.492
367.504
367.469
367.469
367.455
367.456
367.454
367.469
367.468
367.504
367.493
367.395
367.387
364.398
363.685
363.698
363.85
363.871
363.814
363.816
363.792
363.794
363.792
363.815
363.813
363.872
363.851
363.7
363.684
361.181
360.178
360.197
360.387
360.42
360.348
360.351
360.321
360.324
360.32
360.35
360.346
360.421
360.389
360.199
360.175
358.421
357.103
357.134
357.362
357.402
357.328
357.333
357.302
357.306
357.301
357.332
357.326
357.402
357.364
357.135
357.099
356.327
354.693
354.752
355.036
355.072
355.014
355.02
354.994
354.998
354.994
355.019
355.012
355.071
355.037
354.753
354.687
354.909
353.025
353.117
353.466
353.491
353.457
353.465
353.447
353.449
353.446
353.463
353.454
353.489
353.467
353.118
353.018
353.995
351.964
352.079
352.479
352.491
352.481
352.489
352.478
352.48
352.477
352.487
352.477
352.489
352.479
352.079
351.956
353.397
351.304
351.422
351.854
351.857
351.864
351.873
351.869
351.869
351.867
351.87
351.86
351.854
351.852
351.421
351.294
352.983
350.877
350.985
351.435
351.432
351.451
351.462
351.462
351.462
351.461
351.459
351.447
351.428
351.432
350.984
350.866
352.678
350.583
350.673
351.133
351.126
351.156
351.167
351.171
351.171
351.17
351.164
351.151
351.122
351.13
350.672
350.572
352.439
350.366
350.436
350.9
350.891
350.928
350.941
350.948
350.947
350.946
350.937
350.923
350.886
350.896
350.434
350.355
352.242
350.195
350.242
350.709
350.698
350.742
350.756
350.766
350.765
350.764
350.752
350.736
350.693
350.705
350.24
350.184
352.073
350.053
350.078
350.546
350.533
350.583
350.598
350.61
350.609
350.608
350.594
350.577
350.528
350.541
350.075
350.042
351.923
349.93
349.931
350.4
350.387
350.441
350.458
350.472
350.471
350.47
350.453
350.434
350.38
350.395
349.928
349.919
351.785
349.82
349.797
350.266
350.252
350.311
350.329
350.345
350.344
350.342
350.324
350.304
350.245
350.26
349.794
349.808
351.658
349.718
349.671
350.14
350.125
350.189
350.208
350.226
350.225
350.223
350.202
350.181
350.118
350.134
349.667
349.707
351.537
349.622
349.549
350.02
350.005
350.072
350.092
350.112
350.111
350.109
350.087
350.064
349.997
350.014
349.546
349.611
351.421
349.53
349.433
349.904
349.888
349.959
349.98
350.002
350.001
349.999
349.975
349.951
349.881
349.898
349.429
349.519
351.308
349.442
349.32
349.791
349.775
349.849
349.871
349.894
349.893
349.891
349.865
349.841
349.767
349.785
349.315
349.431
351.198
349.356
349.211
349.68
349.664
349.741
349.764
349.788
349.787
349.785
349.758
349.732
349.655
349.674
349.206
349.345
351.089
349.273
349.106
349.571
349.553
349.634
349.658
349.683
349.682
349.68
349.651
349.625
349.545
349.564
349.101
349.262
350.981
349.193
349.006
349.461
349.443
349.527
349.553
349.579
349.578
349.576
349.546
349.518
349.435
349.454
349.001
349.182
350.875
349.116
348.91
349.353
349.334
349.42
349.447
349.475
349.474
349.472
349.44
349.411
349.325
349.345
348.905
349.105
350.768
349.042
348.819
349.245
349.227
349.314
349.341
349.37
349.369
349.367
349.334
349.305
349.217
349.238
348.814
349.031
350.663
348.971
348.733
349.14
349.121
349.208
349.236
349.266
349.265
349.262
349.228
349.199
349.112
349.132
348.728
348.961
350.558
348.903
348.652
349.037
349.018
349.104
349.132
349.162
349.161
349.159
349.124
349.095
349.009
349.029
348.647
348.893
350.453
348.839
348.577
348.937
348.918
349.003
349.03
349.06
349.059
349.056
349.022
348.993
348.909
348.929
348.572
348.83
350.35
348.778
348.507
348.841
348.823
348.904
348.93
348.96
348.959
348.956
348.923
348.894
348.813
348.833
348.501
348.769
350.247
348.721
348.442
348.749
348.731
348.808
348.834
348.863
348.862
348.859
348.826
348.799
348.722
348.741
348.436
348.712
350.145
348.667
348.382
348.661
348.644
348.716
348.741
348.769
348.768
348.766
348.733
348.707
348.635
348.654
348.376
348.659
350.045
348.617
348.326
348.578
348.561
348.629
348.652
348.679
348.678
348.675
348.645
348.62
348.552
348.571
348.321
348.609
349.946
348.57
348.275
348.5
348.483
348.545
348.567
348.593
348.592
348.589
348.56
348.536
348.475
348.492
348.27
348.562
349.849
348.525
348.228
348.426
348.41
348.466
348.486
348.511
348.51
348.507
348.48
348.457
348.402
348.418
348.223
348.518
349.754
348.484
348.185
348.356
348.342
348.391
348.41
348.433
348.432
348.429
348.404
348.383
348.333
348.349
348.18
348.476
349.661
348.445
348.145
348.291
348.277
348.321
348.338
348.359
348.359
348.355
348.332
348.313
348.269
348.284
348.14
348.438
349.57
348.408
348.108
348.23
348.217
348.254
348.27
348.289
348.289
348.286
348.264
348.246
348.209
348.223
348.103
348.401
349.481
348.373
348.074
348.172
348.161
348.192
348.206
348.223
348.223
348.22
348.2
348.184
348.153
348.166
348.068
348.367
349.395
348.34
348.041
348.119
348.108
348.133
348.146
348.161
348.161
348.158
348.14
348.126
348.1
348.112
348.036
348.334
349.312
348.309
348.011
348.068
348.058
348.078
348.09
348.103
348.103
348.1
348.084
348.071
348.051
348.062
348.005
348.302
349.23
348.278
347.982
348.021
348.012
348.027
348.037
348.049
348.049
348.046
348.032
348.02
348.005
348.015
347.976
348.272
349.152
348.249
347.954
347.977
347.968
347.979
347.988
347.998
347.999
347.995
347.983
347.972
347.962
347.971
347.948
348.243
349.075
348.22
347.927
347.935
347.928
347.935
347.943
347.952
347.952
347.949
347.938
347.928
347.921
347.929
347.921
348.214
349.002
348.191
347.9
347.896
347.889
347.893
347.901
347.909
347.909
347.906
347.896
347.887
347.882
347.89
347.895
348.185
348.93
348.163
347.874
347.86
347.853
347.854
347.862
347.869
347.87
347.866
347.857
347.848
347.846
347.854
347.868
348.157
348.861
348.135
347.848
347.825
347.818
347.818
347.825
347.832
347.833
347.829
347.821
347.812
347.811
347.819
347.842
348.129
348.793
348.106
347.822
347.792
347.785
347.784
347.791
347.797
347.798
347.794
347.786
347.778
347.779
347.786
347.816
348.101
348.726
348.078
347.796
347.761
347.753
347.752
347.759
347.765
347.766
347.762
347.754
347.746
347.747
347.755
347.79
348.073
348.66
348.049
347.77
347.731
347.723
347.721
347.728
347.734
347.735
347.731
347.723
347.715
347.716
347.725
347.764
348.044
348.596
348.02
347.743
347.701
347.693
347.691
347.698
347.704
347.705
347.701
347.693
347.685
347.686
347.695
347.738
348.015
348.533
347.991
347.717
347.672
347.663
347.661
347.669
347.674
347.676
347.671
347.664
347.655
347.657
347.666
347.711
347.986
348.471
347.962
347.69
347.643
347.633
347.632
347.639
347.645
347.646
347.642
347.634
347.625
347.627
347.636
347.684
347.957
348.41
347.932
347.663
347.613
347.603
347.602
347.61
347.615
347.617
347.613
347.605
347.595
347.596
347.607
347.657
347.927
348.35
347.901
347.635
347.583
347.572
347.571
347.58
347.586
347.588
347.583
347.575
347.565
347.566
347.576
347.629
347.897
348.291
347.871
347.607
347.552
347.541
347.541
347.55
347.556
347.558
347.553
347.545
347.535
347.534
347.546
347.601
347.866
348.234
347.84
347.579
347.521
347.509
347.51
347.519
347.526
347.528
347.523
347.514
347.503
347.502
347.514
347.573
347.835
348.177
347.809
347.55
347.489
347.476
347.478
347.488
347.495
347.497
347.492
347.483
347.472
347.47
347.482
347.544
347.805
348.122
347.778
347.52
347.456
347.443
347.446
347.456
347.464
347.466
347.461
347.451
347.439
347.436
347.45
347.514
347.774
348.069
347.747
347.49
347.423
347.409
347.413
347.424
347.432
347.434
347.429
347.419
347.406
347.402
347.417
347.484
347.743
348.016
347.716
347.459
347.389
347.375
347.379
347.391
347.399
347.401
347.396
347.385
347.373
347.368
347.383
347.453
347.712
347.966
347.684
347.427
347.355
347.339
347.345
347.356
347.365
347.368
347.363
347.351
347.338
347.332
347.348
347.421
347.68
347.917
347.651
347.395
347.32
347.303
347.309
347.322
347.331
347.333
347.328
347.316
347.303
347.296
347.313
347.389
347.647
347.87
347.618
347.362
347.284
347.267
347.273
347.286
347.295
347.298
347.293
347.281
347.267
347.26
347.278
347.356
347.614
347.825
347.584
347.328
347.248
347.229
347.236
347.249
347.259
347.261
347.256
347.244
347.23
347.222
347.241
347.323
347.58
347.781
347.55
347.294
347.211
347.191
347.198
347.211
347.222
347.224
347.219
347.206
347.192
347.184
347.204
347.289
347.546
347.737
347.515
347.26
347.173
347.152
347.16
347.173
347.183
347.186
347.181
347.168
347.153
347.145
347.167
347.254
347.511
347.693
347.479
347.225
347.135
347.112
347.12
347.133
347.144
347.146
347.141
347.128
347.113
347.105
347.128
347.219
347.475
347.649
347.443
347.189
347.096
347.072
347.079
347.093
347.104
347.106
347.101
347.087
347.073
347.065
347.089
347.183
347.439
347.606
347.405
347.152
347.056
347.031
347.038
347.051
347.062
347.065
347.059
347.046
347.031
347.024
347.05
347.147
347.401
347.562
347.367
347.115
347.016
346.989
346.996
347.009
347.02
347.022
347.017
347.004
346.989
346.982
347.01
347.11
347.364
347.517
347.329
347.077
346.975
346.946
346.952
346.965
346.977
346.979
346.974
346.96
346.946
346.94
346.969
347.072
347.325
347.473
347.289
347.039
346.934
346.903
346.908
346.921
346.932
346.935
346.93
346.916
346.902
346.896
346.928
347.033
347.285
347.427
347.248
347
346.892
346.859
346.864
346.876
346.887
346.889
346.884
346.871
346.857
346.852
346.885
346.994
347.244
347.382
347.207
346.959
346.849
346.814
346.818
346.83
346.841
346.843
346.838
346.825
346.812
346.808
346.843
346.954
347.203
347.335
347.164
346.918