0 	0 	0 	0
5.01672e-05 	-2.18567e-05 	-4.4544e-06 	0.0203403
0.000100334 	-4.37133e-05 	-8.90881e-06 	0.0406806
0.000150502 	-6.557e-05 	-1.33632e-05 	0.0610209
0.000200669 	-8.74267e-05 	-1.78176e-05 	0.0813612
0.000250836 	-0.000109283 	-2.2272e-05 	0.101702
0.000301003 	-0.00013114 	-2.67264e-05 	0.122042
0.000351171 	-0.000151004 	-3.18882e-05 	0.140275
0.000401338 	-0.000163331 	-3.97251e-05 	0.150541
0.000451505 	-0.000175659 	-4.75621e-05 	0.160807
0.000501672 	-0.000187986 	-5.5399e-05 	0.171072
0.000551839 	-0.000200314 	-6.32359e-05 	0.181338
0.000602007 	-0.000212641 	-7.10728e-05 	0.191604
0.000652174 	-0.000224968 	-7.89097e-05 	0.201869
0.000702341 	-0.000237296 	-8.67466e-05 	0.212135
0.000752508 	-0.000246888 	-9.48111e-05 	0.22097
0.000802676 	-0.000249699 	-0.00010344 	0.226257
0.000852843 	-0.000252509 	-0.000112068 	0.231544
0.00090301 	-0.00025532 	-0.000120697 	0.236831
0.000953177 	-0.00025813 	-0.000129326 	0.242119
0.00100334 	-0.000260941 	-0.000137954 	0.247406
0.00105351 	-0.000263751 	-0.000146583 	0.252693
0.00110368 	-0.000266562 	-0.000155212 	0.25798
0.00115385 	-0.000269372 	-0.00016384 	0.263267
0.00120401 	-0.000271985 	-0.000172428 	0.268449
0.00125418 	-0.000270546 	-0.000180175 	0.271463
0.00130435 	-0.000269107 	-0.000187922 	0.274478
0.00135452 	-0.000267668 	-0.000195668 	0.277492
0.00140468 	-0.000266229 	-0.000203415 	0.280506
0.00145485 	-0.00026479 	-0.000211162 	0.283521
0.00150502 	-0.000263351 	-0.000218909 	0.286535
0.00155518 	-0.000261912 	-0.000226655 	0.28955
0.00160535 	-0.000260474 	-0.000234402 	0.292564
0.00165552 	-0.000259035 	-0.000242149 	0.295579
0.00170569 	-0.000257596 	-0.000249896 	0.298593
0.00175585 	-0.000255904 	-0.000257243 	0.301319
0.00180602 	-0.000253516 	-0.00026349 	0.303249
0.00185619 	-0.000251128 	-0.000269737 	0.30518
0.00190635 	-0.000248739 	-0.000275984 	0.307111
0.00195652 	-0.000246351 	-0.000282231 	0.309042
0.00200669 	-0.000243963 	-0.000288479 	0.310973
0.00205686 	-0.000241575 	-0.000294726 	0.312903
0.00210702 	-0.000239187 	-0.000300973 	0.314834
0.00215719 	-0.000236799 	-0.00030722 	0.316765
0.00220736 	-0.000234411 	-0.000313467 	0.318696
0.00225753 	-0.000232023 	-0.000319714 	0.320627
0.00230769 	-0.000229635 	-0.000325962 	0.322558
0.00235786 	-0.000227247 	-0.000332209 	0.324488
0.00240803 	-0.000225095 	-0.000337302 	0.325986
0.00245819 	-0.000223049 	-0.00034188 	0.327291
0.00250836 	-0.000221003 	-0.000346458 	0.328596
0.00255853 	-0.000218957 	-0.000351036 	0.329901
0.0026087 	-0.00021691 	-0.000355614 	0.331206
0.00265886 	-0.000214864 	-0.000360193 	0.332511
0.00270903 	-0.000212818 	-0.000364771 	0.333816
0.0027592 	-0.000210772 	-0.000369349 	0.335121
0.00280936 	-0.000208725 	-0.000373927 	0.336426
0.00285953 	-0.000206679 	-0.000378506 	0.337731
0.0029097 	-0.000204633 	-0.000383084 	0.339036
0.00295987 	-0.000202586 	-0.000387662 	0.340341
0.00301003 	-0.00020054 	-0.00039224 	0.341645
0.0030602 	-0.000198494 	-0.000396818 	0.34295
0.00311037 	-0.000196462 	-0.000401366 	0.344246
0.00316054 	-0.000195028 	-0.000404606 	0.345122
0.0032107 	-0.000193595 	-0.000407846 	0.345999
0.00326087 	-0.000192162 	-0.000411086 	0.346876
0.00331104 	-0.000190729 	-0.000414326 	0.347752
0.0033612 	-0.000189296 	-0.000417565 	0.348629
0.00341137 	-0.000187863 	-0.000420805 	0.349506
0.00346154 	-0.00018643 	-0.000424045 	0.350382
0.00351171 	-0.000184996 	-0.000427285 	0.351259
0.00356187 	-0.000183563 	-0.000430525 	0.352135
0.00361204 	-0.00018213 	-0.000433764 	0.353012
0.00366221 	-0.000180697 	-0.000437004 	0.353889
0.00371237 	-0.000179264 	-0.000440244 	0.354765
0.00376254 	-0.000177831 	-0.000443484 	0.355642
0.00381271 	-0.000176397 	-0.000446724 	0.356519
0.00386288 	-0.000174964 	-0.000449963 	0.357395
0.00391304 	-0.000173531 	-0.000453203 	0.358272
0.00396321 	-0.000172098 	-0.000456443 	0.359149
0.00401338 	-0.000171065 	-0.00045884 	0.359728
0.00406355 	-0.000170072 	-0.000461155 	0.360277
0.00411371 	-0.000169078 	-0.000463469 	0.360827
0.00416388 	-0.000168085 	-0.000465784 	0.361377
0.00421405 	-0.000167091 	-0.000468098 	0.361927
0.00426421 	-0.000166098 	-0.000470413 	0.362476
0.00431438 	-0.000165104 	-0.000472727 	0.363026
0.00436455 	-0.00016411 	-0.000475042 	0.363576
0.00441472 	-0.000163117 	-0.000477356 	0.364126
0.00446488 	-0.000162123 	-0.000479671 	0.364675
0.00451505 	-0.00016113 	-0.000481985 	0.365225
0.00456522 	-0.000160136 	-0.0004843 	0.365775
0.00461538 	-0.000159143 	-0.000486614 	0.366325
0.00466555 	-0.000158149 	-0.000488929 	0.366874
0.00471572 	-0.000157156 	-0.000491243 	0.367424
0.00476589 	-0.000156162 	-0.000493558 	0.367974
0.00481605 	-0.000155169 	-0.000495872 	0.368524
0.00486622 	-0.000154175 	-0.000498187 	0.369074
0.00491639 	-0.000153182 	-0.000500501 	0.369623
0.00496656 	-0.000152188 	-0.000502816 	0.370173
0.00501672 	-0.0001514 	-0.000504413 	0.370474
0.00506689 	-0.000150623 	-0.000505972 	0.370761
0.00511706 	-0.000149846 	-0.00050753 	0.371048
0.00516722 	-0.000149068 	-0.000509089 	0.371335
0.00521739 	-0.000148291 	-0.000510648 	0.371622
0.00526756 	-0.000147514 	-0.000512206 	0.37191
0.00531773 	-0.000146737 	-0.000513765 	0.372197
0.00536789 	-0.00014596 	-0.000515323 	0.372484
0.00541806 	-0.000145183 	-0.000516882 	0.372771
0.00546823 	-0.000144405 	-0.000518441 	0.373059
0.00551839 	-0.000143628 	-0.000519999 	0.373346
0.00556856 	-0.000142851 	-0.000521558 	0.373633
0.00561873 	-0.000142074 	-0.000523117 	0.37392
0.0056689 	-0.000141297 	-0.000524675 	0.374207
0.00571906 	-0.00014052 	-0.000526234 	0.374495
0.00576923 	-0.000139743 	-0.000527793 	0.374782
0.0058194 	-0.000138965 	-0.000529351 	0.375069
0.00586957 	-0.000138188 	-0.00053091 	0.375356
0.00591973 	-0.000137411 	-0.000532468 	0.375643
0.0059699 	-0.000136634 	-0.000534027 	0.375931
0.00602007 	-0.000135857 	-0.000535586 	0.376218
0.00607023 	-0.00013508 	-0.000537144 	0.376505
0.0061204 	-0.000134302 	-0.000538703 	0.376792
0.00617057 	-0.000133622 	-0.000539747 	0.376933
0.00622074 	-0.000132991 	-0.00054053 	0.377
0.0062709 	-0.00013236 	-0.000541313 	0.377067
0.00632107 	-0.000131729 	-0.000542096 	0.377134
0.00637124 	-0.000131098 	-0.000542879 	0.377201
0.0064214 	-0.000130467 	-0.000543662 	0.377268
0.00647157 	-0.000129836 	-0.000544445 	0.377335
0.00652174 	-0.000129205 	-0.000545229 	0.377402
0.00657191 	-0.000128574 	-0.000546012 	0.377469
0.00662207 	-0.000127943 	-0.000546795 	0.377536
0.00667224 	-0.000127312 	-0.000547578 	0.377603
0.00672241 	-0.000126681 	-0.000548361 	0.377669
0.00677258 	-0.00012605 	-0.000549144 	0.377736
0.00682274 	-0.000125419 	-0.000549927 	0.377803
0.00687291 	-0.000124788 	-0.00055071 	0.37787
0.00692308 	-0.000124158 	-0.000551493 	0.377937
0.00697324 	-0.000123527 	-0.000552276 	0.378004
0.00702341 	-0.000122896 	-0.000553059 	0.378071
0.00707358 	-0.000122265 	-0.000553842 	0.378138
0.00712375 	-0.000121634 	-0.000554625 	0.378205
0.00717391 	-0.000121003 	-0.000555409 	0.378272
0.00722408 	-0.000120372 	-0.000556192 	0.378339
0.00727425 	-0.000119741 	-0.000556975 	0.378406
0.00732441 	-0.00011911 	-0.000557758 	0.378472
0.00737458 	-0.000118479 	-0.000558541 	0.378539
0.00742475 	-0.000117848 	-0.000559324 	0.378606
0.00747492 	-0.000117217 	-0.000560107 	0.378673
0.00752508 	-0.000116643 	-0.000560505 	0.378641
0.00757525 	-0.000116127 	-0.000560519 	0.37851
0.00762542 	-0.000115611 	-0.000560533 	0.378379
0.00767559 	-0.000115095 	-0.000560547 	0.378247
0.00772575 	-0.000114579 	-0.000560561 	0.378116
0.00777592 	-0.000114062 	-0.000560575 	0.377985
0.00782609 	-0.000113546 	-0.000560589 	0.377853
0.00787625 	-0.00011303 	-0.000560603 	0.377722
0.00792642 	-0.000112514 	-0.000560617 	0.377591
0.00797659 	-0.000111998 	-0.000560631 	0.37746
0.00802676 	-0.000111482 	-0.000560645 	0.377328
0.00807692 	-0.000110966 	-0.000560659 	0.377197
0.00812709 	-0.000110449 	-0.000560673 	0.377066
0.00817726 	-0.000109933 	-0.000560687 	0.376934
0.00822742 	-0.000109417 	-0.000560701 	0.376803
0.00827759 	-0.000108901 	-0.000560715 	0.376672
0.00832776 	-0.000108385 	-0.000560729 	0.376541
0.00837793 	-0.000107869 	-0.000560743 	0.376409
0.00842809 	-0.000107352 	-0.000560757 	0.376278
0.00847826 	-0.000106836 	-0.000560771 	0.376147
0.00852843 	-0.00010632 	-0.000560785 	0.376016
0.0085786 	-0.000105804 	-0.000560799 	0.375884
0.00862876 	-0.000105288 	-0.000560813 	0.375753
0.00867893 	-0.000104772 	-0.000560827 	0.375622
0.0087291 	-0.000104256 	-0.000560841 	0.37549
0.00877926 	-0.000103739 	-0.000560854 	0.375359
0.00882943 	-0.000103223 	-0.000560868 	0.375228
0.0088796 	-0.000102761 	-0.000560566 	0.375016
0.00892977 	-0.000102404 	-0.000559639 	0.374645
0.00897993 	-0.000102047 	-0.000558713 	0.374274
0.0090301 	-0.000101691 	-0.000557786 	0.373902
0.00908027 	-0.000101334 	-0.00055686 	0.373531
0.00913043 	-0.000100977 	-0.000555933 	0.37316
0.0091806 	-0.00010062 	-0.000555007 	0.372789
0.00923077 	-0.000100264 	-0.000554081 	0.372418
0.00928094 	-9.9907e-05 	-0.000553154 	0.372047
0.0093311 	-9.95502e-05 	-0.000552228 	0.371676
0.00938127 	-9.91935e-05 	-0.000551301 	0.371304
0.00943144 	-9.88368e-05 	-0.000550375 	0.370933
0.00948161 	-9.84801e-05 	-0.000549448 	0.370562
0.00953177 	-9.81233e-05 	-0.000548522 	0.370191
0.00958194 	-9.77666e-05 	-0.000547595 	0.36982
0.00963211 	-9.74099e-05 	-0.000546669 	0.369449
0.00968227 	-9.70531e-05 	-0.000545742 	0.369078
0.00973244 	-9.66964e-05 	-0.000544816 	0.368706
0.00978261 	-9.63397e-05 	-0.000543889 	0.368335
0.00983278 	-9.5983e-05 	-0.000542963 	0.367964
0.00988294 	-9.56262e-05 	-0.000542036 	0.367593
0.00993311 	-9.52695e-05 	-0.00054111 	0.367222
0.00998328 	-9.49128e-05 	-0.000540183 	0.366851
0.0100334 	-9.45735e-05 	-0.000539201 	0.366465
0.0100836 	-9.45607e-05 	-0.000537173 	0.36581
0.0101338 	-9.45478e-05 	-0.000535146 	0.365156
0.0101839 	-9.4535e-05 	-0.000533118 	0.364501
0.0102341 	-9.45221e-05 	-0.00053109 	0.363846
0.0102843 	-9.45093e-05 	-0.000529063 	0.363192
0.0103344 	-9.44964e-05 	-0.000527035 	0.362537
0.0103846 	-9.44836e-05 	-0.000525007 	0.361882
0.0104348 	-9.44707e-05 	-0.00052298 	0.361228
0.0104849 	-9.44579e-05 	-0.000520952 	0.360573
0.0105351 	-9.4445e-05 	-0.000518924 	0.359918
0.0105853 	-9.44322e-05 	-0.000516897 	0.359264
0.0106355 	-9.44193e-05 	-0.000514869 	0.358609
0.0106856 	-9.44065e-05 	-0.000512841 	0.357954
0.0107358 	-9.43936e-05 	-0.000510814 	0.3573
0.010786 	-9.43807e-05 	-0.000508786 	0.356645
0.0108361 	-9.43679e-05 	-0.000506758 	0.35599
0.0108863 	-9.4355e-05 	-0.000504731 	0.355336
0.0109365 	-9.43422e-05 	-0.000502703 	0.354681
0.0109866 	-9.43293e-05 	-0.000500675 	0.354026
0.0110368 	-9.43715e-05 	-0.000498505 	0.353339
0.011087 	-9.49746e-05 	-0.000494885 	0.352317
0.0111371 	-9.55778e-05 	-0.000491264 	0.351295
0.0111873 	-9.61809e-05 	-0.000487643 	0.350274
0.0112375 	-9.6784e-05 	-0.000484023 	0.349252
0.0112876 	-9.73871e-05 	-0.000480402 	0.34823
0.0113378 	-9.79903e-05 	-0.000476782 	0.347208
0.011388 	-9.85934e-05 	-0.000473161 	0.346186
0.0114381 	-9.91965e-05 	-0.00046954 	0.345165
0.0114883 	-9.97997e-05 	-0.00046592 	0.344143
0.0115385 	-0.000100403 	-0.000462299 	0.343121
0.0115886 	-0.000101006 	-0.000458679 	0.342099
0.0116388 	-0.000101609 	-0.000455058 	0.341078
0.011689 	-0.000102212 	-0.000451437 	0.340056
0.0117391 	-0.000102815 	-0.000447817 	0.339034
0.0117893 	-0.000103418 	-0.000444196 	0.338012
0.0118395 	-0.000104022 	-0.000440576 	0.336991
0.0118896 	-0.000104625 	-0.000436955 	0.335969
0.0119398 	-0.000106099 	-0.000430848 	0.33441
0.01199 	-0.000107593 	-0.000424683 	0.332839
0.0120401 	-0.000109088 	-0.000418518 	0.331268
0.0120903 	-0.000110582 	-0.000412353 	0.329697
0.0121405 	-0.000112077 	-0.000406188 	0.328126
0.0121906 	-0.000113571 	-0.000400023 	0.326555
0.0122408 	-0.000115066 	-0.000393858 	0.324984
0.012291 	-0.00011656 	-0.000387693 	0.323413
0.0123411 	-0.000118054 	-0.000381528 	0.321842
0.0123913 	-0.000119549 	-0.000375363 	0.320271
0.0124415 	-0.000121043 	-0.000369198 	0.3187
0.0124916 	-0.000122538 	-0.000363033 	0.317129
0.0125418 	-0.000124032 	-0.000356868 	0.315558
0.012592 	-0.000125527 	-0.000350703 	0.313987
0.0126421 	-0.000127271 	-0.000343576 	0.312132
0.0126923 	-0.000129578 	-0.000334292 	0.30964
0.0127425 	-0.000131885 	-0.000325007 	0.307148
0.0127926 	-0.000134192 	-0.000315722 	0.304656
0.0128428 	-0.000136498 	-0.000306438 	0.302164
0.012893 	-0.000138805 	-0.000297153 	0.299672
0.0129431 	-0.000141112 	-0.000287869 	0.29718
0.0129933 	-0.000143419 	-0.000278584 	0.294688
0.0130435 	-0.000145725 	-0.0002693 	0.292196
0.0130936 	-0.000148032 	-0.000260015 	0.289704
0.0131438 	-0.000150339 	-0.00025073 	0.287212
0.013194 	-0.000152646 	-0.000241446 	0.28472
0.0132441 	-0.000154952 	-0.000232161 	0.282228
0.0132943 	-0.000156956 	-0.000221285 	0.278523
0.0133445 	-0.00015885 	-0.000209831 	0.274378
0.0133946 	-0.000160744 	-0.000198376 	0.270232
0.0134448 	-0.000162638 	-0.000186922 	0.266087
0.013495 	-0.000164532 	-0.000175467 	0.261941
0.0135452 	-0.000166426 	-0.000164013 	0.257796
0.0135953 	-0.000168319 	-0.000152558 	0.25365
0.0136455 	-0.000170213 	-0.000141104 	0.249505
0.0136957 	-0.000172107 	-0.000129649 	0.245359
0.0137458 	-0.000174001 	-0.000118195 	0.241214
0.013796 	-0.000175895 	-0.00010674 	0.237068
0.0138462 	-0.000173893 	-9.69069e-05 	0.22963
0.0138963 	-0.000171702 	-8.71523e-05 	0.222032
0.0139465 	-0.00016951 	-7.73976e-05 	0.214434
0.0139967 	-0.000167319 	-6.7643e-05 	0.206835
0.0140468 	-0.000165128 	-5.78884e-05 	0.199237
0.014097 	-0.000162936 	-4.81338e-05 	0.191639
0.0141472 	-0.000160745 	-3.83792e-05 	0.18404
0.0141973 	-0.000158553 	-2.86246e-05 	0.176442
0.0142475 	-0.000156362 	-1.887e-05 	0.168844
0.0142977 	-0.000148924 	-1.37608e-05 	0.158301
0.0143478 	-0.000139371 	-1.05252e-05 	0.14657
0.014398 	-0.000129817 	-7.28954e-06 	0.134839
0.0144482 	-0.000120264 	-4.05391e-06 	0.123109
0.0144983 	-0.000110711 	-8.18274e-07 	0.111378
0.0145485 	-0.000101157 	2.41736e-06 	0.0996478
0.0145987 	-9.16036e-05 	5.65299e-06 	0.0879172
0.0146488 	-8.20502e-05 	8.88862e-06 	0.0761866
0.014699 	-7.07293e-05 	8.45134e-06 	0.0651464
0.0147492 	-5.89411e-05 	7.04278e-06 	0.0542886
0.0147993 	-4.71529e-05 	5.63422e-06 	0.0434309
0.0148495 	-3.53647e-05 	4.22567e-06 	0.0325732
0.0148997 	-2.35764e-05 	2.81711e-06 	0.0217155
0.0149498 	-1.17882e-05 	1.40856e-06 	0.0108577
0.015 	0 	0 	0
