-0.0075 	0 	0 	0
-0.0075 	-6.87296e-36 	-2.51778e-36 	1.8568e-31
-0.00745622 	-5.64571e-07 	-2.0682e-07 	0.0152525
-0.00745622 	-5.64571e-07 	-2.0682e-07 	0.0152525
-0.00741165 	-1.48817e-06 	-6.97507e-07 	0.0296926
-0.00741165 	-1.48817e-06 	-6.97507e-07 	0.0296926
-0.00736628 	-2.47606e-06 	-1.54517e-06 	0.04342
-0.00736628 	-2.47606e-06 	-1.54517e-06 	0.04342
-0.0073201 	-3.36403e-06 	-2.75174e-06 	0.0564611
-0.0073201 	-3.36403e-06 	-2.75174e-06 	0.0564611
-0.00727309 	-4.1592e-06 	-4.35284e-06 	0.0688404
-0.00727309 	-4.1592e-06 	-4.35284e-06 	0.0688404
-0.00722524 	-4.88743e-06 	-6.35164e-06 	0.0805804
-0.00722524 	-4.88743e-06 	-6.35164e-06 	0.0805804
-0.00717653 	-5.55377e-06 	-8.76291e-06 	0.0916929
-0.00717653 	-5.55377e-06 	-8.76291e-06 	0.0916929
-0.00712695 	-6.15916e-06 	-1.16061e-05 	0.102168
-0.00712695 	-6.15916e-06 	-1.16061e-05 	0.102168
-0.00707647 	-6.70361e-06 	-1.49164e-05 	0.11198
-0.00707647 	-6.70361e-06 	-1.49164e-05 	0.11198
-0.0070251 	-7.18663e-06 	-1.875e-05 	0.121102
-0.0070251 	-7.18663e-06 	-1.875e-05 	0.121102
-0.0069728 	-7.60787e-06 	-2.31794e-05 	0.129528
-0.0069728 	-7.60787e-06 	-2.31794e-05 	0.129528
-0.00691956 	-7.96764e-06 	-2.82794e-05 	0.137276
-0.00691956 	-7.96764e-06 	-2.82794e-05 	0.137276
-0.00686537 	-8.26728e-06 	-3.41164e-05 	0.144385
-0.00686537 	-8.26728e-06 	-3.41164e-05 	0.144385
-0.00681021 	-8.50956e-06 	-4.07542e-05 	0.150909
-0.00681021 	-8.50956e-06 	-4.07542e-05 	0.150909
-0.00675406 	-8.69826e-06 	-4.82614e-05 	0.15691
-0.00675406 	-8.69826e-06 	-4.82614e-05 	0.15691
-0.0066969 	-8.83722e-06 	-5.67008e-05 	0.16244
-0.0066969 	-8.83722e-06 	-5.67008e-05 	0.16244
-0.00663871 	-8.93016e-06 	-6.61163e-05 	0.167547
-0.00663871 	-8.93016e-06 	-6.61163e-05 	0.167547
-0.00657949 	-8.98069e-06 	-7.65139e-05 	0.172273
-0.00657949 	-8.98069e-06 	-7.65139e-05 	0.172273
-0.0065192 	-8.99238e-06 	-8.78598e-05 	0.17666
-0.0065192 	-8.99238e-06 	-8.78598e-05 	0.17666
-0.00645783 	-8.96886e-06 	-0.000100105 	0.180749
-0.00645783 	-8.96886e-06 	-0.000100105 	0.180749
-0.00639535 	-8.91356e-06 	-0.000113198 	0.184581
-0.00639535 	-8.91356e-06 	-0.000113198 	0.184581
-0.00633176 	-8.82963e-06 	-0.000127084 	0.188186
-0.00633176 	-8.82963e-06 	-0.000127084 	0.188186
-0.00626703 	-8.71989e-06 	-0.000141711 	0.191591
-0.00626703 	-8.71989e-06 	-0.000141711 	0.191591
-0.00620114 	-8.5868e-06 	-0.000157021 	0.194819
-0.00620114 	-8.5868e-06 	-0.000157021 	0.194819
-0.00613406 	-8.43249e-06 	-0.000172955 	0.197892
-0.00613406 	-8.43249e-06 	-0.000172955 	0.197892
-0.00606579 	-8.2587e-06 	-0.000189455 	0.200827
-0.00606579 	-8.2587e-06 	-0.000189455 	0.200827
-0.00599629 	-8.0667e-06 	-0.000206454 	0.203641
-0.00599629 	-8.0667e-06 	-0.000206454 	0.203641
-0.00592554 	-7.8574e-06 	-0.000223886 	0.206348
-0.00592554 	-7.8574e-06 	-0.000223886 	0.206348
-0.00585352 	-7.63171e-06 	-0.000241677 	0.208964
-0.00585352 	-7.63171e-06 	-0.000241677 	0.208964
-0.00578022 	-7.39071e-06 	-0.000259742 	0.211501
-0.00578022 	-7.39071e-06 	-0.000259742 	0.211501
-0.00570559 	-7.13554e-06 	-0.000277982 	0.21397
-0.00570559 	-7.13554e-06 	-0.000277982 	0.21397
-0.00562963 	-6.86707e-06 	-0.000296298 	0.216378
-0.00562963 	-6.86707e-06 	-0.000296298 	0.216378
-0.00555231 	-6.586e-06 	-0.000314589 	0.218732
-0.00555231 	-6.586e-06 	-0.000314589 	0.218732
-0.0054736 	-6.29293e-06 	-0.000332753 	0.221038
-0.0054736 	-6.29293e-06 	-0.000332753 	0.221038
-0.00539348 	-5.98839e-06 	-0.000350688 	0.223301
-0.00539348 	-5.98839e-06 	-0.000350688 	0.223301
-0.00531193 	-5.67284e-06 	-0.000368288 	0.225524
-0.00531193 	-5.67284e-06 	-0.000368288 	0.225524
-0.00522891 	-5.34672e-06 	-0.000385451 	0.227711
-0.00522891 	-5.34672e-06 	-0.000385451 	0.227711
-0.0051444 	-5.01042e-06 	-0.000402078 	0.229862
-0.0051444 	-5.01042e-06 	-0.000402078 	0.229862
-0.00505838 	-4.6643e-06 	-0.00041807 	0.231981
-0.00505838 	-4.6643e-06 	-0.00041807 	0.231981
-0.00497081 	-4.30869e-06 	-0.000433336 	0.234066
-0.00497081 	-4.30869e-06 	-0.000433336 	0.234066
-0.00488168 	-3.94388e-06 	-0.000447791 	0.236119
-0.00488168 	-3.94388e-06 	-0.000447791 	0.236119
-0.00479094 	-3.57008e-06 	-0.000461352 	0.238138
-0.00479094 	-3.57008e-06 	-0.000461352 	0.238138
-0.00469858 	-3.18735e-06 	-0.000473941 	0.240122
-0.00469858 	-3.18735e-06 	-0.000473941 	0.240122
-0.00460456 	-2.7956e-06 	-0.000485487 	0.24207
-0.00460456 	-2.7956e-06 	-0.000485487 	0.24207
-0.00450886 	-2.39454e-06 	-0.000495936 	0.24398
-0.00450886 	-2.39454e-06 	-0.000495936 	0.24398
-0.00441144 	-1.98387e-06 	-0.000505264 	0.24585
-0.00441144 	-1.98387e-06 	-0.000505264 	0.24585
-0.00431227 	-1.56334e-06 	-0.000513478 	0.247679
-0.00431227 	-1.56334e-06 	-0.000513478 	0.247679
-0.00421133 	-1.13285e-06 	-0.000520619 	0.249465
-0.00421133 	-1.13285e-06 	-0.000520619 	0.249465
-0.00410857 	-6.92074e-07 	-0.000526748 	0.251206
-0.00410857 	-6.92074e-07 	-0.000526748 	0.251206
-0.00400397 	-2.39849e-07 	-0.000531946 	0.252898
-0.00400397 	-2.39849e-07 	-0.000531946 	0.252898
-0.0038975 	2.25709e-07 	-0.000536307 	0.254542
-0.0038975 	2.25709e-07 	-0.000536307 	0.254542
-0.00378912 	7.05772e-07 	-0.000539918 	0.256139
-0.00378912 	7.05772e-07 	-0.000539918 	0.256139
-0.00367879 	1.19975e-06 	-0.000542853 	0.257692
-0.00367879 	1.19975e-06 	-0.000542853 	0.257692
-0.00356649 	1.70589e-06 	-0.000545173 	0.259201
-0.00356649 	1.70589e-06 	-0.000545173 	0.259201
-0.00345217 	2.22244e-06 	-0.000546936 	0.260664
-0.00345217 	2.22244e-06 	-0.000546936 	0.260664
-0.0033358 	2.74801e-06 	-0.000548202 	0.262078
-0.0033358 	2.74801e-06 	-0.000548202 	0.262078
-0.00321735 	3.28122e-06 	-0.000549038 	0.263442
-0.00321735 	3.28122e-06 	-0.000549038 	0.263442
-0.00309677 	3.8204e-06 	-0.000549516 	0.264753
-0.00309677 	3.8204e-06 	-0.000549516 	0.264753
-0.00297403 	4.36364e-06 	-0.000549712 	0.266007
-0.00297403 	4.36364e-06 	-0.000549712 	0.266007
-0.00284909 	4.90868e-06 	-0.000549701 	0.267203
-0.00284909 	4.90868e-06 	-0.000549701 	0.267203
-0.0027219 	5.45301e-06 	-0.000549564 	0.268338
-0.0027219 	5.45301e-06 	-0.000549564 	0.268338
-0.00259244 	5.99396e-06 	-0.000549378 	0.269409
-0.00259244 	5.99396e-06 	-0.000549378 	0.269409
-0.00246065 	6.52883e-06 	-0.000549216 	0.270414
-0.00246065 	6.52883e-06 	-0.000549216 	0.270414
-0.00232651 	7.05469e-06 	-0.000549142 	0.271351
-0.00232651 	7.05469e-06 	-0.000549142 	0.271351
-0.00218995 	7.56847e-06 	-0.00054921 	0.272216
-0.00218995 	7.56847e-06 	-0.00054921 	0.272216
-0.00205095 	8.06695e-06 	-0.000549461 	0.273009
-0.00205095 	8.06695e-06 	-0.000549461 	0.273009
-0.00190946 	8.54687e-06 	-0.000549922 	0.273728
-0.00190946 	8.54687e-06 	-0.000549922 	0.273728
-0.00176543 	9.00463e-06 	-0.000550603 	0.274371
-0.00176543 	9.00463e-06 	-0.000550603 	0.274371
-0.00161881 	9.43592e-06 	-0.000551496 	0.274939
-0.00161881 	9.43592e-06 	-0.000551496 	0.274939
-0.00146957 	9.83548e-06 	-0.000552573 	0.275431
-0.00146957 	9.83548e-06 	-0.000552573 	0.275431
-0.00131765 	1.01974e-05 	-0.000553791 	0.275846
-0.00131765 	1.01974e-05 	-0.000553791 	0.275846
-0.001163 	1.05157e-05 	-0.000555097 	0.276186
-0.001163 	1.05157e-05 	-0.000555097 	0.276186
-0.00100559 	1.07837e-05 	-0.000556432 	0.27645
-0.00100559 	1.07837e-05 	-0.000556432 	0.27645
-0.000845345 	1.09934e-05 	-0.000557695 	0.276638
-0.000845345 	1.09934e-05 	-0.000557695 	0.276638
-0.000682232 	1.11363e-05 	-0.000558858 	0.276747
-0.000682232 	1.11363e-05 	-0.000558858 	0.276747
-0.000516194 	1.12022e-05 	-0.000559903 	0.276778
-0.000516194 	1.12022e-05 	-0.000559903 	0.276778
-0.000347178 	1.11807e-05 	-0.00056071 	0.276727
-0.000347178 	1.11807e-05 	-0.00056071 	0.276727
-0.000175132 	1.10579e-05 	-0.000561334 	0.276592
-0.000175132 	1.10579e-05 	-0.000561334 	0.276592
0 	1.08207e-05 	-0.000561658 	0.276372
0 	1.08207e-05 	-0.000561658 	0.276372
0 	1.08207e-05 	-0.000561658 	0.276372
0 	1.08207e-05 	-0.000561658 	0.276372
0.000175132 	1.04702e-05 	-0.000561519 	0.276068
0.000175132 	1.09514e-05 	-0.000465332 	0.272563
0.000347178 	1.00189e-05 	-0.000561023 	0.275687
0.000347178 	1.22294e-05 	-0.000467256 	0.272253
0.000516194 	9.48535e-06 	-0.000560067 	0.275234
0.000516194 	1.33291e-05 	-0.000468667 	0.271863
0.000682232 	8.88783e-06 	-0.000558677 	0.274713
0.000682232 	1.42684e-05 	-0.000469566 	0.271398
0.000845345 	8.23912e-06 	-0.000556963 	0.274127
0.000845345 	1.50632e-05 	-0.000470182 	0.270863
0.00100559 	7.5512e-06 	-0.000554891 	0.273479
0.00100559 	1.57299e-05 	-0.000470399 	0.270262
0.001163 	6.83493e-06 	-0.000552481 	0.272771
0.001163 	1.6284e-05 	-0.000470225 	0.269598
0.00131765 	6.09989e-06 	-0.000549748 	0.272007
0.00131765 	1.67395e-05 	-0.000469667 	0.268873
0.00146957 	5.35442e-06 	-0.000546707 	0.271187
0.00146957 	1.7109e-05 	-0.000468732 	0.268091
0.00161881 	4.60571e-06 	-0.000543371 	0.270315
0.00161881 	1.74036e-05 	-0.000467426 	0.267253
0.00176543 	3.85984e-06 	-0.000539752 	0.269391
0.00176543 	1.76331e-05 	-0.000465759 	0.266362
0.00190946 	3.12197e-06 	-0.00053586 	0.268418
0.00190946 	1.78061e-05 	-0.000463738 	0.265419
0.00205095 	2.39644e-06 	-0.000531703 	0.267396
0.00205095 	1.79299e-05 	-0.000461369 	0.264426
0.00218995 	1.68686e-06 	-0.000527287 	0.266327
0.00218995 	1.80113e-05 	-0.000458659 	0.263384
0.00232651 	9.96169e-07 	-0.000522614 	0.265211
0.00232651 	1.80557e-05 	-0.000455611 	0.262294
0.00246065 	3.26714e-07 	-0.000517687 	0.26405
0.00246065 	1.80681e-05 	-0.000452227 	0.261157
0.00259244 	-3.19609e-07 	-0.000512506 	0.262843
0.00259244 	1.80524e-05 	-0.000448506 	0.259974
0.0027219 	-9.41296e-07 	-0.000507069 	0.261593
0.0027219 	1.80119e-05 	-0.000444446 	0.258746
0.00284909 	-1.53717e-06 	-0.000501373 	0.260297
0.00284909 	1.79491e-05 	-0.000440042 	0.257473
0.00297403 	-2.10635e-06 	-0.000495411 	0.258958
0.00297403 	1.78662e-05 	-0.000435285 	0.256155
0.00309677 	-2.64819e-06 	-0.000489179 	0.257574
0.00309677 	1.77649e-05 	-0.000430167 	0.254792
0.00321735 	-3.16226e-06 	-0.000482669 	0.256146
0.00321735 	1.76463e-05 	-0.000424677 	0.253385
0.0033358 	-3.64831e-06 	-0.000475874 	0.254673
0.0033358 	1.75114e-05 	-0.000418806 	0.251932
0.00345217 	1.7361e-05 	-0.000412553 	0.250433
0.00345217 	-4.10624e-06 	-0.00046879 	0.253155
0.00356649 	-4.53604e-06 	-0.000461407 	0.25159
0.00356649 	1.71964e-05 	-0.000405915 	0.248887
0.00367879 	-4.93769e-06 	-0.000453712 	0.249978
0.00367879 	1.70198e-05 	-0.000398882 	0.247295
0.00378912 	-5.31108e-06 	-0.000445684 	0.248318
0.00378912 	1.6834e-05 	-0.000391437 	0.245657
0.0038975 	-5.65612e-06 	-0.000437295 	0.246607
0.0038975 	1.664e-05 	-0.000383549 	0.243972
0.00400397 	-5.97283e-06 	-0.000428501 	0.244843
0.00400397 	1.64379e-05 	-0.000375151 	0.242232
0.00410857 	1.62287e-05 	-0.000366142 	0.240424
0.00410857 	-6.26102e-06 	-0.000419234 	0.243019
0.00421133 	-6.52063e-06 	-0.000409422 	0.241129
0.00421133 	1.60127e-05 	-0.000356432 	0.238537
0.00431227 	-6.75243e-06 	-0.000398985 	0.239167
0.00431227 	1.57879e-05 	-0.000345959 	0.236566
0.00441144 	-6.95779e-06 	-0.000387862 	0.237125
0.00441144 	1.55511e-05 	-0.000334691 	0.234507
0.00450886 	-7.13806e-06 	-0.000376029 	0.234998
0.00450886 	1.52994e-05 	-0.00032264 	0.232356
0.00460456 	-7.29416e-06 	-0.000363485 	0.23278
0.00460456 	1.50297e-05 	-0.000309847 	0.23011
0.00469858 	-7.42666e-06 	-0.000350249 	0.230467
0.00469858 	1.47392e-05 	-0.000296361 	0.227764
0.00479094 	-7.53599e-06 	-0.000336345 	0.228054
0.00479094 	1.44252e-05 	-0.000282237 	0.225314
0.00488168 	-7.62258e-06 	-0.000321805 	0.225537
0.00488168 	1.40849e-05 	-0.000267533 	0.222757
0.00497081 	-7.68693e-06 	-0.000306667 	0.22291
0.00497081 	1.37156e-05 	-0.000252315 	0.220087
0.00505838 	-7.72956e-06 	-0.000290986 	0.220171
0.00505838 	1.33144e-05 	-0.000236661 	0.217301
0.0051444 	-7.75106e-06 	-0.00027483 	0.217314
0.0051444 	1.28787e-05 	-0.00022066 	0.214396
0.00522891 	-7.752e-06 	-0.00025828 	0.214337
0.00522891 	1.24061e-05 	-0.00020442 	0.21137
0.00531193 	-7.73296e-06 	-0.000241439 	0.211237
0.00531193 	1.18944e-05 	-0.000188062 	0.208219
0.00539348 	-7.69449e-06 	-0.000224421 	0.20801
0.00539348 	1.13419e-05 	-0.000171722 	0.204941
0.0054736 	-7.63715e-06 	-0.000207351 	0.204653
0.0054736 	1.07475e-05 	-0.000155545 	0.201536
0.00555231 	-7.56143e-06 	-0.000190363 	0.201162
0.00555231 	1.01101e-05 	-0.000139676 	0.198001
0.00562963 	-7.46785e-06 	-0.000173592 	0.197535
0.00562963 	9.42943e-06 	-0.000124261 	0.194333
0.00570559 	-7.35686e-06 	-0.00015717 	0.193766
0.00570559 	8.70539e-06 	-0.000109432 	0.19053
0.00578022 	-7.22893e-06 	-0.000141223 	0.18985
0.00578022 	7.93839e-06 	-9.53096e-05 	0.186587
0.00585352 	-7.0845e-06 	-0.000125867 	0.185782
0.00585352 	7.12928e-06 	-8.19977e-05 	0.182501
0.00592554 	-6.92402e-06 	-0.000111204 	0.181556
0.00592554 	6.27941e-06 	-6.95795e-05 	0.178265
0.00599629 	-6.74789e-06 	-9.73238e-05 	0.177163
0.00599629 	5.39073e-06 	-5.81177e-05 	0.173874
0.00606579 	-6.55641e-06 	-8.42982e-05 	0.172595
0.00606579 	4.46584e-06 	-4.7655e-05 	0.169317
0.00613406 	-6.34979e-06 	-7.21891e-05 	0.167841
0.00613406 	3.50793e-06 	-3.82148e-05 	0.164583
0.00620114 	2.52072e-06 	-2.98033e-05 	0.159655
0.00620114 	-6.12824e-06 	-6.1044e-05 	0.162883
0.00626703 	-5.89222e-06 	-5.0899e-05 	0.157705
0.00626703 	1.50883e-06 	-2.24172e-05 	0.154518
0.00633176 	4.78567e-07 	-1.60425e-05 	0.149154
0.00633176 	-5.64261e-06 	-4.17823e-05 	0.15229
0.00639535 	-5.61945e-07 	-1.06485e-05 	0.14355
0.00639535 	-5.38043e-06 	-3.37043e-05 	0.146624
0.00645783 	-5.10673e-06 	-2.66545e-05 	0.140691
0.00645783 	-1.60274e-06 	-6.18734e-06 	0.137689
0.0065192 	-4.82269e-06 	-2.06069e-05 	0.134473
0.0065192 	-2.63181e-06 	-2.59919e-06 	0.131554
0.00657949 	-4.52973e-06 	-1.55226e-05 	0.127953
0.00657949 	-3.63474e-06 	1.84825e-07 	0.125126
0.00663871 	-4.22924e-06 	-1.13493e-05 	0.121115
0.00663871 	-4.59441e-06 	2.24063e-06 	0.118391
0.0066969 	-3.92234e-06 	-8.00819e-06 	0.113941
0.0066969 	-5.4917e-06 	3.65402e-06 	0.111325
0.00675406 	-6.30665e-06 	4.51562e-06 	0.103894
0.00675406 	-3.61016e-06 	-5.40637e-06 	0.106399
0.00681021 	-7.01656e-06 	4.91514e-06 	0.0960735
0.00681021 	-3.29504e-06 	-3.44404e-06 	0.0984563
0.00686537 	-7.59375e-06 	4.94075e-06 	0.0878808
0.00686537 	-2.98208e-06 	-2.02695e-06 	0.0901238
0.00691956 	-8.00815e-06 	4.68082e-06 	0.0793841
0.00691956 	-2.67799e-06 	-1.07123e-06 	0.081467
0.0069728 	-8.23226e-06 	4.22316e-06 	0.0707011
0.0069728 	-2.38899e-06 	-4.84031e-07 	0.0726034
0.0070251 	-2.11996e-06 	-1.69411e-07 	0.0637005
0.0070251 	-8.24668e-06 	3.64989e-06 	0.0619958
0.00707647 	-1.87344e-06 	-3.5336e-08 	0.0549563
0.00707647 	-8.04529e-06 	3.03305e-06 	0.0534592
0.00712695 	-1.6488e-06 	-2.76127e-09 	0.0465647
0.00712695 	-7.63708e-06 	2.42939e-06 	0.045276
0.00717653 	-1.44233e-06 	-1.29596e-08 	0.0386787
0.00717653 	-7.04332e-06 	1.87737e-06 	0.0375909
0.00722524 	-1.24781e-06 	-2.93322e-08 	0.0313885
0.00722524 	-6.29121e-06 	1.39848e-06 	0.030489
0.00727309 	-5.40727e-06 	1.00034e-06 	0.0239999
0.00727309 	-1.05656e-06 	-3.47009e-08 	0.0247252
0.0073201 	-4.41237e-06 	6.78085e-07 	0.0181155
0.0073201 	-8.54482e-07 	-2.71962e-08 	0.0186802
0.00736628 	-3.31687e-06 	4.31298e-07 	0.0128084
0.00736628 	-6.13564e-07 	-6.37609e-09 	0.0132247
0.00741165 	-3.30368e-07 	4.89694e-09 	0.00832174
0.00741165 	-2.15979e-06 	2.3285e-07 	0.00804288
0.00745622 	-9.0557e-08 	9.18369e-09 	0.00393222
0.00745622 	-1.03573e-06 	9.07044e-08 	0.00378084
0.0075 	0 	0 	0
0.0075 	0 	0 	0
