-0.0075 	0 	0 	0
-0.00745622 	-0.000763918 	-3.49491e-06 	0.0139338
-0.00741165 	-0.00128642 	-6.5033e-06 	0.0287009
-0.00736628 	-0.00169244 	-9.51661e-06 	0.0430756
-0.0073201 	-0.00211732 	-1.17105e-05 	0.0562826
-0.00727309 	-0.00257506 	-1.4204e-05 	0.0684394
-0.00722524 	-0.00303851 	-1.70111e-05 	0.0798033
-0.00717653 	-0.00349295 	-2.03375e-05 	0.0904953
-0.00712695 	-0.00392838 	-2.41603e-05 	0.100579
-0.00707647 	-0.00433735 	-2.8301e-05 	0.110083
-0.0070251 	-0.00471476 	-3.27054e-05 	0.119018
-0.0069728 	-0.00505808 	-3.72319e-05 	0.127391
-0.00691956 	-0.00536711 	-4.1821e-05 	0.13521
-0.00686537 	-0.00564327 	-4.65505e-05 	0.142493
-0.00681021 	-0.00588896 	-5.14307e-05 	0.149272
-0.00675406 	-0.00610683 	-5.65296e-05 	0.155579
-0.0066969 	-0.00629927 	-6.1796e-05 	0.161442
-0.00663871 	-0.00646834 	-6.702e-05 	0.166884
-0.00657949 	-0.00661593 	-7.21708e-05 	0.171933
-0.0065192 	-0.00674376 	-7.72683e-05 	0.176627
-0.00645783 	-0.00685344 	-8.22894e-05 	0.181003
-0.00639535 	-0.00694663 	-8.72326e-05 	0.185097
-0.00633176 	-0.00702512 	-9.19007e-05 	0.188942
-0.00626703 	-0.0070908 	-9.59203e-05 	0.192568
-0.00620114 	-0.00714549 	-9.91451e-05 	0.195999
-0.00613406 	-0.00719086 	-0.000101726 	0.199259
-0.00606579 	-0.00722841 	-0.000103756 	0.202364
-0.00599629 	-0.00725949 	-0.000105098 	0.205331
-0.00592554 	-0.00728528 	-0.000105569 	0.208171
-0.00585352 	-0.00730674 	-0.000105219 	0.210894
-0.00578022 	-0.00732476 	-0.00010438 	0.213505
-0.00570559 	-0.0073404 	-0.000103436 	0.216014
-0.00562963 	-0.00735501 	-0.000102619 	0.218432
-0.00555231 	-0.00736971 	-0.000101498 	0.220769
-0.0054736 	-0.0073851 	-9.92868e-05 	0.223029
-0.00539348 	-0.00740158 	-9.57495e-05 	0.225215
-0.00531193 	-0.00741952 	-9.10781e-05 	0.22733
-0.00522891 	-0.00743917 	-8.54388e-05 	0.229375
-0.0051444 	-0.00746076 	-7.89217e-05 	0.231349
-0.00505838 	-0.00748466 	-7.16012e-05 	0.233255
-0.00497081 	-0.00751139 	-6.32206e-05 	0.235092
-0.00488168 	-0.00754151 	-5.35724e-05 	0.236859
-0.00479094 	-0.00757539 	-4.33091e-05 	0.238553
-0.00469858 	-0.007613 	-3.33405e-05 	0.240176
-0.00460456 	-0.0076541 	-2.34215e-05 	0.241733
-0.00450886 	-0.00769855 	-1.30643e-05 	0.24323
-0.00441144 	-0.0077459 	-2.23106e-06 	0.24467
-0.00431227 	-0.00779529 	9.3239e-06 	0.246059
-0.00421133 	-0.00784606 	2.16877e-05 	0.247401
-0.00410857 	-0.00789819 	3.54795e-05 	0.248698
-0.00400397 	-0.00795282 	4.84797e-05 	0.249943
-0.0038975 	-0.00801251 	5.61849e-05 	0.251107
-0.00378912 	-0.00808022 	6.19639e-05 	0.252093
-0.00367879 	-0.00815708 	7.491e-05 	0.25282
-0.00356649 	-0.00824015 	0.000100125 	0.253474
-0.00345217 	-0.00832096 	0.000126995 	0.25481
-0.0033358 	-0.00839588 	0.000127455 	0.257375
-0.00321735 	-0.00848156 	0.000113143 	0.260021
-0.00309677 	-0.00858921 	0.000113321 	0.26177
-0.00297403 	-0.00867081 	0.000123224 	0.263343
-0.00284909 	-0.00863033 	0.000143745 	0.265777
-0.0027219 	-0.00851546 	0.000169658 	0.268561
-0.00259244 	-0.00844967 	0.000183219 	0.270612
-0.00246065 	-0.00845217 	0.000191432 	0.271981
-0.00232651 	-0.0084908 	0.000213479 	0.273102
-0.00218995 	-0.0085249 	0.00022817 	0.274363
-0.00205095 	-0.00854586 	0.000229687 	0.275573
-0.00190946 	-0.00855862 	0.000241697 	0.276377
-0.00176543 	-0.00856237 	0.000253747 	0.276714
-0.00161881 	-0.00855399 	0.000270394 	0.276889
-0.00146957 	-0.00852594 	0.000284794 	0.277416
-0.00131765 	-0.00847699 	0.000275507 	0.278299
-0.001163 	-0.00841563 	0.000270607 	0.279083
-0.00100559 	-0.00834585 	0.000279297 	0.279437
-0.000845345 	-0.00826603 	0.000282414 	0.279411
-0.000682232 	-0.00817196 	0.000289246 	0.279302
-0.000516194 	-0.00805809 	0.000292978 	0.279265
-0.000347178 	-0.00792672 	0.00027609 	0.278956
-0.000175132 	-0.00777752 	0.000272019 	0.277899
0 	-0.00759754 	0.000287881 	0.276068
0.000175132 	-0.00738833 	0.000274317 	0.274574
0.000347178 	-0.00716958 	0.000241254 	0.273972
0.000516194 	-0.00695495 	0.000221221 	0.273378
0.000682232 	-0.00674391 	0.000214663 	0.272271
0.000845345 	-0.00652831 	0.000219477 	0.270766
0.00100559 	-0.00631109 	0.000216977 	0.269504
0.001163 	-0.00610377 	0.000203711 	0.268796
0.00131765 	-0.00590854 	0.000196274 	0.268266
0.00146957 	-0.00572152 	0.000194679 	0.267611
0.00161881 	-0.00554009 	0.000192225 	0.266825
0.00176543 	-0.00536274 	0.000188116 	0.266015
0.00190946 	-0.00518856 	0.00018323 	0.265223
0.00205095 	-0.00501718 	0.000178578 	0.264434
0.00218995 	-0.00484855 	0.000174753 	0.263625
0.00232651 	-0.00468216 	0.000172293 	0.262778
0.00246065 	-0.0045173 	0.000171003 	0.261882
0.00259244 	-0.00435372 	0.00016978 	0.260943
0.0027219 	-0.00419153 	0.000168097 	0.259963
0.00284909 	-0.00403097 	0.000165533 	0.258946
0.00297403 	-0.00387226 	0.000161678 	0.257893
0.00309677 	-0.00371548 	0.000156552 	0.256806
0.00321735 	-0.00356049 	0.000150778 	0.255686
0.0033358 	-0.00340712 	0.000145245 	0.254531
0.00345217 	-0.00325539 	0.000140152 	0.25334
0.00356649 	-0.00310535 	0.000135063 	0.252114
0.00367879 	-0.00295695 	0.000129889 	0.250848
0.00378912 	-0.00281011 	0.000124754 	0.249539
0.0038975 	-0.00266484 	0.000119677 	0.248186
0.00400397 	-0.00252116 	0.000114739 	0.246786
0.00410857 	-0.00237904 	0.000109903 	0.245336
0.00421133 	-0.00223844 	0.00010566 	0.243834
0.00431227 	-0.00209895 	0.000102978 	0.242278
0.00441144 	-0.00195903 	0.000101138 	0.24066
0.00450886 	-0.0018159 	9.8514e-05 	0.238965
0.00460456 	-0.00166631 	9.4189e-05 	0.237183
0.00469858 	-0.00150852 	8.69584e-05 	0.235296
0.00479094 	-0.00135061 	7.9921e-05 	0.233178
0.00488168 	-0.00121579 	7.92375e-05 	0.230519
0.00497081 	-0.00112132 	7.89565e-05 	0.227134
0.00505838 	-0.00105186 	7.13315e-05 	0.223418
0.0051444 	-0.000950687 	6.46676e-05 	0.220271
0.00522891 	-0.00079645 	6.37821e-05 	0.217969
0.00531193 	-0.000632691 	6.42071e-05 	0.215901
0.00539348 	-0.000488476 	6.38258e-05 	0.213598
0.0054736 	-0.000360125 	6.26249e-05 	0.211001
0.00555231 	-0.000235752 	6.13697e-05 	0.208193
0.00562963 	-0.000109978 	6.01757e-05 	0.205224
0.00570559 	1.36618e-05 	5.98063e-05 	0.20206
0.00578022 	0.000124783 	6.05915e-05 	0.198596
0.00585352 	0.000216505 	6.07983e-05 	0.194706
0.00592554 	0.000296233 	5.995e-05 	0.190399
0.00599629 	0.000383285 	5.9407e-05 	0.185964
0.00606579 	0.000487052 	5.89678e-05 	0.181642
0.00613406 	0.000596478 	5.82048e-05 	0.17732
0.00620114 	0.000698878 	5.727e-05 	0.172777
0.00626703 	0.000790657 	5.60494e-05 	0.167895
0.00633176 	0.000872301 	5.45276e-05 	0.162647
0.00639535 	0.000943876 	5.24899e-05 	0.157017
0.00645783 	0.00100529 	4.97681e-05 	0.150989
0.0065192 	0.00105731 	4.64627e-05 	0.144579
0.00657949 	0.0011 	4.26149e-05 	0.137811
0.00663871 	0.00113149 	3.84147e-05 	0.130683
0.0066969 	0.00114957 	3.40462e-05 	0.123174
0.00675406 	0.00115276 	2.94359e-05 	0.115267
0.00681021 	0.00114001 	2.4666e-05 	0.106963
0.00686537 	0.00111078 	1.98351e-05 	0.0982867
0.00691956 	0.00106565 	1.50943e-05 	0.0893041
0.0069728 	0.00100662 	1.06822e-05 	0.0801357
0.0070251 	0.000936746 	6.70185e-06 	0.0709495
0.00707647 	0.000859366 	3.34286e-06 	0.0619337
0.00712695 	0.000777458 	7.9838e-07 	0.0532653
0.00717653 	0.000692797 	-7.92848e-07 	0.0450742
0.00722524 	0.000605237 	-1.34788e-06 	0.0374179
0.00727309 	0.000512331 	-9.78675e-07 	0.0302767
0.0073201 	0.000408773 	4.61442e-08 	0.0235571
0.00736628 	0.000284896 	1.08248e-06 	0.0170791
0.00741165 	0.000149024 	1.51745e-06 	0.0107623
0.00745622 	4.42921e-05 	1.12096e-06 	0.00492652
0.0075 	0 	0 	0
