-0.0075 	0 	0 	0
-0.0075 	6.21424e-34 	-2.04386e-36 	-8.09335e-33
-0.00745622 	0.000816738 	-2.68625e-06 	-0.0106371
-0.00745622 	0.000816738 	-2.68625e-06 	-0.0106371
-0.00741165 	0.000951677 	-4.84452e-06 	-0.0220213
-0.00741165 	0.000951677 	-4.84452e-06 	-0.0220213
-0.00736628 	0.000736165 	-8.85315e-06 	-0.0337034
-0.00736628 	0.000736165 	-8.85315e-06 	-0.0337034
-0.0073201 	0.000547624 	-1.2281e-05 	-0.0453764
-0.0073201 	0.000547624 	-1.2281e-05 	-0.0453764
-0.00727309 	0.000448952 	-1.43487e-05 	-0.0568714
-0.00727309 	0.000448952 	-1.43487e-05 	-0.0568714
-0.00722524 	0.000387785 	-1.60896e-05 	-0.0681147
-0.00722524 	0.000387785 	-1.60896e-05 	-0.0681147
-0.00717653 	0.000340443 	-1.75105e-05 	-0.0790402
-0.00717653 	0.000340443 	-1.75105e-05 	-0.0790402
-0.00712695 	0.000294113 	-1.87335e-05 	-0.0895714
-0.00712695 	0.000294113 	-1.87335e-05 	-0.0895714
-0.00707647 	0.000241143 	-1.98184e-05 	-0.0996361
-0.00707647 	0.000241143 	-1.98184e-05 	-0.0996361
-0.0070251 	0.00017733 	-2.06983e-05 	-0.109179
-0.0070251 	0.00017733 	-2.06983e-05 	-0.109179
-0.0069728 	0.000101285 	-2.12863e-05 	-0.118174
-0.0069728 	0.000101285 	-2.12863e-05 	-0.118174
-0.00691956 	1.45707e-05 	-2.15994e-05 	-0.126628
-0.00691956 	1.45707e-05 	-2.15994e-05 	-0.126628
-0.00686537 	-7.91337e-05 	-2.18373e-05 	-0.134572
-0.00686537 	-7.91337e-05 	-2.18373e-05 	-0.134572
-0.00681021 	-0.000176322 	-2.18313e-05 	-0.142047
-0.00681021 	-0.000176322 	-2.18313e-05 	-0.142047
-0.00675406 	-0.000274663 	-2.11542e-05 	-0.14909
-0.00675406 	-0.000274663 	-2.11542e-05 	-0.14909
-0.0066969 	-0.000373465 	-1.97982e-05 	-0.155734
-0.0066969 	-0.000373465 	-1.97982e-05 	-0.155734
-0.00663871 	-0.000473269 	-1.79881e-05 	-0.162005
-0.00663871 	-0.000473269 	-1.79881e-05 	-0.162005
-0.00657949 	-0.000574183 	-1.58266e-05 	-0.167927
-0.00657949 	-0.000574183 	-1.58266e-05 	-0.167927
-0.0065192 	-0.000675718 	-1.33295e-05 	-0.173523
-0.0065192 	-0.000675718 	-1.33295e-05 	-0.173523
-0.00645783 	-0.000777399 	-1.05201e-05 	-0.178814
-0.00645783 	-0.000777399 	-1.05201e-05 	-0.178814
-0.00639535 	-0.000878839 	-7.40526e-06 	-0.183819
-0.00639535 	-0.000878839 	-7.40526e-06 	-0.183819
-0.00633176 	-0.00097975 	-3.96707e-06 	-0.188557
-0.00633176 	-0.00097975 	-3.96707e-06 	-0.188557
-0.00626703 	-0.00108 	-1.62871e-07 	-0.193044
-0.00626703 	-0.00108 	-1.62871e-07 	-0.193044
-0.00620114 	-0.00117965 	4.01032e-06 	-0.197295
-0.00620114 	-0.00117965 	4.01032e-06 	-0.197295
-0.00613406 	-0.00127878 	8.42795e-06 	-0.201324
-0.00613406 	-0.00127878 	8.42795e-06 	-0.201324
-0.00606579 	-0.00137705 	1.23424e-05 	-0.20514
-0.00606579 	-0.00137705 	1.23424e-05 	-0.20514
-0.00599629 	-0.00147299 	1.51517e-05 	-0.208747
-0.00599629 	-0.00147299 	1.51517e-05 	-0.208747
-0.00592554 	-0.00156435 	1.79328e-05 	-0.212153
-0.00592554 	-0.00156435 	1.79328e-05 	-0.212153
-0.00585352 	-0.00164981 	2.19726e-05 	-0.215371
-0.00585352 	-0.00164981 	2.19726e-05 	-0.215371
-0.00578022 	-0.00172959 	2.71843e-05 	-0.218425
-0.00578022 	-0.00172959 	2.71843e-05 	-0.218425
-0.00570559 	-0.00180509 	3.21963e-05 	-0.221332
-0.00570559 	-0.00180509 	3.21963e-05 	-0.221332
-0.00562963 	-0.00187797 	3.57792e-05 	-0.224106
-0.00562963 	-0.00187797 	3.57792e-05 	-0.224106
-0.00555231 	-0.00194885 	3.84563e-05 	-0.226754
-0.00555231 	-0.00194885 	3.84563e-05 	-0.226754
-0.0054736 	-0.00201753 	4.14459e-05 	-0.229284
-0.0054736 	-0.00201753 	4.14459e-05 	-0.229284
-0.00539348 	-0.00208379 	4.60718e-05 	-0.231702
-0.00539348 	-0.00208379 	4.60718e-05 	-0.231702
-0.00531193 	-0.00214782 	5.39251e-05 	-0.23401
-0.00531193 	-0.00214782 	5.39251e-05 	-0.23401
-0.00522891 	-0.00221065 	6.71367e-05 	-0.236212
-0.00522891 	-0.00221065 	6.71367e-05 	-0.236212
-0.0051444 	-0.00227414 	8.12614e-05 	-0.23831
-0.0051444 	-0.00227414 	8.12614e-05 	-0.23831
-0.00505838 	-0.0023361 	7.80957e-05 	-0.240308
-0.00505838 	-0.0023361 	7.80957e-05 	-0.240308
-0.00497081 	-0.00238225 	4.88424e-05 	-0.242206
-0.00497081 	-0.00238225 	4.88424e-05 	-0.242206
-0.00488168 	-0.00239527 	2.40108e-05 	-0.244005
-0.00488168 	-0.00239527 	2.40108e-05 	-0.244005
-0.00479094 	-0.0023854 	5.38732e-05 	-0.245737
-0.00479094 	-0.0023854 	5.38732e-05 	-0.245737
-0.00469858 	-0.00241007 	0.000145333 	-0.247494
-0.00469858 	-0.00241007 	0.000145333 	-0.247494
-0.00460456 	-0.00253888 	0.000204169 	-0.249384
-0.00460456 	-0.00253888 	0.000204169 	-0.249384
-0.00450886 	-0.00276245 	0.000150985 	-0.251369
-0.00450886 	-0.00276245 	0.000150985 	-0.251369
-0.00441144 	-0.00298711 	6.91982e-05 	-0.253256
-0.00441144 	-0.00298711 	6.91982e-05 	-0.253256
-0.00431227 	-0.00314212 	5.69784e-05 	-0.254933
-0.00431227 	-0.00314212 	5.69784e-05 	-0.254933
-0.00421133 	-0.00321838 	0.000100927 	-0.256444
-0.00421133 	-0.00321838 	0.000100927 	-0.256444
-0.00410857 	-0.00324876 	0.00013697 	-0.257866
-0.00410857 	-0.00324876 	0.00013697 	-0.257866
-0.00400397 	-0.00327511 	0.000141851 	-0.259245
-0.00400397 	-0.00327511 	0.000141851 	-0.259245
-0.0038975 	-0.00331034 	0.000150232 	-0.260595
-0.0038975 	-0.00331034 	0.000150232 	-0.260595
-0.00378912 	-0.00335077 	0.000169457 	-0.261914
-0.00378912 	-0.00335077 	0.000169457 	-0.261914
-0.00367879 	-0.00339358 	0.000185498 	-0.263199
-0.00367879 	-0.00339358 	0.000185498 	-0.263199
-0.00356649 	-0.00343586 	0.000199116 	-0.26445
-0.00356649 	-0.00343586 	0.000199116 	-0.26445
-0.00345217 	-0.00347477 	0.000213834 	-0.265668
-0.00345217 	-0.00347477 	0.000213834 	-0.265668
-0.0033358 	-0.00350828 	0.00023088 	-0.266856
-0.0033358 	-0.00350828 	0.00023088 	-0.266856
-0.00321735 	-0.0035355 	0.000249365 	-0.268012
-0.00321735 	-0.0035355 	0.000249365 	-0.268012
-0.00309677 	-0.00355604 	0.000269244 	-0.269137
-0.00309677 	-0.00355604 	0.000269244 	-0.269137
-0.00297403 	-0.00356955 	0.000290501 	-0.270229
-0.00297403 	-0.00356955 	0.000290501 	-0.270229
-0.00284909 	-0.00357589 	0.000312254 	-0.27129
-0.00284909 	-0.00357589 	0.000312254 	-0.27129
-0.0027219 	-0.00357538 	0.000333433 	-0.272322
-0.0027219 	-0.00357538 	0.000333433 	-0.272322
-0.00259244 	-0.00356875 	0.000353514 	-0.273331
-0.00259244 	-0.00356875 	0.000353514 	-0.273331
-0.00246065 	-0.00355639 	0.000372791 	-0.274321
-0.00246065 	-0.00355639 	0.000372791 	-0.274321
-0.00232651 	-0.00353776 	0.000391757 	-0.275286
-0.00232651 	-0.00353776 	0.000391757 	-0.275286
-0.00218995 	-0.00351206 	0.000410545 	-0.276222
-0.00218995 	-0.00351206 	0.000410545 	-0.276222
-0.00205095 	-0.00347941 	0.000429117 	-0.277122
-0.00205095 	-0.00347941 	0.000429117 	-0.277122
-0.00190946 	-0.00344101 	0.000447523 	-0.277978
-0.00190946 	-0.00344101 	0.000447523 	-0.277978
-0.00176543 	-0.00339787 	0.000466003 	-0.278782
-0.00176543 	-0.00339787 	0.000466003 	-0.278782
-0.00161881 	-0.00334969 	0.00048512 	-0.279526
-0.00161881 	-0.00334969 	0.00048512 	-0.279526
-0.00146957 	-0.00329588 	0.000505187 	-0.280201
-0.00146957 	-0.00329588 	0.000505187 	-0.280201
-0.00131765 	-0.00323733 	0.000525544 	-0.280797
-0.00131765 	-0.00323733 	0.000525544 	-0.280797
-0.001163 	-0.00317582 	0.000545041 	-0.281305
-0.001163 	-0.00317582 	0.000545041 	-0.281305
-0.00100559 	-0.00311192 	0.000563216 	-0.281714
-0.00100559 	-0.00311192 	0.000563216 	-0.281714
-0.000845345 	-0.00304483 	0.000576761 	-0.282016
-0.000845345 	-0.00304483 	0.000576761 	-0.282016
-0.000682232 	-0.0029743 	0.000588706 	-0.282202
-0.000682232 	-0.0029743 	0.000588706 	-0.282202
-0.000516194 	-0.00290143 	0.000603314 	-0.282266
-0.000516194 	-0.00290143 	0.000603314 	-0.282266
-0.000347178 	-0.00282768 	0.000617607 	-0.282206
-0.000347178 	-0.00282768 	0.000617607 	-0.282206
-0.000175132 	-0.00275234 	0.000643564 	-0.282026
-0.000175132 	-0.00275234 	0.000643564 	-0.282026
0 	-0.00267251 	0.000670457 	-0.281735
0 	-0.00267251 	0.000670457 	-0.281735
0 	-0.00267251 	0.000670457 	-0.281735
0 	-0.00267251 	0.000670457 	-0.281735
0.000175132 	-0.00258695 	0.000682691 	-0.281344
0.000175132 	-0.00244311 	0.0014364 	-0.301955
0.000347178 	-0.00249824 	0.00069343 	-0.28086
0.000347178 	-0.00243548 	0.00138682 	-0.302255
0.000516194 	-0.00241156 	0.000698587 	-0.280284
0.000516194 	-0.0024225 	0.00133202 	-0.302495
0.000682232 	-0.00233 	0.00070041 	-0.279618
0.000682232 	-0.00240839 	0.00126937 	-0.302678
0.000845345 	-0.00225355 	0.000704966 	-0.278864
0.000845345 	-0.00239731 	0.0012084 	-0.302792
0.00100559 	-0.00218256 	0.000706332 	-0.278027
0.00100559 	-0.0023931 	0.00114749 	-0.302824
0.001163 	-0.00211829 	0.000708483 	-0.27711
0.001163 	-0.00239907 	0.00108592 	-0.302768
0.00131765 	-0.00206038 	0.00071616 	-0.276115
0.00131765 	-0.00241784 	0.00102392 	-0.302621
0.00146957 	-0.00200512 	0.000727188 	-0.275048
0.00146957 	-0.00245115 	0.000961826 	-0.302382
0.00161881 	-0.00194681 	0.000739907 	-0.273915
0.00161881 	-0.00249981 	0.000899812 	-0.302049
0.00176543 	-0.00188166 	0.000744184 	-0.27272
0.00176543 	-0.00256376 	0.000838012 	-0.301626
0.00190946 	-0.00181124 	0.000729867 	-0.271466
0.00190946 	-0.00264208 	0.00077782 	-0.301116
0.00205095 	-0.0017401 	0.000721273 	-0.270165
0.00205095 	-0.00273275 	0.000719656 	-0.300516
0.00218995 	-0.00167009 	0.000739316 	-0.268837
0.00218995 	-0.002833 	0.000662399 	-0.299819
0.00232651 	-0.00159909 	0.000760844 	-0.267482
0.00232651 	-0.00294044 	0.000606692 	-0.299018
0.00246065 	-0.00152411 	0.000765264 	-0.266087
0.00246065 	-0.00305368 	0.000553074 	-0.298114
0.00259244 	-0.00144433 	0.000763189 	-0.264648
0.00259244 	-0.00317196 	0.00050079 	-0.297116
0.0027219 	-0.00136006 	0.000765201 	-0.263169
0.0027219 	-0.00329485 	0.000449766 	-0.296034
0.00284909 	-0.00127037 	0.000768122 	-0.26165
0.00284909 	-0.00342198 	0.000400284 	-0.294877
0.00297403 	-0.00117419 	0.00076981 	-0.260091
0.00297403 	-0.00355293 	0.000352549 	-0.293655
0.00309677 	-0.00107138 	0.00077106 	-0.258494
0.00309677 	-0.00368724 	0.000306743 	-0.29237
0.00321735 	-0.000962057 	0.000771139 	-0.256861
0.00321735 	-0.00382448 	0.000262956 	-0.291026
0.0033358 	-0.000846323 	0.00077075 	-0.255192
0.0033358 	-0.00396425 	0.000221334 	-0.289626
0.00345217 	-0.000724362 	0.000772202 	-0.253493
0.00345217 	-0.00410612 	0.000182239 	-0.288174
0.00356649 	-0.000596214 	0.000773365 	-0.251773
0.00356649 	-0.00424928 	0.000145352 	-0.286671
0.00367879 	-0.000462044 	0.000767784 	-0.250031
0.00367879 	-0.00439264 	0.000109648 	-0.285118
0.00378912 	-0.0045356 	7.56202e-05 	-0.283514
0.00378912 	-0.000322994 	0.000756457 	-0.248227
0.0038975 	-0.000180539 	0.000749384 	-0.246322
0.0038975 	-0.00467874 	4.46763e-05 	-0.281853
0.00400397 	-3.46674e-05 	0.000748484 	-0.244347
0.00400397 	-0.00482328 	1.75127e-05 	-0.280129
0.00410857 	0.000114725 	0.00074561 	-0.242368
0.00410857 	-0.00496982 	-6.17318e-06 	-0.278337
0.00421133 	0.000265553 	0.000736346 	-0.240407
0.00421133 	-0.00511754 	-2.77119e-05 	-0.276478
0.00431227 	0.000415359 	0.000724529 	-0.238438
0.00431227 	-0.00526483 	-4.77427e-05 	-0.274555
0.00441144 	0.000563373 	0.000714765 	-0.236435
0.00441144 	-0.00541027 	-6.63118e-05 	-0.272573
0.00450886 	0.000710032 	0.000704882 	-0.23439
0.00450886 	-0.00555303 	-8.37987e-05 	-0.270538
0.00460456 	0.000855873 	0.000692686 	-0.232301
0.00460456 	-0.00569254 	-0.000100165 	-0.268452
0.00469858 	0.00100108 	0.000679787 	-0.230172
0.00469858 	-0.00582829 	-0.000115105 	-0.266319
0.00479094 	0.00114574 	0.000667127 	-0.228003
0.00479094 	-0.00595986 	-0.000128321 	-0.264141
0.00488168 	0.00129012 	0.000654635 	-0.225789
0.00488168 	-0.00608697 	-0.000139531 	-0.261916
0.00497081 	0.00143446 	0.000641826 	-0.223528
0.00497081 	-0.00620937 	-0.000148905 	-0.25964
0.00505838 	0.00157898 	0.000628185 	-0.221214
0.00505838 	-0.00632674 	-0.000157048 	-0.25731
0.0051444 	0.00172377 	0.00061311 	-0.218845
0.0051444 	-0.00643863 	-0.000164504 	-0.254925
0.00522891 	0.00186855 	0.000596137 	-0.216415
0.00522891 	-0.00654455 	-0.000171505 	-0.252486
0.00531193 	-0.00664403 	-0.000178106 	-0.249992
0.00531193 	0.00201246 	0.000578081 	-0.213921
0.00539348 	0.00215474 	0.000559914 	-0.211356
0.00539348 	-0.00673657 	-0.00018438 	-0.247441
0.0054736 	0.00229544 	0.000542096 	-0.208712
0.0054736 	-0.00682169 	-0.000190451 	-0.24483
0.00555231 	0.00243543 	0.000524119 	-0.205984
0.00555231 	-0.00689888 	-0.000196365 	-0.242155
0.00562963 	0.00257579 	0.0005049 	-0.203164
0.00562963 	-0.00696758 	-0.00020205 	-0.239408
0.00570559 	0.002717 	0.000484693 	-0.200242
0.00570559 	-0.00702724 	-0.000207414 	-0.236582
0.00578022 	0.00285892 	0.000464028 	-0.197207
0.00578022 	-0.00707724 	-0.00021242 	-0.233665
0.00585352 	0.00300109 	0.000442911 	-0.194047
0.00585352 	-0.00711686 	-0.000217099 	-0.230643
0.00592554 	0.00314285 	0.000421461 	-0.190746
0.00592554 	-0.00714525 	-0.000221454 	-0.227501
0.00599629 	0.00328343 	0.00039978 	-0.187282
0.00599629 	-0.00716145 	-0.000225444 	-0.224222
0.00606579 	-0.00716435 	-0.000229035 	-0.22079
0.00606579 	0.00342205 	0.00037796 	-0.183633
0.00613406 	0.00355784 	0.000355996 	-0.179772
0.00613406 	-0.00715274 	-0.000232207 	-0.217186
0.00620114 	0.00368971 	0.000334016 	-0.175674
0.00620114 	-0.00712522 	-0.000234883 	-0.213383
0.00626703 	0.00381611 	0.000312567 	-0.171316
0.00626703 	-0.00708017 	-0.00023692 	-0.209348
0.00633176 	0.00393514 	0.000291629 	-0.166672
0.00633176 	-0.00701579 	-0.000238145 	-0.205038
0.00639535 	0.00404454 	0.00027034 	-0.161715
0.00639535 	-0.00693006 	-0.000238365 	-0.200411
0.00645783 	0.00414138 	0.000248143 	-0.156414
0.00645783 	-0.00682078 	-0.000237476 	-0.195415
0.0065192 	0.00422121 	0.000225539 	-0.150741
0.0065192 	-0.00668558 	-0.000235316 	-0.189995
0.00657949 	0.00427782 	0.000204171 	-0.14467
0.00657949 	-0.00652193 	-0.000231495 	-0.184086
0.00663871 	0.00430448 	0.000185217 	-0.138179
0.00663871 	-0.00632721 	-0.000225655 	-0.177611
0.0066969 	0.00429599 	0.00016806 	-0.131242
0.0066969 	-0.00609877 	-0.000217676 	-0.170486
0.00675406 	0.00424965 	0.000151142 	-0.123837
0.00675406 	-0.00583422 	-0.000207567 	-0.162642
0.00681021 	0.00416475 	0.000133734 	-0.115951
0.00681021 	-0.00553201 	-0.000195372 	-0.154032
0.00686537 	0.00404146 	0.000116794 	-0.107596
0.00686537 	-0.00519207 	-0.000181237 	-0.144626
0.00691956 	0.0038811 	0.000101033 	-0.0988262
0.00691956 	-0.00481642 	-0.00016558 	-0.13443
0.0069728 	0.00368677 	8.61086e-05 	-0.0897381
0.0069728 	-0.00440996 	-0.000149188 	-0.12351
0.0070251 	0.00346275 	7.19028e-05 	-0.0804695
0.0070251 	-0.00398064 	-0.00013285 	-0.112008
0.00707647 	0.00321316 	5.85759e-05 	-0.0711803
0.00707647 	-0.00353879 	-0.000117183 	-0.10013
0.00712695 	0.00294074 	4.61916e-05 	-0.0620251
0.00712695 	-0.00309545 	-0.000102589 	-0.0881115
0.00717653 	0.00264579 	3.47264e-05 	-0.0531239
0.00717653 	-0.00266027 	-8.9111e-05 	-0.0761622
0.00722524 	0.00232492 	2.41677e-05 	-0.0445449
0.00722524 	-0.00223975 	-7.63034e-05 	-0.06441
0.00727309 	0.0019687 	1.46364e-05 	-0.0363063
0.00727309 	-0.00183673 	-6.42952e-05 	-0.0528754
0.0073201 	0.0015569 	6.48424e-06 	-0.0283873
0.0073201 	-0.00145086 	-5.4656e-05 	-0.0414703
0.00736628 	0.00105049 	4.97567e-07 	-0.0207695
0.00736628 	-0.00107921 	-3.65874e-05 	-0.0300244
0.00741165 	0.000492838 	-2.19264e-06 	-0.0134698
0.00741165 	-0.00071433 	-2.59262e-05 	-0.0187504
0.00745622 	9.19146e-05 	-2.20029e-06 	-0.00652828
0.00745622 	-0.00035113 	-1.40264e-05 	-0.00852659
0.0075 	0 	0 	0
0.0075 	0 	0 	0
