-0.0075 	0 	0 	0
-0.00745622 	-5.55628e-05 	-3.17322e-06 	0.0147761
-0.00741165 	-0.00064674 	-7.15239e-06 	0.0291354
-0.00736628 	-0.00148606 	-1.26804e-05 	0.0427791
-0.0073201 	-0.00224231 	-1.82271e-05 	0.0555865
-0.00727309 	-0.00286498 	-2.46149e-05 	0.0676379
-0.00722524 	-0.0033991 	-3.15729e-05 	0.0790189
-0.00717653 	-0.00386385 	-3.91343e-05 	0.089779
-0.00712695 	-0.00427031 	-4.73276e-05 	0.0999458
-0.00707647 	-0.00462659 	-5.61315e-05 	0.109528
-0.0070251 	-0.004939 	-6.5422e-05 	0.118525
-0.0069728 	-0.00521257 	-7.50446e-05 	0.126937
-0.00691956 	-0.005451 	-8.49645e-05 	0.134779
-0.00686537 	-0.00565655 	-9.50217e-05 	0.142083
-0.00681021 	-0.00583062 	-0.0001049 	0.148886
-0.00675406 	-0.00597448 	-0.000114591 	0.155226
-0.0066969 	-0.00609022 	-0.000124407 	0.161142
-0.00663871 	-0.00618071 	-0.000134476 	0.166671
-0.00657949 	-0.00624877 	-0.000144572 	0.171843
-0.0065192 	-0.00629698 	-0.000154482 	0.17669
-0.00645783 	-0.00632758 	-0.000164221 	0.181241
-0.00639535 	-0.00634254 	-0.000173827 	0.185525
-0.00633176 	-0.00634366 	-0.000183256 	0.189566
-0.00626703 	-0.00633265 	-0.000192474 	0.193385
-0.00620114 	-0.00631108 	-0.000201462 	0.197003
-0.00613406 	-0.00628045 	-0.000210188 	0.200438
-0.00606579 	-0.00624213 	-0.000218631 	0.203706
-0.00599629 	-0.0061974 	-0.000226797 	0.206822
-0.00592554 	-0.00614745 	-0.000234636 	0.2098
-0.00585352 	-0.00609339 	-0.000241939 	0.212651
-0.00578022 	-0.00603638 	-0.000248365 	0.215388
-0.00570559 	-0.0059777 	-0.00025371 	0.218019
-0.00562963 	-0.00591864 	-0.000258308 	0.220556
-0.00555231 	-0.00586014 	-0.000263129 	0.223006
-0.0054736 	-0.00580229 	-0.000269068 	0.225378
-0.00539348 	-0.0057446 	-0.000275832 	0.227677
-0.00531193 	-0.00568682 	-0.000281718 	0.22991
-0.00522891 	-0.00562971 	-0.000284831 	0.23208
-0.0051444 	-0.00557447 	-0.000284696 	0.234189
-0.00505838 	-0.00552144 	-0.000282654 	0.236234
-0.00497081 	-0.0054696 	-0.000280786 	0.238213
-0.00488168 	-0.00541767 	-0.00027964 	0.240128
-0.00479094 	-0.0053655 	-0.000279871 	0.241987
-0.00469858 	-0.00531311 	-0.000283497 	0.243797
-0.00460456 	-0.00525867 	-0.000287635 	0.245562
-0.00450886 	-0.00520273 	-0.000283285 	0.247284
-0.00441144 	-0.0051553 	-0.000266046 	0.248981
-0.00431227 	-0.00513296 	-0.000249891 	0.250678
-0.00421133 	-0.00514175 	-0.000252058 	0.252376
-0.00410857 	-0.00516691 	-0.000263066 	0.25404
-0.00400397 	-0.00518734 	-0.00026073 	0.255635
-0.0038975 	-0.00519177 	-0.000241214 	0.257163
-0.00378912 	-0.00518135 	-0.000222128 	0.258632
-0.00367879 	-0.00516269 	-0.000218874 	0.260053
-0.00356649 	-0.00514078 	-0.000228222 	0.261453
-0.00345217 	-0.00511985 	-0.000230529 	0.262866
-0.0033358 	-0.00510069 	-0.000205158 	0.264295
-0.00321735 	-0.00507963 	-0.000165577 	0.265684
-0.00309677 	-0.00505142 	-0.000142965 	0.266982
-0.00297403 	-0.00500927 	-0.00013684 	0.268197
-0.00284909 	-0.00495159 	-0.00012662 	0.269359
-0.0027219 	-0.00488299 	-0.000108014 	0.270486
-0.00259244 	-0.00480562 	-8.86123e-05 	0.271578
-0.00246065 	-0.0047192 	-6.97709e-05 	0.272629
-0.00232651 	-0.00462349 	-5.0269e-05 	0.273631
-0.00218995 	-0.00451818 	-3.04679e-05 	0.274577
-0.00205095 	-0.00440302 	-1.07541e-05 	0.27546
-0.00190946 	-0.00427793 	8.75049e-06 	0.276277
-0.00176543 	-0.00414295 	2.8104e-05 	0.277025
-0.00161881 	-0.00399825 	4.72562e-05 	0.2777
-0.00146957 	-0.00384401 	6.59432e-05 	0.278303
-0.00131765 	-0.00368043 	8.38915e-05 	0.278832
-0.001163 	-0.00350788 	0.00010104 	0.279285
-0.00100559 	-0.00332702 	0.000117447 	0.279658
-0.000845345 	-0.00313868 	0.000132991 	0.279946
-0.000682232 	-0.00294379 	0.000147382 	0.280142
-0.000516194 	-0.00274343 	0.000160414 	0.280239
-0.000347178 	-0.00253891 	0.000172122 	0.280231
-0.000175132 	-0.00233143 	0.000182667 	0.280117
0 	-0.00212081 	0.00019225 	0.279912
0.000175132 	-0.00190866 	0.000200899 	0.27963
0.000347178 	-0.00169979 	0.000208562 	0.279268
0.000516194 	-0.00149709 	0.000215514 	0.278818
0.000682232 	-0.00130073 	0.000221856 	0.278283
0.000845345 	-0.00111038 	0.000227469 	0.277674
0.00100559 	-0.000925486 	0.000232514 	0.276999
0.001163 	-0.000744744 	0.000237192 	0.276265
0.00131765 	-0.00056496 	0.00024144 	0.275472
0.00146957 	-0.000380943 	0.000245173 	0.274625
0.00161881 	-0.000187214 	0.00024859 	0.273724
0.00176543 	1.89408e-05 	0.000251975 	0.272773
0.00190946 	0.000234799 	0.000255309 	0.271776
0.00205095 	0.000452772 	0.000258564 	0.270736
0.00218995 	0.000663816 	0.000261635 	0.269657
0.00232651 	0.000861522 	0.000264115 	0.268539
0.00246065 	0.00104452 	0.000266045 	0.267382
0.00259244 	0.00121476 	0.000267795 	0.266181
0.0027219 	0.00137461 	0.00026977 	0.264935
0.00284909 	0.00152543 	0.000272265 	0.263647
0.00297403 	0.0016675 	0.000275023 	0.262322
0.00309677 	0.00180083 	0.000277749 	0.26096
0.00321735 	0.00192554 	0.000280354 	0.259562
0.0033358 	0.00204174 	0.000282732 	0.258125
0.00345217 	0.00214955 	0.000284821 	0.256645
0.00356649 	0.00224915 	0.000286531 	0.25512
0.00367879 	0.0023408 	0.000287711 	0.253546
0.00378912 	0.00242473 	0.000288347 	0.251922
0.0038975 	0.00250114 	0.000288611 	0.250247
0.00400397 	0.00257051 	0.000288632 	0.248521
0.00410857 	0.00263358 	0.000288339 	0.246745
0.00421133 	0.00269111 	0.000287536 	0.244921
0.00431227 	0.00274389 	0.000286107 	0.243049
0.00441144 	0.00279304 	0.000284057 	0.241126
0.00450886 	0.00283998 	0.000281561 	0.239147
0.00460456 	0.00288617 	0.000278603 	0.237104
0.00469858 	0.00293256 	0.000274413 	0.234984
0.00479094 	0.00297907 	0.00026869 	0.23278
0.00488168 	0.00302475 	0.000262679 	0.23048
0.00497081 	0.00306885 	0.000258087 	0.228075
0.00505838 	0.00311182 	0.000255236 	0.225557
0.0051444 	0.00315536 	0.000252592 	0.222922
0.00522891 	0.00320157 	0.000248819 	0.220169
0.00531193 	0.00325171 	0.000244114 	0.217295
0.00539348 	0.00330602 	0.000239167 	0.214297
0.0054736 	0.00336411 	0.000234119 	0.21117
0.00555231 	0.0034255 	0.000229422 	0.207904
0.00562963 	0.00348828 	0.000226018 	0.204491
0.00570559 	0.00354739 	0.000223284 	0.200918
0.00578022 	0.00359625 	0.000219352 	0.19717
0.00585352 	0.00363018 	0.000213146 	0.193227
0.00592554 	0.00364832 	0.000205865 	0.189076
0.00599629 	0.00365275 	0.000199851 	0.184706
0.00606579 	0.00364511 	0.000195142 	0.180109
0.00613406 	0.00362513 	0.00019012 	0.175272
0.00620114 	0.00359191 	0.000183909 	0.170181
0.00626703 	0.00354496 	0.000176655 	0.16482
0.00633176 	0.00348421 	0.000168809 	0.159177
0.00639535 	0.00340955 	0.000160445 	0.153239
0.00645783 	0.00332069 	0.00015151 	0.146993
0.0065192 	0.0032174 	0.00014205 	0.140427
0.00657949 	0.00309961 	0.000131995 	0.133529
0.00663871 	0.00296712 	0.000121292 	0.126292
0.0066969 	0.00281902 	0.000110327 	0.118705
0.00675406 	0.0026538 	9.95763e-05 	0.110752
0.00681021 	0.00247115 	8.88458e-05 	0.102421
0.00686537 	0.00227479 	7.76302e-05 	0.0937338
0.00691956 	0.00207302 	6.61363e-05 	0.0847596
0.0069728 	0.00187652 	5.50936e-05 	0.0756247
0.0070251 	0.00169497 	4.49072e-05 	0.0665028
0.00707647 	0.00153372 	3.57244e-05 	0.0575883
0.00712695 	0.00139204 	2.77582e-05 	0.0490605
0.00717653 	0.00126243 	2.11181e-05 	0.0410496
0.00722524 	0.00113053 	1.5716e-05 	0.0336211
0.00727309 	0.000974256 	1.14438e-05 	0.0267807
0.0073201 	0.000759007 	8.26464e-06 	0.0204895
0.00736628 	0.000426016 	5.33091e-06 	0.0146695
0.00741165 	2.69599e-05 	3.22042e-06 	0.00926167
0.00745622 	-0.000173952 	1.6021e-06 	0.00433268
0.0075 	0 	0 	0
