-0.0075 	0 	0 	0
-0.0075 	-8.39734e-36 	-6.98929e-38 	-7.52007e-33
-0.00745622 	-1.10366e-05 	-9.18602e-08 	-0.00988363
-0.00745622 	-1.10366e-05 	-9.18602e-08 	-0.00988363
-0.00741165 	0.000282706 	-1.24154e-06 	-0.020298
-0.00741165 	0.000282706 	-1.24154e-06 	-0.020298
-0.00736628 	0.00070653 	-2.4989e-06 	-0.0309197
-0.00736628 	0.00070653 	-2.4989e-06 	-0.0309197
-0.0073201 	0.0010675 	-4.85505e-06 	-0.0414919
-0.0073201 	0.0010675 	-4.85505e-06 	-0.0414919
-0.00727309 	0.00133672 	-8.37827e-06 	-0.0519414
-0.00727309 	0.00133672 	-8.37827e-06 	-0.0519414
-0.00722524 	0.00154017 	-1.25247e-05 	-0.0622241
-0.00722524 	0.00154017 	-1.25247e-05 	-0.0622241
-0.00717653 	0.00168888 	-1.7149e-05 	-0.0722709
-0.00717653 	0.00168888 	-1.7149e-05 	-0.0722709
-0.00712695 	0.00178928 	-2.20468e-05 	-0.082006
-0.00712695 	0.00178928 	-2.20468e-05 	-0.082006
-0.00707647 	0.00184648 	-2.68688e-05 	-0.0913575
-0.00707647 	0.00184648 	-2.68688e-05 	-0.0913575
-0.0070251 	0.00186498 	-3.12778e-05 	-0.100267
-0.0070251 	0.00186498 	-3.12778e-05 	-0.100267
-0.0069728 	0.00184837 	-3.50837e-05 	-0.108701
-0.0069728 	0.00184837 	-3.50837e-05 	-0.108701
-0.00691956 	0.00179963 	-3.81383e-05 	-0.116651
-0.00691956 	0.00179963 	-3.81383e-05 	-0.116651
-0.00686537 	0.00172198 	-4.0327e-05 	-0.124141
-0.00686537 	0.00172198 	-4.0327e-05 	-0.124141
-0.00681021 	0.00161925 	-4.13758e-05 	-0.131213
-0.00681021 	0.00161925 	-4.13758e-05 	-0.131213
-0.00675406 	0.00149586 	-4.10863e-05 	-0.137905
-0.00675406 	0.00149586 	-4.10863e-05 	-0.137905
-0.0066969 	0.00135596 	-3.94628e-05 	-0.144246
-0.0066969 	0.00135596 	-3.94628e-05 	-0.144246
-0.00663871 	0.00120263 	-3.64098e-05 	-0.150261
-0.00663871 	0.00120263 	-3.64098e-05 	-0.150261
-0.00657949 	0.00103827 	-3.18737e-05 	-0.155972
-0.00657949 	0.00103827 	-3.18737e-05 	-0.155972
-0.0065192 	0.000864992 	-2.59206e-05 	-0.161399
-0.0065192 	0.000864992 	-2.59206e-05 	-0.161399
-0.00645783 	0.000684743 	-1.86732e-05 	-0.16656
-0.00645783 	0.000684743 	-1.86732e-05 	-0.16656
-0.00639535 	0.000499292 	-1.0389e-05 	-0.171471
-0.00639535 	0.000499292 	-1.0389e-05 	-0.171471
-0.00633176 	0.000310274 	-1.107e-06 	-0.176146
-0.00633176 	0.000310274 	-1.107e-06 	-0.176146
-0.00626703 	0.00011908 	9.63173e-06 	-0.1806
-0.00626703 	0.00011908 	9.63173e-06 	-0.1806
-0.00620114 	-7.33144e-05 	2.20817e-05 	-0.184849
-0.00620114 	-7.33144e-05 	2.20817e-05 	-0.184849
-0.00613406 	-0.000266297 	3.59186e-05 	-0.188911
-0.00613406 	-0.000266297 	3.59186e-05 	-0.188911
-0.00606579 	-0.000459455 	5.06393e-05 	-0.192808
-0.00606579 	-0.000459455 	5.06393e-05 	-0.192808
-0.00599629 	-0.000652435 	6.6078e-05 	-0.196557
-0.00599629 	-0.000652435 	6.6078e-05 	-0.196557
-0.00592554 	-0.000844809 	8.22783e-05 	-0.200168
-0.00592554 	-0.000844809 	8.22783e-05 	-0.200168
-0.00585352 	-0.00103585 	9.8755e-05 	-0.203645
-0.00585352 	-0.00103585 	9.8755e-05 	-0.203645
-0.00578022 	-0.00122414 	0.000114776 	-0.206986
-0.00578022 	-0.00122414 	0.000114776 	-0.206986
-0.00570559 	-0.00140753 	0.000130651 	-0.210189
-0.00570559 	-0.00140753 	0.000130651 	-0.210189
-0.00562963 	-0.00158439 	0.000148728 	-0.213258
-0.00562963 	-0.00158439 	0.000148728 	-0.213258
-0.00555231 	-0.00175584 	0.000172354 	-0.216203
-0.00555231 	-0.00175584 	0.000172354 	-0.216203
-0.0054736 	-0.00192685 	0.000201729 	-0.21903
-0.0054736 	-0.00192685 	0.000201729 	-0.21903
-0.00539348 	-0.00210348 	0.000230251 	-0.221757
-0.00539348 	-0.00210348 	0.000230251 	-0.221757
-0.00531193 	-0.00228708 	0.000248214 	-0.224422
-0.00531193 	-0.00228708 	0.000248214 	-0.224422
-0.00522891 	-0.00246819 	0.000252627 	-0.227066
-0.00522891 	-0.00246819 	0.000252627 	-0.227066
-0.0051444 	-0.00262715 	0.000251934 	-0.229691
-0.0051444 	-0.00262715 	0.000251934 	-0.229691
-0.00505838 	-0.00274831 	0.000267825 	-0.232258
-0.00505838 	-0.00274831 	0.000267825 	-0.232258
-0.00497081 	-0.00284033 	0.00031078 	-0.234722
-0.00497081 	-0.00284033 	0.00031078 	-0.234722
-0.00488168 	-0.00293079 	0.000356894 	-0.237042
-0.00488168 	-0.00293079 	0.000356894 	-0.237042
-0.00479094 	-0.00303824 	0.000383676 	-0.239215
-0.00479094 	-0.00303824 	0.000383676 	-0.239215
-0.00469858 	-0.00316258 	0.000392841 	-0.241278
-0.00469858 	-0.00316258 	0.000392841 	-0.241278
-0.00460456 	-0.00329181 	0.000401596 	-0.243278
-0.00460456 	-0.00329181 	0.000401596 	-0.243278
-0.00450886 	-0.00341402 	0.000421542 	-0.245262
-0.00450886 	-0.00341402 	0.000421542 	-0.245262
-0.00441144 	-0.0035264 	0.000443779 	-0.247245
-0.00441144 	-0.0035264 	0.000443779 	-0.247245
-0.00431227 	-0.00362806 	0.000462442 	-0.24918
-0.00431227 	-0.00362806 	0.000462442 	-0.24918
-0.00421133 	-0.00371519 	0.000479965 	-0.251009
-0.00421133 	-0.00371519 	0.000479965 	-0.251009
-0.00410857 	-0.00378618 	0.000496847 	-0.252744
-0.00410857 	-0.00378618 	0.000496847 	-0.252744
-0.00400397 	-0.00384228 	0.000513306 	-0.25443
-0.00400397 	-0.00384228 	0.000513306 	-0.25443
-0.0038975 	-0.00388442 	0.000528843 	-0.256083
-0.0038975 	-0.00388442 	0.000528843 	-0.256083
-0.00378912 	-0.00391292 	0.000542891 	-0.257704
-0.00378912 	-0.00391292 	0.000542891 	-0.257704
-0.00367879 	-0.00392804 	0.00055605 	-0.259294
-0.00367879 	-0.00392804 	0.00055605 	-0.259294
-0.00356649 	-0.00393002 	0.000568715 	-0.260859
-0.00356649 	-0.00393002 	0.000568715 	-0.260859
-0.00345217 	-0.00391919 	0.000580776 	-0.262399
-0.00345217 	-0.00391919 	0.000580776 	-0.262399
-0.0033358 	-0.00389595 	0.00059224 	-0.263917
-0.0033358 	-0.00389595 	0.00059224 	-0.263917
-0.00321735 	-0.00386075 	0.000603044 	-0.265413
-0.00321735 	-0.00386075 	0.000603044 	-0.265413
-0.00309677 	-0.00381409 	0.00061305 	-0.266889
-0.00309677 	-0.00381409 	0.00061305 	-0.266889
-0.00297403 	-0.00375645 	0.000622862 	-0.268346
-0.00297403 	-0.00375645 	0.000622862 	-0.268346
-0.00284909 	-0.00368847 	0.000633032 	-0.269783
-0.00284909 	-0.00368847 	0.000633032 	-0.269783
-0.0027219 	-0.00361086 	0.00064148 	-0.271197
-0.0027219 	-0.00361086 	0.00064148 	-0.271197
-0.00259244 	-0.00352374 	0.000646935 	-0.272585
-0.00259244 	-0.00352374 	0.000646935 	-0.272585
-0.00246065 	-0.00342708 	0.000653447 	-0.273948
-0.00246065 	-0.00342708 	0.000653447 	-0.273948
-0.00232651 	-0.00332214 	0.000664563 	-0.275284
-0.00232651 	-0.00332214 	0.000664563 	-0.275284
-0.00218995 	-0.00321089 	0.000676976 	-0.27659
-0.00218995 	-0.00321089 	0.000676976 	-0.27659
-0.00205095 	-0.0030946 	0.00068761 	-0.277863
-0.00205095 	-0.0030946 	0.00068761 	-0.277863
-0.00190946 	-0.0029734 	0.000697599 	-0.279103
-0.00190946 	-0.0029734 	0.000697599 	-0.279103
-0.00176543 	-0.00284757 	0.000702454 	-0.280302
-0.00176543 	-0.00284757 	0.000702454 	-0.280302
-0.00161881 	-0.00271793 	0.000703347 	-0.28144
-0.00161881 	-0.00271793 	0.000703347 	-0.28144
-0.00146957 	-0.00258179 	0.000724575 	-0.282504
-0.00146957 	-0.00258179 	0.000724575 	-0.282504
-0.00131765 	-0.00243251 	0.000780156 	-0.28354
-0.00131765 	-0.00243251 	0.000780156 	-0.28354
-0.001163 	-0.00226641 	0.000831658 	-0.284645
-0.001163 	-0.00226641 	0.000831658 	-0.284645
-0.00100559 	-0.00208886 	0.00082859 	-0.285849
-0.00100559 	-0.00208886 	0.00082859 	-0.285849
-0.000845345 	-0.00191108 	0.000804167 	-0.287012
-0.000845345 	-0.00191108 	0.000804167 	-0.287012
-0.000682232 	-0.00173841 	0.000825477 	-0.287986
-0.000682232 	-0.00173841 	0.000825477 	-0.287986
-0.000516194 	-0.0015712 	0.000877391 	-0.288753
-0.000516194 	-0.0015712 	0.000877391 	-0.288753
-0.000347178 	-0.00141133 	0.000917968 	-0.289353
-0.000347178 	-0.00141133 	0.000917968 	-0.289353
-0.000175132 	-0.00126124 	0.000943962 	-0.289811
-0.000175132 	-0.00126124 	0.000943962 	-0.289811
0 	-0.00112769 	0.000972805 	-0.290129
0 	-0.00112769 	0.000972805 	-0.290129
0 	-0.00112769 	0.000972805 	-0.290129
0 	-0.00112769 	0.000972805 	-0.290129
0.000175132 	-0.00101821 	0.00100879 	-0.290301
0.000175132 	0.00321129 	-0.00438927 	-0.319068
0.000347178 	-0.000931591 	0.00104222 	-0.290321
0.000347178 	0.00361535 	-0.00435983 	-0.320235
0.000516194 	-0.000859427 	0.00107814 	-0.290186
0.000516194 	0.00398274 	-0.00427632 	-0.321135
0.000682232 	-0.000793195 	0.00111541 	-0.289905
0.000682232 	0.00431983 	-0.00417398 	-0.32175
0.000845345 	-0.000728011 	0.00114839 	-0.289492
0.000845345 	0.00463374 	-0.00406766 	-0.322122
0.00100559 	-0.000661759 	0.00117896 	-0.288959
0.00100559 	0.00493103 	-0.00396015 	-0.322348
0.001163 	-0.000592736 	0.00120653 	-0.28832
0.001163 	0.00521637 	-0.003854 	-0.322539
0.00131765 	-0.000518908 	0.00123499 	-0.287586
0.00131765 	0.00549178 	-0.0037291 	-0.322672
0.00146957 	-0.000438381 	0.00126102 	-0.286773
0.00146957 	0.00575961 	-0.00362025 	-0.322602
0.00161881 	-0.000346933 	0.00125731 	-0.285882
0.00161881 	0.00604208 	-0.00368704 	-0.322214
0.00176543 	-0.000233812 	0.00123601 	-0.284883
0.00176543 	0.00640321 	-0.00383168 	-0.321292
0.00190946 	-7.35841e-05 	0.00130033 	-0.283695
0.00190946 	0.00691161 	-0.00356343 	-0.31942
0.00205095 	0.000169924 	0.00146742 	-0.282214
0.00205095 	0.00754542 	-0.0028194 	-0.316471
0.00218995 	0.000505738 	0.00152622 	-0.280403
0.00218995 	0.00808872 	-0.00238866 	-0.313472
0.00232651 	0.000939148 	0.00134887 	-0.278213
0.00232651 	0.00830853 	-0.00267827 	-0.311657
0.00246065 	0.00140235 	0.00114117 	-0.275826
0.00246065 	0.00823752 	-0.00313613 	-0.310888
0.00259244 	0.00170619 	0.00115723 	-0.273866
0.00259244 	0.00806325 	-0.00328203 	-0.310316
0.0027219 	0.00179974 	0.00131299 	-0.272485
0.0027219 	0.00789931 	-0.0031289 	-0.30947
0.00284909 	0.00179446 	0.00138823 	-0.271275
0.00284909 	0.00774914 	-0.00290001 	-0.308335
0.00297403 	0.00177106 	0.00135782 	-0.269997
0.00297403 	0.00757324 	-0.00275345 	-0.307092
0.00309677 	0.00175351 	0.00130028 	-0.268632
0.00309677 	0.00734368 	-0.00269259 	-0.305954
0.00321735 	0.00173595 	0.00126955 	-0.267218
0.00321735 	0.00705507 	-0.00267748 	-0.305012
0.0033358 	0.00171536 	0.00125611 	-0.265767
0.0033358 	0.00672862 	-0.00268948 	-0.304084
0.00345217 	0.00169473 	0.00124102 	-0.264274
0.00345217 	0.00640688 	-0.00270011 	-0.302958
0.00356649 	0.00167617 	0.00122414 	-0.262735
0.00356649 	0.00612585 	-0.00265233 	-0.30172
0.00367879 	0.0016605 	0.0012063 	-0.261149
0.00367879 	0.00589641 	-0.00250558 	-0.300593
0.00378912 	0.00568876 	-0.00234116 	-0.299603
0.00378912 	0.00164812 	0.00118735 	-0.259515
0.0038975 	0.00164074 	0.00116642 	-0.257836
0.0038975 	0.00543582 	-0.00231206 	-0.298484
0.00400397 	0.0016414 	0.00114295 	-0.256112
0.00400397 	0.00511703 	-0.00239531 	-0.297058
0.00410857 	0.00165225 	0.00111729 	-0.254345
0.00410857 	0.00478752 	-0.00244518 	-0.295434
0.00421133 	0.00167289 	0.00108991 	-0.252534
0.00421133 	0.0044977 	-0.00241942 	-0.293771
0.00431227 	0.00170081 	0.00106063 	-0.25068
0.00431227 	0.00425238 	-0.00236873 	-0.292147
0.00441144 	0.00173323 	0.00102977 	-0.24878
0.00441144 	0.00403129 	-0.00234823 	-0.290598
0.00450886 	0.00176844 	0.000999101 	-0.24683
0.00450886 	0.00382013 	-0.00235246 	-0.289112
0.00460456 	0.00180545 	0.000970441 	-0.244826
0.00460456 	0.00361851 	-0.0023397 	-0.287566
0.00469858 	0.00184303 	0.000943362 	-0.242763
0.00469858 	0.00342774 	-0.00230367 	-0.285817
0.00479094 	0.00187969 	0.000915211 	-0.24064
0.00479094 	0.00324312 	-0.00227045 	-0.283857
0.00488168 	0.0019141 	0.000883661 	-0.238456
0.00488168 	0.00305754 	-0.00225884 	-0.281778
0.00497081 	0.00194549 	0.000849028 	-0.236211
0.00497081 	0.00286747 	-0.00226801 	-0.279654
0.00505838 	0.00197391 	0.00081355 	-0.233903
0.00505838 	0.00267537 	-0.00228365 	-0.277498
0.0051444 	0.00199993 	0.000779117 	-0.231524
0.0051444 	0.002487 	-0.00229105 	-0.27529
0.00522891 	0.00202414 	0.00074638 	-0.229068
0.00522891 	0.00230722 	-0.00228522 	-0.273008
0.00531193 	0.0021375 	-0.00227071 	-0.270647
0.00531193 	0.00204664 	0.000714744 	-0.226528
0.00539348 	0.00206698 	0.00068319 	-0.223896
0.00539348 	0.00197596 	-0.00225541 	-0.26821
0.0054736 	0.00208437 	0.0006512 	-0.221166
0.0054736 	0.00181955 	-0.00224451 	-0.265683
0.00555231 	0.0020982 	0.000618584 	-0.218329
0.00555231 	0.00166628 	-0.00223826 	-0.263027
0.00562963 	0.00210818 	0.000585554 	-0.215377
0.00562963 	0.00151578 	-0.00223463 	-0.260214
0.00570559 	0.00211433 	0.000552559 	-0.212298
0.00570559 	0.0013688 	-0.00223126 	-0.257242
0.00578022 	0.00211683 	0.000519902 	-0.209082
0.00578022 	0.00122661 	-0.00222594 	-0.254124
0.00585352 	0.00211589 	0.000487826 	-0.205714
0.00585352 	0.00109046 	-0.00221731 	-0.250872
0.00592554 	0.00211179 	0.000456436 	-0.202173
0.00592554 	0.000961348 	-0.00220491 	-0.247484
0.00599629 	0.00210485 	0.000425705 	-0.198436
0.00599629 	0.000839946 	-0.00218873 	-0.243949
0.00606579 	0.000726811 	-0.00216894 	-0.24025
0.00606579 	0.00209539 	0.000395694 	-0.194483
0.00613406 	0.00208376 	0.000366588 	-0.190294
0.00613406 	0.000622563 	-0.00214533 	-0.236365
0.00620114 	0.00207045 	0.000338359 	-0.185852
0.00620114 	0.000527933 	-0.00211721 	-0.232263
0.00626703 	0.00205589 	0.000310808 	-0.181138
0.00626703 	0.000443581 	-0.00208388 	-0.227908
0.00633176 	0.0020403 	0.000283874 	-0.176129
0.00633176 	0.000369823 	-0.00204481 	-0.223262
0.00639535 	0.00202349 	0.000257755 	-0.170801
0.00639535 	0.000306464 	-0.00199963 	-0.218283
0.00645783 	0.00200491 	0.000232725 	-0.165128
0.00645783 	0.000252723 	-0.00194797 	-0.212924
0.0065192 	0.00198372 	0.000208993 	-0.159086
0.0065192 	0.000207178 	-0.00188889 	-0.207131
0.00657949 	0.00195907 	0.000186587 	-0.15265
0.00657949 	0.000167778 	-0.00182262 	-0.200847
0.00663871 	0.00193021 	0.000165145 	-0.145797
0.00663871 	0.000133018 	-0.00175071 	-0.194008
0.0066969 	0.00189619 	0.000144455 	-0.138508
0.0066969 	0.000103572 	-0.00167206 	-0.18655
0.00675406 	0.0018554 	0.000124842 	-0.130755
0.00675406 	8.09557e-05 	-0.00158314 	-0.178383
0.00681021 	0.00180524 	0.000106952 	-0.12251
0.00681021 	6.41528e-05 	-0.00148182 	-0.169376
0.00686537 	0.00174239 	9.08883e-05 	-0.113769
0.00686537 	4.72423e-05 	-0.00137037 	-0.15939
0.00691956 	0.00166356 	7.60862e-05 	-0.104574
0.00691956 	2.0113e-05 	-0.00125339 	-0.148344
0.0069728 	0.00156611 	6.25107e-05 	-0.0950115
0.0069728 	-2.768e-05 	-0.0011328 	-0.136248
0.0070251 	0.00144829 	5.0419e-05 	-0.0852157
0.0070251 	-0.000104233 	-0.00101009 	-0.123235
0.00707647 	0.00130985 	3.97794e-05 	-0.0753541
0.00707647 	-0.00021368 	-0.000888348 	-0.109583
0.00712695 	0.00115297 	3.05097e-05 	-0.065603
0.00712695 	-0.000352523 	-0.000770361 	-0.0956782
0.00717653 	0.00098307 	2.25901e-05 	-0.0561126
0.00717653 	-0.000505508 	-0.000657649 	-0.0819206
0.00722524 	0.000809231 	1.60963e-05 	-0.0469811
0.00722524 	-0.000643004 	-0.000547707 	-0.0686155
0.00727309 	0.000644721 	1.10434e-05 	-0.0382468
0.00727309 	-0.000718007 	-0.0004424 	-0.0559071
0.0073201 	0.000509139 	7.27666e-06 	-0.0298961
0.0073201 	-0.000657225 	-0.000354219 	-0.043779
0.00736628 	0.000433673 	4.81778e-06 	-0.0218752
0.00736628 	-0.000339302 	-0.000216507 	-0.0320806
0.00741165 	0.000397888 	2.66343e-06 	-0.014162
0.00741165 	0.000168124 	-0.000144497 	-0.0207038
0.00745622 	0.000281536 	1.07302e-06 	-0.00684779
0.00745622 	0.000402192 	-7.3639e-05 	-0.00987162
0.0075 	0 	0 	0
0.0075 	0 	0 	0
