/*--------------------------------*- C++ -*----------------------------------*\
| =========                 |                                                 |
| \\      /  F ield         | OpenFOAM: The Open Source CFD Toolbox           |
|  \\    /   O peration     | Version:  v1912                                 |
|   \\  /    A nd           | Website:  www.openfoam.com                      |
|    \\/     M anipulation  |                                                 |
\*---------------------------------------------------------------------------*/
FoamFile
{
    version     2.0;
    format      ascii;
    class       volScalarField;
    location    "8";
    object      nut;
}
// * * * * * * * * * * * * * * * * * * * * * * * * * * * * * * * * * * * * * //

dimensions      [0 2 -1 0 0 0 0];


internalField   nonuniform List<scalar> 
34128
(
1.55685e-12
1.65326e-12
1.80993e-12
1.8673e-12
1.79344e-12
1.69389e-12
1.64676e-12
1.61855e-12
1.62497e-12
1.69842e-12
1.73175e-12
1.66336e-12
1.89263e-12
1.9537e-12
2.07692e-12
2.13993e-12
2.11094e-12
2.04904e-12
2.00299e-12
1.95697e-12
1.94618e-12
2.01793e-12
2.05043e-12
1.95968e-12
9.92464e-12
9.42035e-12
9.07884e-12
9.3101e-12
1.00477e-11
1.05892e-11
1.05146e-11
1.01027e-11
9.77097e-12
9.88687e-12
9.94213e-12
9.35932e-12
6.45494e-11
6.02426e-11
5.67987e-11
5.8178e-11
6.40459e-11
6.86177e-11
6.83484e-11
6.54811e-11
6.29787e-11
6.33818e-11
6.36111e-11
5.9742e-11
2.76797e-10
2.57328e-10
2.41472e-10
2.47298e-10
2.73288e-10
2.93722e-10
2.92778e-10
2.80439e-10
2.69433e-10
2.70711e-10
2.71596e-10
2.55222e-10
8.68194e-10
8.04819e-10
7.52893e-10
7.71061e-10
8.53963e-10
9.1947e-10
9.16953e-10
8.78543e-10
8.43723e-10
8.46486e-10
8.48938e-10
7.98776e-10
2.17804e-09
2.01284e-09
1.87701e-09
1.92232e-09
2.13341e-09
2.30101e-09
2.29587e-09
2.20094e-09
2.11356e-09
2.11691e-09
2.12167e-09
1.99989e-09
4.61125e-09
4.24764e-09
3.94806e-09
4.04333e-09
4.49616e-09
4.85742e-09
4.84927e-09
4.65282e-09
4.46943e-09
4.46801e-09
4.47369e-09
4.22649e-09
8.52695e-09
7.82991e-09
7.25534e-09
7.43044e-09
8.27616e-09
8.95355e-09
8.9436e-09
8.59164e-09
8.25898e-09
8.23976e-09
8.2396e-09
7.80503e-09
1.41143e-08
1.29252e-08
1.19464e-08
1.22353e-08
1.36426e-08
1.47726e-08
1.47641e-08
1.42046e-08
1.36705e-08
1.36115e-08
1.35907e-08
1.29114e-08
2.132e-08
1.94829e-08
1.79757e-08
1.8413e-08
2.05382e-08
2.22456e-08
2.22435e-08
2.14385e-08
2.06648e-08
2.0537e-08
2.04724e-08
1.9508e-08
2.98574e-08
2.7247e-08
2.51172e-08
2.57345e-08
2.86922e-08
3.10657e-08
3.10753e-08
3.00097e-08
2.89819e-08
2.87541e-08
2.86168e-08
2.7352e-08
3.84602e-08
3.52034e-08
3.24861e-08
3.31824e-08
3.67872e-08
3.97367e-08
3.98346e-08
3.86714e-08
3.75564e-08
3.71568e-08
3.68446e-08
3.54341e-08
4.61343e-08
4.2245e-08
3.90571e-08
3.99344e-08
4.41845e-08
4.76268e-08
4.77351e-08
4.64044e-08
4.51397e-08
4.4641e-08
4.42427e-08
4.26355e-08
5.39184e-08
4.93923e-08
4.57595e-08
4.68415e-08
5.17197e-08
5.56246e-08
5.57363e-08
5.42523e-08
5.2854e-08
5.22541e-08
5.17693e-08
4.99885e-08
6.17111e-08
5.65523e-08
5.2508e-08
5.38154e-08
5.9293e-08
6.36215e-08
6.37299e-08
6.21118e-08
6.05997e-08
5.98964e-08
5.93261e-08
5.74019e-08
6.94138e-08
6.36351e-08
5.92197e-08
6.07698e-08
6.68084e-08
7.15147e-08
7.16118e-08
6.98829e-08
6.828e-08
6.74709e-08
6.68175e-08
6.47858e-08
7.69451e-08
7.05661e-08
6.58247e-08
6.76309e-08
7.41851e-08
7.92189e-08
7.92959e-08
7.74827e-08
7.58144e-08
7.48962e-08
7.41627e-08
7.20648e-08
8.42446e-08
7.72889e-08
7.22693e-08
7.43415e-08
8.13624e-08
8.66716e-08
8.67187e-08
8.48503e-08
8.31439e-08
8.21103e-08
8.12994e-08
7.91812e-08
9.12814e-08
8.37715e-08
7.85207e-08
8.08668e-08
8.83068e-08
9.38414e-08
9.38482e-08
9.19541e-08
9.02378e-08
8.90783e-08
8.81904e-08
8.61013e-08
9.80647e-08
9.00139e-08
8.45745e-08
8.72039e-08
9.50234e-08
1.0074e-07
1.00695e-07
9.88047e-08
9.71052e-08
9.58026e-08
9.48341e-08
9.28263e-08
1.04652e-07
9.60578e-08
9.04636e-08
9.33913e-08
1.01564e-07
1.07429e-07
1.07321e-07
1.05464e-07
1.03806e-07
1.02332e-07
1.01273e-07
9.94011e-08
1.11144e-07
1.01988e-07
9.62626e-08
9.95106e-08
1.08021e-07
1.14009e-07
1.1383e-07
1.12041e-07
1.10449e-07
1.08757e-07
1.0759e-07
1.05914e-07
1.17667e-07
1.07923e-07
1.0208e-07
1.05672e-07
1.14504e-07
1.20593e-07
1.20343e-07
1.18672e-07
1.17172e-07
1.15197e-07
1.13891e-07
1.12483e-07
1.2433e-07
1.13988e-07
1.08034e-07
1.11981e-07
1.21096e-07
1.27259e-07
1.26957e-07
1.25476e-07
1.241e-07
1.21754e-07
1.20268e-07
1.19217e-07
1.31182e-07
1.20276e-07
1.14222e-07
1.18494e-07
1.27808e-07
1.33998e-07
1.3369e-07
1.32501e-07
1.31293e-07
1.28475e-07
1.26753e-07
1.26175e-07
1.38165e-07
1.26813e-07
1.20678e-07
1.25179e-07
1.34525e-07
1.40666e-07
1.40435e-07
1.39682e-07
1.38701e-07
1.35301e-07
1.33277e-07
1.33318e-07
1.45053e-07
1.33516e-07
1.27338e-07
1.31874e-07
1.4096e-07
1.46917e-07
1.46894e-07
1.46759e-07
1.46092e-07
1.42018e-07
1.39626e-07
1.40458e-07
1.51346e-07
1.40101e-07
1.33953e-07
1.38209e-07
1.46553e-07
1.52111e-07
1.52474e-07
1.53153e-07
1.52913e-07
1.48165e-07
1.45378e-07
1.47171e-07
1.563e-07
1.46049e-07
1.40065e-07
1.43581e-07
1.50557e-07
1.55472e-07
1.56385e-07
1.58038e-07
1.58347e-07
1.53036e-07
1.49899e-07
1.52788e-07
1.59251e-07
1.50735e-07
1.45087e-07
1.4734e-07
1.52501e-07
1.56822e-07
1.58157e-07
1.60735e-07
1.61665e-07
1.55977e-07
1.52616e-07
1.5662e-07
1.60372e-07
1.5371e-07
1.48551e-07
1.4923e-07
1.52938e-07
1.56681e-07
1.58374e-07
1.61567e-07
1.62914e-07
1.57127e-07
1.53748e-07
1.58478e-07
1.59926e-07
1.54763e-07
1.49979e-07
1.49557e-07
1.5192e-07
1.55069e-07
1.57089e-07
1.60779e-07
1.62465e-07
1.56732e-07
1.53435e-07
1.58692e-07
1.5799e-07
1.54296e-07
1.49873e-07
1.48449e-07
1.49532e-07
1.52094e-07
1.54382e-07
1.58445e-07
1.60409e-07
1.54858e-07
1.5174e-07
1.57372e-07
1.54687e-07
1.52427e-07
1.48378e-07
1.46027e-07
1.45966e-07
1.47974e-07
1.50432e-07
1.5471e-07
1.56877e-07
1.51636e-07
1.48791e-07
1.54625e-07
1.50223e-07
1.49289e-07
1.45627e-07
1.4249e-07
1.41516e-07
1.43025e-07
1.4552e-07
1.49823e-07
1.521e-07
1.47296e-07
1.44799e-07
1.50639e-07
1.44891e-07
1.45084e-07
1.41823e-07
1.38133e-07
1.36566e-07
1.3765e-07
1.40016e-07
1.44139e-07
1.46418e-07
1.42157e-07
1.40055e-07
1.45691e-07
1.39064e-07
1.401e-07
1.37256e-07
1.33343e-07
1.31565e-07
1.32301e-07
1.34361e-07
1.38104e-07
1.40265e-07
1.3661e-07
1.34912e-07
1.40136e-07
1.33176e-07
1.34705e-07
1.32301e-07
1.28574e-07
1.27008e-07
1.27466e-07
1.29038e-07
1.32224e-07
1.34149e-07
1.31103e-07
1.29773e-07
1.34399e-07
1.277e-07
1.29339e-07
1.27409e-07
1.24332e-07
1.2341e-07
1.2364e-07
1.24555e-07
1.27047e-07
1.28618e-07
1.26128e-07
1.25073e-07
1.28951e-07
1.23142e-07
1.245e-07
1.23092e-07
1.21186e-07
1.21306e-07
1.21333e-07
1.21432e-07
1.23139e-07
1.24238e-07
1.22197e-07
1.21267e-07
1.24294e-07
1.20035e-07
1.20731e-07
1.19911e-07
1.19723e-07
1.21268e-07
1.21085e-07
1.20214e-07
1.21084e-07
1.21637e-07
1.19841e-07
1.18837e-07
1.20958e-07
1.18951e-07
1.18629e-07
1.18487e-07
1.20593e-07
1.23961e-07
1.23525e-07
1.21509e-07
1.21527e-07
1.21446e-07
1.19632e-07
1.18309e-07
1.19508e-07
1.20557e-07
1.18874e-07
1.19528e-07
1.24585e-07
1.30246e-07
1.29463e-07
1.26068e-07
1.25225e-07
1.24385e-07
1.2224e-07
1.20306e-07
1.20589e-07
1.25712e-07
1.22294e-07
1.23911e-07
1.32761e-07
1.41371e-07
1.4007e-07
1.34931e-07
1.33177e-07
1.31393e-07
1.28535e-07
1.25637e-07
1.25013e-07
1.35638e-07
1.3001e-07
1.32844e-07
1.46707e-07
1.59264e-07
1.57146e-07
1.49673e-07
1.46882e-07
1.43852e-07
1.39779e-07
1.35456e-07
1.33902e-07
1.52225e-07
1.4368e-07
1.48094e-07
1.68947e-07
1.87012e-07
1.83547e-07
1.72781e-07
1.68708e-07
1.63926e-07
1.57917e-07
1.5152e-07
1.48959e-07
1.78538e-07
1.65898e-07
1.72475e-07
2.0353e-07
2.2933e-07
2.23602e-07
2.08121e-07
2.024e-07
1.95058e-07
1.8602e-07
1.76594e-07
1.72877e-07
2.19278e-07
2.00801e-07
2.10426e-07
2.54664e-07
2.90933e-07
2.81583e-07
2.59485e-07
2.52533e-07
2.42164e-07
2.28444e-07
2.14648e-07
2.09841e-07
2.76296e-07
2.52447e-07
2.66494e-07
3.27511e-07
3.63459e-07
3.54948e-07
3.33878e-07
3.25655e-07
3.10743e-07
2.89819e-07
2.66992e-07
2.63694e-07
3.33375e-07
3.14951e-07
3.3537e-07
3.98763e-07
4.4178e-07
4.31212e-07
4.15088e-07
4.10009e-07
3.87769e-07
3.52044e-07
3.20438e-07
3.21448e-07
4.05761e-07
3.84225e-07
4.10249e-07
4.85345e-07
5.34361e-07
5.21656e-07
5.04514e-07
4.9916e-07
4.71632e-07
4.27251e-07
3.88483e-07
3.90924e-07
4.92576e-07
4.69578e-07
5.01011e-07
5.86881e-07
6.41861e-07
6.26663e-07
6.08816e-07
6.03115e-07
5.69694e-07
5.16103e-07
4.70491e-07
4.75196e-07
5.93905e-07
5.70298e-07
6.07368e-07
7.04283e-07
7.65022e-07
7.4702e-07
7.28764e-07
7.2254e-07
6.82589e-07
6.18822e-07
5.66076e-07
5.73782e-07
7.106e-07
6.87159e-07
7.30079e-07
8.37769e-07
9.03537e-07
8.82653e-07
8.64362e-07
8.57393e-07
8.10598e-07
7.36084e-07
6.76104e-07
6.87471e-07
8.42664e-07
8.20284e-07
8.68999e-07
9.86418e-07
1.05624e-06
1.0324e-06
1.0145e-06
1.00654e-06
9.5302e-07
8.67769e-07
8.00861e-07
8.16428e-07
9.89011e-07
9.6868e-07
1.02289e-06
1.14805e-06
1.22064e-06
1.19394e-06
1.17684e-06
1.1677e-06
1.10805e-06
1.01277e-06
9.39691e-07
9.59783e-07
1.1474e-06
1.13012e-06
1.18923e-06
1.31931e-06
1.39306e-06
1.36403e-06
1.34798e-06
1.3375e-06
1.27282e-06
1.16894e-06
1.09088e-06
1.11553e-06
1.31459e-06
1.30123e-06
1.36435e-06
1.49592e-06
1.5691e-06
1.53925e-06
1.52368e-06
1.51185e-06
1.44362e-06
1.33323e-06
1.2517e-06
1.28061e-06
1.48656e-06
1.47776e-06
1.54375e-06
1.6732e-06
1.74406e-06
1.71455e-06
1.69934e-06
1.68632e-06
1.61626e-06
1.50187e-06
1.41861e-06
1.45113e-06
1.65901e-06
1.65509e-06
1.72254e-06
1.84653e-06
1.91345e-06
1.88511e-06
1.87044e-06
1.85654e-06
1.78649e-06
1.67083e-06
1.58759e-06
1.62274e-06
1.82769e-06
1.82873e-06
1.89601e-06
2.01174e-06
2.07338e-06
2.04679e-06
2.03297e-06
2.01863e-06
1.95034e-06
1.8361e-06
1.7545e-06
1.79107e-06
1.98879e-06
1.99458e-06
2.06006e-06
2.16538e-06
2.2208e-06
2.19635e-06
2.18367e-06
2.16943e-06
2.10446e-06
1.9941e-06
1.91547e-06
1.95215e-06
2.13919e-06
2.14929e-06
2.21143e-06
2.30497e-06
2.35361e-06
2.33149e-06
2.32022e-06
2.30667e-06
2.2463e-06
2.14189e-06
2.06719e-06
2.10263e-06
2.2766e-06
2.29047e-06
2.34791e-06
2.42902e-06
2.47069e-06
2.45078e-06
2.44117e-06
2.42892e-06
2.37415e-06
2.27731e-06
2.20695e-06
2.2401e-06
2.39956e-06
2.41662e-06
2.46835e-06
2.53698e-06
2.57186e-06
2.55419e-06
2.54595e-06
2.5356e-06
2.48717e-06
2.39825e-06
2.33236e-06
2.36278e-06
2.50743e-06
2.52705e-06
2.57248e-06
2.62906e-06
2.65769e-06
2.64172e-06
2.6351e-06
2.62676e-06
2.58522e-06
2.50404e-06
2.44297e-06
2.46974e-06
2.60022e-06
2.62182e-06
2.6608e-06
2.70612e-06
2.72892e-06
2.71396e-06
2.70906e-06
2.70303e-06
2.66802e-06
2.59518e-06
2.53869e-06
2.56101e-06
2.67851e-06
2.70155e-06
2.73434e-06
2.7695e-06
2.78645e-06
2.77163e-06
2.76827e-06
2.76563e-06
2.73631e-06
2.67236e-06
2.61992e-06
2.63754e-06
2.74329e-06
2.76727e-06
2.79448e-06
2.82082e-06
2.83214e-06
2.8171e-06
2.81446e-06
2.81472e-06
2.79215e-06
2.73639e-06
2.68748e-06
2.7005e-06
2.79582e-06
2.82037e-06
2.8428e-06
2.86159e-06
2.86795e-06
2.8523e-06
2.84982e-06
2.8525e-06
2.83665e-06
2.78835e-06
2.74248e-06
2.75124e-06
2.83753e-06
2.86259e-06
2.88094e-06
2.8934e-06
2.89551e-06
2.87899e-06
2.87627e-06
2.88114e-06
2.87104e-06
2.82939e-06
2.78624e-06
2.79119e-06
2.8699e-06
2.89529e-06
2.91056e-06
2.9179e-06
2.91619e-06
2.89861e-06
2.89526e-06
2.90167e-06
2.89652e-06
2.86075e-06
2.82005e-06
2.8218e-06
2.8944e-06
2.91984e-06
2.93315e-06
2.93645e-06
2.93114e-06
2.91217e-06
2.9077e-06
2.91516e-06
2.91424e-06
2.88363e-06
2.84519e-06
2.84449e-06
2.91241e-06
2.93795e-06
2.94991e-06
2.95011e-06
2.94131e-06
2.92056e-06
2.91448e-06
2.92262e-06
2.92532e-06
2.89918e-06
2.86285e-06
2.86061e-06
2.92507e-06
2.95086e-06
2.96184e-06
2.95967e-06
2.94745e-06
2.92453e-06
2.91639e-06
2.92486e-06
2.93073e-06
2.90842e-06
2.87412e-06
2.87138e-06
2.9334e-06
2.95946e-06
2.96974e-06
2.96568e-06
2.9501e-06
2.92466e-06
2.91407e-06
2.92255e-06
2.93117e-06
2.91229e-06
2.87995e-06
2.87758e-06
2.93809e-06
2.96436e-06
2.97408e-06
2.96841e-06
2.94954e-06
2.9213e-06
2.90797e-06
2.91607e-06
2.92721e-06
2.91136e-06
2.88115e-06
2.87987e-06
2.93955e-06
2.96591e-06
2.97505e-06
2.96788e-06
2.94584e-06
2.91456e-06
2.8983e-06
2.90566e-06
2.91978e-06
2.90609e-06
2.87828e-06
2.87869e-06
1.69178e-12
1.76688e-12
1.90867e-12
1.97312e-12
1.92416e-12
1.84231e-12
1.79325e-12
1.75002e-12
1.74342e-12
1.82303e-12
1.86357e-12
1.77978e-12
1.95801e-12
1.98626e-12
2.09787e-12
2.18088e-12
2.18403e-12
2.13619e-12
2.0809e-12
2.01885e-12
1.99814e-12
2.0762e-12
2.11567e-12
2.01349e-12
8.83119e-12
8.0547e-12
7.74832e-12
8.25107e-12
9.18386e-12
9.68912e-12
9.46388e-12
9.00067e-12
8.70378e-12
8.83567e-12
8.90129e-12
8.36544e-12
5.57278e-11
4.9558e-11
4.64807e-11
4.98169e-11
5.69585e-11
6.11441e-11
5.97683e-11
5.66138e-11
5.44505e-11
5.49389e-11
5.52055e-11
5.17762e-11
2.37733e-10
2.10414e-10
1.96387e-10
2.10681e-10
2.41937e-10
2.60466e-10
2.54678e-10
2.412e-10
2.3178e-10
2.33421e-10
2.34453e-10
2.201e-10
7.43645e-10
6.56629e-10
6.11361e-10
6.5596e-10
7.54364e-10
8.13029e-10
7.95204e-10
7.53568e-10
7.24083e-10
7.28031e-10
7.30957e-10
6.87436e-10
1.86023e-09
1.63932e-09
1.5231e-09
1.63399e-09
1.88042e-09
2.02809e-09
1.98446e-09
1.88258e-09
1.80962e-09
1.81617e-09
1.82224e-09
1.71787e-09
3.9251e-09
3.45339e-09
3.20257e-09
3.43438e-09
3.95262e-09
4.26458e-09
4.17519e-09
3.96698e-09
3.8166e-09
3.82264e-09
3.83166e-09
3.62285e-09
7.23069e-09
6.35521e-09
5.88547e-09
6.30753e-09
7.25411e-09
7.82568e-09
7.66681e-09
7.29909e-09
7.03217e-09
7.02845e-09
7.03632e-09
6.67525e-09
1.19211e-08
1.04756e-08
9.69516e-09
1.0382e-08
1.19204e-08
1.28499e-08
1.25982e-08
1.20227e-08
1.16048e-08
1.15749e-08
1.15716e-08
1.10178e-08
1.79358e-08
1.57727e-08
1.4602e-08
1.56216e-08
1.78896e-08
1.9256e-08
1.88928e-08
1.80782e-08
1.74898e-08
1.74119e-08
1.73816e-08
1.66128e-08
2.50218e-08
2.20424e-08
2.04327e-08
2.18367e-08
2.49174e-08
2.6761e-08
2.62753e-08
2.52157e-08
2.44587e-08
2.43094e-08
2.42325e-08
2.32505e-08
3.19568e-08
2.84088e-08
2.64551e-08
2.81105e-08
3.16839e-08
3.38356e-08
3.33411e-08
3.22262e-08
3.14579e-08
3.11963e-08
3.09977e-08
2.99583e-08
3.82713e-08
3.41306e-08
3.19007e-08
3.38873e-08
3.80096e-08
4.04444e-08
3.98615e-08
3.86152e-08
3.77705e-08
3.744e-08
3.71917e-08
3.60455e-08
4.46644e-08
3.99623e-08
3.74955e-08
3.98206e-08
4.44453e-08
4.71168e-08
4.6444e-08
4.50916e-08
4.41898e-08
4.37856e-08
4.34887e-08
4.22672e-08
5.10479e-08
4.58302e-08
4.31718e-08
4.58338e-08
5.09e-08
5.37544e-08
5.29935e-08
5.15673e-08
5.06311e-08
5.01467e-08
4.98015e-08
4.85426e-08
5.73396e-08
5.16648e-08
4.88641e-08
5.18527e-08
5.72874e-08
6.02661e-08
5.9422e-08
5.79596e-08
5.70151e-08
5.64412e-08
5.60465e-08
5.47939e-08
6.34712e-08
5.74086e-08
5.45171e-08
5.78138e-08
6.35343e-08
6.65755e-08
6.56566e-08
6.42009e-08
6.32763e-08
6.26004e-08
6.21525e-08
6.09541e-08
6.93924e-08
6.30193e-08
6.00883e-08
6.36674e-08
6.95839e-08
7.26257e-08
7.16437e-08
7.02417e-08
6.93671e-08
6.85715e-08
6.80637e-08
6.69707e-08
7.50771e-08
6.84739e-08
6.55519e-08
6.93828e-08
7.54027e-08
7.83857e-08
7.73552e-08
7.60578e-08
7.52641e-08
7.43238e-08
7.37454e-08
7.28109e-08
8.05314e-08
7.37765e-08
7.09067e-08
7.49565e-08
8.09899e-08
8.38597e-08
8.2798e-08
8.16597e-08
8.09774e-08
7.98567e-08
7.91915e-08
7.847e-08
8.58016e-08
7.89661e-08
7.61839e-08
8.04202e-08
8.63821e-08
8.90911e-08
8.80194e-08
8.71001e-08
8.65584e-08
8.52073e-08
8.44309e-08
8.39797e-08
9.097e-08
8.41195e-08
8.14511e-08
8.58399e-08
9.16486e-08
9.41542e-08
9.31011e-08
9.24696e-08
9.20967e-08
9.04484e-08
8.95245e-08
8.94076e-08
9.61376e-08
8.9342e-08
8.68052e-08
9.13017e-08
9.68692e-08
9.91276e-08
9.81359e-08
9.7876e-08
9.76999e-08
9.56718e-08
9.45492e-08
9.48419e-08
1.01393e-07
9.4744e-08
9.23495e-08
9.6884e-08
1.02096e-07
1.04059e-07
1.03192e-07
1.03408e-07
1.03461e-07
1.00956e-07
9.95701e-08
1.00362e-07
1.06779e-07
1.00408e-07
9.81599e-08
1.02621e-07
1.07315e-07
1.08927e-07
1.08274e-07
1.09099e-07
1.0942e-07
1.06328e-07
1.04608e-07
1.06004e-07
1.12255e-07
1.0635e-07
1.04245e-07
1.08468e-07
1.12422e-07
1.13616e-07
1.13292e-07
1.14876e-07
1.15516e-07
1.11731e-07
1.09613e-07
1.11723e-07
1.17663e-07
1.12481e-07
1.10509e-07
1.14257e-07
1.17189e-07
1.17892e-07
1.18026e-07
1.20516e-07
1.21524e-07
1.16992e-07
1.14441e-07
1.17368e-07
1.22658e-07
1.18564e-07
1.16722e-07
1.19649e-07
1.21235e-07
1.21368e-07
1.22076e-07
1.25554e-07
1.26971e-07
1.21768e-07
1.18837e-07
1.22637e-07
1.26715e-07
1.24136e-07
1.22451e-07
1.24128e-07
1.24095e-07
1.23622e-07
1.2493e-07
1.29355e-07
1.31196e-07
1.25547e-07
1.22404e-07
1.27043e-07
1.29345e-07
1.28665e-07
1.27155e-07
1.27184e-07
1.25642e-07
1.24716e-07
1.26386e-07
1.31433e-07
1.33662e-07
1.27864e-07
1.24726e-07
1.30073e-07
1.30693e-07
1.31767e-07
1.30429e-07
1.28811e-07
1.2617e-07
1.24865e-07
1.26817e-07
1.32234e-07
1.34693e-07
1.28977e-07
1.25949e-07
1.3166e-07
1.30907e-07
1.33142e-07
1.3191e-07
1.29226e-07
1.25696e-07
1.24085e-07
1.26235e-07
1.31843e-07
1.3445e-07
1.28978e-07
1.26147e-07
1.32005e-07
1.30043e-07
1.33202e-07
1.32051e-07
1.2851e-07
1.24312e-07
1.22473e-07
1.24715e-07
1.30323e-07
1.33e-07
1.27933e-07
1.25374e-07
1.31193e-07
1.28203e-07
1.32064e-07
1.30981e-07
1.26793e-07
1.22194e-07
1.20214e-07
1.22419e-07
1.27829e-07
1.30488e-07
1.2597e-07
1.23736e-07
1.29333e-07
1.25566e-07
1.2987e-07
1.28854e-07
1.2429e-07
1.19601e-07
1.17565e-07
1.19594e-07
1.24617e-07
1.27164e-07
1.23284e-07
1.21403e-07
1.26602e-07
1.22387e-07
1.2684e-07
1.25907e-07
1.21309e-07
1.16862e-07
1.14844e-07
1.16559e-07
1.21036e-07
1.23376e-07
1.20151e-07
1.18606e-07
1.23257e-07
1.18993e-07
1.23288e-07
1.22477e-07
1.18238e-07
1.14356e-07
1.12413e-07
1.13693e-07
1.17515e-07
1.19554e-07
1.16919e-07
1.15633e-07
1.19627e-07
1.15769e-07
1.19615e-07
1.18985e-07
1.15523e-07
1.12502e-07
1.10667e-07
1.11418e-07
1.14536e-07
1.16184e-07
1.13985e-07
1.12819e-07
1.16102e-07
1.13149e-07
1.1629e-07
1.15923e-07
1.13656e-07
1.11753e-07
1.10036e-07
1.1019e-07
1.1262e-07
1.13791e-07
1.11781e-07
1.10538e-07
1.13115e-07
1.11602e-07
1.13846e-07
1.13844e-07
1.1315e-07
1.12613e-07
1.10991e-07
1.10507e-07
1.12324e-07
1.12924e-07
1.10771e-07
1.09202e-07
1.11142e-07
1.11655e-07
1.1287e-07
1.13356e-07
1.14597e-07
1.15666e-07
1.14086e-07
1.12939e-07
1.14264e-07
1.14151e-07
1.11472e-07
1.09282e-07
1.10704e-07
1.1393e-07
1.14033e-07
1.1515e-07
1.18713e-07
1.21661e-07
1.20032e-07
1.18187e-07
1.19176e-07
1.18172e-07
1.14501e-07
1.11334e-07
1.12409e-07
1.19216e-07
1.18144e-07
1.20069e-07
1.26446e-07
1.31644e-07
1.29824e-07
1.27221e-07
1.28071e-07
1.25923e-07
1.20657e-07
1.16076e-07
1.17016e-07
1.28622e-07
1.26277e-07
1.29245e-07
1.3918e-07
1.47199e-07
1.44962e-07
1.41491e-07
1.42485e-07
1.38781e-07
1.31077e-07
1.24494e-07
1.25568e-07
1.43836e-07
1.4002e-07
1.44374e-07
1.59089e-07
1.70824e-07
1.67796e-07
1.63306e-07
1.64897e-07
1.58933e-07
1.47492e-07
1.38062e-07
1.39636e-07
1.67589e-07
1.61921e-07
1.6822e-07
1.89666e-07
2.06322e-07
2.01818e-07
1.96276e-07
1.99335e-07
1.89944e-07
1.72642e-07
1.59087e-07
1.61729e-07
2.0415e-07
1.96152e-07
2.05215e-07
2.35183e-07
2.57352e-07
2.50317e-07
2.43716e-07
2.49852e-07
2.36141e-07
2.10254e-07
1.91008e-07
1.95795e-07
2.56126e-07
2.46436e-07
2.5948e-07
3.01693e-07
3.308e-07
3.19866e-07
3.1279e-07
3.23864e-07
2.99741e-07
2.59905e-07
2.36119e-07
2.45214e-07
3.07864e-07
3.05517e-07
3.22807e-07
3.67483e-07
4.0282e-07
3.97412e-07
3.97868e-07
4.00706e-07
3.64225e-07
3.12092e-07
2.8113e-07
2.98738e-07
3.74706e-07
3.73416e-07
3.94892e-07
4.48339e-07
4.8941e-07
4.83062e-07
4.85035e-07
4.88164e-07
4.43311e-07
3.78499e-07
3.39834e-07
3.63253e-07
4.56177e-07
4.56971e-07
4.82092e-07
5.43569e-07
5.90603e-07
5.83149e-07
5.86594e-07
5.89842e-07
5.35924e-07
4.58437e-07
4.1282e-07
4.42414e-07
5.51773e-07
5.55047e-07
5.83978e-07
6.54079e-07
7.07469e-07
6.9874e-07
7.03429e-07
7.06667e-07
6.42827e-07
5.51418e-07
4.98979e-07
5.35179e-07
6.62646e-07
6.68534e-07
7.01688e-07
7.80527e-07
8.40347e-07
8.30269e-07
8.35788e-07
8.38866e-07
7.64682e-07
6.58395e-07
5.9885e-07
6.42385e-07
7.89334e-07
7.97951e-07
8.35632e-07
9.22511e-07
9.88614e-07
9.7707e-07
9.82817e-07
9.85566e-07
9.01218e-07
7.79831e-07
7.13204e-07
7.64527e-07
9.31317e-07
9.42797e-07
9.85107e-07
1.07838e-06
1.14983e-06
1.13721e-06
1.14244e-06
1.14468e-06
1.05106e-06
9.15281e-07
8.41977e-07
9.01109e-07
1.08686e-06
1.10129e-06
1.14789e-06
1.24524e-06
1.3204e-06
1.30747e-06
1.31142e-06
1.31301e-06
1.21172e-06
1.06327e-06
9.84087e-07
1.05051e-06
1.25308e-06
1.27041e-06
1.32047e-06
1.4192e-06
1.49602e-06
1.48349e-06
1.48568e-06
1.4865e-06
1.37976e-06
1.22128e-06
1.13739e-06
1.21001e-06
1.42611e-06
1.44621e-06
1.49838e-06
1.59576e-06
1.67198e-06
1.65944e-06
1.66064e-06
1.66069e-06
1.55112e-06
1.38598e-06
1.29882e-06
1.37602e-06
1.60155e-06
1.62421e-06
1.67676e-06
1.77023e-06
1.84371e-06
1.83103e-06
1.83176e-06
1.83113e-06
1.72154e-06
1.55352e-06
1.46461e-06
1.5444e-06
1.77487e-06
1.79974e-06
1.85084e-06
1.93814e-06
2.00711e-06
1.99435e-06
1.99493e-06
1.99383e-06
1.88691e-06
1.71985e-06
1.63072e-06
1.71087e-06
1.94185e-06
1.96845e-06
2.01643e-06
2.09575e-06
2.15889e-06
2.14606e-06
2.14675e-06
2.14551e-06
2.04369e-06
1.88114e-06
1.79317e-06
1.87141e-06
2.0989e-06
2.12665e-06
2.17017e-06
2.2403e-06
2.29672e-06
2.28373e-06
2.28473e-06
2.2838e-06
2.18905e-06
2.03403e-06
1.94839e-06
2.02252e-06
2.24326e-06
2.27156e-06
2.30977e-06
2.3701e-06
2.41923e-06
2.40592e-06
2.40736e-06
2.40726e-06
2.321e-06
2.17587e-06
2.09346e-06
2.16149e-06
2.37309e-06
2.40127e-06
2.43393e-06
2.48439e-06
2.52593e-06
2.51216e-06
2.51408e-06
2.51529e-06
2.43841e-06
2.30484e-06
2.22645e-06
2.28633e-06
2.48741e-06
2.51489e-06
2.54223e-06
2.58324e-06
2.61694e-06
2.60191e-06
2.60498e-06
2.60802e-06
2.54088e-06
2.42074e-06
2.34671e-06
2.39652e-06
2.58605e-06
2.61244e-06
2.63497e-06
2.66731e-06
2.69287e-06
2.67656e-06
2.68013e-06
2.68613e-06
2.62878e-06
2.52321e-06
2.45316e-06
2.49243e-06
2.66951e-06
2.6946e-06
2.71301e-06
2.73772e-06
2.75558e-06
2.7382e-06
2.74137e-06
2.7506e-06
2.70377e-06
2.61195e-06
2.54508e-06
2.57472e-06
2.73875e-06
2.76251e-06
2.77762e-06
2.79567e-06
2.8075e-06
2.78958e-06
2.79158e-06
2.80242e-06
2.76711e-06
2.68638e-06
2.62294e-06
2.6439e-06
2.79511e-06
2.81764e-06
2.83029e-06
2.84262e-06
2.85004e-06
2.83139e-06
2.83236e-06
2.84452e-06
2.81842e-06
2.74766e-06
2.68753e-06
2.70088e-06
2.84011e-06
2.86155e-06
2.8726e-06
2.88041e-06
2.88411e-06
2.86446e-06
2.86424e-06
2.87729e-06
2.85835e-06
2.79686e-06
2.73982e-06
2.74685e-06
2.87534e-06
2.89562e-06
2.90609e-06
2.91064e-06
2.9107e-06
2.88951e-06
2.88752e-06
2.90071e-06
2.88832e-06
2.83512e-06
2.78096e-06
2.78311e-06
2.90237e-06
2.92197e-06
2.93214e-06
2.93433e-06
2.93082e-06
2.9073e-06
2.90285e-06
2.91624e-06
2.90967e-06
2.86375e-06
2.81221e-06
2.81098e-06
2.92264e-06
2.94245e-06
2.952e-06
2.9525e-06
2.94541e-06
2.91893e-06
2.91141e-06
2.92526e-06
2.92378e-06
2.884e-06
2.83485e-06
2.83169e-06
2.9374e-06
2.9578e-06
2.96686e-06
2.96605e-06
2.9553e-06
2.92536e-06
2.91428e-06
2.92913e-06
2.93201e-06
2.89704e-06
2.85006e-06
2.84624e-06
2.94785e-06
2.96873e-06
2.97761e-06
2.97574e-06
2.96124e-06
2.92736e-06
2.91238e-06
2.92877e-06
2.93571e-06
2.90402e-06
2.85896e-06
2.85539e-06
2.95478e-06
2.97587e-06
2.98475e-06
2.98216e-06
2.96379e-06
2.92557e-06
2.90644e-06
2.92494e-06
2.93595e-06
2.90607e-06
2.86259e-06
2.86014e-06
2.95888e-06
2.9797e-06
2.98862e-06
2.98571e-06
2.96336e-06
2.92044e-06
2.89693e-06
2.91805e-06
2.93341e-06
2.90412e-06
2.86177e-06
2.86131e-06
2.96066e-06
2.98057e-06
2.98941e-06
2.98656e-06
2.96014e-06
2.91218e-06
2.8841e-06
2.90817e-06
2.9274e-06
2.89923e-06
2.85722e-06
2.85932e-06
1.7111e-12
1.77928e-12
1.92105e-12
1.99257e-12
1.95105e-12
1.87026e-12
1.81677e-12
1.77143e-12
1.7641e-12
1.84222e-12
1.8824e-12
1.79966e-12
1.98265e-12
2.01312e-12
2.13135e-12
2.21963e-12
2.22017e-12
2.16584e-12
2.10609e-12
2.04541e-12
2.02561e-12
2.10131e-12
2.14115e-12
2.04364e-12
8.97576e-12
8.36644e-12
8.19062e-12
8.67088e-12
9.42016e-12
9.77915e-12
9.54547e-12
9.14712e-12
8.88137e-12
8.99208e-12
9.07031e-12
8.60851e-12
5.66786e-11
5.17852e-11
4.96539e-11
5.27674e-11
5.85157e-11
6.16325e-11
6.0235e-11
5.75752e-11
5.56438e-11
5.59764e-11
5.63261e-11
5.34359e-11
2.41782e-10
2.2009e-10
2.10087e-10
2.23277e-10
2.48431e-10
2.62387e-10
2.56621e-10
2.45338e-10
2.36921e-10
2.3784e-10
2.39164e-10
2.27153e-10
7.56206e-10
6.87102e-10
6.54104e-10
6.94749e-10
7.7388e-10
8.18498e-10
8.01174e-10
7.66593e-10
7.40227e-10
7.41729e-10
7.453e-10
7.09119e-10
1.89133e-09
1.71597e-09
1.62934e-09
1.72889e-09
1.92674e-09
2.04019e-09
1.99913e-09
1.91537e-09
1.85012e-09
1.85004e-09
1.85694e-09
1.77088e-09
3.99011e-09
3.61603e-09
3.42492e-09
3.62935e-09
4.04437e-09
4.28648e-09
4.20568e-09
4.03677e-09
3.90231e-09
3.89324e-09
3.90215e-09
3.73177e-09
7.34974e-09
6.65682e-09
6.29142e-09
6.65619e-09
7.41129e-09
7.85913e-09
7.72257e-09
7.4292e-09
7.19077e-09
7.15713e-09
7.16109e-09
6.87024e-09
1.21175e-08
1.09769e-08
1.03583e-08
1.09389e-08
1.21595e-08
1.28941e-08
1.26908e-08
1.2241e-08
1.18681e-08
1.17855e-08
1.17693e-08
1.13299e-08
1.8234e-08
1.65344e-08
1.55908e-08
1.64327e-08
1.8219e-08
1.93072e-08
1.90358e-08
1.84148e-08
1.78903e-08
1.77278e-08
1.76679e-08
1.70685e-08
2.54461e-08
2.31173e-08
2.18e-08
2.29311e-08
2.53348e-08
2.68138e-08
2.64845e-08
2.57005e-08
2.50258e-08
2.47511e-08
2.46194e-08
2.38678e-08
3.25414e-08
2.97897e-08
2.8181e-08
2.94659e-08
3.22133e-08
3.39452e-08
3.36509e-08
3.28583e-08
3.21792e-08
3.17841e-08
3.15545e-08
3.07568e-08
3.90116e-08
3.58129e-08
3.3952e-08
3.54589e-08
3.86058e-08
4.05887e-08
4.02792e-08
3.94168e-08
3.86642e-08
3.81646e-08
3.78652e-08
3.69859e-08
4.55815e-08
4.19597e-08
3.98663e-08
4.15884e-08
4.50965e-08
4.73063e-08
4.69925e-08
4.60845e-08
4.52715e-08
4.46575e-08
4.42828e-08
4.33431e-08
5.21644e-08
4.81516e-08
4.5848e-08
4.77719e-08
5.15951e-08
5.40037e-08
5.36975e-08
5.2772e-08
5.19146e-08
5.11758e-08
5.07196e-08
4.97449e-08
5.86786e-08
5.43133e-08
5.18239e-08
5.39301e-08
5.80168e-08
6.05936e-08
6.03074e-08
5.9395e-08
5.85112e-08
5.76364e-08
5.70921e-08
5.61106e-08
6.50566e-08
6.03813e-08
5.77315e-08
5.99959e-08
6.42911e-08
6.70039e-08
6.67501e-08
6.58831e-08
6.49925e-08
6.39694e-08
6.33289e-08
6.23717e-08
7.12485e-08
6.63072e-08
6.35224e-08
6.59173e-08
7.03651e-08
7.31812e-08
7.29724e-08
7.21839e-08
7.13067e-08
7.01212e-08
6.93748e-08
6.84749e-08
7.72281e-08
7.20627e-08
6.91665e-08
7.16633e-08
7.62098e-08
7.90975e-08
7.89469e-08
7.82702e-08
7.74264e-08
7.60604e-08
7.51956e-08
7.43885e-08
8.30021e-08
7.76481e-08
7.46604e-08
7.72322e-08
8.18284e-08
8.47589e-08
8.46807e-08
8.41505e-08
8.33585e-08
8.17863e-08
8.07859e-08
8.01106e-08
8.86164e-08
8.31005e-08
8.00351e-08
8.26593e-08
8.72611e-08
9.02088e-08
9.02208e-08
8.98765e-08
8.91529e-08
8.73363e-08
8.61753e-08
8.56768e-08
9.41534e-08
8.84957e-08
8.53596e-08
8.80157e-08
9.25792e-08
9.55205e-08
9.56474e-08
9.55393e-08
9.48985e-08
9.2783e-08
9.14271e-08
9.11596e-08
9.97144e-08
9.3937e-08
9.07301e-08
9.33917e-08
9.78623e-08
1.00775e-07
1.01052e-07
1.01244e-07
1.00701e-07
9.82169e-08
9.66235e-08
9.66527e-08
1.05388e-07
9.95284e-08
9.62459e-08
9.88669e-08
1.0317e-07
1.06028e-07
1.06501e-07
1.07076e-07
1.06646e-07
1.03716e-07
1.01838e-07
1.02242e-07
1.11213e-07
1.05339e-07
1.01974e-07
1.04472e-07
1.08504e-07
1.11269e-07
1.12001e-07
1.13051e-07
1.12758e-07
1.09307e-07
1.07104e-07
1.07969e-07
1.17141e-07
1.11366e-07
1.07914e-07
1.10156e-07
1.13779e-07
1.16397e-07
1.17458e-07
1.1909e-07
1.1896e-07
1.14934e-07
1.12378e-07
1.138e-07
1.22998e-07
1.17492e-07
1.13948e-07
1.15762e-07
1.18795e-07
1.21186e-07
1.22648e-07
1.24949e-07
1.25023e-07
1.20425e-07
1.17524e-07
1.19594e-07
1.28417e-07
1.23427e-07
1.19809e-07
1.20976e-07
1.23198e-07
1.25254e-07
1.27156e-07
1.30149e-07
1.30477e-07
1.2544e-07
1.22271e-07
1.2504e-07
1.32843e-07
1.28677e-07
1.25023e-07
1.25311e-07
1.26514e-07
1.28118e-07
1.30437e-07
1.34041e-07
1.34673e-07
1.29472e-07
1.26197e-07
1.29644e-07
1.35747e-07
1.32679e-07
1.29062e-07
1.2828e-07
1.2846e-07
1.29702e-07
1.32201e-07
1.36155e-07
1.37093e-07
1.32044e-07
1.28851e-07
1.32884e-07
1.37237e-07
1.35084e-07
1.3157e-07
1.29908e-07
1.29359e-07
1.3028e-07
1.32847e-07
1.36964e-07
1.3812e-07
1.33352e-07
1.30324e-07
1.34644e-07
1.37494e-07
1.36019e-07
1.3262e-07
1.30375e-07
1.29226e-07
1.29841e-07
1.32393e-07
1.36545e-07
1.3788e-07
1.33507e-07
1.30724e-07
1.35145e-07
1.3658e-07
1.35693e-07
1.32442e-07
1.29756e-07
1.2813e-07
1.28463e-07
1.30914e-07
1.34972e-07
1.36446e-07
1.32566e-07
1.30098e-07
1.3448e-07
1.34608e-07
1.3421e-07
1.31143e-07
1.28172e-07
1.26228e-07
1.26319e-07
1.28576e-07
1.32412e-07
1.3397e-07
1.30649e-07
1.2854e-07
1.3275e-07
1.31767e-07
1.3173e-07
1.28888e-07
1.25829e-07
1.2377e-07
1.23664e-07
1.25633e-07
1.29134e-07
1.30703e-07
1.27951e-07
1.26212e-07
1.30128e-07
1.28327e-07
1.28498e-07
1.25926e-07
1.23015e-07
1.21078e-07
1.20823e-07
1.22419e-07
1.25495e-07
1.26984e-07
1.2474e-07
1.23345e-07
1.26862e-07
1.24631e-07
1.24842e-07
1.22591e-07
1.20092e-07
1.18531e-07
1.18172e-07
1.19329e-07
1.21927e-07
1.23227e-07
1.21371e-07
1.20231e-07
1.23283e-07
1.21079e-07
1.21162e-07
1.19286e-07
1.17481e-07
1.16555e-07
1.16129e-07
1.16803e-07
1.18909e-07
1.19889e-07
1.18238e-07
1.17212e-07
1.19782e-07
1.18117e-07
1.17912e-07
1.16468e-07
1.15651e-07
1.15613e-07
1.15144e-07
1.15313e-07
1.16953e-07
1.17463e-07
1.15762e-07
1.14666e-07
1.16795e-07
1.1623e-07
1.15592e-07
1.14642e-07
1.1512e-07
1.16218e-07
1.15709e-07
1.15376e-07
1.16606e-07
1.16468e-07
1.14395e-07
1.13012e-07
1.148e-07
1.15953e-07
1.14748e-07
1.1436e-07
1.16465e-07
1.18963e-07
1.18397e-07
1.1757e-07
1.18471e-07
1.17473e-07
1.14635e-07
1.12722e-07
1.14327e-07
1.17905e-07
1.15994e-07
1.16256e-07
1.20374e-07
1.24599e-07
1.23935e-07
1.22609e-07
1.23276e-07
1.21141e-07
1.17059e-07
1.14345e-07
1.15985e-07
1.22861e-07
1.20077e-07
1.21111e-07
1.27746e-07
1.34172e-07
1.33336e-07
1.31461e-07
1.31998e-07
1.28326e-07
1.22396e-07
1.18575e-07
1.20531e-07
1.31888e-07
1.27989e-07
1.29981e-07
1.39875e-07
1.4925e-07
1.48112e-07
1.45557e-07
1.46061e-07
1.4024e-07
1.31653e-07
1.26351e-07
1.28999e-07
1.46581e-07
1.4117e-07
1.44426e-07
1.58765e-07
1.72284e-07
1.7062e-07
1.67116e-07
1.67656e-07
1.5872e-07
1.46327e-07
1.39054e-07
1.42918e-07
1.69463e-07
1.61845e-07