/*--------------------------------*- C++ -*----------------------------------*\
| =========                 |                                                 |
| \\      /  F ield         | OpenFOAM: The Open Source CFD Toolbox           |
|  \\    /   O peration     | Version:  v1912                                 |
|   \\  /    A nd           | Website:  www.openfoam.com                      |
|    \\/     M anipulation  |                                                 |
\*---------------------------------------------------------------------------*/
FoamFile
{
    version     2.0;
    format      ascii;
    class       volScalarField;
    location    "8";
    object      pPrime2Mean;
}
// * * * * * * * * * * * * * * * * * * * * * * * * * * * * * * * * * * * * * //

dimensions      [2 -2 -4 0 0 0 0];


internalField   nonuniform List<scalar> 
34128
(
2.90882
2.90952
2.91057
2.91182
2.91331
2.91503
2.91689
2.9187
2.92083
2.9227
2.92433
2.92584
2.90962
2.91053
2.91149
2.91285
2.91449
2.91611
2.91794
2.9201
2.92204
2.92396
2.92583
2.9272
2.9112
2.91199
2.91314
2.91437
2.9161
2.91795
2.91978
2.92206
2.92401
2.92611
2.92793
2.92945
2.91203
2.9128
2.9141
2.91537
2.91702
2.91895
2.92097
2.92302
2.92531
2.9274
2.92913
2.93079
2.91195
2.91302
2.91402
2.91547
2.91705
2.91902
2.92106
2.92315
2.92524
2.92752
2.92924
2.93096
2.91187
2.91272
2.91374
2.91508
2.91685
2.91881
2.92084
2.92297
2.925
2.92715
2.92896
2.9305
2.91157
2.91255
2.91359
2.91492
2.91662
2.91846
2.92049
2.92263
2.9248
2.92683
2.92852
2.93006
2.91127
2.9123
2.91327
2.91477
2.91632
2.91825
2.92023
2.92224
2.92426
2.92624
2.9283
2.92978
2.91117
2.91188
2.91306
2.9143
2.91593
2.9178
2.91994
2.9219
2.92394
2.92599
2.92785
2.92938
2.91083
2.91175
2.91265
2.91402
2.91576
2.91763
2.91956
2.92139
2.92347
2.9257
2.92756
2.92892
2.91045
2.91138
2.9124
2.91368
2.91532
2.91712
2.91899
2.92103
2.92318
2.92519
2.92694
2.92833
2.91024
2.91092
2.912
2.91335
2.91501
2.91675
2.91863
2.92055
2.92263
2.92468
2.92646
2.92787
2.90973
2.9107
2.91163
2.91286
2.91447
2.9162
2.91814
2.92001
2.92219
2.92401
2.92603
2.92734
2.90945
2.91034
2.9112
2.91239
2.91399
2.91589
2.91768
2.91969
2.92166
2.92351
2.92521
2.92667
2.90909
2.90988
2.91087
2.91215
2.91355
2.9154
2.91718
2.91912
2.92104
2.92313
2.92475
2.92625
2.90872
2.90942
2.91048
2.91165
2.91318
2.9149
2.91669
2.91861
2.92057
2.92242
2.92414
2.92561
2.90836
2.90901
2.90997
2.91126
2.91268
2.91446
2.91622
2.91807
2.92005
2.92182
2.92352
2.92482
2.90784
2.90861
2.90959
2.91072
2.91221
2.91381
2.91563
2.91748
2.91939
2.92127
2.92274
2.92414
2.90738
2.90823
2.90899
2.91019
2.91172
2.91332
2.91516
2.91692
2.91863
2.9207
2.92231
2.92354
2.90707
2.90774
2.90864
2.90987
2.91121
2.9128
2.91462
2.91644
2.91806
2.91985
2.92168
2.92282
2.9065
2.90732
2.9082
2.90929
2.91061
2.91231
2.91401
2.91572
2.91751
2.91923
2.9209
2.92209
2.9062
2.90686
2.90778
2.90895
2.91026
2.91176
2.91335
2.91516
2.91693
2.91861
2.92017
2.92148
2.90571
2.90647
2.90724
2.90843
2.90972
2.91122
2.91289
2.91443
2.91628
2.91793
2.91941
2.92071
2.90535
2.90611
2.90674
2.90792
2.90925
2.91064
2.9122
2.91401
2.91552
2.91718
2.91886
2.92004
2.9048
2.90558
2.90629
2.90749
2.90869
2.91006
2.91164
2.91346
2.91487
2.91652
2.91803
2.91927
2.90452
2.90517
2.90588
2.90714
2.90806
2.90956
2.91105
2.91271
2.91431
2.91591
2.91736
2.91856
2.90401
2.90471
2.90559
2.90656
2.90761
2.90907
2.91055
2.91212
2.91373
2.91517
2.91665
2.91775
2.90366
2.90432
2.90508
2.90608
2.90724
2.90859
2.91005
2.91146
2.91302
2.91481
2.91599
2.91725
2.90343
2.90397
2.90477
2.90561
2.90681
2.90799
2.90943
2.91096
2.91246
2.91396
2.91533
2.91631
2.90288
2.90364
2.9042
2.90521
2.90624
2.90759
2.90897
2.91034
2.91178
2.91336
2.91465
2.91568
2.90264
2.90328
2.90396
2.90486
2.90591
2.90717
2.9085
2.90985
2.91127
2.9128
2.91405
2.91497
2.90237
2.90285
2.90362
2.90448
2.90546
2.90664
2.90789
2.90928
2.91065
2.9122
2.91339
2.91427
2.90207
2.90253
2.90315
2.90403
2.90503
2.90629
2.90757
2.90896
2.91013
2.91155
2.91261
2.91371
2.9017
2.90227
2.90284
2.90374
2.90471
2.90593
2.90708
2.90838
2.90961
2.91103
2.91218
2.91302
2.90152
2.90212
2.90274
2.90352
2.90437
2.90544
2.90654
2.90792
2.90908
2.91047
2.91162
2.91235
2.90116
2.90191
2.90242
2.90318
2.9041
2.90512
2.90632
2.90743
2.9087
2.90998
2.91101
2.91183
2.90105
2.90165
2.90229
2.90293
2.90388
2.90476
2.90588
2.90714
2.90833
2.90937
2.91054
2.91139
2.90107
2.90147
2.90204
2.90273
2.90355
2.90454
2.90564
2.90672
2.90789
2.90899
2.91
2.91088
2.9008
2.90136
2.90182
2.90251
2.90336
2.90418
2.90534
2.90639
2.90763
2.90862
2.90967
2.91047
2.90067
2.90121
2.90189
2.90236
2.90332
2.90408
2.90521
2.90607
2.90733
2.90826
2.90923
2.91007
2.9008
2.901
2.90171
2.90235
2.90305
2.90397
2.90501
2.90602
2.90696
2.90792
2.90894
2.90961
2.90079
2.90113
2.90168
2.90222
2.903
2.90377
2.90478
2.90564
2.90681
2.90771
2.90859
2.90929
2.90081
2.90112
2.90171
2.90215
2.9029
2.90367
2.90469
2.90552
2.90644
2.90745
2.90836
2.90911
2.9008
2.9013
2.90163
2.90222
2.9028
2.90363
2.90442
2.90541
2.90644
2.90726
2.90825
2.90888
2.90094
2.90136
2.9017
2.90221
2.90289
2.90368
2.90448
2.90532
2.90616
2.90718
2.90811
2.90864
2.90106
2.90147
2.90195
2.90233
2.90302
2.90382
2.90453
2.90543
2.90628
2.90713
2.90782
2.90851
2.9013
2.90168
2.90211
2.90264
2.90323
2.90377
2.90464
2.90536
2.90639
2.90705
2.90788
2.90846
2.90168
2.90199
2.90243
2.90277
2.90334
2.90396
2.90475
2.9055
2.90627
2.90714
2.9078
2.90853
2.90192
2.90227
2.9026
2.90302
2.90365
2.90434
2.90489
2.90576
2.90639
2.90714
2.90787
2.90833
2.90222
2.90254
2.90297
2.90328
2.90381
2.90451
2.90516
2.90583
2.90658
2.90735
2.90807
2.90845
2.90265
2.90292
2.90336
2.90371
2.90421
2.9048
2.90542
2.90609
2.90688
2.90761
2.90817
2.90862
2.90308
2.90345
2.90374
2.9042
2.90465
2.90525
2.90562
2.90642
2.90714
2.90786
2.90848
2.90885
2.90358
2.90382
2.90425
2.9046
2.90504
2.90549
2.90612
2.90677
2.90745
2.90806
2.90859
2.90907
2.90412
2.90443
2.90471
2.90504
2.90551
2.90598
2.90649
2.90712
2.9078
2.90852
2.90897
2.90934
2.90466
2.90504
2.90527
2.90558
2.90598
2.9066
2.90684
2.90756
2.90815
2.90876
2.90924
2.90972
2.90531
2.9056
2.90578
2.90629
2.90662
2.90697
2.90745
2.90803
2.90873
2.90923
2.90974
2.91014
2.90584
2.9062
2.90642
2.90689
2.90712
2.90756
2.90806
2.90854
2.9092
2.90975
2.91012
2.91054
2.90673
2.90692
2.90711
2.90729
2.90757
2.90811
2.90865
2.9092
2.9097
2.91025
2.91054
2.911
2.9073
2.90755
2.90767
2.90799
2.90842
2.90864
2.90918
2.90976
2.9103
2.91075
2.91131
2.91154
2.90794
2.90817
2.90843
2.90867
2.909
2.90935
2.90985
2.91026
2.91077
2.91128
2.91172
2.91203
2.90872
2.90887
2.90924
2.90931
2.90973
2.90993
2.91043
2.9109
2.91145
2.91177
2.91232
2.91248
2.90933
2.90953
2.90992
2.91012
2.91032
2.91067
2.91104
2.91153
2.91207
2.91239
2.9129
2.91319
2.91023
2.91026
2.91057
2.91082
2.911
2.91139
2.91181
2.91227
2.9127
2.9131
2.9134
2.91363
2.91091
2.91107
2.91123
2.91153
2.91171
2.91208
2.9124
2.91277
2.91327
2.91366
2.91403
2.91438
2.91166
2.91194
2.91198
2.91224
2.91252
2.91262
2.91319
2.91349
2.91407
2.9143
2.91469
2.9149
2.91249
2.91261
2.91269
2.91298
2.91317
2.91337
2.91383
2.91419
2.91466
2.9151
2.91533
2.91556
2.91321
2.91336
2.91344
2.91365
2.91393
2.91412
2.9144
2.91507
2.9152
2.91555
2.91607
2.91628
2.91391
2.91401
2.91409
2.91443
2.91462
2.91482
2.91515
2.91546
2.9159
2.91627
2.91658
2.91682
2.91458
2.91463
2.91488
2.91503
2.91514
2.91552
2.91577
2.91613
2.91653
2.91686
2.91718
2.91736
2.91527
2.91529
2.91544
2.91577
2.91592
2.91618
2.91658
2.91673
2.91704
2.91735
2.91785
2.91807
2.91578
2.91594
2.91602
2.91618
2.91656
2.91662
2.91694
2.9172
2.9178
2.91798
2.91823
2.91847
2.91626
2.91635
2.91651
2.91656
2.9168
2.91689
2.91735
2.91765
2.91806
2.91827
2.91862
2.91889
2.91668
2.91676
2.91684
2.91699
2.91714
2.91733
2.91757
2.9179
2.91836
2.91862
2.91891
2.91914
2.91675
2.91681
2.91697
2.91717
2.91722
2.91756
2.91782
2.91807
2.91844
2.91868
2.91899
2.9192
2.91673
2.91665
2.91699
2.91691
2.91707
2.91739
2.91755
2.9178
2.91821
2.91851
2.91875
2.91898
2.91648
2.91647
2.91678
2.91679
2.9168
2.91685
2.91734
2.91757
2.91774
2.9181
2.91831
2.91853
2.91596
2.91603
2.9161
2.91611
2.91632
2.91644
2.9166
2.91683
2.91714
2.91741
2.91755
2.91781
2.91515
2.91526
2.91525
2.91545
2.91548
2.91541
2.91581
2.91589
2.91617
2.91634
2.91663
2.91681
2.91441
2.91436
2.91432
2.91434
2.91447
2.91443
2.91477
2.91475
2.91503
2.91526
2.91536
2.91566
26.607
26.6053
26.6034
26.6017
26.6001
26.5986
26.5974
26.5964
26.5959
26.5955
26.5953
26.5952
26.5962
26.5945
26.593
26.5918
26.5904
26.5892
26.5882
26.5878
26.5876
26.5876
26.5875
26.5878
26.5804
26.5792
26.578
26.577
26.576
26.5755
26.5751
26.5752
26.5754
26.5759
26.5762
26.5768
26.5708
26.5697
26.5688
26.5681
26.5676
26.5672
26.5672
26.5675
26.5682
26.5689
26.5697
26.5703
26.5684
26.5673
26.5665
26.5659
26.5651
26.5651
26.5651
26.5657
26.5663
26.567
26.5679
26.5687
26.5688
26.5677
26.5667
26.5662
26.5656
26.5654
26.5653
26.5659
26.5666
26.5674
26.5682
26.569
26.569
26.568
26.567
26.5665
26.5658
26.5657
26.5657
26.5662
26.5667
26.5677
26.5684
26.5692
26.5694
26.5684
26.5674
26.5667
26.5661
26.5659
26.5659
26.5664
26.567
26.5678
26.5687
26.5693
26.5697
26.5686
26.5678
26.5671
26.5665
26.5662
26.5662
26.5666
26.5672
26.5681
26.5688
26.5696
26.57
26.5689
26.5681
26.5673
26.5667
26.5665
26.5665
26.5668
26.5674
26.5682
26.5691
26.5698
26.5702
26.5692
26.5682
26.5675
26.5669
26.5666
26.5666
26.5671
26.5675
26.5684
26.5691
26.5698
26.5703
26.5693
26.5684
26.5678
26.5672
26.5669
26.5667
26.5672
26.5678
26.5685
26.5692
26.57
26.5706
26.5696
26.5686
26.5679
26.5674
26.5671
26.567
26.5673
26.568
26.5687
26.5694
26.57
26.5708
26.5697
26.5688
26.5681
26.5674
26.5672
26.5671
26.5674
26.568
26.5687
26.5694
26.5701
26.571
26.5698
26.5689
26.5682
26.5675
26.5672
26.5672
26.5675
26.5681
26.5689
26.5694
26.5701
26.5711
26.57
26.5691
26.5682
26.5677
26.5674
26.5674
26.5676
26.5681
26.5689
26.5695
26.5701
26.5712
26.5701
26.5691
26.5683
26.5678
26.5675
26.5673
26.5677
26.5682
26.5689
26.5696
26.5702
26.5712
26.5702
26.5693
26.5684
26.5678
26.5675
26.5674
26.5677
26.5683
26.5689
26.5694
26.57
26.5714
26.5702
26.5695
26.5687
26.568
26.5675
26.5676
26.5679
26.5684
26.5691
26.5695
26.5701
26.5714
26.5703
26.5693
26.5687
26.568
26.5678
26.5675
26.5677
26.5683
26.569
26.5696
26.57
26.5715
26.5704
26.5695
26.5686
26.568
26.5675
26.5675
26.5678
26.5684
26.5689
26.5695
26.5701
26.5714
26.5705
26.5696
26.5687
26.568
26.5676
26.5676
26.5679
26.5684
26.569
26.5695
26.57
26.5716
26.5704
26.5696
26.5687
26.5681
26.5677
26.5676
26.5679
26.5684
26.569
26.5695
26.5701
26.5717
26.5706
26.5697
26.5689
26.5681
26.5678
26.5676
26.5681
26.5684
26.569
26.5696
26.57
26.5718
26.5707
26.5697
26.5688
26.5683
26.5678
26.5676
26.568
26.5683
26.569
26.5696
26.5699
26.5718
26.5706
26.5697
26.569
26.5683
26.5678
26.5677
26.568
26.5685
26.569
26.5695
26.5701
26.5718
26.5708
26.5699
26.5691
26.5684
26.5679
26.5679
26.568
26.5685
26.5691
26.5695
26.5701
26.5719
26.5709
26.57
26.5691
26.5685
26.5679
26.5679
26.5682
26.5686
26.5691
26.5695
26.5699
26.5722
26.571
26.57
26.5692
26.5685
26.5681
26.568
26.5683
26.5687
26.5693
26.5697
26.5701
26.5721
26.5711
26.5702
26.5694
26.5685
26.5682
26.5681
26.5683
26.5687
26.5693
26.5695
26.57
26.5723
26.5712
26.5702
26.5695
26.5687
26.5684
26.5682
26.5685
26.5688
26.5693
26.5698
26.5702
26.5725
26.5714
26.5704
26.5697
26.569
26.5686
26.5685
26.5685
26.5689
26.5695
26.57
26.5702
26.5727
26.5716
26.5707
26.5698
26.5692
26.5687
26.5685
26.5688
26.5689
26.5695
26.5699
26.5704
26.5728
26.5718
26.5708
26.5701
26.5694
26.569
26.5687
26.569
26.5694
26.5698
26.5702
26.5705
26.5731
26.5721
26.5712
26.5703
26.5697
26.5693
26.5691
26.5693
26.5696
26.57
26.5703
26.5708
26.5735
26.5725
26.5716
26.5707
26.57
26.5697
26.5694
26.5695
26.5699
26.5703
26.5706
26.571
26.5738
26.5727
26.5718
26.5711
26.5702
26.5699
26.5699
26.5699
26.5703
26.5707
26.571
26.5713
26.5743
26.5731
26.5724
26.5715
26.5709
26.5704
26.5702
26.5702
26.5708
26.5711
26.5714
26.5717
26.5746
26.5736
26.5727
26.572
26.5711
26.5708
26.5707
26.5709
26.5711
26.5715
26.5719
26.5722
26.5752
26.5742
26.5733
26.5724
26.5718
26.5714
26.5711
26.5714
26.5716
26.5721
26.5724
26.5726
26.5758
26.5747
26.5738
26.5731
26.5724
26.5719
26.5718
26.5721
26.5724
26.5727
26.5729
26.5732
26.5766
26.5754
26.5745
26.5737
26.5732
26.5727
26.5725
26.5725
26.573
26.5734
26.5737
26.5739
26.5773
26.5761
26.5752
26.5745
26.574
26.5735
26.5733
26.5735
26.5738
26.5742
26.5742
26.5745
26.5781
26.577
26.5762
26.5753
26.5747
26.5742
26.5741
26.5743
26.5746
26.5749
26.5753
26.5755
26.579
26.578
26.577
26.5764
26.5756
26.5752
26.5751
26.5752
26.5756
26.576
26.5762
26.5763
26.5801
26.5788
26.5781
26.5774
26.5766
26.5762
26.5761
26.5763
26.5767
26.577
26.5772
26.5775
26.5812
26.58
26.5792
26.5784
26.5778
26.5775
26.5773
26.5776
26.5778
26.5782
26.5784
26.5787
26.5824
26.5812
26.5803
26.5797
26.579
26.5786
26.5785
26.5788
26.5791
26.5794
26.5797
26.5799
26.5837
26.5825
26.5817
26.581
26.5803
26.58
26.5798
26.58
26.5805
26.581
26.581
26.5813
26.5851
26.5839
26.5831
26.5824
26.5818
26.5815
26.5813
26.5815
26.582
26.5823
26.5825
26.5827
26.5866
26.5856
26.5846
26.584
26.5833
26.5829
26.583
26.5832
26.5836
26.5839
26.5841
26.5844
26.5882
26.5871
26.5862
26.5855
26.5849
26.5847
26.5846
26.5849
26.5854
26.5856
26.5859
26.586
26.59
26.5889
26.5881
26.5873
26.5867
26.5864
26.5863
26.5868
26.5871
26.5876
26.5877
26.588
26.5918
26.5907
26.5898
26.5891
26.5886
26.5884
26.5883
26.5885
26.589
26.5894
26.5898
26.5899
26.5939
26.5927
26.5918
26.5911
26.5906
26.5903
26.5903
26.5906
26.591
26.5915
26.5918
26.592
26.5956
26.5948
26.5939
26.5931
26.5927
26.5923
26.5924
26.5927
26.5932
26.5937
26.5939
26.5942
26.5978
26.5967
26.5959
26.5953
26.5946
26.5944
26.5944
26.595
26.5954
26.5959
26.5961
26.5964
26.5999
26.5989
26.5981
26.5973
26.5969
26.5967
26.5968
26.5972
26.5977
26.5982
26.5985
26.5987
26.6021
26.601
26.6003
26.5994
26.599
26.5989
26.5989
26.5995
26.5999
26.6006
26.6009
26.6012
26.6044
26.6033
26.6024
26.602
26.6012
26.6013
26.6013
26.6018
26.6024
26.603
26.6033
26.6036
26.6066
26.6056
26.6047
26.6042
26.6036
26.6035
26.6035
26.6043
26.6049
26.6054
26.6058
26.6062
26.609
26.6078
26.607
26.6064
26.6059
26.6059
26.606
26.6067
26.6073
26.6079
26.6083
26.6087
26.6112
26.61
26.6093
26.6086
26.6084
26.6082
26.6084
26.609
26.6097
26.6103
26.6108
26.6112
26.6135
26.6124
26.6115
26.6109
26.6105
26.6104
26.6106
26.6114
26.6121
26.6128
26.6133
26.6137
26.6159
26.6146
26.6137
26.6131
26.6127
26.6127
26.6131
26.6138
26.6144
26.6152
26.6157
26.6162
26.6179
26.6166
26.6159
26.6151
26.615
26.615
26.6154
26.6161
26.6169
26.6176
26.6184
26.6188
26.62
26.6188
26.618
26.6173
26.6172
26.617
26.6175
26.6183
26.6192
26.62
26.6206
26.6212
26.6219
26.6207
26.6198
26.6192
26.619
26.619
26.6196
26.6202
26.6214
26.6222
26.623
26.6237
26.6239
26.6226
26.6216
26.6211
26.6208
26.621
26.6216
26.6224
26.6233
26.6242
26.625
26.6258
26.6255
26.6241
26.6233
26.6226
26.6224
26.6226
26.623
26.624
26.625
26.6261
26.6271
26.6279
26.6268
26.6254
26.6244
26.6239
26.6237
26.6239
26.6244
26.6254
26.6265
26.6275
26.6286
26.6295
26.6276
26.6262
26.6252
26.6247
26.6244
26.6248
26.6254
26.6261
26.6274
26.6285
26.6298
26.6308
26.628
26.6264
26.6253
26.6249
26.6246
26.6248
26.6255
26.6264
26.6277
26.6289
26.6299
26.6313
26.6275
26.6259
26.6248
26.6242
26.6238
26.6242
26.6249
26.6258
26.627
26.6282
26.6294
26.6308
26.626
26.6244
26.6232
26.6225
26.6222
26.6226
26.623
26.6241
26.6251
26.6265
26.6279
26.6293
26.6234
26.6218
26.6205
26.6199
26.6193
26.6196
26.62
26.6209
26.6221
26.6234
26.6248
26.6264
26.6196
26.6179
26.6166
26.6158
26.6154
26.6154
26.6159
26.6168
26.6176
26.6189
26.6202
26.6217
26.6147
26.6131
26.6117
26.6107
26.6102
26.6101
26.6103
26.6111
26.612
26.6131
26.6143
26.6158
26.6089
26.6072
26.6057
26.6048
26.6039
26.6038
26.6039
26.6045
26.6053
26.6062
26.6074
26.6087
74.106
74.1001
74.0937
74.0863
74.0781
74.0701
74.0621
74.0556
74.0504
74.047
74.0454
74.0455
74.064
74.0585
74.0525
74.0456
74.0379
74.0305
74.0232
74.0173
74.0126
74.0097
74.0084
74.0087
74.0009
73.9959
73.9906
73.9845
73.9778
73.9711
73.9649
73.9599
73.956
73.954
73.9532
73.9538
73.9615
73.9569
73.952
73.9464
73.9402
73.9343
73.9287
73.9242
73.921
73.9193
73.9189
73.9199
73.9514
73.947
73.9421
73.9367
73.9306
73.9248
73.9193
73.9151
73.9119
73.9103
73.9101
73.9111
73.9522
73.9478
73.9429
73.9375
73.9315
73.9256
73.92
73.9158
73.9125
73.9111
73.9107
73.9118
73.9532
73.9487
73.9438
73.9383
73.9323
73.9265
73.9208
73.9165
73.9135
73.9119
73.9117
73.9124
73.954
73.9496
73.9445
73.9393
73.9331
73.9274
73.9218
73.9175
73.9144
73.9127
73.9125
73.9133
73.9548
73.9504
73.9455
73.94
73.934
73.9282
73.9225
73.9182
73.9151
73.9135
73.9132
73.9139
73.9556
73.9512
73.9462
73.9409
73.9347
73.9289
73.9234
73.919
73.9157
73.9142
73.914
73.9148
73.9564
73.952
73.9471
73.9417
73.9354
73.9296
73.9239
73.9198
73.9164
73.9148
73.9146
73.9151
73.957
73.9526
73.9477
73.9422
73.9361
73.9303
73.9245
73.9203
73.9171
73.9154
73.9152
73.9158
73.9577
73.9531
73.9482
73.9429
73.9367
73.9308
73.9252
73.921
73.9176
73.916
73.9157
73.9165
73.9582
73.9539
73.9489
73.9434
73.9373
73.9315
73.9258
73.9217
73.9184
73.9166
73.9162
73.917
73.9588
73.9543
73.9495
73.9441
73.9379
73.932
73.9265
73.9221
73.9189
73.917
73.9167
73.9173
73.9594
73.9549
73.9499
73.9446
73.9384
73.9326
73.9271
73.9226
73.9194
73.9177
73.9173
73.9179
73.9599
73.9555
73.9505
73.945
73.939
73.9331
73.9276
73.9233
73.9199
73.9181
73.9176
73.9183
73.9604
73.956
73.9511
73.9456
73.9396
73.9336
73.928
73.9237
73.9204
73.9187
73.9183
73.9187
73.9609
73.9565
73.9517
73.946
73.9399
73.9342
73.9285
73.9242
73.9208
73.9192
73.9185
73.9193
73.9615
73.957
73.9522
73.9465
73.9406
73.9347
73.9289
73.9246
73.9214
73.9197
73.9191
73.9196
73.9619
73.9573
73.9525
73.9471
73.941
73.9352
73.9295
73.9253
73.9219
73.9199
73.9196
73.92
73.9624
73.9578
73.9531
73.9475
73.9416
73.9356
73.93
73.9258
73.9225
73.9206
73.92
73.9204
73.9628
73.9583
73.9535
73.948
73.942
73.9361
73.9306
73.9262
73.923
73.921
73.9204
73.9209
73.9634
73.9588
73.954
73.9485
73.9425
73.9367
73.9311
73.9267
73.9235
73.9216
73.9209
73.9213
73.9638
73.9594
73.9545
73.949
73.9431
73.9372
73.9317
73.9274
73.924
73.922
73.9214
73.9218
73.9642
73.9599
73.955
73.9496
73.9435
73.9378
73.9322
73.9279
73.9247
73.9227
73.9219
73.9222
73.9648
73.9604
73.9556
73.95
73.944
73.9384
73.9327
73.9284
73.9251
73.9232
73.9225
73.9228
73.9653
73.9609
73.9561
73.9506
73.9447
73.939
73.9334
73.9291
73.9259
73.9238
73.923
73.9233
73.9658
73.9615
73.9566
73.9511
73.9453
73.9394
73.9339
73.9297
73.9266
73.9245
73.9237
73.9239
73.9664
73.962
73.9572
73.9518
73.9459
73.9402
73.9347
73.9304
73.9272
73.9251
73.9244
73.9245
73.9671
73.9626
73.958
73.9525
73.9467
73.9409
73.9354
73.9311
73.9279
73.9259
73.9251
73.9251
73.9677
73.9634
73.9587
73.9532
73.9475
73.9415
73.9362
73.9319
73.9286
73.9267
73.9258
73.9259
73.9684
73.964
73.9592
73.9539
73.9481
73.9424
73.9371
73.9328
73.9296
73.9275
73.9266
73.9267
73.9693
73.9648
73.9601
73.9548
73.9491
73.9433
73.9379
73.9337
73.9304
73.9283
73.9274
73.9275
73.9699
73.9656
73.9608
73.9557
73.9498
73.9442
73.9389
73.9346
73.9314
73.9293
73.9284
73.9285
73.9709
73.9666
73.9618
73.9566
73.9508
73.9451
73.9399
73.9355
73.9326
73.9305
73.9294
73.9295
73.9717
73.9673
73.9627
73.9575
73.9517
73.9463
73.9409
73.9367
73.9337
73.9316
73.9305
73.9305
73.9727
73.9684
73.9638
73.9585
73.9527
73.9472
73.9421
73.9379
73.9347
73.9328
73.9317
73.9316
73.9738
73.9693
73.9648
73.9597
73.9539
73.9483
73.9432
73.9391
73.9362
73.9341
73.9329
73.9328
73.975
73.9706
73.9661
73.9609
73.9553
73.9496
73.9445
73.9405
73.9375
73.9354
73.9343
73.9341
73.976
73.9719
73.9672
73.9621
73.9566
73.9511
73.9461
73.942
73.9389
73.9367
73.9357
73.9356
73.9775
73.9731
73.9686
73.9635
73.9578
73.9526
73.9476
73.9435
73.9405
73.9384
73.9373
73.9371
73.9789
73.9746
73.97
73.9649
73.9594
73.954
73.9491
73.9452
73.9422
73.9402
73.9389
73.9388
73.9803
73.976
73.9715
73.9665
73.961
73.9558
73.9508
73.947
73.944
73.9421
73.9407
73.9406
73.9819
73.9777
73.9731
73.9682
73.9627
73.9576
73.9526
73.9487
73.9459
73.9438
73.9426
73.9424
73.9837
73.9793
73.9749
73.9699
73.9645
73.9593
73.9545
73.9509
73.9479
73.9459
73.9447
73.9445
73.9855
73.9811
73.9767
73.9718
73.9665
73.9614
73.9567
73.9529
73.9501
73.9482
73.947
73.9467
73.9874
73.9831
73.9787
73.9736
73.9685
73.9635
73.9589
73.9552
73.9524
73.9504
73.9493
73.949
73.9894
73.9852
73.9807
73.9759
73.9707
73.9656
73.9613
73.9575
73.9548
73.9529
73.9516
73.9514
73.9917
73.9873
73.9829
73.9782
73.973
73.9681
73.9636
73.9599
73.9574
73.9554
73.9544
73.9541
73.9939
73.9896
73.9851
73.9804
73.9753
73.9705
73.9662
73.9626
73.96
73.9582
73.957
73.9568
73.9962
73.9918
73.9877
73.9829
73.9779
73.9731
73.9687
73.9655
73.9629
73.961
73.9598
73.9596
73.9987
73.9943
73.9901
73.9854
73.9804
73.9758
73.9717
73.9683
73.9658
73.9639
73.9629
73.9626
74.0013
73.997
73.9927
73.988
73.9832
73.9787
73.9744
73.9712
73.9689
73.967
73.9659
73.9656
74.004
73.9997
73.9953
73.9908
73.986
73.9815
73.9775
73.9744
73.972
73.9704
73.9691
73.969
74.0067
74.0024
73.9982
73.9936
73.9889
73.9844
73.9805
73.9776
73.9752
73.9736
73.9726
73.9725
74.0096
74.0053
74.001
73.9967
73.992
73.9876
73.9838
73.9809
73.9786
73.977
73.9761
73.9761
74.0125
74.0082
74.004
73.9995
73.9951
73.9908
73.9872
73.9841
73.9823
73.9806
73.9797
73.9797
74.0156
74.0113
74.007
74.0026
73.9981
73.9939
73.9903
73.9876
73.9856
73.9842
73.9834
73.9835
74.0187
74.0142
74.0102
74.0058
74.0014
73.9973
73.9939
73.9912
73.9892
73.988
73.9871
73.9873
74.0216
74.0173
74.0132
74.0088
74.0046
74.0005
73.9971
73.9947
73.993
73.9916
73.9909
73.9911
74.0247
74.0202
74.0162
74.0119
74.0077
74.0039
74.0005
73.9982
73.9967
73.9954
73.9949
73.995
74.0278
74.0234
74.0191
74.015
74.0109
74.0071
74.0041
74.0017
74
73.9992
73.9986
73.9988
74.0307
74.0263
74.0222
74.0181
74.014
74.0104
74.0074
74.0052
74.0037
74.0027
74.0025
74.0028
74.0338
74.0293
74.0249
74.021
74.0171
74.0135
74.0106
74.0086
74.0073
74.0063
74.0062
74.0067
74.0366
74.0319
74.0278
74.0236
74.0199
74.0164
74.0137
74.0118
74.0105
74.0098
74.0098
74.0103
74.0391
74.0345
74.0304
74.0264
74.0224
74.0191
74.0165
74.0146
74.0137
74.0131
74.0131
74.014
74.0415
74.0367
74.0326
74.0285
74.0249
74.0216
74.0191
74.0174
74.0164
74.0161
74.0163
74.0172
74.0435
74.0388
74.0344
74.0305
74.0268
74.0237
74.0214
74.0196
74.0188
74.0186
74.0191
74.0201
74.0449
74.0402
74.0358
74.0317
74.0281
74.0251
74.0229
74.0214
74.0209
74.0208
74.0214
74.0226
74.0458
74.0409
74.0366
74.0325
74.029
74.0261
74.0239
74.0226
74.022
74.022
74.023
74.0246
74.0459
74.0408
74.0363
74.0324
74.0289
74.0261
74.0242
74.0228
74.0224
74.0226
74.0237
74.0256
74.0448
74.0397
74.0352
74.0312
74.0278
74.025
74.023
74.0218
74.0215
74.0219
74.0231
74.0254
74.0424
74.0373
74.0327
74.0286
74.0252
74.0224
74.0205
74.0193
74.0191
74.0195
74.0212
74.0235
74.0384
74.033
74.0282
74.0241
74.0206
74.0178
74.016
74.0146
74.0144
74.0149
74.0167
74.0193
74.0321
74.0265
74.0219
74.0177
74.014
74.011
74.009
74.0077
74.0073
74.0078
74.0099
74.0125
74.0241
74.0187
74.0137
74.0093
74.0055
74.0023
74.0002
73.9986
73.9981
73.9987
74.0005
74.0033
74.0144
74.0088
74.0038
73.9991
73.9952
73.9919
73.9896
73.9878
73.9872
73.9876
73.9893
73.9922
74.0036
73.9978
73.9927
73.9878
73.9838
73.9802
73.9775
73.9756
73.9749
73.9751
73.9768
73.9795
145.944
145.934
145.922
145.909
145.893
145.878
145.864
145.852
145.842
145.838
145.837
145.841
145.841
145.831
145.82
145.807
145.793
145.778
145.764
145.753
145.744
145.74
145.74
145.743
145.684
145.675
145.665
145.653
145.639
145.626
145.613
145.603
145.595
145.591
145.592
145.596
145.585
145.576
145.567
145.555
145.542
145.53
145.518
145.508
145.501
145.498
145.498
145.502
145.56
145.551
145.541
145.53
145.518
145.505
145.493
145.484
145.477
145.473
145.474
145.478
145.561
145.553
145.543
145.532
145.519
145.507
145.495
145.485
145.478
145.475
145.476
145.48
145.563
145.555
145.545
145.534
145.521
145.509
145.497
145.487
145.48
145.477
145.478
145.482
145.565
145.556
145.547
145.536
145.523
145.511
145.499
145.489
145.482
145.479
145.479
145.483
145.567
145.558
145.548
145.537
145.525
145.512
145.5
145.491
145.483
145.48
145.481
145.485
145.568
145.56
145.55
145.539
145.526
145.514
145.502
145.492
145.485
145.482
145.482
145.486
145.57
145.561
145.551
145.54
145.527
145.515
145.503
145.493
145.486
145.483
145.484
145.488
145.571
145.562
145.553
145.541
145.529
145.516
145.504
145.495
145.488
145.485
145.485
145.489
145.572
145.564
145.554
145.543
145.53
145.518
145.506
145.496
145.489
145.486
145.486
145.49
145.573
145.565
145.555
145.544
145.531
145.519
145.507
145.497
145.49
145.487
145.487
145.491
145.574
145.566
145.556
145.545
145.532
145.52
145.508
145.498
145.491
145.488
145.488
145.492
145.575
145.567
145.557
145.546
145.533
145.521
145.509
145.499
145.492
145.489
145.489
145.493
145.576
145.567
145.558
145.547
145.534
145.522
145.51
145.5
145.493
145.49
145.49
145.494
145.577
145.568
145.558
145.547
145.535
145.523
145.511
145.501
145.494
145.491
145.491
145.494
145.578
145.569
145.559
145.548
145.535
145.523
145.511
145.502
145.495
145.491
145.492
145.495
145.578
145.57
145.56
145.549
145.536
145.524
145.512
145.502
145.495
145.492
145.492
145.496
145.579
145.57
145.56
145.549
145.537
145.525
145.513
145.503
145.496
145.493
145.493
145.496
145.579
145.571
145.561
145.55
145.538
145.525
145.513
145.504
145.497
145.493
145.494
145.497
145.58
145.571
145.561
145.551
145.538
145.526
145.514
145.504
145.498
145.494
145.494
145.497
145.58
145.572
145.562
145.551
145.539
145.527
145.515
145.505
145.498
145.495
145.495
145.498
145.581
145.572
145.563
145.552
145.539
145.527
145.515
145.506
145.499
145.495
145.495
145.499
145.581
145.573
145.563
145.552
145.54
145.528
145.516
145.506
145.499
145.496
145.496
145.499
145.582
145.573
145.563
145.552
145.54
145.528
145.516
145.507
145.5
145.497
145.496
145.5
145.582
145.574
145.564
145.553
145.541
145.529
145.517
145.508
145.501
145.497
145.497
145.5
145.583
145.574
145.564
145.553
145.541
145.529
145.518
145.508
145.501
145.498
145.497
145.501
145.583
145.574
145.565
145.554
145.542
145.53
145.518
145.509
145.502
145.498
145.498
145.501
145.583
145.575
145.565
145.555
145.542
145.53
145.519
145.509
145.503
145.499
145.499
145.502
145.584
145.575
145.566
145.555
145.543
145.531
145.52
145.51
145.504
145.5
145.5
145.502
145.584
145.576
145.566
145.556
145.544
145.532
145.52
145.511
145.504
145.501
145.5
145.503
145.585
145.576
145.567
145.556
145.544
145.532
145.521
145.512
145.505
145.502
145.501
145.504
145.586
145.577
145.568
145.557
145.545
145.533
145.522
145.513
145.506
145.502
145.502
145.505
145.586
145.578
145.568
145.558
145.546
145.534
145.523
145.514
145.507
145.503
145.503
145.505
145.587
145.578
145.569
145.558
145.547
145.535
145.524
145.515
145.508
145.504
145.504
145.506
145.588
145.579
145.57
145.559
145.548
145.536
145.525
145.516
145.509
145.506
145.505
145.507
145.589
145.58
145.571
145.56
145.549
145.537
145.526
145.517
145.511
145.507
145.506
145.509
145.59
145.581
145.572
145.561
145.55
145.538
145.528
145.519
145.512
145.508
145.508
145.51
145.591
145.582
145.573
145.563
145.551
145.54
145.529
145.52
145.514
145.51
145.509
145.511
145.592
145.583
145.574
145.564
145.552
145.541
145.531
145.522
145.515
145.512
145.511
145.513
145.593
145.585
145.576
145.565
145.554
145.543
145.532
145.524
145.517
145.514
145.513
145.515
145.595
145.586
145.577
145.567
145.556
145.545
145.534
145.525
145.519
145.515
145.514
145.516
145.596
145.588
145.579
145.569
145.558
145.546
145.536
145.528
145.521
145.518
145.517
145.518
145.598
145.59
145.581
145.57
145.559
145.548
145.538
145.53
145.524
145.52
145.519
145.521
145.6
145.592
145.583
145.573
145.561
145.551
145.54
145.532
145.526
145.522
145.521
145.523
145.602
145.594
145.585
145.575
145.564
145.553
145.543
145.535
145.529
145.525
145.524
145.526
145.604
145.596
145.587
145.577
145.566
145.556
145.545
145.537
145.531
145.528
145.527
145.529
145.607
145.598
145.589
145.58
145.569
145.558
145.548
145.54
145.534
145.531
145.53
145.531
145.609
145.601
145.592
145.582
145.572
145.561
145.551
145.543
145.537
145.534
145.533
145.535
145.612
145.604
145.595
145.585
145.575
145.564
145.554
145.547
145.541
145.538
145.536
145.538
145.615
145.607
145.598
145.588
145.578
145.567
145.558
145.55
145.544
145.541
145.54
145.542
145.618
145.61
145.601
145.591
145.581
145.571
145.561
145.554
145.548
145.545
145.544
145.546
145.621
145.613
145.604
145.595
145.584
145.574
145.565
145.558
145.552
145.549
145.548
145.55
145.625
145.616
145.608
145.598
145.588
145.578
145.569
145.562
145.556
145.553
145.552
145.554
145.628
145.62
145.611
145.602
145.592
145.582
145.573
145.566
145.561
145.558
145.557
145.558
145.632
145.624
145.615
145.606
145.596
145.586
145.577
145.57
145.565
145.562
145.561
145.563
145.636
145.628
145.619
145.61
145.6
145.59
145.582
145.575
145.57
145.567
145.566
145.568
145.64
145.632
145.623
145.614
145.604
145.595
145.586
145.579
145.575
145.572
145.571
145.573
145.644
145.636
145.627
145.618
145.608
145.599
145.591
145.584
145.58
145.577
145.576
145.578
145.648
145.64
145.632
145.622
145.613
145.604
145.596
145.589
145.584
145.582
145.581
145.583
145.653
145.644
145.636
145.627
145.617
145.608
145.6
145.594
145.59
145.587
145.586
145.588
145.657
145.649
145.64
145.631
145.622
145.613
145.605
145.599
145.595
145.592
145.592
145.594
145.661
145.653
145.644
145.635
145.626
145.618
145.61
145.604
145.6
145.597
145.597
145.599
145.666
145.657
145.649
145.64
145.631
145.622
145.615
145.609
145.605
145.603
145.603
145.605
145.67
145.661
145.653
145.644
145.635
145.627
145.619
145.613
145.609
145.608
145.608
145.61
145.674
145.665
145.656
145.647
145.639
145.631
145.623
145.618
145.614
145.612
145.613
145.615
145.677
145.669
145.66
145.651
145.643
145.634
145.627
145.622
145.618
145.617
145.617
145.62
145.68
145.671
145.663
145.654
145.645
145.638
145.631
145.625
145.622
145.621
145.621
145.624
145.683
145.674
145.665
145.656
145.648
145.64
145.633
145.628
145.625
145.623
145.625