/*--------------------------------*- C++ -*----------------------------------*\
| =========                 |                                                 |
| \\      /  F ield         | OpenFOAM: The Open Source CFD Toolbox           |
|  \\    /   O peration     | Version:  v1912                                 |
|   \\  /    A nd           | Website:  www.openfoam.com                      |
|    \\/     M anipulation  |                                                 |
\*---------------------------------------------------------------------------*/
FoamFile
{
    version     2.0;
    format      ascii;
    class       volScalarField;
    location    "8";
    object      T;
}
// * * * * * * * * * * * * * * * * * * * * * * * * * * * * * * * * * * * * * //

dimensions      [0 0 0 1 0 0 0];


internalField   nonuniform List<scalar> 
34128
(
372.159
372.157
372.136
372.121
372.121
372.132
372.144
372.148
372.139
372.125
372.129
372.14
370.468
370.461
370.397
370.351
370.353
370.386
370.42
370.435
370.406
370.364
370.376
370.411
368.754
368.737
368.626
368.549
368.555
368.615
368.671
368.694
368.646
368.576
368.595
368.654
367.016
366.985
366.821
366.712
366.729
366.817
366.895
366.925
366.858
366.76
366.786
366.87
365.257
365.205
364.981
364.843
364.876
364.997
365.093
365.13
365.045
364.918
364.949
365.059
363.483
363.401
363.114
362.947
363.004
363.16
363.273
363.314
363.211
363.058
363.092
363.228
361.703
361.586
361.233
361.041
361.126
361.319
361.446
361.49
361.372
361.194
361.228
361.388
359.937
359.781
359.363
359.149
359.268
359.499
359.635
359.679
359.551
359.352
359.382
359.562
358.212
358.015
357.535
357.304
357.461
357.73
357.871
357.913
357.778
357.563
357.584
357.778
356.556
356.318
355.783
355.541
355.739
356.042
356.183
356.223
356.087
355.86
355.868
356.07
354.993
354.718
354.135
353.887
354.128
354.463
354.6
354.636
354.504
354.269
354.26
354.463
353.537
353.232
352.612
352.364
352.644
353.006
353.135
353.168
353.046
352.807
352.778
352.977
352.19
351.862
351.22
350.974
351.288
351.669
351.788
351.821
351.715
351.472
351.421
351.613
350.941
350.6
349.951
349.714
350.051
350.441
350.547
350.582
350.499
350.253
350.179
350.364
349.786
349.443
348.803
348.579
348.927
349.315
349.408
349.446
349.388
349.142
349.048
349.225
348.727
348.393
347.778
347.572
347.918
348.292
348.371
348.414
348.383
348.139
348.028
348.196
347.768
347.452
346.878
346.693
347.024
347.374
347.44
347.487
347.482
347.244
347.121
347.28
346.911
346.621
346.1
345.939
346.242
346.559
346.614
346.664
346.682
346.454
346.325
346.474
346.157
345.898
345.439
345.303
345.57
345.846
345.892
345.944
345.981
345.768
345.638
345.776
345.503
345.279
344.888
344.776
345
345.233
345.272
345.325
345.374
345.179
345.054
345.181
344.946
344.76
344.436
344.347
344.526
344.715
344.749
344.801
344.857
344.684
344.569
344.683
344.483
344.332
344.073
344.004
344.14
344.287
344.317
344.366
344.424
344.275
344.173
344.275
344.104
343.987
343.787
343.736
343.832
343.941
343.969
344.014
344.069
343.945
343.858
343.946
343.804
343.716
343.567
343.53
343.593
343.67
343.696
343.735
343.784
343.684
343.613
343.688
343.57
343.508
343.401
343.374
343.412
343.464
343.487
343.52
343.562
343.484
343.428
343.49
343.395
343.352
343.279
343.26
343.279
343.312
343.332
343.36
343.393
343.334
343.292
343.342
343.267
343.239
343.191
343.177
343.184
343.204
343.221
343.243
343.268
343.225
343.195
343.234
343.176
343.16
343.129
343.119
343.118
343.13
343.143
343.16
343.179
343.149
343.128
343.158
343.113
343.105
343.086
343.079
343.075
343.081
343.091
343.104
343.117
343.097
343.083
343.104
343.072
343.068
343.058
343.052
343.046
343.049
343.057
343.066
343.075
343.062
343.053
343.069
343.045
343.044
343.039
343.034
343.028
343.029
343.035
343.041
343.047
343.04
343.034
343.045
343.028
343.029
343.026
343.022
343.018
343.018
343.022
343.026
343.03
343.025
343.022
343.029
343.018
343.02
343.018
343.015
343.011
343.011
343.014
343.016
343.019
343.017
343.015
343.019
343.012
343.014
343.013
343.01
343.007
343.007
343.009
343.01
343.012
343.011
343.011
343.013
343.008
343.01
343.01
343.007
343.005
343.004
343.006
343.007
343.008
343.008
343.008
343.009
343.006
343.007
343.007
343.005
343.003
343.003
343.004
343.004
343.005
343.006
343.006
343.007
343.004
343.006
343.005
343.003
343.002
343.002
343.002
343.003
343.003
343.004
343.005
343.005
343.003
343.004
343.004
343.002
343.001
343.001
343.001
343.002
343.002
343.003
343.003
343.004
343.002
343.003
343.003
343.001
343.001
343
343.001
343.001
343.001
343.002
343.003
343.003
343.001
343.002
343.002
343.001
343
343
343
343.001
343.001
343.001
343.002
343.002
343.001
343.002
343.001
343
343
343
343
343
343
343.001
343.001
343.001
343
343.001
343.001
343
343
343
343
343
343
343
343.001
343.001
343
343.001
343
343
343
343
343
343
343
343
343
343
343
343
343
343
343
343
343
343
343
343
343
343
343
343
343
343
343
343
343
343
343
343
343
343
343
343
343
343
343
343
343
343
343
343
343
343
343
343
343
343
343
343
343
343
343
343
343
343
343
343
343
343
343
343
343
343
343
343
343
343
343
343
343
343
343
343
343
343
343
343
343
343
343
343
343
343
343
343
343
343
343
343
343
343
343
343
343
343
343
343
343
343
343
343
343
343
343
343
343
343
343
343
343
343
343
343
343
343
343
343
343
343
343
343
343
343
343
343
343
343
343
343
343
343
343
343
343
343
343
343
343
343
343
343
343
343
343
343
343
343
343
343
343
343
343
343
343
343
343
343
343
343
343
343
343
343
343
343
343
343
343
343
343
343
343
343
343
343
343
343
343
343
343
343
343
343
343
343
343
343
343
343
343
343
343
343
343
343
343
343
343
343
343
343
343
343
343
343
343
343
343
343
343
343
343
343
343
343
343
343
343
343
343
343
343
343
343.001
343
343
343
343.001
343
343
343
343
343
343
343
343.001
343.001
343
343.001
343.001
343
343
343.001
343.001
343.001
343.001
343
343.001
343.001
343.001
343.001
343.001
343.001
343.001
343.001
343.001
343.001
343.001
343.001
343.001
343.001
343.001
343.001
343.001
343.001
343.001
343.001
343.001
343.001
343.001
343.001
343.001
343.001
343.001
343.001
343.001
343.001
343.001
343.001
343.001
343.001
343.001
343.001
343.001
343.001
343.001
343.001
343.001
343.001
343.001
343.001
343.001
343.001
343.001
343.001
343.001
343.001
343.001
343.001
343.001
343.001
343.001
343.001
343.001
343.001
343.001
343.001
343.001
343.001
343.001
343.001
343.001
343.001
343.001
343.001
343.001
343.001
343.001
343.001
343.001
343.001
343.001
343.001
343.001
343.001
343.001
343.001
343.001
343.001
343.001
343.001
343.001
343.001
343.001
343.001
343.001
343.001
343.001
343.001
343.001
343.001
343.001
343.001
343.001
343.001
343.001
343.001
343.001
343.001
343.001
343.001
343.001
343.001
343.001
343.001
343.001
343.001
343.001
343.001
343.001
343.001
343.001
343.001
343.001
343.001
343.001
343.001
343.001
343.001
343.001
343.001
343.001
343.001
343.001
343.001
343.001
343.001
343.001
343.001
343.001
343.001
343.001
343.001
343.001
343.001
343.001
343.001
343.001
343.001
343.001
343.001
343.001
343.001
343.001
343.001
343.001
343.001
343.001
343.001
343.001
343.001
343.001
343.001
343.001
343.001
343.001
343.001
343.001
343.001
343.001
343.001
343.001
343.001
343.001
343.001
343.001
343.001
343.001
343.001
343.001
343.001
343.001
343.001
343.001
343.001
343.001
343.001
343.001
343.001
343.001
343.001
343.001
343.001
343.001
343.001
343.001
343.001
343.001
343.001
372.153
372.147
372.121
372.105
372.109
372.123
372.133
372.138
372.128
372.113
372.117
372.13
370.448
370.43
370.352
370.304
370.317
370.358
370.39
370.402
370.372
370.328
370.34
370.379
368.719
368.685
368.551
368.472
368.496
368.567
368.619
368.64
368.59
368.515
368.535
368.6
366.968
366.912
366.718
366.607
366.648
366.751
366.823
366.85
366.781
366.677
366.702
366.794
365.194
365.112
364.853
364.712
364.774
364.912
365.001
365.034
364.947
364.814
364.843
364.962
363.404
363.289
362.963
362.793
362.881
363.057
363.161
363.198
363.096
362.937
362.965
363.109
361.607
361.455
361.061
360.865
360.984
361.199
361.315
361.355
361.242
361.058
361.081
361.248
359.821
359.63
359.169
358.951
359.107
359.359
359.484
359.526
359.407
359.203
359.215
359.401
358.071
357.841
357.318
357.083
357.278
357.568
357.696
357.739
357.621
357.4
357.396
357.595
356.384
356.117
355.539
355.293
355.531
355.855
355.981
356.026
355.914
355.68
355.655
355.861
354.784
354.485
353.863
353.612
353.892
354.245
354.365
354.412
354.314
354.069
354.02
354.227
353.289
352.964
352.312
352.062
352.38
352.756
352.866
352.915
352.836
352.583
352.508
352.712
351.901
351.561
350.895
350.653
350.998
351.385
351.483
351.536
351.484
351.223
351.122
351.322
350.615
350.272
349.611
349.382
349.739
350.124
350.21
350.27
350.247
349.981
349.857
350.052
349.43
349.096
348.46
348.249
348.602
348.972
349.046
349.112
349.12
348.853
348.709
348.899
348.353
348.038
347.444
347.256
347.589
347.931
347.994
348.067
348.103
347.839
347.683
347.867
347.387
347.099
346.563
346.4
346.7
347.003
347.058
347.135
347.196
346.941
346.779
346.956
346.533
346.28
345.811
345.676
345.931
346.188
346.238
346.318
346.396
346.156
345.996
346.164
345.793
345.578
345.183
345.075
345.278
345.486
345.532
345.613
345.701
345.481
345.33
345.488
345.162
344.988
344.667
344.582
344.733
344.892
344.937
345.015
345.107
344.912
344.776
344.921
344.637
344.501
344.251
344.187
344.287
344.402
344.446
344.521
344.609
344.442
344.324
344.455
344.209
344.109
343.922
343.875
343.932
344.009
344.052
344.12
344.2
344.062
343.964
344.08
343.87
343.801
343.668
343.633
343.656
343.703
343.745
343.804
343.873
343.763
343.685
343.785
343.609
343.565
343.475
343.449
343.448
343.473
343.512
343.562
343.618
343.534
343.475
343.559
343.413
343.39
343.332
343.312
343.296
343.307
343.341
343.382
343.425
343.363
343.321
343.389
343.272
343.263
343.228
343.212
343.19
343.192
343.22
343.252
343.284
343.241
343.212
343.266
343.174
343.173
343.154
343.141
343.118
343.116
343.138
343.162
343.185
343.156
343.137
343.178
343.108
343.113
343.103
343.092
343.071
343.068
343.084
343.101
343.117
343.098
343.087
343.117
343.066
343.072
343.068
343.059
343.042
343.039
343.05
343.062
343.072
343.061
343.055
343.076
343.04
343.046
343.045
343.038
343.025
343.022
343.03
343.038
343.044
343.038
343.035
343.049
343.024
343.03
343.03
343.024
343.015
343.013
343.018
343.023
343.027
343.024
343.023
343.031
343.015
343.02
343.02
343.016
343.01
343.008
343.011
343.014
343.016
343.016
343.016
343.021
343.01
343.014
343.014
343.01
343.006
343.005
343.007
343.009
343.01
343.011
343.012
343.014
343.007
343.01
343.01
343.007
343.004
343.004
343.005
343.006
343.007
343.008
343.009
343.01
343.006
343.008
343.007
343.005
343.003
343.003
343.004
343.004
343.005
343.006
343.007
343.007
343.004
343.006
343.005
343.003
343.002
343.002
343.003
343.003
343.003
343.004
343.006
343.005
343.003
343.004
343.004
343.002
343.001
343.001
343.002
343.002
343.002
343.003
343.005
343.004
343.002
343.003
343.003
343.001
343.001
343.001
343.001
343.001
343.002
343.002
343.004
343.003
343.002
343.002
343.002
343.001
343
343
343.001
343.001
343.001
343.002
343.003
343.002
343.001
343.002
343.001
343
343
343
343
343
343.001
343.001
343.002
343.001
343.001
343.001
343.001
343
343
343
343
343
343
343.001
343.002
343.001
343
343.001
343
343
342.999
342.999
343
343
343
343
343.001
343
343
343
343
343
342.999
342.999
343
343
343
343
343.001
343
343
343
343
343
342.999
342.999
343
343
343
343
343
343
343
343
343
343
343
342.999
343
343
343
343
343
343
343
343
343
343
343
343
343
343
343
343
343
343
343
343
343
343
343
343
343
343
343
343
343
343
343
343
343
343
343
343
343
343
343
343
343
343
343
343
343
343
343
343
343
343
343
343
343
343
343
343
343
343
343
343
343
343
343
343
343
343
343
343
343
343
343
343
343
343
343
343
343
343
343
343
343
343
343
343
343
343
343
343
343
343
343
343
343
343
343
343
343
343
343
343
343
343
343
343
343
343
343
343
343
343
343
343
343
343
343
343
343
343
343
343
343
343
343
343
343
343
343
343
343
343
343
343
343
343
343
343
343
343
343
343
343
343
343
343
343
343
343
343
343
343
343
343
343
343
343
343
343
343
343
343
343
343
343
343
343
343
343
343
343
343
343
343
343
343
343
343
343
343
343
343
343
343
343
343
343
343
343
343
343
343
343
343
343
343
343
343
343
343
343
343
343
343
343
343
343
343
343
343
343
343
343
343
343
343
343
343
343
343
343
343
343
343
343
343
343
343
343
343
343
343
343
343
343
343
343.001
343.001
343
343
343
343
343
343.001
343.001
343
343
343
343.001
343.001
343.001
343.001
343.001
343.001
343.001
343.001
343.001
343.001
343.001
343.001
343.001
343.001
343.001
343.001
343.001
343.001
343.001
343.001
343.001
343.001
343.001
343.001
343.001
343.001
343.001
343.001
343.001
343.001
343.001
343.001
343.001
343.001
343.001
343.001
343.001
343.001
343.001
343.001
343.001
343.001
343.001
343.001
343.001
343.001
343.001
343.001
343.001
343.001
343.001
343.001
343.001
343.001
343.001
343.001
343.001
343.001
343.001
343.001
343.001
343.001
343.001
343.001
343.001
343.001
343.001
343.001
343.001
343.001
343.001
343.001
343.001
343.001
343.001
343.001
343.001
343.001
343.001
343.001
343.001
343.001
343.001
343.001
343.001
343.001
343.001
343.001
343.001
343.001
343.001
343.001
343.001
343.001
343.001
343.001
343.001
343.001
343.001
343.001
343.001
343.001
343.001
343.001
343.001
343.001
343.001
343.001
343.001
343.001
343.001
343.001
343.001
343.001
343.001
343.001
343.001
343.001
343.001
343.001
343.001
343.001
343.001
343.001
343.001
343.001
343.001
343.001
343.001
343.001
343.001
343.001
343.001
343.001
343.001
343.001
343.001
343.001
343.001
343.001
343.001
343.001
343.001
343.001
343.001
343.001
343.001
343.001
343.001
343.001
343.001
343.001
343.001
343.001
343.001
343.001
343.001
343.001
343.001
343.001
343.001
343.001
343.001
343.001
343.001
343.001
343.001
343.001
372.149
372.143
372.118
372.102
372.106
372.12
372.13
372.134
372.124
372.11
372.114
372.126
370.438
370.419
370.342
370.295
370.308
370.349
370.38
370.392
370.362
370.319
370.331
370.368
368.703
368.667
368.534
368.455
368.481
368.552
368.604
368.623
368.573
368.501
368.519
368.582
366.943
366.886
366.693
366.583
366.625
366.73
366.8
366.826
366.758
366.657
366.68
366.768
365.162
365.077
364.819
364.68
364.744
364.884
364.973
365.004
364.919
364.789
364.815
364.928
363.363
363.246
362.92
362.752
362.844
363.022
363.126
363.162
363.063
362.907
362.93
363.068
361.557
361.404
361.009
360.815
360.94
361.157
361.273
361.312
361.204
361.025
361.041
361.201
359.763
359.572
359.111
358.895
359.056
359.312
359.435
359.478
359.366
359.165
359.171
359.349
358.006
357.777
357.255
357.023
357.223
357.515
357.642
357.687
357.577
357.36
357.348
357.54
356.314
356.05
355.477
355.234
355.475
355.798
355.922
355.97
355.869
355.638
355.606
355.805
354.712
354.418
353.805
353.559
353.837
354.185
354.303
354.354
354.268
354.025
353.971
354.174
353.216
352.9
352.262
352.02
352.33
352.694
352.802
352.856
352.791
352.539
352.461
352.664
351.83
351.502
350.857
350.625
350.954
351.322
351.419
351.478
351.439
351.18
351.079
351.28
350.548
350.22
349.587
349.369
349.701
350.061
350.148
350.214
350.203
349.94
349.82
350.018
349.37
349.053
348.449
348.251
348.571
348.91
348.988
349.06
349.077
348.814
348.679
348.874
348.301
348.004
347.445
347.271
347.565
347.873
347.944
348.021
348.061
347.805
347.662
347.851
347.344
347.075
346.574
346.425
346.681
346.95
347.016
347.097
347.157
346.912
346.767
346.949
346.501
346.265
345.831
345.706
345.917
346.143
346.205
346.289
346.361
346.134
345.993
346.166
345.771
345.572
345.207
345.105
345.268
345.45
345.51
345.593
345.672
345.466
345.335
345.498
345.15
344.99
344.693
344.611
344.727
344.867
344.926
345.005
345.085
344.904
344.788
344.937
344.633
344.51
344.278
344.212
344.286
344.389
344.445
344.518
344.594
344.441
344.341
344.475
344.213
344.123
343.947
343.894
343.934
344.007
344.059
344.125
344.193
344.067
343.984
344.102
343.879
343.818
343.69
343.647
343.662
343.711
343.757
343.814
343.872
343.772
343.707
343.807
343.622
343.584
343.494
343.459
343.457
343.488
343.527
343.575
343.623
343.546
343.496
343.579
343.429
343.408
343.347
343.318
343.307
343.327
343.358
343.396
343.434
343.377
343.34
343.407
343.288
343.279
343.239
343.216
343.202
343.213
343.237
343.267
343.295
343.254
343.229
343.279
343.19
343.188
343.162
343.144
343.13
343.136
343.154
343.175
343.196
343.168
343.151
343.188
343.122
343.124
343.108
343.094
343.082
343.086
343.098
343.113
343.128
343.109
343.098
343.124
343.078
343.081
343.072
343.06
343.051
343.054
343.061
343.072
343.082
343.07
343.063
343.08
343.049
343.053
343.047
343.039
343.032
343.034
343.039
343.045
343.052
343.045
343.041
343.051
343.032
343.035
343.031
343.025
343.02
343.021
343.024
343.029
343.033
343.029
343.027
343.033
343.02
343.023
343.021
343.016
343.013
343.014
343.016
343.019
343.021
343.019
343.018
343.021
343.014
343.016
343.014
343.011
343.009
343.009
343.011
343.012
343.014
343.013
343.013
343.014
343.009
343.011
343.01
343.007
343.006
343.006
343.007
343.008
343.009
343.009
343.009
343.01
343.006
343.008
343.008
343.005
343.004
343.004
343.005
343.006
343.006
343.007
343.007
343.007
343.005
343.006
343.006
343.004
343.002
343.002
343.004
343.004
343.004
343.005
343.006
343.005
343.003
343.005
343.005
343.002
343.001
343.001
343.002
343.002
343.003
343.004
343.005
343.004
343.002
343.004
343.004
343.002
343
343.001
343.001
343.001
343.002
343.003
343.004
343.003
343.002
343.003
343.003
343.001
343
343
343.001
343.001
343.001
343.002
343.003
343.002
343.001
343.002
343.002
343
343
343
343
343
343.001
343.002
343.002
343.001
343.001
343.002
343.002
343
342.999
342.999
343
343
343
343.001
343.002
343.001
343
343.001
343.001
343
342.999
342.999
343
343
343
343.001
343.001
343
343
343.001
343.001
343
342.999
342.999
343
343
343
343
343.001
343
343
343.001
343
343
342.999
342.999
343
343
343
343
343
343
343
343
343
343
343
343
343
343
343
343
343
343
343
343
343
343
343
343
343
343
343
343
343
343
343
343
343
343
343
343
343
343
343
343
343
343
343
343
343
343
343
343
343
343
343
343
343
343
343
343
343
343
343
343
343
343
343
343
343
343
343
343
343
343
343
343
343
343
343
343
343
343
343
343
343
343
343
343
343
343
343
343
343
343
343
343
343
343
343
343
343
343
343
343
343
343
343
343
343
343
343
343
343
343
343
343
343
343
343
343
343
343
343
343
343
343
343
343
343
343
343
343
343
343
343
343
343
343
343
343
343
343
343
343
343
343
343
343
343
343
343
343
343
343
343
343
343
343
343
343
343
343
343
343
343
343
343
343
343
343
343
343
343
343
343
343
343
343
343
343
343
343
343
343
343
343
343
343
343
343
343
343
343
343
343
343
343
343
343
343
343
343
343
343
343
343
343
343
343
343
343
343
343
343
343
343
343
343
343
343
343
343
343
343
343
343
343
343
343
343
343
343
343
343
343
343
343
343
343
343
343
343
343
343
343
343
343
343
343
343
343.001
343.001
343.001
343.001
343.001
343.001
343.001
343.001
343.001
343
343
343
343.001
343.001
343.001
343.001
343.001
343.001
343.001
343.001
343.001
343.001
343.001
343.001
343.001
343.001
343.001
343.001
343.001
343.001
343.001
343.001
343.001
343.001
343.001
343.001
343.001
343.001
343.001
343.001
343.001
343.001
343.001
343.001
343.001
343.001
343.001
343.001
343.001
343.001
343.001
343.001
343.001
343.001
343.001
343.001
343.001
343.001
343.001
343.001
343.001
343.001
343.001
343.001
343.001
343.001
343.001
343.001
343.001
343.001
343.001
343.001
343.001
343.001
343.001
343.001
343.001
343.001
343.001
343.001
343.001
343.001
343.001
343.001
343.001
343.001
343.001
343.001
343.001
343.001
343.001
343.001
343.001
343.001
343.001
343.001
343.001
343.001
343.001
343.001
343.001
343.001
343.001
343.001
343.001
343.001
343.001
343.001
343.001
343.001
343.001
343.001
343.001
343.001
343.001
343.001
343.001
343.001
343.001
343.001
343.001
343.001
343.001
343.001
343.001
343.001
343.001
343.001
343.001
343.001
343.001
343.001
343.001
343.001
343.001
343.001
343.001
343.001
343.001
343.001
343.001
343.001
343.001
343.001
343.001
343.001
343.001
343.001
343.001
343.001
343.001
343.001
343.001
343.001
343.001
343.001
343.001
343.001
343.001
343.001
343.001
343.001
343.001
343.001
343.001
343.001
343.001
343.001
343.001
343.001
343.001
343.001
343.001
343.001
343.001
343.001
343.001
343.001
343.001
343.001
372.142
372.132
372.103
372.087
372.094
372.111
372.12
372.124
372.113
372.098
372.102
372.115
370.417
370.386
370.296
370.248
370.272
370.321
370.35
370.36
370.329
370.284
370.295
370.335
368.667
368.612
368.458
368.378
368.422
368.506
368.553
368.569
368.519
368.443
368.46
368.527
366.892
366.809
366.588
366.477
366.544
366.664
366.729
366.751
366.682
366.576
366.597
366.691
365.094
364.979
364.688
364.548
364.642
364.8
364.88
364.907
364.823
364.689
364.71
364.829
363.279
363.128
362.765
362.598
362.723
362.92
363.013
363.044
362.949
362.79
362.805
362.948
361.454
361.266
360.834
360.641
360.801
361.036
361.139
361.175
361.075
360.892
360.896
361.061
359.639
359.413
358.915
358.702
358.899
359.171
359.278
359.32
359.222
359.019
359.006
359.188
357.855
357.596
357.039
356.81
357.046
357.35
357.459
357.507
357.419
357.198
357.163
357.358
356.132
355.842
355.238
354.999
355.274
355.605
355.71
355.765
355.695
355.458
355.397
355.601
354.492
354.179
353.541
353.301
353.61
353.961
354.057
354.121
354.075
353.824
353.735
353.943
352.957
352.628
351.973
351.74
352.074
352.434
352.521
352.593
352.576
352.313
352.197
352.406
351.532
351.199
350.547
350.326
350.671
351.026
351.104
351.185
351.201
350.929
350.787
350.998
350.215
349.891
349.263
349.061
349.396
349.733
349.802
349.894
349.944
349.667
349.505
349.716
349.011
348.708
348.122
347.943
348.251
348.557
348.621
348.722
348.801
348.525
348.351
348.56
347.925
347.652
347.126
346.973
347.239
347.502
347.564
347.673
347.776
347.507
347.328
347.535
346.963
346.728
346.273
346.145
346.358
346.573
346.635
346.748
346.867
346.613
346.438
346.639
346.126
345.933
345.554
345.452
345.606
345.771
345.833
345.947
346.074
345.841
345.678
345.87
345.412
345.262
344.961
344.88
344.976
345.093
345.157
345.268
345.394
345.188
345.042
345.223
344.817
344.709
344.48
344.416
344.461
344.535
344.6
344.704
344.822
344.647
344.522
344.688
344.332
344.262
344.098
344.048
344.05
344.09
344.152
344.247
344.353
344.209
344.108
344.255
343.949
343.911
343.8
343.759
343.732
343.746
343.804
343.887
343.977
343.864
343.785
343.913
343.655
343.642
343.572
343.538
343.493
343.491
343.542
343.612
343.685
343.6
343.542
343.648
343.437
343.442
343.401
343.372
343.321
343.309
343.352
343.408
343.465
343.404
343.363
343.449
343.281
343.296
343.276
343.251
343.201
343.185
343.219
343.263
343.305
343.264
343.237
343.303
343.174
343.194
343.186
343.165
343.121
343.106
343.131
343.163
343.193
343.167
343.15
343.199
343.104
343.124
343.123
343.106
343.07
343.057
343.075
343.098
343.117
343.102
343.093
343.127
343.06
343.078
343.08
343.066
343.04
343.029
343.042
343.057
343.069
343.061
343.057
343.079
343.034
343.049
343.051
343.041
343.022
343.015
343.023
343.032
343.04
343.036
343.035
343.048
343.019
343.03
343.033
343.025
343.013
343.008
343.013
343.018
343.023
343.022
343.022
343.029
343.011
343.02
343.022
343.016
343.008
343.005
343.008
343.011
343.013
343.014
343.015
343.018
343.007
343.013
343.015
343.011
343.005
343.003
343.006
343.007
343.008
343.01
343.011
343.012
343.006
343.01
343.011
343.007
343.004
343.003
343.004
343.005
343.006
343.008
343.009
343.009
343.005
343.007
343.008
343.005
343.002
343.002
343.003
343.003
343.004
343.006
343.008
343.007
343.004
343.006
343.007
343.004
343.002
343.002
343.003
343.002
343.003
343.005
343.007
343.006
343.003
343.005
343.005
343.003
343.001
343.001
343.002
343.002
343.002
343.005
343.006
343.005
343.003
343.004
343.004
343.002
343
343.001
343.001
343.001
343.002
343.004
343.006
343.004
343.002
343.003
343.003
343.001
343
343
343
343
343.001
343.003
343.005
343.003
343.001
343.002
343.002
343
343
343
343
343
343.001
343.002
343.004
343.002
343.001
343.001
343.001
343
342.999
342.999
343
343
343
343.002
343.003
343.001
343.001
343.001
343.001
343
342.999
342.999
343
343
343
343.001
343.002
343.001
343
343
343
342.999
342.999
342.999
342.999
343
343
343
343.001
343
343
343
343
342.999
342.999
342.999
342.999
343
343
343
343.001
343
343
343
343
342.999
342.999
342.999
342.999
343
343
343
343
343
343
343
343
342.999
343
342.999
343
343
343
343
343
343
343
343
343
343
343
343
343
343
343
343
343
343
343
343
343
343
343
343
343
343
343
343
343
343
343
343
343
343
343
343
343
343
343
343
343
343
343
343
343
343
343
343
343
343
343
343
343
343
343
343
343
343
343
343
343
343
343
343
343
343
343
343
343
343
343
343
343
343
343
343
343
343
343
343
343
343
343
343
343
343
343
343
343
343
343
343
343
343
343
343
343
343
343
343
343
343
343
343
343
343
343
343
343
343
343
343
343
343
343
343
343
343
343
343
343
343
343
343
343
343
343
343
343
343
343
343
343
343
343
343
343
343
343
343
343
343
343
343
343
343
343
343
343
343
343
343
343
343
343
343
343
343
343
343
343
343
343
343
343
343
343
343
343
343
343
343
343
343
343
343
343
343
343
343
343
343
343
343
343
343
343
343
343
343
343
343
343
343
343
343
343
343
343
343
343
343
343
343
343
343
343
343
343
343
343
343
343
343
343
343
343
343
343
343
343
343
343
343
343
343
343
343
343
343
343
343
343
343
343
343
343
343
343
343
343
343
343
343
343
343
343
343.001
343
343
343
343
343
343
343
343
343
343
343.001
343.001
343.001
343.001
343.001
343
343
343.001
343.001
343.001
343
343.001
343.001
343.001
343.001
343.001
343.001
343.001
343.001
343.001
343.001
343.001
343.001
343.001
343.001
343.001
343.001
343.001
343.001
343.001
343.001
343.001
343.001
343.001
343.001
343.001
343.001
343.001
343.001
343.001
343.001
343.001
343.001
343.001
343.001
343.001
343.001
343.001
343.001
343.001
343.001
343.001
343.001
343.001
343.001
343.001
343.001
343.001
343.001
343.001
343.001
343.001
343.001
343.001
343.001
343.001
343.001
343.001
343.001
343.001
343.001
343.001
343.001
343.001
343.001
343.001
343.001
343.001
343.001
343.001
343.001
343.001
343.001
343.001
343.001
343.001
343.001
343.001
343.001
343.001
343.001
343.001
343.001
343.001
343.001
343.001
343.001
343.001
343.001
343.001
343.001
343.001
343.001
343.001
343.001
343.001
343.001
343.001
343.001
343.001
343.001
343.001
343.001
343.001
343.001
343.001
343.001
343.001
343.001
343.001
343.001
343.001
343.001
343.001
343.001
343.001
343.001
343.001
343.001
343.001
343.001
343.001
343.001
343.001
343.001
343.001
343.001
343.001
343.001
343.001
343.001
343.001
343.001
343.001
343.001
343.001
343.001
343.001
343.001
343.001
343.001
343.001
343.001
343.001
343.001
343.001
372.135
372.125
372.095
372.08
372.088
372.104
372.114
372.117
372.107
372.092
372.095
372.108
370.395
370.363
370.274
370.228
370.253
370.302
370.33
370.339
370.309
370.265
370.274
370.312
368.629
368.573
368.421
368.345
368.39
368.473
368.518
368.533
368.485
368.412
368.425
368.489
366.838
366.754
366.536
366.43
366.498
366.617
366.68
366.7
366.635
366.534
366.549
366.637
365.023
364.907
364.62
364.485
364.581
364.738
364.816
364.842
364.764
364.636
364.649
364.76
363.189
363.039
362.682
362.519
362.647
362.842
362.933
362.965
362.879
362.726
362.731
362.865
361.346
361.161
360.735
360.547
360.71
360.943
361.044
361.083
360.995
360.819
360.812
360.965
359.514
359.295
358.805
358.596
358.795
359.064
359.17
359.216
359.135
358.938
358.912
359.083
357.717
357.467
356.922
356.697
356.934
357.232
357.339
357.394
357.327
357.11
357.062
357.247
355.983
355.709
355.121
354.889
355.158
355.478
355.581
355.646
355.6
355.366
355.293
355.488
354.34
354.047
353.433
353.202
353.495
353.827
353.924
353.999
353.979
353.73
353.632
353.835
352.806
352.503
351.883
351.662
351.966
352.297
352.387
352.472
352.481
352.219
352.098
352.307
351.388
351.087
350.479
350.275
350.573
350.888
350.973
351.068
351.107
350.838
350.698
350.912
350.083
349.795
349.221
349.037
349.311
349.597
349.679
349.784
349.852
349.581
349.429
349.646
348.894
348.629
348.106
347.945
348.179
348.427
348.509
348.622
348.712
348.447
348.291
348.508
347.827
347.594
347.133
346.997
347.181
347.383
347.467
347.585
347.691
347.439
347.286
347.501
346.885
346.689
346.299
346.185
346.313
346.468
346.556
346.676
346.789
346.558
346.414
346.623
346.07
345.914
345.595
345.5
345.574
345.685
345.774
345.893
346.006
345.8
345.672
345.871
345.377
345.261
345.01
344.93
344.957
345.03
345.119
345.232
345.338
345.162
345.052
345.237
344.801
344.722
344.532
344.464
344.453
344.496
344.581
344.685
344.781
344.635
344.545
344.712
344.334
344.287
344.149
344.089
344.053
344.075
344.152
344.244
344.326
344.211
344.14
344.286
343.964
343.944
343.846
343.792
343.743
343.752
343.819
343.897
343.965
343.876
343.824
343.946
343.681
343.678
343.611
343.563
343.512
343.514
343.568
343.631
343.685
343.62
343.582
343.681
343.469
343.478
343.432
343.39
343.343
343.343
343.384
343.433
343.474
343.429
343.403
343.479
343.316
343.33
343.299
343.263
343.226
343.225
343.255
343.291
343.321
343.29
343.273
343.329
343.209
343.223
343.203
343.173
343.146
343.146
343.166
343.191
343.212
343.192
343.181
343.22
343.136
343.148
343.135
343.112
343.093
343.094
343.107
343.124
343.138
343.126
343.118
343.144
343.088
343.097
343.088
343.071
343.059
343.061
343.069
343.079
343.089
343.081
343.077
343.092
343.057
343.063
343.057
343.045
343.038
343.04
343.044
343.051
343.057
343.053
343.05
343.059
343.037
343.041
343.037
343.028
343.025
343.027
343.029
343.033
343.037
343.035
343.033
343.037
343.025
343.027
343.025
343.019
343.016
343.018
343.02
343.022
343.024
343.023
343.022
343.024
343.017
343.018
343.017
343.012
343.011
343.012
343.014
343.014
343.017
343.016
343.016
343.016
343.012
343.013
343.012
343.009
343.007
343.008
343.009
343.01
343.012
343.012
343.012
343.011
343.008
343.009
343.009
343.006
343.005
343.005
343.007
343.007
343.008
343.009
343.01
343.008
343.006
343.007
343.007
343.004
343.003
343.003
343.004
343.004
343.006
343.007
343.008
343.006
343.004
343.005
343.006
343.003
343.001
343.002
343.003
343.003
343.004
343.006
343.007
343.005
343.003
343.004
343.004
343.002
343.001
343.001
343.002
343.002
343.003