-0.0075 	373
-0.00715932 	359.985
-0.00676191 	357.952
-0.00629832 	357.145
-0.00575752 	356.652
-0.00512667 	356.267
-0.00439077 	355.926
-0.00353231 	355.6
-0.00253089 	355.268
-0.00136271 	354.914
0 	354.524
0.00136271 	354.099
0.00253089 	353.655
0.00353231 	353.202
0.00439077 	352.723
0.00512667 	352.183
0.00575752 	351.5
0.00629832 	350.491
0.00676191 	348.317
0.00715932 	337.438
0.0075 	313
