-0.0075 	0 	0 	0
-0.0075 	-6.61287e-36 	-1.72131e-36 	1.85069e-31
-0.00745622 	-5.43206e-07 	-1.41395e-07 	0.0152023
-0.00745622 	-5.43206e-07 	-1.41395e-07 	0.0152023
-0.00741165 	-6.9718e-07 	-6.06751e-07 	0.0296065
-0.00741165 	-6.9718e-07 	-6.06751e-07 	0.0296065
-0.00736628 	-7.87328e-07 	-1.43971e-06 	0.0433099
-0.00736628 	-7.87328e-07 	-1.43971e-06 	0.0433099
-0.0073201 	-9.50683e-07 	-2.67385e-06 	0.056336
-0.0073201 	-9.50683e-07 	-2.67385e-06 	0.056336
-0.00727309 	-1.16157e-06 	-4.30297e-06 	0.0687091
-0.00727309 	-1.16157e-06 	-4.30297e-06 	0.0687091
-0.00722524 	-1.38335e-06 	-6.33938e-06 	0.0804506
-0.00722524 	-1.38335e-06 	-6.33938e-06 	0.0804506
-0.00717653 	-1.60365e-06 	-8.7921e-06 	0.0915703
-0.00717653 	-1.60365e-06 	-8.7921e-06 	0.0915703
-0.00712695 	-1.81842e-06 	-1.16796e-05 	0.102056
-0.00712695 	-1.81842e-06 	-1.16796e-05 	0.102056
-0.00707647 	-2.02574e-06 	-1.50367e-05 	0.111879
-0.00707647 	-2.02574e-06 	-1.50367e-05 	0.111879
-0.0070251 	-2.22344e-06 	-1.89188e-05 	0.121013
-0.0070251 	-2.22344e-06 	-1.89188e-05 	0.121013
-0.0069728 	-2.40876e-06 	-2.33967e-05 	0.12945
-0.0069728 	-2.40876e-06 	-2.33967e-05 	0.12945
-0.00691956 	-2.57875e-06 	-2.85431e-05 	0.137208
-0.00691956 	-2.57875e-06 	-2.85431e-05 	0.137208
-0.00686537 	-2.73081e-06 	-3.44236e-05 	0.144327
-0.00686537 	-2.73081e-06 	-3.44236e-05 	0.144327
-0.00681021 	-2.86299e-06 	-4.11037e-05 	0.15086
-0.00681021 	-2.86299e-06 	-4.11037e-05 	0.15086
-0.00675406 	-2.97403e-06 	-4.86538e-05 	0.156871
-0.00675406 	-2.97403e-06 	-4.86538e-05 	0.156871
-0.0066969 	-3.06302e-06 	-5.71385e-05 	0.162413
-0.0066969 	-3.06302e-06 	-5.71385e-05 	0.162413
-0.00663871 	-3.12958e-06 	-6.66022e-05 	0.167531
-0.00663871 	-3.12958e-06 	-6.66022e-05 	0.167531
-0.00657949 	-3.17419e-06 	-7.70496e-05 	0.172268
-0.00657949 	-3.17419e-06 	-7.70496e-05 	0.172268
-0.0065192 	-3.19797e-06 	-8.84474e-05 	0.176664
-0.0065192 	-3.19797e-06 	-8.84474e-05 	0.176664
-0.00645783 	-3.2023e-06 	-0.000100746 	0.180762
-0.00645783 	-3.2023e-06 	-0.000100746 	0.180762
-0.00639535 	-3.18849e-06 	-0.000113893 	0.184601
-0.00639535 	-3.18849e-06 	-0.000113893 	0.184601
-0.00633176 	-3.15775e-06 	-0.000127837 	0.188213
-0.00633176 	-3.15775e-06 	-0.000127837 	0.188213
-0.00626703 	-3.11122e-06 	-0.000142522 	0.191625
-0.00626703 	-3.11122e-06 	-0.000142522 	0.191625
-0.00620114 	-3.05004e-06 	-0.000157892 	0.19486
-0.00620114 	-3.05004e-06 	-0.000157892 	0.19486
-0.00613406 	-2.97533e-06 	-0.000173888 	0.197939
-0.00613406 	-2.97533e-06 	-0.000173888 	0.197939
-0.00606579 	-2.88825e-06 	-0.000190449 	0.20088
-0.00606579 	-2.88825e-06 	-0.000190449 	0.20088
-0.00599629 	-2.78996e-06 	-0.000207508 	0.203699
-0.00599629 	-2.78996e-06 	-0.000207508 	0.203699
-0.00592554 	-2.68149e-06 	-0.000224997 	0.206412
-0.00592554 	-2.68149e-06 	-0.000224997 	0.206412
-0.00585352 	-2.56352e-06 	-0.000242839 	0.209035
-0.00585352 	-2.56352e-06 	-0.000242839 	0.209035
-0.00578022 	-2.43638e-06 	-0.000260943 	0.211578
-0.00578022 	-2.43638e-06 	-0.000260943 	0.211578
-0.00570559 	-2.30036e-06 	-0.000279212 	0.214051
-0.00570559 	-2.30036e-06 	-0.000279212 	0.214051
-0.00562963 	-2.15565e-06 	-0.000297548 	0.216463
-0.00562963 	-2.15565e-06 	-0.000297548 	0.216463
-0.00555231 	-2.00244e-06 	-0.000315849 	0.21882
-0.00555231 	-2.00244e-06 	-0.000315849 	0.21882
-0.0054736 	-1.84079e-06 	-0.000334015 	0.221128
-0.0054736 	-1.84079e-06 	-0.000334015 	0.221128
-0.00539348 	-1.67071e-06 	-0.000351942 	0.223392
-0.00539348 	-1.67071e-06 	-0.000351942 	0.223392
-0.00531193 	-1.49209e-06 	-0.000369526 	0.225616
-0.00531193 	-1.49209e-06 	-0.000369526 	0.225616
-0.00522891 	-1.30476e-06 	-0.000386665 	0.227802
-0.00522891 	-1.30476e-06 	-0.000386665 	0.227802
-0.0051444 	-1.10846e-06 	-0.000403259 	0.229952
-0.0051444 	-1.10846e-06 	-0.000403259 	0.229952
-0.00505838 	-9.02845e-07 	-0.000419211 	0.232068
-0.00505838 	-9.02845e-07 	-0.000419211 	0.232068
-0.00497081 	-6.87475e-07 	-0.000434431 	0.23415
-0.00497081 	-6.87475e-07 	-0.000434431 	0.23415
-0.00488168 	-4.61814e-07 	-0.000448832 	0.236199
-0.00488168 	-4.61814e-07 	-0.000448832 	0.236199
-0.00479094 	-2.2526e-07 	-0.000462332 	0.238214
-0.00479094 	-2.2526e-07 	-0.000462332 	0.238214
-0.00469858 	2.28431e-08 	-0.000474853 	0.240192
-0.00469858 	2.28431e-08 	-0.000474853 	0.240192
-0.00460456 	2.83223e-07 	-0.000486322 	0.242134
-0.00460456 	2.83223e-07 	-0.000486322 	0.242134
-0.00450886 	5.56724e-07 	-0.000496692 	0.244036
-0.00450886 	5.56724e-07 	-0.000496692 	0.244036
-0.00441144 	8.44361e-07 	-0.000505942 	0.245898
-0.00441144 	8.44361e-07 	-0.000505942 	0.245898
-0.00431227 	1.14735e-06 	-0.000514087 	0.247718
-0.00431227 	1.14735e-06 	-0.000514087 	0.247718
-0.00421133 	1.46711e-06 	-0.000521174 	0.249493
-0.00421133 	1.46711e-06 	-0.000521174 	0.249493
-0.00410857 	1.80489e-06 	-0.000527267 	0.251221
-0.00410857 	1.80489e-06 	-0.000527267 	0.251221
-0.00400397 	2.16131e-06 	-0.000532449 	0.252901
-0.00400397 	2.16131e-06 	-0.000532449 	0.252901
-0.0038975 	2.53639e-06 	-0.000536811 	0.254531
-0.0038975 	2.53639e-06 	-0.000536811 	0.254531
-0.00378912 	2.93041e-06 	-0.000540435 	0.256115
-0.00378912 	2.93041e-06 	-0.000540435 	0.256115
-0.00367879 	3.34443e-06 	-0.000543391 	0.257655
-0.00367879 	3.34443e-06 	-0.000543391 	0.257655
-0.00356649 	3.77971e-06 	-0.000545735 	0.259151
-0.00356649 	3.77971e-06 	-0.000545735 	0.259151
-0.00345217 	4.23673e-06 	-0.000547524 	0.2606
-0.00345217 	4.23673e-06 	-0.000547524 	0.2606
-0.0033358 	4.71519e-06 	-0.000548815 	0.262
-0.0033358 	4.71519e-06 	-0.000548815 	0.262
-0.00321735 	5.21441e-06 	-0.000549673 	0.26335
-0.00321735 	5.21441e-06 	-0.000549673 	0.26335
-0.00309677 	5.73345e-06 	-0.000550166 	0.264646
-0.00309677 	5.73345e-06 	-0.000550166 	0.264646
-0.00297403 	6.27109e-06 	-0.000550366 	0.265886
-0.00297403 	6.27109e-06 	-0.000550366 	0.265886
-0.00284909 	6.82575e-06 	-0.000550346 	0.267068
-0.00284909 	6.82575e-06 	-0.000550346 	0.267068
-0.0027219 	7.39553e-06 	-0.000550181 	0.268189
-0.0027219 	7.39553e-06 	-0.000550181 	0.268189
-0.00259244 	7.97826e-06 	-0.000549946 	0.269246
-0.00259244 	7.97826e-06 	-0.000549946 	0.269246
-0.00246065 	8.57148e-06 	-0.000549707 	0.270238
-0.00246065 	8.57148e-06 	-0.000549707 	0.270238
-0.00232651 	9.17236e-06 	-0.000549527 	0.271161
-0.00232651 	9.17236e-06 	-0.000549527 	0.271161
-0.00218995 	9.77767e-06 	-0.000549455 	0.272015
-0.00218995 	9.77767e-06 	-0.000549455 	0.272015
-0.00205095 	1.03836e-05 	-0.000549529 	0.272796
-0.00205095 	1.03836e-05 	-0.000549529 	0.272796
-0.00190946 	1.09858e-05 	-0.000549773 	0.273504
-0.00190946 	1.09858e-05 	-0.000549773 	0.273504
-0.00176543 	1.1579e-05 	-0.000550196 	0.274138
-0.00176543 	1.1579e-05 	-0.000550196 	0.274138
-0.00161881 	1.21572e-05 	-0.000550786 	0.274696
-0.00161881 	1.21572e-05 	-0.000550786 	0.274696
-0.00146957 	1.27137e-05 	-0.000551515 	0.27518
-0.00146957 	1.27137e-05 	-0.000551515 	0.27518
-0.00131765 	1.32417e-05 	-0.000552341 	0.275589
-0.00131765 	1.32417e-05 	-0.000552341 	0.275589
-0.001163 	1.37338e-05 	-0.000553209 	0.275923
-0.001163 	1.37338e-05 	-0.000553209 	0.275923
-0.00100559 	1.41815e-05 	-0.000554061 	0.276181
-0.00100559 	1.41815e-05 	-0.000554061 	0.276181
-0.000845345 	1.45749e-05 	-0.000554867 	0.276364
-0.000845345 	1.45749e-05 	-0.000554867 	0.276364
-0.000682232 	1.49019e-05 	-0.000555544 	0.27647
-0.000682232 	1.49019e-05 	-0.000555544 	0.27647
-0.000516194 	1.5149e-05 	-0.000556002 	0.276498
-0.000516194 	1.5149e-05 	-0.000556002 	0.276498
-0.000347178 	1.53012e-05 	-0.000556235 	0.276445
-0.000347178 	1.53012e-05 	-0.000556235 	0.276445
-0.000175132 	1.53461e-05 	-0.0005561 	0.27631
-0.000175132 	1.53461e-05 	-0.0005561 	0.27631
0 	1.52754e-05 	-0.000555599 	0.27609
0 	1.52754e-05 	-0.000555599 	0.27609
0 	1.52754e-05 	-0.000555599 	0.27609
0 	1.52754e-05 	-0.000555599 	0.27609
0.000175132 	1.50862e-05 	-0.000554791 	0.275787
0.000175132 	1.41411e-05 	-0.000455258 	0.272441
0.000347178 	1.47881e-05 	-0.000553572 	0.275408
0.000347178 	1.53487e-05 	-0.000455725 	0.27213
0.000516194 	1.43945e-05 	-0.000552033 	0.274958
0.000516194 	1.63782e-05 	-0.000456024 	0.271741
0.000682232 	1.39191e-05 	-0.000550176 	0.274441
0.000682232 	1.72443e-05 	-0.00045612 	0.271279
0.000845345 	1.33782e-05 	-0.00054794 	0.273859
0.000845345 	1.79649e-05 	-0.000455776 	0.270747
0.00100559 	1.27864e-05 	-0.000545382 	0.273216
0.00100559 	1.8557e-05 	-0.000455108 	0.270151
0.001163 	1.2156e-05 	-0.00054252 	0.272514
0.001163 	1.9037e-05 	-0.000454126 	0.269491
0.00131765 	1.1498e-05 	-0.000539374 	0.271755
0.00131765 	1.94199e-05 	-0.00045284 	0.268772
0.00146957 	1.08216e-05 	-0.000535959 	0.270942
0.00146957 	1.97191e-05 	-0.000451259 	0.267996
0.00161881 	1.01347e-05 	-0.00053229 	0.270076
0.00161881 	1.99463e-05 	-0.000449393 	0.267166
0.00176543 	9.4438e-06 	-0.000528377 	0.26916
0.00176543 	2.01118e-05 	-0.000447249 	0.266282
0.00190946 	8.75451e-06 	-0.00052423 	0.268193
0.00190946 	2.02243e-05 	-0.000444833 	0.265346
0.00205095 	8.07133e-06 	-0.000519855 	0.267179
0.00205095 	2.02915e-05 	-0.000442148 	0.264361
0.00218995 	7.39795e-06 	-0.000515256 	0.266118
0.00218995 	2.03199e-05 	-0.000439195 	0.263327
0.00232651 	6.73734e-06 	-0.000510436 	0.26501
0.00232651 	2.0315e-05 	-0.000435975 	0.262246
0.00246065 	6.09185e-06 	-0.000505394 	0.263857
0.00246065 	2.02815e-05 	-0.000432485 	0.261117
0.00259244 	5.46334e-06 	-0.000500131 	0.262658
0.00259244 	2.02233e-05 	-0.000428721 	0.259943
0.0027219 	4.85323e-06 	-0.000494641 	0.261416
0.0027219 	2.01434e-05 	-0.000424675 	0.258723
0.00284909 	4.26268e-06 	-0.00048892 	0.260129
0.00284909 	2.00444e-05 	-0.000420338 	0.257459
0.00297403 	3.69253e-06 	-0.000482961 	0.258797
0.00297403 	1.99284e-05 	-0.000415697 	0.256149
0.00309677 	3.14339e-06 	-0.000476757 	0.257422
0.00309677 	1.9797e-05 	-0.00041074 	0.254796
0.00321735 	2.61566e-06 	-0.000470297 	0.256003
0.00321735 	1.96515e-05 	-0.000405452 	0.253397
0.0033358 	2.10958e-06 	-0.000463575 	0.254538
0.0033358 	1.9493e-05 	-0.000399817 	0.251953
0.00345217 	1.93222e-05 	-0.000393824 	0.250463
0.00345217 	1.6253e-06 	-0.00045658 	0.253028
0.00356649 	1.16291e-06 	-0.000449307 	0.251471
0.00356649 	1.91398e-05 	-0.000387478 	0.248926
0.00367879 	7.22405e-07 	-0.000441744 	0.249868
0.00367879 	1.89467e-05 	-0.000380775 	0.247341
0.00378912 	3.03721e-07 	-0.000433875 	0.248216
0.00378912 	1.87447e-05 	-0.000373703 	0.245709
0.0038975 	-9.3197e-08 	-0.000425677 	0.246514
0.0038975 	1.8536e-05 	-0.000366248 	0.24403
0.00400397 	-4.68421e-07 	-0.000417111 	0.244759
0.00400397 	1.83224e-05 	-0.000358353 	0.242298
0.00410857 	1.81049e-05 	-0.000349913 	0.2405
0.00410857 	-8.22367e-07 	-0.000408111 	0.242945
0.00421133 	-1.15604e-06 	-0.000398599 	0.241066
0.00421133 	1.78825e-05 	-0.000340818 	0.238625
0.00431227 	-1.47084e-06 	-0.00038849 	0.239114
0.00431227 	1.76525e-05 	-0.000330986 	0.236667
0.00441144 	-1.76788e-06 	-0.000377714 	0.237084
0.00441144 	1.74121e-05 	-0.000320369 	0.23462
0.00450886 	-2.04766e-06 	-0.000366235 	0.234969
0.00450886 	1.71581e-05 	-0.000308969 	0.232481
0.00460456 	-2.31041e-06 	-0.000354051 	0.232763
0.00460456 	1.68877e-05 	-0.000296823 	0.230246
0.00469858 	-2.55656e-06 	-0.000341179 	0.230461
0.00469858 	1.65982e-05 	-0.00028398 	0.227911
0.00479094 	-2.78671e-06 	-0.000327644 	0.228059
0.00479094 	1.62868e-05 	-0.000270495 	0.225473
0.00488168 	-3.0015e-06 	-0.000313475 	0.225553
0.00488168 	1.59509e-05 	-0.000256424 	0.222926
0.00497081 	-3.20157e-06 	-0.000298712 	0.222937
0.00497081 	1.55875e-05 	-0.000241835 	0.220267
0.00505838 	-3.38752e-06 	-0.000283406 	0.220209
0.00505838 	1.51938e-05 	-0.0002268 	0.217492
0.0051444 	-3.55995e-06 	-0.000267623 	0.217364
0.0051444 	1.4767e-05 	-0.000211409 	0.214598
0.00522891 	-3.71939e-06 	-0.000251446 	0.214398
0.00522891 	1.43045e-05 	-0.000195764 	0.211582
0.00531193 	-3.86634e-06 	-0.000234971 	0.211308
0.00531193 	1.38039e-05 	-0.000179987 	0.208441
0.00539348 	-4.00122e-06 	-0.000218313 	0.208091
0.00539348 	1.32632e-05 	-0.000164208 	0.205173
0.0054736 	-4.12441e-06 	-0.000201595 	0.204744
0.0054736 	1.2681e-05 	-0.000148572 	0.201776
0.00555231 	-4.2362e-06 	-0.00018495 	0.201263
0.00555231 	1.20559e-05 	-0.000133223 	0.198249
0.00562963 	-4.3368e-06 	-0.000168512 	0.197645
0.00562963 	1.13874e-05 	-0.000118302 	0.194589
0.00570559 	-4.42634e-06 	-0.000152411 	0.193885
0.00570559 	1.0675e-05 	-0.000103943 	0.190793
0.00578022 	-4.50488e-06 	-0.000136774 	0.189977
0.00578022 	9.91891e-06 	-9.0265e-05 	0.186857
0.00585352 	-4.57235e-06 	-0.000121715 	0.185918
0.00585352 	9.11951e-06 	-7.7372e-05 	0.182777
0.00592554 	-4.62863e-06 	-0.000107338 	0.181699
0.00592554 	8.27774e-06 	-6.5347e-05 	0.178546
0.00599629 	-4.67348e-06 	-9.3729e-05 	0.177313
0.00599629 	7.395e-06 	-5.42531e-05 	0.174159
0.00606579 	-4.70672e-06 	-8.09625e-05 	0.172751
0.00606579 	6.47318e-06 	-4.41333e-05 	0.169605
0.00613406 	-4.72812e-06 	-6.91004e-05 	0.168003
0.00613406 	5.5146e-06 	-3.50124e-05 	0.164874
0.00620114 	4.52197e-06 	-2.6898e-05 	0.159949
0.00620114 	-4.73734e-06 	-5.81903e-05 	0.163051
0.00626703 	-4.73369e-06 	-4.82681e-05 	0.157878
0.00626703 	3.49894e-06 	-1.97867e-05 	0.154814
0.00633176 	2.45087e-06 	-1.36657e-05 	0.149451
0.00633176 	-4.71628e-06 	-3.93622e-05 	0.152467
0.00639535 	1.38497e-06 	-8.50629e-06 	0.143847
0.00639535 	-4.68423e-06 	-3.14841e-05 	0.146805
0.00645783 	-4.63669e-06 	-2.46247e-05 	0.140874
0.00645783 	3.10055e-07 	-4.26307e-06 	0.137985
0.0065192 	-4.57268e-06 	-1.8759e-05 	0.134657
0.0065192 	-7.63055e-07 	-8.77908e-07 	0.131847
0.00657949 	-4.49108e-06 	-1.38489e-05 	0.128137
0.00657949 	-1.82127e-06 	1.71664e-06 	0.125416
0.00663871 	-4.391e-06 	-9.84282e-06 	0.121299
0.00663871 	-2.84913e-06 	3.59506e-06 	0.118675
0.0066969 	-4.27195e-06 	-6.66289e-06 	0.114123
0.0066969 	-3.82922e-06 	4.84204e-06 	0.111603
0.00675406 	-4.74292e-06 	5.54735e-06 	0.104165
0.00675406 	-4.133e-06 	-4.21678e-06 	0.106578
0.00681021 	-5.56824e-06 	5.80166e-06 	0.0963354
0.00681021 	-3.97205e-06 	-2.40393e-06 	0.0986298
0.00686537 	-6.27657e-06 	5.69536e-06 	0.0881284
0.00686537 	-3.78684e-06 	-1.12829e-06 	0.0902881
0.00691956 	-6.83504e-06 	5.31715e-06 	0.0796114
0.00691956 	-3.57587e-06 	-3.04668e-07 	0.0816169
0.0069728 	-7.21199e-06 	4.75463e-06 	0.0709017
0.0069728 	-3.33863e-06 	1.60694e-07 	0.0727334
0.0070251 	-3.07535e-06 	3.64639e-07 	0.0638058
0.0070251 	-7.38242e-06 	4.08968e-06 	0.0621642
0.00707647 	-2.78714e-06 	3.99487e-07 	0.055034
0.00707647 	-7.3336e-06 	3.393e-06 	0.053592
0.00712695 	-2.47642e-06 	3.43466e-07 	0.046615
0.00712695 	-7.06854e-06 	2.71888e-06 	0.0453731
0.00717653 	-2.14744e-06 	2.53765e-07 	0.0387046
0.00717653 	-6.60506e-06 	2.10294e-06 	0.0376556
0.00722524 	-1.80667e-06 	1.64549e-07 	0.0313951
0.00722524 	-5.97086e-06 	1.56306e-06 	0.0305268
0.00727309 	-5.19803e-06 	1.10453e-06 	0.0240174
0.00727309 	-1.46378e-06 	9.13269e-08 	0.0247185
0.0073201 	-4.32028e-06 	7.2729e-07 	0.0181191
0.0073201 	-1.13422e-06 	3.90712e-08 	0.0186659
0.00736628 	-3.37513e-06 	4.25304e-07 	0.0128032
0.00736628 	-8.46175e-07 	2.25523e-09 	0.0132072
0.00741165 	-6.09087e-07 	-1.08974e-08 	0.00830501
0.00741165 	-2.36945e-06 	2.05385e-07 	0.00803354
0.00745622 	-3.57205e-07 	-1.10931e-08 	0.00392122
0.00745622 	-1.25128e-06 	6.59179e-08 	0.00377336
0.0075 	0 	0 	0
0.0075 	0 	0 	0
