/*--------------------------------*- C++ -*----------------------------------*\
| =========                 |                                                 |
| \\      /  F ield         | OpenFOAM: The Open Source CFD Toolbox           |
|  \\    /   O peration     | Version:  v1906                                 |
|   \\  /    A nd           | Web:      www.OpenFOAM.com                      |
|    \\/     M anipulation  |                                                 |
\*---------------------------------------------------------------------------*/
FoamFile
{
    version     2.0;
    format      ascii;
    class       volScalarField;
    location    "98.8";
    object      p;
}
// * * * * * * * * * * * * * * * * * * * * * * * * * * * * * * * * * * * * * //

dimensions      [1 -1 -2 0 0 0 0];


internalField   nonuniform List<scalar> 
634
(
100205
100204
100206
100207
100205
100202
100209
100205
100206
100201
100213
100204
100207
100199
100218
100202
100208
100196
100222
100201
100209
100194
100226
100199
100209
100192
100230
100197
100210
100190
100235
100196
100212
100187
100239
100194
100213
100185
100243
100192
100214
100182
100248
100190
100215
100179
100252
100188
100216
100177
100257
100186
100217
100174
100261
100185
100219
100171
100266
100183
100220
100169
100270
100181
100222
100166
100275
100179
100223
100163
100279
100177
100225
100160
100284
100175
100226
100157
100288
100173
100228
100155
100293
100171
100229
100152
100297
100169
100231
100149
100301
100167
100233
100146
100306
100166
100234
100144
100310
100164
100236
100141
100314
100162
100238
100138
100318
100160
100240
100136
100322
100158
100241
100134
100326
100157
100243
100133
100329
100156
100245
100132
100332
100155
100246
100131
100335
100154
100248
100129
100337
100153
100250
100127
100340
100151
100251
100125
100343
100149
100253
100123
100346
100147
100254
100120
100348
100145
100256
100118
100351
100144
100257
100116
100354
100142
100259
100115
100356
100140
100260
100113
100359
100139
100262
100111
100361
100137
100263
100109
100363
100136
100264
100108
100365
100134
100265
100106
100366
100133
100266
100105
100368
100132
100267
100104
100369
100131
100268
100103
100371
100129
100269
100102
100372
100128
100270
100101
100373
100127
100271
100100
100374
100127
100272
100099
100375
100126
100273
100098
100376
100125
100273
100098
100377
100124
100274
100097
100378
100124
100275
100096
100379
100123
100275
100096
100380
100123
100276
100095
100380
100122
100276
100095
100381
100122
100277
100094
100381
100121
100277
100094
100382
100121
100278
100094
100382
100121
100278
100093
100382
100120
100278
100093
100383
100120
100278
100093
100383
100120
100279
100093
100383
100120
100279
100092
100383
100119
100279
100092
100384
100119
100279
100092
100384
100119
100279
100092
100384
100119
100279
100092
100384
100119
100279
100092
100384
100119
100279
100092
100384
100119
100279
100092
100385
100119
100280
100091
100385
100119
100280
100091
100385
100119
100280
100091
100385
100118
100280
100091
100385
100118
100280
100091
100385
100118
100280
100091
100153
100149
100146
100150
100153
100149
100146
100150
100153
100149
100146
100150
100153
100149
100146
100150
100153
100149
100146
100150
100153
100149
100146
100150
100153
100149
100146
100150
100152
100149
100146
100150
100152
100149
100146
100150
100152
100149
100146
100150
100152
100149
100146
100150
100152
100149
100145
100150
100151
100149
100145
100150
100151
100149
100145
100150
100151
100149
100145
100150
100151
100149
100145
100150
100150
100149
100145
100150
100150
100149
100145
100150
100150
100149
100145
100150
100149
100149
100145
100150
100149
100149
100144
100150
100149
100149
100144
100150
100148
100149
100144
100150
100148
100149
100144
100150
100148
100149
100144
100150
100147
100149
100144
100150
100147
100149
100144
100150
100147
100149
100143
100151
100146
100149
100143
100151
100146
100149
100143
100151
100146
100149
100143
100151
100145
100149
100143
100151
100145
100149
100142
100151
100145
100150
100142
100151
100144
100150
100142
100151
100144
100150
100142
100151
100144
100150
100142
100151
100143
100150
100142
100151
100143
100150
100142
100151
100143
100150
100141
100151
100142
100150
100141
100152
100142
100150
100141
100152
100142
100150
100141
100152
100142
100150
100141
100152
100142
100151
100141
100152
100141
100151
100141
100152
100141
100151
100140
100152
100141
100151
100140
100152
100141
100151
100140
100152
100141
100151
100140
100152
100140
100151
100140
100152
100140
100151
100140
100152
100140
100151
100140
100152
100140
100151
100140
100152
100140
100151
100140
100152
100140
100151
100140
100152
100140
100151
100140
100152
100140
100151
100140
100152
100140
100151
100140
100152
100139
100151
100140
100152
100139
100151
100140
100152
100139
100151
100139
100152
100139
100151
100139
100153
100139
100151
100139
100153
100139
100151
100139
100153
100139
100151
100139
100153
100139
100151
100139
100153
100139
100151
100139
100153
100139
100151
100139
100153
100139
100151
100139
100153
100139
100151
100139
100153
100139
100151
100139
100153
100139
100151
100139
100153
100139
100151
100139
100153
100139
100151
100139
100153
100139
100151
100139
100153
100139
100151
100139
100153
100139
100151
100139
100153
100139
100151
100139
100153
)
;

boundaryField
{
    leftWall
    {
        type            calculated;
        value           nonuniform 0();
    }
    rightWall
    {
        type            calculated;
        value           nonuniform List<scalar> 8(100385 100139 100118 100151 100280 100139 100091 100153);
    }
    leftSides_periodic0
    {
        type            cyclic;
    }
    leftSides_periodic1
    {
        type            cyclic;
    }
    rightSides_periodic0
    {
        type            cyclic;
    }
    rightSides_periodic1
    {
        type            cyclic;
    }
    leftInOut_periodic0
    {
        type            cyclic;
    }
    leftInOut_periodic1
    {
        type            cyclic;
    }
    rightInOut_periodic0
    {
        type            cyclic;
    }
    rightInOut_periodic1
    {
        type            cyclic;
    }
    procBoundary1to0
    {
        type            processor;
        value           nonuniform List<scalar> 
11
(
100204
100206
100202
100208
100208
100146
100150
100153
100149
100146
100150
)
;
    }
    procBoundary1to0throughleftInOut_periodic0
    {
        type            processorCyclic;
        value           uniform 100202;
    }
    procBoundary1to2throughleftSides_periodic0
    {
        type            processorCyclic;
        value           nonuniform List<scalar> 2(99219.9 99211.5);
    }
    procBoundary1to2throughrightSides_periodic0
    {
        type            processorCyclic;
        value           nonuniform List<scalar> 2(99217.3 99215.6);
    }
    procBoundary1to3
    {
        type            processor;
        value           nonuniform List<scalar> 
316
(
99739.3
99759.9
99764.6
99761.4
99741
99759.1
99765.2
99761.1
99742.7
99758.2
99765.8
99760.8
99744.4
99757.2
99766.4
99760.2
99746.2
99756.2
99767
99759.1
99748
99755.1
99767.7
99757.8
99749.9
99753.9
99768.4
99756.4
99751.8
99752.7
99769.2
99754.9
99753.8
99751.5
99770
99753.4
99755.9
99750.3
99770.8
99751.9
99757.9
99749
99771.7
99750.4
99760
99747.8
99772.6
99748.9
99762.2
99746.5
99773.4
99747.3
99764.4
99745.2
99773.9
99745.8
99766.5
99743.8
99774.2
99744.2
99767.9
99742.5
99774.5
99742.7
99768.7
99741.2
99775.1
99741.1
99769.5
99739.8
99776
99739.5
99770.7
99738.5
99777.2
99738.4
99772.7
99737.1
99778.5
99737.6
99775.3
99735.7
99779.7
99737
99778.3
99734.3
99781
99736.3
99781.2
99732.8
99782.3
99735.1
99784.1
99731.4
99783.6
99733.4
99787
99729.9
99785
99731.5
99790
99728.4
99786.3
99729.6
99793
99726.9
99787.7
99727.7
99795.9
99725.4
99789.1
99725.7
99798.1
99723.9
99790.4
99723.8
99799.7
99722.8
99791.8
99722.2
99801.1
99722
99793.2
99720.9
99802.8
99721.4
99794.5
99719.6
99804.9
99720.6
99795.9
99718.1
99807.5
99719.4
99797.2
99716.4
99810.2
99717.9
99798.5
99714.5
99812.9
99716.2
99799.8
99712.8
99815.4
99714.5
99801.1
99711
99817.8
99712.9
99802.4
99709.3
99819.9
99711.3
99803.7
99707.7
99821.6
99709.8
99804.9
99706.1
99823.1
99708.3
99806.1
99704.6
99824.7
99706.9
99807.3
99703.2
99826.5
99705.5
99808.4
99701.9
99828.4
99704.1
99809.5
99700.6
99830.2
99702.8
99810.6
99699.3
99832
99701.5
99811.6
99698.1
99833.6
99700.3
99812.6
99696.9
99835.1
99699.2
99813.5
99695.7
99836.6
99698
99814.4
99694.7
99837.9
99697
99815.3
99693.7
99839.2
99696
99816.1
99692.7
99840.4
99695.1
99816.9
99691.9
99841.4
99694.2
99817.6
99691
99842.5
99693.4
99818.3
99690.3
99843.4
99692.6
99819
99689.6
99844.2
99691.9
99819.6
99689
99845
99691.3
99820.1
99688.4
99845.7
99690.7
99820.6
99687.9
99846.3
99690.2
99821.1
99687.4
99846.8
99689.7
99821.5
99687
99847.3
99689.3
99821.8
99686.7
99847.7
99688.9
99822.1
99686.3
99848
99688.6
99822.4
99686.1
99848.4
99688.4
99822.6
99685.8
99848.6
99688.1
99822.9
99685.6
99848.9
99687.9
99823
99685.4
99849.1
99687.7
99823.2
99685.3
99849.2
99687.6
99823.3
99685.1
99849.4
99687.5
99823.4
99685
99849.5
99687.4
99823.5
99684.9
99849.6
99687.3
99823.6
99684.8
99849.7
99687.2
99823.7
99684.7
99849.8
99687.1
99823.7
99684.6
99849.9
99687.1
99823.8
99684.5
99850
99687
99823.8
99684.5
99850
99687
99823.8
99684.4
99850.1
99686.9
99823.9
99684.4
99850.1
99686.9
99823.9
99684.4
99850.1
99686.9
99823.9
99684.3
)
;
    }
    procBoundary1to3throughrightSides_periodic0
    {
        type            processorCyclic;
        value           nonuniform List<scalar> 
314
(
99217.3
99217.3
99217.3
99217.4
99217.4
99217.4
99217.4
99217.4
99217.4
99217.4
99217.4
99217.4
99217.4
99217.4
99217.4
99217.3
99217.3
99217.3
99217.3
99217.3
99217.2
99217.2
99217.2
99217.1
99217.1
99217
99217
99216.9
99216.9
99216.8
99216.8
99216.7
99216.7
99216.6
99216.6
99216.5
99216.5
99216.4
99216.3
99216.3
99216.2
99216.2
99216.2
99216.1
99216.1
99216
99216
99215.9
99215.9
99215.9
99215.8
99215.8
99215.8
99215.7
99215.7
99215.7
99215.7
99215.6
99215.6
99215.6
99215.6
99215.6
99215.6
99215.6
99215.6
99215.6
99215.5
99215.5
99215.5
99215.5
99215.5
99215.5
99215.5
99215.5
99215.5
99215.5
99215.5
99215.5
99215.5
99215.3
99215.1
99215
99214.8
99214.6
99214.5
99214.3
99214.2
99214
99213.9
99213.7
99213.6
99213.4
99213.3
99213.1
99213
99212.9
99212.7
99212.6
99212.5
99212.3
99212.2
99212.1
99212
99211.9
99211.8
99211.7
99211.6
99211.4
99211.4
99211.3
99211.2
99211.1
99211
99210.9
99210.8
99210.7
99210.7
99210.6
99210.5
99210.4
99210.4
99210.3
99210.3
99210.2
99210.2
99210.1
99210.1
99210
99210
99210
99209.9
99209.9
99209.9
99209.9
99209.8
99209.8
99209.8
99209.8
99209.8
99209.7
99209.7
99209.7
99209.7
99209.7
99209.7
99209.7
99209.7
99209.7
99209.7
99209.7
99209.7
99209.7
99209.7
99209.7
99209.7
99209.7
99220.2
99220.4
99220.7
99221
99221.3
99221.6
99221.9
99222.2
99222.4
99222.7
99223
99223.3
99223.6
99223.9
99224.2
99224.5
99224.8
99225.1
99225.4
99225.7
99226
99226.3
99226.6
99226.9
99227.2
99227.5
99227.8
99228
99228.3
99228.6
99228.9
99229.1
99229.4
99229.6
99229.8
99230
99230.2
99230.4
99230.6
99230.8
99231
99231.1
99231.3
99231.4
99231.6
99231.7
99231.8
99231.9
99232
99232.1
99232.2
99232.3
99232.4
99232.5
99232.6
99232.6
99232.7
99232.7
99232.8
99232.8
99232.9
99232.9
99233
99233
99233
99233
99233
99233.1
99233.1
99233.1
99233.1
99233.1
99233.1
99233.1
99233.1
99233.1
99233.1
99233.1
99233.1
99211.5
99211.4
99211.4
99211.3
99211.3
99211.2
99211.2
99211.1
99211.1
99211
99211
99211
99210.9
99210.9
99210.8
99210.8
99210.7
99210.7
99210.6
99210.6
99210.6
99210.5
99210.5
99210.5
99210.4
99210.4
99210.3
99210.3
99210.3
99210.3
99210.2
99210.2
99210.2
99210.2
99210.2
99210.1
99210.1
99210.1
99210.1
99210.1
99210.1
99210
99210
99210
99210
99210
99210
99210
99210
99210
99210
99210
99210
99210
99210
99210
99210
99210
99210
99210
99210
99210
99210
99210
99210
99210
99210
99210
99210
99209.9
99209.9
99209.9
99209.9
99209.9
99209.9
99209.9
99209.9
99209.9
99209.9
)
;
    }
}


// ************************************************************************* //
