/*--------------------------------*- C++ -*----------------------------------*\
| =========                 |                                                 |
| \\      /  F ield         | OpenFOAM: The Open Source CFD Toolbox           |
|  \\    /   O peration     | Version:  v1912                                 |
|   \\  /    A nd           | Website:  www.openfoam.com                      |
|    \\/     M anipulation  |                                                 |
\*---------------------------------------------------------------------------*/
FoamFile
{
    version     2.0;
    format      ascii;
    class       volScalarField;
    location    "9.6";
    object      k;
}
// * * * * * * * * * * * * * * * * * * * * * * * * * * * * * * * * * * * * * //

dimensions      [0 2 -2 0 0 0 0];


internalField   nonuniform List<scalar> 
34128
(
2.56547e-07
2.60933e-07
2.68655e-07
2.75441e-07
2.68134e-07
2.5868e-07
2.58581e-07
2.55653e-07
2.53673e-07
2.66037e-07
2.80396e-07
2.81283e-07
5.00565e-08
5.02391e-08
5.15169e-08
5.30384e-08
5.26459e-08
5.17367e-08
5.14206e-08
5.02453e-08
4.95807e-08
5.17351e-08
5.4471e-08
5.47714e-08
8.31287e-08
7.99719e-08
8.09456e-08
8.44683e-08
8.91534e-08
9.2492e-08
9.04357e-08
8.53695e-08
8.28266e-08
8.50558e-08
8.92294e-08
9.03741e-08
2.53944e-07
2.42215e-07
2.44563e-07
2.55825e-07
2.73372e-07
2.86617e-07
2.79436e-07
2.62118e-07
2.53495e-07
2.59388e-07
2.71781e-07
2.75653e-07
6.25861e-07
5.96264e-07
6.02019e-07
6.29595e-07
6.73882e-07
7.07898e-07
6.90033e-07
6.46934e-07
6.25485e-07
6.39351e-07
6.69333e-07
6.78956e-07
1.27858e-06
1.21781e-06
1.22985e-06
1.28521e-06
1.37594e-06
1.44686e-06
1.4107e-06
1.32307e-06
1.27947e-06
1.30657e-06
1.36641e-06
1.38599e-06
2.28677e-06
2.17782e-06
2.19982e-06
2.29632e-06
2.45822e-06
2.58741e-06
2.52388e-06
2.36883e-06
2.29177e-06
2.33747e-06
2.44112e-06
2.47584e-06
3.70433e-06
3.52748e-06
3.56341e-06
3.71449e-06
3.97522e-06
4.18844e-06
4.08808e-06
3.84103e-06
3.71857e-06
3.78693e-06
3.94771e-06
4.00327e-06
5.54891e-06
5.28348e-06
5.33676e-06
5.55337e-06
5.94018e-06
6.26542e-06
6.11998e-06
5.75837e-06
5.58009e-06
5.67221e-06
5.89973e-06
5.9816e-06
7.79115e-06
7.41794e-06
7.49051e-06
7.77848e-06
8.31381e-06
8.77783e-06
8.58204e-06
8.08972e-06
7.84921e-06
7.96196e-06
8.25916e-06
8.37173e-06
1.03534e-05
9.85745e-06
9.94902e-06
1.0307e-05
1.10043e-05
1.16285e-05
1.13815e-05
1.07526e-05
1.04496e-05
1.05754e-05
1.09365e-05
1.10823e-05
1.31187e-05
1.24918e-05
1.25996e-05
1.30184e-05
1.38785e-05
1.46752e-05
1.43817e-05
1.3623e-05
1.32645e-05
1.33919e-05
1.38022e-05
1.39813e-05
1.59466e-05
1.51892e-05
1.53083e-05
1.57706e-05
1.67809e-05
1.77509e-05
1.7421e-05
1.65523e-05
1.61522e-05
1.62674e-05
1.67045e-05
1.69142e-05
1.87128e-05
1.7831e-05
1.79611e-05
1.84486e-05
1.95883e-05
2.07261e-05
2.03723e-05
1.94161e-05
1.89894e-05
1.9083e-05
1.95268e-05
1.97623e-05
2.13576e-05
2.03617e-05
2.05021e-05
2.09937e-05
2.22362e-05
2.3531e-05
2.3168e-05
2.2151e-05
2.1715e-05
2.1778e-05
2.22071e-05
2.24618e-05
2.38312e-05
2.27346e-05
2.28842e-05
2.33574e-05
2.46725e-05
2.61092e-05
2.57527e-05
2.4704e-05
2.42762e-05
2.43014e-05
2.46946e-05
2.49606e-05
2.60961e-05
2.49144e-05
2.50719e-05
2.55039e-05
2.68594e-05
2.84194e-05
2.80856e-05
2.70347e-05
2.66322e-05
2.66142e-05
2.69514e-05
2.72198e-05
2.81269e-05
2.68766e-05
2.70401e-05
2.74089e-05
2.87727e-05
3.04358e-05
3.01397e-05
2.91146e-05
2.87536e-05
2.86891e-05
2.89524e-05
2.92134e-05
2.99091e-05
2.86066e-05
2.8773e-05
2.90585e-05
3.04002e-05
3.21452e-05
3.19001e-05
3.09265e-05
3.06214e-05
3.05092e-05
3.06832e-05
3.09266e-05
3.14375e-05
3.0098e-05
3.02629e-05
3.04474e-05
3.17401e-05
3.35463e-05
3.33625e-05
3.24622e-05
3.22257e-05
3.20665e-05
3.21385e-05
3.23539e-05
3.27143e-05
3.13512e-05
3.15087e-05
3.15773e-05
3.27985e-05
3.46459e-05
3.45304e-05
3.37214e-05
3.35644e-05
3.33604e-05
3.33202e-05
3.34975e-05
3.37471e-05
3.23715e-05
3.25138e-05
3.2455e-05
3.35873e-05
3.54572e-05
3.54135e-05
3.47093e-05
3.46409e-05
3.43957e-05
3.42353e-05
3.43649e-05
3.45463e-05
3.31673e-05
3.32847e-05
3.30903e-05
3.41219e-05
3.59963e-05
3.60241e-05
3.54343e-05
3.54618e-05
3.51798e-05
3.48931e-05
3.49663e-05
3.5122e-05
3.3747e-05
3.3828e-05
3.34936e-05
3.44179e-05
3.62794e-05
3.63746e-05
3.59053e-05
3.60339e-05
3.57203e-05
3.53027e-05
3.53122e-05
3.5481e-05
3.41168e-05
3.41484e-05
3.36735e-05
3.44888e-05
3.63195e-05
3.64746e-05
3.61288e-05
3.63613e-05
3.60211e-05
3.54698e-05
3.54104e-05
3.56241e-05
3.42784e-05
3.42465e-05
3.36348e-05
3.43436e-05
3.61247e-05
3.63289e-05
3.61072e-05
3.6444e-05
3.60812e-05
3.53954e-05
3.52648e-05
3.55456e-05
3.42275e-05
3.41179e-05
3.33777e-05
3.39861e-05
3.56974e-05
3.59373e-05
3.5838e-05
3.62762e-05
3.58935e-05
3.50757e-05
3.48747e-05
3.52304e-05
3.39532e-05
3.37522e-05
3.28969e-05
3.34137e-05
3.50315e-05
3.52918e-05
3.53116e-05
3.58432e-05
3.54409e-05
3.44991e-05
3.42342e-05
3.4641e-05
3.34291e-05
3.31243e-05
3.2175e-05
3.26089e-05
3.41014e-05
3.43665e-05
3.45007e-05
3.51069e-05
3.46809e-05
3.36356e-05
3.33233e-05
3.37245e-05
3.26118e-05
3.21948e-05
3.11813e-05
3.154e-05
3.28713e-05
3.31277e-05
3.33686e-05
3.40203e-05
3.35648e-05
3.24479e-05
3.21129e-05
3.24629e-05
3.14795e-05
3.09493e-05
2.99045e-05
3.01971e-05
3.13423e-05
3.15798e-05
3.19136e-05
3.25805e-05
3.2093e-05
3.09393e-05
3.06053e-05
3.09104e-05
3.00707e-05
2.94337e-05
2.83859e-05
2.8624e-05
2.9573e-05
2.97828e-05
3.01941e-05
3.08545e-05
3.03355e-05
2.91704e-05
2.88525e-05
2.90777e-05
2.83832e-05
2.76621e-05
2.66399e-05
2.68347e-05
2.75901e-05
2.77685e-05
2.82387e-05
2.88706e-05
2.83237e-05
2.7174e-05
2.68859e-05
2.70224e-05
2.64726e-05
2.5689e-05
2.47163e-05
2.48773e-05
2.54507e-05
2.55978e-05
2.61071e-05
2.66912e-05
2.61217e-05
2.50134e-05
2.47658e-05
2.48162e-05
2.44049e-05
2.35821e-05
2.26782e-05
2.28135e-05
2.32235e-05
2.33422e-05
2.38712e-05
2.43919e-05
2.38075e-05
2.27631e-05
2.2563e-05
2.25353e-05
2.22509e-05
2.14134e-05
2.05922e-05
2.0708e-05
2.09783e-05
2.10732e-05
2.16038e-05
2.20507e-05
2.14609e-05
2.04989e-05
2.03489e-05
2.0254e-05
2.00804e-05
1.92523e-05
1.85223e-05
1.86234e-05
1.87804e-05
1.88563e-05
1.93724e-05
1.97408e-05
1.91573e-05
1.82906e-05
1.81891e-05
1.80394e-05
1.79572e-05
1.71609e-05
1.6526e-05
1.66159e-05
1.66862e-05
1.67474e-05
1.72353e-05
1.75261e-05
1.69615e-05
1.6198e-05
1.614e-05
1.59479e-05
1.59363e-05
1.51915e-05
1.46514e-05
1.47327e-05
1.47412e-05
1.47903e-05
1.52391e-05
1.54582e-05
1.49258e-05
1.4268e-05
1.42458e-05
1.40232e-05
1.40616e-05
1.33843e-05
1.29356e-05
1.30102e-05
1.29783e-05
1.3016e-05
1.34179e-05
1.35751e-05
1.30875e-05
1.25337e-05
1.25382e-05
1.22957e-05
1.23646e-05
1.1767e-05
1.14041e-05
1.14738e-05
1.14188e-05
1.14437e-05
1.17936e-05
1.19014e-05
1.14699e-05
1.10151e-05
1.10366e-05
1.07831e-05
1.08658e-05
1.0356e-05
1.00721e-05
1.01383e-05
1.0073e-05
1.00822e-05
1.03772e-05
1.04494e-05
1.00837e-05
9.7207e-06
9.75023e-06
9.49231e-06
9.5749e-06
9.15764e-06
8.94587e-06
9.01011e-06
8.94304e-06
8.93185e-06
9.1712e-06
9.22185e-06
8.92993e-06
8.6506e-06
8.67986e-06
8.42196e-06
8.49368e-06
8.1709e-06
8.02493e-06
8.08883e-06
8.0249e-06
7.98769e-06
8.17172e-06
8.21413e-06
8.00279e-06
7.79897e-06
7.82092e-06
7.56518e-06
7.6181e-06
7.38991e-06
7.3046e-06
7.37e-06
7.31126e-06
7.24142e-06
7.37116e-06
7.41747e-06
7.2928e-06
7.15687e-06
7.1658e-06
6.91228e-06
6.9409e-06
6.80631e-06
6.77808e-06
6.84718e-06
6.79377e-06
6.68368e-06
6.76037e-06
6.82131e-06
6.78932e-06
6.71443e-06
6.70593e-06
6.45296e-06
6.45391e-06
6.4111e-06
6.438e-06
6.51365e-06
6.46473e-06
6.30568e-06
6.33041e-06
6.41521e-06
6.48212e-06
6.46183e-06
6.43285e-06
6.17775e-06
6.14954e-06
6.19532e-06
6.27602e-06
6.36184e-06
6.31647e-06
6.0994e-06
6.07356e-06
6.18959e-06
6.3599e-06
6.38535e-06
6.33544e-06
6.07576e-06
6.01959e-06
6.14365e-06
6.2568e-06
6.34648e-06
6.29693e-06
6.04608e-06
5.97999e-06
6.12886e-06
6.35395e-06
6.41933e-06
6.34856e-06
6.07951e-06
6.00554e-06
6.1941e-06
6.34095e-06
6.43581e-06
6.38129e-06
6.09246e-06
5.98712e-06
6.17166e-06
6.45135e-06
6.54294e-06
6.46271e-06
6.17828e-06
6.0885e-06
6.32881e-06
6.49993e-06
6.59636e-06
6.53682e-06
6.22587e-06
6.08841e-06
6.30297e-06
6.60512e-06
6.7023e-06
6.6327e-06
6.3441e-06
6.24588e-06
6.504e-06
6.67274e-06
6.76446e-06
6.71028e-06
6.41494e-06
6.26428e-06
6.48538e-06
6.75734e-06
6.84598e-06
6.79957e-06
6.52428e-06
6.43523e-06
6.6685e-06
6.8198e-06
6.9053e-06
6.86034e-06
6.60406e-06
6.46751e-06
6.6643e-06
6.88651e-06
6.96912e-06
6.9425e-06
6.6806e-06
6.6075e-06
6.80674e-06
6.94257e-06
7.02332e-06
6.98841e-06
6.7681e-06
6.65144e-06
6.81753e-06
6.99916e-06
7.07831e-06
7.06793e-06
6.81513e-06
6.754e-06
6.9255e-06
7.04805e-06
7.1253e-06
7.10123e-06
6.91299e-06
6.81245e-06
6.95162e-06
7.10046e-06
7.1773e-06
7.18053e-06
6.93389e-06
6.88153e-06
7.03003e-06
7.14075e-06
7.21544e-06
7.20284e-06
7.04393e-06
6.95696e-06
7.07209e-06
7.19322e-06
7.26779e-06
7.28264e-06
7.04044e-06
6.99474e-06
7.12356e-06
7.22332e-06
7.29606e-06
7.29527e-06
7.16372e-06
7.08874e-06
7.18205e-06
7.27871e-06
7.35029e-06
7.37512e-06
7.13663e-06
7.0964e-06
7.20799e-06
7.2972e-06
7.36833e-06
7.3794e-06
7.27355e-06
7.20965e-06
7.28302e-06
7.35729e-06
7.42471e-06
7.45809e-06
7.22334e-06
7.1881e-06
7.28435e-06
7.36318e-06
7.43276e-06
7.45542e-06
7.37374e-06
7.32039e-06
7.37555e-06
7.42892e-06
7.49082e-06
7.53138e-06
7.30099e-06
7.27072e-06
7.35326e-06
7.4217e-06
7.48961e-06
7.52331e-06
7.46421e-06
7.42102e-06
7.45972e-06
7.49343e-06
7.54846e-06
7.59485e-06
7.36989e-06
7.34485e-06
7.41514e-06
7.47312e-06
7.53906e-06
7.58302e-06
7.54477e-06
7.51142e-06
7.53546e-06
7.55069e-06
7.59766e-06
7.64853e-06
7.43036e-06
7.41097e-06
7.47037e-06
7.51779e-06
7.58133e-06
7.63456e-06
7.61536e-06
7.59145e-06
7.60271e-06
7.60071e-06
7.63861e-06
7.69267e-06
7.48283e-06
7.46956e-06
7.51934e-06
7.55609e-06
7.61671e-06
7.6781e-06
7.67602e-06
7.66114e-06
7.66151e-06
7.64361e-06
7.6717e-06
7.72768e-06
7.52782e-06
7.52112e-06
7.56247e-06
7.58844e-06
7.64555e-06
7.71389e-06
7.72699e-06
7.7206e-06
7.712e-06
7.67963e-06
7.69745e-06
7.75418e-06
7.56592e-06
7.5662e-06
7.60019e-06
7.61533e-06
7.66828e-06
7.7423e-06
7.76861e-06
7.77015e-06
7.75443e-06
7.70912e-06
7.7165e-06
7.77292e-06
7.59779e-06
7.60537e-06
7.63295e-06
7.63727e-06
7.68543e-06
7.7638e-06
7.80137e-06
7.81018e-06
7.78915e-06
7.73254e-06
7.72957e-06
7.78475e-06
7.62411e-06
7.63919e-06
7.66122e-06
7.6548e-06
7.69756e-06
7.77898e-06
7.82586e-06
7.84123e-06
7.81661e-06
7.75041e-06
7.73749e-06
7.79065e-06
7.64556e-06
7.66823e-06
7.68547e-06
7.66851e-06
7.70533e-06
7.78851e-06
7.84277e-06
7.86394e-06
7.83734e-06
7.76334e-06
7.74113e-06
7.79167e-06
7.66285e-06
7.69304e-06
7.70616e-06
7.67902e-06
7.70948e-06
7.79316e-06
7.85293e-06
7.87906e-06
7.85198e-06
7.77201e-06
7.74141e-06
7.78893e-06
7.67667e-06
7.71419e-06
7.72376e-06
7.68697e-06
7.71082e-06
7.79383e-06
7.85723e-06
7.88745e-06
7.86126e-06
7.77718e-06
7.73932e-06
7.78362e-06
7.68773e-06
7.7322e-06
7.73872e-06
7.69302e-06
7.71022e-06
7.79149e-06
7.85671e-06
7.89009e-06
7.866e-06
7.77967e-06
7.73587e-06
7.77697e-06
7.69672e-06
7.74762e-06
7.7515e-06
7.69786e-06
7.70864e-06
7.78724e-06
7.85253e-06
7.88809e-06
7.86714e-06
7.78036e-06
7.73206e-06
7.77019e-06
7.70435e-06
7.76097e-06
7.76257e-06
7.70221e-06
7.70707e-06
7.78226e-06
7.84593e-06
7.88266e-06
7.86567e-06
7.78016e-06
7.72892e-06
7.76451e-06
7.71132e-06
7.7728e-06
7.77241e-06
7.70677e-06
7.70657e-06
7.7778e-06
7.83826e-06
7.87511e-06
7.86267e-06
7.78001e-06
7.7274e-06
7.76109e-06
7.71836e-06
7.7837e-06
7.78151e-06
7.71228e-06
7.70821e-06
7.77517e-06
7.83096e-06
7.86684e-06
7.85926e-06
7.78083e-06
7.72841e-06
7.76098e-06
7.72624e-06
7.79426e-06
7.79039e-06
7.71946e-06
7.71306e-06
7.77569e-06
7.82549e-06
7.85929e-06
7.8566e-06
7.78351e-06
7.73276e-06
7.76514e-06
7.73572e-06
7.80515e-06
7.79961e-06
7.72902e-06
7.72214e-06
7.78066e-06
7.82329e-06
7.85389e-06
7.8558e-06
7.78888e-06
7.74113e-06
7.77434e-06
7.74765e-06
7.8171e-06
7.80977e-06
7.74164e-06
7.73641e-06
7.79128e-06
7.82578e-06
7.85204e-06
7.85794e-06
7.79766e-06
7.75403e-06
7.78915e-06
7.76287e-06
7.83091e-06
7.82152e-06
7.75796e-06
7.75669e-06
7.80862e-06
7.83422e-06
7.85501e-06
7.86397e-06
7.81042e-06
7.77178e-06
7.8099e-06
2.73021e-07
2.76283e-07
2.85611e-07
2.9423e-07
2.88686e-07
2.81293e-07
2.81306e-07
2.76208e-07
2.72495e-07
2.85595e-07
3.01115e-07
3.01576e-07
5.09149e-08
5.10801e-08
5.27984e-08
5.43798e-08
5.38987e-08
5.32302e-08
5.31387e-08
5.19599e-08
5.12187e-08
5.33631e-08
5.60478e-08
5.62522e-08
7.24745e-08
7.03191e-08
7.26694e-08
7.4756e-08
7.7073e-08
7.99919e-08
7.93539e-08
7.64334e-08
7.50989e-08
7.65236e-08
7.91929e-08
8.01073e-08
2.14107e-07
2.06047e-07
2.12957e-07
2.18883e-07
2.27825e-07
2.39284e-07
2.37078e-07
2.27607e-07
2.2348e-07
2.2647e-07
2.33445e-07
2.36548e-07
5.25235e-07
5.04849e-07
5.21862e-07
5.35899e-07
5.58413e-07
5.87798e-07
5.8244e-07
5.59095e-07
5.49013e-07
5.5569e-07
5.72148e-07
5.79779e-07
1.0719e-06
1.02993e-06
1.06472e-06
1.0921e-06
1.13785e-06
1.19902e-06
1.18856e-06
1.14142e-06
1.12124e-06
1.13395e-06
1.16633e-06
1.18161e-06
1.91629e-06
1.84081e-06
1.90284e-06
1.9489e-06
2.0296e-06
2.14073e-06
2.12323e-06
2.04058e-06
2.00569e-06
2.0265e-06
2.08167e-06
2.10821e-06
3.10321e-06
2.98023e-06
3.07964e-06
3.14848e-06
3.27653e-06
3.45918e-06
3.43325e-06
3.3032e-06
3.24955e-06
3.27943e-06
3.36302e-06
3.40441e-06
4.64701e-06
4.46169e-06
4.6076e-06
4.7004e-06
4.88694e-06
5.16392e-06
5.12932e-06
4.94213e-06
4.86771e-06
4.90567e-06
5.02008e-06
5.07921e-06
6.52265e-06
6.26109e-06
6.45965e-06
6.5733e-06
6.82583e-06
7.218e-06
7.17616e-06
6.92679e-06
6.8331e-06
6.87578e-06
7.01845e-06
7.09679e-06
8.66471e-06
8.31609e-06
8.56905e-06
8.69538e-06
9.01552e-06
9.53816e-06
9.49246e-06
9.18261e-06
9.07564e-06
9.11768e-06
9.28027e-06
9.37727e-06
1.0975e-05
1.05336e-05
1.08377e-05
1.09636e-05
1.13458e-05
1.20054e-05
1.19611e-05
1.16001e-05
1.14903e-05
1.15254e-05
1.16942e-05
1.1807e-05
1.33357e-05
1.28025e-05
1.31495e-05
1.32583e-05
1.36892e-05
1.44816e-05
1.44456e-05
1.40499e-05
1.39514e-05
1.39734e-05
1.41311e-05
1.42545e-05
1.56478e-05
1.50265e-05
1.54109e-05
1.54869e-05
1.59507e-05
1.68682e-05
1.68473e-05
1.64317e-05
1.63572e-05
1.63654e-05
1.64989e-05
1.66251e-05
1.78619e-05
1.7159e-05
1.75738e-05
1.76013e-05
1.80801e-05
1.91104e-05
1.91109e-05
1.86916e-05
1.86542e-05
1.86497e-05
1.87461e-05
1.8866e-05
1.99371e-05
1.91614e-05
1.95986e-05
1.95627e-05
2.00379e-05
2.11649e-05
2.11921e-05
2.07848e-05
2.07972e-05
2.07833e-05
2.08315e-05
2.09349e-05
2.18424e-05
2.10041e-05
2.14553e-05
2.13429e-05
2.17968e-05
2.30016e-05
2.30587e-05
2.2678e-05
2.27516e-05
2.27338e-05
2.27245e-05
2.28006e-05
2.35568e-05
2.26664e-05
2.31225e-05
2.29231e-05
2.33403e-05
2.46022e-05
2.46901e-05
2.43483e-05
2.44931e-05
2.44785e-05
2.44048e-05
2.44427e-05
2.50675e-05
2.41354e-05
2.45867e-05
2.42931e-05
2.46613e-05
2.5959e-05
2.60756e-05
2.5782e-05
2.60063e-05
2.60037e-05
2.58605e-05
2.58496e-05
2.63693e-05
2.5405e-05
2.58412e-05
2.54494e-05
2.57605e-05
2.70725e-05
2.72128e-05
2.69739e-05
2.72841e-05
2.73029e-05
2.70869e-05
2.70173e-05
2.74622e-05
2.64746e-05
2.68848e-05
2.63943e-05
2.66446e-05
2.79498e-05
2.81056e-05
2.79252e-05
2.83261e-05
2.83758e-05
2.80846e-05
2.79474e-05
2.83505e-05
2.73477e-05
2.77206e-05
2.71341e-05
2.73242e-05
2.86022e-05
2.87627e-05
2.86422e-05
2.91369e-05
2.92259e-05
2.88574e-05
2.86457e-05
2.90401e-05
2.80302e-05
2.83541e-05
2.76774e-05
2.78122e-05
2.90427e-05
2.91949e-05
2.91342e-05
2.9724e-05
2.98586e-05
2.94109e-05
2.91201e-05
2.95367e-05
2.85281e-05
2.87914e-05
2.80333e-05
2.81208e-05
2.9284e-05
2.94132e-05
2.94113e-05
3.00959e-05
3.02786e-05
2.975e-05
2.93788e-05
2.98434e-05
2.88459e-05
2.90369e-05
2.82088e-05
2.82599e-05
2.93358e-05
2.94266e-05
2.94826e-05
3.02592e-05
3.04884e-05
2.98775e-05
2.94284e-05
2.99593e-05
2.89843e-05
2.90922e-05
2.82079e-05
2.82348e-05
2.92037e-05
2.92416e-05
2.93543e-05
3.02173e-05
3.04868e-05
2.9793e-05
2.92726e-05
2.98787e-05
2.89398e-05
2.89546e-05
2.80301e-05
2.80459e-05
2.8889e-05
2.88615e-05
2.903e-05
2.99701e-05
3.02683e-05
2.94929e-05
2.89121e-05
2.95899e-05
2.87037e-05
2.86168e-05
2.76703e-05
2.76872e-05
2.83875e-05
2.82867e-05
2.85101e-05
2.95116e-05
2.98206e-05
2.89691e-05
2.83446e-05
2.90648e-05
2.82549e-05
2.80584e-05
2.71117e-05
2.71397e-05
2.76835e-05
2.75108e-05
2.77877e-05
2.88223e-05
2.91138e-05
2.82017e-05
2.75594e-05
2.82664e-05
2.75599e-05
2.72487e-05
2.63265e-05
2.63722e-05
2.67534e-05
2.65218e-05
2.68486e-05
2.78753e-05
2.81165e-05
2.71692e-05
2.65412e-05
2.71875e-05
2.66049e-05
2.61808e-05
2.53064e-05
2.53737e-05
2.55968e-05
2.53242e-05
2.56944e-05
2.66728e-05
2.68375e-05
2.58814e-05
2.52966e-05
2.58767e-05
2.54273e-05
2.48982e-05
2.40882e-05
2.41799e-05
2.42539e-05
2.3954e-05
2.43612e-05
2.52637e-05
2.53351e-05
2.4388e-05
2.38659e-05
2.4341e-05
2.4019e-05
2.34072e-05
2.26729e-05
2.27873e-05
2.27351e-05
2.24251e-05
2.28589e-05
2.36631e-05
2.36337e-05
2.27152e-05
2.22698e-05
2.26276e-05
2.24244e-05
2.17515e-05
2.11e-05
2.12333e-05
2.10819e-05
2.07792e-05
2.12277e-05
2.19174e-05
2.1788e-05
2.09168e-05
2.05558e-05
2.07975e-05
2.06992e-05
1.99881e-05
1.94223e-05
1.95695e-05
1.93476e-05
1.90677e-05
1.95189e-05
2.0085e-05
1.98638e-05
1.90559e-05
1.87808e-05
1.89152e-05
1.89042e-05
1.81787e-05
1.76975e-05
1.78525e-05
1.75885e-05
1.73431e-05
1.77854e-05
1.82266e-05
1.79286e-05
1.71962e-05
1.70027e-05
1.70433e-05
1.70994e-05
1.63827e-05
1.59823e-05
1.61392e-05
1.58584e-05
1.56543e-05
1.60769e-05
1.63995e-05
1.60446e-05
1.53956e-05
1.52749e-05
1.52372e-05
1.53399e-05
1.46539e-05
1.43282e-05
1.44818e-05
1.42049e-05
1.40434e-05
1.44371e-05
1.46535e-05
1.42647e-05
1.37026e-05
1.36427e-05
1.3543e-05
1.36731e-05
1.30368e-05
1.27787e-05
1.29247e-05
1.26665e-05
1.2544e-05
1.29014e-05
1.30289e-05
1.26298e-05
1.21544e-05
1.21415e-05
1.19953e-05
1.21363e-05
1.15656e-05
1.13675e-05
1.15031e-05
1.12723e-05
1.11808e-05
1.14968e-05
1.15554e-05
1.11684e-05
1.07763e-05
1.07967e-05
1.06173e-05
1.07563e-05
1.02632e-05
1.01181e-05
1.02418e-05
1.00415e-05
9.97026e-06
1.02413e-05
1.0252e-05
9.89716e-06
9.58277e-06
9.62366e-06
9.42204e-06
9.55012e-06
9.14309e-06
9.04452e-06
9.15607e-06
8.98498e-06
8.92134e-06
9.14572e-06
9.12886e-06
8.82304e-06
8.58002e-06
8.63011e-06
8.41437e-06
8.52587e-06
8.21047e-06
8.15342e-06
8.25349e-06
8.10685e-06
8.03753e-06
8.21481e-06
8.18917e-06
7.94603e-06
7.76799e-06
7.81786e-06
7.59311e-06
7.68531e-06
7.46509e-06
7.44616e-06
7.53606e-06
7.40675e-06
7.31853e-06
7.44907e-06
7.43117e-06
7.2619e-06
7.1431e-06
7.18523e-06
6.95378e-06
7.02601e-06
6.90359e-06
6.92144e-06
7.00284e-06
6.88208e-06
6.76218e-06
6.84668e-06
6.85071e-06
6.76485e-06
6.70049e-06
6.72924e-06
6.49086e-06
6.54379e-06
6.52192e-06
6.57762e-06
6.65234e-06
6.53006e-06
6.36611e-06
6.40515e-06
6.44323e-06
6.44965e-06
6.43546e-06
6.44733e-06
6.19958e-06
6.23496e-06
6.31675e-06
6.41301e-06
6.48314e-06
6.34858e-06
6.12891e-06
6.12268e-06
6.20509e-06
6.31103e-06
6.3399e-06
6.33523e-06
6.07504e-06
6.09672e-06
6.27343e-06
6.38788e-06
6.45894e-06
6.31403e-06
6.04495e-06
5.99649e-06
6.12854e-06
6.29031e-06
6.34537e-06
6.32534e-06
6.05419e-06
6.07857e-06
6.33183e-06
6.46802e-06
6.54206e-06
6.38208e-06
6.05066e-06
5.96877e-06
6.14702e-06
6.37108e-06
6.44727e-06
6.41726e-06
6.13241e-06
6.16277e-06
6.48098e-06
6.629e-06
6.70215e-06
6.53242e-06
6.15009e-06
6.03678e-06
6.26027e-06
6.52506e-06
6.61056e-06
6.58629e-06
6.28905e-06
6.32769e-06
6.66859e-06
6.80897e-06
6.87277e-06
6.71066e-06
6.32405e-06
6.18997e-06
6.4385e-06
6.68979e-06
6.77155e-06
6.7697e-06
6.47679e-06
6.52585e-06
6.8326e-06
6.9564e-06
7.00988e-06
6.86389e-06
6.5216e-06
6.39254e-06
6.62315e-06
6.82864e-06
6.90857e-06
6.92619e-06
6.64375e-06
6.70011e-06
6.96355e-06
7.0752e-06
7.12147e-06
6.99224e-06
6.69695e-06
6.5872e-06
6.77984e-06
6.94763e-06
7.02937e-06
7.06127e-06
6.78565e-06
6.84397e-06
7.07276e-06
7.1758e-06
7.21749e-06
7.10489e-06
6.85e-06
6.7555e-06
6.91481e-06
7.05369e-06
7.139e-06
7.18177e-06
6.91029e-06
6.9671e-06
7.16758e-06
7.26439e-06
7.30356e-06
7.20708e-06
6.98735e-06
6.90458e-06
7.03489e-06
7.15048e-06
7.23961e-06
7.29106e-06
7.02217e-06
7.07554e-06
7.25215e-06
7.34412e-06
7.38233e-06
7.30125e-06
7.11263e-06
7.03919e-06
7.14381e-06
7.23954e-06
7.33164e-06
7.39028e-06
7.12359e-06
7.17265e-06
7.32852e-06
7.41626e-06
7.45464e-06
7.38821e-06
7.22745e-06
7.16179e-06
7.24328e-06
7.3212e-06
7.4147e-06
7.47932e-06
7.2156e-06
7.26021e-06
7.39759e-06
7.48113e-06
7.52048e-06
7.46792e-06
7.33233e-06
7.27343e-06
7.33392e-06
7.39528e-06
7.48821e-06
7.55769e-06
7.29863e-06
7.33915e-06
7.45978e-06
7.53871e-06
7.5795e-06
7.54004e-06
7.42727e-06
7.37444e-06
7.41586e-06
7.46147e-06
7.55173e-06
7.6249e-06
7.37293e-06
7.41005e-06
7.51531e-06
7.58892e-06
7.63138e-06
7.60424e-06
7.51217e-06
7.46491e-06
7.48911e-06
7.5196e-06
7.60508e-06
7.6807e-06
7.43879e-06
7.47338e-06
7.56445e-06
7.6318e-06
7.6759e-06
7.66032e-06
7.58696e-06
7.54491e-06
7.55371e-06
7.56967e-06
7.64841e-06
7.7252e-06
7.49661e-06
7.52964e-06
7.60749e-06
7.66754e-06
7.71302e-06
7.70824e-06
7.65176e-06
7.61463e-06
7.60985e-06
7.61185e-06
7.68212e-06
7.75878e-06
7.54689e-06
7.57935e-06
7.64483e-06
7.69645e-06
7.74289e-06
7.74813e-06
7.70683e-06
7.67439e-06
7.65782e-06
7.6465e-06
7.70682e-06
7.78208e-06
7.59022e-06
7.62308e-06
7.6769e-06
7.71899e-06
7.76577e-06
7.78025e-06
7.75256e-06
7.72463e-06
7.69802e-06
7.67408e-06
7.72328e-06
7.79596e-06
7.62725e-06
7.66139e-06
7.70417e-06
7.7357e-06
7.7821e-06
7.805e-06
7.78946e-06
7.76587e-06
7.73093e-06
7.69515e-06
7.7324e-06
7.80142e-06
7.65864e-06
7.69487e-06
7.72713e-06
7.74719e-06
7.79242e-06
7.82289e-06
7.81813e-06
7.7987e-06
7.7571e-06
7.71034e-06
7.73514e-06
7.79961e-06
7.68506e-06
7.72406e-06
7.74627e-06
7.75417e-06
7.79739e-06
7.83454e-06
7.83923e-06
7.82379e-06
7.7771e-06
7.72034e-06
7.73256e-06
7.7918e-06
7.70716e-06
7.74948e-06
7.7621e-06
7.75738e-06
7.7978e-06
7.8407e-06
7.85351e-06
7.84183e-06
7.79157e-06
7.72591e-06
7.72576e-06
7.77932e-06
7.72558e-06
7.77162e-06
7.7751e-06
7.75762e-06
7.79455e-06
7.84221e-06
7.86179e-06
7.85358e-06
7.80121e-06
7.72781e-06
7.71585e-06
7.76359e-06
7.74092e-06
7.79095e-06
7.78576e-06
7.75573e-06
7.78861e-06
7.84004e-06
7.86498e-06
7.85988e-06
7.80673e-06
7.72686e-06
7.70396e-06
7.74602e-06
7.75376e-06
7.8079e-06
7.79455e-06
7.75254e-06
7.78108e-06
7.83527e-06
7.86407e-06
7.86159e-06
7.80889e-06
7.72389e-06
7.69121e-06
7.72807e-06
7.76468e-06
7.82288e-06
7.80193e-06
7.74893e-06
7.7731e-06
7.82906e-06
7.86016e-06
7.85968e-06
7.80852e-06
7.71973e-06
7.67868e-06
7.71109e-06
7.77421e-06
7.83628e-06
7.80833e-06
7.74574e-06
7.76583e-06
7.82266e-06
7.85439e-06
7.85515e-06
7.80642e-06
7.7152e-06
7.66738e-06
7.69641e-06
7.78293e-06
7.84849e-06
7.81419e-06
7.7438e-06
7.76049e-06
7.81737e-06
7.84801e-06
7.8491e-06
7.80346e-06
7.71112e-06
7.65823e-06
7.68519e-06
7.79141e-06
7.85991e-06
7.81994e-06
7.74388e-06
7.75824e-06
7.81453e-06
7.84229e-06
7.84263e-06
7.8005e-06
7.70825e-06
7.65204e-06
7.67844e-06
7.80025e-06
7.871e-06
7.826e-06
7.7467e-06
7.76018e-06
7.81543e-06
7.83855e-06
7.83691e-06
7.7984e-06
7.70731e-06
7.64952e-06
7.67699e-06
7.81011e-06
7.88224e-06
7.83283e-06
7.75293e-06
7.76732e-06
7.82132e-06
7.8381e-06
7.83312e-06
7.79802e-06
7.70897e-06
7.65121e-06
7.68143e-06
7.82172e-06
7.89422e-06
7.8409e-06
7.76311e-06
7.78053e-06
7.83334e-06
7.84221e-06
7.83243e-06
7.8002e-06
7.71383e-06
7.6575e-06
7.69213e-06
7.83589e-06
7.90762e-06
7.85074e-06
7.77769e-06
7.80045e-06
7.85244e-06
7.85207e-06
7.83596e-06
7.80575e-06
7.72241e-06
7.66862e-06
7.70918e-06
2.7576e-07
2.79047e-07
2.8905e-07
2.97113e-07
2.90766e-07
2.83611e-07
2.84132e-07
2.79461e-07
2.76009e-07
2.89084e-07
3.04292e-07
3.04478e-07
5.17084e-08
5.1849e-08
5.36339e-08
5.51018e-08
5.4458e-08
5.38268e-08
5.37982e-08
5.26138e-08
5.1898e-08
5.41444e-08
5.68633e-08
5.69747e-08
7.51119e-08
7.27581e-08
7.48773e-08
7.67516e-08
7.87802e-08
8.17166e-08
8.09892e-08
7.75968e-08
7.61741e-08
7.83229e-08
8.15383e-08
8.2096e-08
2.22954e-07
2.14168e-07
2.20136e-07
2.25426e-07
2.33543e-07
2.45038e-07
2.42394e-07
2.3116e-07
2.26686e-07
2.3225e-07
2.41202e-07
2.43088e-07
5.47302e-07
5.25007e-07
5.39524e-07
5.52098e-07
5.72827e-07
6.02319e-07
5.95658e-07
5.67719e-07
5.56758e-07
5.69996e-07
5.91472e-07
5.96043e-07
1.11709e-06
1.07099e-06
1.10038e-06
1.12507e-06
1.16784e-06
1.22927e-06
1.21564e-06
1.15867e-06
1.13669e-06
1.16313e-06
1.20592e-06
1.21489e-06
1.99712e-06
1.9138e-06
1.96562e-06
2.00755e-06
2.08434e-06
2.19602e-06
2.17172e-06
2.07063e-06
2.03255e-06
2.07853e-06
2.15253e-06
2.1677e-06
3.23391e-06
3.09753e-06
3.17941e-06
3.24291e-06
3.36736e-06
3.55089e-06
3.51183e-06
3.35039e-06
3.29165e-06
3.36334e-06
3.47774e-06
3.50063e-06
4.84204e-06
4.6357e-06
4.75386e-06
4.84108e-06
5.02678e-06
5.30488e-06
5.24701e-06
5.01046e-06
4.92851e-06
5.03068e-06
5.19158e-06
5.22299e-06
6.79482e-06
6.50267e-06
6.66039e-06
6.77013e-06
7.02842e-06
7.4215e-06
7.34147e-06
7.01954e-06
6.91536e-06
7.05031e-06
7.25854e-06
7.29814e-06
9.02337e-06
8.63317e-06
8.82975e-06
8.95684e-06
9.29446e-06
9.81694e-06
9.71274e-06
9.30227e-06
9.18127e-06
9.34841e-06
9.59827e-06
9.64429e-06
1.14246e-05
1.09301e-05
1.11608e-05
1.12962e-05
1.17135e-05
1.23706e-05
1.22422e-05
1.17487e-05
1.16206e-05
1.18166e-05
1.2096e-05
1.21451e-05
1.38753e-05
1.32778e-05
1.35344e-05
1.36663e-05
1.41562e-05
1.49424e-05
1.4792e-05
1.42295e-05
1.41071e-05
1.43268e-05
1.46185e-05
1.46662e-05
1.62726e-05
1.5577e-05
1.5855e-05
1.59728e-05
1.65256e-05
1.7431e-05
1.72607e-05
1.6643e-05
1.6539e-05
1.67813e-05
1.70713e-05
1.71108e-05
1.85646e-05
1.77794e-05
1.80742e-05
1.81672e-05
1.87703e-05
1.97803e-05
1.95924e-05
1.89357e-05
1.88631e-05
1.91271e-05
1.94009e-05
1.94248e-05
2.07078e-05
1.98447e-05
2.01517e-05
2.02102e-05
2.08494e-05
2.19451e-05
2.17421e-05
2.10641e-05
2.10353e-05
2.13205e-05
2.1564e-05
2.15645e-05
2.26693e-05
2.17422e-05
2.20574e-05
2.20728e-05
2.27335e-05
2.38934e-05
2.36772e-05
2.29956e-05
2.30222e-05
2.33281e-05
2.35282e-05
2.34975e-05
2.44267e-05
2.34506e-05
2.37701e-05
2.37356e-05
2.44038e-05
2.56046e-05
2.53763e-05
2.47083e-05
2.48004e-05
2.51261e-05
2.52713e-05
2.52022e-05
2.59662e-05
2.4957e-05
2.52768e-05
2.51876e-05
2.58507e-05
2.70683e-05
2.6828e-05
2.61895e-05
2.63556e-05
2.67001e-05
2.67799e-05
2.66656e-05
2.72822e-05
2.62553e-05
2.65713e-05
2.64243e-05
2.70719e-05
2.82828e-05
2.80289e-05
2.74344e-05
2.76816e-05
2.80425e-05
2.80477e-05
2.78828e-05
2.83752e-05
2.73454e-05
2.76528e-05
2.74468e-05
2.80712e-05
2.92525e-05
2.89823e-05
2.84444e-05
2.87781e-05
2.91521e-05
2.90737e-05
2.88544e-05
2.92502e-05
2.82317e-05
2.85248e-05
2.82601e-05
2.88559e-05
2.99863e-05
2.96955e-05
2.92256e-05
2.96495e-05
3.00314e-05
2.9861e-05
2.95854e-05
2.99147e-05
2.89208e-05
2.91928e-05
2.88711e-05
2.94355e-05
3.04952e-05
3.01789e-05
2.97867e-05
3.03025e-05
3.06846e-05
3.04146e-05
3.00832e-05
3.03767e-05
2.94198e-05
2.96624e-05
2.92864e-05
2.98188e-05
3.07898e-05
3.04431e-05
3.01366e-05
3.07436e-05
3.11157e-05
3.07392e-05
3.03554e-05
3.06415e-05
2.97338e-05
2.99371e-05
2.95104e-05
3.00117e-05
3.08781e-05
3.04971e-05
3.02827e-05
3.0977e-05
3.1326e-05
3.08379e-05
3.04083e-05
3.0711e-05
2.98643e-05
3.00167e-05
2.95437e-05
3.00162e-05
3.07642e-05
3.03471e-05
3.02296e-05
3.1003e-05
3.13132e-05
3.0711e-05
3.02455e-05
3.0582e-05
2.9808e-05
2.98965e-05
2.93825e-05
2.98289e-05
3.04484e-05
2.99958e-05
2.9978e-05
3.08178e-05
3.10715e-05
3.03561e-05
2.98679e-05
3.02452e-05
2.95557e-05
2.95662e-05
2.90178e-05
2.94409e-05
2.99256e-05
2.94427e-05
2.9525e-05
3.04121e-05
3.05894e-05
2.97681e-05
2.92739e-05
2.9676e-05
2.90844e-05
2.90016e-05
2.84294e-05
2.883e-05
2.91793e-05
2.86796e-05
2.88587e-05
2.97627e-05
2.98421e-05
2.89341e-05
2.84552e-05
2.8839e-05
2.83578e-05
2.81694e-05
2.75881e-05
2.79645e-05
2.81856e-05
2.76912e-05
2.79589e-05
2.88392e-05
2.88028e-05
2.78392e-05
2.73989e-05
2.77266e-05
2.73617e-05
2.7063e-05
2.64876e-05
2.68377e-05
2.69446e-05
2.64778e-05
2.68205e-05
2.76396e-05
2.74801e-05
2.64943e-05
2.6112e-05
2.63855e-05
2.61355e-05
2.57271e-05
2.5168e-05
2.54915e-05
2.54989e-05
2.50736e-05
2.54778e-05
2.62108e-05
2.59278e-05
2.49439e-05
2.46321e-05
2.4823e-05
2.46743e-05
2.41729e-05
2.36403e-05
2.39365e-05
2.38653e-05
2.34929e-05
2.39401e-05
2.457e-05
2.4175e-05
2.32183e-05
2.29832e-05
2.30854e-05
2.30235e-05
2.24478e-05
2.19506e-05
2.22186e-05
2.20908e-05
2.17792e-05
2.22504e-05
2.27671e-05
2.22791e-05
2.13733e-05
2.12148e-05
2.12322e-05
2.12406e-05
2.06128e-05
2.01579e-05
2.03971e-05
2.02339e-05
1.99865e-05
2.04636e-05
2.08642e-05
2.03078e-05
1.94723e-05
1.93855e-05
1.93267e-05
1.93879e-05
1.87328e-05
1.8325e-05
1.85355e-05
1.83553e-05
1.81708e-05
1.86374e-05
1.89265e-05
1.83292e-05
1.7578e-05
1.7554e-05
1.74303e-05
1.75273e-05
1.687e-05
1.65121e-05
1.66945e-05
1.65123e-05
1.6385e-05
1.68271e-05
1.70155e-05
1.64052e-05
1.57468e-05
1.5774e-05
1.5598e-05
1.57155e-05
1.50798e-05
1.47725e-05
1.49284e-05
1.47549e-05
1.46754e-05
1.50818e-05
1.51851e-05
1.45882e-05
1.40254e-05
1.40907e-05
1.38755e-05
1.40009e-05
1.34076e-05
1.315e-05
1.32817e-05
1.31237e-05
1.308e-05
1.34427e-05
1.34793e-05
1.29185e-05
1.2449e-05
1.25396e-05
1.22983e-05
1.2422e-05
1.18879e-05
1.16772e-05
1.17879e-05
1.16485e-05
1.16272e-05
1.19411e-05
1.19304e-05
1.14239e-05
1.10419e-05
1.11458e-05
1.08907e-05
1.10065e-05
1.05436e-05
1.03759e-05
1.04692e-05
1.03489e-05
1.03366e-05
1.05992e-05
1.05598e-05
1.01206e-05
9.81787e-06
9.92461e-06
9.66741e-06
9.77166e-06
9.38749e-06
9.25834e-06
9.33781e-06
9.23532e-06
9.21963e-06
9.43019e-06
9.37902e-06
9.01558e-06
8.78268e-06
8.88369e-06
8.63459e-06
8.72626e-06
8.42446e-06
8.32874e-06
8.39819e-06
8.3112e-06
8.28096e-06
8.44026e-06
8.39173e-06
8.10832e-06
7.93605e-06
8.02449e-06
7.79249e-06
7.87227e-06
7.65344e-06
7.58595e-06
7.64897e-06
7.57483e-06
7.52065e-06
7.63011e-06
7.59598e-06
7.39373e-06
7.27406e-06
7.34447e-06
7.13746e-06
7.20718e-06
7.06982e-06
7.02551e-06
7.08545e-06
7.02164e-06
6.93577e-06
6.99707e-06
6.98647e-06
6.86415e-06
6.79107e-06
6.83892e-06
6.66394e-06
6.72597e-06
6.66721e-06
6.64152e-06
6.70152e-06
6.64582e-06
6.52198e-06
6.5368e-06
6.55645e-06
6.51104e-06
6.48092e-06
6.50233e-06
6.36579e-06
6.4223e-06
6.4384e-06
6.42797e-06