/*--------------------------------*- C++ -*----------------------------------*\
| =========                 |                                                 |
| \\      /  F ield         | OpenFOAM: The Open Source CFD Toolbox           |
|  \\    /   O peration     | Version:  v1912                                 |
|   \\  /    A nd           | Website:  www.openfoam.com                      |
|    \\/     M anipulation  |                                                 |
\*---------------------------------------------------------------------------*/
FoamFile
{
    version     2.0;
    format      ascii;
    class       volVectorField;
    location    "9.6";
    object      UMean;
}
// * * * * * * * * * * * * * * * * * * * * * * * * * * * * * * * * * * * * * //

dimensions      [0 1 -1 0 0 0 0];


internalField   nonuniform List<vector> 
34128
(
(3.70744e-07 1.64943e-07 -0.0033362)
(4.22754e-07 1.66583e-07 -0.00332586)
(1.02808e-07 1.68353e-07 -0.00330925)
(-5.25352e-07 1.68082e-07 -0.00331058)
(-7.08271e-07 1.65289e-07 -0.00333368)
(-3.55693e-07 1.62779e-07 -0.00335188)
(2.60164e-07 1.62733e-07 -0.00335108)
(6.32855e-07 1.66273e-07 -0.00332537)
(-3.16426e-08 1.69203e-07 -0.00329686)
(-9.38711e-07 1.67439e-07 -0.00330644)
(-8.2026e-07 1.63941e-07 -0.00333394)
(-2.47667e-07 1.63281e-07 -0.00334451)
(1.06307e-06 1.46691e-06 -0.0101358)
(1.21999e-06 1.48886e-06 -0.0101055)
(2.9742e-07 1.51093e-06 -0.0100568)
(-1.51975e-06 1.50738e-06 -0.0100607)
(-2.04887e-06 1.47334e-06 -0.0101284)
(-1.043e-06 1.44117e-06 -0.0101818)
(7.22809e-07 1.44061e-06 -0.0101795)
(1.81452e-06 1.48301e-06 -0.010104)
(-9.39932e-08 1.51923e-06 -0.0100203)
(-2.7128e-06 1.49875e-06 -0.0100484)
(-2.37091e-06 1.45806e-06 -0.0101291)
(-7.2439e-07 1.44742e-06 -0.0101603)
(1.72049e-06 3.86611e-06 -0.0171576)
(1.98196e-06 3.92833e-06 -0.0171081)
(4.86732e-07 3.9908e-06 -0.0170284)
(-2.46413e-06 3.98082e-06 -0.0170348)
(-3.32234e-06 3.88534e-06 -0.0171456)
(-1.70688e-06 3.79442e-06 -0.0172329)
(1.14021e-06 3.79232e-06 -0.0172293)
(2.93206e-06 3.91066e-06 -0.0171056)
(-1.4997e-07 4.01269e-06 -0.0169684)
(-4.39717e-06 3.95593e-06 -0.0170145)
(-3.84238e-06 3.8426e-06 -0.0171468)
(-1.18145e-06 3.8114e-06 -0.0171979)
(2.34757e-06 7.52308e-06 -0.0243839)
(2.70989e-06 7.64612e-06 -0.0243162)
(6.69123e-07 7.77002e-06 -0.0242067)
(-3.36211e-06 7.75048e-06 -0.0242156)
(-4.53274e-06 7.56241e-06 -0.0243676)
(-2.35006e-06 7.38259e-06 -0.0244873)
(1.5115e-06 7.37751e-06 -0.0244824)
(3.98567e-06 7.60969e-06 -0.0243126)
(-2.00849e-07 7.81138e-06 -0.024124)
(-5.99431e-06 7.70067e-06 -0.0241874)
(-5.23433e-06 7.47853e-06 -0.0243692)
(-1.61652e-06 7.41559e-06 -0.0244397)
(2.94965e-06 1.23035e-05 -0.031789)
(3.40596e-06 1.25068e-05 -0.0317041)
(8.43767e-07 1.27126e-05 -0.0315666)
(-4.21674e-06 1.26806e-05 -0.0315779)
(-5.6837e-06 1.23702e-05 -0.0317688)
(-2.97499e-06 1.20727e-05 -0.0319188)
(1.83603e-06 1.20627e-05 -0.031913)
(4.97569e-06 1.24445e-05 -0.0316995)
(-2.47286e-07 1.27786e-05 -0.0314622)
(-7.50557e-06 1.25973e-05 -0.0315421)
(-6.54559e-06 1.2232e-05 -0.0317709)
(-2.02658e-06 1.21263e-05 -0.0318598)
(3.53264e-06 1.82371e-05 -0.0393424)
(4.07316e-06 1.85395e-05 -0.0392415)
(1.01056e-06 1.88477e-05 -0.0390778)
(-5.03047e-06 1.88005e-05 -0.0390915)
(-6.77847e-06 1.83388e-05 -0.0393185)
(-3.58389e-06 1.78954e-05 -0.0394969)
(2.11309e-06 1.78781e-05 -0.0394904)
(5.9023e-06 1.8444e-05 -0.039236)
(-2.8966e-07 1.89427e-05 -0.0389531)
(-8.93155e-06 1.8675e-05 -0.0390485)
(-7.77458e-06 1.8133e-05 -0.0393214)
(-2.40832e-06 1.79737e-05 -0.0394278)
(4.10265e-06 2.53016e-05 -0.0470103)
(4.7148e-06 2.57211e-05 -0.0468947)
(1.16963e-06 2.61521e-05 -0.0467068)
(-5.80563e-06 2.6087e-05 -0.0467229)
(-7.82052e-06 2.54456e-05 -0.0469832)
(-4.17956e-06 2.4829e-05 -0.0471874)
(2.34115e-06 2.48013e-05 -0.0471804)
(6.76464e-06 2.55847e-05 -0.0468883)
(-3.28811e-07 2.628e-05 -0.0465633)
(-1.02727e-05 2.59104e-05 -0.0466731)
(-8.91971e-06 2.51591e-05 -0.046987)
(-2.75854e-06 2.49354e-05 -0.0471097)
(4.66576e-06 3.34848e-05 -0.0547567)
(5.33442e-06 3.4039e-05 -0.0546277)
(1.32137e-06 3.46135e-05 -0.0544181)
(-6.5444e-06 3.45279e-05 -0.0544364)
(-8.81349e-06 3.36787e-05 -0.0547268)
(-4.76526e-06 3.28619e-05 -0.0549543)
(2.51798e-06 3.28205e-05 -0.054947)
(7.56101e-06 3.38537e-05 -0.0546209)
(-3.66088e-07 3.47776e-05 -0.0542575)
(-1.15297e-05 3.42908e-05 -0.0543805)
(-9.97956e-06 3.32978e-05 -0.0547318)
(-3.07434e-06 3.2999e-05 -0.0548696)
(5.22789e-06 4.27727e-05 -0.0625458)
(5.93569e-06 4.34786e-05 -0.0624047)
(1.46646e-06 4.42173e-05 -0.0621755)
(-7.24875e-06 4.41087e-05 -0.0621961)
(-9.76116e-06 4.30242e-05 -0.0625134)
(-5.34462e-06 4.19809e-05 -0.0627616)
(2.64088e-06 4.19216e-05 -0.0627544)
(8.28916e-06 4.32361e-05 -0.0623978)
(-4.03289e-07 4.44204e-05 -0.0619999)
(-1.27031e-05 4.38015e-05 -0.0621349)
(-1.09531e-05 4.25349e-05 -0.06252)
(-3.35323e-06 4.21504e-05 -0.0626715)
(5.79465e-06 5.31529e-05 -0.0703439)
(6.52235e-06 5.40269e-05 -0.0701919)
(1.60588e-06 5.49508e-05 -0.0699456)
(-7.92033e-06 5.48167e-05 -0.0699684)
(-1.06673e-05 5.34695e-05 -0.0703094)
(-5.92145e-06 5.2174e-05 -0.0705757)
(2.70704e-06 5.20923e-05 -0.0705687)
(8.94667e-06 5.37183e-05 -0.0701853)
(-4.42526e-07 5.51948e-05 -0.0697568)
(-1.37943e-05 5.44289e-05 -0.0699026)
(-1.18398e-05 5.28572e-05 -0.0703179)
(-3.59323e-06 5.23766e-05 -0.0704818)
(6.37119e-06 6.46127e-05 -0.0781216)
(7.0981e-06 6.56704e-05 -0.0779598)
(1.74091e-06 6.68008e-05 -0.0776985)
(-8.56048e-06 6.66386e-05 -0.0777237)
(-1.15355e-05 6.50019e-05 -0.0780854)
(-6.49954e-06 6.3429e-05 -0.0783674)
(2.71381e-06 6.33195e-05 -0.0783609)
(9.53136e-06 6.52864e-05 -0.0779541)
(-4.8604e-07 6.7087e-05 -0.0774987)
(-1.48045e-05 6.61592e-05 -0.077654)
(-1.26394e-05 6.42512e-05 -0.0780961)
(-3.7928e-06 6.36641e-05 -0.0782712)
(6.96222e-06 7.71354e-05 -0.085855)
(7.66658e-06 7.8392e-05 -0.0856844)
(1.87315e-06 7.975e-05 -0.0854102)
(-9.17012e-06 7.95574e-05 -0.0854377)
(-1.23692e-05 7.76045e-05 -0.0858174)
(-7.08248e-06 7.57295e-05 -0.0861128)
(2.65881e-06 7.55863e-05 -0.086107)
(1.00414e-05 7.79224e-05 -0.0856801)
(-5.36044e-07 8.00788e-05 -0.0852011)
(-1.57357e-05 7.89744e-05 -0.0853648)
(-1.3352e-05 7.66992e-05 -0.0858307)
(-3.95078e-06 7.59956e-05 -0.0860156)
(7.57206e-06 9.07175e-05 -0.0935271)
(8.23142e-06 9.21873e-05 -0.0933486)
(2.00448e-06 9.37943e-05 -0.0930634)
(-9.74972e-06 9.3569e-05 -0.0930932)
(-1.31713e-05 9.12739e-05 -0.0934885)
(-7.67354e-06 8.90729e-05 -0.0937953)
(2.54029e-06 8.88894e-05 -0.0937905)
(1.04758e-05 9.16211e-05 -0.0933462)
(-5.946e-07 9.41644e-05 -0.0928467)
(-1.65894e-05 9.28689e-05 -0.0930179)
(-1.39775e-05 9.01966e-05 -0.0935046)
(-4.06617e-06 8.9367e-05 -0.0936983)
(8.20492e-06 0.000105352 -0.101128)
(8.79644e-06 0.000107049 -0.100943)
(2.13729e-06 0.000108927 -0.100648)
(-1.02995e-05 0.000108666 -0.10068)
(-1.39445e-05 0.000106003 -0.101089)
(-8.2758e-06 0.000103452 -0.101405)
(2.35673e-06 0.00010322 -0.101402)
(1.08339e-05 0.000106374 -0.100943)
(-6.63406e-07 0.000109336 -0.100425)
(-1.73675e-05 0.000107835 -0.100603)
(-1.45161e-05 0.000104736 -0.101108)
(-4.13818e-06 0.00010377 -0.10131)
(8.86451e-06 0.00012099 -0.10865)
(9.36524e-06 0.000122926 -0.108457)
(2.27425e-06 0.000125096 -0.108155)
(-1.08192e-05 0.000124798 -0.10819)
(-1.4691e-05 0.000121741 -0.10861)
(-8.89193e-06 0.000118818 -0.108934)
(2.10653e-06 0.000118529 -0.108932)
(1.11149e-05 0.000122129 -0.10846)
(-7.44011e-07 0.000125541 -0.107928)
(-1.80713e-05 0.000123819 -0.108111)
(-1.49672e-05 0.000120264 -0.108632)
(-4.16596e-06 0.000119154 -0.10884)
(9.55382e-06 0.00013759 -0.11608)
(9.94094e-06 0.000139779 -0.115882)
(2.41808e-06 0.000142261 -0.115573)
(-1.13076e-05 0.000141923 -0.11561)
(-1.54119e-05 0.000138448 -0.11604)
(-9.52386e-06 0.000135131 -0.116371)
(1.78834e-06 0.000134776 -0.11637)
(1.13179e-05 0.000138844 -0.115888)
(-8.37927e-07 0.000142736 -0.115342)
(-1.87009e-05 0.000140779 -0.115531)
(-1.53295e-05 0.000136741 -0.116066)
(-4.14836e-06 0.000135477 -0.11628)
(1.02754e-05 0.000155115 -0.123411)
(1.05265e-05 0.000157568 -0.123207)
(2.57167e-06 0.000160383 -0.122893)
(-1.17631e-05 0.000160002 -0.122933)
(-1.61074e-05 0.000156086 -0.123371)
(-1.01729e-05 0.000152355 -0.123708)
(1.40117e-06 0.000151922 -0.123708)
(1.14417e-05 0.000156478 -0.123217)
(-9.46378e-07 0.000160878 -0.12266)
(-1.92559e-05 0.000158673 -0.122853)
(-1.5601e-05 0.000154126 -0.1234)
(-4.08399e-06 0.000152702 -0.123619)
(1.10318e-05 0.000173525 -0.130634)
(1.11248e-05 0.000176252 -0.130426)
(2.73806e-06 0.000179418 -0.130107)
(-1.21835e-05 0.000178993 -0.130149)
(-1.67772e-05 0.000174614 -0.130594)
(-1.08398e-05 0.000170448 -0.130936)
(9.44281e-07 0.000169926 -0.130938)
(1.14855e-05 0.000174987 -0.130439)
(-1.07034e-06 0.000179923 -0.129872)
(-1.97352e-05 0.000177457 -0.130069)
(-1.57789e-05 0.000172377 -0.130627)
(-3.97117e-06 0.000170786 -0.13085)
(1.1825e-05 0.000192777 -0.137743)
(1.17387e-05 0.000195787 -0.137531)
(2.92041e-06 0.000199324 -0.137208)
(-1.25664e-05 0.000198851 -0.137253)
(-1.74206e-05 0.000193989 -0.137704)
(-1.15249e-05 0.000189371 -0.138049)
(4.17263e-07 0.000188746 -0.138053)
(1.14483e-05 0.000194326 -0.137548)
(-1.21051e-06 0.000199824 -0.136972)
(-2.01367e-05 0.000197083 -0.137173)
(-1.58598e-05 0.00019145 -0.13774)
(-3.80783e-06 0.000189687 -0.137967)
(1.26571e-05 0.000212829 -0.144732)
(1.23708e-05 0.000216132 -0.144516)
(3.12192e-06 0.000220057 -0.14419)
(-1.29089e-05 0.000219533 -0.144238)
(-1.8036e-05 0.000214168 -0.144693)
(-1.22277e-05 0.00020908 -0.145042)
(-1.79971e-07 0.000208337 -0.145048)
(1.13289e-05 0.000214449 -0.144538)
(-1.36731e-06 0.000220532 -0.143954)
(-2.04575e-05 0.000217505 -0.144159)
(-1.58392e-05 0.000211301 -0.144734)
(-3.59146e-06 0.000209361 -0.144964)
(1.353e-05 0.000233637 -0.151595)
(1.30238e-05 0.000237242 -0.151377)
(3.34582e-06 0.000241571 -0.151048)
(-1.32078e-05 0.000240994 -0.151098)
(-1.86215e-05 0.000235108 -0.151558)
(-1.29473e-05 0.000229533 -0.151908)
(-8.47094e-07 0.000228657 -0.151916)
(1.11262e-05 0.000235309 -0.151402)
(-1.5408e-06 0.000241998 -0.150812)
(-2.06937e-05 0.000238674 -0.15102)
(-1.5712e-05 0.000231883 -0.151602)
(-3.31905e-06 0.000229764 -0.151834)
(1.44455e-05 0.000255157 -0.158327)
(1.37001e-05 0.000259072 -0.158107)
(3.59524e-06 0.000263821 -0.157776)
(-1.34597e-05 0.000263186 -0.157828)
(-1.91747e-05 0.000256763 -0.15829)
(-1.3682e-05 0.000250686 -0.158643)
(-1.58324e-06 0.000249659 -0.158653)
(1.08391e-05 0.000256859 -0.158136)
(-1.73062e-06 0.000264174 -0.15754)
(-2.08404e-05 0.000260541 -0.157751)
(-1.54724e-05 0.00025315 -0.158338)
(-2.9871e-06 0.000250851 -0.158572)
(1.54051e-05 0.00027734 -0.164921)
(1.44022e-05 0.000281573 -0.164699)
(3.87317e-06 0.000286757 -0.164367)
(-1.36609e-05 0.000286061 -0.16442)
(-1.96927e-05 0.000279086 -0.164885)
(-1.44297e-05 0.000272491 -0.165238)
(-2.38686e-06 0.000271294 -0.165251)
(1.04663e-05 0.000279046 -0.164732)
(-1.93589e-06 0.000287003 -0.164132)
(-2.08918e-05 0.000283053 -0.164345)
(-1.51136e-05 0.000275053 -0.164937)
(-2.59155e-06 0.000272573 -0.165171)
(1.64104e-05 0.000300135 -0.171368)
(1.5132e-05 0.000304694 -0.171146)
(4.1824e-06 0.000310326 -0.170813)
(-1.38075e-05 0.000309566 -0.170868)
(-2.01721e-05 0.000302023 -0.171334)
(-1.5187e-05 0.000294895 -0.171687)
(-3.25548e-06 0.00029351 -0.171703)
(1.00073e-05 0.000301816 -0.171183)
(-2.15507e-06 0.00031043 -0.17058)
(-2.08408e-05 0.000306151 -0.170794)
(-1.46284e-05 0.000297536 -0.171389)
(-2.12782e-06 0.000294878 -0.171624)
(1.74622e-05 0.000323484 -0.177662)
(1.58914e-05 0.000328376 -0.17744)
(4.52538e-06 0.000334472 -0.177107)
(-1.38958e-05 0.000333643 -0.177163)
(-2.06093e-05 0.000325518 -0.177629)
(-1.595e-05 0.000317842 -0.177982)
(-4.18547e-06 0.000316246 -0.177999)
(9.46163e-06 0.000325106 -0.177481)
(-2.38577e-06 0.000334392 -0.176875)
(-2.06797e-05 0.000329775 -0.177091)
(-1.40091e-05 0.000320541 -0.177688)
(-1.59083e-06 0.000317708 -0.177922)
(1.85616e-05 0.000347324 -0.183792)
(1.6682e-05 0.000352557 -0.183571)
(4.90429e-06 0.00035913 -0.183239)
(-1.39216e-05 0.000358228 -0.183295)
(-2.10001e-05 0.000349507 -0.183761)
(-1.67136e-05 0.000341267 -0.184111)
(-5.17181e-06 0.000339439 -0.184132)
(8.83016e-06 0.000348851 -0.183615)
(-2.62456e-06 0.000358819 -0.183009)
(-2.03996e-05 0.000353856 -0.183226)
(-1.32477e-05 0.000344002 -0.183822)
(-9.75059e-07 0.000340999 -0.184056)
(1.97092e-05 0.000371583 -0.189748)
(1.7505e-05 0.000377165 -0.189529)
(5.32096e-06 0.000384229 -0.189198)
(-1.38809e-05 0.00038325 -0.189255)
(-2.13401e-05 0.00037392 -0.189718)
(-1.7472e-05 0.000365099 -0.190066)
(-6.20782e-06 0.000363014 -0.190089)
(8.11488e-06 0.000372975 -0.189577)
(-2.86671e-06 0.000383636 -0.188971)
(-1.99911e-05 0.000378317 -0.189188)
(-1.23363e-05 0.000367847 -0.189783)
(-2.74537e-07 0.000364679 -0.190015)
(2.09057e-05 0.000396182 -0.19552)
(1.83618e-05 0.000402121 -0.195304)
(5.77698e-06 0.00040969 -0.194975)
(-1.37699e-05 0.00040863 -0.195032)
(-2.16245e-05 0.000398675 -0.195491)
(-1.8218e-05 0.000389257 -0.195835)
(-7.285e-06 0.00038689 -0.195861)
(7.31961e-06 0.000397395 -0.195354)
(-3.10596e-06 0.000408758 -0.194751)
(-1.9444e-05 0.000403074 -0.194968)
(-1.1267e-05 0.000391992 -0.195558)
(5.17071e-07 0.000388668 -0.195788)
(2.21517e-05 0.000421028 -0.201097)
(1.92536e-05 0.000427332 -0.200885)
(6.27382e-06 0.000435421 -0.200559)
(-1.35846e-05 0.000434276 -0.200616)
(-2.18484e-05 0.000423682 -0.20107)
(-1.8944e-05 0.000413648 -0.201409)
(-8.39282e-06 0.000410973 -0.201437)
(6.45032e-06 0.000422015 -0.200938)
(-3.33419e-06 0.000434087 -0.200339)
(-1.87476e-05 0.00042803 -0.200555)
(-1.00324e-05 0.000416344 -0.201139)
(1.4065e-06 0.000412873 -0.201366)
(2.34487e-05 0.000446017 -0.206471)
(2.01824e-05 0.000452696 -0.206264)
(6.81303e-06 0.00046132 -0.205942)
(-1.33211e-05 0.000460085 -0.205998)
(-2.2007e-05 0.000448837 -0.206446)
(-1.9641e-05 0.000438167 -0.206778)
(-9.51874e-06 0.000435157 -0.206809)
(5.51551e-06 0.000446727 -0.20632)
(-3.54124e-06 0.000459514 -0.205727)
(-1.78904e-05 0.000453077 -0.20594)
(-8.62516e-06 0.000440798 -0.206517)
(2.40099e-06 0.000437191 -0.206739)
(2.47989e-05 0.000471034 -0.211635)
(2.11505e-05 0.000478096 -0.211433)
(7.39628e-06 0.00048727 -0.211116)
(-1.29758e-05 0.000485941 -0.211172)
(-2.20951e-05 0.000474023 -0.211611)
(-2.02997e-05 0.000462696 -0.211936)
(-1.06481e-05 0.000459323 -0.211969)
(4.52638e-06 0.000471413 -0.211491)
(-3.71467e-06 0.000484918 -0.210907)
(-1.68605e-05 0.000478092 -0.211117)
(-7.03853e-06 0.000465235 -0.211683)
(3.50835e-06 0.000461506 -0.2119)
(2.62045e-05 0.000495927 -0.216581)
(2.21606e-05 0.000503382 -0.216386)
(8.02519e-06 0.000513124 -0.216076)
(-1.2545e-05 0.000511696 -0.21613)
(-2.21079e-05 0.000499089 -0.216559)
(-2.09094e-05 0.000487083 -0.216875)
(-1.17637e-05 0.000483316 -0.216911)
(3.49722e-06 0.000495917 -0.216446)
(-3.83982e-06 0.000510144 -0.215873)
(-1.56458e-05 0.000502922 -0.216079)
(-5.26655e-06 0.000489501 -0.216632)
(4.73676e-06 0.000485666 -0.216843)
(2.7668e-05 0.000520517 -0.221303)
(2.32149e-05 0.000528376 -0.221116)
(8.70121e-06 0.0005387 -0.220814)
(-1.20255e-05 0.00053717 -0.220865)
(-2.20401e-05 0.000523856 -0.221282)
(-2.14584e-05 0.000511146 -0.221588)
(-1.28457e-05 0.000506957 -0.221626)
(2.44573e-06 0.000520055 -0.221177)
(-3.89968e-06 0.000535005 -0.220617)
(-1.42349e-05 0.00052738 -0.220818)
(-3.30479e-06 0.000513416 -0.221356)
(6.09429e-06 0.000509492 -0.22156)
(2.91915e-05 0.000544619 -0.225793)
(2.43158e-05 0.000552892 -0.225615)
(9.42559e-06 0.000563815 -0.225322)
(-1.14141e-05 0.000562177 -0.225371)
(-2.18861e-05 0.00054814 -0.225774)
(-2.19336e-05 0.000534701 -0.226067)
(-1.38716e-05 0.000530059 -0.226107)
(1.3933e-06 0.000543638 -0.225676)
(-3.87494e-06 0.000559308 -0.225132)
(-1.26168e-05 0.000551274 -0.225327)
(-1.15056e-06 0.000536793 -0.225847)
(7.5886e-06 0.000532801 -0.226043)
(3.07774e-05 0.000568038 -0.230044)
(2.54655e-05 0.000576736 -0.229876)
(1.01995e-05 0.000588271 -0.229593)
(-1.0708e-05 0.000586522 -0.229639)
(-2.16397e-05 0.000571743 -0.230026)
(-2.23201e-05 0.00055755 -0.230306)
(-1.48161e-05 0.000552426 -0.230348)
(3.65197e-07 0.000566467 -0.229936)
(-3.74399e-06 0.000582848 -0.229412)
(-1.07817e-05 0.000574403 -0.229598)
(1.19666e-06 0.000559435 -0.230097)
(9.22661e-06 0.000555399 -0.230285)
(3.24277e-05 0.000590568 -0.234049)
(2.66657e-05 0.000599702 -0.233891)
(1.10239e-05 0.000611862 -0.23362)
(-9.90408e-06 0.000609996 -0.233664)
(-2.12942e-05 0.000594458 -0.234032)
(-2.26018e-05 0.000579486 -0.234297)
(-1.56511e-05 0.000573849 -0.23434)
(-6.09231e-07 0.00058833 -0.233951)
(-3.48329e-06 0.000605412 -0.233448)
(-8.72153e-06 0.000596553 -0.233626)
(3.73472e-06 0.000581134 -0.234101)
(1.10141e-05 0.000577081 -0.23428)
(3.41437e-05 0.000611996 -0.237802)
(2.79179e-05 0.000621576 -0.237655)
(1.18997e-05 0.000634372 -0.237398)
(-8.99993e-06 0.000632385 -0.237438)
(-2.08424e-05 0.000616073 -0.237786)
(-2.27608e-05 0.000600295 -0.238034)
(-1.63457e-05 0.000594115 -0.238079)
(-1.49666e-06 0.000609011 -0.237713)
(-3.06773e-06 0.000626776 -0.237234)
(-6.43034e-06 0.000617506 -0.237402)
(6.45816e-06 0.000601677 -0.237852)
(1.29551e-05 0.000597637 -0.238021)
(3.59256e-05 0.00063211 -0.241298)
(2.92223e-05 0.000642149 -0.241163)
(1.2827e-05 0.000655588 -0.240921)
(-7.99336e-06 0.000653476 -0.240957)
(-2.02766e-05 0.000636374 -0.241283)
(-2.27776e-05 0.000619766 -0.241514)
(-1.68666e-05 0.000613015 -0.241559)
(-2.25999e-06 0.000628295 -0.241219)
(-2.47127e-06 0.000646721 -0.240766)
(-3.90559e-06 0.000637045 -0.240923)
(9.35777e-06 0.000620853 -0.241345)
(1.50512e-05 0.00061686 -0.241503)
(3.77718e-05 0.000650711 -0.244533)
(3.05779e-05 0.000661219 -0.244411)
(1.38055e-05 0.000675307 -0.244185)
(-6.88282e-06 0.000673064 -0.244217)
(-1.95886e-05 0.000655161 -0.244519)
(-2.26313e-05 0.000637698 -0.244731)
(-1.71782e-05 0.00063035 -0.244776)
(-2.85895e-06 0.000645977 -0.244463)
(-1.66782e-06 0.000665035 -0.244039)
(-1.14865e-06 0.000654961 -0.244184)
(1.242e-05 0.000638463 -0.244577)
(1.73011e-05 0.000634553 -0.244722)
(3.96789e-05 0.000667612 -0.247506)
(3.19819e-05 0.000678602 -0.247396)
(1.48339e-05 0.000693336 -0.247187)
(-5.66775e-06 0.000690957 -0.247215)
(-1.87697e-05 0.000672244 -0.247492)
(-2.22998e-05 0.000653902 -0.247685)
(-1.72439e-05 0.000645929 -0.247729)
(-3.25097e-06 0.000661869 -0.247444)
(-6.32317e-07 0.000681521 -0.24705)
(1.83427e-06 0.000671064 -0.247183)
(1.56263e-05 0.000654319 -0.247544)
(1.96993e-05 0.000650534 -0.247678)
(4.16403e-05 0.000682622 -0.250215)
(3.34293e-05 0.00069411 -0.250118)
(1.591e-05 0.000709488 -0.249927)
(-4.34885e-06 0.000706966 -0.249951)
(-1.78112e-05 0.000687431 -0.250201)
(-2.17601e-05 0.00066818 -0.250375)
(-1.70266e-05 0.000659565 -0.250417)
(-3.39205e-06 0.000675781 -0.250161)
(6.57917e-07 0.000695994 -0.249798)
(5.03125e-06 0.000685168 -0.249918)
(1.8953e-05 0.000668237 -0.250247)
(2.22357e-05 0.000664615 -0.250369)
(4.36463e-05 0.000695589 -0.252662)
(3.49126e-05 0.000707579 -0.252578)
(1.70301e-05 0.000723595 -0.252406)
(-2.92849e-06 0.000720925 -0.252425)
(-1.67049e-05 0.000700562 -0.252649)
(-2.09895e-05 0.000680391 -0.252802)
(-1.649e-05 0.000671112 -0.252843)
(-3.23837e-06 0.000687547 -0.252615)
(2.22245e-06 0.00070827 -0.252285)
(8.42363e-06 0.000697101 -0.252391)
(2.23709e-05 0.00068006 -0.252688)
(2.48943e-05 0.000676648 -0.252797)
(4.56833e-05 0.000706418 -0.254853)
(3.6422e-05 0.000718928 -0.254782)
(1.81893e-05 0.000735557 -0.254628)
(-1.41126e-06 0.000732728 -0.254643)
(-1.5444e-05 0.000711545 -0.25484)
(-1.99662e-05 0.000690435 -0.254973)
(-1.55997e-05 0.000680479 -0.255012)
(-2.7479e-06 0.000697088 -0.254812)
(4.07601e-06 0.000718261 -0.254515)
(1.19858e-05 0.000706781 -0.254607)
(2.58444e-05 0.000689707 -0.25487)
(2.76528e-05 0.000686551 -0.254968)
(4.77329e-05 0.000715027 -0.256794)
(3.79444e-05 0.000728071 -0.256734)
(1.93814e-05 0.000745291 -0.256599)
(1.96078e-07 0.000742294 -0.25661)
(-1.40228e-05 0.000720291 -0.25678)
(-1.86701e-05 0.000698223 -0.256894)
(-1.43253e-05 0.000687582 -0.25693)
(-1.88266e-06 0.000704318 -0.256757)
(6.22653e-06 0.000725885 -0.256492)
(1.56852e-05 0.000714129 -0.256571)
(2.93326e-05 0.000697097 -0.256802)
(3.04819e-05 0.000694241 -0.256889)
(4.97716e-05 0.000721352 -0.258493)
(3.94637e-05 0.000734945 -0.258445)
(2.05985e-05 0.000752728 -0.258329)
(1.88454e-06 0.00074955 -0.258336)
(-1.24371e-05 0.000726732 -0.25848)
(-1.7084e-05 0.00070369 -0.258574)
(-1.26434e-05 0.000692361 -0.258607)
(-6.1211e-07 0.000709178 -0.258461)
(8.6738e-06 0.000731082 -0.258228)
(1.94826e-05 0.000719088 -0.258293)
(3.27899e-05 0.000702175 -0.258493)
(3.33449e-05 0.000699661 -0.258568)
(5.17705e-05 0.000725369 -0.259963)
(4.09599e-05 0.000739526 -0.259926)
(2.1831e-05 0.000757837 -0.259828)
(3.64263e-06 0.000754465 -0.259832)
(-1.06846e-05 0.000730837 -0.259949)
(-1.5195e-05 0.000706808 -0.260026)
(-1.05391e-05 0.000694796 -0.260055)
(1.08386e-06 0.000711652 -0.259934)
(1.14079e-05 0.000733832 -0.259731)
(2.33323e-05 0.000721646 -0.259783)
(3.61665e-05 0.000704923 -0.259954)
(3.61976e-05 0.000702792 -0.260019)
(5.36949e-05 0.000727082 -0.261217)
(4.24096e-05 0.000741821 -0.26119)
(2.30674e-05 0.000760619 -0.261109)
(5.45615e-06 0.000757035 -0.261109)
(-8.76593e-06 0.000732604 -0.261203)
(-1.29958e-05 0.000707576 -0.261263)
(-8.00971e-06 0.000694892 -0.261289)
(3.21129e-06 0.000711752 -0.26119)
(1.44071e-05 0.00073415 -0.261016)
(2.71827e-05 0.000721819 -0.261056)
(3.94097e-05 0.000705356 -0.261199)
(3.89886e-05 0.000703643 -0.261254)
(5.55056e-05 0.00072652 -0.26227)
(4.3786e-05 0.000741856 -0.262252)
(2.42938e-05 0.000761095 -0.262188)
(7.30797e-06 0.000757281 -0.262185)
(-6.68484e-06 0.000732054 -0.262256)
(-1.04869e-05 0.000706018 -0.262299)
(-5.06781e-06 0.000692681 -0.262322)
(5.75753e-06 0.000709514 -0.262244)
(1.76353e-05 0.000732078 -0.262098)
(3.09761e-05 0.000719652 -0.262126)
(4.24658e-05 0.000703508 -0.262244)
(4.16611e-05 0.000702245 -0.262289)
(5.7164e-05 0.000723756 -0.263138)
(4.50601e-05 0.000739704 -0.263129)
(2.54934e-05 0.000759336 -0.26308)
(9.17664e-06 0.000755269 -0.263074)
(-4.44968e-06 0.000729255 -0.263124)
(-7.67982e-06 0.000702212 -0.263153)
(-1.74526e-06 0.000688248 -0.263172)
(8.68762e-06 0.000705023 -0.263113)
(2.1041e-05 0.000727701 -0.262992)
(3.46525e-05 0.000715235 -0.26301)
(4.5284e-05 0.000699468 -0.263104)
(4.41579e-05 0.000698683 -0.263141)
(5.8637e-05 0.000718939 -0.263841)
(4.62088e-05 0.000735512 -0.263839)
(2.66457e-05 0.000755476 -0.263803)
(1.1036e-05 0.000751137 -0.263795)
(-2.07827e-06 0.000724351 -0.263827)
(-4.60381e-06 0.000696301 -0.263844)
(1.90664e-06 0.000681747 -0.263859)
(1.19452e-05 0.000698448 -0.263816)
(2.4566e-05 0.000721188 -0.263717)
(3.81613e-05 0.000708737 -0.263726)
(4.78257e-05 0.000693397 -0.2638)
(4.64309e-05 0.000693113 -0.26383)
(5.98955e-05 0.000712225 -0.2644)
(4.72129e-05 0.000729437 -0.264405)
(2.77372e-05 0.000749676 -0.264381)
(1.28704e-05 0.000745034 -0.264371)
(4.12615e-07 0.000717489 -0.264387)
(-1.29261e-06 0.000688442 -0.264393)
(5.83462e-06 0.000673342 -0.264405)
(1.5478e-05 0.00068996 -0.264375)
(2.81581e-05 0.000712722 -0.264295)
(4.14647e-05 0.000700341 -0.264296)
(5.00681e-05 0.000685465 -0.264353)
(4.84404e-05 0.000685692 -0.264377)
(6.09157e-05 0.000703787 -0.264838)
(4.80562e-05 0.000721654 -0.264848)
(2.8758e-05 0.000742107 -0.264834)
(1.46682e-05 0.000737133 -0.264822)
(3.00879e-06 0.000708836 -0.264825)
(2.22109e-06 0.000678803 -0.264822)
(9.98257e-06 0.00066321 -0.264831)
(1.92321e-05 0.000679748 -0.264812)
(3.17689e-05 0.000702499 -0.264748)
(4.45315e-05 0.000690241 -0.264744)
(5.19959e-05 0.000675856 -0.264786)
(5.01553e-05 0.0006766 -0.264804)
(6.16796e-05 0.000693791 -0.265174)
(4.87264e-05 0.000712328 -0.265188)
(2.96958e-05 0.000732935 -0.265181)
(1.64142e-05 0.000727594 -0.265168)
(5.69011e-06 0.000698551 -0.265161)
(5.89479e-06 0.000667549 -0.265151)
(1.42816e-05 0.000651521 -0.265157)
(2.31372e-05 0.000667995 -0.265147)
(3.53452e-05 0.000690716 -0.265097)
(4.73365e-05 0.000678631 -0.265087)
(5.35997e-05 0.000664749 -0.265118)
(5.15541e-05 0.000666005 -0.265131)
(6.2174e-05 0.000682389 -0.265424)
(4.92138e-05 0.00070161 -0.265441)
(3.05411e-05 0.000722315 -0.265441)
(1.80989e-05 0.000716569 -0.265427)
(8.43423e-06 0.000686783 -0.265412)
(9.68047e-06 0.000654833 -0.265396)
(1.86607e-05 0.000638436 -0.2654)
(2.71207e-05 0.00065487 -0.265397)
(3.88334e-05 0.000677554 -0.265358)
(4.98597e-05 0.000665687 -0.265345)
(5.4878e-05 0.000652309 -0.265365)
(5.26236e-05 0.000654063 -0.265375)
(6.23936e-05 0.000669725 -0.265605)
(4.95135e-05 0.000689643 -0.265625)
(3.12869e-05 0.000710392 -0.26563)
(1.97157e-05 0.000704201 -0.265615)
(1.12177e-05 0.000673671 -0.265593)
(1.35288e-05 0.000640801 -0.265573)
(2.30511e-05 0.000624102 -0.265576)
(3.11123e-05 0.000640533 -0.265578)
(4.21862e-05 0.000663182 -0.265548)
(5.20896e-05 0.000651574 -0.265532)
(5.58367e-05 0.000638689 -0.265544)
(5.33613e-05 0.00064092 -0.265551)
(6.23406e-05 0.000655931 -0.265731)
(4.96255e-05 0.000676557 -0.265753)
(3.19283e-05 0.000697298 -0.265761)
(2.1261e-05 0.00069062 -0.265746)
(1.40166e-05 0.000659344 -0.265719)
(1.73911e-05 0.000625588 -0.265696)
(2.73897e-05 0.000608658 -0.265698)
(3.50478e-05 0.000625126 -0.265704)
(4.53638e-05 0.000647754 -0.265681)
(5.40218e-05 0.000636442 -0.265663)
(5.64874e-05 0.000624031 -0.265669)
(5.37736e-05 0.000626709 -0.265673)
(6.20233e-05 0.000641123 -0.265812)
(4.95534e-05 0.000662465 -0.265836)
(3.24633e-05 0.000683149 -0.265847)
(2.27339e-05 0.000675943 -0.265831)
(1.68077e-05 0.000643918 -0.265801)
(2.12215e-05 0.000609313 -0.265775)
(3.16221e-05 0.000592225 -0.265777)
(3.88722e-05 0.000608778 -0.265786)
(4.83344e-05 0.000631407 -0.26577)
(5.56582e-05 0.000620424 -0.26575)
(5.68454e-05 0.000608459 -0.265751)
(5.38746e-05 0.000611548 -0.265752)
(6.14555e-05 0.000625401 -0.26586)
(4.93049e-05 0.000647464 -0.265884)
(3.28927e-05 0.000668046 -0.265897)
(2.41346e-05 0.000660267 -0.265882)
(1.95677e-05 0.00062749 -0.265849)
(2.49782e-05 0.000592082 -0.265822)
(3.57036e-05 0.000574907 -0.265823)
(4.25412e-05 0.000591599 -0.265835)
(5.10746e-05 0.000614258 -0.265823)
(5.70041e-05 0.000603632 -0.265803)
(5.69273e-05 0.000592079 -0.265799)
(5.36826e-05 0.000595537 -0.265799)
(6.06543e-05 0.000608847 -0.265881)
(4.88901e-05 0.000631632 -0.265906)
(3.32191e-05 0.000652068 -0.265921)
(2.54637e-05 0.000643674 -0.265905)
(2.22741e-05 0.000610145 -0.26587)
(2.86238e-05 0.000573982 -0.265843)
(3.95993e-05 0.000556791 -0.265844)
(4.60207e-05 0.000573678 -0.265858)
(5.35679e-05 0.000596405 -0.265849)
(5.8067e-05 0.000586159 -0.265829)
(5.67491e-05 0.000574978 -0.265822)
(5.32178e-05 0.000578757 -0.265821)
(5.96389e-05 0.000591524 -0.265883)
(4.83209e-05 0.00061503 -0.265908)
(3.34466e-05 0.00063528 -0.265923)
(2.67206e-05 0.00062623 -0.265907)
(2.49043e-05 0.000591949 -0.265872)
(3.21255e-05 0.000555084 -0.265845)
(4.32822e-05 0.000537948 -0.265846)
(4.92854e-05 0.000555087 -0.265861)
(5.58035e-05 0.000577926 -0.265856)
(5.88543e-05 0.00056808 -0.265835)
(5.63243e-05 0.000557227 -0.265826)
(5.25001e-05 0.000561274 -0.265823)
(5.84294e-05 0.000573485 -0.26587)
(4.76095e-05 0.000597706 -0.265895)
(3.35793e-05 0.000617731 -0.26591)
(2.79031e-05 0.000607985 -0.265894)
(2.7436e-05 0.000572957 -0.265859)
(3.54536e-05 0.000535445 -0.265832)
(4.67311e-05 0.000518431 -0.265834)
(5.23164e-05 0.000535885 -0.26585)
(5.77741e-05 0.000558882 -0.265847)
(5.93723e-05 0.000549454 -0.265826)
(5.56637e-05 0.00053888 -0.265816)
(5.15476e-05 0.000543137 -0.265811)
(5.70451e-05 0.000554768 -0.265846)
(4.67681e-05 0.000579693 -0.26587)
(3.36212e-05 0.000599458 -0.265885)
(2.90063e-05 0.000588979 -0.265869)
(2.98463e-05 0.000553211 -0.265835)
(3.85805e-05 0.00051511 -0.265809)
(4.99277e-05 0.000498284 -0.265811)
(5.50986e-05 0.000516115 -0.265828)
(5.94744e-05 0.000539322 -0.265827)
(5.96255e-05 0.000530325 -0.265807)
(5.47751e-05 0.000519978 -0.265795)
(5.03759e-05 0.000524383 -0.265789)
(5.55046e-05 0.0005354 -0.265814)
(4.58077e-05 0.000561016 -0.265837)
(3.35752e-05 0.000580485 -0.265852)
(3.00234e-05 0.000569241 -0.265837)
(3.21117e-05 0.000532744 -0.265803)
(4.14799e-05 0.000494114 -0.265778)
(5.28549e-05 0.000477538 -0.265781)
(5.76186e-05 0.000495809 -0.265799)
(6.08996e-05 0.000519283 -0.265799)
(5.96164e-05 0.000510727 -0.265779)
(5.36639e-05 0.000500553 -0.265766)
(4.89981e-05 0.000505039 -0.26576)
(5.38253e-05 0.000515402 -0.265776)
(4.47386e-05 0.000541692 -0.265799)
(3.34435e-05 0.000560831 -0.265813)
(3.09452e-05 0.000548792 -0.265798)
(3.42079e-05 0.000511583 -0.265765)
(4.41254e-05 0.000472483 -0.265741)
(5.54949e-05 0.000456215 -0.265745)
(5.98627e-05 0.000474992 -0.265764)
(6.20445e-05 0.000498791 -0.265765)
(5.93459e-05 0.000490685 -0.265746)
(5.23336e-05 0.000480624 -0.265732)
(4.74253e-05 0.000485122 -0.265725)
(5.20236e-05 0.000494788 -0.265735)
(4.35699e-05 0.00052173 -0.265757)
(3.32269e-05 0.000540509 -0.26577)
(3.17609e-05 0.00052765 -0.265755)
(3.611e-05 0.00048975 -0.265724)
(4.64901e-05 0.000450236 -0.265702)
(5.78278e-05 0.000434332 -0.265706)
(6.18158e-05 0.000453682 -0.265725)
(6.29032e-05 0.000477866 -0.265728)
(5.88141e-05 0.000470216 -0.265709)
(5.07875e-05 0.000460207 -0.265695)
(4.56673e-05 0.000464642 -0.265687)
(5.01152e-05 0.00047357 -0.265692)
(4.23096e-05 0.00050114 -0.265712)
(3.29256e-05 0.000519528 -0.265725)
(3.24583e-05 0.000505832 -0.265711)
(3.77924e-05 0.000467263 -0.265681)
(4.85459e-05 0.000427393 -0.26566)
(5.9831e-05 0.000411904 -0.265665)
(6.34607e-05 0.000431892 -0.265685)
(6.34682e-05 0.000456526 -0.265688)
(5.80205e-05 0.000449335 -0.265671)
(4.90287e-05 0.000439315 -0.265655)
(4.37338e-05 0.000443608 -0.265647)
(4.81149e-05 0.000451756 -0.265648)
(4.09651e-05 0.000479927 -0.265667)
(3.25393e-05 0.000497897 -0.265678)
(3.30242e-05 0.00048335 -0.265665)
(3.92292e-05 0.00044414 -0.265637)
(5.02638e-05 0.000403966 -0.265618)
(6.14793e-05 0.000388937 -0.265624)
(6.47774e-05 0.000409632 -0.265643)
(6.37314e-05 0.00043478 -0.265648)
(5.69653e-05 0.000428051 -0.265631)