/*--------------------------------*- C++ -*----------------------------------*\
| =========                 |                                                 |
| \\      /  F ield         | OpenFOAM: The Open Source CFD Toolbox           |
|  \\    /   O peration     | Version:  v1912                                 |
|   \\  /    A nd           | Website:  www.openfoam.com                      |
|    \\/     M anipulation  |                                                 |
\*---------------------------------------------------------------------------*/
FoamFile
{
    version     2.0;
    format      ascii;
    class       volVectorField;
    location    "9.6";
    object      wallShearStress;
}
// * * * * * * * * * * * * * * * * * * * * * * * * * * * * * * * * * * * * * //

dimensions      [1 -1 -2 0 0 0 0];


internalField   uniform (0 0 0);

boundaryField
{
    leftWall
    {
        type            calculated;
        value           nonuniform List<vector> 
216
(
(-0.000386818 -2.02007e-05 0.119515)
(-0.000540212 -2.13833e-05 0.123327)
(-0.000458533 -2.01987e-05 0.123947)
(-0.000529143 -2.19075e-05 0.12754)
(-0.00049673 -2.02697e-05 0.128919)
(-0.000569868 -2.14089e-05 0.132671)
(-0.000549019 -1.9922e-05 0.1348)
(-0.00059537 -2.07171e-05 0.138904)
(-0.000504867 -2.00294e-05 0.141887)
(-0.000490961 -2.11592e-05 0.146504)
(-0.000389973 -2.16728e-05 0.150495)
(-0.000397431 -2.32898e-05 0.15578)
(-0.000390319 -2.41907e-05 0.160866)
(-0.000422532 -2.65096e-05 0.166864)
(-0.000433563 -2.79782e-05 0.173044)
(-0.000385333 -3.12257e-05 0.17973)
(-0.00031401 -3.30421e-05 0.186916)
(-0.000176264 -3.67387e-05 0.194076)
(-7.31087e-06 -1.91897e-05 0.120533)
(-7.25949e-05 -2.02844e-05 0.124059)
(-8.28128e-05 -1.89945e-05 0.124678)
(-0.000134244 -2.07827e-05 0.127951)
(-0.000213423 -2.03353e-05 0.129334)
(-0.000298306 -2.26157e-05 0.132703)
(-0.000396326 -2.28733e-05 0.134813)
(-0.00050752 -2.49968e-05 0.138496)
(-0.000573597 -2.46041e-05 0.141349)
(-0.000689524 -2.60601e-05 0.145451)
(-0.000772361 -2.559e-05 0.149066)
(-0.00094229 -2.72565e-05 0.153673)
(-0.00112465 -2.78209e-05 0.158141)
(-0.00132513 -3.02523e-05 0.163421)
(-0.00150985 -3.22221e-05 0.168962)
(-0.00157638 -3.59687e-05 0.175111)
(-0.0015645 -3.87438e-05 0.181819)
(-0.00134466 -4.25715e-05 0.188665)
(0.000200956 -1.65156e-05 0.122318)
(0.000155296 -1.76697e-05 0.126153)
(6.15113e-05 -1.72617e-05 0.126908)
(-1.47372e-05 -1.9432e-05 0.130481)
(-0.000142578 -2.00579e-05 0.132108)
(-0.000219785 -2.2835e-05 0.135689)
(-0.000344537 -2.41465e-05 0.138077)
(-0.000415867 -2.73672e-05 0.141863)
(-0.00052974 -2.83595e-05 0.144872)
(-0.00060424 -3.15807e-05 0.148875)
(-0.000731791 -3.27855e-05 0.152306)
(-0.000853998 -3.6017e-05 0.156441)
(-0.00104782 -3.78783e-05 0.160164)
(-0.00121479 -4.08988e-05 0.164421)
(-0.00137252 -4.34514e-05 0.168484)
(-0.00137769 -4.65102e-05 0.172961)
(-0.00129709 -4.86368e-05 0.177516)
(-0.00103775 -5.00163e-05 0.182369)
(0.000205736 -1.57676e-05 0.12386)
(0.000187109 -1.74183e-05 0.128046)
(8.57369e-05 -1.81012e-05 0.128669)
(2.07968e-05 -2.08343e-05 0.132512)
(-7.30092e-05 -2.22582e-05 0.133871)
(-0.000115525 -2.49718e-05 0.137591)
(-0.000213613 -2.62163e-05 0.139606)
(-0.000211055 -2.87882e-05 0.143403)
(-0.000298746 -2.95456e-05 0.145995)
(-0.000251472 -3.18681e-05 0.149935)
(-0.000303649 -3.2532e-05 0.152946)
(-0.000262306 -3.48005e-05 0.156956)
(-0.000326955 -3.61998e-05 0.16023)
(-0.000329587 -3.88831e-05 0.164279)
(-0.000354074 -4.0642e-05 0.167866)
(-0.000258973 -4.26241e-05 0.172133)
(-0.000156552 -4.32696e-05 0.176357)
(-1.0118e-05 -4.40262e-05 0.181282)
(0.000177123 -1.59494e-05 0.12221)
(0.000263453 -1.71218e-05 0.126835)
(0.000206153 -1.80468e-05 0.127289)
(0.000229527 -2.06252e-05 0.131518)
(0.000211099 -2.18432e-05 0.132565)
(0.000219579 -2.43624e-05 0.136618)
(0.000158778 -2.55873e-05 0.13828)
(0.000177315 -2.78531e-05 0.142367)
(7.59896e-05 -2.85009e-05 0.144735)
(0.000113918 -2.99447e-05 0.149001)
(2.59678e-05 -2.99537e-05 0.15208)
(5.67284e-05 -3.11352e-05 0.156532)
(-2.57385e-05 -3.17792e-05 0.160222)
(-3.56431e-05 -3.38645e-05 0.16484)
(-0.000112967 -3.50814e-05 0.169155)
(-0.000131677 -3.69674e-05 0.174106)
(-0.000216121 -3.81165e-05 0.179311)
(-0.000302395 -4.11419e-05 0.184978)
(3.08341e-05 -1.69034e-05 0.120044)
(0.000173916 -1.66383e-05 0.125214)
(0.000152889 -1.7448e-05 0.125727)
(0.000228865 -1.93427e-05 0.130486)
(0.000259356 -2.01368e-05 0.131628)
(0.000296452 -2.28978e-05 0.136195)
(0.000280203 -2.43779e-05 0.137931)
(0.000287832 -2.72577e-05 0.142434)
(0.00019178 -2.85879e-05 0.144836)
(0.00015894 -3.02248e-05 0.149366)
(3.3911e-05 -3.06336e-05 0.152487)
(-5.0903e-06 -3.17751e-05 0.157077)
(-7.94147e-05 -3.28855e-05 0.160886)
(-8.62913e-05 -3.55416e-05 0.165559)
(-0.000114119 -3.80724e-05 0.170079)
(-0.000129692 -4.20031e-05 0.174967)
(-0.000180618 -4.58075e-05 0.180311)
(-0.000238253 -5.13406e-05 0.185596)
(-0.000124439 -1.91546e-05 0.120021)
(-2.4516e-06 -1.81088e-05 0.125221)
(1.02879e-05 -1.86871e-05 0.125845)
(0.000101755 -2.01651e-05 0.130602)
(0.000169936 -2.03118e-05 0.131935)
(0.00026964 -2.30837e-05 0.136459)
(0.000357773 -2.43763e-05 0.138336)
(0.000441383 -2.76241e-05 0.142682)
(0.000460901 -2.93821e-05 0.145064)
(0.000442114 -3.16612e-05 0.149299)
(0.000370212 -3.27432e-05 0.152225)
(0.000294904 -3.43529e-05 0.156436)
(0.000258331 -3.55845e-05 0.159962)
(0.000249707 -3.8251e-05 0.164273)
(0.000306784 -4.08654e-05 0.16852)
(0.000365354 -4.52889e-05 0.173133)
(0.000480891 -4.94201e-05 0.178265)
(0.000580533 -5.44419e-05 0.183422)
(-7.05583e-05 -2.06003e-05 0.119332)
(1.03118e-05 -1.96328e-05 0.124075)
(3.8098e-05 -1.98264e-05 0.124799)
(0.000116153 -2.1035e-05 0.129095)
(0.000180584 -2.03814e-05 0.130636)
(0.000319525 -2.23283e-05 0.134706)
(0.000463944 -2.21751e-05 0.136856)
(0.00062086 -2.45366e-05 0.140802)
(0.000728409 -2.53558e-05 0.143498)
(0.000760797 -2.78565e-05 0.147464)
(0.000746701 -2.93286e-05 0.150768)
(0.00068955 -3.19953e-05 0.154934)
(0.000683022 -3.38488e-05 0.158945)
(0.000683557 -3.67207e-05 0.163464)
(0.000759225 -3.84643e-05 0.168263)
(0.000820491 -4.09946e-05 0.173249)
(0.000934877 -4.24516e-05 0.178884)
(0.000988915 -4.51303e-05 0.184497)
(9.28663e-05 -1.88693e-05 0.118867)
(0.000127591 -1.84668e-05 0.123238)
(0.000156609 -1.89197e-05 0.124027)
(0.000195037 -2.04218e-05 0.128034)
(0.00022666 -1.98782e-05 0.129719)
(0.00033672 -2.11809e-05 0.133596)
(0.000434804 -2.01192e-05 0.135995)
(0.000560227 -2.11882e-05 0.139879)
(0.000632058 -2.10331e-05 0.14292)
(0.000643162 -2.29903e-05 0.146959)
(0.000616397 -2.44004e-05 0.150703)
(0.000557278 -2.72186e-05 0.155091)
(0.000553728 -2.93999e-05 0.159663)
(0.000566292 -3.25321e-05 0.164576)
(0.000637916 -3.46161e-05 0.170062)
(0.000687712 -3.70008e-05 0.175556)
(0.000743955 -3.78796e-05 0.181876)
(0.000734542 -3.95522e-05 0.187917)
(0.000129117 -1.60773e-05 0.121735)
(0.000128698 -1.61675e-05 0.12617)
(0.000159342 -1.70935e-05 0.126938)
(0.000172091 -1.90419e-05 0.131117)
(0.000172006 -1.90214e-05 0.13277)
(0.000231737 -2.0301e-05 0.136924)
(0.000258423 -1.9544e-05 0.13931)
(0.000315008 -2.05e-05 0.143531)
(0.000336318 -2.07413e-05 0.146539)
(0.000316556 -2.30098e-05 0.150883)
(0.000288044 -2.47053e-05 0.15453)
(0.000215965 -2.72756e-05 0.159125)
(0.000206509 -2.86068e-05 0.163546)
(0.000193955 -3.04509e-05 0.168559)
(0.000251042 -3.15078e-05 0.173867)
(0.000277226 -3.32592e-05 0.179379)
(0.000295299 -3.43651e-05 0.185527)
(0.000240908 -3.62226e-05 0.191517)
(-6.17651e-06 -1.48793e-05 0.124981)
(-7.71434e-06 -1.5519e-05 0.129552)
(3.23944e-05 -1.6816e-05 0.130235)
(5.15456e-05 -1.92116e-05 0.134599)
(3.05765e-05 -1.971e-05 0.136105)
(4.99679e-05 -2.10885e-05 0.140449)
(2.53634e-05 -2.08122e-05 0.142613)
(3.85105e-05 -2.17057e-05 0.146969)
(6.02939e-05 -2.21194e-05 0.149632)
(7.011e-05 -2.43037e-05 0.154007)
(9.96583e-05 -2.58004e-05 0.157199)
(4.15733e-05 -2.80277e-05 0.161755)
(1.93568e-05 -2.87743e-05 0.165698)
(-7.12671e-05 -3.01305e-05 0.17066)
(-7.30132e-05 -3.06294e-05 0.175536)
(-0.000116111 -3.25091e-05 0.181023)
(-0.000117255 -3.4484e-05 0.186819)
(-0.000207729 -3.79053e-05 0.192796)
(-0.000146625 -1.55917e-05 0.125175)
(-0.000108547 -1.6567e-05 0.129645)
(-3.98312e-05 -1.77055e-05 0.130267)
(2.22904e-05 -2.03922e-05 0.134503)
(2.73921e-05 -2.14897e-05 0.135904)
(5.00445e-05 -2.35195e-05 0.140046)
(2.32378e-05 -2.39229e-05 0.142063)
(1.97568e-05 -2.47944e-05 0.146144)
(2.9116e-05 -2.42169e-05 0.148619)
(2.82088e-05 -2.45423e-05 0.152675)
(4.14756e-05 -2.41549e-05 0.155631)
(-5.29632e-05 -2.57149e-05 0.159863)
(-0.000140375 -2.64552e-05 0.163553)
(-0.000322396 -2.91676e-05 0.168283)
(-0.000405268 -3.08203e-05 0.173)
(-0.000513861 -3.41048e-05 0.178481)
(-0.000502104 -3.69788e-05 0.184342)
(-0.000527544 -4.22673e-05 0.190596)
)
;
    }
    rightWall
    {
        type            calculated;
        value           nonuniform List<vector> 
216
(
(-0.000271165 4.62202e-06 0.348801)
(-0.000142377 4.81513e-06 0.350168)
(-0.000103156 5.21302e-06 0.350761)
(-6.82012e-05 6.10269e-06 0.352185)
(1.04126e-05 6.7207e-06 0.353407)
(2.02997e-05 7.4161e-06 0.355044)
(6.64721e-05 8.78948e-06 0.35672)
(0.00010389 9.69452e-06 0.358455)
(7.80552e-05 1.10072e-05 0.360408)
(6.92666e-05 1.14428e-05 0.361974)
(-5.8777e-05 1.22336e-05 0.364099)
(-0.00017911 1.34705e-05 0.365316)
(-0.000317298 1.53062e-05 0.367596)
(-0.000446461 1.77304e-05 0.368481)
(-0.000459378 1.89232e-05 0.370963)
(-0.000532683 1.9816e-05 0.371845)
(-0.000460856 1.90712e-05 0.37476)
(-0.000498764 1.99007e-05 0.376351)
(-0.000237368 5.48811e-06 0.347918)
(-0.00013041 6.20174e-06 0.349166)
(-9.98309e-05 6.88253e-06 0.34975)
(-7.87391e-05 8.54852e-06 0.350978)
(-2.18898e-05 9.41437e-06 0.352199)
(-3.86267e-05 1.01196e-05 0.353541)
(2.14912e-05 1.08917e-05 0.355253)
(5.85076e-05 1.03892e-05 0.356624)
(7.89787e-05 1.06757e-05 0.358628)
(7.94065e-05 9.79599e-06 0.359846)
(-9.5738e-06 1.00396e-05 0.362084)
(-8.06272e-05 1.02829e-05 0.363173)
(-0.000155247 1.10425e-05 0.365765)
(-0.000186837 1.27461e-05 0.366922)
(-0.000213272 1.39759e-05 0.369943)
(-0.000268014 1.71017e-05 0.371494)
(-0.000356594 1.9606e-05 0.375125)
(-0.000415326 2.42191e-05 0.37763)
(-0.000197657 5.27484e-06 0.347782)
(-0.000101105 5.07444e-06 0.349136)
(-6.71879e-05 5.26342e-06 0.349676)
(-2.2965e-05 6.41451e-06 0.350969)
(5.71652e-05 7.17139e-06 0.352087)
(4.87907e-05 8.07531e-06 0.35345)
(0.000127599 8.66803e-06 0.354984)
(0.00011887 7.99171e-06 0.356353)
(0.000126854 8.1446e-06 0.358104)
(5.05343e-05 7.45737e-06 0.359359)
(-8.02526e-05 8.70958e-06 0.361341)
(-0.000201804 9.99795e-06 0.36263)
(-0.000349097 1.19396e-05 0.36506)
(-0.000383919 1.42603e-05 0.366592)
(-0.000492492 1.58197e-05 0.369526)
(-0.000463055 1.86111e-05 0.371427)
(-0.00058227 2.04004e-05 0.374902)
(-0.000487173 2.40999e-05 0.377424)
(-0.00018638 7.97059e-06 0.346581)
(-0.000189546 6.49428e-06 0.348609)
(-0.000203972 5.95134e-06 0.349095)
(-0.000212472 5.48687e-06 0.350915)
(-0.000171515 4.69962e-06 0.351908)
(-0.000186706 4.73804e-06 0.353628)
(-0.000116554 4.16385e-06 0.354966)
(-0.000150836 3.85372e-06 0.356587)
(-0.00012902 4.38498e-06 0.358158)
(-0.000205011 5.39634e-06 0.359727)
(-0.000258676 8.43386e-06 0.36167)
(-0.000284074 1.16228e-05 0.363391)
(-0.00031852 1.52395e-05 0.365894)
(-0.000220376 1.83631e-05 0.367743)
(-0.000257332 2.05764e-05 0.370675)
(-0.000136317 2.27167e-05 0.372438)
(-0.000248504 2.43131e-05 0.375634)
(-0.000123477 2.70169e-05 0.377276)
(-0.000107393 9.2393e-06 0.3472)
(-0.000217163 7.30992e-06 0.349597)
(-0.000244601 7.06012e-06 0.349891)
(-0.000355952 5.79275e-06 0.351915)
(-0.000379254 4.64975e-06 0.352567)
(-0.000450286 4.00441e-06 0.35432)
(-0.000437699 2.87141e-06 0.355232)
(-0.000503215 3.22735e-06 0.35681)
(-0.000479282 3.92702e-06 0.357998)
(-0.000543012 6.21444e-06 0.359621)
(-0.000493709 9.59434e-06 0.361341)
(-0.000435594 1.29469e-05 0.363266)
(-0.000297111 1.67076e-05 0.365685)
(-7.54324e-05 1.97622e-05 0.367771)
(6.84545e-05 2.30133e-05 0.370748)
(0.000299994 2.54693e-05 0.372747)
(0.000354736 2.72158e-05 0.37623)
(0.000588461 2.77722e-05 0.378098)
(-0.00015322 5.10463e-06 0.349361)
(-0.000323687 3.74528e-06 0.351364)
(-0.000291303 5.02922e-06 0.351619)
(-0.00045549 4.97485e-06 0.353349)
(-0.000471829 5.81605e-06 0.353988)
(-0.000580691 5.92488e-06 0.355566)
(-0.000598051 5.93768e-06 0.356538)
(-0.000671145 6.37907e-06 0.358058)
(-0.000644142 7.13949e-06 0.35928)
(-0.00066589 9.03926e-06 0.360836)
(-0.000536939 1.13514e-05 0.362337)
(-0.000437926 1.29868e-05 0.364031)
(-0.000185619 1.45185e-05 0.365844)
(7.29422e-05 1.5224e-05 0.367523)
(0.00038408 1.73007e-05 0.369664)
(0.000658646 1.96644e-05 0.371369)
(0.000810376 2.27843e-05 0.374402)
(0.000919858 2.44632e-05 0.376782)
(-0.000340232 2.76163e-06 0.350512)
(-0.00056413 2.08558e-06 0.35175)
(-0.000461835 3.82519e-06 0.351992)
(-0.000624137 4.89027e-06 0.353152)
(-0.00056883 7.08491e-06 0.353822)
(-0.00067126 8.1188e-06 0.355094)
(-0.000668749 9.19382e-06 0.356208)
(-0.000725922 9.58209e-06 0.357652)
(-0.000670583 1.02041e-05 0.359067)
(-0.000605707 1.08561e-05 0.360618)
(-0.000392387 1.18632e-05 0.362223)
(-0.000219615 1.20088e-05 0.363915)
(7.21629e-05 1.14128e-05 0.365756)
(0.000281898 9.63835e-06 0.367581)
(0.000580829 8.20812e-06 0.36977)
(0.000743982 8.23107e-06 0.371862)
(0.000854817 1.09598e-05 0.375013)
(0.000791855 1.62917e-05 0.378098)
(-0.000342425 3.48241e-06 0.350777)
(-0.000551653 3.78094e-06 0.351165)
(-0.000426328 4.94614e-06 0.351221)
(-0.000548573 6.18852e-06 0.351696)
(-0.00045547 8.00555e-06 0.352043)
(-0.00054299 8.89074e-06 0.352927)
(-0.000553203 9.91256e-06 0.353685)
(-0.000631652 9.96826e-06 0.355021)
(-0.000617947 1.01188e-05 0.356223)
(-0.000583935 9.899e-06 0.357933)
(-0.000435627 9.76846e-06 0.359695)
(-0.000336411 9.51765e-06 0.361916)
(-0.000199258 8.43689e-06 0.364464)
(-0.000189511 6.97546e-06 0.367305)
(-0.000148984 4.61246e-06 0.37063)
(-0.000223166 4.03831e-06 0.373951)
(-0.000244266 4.89465e-06 0.378004)
(-0.000287181 9.32368e-06 0.381803)
(-0.000128134 5.2706e-06 0.351749)
(-0.000207974 6.12536e-06 0.351586)
(-0.000131053 5.95746e-06 0.351348)
(-0.000175441 6.86418e-06 0.351311)
(-0.000153539 7.42751e-06 0.351136)
(-0.000237637 8.10534e-06 0.351697)
(-0.00033813 8.70865e-06 0.351842)
(-0.000481864 8.95691e-06 0.353087)
(-0.000588265 8.97027e-06 0.353846)
(-0.000690694 8.78153e-06 0.355725)
(-0.000724729 8.53881e-06 0.357425)
(-0.000815564 8.67568e-06 0.360013)
(-0.000899005 8.36784e-06 0.362862)
(-0.0010891 8.37067e-06 0.366121)
(-0.00125921 7.4087e-06 0.369857)
(-0.00144714 7.81802e-06 0.373408)
(-0.00151193 8.05672e-06 0.377511)
(-0.00145918 1.04286e-05 0.381004)
(0.000243864 8.11861e-06 0.351189)
(0.000367749 8.55109e-06 0.351239)
(0.000325446 7.11347e-06 0.350911)
(0.000377757 7.84373e-06 0.35095)
(0.000249739 7.51457e-06 0.350616)
(0.000182003 8.95856e-06 0.351122)
(-6.35652e-05 9.48382e-06 0.35105)
(-0.000291741 1.06654e-05 0.352181)
(-0.000559619 1.08774e-05 0.352748)
(-0.000842289 1.14239e-05 0.354502)
(-0.00103332 1.20661e-05 0.356039)
(-0.00129775 1.33041e-05 0.35835)
(-0.00147688 1.48892e-05 0.360914)
(-0.00174358 1.68171e-05 0.363597)
(-0.00192597 1.857e-05 0.366854)
(-0.00205515 2.07972e-05 0.369631)
(-0.00204278 2.22845e-05 0.373145)
(-0.00186471 2.41518e-05 0.375853)
(0.000684793 1.04143e-05 0.34889)
(0.000945626 1.01434e-05 0.350066)
(0.000784535 8.71583e-06 0.350088)
(0.000906442 9.5464e-06 0.350977)
(0.000663971 8.95581e-06 0.351211)
(0.000684149 1.09798e-05 0.352064)
(0.000374238 1.2145e-05 0.352525)
(0.000179108 1.47045e-05 0.353491)
(-0.000168158 1.6483e-05 0.354332)
(-0.000510237 1.86303e-05 0.355511)
(-0.000735317 2.06637e-05 0.356855)
(-0.0010197 2.28881e-05 0.358201)
(-0.00110956 2.54565e-05 0.359968)
(-0.00129691 2.76054e-05 0.361375)
(-0.00133815 2.97202e-05 0.363419)
(-0.00135418 3.09415e-05 0.364986)
(-0.0012417 3.15787e-05 0.367485)
(-0.00099435 3.14741e-05 0.369612)
(0.000864135 7.80752e-06 0.349255)
(0.00113525 6.92373e-06 0.351646)
(0.000959676 6.77088e-06 0.352036)
(0.00110705 7.70294e-06 0.353869)
(0.000869556 7.2353e-06 0.354677)
(0.000972696 8.13098e-06 0.35588)
(0.000759654 9.50091e-06 0.356909)
(0.000726939 1.18461e-05 0.357616)
(0.00054362 1.55331e-05 0.358796)
(0.000388015 1.86357e-05 0.359313)
(0.00032085 2.16933e-05 0.360575)
(0.000198602 2.31964e-05 0.361072)
(0.000239462 2.43741e-05 0.362227)
(0.000163377 2.50004e-05 0.362756)
(0.000162891 2.63563e-05 0.363846)
(8.28882e-05 2.76891e-05 0.364835)
(-4.91501e-06 2.91026e-05 0.366656)
(-0.000100254 2.9154e-05 0.368951)
)
;
    }
    leftSides_periodic0
    {
        type            cyclic;
    }
    leftSides_periodic1
    {
        type            cyclic;
    }
    rightSides_periodic0
    {
        type            cyclic;
    }
    rightSides_periodic1
    {
        type            cyclic;
    }
    leftInOut_periodic0
    {
        type            calculated;
        value           uniform (0 0 0);
    }
    leftInOut_periodic1
    {
        type            calculated;
        value           nonuniform 0();
    }
    rightInOut_periodic0
    {
        type            calculated;
        value           uniform (0 0 0);
    }
    rightInOut_periodic1
    {
        type            calculated;
        value           nonuniform 0();
    }
    procBoundary0to1
    {
        type            processor;
        value           uniform (0 0 0);
    }
    procBoundary0to2throughleftSides_periodic1
    {
        type            processorCyclic;
        value           uniform (0 0 0);
    }
    procBoundary0to2throughrightSides_periodic1
    {
        type            processorCyclic;
        value           uniform (0 0 0);
    }
    procBoundary0to3
    {
        type            processor;
        value           uniform (0 0 0);
    }
}


// ************************************************************************* //
