-0.0075 	0 	0 	0
-0.0075 	4.44963e-35 	-6.55621e-36 	-6.17019e-33
-0.00745622 	5.84814e-05 	-8.61683e-06 	-0.00810948
-0.00745622 	5.84814e-05 	-8.61683e-06 	-0.00810948
-0.00741165 	0.000179726 	-1.48755e-05 	-0.0185075
-0.00741165 	0.000179726 	-1.48755e-05 	-0.0185075
-0.00736628 	0.000301438 	-1.84765e-05 	-0.0295971
-0.00736628 	0.000301438 	-1.84765e-05 	-0.0295971
-0.0073201 	0.000399827 	-1.64189e-05 	-0.0403486
-0.0073201 	0.000399827 	-1.64189e-05 	-0.0403486
-0.00727309 	0.00048222 	-1.30303e-05 	-0.0507159
-0.00727309 	0.00048222 	-1.30303e-05 	-0.0507159
-0.00722524 	0.000557272 	-7.61231e-06 	-0.0608463
-0.00722524 	0.000557272 	-7.61231e-06 	-0.0608463
-0.00717653 	0.000628494 	-7.694e-07 	-0.070751
-0.00717653 	0.000628494 	-7.694e-07 	-0.070751
-0.00712695 	0.000697394 	7.3504e-06 	-0.0803849
-0.00712695 	0.000697394 	7.3504e-06 	-0.0803849
-0.00707647 	0.000764593 	1.6922e-05 	-0.0896871
-0.00707647 	0.000764593 	1.6922e-05 	-0.0896871
-0.0070251 	0.000830167 	2.79423e-05 	-0.0986036
-0.0070251 	0.000830167 	2.79423e-05 	-0.0986036
-0.0069728 	0.000893936 	4.06379e-05 	-0.107099
-0.0069728 	0.000893936 	4.06379e-05 	-0.107099
-0.00691956 	0.000955746 	5.52854e-05 	-0.115155
-0.00691956 	0.000955746 	5.52854e-05 	-0.115155
-0.00686537 	0.00101561 	7.16584e-05 	-0.122772
-0.00686537 	0.00101561 	7.16584e-05 	-0.122772
-0.00681021 	0.0010738 	8.95737e-05 	-0.129968
-0.00681021 	0.0010738 	8.95737e-05 	-0.129968
-0.00675406 	0.00113078 	0.000109018 	-0.136774
-0.00675406 	0.00113078 	0.000109018 	-0.136774
-0.0066969 	0.00118698 	0.000130042 	-0.143215
-0.0066969 	0.00118698 	0.000130042 	-0.143215
-0.00663871 	0.00124284 	0.000152727 	-0.14931
-0.00663871 	0.00124284 	0.000152727 	-0.14931
-0.00657949 	0.00129875 	0.000176794 	-0.15509
-0.00657949 	0.00129875 	0.000176794 	-0.15509
-0.0065192 	0.00135496 	0.000202289 	-0.160606
-0.0065192 	0.00135496 	0.000202289 	-0.160606
-0.00645783 	0.00141107 	0.000229748 	-0.165923
-0.00645783 	0.00141107 	0.000229748 	-0.165923
-0.00639535 	0.00146626 	0.000259173 	-0.171051
-0.00639535 	0.00146626 	0.000259173 	-0.171051
-0.00633176 	0.00152028 	0.000290005 	-0.175912
-0.00633176 	0.00152028 	0.000290005 	-0.175912
-0.00626703 	0.00157385 	0.000321798 	-0.18043
-0.00626703 	0.00157385 	0.000321798 	-0.18043
-0.00620114 	0.00162807 	0.000354791 	-0.184613
-0.00620114 	0.00162807 	0.000354791 	-0.184613
-0.00613406 	0.00168328 	0.000389272 	-0.188526
-0.00613406 	0.00168328 	0.000389272 	-0.188526
-0.00606579 	0.00173926 	0.000424149 	-0.192223
-0.00606579 	0.00173926 	0.000424149 	-0.192223
-0.00599629 	0.00179578 	0.000458776 	-0.195727
-0.00599629 	0.00179578 	0.000458776 	-0.195727
-0.00592554 	0.00185209 	0.000494101 	-0.199058
-0.00592554 	0.00185209 	0.000494101 	-0.199058
-0.00585352 	0.00190697 	0.000530625 	-0.202249
-0.00585352 	0.00190697 	0.000530625 	-0.202249
-0.00578022 	0.00195891 	0.000567392 	-0.205342
-0.00578022 	0.00195891 	0.000567392 	-0.205342
-0.00570559 	0.00200825 	0.000601044 	-0.208354
-0.00570559 	0.00200825 	0.000601044 	-0.208354
-0.00562963 	0.0020608 	0.000632565 	-0.211215
-0.00562963 	0.0020608 	0.000632565 	-0.211215
-0.00555231 	0.002125 	0.000670273 	-0.213796
-0.00555231 	0.002125 	0.000670273 	-0.213796
-0.0054736 	0.002202 	0.000722187 	-0.216131
-0.0054736 	0.002202 	0.000722187 	-0.216131
-0.00539348 	0.00227099 	0.000782157 	-0.218703
-0.00539348 	0.00227099 	0.000782157 	-0.218703
-0.00531193 	0.00230312 	0.000821682 	-0.221996
-0.00531193 	0.00230312 	0.000821682 	-0.221996
-0.00522891 	0.00230454 	0.000837359 	-0.225295
-0.00522891 	0.00230454 	0.000837359 	-0.225295
-0.0051444 	0.0023077 	0.000842352 	-0.227717
-0.0051444 	0.0023077 	0.000842352 	-0.227717
-0.00505838 	0.00234077 	0.000851267 	-0.229954
-0.00505838 	0.00234077 	0.000851267 	-0.229954
-0.00497081 	0.00240107 	0.000909488 	-0.23335
-0.00497081 	0.00240107 	0.000909488 	-0.23335
-0.00488168 	0.00245628 	0.000998569 	-0.237535
-0.00488168 	0.00245628 	0.000998569 	-0.237535
-0.00479094 	0.00249411 	0.00106015 	-0.241194
-0.00479094 	0.00249411 	0.00106015 	-0.241194
-0.00469858 	0.00252406 	0.00108723 	-0.24395
-0.00469858 	0.00252406 	0.00108723 	-0.24395
-0.00460456 	0.00255626 	0.00110781 	-0.245988
-0.00460456 	0.00255626 	0.00110781 	-0.245988
-0.00450886 	0.0025936 	0.00114458 	-0.247694
-0.00450886 	0.0025936 	0.00114458 	-0.247694
-0.00441144 	0.00262834 	0.00118739 	-0.249336
-0.00441144 	0.00262834 	0.00118739 	-0.249336
-0.00431227 	0.00265559 	0.0012259 	-0.250983
-0.00431227 	0.00265559 	0.0012259 	-0.250983
-0.00421133 	0.00267814 	0.00125905 	-0.252605
-0.00421133 	0.00267814 	0.00125905 	-0.252605
-0.00410857 	0.00269846 	0.00128731 	-0.254174
-0.00410857 	0.00269846 	0.00128731 	-0.254174
-0.00400397 	0.00271653 	0.00131439 	-0.255688
-0.00400397 	0.00271653 	0.00131439 	-0.255688
-0.0038975 	0.00273254 	0.0013443 	-0.25714
-0.0038975 	0.00273254 	0.0013443 	-0.25714
-0.00378912 	0.00274634 	0.00137747 	-0.258525
-0.00378912 	0.00274634 	0.00137747 	-0.258525
-0.00367879 	0.00275711 	0.00141087 	-0.259842
-0.00367879 	0.00275711 	0.00141087 	-0.259842
-0.00356649 	0.00276414 	0.00144272 	-0.261091
-0.00356649 	0.00276414 	0.00144272 	-0.261091
-0.00345217 	0.00276757 	0.00147442 	-0.262272
-0.00345217 	0.00276757 	0.00147442 	-0.262272
-0.0033358 	0.00276892 	0.00150301 	-0.263379
-0.0033358 	0.00276892 	0.00150301 	-0.263379
-0.00321735 	0.00276755 	0.00152563 	-0.264431
-0.00321735 	0.00276755 	0.00152563 	-0.264431
-0.00309677 	0.00275417 	0.00155236 	-0.265488
-0.00309677 	0.00275417 	0.00155236 	-0.265488
-0.00297403 	0.00272104 	0.00158767 	-0.266466
-0.00297403 	0.00272104 	0.00158767 	-0.266466
-0.00284909 	0.00267846 	0.00160871 	-0.266919
-0.00284909 	0.00267846 	0.00160871 	-0.266919
-0.0027219 	0.00264677 	0.00158498 	-0.266367
-0.0027219 	0.00264677 	0.00158498 	-0.266367
-0.00259244 	0.00262166 	0.0015252 	-0.265792
-0.00259244 	0.00262166 	0.0015252 	-0.265792
-0.00246065 	0.00253822 	0.00158046 	-0.268202
-0.00246065 	0.00253822 	0.00158046 	-0.268202
-0.00232651 	0.00236671 	0.00167684 	-0.274042
-0.00232651 	0.00236671 	0.00167684 	-0.274042
-0.00218995 	0.00218438 	0.0016347 	-0.279895
-0.00218995 	0.00218438 	0.0016347 	-0.279895
-0.00205095 	0.00203308 	0.00160559 	-0.283572
-0.00205095 	0.00203308 	0.00160559 	-0.283572
-0.00190946 	0.0019083 	0.00165462 	-0.285412
-0.00190946 	0.0019083 	0.00165462 	-0.285412
-0.00176543 	0.00180558 	0.00168339 	-0.286423
-0.00176543 	0.00180558 	0.00168339 	-0.286423
-0.00161881 	0.00169139 	0.00168507 	-0.287277
-0.00161881 	0.00169139 	0.00168507 	-0.287277
-0.00146957 	0.00154765 	0.00168226 	-0.288224
-0.00146957 	0.00154765 	0.00168226 	-0.288224
-0.00131765 	0.0013859 	0.00168087 	-0.289214
-0.00131765 	0.0013859 	0.00168087 	-0.289214
-0.001163 	0.00122288 	0.00168776 	-0.290114
-0.001163 	0.00122288 	0.00168776 	-0.290114
-0.00100559 	0.00106137 	0.00168592 	-0.290904
-0.00100559 	0.00106137 	0.00168592 	-0.290904
-0.000845345 	0.000893717 	0.00167543 	-0.291618
-0.000845345 	0.000893717 	0.00167543 	-0.291618
-0.000682232 	0.000717724 	0.0016611 	-0.292242
-0.000682232 	0.000717724 	0.0016611 	-0.292242
-0.000516194 	0.00053823 	0.00164246 	-0.292701
-0.000516194 	0.00053823 	0.00164246 	-0.292701
-0.000347178 	0.000354968 	0.00162387 	-0.292918
-0.000347178 	0.000354968 	0.00162387 	-0.292918
-0.000175132 	0.000162589 	0.00158543 	-0.292878
-0.000175132 	0.000162589 	0.00158543 	-0.292878
0 	-3.5896e-05 	0.00153778 	-0.292664
0 	-3.5896e-05 	0.00153778 	-0.292664
0 	-3.5896e-05 	0.00153778 	-0.292664
0 	-3.5896e-05 	0.00153778 	-0.292664
0.000175132 	-0.000230556 	0.00149551 	-0.292461
0.000175132 	0.00309075 	-0.00173286 	-0.323433
0.000347178 	-0.000416896 	0.00144802 	-0.292344
0.000347178 	0.00223413 	-0.00180282 	-0.323479
0.000516194 	-0.00059678 	0.00141649 	-0.292231
0.000516194 	0.00137857 	-0.00178568 	-0.324133
0.000682232 	-0.000769773 	0.00138906 	-0.292031
0.000682232 	0.000528518 	-0.00182619 	-0.324871
0.000845345 	-0.000937065 	0.00137034 	-0.291707
0.000845345 	-0.000337117 	-0.00179203 	-0.325072
0.00100559 	-0.0011092 	0.00136148 	-0.291245
0.00100559 	-0.00128935 	-0.00171029 	-0.324574
0.001163 	-0.00128882 	0.0013069 	-0.290363
0.001163 	-0.00232861 	-0.00199385 	-0.321637
0.00131765 	-0.00149364 	0.0012987 	-0.288697
0.00131765 	-0.00355355 	-0.00197243 	-0.314437
0.00146957 	-0.00176539 	0.00139282 	-0.286157
0.00146957 	-0.00523897 	-0.00115433 	-0.302975
0.00161881 	-0.00202849 	0.00138915 	-0.284282
0.00161881 	-0.00687252 	-0.000922082 	-0.297714
0.00176543 	-0.0021992 	0.00128912 	-0.284178
0.00176543 	-0.00802141 	-0.00146392 	-0.303825
0.00190946 	-0.00230762 	0.00122378 	-0.284641
0.00190946 	-0.00895483 	-0.00188147 	-0.312105
0.00205095 	-0.00238424 	0.00118246 	-0.284629
0.00205095 	-0.00977096 	-0.00207326 	-0.317153
0.00218995 	-0.00244878 	0.00118226 	-0.283929
0.00218995 	-0.0105321 	-0.00192841 	-0.318274
0.00232651 	-0.0025193 	0.00120771 	-0.282738
0.00232651 	-0.0113425 	-0.00160183 	-0.316652
0.00246065 	-0.00260414 	0.00118425 	-0.281195
0.00246065 	-0.0122819 	-0.00162367 	-0.312916
0.00259244 	-0.00271194 	0.00115641 	-0.27917
0.00259244 	-0.0134463 	-0.00170063 	-0.306245
0.0027219 	-0.00287645 	0.00124007 	-0.276354
0.0027219 	-0.0150487 	-0.0010146 	-0.295062
0.00284909 	-0.00303292 	0.00126288 	-0.273992
0.00284909 	-0.0165356 	-0.000674617 	-0.288513
0.00297403 	-0.00309634 	0.00113054 	-0.273267
0.00297403 	-0.0171746 	-0.00120938 	-0.294051
0.00309677 	-0.00311038 	0.00104651 	-0.27318
0.00309677 	-0.017366 	-0.00159182 	-0.302324
0.00321735 	-0.00310325 	0.00109398 	-0.272663
0.00321735 	-0.0176706 	-0.00164823 	-0.306202
0.0033358 	-0.00302369 	0.00115134 	-0.271169
0.0033358 	-0.0181101 	-0.00155913 	-0.307016
0.00345217 	-0.00283156 	0.00107407 	-0.268329
0.00345217 	-0.0185429 	-0.0014871 	-0.306955
0.00356649 	-0.00254048 	0.000873877 	-0.264232
0.00356649 	-0.0189154 	-0.00141525 	-0.306548
0.00367879 	-0.00233219 	0.000808763 	-0.260916
0.00367879 	-0.0192563 	-0.00134569 	-0.305733
0.00378912 	-0.0195871 	-0.00138072 	-0.304695
0.00378912 	-0.00234704 	0.000928824 	-0.259703
0.0038975 	-0.0024586 	0.00100057 	-0.259165
0.0038975 	-0.0198957 	-0.00142499 	-0.303762
0.00400397 	-0.00254021 	0.000975535 	-0.258187
0.00400397 	-0.0201662 	-0.00134935 	-0.303275
0.00410857 	-0.00257187 	0.000906047 	-0.256722
0.00410857 	-0.0204015 	-0.00119507 	-0.303264
0.00421133 	-0.00257379 	0.000853258 	-0.255042
0.00421133 	-0.020672 	-0.00115409 	-0.302665
0.00431227 	-0.00256404 	0.000822418 	-0.253325
0.00431227 	-0.021012 	-0.00126981 	-0.300833
0.00441144 	-0.00254954 	0.000812022 	-0.251599
0.00441144 	-0.0213401 	-0.00135234 	-0.298608
0.00450886 	-0.00252489 	0.000851413 	-0.249799
0.00450886 	-0.0215979 	-0.00133756 	-0.296664
0.00460456 	-0.00246646 	0.000859646 	-0.247724
0.00460456 	-0.0217875 	-0.00128789 	-0.295056
0.00469858 	-0.00235344 	0.000770046 	-0.245132
0.00469858 	-0.0219167 	-0.00126575 	-0.293642
0.00479094 	-0.00219813 	0.000627461 	-0.242047
0.00479094 	-0.0219648 	-0.00127276 	-0.292298
0.00488168 	-0.00207145 	0.000559829 	-0.239196
0.00488168 	-0.0219086 	-0.00128209 	-0.290893
0.00497081 	-0.00202585 	0.000632603 	-0.237135
0.00497081 	-0.0217668 	-0.00128771 	-0.289316
0.00505838 	-0.00202096 	0.000710313 	-0.235421
0.00505838 	-0.0215882 	-0.00129199 	-0.287545
0.0051444 	-0.00200154 	0.000691022 	-0.233509
0.0051444 	-0.0214087 	-0.00129627 	-0.285631
0.00522891 	-0.00195431 	0.000618368 	-0.231297
0.00522891 	-0.0212312 	-0.00130087 	-0.283621
0.00531193 	-0.0210421 	-0.00130419 	-0.281533
0.00531193 	-0.00189079 	0.000565299 	-0.228896
0.00539348 	-0.00182238 	0.000547466 	-0.226392
0.00539348 	-0.0208309 	-0.00130546 	-0.279366
0.0054736 	-0.00175234 	0.000533339 	-0.223801
0.0054736 	-0.0205923 	-0.00130476 	-0.277116
0.00555231 	-0.00168058 	0.000511251 	-0.221116
0.00555231 	-0.0203216 	-0.00130336 	-0.274776
0.00562963 	-0.00160748 	0.000488562 	-0.218329
0.00562963 	-0.0200152 	-0.00130245 	-0.272338
0.00570559 	-0.00153383 	0.000466458 	-0.215431
0.00570559 	-0.0196725 	-0.00130085 	-0.269789
0.00578022 	-0.00146015 	0.000444185 	-0.212412
0.00578022 	-0.0192947 	-0.00129811 	-0.267123
0.00585352 	-0.00138657 	0.000420581 	-0.20926
0.00585352 	-0.018883 	-0.00129472 	-0.264332
0.00592554 	-0.00131312 	0.000396076 	-0.205954
0.00592554 	-0.0184388 	-0.0012901 	-0.2614
0.00599629 	-0.00123994 	0.000371664 	-0.202471
0.00599629 	-0.0179639 	-0.00128349 	-0.258299
0.00606579 	-0.0174611 	-0.00127429 	-0.254992
0.00606579 	-0.00116734 	0.000347537 	-0.198788
0.00613406 	-0.00109585 	0.000323646 	-0.194881
0.00613406 	-0.0169335 	-0.00126226 	-0.251434
0.00620114 	-0.00102613 	0.000299974 	-0.190726
0.00620114 	-0.0163842 	-0.00124764 	-0.247577
0.00626703 	-0.000958787 	0.000276719 	-0.186294
0.00626703 	-0.0158168 	-0.00123026 	-0.243364
0.00633176 	-0.000894314 	0.000254079 	-0.181549
0.00633176 	-0.0152353 	-0.00120966 	-0.238732
0.00639535 	-0.000833083 	0.000231868 	-0.176456
0.00639535 	-0.0146451 	-0.00118548 	-0.233615
0.00645783 	-0.000775389 	0.000210036 	-0.170976
0.00645783 	-0.0140517 	-0.0011574 	-0.227937
0.0065192 	-0.000721416 	0.000188584 	-0.165072
0.0065192 	-0.0134611 	-0.0011251 	-0.221621
0.00657949 	-0.000671166 	0.000167585 	-0.15871
0.00657949 	-0.0128781 	-0.00108828 	-0.214591
0.00663871 	-0.00062438 	0.000147356 	-0.151858
0.00663871 	-0.0123052 	-0.00104675 	-0.206784
0.0066969 	-0.000580576 	0.000127939 	-0.144493
0.0066969 	-0.01174 	-0.00100034 	-0.198158
0.00675406 	-0.000538953 	0.00010922 	-0.136596
0.00675406 	-0.0111736 	-0.000948687 	-0.188691
0.00681021 	-0.00049806 	9.10384e-05 	-0.128163
0.00681021 	-0.0105903 	-0.000892077 	-0.178382
0.00686537 	-0.0004559 	7.36617e-05 	-0.119215
0.00686537 	-0.00996973 	-0.000830582 	-0.167256
0.00691956 	-0.000410571 	5.76836e-05 	-0.109804
0.00691956 	-0.00929057 	-0.00076437 	-0.155365
0.0069728 	-0.000360909 	4.33139e-05 	-0.100027
0.0069728 	-0.00853643 	-0.000694705 	-0.142827
0.0070251 	-0.000306824 	3.08682e-05 	-0.090026
0.0070251 	-0.00770116 	-0.000622658 	-0.129854
0.00707647 	-0.000249481 	2.06842e-05 	-0.0799743
0.00707647 	-0.00679247 	-0.000549901 	-0.116726
0.00712695 	-0.000191536 	1.29455e-05 	-0.0700471
0.00712695 	-0.00583618 	-0.000477917 	-0.103726
0.00717653 	-0.000137161 	7.83114e-06 	-0.0603797
0.00717653 	-0.00487821 	-0.000407165 	-0.0910351
0.00722524 	-9.17392e-05 	5.30045e-06 	-0.051035
0.00722524 	-0.0039826 	-0.000336211 	-0.0786459
0.00727309 	-6.17844e-05 	5.05666e-06 	-0.0419888
0.00727309 	-0.00323007 	-0.000266616 	-0.0663184
0.0073201 	-5.56017e-05 	6.01764e-06 	-0.033128
0.0073201 	-0.00272314 	-0.000208721 	-0.0535584
0.00736628 	-8.49346e-05 	8.17908e-06 	-0.0242498
0.00736628 	-0.0026018 	-0.000114465 	-0.0395713
0.00741165 	-0.000127705 	6.68067e-06 	-0.0153723
0.00741165 	-0.0025958 	-7.47323e-05 	-0.0244059
0.00745622 	-0.000111462 	3.75962e-06 	-0.00708313
0.00745622 	-0.00185443 	-3.76958e-05 	-0.0103349
0.0075 	0 	0 	0
0.0075 	0 	0 	0
