/*--------------------------------*- C++ -*----------------------------------*\
| =========                 |                                                 |
| \\      /  F ield         | OpenFOAM: The Open Source CFD Toolbox           |
|  \\    /   O peration     | Version:  v1912                                 |
|   \\  /    A nd           | Website:  www.openfoam.com                      |
|    \\/     M anipulation  |                                                 |
\*---------------------------------------------------------------------------*/
FoamFile
{
    version     2.0;
    format      ascii;
    class       volScalarField;
    location    "198.4";
    object      nut;
}
// * * * * * * * * * * * * * * * * * * * * * * * * * * * * * * * * * * * * * //

dimensions      [0 2 -1 0 0 0 0];


internalField   nonuniform List<scalar> 
10077
(
1.58128e-05
1.44668e-05
1.28635e-05
1.25548e-05
1.26032e-05
1.25988e-05
1.25704e-05
1.25411e-05
1.25367e-05
1.25439e-05
1.25764e-05
1.26075e-05
1.26145e-05
1.25682e-05
1.28744e-05
1.44667e-05
1.54634e-05
1.42333e-05
1.2873e-05
1.26154e-05
1.26543e-05
1.26279e-05
1.2584e-05
1.25431e-05
1.25363e-05
1.2546e-05
1.25903e-05
1.26367e-05
1.2666e-05
1.26293e-05
1.28849e-05
1.42343e-05
1.50977e-05
1.39903e-05
1.2859e-05
1.26522e-05
1.26842e-05
1.26391e-05
1.25812e-05
1.25304e-05
1.25214e-05
1.25335e-05
1.25875e-05
1.26482e-05
1.26962e-05
1.26665e-05
1.28717e-05
1.39925e-05
1.47191e-05
1.3742e-05
1.28235e-05
1.26657e-05
1.26933e-05
1.26329e-05
1.25624e-05
1.25034e-05
1.24926e-05
1.25066e-05
1.2569e-05
1.26421e-05
1.27054e-05
1.26803e-05
1.28369e-05
1.37454e-05
1.43364e-05
1.34919e-05
1.27689e-05
1.26571e-05
1.26821e-05
1.26098e-05
1.25286e-05
1.24626e-05
1.24502e-05
1.24658e-05
1.25353e-05
1.26191e-05
1.26944e-05
1.26719e-05
1.27827e-05
1.34964e-05
1.39555e-05
1.32428e-05
1.26971e-05
1.26277e-05
1.26516e-05
1.25706e-05
1.24803e-05
1.24085e-05
1.23951e-05
1.24119e-05
1.24871e-05
1.258e-05
1.26639e-05
1.26426e-05
1.27113e-05
1.32482e-05
1.3581e-05
1.29967e-05
1.26101e-05
1.25789e-05
1.26029e-05
1.25159e-05
1.24183e-05
1.2342e-05
1.23277e-05
1.23454e-05
1.24252e-05
1.25254e-05
1.26152e-05
1.25939e-05
1.26246e-05
1.30031e-05
1.32164e-05
1.2755e-05
1.25098e-05
1.25129e-05
1.25378e-05
1.24466e-05
1.23436e-05
1.22637e-05
1.22488e-05
1.22671e-05
1.23505e-05
1.24561e-05
1.25502e-05
1.25278e-05
1.25243e-05
1.27623e-05
1.28644e-05
1.25186e-05
1.23978e-05
1.24317e-05
1.24584e-05
1.2364e-05
1.22571e-05
1.21743e-05
1.2159e-05
1.21778e-05
1.22639e-05
1.23736e-05
1.24707e-05
1.24466e-05
1.24122e-05
1.25266e-05
1.25264e-05
1.22878e-05
1.22753e-05
1.23368e-05
1.23656e-05
1.22696e-05
1.21597e-05
1.20747e-05
1.20593e-05
1.20782e-05
1.21667e-05
1.22792e-05
1.23778e-05
1.23516e-05
1.22896e-05
1.22965e-05
1.22031e-05
1.20626e-05
1.21433e-05
1.22289e-05
1.22601e-05
1.21641e-05
1.20523e-05
1.19657e-05
1.19503e-05
1.19693e-05
1.20592e-05
1.21737e-05
1.22722e-05
1.22435e-05
1.21576e-05
1.20718e-05
1.18946e-05
1.18425e-05
1.2003e-05
1.21088e-05
1.21423e-05
1.20479e-05
1.19351e-05
1.18475e-05
1.18323e-05
1.18511e-05
1.19419e-05
1.20573e-05
1.21543e-05
1.21232e-05
1.20171e-05
1.18521e-05
1.16003e-05
1.1627e-05
1.18547e-05
1.19772e-05
1.2013e-05
1.19214e-05
1.18081e-05
1.17203e-05
1.17054e-05
1.17238e-05
1.18149e-05
1.19308e-05
1.20248e-05
1.19914e-05
1.18687e-05
1.1637e-05
1.13193e-05
1.14155e-05
1.16988e-05
1.18351e-05
1.18727e-05
1.17849e-05
1.16719e-05
1.15841e-05
1.15698e-05
1.15877e-05
1.16786e-05
1.17941e-05
1.18843e-05
1.1849e-05
1.17128e-05
1.14258e-05
1.10505e-05
1.12074e-05
1.15359e-05
1.16831e-05
1.17224e-05
1.16387e-05
1.1527e-05
1.14395e-05
1.14258e-05
1.14431e-05
1.15336e-05
1.16478e-05
1.17338e-05
1.16967e-05
1.15498e-05
1.12179e-05
1.07925e-05
1.10019e-05
1.13663e-05
1.15224e-05
1.1563e-05
1.14833e-05
1.13743e-05
1.12873e-05
1.12743e-05
1.12908e-05
1.13809e-05
1.14923e-05
1.15742e-05
1.15357e-05
1.13802e-05
1.10126e-05
1.05441e-05
1.07986e-05
1.11905e-05
1.13539e-05
1.13956e-05
1.13195e-05
1.12147e-05
1.11285e-05
1.11161e-05
1.1132e-05
1.12211e-05
1.13283e-05
1.14066e-05
1.13669e-05
1.12044e-05
1.08094e-05
1.0304e-05
1.05969e-05
1.10088e-05
1.11781e-05
1.12209e-05
1.1148e-05
1.10483e-05
1.09637e-05
1.0952e-05
1.09671e-05
1.10547e-05
1.11566e-05
1.12317e-05
1.11908e-05
1.10225e-05
1.06078e-05
1.0071e-05
1.03965e-05
1.08222e-05
1.09953e-05
1.10391e-05
1.09693e-05
1.08755e-05
1.07932e-05
1.07824e-05
1.07966e-05
1.08818e-05
1.09778e-05
1.10497e-05
1.10077e-05
1.08351e-05
1.04074e-05
9.84397e-06
1.0197e-05
1.06308e-05
1.08057e-05
1.08506e-05
1.0784e-05
1.06965e-05
1.06171e-05
1.06071e-05
1.06204e-05
1.07027e-05
1.07923e-05
1.0861e-05
1.08179e-05
1.06432e-05
1.02079e-05
9.622e-06
9.99812e-06
1.0435e-05
1.06094e-05
1.06554e-05
1.05924e-05
1.05114e-05
1.04353e-05
1.04264e-05
1.04386e-05
1.05175e-05
1.06006e-05
1.06656e-05
1.06214e-05
1.04469e-05
1.0009e-05
9.40423e-06
9.79977e-06
1.0235e-05
1.04071e-05
1.04539e-05
1.03951e-05
1.03202e-05
1.02481e-05
1.02401e-05
1.02514e-05
1.03262e-05
1.04032e-05
1.04639e-05
1.04189e-05
1.02465e-05
9.8106e-06
9.18997e-06
9.6019e-06
1.00311e-05
1.02001e-05
1.02471e-05
1.01926e-05
1.01229e-05
1.00557e-05
1.00486e-05
1.00589e-05
1.01287e-05
1.02005e-05
1.02569e-05
1.02114e-05
1.00422e-05
9.61268e-06
8.97867e-06
9.40457e-06
9.82369e-06
9.9895e-06
1.00358e-05
9.98538e-06
9.91997e-06
9.85815e-06
9.85186e-06
9.86126e-06
9.92573e-06
9.99314e-06
1.00452e-05
1.00003e-05
9.83452e-06
9.41531e-06
8.76999e-06
9.20734e-06
9.6132e-06
9.77551e-06
9.82083e-06
9.77398e-06
9.71228e-06
9.65567e-06
9.64998e-06
9.65872e-06
9.71791e-06
9.78157e-06
9.82999e-06
9.7859e-06
9.62373e-06
9.21792e-06
8.56372e-06
9.00921e-06
9.40006e-06
9.55854e-06
9.60331e-06
9.559e-06
9.50045e-06
9.44833e-06
9.44325e-06
9.45133e-06
9.50596e-06
9.56641e-06
9.61216e-06
9.56854e-06
9.4103e-06
9.01956e-06
8.35937e-06
8.80884e-06
9.18377e-06
9.33808e-06
9.38257e-06
9.34007e-06
9.28423e-06
9.23599e-06
9.2315e-06
9.23892e-06
9.28961e-06
9.34729e-06
9.39113e-06
9.34772e-06
9.19372e-06
8.8189e-06
8.15648e-06
8.60513e-06
8.9635e-06
9.11329e-06
9.14731e-06
9.11646e-06
9.06295e-06
9.01807e-06
9.01417e-06
9.02093e-06
9.0682e-06
9.1235e-06
9.15503e-06
9.1226e-06
8.97316e-06
8.61483e-06
7.95476e-06
8.39755e-06
8.72305e-06
8.83752e-06
8.86632e-06
8.851e-06
8.82092e-06
8.79406e-06
8.78953e-06
8.79681e-06
8.82576e-06
8.85748e-06
8.8736e-06
8.84566e-06
8.73135e-06
8.40687e-06
7.75317e-06
8.18576e-06
8.42848e-06
8.54008e-06
8.57047e-06
8.55334e-06
8.5247e-06
8.50077e-06
8.49573e-06
8.50333e-06
8.52931e-06
8.55947e-06
8.57749e-06
8.5478e-06
8.43644e-06
8.19463e-06
7.55084e-06
7.93248e-06
8.11921e-06
8.23611e-06
8.27058e-06
8.2461e-06
8.21244e-06
8.18609e-06
8.18117e-06
8.18853e-06
8.2169e-06
8.25197e-06
8.27736e-06
8.24364e-06
8.12711e-06
7.93835e-06
7.34756e-06
7.60682e-06
7.80976e-06
7.93049e-06
7.96838e-06
7.93736e-06
7.89882e-06
7.86898e-06
7.86489e-06
7.87133e-06
7.90313e-06
7.943e-06
7.97489e-06
7.93784e-06
7.81759e-06
7.61218e-06
7.07733e-06
7.27531e-06
7.50377e-06
7.62425e-06
7.66399e-06
7.6291e-06
7.58788e-06
7.55609e-06
7.55297e-06
7.55836e-06
7.59204e-06
7.6345e-06
7.67021e-06
7.63135e-06
7.51143e-06
7.28081e-06
6.755e-06
6.95971e-06
7.20206e-06
7.3185e-06
7.35857e-06
7.32241e-06
7.2808e-06
7.24896e-06
7.2467e-06
7.25114e-06
7.28478e-06
7.32757e-06
7.36448e-06
7.3253e-06
7.20944e-06
6.96535e-06
6.44037e-06
6.66251e-06
6.90493e-06
7.01488e-06
7.05413e-06
7.01855e-06
6.97823e-06
6.94776e-06
6.9462e-06
6.94984e-06
6.98202e-06
7.02346e-06
7.05974e-06
7.02134e-06
6.91197e-06
6.66813e-06
6.14817e-06
6.38018e-06
6.6127e-06
6.71499e-06
6.75267e-06
6.71878e-06
6.68074e-06
6.65245e-06
6.65144e-06
6.65442e-06
6.68434e-06
6.72345e-06
6.75798e-06
6.72111e-06
6.61935e-06
6.38562e-06
5.87708e-06
6.10868e-06
6.32573e-06
6.42018e-06
6.45583e-06
6.42421e-06
6.38897e-06
6.36313e-06
6.36255e-06
6.36499e-06
6.39238e-06
6.42863e-06
6.46085e-06
6.42595e-06
6.33198e-06
6.11384e-06
5.62223e-06
5.84539e-06
6.04458e-06
6.13162e-06
6.16497e-06
6.13589e-06
6.10367e-06
6.08024e-06
6.08001e-06
6.08199e-06
6.10687e-06
6.14007e-06
6.16971e-06
6.13704e-06
6.05043e-06
5.85022e-06
5.37939e-06
5.58926e-06
5.77019e-06
5.85053e-06
5.88142e-06
5.855e-06
5.82583e-06
5.80466e-06
5.8047e-06
5.80631e-06
5.82884e-06
5.85893e-06
5.88588e-06
5.85562e-06
5.77563e-06
5.59374e-06
5.1459e-06
5.34022e-06
5.50364e-06
5.57812e-06
5.60648e-06
5.58275e-06
5.55655e-06
5.53742e-06
5.53766e-06
5.53896e-06
5.55937e-06
5.58644e-06
5.61068e-06
5.58288e-06
5.5087e-06
5.34436e-06
4.92056e-06
5.09872e-06
5.24595e-06
5.31538e-06
5.34127e-06
5.32014e-06
5.29675e-06
5.27941e-06
5.27979e-06
5.28085e-06
5.29937e-06
5.32359e-06
5.34522e-06
5.31984e-06
5.25064e-06
5.10252e-06
4.70295e-06
4.86538e-06
4.99793e-06
5.06299e-06
5.08654e-06
5.06784e-06
5.04701e-06
5.03128e-06
5.03175e-06
5.03261e-06
5.04945e-06
5.07106e-06
5.09024e-06
5.06715e-06
5.00228e-06
4.86887e-06
4.49285e-06
4.64058e-06
4.75994e-06
4.82104e-06
4.84247e-06
4.82596e-06
4.80742e-06
4.79315e-06
4.79368e-06
4.7944e-06
4.80969e-06
4.82896e-06
4.84594e-06
4.82493e-06
4.76398e-06
4.64378e-06
4.28982e-06
4.4241e-06
4.53161e-06
4.58896e-06
4.60849e-06
4.5939e-06
4.57738e-06
4.56449e-06
4.56506e-06
4.56564e-06
4.57948e-06
4.5967e-06
4.61174e-06
4.59259e-06
4.53535e-06
4.42703e-06
4.09299e-06
4.21506e-06
4.31184e-06
4.36548e-06
4.38334e-06
4.37041e-06
4.35566e-06
4.3441e-06
4.3447e-06
4.34517e-06
4.35761e-06
4.37302e-06
4.38639e-06
4.36888e-06
4.31531e-06
4.21776e-06
3.90123e-06
4.01216e-06
4.09911e-06
4.14905e-06
4.16543e-06
4.15394e-06
4.14075e-06
4.13048e-06
4.13111e-06
4.13148e-06
4.14257e-06
4.15638e-06
4.16829e-06
4.15223e-06
4.10234e-06
4.01464e-06
3.71332e-06
3.81397e-06
3.89187e-06
3.93814e-06
3.95318e-06
3.94295e-06
3.93117e-06
3.92214e-06
3.92281e-06
3.92308e-06
3.93287e-06
3.94524e-06
3.95587e-06
3.94112e-06
3.89486e-06
3.81626e-06
3.5282e-06
3.61926e-06
3.68876e-06
3.73145e-06
3.74526e-06
3.73617e-06
3.72569e-06
3.71784e-06
3.71852e-06
3.71871e-06
3.72727e-06
3.73831e-06
3.74779e-06
3.73425e-06
3.69154e-06
3.62137e-06
3.34498e-06
3.42703e-06
3.48874e-06
3.52795e-06
3.54061e-06
3.53257e-06
3.52328e-06
3.51654e-06
3.51725e-06
3.51735e-06
3.52476e-06
3.53458e-06
3.54299e-06
3.53058e-06
3.49132e-06
3.42897e-06
3.16299e-06
3.23655e-06
3.291e-06
3.32686e-06
3.33843e-06
3.33136e-06
3.3232e-06
3.31749e-06
3.3182e-06
3.31825e-06
3.32459e-06
3.33325e-06
3.34068e-06
3.32934e-06
3.2934e-06
3.23833e-06
2.98175e-06
3.04728e-06
3.09497e-06
3.12762e-06
3.13813e-06
3.13198e-06
3.12488e-06
3.12011e-06
3.12083e-06
3.12082e-06
3.12617e-06
3.13375e-06
3.14025e-06
3.12994e-06
3.0972e-06
3.04892e-06
2.80093e-06
2.85886e-06
2.90026e-06
2.92982e-06
2.93931e-06
2.93402e-06
2.92792e-06
2.92401e-06
2.92473e-06
2.92467e-06
2.92913e-06
2.93569e-06
2.94131e-06
2.932e-06
2.90232e-06
2.86036e-06
2.62019e-06
2.67098e-06
2.70651e-06
2.73314e-06
2.74163e-06
2.73715e-06
2.73199e-06
2.72885e-06
2.72958e-06
2.72947e-06
2.73312e-06
2.73872e-06
2.74352e-06
2.73517e-06
2.70841e-06
2.67234e-06
2.43874e-06
2.48291e-06
2.51304e-06
2.53693e-06
2.54446e-06
2.54073e-06
2.53644e-06
2.534e-06
2.53473e-06
2.53458e-06
2.53751e-06
2.54221e-06
2.54624e-06
2.53884e-06
2.51479e-06
2.48415e-06
2.25329e-06
2.29179e-06
2.3171e-06
2.33868e-06
2.34532e-06
2.34224e-06
2.33874e-06
2.3369e-06
2.33766e-06
2.33745e-06
2.33977e-06
2.34368e-06
2.34704e-06
2.34051e-06
2.31874e-06
2.29293e-06
2.06464e-06
2.09769e-06
2.11871e-06
2.13808e-06
2.14386e-06
2.14143e-06
2.13865e-06
2.1373e-06
2.13804e-06
2.13782e-06
2.13961e-06
2.14277e-06
2.14548e-06
2.13977e-06
2.12022e-06
2.09872e-06
1.87889e-06
1.9068e-06
1.9239e-06
1.94109e-06
1.94606e-06
1.94422e-06
1.9421e-06
1.94118e-06
1.94189e-06
1.94165e-06
1.94298e-06
1.94547e-06
1.94756e-06
1.94265e-06
1.92527e-06
1.90772e-06
1.69689e-06
1.72001e-06
1.73353e-06
1.74863e-06
1.75282e-06
1.75151e-06
1.74998e-06
1.74943e-06
1.75012e-06
1.74987e-06
1.7508e-06
1.75266e-06
1.75421e-06
1.75005e-06
1.73476e-06
1.72081e-06
1.51882e-06
1.53753e-06
1.54784e-06
1.56095e-06
1.56441e-06
1.56358e-06
1.56258e-06
1.56234e-06
1.563e-06
1.56274e-06
1.56333e-06
1.56464e-06
1.56568e-06
1.56225e-06
1.54894e-06
1.53823e-06
1.34517e-06
1.35987e-06
1.36736e-06
1.37863e-06
1.38139e-06
1.38098e-06
1.38045e-06
1.38046e-06
1.38108e-06
1.38083e-06
1.38114e-06
1.38195e-06
1.38256e-06
1.3798e-06
1.36833e-06
1.36048e-06
1.1768e-06
1.18792e-06
1.19297e-06
1.20255e-06
1.20469e-06
1.20463e-06
1.2045e-06
1.2047e-06
1.20528e-06
1.20503e-06
1.20512e-06
1.20551e-06
1.20574e-06
1.20359e-06
1.19382e-06
1.18844e-06
1.01481e-06
1.02275e-06
1.02572e-06
1.03375e-06
1.03531e-06
1.03556e-06
1.03576e-06
1.03611e-06
1.03664e-06
1.03641e-06
1.03631e-06
1.03634e-06
1.03625e-06
1.03467e-06
1.02644e-06
1.02318e-06
8.60289e-07
8.65051e-07
8.65948e-07
8.72526e-07
8.73495e-07
8.74054e-07
8.746e-07
8.75095e-07
8.75574e-07
8.75357e-07
8.75092e-07
8.74753e-07
8.74328e-07
8.73329e-07
8.66564e-07
8.65395e-07
7.12564e-07
7.1085e-07
7.07046e-07
7.11892e-07
7.11509e-07
7.12979e-07
7.14522e-07
7.15434e-07
7.15901e-07
7.1568e-07
7.14985e-07
7.13642e-07
7.12295e-07
7.12609e-07
7.07544e-07
7.1107e-07
5.55024e-07
5.51931e-07
5.47562e-07
5.51311e-07
5.50672e-07
5.52148e-07
5.53707e-07
5.54578e-07
5.54973e-07
5.54784e-07
5.54093e-07
5.52701e-07
5.51328e-07
5.51902e-07
5.47959e-07
5.5209e-07
4.12708e-07
4.09012e-07
4.04665e-07
4.07468e-07
4.06753e-07
4.08098e-07
4.09537e-07
4.10312e-07
4.10631e-07
4.10477e-07
4.09845e-07
4.08541e-07
4.07281e-07
4.07936e-07
4.04971e-07
4.09121e-07
2.89862e-07
2.86238e-07
2.82392e-07
2.84408e-07
2.83754e-07
2.84875e-07
2.86086e-07
2.8671e-07
2.86954e-07
2.86835e-07
2.86319e-07
2.85211e-07
2.84155e-07
2.84761e-07
2.82615e-07
2.86308e-07
1.89973e-07
1.86925e-07
1.83895e-07
1.85276e-07
1.84752e-07
1.85607e-07
1.86533e-07
1.8699e-07
1.87164e-07
1.87078e-07
1.86697e-07
1.85844e-07
1.85035e-07
1.85523e-07
1.84048e-07
1.86968e-07
1.14729e-07
1.12516e-07
1.10411e-07
1.11289e-07
1.10923e-07
1.11509e-07
1.12144e-07
1.12447e-07
1.1256e-07
1.12504e-07
1.12249e-07
1.11661e-07
1.11105e-07
1.11449e-07
1.10508e-07
1.1254e-07
6.30973e-08
6.17158e-08
6.0441e-08
6.09489e-08
6.07273e-08
6.10823e-08
6.14663e-08
6.16459e-08
6.17116e-08
6.16786e-08
6.15271e-08
6.11705e-08
6.08333e-08
6.10413e-08
6.04965e-08
6.17284e-08
3.12752e-08
3.05385e-08
2.98708e-08
3.01327e-08
3.00184e-08
3.02057e-08
3.04081e-08
3.05017e-08
3.05356e-08
3.05185e-08
3.04394e-08
3.02511e-08
3.00729e-08
3.01802e-08
2.98991e-08
3.05446e-08
1.38227e-08
1.3489e-08
1.31892e-08
1.33083e-08
1.32584e-08
1.33437e-08
1.34357e-08
1.3478e-08
1.34934e-08
1.34856e-08
1.34498e-08
1.33642e-08
1.3283e-08
1.33297e-08
1.3202e-08
1.34918e-08
5.36112e-09
5.23379e-09
5.11946e-09
5.16654e-09
5.14829e-09
5.1815e-09
5.21716e-09
5.23362e-09
5.2397e-09
5.23661e-09
5.22271e-09
5.18953e-09
5.15791e-09
5.17494e-09
5.1245e-09
5.23491e-09
1.77176e-09
1.73162e-09
1.6954e-09
1.71114e-09
1.70569e-09
1.71649e-09
1.72804e-09
1.73341e-09
1.73544e-09
1.73441e-09
1.72989e-09
1.71916e-09
1.70887e-09
1.71393e-09
1.69708e-09
1.73202e-09
4.72202e-10
4.62228e-10
4.53138e-10
4.57369e-10
4.56105e-10
4.58902e-10
4.61881e-10
4.63278e-10
4.63824e-10
4.63544e-10
4.62374e-10
4.59611e-10
4.5695e-10
4.5811e-10
4.53591e-10
4.62344e-10
9.15736e-11
8.98007e-11
8.81624e-11
8.89879e-11
8.8783e-11
8.93059e-11
8.98605e-11
9.01238e-11
9.02303e-11
9.01754e-11
8.99564e-11
8.94433e-11
8.89459e-11
8.9131e-11
8.82509e-11
8.9825e-11
1.06402e-11
1.04519e-11
1.02755e-11
1.03714e-11
1.03522e-11
1.04108e-11
1.04728e-11
1.05024e-11
1.05148e-11
1.05084e-11
1.04839e-11
1.04267e-11
1.03709e-11
1.03879e-11
1.02858e-11
1.04549e-11
6.65126e-13
6.51259e-13
6.3904e-13
6.44401e-13
6.42983e-13
6.47008e-13
6.5127e-13
6.53176e-13
6.539e-13
6.53515e-13
6.51902e-13
6.47923e-13
6.4408e-13
6.45362e-13
6.39623e-13
6.51392e-13
2.6104e-13
2.52926e-13
2.46415e-13
2.47983e-13
2.47013e-13
2.49003e-13
2.51135e-13
2.51972e-13
2.5221e-13
2.52077e-13
2.51331e-13
2.493e-13
2.47386e-13
2.48305e-13
2.46589e-13
2.52922e-13
1.22159e-05
1.28872e-05
1.34013e-05
1.31671e-05
1.28903e-05
1.27437e-05
1.27032e-05
1.26969e-05
1.26968e-05
1.27006e-05
1.271e-05
1.27518e-05
1.28972e-05
1.31713e-05
1.34018e-05
1.28866e-05
1.25578e-05
1.30527e-05
1.33659e-05
1.31271e-05
1.28773e-05
1.27711e-05
1.27526e-05
1.27609e-05
1.27634e-05
1.27644e-05
1.2759e-05
1.27789e-05
1.28839e-05
1.31307e-05
1.33655e-05
1.30512e-05
1.2855e-05
1.31851e-05
1.33182e-05
1.30737e-05
1.28484e-05
1.27777e-05
1.27788e-05
1.27998e-05
1.28046e-05
1.28031e-05
1.27849e-05
1.27852e-05
1.28547e-05
1.30769e-05
1.33172e-05
1.31826e-05
1.31052e-05
1.32838e-05
1.32588e-05
1.30088e-05
1.28055e-05
1.27655e-05
1.27835e-05
1.28154e-05
1.28222e-05
1.28186e-05
1.27893e-05
1.27727e-05
1.28117e-05
1.30117e-05
1.32573e-05
1.32805e-05
1.33059e-05
1.3349e-05
1.31882e-05
1.29338e-05
1.27502e-05
1.27363e-05
1.27687e-05
1.28097e-05
1.28181e-05
1.28128e-05
1.27743e-05
1.27432e-05
1.27563e-05
1.29366e-05
1.31863e-05
1.33449e-05
1.34579e-05
1.33817e-05
1.31069e-05
1.285e-05
1.26839e-05
1.26915e-05
1.2736e-05
1.27843e-05
1.2794e-05
1.27873e-05
1.27415e-05
1.26983e-05
1.26899e-05
1.28526e-05
1.31048e-05
1.33771e-05
1.35629e-05
1.33836e-05
1.30154e-05
1.27581e-05
1.26074e-05
1.26327e-05
1.26869e-05
1.27409e-05
1.27516e-05
1.27438e-05
1.26922e-05
1.26394e-05
1.26134e-05
1.27606e-05
1.30132e-05
1.33785e-05
1.36236e-05
1.33565e-05
1.29141e-05
1.26589e-05
1.25219e-05
1.25616e-05
1.26234e-05
1.26816e-05
1.2693e-05
1.26845e-05
1.26286e-05
1.25683e-05
1.25279e-05
1.26613e-05
1.2912e-05
1.3351e-05
1.36429e-05
1.33028e-05
1.28037e-05
1.25532e-05
1.24288e-05
1.24802e-05
1.25478e-05
1.26091e-05
1.26208e-05
1.26119e-05
1.2553e-05
1.24869e-05
1.24349e-05
1.25556e-05
1.28021e-05
1.3297e-05
1.36242e-05
1.32253e-05
1.26846e-05
1.24422e-05
1.23296e-05
1.23899e-05
1.24618e-05
1.2525e-05
1.25369e-05
1.25279e-05
1.2467e-05
1.23966e-05
1.23356e-05
1.24447e-05
1.26833e-05
1.32193e-05
1.35713e-05
1.31266e-05
1.25577e-05
1.23263e-05
1.22243e-05
1.2291e-05
1.23658e-05
1.24302e-05
1.2442e-05
1.2433e-05
1.2371e-05
1.22977e-05
1.22304e-05
1.23287e-05
1.25567e-05
1.31204e-05
1.3488e-05
1.30089e-05
1.24236e-05
1.22051e-05
1.21127e-05
1.21833e-05
1.22601e-05
1.23249e-05
1.23365e-05
1.23277e-05
1.22652e-05
1.219e-05
1.21188e-05
1.22076e-05
1.24229e-05
1.30027e-05
1.33776e-05
1.28742e-05
1.22821e-05
1.20785e-05
1.19946e-05
1.20664e-05
1.21446e-05
1.22094e-05
1.22206e-05
1.22121e-05
1.21497e-05
1.20731e-05
1.20006e-05
1.20809e-05
1.22817e-05
1.28679e-05
1.32436e-05
1.27241e-05
1.21334e-05
1.19459e-05
1.18696e-05
1.19405e-05
1.20192e-05
1.20836e-05
1.20944e-05
1.20864e-05
1.20243e-05
1.19473e-05
1.18756e-05
1.19484e-05
1.21332e-05
1.27179e-05
1.30886e-05
1.25602e-05
1.19772e-05
1.18066e-05
1.17377e-05
1.18058e-05
1.1884e-05
1.19478e-05
1.19581e-05
1.19505e-05
1.1889e-05
1.18125e-05
1.17437e-05
1.18093e-05
1.19774e-05
1.25541e-05
1.29155e-05
1.2384e-05
1.18138e-05
1.16593e-05
1.15982e-05
1.16624e-05
1.1739e-05
1.18022e-05
1.18119e-05
1.18049e-05
1.17441e-05
1.16691e-05
1.16043e-05
1.16624e-05
1.18141e-05
1.2378e-05
1.27266e-05
1.21968e-05
1.16432e-05
1.1504e-05
1.14507e-05
1.15109e-05
1.15848e-05
1.16471e-05
1.16562e-05
1.16497e-05
1.15898e-05
1.15176e-05
1.14569e-05
1.15074e-05
1.16438e-05
1.2191e-05
1.25242e-05
1.2e-05
1.14659e-05
1.13409e-05
1.12947e-05
1.13514e-05
1.14218e-05
1.14827e-05
1.14912e-05
1.14853e-05
1.14268e-05
1.13581e-05
1.1301e-05
1.13447e-05
1.14666e-05
1.19943e-05
1.23103e-05
1.17947e-05
1.12821e-05
1.11706e-05
1.11306e-05
1.11845e-05
1.12509e-05
1.13097e-05
1.13175e-05
1.13123e-05
1.12558e-05
1.11912e-05
1.1137e-05
1.11746e-05
1.1283e-05
1.17892e-05
1.20866e-05
1.15819e-05
1.10926e-05
1.09935e-05
1.09592e-05
1.10108e-05
1.10726e-05
1.11291e-05
1.11362e-05
1.11318e-05
1.10775e-05
1.10174e-05
1.09657e-05
1.09977e-05
1.10935e-05
1.15766e-05
1.18547e-05
1.13625e-05
1.08978e-05
1.08103e-05
1.07812e-05
1.0831e-05
1.08881e-05
1.09419e-05
1.09482e-05
1.09445e-05
1.08929e-05
1.08375e-05
1.07877e-05
1.08147e-05
1.08989e-05
1.13574e-05
1.16041e-05
1.11373e-05
1.06984e-05
1.06216e-05
1.05971e-05
1.06456e-05
1.0698e-05
1.07488e-05
1.07543e-05
1.07514e-05
1.07028e-05
1.0652e-05
1.06035e-05
1.06261e-05
1.06994e-05
1.11323e-05
1.1199e-05
1.09064e-05
1.04945e-05
1.04279e-05
1.04073e-05
1.04548e-05
1.05034e-05
1.05504e-05
1.05551e-05
1.05529e-05
1.05081e-05
1.04611e-05
1.04137e-05
1.04324e-05
1.04956e-05
1.09016e-05
1.07779e-05
1.06661e-05
1.02866e-05
1.02296e-05
1.02125e-05
1.02592e-05
1.03044e-05
1.03474e-05
1.03514e-05
1.03498e-05
1.03091e-05
1.02654e-05
1.02189e-05
1.02341e-05
1.02878e-05
1.06643e-05
1.03967e-05
1.03288e-05
1.00753e-05
1.00272e-05
1.00132e-05
1.00592e-05
1.01015e-05
1.01405e-05
1.01439e-05
1.01429e-05
1.01061e-05
1.00653e-05
1.00194e-05
1.00317e-05
1.00765e-05
1.03293e-05
1.00663e-05
9.98647e-06
9.8608e-06
9.8212e-06
9.80986e-06
9.85527e-06
9.89492e-06
9.91882e-06
9.92491e-06
9.92146e-06
9.89943e-06
9.86122e-06
9.81601e-06
9.82561e-06
9.86209e-06
9.98821e-06
9.77797e-06
9.67173e-06
9.62085e-06
9.60802e-06
9.59977e-06
9.62508e-06
9.64469e-06
9.65252e-06
9.65887e-06
9.6551e-06
9.64925e-06
9.63096e-06
9.60606e-06
9.61313e-06
9.62406e-06
9.67332e-06
9.51653e-06
9.38711e-06
9.34048e-06
9.33763e-06
9.33276e-06
9.356e-06
9.37314e-06
9.37833e-06
9.38387e-06
9.38078e-06
9.37748e-06
9.36155e-06
9.33872e-06
9.34272e-06
9.34386e-06
9.38814e-06
9.26734e-06
9.1218e-06
9.04995e-06
9.04902e-06
9.04701e-06
9.07521e-06
9.09605e-06
9.10624e-06
9.11045e-06
9.10855e-06
9.10013e-06
9.08041e-06
9.05258e-06
9.0538e-06
9.05286e-06
9.12221e-06
9.01845e-06
8.86122e-06
8.75885e-06
8.75709e-06
8.7574e-06
8.79239e-06
8.81729e-06
8.83347e-06
8.83626e-06
8.83566e-06
8.82115e-06
8.79728e-06
8.76258e-06
8.76139e-06
8.76117e-06
8.86106e-06
8.76089e-06
8.59262e-06
8.46717e-06
8.46568e-06
8.46803e-06
8.50789e-06
8.53501e-06
8.55575e-06
8.55719e-06
8.55782e-06
8.53868e-06
8.51253e-06
8.47289e-06
8.46956e-06
8.46898e-06
8.592e-06
8.48825e-06
8.30981e-06
8.17417e-06
8.17455e-06
8.17855e-06
8.22066e-06
8.24796e-06
8.27115e-06
8.27146e-06
8.27312e-06
8.25147e-06
8.22508e-06
8.18314e-06
8.1781e-06
8.17563e-06
8.3089e-06
8.19821e-06
8.01363e-06
7.87946e-06
7.88275e-06
7.88794e-06
7.93023e-06
7.95631e-06
7.98026e-06
7.97967e-06
7.98213e-06
7.95967e-06
7.93446e-06
7.89231e-06
7.88606e-06
7.88071e-06
8.01261e-06
7.8927e-06
7.70834e-06
7.58311e-06
7.5896e-06
7.59552e-06
7.63673e-06
7.6609e-06
7.68456e-06
7.68329e-06
7.68634e-06
7.66412e-06
7.64078e-06
7.5997e-06
7.59274e-06
7.58426e-06
7.70735e-06
7.57676e-06
7.39865e-06
7.28566e-06
7.29512e-06
7.30137e-06
7.34084e-06
7.36297e-06
7.38577e-06
7.38399e-06
7.38747e-06
7.36604e-06
7.34472e-06
7.30538e-06
7.29814e-06
7.28677e-06
7.39775e-06
7.25626e-06
7.08843e-06
6.98813e-06
7.00004e-06
7.00633e-06
7.0438e-06
7.06402e-06
7.08572e-06
7.08358e-06
7.08733e-06
7.06695e-06
7.04751e-06
7.01018e-06
7.00296e-06
6.98924e-06
7.08765e-06
6.93619e-06
6.78064e-06
6.69199e-06
6.70577e-06
6.71188e-06
6.7473e-06
6.76587e-06
6.78634e-06
6.78397e-06
6.78787e-06
6.76866e-06
6.75084e-06
6.71558e-06
6.70861e-06
6.69311e-06
6.77999e-06
6.62035e-06
6.47767e-06
6.39906e-06
6.41419e-06
6.41999e-06
6.4534e-06
6.4706e-06
6.48977e-06
6.4873e-06
6.49121e-06
6.47323e-06
6.45676e-06
6.42354e-06
6.41693e-06
6.4002e-06
6.47714e-06
6.31162e-06
6.18165e-06
6.11145e-06
6.12749e-06
6.13294e-06
6.16439e-06
6.18047e-06
6.19829e-06
6.19582e-06
6.19964e-06
6.18295e-06
6.16758e-06
6.13633e-06
6.13015e-06
6.11261e-06
6.18122e-06
6.01231e-06
5.89456e-06
5.83139e-06
5.84802e-06
5.8531e-06
5.88267e-06
5.89782e-06
5.91426e-06
5.91189e-06
5.91552e-06
5.90015e-06
5.88569e-06
5.85633e-06
5.85059e-06
5.83257e-06
5.89422e-06
5.72418e-06
5.61796e-06
5.56079e-06
5.57777e-06
5.58252e-06
5.61028e-06
5.62462e-06
5.6397e-06
5.63747e-06
5.64087e-06
5.62679e-06
5.61311e-06
5.58558e-06
5.58024e-06
5.56199e-06
5.6177e-06
5.44817e-06
5.35257e-06
5.30073e-06
5.31788e-06
5.32234e-06
5.34838e-06
5.36199e-06
5.37577e-06
5.3737e-06
5.37686e-06
5.36401e-06
5.35104e-06
5.32525e-06
5.32025e-06
5.30193e-06
5.35239e-06
5.18408e-06
5.0981e-06
5.05122e-06
5.06842e-06
5.07267e-06
5.09705e-06
5.10993e-06
5.12254e-06
5.12061e-06
5.12354e-06
5.11181e-06
5.09955e-06
5.07542e-06
5.07068e-06
5.05242e-06
5.09799e-06
4.93073e-06
4.85331e-06
4.81127e-06
4.82838e-06
4.83251e-06
4.85529e-06
4.86741e-06
4.87898e-06
4.87716e-06
4.87991e-06
4.86916e-06
4.85763e-06
4.83512e-06
4.83055e-06
4.81247e-06
4.85326e-06
4.68626e-06
4.61642e-06
4.57917e-06
4.59608e-06
4.60016e-06
4.62138e-06
4.63272e-06
4.64337e-06
4.64163e-06
4.64424e-06
4.63435e-06
4.62359e-06
4.60265e-06
4.59817e-06
4.58037e-06
4.61643e-06
4.44871e-06
4.38563e-06
4.35308e-06
4.36969e-06
4.37378e-06
4.39348e-06
4.40401e-06
4.41385e-06
4.41216e-06
4.41465e-06
4.40554e-06
4.39556e-06
4.37614e-06
4.37171e-06
4.35428e-06
4.38569e-06
4.21642e-06
4.15943e-06
4.1314e-06
4.14762e-06
4.15174e-06
4.16997e-06
4.17969e-06
4.18878e-06
4.18715e-06
4.18953e-06
4.18114e-06
4.17195e-06
4.154e-06
4.14957e-06
4.1326e-06
4.15954e-06
3.98812e-06
3.93667e-06
3.91292e-06
3.92866e-06
3.93283e-06
3.94963e-06
3.95857e-06
3.96696e-06
3.96538e-06
3.96766e-06
3.95995e-06
3.95152e-06
3.935e-06
3.93056e-06
3.91412e-06
3.93683e-06
3.76292e-06
3.71656e-06
3.69678e-06
3.71198e-06
3.71621e-06
3.73164e-06
3.73983e-06
3.74753e-06
3.74602e-06
3.74819e-06
3.74113e-06
3.73343e-06
3.71829e-06
3.71382e-06
3.69797e-06
3.71676e-06
3.54021e-06
3.49855e-06
3.48242e-06
3.49705e-06
3.50133e-06
3.51544e-06
3.52291e-06
3.52996e-06
3.52852e-06
3.53058e-06
3.52415e-06
3.51715e-06
3.50332e-06
3.49883e-06
3.48361e-06
3.4988e-06
3.31964e-06
3.28237e-06
3.26956e-06
3.2836e-06
3.28791e-06
3.30076e-06
3.30757e-06
3.31396e-06
3.31261e-06
3.31455e-06
3.30874e-06
3.3024e-06
3.28982e-06
3.28532e-06
3.27075e-06
3.28265e-06
3.10106e-06
3.06789e-06
3.0581e-06
3.07153e-06
3.07588e-06
3.08753e-06
3.09371e-06
3.09946e-06
3.09821e-06
3.10002e-06
3.09483e-06
3.08909e-06
3.07772e-06
3.07319e-06
3.05927e-06
3.0682e-06
2.88447e-06
2.85514e-06
2.84807e-06
2.86092e-06
2.8653e-06
2.87581e-06
2.8814e-06
2.88653e-06
2.88538e-06
2.88705e-06
2.88246e-06
2.87729e-06
2.86705e-06
2.86253e-06
2.84923e-06
2.85547e-06
2.66977e-06
2.64401e-06
2.63941e-06
2.65174e-06
2.65616e-06
2.66561e-06
2.67066e-06
2.67518e-06
2.67415e-06
2.67567e-06
2.67167e-06
2.66703e-06
2.65784e-06
2.6533e-06
2.64056e-06
2.64436e-06
2.45599e-06
2.43336e-06
2.43107e-06
2.44314e-06
2.44767e-06
2.45624e-06
2.46081e-06
2.46473e-06
2.46383e-06
2.4652e-06
2.46177e-06
2.45759e-06
2.44932e-06
2.44468e-06
2.43223e-06
2.43374e-06
2.24003e-06
2.22053e-06
2.22003e-06
2.23153e-06
2.23603e-06
2.24365e-06
2.24782e-06
2.25122e-06
2.25042e-06
2.25167e-06
2.24874e-06
2.24496e-06
2.23759e-06
2.233e-06
2.22115e-06
2.22092e-06
2.02866e-06
2.01213e-06
2.01314e-06
2.02402e-06
2.02845e-06
2.03515e-06
2.03889e-06
2.04177e-06
2.04109e-06
2.04219e-06
2.03976e-06
2.03638e-06
2.02991e-06
2.02541e-06
2.01422e-06
2.01251e-06
1.82305e-06
1.8093e-06
1.81159e-06
1.82183e-06
1.82616e-06
1.83202e-06
1.83535e-06
1.83773e-06
1.83717e-06
1.83812e-06
1.83616e-06
1.83317e-06
1.82753e-06
1.82314e-06
1.81262e-06
1.80968e-06
1.62356e-06
1.61238e-06
1.61572e-06
1.62531e-06
1.6295e-06
1.63457e-06
1.63753e-06
1.63945e-06
1.63901e-06
1.63981e-06
1.63827e-06
1.63564e-06
1.63077e-06
1.62654e-06
1.61671e-06
1.61276e-06
1.43073e-06
1.42193e-06
1.42607e-06
1.43496e-06
1.43896e-06
1.44332e-06
1.44593e-06
1.44745e-06
1.44712e-06
1.44778e-06
1.44662e-06
1.44431e-06
1.44013e-06
1.4361e-06
1.427e-06
1.42229e-06
1.24541e-06
1.23877e-06
1.24346e-06
1.25162e-06
1.25537e-06
1.25909e-06
1.26138e-06
1.26254e-06
1.26231e-06
1.26284e-06
1.26201e-06
1.25998e-06
1.25645e-06
1.25266e-06
1.24433e-06
1.23912e-06
1.06851e-06
1.06383e-06
1.06887e-06
1.07625e-06
1.07974e-06
1.08286e-06
1.08486e-06
1.0857e-06
1.08556e-06
1.08598e-06
1.08542e-06
1.08367e-06
1.08071e-06
1.0772e-06
1.06967e-06
1.06417e-06
8.9996e-07
8.97369e-07
9.02741e-07
9.09418e-07
9.12682e-07
9.15223e-07
9.1694e-07
9.17472e-07
9.17426e-07
9.17716e-07
9.17445e-07
9.1595e-07
9.13556e-07
9.1028e-07
9.03476e-07
8.97689e-07
7.3051e-07
7.32643e-07
7.39987e-07
7.46749e-07
7.50302e-07
7.52077e-07
7.53474e-07
7.53356e-07
7.5351e-07
7.53589e-07
7.53957e-07
7.52783e-07
7.51162e-07
7.47618e-07
7.40763e-07
7.33015e-07
5.64692e-07
5.67692e-07
5.74223e-07
5.79928e-07
5.82978e-07
5.84351e-07
5.85502e-07
5.85281e-07
5.85454e-07
5.85477e-07
5.8591e-07
5.84949e-07
5.83708e-07
5.80669e-07
5.74887e-07
5.68023e-07
4.16622e-07
4.19939e-07
4.254e-07
4.30025e-07
4.32532e-07
4.33556e-07
4.34467e-07
4.34201e-07
4.3437e-07
4.34358e-07
4.34796e-07
4.34041e-07
4.33126e-07
4.3063e-07
4.25945e-07
4.20219e-07
2.90289e-07
2.93403e-07
2.97694e-07
3.01247e-07
3.03194e-07
3.03923e-07
3.04606e-07
3.04345e-07
3.04494e-07
3.04465e-07
3.04858e-07
3.04295e-07
3.03652e-07
3.01714e-07
2.98116e-07
2.93626e-07
1.8878e-07
1.91328e-07
1.94446e-07
1.96987e-07
1.98393e-07
1.98881e-07
1.99359e-07
1.9914e-07
1.99257e-07
1.99225e-07
1.99538e-07
1.99147e-07
1.98721e-07
1.97322e-07
1.9475e-07
1.91491e-07
1.13211e-07
1.15034e-07
1.17091e-07
1.18751e-07
1.19677e-07
1.1998e-07
1.20287e-07
1.20129e-07
1.2021e-07
1.20184e-07
1.20403e-07
1.20154e-07
1.19892e-07
1.18971e-07
1.1729e-07
1.15142e-07
6.19229e-08
6.3053e-08
6.42644e-08
6.52368e-08
6.57832e-08
6.59553e-08
6.61329e-08
6.6035e-08
6.6084e-08
6.6067e-08
6.62008e-08
6.60568e-08
6.59086e-08
6.53656e-08
6.43813e-08
6.31168e-08
3.05948e-08
3.11965e-08
3.18241e-08
3.23275e-08
3.26119e-08
3.27002e-08
3.27919e-08
3.27403e-08
3.27662e-08
3.27569e-08
3.28271e-08
3.27528e-08
3.26768e-08
3.23942e-08
3.18846e-08
3.12297e-08
1.35145e-08
1.37877e-08
1.40708e-08
1.42986e-08
1.44277e-08
1.44682e-08
1.451e-08
1.4487e-08
1.44988e-08
1.44945e-08
1.4526e-08
1.4492e-08
1.44571e-08
1.43287e-08
1.40981e-08
1.38027e-08
5.25167e-09
5.35649e-09
5.46634e-09
5.55532e-09
5.60591e-09
5.62217e-09
5.63882e-09
5.63017e-09
5.63482e-09
5.63312e-09
5.64508e-09
5.63149e-09
5.61741e-09
5.56712e-09
5.477e-09
5.36233e-09
1.74216e-09
1.77546e-09
1.81129e-09
1.84059e-09
1.85727e-09
1.86283e-09
1.86847e-09
1.86579e-09
1.86733e-09
1.86678e-09
1.87055e-09
1.86592e-09
1.86106e-09
1.84447e-09
1.81479e-09
1.77737e-09
4.66623e-10