/*--------------------------------*- C++ -*----------------------------------*\
| =========                 |                                                 |
| \\      /  F ield         | OpenFOAM: The Open Source CFD Toolbox           |
|  \\    /   O peration     | Version:  v1906                                 |
|   \\  /    A nd           | Web:      www.OpenFOAM.com                      |
|    \\/     M anipulation  |                                                 |
\*---------------------------------------------------------------------------*/
FoamFile
{
    version     2.0;
    format      ascii;
    class       volScalarField;
    location    "99.6";
    object      alphat;
}
// * * * * * * * * * * * * * * * * * * * * * * * * * * * * * * * * * * * * * //

dimensions      [1 -1 -1 0 0 0 0];


internalField   nonuniform List<scalar> 
634
(
1.16563e-08
7.39384e-09
8.85815e-09
9.45548e-09
2.519e-08
1.25505e-08
1.6675e-08
1.6521e-08
3.11228e-07
1.35588e-07
1.88271e-07
1.78629e-07
2.1924e-06
9.81701e-07
1.33177e-06
1.26725e-06
9.10742e-06
4.25974e-06
5.62318e-06
5.37548e-06
2.68071e-05
1.31541e-05
1.69323e-05
1.62218e-05
6.20056e-05
3.19806e-05
4.02407e-05
3.85879e-05
0.000120088
6.50838e-05
8.02542e-05
7.70437e-05
0.000203343
0.000115528
0.000139989
0.000134646
0.000310686
0.000184308
0.000220107
0.000212261
0.000438656
0.000270379
0.00031917
0.00030869
0.000582946
0.00037126
0.000434376
0.000421322
0.000721995
0.000482454
0.000557343
0.000547043
0.000867582
0.000588944
0.000678879
0.00066856
0.00102176
0.000702349
0.00080916
0.000796112
0.00118374
0.000822294
0.000947843
0.000930797
0.0013529
0.000948112
0.00109439
0.0010718
0.00152892
0.0010793
0.00124821
0.00121841
0.00171211
0.0012156
0.0014085
0.00136994
0.00190368
0.00135708
0.00157424
0.00152572
0.00210479
0.00150413
0.00174545
0.00168523
0.00231341
0.00165688
0.00192585
0.0018489
0.00252101
0.00181414
0.00212518
0.00201902
0.00271711
0.00197396
0.0023554
0.00219941
0.00290676
0.00213884
0.00261397
0.00239155
0.00312727
0.00232221
0.00286147
0.00258831
0.0034291
0.00254478
0.00303218
0.00277387
0.0038179
0.00281273
0.00309877
0.00294783
0.00418633
0.00306477
0.00313285
0.00314084
0.00443386
0.00325801
0.00326525
0.00339526
0.00467873
0.00345327
0.00358848
0.00369277
0.00491967
0.0036498
0.00406614
0.00388641
0.00515451
0.00384539
0.00452538
0.00407938
0.00498353
0.00403696
0.00478176
0.00427188
0.0044434
0.00422056
0.00501701
0.00446222
0.00416261
0.00439175
0.00525199
0.00464785
0.00467852
0.0044137
0.00548595
0.00482514
0.00605783
0.00354077
0.00571835
0.00498942
0.00671004
0.00280047
0.00594878
0.00513539
0.00695888
0.00283972
0.00617665
0.00478079
0.00720168
0.00395738
0.00640132
0.00356395
0.00743556
0.00548178
0.00662201
0.00283765
0.00765901
0.00570733
0.00683761
0.00315669
0.00787657
0.00593292
0.00704715
0.00501434
0.00809152
0.00616169
0.00724971
0.00593841
0.00830329
0.0063905
0.00744347
0.006085
0.00851108
0.00661707
0.00762594
0.0062489
0.00871431
0.00683987
0.00779363
0.00643017
0.00891266
0.00705814
0.00794203
0.0066266
0.009106
0.00727385
0.0080653
0.0068346
0.00929461
0.00748686
0.00815647
0.00705048
0.00947909
0.00769717
0.00820814
0.00726708
0.00966045
0.00790487
0.00821421
0.00747723
0.00984026
0.00810996
0.00793275
0.00767983
0.0100309
0.0083122
0.00504145
0.00787623
0.0102401
0.00851117
0.00319309
0.00806812
0.0104768
0.00870642
0.00322231
0.00825737
0.0107454
0.00889787
0.0058109
0.00844558
0.0110436
0.00908571
0.00808831
0.00863384
0.011369
0.0092699
0.00822374
0.00882298
0.0117194
0.0094504
0.00837311
0.00901452
0.0120922
0.00962734
0.00852895
0.00920892
0.0124843
0.00980111
0.00868726
0.00940737
0.0128925
0.00997233
0.0088453
0.00961064
0.0133126
0.0101412
0.00900074
0.00981914
0.0137399
0.0103075
0.00915185
0.0100328
0.014169
0.0104685
0.00929738
0.0102513
0.0145933
0.010622
0.00943616
0.0104737
0.0150057
0.0107667
0.00956751
0.0106984
0.0153964
0.0109001
0.0096908
0.0109244
0.0157568
0.0110212
0.0098049
0.0111502
0.0160736
0.0111302
0.00990827
0.0113738
0.0163389
0.0112268
0.00999251
0.0115925
0.0165422
0.01131
0.0100506
0.0118038
0.016675
0.0113786
0.0100831
0.0120009
0.0167488
0.0114293
0.0100914
0.012182
0.0167861
0.0114567
0.0100766
0.0123402
0.0167894
0.0114569
0.0100396
0.0124736
0.0167559
0.0114208
0.00998118
0.0125788
8.64302e-09
1.1049e-08
1.59494e-08
8.59133e-09
9.84535e-09
1.6847e-08
2.73544e-08
1.27297e-08
4.20212e-08
1.59716e-07
2.81802e-07
9.87575e-08
2.5823e-07
1.12897e-06
1.95437e-06
6.64457e-07
1.07756e-06
4.82012e-06
8.09917e-06
2.78401e-06
3.29221e-06
1.46686e-05
2.38568e-05
8.43435e-06
8.05449e-06
3.52148e-05
5.53953e-05
2.03663e-05
1.67162e-05
7.09655e-05
0.000108081
4.15845e-05
3.05793e-05
0.000125158
0.000184972
7.46551e-05
5.06665e-05
0.000199075
0.00028639
0.000121151
7.75924e-05
0.000292134
0.000410536
0.000181442
0.000111555
0.000402505
0.000554477
0.000254834
0.000152417
0.000527787
0.000715063
0.000339916
0.000199827
0.00065912
0.000880948
0.000434926
0.00025335
0.000795268
0.0010553
0.00053556
0.000312564
0.000942286
0.00124221
0.00063562
0.000377125
0.00110023
0.00144128
0.000741755
0.000446803
0.00126903
0.00165205
0.000854081
0.000521472
0.00144864
0.00187409
0.000972362
0.000600768
0.00163908
0.002107
0.00109637
0.000684641
0.00184054
0.00235005
0.00122589
0.000773097
0.00205343
0.00260172
0.00136074
0.00086618
0.00227825
0.00285916
0.00150072
0.00096396
0.00251448
0.00311905
0.0016457
0.00106651
0.00275875
0.00336609
0.00179559
0.0011739
0.00299726
0.00361333
0.00195027
0.00128613
0.00322679
0.00386063
0.00210911
0.0014031
0.0034589
0.00410745
0.00227012
0.00152461
0.0036932
0.00435308
0.00242949
0.00165041
0.00392903
0.00459683
0.00257756
0.00178019
0.00416573
0.00483796
0.00272366
0.00191365
0.00440269
0.00507568
0.00286827
0.00205047
0.00463934
0.0053091
0.0030109
0.00219032
0.00487519
0.00553735
0.00315105
0.00233283
0.00510982
0.00575949
0.00328832
0.00247737
0.00534296
0.00597463
0.00342238
0.00262275
0.00557447
0.00618187
0.00355306
0.00276675
0.00580439
0.00638039
0.00368036
0.00290647
0.00603286
0.00656951
0.00380453
0.00304801
0.00625993
0.0067406
0.00392618
0.00319149
0.00648511
0.00689234
0.00404624
0.00333753
0.00670716
0.00707082
0.00416595
0.00348719
0.00692489
0.00726317
0.00428618
0.00364059
0.00713747
0.00741777
0.00440651
0.00379637
0.00734383
0.0075606
0.00452563
0.0039538
0.00754398
0.00769102
0.00464222
0.004112
0.00773845
0.00780841
0.00475553
0.00426949
0.0079258
0.00791227
0.0048652
0.0044237
0.00810486
0.008002
0.00497153
0.00456642
0.00827479
0.00807631
0.00507414
0.00469718
0.00843545
0.0081339
0.00517232
0.00481464
0.00858681
0.00817468
0.00526512
0.00491715
0.00872912
0.0082001
0.00535151
0.00480818
0.0088628
0.00821317
0.00543046
0.00358856
0.00898857
0.00821845
0.00550129
0.00265955
0.00910744
0.00822193
0.00556383
0.00252819
0.00922066
0.008229
0.00561771
0.00331882
0.00932884
0.00824054
0.00566275
0.00502726
0.00943133
0.00825388
0.00569907
0.00545425
0.00952672
0.00826672
0.00572715
0.00552165
0.00961377
0.00827784
0.00574731
0.00557731
0.00969126
0.0082868
0.00575976
0.00561378
0.00975796
0.00829403
0.00576464
0.00562896
0.00981257
0.00830076
0.0057617
0.00562088
0.00985142
0.00830889
0.00575075
0.00558774
0.00987363
0.00832087
0.00573164
0.00552801
0.00987863
0.00833968
0.00570444
0.00544063
0.00986545
0.00836634
0.00566928
0.00532491
0.00983211
0.00840177
0.00562649
0.00518052
0.0097767
0.00844863
0.00557677
0.00500776
0.00969733
0.00850959
0.00552256
0.00480637
0.00959217
0.00858726
0.00546493
0.00457697
0.00945959
0.00868389
0.00540545
0.00407539
0.00929814
0.00880132
0.00534645
0.00318071
0.00910667
0.0089407
0.00529038
0.00256746
0.00888586
0.00910234
0.00524044
0.00238484
0.00863669
0.00928549
0.00520039
0.00251046
0.00836257
0.00948825
0.0051742
0.00240028
0.00806713
0.00970759
0.00516567
0.00194867
0.0077569
)
;

boundaryField
{
    leftWall
    {
        type            compressible::alphatWallFunction;
        Prt             0.85;
        value           uniform 0;
    }
    rightWall
    {
        type            compressible::alphatWallFunction;
        Prt             0.85;
        value           nonuniform 0();
    }
    leftSides_periodic0
    {
        type            cyclic;
    }
    leftSides_periodic1
    {
        type            cyclic;
    }
    rightSides_periodic0
    {
        type            cyclic;
    }
    rightSides_periodic1
    {
        type            cyclic;
    }
    leftInOut_periodic0
    {
        type            cyclic;
    }
    leftInOut_periodic1
    {
        type            cyclic;
    }
    rightInOut_periodic0
    {
        type            cyclic;
    }
    rightInOut_periodic1
    {
        type            cyclic;
    }
    procBoundary2to0
    {
        type            processor;
        value           nonuniform List<scalar> 
316
(
4.5716e-10
4.38393e-09
5.45446e-09
3.38147e-09
3.15551e-09
1.08713e-08
1.1994e-08
7.16816e-09
5.73356e-08
1.47026e-07
1.49974e-07
8.84401e-08
4.30479e-07
1.06472e-06
1.06655e-06
6.36662e-07
1.9102e-06
4.57455e-06
4.51048e-06
2.74207e-06
6.12657e-06
1.40631e-05
1.3635e-05
8.49037e-06
1.57205e-05
3.42303e-05
3.2621e-05
2.09113e-05
3.41482e-05
7.00248e-05
6.56393e-05
4.34687e-05
6.50342e-05
0.000125241
0.000115661
7.92663e-05
0.000111261
0.000201526
0.000183722
0.000130322
0.000174203
0.000298274
0.000268924
0.000197208
0.00025347
0.000413254
0.000369041
0.000279141
0.000347211
0.000543416
0.000481199
0.000374373
0.000452723
0.000685554
0.000589764
0.000480659
0.000565722
0.000824097
0.000702036
0.000590787
0.000666959
0.000966802
0.000819805
0.000698692
0.000770237
0.0011145
0.000942763
0.0008108
0.00087604
0.00126684
0.00107027
0.000927177
0.000984184
0.00142279
0.00120173
0.00104709
0.00109417
0.00158139
0.0013366
0.00116971
0.00120552
0.0017418
0.00147449
0.00129423
0.00131784
0.00190337
0.00161516
0.00141997
0.001431
0.00206567
0.00175859
0.00154635
0.00154538
0.00222851
0.00190504
0.00167292
0.00166213
0.00239168
0.00205479
0.00179941
0.00178293
0.00255353
0.0022076
0.00192565
0.00190778
0.00271537
0.00236129
0.00205166
0.00202733
0.00287767
0.00251191
0.00217749
0.00214102
0.00304019
0.00266145
0.00230151
0.00224638
0.00320225
0.00281295
0.00242183
0.00234147
0.00336326
0.00297052
0.00254097
0.00242853
0.00352272
0.00313664
0.00265935
0.00251585
0.0036797
0.00331144
0.0027767
0.00261847
0.00383167
0.00349526
0.00289272
0.00275714
0.00397285
0.00369195
0.00300694
0.00295159
0.0040938
0.00391006
0.00311809
0.00320292
0.00418454
0.00415984
0.00322262
0.00347697
0.00424462
0.00444568
0.00331322
0.00372925
0.00429751
0.00475674
0.00337925
0.00389587
0.00438703
0.00506325
0.00341182
0.00401395
0.00454128
0.00531119
0.00341612
0.00387242
0.00474673
0.00552066
0.00342457
0.00355429
0.00496519
0.00571417
0.00348416
0.00336754
0.00516373
0.00584722
0.00361044
0.00353886
0.00533592
0.00599398
0.00377505
0.00406329
0.00550928
0.00618049
0.00394464
0.00467896
0.00572851
0.00639564
0.00410509
0.0049883
0.00601365
0.0066114
0.00425642
0.0051123
0.00632183
0.00681038
0.00439544
0.00522589
0.00645693
0.00699497
0.00450207
0.00532696
0.00641985
0.00715271
0.00454127
0.00541238
0.00586829
0.0072495
0.00449431
0.00547777
0.00520568
0.00731638
0.00440051
0.00483026
0.00497807
0.00672441
0.00435213
0.00349035
0.00548198
0.00550608
0.00442829
0.00277224
0.00656336
0.00442141
0.00462445
0.00277718
0.00725815
0.00398529
0.00483871
0.00349595
0.00735451
0.00429353
0.00496476
0.00480429
0.00744705
0.00538917
0.00500063
0.00580558
0.00753549
0.00700488
0.00500179
0.00584673
0.00761787
0.00826156
0.00498795
0.00587965
0.00769008
0.00851679
0.00496513
0.00590292
0.00774872
0.0087331
0.00493263
0.00591587
0.00779066
0.00894946
0.00489041
0.0059166
0.00781181
0.00916413
0.00483886
0.0059005
0.00780265
0.00937483
0.0047782
0.00586521
0.00497951
0.00957785
0.00470858
0.0058113
0.00362194
0.00976556
0.0046318
0.00573964
0.00391915
0.00965043
0.00455056
0.00565127
0.00579088
0.0086811
0.00446836
0.00554744
0.00759169
0.00887133
0.00438928
0.00543152
0.00754269
0.010348
0.00431859
0.00530431
0.00747209
0.0104925
0.00426205
0.00516783
0.00737182
0.0106029
0.0042256
0.00502538
0.00723943
0.0107039
0.00421664
0.00488108
0.00707779
0.0108001
0.00423929
0.00474055
0.00689195
0.0108959
0.00429475
0.00460965
0.00668655
0.0109971
0.00438274
0.00449486
0.00646718
0.011109
0.00450088
)
;
    }
    procBoundary2to0throughleftSides_periodic1
    {
        type            processorCyclic;
        value           nonuniform List<scalar> 
314
(
1.30737e-08
2.75702e-08
3.28531e-07
2.27248e-06
9.30025e-06
2.71156e-05
6.2589e-05
0.000121857
0.000208593
0.000323315
0.000463943
0.000627032
0.000800588
0.000980522
0.00117373
0.0013797
0.0015986
0.00182974
0.00207211
0.00232292
0.00257792
0.00283522
0.00309437
0.00335476
0.00361573
0.00386825
0.00410953
0.0043484
0.00458466
0.00481816
0.00504873
0.00527619
0.00550021
0.0057202
0.00593519
0.0061436
0.00634315
0.00653079
0.00670256
0.00684705
0.00627484
0.00448449
0.0037481
0.00429432
0.00614753
0.00806335
0.00831869
0.00857248
0.00882301
0.00907376
0.00932062
0.00956341
0.0098039
0.0100453
0.0102924
0.0105543
0.0108386
0.0111469
0.0114767
0.0118254
0.012191
0.012571
0.0129628
0.0133632
0.0137685
0.0141747
0.0145775
0.0149727
0.015355
0.01572
0.0160621
0.0163815
0.0166726
0.0169282
0.017144
0.0173161
0.0174406
0.0175143
0.0175364
1.19616e-08
2.02142e-08
2.06114e-07
1.4494e-06
6.13742e-06
1.85535e-05
4.42677e-05
8.86151e-05
0.000155108
0.00024467
0.000355956
0.000486325
0.00062657
0.000771962
0.000930359
0.00110255
0.00128896
0.00148892
0.00170092
0.00192191
0.0021485
0.00237902
0.00261235
0.00284706
0.00308146
0.0033146
0.00354578
0.00377496
0.00400229
0.00422545
0.00443944
0.00464203
0.00483748
0.00503431
0.00523893
0.00544912
0.00564822
0.00580174
0.00587399
0.00587112
0.00587071
0.00599296
0.00632349
0.00682445
0.00731503
0.00752017
0.00769538
0.0078611
0.00801599
0.00815855
0.00828762
0.00840253
0.00850313
0.00858925
0.00866019
0.00871615
0.00670921
0.00558324
0.00673941
0.00881471
0.00884957
0.0088928
0.00894035
0.00899391
0.00905498
0.00912475
0.00920369
0.00928813
0.009378
0.00947351
0.00957373
0.00967796
0.00978433
0.00988961
0.00998932
0.0100777
0.01015
0.0101982
0.0102153
1.1693e-08
2.46339e-08
2.97225e-07
2.08464e-06
8.64777e-06
2.54701e-05
5.90763e-05
0.000114965
0.000195899
0.000301467
0.000428867
0.000574167
0.000725107
0.000877584
0.00103741
0.00120403
0.00137653
0.00155348
0.00173311
0.00191377
0.00209537
0.0022817
0.00248019
0.00269456
0.00291201
0.00310212
0.00324682
0.00337862
0.00356482
0.00381831
0.00402338
0.00417163
0.00431332
0.00444779
0.00457403
0.00469054
0.00479522
0.00488547
0.00495995
0.00419513
0.0031998
0.00314107
0.00402193
0.005263
0.00532373
0.00538226
0.00543637
0.00548671
0.00553231
0.00557145
0.00560328
0.00562967
0.0056538
0.00567123
0.00567724
0.00567447
0.00566524
0.00565061
0.00563022
0.0056032
0.00556971
0.00553148
0.00549294
0.0054591
0.0054328
0.00541526
0.00540636
0.00540456
0.00540863
0.00541806
0.00543208
0.00544955
0.00546912
0.00548951
0.00550968
0.00552881
0.00554624
0.00556028
1.46865e-08
2.37073e-08
2.20116e-07
1.50334e-06
6.22264e-06
1.83909e-05
4.29538e-05
8.44368e-05
0.000145734
0.000227599
0.000328894
0.000447307
0.000573187
0.000702603
0.000841714
0.000990719
0.0011494
0.00131743
0.00149436
0.00167959
0.00187229
0.00207139
0.00227563
0.00248365
0.00269399
0.00290488
0.0031136
0.00331914
0.00352068
0.00371808
0.00391201
0.00410357
0.00429331
0.00448079
0.00466573
0.00484944
0.00503252
0.00520283
0.00536946
0.00551254
0.00558977
0.00568292
0.0058665
0.00612862
0.00632347
0.00647292
0.00661907
0.00676102
0.00689777
0.00702925
0.00715541
0.00727534
0.00738969
0.00750111
0.00761228
0.00772585
0.00784503
0.00797299
0.00811057
0.00825723
0.00841387
0.00858262
0.0087654
0.00896379
0.00917886
0.00941101
0.00965979
0.00992381
0.0102017
0.01049
0.0107827
0.0110752
0.0113623
0.0116373
0.0118944
0.0121264
0.0123285
0.0124962
)
;
    }
    procBoundary2to1throughleftSides_periodic1
    {
        type            processorCyclic;
        value           nonuniform List<scalar> 2(0.00556843 0.0126306);
    }
    procBoundary2to1throughrightSides_periodic1
    {
        type            processorCyclic;
        value           nonuniform List<scalar> 2(0.0175064 0.0101911);
    }
    procBoundary2to3
    {
        type            processor;
        value           nonuniform List<scalar> 
11
(
0.0166677
0.0113412
0.00990811
0.0126545
0.00994027
0.00517804
0.0166677
0.0113412
0.00148909
0.00994027
0.00744192
)
;
    }
    procBoundary2to3throughrightInOut_periodic1
    {
        type            processorCyclic;
        value           uniform 0.00517804;
    }
}


// ************************************************************************* //
