/*--------------------------------*- C++ -*----------------------------------*\
| =========                 |                                                 |
| \\      /  F ield         | OpenFOAM: The Open Source CFD Toolbox           |
|  \\    /   O peration     | Version:  v1906                                 |
|   \\  /    A nd           | Web:      www.OpenFOAM.com                      |
|    \\/     M anipulation  |                                                 |
\*---------------------------------------------------------------------------*/
FoamFile
{
    version     2.0;
    format      ascii;
    class       volScalarField;
    location    "99.6";
    object      pPrime2Mean;
}
// * * * * * * * * * * * * * * * * * * * * * * * * * * * * * * * * * * * * * //

dimensions      [2 -2 -4 0 0 0 0];


internalField   nonuniform List<scalar> 
634
(
68048.4
98747.4
68394.7
102955
68042.8
98738.8
68389.1
102946
68037.1
98728.3
68383.6
102936
68036.7
98719.8
68383.4
102926
68039.6
98710.9
68386.6
102917
68043.4
98698.9
68390.8
102903
68048.2
98683.6
68396.3
102886
68054
98664.6
68402.9
102865
68061
98641.7
68410.9
102840
68069.2
98614.4
68420.5
102810
68078.8
98582.3
68431.7
102775
68089.9
98544.8
68444.7
102733
68102.8
98501.5
68459.8
102685
68117.4
98452
68477
102631
68133.9
98395.9
68496.5
102568
68152.5
98332.6
68518.5
102498
68173.4
98261.7
68543.1
102419
68196.6
98182.8
68570.7
102332
68222.4
98095.4
68601.3
102234
68251
97999.3
68635.1
102127
68282.5
97893.9
68672.4
102008
68317
97778.7
68713.4
101879
68354.8
97653.1
68758.3
101736
68396.6
97516.5
68807.2
101581
68442.9
97368.3
68860.3
101412
68493.6
97209.3
68918.1
101231
68547.4
97041.6
68980.2
101039
68603.1
96866.5
69046.1
100839
68661
96682.4
69115.5
100628
68723.4
96485.7
69189.4
100404
68792.9
96274.4
69269.2
100160
68869.6
96049.7
69355.5
99898.7
68951.8
95814.2
69447.5
99621.6
69037.5
95568.4
69543.8
99331.6
69126.6
95310.6
69644.6
99028.7
69220.9
95038.5
69751.3
98711.7
69321.7
94751.4
69865.4
98379.8
69428
94452.8
69986.1
98035.1
69537.7
94150.2
70109.9
97682.7
69650.5
93848
70234.9
97324.9
69769.7
93542.3
70364.6
96957.7
69899.5
93224.2
70504.9
96574.9
70042.8
92887.1
70659.9
96174.1
70198.3
92532.4
70827.8
95760.9
70363.3
92166.4
71003.4
95342.1
70536.4
91793.5
71184.1
94918.2
70717
91415.2
71369.4
94486.2
70905
91032.6
71559.2
94044.5
71100.9
90645.9
71754.7
93595.6
71304.7
90255.1
71958.1
93142.9
71516.5
89861.2
72171.4
92689.5
71735.2
89470
72394.1
92239.7
71957.5
89090.5
72621.5
91800.1
72177.5
88726.4
72846.2
91374.6
72392.2
88371
73064.4
90957.8
72606.2
88013.1
73280.5
90537.7
72828.7
87645.9
73505
90105.3
73067.1
87273.3
73746.1
89664.3
73319.8
86902.9
74002.4
89224.7
73579.5
86536.7
74265.9
88792.7
73841.4
86173.6
74532.8
88368.5
74104.6
85815.4
74803.7
87952.2
74368.7
85467.2
75079.3
87545.7
74633.1
85134
75359.8
87151
74895.6
84816.5
75644.2
86767.6
75155.2
84509.8
75929.9
86390.8
75414.6
84207.5
76215.8
86014.7
75679.3
83907.1
76504.1
85638.5
75953.3
83610.2
76798.3
85266.4
76236.4
83319.5
77099.8
84901.9
76525.2
83035.5
77407.3
84545.1
76818.7
82758.1
77719.7
84193
77118.3
82487.9
78037
83843.6
77424.2
82225.2
78358.4
83498.5
77733.8
81968.9
78682.3
83161.5
78043.1
81716.8
79004.5
82835.2
78348.1
81468.2
79318.2
82519.4
78644
81224.2
79614.2
82212.8
78926.5
80982.6
79882.3
81908.7
14607.4
15237
14251.5
13410.7
14597.4
15227
14241.6
13400.9
14585.8
15215.4
14230.2
13389.8
14579.3
15208.9
14223.9
13384
14574.6
15204.3
14219.5
13380.3
14568.3
15198.2
14213.4
13375.3
14560.2
15190.5
14205.7
13368.9
14550.2
15181.1
14196.1
13361
14538.3
15169.7
14184.6
13351.5
14524.2
15156.4
14171
13340.2
14507.6
15140.8
14155.1
13327
14488.4
15122.6
14136.5
13311.5
14466.1
15101.6
14115.1
13293.5
14440.7
15077.6
14090.5
13272.9
14411.7
15050.2
14062.6
13249.4
14379.1
15019.2
14031.2
13222.8
14342.6
14984.3
13996
13192.8
14301.9
14945.2
13956.7
13159.2
14256.6
14901.5
13913.2
13121.9
14206.5
14853
13865
13080.5
14151.3
14799.3
13812
13035
14090.8
14740.3
13754
12985.2
14024.8
14675.7
13690.7
12931
13953.3
14605.4
13622.3
12872.4
13876.2
14529.3
13548.7
12809.4
13793.6
14447.5
13470
12742.1
13705.6
14359.8
13386.4
12670.7
13612.4
14266.5
13298.1
12595.3
13514.2
14167.7
13205.2
12516.3
13411.2
14063.5
13108.1
12433.8
13303.8
13954.2
13006.9
12348.2
13192.2
13840.1
12902.2
12259.9
13076.8
13721.5
12794.1
12169.3
12958.1
13598.7
12683.2
12076.6
12836.6
13472.2
12569.9
11982.3
12712.6
13342.5
12454.7
11887
12586.7
13210.1
12338.2
11791.4
12459.5
13075.4
12220.8
11695.9
12331.5
12939.2
12103
11600.8
12203.2
12801.8
11985.1
11506.2
12075.1
12663.8
11867.7
11412.5
11947.9
12525.8
11751.3
11320.1
11822.3
12388.4
11636.6
11229.9
11698.8
12252.4
11524.1
11142
11577.8
12118.5
11414.1
11056.4
11459.3
11987.3
11306.9
10973.3
11343.7
11859.3
11202.5
10893.3
11231.2
11734.9
11101.3
10816.9
11122.5
11614.8
11003.6
10744.5
11017.8
11499.3
10909.8
10676.2
10917.7
11388.8
10820.4
10611.7
10822.3
11283.6
10736
10551.2
10731.5
11184.2
10656.7
10495
10645.5
11091.3
10582.5
10442.9
10564.5
11005.2
10513.4
10394.4
10489
10925.3
10449.3
10349
10419
10850.8
10390
10306.4
10354.5
10781.1
10335.6
10267.1
10295.2
10716.3
10286.2
10231.2
10241.1
10656.7
10241.6
10198.6
10192.4
10603
10201.9
10168.8
10149.1
10554.8
10166.5
10141.7
10110.7
10511.5
10135.3
10117.8
10076.2
10472.2
10108.4
10097.6
10044.9
10436.3
10085.5
10081.3
10016.8
10403.4
10066.3
10068.2
9992.2
10373.9
10050
10057.5
9971.34
10347.9
10036.5
10048.5
9954.36
10325.6
10025.5
10041
9941.03
10306.6
10016.8
10035.3
9930.83
10290.6
10010.4
10031.3
9923.01
10277.2
10006.1
10029.2
9916.96
10266.3
10004
10028.8
9912.44
10257.6
10004
10030.1
9909.57
10251
10005.8
10032.7
9908.48
10246
10009.2
10036.5
9909.18
10242.8
10014
10041.5
9911.53
10241.2
10020
10047.4
9915.36
10241.1
10027
10053.8
9920.6
10242.3
)
;

boundaryField
{
    leftWall
    {
        type            calculated;
        value           nonuniform List<scalar> 8(68048.4 14607.4 98747.4 15237 68394.7 14251.5 102955 13410.7);
    }
    rightWall
    {
        type            calculated;
        value           nonuniform 0();
    }
    leftSides_periodic0
    {
        type            cyclic;
    }
    leftSides_periodic1
    {
        type            cyclic;
    }
    rightSides_periodic0
    {
        type            cyclic;
    }
    rightSides_periodic1
    {
        type            cyclic;
    }
    leftInOut_periodic0
    {
        type            cyclic;
    }
    leftInOut_periodic1
    {
        type            cyclic;
    }
    rightInOut_periodic0
    {
        type            cyclic;
    }
    rightInOut_periodic1
    {
        type            cyclic;
    }
    procBoundary2to0
    {
        type            processor;
        value           nonuniform List<scalar> 
316
(
123591
142559
126680
141741
123591
142558
126680
141740
123592
142557
126681
141739
123594
142555
126683
141738
123596
142553
126686
141735
123598
142550
126689
141732
123601
142545
126693
141728
123605
142540
126698
141722
123610
142534
126704
141716
123616
142526
126711
141708
123623
142517
126720
141698
123631
142506
126730
141687
123641
142493
126742
141674
123652
142478
126755
141659
123664
142460
126771
141641
123678
142440
126788
141622
123694
142417
126808
141599
123712
142391
126830
141575
123732
142362
126854
141548
123754
142330
126880
141518
123778
142295
126909
141485
123804
142257
126941
141449
123833
142215
126975
141410
123864
142170
127013
141368
123897
142121
127053
141323
123934
142068
127096
141274
123973
142012
127143
141222
124015
141952
127192
141168
124060
141889
127245
141110
124108
141822
127300
141048
124159
141751
127359
140983
124213
141676
127422
140914
124269
141597
127488
140842
124328
141515
127556
140767
124389
141430
127628
140691
124453
141343
127702
140614
124519
141253
127781
140536
124590
141158
127865
140454
124664
141060
127953
140368
124743
140959
128045
140279
124825
140854
128141
140186
124909
140745
128239
140090
124996
140634
128342
139990
125087
140522
128448
139886
125182
140410
128556
139779
125280
140296
128666
139672
125382
140176
128781
139565
125489
140048
128902
139458
125604
139913
129030
139350
125727
139777
129165
139239
125856
139642
129305
139126
125990
139510
129450
139011
126130
139378
129601
138894
126275
139244
129757
138776
126422
139109
129918
138656
126568
138973
130080
138537
126715
138836
130244
138417
126865
138697
130409
138297
127021
138556
130578
138178
127184
138415
130749
138058
127353
138276
130921
137939
127527
138141
131095
137820
127705
138009
131269
137702
127885
137878
131447
137586
128067
137750
131629
137470
128249
137624
131816
137355
128432
137501
132007
137238
128615
137382
132201
137120
128802
137266
132400
137000
128996
137151
132605
136879
129199
137038
132816
136760
129410
136926
133033
136642
129628
136815
133255
136527
129855
136705
133481
136416
130089
136596
133710
136310
130327
136487
133940
136203
130561
136371
134161
136091
130782
136242
134366
135967
130979
136090
134546
135824
)
;
    }
    procBoundary2to0throughleftSides_periodic1
    {
        type            processorCyclic;
        value           nonuniform List<scalar> 
314
(
-7.62939e-06
0.00717735
0.0408096
0.115725
0.236317
0.416973
0.66861
1.00895
1.46255
2.0612
2.84925
3.88029
5.22204
6.9561
9.18003
12.0124
15.5962
20.0999
25.7188
32.6762
41.2219
51.6401
64.2527
79.4096
97.4752
118.83
143.884
173.074
206.838
245.62
289.863
339.992
396.419
459.463
529.2
605.55
688.574
778.418
875.009
978.255
1088.5
1206.5
1332.95
1467.55
1609.38
1758.45
1916.02
2083.4
2260.59
2445.86
2637.6
2836.06
3043.06
3260.11
3486.87
3721.58
3962.58
4209.2
4461.82
4721.1
4987.09
5258.15
5530.18
5798.96
6064.29
6330.99
6604.33
6885.15
7170.34
7457.42
7746.46
8038.04
8331.22
8623.73
8913.35
9199.18
9481.69
9761.11
10039.1
39873.2
39868.5
39860.9
39849.2
39832.5
39810.5
39782.7
39748.7
39707.8
39658.7
39600.5
39531.5
39450.5
39356
39246.9
39121.7
38979.3
38818.5
38638.1
38437.2
38215
37971.1
37705
37416.7
37106.3
36774.1
36420.8
36047
35653.8
35242.1
34813.1
34367.7
33906.9
33433.2
32949.3
32455.4
31949.7
31430
30897.4
30356.9
29814
29271
28727.6
28183
27638.3
27094.4
26550.1
26002.9
25452.9
24903.9
24360.4
23824.2
23295.2
22773.2
22258.9
21752.5
21253.3
20761.3
20278.5
19807.4
19349.2
18902.4
18464
18032.9
17611.8
17204.5
16811.6
16429.3
16053.8
15685.7
15328.6
14985
14654.2
14332.9
14019
13713.5
13420.3
13143.9
12886.9
3145.86
3146.43
3147.39
3148.94
3151.19
3154.18
3157.97
3162.64
3168.3
3175.1
3183.2
3192.8
3204.06
3217.17
3232.31
3249.7
3269.55
3292.08
3317.54
3346.19
3378.35
3414.35
3454.47
3498.98
3548.09
3602.05
3661.11
3725.54
3795.56
3871.39
3953.32
4041.66
4136.68
4238.49
4346.82
4460.94
4579.76
4702.46
4829.64
4963.37
5105.45
5256.27
5415.03
5581.25
5755.7
5938.86
6129.6
6326.22
6527.37
6732.16
6940.19
7152.31
7370.66
7596.98
7831.12
8071.68
8317.65
8568.34
8822.67
9079.95
9340.18
9603.06
9867
10129.9
10392.1
10656.7
10926.6
11200.6
11474.9
11747.9
12019.6
12290.5
12560.8
12830.2
13097.8
13363.5
13626.8
13886.7
39426.9
39422
39414.1
39402.1
39384.7
39361.9
39333.1
39297.8
39255.2
39204.2
39143.5
39071.6
38987
38888.4
38774.3
38643.6
38495.1
38327.6
38140
37931.4
37701.1
37448.7
37173.7
36876.2
36556.3
36214.7
35851.8
35468.1
35064.3
34641.1
34199.6
33741.5
33269.1
32785.7
32293.8
31793.1
31281
30754.7
30214.7
29664.9
29110.3
28554.3
27998
27440
26877.8
26309.7
25736
25160
24586.7
24019.3
23459.4
22905.9
22356.3
21809.9
21268.3
20734.4
20209.8
19694.1
19187.3
18691.6
18207.5
17733.7
17268.5
16811.7
16365.4
15931.2
15508.4
15093.4
14684.3
14282.4
13890.7
13510.9
13142.5
12783.9
12435.3
12099.9
11783.2
11492.7
)
;
    }
    procBoundary2to1throughleftSides_periodic1
    {
        type            processorCyclic;
        value           nonuniform List<scalar> 2(14144.2 11230.2);
    }
    procBoundary2to1throughrightSides_periodic1
    {
        type            processorCyclic;
        value           nonuniform List<scalar> 2(10322 12643.1);
    }
    procBoundary2to3
    {
        type            processor;
        value           nonuniform List<scalar> 
11
(
79197.9
80734.9
80123.1
81594.7
10034.6
10060.8
79197.9
80734.9
9927.36
10034.6
10244.9
)
;
    }
    procBoundary2to3throughrightInOut_periodic1
    {
        type            processorCyclic;
        value           uniform 10060.8;
    }
}


// ************************************************************************* //
