0 	373
0 	373
5.01672e-05 	369.317
5.01672e-05 	369.317
0.000100334 	365.687
0.000150502 	362.152
0.000150502 	362.152
0.000200669 	358.857
0.000200669 	358.857
0.000250836 	356.016
0.000301003 	353.79
0.000301003 	353.79
0.000351171 	352.183
0.000401338 	351.071
0.000451505 	350.301
0.000451505 	350.301
0.000501672 	349.754
0.000551839 	349.35
0.000551839 	349.35
0.000602007 	349.042
0.000602007 	349.042
0.000652174 	348.797
0.000652174 	348.797
0.000702341 	348.597
0.000702341 	348.597
0.000752508 	348.43
0.000802676 	348.287
0.000852843 	348.164
0.000852843 	348.164
0.00090301 	348.056
0.00090301 	348.056
0.000953177 	347.959
0.00100334 	347.871
0.00100334 	347.871
0.00105351 	347.79
0.00105351 	347.79
0.00110368 	347.716
0.00115385 	347.648
0.00120401 	347.584
0.00120401 	347.584
0.00130435 	347.465
0.00130435 	347.465
0.00135452 	347.411
0.00135452 	347.411
0.00140468 	347.359
0.00145485 	347.308
0.00145485 	347.308
0.00150502 	347.26
0.00150502 	347.26
0.00155518 	347.213
0.00155518 	347.213
0.00160535 	347.168
0.00160535 	347.168
0.00165552 	347.124
0.00165552 	347.124
0.00170569 	347.081
0.00170569 	347.081
0.00175585 	347.038
0.00175585 	347.038
0.00180602 	346.997
0.00180602 	346.997
0.00185619 	346.956
0.00185619 	346.956
0.00190635 	346.915
0.00190635 	346.915
0.00195652 	346.875
0.00195652 	346.875
0.00200669 	346.836
0.00200669 	346.836
0.00205686 	346.797
0.00210702 	346.758
0.00210702 	346.758
0.00215719 	346.72
0.00220736 	346.682
0.00225753 	346.644
0.00225753 	346.644
0.00230769 	346.607
0.00230769 	346.607
0.00235786 	346.57
0.00235786 	346.57
0.00240803 	346.533
0.00240803 	346.533
0.00245819 	346.497
0.00245819 	346.497
0.00250836 	346.461
0.00250836 	346.461
0.00255853 	346.425
0.0026087 	346.389
0.0026087 	346.389
0.00265886 	346.354
0.00270903 	346.319
0.00270903 	346.319
0.0027592 	346.284
0.00280936 	346.25
0.00280936 	346.25
0.00285953 	346.216
0.00285953 	346.216
0.0029097 	346.182
0.0029097 	346.182
0.00295987 	346.149
0.00295987 	346.149
0.00301003 	346.116
0.0030602 	346.083
0.00311037 	346.051
0.00311037 	346.051
0.00316054 	346.019
0.00316054 	346.019
0.00326087 	345.956
0.00326087 	345.956
0.00331104 	345.925
0.0033612 	345.894
0.0033612 	345.894
0.00341137 	345.864
0.00341137 	345.864
0.00346154 	345.834
0.00346154 	345.834
0.00351171 	345.805
0.00356187 	345.776
0.00356187 	345.776
0.00361204 	345.747
0.00366221 	345.719
0.00366221 	345.719
0.00371237 	345.691
0.00371237 	345.691
0.00376254 	345.663
0.00376254 	345.663
0.00381271 	345.636
0.00381271 	345.636
0.00386288 	345.608
0.00391304 	345.581
0.00391304 	345.581
0.00396321 	345.554
0.00401338 	345.528
0.00401338 	345.528
0.00406355 	345.501
0.00406355 	345.501
0.00411371 	345.475
0.00411371 	345.475
0.00421405 	345.423
0.00421405 	345.423
0.00426421 	345.398
0.00426421 	345.398
0.00431438 	345.372
0.00431438 	345.372
0.00436455 	345.347
0.00436455 	345.347
0.00441472 	345.322
0.00441472 	345.322
0.00446488 	345.297
0.00446488 	345.297
0.00451505 	345.273
0.00451505 	345.273
0.00456522 	345.248
0.00456522 	345.248
0.00461538 	345.224
0.00461538 	345.224
0.00466555 	345.2
0.00471572 	345.177
0.00476589 	345.153
0.00476589 	345.153
0.00486622 	345.107
0.00486622 	345.107
0.00491639 	345.083
0.00496656 	345.061
0.00496656 	345.061
0.00501672 	345.038
0.00506689 	345.016
0.00511706 	344.994
0.00511706 	344.994
0.00521739 	344.951
0.00521739 	344.951
0.00526756 	344.929
0.00526756 	344.929
0.00531773 	344.908
0.00536789 	344.887
0.00536789 	344.887
0.00541806 	344.866
0.00546823 	344.846
0.00551839 	344.825
0.00551839 	344.825
0.00556856 	344.805
0.00556856 	344.805
0.0056689 	344.766
0.0056689 	344.766
0.00571906 	344.746
0.00576923 	344.727
0.00576923 	344.727
0.0058194 	344.708
0.0058194 	344.708
0.00591973 	344.67
0.00591973 	344.67
0.0059699 	344.652
0.0059699 	344.652
0.00602007 	344.633
0.00607023 	344.615
0.0061204 	344.597
0.0061204 	344.597
0.00617057 	344.579
0.00622074 	344.561
0.00622074 	344.561
0.0062709 	344.543
0.00632107 	344.525
0.00632107 	344.525
0.00637124 	344.508
0.00637124 	344.508
0.0064214 	344.491
0.0064214 	344.491
0.00647157 	344.473
0.00647157 	344.473
0.00652174 	344.456
0.00657191 	344.439
0.00657191 	344.439
0.00662207 	344.422
0.00667224 	344.405
0.00672241 	344.388
0.00672241 	344.388
0.00677258 	344.371
0.00682274 	344.355
0.00682274 	344.355
0.00687291 	344.338
0.00687291 	344.338
0.00692308 	344.321
0.00697324 	344.305
0.00702341 	344.288
0.00707358 	344.272
0.00707358 	344.272
0.00717391 	344.239
0.00717391 	344.239
0.00722408 	344.223
0.00722408 	344.223
0.00727425 	344.207
0.00727425 	344.207
0.00732441 	344.191
0.00732441 	344.191
0.00737458 	344.175
0.00737458 	344.175
0.00742475 	344.158
0.00747492 	344.142
0.00752508 	344.126
0.00752508 	344.126
0.00757525 	344.11
0.00762542 	344.095
0.00767559 	344.079
0.00767559 	344.079
0.00772575 	344.063
0.00777592 	344.047
0.00777592 	344.047
0.00782609 	344.031
0.00787625 	344.015
0.00787625 	344.015
0.00792642 	343.999
0.00797659 	343.983
0.00802676 	343.967
0.00802676 	343.967
0.00807692 	343.951
0.00807692 	343.951
0.00812709 	343.935
0.00817726 	343.919
0.00817726 	343.919
0.00822742 	343.904
0.00827759 	343.888
0.00827759 	343.888
0.00832776 	343.872
0.00832776 	343.872
0.00837793 	343.856
0.00842809 	343.84
0.00842809 	343.84
0.00847826 	343.824
0.00847826 	343.824
0.0085786 	343.792
0.0085786 	343.792
0.00862876 	343.776
0.00867893 	343.76
0.0087291 	343.744
0.00877926 	343.728
0.00882943 	343.712
0.0088796 	343.696
0.0088796 	343.696
0.00892977 	343.68
0.00892977 	343.68
0.00897993 	343.664
0.00897993 	343.664
0.0090301 	343.648
0.00908027 	343.632
0.00908027 	343.632
0.00913043 	343.616
0.0091806 	343.6
0.0091806 	343.6
0.00923077 	343.584
0.00928094 	343.567
0.00928094 	343.567
0.0093311 	343.551
0.00938127 	343.535
0.00938127 	343.535
0.00943144 	343.518
0.00943144 	343.518
0.00948161 	343.502
0.00948161 	343.502
0.00953177 	343.486
0.00953177 	343.486
0.00958194 	343.469
0.00958194 	343.469
0.00963211 	343.452
0.00968227 	343.436
0.00968227 	343.436
0.00973244 	343.419
0.00978261 	343.403
0.00978261 	343.403
0.00983278 	343.386
0.00983278 	343.386
0.00988294 	343.369
0.00993311 	343.352
0.00993311 	343.352
0.00998328 	343.335
0.0100334 	343.318
0.0100836 	343.301
0.0100836 	343.301
0.0101338 	343.284
0.0101839 	343.267
0.0101839 	343.267
0.0102341 	343.25
0.0102341 	343.25
0.0102843 	343.232
0.0103344 	343.215
0.0103344 	343.215
0.0103846 	343.197
0.0103846 	343.197
0.0104348 	343.18
0.0104348 	343.18
0.0104849 	343.162
0.0104849 	343.162
0.0105351 	343.144
0.0105853 	343.126
0.0105853 	343.126
0.0106856 	343.09
0.0106856 	343.09
0.0107358 	343.072
0.010786 	343.053
0.010786 	343.053
0.0108361 	343.035
0.0108863 	343.016
0.0108863 	343.016
0.0109365 	342.997
0.0109365 	342.997
0.0109866 	342.978
0.0110368 	342.959
0.0110368 	342.959
0.011087 	342.94
0.011087 	342.94
0.0111371 	342.921
0.0111873 	342.901
0.0111873 	342.901
0.0112375 	342.881
0.0112876 	342.861
0.0112876 	342.861
0.0113378 	342.841
0.0113378 	342.841
0.011388 	342.821
0.0114381 	342.8
0.0114381 	342.8
0.0114883 	342.779
0.0115385 	342.757
0.0115385 	342.757
0.0115886 	342.736
0.0116388 	342.714
0.0116388 	342.714
0.011689 	342.692
0.0117391 	342.669
0.0117893 	342.646
0.0118395 	342.622
0.0118395 	342.622
0.0118896 	342.598
0.0119398 	342.573
0.0119398 	342.573
0.01199 	342.548
0.0120401 	342.522
0.0120401 	342.522
0.0120903 	342.496
0.0120903 	342.496
0.0121906 	342.441
0.0121906 	342.441
0.0122408 	342.412
0.012291 	342.383
0.012291 	342.383
0.0123411 	342.352
0.0123913 	342.321
0.0123913 	342.321
0.0124415 	342.289
0.0124415 	342.289
0.0124916 	342.256
0.0124916 	342.256
0.0125418 	342.222
0.012592 	342.186
0.0126421 	342.15
0.0126421 	342.15
0.0126923 	342.112
0.0127425 	342.073
0.0127425 	342.073
0.0127926 	342.033
0.0128428 	341.991
0.0128428 	341.991
0.0129431 	341.903
0.0129431 	341.903
0.0129933 	341.856
0.0130435 	341.807
0.0130435 	341.807
0.0131438 	341.704
0.0131438 	341.704
0.013194 	341.649
0.0132441 	341.591
0.0132441 	341.591
0.0132943 	341.531
0.0133445 	341.469
0.0133445 	341.469
0.0133946 	341.402
0.0133946 	341.402
0.0134448 	341.333
0.0134448 	341.333
0.013495 	341.261
0.0135452 	341.184
0.0135452 	341.184
0.0135953 	341.102
0.0135953 	341.102
0.0136455 	341.016
0.0136455 	341.016
0.0136957 	340.925
0.0136957 	340.925
0.0137458 	340.825
0.013796 	340.719
0.013796 	340.719
0.0138462 	340.606
0.0138462 	340.606
0.0138963 	340.484
0.0139465 	340.348
0.0139465 	340.348
0.0139967 	340.2
0.0139967 	340.2
0.0140468 	340.036
0.0140468 	340.036
0.014097 	339.854
0.0141472 	339.65
0.0141472 	339.65
0.0141973 	339.416
0.0142475 	339.134
0.0142977 	338.788
0.0142977 	338.788
0.0143478 	338.353
0.014398 	337.79
0.014398 	337.79
0.0144482 	337.043
0.0144983 	336.036
0.0144983 	336.036
0.0145485 	334.691
0.0145485 	334.691
0.0145987 	332.957
0.0146488 	330.852
0.014699 	328.47
0.014699 	328.47
0.0147492 	325.934
0.0147993 	323.34
0.0147993 	323.34
0.0148495 	320.739
0.0148495 	320.739
0.0148997 	318.149
0.0148997 	318.149
0.0149498 	315.573
0.0149498 	315.573
0.015 	313
0.015 	313
