/*--------------------------------*- C++ -*----------------------------------*\
| =========                 |                                                 |
| \\      /  F ield         | OpenFOAM: The Open Source CFD Toolbox           |
|  \\    /   O peration     | Version:  v1912                                 |
|   \\  /    A nd           | Website:  www.openfoam.com                      |
|    \\/     M anipulation  |                                                 |
\*---------------------------------------------------------------------------*/
FoamFile
{
    version     2.0;
    format      ascii;
    class       volSymmTensorField;
    location    "98.8";
    object      UPrime2Mean;
}
// * * * * * * * * * * * * * * * * * * * * * * * * * * * * * * * * * * * * * //

dimensions      [0 2 -2 0 0 0 0];


internalField   nonuniform List<symmTensor> 
2000
(
(8.47084e-13 1.30443e-09 -6.23665e-10 1.80208e-05 4.17331e-06 4.25508e-05)
(3.78996e-06 6.77578e-07 -6.65435e-07 1.37826e-07 -2.07403e-07 3.14882e-05)
(7.16628e-07 6.6284e-08 1.76281e-06 6.64511e-09 1.76985e-07 1.09501e-05)
(1.28811e-07 2.7345e-08 7.13072e-07 7.04678e-09 1.94658e-07 8.43974e-06)
(2.36019e-08 1.0442e-08 3.4269e-07 5.56417e-09 1.89991e-07 9.35706e-06)
(6.32717e-14 3.29048e-12 5.6958e-11 5.39055e-09 1.89605e-07 9.55697e-06)
(2.35931e-08 -1.04379e-08 -3.42578e-07 5.56427e-09 1.89999e-07 9.35749e-06)
(1.28722e-07 -2.73277e-08 -7.12751e-07 7.04638e-09 1.94645e-07 8.43936e-06)
(7.16602e-07 -6.6289e-08 -1.7622e-06 6.64518e-09 1.76993e-07 1.09383e-05)
(3.78876e-06 -6.77359e-07 6.59653e-07 1.37782e-07 -2.06299e-07 3.14312e-05)
(8.83215e-13 1.75147e-09 -5.09474e-09 2.4424e-05 -2.46041e-05 0.000157227)
(1.063e-05 -2.64471e-07 -1.58349e-05 5.08541e-08 1.26718e-06 6.57783e-05)
(1.65652e-06 1.65569e-07 -1.27732e-06 4.48238e-08 3.53994e-07 1.13045e-05)
(4.84103e-07 2.20079e-08 2.37609e-07 3.09291e-08 3.65369e-07 7.43109e-06)
(1.19797e-07 8.41125e-09 2.76464e-07 2.14891e-08 3.62537e-07 9.17176e-06)
(2.7658e-14 -8.238e-12 -1.1065e-10 2.06191e-08 3.64666e-07 9.63296e-06)
(1.19681e-07 -8.43081e-09 -2.76797e-07 2.14885e-08 3.62542e-07 9.17167e-06)
(4.83823e-07 -2.20031e-08 -2.38823e-07 3.09241e-08 3.65323e-07 7.42936e-06)
(1.65602e-06 -1.65526e-07 1.27172e-06 4.48133e-08 3.53942e-07 1.12782e-05)
(1.06261e-05 2.64139e-07 1.58029e-05 5.08372e-08 1.266e-06 6.55928e-05)
(7.39162e-13 -5.71038e-10 -1.03346e-08 1.55773e-05 3.9262e-05 0.00038068)
(7.01528e-06 1.17868e-06 -1.70397e-05 4.12618e-07 -1.69174e-06 5.84979e-05)
(2.17373e-06 1.70435e-07 -2.01705e-06 8.14929e-08 -2.65968e-08 5.17158e-06)
(7.75395e-07 3.30503e-09 2.09141e-07 4.78107e-08 6.17117e-08 4.23582e-06)
(1.91218e-07 1.58275e-10 3.1248e-07 3.11091e-08 1.10724e-07 5.16342e-06)
(7.44187e-14 -1.12406e-11 8.88497e-11 3.00102e-08 1.19763e-07 5.4375e-06)
(1.90775e-07 -1.8331e-10 -3.12362e-07 3.11087e-08 1.10736e-07 5.16288e-06)
(7.7461e-07 -3.31153e-09 -2.10521e-07 4.78028e-08 6.16965e-08 4.23471e-06)
(2.17255e-06 -1.70318e-07 2.0094e-06 8.14315e-08 -2.63969e-08 5.15607e-06)
(7.01313e-06 -1.17787e-06 1.7006e-05 4.12495e-07 -1.68852e-06 5.82996e-05)
(5.80439e-13 2.60414e-09 -1.27648e-08 4.42693e-05 -0.000126472 0.000576845)
(4.04605e-06 4.14772e-07 -1.11112e-05 1.80129e-07 -1.41089e-06 3.72434e-05)
(1.91918e-06 1.27871e-07 -2.94164e-07 9.41659e-08 -3.6918e-07 4.99409e-06)
(6.63989e-07 2.20652e-08 6.29464e-07 5.80934e-08 -2.22283e-07 5.71724e-06)
(1.6355e-07 5.72504e-09 4.70815e-07 3.73264e-08 -1.15667e-07 6.08307e-06)
(8.5074e-14 -4.20548e-12 2.67473e-10 3.62931e-08 -1.01187e-07 6.20866e-06)
(1.63087e-07 -5.73271e-09 -4.70221e-07 3.73277e-08 -1.15655e-07 6.08268e-06)
(6.63199e-07 -2.20545e-08 -6.30141e-07 5.80868e-08 -2.22249e-07 5.7172e-06)
(1.91777e-06 -1.27692e-07 2.89098e-07 9.40793e-08 -3.68851e-07 4.99157e-06)
(4.04496e-06 -4.14218e-07 1.10848e-05 1.80041e-07 -1.40775e-06 3.70977e-05)
(4.53715e-13 6.59838e-10 -1.253e-08 3.43368e-06 -3.1695e-05 0.000687746)
(3.95603e-06 7.26354e-07 -9.2448e-06 2.92608e-07 -2.91072e-06 3.3199e-05)
(1.3899e-06 1.8176e-07 5.99043e-07 1.19235e-07 -6.36278e-07 8.4295e-06)
(4.67241e-07 4.51122e-08 6.98008e-07 6.71133e-08 -3.7208e-07 6.8908e-06)
(1.17697e-07 1.21566e-08 4.71806e-07 4.35026e-08 -2.42284e-07 6.7355e-06)
(7.04682e-14 2.13992e-12 2.86622e-10 4.24004e-08 -2.24808e-07 6.75855e-06)
(1.1733e-07 -1.21484e-08 -4.71101e-07 4.35069e-08 -2.4228e-07 6.73541e-06)
(4.66635e-07 -4.5075e-08 -6.98231e-07 6.71111e-08 -3.72037e-07 6.89099e-06)
(1.38868e-06 -1.81444e-07 -6.0144e-07 1.19117e-07 -6.35843e-07 8.4298e-06)
(3.95503e-06 -7.25525e-07 9.22328e-06 2.92434e-07 -2.90611e-06 3.31015e-05)
(2.35376e-13 4.14732e-10 -8.05536e-09 3.55511e-06 -4.14439e-05 0.000620665)
(3.01756e-06 9.31816e-07 -7.05637e-06 4.45746e-07 -3.9917e-06 3.82644e-05)
(9.69152e-07 2.01726e-07 4.43659e-07 1.36239e-07 -8.27061e-07 1.09032e-05)
(3.35575e-07 5.87945e-08 5.27024e-07 7.52282e-08 -4.40898e-07 6.48899e-06)
(8.68991e-08 1.5443e-08 3.80225e-07 4.91461e-08 -3.03085e-07 5.80671e-06)
(5.27078e-14 4.9525e-12 2.30182e-10 4.78089e-08 -2.82337e-07 5.73675e-06)
(8.66176e-08 -1.54266e-08 -3.79624e-07 4.91546e-08 -3.03099e-07 5.80675e-06)
(3.35111e-07 -5.87359e-08 -5.27125e-07 7.52311e-08 -4.40877e-07 6.48884e-06)
(9.6822e-07 -2.01379e-07 -4.44883e-07 1.36092e-07 -8.26596e-07 1.09007e-05)
(3.01679e-06 -9.30737e-07 7.04124e-06 4.45292e-07 -3.98603e-06 3.81968e-05)
(7.74154e-14 2.60072e-10 -2.78214e-09 6.05269e-06 -4.87412e-05 0.000431194)
(2.11598e-06 9.37741e-07 -5.66886e-06 5.72035e-07 -4.56929e-06 4.52887e-05)
(7.1934e-07 2.03055e-07 -9.0105e-11 1.46249e-07 -1.00438e-06 1.24545e-05)
(2.64852e-07 6.34346e-08 3.11599e-07 8.08198e-08 -4.95157e-07 5.97982e-06)
(7.03442e-08 1.60823e-08 2.71958e-07 5.23955e-08 -3.39683e-07 4.77527e-06)
(3.97648e-14 5.41748e-12 1.62209e-10 5.08209e-08 -3.1555e-07 4.61023e-06)
(7.01186e-08 -1.60625e-08 -2.71523e-07 5.24079e-08 -3.39723e-07 4.77522e-06)
(2.64461e-07 -6.33631e-08 -3.11726e-07 8.08251e-08 -4.95146e-07 5.97894e-06)
(7.18606e-07 -2.02722e-07 -9.07326e-10 1.46095e-07 -1.00382e-06 1.24488e-05)
(2.11557e-06 -9.36704e-07 5.65875e-06 5.71345e-07 -4.56368e-06 4.52365e-05)
(4.04638e-14 -2.31741e-11 -3.61083e-11 6.22312e-06 -3.90627e-05 0.000261835)
(1.55954e-06 8.35901e-07 -4.9029e-06 6.00571e-07 -4.75327e-06 5.06457e-05)
(5.82567e-07 1.95063e-07 -3.78788e-07 1.46242e-07 -1.14204e-06 1.41479e-05)
(2.28476e-07 6.24556e-08 1.27696e-07 8.09467e-08 -5.42888e-07 6.21538e-06)
(6.21185e-08 1.48319e-08 1.75294e-07 5.05711e-08 -3.58047e-07 4.5323e-06)
(3.85236e-14 4.58524e-12 1.18762e-10 4.89038e-08 -3.3202e-07 4.27395e-06)
(6.19247e-08 -1.48107e-08 -1.74988e-07 5.0586e-08 -3.58109e-07 4.53192e-06)
(2.28114e-07 -6.23689e-08 -1.27877e-07 8.09518e-08 -5.42872e-07 6.21333e-06)
(5.8195e-07 -1.94749e-07 3.77724e-07 1.46097e-07 -1.1414e-06 1.41392e-05)
(1.55937e-06 -8.35042e-07 4.89599e-06 5.99846e-07 -4.74838e-06 5.06014e-05)
(5.11146e-14 -1.8752e-10 5.99787e-10 4.97548e-06 -2.57328e-05 0.000158939)
(1.21911e-06 7.17271e-07 -4.11102e-06 5.57352e-07 -4.44842e-06 5.11824e-05)
(5.04728e-07 1.76367e-07 -6.27046e-07 1.26771e-07 -1.14304e-06 1.51123e-05)
(2.09322e-07 5.62007e-08 -2.70536e-08 6.99453e-08 -5.47759e-07 6.39859e-06)
(5.80111e-08 1.07953e-08 8.53373e-08 4.19718e-08 -3.48239e-07 4.35459e-06)
(5.09753e-14 2.41816e-12 1.047e-10 4.06071e-08 -3.22761e-07 4.00672e-06)
(5.78305e-08 -1.07749e-08 -8.51001e-08 4.19878e-08 -3.48309e-07 4.35369e-06)
(2.08966e-07 -5.60972e-08 2.68552e-08 6.99497e-08 -5.47747e-07 6.3952e-06)
(5.04186e-07 -1.76065e-07 6.25981e-07 1.2665e-07 -1.14247e-06 1.51012e-05)
(1.21907e-06 -7.16597e-07 4.10632e-06 5.56717e-07 -4.44464e-06 5.11451e-05)
(7.57514e-14 -2.61012e-10 6.99616e-10 3.56231e-06 -1.6078e-05 0.00010513)
(9.33675e-07 5.8506e-07 -3.09917e-06 4.6702e-07 -3.6056e-06 4.48282e-05)
(4.56468e-07 1.46155e-07 -7.94716e-07 8.88599e-08 -9.72269e-07 1.46185e-05)
(1.98918e-07 4.35738e-08 -1.91896e-07 4.538e-08 -4.7618e-07 6.37597e-06)
(5.55916e-08 3.73127e-09 -1.37394e-08 2.69913e-08 -2.93736e-07 4.14603e-06)
(6.62642e-14 -9.8947e-13 8.63031e-11 2.65388e-08 -2.71509e-07 3.69982e-06)
(5.54073e-08 -3.71488e-09 1.39108e-08 2.7007e-08 -2.93791e-07 4.14491e-06)
(1.98563e-07 -4.34702e-08 1.91687e-07 4.53892e-08 -4.76206e-07 6.372e-06)
(4.55995e-07 -1.45879e-07 7.9379e-07 8.8773e-08 -9.719e-07 1.46072e-05)
(9.33718e-07 -5.84572e-07 3.09628e-06 4.66529e-07 -3.60319e-06 4.47992e-05)
(1.06076e-12 -2.21078e-11 -1.20791e-09 6.55803e-08 -7.22899e-07 1.85788e-05)
(2.10228e-06 8.5486e-11 2.98094e-06 5.74356e-10 -6.92849e-10 7.28033e-06)
(1.17756e-06 3.18067e-08 -4.81561e-07 8.72866e-10 -9.89161e-09 3.70978e-06)
(3.65253e-07 1.30809e-08 -7.64927e-07 4.81663e-10 -2.25968e-08 6.92579e-06)
(8.88172e-08 6.52424e-09 -5.78821e-07 4.89795e-10 -3.95238e-08 9.94758e-06)
(1.51023e-13 3.83116e-12 -2.99271e-10 5.06766e-10 -4.37337e-08 1.12171e-05)
(8.86307e-08 -6.51745e-09 5.78538e-07 4.89823e-10 -3.95309e-08 9.95103e-06)
(3.64736e-07 -1.30694e-08 7.65079e-07 4.81521e-10 -2.26049e-08 6.93115e-06)
(1.17765e-06 -3.18315e-08 4.85186e-07 8.74184e-10 -9.99569e-09 3.71576e-06)
(2.10243e-06 -9.32654e-11 -2.9763e-06 5.74388e-10 -6.54541e-10 7.26351e-06)
(2.0771e-12 4.31814e-10 -5.99951e-09 1.55582e-07 -1.53189e-06 5.86356e-05)
(2.78613e-06 2.0222e-07 6.8237e-06 1.6317e-08 4.73284e-07 2.68122e-05)
(8.97983e-07 1.28734e-07 4.18264e-07 1.89908e-08 8.4158e-08 1.08909e-05)
(2.51116e-07 4.59355e-08 3.50602e-08 9.17983e-09 -7.75571e-08 2.08094e-05)
(5.20183e-08 1.89339e-08 -1.95783e-07 7.38251e-09 -1.39791e-07 2.8809e-05)
(9.87164e-14 7.83666e-12 -9.29672e-12 7.29623e-09 -1.56759e-07 3.18381e-05)
(5.19387e-08 -1.89195e-08 1.96287e-07 7.38214e-09 -1.39823e-07 2.88159e-05)
(2.50774e-07 -4.59e-08 -3.44858e-08 9.1783e-09 -7.75969e-08 2.08206e-05)
(8.97839e-07 -1.28727e-07 -4.14125e-07 1.8991e-08 8.35214e-08 1.08989e-05)
(2.78465e-06 -2.02187e-07 -6.81427e-06 1.63228e-08 4.72799e-07 2.6732e-05)
(2.49027e-12 4.41953e-10 -1.13331e-08 4.26202e-07 -3.42537e-06 0.000127529)
(1.45663e-06 2.13612e-07 4.97503e-06 4.9136e-08 1.26149e-06 4.77688e-05)
(2.61238e-07 9.69518e-08 5.92418e-07 4.55583e-08 2.10221e-07 9.71502e-06)
(9.51928e-08 2.42274e-08 6.70501e-07 1.73964e-08 -1.64076e-07 1.92962e-05)
(1.81087e-08 8.45286e-09 3.08245e-07 1.28399e-08 -2.40091e-07 2.83419e-05)
(1.11657e-13 -2.83931e-12 5.31902e-10 1.25235e-08 -2.68569e-07 3.19406e-05)
(1.80706e-08 -8.45939e-09 -3.06922e-07 1.28374e-08 -2.40131e-07 2.835e-05)
(9.50635e-08 -2.42181e-08 -6.70112e-07 1.73894e-08 -1.64088e-07 1.93093e-05)
(2.61151e-07 -9.69222e-08 -5.91429e-07 4.55371e-08 2.09037e-07 9.71759e-06)
(1.45558e-06 -2.13489e-07 -4.9694e-06 4.91392e-08 1.26006e-06 4.76229e-05)
(1.90007e-12 7.44856e-10 -1.25268e-08 6.31326e-07 -4.93311e-06 0.000204274)
(7.36097e-07 1.38533e-07 1.97622e-06 9.35864e-08 1.83784e-06 5.2354e-05)
(1.19686e-07 4.21289e-08 2.8768e-07 6.87857e-08 1.5423e-07 6.68733e-06)
(7.64778e-08 2.51164e-09 7.98295e-07 2.20383e-08 -2.73233e-07 1.57375e-05)
(1.69326e-08 -4.11094e-10 4.83784e-07 1.56799e-08 -3.34246e-07 2.48497e-05)
(1.46635e-13 -1.12469e-11 8.57864e-10 1.51293e-08 -3.69065e-07 2.85887e-05)
(1.685e-08 3.86691e-10 -4.82016e-07 1.56755e-08 -3.34238e-07 2.48581e-05)
(7.63436e-08 -2.53256e-09 -7.98057e-07 2.20258e-08 -2.73194e-07 1.57517e-05)
(1.19603e-07 -4.21188e-08 -2.8865e-07 6.8742e-08 1.52824e-07 6.69085e-06)
(7.35579e-07 -1.38384e-07 -1.97554e-06 9.36029e-08 1.83591e-06 5.21878e-05)
(1.26755e-12 3.07097e-10 -1.07502e-08 4.72242e-07 1.04764e-07 0.000262397)
(4.96505e-07 7.46584e-08 -1.75401e-07 1.33548e-07 1.95058e-06 4.17296e-05)
(9.76959e-08 1.97925e-08 1.78563e-07 7.86677e-08 4.71995e-08 3.57881e-06)
(7.02895e-08 -4.97439e-09 7.38453e-07 2.31812e-08 -3.19558e-07 1.2329e-05)
(1.68677e-08 -3.29949e-09 4.97209e-07 1.60454e-08 -3.61939e-07 2.12312e-05)
(1.61027e-13 -1.38024e-11 9.66537e-10 1.52882e-08 -3.94186e-07 2.49255e-05)
(1.6761e-08 3.26824e-09 -4.95319e-07 1.60394e-08 -3.61851e-07 2.12397e-05)
(7.01373e-08 4.93915e-09 -7.38218e-07 2.31643e-08 -3.19454e-07 1.23439e-05)
(9.75908e-08 -1.97944e-08 -1.79932e-07 7.86138e-08 4.59902e-08 3.58587e-06)
(4.96201e-07 -7.45211e-08 1.72138e-07 1.33593e-07 1.94884e-06 4.15906e-05)
(9.1273e-13 9.62075e-11 -7.37164e-09 6.32375e-07 3.72344e-06 0.000271431)
(3.44331e-07 5.78208e-08 -6.02706e-07 1.51909e-07 1.63291e-06 2.71699e-05)
(8.03716e-08 2.46454e-08 1.47882e-07 8.13795e-08 -1.33086e-09 1.41552e-06)
(5.79523e-08 -3.62734e-09 6.06383e-07 2.31033e-08 -2.91653e-07 9.39853e-06)
(1.43149e-08 -2.80255e-09 4.43217e-07 1.56814e-08 -3.28193e-07 1.80341e-05)
(1.569e-13 -1.25399e-11 9.33048e-10 1.46588e-08 -3.5218e-07 2.16464e-05)
(1.42095e-08 2.77202e-09 -4.41422e-07 1.56735e-08 -3.28029e-07 1.8043e-05)
(5.78034e-08 3.59039e-09 -6.06121e-07 2.30836e-08 -2.91492e-07 9.41401e-06)
(8.02653e-08 -2.46382e-08 -1.48956e-07 8.13235e-08 -2.25677e-09 1.42366e-06)
(3.44061e-07 -5.77015e-08 5.98967e-07 1.51989e-07 1.63197e-06 2.70741e-05)
(8.23485e-13 4.58416e-11 -3.49723e-09 7.24446e-07 4.11465e-06 0.000206634)
(2.157e-07 6.6207e-08 -3.57657e-07 1.60622e-07 1.32287e-06 1.74477e-05)
(6.56182e-08 3.46472e-08 1.24878e-07 8.17298e-08 2.19596e-08 4.72036e-07)
(4.59615e-08 -1.38604e-10 4.69508e-07 2.32167e-08 -2.18952e-07 7.34915e-06)
(1.15461e-08 -1.36306e-09 3.76176e-07 1.52843e-08 -2.5397e-07 1.56902e-05)
(1.44473e-13 -9.20689e-12 8.39307e-10 1.39348e-08 -2.6746e-07 1.92289e-05)
(1.1451e-08 1.33744e-09 -3.74571e-07 1.52751e-08 -2.53747e-07 1.56997e-05)
(4.58249e-08 1.06196e-10 -4.69239e-07 2.31953e-08 -2.1877e-07 7.36493e-06)
(6.55202e-08 -3.46254e-08 -1.25633e-07 8.16742e-08 2.12554e-08 4.78935e-07)
(2.15469e-07 -6.61118e-08 3.55099e-07 1.6072e-07 1.32252e-06 1.73851e-05)
(1.02268e-12 3.96421e-11 -1.01422e-09 5.85857e-07 2.66118e-06 0.00011977)
(1.4439e-07 6.63895e-08 -2.37095e-07 1.6802e-07 1.13885e-06 1.28193e-05)
(5.46159e-08 4.00105e-08 1.10618e-07 8.19034e-08 6.77262e-08 6.21865e-07)
(3.66117e-08 2.89805e-09 3.66278e-07 2.35613e-08 -1.3986e-07 6.55389e-06)
(9.43812e-09 2.32153e-11 3.21062e-07 1.47987e-08 -1.67589e-07 1.46892e-05)
(1.33618e-13 -4.68449e-12 7.5072e-10 1.31491e-08 -1.70598e-07 1.82186e-05)
(9.35381e-09 -4.11715e-11 -3.19628e-07 1.47897e-08 -1.6733e-07 1.46993e-05)
(3.6489e-08 -2.92214e-09 -3.66009e-07 2.35395e-08 -1.39683e-07 6.56979e-06)
(5.45227e-08 -3.99812e-08 -1.11184e-07 8.18513e-08 6.7185e-08 6.26904e-07)
(1.44186e-07 -6.63161e-08 2.35329e-07 1.68119e-07 1.13869e-06 1.27761e-05)
(1.56421e-12 3.43692e-11 -1.18325e-10 4.48964e-07 1.30655e-06 5.84702e-05)
(1.07232e-07 5.29704e-08 -2.61938e-07 1.66409e-07 9.64097e-07 9.91985e-06)
(4.47827e-08 3.99569e-08 9.72014e-08 8.02189e-08 8.8461e-08 7.69411e-07)
(2.93492e-08 4.88956e-09 3.07133e-07 2.32171e-08 -9.14545e-08 6.44967e-06)
(7.90689e-09 1.04843e-09 2.85102e-07 1.39556e-08 -1.03038e-07 1.47481e-05)
(1.32732e-13 6.20055e-13 7.00154e-10 1.21542e-08 -9.66962e-08 1.8411e-05)
(7.83247e-09 -1.05627e-09 -2.8375e-07 1.39487e-08 -1.02761e-07 1.4759e-05)
(2.92402e-08 -4.90347e-09 -3.06834e-07 2.31968e-08 -9.1276e-08 6.46584e-06)
(4.46895e-08 -3.99294e-08 -9.76651e-08 8.01771e-08 8.80574e-08 7.73318e-07)
(1.0703e-07 -5.2909e-08 2.60368e-07 1.66494e-07 9.64018e-07 9.88819e-06)
(2.90408e-12 2.86061e-11 1.14164e-10 3.38177e-07 5.49374e-07 2.89841e-05)
(8.34765e-08 3.35771e-08 -2.9615e-07 1.53019e-07 7.25822e-07 6.83066e-06)
(3.54714e-08 3.5372e-08 8.50291e-08 7.42987e-08 6.83238e-08 5.3738e-07)
(2.33692e-08 5.33523e-09 2.87152e-07 2.16677e-08 -8.02191e-08 6.79318e-06)
(6.79902e-09 1.44787e-09 2.71282e-07 1.26148e-08 -7.11657e-08 1.58117e-05)
(1.45308e-13 5.52395e-12 6.63868e-10 1.08541e-08 -5.81746e-08 1.98034e-05)
(6.73411e-09 -1.44548e-09 -2.69949e-07 1.26109e-08 -7.08843e-08 1.58238e-05)
(2.32737e-08 -5.34098e-09 -2.86798e-07 2.16514e-08 -7.99969e-08 6.8101e-06)
(3.53758e-08 -3.5352e-08 -8.54075e-08 7.4276e-08 6.80758e-08 5.41107e-07)
(8.3276e-08 -3.35317e-08 2.94696e-07 1.53083e-07 7.25766e-07 6.80768e-06)
(3.26964e-13 3.91694e-12 -1.67694e-09 1.15587e-09 -2.58309e-07 7.07266e-05)
(8.41374e-07 3.23622e-09 8.32055e-07 5.00342e-11 1.07745e-08 6.54989e-06)
(3.0864e-07 1.91395e-10 -1.33836e-07 9.40084e-11 -1.01087e-08 4.75657e-06)
(1.21214e-07 -8.12735e-10 -1.72025e-07 6.37879e-11 -1.77436e-09 3.78368e-06)
(3.71581e-08 -5.52125e-10 -1.17878e-07 4.74521e-11 7.25957e-10 3.62251e-06)
(5.2058e-14 -2.19224e-14 -1.4133e-10 6.10531e-11 1.07989e-09 3.64735e-06)
(3.71233e-08 5.52298e-10 1.17735e-07 4.74887e-11 7.22594e-10 3.62259e-06)
(1.21048e-07 8.13153e-10 1.71915e-07 6.37603e-11 -1.77502e-09 3.784e-06)
(3.08818e-07 -1.94198e-10 1.34637e-07 9.40295e-11 -1.01108e-08 4.75661e-06)
(8.41675e-07 -3.24819e-09 -8.28752e-07 5.0111e-11 1.07733e-08 6.54503e-06)
(1.55254e-12 1.29489e-10 -8.47836e-09 1.58065e-08 -1.16432e-06 0.000246346)
(2.00201e-06 6.2509e-08 7.72465e-07 2.40807e-09 -7.04784e-09 4.07957e-06)
(7.06151e-07 3.70833e-08 -1.10083e-06 3.39145e-09 -8.44284e-08 5.34747e-06)
(2.59097e-07 1.17152e-08 -7.11441e-07 1.11081e-09 -3.36505e-08 7.10432e-06)
(7.29471e-08 4.86762e-09 -4.87809e-07 1.01862e-09 -2.96291e-08 8.44692e-06)
(4.09762e-14 3.50572e-12 -1.71923e-10 1.02801e-09 -2.63255e-08 8.72858e-06)
(7.29191e-08 -4.86363e-09 4.87856e-07 1.01903e-09 -2.96298e-08 8.44696e-06)
(2.58772e-07 -1.17049e-08 7.11377e-07 1.11104e-09 -3.36741e-08 7.10508e-06)
(7.06608e-07 -3.70859e-08 1.10262e-06 3.38994e-09 -8.44805e-08 5.3509e-06)
(2.00142e-06 -6.25569e-08 -7.63244e-07 2.4116e-09 -7.26827e-09 4.06735e-06)
(2.11214e-12 3.49753e-10 -1.25544e-08 7.56775e-08 -3.18971e-06 0.00034465)
(1.47873e-06 1.27792e-07 1.87138e-06 1.18548e-08 1.59522e-07 9.36433e-06)
(5.12978e-07 7.25253e-08 -1.03914e-06 1.376e-08 -1.91917e-07 6.51202e-06)
(1.89181e-07 2.28787e-08 -7.20101e-07 3.45008e-09 -9.72167e-08 8.66199e-06)
(5.08526e-08 9.39041e-09 -4.83664e-07 3.01177e-09 -8.33926e-08 1.01001e-05)
(2.09463e-14 4.62145e-12 -9.65393e-11 2.93426e-09 -8.03281e-08 1.0474e-05)
(5.08774e-08 -9.38862e-09 4.83986e-07 3.01237e-09 -8.33953e-08 1.01e-05)
(1.88978e-07 -2.28624e-08 7.20124e-07 3.45041e-09 -9.72514e-08 8.66291e-06)
(5.13435e-07 -7.25241e-08 1.04116e-06 1.37469e-08 -1.92076e-07 6.51594e-06)
(1.4781e-06 -1.27876e-07 -1.86066e-06 1.18725e-08 1.5884e-07 9.3256e-06)
(1.76319e-12 3.24766e-10 -1.28913e-08 8.301e-08 -1.62215e-06 0.000380766)
(8.42075e-07 1.44419e-07 2.18871e-06 2.61934e-08 4.07881e-07 1.78182e-05)
(3.08364e-07 8.42978e-08 -7.84914e-07 2.85164e-08 -3.25073e-07 7.36185e-06)
(1.16151e-07 2.68354e-08 -6.35806e-07 6.84475e-09 -1.92385e-07 8.57676e-06)
(3.09079e-08 1.13774e-08 -4.06881e-07 5.63149e-09 -1.7785e-07 9.69194e-06)
(1.85071e-14 3.67048e-12 -4.17007e-11 5.36402e-09 -1.76374e-07 1.00448e-05)
(3.09554e-08 -1.13823e-08 4.07325e-07 5.63205e-09 -1.77857e-07 9.6918e-06)
(1.16056e-07 -2.68214e-08 6.35851e-07 6.84467e-09 -1.92439e-07 8.57778e-06)
(3.08749e-07 -8.4311e-08 7.86847e-07 2.84855e-08 -3.25336e-07 7.36499e-06)
(8.41809e-07 -1.44531e-07 -2.17989e-06 2.62364e-08 4.06816e-07 1.77547e-05)
(1.23635e-12 2.40862e-10 -1.18241e-08 8.5035e-08 -1.2847e-06 0.000382866)
(4.32821e-07 1.35758e-07 1.89581e-06 4.36066e-08 6.52139e-07 2.55175e-05)
(2.02951e-07 8.28966e-08 -5.41422e-07 4.10738e-08 -4.08546e-07 8.2492e-06)
(7.84234e-08 2.73445e-08 -5.4622e-07 1.02997e-08 -2.3789e-07 7.66399e-06)
(2.13136e-08 1.19225e-08 -3.31612e-07 7.94063e-09 -2.31448e-07 8.31423e-06)
(1.80659e-14 2.76223e-12 -3.62775e-11 7.43178e-09 -2.30446e-07 8.58165e-06)
(2.13628e-08 -1.19329e-08 3.32034e-07 7.9409e-09 -2.31463e-07 8.31421e-06)
(7.83825e-08 -2.73357e-08 5.46268e-07 1.02983e-08 -2.37972e-07 7.66498e-06)
(2.03289e-07 -8.29314e-08 5.43249e-07 4.1029e-08 -4.08827e-07 8.25067e-06)
(4.32914e-07 -1.35903e-07 -1.89027e-06 4.36854e-08 6.50859e-07 2.54476e-05)
(7.55015e-13 1.03348e-10 -9.52492e-09 6.94445e-08 2.43424e-07 0.000353574)
(2.48274e-07 1.19908e-07 1.58665e-06 5.8691e-08 8.20157e-07 3.22578e-05)
(1.61435e-07 8.24125e-08 -3.24718e-07 4.92648e-08 -3.99624e-07 9.05255e-06)
(6.24041e-08 2.86192e-08 -4.52637e-07 1.45567e-08 -2.32601e-07 6.29101e-06)
(1.75874e-08 1.29569e-08 -2.65321e-07 1.06972e-08 -2.4294e-07 6.43716e-06)
(1.46525e-14 2.85849e-12 -6.52432e-11 9.86135e-09 -2.41396e-07 6.6009e-06)
(1.76314e-08 -1.29704e-08 2.65625e-07 1.06972e-08 -2.42964e-07 6.4373e-06)
(6.23905e-08 -2.86163e-08 4.52691e-07 1.45536e-08 -2.32726e-07 6.29164e-06)
(1.61755e-07 -8.24661e-08 3.26426e-07 4.9219e-08 -3.99893e-07 9.05119e-06)
(2.48544e-07 -1.20101e-07 -1.58362e-06 5.88129e-08 8.18984e-07 3.21967e-05)
(3.99116e-13 3.19238e-12 -6.31639e-09 6.1995e-08 1.57861e-06 0.000294919)
(1.77013e-07 1.08452e-07 1.38793e-06 6.76286e-08 9.4132e-07 3.8375e-05)
(1.41507e-07 8.28163e-08 -1.19063e-07 5.42068e-08 -2.89574e-07 9.65307e-06)
(5.30912e-08 3.02593e-08 -3.43699e-07 1.96754e-08 -1.81347e-07 5.03468e-06)
(1.56057e-08 1.41338e-08 -1.99248e-07 1.39937e-08 -2.1415e-07 4.69408e-06)
(1.13695e-14 3.869e-12 -9.20252e-11 1.26763e-08 -2.12139e-07 4.75984e-06)
(1.56425e-08 -1.41484e-08 1.99414e-07 1.39942e-08 -2.1419e-07 4.69423e-06)
(5.30954e-08 -3.02626e-08 3.43758e-07 1.96714e-08 -1.81528e-07 5.03462e-06)
(1.41815e-07 -8.2885e-08 1.20551e-07 5.41721e-08 -2.89876e-07 9.64858e-06)
(1.77325e-07 -1.08679e-07 -1.38616e-06 6.77865e-08 9.40434e-07 3.83254e-05)
(1.91406e-13 -2.64421e-11 -3.25499e-09 5.98562e-08 1.94645e-06 0.000218048)
(1.26301e-07 9.43663e-08 1.14461e-06 7.27085e-08 1.0244e-06 4.2838e-05)
(1.19507e-07 8.01503e-08 6.99506e-08 5.81922e-08 -1.35626e-07 1.0636e-05)
(4.2677e-08 3.05329e-08 -2.28374e-07 2.53113e-08 -1.07692e-07 4.61013e-06)
(1.32494e-08 1.46366e-08 -1.33175e-07 1.75243e-08 -1.62314e-07 3.79623e-06)
(1.30614e-14 5.05678e-12 -8.81011e-11 1.55211e-08 -1.61579e-07 3.76705e-06)
(1.32792e-08 -1.46514e-08 1.33245e-07 1.75266e-08 -1.62373e-07 3.79612e-06)
(4.26955e-08 -3.05436e-08 2.28415e-07 2.53089e-08 -1.07918e-07 4.60898e-06)
(1.19788e-07 -8.02321e-08 -6.88238e-08 5.81742e-08 -1.35986e-07 1.06286e-05)
(1.26582e-07 -9.45906e-08 -1.14371e-06 7.28818e-08 1.02378e-06 4.27975e-05)
(1.008e-13 -1.98447e-11 -1.20846e-09 4.91317e-08 1.3567e-06 0.0001459)
(7.37247e-08 7.21523e-08 7.99624e-07 7.40435e-08 1.00533e-06 4.27694e-05)
(8.99132e-08 7.08006e-08 1.98002e-07 5.94418e-08 3.08275e-09 1.11467e-05)
(3.04421e-08 2.77912e-08 -1.22052e-07 2.94302e-08 -3.11658e-08 4.38819e-06)
(1.01944e-08 1.36779e-08 -7.27452e-08 1.9799e-08 -9.79007e-08 3.18546e-06)
(2.13706e-14 5.12152e-12 -4.6991e-11 1.69919e-08 -1.0151e-07 3.06309e-06)
(1.02199e-08 -1.36937e-08 7.27761e-08 1.98052e-08 -9.79633e-08 3.18488e-06)
(3.04711e-08 -2.78098e-08 1.22042e-07 2.94337e-08 -3.1379e-08 4.38578e-06)
(9.01485e-08 -7.08883e-08 -1.97361e-07 5.94398e-08 2.7105e-09 1.11371e-05)
(7.39301e-08 -7.23431e-08 -7.99484e-07 7.42111e-08 1.0049e-06 4.27362e-05)
(6.72266e-14 -1.05514e-11 -3.2104e-10 3.82983e-08 6.43941e-07 9.52292e-05)
(3.12673e-08 4.59329e-08 4.05141e-07 7.26172e-08 8.65542e-07 3.63269e-05)
(5.82237e-08 5.54516e-08 2.42849e-07 5.62542e-08 1.06786e-07 1.04986e-05)
(1.90305e-08 2.2064e-08 -3.92082e-08 2.99181e-08 4.54444e-08 4.10593e-06)
(7.05956e-09 1.13178e-08 -2.29142e-08 1.97491e-08 -2.39647e-08 2.67199e-06)
(2.8622e-14 3.19743e-12 1.13308e-11 1.63489e-08 -3.47668e-08 2.4486e-06)
(7.08393e-09 -1.13368e-08 2.29359e-08 1.97605e-08 -2.40014e-08 2.67118e-06)
(1.90631e-08 -2.20883e-08 3.9139e-08 2.99306e-08 4.53092e-08 4.10295e-06)
(5.84015e-08 -5.55343e-08 -2.427e-07 5.62641e-08 1.06477e-07 1.0489e-05)
(3.13871e-08 -4.60768e-08 -4.05618e-07 7.27651e-08 8.65223e-07 3.63015e-05)
(2.5701e-13 4.62351e-12 -1.19398e-09 1.26451e-10 -1.94321e-08 9.65824e-06)
(1.87183e-07 -4.20546e-10 2.35394e-07 1.88053e-11 2.15581e-09 2.76892e-06)
(4.42588e-08 -1.82273e-10 -1.32867e-07 2.24735e-11 4.38708e-09 2.91342e-06)
(3.04542e-08 2.05259e-11 -2.69453e-07 1.62814e-11 3.65137e-09 4.77882e-06)
(1.10547e-08 1.11538e-10 -2.27509e-07 1.80057e-11 1.41998e-09 7.12936e-06)
(1.4228e-14 1.37012e-13 -1.42341e-10 2.11137e-11 2.19861e-09 8.20049e-06)
(1.10416e-08 -1.11499e-10 2.27423e-07 1.80179e-11 1.41664e-09 7.13163e-06)
(3.03967e-08 -2.09055e-11 2.69423e-07 1.62794e-11 3.64553e-09 4.78229e-06)
(4.42715e-08 1.80744e-10 1.33428e-07 2.2454e-11 4.38257e-09 2.91683e-06)
(1.87408e-07 4.10198e-10 -2.3359e-07 1.87626e-11 2.17121e-09 2.76449e-06)
(8.64706e-13 5.0218e-11 -3.76126e-09 4.51923e-09 -2.23308e-07 2.39601e-05)
(5.72031e-07 1.50484e-08 7.29938e-07 8.99886e-10 1.07285e-08 1.13577e-05)
(1.5352e-07 6.69693e-09 -7.64673e-07 1.16858e-09 -1.80531e-08 1.03333e-05)
(6.86407e-08 2.91173e-09 -8.79599e-07 3.79464e-10 -3.28764e-08 1.8755e-05)
(2.48591e-08 1.76192e-09 -7.07288e-07 4.54294e-10 -4.49657e-08 2.57392e-05)
(2.05337e-14 1.4691e-12 1.31665e-10 4.55888e-10 -4.52825e-08 2.85636e-05)
(2.48745e-08 -1.7596e-09 7.07895e-07 4.54333e-10 -4.4943e-08 2.57435e-05)
(6.85397e-08 -2.90891e-09 8.79891e-07 3.79475e-10 -3.29073e-08 1.87624e-05)
(1.53592e-07 -6.69917e-09 7.66489e-07 1.16846e-09 -1.81465e-08 1.03432e-05)
(5.72232e-07 -1.51031e-08 -7.23764e-07 9.0162e-10 1.07307e-08 1.13408e-05)
(8.55829e-13 8.26676e-11 -4.70816e-09 1.32956e-08 -4.11691e-07 4.639e-05)
(4.35098e-07 3.65068e-08 1.55182e-06 4.60009e-09 1.77026e-07 1.89023e-05)
(1.11205e-07 1.40298e-08 -6.80029e-07 5.26847e-09 -4.45253e-09 1.14205e-05)
(3.74439e-08 4.63936e-09 -7.06121e-07 1.17922e-09 -5.38313e-08 2.17345e-05)
(1.43925e-08 2.21199e-09 -6.06151e-07 1.27724e-09 -6.0488e-08 3.02464e-05)
(2.25758e-14 1.22442e-12 5.42938e-10 1.28517e-09 -6.73266e-08 3.38183e-05)
(1.44425e-08 -2.20934e-09 6.07539e-07 1.27718e-09 -6.04123e-08 3.02522e-05)
(3.74087e-08 -4.6324e-09 7.06765e-07 1.17899e-09 -5.38505e-08 2.17443e-05)
(1.11287e-07 -1.40254e-08 6.81971e-07 5.26534e-09 -4.6822e-09 1.14317e-05)
(4.351e-07 -3.65671e-08 -1.54496e-06 4.60787e-09 1.76925e-07 1.88578e-05)
(6.3291e-13 5.6098e-11 -4.75277e-09 1.90163e-08 -1.53839e-07 7.06042e-05)
(2.44205e-07 5.12545e-08 1.68984e-06 1.37553e-08 4.33821e-07 2.41815e-05)
(5.22667e-08 1.57303e-08 -4.32252e-07 1.23523e-08 -1.55693e-08 9.22854e-06)
(1.21803e-08 4.63377e-09 -4.01514e-07 2.80594e-09 -1.17905e-07 1.95237e-05)
(5.5454e-09 2.0956e-09 -3.80044e-07 2.70755e-09 -1.17648e-07 2.85733e-05)
(3.57088e-14 -1.23215e-12 8.17105e-10 2.71301e-09 -1.32251e-07 3.24357e-05)
(5.59564e-09 -2.09711e-09 3.81867e-07 2.70682e-09 -1.17511e-07 2.858e-05)
(1.21852e-08 -4.62789e-09 4.0229e-07 2.80468e-09 -1.17888e-07 1.95354e-05)
(5.23292e-08 -1.57234e-08 4.33764e-07 1.23422e-08 -1.59611e-08 9.23894e-06)
(2.44152e-07 -5.12918e-08 -1.68405e-06 1.37717e-08 4.33409e-07 2.41132e-05)
(4.10276e-13 1.98397e-11 -4.30893e-09 2.73105e-08 4.69862e-07 9.24767e-05)
(1.24407e-07 5.30245e-08 1.38984e-06 2.72292e-08 7.21758e-07 2.53955e-05)
(2.24706e-08 1.25767e-08 -2.49074e-07 1.93614e-08 -1.48803e-08 5.6813e-06)
(3.22153e-09 2.95916e-09 -1.87672e-07 3.89323e-09 -1.4796e-07 1.52504e-05)
(2.11965e-09 1.26782e-09 -2.04694e-07 3.35202e-09 -1.34865e-07 2.43426e-05)
(4.80581e-14 -3.31526e-12 9.27478e-10 3.36141e-09 -1.53119e-07 2.82337e-05)
(2.15553e-09 -1.27292e-09 2.06643e-07 3.35033e-09 -1.34664e-07 2.43499e-05)
(3.23366e-09 -2.9574e-09 1.88446e-07 3.88985e-09 -1.47888e-07 1.52634e-05)
(2.25164e-08 -1.25716e-08 2.50125e-07 1.93412e-08 -1.53848e-08 5.69072e-06)
(1.24386e-07 -5.30432e-08 -1.38568e-06 2.72544e-08 7.20963e-07 2.53155e-05)
(2.29393e-13 -1.67955e-11 -3.42142e-09 4.7396e-08 1.4718e-06 0.000106474)
(6.51012e-08 4.77293e-08 9.98676e-07 4.1799e-08 8.97638e-07 2.2061e-05)
(1.20568e-08 1.10208e-08 -1.32941e-07 2.48797e-08 -1.65383e-08 2.62633e-06)
(1.21554e-09 2.06046e-09 -8.57514e-08 4.90736e-09 -1.61048e-07 1.12006e-05)
(1.13612e-09 9.52302e-10 -1.10585e-07 3.70922e-09 -1.3559e-07 2.0079e-05)
(5.1142e-14 -4.63104e-12 9.12258e-10 3.75454e-09 -1.5385e-07 2.38825e-05)
(1.1608e-09 -9.59659e-10 1.12452e-07 3.70631e-09 -1.35333e-07 2.00869e-05)
(1.22472e-09 -2.06339e-09 8.64935e-08 4.90063e-09 -1.60923e-07 1.12145e-05)
(1.20949e-08 -1.10194e-08 1.33728e-07 2.48501e-08 -1.7084e-08 2.63471e-06)
(6.51262e-08 -4.77495e-08 -9.96169e-07 4.18339e-08 8.96617e-07 2.19866e-05)
(1.04708e-13 -3.67447e-11 -2.20737e-09 8.07619e-08 2.46231e-06 0.000102658)
(4.13942e-08 4.24136e-08 7.3966e-07 5.11868e-08 9.03335e-07 1.66747e-05)
(9.79803e-09 1.27312e-08 -5.99619e-08 2.83491e-08 9.29892e-09 1.1107e-06)
(9.39965e-10 2.19072e-09 -6.03835e-08 6.0166e-09 -1.48248e-07 8.40853e-06)
(8.11433e-10 1.06225e-09 -7.89266e-08 4.00633e-09 -1.14344e-07 1.69399e-05)
(4.5338e-14 -4.86448e-12 8.22988e-10 4.11001e-09 -1.29445e-07 2.06227e-05)
(8.31788e-10 -1.06982e-09 8.0599e-08 4.00215e-09 -1.14051e-07 1.69485e-05)
(9.47863e-10 -2.19676e-09 6.11012e-08 6.00555e-09 -1.48091e-07 8.42298e-06)
(9.83653e-09 -1.27323e-08 6.06559e-08 2.83136e-08 8.7499e-09 1.11751e-06)
(4.14484e-08 -4.24498e-08 -7.38321e-07 5.12342e-08 9.02405e-07 1.66185e-05)
(3.90492e-14 -3.22493e-11 -1.07685e-09 1.08496e-07 2.71457e-06 7.76056e-05)
(3.03536e-08 3.84043e-08 5.80653e-07 5.49915e-08 8.27572e-07 1.26819e-05)
(1.04873e-08 1.57613e-08 -1.29093e-08 3.05939e-08 5.24057e-08 1.06752e-06)
(1.3326e-09 2.8376e-09 -6.62454e-08 7.45887e-09 -1.2745e-07 7.20193e-06)
(7.47834e-10 1.32716e-09 -7.85851e-08 4.50469e-09 -9.20581e-08 1.5456e-05)
(3.6871e-14 -4.34124e-12 7.19746e-10 4.66428e-09 -1.02538e-07 1.90827e-05)
(7.66948e-10 -1.33387e-09 8.00598e-08 4.4992e-09 -9.17478e-08 1.54653e-05)
(1.34192e-09 -2.84544e-09 6.69633e-08 7.44307e-09 -1.27292e-07 7.21659e-06)
(1.05306e-08 -1.57657e-08 1.35663e-08 3.05548e-08 5.18546e-08 1.07258e-06)
(3.04202e-08 -3.84546e-08 -5.79991e-07 5.50488e-08 8.26866e-07 1.26433e-05)
(1.84497e-14 -1.96775e-11 -4.14699e-10 1.06045e-07 2.15674e-06 4.81711e-05)
(2.04528e-08 3.26482e-08 4.34397e-07 5.64754e-08 7.47507e-07 1.02563e-05)
(1.11092e-08 1.77192e-08 8.26753e-09 3.18888e-08 7.22176e-08 1.26422e-06)
(1.9718e-09 3.49611e-09 -8.08166e-08 9.21271e-09 -1.311e-07 6.92163e-06)
(8.33551e-10 1.57973e-09 -9.12055e-08 5.24169e-09 -9.83899e-08 1.52902e-05)
(3.25866e-14 -3.1557e-12 6.36639e-10 5.40065e-09 -1.04516e-07 1.90227e-05)
(8.51373e-10 -1.58501e-09 9.25448e-08 5.23484e-09 -9.80747e-08 1.53004e-05)
(1.98339e-09 -3.50524e-09 8.15693e-08 9.19256e-09 -1.3095e-07 6.93662e-06)