
400
(
(0.000161288 -4.45859e-06 2.46056e-07 0.00017245 -1.90427e-05 0.000168501)
(0.00016014 -4.80049e-06 3.71597e-07 0.000170461 -2.91857e-05 0.000167427)
(0.000173284 -5.87679e-06 7.36807e-08 0.000184023 -3.96752e-05 0.000182451)
(0.000169145 -5.51809e-06 7.1852e-08 0.000180474 -2.63324e-05 0.000178738)
(0.000159352 -5.29038e-06 4.38316e-07 0.000170911 -3.66255e-05 0.000166576)
(0.000177305 -6.14782e-06 7.30312e-08 0.000189475 -4.79764e-05 0.000185977)
(0.000159386 -5.87225e-06 4.66386e-07 0.000172761 -4.15383e-05 0.000166331)
(0.000181615 -6.37431e-06 9.74443e-08 0.000195431 -5.24205e-05 0.000189959)
(0.000160811 -6.45148e-06 4.64604e-07 0.000174542 -4.54788e-05 0.000167382)
(0.000186828 -6.61519e-06 1.27415e-07 0.000200826 -5.61233e-05 0.000194939)
(0.000163274 -7.02162e-06 4.48612e-07 0.000176729 -4.92813e-05 0.000169469)
(0.000192728 -6.8968e-06 1.50642e-07 0.000206281 -6.03123e-05 0.000200588)
(0.000166505 -7.56611e-06 4.29568e-07 0.000179811 -5.30394e-05 0.000172337)
(0.000199082 -7.20953e-06 1.65508e-07 0.000212269 -6.49669e-05 0.000206655)
(0.000170168 -8.07835e-06 3.93253e-07 0.000183171 -5.67168e-05 0.000175647)
(0.000205914 -7.54377e-06 1.76726e-07 0.000218628 -6.99859e-05 0.000213185)
(0.000174041 -8.54968e-06 3.45464e-07 0.000186717 -6.02855e-05 0.000179168)
(0.000213143 -7.88932e-06 1.9069e-07 0.000225354 -7.52899e-05 0.000220101)
(0.00017808 -8.97655e-06 2.97497e-07 0.000190482 -6.36758e-05 0.000182843)
(0.000220673 -8.23833e-06 2.1002e-07 0.000232425 -8.07599e-05 0.000227302)
(0.00018207 -9.36581e-06 2.38791e-07 0.000194194 -6.68102e-05 0.000186464)
(0.000228427 -8.58508e-06 2.33807e-07 0.000239732 -8.63019e-05 0.000234708)
(0.000186049 -9.71407e-06 1.71886e-07 0.000197857 -6.97022e-05 0.000190068)
(0.000236309 -8.92332e-06 2.6044e-07 0.000247154 -9.1871e-05 0.00024223)
(0.000189985 -1.0019e-05 9.45162e-08 0.000201439 -7.2348e-05 0.000193625)
(0.000244216 -9.24498e-06 2.884e-07 0.000254567 -9.74277e-05 0.000249764)
(0.000194116 -1.02594e-05 1.82085e-08 0.000205195 -7.48537e-05 0.000197363)
(0.000252029 -9.53996e-06 3.1658e-07 0.00026186 -0.000102995 0.000257182)
(0.00019823 -1.04416e-05 -5.98312e-08 0.000208924 -7.71169e-05 0.00020106)
(0.000259604 -9.80357e-06 3.32692e-07 0.000269 -0.000108547 0.000264278)
(0.000202141 -1.05739e-05 -1.392e-07 0.000212444 -7.90305e-05 0.000204514)
(0.000266791 -1.00646e-05 2.73901e-07 0.000275912 -0.000113216 0.000270796)
(0.000205966 -1.06496e-05 -2.12271e-07 0.000215868 -8.06066e-05 0.000207851)
(0.000273429 -1.02703e-05 2.26655e-07 0.000282342 -0.000116431 0.000276567)
(0.000210907 -1.06466e-05 -2.3366e-07 0.00022036 -8.21683e-05 0.000212314)
(0.000279339 -1.03656e-05 2.81294e-07 0.000287986 -0.000118733 0.000281594)
(0.000217477 -1.05767e-05 -1.94481e-07 0.000226371 -8.40355e-05 0.000218487)
(0.000284436 -1.03846e-05 3.67615e-07 0.00029277 -0.000120452 0.000285932)
(0.000224613 -1.04929e-05 -1.55227e-07 0.000232785 -8.62769e-05 0.000225366)
(0.000288792 -1.03488e-05 4.29196e-07 0.000296844 -0.000121665 0.000289573)
(0.000232042 -1.04307e-05 -1.34482e-07 0.000239342 -8.91011e-05 0.000232644)
(0.000292565 -1.02874e-05 3.90665e-07 0.000300289 -0.000122228 0.000292615)
(0.000239688 -1.04405e-05 -1.36357e-07 0.000246087 -9.2431e-05 0.000240084)
(0.000295895 -1.02169e-05 2.51446e-07 0.000303086 -0.000122232 0.000295349)
(0.000247827 -1.05694e-05 -1.56703e-07 0.000252417 -9.59207e-05 0.000247905)
(0.000299249 -1.01699e-05 1.06697e-07 0.000304677 -0.000122037 0.00029833)
(0.000255643 -1.08951e-05 -1.88127e-07 0.000259857 -9.92269e-05 0.000255382)
(0.000301969 -1.02705e-05 2.36326e-11 0.000306913 -0.000121839 0.000300787)
(0.00026149 -9.86066e-06 -2.27416e-07 0.000271697 -0.000101294 0.000260923)
(0.000302475 -9.00661e-06 -9.45879e-08 0.000313374 -0.000120839 0.000301036)
(0.00026739 -3.66733e-06 -2.85329e-07 0.000283835 -9.89757e-05 0.000266603)
(0.000302862 -2.52469e-06 -2.11696e-07 0.000320024 -0.00011556 0.000301199)
(0.000278599 6.5209e-06 -3.766e-07 0.000285642 -9.18954e-05 0.000277846)
(0.000308401 8.18297e-06 -3.86815e-07 0.000316308 -0.000104675 0.000306709)
(0.000296514 8.91375e-06 -3.49603e-07 0.000274711 -9.07943e-05 0.000296131)
(0.000320466 1.13491e-05 -5.95942e-07 0.000299926 -9.908e-05 0.00031901)
(0.000307804 -8.24058e-06 3.52403e-07 0.000278932 -0.000109416 0.000307846)
(0.000325805 -5.03773e-06 -3.42652e-07 0.000298626 -0.000114006 0.000324615)
(0.000305413 -2.43044e-05 1.64573e-06 0.000311492 -0.000124717 0.00030516)
(0.000317488 -2.06058e-05 5.65038e-07 0.000325386 -0.000126214 0.000315945)
(0.000303619 -2.67808e-05 2.21867e-06 0.000336252 -0.000128955 0.000301926)
(0.000310019 -2.32145e-05 1.04235e-06 0.000344363 -0.000127119 0.000307151)
(0.000311428 -2.85682e-05 1.27994e-06 0.000328271 -0.000136033 0.000308484)
(0.000312694 -2.59859e-05 2.77509e-07 0.00033129 -0.000131131 0.000308804)
(0.000321654 -2.70053e-05 -5.69842e-07 0.000305588 -0.000138877 0.000318409)
(0.000318475 -2.59623e-05 -1.17979e-06 0.000304374 -0.000131692 0.000314548)
(0.000324241 -1.6133e-05 -1.79148e-06 0.000295606 -0.000134852 0.000320722)
(0.000317249 -1.66842e-05 -1.97614e-06 0.000290623 -0.000126552 0.000313262)
(0.000318505 -4.97132e-06 -1.81787e-06 0.000302924 -0.000129733 0.000314479)
(0.000308071 -6.68863e-06 -1.82813e-06 0.000294405 -0.00012154 0.000303664)
(0.000312801 -1.45204e-06 -1.61203e-06 0.000311608 -0.000128777 0.000308558)
(0.000298998 -3.75414e-06 -1.63633e-06 0.000299747 -0.000119914 0.000294368)
(0.000313093 -8.07387e-07 -1.60356e-06 0.000309932 -0.00013009 0.000309025)
(0.000295905 -3.36769e-06 -1.64523e-06 0.00029476 -0.000118938 0.000291409)
(0.000315301 -7.95265e-07 -1.61902e-06 0.00030602 -0.000133157 0.000311486)
(0.000294715 -3.52409e-06 -1.68234e-06 0.000287466 -0.000119416 0.000290423)
(0.000315785 -7.93416e-07 -1.57056e-06 0.000306747 -0.000135984 0.000312231)
(0.00029177 -3.65825e-06 -1.70225e-06 0.000284791 -0.000120218 0.000287675)
(0.000316273 -6.35384e-07 -1.46223e-06 0.000308258 -0.000137986 0.000312993)
(0.000288809 -3.59598e-06 -1.70781e-06 0.000282886 -0.000120746 0.000284903)
(0.000317465 -3.25535e-07 -1.36081e-06 0.000308845 -0.000139599 0.000314458)
(0.000286565 -3.36112e-06 -1.70482e-06 0.000280026 -0.000120891 0.000282846)
(0.000318596 1.71388e-07 -1.2913e-06 0.000309741 -0.00014072 0.000315847)
(0.000284301 -2.94109e-06 -1.69625e-06 0.000277494 -0.00012049 0.000280782)
(0.000319275 7.43591e-07 -1.24145e-06 0.000311446 -0.000141576 0.000316763)
(0.00028168 -2.44189e-06 -1.67105e-06 0.000275856 -0.000119833 0.00027838)
(0.00031955 1.21059e-06 -1.17955e-06 0.000313578 -0.000142957 0.000317269)
(0.000278828 -2.0142e-06 -1.61054e-06 0.000274781 -0.000119783 0.000275771)
(0.000319836 1.62584e-06 -1.12243e-06 0.000314938 -0.000144379 0.000317838)
(0.000276228 -1.57985e-06 -1.54381e-06 0.000273134 -0.000119932 0.000273482)
(0.000320309 2.26381e-06 -1.09845e-06 0.000314769 -0.000144618 0.000318649)
(0.000274104 -8.60921e-07 -1.50658e-06 0.000270234 -0.000119108 0.000271737)
(0.000320553 3.05743e-06 -1.07888e-06 0.000313571 -0.000144212 0.000319191)
(0.000272081 6.51948e-08 -1.47361e-06 0.000266641 -0.000117853 0.000270064)
(0.000319948 3.2105e-06 -1.03519e-06 0.000312273 -0.000144588 0.000318799)
(0.000269585 3.89883e-07 -1.41633e-06 0.000263321 -0.000117592 0.00026784)
(0.000318132 1.84093e-06 -9.52075e-07 0.000311299 -0.00014606 0.000317127)
(0.00026629 -7.8128e-07 -1.31615e-06 0.000260724 -0.000118651 0.000264759)
(0.000315159 -6.55649e-07 -7.99376e-07 0.000310134 -0.000146434 0.000314237)
(0.000262277 -3.06641e-06 -1.13872e-06 0.000258361 -0.000118838 0.000260917)
(0.000311275 -2.76988e-06 -6.44016e-07 0.000307638 -0.000145013 0.000310404)
(0.000257818 -4.97014e-06 -9.50408e-07 0.000255119 -0.000117443 0.00025661)
(0.000306449 -3.56177e-06 -5.66835e-07 0.000303177 -0.00014298 0.000305631)
(0.000252898 -5.56232e-06 -8.36706e-07 0.000250398 -0.000115662 0.00025185)
(0.000300384 -3.12247e-06 -5.44843e-07 0.000296923 -0.000140061 0.000299627)
(0.000247238 -4.93574e-06 -7.78141e-07 0.000244397 -0.000113373 0.000246353)
(0.00029285 -2.08226e-06 -5.41598e-07 0.000289231 -0.000136204 0.00029216)
(0.00024062 -3.71804e-06 -7.37528e-07 0.000237481 -0.000110573 0.00023989)
(0.000283763 -1.12522e-06 -5.28059e-07 0.000280274 -0.000131705 0.000283134)
(0.000232949 -2.58877e-06 -6.86272e-07 0.000229816 -0.000107384 0.00023236)
(0.000273123 -5.31223e-07 -4.97004e-07 0.000269971 -0.000126611 0.000272547)
(0.000224201 -1.82053e-06 -6.14831e-07 0.00022129 -0.000103609 0.000223734)
(0.000260934 -1.88068e-07 -4.56199e-07 0.00025816 -0.000120882 0.000260406)
(0.000214332 -1.29962e-06 -5.35667e-07 0.000211699 -9.916e-05 0.000213971)
(0.000247181 8.89686e-08 -4.12698e-07 0.000244743 -0.000114479 0.000246697)
(0.000203276 -8.45485e-07 -4.6404e-07 0.000200899 -9.40893e-05 0.000203004)
(0.000231852 3.77131e-07 -3.69234e-07 0.000229712 -0.000107373 0.000231411)
(0.00019097 -3.84756e-07 -4.00582e-07 0.000188829 -8.84005e-05 0.000190772)
(0.000214976 6.62642e-07 -3.26011e-07 0.000213116 -9.95626e-05 0.000214578)
(0.000177393 6.82398e-08 -3.42938e-07 0.000175486 -8.21241e-05 0.000177257)
(0.000196638 9.12663e-07 -2.82561e-07 0.000195046 -9.10757e-05 0.000196283)
(0.000162583 4.81315e-07 -2.89944e-07 0.000160908 -7.52739e-05 0.000162495)
(0.000176977 1.12081e-06 -2.38987e-07 0.000175644 -8.19722e-05 0.000176666)
(0.000146632 8.40788e-07 -2.41304e-07 0.000145195 -6.78818e-05 0.000146582)
(0.000156182 1.28086e-06 -1.96074e-07 0.0001551 -7.17491e-05 0.000155919)
(0.000129706 1.12823e-06 -1.97019e-07 0.000128512 -5.97105e-05 0.000129685)
(0.000134548 1.33256e-06 -1.53008e-07 0.00013371 -6.00568e-05 0.000134336)
(0.000112046 1.27381e-06 -1.53948e-07 0.0001111 -5.04246e-05 0.000112045)
(0.000112594 1.2362e-06 -1.12193e-07 0.000111979 -4.78349e-05 0.000112432)
(9.40593e-05 1.23619e-06 -1.1298e-07 9.33486e-05 -4.06136e-05 9.40711e-05)
(9.10861e-05 1.02e-06 -7.78418e-08 9.06593e-05 -3.61277e-05 9.09681e-05)
(7.63688e-05 1.04984e-06 -7.84292e-08 7.58623e-05 -3.11503e-05 7.63864e-05)
(7.09201e-05 7.44303e-07 -5.07691e-08 7.06448e-05 -2.55679e-05 7.0839e-05)
(5.97065e-05 7.83436e-07 -5.0934e-08 5.93691e-05 -2.24941e-05 5.97247e-05)
(5.29508e-05 4.84147e-07 -3.09415e-08 5.27871e-05 -1.67656e-05 5.28985e-05)
(4.47779e-05 5.19856e-07 -3.06036e-08 4.45693e-05 -1.51281e-05 4.47935e-05)
(3.78089e-05 2.85157e-07 -1.74828e-08 3.77193e-05 -1.00908e-05 3.77773e-05)
(3.2118e-05 3.11891e-07 -1.67979e-08 3.19982e-05 -9.38565e-06 3.21294e-05)
(2.57668e-05 1.54938e-07 -9.07404e-09 2.57219e-05 -5.53576e-06 2.5749e-05)
(2.19806e-05 1.72355e-07 -8.31413e-09 2.19172e-05 -5.32962e-06 2.19879e-05)
(1.67202e-05 7.93941e-08 -4.28573e-09 1.66997e-05 -2.75367e-06 1.67109e-05)
(1.43147e-05 8.96128e-08 -3.66653e-09 1.4284e-05 -2.75134e-06 1.43188e-05)
(1.02852e-05 3.90968e-08 -1.82156e-09 1.02769e-05 -1.23473e-06 1.02807e-05)
(8.83119e-06 4.46161e-08 -1.42224e-09 8.81768e-06 -1.28129e-06 8.83316e-06)
(5.94635e-06 1.85644e-08 -6.86383e-10 5.94338e-06 -4.93748e-07 5.94445e-06)
(5.11793e-06 2.13334e-08 -4.77463e-10 5.11265e-06 -5.31607e-07 5.11877e-06)
(3.18225e-06 8.35914e-09 -2.23979e-10 3.18135e-06 -1.72432e-07 3.18154e-06)
(2.74503e-06 9.63998e-09 -1.35556e-10 2.74325e-06 -1.92132e-07 2.74533e-06)
(1.53638e-06 3.43798e-09 -6.07316e-11 1.53616e-06 -5.06108e-08 1.53617e-06)
(1.32888e-06 3.96915e-09 -3.14202e-11 1.32839e-06 -5.81187e-08 1.32898e-06)
(6.4097e-07 1.209e-09 -1.26776e-11 6.40931e-07 -1.16727e-08 6.40919e-07)
(5.57061e-07 1.39515e-09 -5.64729e-12 5.56958e-07 -1.37332e-08 5.57083e-07)
(2.14912e-07 3.13415e-10 -1.75895e-12 2.1491e-07 -1.88844e-09 2.14905e-07)
(1.89905e-07 3.61064e-10 -7.42031e-13 1.89893e-07 -2.26983e-09 1.89909e-07)
(5.35474e-08 4.1539e-11 -1.18575e-13 5.35473e-08 -1.83017e-10 5.35469e-08)
(5.50965e-08 4.76003e-11 -7.45266e-14 5.50957e-08 -2.45196e-10 5.50971e-08)
(3.07553e-08 1.54406e-12 -2.73629e-15 3.07553e-08 -1.41748e-11 3.07553e-08)
(7.44215e-08 1.76408e-12 -1.19753e-14 7.44215e-08 -4.7797e-11 7.44216e-08)
(4.36208e-08 0 0 4.36208e-08 0 4.36208e-08)
(1.20557e-07 2.73027e-28 -1.85341e-30 1.20557e-07 -7.39754e-27 1.20557e-07)
(0.000187274 -4.08259e-06 1.92336e-06 0.000191488 -6.012e-05 0.000192625)
(0.000177653 -3.76506e-06 8.56593e-07 0.000183457 -5.4415e-05 0.000183272)
(0.000188756 -2.6073e-07 3.47927e-06 0.000205074 -5.68006e-05 0.000193639)
(0.000189495 6.0789e-06 4.06703e-06 0.000213063 -3.07361e-05 0.000194417)
(0.000196383 7.65765e-06 3.72397e-06 0.000210374 -1.76702e-05 0.000201736)
(0.000203827 4.84858e-06 3.43114e-06 0.000209521 -3.60258e-05 0.00020949)
(0.0002097 2.47615e-06 3.25275e-06 0.000215038 -5.39982e-05 0.000215525)
(0.00021578 1.44807e-06 3.11402e-06 0.000223518 -6.46728e-05 0.000221671)
(0.000223536 9.91656e-07 2.96902e-06 0.000231946 -7.20106e-05 0.000229446)
(0.000232845 5.76024e-07 2.81157e-06 0.00024051 -7.88609e-05 0.000238742)
(0.000242886 1.28083e-07 2.6413e-06 0.000250841 -8.5409e-05 0.00024874)
(0.000254186 -2.85168e-07 2.49089e-06 0.000261994 -9.12498e-05 0.000259966)
(0.000268887 -5.70305e-07 2.48288e-06 0.000270073 -9.88172e-05 0.000274571)
(0.000285178 -9.4932e-07 2.49669e-06 0.000279643 -0.000113333 0.0002905)
(0.000299177 -1.95253e-06 2.05117e-06 0.000298883 -0.000126788 0.000303413)
(0.000312187 -3.21166e-06 1.01751e-06 0.000322828 -0.000134178 0.000315123)
(0.000326596 -4.0363e-06 -1.84269e-07 0.000341054 -0.000145553 0.000328793)
(0.000342504 -3.53161e-06 -2.02981e-07 0.000342647 -0.000157389 0.000344868)
(0.000356433 -2.59987e-06 1.60269e-06 0.000334428 -0.000145518 0.000359694)
(0.000361048 -3.23009e-06 3.44331e-06 0.000340831 -0.000125049 0.000364586)
(0.000356735 -5.17643e-06 4.32737e-06 0.00035943 -0.000127828 0.000359754)
(0.000349713 -8.50603e-06 4.15926e-06 0.00037445 -0.00013301 0.000352333)
(0.000348593 -1.01114e-05 3.50701e-06 0.000373893 -0.000122828 0.000350989)
(0.000353832 -9.29433e-06 3.13794e-06 0.000361799 -0.00011991 0.000356006)
(0.000358085 -8.69699e-06 2.82199e-06 0.000353578 -0.000131143 0.000359992)
(0.000361343 -8.14635e-06 2.5674e-06 0.000349159 -0.000140899 0.000362934)
(0.000361921 -7.68649e-06 2.23207e-06 0.000352013 -0.000149562 0.000363122)
(0.000359599 -7.03673e-06 1.09131e-06 0.000362746 -0.000157831 0.000360181)
(0.000359583 -5.73981e-06 -3.29255e-07 0.000369594 -0.000162113 0.000359449)
(0.000362394 -4.78926e-06 -8.50779e-07 0.000367749 -0.000163156 0.000361809)
(0.000365407 -5.97605e-06 -6.87907e-07 0.000359025 -0.000162519 0.00036468)
(0.000365736 -9.88563e-06 -5.51546e-07 0.000350721 -0.000155121 0.000364901)
(0.00036089 -1.28492e-05 -6.68294e-07 0.000352433 -0.000138226 0.000359788)
(0.000355272 -1.25927e-05 -7.44729e-07 0.000357557 -0.000131534 0.000353829)
(0.0003533 -1.13123e-05 -7.76816e-07 0.000356884 -0.000140529 0.000351514)
(0.00035411 -1.01945e-05 -8.41148e-07 0.000351218 -0.000148912 0.000352005)
(0.000354313 -9.6373e-06 -9.75786e-07 0.000346813 -0.000153168 0.000351935)
(0.000351397 -9.41495e-06 -1.34194e-06 0.000348388 -0.000154486 0.000348841)
(0.000347481 -9.2249e-06 -1.87579e-06 0.000350998 -0.000154373 0.000344834)
(0.000345066 -8.88824e-06 -2.1741e-06 0.000348484 -0.000154405 0.000342304)
(0.000344128 -8.57387e-06 -1.97958e-06 0.000340219 -0.000153657 0.000341138)
(0.000342385 -8.71079e-06 -1.49762e-06 0.000331363 -0.00015166 0.000339045)
(0.000337223 -9.25076e-06 -1.32331e-06 0.000328165 -0.0001474 0.000333598)
(0.000330131 -9.47795e-06 -1.42065e-06 0.000328238 -0.000143373 0.000326365)
(0.000324308 -9.03821e-06 -1.43203e-06 0.000325279 -0.000142288 0.00032045)
(0.000319843 -8.24752e-06 -1.41e-06 0.000318814 -0.000141895 0.000315938)
(0.000315079 -7.45994e-06 -1.38281e-06 0.000311899 -0.000140755 0.000311165)
(0.000309235 -6.82661e-06 -1.34344e-06 0.000305965 -0.000138743 0.000305345)
(0.000302745 -6.29695e-06 -1.29359e-06 0.000300076 -0.000136305 0.000298911)
(0.000295938 -5.76747e-06 -1.23547e-06 0.000293508 -0.000133665 0.000292197)
(0.000288707 -5.20792e-06 -1.16777e-06 0.000286378 -0.000130809 0.000285096)
(0.000280957 -4.62526e-06 -1.09108e-06 0.00027876 -0.000127682 0.000277507)
(0.000272646 -4.02271e-06 -1.00805e-06 0.000270591 -0.000124291 0.000269381)
(0.000263707 -3.40201e-06 -9.20669e-07 0.000261807 -0.000120659 0.000260647)
(0.000254061 -2.76877e-06 -8.29635e-07 0.000252328 -0.000116748 0.000251225)
(0.000243619 -2.13192e-06 -7.31501e-07 0.000242057 -0.000112321 0.000241023)
(0.000232276 -1.507e-06 -6.3208e-07 0.000230887 -0.000107279 0.000229932)
(0.000219928 -9.14208e-07 -5.41254e-07 0.000218714 -0.000101676 0.000217843)
(0.000206485 -3.74969e-07 -4.58561e-07 0.000205445 -9.5504e-05 0.00020466)
(0.000191885 9.01874e-08 -3.82914e-07 0.000191011 -8.87793e-05 0.000190314)
(0.000176106 4.68076e-07 -3.14692e-07 0.000175389 -8.15013e-05 0.00017478)
(0.000159188 7.4613e-07 -2.53108e-07 0.000158616 -7.35208e-05 0.000158096)
(0.000141249 9.13052e-07 -1.98077e-07 0.000140813 -6.44042e-05 0.000140383)
(0.000122529 9.7149e-07 -1.4949e-07 0.000122214 -5.43071e-05 0.000121871)
(0.000103439 9.33568e-07 -1.07648e-07 0.000103224 -4.39307e-05 0.000102961)
(8.45698e-05 8.17365e-07 -7.38764e-08 8.44322e-05 -3.3801e-05 8.42413e-05)
(6.66366e-05 6.51932e-07 -4.78584e-08 6.65542e-05 -2.44778e-05 6.64244e-05)
(5.03722e-05 4.72231e-07 -2.89561e-08 5.03263e-05 -1.65123e-05 5.02449e-05)
(3.63846e-05 3.09688e-07 -1.61963e-08 3.63608e-05 -1.02779e-05 3.63146e-05)
(2.50248e-05 1.83676e-07 -8.29668e-09 2.50133e-05 -5.85529e-06 2.49899e-05)
(1.63278e-05 9.86618e-08 -3.85782e-09 1.63225e-05 -3.03258e-06 1.63123e-05)
(1.00521e-05 4.80965e-08 -1.61249e-09 1.00498e-05 -1.41824e-06 1.00461e-05)
(5.78667e-06 2.12552e-08 -5.97506e-10 5.78568e-06 -5.9313e-07 5.78469e-06)
(3.06734e-06 8.43442e-09 -1.91729e-10 3.06696e-06 -2.18118e-07 3.06681e-06)
(1.45969e-06 2.93454e-09 -5.11921e-11 1.45957e-06 -6.84694e-08 1.45959e-06)
(5.98804e-07 8.54325e-10 -1.06839e-11 5.98773e-07 -1.74354e-08 5.98791e-07)
(2.00207e-07 1.86137e-10 -1.6013e-12 2.00202e-07 -3.30705e-09 2.00206e-07)
(6.12553e-08 2.26123e-11 -1.66289e-13 6.1255e-08 -4.34812e-10 6.12554e-08)
(1.07607e-07 8.27034e-13 -2.13983e-14 1.07607e-07 -9.36668e-11 1.07607e-07)
(1.78697e-07 0 0 1.78697e-07 0 1.78697e-07)
(0.000174129 -3.00629e-06 2.22127e-06 0.000177926 -4.96305e-05 0.0001776)
(0.000169796 -2.70556e-06 1.0308e-06 0.000175433 -4.71253e-05 0.000173034)
(0.000170803 5.96713e-07 3.84455e-06 0.00018651 -4.54498e-05 0.000174238)
(0.000167265 6.58095e-06 4.43597e-06 0.000190393 -1.98539e-05 0.000170789)
(0.000170365 7.82136e-06 4.06115e-06 0.00018409 -7.02565e-06 0.000174178)
(0.000174372 4.72376e-06 3.72911e-06 0.000179968 -2.49948e-05 0.00017837)
(0.000177124 2.11956e-06 3.51681e-06 0.000182581 -4.20707e-05 0.000181207)
(0.000180034 9.13489e-07 3.33055e-06 0.000188061 -5.14037e-05 0.000184134)
(0.000184434 3.31301e-07 3.12379e-06 0.00019331 -5.70062e-05 0.000188513)
(0.000190252 -1.62193e-07 2.89905e-06 0.000198567 -6.17768e-05 0.000194284)
(0.000196529 -6.5264e-07 2.64629e-06 0.000205304 -6.59174e-05 0.000200495)
(0.000203925 -1.07592e-06 2.40234e-06 0.000212697 -6.9081e-05 0.000207805)
(0.000214656 -1.34437e-06 2.289e-06 0.000216945 -7.37375e-05 0.000218432)
(0.000227265 -1.66878e-06 2.19832e-06 0.000222978 -8.51917e-05 0.000230681)
(0.000237803 -2.59061e-06 1.65865e-06 0.000238808 -9.53579e-05 0.000240195)
(0.000247536 -3.721e-06 6.0441e-07 0.000259359 -9.9993e-05 0.000248841)
(0.000259133 -4.41557e-06 -6.23196e-07 0.00027458 -0.000109728 0.000260077)
(0.000274072 -3.8126e-06 -7.17935e-07 0.000275021 -0.000120824 0.000275588)
(0.000289475 -2.792e-06 1.04059e-06 0.00026803 -0.000109101 0.00029225)
(0.00029687 -3.37419e-06 2.85888e-06 0.000276773 -8.96611e-05 0.00030038)
(0.000296212 -5.31975e-06 3.80223e-06 0.000298483 -9.47013e-05 0.000299784)
(0.000293506 -8.72966e-06 3.77146e-06 0.000317451 -0.000103209 0.000297068)
(0.000297171 -1.05109e-05 3.24361e-06 0.000321633 -9.67117e-05 0.000300564)
(0.000307507 -9.91899e-06 2.94979e-06 0.000314743 -9.72976e-05 0.000310602)
(0.0003171 -9.55103e-06 2.68916e-06 0.000311901 -0.000111597 0.000319879)
(0.000325871 -9.28899e-06 2.49376e-06 0.00031297 -0.000124315 0.000328338)
(0.000332119 -9.34856e-06 2.24229e-06 0.000321346 -0.000136782 0.00033426)
(0.000335647 -9.47211e-06 1.33765e-06 0.000337531 -0.000149545 0.000337302)
(0.000341583 -8.94267e-06 3.65801e-07 0.0003499 -0.000157523 0.000342681)
(0.000350319 -8.48791e-06 2.29912e-07 0.000353855 -0.000161658 0.000351025)
(0.000359007 -9.54236e-06 4.88414e-07 0.000350915 -0.000164356 0.000359456)
(0.000364469 -1.24679e-05 4.50883e-07 0.000347702 -0.000160022 0.000364581)
(0.00036407 -1.38922e-05 -5.83444e-08 0.000353647 -0.00014541 0.000363649)
(0.000362265 -1.20415e-05 -5.60073e-07 0.00036254 -0.000139834 0.000361289)
(0.000363735 -9.59495e-06 -7.66552e-07 0.000365403 -0.000148722 0.000362329)
(0.000367913 -7.89241e-06 -8.16847e-07 0.000363079 -0.000157775 0.000366195)
(0.000371501 -7.07699e-06 -9.34111e-07 0.000361985 -0.00016432 0.00036955)
(0.000371982 -6.68613e-06 -1.27862e-06 0.000366942 -0.000168227 0.000369903)
(0.000371496 -6.36007e-06 -1.74409e-06 0.000372954 -0.00017014 0.000369391)
(0.00037253 -5.92764e-06 -1.92852e-06 0.000373856 -0.000171645 0.000370394)
(0.000375028 -5.53829e-06 -1.63558e-06 0.000369038 -0.000172365 0.000372751)
(0.00037668 -5.59831e-06 -1.09267e-06 0.000363611 -0.000171889 0.00037411)
(0.000374817 -6.06528e-06 -8.93711e-07 0.000363755 -0.000169143 0.000371981)
(0.000370852 -6.25316e-06 -9.8966e-07 0.000367035 -0.000166548 0.000367863)
(0.000367916 -5.83252e-06 -1.01065e-06 0.000367083 -0.000166735 0.000364805)
(0.000366049 -5.12279e-06 -1.00188e-06 0.000363349 -0.000167405 0.00036285)
(0.000363551 -4.46771e-06 -9.88085e-07 0.000358828 -0.000167114 0.000360292)
(0.000359598 -4.00599e-06 -9.62295e-07 0.000354917 -0.000165739 0.000356304)
(0.000354588 -3.67474e-06 -9.29516e-07 0.000350651 -0.000163714 0.00035128)
(0.000348819 -3.35671e-06 -8.96124e-07 0.000345281 -0.000161261 0.000345518)
(0.000342164 -3.00766e-06 -8.61379e-07 0.000338896 -0.000158379 0.00033889)
(0.000334508 -2.62472e-06 -8.21206e-07 0.000331539 -0.000155 0.000331288)
(0.000325791 -2.20944e-06 -7.74753e-07 0.000323118 -0.000150979 0.000322655)
(0.000315937 -1.76623e-06 -7.24739e-07 0.000313556 -0.00014629 0.000312917)
(0.000304875 -1.30521e-06 -6.71422e-07 0.000302786 -0.000141068 0.000302)
(0.00029254 -8.42616e-07 -6.13675e-07 0.000290738 -0.000135322 0.000289837)
(0.000278877 -3.95444e-07 -5.52613e-07 0.000277347 -0.000129001 0.000276368)
(0.000263833 2.02458e-08 -4.89912e-07 0.000262557 -0.000122065 0.000261536)
(0.000247368 3.86919e-07 -4.27213e-07 0.000246327 -0.000114477 0.000245299)
(0.000229467 6.84589e-07 -3.65987e-07 0.000228641 -0.000106218 0.000227634)
(0.000210162 8.99424e-07 -3.07309e-07 0.000209527 -9.73031e-05 0.000208568)
(0.000189534 1.02615e-06 -2.5079e-07 0.000189065 -8.76111e-05 0.00018818)
(0.000167726 1.06568e-06 -1.97132e-07 0.000167401 -7.64428e-05 0.000166617)
(0.000145031 1.03024e-06 -1.4855e-07 0.000144823 -6.39394e-05 0.000144162)
(0.000121973 9.33578e-07 -1.0686e-07 0.000121854 -5.1152e-05 0.000121322)
(9.92871e-05 7.87523e-07 -7.3289e-08 9.92292e-05 -3.87784e-05 9.8823e-05)
(7.78502e-05 6.12799e-07 -4.76934e-08 7.78298e-05 -2.75516e-05 7.75387e-05)
(5.8545e-05 4.36521e-07 -2.9294e-08 5.85441e-05 -1.81498e-05 5.83499e-05)
(4.20755e-05 2.82954e-07 -1.68812e-08 4.20819e-05 -1.0983e-05 4.19625e-05)
(2.88109e-05 1.66259e-07 -9.05658e-09 2.8818e-05 -6.06143e-06 2.8751e-05)
(1.87332e-05 8.84431e-08 -4.47702e-09 1.87383e-05 -3.03491e-06 1.87044e-05)
(1.15061e-05 4.25771e-08 -2.01181e-09 1.1509e-05 -1.37168e-06 1.14937e-05)
(6.61508e-06 1.84862e-08 -8.06426e-10 6.6164e-06 -5.55271e-07 6.61037e-06)
(3.50456e-06 7.15358e-09 -2.80153e-10 3.50506e-06 -1.98417e-07 3.50302e-06)
(1.66719e-06 2.40337e-09 -8.05036e-11 1.66734e-06 -6.09615e-08 1.66678e-06)
(6.82713e-07 6.68177e-10 -1.77142e-11 6.82747e-07 -1.53749e-08 6.82627e-07)
(2.25214e-07 1.38488e-10 -2.61822e-12 2.2522e-07 -2.92567e-09 2.25202e-07)
(5.97061e-08 1.6551e-11 -2.10337e-13 5.97065e-08 -3.72634e-10 5.97052e-08)
(6.39405e-08 6.0701e-13 -1.21593e-14 6.39406e-08 -6.00446e-11 6.39405e-08)
(1.0176e-07 0 0 1.0176e-07 0 1.0176e-07)
(0.00016014 -4.80049e-06 3.71597e-07 0.000170461 -2.91857e-05 0.000167427)
(0.000161288 -4.45859e-06 2.46056e-07 0.00017245 -1.90427e-05 0.000168501)
(0.000159352 -5.29038e-06 4.38316e-07 0.000170911 -3.66255e-05 0.000166576)
(0.000159386 -5.87225e-06 4.66386e-07 0.000172761 -4.15383e-05 0.000166331)
(0.000160811 -6.45148e-06 4.64604e-07 0.000174542 -4.54788e-05 0.000167382)
(0.000163274 -7.02162e-06 4.48612e-07 0.000176729 -4.92813e-05 0.000169469)
(0.000166505 -7.56611e-06 4.29568e-07 0.000179811 -5.30394e-05 0.000172337)
(0.000170168 -8.07835e-06 3.93253e-07 0.000183171 -5.67168e-05 0.000175647)
(0.000174041 -8.54968e-06 3.45464e-07 0.000186717 -6.02855e-05 0.000179168)
(0.00017808 -8.97655e-06 2.97497e-07 0.000190482 -6.36758e-05 0.000182843)
(0.00018207 -9.36581e-06 2.38791e-07 0.000194194 -6.68102e-05 0.000186464)
(0.000186049 -9.71407e-06 1.71886e-07 0.000197857 -6.97022e-05 0.000190068)
(0.000189985 -1.0019e-05 9.45162e-08 0.000201439 -7.2348e-05 0.000193625)
(0.000194116 -1.02594e-05 1.82085e-08 0.000205195 -7.48537e-05 0.000197363)
(0.00019823 -1.04416e-05 -5.98312e-08 0.000208924 -7.71169e-05 0.00020106)
(0.000202141 -1.05739e-05 -1.392e-07 0.000212444 -7.90305e-05 0.000204514)
(0.000205966 -1.06496e-05 -2.12271e-07 0.000215868 -8.06066e-05 0.000207851)
(0.000210907 -1.06466e-05 -2.3366e-07 0.00022036 -8.21683e-05 0.000212314)
(0.000217477 -1.05767e-05 -1.94481e-07 0.000226371 -8.40355e-05 0.000218487)
(0.000224613 -1.04929e-05 -1.55227e-07 0.000232785 -8.62769e-05 0.000225366)
(0.000232042 -1.04307e-05 -1.34482e-07 0.000239342 -8.91011e-05 0.000232644)
(0.000239688 -1.04405e-05 -1.36357e-07 0.000246087 -9.2431e-05 0.000240084)
(0.000247827 -1.05694e-05 -1.56703e-07 0.000252417 -9.59207e-05 0.000247905)
(0.000255643 -1.08951e-05 -1.88127e-07 0.000259857 -9.92269e-05 0.000255382)
(0.00026149 -9.86066e-06 -2.27416e-07 0.000271697 -0.000101294 0.000260923)
(0.00026739 -3.66733e-06 -2.85329e-07 0.000283835 -9.89757e-05 0.000266603)
(0.000278599 6.5209e-06 -3.766e-07 0.000285642 -9.18954e-05 0.000277846)
(0.000296514 8.91375e-06 -3.49603e-07 0.000274711 -9.07943e-05 0.000296131)
(0.000307804 -8.24058e-06 3.52403e-07 0.000278932 -0.000109416 0.000307846)
(0.000305413 -2.43044e-05 1.64573e-06 0.000311492 -0.000124717 0.00030516)
(0.000303619 -2.67808e-05 2.21867e-06 0.000336252 -0.000128955 0.000301926)
(0.000311428 -2.85682e-05 1.27994e-06 0.000328271 -0.000136033 0.000308484)
(0.000321654 -2.70053e-05 -5.69842e-07 0.000305588 -0.000138877 0.000318409)
(0.000324241 -1.6133e-05 -1.79148e-06 0.000295606 -0.000134852 0.000320722)
(0.000318505 -4.97132e-06 -1.81787e-06 0.000302924 -0.000129733 0.000314479)
(0.000312801 -1.45204e-06 -1.61203e-06 0.000311608 -0.000128777 0.000308558)
(0.000313093 -8.07387e-07 -1.60356e-06 0.000309932 -0.00013009 0.000309025)
(0.000315301 -7.95265e-07 -1.61902e-06 0.00030602 -0.000133157 0.000311486)
(0.000315785 -7.93416e-07 -1.57056e-06 0.000306747 -0.000135984 0.000312231)
(0.000316273 -6.35384e-07 -1.46223e-06 0.000308258 -0.000137986 0.000312993)
(0.000317465 -3.25535e-07 -1.36081e-06 0.000308845 -0.000139599 0.000314458)
(0.000318596 1.71388e-07 -1.2913e-06 0.000309741 -0.00014072 0.000315847)
(0.000319275 7.43591e-07 -1.24145e-06 0.000311446 -0.000141576 0.000316763)
(0.00031955 1.21059e-06 -1.17955e-06 0.000313578 -0.000142957 0.000317269)
(0.000319836 1.62584e-06 -1.12243e-06 0.000314938 -0.000144379 0.000317838)
(0.000320309 2.26381e-06 -1.09845e-06 0.000314769 -0.000144618 0.000318649)
(0.000320553 3.05743e-06 -1.07888e-06 0.000313571 -0.000144212 0.000319191)
(0.000319948 3.2105e-06 -1.03519e-06 0.000312273 -0.000144588 0.000318799)
(0.000318132 1.84093e-06 -9.52075e-07 0.000311299 -0.00014606 0.000317127)
(0.000315159 -6.55649e-07 -7.99376e-07 0.000310134 -0.000146434 0.000314237)
(0.000311275 -2.76988e-06 -6.44016e-07 0.000307638 -0.000145013 0.000310404)
(0.000306449 -3.56177e-06 -5.66835e-07 0.000303177 -0.00014298 0.000305631)
(0.000300384 -3.12247e-06 -5.44843e-07 0.000296923 -0.000140061 0.000299627)
(0.00029285 -2.08226e-06 -5.41598e-07 0.000289231 -0.000136204 0.00029216)
(0.000283763 -1.12522e-06 -5.28059e-07 0.000280274 -0.000131705 0.000283134)
(0.000273123 -5.31223e-07 -4.97004e-07 0.000269971 -0.000126611 0.000272547)
(0.000260934 -1.88068e-07 -4.56199e-07 0.00025816 -0.000120882 0.000260406)
(0.000247181 8.89686e-08 -4.12698e-07 0.000244743 -0.000114479 0.000246697)
(0.000231852 3.77131e-07 -3.69234e-07 0.000229712 -0.000107373 0.000231411)
(0.000214976 6.62642e-07 -3.26011e-07 0.000213116 -9.95626e-05 0.000214578)
(0.000196638 9.12663e-07 -2.82561e-07 0.000195046 -9.10757e-05 0.000196283)
(0.000176977 1.12081e-06 -2.38987e-07 0.000175644 -8.19722e-05 0.000176666)
(0.000156182 1.28086e-06 -1.96074e-07 0.0001551 -7.17491e-05 0.000155919)
(0.000134548 1.33256e-06 -1.53008e-07 0.00013371 -6.00568e-05 0.000134336)
(0.000112594 1.2362e-06 -1.12193e-07 0.000111979 -4.78349e-05 0.000112432)
(9.10861e-05 1.02e-06 -7.78418e-08 9.06593e-05 -3.61277e-05 9.09681e-05)
(7.09201e-05 7.44303e-07 -5.07691e-08 7.06448e-05 -2.55679e-05 7.0839e-05)
(5.29508e-05 4.84147e-07 -3.09415e-08 5.27871e-05 -1.67656e-05 5.28985e-05)
(3.78089e-05 2.85157e-07 -1.74828e-08 3.77193e-05 -1.00908e-05 3.77773e-05)
(2.57668e-05 1.54938e-07 -9.07404e-09 2.57219e-05 -5.53576e-06 2.5749e-05)
(1.67202e-05 7.93941e-08 -4.28573e-09 1.66997e-05 -2.75367e-06 1.67109e-05)
(1.02852e-05 3.90968e-08 -1.82156e-09 1.02769e-05 -1.23473e-06 1.02807e-05)
(5.94635e-06 1.85644e-08 -6.86383e-10 5.94338e-06 -4.93748e-07 5.94445e-06)
(3.18225e-06 8.35914e-09 -2.23979e-10 3.18135e-06 -1.72432e-07 3.18154e-06)
(1.53638e-06 3.43798e-09 -6.07316e-11 1.53616e-06 -5.06108e-08 1.53617e-06)
(6.4097e-07 1.209e-09 -1.26776e-11 6.40931e-07 -1.16727e-08 6.40919e-07)
(2.14912e-07 3.13415e-10 -1.75895e-12 2.1491e-07 -1.88844e-09 2.14905e-07)