
400
(
0.00809467
0.008019
0.00859858
0.00845883
0.00794355
0.0087159
0.00787377
0.00881165
0.00781404
0.00889
0.00776842
0.00895431
0.007741
0.00900589
0.00771364
0.00904728
0.00768263
0.00908175
0.00765077
0.00910959
0.00760755
0.00912919
0.00755592
0.009139
0.00749524
0.00913752
0.00743532
0.00912331
0.00736762
0.00908889
0.00728447
0.00899752
0.00719095
0.00885924
0.00712447
0.00874083
0.00709755
0.00865876
0.00707203
0.00859515
0.00703817
0.00852424
0.00699261
0.00843083
0.00693385
0.00830897
0.00686149
0.0081548
0.00677606
0.00798114
0.00668351
0.00780133
0.00659193
0.00762361
0.00643524
0.00744481
0.00589245
0.006992
0.00502125
0.00621047
0.00452302
0.00569263
0.00440084
0.00544667
0.00463462
0.00547416
0.00512476
0.00573516
0.00541477
0.00588958
0.00547239
0.00589106
0.00535018
0.00571598
0.00518161
0.00549692
0.00498637
0.00527128
0.00476372
0.00504079
0.00453707
0.00480747
0.00431577
0.00457327
0.00410281
0.0043391
0.00389708
0.00410474
0.00367525
0.00384934
0.00343238
0.00357076
0.00320779
0.00331036
0.00301984
0.00308766
0.0028457
0.0028804
0.00264576
0.00264934
0.00244088
0.00241591
0.00226769
0.00221807
0.00210768
0.00203982
0.00194613
0.00186516
0.00178338
0.00168989
0.00162264
0.00151415
0.00146695
0.00134315
0.00131748
0.00118216
0.00117391
0.00103231
0.00103569
0.000893583
0.000902624
0.000765113
0.000774671
0.000646405
0.000646809
0.000534257
0.000516876
0.000424846
0.000394219
0.000322859
0.000286945
0.000234757
0.000197786
0.000162093
0.000128129
0.000105474
7.748e-05
6.42116e-05
4.34759e-05
3.63284e-05
2.25043e-05
1.8969e-05
1.06612e-05
9.06097e-06
4.56278e-06
3.90635e-06
1.72566e-06
1.48682e-06
5.55947e-07
4.81865e-07
1.43543e-07
1.25308e-07
2.6793e-08
2.37536e-08
3.06185e-09
2.97722e-09
2.6691e-10
5.21992e-10
0
8.07886e-26
0.00601288
0.00613025
0.00712159
0.00817343
0.00828045
0.00836459
0.00842846
0.0084695
0.00848824
0.00848691
0.00846833
0.00843614
0.00839454
0.00816157
0.00740355
0.00653886
0.0061994
0.00624162
0.00657477
0.00682481
0.00701422
0.00779613
0.00837751
0.00836799
0.00831964
0.00824329
0.00810237
0.00760167
0.00668771
0.00594913
0.00596518
0.00672047
0.00714712
0.00697846
0.00680232
0.00661494
0.00639532
0.0060508
0.00561582
0.0052674
0.00508333
0.00504817
0.00498147
0.004799
0.00457985
0.00434224
0.00410072
0.00385901
0.00361794
0.00337717
0.00313699
0.00289762
0.00265985
0.00242458
0.00219258
0.00196311
0.00173905
0.00152517
0.00132399
0.00113717
0.000964916
0.000805325
0.000653759
0.000512059
0.000386504
0.000279539
0.000192231
0.00012465
7.55722e-05
4.24777e-05
2.19419e-05
1.03094e-05
4.34461e-06
1.60774e-06
5.05124e-07
1.27527e-07
2.37048e-08
3.07775e-09
7.08035e-10
0
0.0054333
0.0057661
0.00634924
0.00723554
0.00720449
0.0071787
0.00716358
0.00713587
0.00708912
0.00702809
0.00694669
0.00685306
0.00675226
0.00647358
0.00568228
0.00482581
0.00453111
0.00462525
0.00501356
0.00530169
0.00552815
0.00635791
0.00700239
0.00707467
0.00711456
0.00712547
0.0070707
0.0065921
0.00558816
0.00475992
0.00479556
0.00567463
0.00630758
0.00636806
0.0063275
0.00619627
0.00602952
0.00573549
0.00533091
0.00499033
0.00481292
0.00479068
0.00474518
0.00459134
0.00440576
0.00420385
0.00399815
0.00379119
0.00358324
0.0033736
0.00316196
0.00294724
0.0027277
0.00250555
0.00228607
0.0020716
0.00186284
0.0016605
0.00146559
0.00127928
0.00110243
0.000933592
0.000766312
0.000604089
0.000457863
0.000331727
0.000227924
0.000147305
8.88406e-05
4.96252e-05
2.54772e-05
1.19097e-05
5.00104e-06
1.84658e-06
5.79207e-07
1.45763e-07
2.67442e-08
3.16238e-09
4.52953e-10
0
0.008019
0.00809467
0.00794355
0.00787377
0.00781404
0.00776842
0.007741
0.00771364
0.00768263
0.00765077
0.00760755
0.00755592
0.00749524
0.00743532
0.00736762
0.00728447
0.00719095
0.00712447
0.00709755
0.00707203
0.00703817
0.00699261
0.00693385
0.00686149
0.00677606
0.00668351
0.00659193
0.00643524
0.00589245
0.00502125
0.00452302
0.00440084
0.00463462
0.00512476
0.00541477
0.00547239
0.00535018
0.00518161
0.00498637
0.00476372
0.00453707
0.00431577
0.00410281
0.00389708
0.00367525
0.00343238
0.00320779
0.00301984
0.0028457
0.00264576
0.00244088
0.00226769
0.00210768
0.00194613
0.00178338
0.00162264
0.00146695
0.00131748
0.00117391
0.00103569
0.000902624
0.000774671
0.000646809
0.000516876
0.000394219
0.000286945
0.000197786
0.000128129
7.748e-05
4.34759e-05
2.25043e-05
1.06612e-05
4.56278e-06
1.72566e-06
5.55947e-07
1.43543e-07
2.6793e-08
3.06185e-09
2.6691e-10
0
)
