-0.0075 	373
-0.00715932 	361.144
-0.00676191 	359.295
-0.00629832 	358.553
-0.00575752 	358.095
-0.00512667 	357.733
-0.00439077 	357.408
-0.00353231 	357.093
-0.00253089 	356.768
-0.00136271 	356.418
0 	356.031
0.00136271 	355.607
0.00253089 	355.162
0.00353231 	354.704
0.00439077 	354.219
0.00512667 	353.667
0.00575752 	352.968
0.00629832 	351.933
0.00676191 	349.706
0.00715932 	338.456
0.0075 	313
