-0.0075 	373
-0.00715932 	352.473
-0.00676191 	348.929
-0.00629832 	347.58
-0.00575752 	346.786
-0.00512667 	346.184
-0.00439077 	345.671
-0.00353231 	345.21
-0.00253089 	344.779
-0.00136271 	344.357
0 	343.928
0.00136271 	343.498
0.00253089 	343.085
0.00353231 	342.693
0.00439077 	342.3
0.00512667 	341.87
0.00575752 	341.335
0.00629832 	340.532
0.00676191 	338.743
0.00715932 	330.349
0.0075 	313
