-0.0075 	0 	0 	0
-0.00715932 	-0.000179836 	-3.38473e-05 	0.13902
-0.00676191 	-0.000290694 	-0.000101512 	0.220205
-0.00629832 	-0.000318704 	-0.000187017 	0.269479
-0.00575752 	-0.000299891 	-0.000274795 	0.3024
-0.00512667 	-0.000265426 	-0.000355631 	0.327034
-0.00439077 	-0.000231985 	-0.000423108 	0.346423
-0.00353231 	-0.000205508 	-0.000477872 	0.361553
-0.00253089 	-0.0001846 	-0.000523167 	0.372539
-0.00136271 	-0.000165617 	-0.000557951 	0.379146
0 	-0.000147542 	-0.000576525 	0.38083
0.00136271 	-0.000132671 	-0.000572913 	0.37709
0.00253089 	-0.000123945 	-0.000546329 	0.368221
0.00353231 	-0.000124314 	-0.000500962 	0.354875
0.00439077 	-0.000137056 	-0.000435014 	0.337056
0.00512667 	-0.000163552 	-0.000341858 	0.313595
0.00575752 	-0.000198332 	-0.000223642 	0.281697
0.00629832 	-0.000222057 	-0.000100301 	0.236227
0.00676191 	-0.000195605 	-1.21379e-05 	0.16556
0.00715932 	-0.000101357 	1.10266e-05 	0.0735348
0.0075 	0 	0 	0
