
400
(
(-2.05152e-19 8.56318e-22 -1.10244e-18)
(-0.00265106 1.10657e-05 -0.0142462)
(-0.0026802 1.57049e-05 -0.0100562)
(0 0 0)
(-0.00337959 -2.72276e-05 -0.0282073)
(-0.00332734 -2.11974e-05 -0.0218871)
(-0.00304731 -0.000115576 -0.0414783)
(-0.0028563 -0.000111446 -0.03387)
(-0.00271285 -2.20182e-05 -0.0540142)
(-0.00239284 -2.37914e-05 -0.0451793)
(-0.0025506 -0.000118133 -0.0658766)
(-0.00212418 -0.000127161 -0.055849)
(-0.00241455 -0.00010856 -0.0771187)
(-0.00189574 -0.000126102 -0.0660581)
(-0.00225026 -0.000131537 -0.0877795)
(-0.00164961 -0.00015839 -0.0758677)
(-0.00204073 -0.000153424 -0.0978716)
(-0.00136714 -0.000190148 -0.0852784)
(-0.00178572 -0.000176779 -0.107392)
(-0.00104701 -0.000223844 -0.0942664)
(-0.00149365 -0.0001996 -0.116336)
(-0.000696568 -0.000257397 -0.102804)
(-0.00117894 -0.000221381 -0.124704)
(-0.000329135 -0.000290168 -0.110875)
(-0.000859935 -0.000241824 -0.132515)
(3.80979e-05 -0.000321758 -0.118476)
(-0.000552792 -0.000261571 -0.139794)
(0.000390046 -0.000352664 -0.125619)
(-0.00026746 -0.000280899 -0.146582)
(0.000717896 -0.000382812 -0.132325)
(-8.26e-06 -0.000299361 -0.152919)
(0.00101873 -0.000411624 -0.138625)
(0.000224193 -0.00031646 -0.158838)
(0.00129331 -0.000438633 -0.14455)
(0.000429663 -0.000332354 -0.164367)
(0.00154245 -0.000463875 -0.150132)
(0.000607027 -0.000347478 -0.169534)
(0.00176583 -0.000487643 -0.155399)
(0.000755618 -0.000362052 -0.174366)
(0.00196329 -0.000510006 -0.160377)
(0.000875739 -0.000376243 -0.178891)
(0.00213528 -0.000531143 -0.165091)
(0.000968437 -0.000390205 -0.183135)
(0.00228282 -0.000551306 -0.169568)
(0.00103539 -0.000404015 -0.187125)
(0.00240751 -0.000570589 -0.173835)
(0.00107879 -0.00041769 -0.190882)
(0.00251136 -0.000588517 -0.177917)
(0.00110103 -0.000431235 -0.19443)
(0.00259623 -0.000604449 -0.181822)
(0.0011045 -0.000444651 -0.197789)
(0.00266333 -0.000618865 -0.185536)
(0.00109115 -0.000457898 -0.200975)
(0.00271317 -0.000632616 -0.189051)
(0.00106239 -0.000471022 -0.204005)
(0.00274606 -0.000645909 -0.19238)
(0.00101917 -0.000484266 -0.206893)
(0.00276248 -0.000658452 -0.195549)
(0.000962461 -0.000498144 -0.209654)
(0.00276301 -0.000670214 -0.198585)
(0.000894023 -0.000513245 -0.212301)
(0.0027487 -0.000681088 -0.201505)
(0.000816834 -0.000529635 -0.214849)
(0.00272121 -0.000690837 -0.204303)
(0.000734651 -0.000546731 -0.217308)
(0.00268242 -0.000701166 -0.206967)
(0.000650991 -0.00056398 -0.219685)
(0.00263439 -0.000714595 -0.209517)
(0.000568338 -0.000581288 -0.221987)
(0.00258032 -0.000731176 -0.212043)
(0.000488081 -0.00059882 -0.224217)
(0.00252458 -0.000744726 -0.214656)
(0.000411038 -0.000616701 -0.22638)
(0.00246915 -0.000749441 -0.217361)
(0.000337954 -0.000634899 -0.228478)
(0.00241081 -0.000750853 -0.220007)
(0.000269685 -0.000653324 -0.230515)
(0.00234491 -0.000756647 -0.222466)
(0.00020716 -0.000671907 -0.232494)
(0.00227054 -0.000767305 -0.224739)
(0.000151386 -0.000690618 -0.23442)
(0.0021903 -0.0007776 -0.226889)
(0.000103496 -0.000709604 -0.236296)
(0.00210649 -0.000782615 -0.228971)
(6.48605e-05 -0.000729067 -0.238125)
(0.00201864 -0.000784599 -0.230985)
(3.69079e-05 -0.000748992 -0.239908)
(0.00192491 -0.000789046 -0.232913)
(2.01868e-05 -0.000765988 -0.241648)
(0.00182639 -0.000796357 -0.234796)
(1.42553e-05 -0.000774029 -0.243351)
(0.0017314 -0.000795401 -0.23676)
(1.95604e-05 -0.000808074 -0.24502)
(0.00165078 -0.000808195 -0.238897)
(3.6334e-05 -0.000921086 -0.246646)
(0.00158521 -0.000890567 -0.241057)
(5.78904e-05 -0.00105673 -0.248183)
(0.0015219 -0.00100171 -0.242977)
(7.0398e-05 -0.00105033 -0.249589)
(0.00144558 -0.00097992 -0.244562)
(6.35229e-05 -0.000841182 -0.250932)
(0.00134963 -0.000756746 -0.245949)
(2.97199e-05 -0.000606811 -0.252511)
(0.00122911 -0.000504218 -0.247507)
(-3.4517e-05 -0.000659351 -0.254552)
(0.00108019 -0.000535822 -0.249498)
(-0.000113376 -0.000992848 -0.256781)
(0.000917067 -0.000851066 -0.251655)
(-0.00018465 -0.00123223 -0.25877)
(0.000759071 -0.00107568 -0.253549)
(-0.000240149 -0.00125216 -0.260424)
(0.000612606 -0.00108026 -0.255076)
(-0.000284008 -0.00117753 -0.261829)
(0.000476546 -0.000990376 -0.256351)
(-0.000322235 -0.00112342 -0.263055)
(0.000349154 -0.000923393 -0.257499)
(-0.000353239 -0.00114775 -0.264159)
(0.000231157 -0.000933544 -0.258583)
(-0.000374188 -0.00118647 -0.265191)
(0.000122192 -0.000953344 -0.259604)
(-0.000388385 -0.00120903 -0.266158)
(1.72323e-05 -0.000955782 -0.260534)
(-0.000400417 -0.00123958 -0.267049)
(-8.86122e-05 -0.000971464 -0.261384)
(-0.000411508 -0.00127427 -0.267865)
(-0.00019124 -0.000994825 -0.262287)
(-0.000420554 -0.00130977 -0.26861)
(-0.000279561 -0.00101138 -0.263426)
(-0.000426668 -0.00134612 -0.269284)
(-0.000350735 -0.00101708 -0.264788)
(-0.00043003 -0.00138209 -0.269885)
(-0.000416456 -0.00101906 -0.266101)
(-0.000430852 -0.00141521 -0.270408)
(-0.000488709 -0.00102609 -0.267146)
(-0.000428592 -0.00144555 -0.270853)
(-0.00056723 -0.00103757 -0.267942)
(-0.000421369 -0.0014841 -0.271223)
(-0.000644235 -0.00105499 -0.268614)
(-0.000404819 -0.00153296 -0.271523)
(-0.000712098 -0.00107864 -0.269254)
(-0.00039216 -0.00152185 -0.271711)
(-0.000782996 -0.00104152 -0.269849)
(-0.000424369 -0.00143827 -0.271604)
(-0.000894558 -0.00093253 -0.270217)
(-0.000519744 -0.00154721 -0.270939)
(-0.00105835 -0.00101434 -0.270091)
(-0.000654081 -0.00194221 -0.269741)
(-0.00124623 -0.00137492 -0.269461)
(-0.00074643 -0.00200642 -0.26892)
(-0.00138189 -0.00140179 -0.269154)
(-0.00075462 -0.00170436 -0.268934)
(-0.00142631 -0.00106309 -0.269548)
(-0.000728728 -0.00164308 -0.269155)
(-0.00142637 -0.000960266 -0.269987)
(-0.000711474 -0.00178981 -0.269213)
(-0.00142178 -0.00106426 -0.270099)
(-0.000711057 -0.00190498 -0.269141)
(-0.00141884 -0.00112546 -0.269938)
(-0.000721486 -0.00196355 -0.269058)
(-0.00140999 -0.00112418 -0.269665)
(-0.00057248 3.03954e-06 -0.00888381)
(0 0 0)
(-0.000568855 6.68545e-06 -0.0179112)
(-0.000290377 1.03183e-05 -0.0272557)
(-4.44314e-05 1.36389e-05 -0.0367909)
(0.000128868 1.84138e-05 -0.046321)
(0.000276169 2.40636e-05 -0.0557374)
(0.000414341 3.07706e-05 -0.0649676)
(0.000548589 3.85595e-05 -0.0739467)
(0.000679593 4.72877e-05 -0.0826177)
(0.000805446 5.6887e-05 -0.0909356)
(0.00092253 6.7476e-05 -0.0988731)
(0.0010279 7.89597e-05 -0.106428)
(0.00112073 9.14205e-05 -0.113616)
(0.0012022 0.0001049 -0.120449)
(0.0012742 0.000119266 -0.126936)
(0.00133756 0.000134552 -0.133096)
(0.0013923 0.000150718 -0.138949)
(0.00143858 0.000167778 -0.144512)
(0.0014766 0.000185783 -0.149803)
(0.00150654 0.000204569 -0.15484)
(0.00152864 0.00022393 -0.159641)
(0.00154327 0.00024375 -0.164231)
(0.00155076 0.000264445 -0.16863)
(0.0015511 0.000286598 -0.17284)
(0.00154358 0.000309708 -0.176846)
(0.00152739 0.000332848 -0.180636)
(0.00150279 0.000355594 -0.184218)
(0.00147217 0.000377986 -0.18761)
(0.00143948 0.000400742 -0.190833)
(0.00140829 0.000425338 -0.193896)
(0.00137899 0.000452258 -0.196791)
(0.00134726 0.000480494 -0.199512)
(0.00130654 0.000505186 -0.202092)
(0.00125296 0.000519326 -0.204636)
(0.00118712 0.000532433 -0.207283)
(0.0011107 0.000564741 -0.210076)
(0.00102308 0.000615631 -0.212894)
(0.000924424 0.000659421 -0.215553)
(0.000819757 0.000670792 -0.217943)
(0.000713584 0.000667877 -0.220091)
(0.000578759 0.000689549 -0.222143)
(0.000353691 0.000726238 -0.224253)
(4.47289e-06 0.000737178 -0.226528)
(-0.000419974 0.000719471 -0.228955)
(-0.000757352 0.000728324 -0.231302)
(-0.000912309 0.000780043 -0.233465)
(-0.000980369 0.000824141 -0.235519)
(-0.00107169 0.000835612 -0.237439)
(-0.00120676 0.000832176 -0.239195)
(-0.0013563 0.000835509 -0.240815)
(-0.00150055 0.000846728 -0.24235)
(-0.00163746 0.000858125 -0.243829)
(-0.00176789 0.00086626 -0.245265)
(-0.00189252 0.000871038 -0.246668)
(-0.00201198 0.000873693 -0.248037)
(-0.00212638 0.000880176 -0.249364)
(-0.00223538 0.000882306 -0.250638)
(-0.00234048 0.000861279 -0.25187)
(-0.00244602 0.000851302 -0.253119)
(-0.00255374 0.000893937 -0.254451)
(-0.00266148 0.000945745 -0.255822)
(-0.00276244 0.000921276 -0.257072)
(-0.00284516 0.000850856 -0.25829)
(-0.00290865 0.000833346 -0.259677)
(-0.00296768 0.000860582 -0.261072)
(-0.00303492 0.000870744 -0.262228)
(-0.00310981 0.000854444 -0.263131)
(-0.00318643 0.000836206 -0.263897)
(-0.00326209 0.00082106 -0.264616)
(-0.0033364 0.000804013 -0.265323)
(-0.00340728 0.00078385 -0.266021)
(-0.00346999 0.000761471 -0.266706)
(-0.00352075 0.000739481 -0.267354)
(-0.00356036 0.000712786 -0.267914)
(-0.00358883 0.00068312 -0.268334)
(-0.00360781 0.000665893 -0.268619)
(-0.0036258 0.000655353 -0.26886)
(-0.00363648 0.000612046 -0.269068)
(-0.00359701 0.000515244 -0.268879)
(-0.000543344 -1.59967e-06 -0.0130739)
(0 0 0)
(-0.000621104 6.55294e-07 -0.0242314)
(-0.000481387 6.18812e-06 -0.0348641)
(-0.000364446 1.54122e-05 -0.0456258)
(-0.000297556 2.74414e-05 -0.0563485)
(-0.000242643 4.16064e-05 -0.066798)
(-0.00018631 5.76228e-05 -0.0768794)
(-0.000124998 7.52831e-05 -0.0865399)
(-5.91209e-05 9.43529e-05 -0.0957436)
(8.3685e-06 0.000114684 -0.104467)
(7.27269e-05 0.000136263 -0.112702)
(0.000129867 0.000158893 -0.120467)
(0.000177895 0.000182514 -0.127792)
(0.000216848 0.000206812 -0.134705)
(0.00024721 0.000231529 -0.14123)
(0.00026844 0.000256724 -0.147384)
(0.000279516 0.000282239 -0.153184)
(0.000279775 0.000307944 -0.158647)
(0.000268928 0.000333737 -0.163792)
(0.000247001 0.000359469 -0.168639)
(0.00021426 0.000385031 -0.173209)
(0.000171149 0.000410325 -0.177521)
(0.000118193 0.000435272 -0.181595)
(5.58988e-05 0.000459812 -0.185448)
(-1.5255e-05 0.000483923 -0.189099)
(-9.46325e-05 0.000507565 -0.19256)
(-0.000180874 0.000530481 -0.195843)
(-0.000271136 0.000552172 -0.198955)
(-0.000361077 0.000572813 -0.201902)
(-0.000446389 0.000593181 -0.204692)
(-0.000525381 0.00061346 -0.207337)
(-0.000600507 0.000634929 -0.209853)
(-0.000676853 0.000655801 -0.212259)
(-0.000759027 0.000669214 -0.214579)
(-0.000849377 0.000678339 -0.216843)
(-0.000947416 0.000697481 -0.219096)
(-0.00104977 0.000731585 -0.221365)
(-0.0011508 0.000762745 -0.223601)
(-0.00124362 0.000766191 -0.225698)
(-0.00132532 0.000754859 -0.227622)
(-0.00142423 0.00076256 -0.229468)
(-0.00160009 0.00078177 -0.231393)
(-0.00188352 0.000777232 -0.233523)
(-0.00222617 0.000749841 -0.235807)
(-0.0024745 0.000749696 -0.237893)
(-0.00254353 0.000780163 -0.239588)
(-0.00252925 0.000793622 -0.241107)
(-0.0025357 0.000780597 -0.242645)
(-0.00258194 0.000761769 -0.244223)
(-0.0026424 0.000751073 -0.245799)
(-0.00269994 0.000744134 -0.247353)
(-0.00275217 0.000734597 -0.248883)
(-0.00279833 0.000724478 -0.25039)
(-0.00283625 0.000714487 -0.251889)
(-0.00286474 0.000701796 -0.253385)
(-0.00288693 0.000693024 -0.254842)
(-0.00290677 0.000682281 -0.256194)
(-0.00292487 0.000647068 -0.257446)
(-0.0029424 0.000618173 -0.258705)
(-0.00295936 0.000640691 -0.260075)
(-0.00297328 0.000677632 -0.261487)
(-0.00298271 0.000641834 -0.26265)
(-0.00298615 0.000552467 -0.263474)
(-0.00298458 0.000504307 -0.264173)
(-0.00298126 0.000497555 -0.264855)
(-0.00297706 0.000481626 -0.26549)
(-0.00297118 0.000446466 -0.266042)
(-0.00296356 0.000407102 -0.266506)
(-0.00295481 0.000366743 -0.266885)
(-0.00294557 0.000323682 -0.267185)
(-0.0029371 0.000278107 -0.267407)
(-0.00293139 0.00022861 -0.267554)
(-0.0029286 0.000172196 -0.267634)
(-0.0029249 0.00010815 -0.267679)
(-0.00291714 4.18495e-05 -0.26772)
(-0.00291017 -1.69226e-05 -0.267788)
(-0.00291549 -7.01953e-05 -0.267973)
(-0.00292869 -0.000167472 -0.268271)
(-0.00290851 -0.000324125 -0.268272)
(-0.00265106 1.10657e-05 -0.0142462)
(0 0 0)
(-0.00337959 -2.72276e-05 -0.0282073)
(-0.00304731 -0.000115576 -0.0414783)
(-0.00271285 -2.20182e-05 -0.0540142)
(-0.0025506 -0.000118133 -0.0658766)
(-0.00241455 -0.00010856 -0.0771187)
(-0.00225026 -0.000131537 -0.0877795)
(-0.00204073 -0.000153424 -0.0978716)
(-0.00178572 -0.000176779 -0.107392)
(-0.00149365 -0.0001996 -0.116336)
(-0.00117894 -0.000221381 -0.124704)
(-0.000859935 -0.000241824 -0.132515)
(-0.000552792 -0.000261571 -0.139794)
(-0.00026746 -0.000280899 -0.146582)
(-8.26e-06 -0.000299361 -0.152919)
(0.000224193 -0.00031646 -0.158838)
(0.000429663 -0.000332354 -0.164367)
(0.000607027 -0.000347478 -0.169534)
(0.000755618 -0.000362052 -0.174366)
(0.000875739 -0.000376243 -0.178891)
(0.000968437 -0.000390205 -0.183135)
(0.00103539 -0.000404015 -0.187125)
(0.00107879 -0.00041769 -0.190882)
(0.00110103 -0.000431235 -0.19443)
(0.0011045 -0.000444651 -0.197789)
(0.00109115 -0.000457898 -0.200975)
(0.00106239 -0.000471022 -0.204005)
(0.00101917 -0.000484266 -0.206893)
(0.000962461 -0.000498144 -0.209654)
(0.000894023 -0.000513245 -0.212301)
(0.000816834 -0.000529635 -0.214849)
(0.000734651 -0.000546731 -0.217308)
(0.000650991 -0.00056398 -0.219685)
(0.000568338 -0.000581288 -0.221987)
(0.000488081 -0.00059882 -0.224217)
(0.000411038 -0.000616701 -0.22638)
(0.000337954 -0.000634899 -0.228478)
(0.000269685 -0.000653324 -0.230515)
(0.00020716 -0.000671907 -0.232494)
(0.000151386 -0.000690618 -0.23442)
(0.000103496 -0.000709604 -0.236296)
(6.48605e-05 -0.000729067 -0.238125)
(3.69079e-05 -0.000748992 -0.239908)
(2.01868e-05 -0.000765988 -0.241648)
(1.42553e-05 -0.000774029 -0.243351)
(1.95604e-05 -0.000808074 -0.24502)
(3.6334e-05 -0.000921086 -0.246646)
(5.78904e-05 -0.00105673 -0.248183)
(7.0398e-05 -0.00105033 -0.249589)
(6.35229e-05 -0.000841182 -0.250932)
(2.97199e-05 -0.000606811 -0.252511)
(-3.4517e-05 -0.000659351 -0.254552)
(-0.000113376 -0.000992848 -0.256781)
(-0.00018465 -0.00123223 -0.25877)
(-0.000240149 -0.00125216 -0.260424)
(-0.000284008 -0.00117753 -0.261829)
(-0.000322235 -0.00112342 -0.263055)
(-0.000353239 -0.00114775 -0.264159)
(-0.000374188 -0.00118647 -0.265191)
(-0.000388385 -0.00120903 -0.266158)
(-0.000400417 -0.00123958 -0.267049)
(-0.000411508 -0.00127427 -0.267865)
(-0.000420554 -0.00130977 -0.26861)
(-0.000426668 -0.00134612 -0.269284)
(-0.00043003 -0.00138209 -0.269885)
(-0.000430852 -0.00141521 -0.270408)
(-0.000428592 -0.00144555 -0.270853)
(-0.000421369 -0.0014841 -0.271223)
(-0.000404819 -0.00153296 -0.271523)
(-0.00039216 -0.00152185 -0.271711)
(-0.000424369 -0.00143827 -0.271604)
(-0.000519744 -0.00154721 -0.270939)
(-0.000654081 -0.00194221 -0.269741)
(-0.00074643 -0.00200642 -0.26892)
(-0.00075462 -0.00170436 -0.268934)
(-0.000728728 -0.00164308 -0.269155)
(-0.000711474 -0.00178981 -0.269213)
(-0.000711057 -0.00190498 -0.269141)
(-0.000721486 -0.00196355 -0.269058)
)
