0 	0 	0 	0
0 	0 	0 	0
0.00752508 	-0.00110531 	-0.000167046 	-0.275675
0.00752508 	-0.00110531 	-0.000167046 	-0.275675
0.00757525 	-0.00109613 	-0.000170984 	-0.275462
0.00762542 	-0.00108696 	-0.000174922 	-0.275249
0.00762542 	-0.00108696 	-0.000174922 	-0.275249
0.00767559 	-0.00107775 	-0.000178855 	-0.275037
0.00772575 	-0.00106596 	-0.000182231 	-0.274783
0.00777592 	-0.00105416 	-0.000185607 	-0.27453
0.00782609 	-0.00104237 	-0.000188983 	-0.274276
0.00782609 	-0.00104237 	-0.000188983 	-0.274276
0.00787625 	-0.00102997 	-0.000191183 	-0.273995
0.00792642 	-0.00101713 	-0.00019253 	-0.273695
0.00797659 	-0.00100429 	-0.000193877 	-0.273394
0.00802676 	-0.000991465 	-0.000194866 	-0.273084
0.00802676 	-0.000991465 	-0.000194866 	-0.273084
0.00807692 	-0.000978683 	-0.000194515 	-0.272736
0.00812709 	-0.000965901 	-0.000194164 	-0.272387
0.00812709 	-0.000965901 	-0.000194164 	-0.272387
0.00817726 	-0.000953119 	-0.000193812 	-0.272039
0.00822742 	-0.000940581 	-0.000193161 	-0.271654
0.00822742 	-0.000940581 	-0.000193161 	-0.271654
0.00827759 	-0.000928069 	-0.000192477 	-0.271265
0.00832776 	-0.000915558 	-0.000191793 	-0.270876
0.00832776 	-0.000915558 	-0.000191793 	-0.270876
0.00837793 	-0.000902888 	-0.000190633 	-0.270467
0.00842809 	-0.000890132 	-0.000189216 	-0.270046
0.00842809 	-0.000890132 	-0.000189216 	-0.270046
0.00847826 	-0.000877377 	-0.0001878 	-0.269626
0.00847826 	-0.000877377 	-0.0001878 	-0.269626
0.00852843 	-0.000864146 	-0.000185968 	-0.269195
0.00852843 	-0.000864146 	-0.000185968 	-0.269195
0.0085786 	-0.000850345 	-0.000183638 	-0.26875
0.0085786 	-0.000850345 	-0.000183638 	-0.26875
0.00862876 	-0.000836544 	-0.000181309 	-0.268306
0.00867893 	-0.000822307 	-0.00017863 	-0.267856
0.00867893 	-0.000822307 	-0.00017863 	-0.267856
0.0087291 	-0.000807134 	-0.0001752 	-0.267393
0.00877926 	-0.000791961 	-0.00017177 	-0.266929
0.00877926 	-0.000791961 	-0.00017177 	-0.266929
0.00882943 	-0.000776544 	-0.000168111 	-0.266462
0.0088796 	-0.000760334 	-0.000163702 	-0.265982
0.0088796 	-0.000760334 	-0.000163702 	-0.265982
0.00897993 	-0.000727818 	-0.000154759 	-0.26502
0.00897993 	-0.000727818 	-0.000154759 	-0.26502
0.0090301 	-0.000711149 	-0.000149745 	-0.264524
0.00908027 	-0.00069448 	-0.000144732 	-0.264028
0.00908027 	-0.00069448 	-0.000144732 	-0.264028
0.00913043 	-0.00067783 	-0.000139591 	-0.263529
0.0091806 	-0.000661245 	-0.000134028 	-0.263015
0.0091806 	-0.000661245 	-0.000134028 	-0.263015
0.00923077 	-0.00064466 	-0.000128465 	-0.262501
0.00928094 	-0.000628329 	-0.000122596 	-0.261979
0.00928094 	-0.000628329 	-0.000122596 	-0.261979
0.0093311 	-0.000612566 	-0.000116042 	-0.261441
0.00938127 	-0.000596803 	-0.000109488 	-0.260902
0.00938127 	-0.000596803 	-0.000109488 	-0.260902
0.00943144 	-0.00058172 	-0.000102433 	-0.260351
0.00943144 	-0.00058172 	-0.000102433 	-0.260351
0.00948161 	-0.000567511 	-9.47353e-05 	-0.259784
0.00948161 	-0.000567511 	-9.47353e-05 	-0.259784
0.00953177 	-0.000553301 	-8.70376e-05 	-0.259217
0.00953177 	-0.000553301 	-8.70376e-05 	-0.259217
0.00958194 	-0.000539924 	-7.91404e-05 	-0.258641
0.00958194 	-0.000539924 	-7.91404e-05 	-0.258641
0.00963211 	-0.000527063 	-7.11198e-05 	-0.258059
0.00963211 	-0.000527063 	-7.11198e-05 	-0.258059
0.00968227 	-0.000514201 	-6.30992e-05 	-0.257477
0.00968227 	-0.000514201 	-6.30992e-05 	-0.257477
0.00973244 	-0.000501694 	-5.54134e-05 	-0.2569
0.00978261 	-0.00048925 	-4.77881e-05 	-0.256323
0.00983278 	-0.000476789 	-4.01677e-05 	-0.255746
0.00988294 	-0.000464211 	-3.25816e-05 	-0.255174
0.00988294 	-0.000464211 	-3.25816e-05 	-0.255174
0.00993311 	-0.000451633 	-2.49954e-05 	-0.254601
0.00998328 	-0.000438981 	-1.71712e-05 	-0.254022
0.00998328 	-0.000438981 	-1.71712e-05 	-0.254022
0.0100334 	-0.000426238 	-9.05726e-06 	-0.253437
0.0100334 	-0.000426238 	-9.05726e-06 	-0.253437
0.0100836 	-0.000413496 	-9.43284e-07 	-0.252853
0.0101338 	-0.000400628 	7.56417e-06 	-0.252249
0.0101338 	-0.000400628 	7.56417e-06 	-0.252249
0.0102341 	-0.000374771 	2.47727e-05 	-0.251026
0.0102341 	-0.000374771 	2.47727e-05 	-0.251026
0.0102843 	-0.000361602 	3.34693e-05 	-0.250391
0.0103344 	-0.000348433 	4.21658e-05 	-0.249756
0.0103344 	-0.000348433 	4.21658e-05 	-0.249756
0.0103846 	-0.000334915 	5.07817e-05 	-0.249103
0.0103846 	-0.000334915 	5.07817e-05 	-0.249103
0.0104348 	-0.000321255 	5.93643e-05 	-0.248443
0.0104849 	-0.000307431 	6.79129e-05 	-0.247777
0.0104849 	-0.000307431 	6.79129e-05 	-0.247777
0.0105351 	-0.000293021 	7.63394e-05 	-0.247092
0.0105853 	-0.000278612 	8.4766e-05 	-0.246407
0.0105853 	-0.000278612 	8.4766e-05 	-0.246407
0.0106355 	-0.000263451 	9.31558e-05 	-0.245703
0.0106856 	-0.000248067 	0.000101535 	-0.244993
0.0106856 	-0.000248067 	0.000101535 	-0.244993
0.0107358 	-0.000232312 	0.000109911 	-0.244275
0.0107358 	-0.000232312 	0.000109911 	-0.244275
0.010786 	-0.000215922 	0.000118283 	-0.243542
0.010786 	-0.000215922 	0.000118283 	-0.243542
0.0108361 	-0.000199526 	0.000126652 	-0.242808
0.0108361 	-0.000199526 	0.000126652 	-0.242808
0.0108863 	-0.0001823 	0.000134673 	-0.242046
0.0109365 	-0.000165074 	0.000142694 	-0.241284
0.0109365 	-0.000165074 	0.000142694 	-0.241284
0.0109866 	-0.000147248 	0.000150198 	-0.240496
0.0109866 	-0.000147248 	0.000150198 	-0.240496
0.0110368 	-0.000129147 	0.000157466 	-0.239695
0.011087 	-0.000110487 	0.000164427 	-0.238875
0.011087 	-0.000110487 	0.000164427 	-0.238875
0.0111371 	-9.10151e-05 	0.000170941 	-0.238026
0.0111873 	-7.12048e-05 	0.000177408 	-0.23717
0.0111873 	-7.12048e-05 	0.000177408 	-0.23717
0.0112375 	-4.97363e-05 	0.000183639 	-0.236274
0.0112876 	-2.82678e-05 	0.000189871 	-0.235378
0.0112876 	-2.82678e-05 	0.000189871 	-0.235378
0.0113378 	-4.49975e-06 	0.000196183 	-0.234442
0.011388 	1.93388e-05 	0.000202498 	-0.233506
0.011388 	1.93388e-05 	0.000202498 	-0.233506
0.0114883 	7.14272e-05 	0.000214843 	-0.231568
0.0114883 	7.14272e-05 	0.000214843 	-0.231568
0.0115385 	9.93167e-05 	0.000220601 	-0.230575
0.0115886 	0.00012794 	0.000226175 	-0.229572
0.0115886 	0.00012794 	0.000226175 	-0.229572
0.0116388 	0.000157881 	0.000231234 	-0.228553
0.011689 	0.000188691 	0.00023595 	-0.227523
0.011689 	0.000188691 	0.00023595 	-0.227523
0.0117391 	0.000220572 	0.000240129 	-0.226482
0.0117893 	0.000253314 	0.000243875 	-0.225431
0.0117893 	0.000253314 	0.000243875 	-0.225431
0.0118395 	0.000286926 	0.000247124 	-0.224369
0.0118896 	0.000321272 	0.000249955 	-0.2233
0.0118896 	0.000321272 	0.000249955 	-0.2233
0.0119398 	0.000356356 	0.000252341 	-0.222219
0.0119398 	0.000356356 	0.000252341 	-0.222219
0.01199 	0.000392006 	0.000254385 	-0.221129
0.01199 	0.000392006 	0.000254385 	-0.221129
0.0120401 	0.000428363 	0.000256016 	-0.220023
0.0120401 	0.000428363 	0.000256016 	-0.220023
0.0120903 	0.000465147 	0.000257398 	-0.218908
0.0120903 	0.000465147 	0.000257398 	-0.218908
0.0121405 	0.000502734 	0.000258363 	-0.21777
0.0121405 	0.000502734 	0.000258363 	-0.21777
0.0121906 	0.00054064 	0.000259163 	-0.216622
0.0121906 	0.00054064 	0.000259163 	-0.216622
0.0122408 	0.000579556 	0.000259484 	-0.215442
0.0122408 	0.000579556 	0.000259484 	-0.215442
0.012291 	0.000618663 	0.000259714 	-0.214255
0.012291 	0.000618663 	0.000259714 	-0.214255
0.0123411 	0.000659049 	0.000259307 	-0.213025
0.0123411 	0.000659049 	0.000259307 	-0.213025
0.0123913 	0.000699682 	0.000258759 	-0.211785
0.0123913 	0.000699682 	0.000258759 	-0.211785
0.0124415 	0.000741354 	0.000257618 	-0.210507
0.0124916 	0.000783527 	0.000256168 	-0.209209
0.0124916 	0.000783527 	0.000256168 	-0.209209
0.012592 	0.000870027 	0.000251949 	-0.206519
0.012592 	0.000870027 	0.000251949 	-0.206519
0.0126421 	0.000914012 	0.000249393 	-0.205138
0.0126923 	0.000959005 	0.000246236 	-0.203705
0.0126923 	0.000959005 	0.000246236 	-0.203705
0.0127425 	0.00100432 	0.000242879 	-0.202252
0.0127425 	0.00100432 	0.000242879 	-0.202252
0.0127926 	0.00105039 	0.000239055 	-0.200756
0.0128428 	0.00109705 	0.000234835 	-0.199218
0.0128428 	0.00109705 	0.000234835 	-0.199218
0.012893 	0.00114408 	0.000230367 	-0.197656
0.0129431 	0.00119189 	0.000225283 	-0.196022
0.0129431 	0.00119189 	0.000225283 	-0.196022
0.0129933 	0.00123994 	0.000219969 	-0.194356
0.0130435 	0.00128834 	0.000214308 	-0.192642
0.0130435 	0.00128834 	0.000214308 	-0.192642
0.0130936 	0.00133703 	0.000208228 	-0.190855
0.0131438 	0.00138582 	0.000201934 	-0.189026
0.0131438 	0.00138582 	0.000201934 	-0.189026
0.013194 	0.00143468 	0.000195324 	-0.187126
0.0132441 	0.00148341 	0.000188391 	-0.185143
0.0132441 	0.00148341 	0.000188391 	-0.185143
0.0132943 	0.00153197 	0.000181242 	-0.183102
0.0133445 	0.00158016 	0.000173793 	-0.180975
0.0133445 	0.00158016 	0.000173793 	-0.180975
0.0133946 	0.00162759 	0.000166082 	-0.178739
0.0134448 	0.00167429 	0.000158246 	-0.17642
0.0134448 	0.00167429 	0.000158246 	-0.17642
0.013495 	0.00172009 	0.000150299 	-0.174008
0.0135452 	0.00176392 	0.000142249 	-0.17143
0.0135452 	0.00176392 	0.000142249 	-0.17143
0.0136455 	0.00184644 	0.000125838 	-0.165912
0.0136455 	0.00184644 	0.000125838 	-0.165912
0.0136957 	0.00188416 	0.000117405 	-0.162925
0.0137458 	0.00191829 	0.000108885 	-0.159725
0.0137458 	0.00191829 	0.000108885 	-0.159725
0.013796 	0.00194923 	0.000100401 	-0.156346
0.0138462 	0.00197653 	9.20099e-05 	-0.15277
0.0138462 	0.00197653 	9.20099e-05 	-0.15277
0.0138963 	0.00199968 	8.37643e-05 	-0.148978
0.0138963 	0.00199968 	8.37643e-05 	-0.148978
0.0139465 	0.00201616 	7.57885e-05 	-0.144872
0.0139967 	0.00202626 	6.80689e-05 	-0.140498
0.0139967 	0.00202626 	6.80689e-05 	-0.140498
0.0140468 	0.00202904 	6.0611e-05 	-0.135838
0.0140468 	0.00202904 	6.0611e-05 	-0.135838
0.014097 	0.00202327 	5.34425e-05 	-0.13087
0.0141472 	0.00200757 	4.66099e-05 	-0.125564
0.0141973 	0.00198053 	4.01795e-05 	-0.119889
0.0141973 	0.00198053 	4.01795e-05 	-0.119889
0.0142475 	0.00193861 	3.42716e-05 	-0.113752
0.0142977 	0.00188264 	2.88272e-05 	-0.107201
0.0143478 	0.00181192 	2.38347e-05 	-0.100243
0.0143478 	0.00181192 	2.38347e-05 	-0.100243
0.014398 	0.00172599 	1.93247e-05 	-0.0929038
0.014398 	0.00172599 	1.93247e-05 	-0.0929038
0.0144482 	0.00162499 	1.53293e-05 	-0.0852313
0.0144983 	0.00150988 	1.18503e-05 	-0.0773009
0.0144983 	0.00150988 	1.18503e-05 	-0.0773009
0.0145485 	0.00138249 	8.87001e-06 	-0.0692087
0.0145987 	0.00124529 	6.3713e-06 	-0.0610591
0.0145987 	0.00124529 	6.3713e-06 	-0.0610591
0.0146488 	0.00110098 	4.34357e-06 	-0.052948
0.014699 	0.000951768 	2.79275e-06 	-0.0449466
0.014699 	0.000951768 	2.79275e-06 	-0.0449466
0.0147492 	0.000798378 	1.71262e-06 	-0.0370932
0.0147993 	0.000638697 	1.03814e-06 	-0.0293929
0.0147993 	0.000638697 	1.03814e-06 	-0.0293929
0.0148495 	0.000465312 	8.28949e-07 	-0.0218184
0.0148495 	0.000465312 	8.28949e-07 	-0.0218184
0.0148997 	0.00027707 	6.79109e-07 	-0.0143453
0.0148997 	0.00027707 	6.79109e-07 	-0.0143453
0.0149498 	0.000107196 	3.58095e-07 	-0.00704318
0.0149498 	0.000107196 	3.58095e-07 	-0.00704318
0.015 	0 	0 	0
