/*--------------------------------*- C++ -*----------------------------------*\
| =========                 |                                                 |
| \\      /  F ield         | OpenFOAM: The Open Source CFD Toolbox           |
|  \\    /   O peration     | Version:  v1906                                 |
|   \\  /    A nd           | Web:      www.OpenFOAM.com                      |
|    \\/     M anipulation  |                                                 |
\*---------------------------------------------------------------------------*/
FoamFile
{
    version     2.0;
    format      ascii;
    class       surfaceScalarField;
    location    "98";
    object      phi;
}
// * * * * * * * * * * * * * * * * * * * * * * * * * * * * * * * * * * * * * //

dimensions      [1 0 -1 0 0 0 0];
oriented        oriented;


internalField   nonuniform List<scalar> 
1408
(
4.16785e-06
1.93332e-06
-1.38363e-06
-1.93232e-06
4.8882e-06
-1.41668e-06
2.83317e-06
-5.89157e-06
-2.66237e-06
6.87369e-06
-2.53088e-06
5.62761e-06
-1.48995e-05
-6.54113e-06
-2.82335e-06
1.06281e-05
-5.77015e-06
4.14037e-06
-1.4578e-05
-9.70445e-06
1.55182e-05
-8.9071e-06
5.20972e-06
-3.1859e-05
-1.23742e-05
-3.78726e-06
1.58273e-05
-1.06906e-05
4.68425e-06
-2.49091e-05
-1.72736e-05
2.29212e-05
-1.57793e-05
4.73833e-06
-4.86428e-05
-1.81997e-05
-4.89405e-06
2.06588e-05
-1.56251e-05
5.22823e-06
-3.69551e-05
-2.48395e-05
2.8992e-05
-2.25963e-05
4.30545e-06
-6.53221e-05
-2.39891e-05
-5.85205e-06
2.5095e-05
-2.05609e-05
5.66067e-06
-5.03863e-05
-3.23824e-05
3.37829e-05
-2.93245e-05
3.84206e-06
-8.17538e-05
-2.98027e-05
-6.82813e-06
2.92595e-05
-2.55845e-05
6.05547e-06
-6.51145e-05
-3.99299e-05
3.73347e-05
-3.60331e-05
3.32918e-06
-9.77494e-05
-3.56448e-05
-7.86445e-06
3.3309e-05
-3.07081e-05
6.43361e-06
-8.11335e-05
-4.74571e-05
3.96809e-05
-4.2728e-05
2.75956e-06
-0.000113106
-4.15022e-05
-8.95904e-06
3.73808e-05
-3.59136e-05
6.7969e-06
-9.84581e-05
-5.49241e-05
4.08362e-05
-4.93948e-05
2.13114e-06
-0.000127621
-4.73549e-05
-1.00957e-05
4.15708e-05
-4.11704e-05
7.14147e-06
-0.000117103
-6.22877e-05
4.08021e-05
-5.60119e-05
1.447e-06
-0.000141115
-5.31786e-05
-1.12566e-05
4.59328e-05
-4.64442e-05
7.46511e-06
-0.000137078
-6.95086e-05
3.9582e-05
-6.25548e-05
7.16937e-07
-0.000153448
-5.89491e-05
-1.22783e-05
5.03437e-05
-5.17017e-05
7.77004e-06
-0.000158248
-7.65592e-05
3.71959e-05
-6.90019e-05
-4.53825e-08
-0.000164536
-6.46484e-05
-1.33247e-05
5.48425e-05
-5.6917e-05
8.05993e-06
-0.000180635
-8.34281e-05
3.36911e-05
-7.53377e-05
-8.26075e-07
-0.000174339
-7.02677e-05
-1.44046e-05
5.94805e-05
-6.20747e-05
8.33816e-06
-0.000204279
-9.01254e-05
2.91499e-05
-8.15556e-05
-1.61076e-06
-0.000182861
-7.58039e-05
-1.5483e-05
6.42844e-05
-6.71683e-05
8.6033e-06
-0.00022918
-9.66729e-05
2.36673e-05
-8.76627e-05
-2.38303e-06
-0.000190146
-8.12587e-05
-1.65329e-05
6.92738e-05
-7.22023e-05
8.84631e-06
-0.000255294
-0.000103098
1.73313e-05
-9.36717e-05
-3.12635e-06
-0.000196258
-8.66406e-05
-1.75331e-05
7.44698e-05
-7.71853e-05
9.06292e-06
-0.000282543
-0.000109424
1.02334e-05
-9.95979e-05
-3.82764e-06
-0.000201267
-9.19644e-05
-1.84677e-05
7.98928e-05
-8.21217e-05
9.25334e-06
-0.000310826
-0.000115669
2.4719e-06
-0.000105456
-4.47607e-06
-0.000205244
-9.72477e-05
-1.93261e-05
8.55654e-05
-8.70162e-05
9.41626e-06
-0.000340029
-0.000121846
-5.85222e-06
-0.000111257
-5.06455e-06
-0.000208259
-0.000102507
-2.01042e-05
9.15147e-05
-9.18756e-05
9.55074e-06
-0.00037003
-0.000127968
-1.46371e-05
-0.000117009
-5.59265e-06
-0.000210382
-0.000107755
-2.0803e-05
9.77686e-05
-9.6709e-05
9.65555e-06
-0.000400708
-0.000134047
-2.37815e-05
-0.000122722
-6.06362e-06
-0.00021167
-0.000113007
-2.14272e-05
0.000104353
-0.000101527
9.72899e-06
-0.000431942
-0.000140097
-3.31922e-05
-0.000128399
-6.48192e-06
-0.000212177
-0.000118274
-2.19834e-05
0.000111288
-0.000106339
9.76814e-06
-0.000463615
-0.000146131
-4.27836e-05
-0.000134042
-6.85274e-06
-0.000211958
-0.000123568
-2.24786e-05
0.00011859
-0.000111157
9.77241e-06
-0.000495616
-0.000152162
-5.24727e-05
-0.000139657
-7.18064e-06
-0.000211064
-0.000128897
-2.29181e-05
0.000126267
-0.00011599
9.74265e-06
-0.000527838
-0.000158198
-6.2188e-05
-0.000145256
-7.46867e-06
-0.000209538
-0.000134269
-2.33045e-05
0.000134321
-0.000120845
9.68238e-06
-0.00056018
-0.000164237
-7.18776e-05
-0.000150854
-7.7183e-06
-0.000207415
-0.000139695
-2.36415e-05
0.00014275
-0.000125731
9.604e-06
-0.00059256
-0.000170268
-8.14955e-05
-0.000156462
-7.92975e-06
-0.000204739
-0.000145183
-2.39355e-05
0.000151554
-0.000130652
9.51671e-06
-0.000624921
-0.000176291
-9.09801e-05
-0.000162079
-8.10233e-06
-0.000201579
-0.00015074
-2.41894e-05
0.000160736
-0.000135614
9.42999e-06
-0.000657228
-0.000182324
-0.000100244
-0.000167704
-8.2349e-06
-0.000197994
-0.000156372
-2.44041e-05
0.000170302
-0.000140626
9.361e-06
-0.00068946
-0.000188387
-0.000109213
-0.000173372
-8.32522e-06
-0.000193961
-0.00016208
-2.45839e-05
0.000180266
-0.000145699
9.31054e-06
-0.000721609
-0.000194491
-0.000117896
-0.000179142
-8.37066e-06
-0.000189387
-0.000167867
-2.47321e-05
0.000190657
-0.000150845
9.23747e-06
-0.00075363
-0.000200644
-0.000126403
-0.00018502
-8.36816e-06
-0.000184252
-0.000173734
-2.48506e-05
0.00020151
-0.000156071
9.1289e-06
-0.000785471
-0.000206852
-0.000134797
-0.000190923
-8.31312e-06
-0.000178658
-0.000179685
-2.49297e-05
0.000212845
-0.000161371
9.01111e-06
-0.000817104
-0.000213108
-0.00014302
-0.000196807
-8.20454e-06
-0.000172738
-0.000185724
-2.49621e-05
0.00022465
-0.000166724
8.90538e-06
-0.000848528
-0.000219373
-0.000150961
-0.000202706
-8.04409e-06
-0.000166617
-0.00019182
-2.49814e-05
0.00023692
-0.00017211
8.86245e-06
-0.000879868
-0.000225641
-0.000158443
-0.000208672
-7.75714e-06
-0.000160618
-0.000197919
-2.50452e-05
0.000249779
-0.00017753
8.85284e-06
-0.000911306
-0.000232068
-0.000165202
-0.000214758
-7.20628e-06
-0.000155337
-0.000204107
-2.51786e-05
0.00026353
-0.000183001
8.61959e-06
-0.000942713
-0.000238973
-0.00017114
-0.000220991
-6.37087e-06
-0.000151136
-0.000210745
-2.52387e-05
0.000278359
-0.000188536
7.94756e-06
-0.000973471
-0.000246382
-0.000176613
-0.000227341
-5.46148e-06
-0.000147381
-0.000218249
-2.51805e-05
0.000294197
-0.000194142
7.15956e-06
-0.00100331
-0.000253654
-0.000182313
-0.000233706
-4.84464e-06
-0.0001428
-0.000226336
-2.50874e-05
0.000310745
-0.000199875
6.55586e-06
-0.00103244
-0.000260622
-0.00018891
-0.000239966
-4.3687e-06
-0.000137237
-0.000234073
-2.49018e-05
0.000327938
-0.000205889
6.13398e-06
-0.00106097
-0.000267471
-0.000196349
-0.000246105
-3.69365e-06
-0.000131441
-0.000241349
-2.4584e-05
0.00034616
-0.000212318
5.76156e-06
-0.00108879
-0.00027435
-0.000204272
-0.000252191
-2.76268e-06
-0.00012603
-0.00024844
-2.41427e-05
0.00036577
-0.000219
5.37231e-06
-0.00111575
-0.000281314
-0.000212458
-0.000258287
-1.50287e-06
-0.000121394
-0.000255544
-2.36512e-05
0.000386878
-0.000225634
4.90855e-06
-0.00114172
-0.000288361
-0.000220936
-0.000264415
-1.20755e-07
-0.000117658
-0.000262739
-2.33056e-05
0.000409289
-0.000232365
4.43751e-06
-0.00116682
-0.00029549
-0.000229727
-0.000270584
4.75716e-07
-0.000114044
-0.000270032
-2.3326e-05
0.000432348
-0.000239949
3.96509e-06
-0.00119141
-0.000302701
-0.000238849
-0.000276794
-6.47478e-09
-0.000109487
-0.000277427
-2.34928e-05
0.000455251
-0.000248235
3.49319e-06
-0.00121563
-0.000309994
-0.000248312
-0.000283046
-4.13056e-07
-0.000104074
-0.000284927
-2.35583e-05
0.000477926
-0.000255924
3.01942e-06
-0.00123936
-0.000317373
-0.000258135
-0.000289342
-1.95057e-07
-9.84384e-05
-0.000292534
-2.34617e-05
0.000500646
-0.000262969
2.54057e-06
-0.00126244
-0.000324834
-0.000268341
-0.000295684
5.96316e-07
-9.31621e-05
-0.000300247
-2.2992e-05
0.000523508
-0.000269721
2.05298e-06
-0.00128448
-0.000332372
-0.000278961
-0.000302072
1.58792e-06
-8.84572e-05
-0.000308066
-2.23137e-05
0.000546487
-0.00027646
1.55477e-06
-0.00130531
-0.000339973
-0.000290026
-0.000308512
2.65289e-06
-8.44107e-05
-0.000315995
-2.1585e-05
0.000569577
-0.000283283
1.04597e-06
-0.00132489
-0.000347625
-0.000301568
-0.000315005
3.83156e-06
-8.11421e-05
-0.000324037
-2.07822e-05
0.000592791
-0.00029019
5.27491e-07
-0.00134317
-0.000355322
-0.000313628
-0.000321555
4.95257e-06
-7.86065e-05
-0.000332176
-1.98982e-05
0.000615945
-0.000297176
-2.81681e-10
-0.00136005
-0.000363071
-0.000326249
-0.000328165
6.13489e-06
-7.68978e-05
-0.000340395
-1.89377e-05
0.000638891
-0.000304163
-5.37707e-07
-0.00137545
-0.000370894
-0.000339457
-0.000334838
7.35838e-06
-7.6077e-05
-0.000348709
-1.79215e-05
0.000661544
-0.000311247
-1.08641e-06
-0.0013893
-0.000378818
-0.000353277
-0.000341576
8.67863e-06
-7.62102e-05
-0.000357164
-1.67884e-05
0.000684301
-0.000318868
-1.65094e-06
-0.00140148
-0.000386875
-0.00036774
-0.000348381
1.02958e-05
-7.75262e-05
-0.0003658
-1.54866e-05
0.000708004
-0.000327198
-2.19427e-06
-0.00141184
-0.000394997
-0.000382839
-0.000355255
1.23083e-05
-8.03927e-05
-0.000374576
-1.42303e-05
0.000732781
-0.000335527
-2.67084e-06
-0.00142064
-0.000403044
-0.000398528
-0.0003622
1.41586e-05
-8.47399e-05
-0.000383376
-1.34864e-05
0.000758217
-0.000344518
-3.18737e-06
-0.00142857
-0.000411415
-0.000414855
-0.000369217
1.44269e-05
-8.9154e-05
-0.00039213
-1.34093e-05
0.000783362
-0.000355828
-3.93196e-06
-0.00143605
-0.000421049
-0.000432043
-0.00037631
1.37019e-05
-9.2773e-05
-0.000400879
-1.34355e-05
0.000807423
-0.000367279
-4.8062e-06
-0.00144344
-0.000431151
-0.000450198
-0.000383481
1.3405e-05
-9.6093e-05
-0.000409681
-1.32741e-05
0.000830169
-0.000377256
-5.55431e-06
-0.00145143
-0.000440558
-0.000469171
-0.00039073
1.35517e-05
-9.96046e-05
-0.00041855
-1.26075e-05
0.00085098
-0.000386294
-6.12435e-06
-0.00145983
-0.000449381
-0.000488904
-0.000398054
1.42349e-05
-0.000103892
-0.000427484
-1.1478e-05
0.000869774
-0.000395
-6.59203e-06
-0.00146774
-0.000458114
-0.000509586
-0.00040545
1.502e-05
-0.000109106
-0.00043648
-1.01817e-05
0.000886801
-0.000403774
-7.00763e-06
-0.00147443
-0.000466992
-0.000531748
-0.000412915
1.57961e-05
-0.000115292
-0.000445531
-8.79898e-06
0.000902339
-0.000412709
-7.36492e-06
-0.00147944
-0.000476039
-0.000556504
-0.00042046
1.6565e-05
-0.000122501
-0.000454635
-7.32115e-06
0.000916467
-0.000421795
-7.66228e-06
-0.00148256
-0.000485261
-0.000583889
-0.000428117
1.73258e-05
-0.000130784
-0.000463784
-5.74763e-06
0.000929104
-0.000431023
-7.8979e-06
-0.00148373
-0.0004946
-0.000612791
-0.00043593
1.80803e-05
-0.000140191
-0.000472973
-4.07718e-06
0.000940125
-0.000440384
-8.06779e-06
-0.00148292
-0.000504009
-0.000642328
-0.000443945
1.88313e-05
-0.000150773
-0.000482197
-2.3076e-06
0.000949399
-0.000449875
-8.16604e-06
-0.00148009
-0.000513494
-0.000671979
-0.000452216
1.9581e-05
-0.000162575
-0.000491449
-4.20418e-07
0.000956765
-0.0004595
-8.18571e-06
-0.00147519
-0.000523063
-0.000701382
-0.000460794
2.03313e-05
-0.000175634
-0.000500725
1.53627e-06
0.000962106
-0.00046927
-8.12203e-06
-0.00146823
-0.000532714
-0.00073011
-0.000469774
2.10848e-05
-0.000189983
-0.000510018
3.61406e-06
0.000965252
-0.000479199
-7.97525e-06
-0.00145916
-0.000542436
-0.000757727
-0.000479121
2.18453e-05
-0.000205643
-0.000519322
5.79306e-06
0.000966032
-0.000489305
-7.7377e-06
-0.00144796
-0.000552223
-0.000783981
-0.000488611
2.26185e-05
-0.000222705
-0.00052863
8.0688e-06
0.000964219
-0.000499612
-7.49907e-06
-0.00143453
-0.000562068
-0.000808629
-0.000497927
2.34199e-05
-0.000241535
-0.000537935
1.04487e-05
0.000959545
-0.000510131
-7.52409e-06
-0.00141852
-0.000571963
-0.000831341
-0.000506271
2.42503e-05
-0.000262794
-0.000547228
1.29293e-05
0.000951789
-0.00052092
-8.1151e-06
-0.000581901
-0.000512398
2.50982e-05
-0.00055657
-0.000532227
-5.49571e-08
1.70184e-06
-1.10843e-06
1.65349e-06
1.02368e-06
-1.19391e-06
1.35807e-06
-5.5413e-07
3.54634e-06
-1.92049e-06
3.1411e-06
1.6579e-06
-4.53325e-06
2.30065e-06
-1.01958e-06
4.67466e-06
-2.23073e-06
3.55795e-06
1.83259e-06
-9.5939e-06
2.07347e-06
-1.46643e-06
5.36378e-06
-2.50818e-06
3.1821e-06
1.99318e-06
-1.60595e-05
9.99747e-07
-1.93498e-06
5.94154e-06
-2.80026e-06
2.30351e-06
2.16546e-06
-2.37079e-05
-5.8e-07
-2.39169e-06
6.52886e-06
-3.06959e-06
1.05843e-06
2.31355e-06
-3.23731e-05
-2.48528e-06
-2.82204e-06
7.16517e-06
-3.30231e-06
-4.73788e-07
2.42368e-06
-4.19111e-05
-4.60719e-06
-3.21881e-06
7.86751e-06
-3.49308e-06
-2.23995e-06
2.49007e-06
-5.21892e-05
-6.89486e-06
-3.57766e-06
8.61075e-06
-3.64065e-06
-4.20267e-06
2.51037e-06
-6.30827e-05
-9.30285e-06
-3.89604e-06
9.35741e-06
-3.71873e-06
-6.36127e-06
2.48496e-06
-7.44464e-05
-1.17967e-05
-4.17318e-06
1.00712e-05
-3.76888e-06
-8.67984e-06
2.41691e-06
-8.61812e-05
-1.43465e-05
-4.40999e-06
1.07294e-05
-3.79891e-06
-1.11174e-05
2.31128e-06
-9.8197e-05
-1.692e-05
-4.60969e-06
1.1333e-05
-3.8155e-06
-1.36304e-05
2.17414e-06
-0.000110413
-1.94754e-05
-4.77681e-06
1.19035e-05
-3.82704e-06
-1.61595e-05
2.01328e-06
-0.00012276
-2.19711e-05
-4.9155e-06
1.25008e-05
-3.83996e-06
-1.86367e-05
1.83594e-06
-0.000135192
-2.43972e-05
-5.02951e-06
1.31539e-05
-3.85619e-06
-2.10002e-05
1.64489e-06
-0.000147676
-2.67099e-05
-5.12167e-06
1.38982e-05
-3.87587e-06
-2.31914e-05
1.44098e-06
-0.000160183
-2.88772e-05
-5.19403e-06
1.47719e-05
-3.89992e-06
-2.51507e-05
1.22561e-06
-0.000172692
-3.08758e-05
-5.24877e-06
1.58109e-05
-3.92966e-06
-2.68206e-05
1.00065e-06
-0.000185185
-3.26876e-05
-5.28787e-06
1.7048e-05
-3.96616e-06
-2.81506e-05
7.68147e-07
-0.000197652
-3.42951e-05
-5.31302e-06
1.85101e-05
-4.01009e-06
-2.91086e-05
5.29765e-07
-0.000210092
-3.5679e-05
-5.32562e-06
2.0215e-05
-4.06175e-06
-2.96943e-05
2.62905e-07
-0.000222481
-3.68455e-05
-5.32688e-06
2.21695e-05
-4.12112e-06
-2.99389e-05
-4.98906e-09
-0.000234826
-3.77908e-05
-5.31777e-06
2.43711e-05
-4.18793e-06
-2.98844e-05
-2.70473e-07
-0.000247127
-3.85444e-05
-5.29897e-06
2.6819e-05
-4.2617e-06
-2.95638e-05
-5.3461e-07
-0.000259373
-3.91698e-05
-5.27095e-06
2.95309e-05
-4.34173e-06
-2.89975e-05
-7.98292e-07
-0.000271539
-3.97319e-05
-5.23406e-06
3.25508e-05
-4.42732e-06
-2.8198e-05
-1.06216e-06
-0.000283619
-4.02682e-05
-5.18846e-06
3.5931e-05
-4.51781e-06
-2.71749e-05
-1.32619e-06
-0.000295645
-4.07904e-05
-5.13371e-06
3.9685e-05
-4.61198e-06
-2.59388e-05
-1.58976e-06
-0.000307667
-4.13257e-05
-5.0684e-06
4.37385e-05
-4.70676e-06
-2.45038e-05
-1.85239e-06
-0.00031972
-4.1919e-05
-4.99037e-06
4.79394e-05
-4.79641e-06
-2.28886e-05
-2.11427e-06
-0.000331806
-4.25318e-05
-4.8982e-06
5.214e-05
-4.87402e-06
-2.11197e-05
-2.37534e-06
-0.000343913
-4.28997e-05
-4.79334e-06
5.62582e-05
-4.93579e-06
-1.92287e-05
-2.63279e-06
-0.000356025
-4.26693e-05
-4.68067e-06
6.02679e-05
-4.9852e-06
-1.72437e-05
-2.8851e-06
-0.000368091
-4.18141e-05
-4.56533e-06
6.41785e-05
-5.03116e-06
-1.51784e-05
-3.1365e-06
-0.000380055
-4.06599e-05
-4.44929e-06
6.81006e-05
-5.08065e-06
-1.30289e-05
-3.40084e-06
-0.000392008
-3.94881e-05
-4.33233e-06
7.22158e-05
-5.13579e-06
-1.07776e-05
-3.69592e-06
-0.000404337
-3.83919e-05
-4.21452e-06
7.66424e-05
-5.20059e-06
-8.38741e-06
-4.02497e-06
-0.000417439
-3.74054e-05
-4.08861e-06
8.11577e-05
-5.28192e-06
-5.65916e-06
-4.35835e-06
-0.000431089
-3.65982e-05
-3.92534e-06
8.50764e-05
-5.36597e-06
-2.14267e-06
-4.64633e-06
-0.000444921
-3.59984e-05
-3.67028e-06
8.81276e-05
-5.39138e-06
2.86026e-06
-4.86149e-06
-0.000458714
-3.55776e-05
-3.27912e-06
9.03816e-05
-5.27316e-06
9.81668e-06
-5.01182e-06
-0.000472308
-3.53148e-05
-2.79038e-06
9.20377e-05
-5.00164e-06
1.78993e-05
-5.12366e-06
-0.000485561
-3.5217e-05
-2.31366e-06
9.32977e-05
-4.68617e-06
2.62937e-05
-5.21524e-06
-0.00049842
-3.53048e-05
-1.91506e-06
9.42709e-05
-4.46355e-06
3.45813e-05
-5.29107e-06
-0.000510958
-3.56008e-05
-1.58537e-06
9.50233e-05
-4.36822e-06
4.19867e-05
-5.35147e-06
-0.000523283
-3.61265e-05
-1.30992e-06
9.56117e-05
-4.3616e-06
4.78891e-05
-5.39707e-06
-0.00053546
-3.69033e-05
-1.06987e-06
9.60769e-05
-4.39977e-06
5.29507e-05
-5.42943e-06
-0.000547509
-3.79536e-05
-8.50857e-07
9.64464e-05
-4.46732e-06
5.79205e-05
-5.45009e-06
-0.000559432
-3.92988e-05
-6.58658e-07
9.67567e-05
-4.56345e-06
6.31969e-05
-5.45982e-06
-0.000571228
-4.09587e-05
-4.93331e-07
9.70474e-05
-4.68704e-06
6.89082e-05
-5.45822e-06
-0.000582887
-4.29508e-05
-3.54073e-07
9.73533e-05
-4.83845e-06
7.50951e-05
-5.44335e-06
-0.000594394
-4.52872e-05
-2.36855e-07
9.77008e-05
-5.01588e-06
8.18125e-05
-5.41242e-06
-0.000605723
-4.7972e-05
-1.52459e-07
9.81441e-05
-5.23197e-06
8.91202e-05
-5.36396e-06
-0.000616858
-5.1001e-05
-9.64443e-08
9.87629e-05
-5.52231e-06
9.72252e-05
-5.29929e-06
-0.000627822
-5.43623e-05
-1.11881e-08
9.95859e-05
-5.88038e-06
0.000106446
-5.22179e-06
-0.000638647
-5.8034e-05
1.93626e-07
0.000100548
-6.16593e-06
0.000116869
-5.13457e-06
-0.000649244
-6.20213e-05
5.52211e-07
0.000101525
-6.18575e-06
0.000128203
-5.0392e-06
-0.00065926
-6.63704e-05
8.92921e-07
0.000102479
-6.07956e-06
0.000140205
-4.93735e-06
-0.000668341
-7.10783e-05
1.13438e-06
0.000103503
-6.07835e-06
0.000151979
-4.82933e-06
-0.000676769
-7.61188e-05
1.27304e-06
0.000104759
-6.21855e-06
0.000161198
-4.71491e-06
-0.00068582
-8.1448e-05
1.33006e-06
0.000106387
-6.44407e-06
0.000167839
-4.59874e-06
-0.000695927
-8.70236e-05
1.3257e-06
0.000108531
-6.72601e-06
0.000173575
-4.48656e-06
-0.000706358
-9.28676e-05
1.25812e-06
0.000111247
-7.06404e-06
0.00017956
-4.38185e-06
-0.000716546
-9.89316e-05
1.12476e-06
0.000114587
-7.45654e-06
0.000186331
-4.28739e-06
-0.000726194
-0.000105151
9.0237e-07
0.000118622
-7.89877e-06
0.000193987
-4.20523e-06
-0.000734638
-0.000111454
5.98148e-07
0.000123406
-8.38287e-06
0.000202534
-4.14302e-06
-0.000740687
-0.000117782
2.31241e-07
0.000128964
-8.90196e-06
0.000212006
-4.11992e-06
-0.000743179
-0.000124113
-1.93792e-07
0.000135294
-9.45639e-06
0.000222447
-4.1528e-06
-0.000743787
-0.000130452
-6.75442e-07
0.000142368
-1.00432e-05
0.000233881
-4.24956e-06
-0.00074383
-0.000136788
-1.21364e-06
0.000150123
-1.06533e-05
0.0002463
-4.43296e-06
-0.000743252
-0.000143079
-1.79133e-06
0.000158434
-1.12751e-05
0.000259675
-4.72851e-06
-0.000741477
-0.000149207
-2.42596e-06
0.000167156
-1.18957e-05
0.000273925
-5.16204e-06
-0.000738109
-0.000155143
-3.10649e-06
0.000176146
-1.24997e-05
0.000288939
-5.71859e-06
-0.000732944
-0.000160965
-3.81992e-06
0.00018527
-1.30695e-05
0.000304571
-6.3167e-06
-0.000725862
-0.000166563
-4.55148e-06
0.000194602
-1.35849e-05
0.000320633
-6.89754e-06
-0.000716811
-0.000171582
-5.28122e-06
0.000204189
-1.40223e-05
0.000336908
-7.41865e-06
-0.000705783
-0.000174578
-5.98348e-06
0.000214058
-1.43537e-05
0.000353119
-7.82539e-06
-0.000692818
-0.000173245
-6.62025e-06
-1.45427e-05
-8.08558e-06
)
;

boundaryField
{
    leftWall
    {
        type            calculated;
        value           nonuniform List<scalar> 8(2.1684e-19 0 0 -4.33681e-19 0 0 0 0);
    }
    rightWall
    {
        type            calculated;
        value           nonuniform 0();
    }
    leftSides_periodic0
    {
        type            cyclic;
        value           nonuniform 0();
    }
    leftSides_periodic1
    {
        type            cyclic;
        value           nonuniform 0();
    }
    rightSides_periodic0
    {
        type            cyclic;
        value           nonuniform 0();
    }
    rightSides_periodic1
    {
        type            cyclic;
        value           nonuniform 0();
    }
    leftInOut_periodic0
    {
        type            cyclic;
        value           nonuniform List<scalar> 
157
(
-4.99638e-06
-6.79474e-06
-6.00277e-06
-5.04494e-06
-4.18411e-06
-3.29343e-06
-2.34909e-06
-1.35089e-06
-3.0572e-07
7.72902e-07
1.8648e-06
2.94376e-06
3.98061e-06
4.95345e-06
5.8519e-06
6.67352e-06
7.41793e-06
8.08301e-06
8.66817e-06
9.17383e-06
9.60548e-06
9.96344e-06
1.02432e-05
1.04485e-05
1.05952e-05
1.06968e-05
1.07442e-05
1.07149e-05
1.06268e-05
1.05737e-05
1.06347e-05
1.07491e-05
1.08025e-05
1.07696e-05
1.06625e-05
1.03972e-05
9.90989e-06
9.40735e-06
9.44941e-06
1.01935e-05
1.08956e-05
1.11861e-05
1.11964e-05
1.11408e-05
1.10845e-05
1.10273e-05
1.09659e-05
1.09014e-05
1.08372e-05
1.07745e-05
1.07115e-05
1.06502e-05
1.06006e-05
1.05624e-05
1.05221e-05
1.04728e-05
1.0414e-05
1.03443e-05
1.02601e-05
1.0156e-05
1.00244e-05
9.86269e-06
9.67643e-06
9.47013e-06
9.24508e-06
9.00257e-06
8.74182e-06
8.46078e-06
8.16061e-06
7.84608e-06
7.52416e-06
7.20353e-06
6.8936e-06
6.60375e-06
6.34627e-06
6.04811e-06
5.43985e-06
4.21034e-06
-1.52256e-07
-9.99611e-08
-1.20202e-07
-1.61612e-07
-2.12334e-07
-3.01087e-07
-4.32591e-07
-5.84325e-07
-7.67686e-07
-9.77216e-07
-1.20705e-06
-1.45154e-06
-1.70549e-06
-1.96382e-06
-2.19325e-06
-2.43015e-06
-2.67094e-06
-2.90968e-06
-3.14291e-06
-3.36814e-06
-3.58392e-06
-3.78926e-06
-3.98355e-06
-4.16653e-06
-4.33835e-06
-4.49957e-06
-4.65089e-06
-4.79295e-06
-4.92667e-06
-5.05352e-06
-5.17566e-06
-5.29562e-06
-5.41542e-06
-5.53728e-06
-5.66675e-06
-5.81297e-06
-5.98038e-06
-6.15615e-06
-6.30675e-06
-6.40464e-06
-6.44321e-06
-6.42434e-06
-6.3607e-06
-6.26633e-06
-6.14543e-06
-5.99858e-06
-5.82592e-06
-5.62777e-06
-5.40511e-06
-5.15905e-06
-4.89078e-06
-4.60219e-06
-4.29622e-06
-3.97734e-06
-3.65194e-06
-3.33103e-06
-2.98744e-06
-2.57813e-06
-2.15069e-06
-1.72448e-06
-1.31336e-06
-9.15924e-07
-4.68638e-07
-3.92872e-08
3.60168e-07
7.28203e-07
1.05743e-06
1.33478e-06
1.54099e-06
1.6493e-06
1.62857e-06
1.43462e-06
1.03325e-06
4.4229e-07
-3.12629e-07
-1.00035e-06
-1.62776e-06
-2.18958e-06
-2.61301e-06
)
;
    }
    leftInOut_periodic1
    {
        type            cyclic;
        value           nonuniform List<scalar> 
157
(
4.99638e-06
6.79474e-06
6.00277e-06
5.04494e-06
4.18411e-06
3.29343e-06
2.34909e-06
1.35089e-06
3.0572e-07
-7.72902e-07
-1.8648e-06
-2.94376e-06
-3.98061e-06
-4.95345e-06
-5.8519e-06
-6.67352e-06
-7.41793e-06
-8.08301e-06
-8.66817e-06
-9.17383e-06
-9.60548e-06
-9.96344e-06
-1.02432e-05
-1.04485e-05
-1.05952e-05
-1.06968e-05
-1.07442e-05
-1.07149e-05
-1.06268e-05
-1.05737e-05
-1.06347e-05
-1.07491e-05
-1.08025e-05
-1.07696e-05
-1.06625e-05
-1.03972e-05
-9.90989e-06
-9.40735e-06
-9.44941e-06
-1.01935e-05
-1.08956e-05
-1.11861e-05
-1.11964e-05
-1.11408e-05
-1.10845e-05
-1.10273e-05
-1.09659e-05
-1.09014e-05
-1.08372e-05
-1.07745e-05
-1.07115e-05
-1.06502e-05
-1.06006e-05
-1.05624e-05
-1.05221e-05
-1.04728e-05
-1.0414e-05
-1.03443e-05
-1.02601e-05
-1.0156e-05
-1.00244e-05
-9.86269e-06
-9.67643e-06
-9.47013e-06
-9.24508e-06
-9.00257e-06
-8.74182e-06
-8.46078e-06
-8.16061e-06
-7.84608e-06
-7.52416e-06
-7.20353e-06
-6.8936e-06
-6.60375e-06
-6.34627e-06
-6.04811e-06
-5.43985e-06
-4.21034e-06
1.52256e-07
9.99611e-08
1.20202e-07
1.61612e-07
2.12334e-07
3.01087e-07
4.32591e-07
5.84325e-07
7.67686e-07
9.77216e-07
1.20705e-06
1.45154e-06
1.70549e-06
1.96382e-06
2.19325e-06
2.43015e-06
2.67094e-06
2.90968e-06
3.14291e-06
3.36814e-06
3.58392e-06
3.78926e-06
3.98355e-06
4.16653e-06
4.33835e-06
4.49957e-06
4.65089e-06
4.79295e-06
4.92667e-06
5.05352e-06
5.17566e-06
5.29562e-06
5.41542e-06
5.53728e-06
5.66675e-06
5.81297e-06
5.98038e-06
6.15615e-06
6.30675e-06
6.40464e-06
6.44321e-06
6.42434e-06
6.3607e-06
6.26633e-06
6.14543e-06
5.99858e-06
5.82592e-06
5.62777e-06
5.40511e-06
5.15905e-06
4.89078e-06
4.60219e-06
4.29622e-06
3.97734e-06
3.65194e-06
3.33103e-06
2.98744e-06
2.57813e-06
2.15069e-06
1.72448e-06
1.31336e-06
9.15924e-07
4.68638e-07
3.92872e-08
-3.60168e-07
-7.28203e-07
-1.05743e-06
-1.33478e-06
-1.54099e-06
-1.6493e-06
-1.62857e-06
-1.43462e-06
-1.03325e-06
-4.4229e-07
3.12629e-07
1.00035e-06
1.62776e-06
2.18958e-06
2.61301e-06
)
;
    }
    rightInOut_periodic0
    {
        type            cyclic;
        value           nonuniform 0();
    }
    rightInOut_periodic1
    {
        type            cyclic;
        value           nonuniform 0();
    }
    procBoundary0to1
    {
        type            processor;
        value           nonuniform List<scalar> 
11
(
-0.00139926
-0.000851879
-0.000287316
1.55146e-05
0.000941012
0.000591945
0.000514844
0.000224156
0.00036868
-0.00067808
-0.000166283
)
;
    }
    procBoundary0to1throughleftInOut_periodic1
    {
        type            processorCyclic;
        value           uniform -2.12889e-06;
    }
    procBoundary0to2
    {
        type            processor;
        value           nonuniform List<scalar> 
316
(
-3.17757e-06
-2.01805e-06
-3.60026e-06
-2.70931e-06
-7.91706e-06
-5.89727e-06
-9.94275e-06
-8.08205e-06
-1.25795e-05
-9.90717e-06
-1.6274e-05
-1.35836e-05
-1.7551e-05
-1.42228e-05
-2.28704e-05
-1.93453e-05
-2.28031e-05
-1.88362e-05
-2.96916e-05
-2.53377e-05
-2.82529e-05
-2.36832e-05
-3.66371e-05
-3.1479e-05
-3.38432e-05
-2.87176e-05
-4.36333e-05
-3.77137e-05
-3.95225e-05
-3.38934e-05
-5.06174e-05
-4.39977e-05
-4.52433e-05
-3.91629e-05
-5.75338e-05
-5.02935e-05
-5.09653e-05
-4.44795e-05
-6.43368e-05
-5.65698e-05
-5.66598e-05
-4.98032e-05
-7.09977e-05
-6.28024e-05
-6.23152e-05
-5.51063e-05
-7.7509e-05
-6.89783e-05
-6.79381e-05
-6.03741e-05
-8.3886e-05
-7.51001e-05
-7.35362e-05
-6.56067e-05
-9.01496e-05
-8.11726e-05
-7.91132e-05
-7.08155e-05
-9.63209e-05
-8.71998e-05
-8.4677e-05
-7.60087e-05
-0.000102418
-9.31926e-05
-9.02424e-05
-8.11897e-05
-0.000108452
-9.91598e-05
-9.58236e-05
-8.6364e-05
-0.000114434
-0.000105106
-0.000101429
-9.15374e-05
-0.000120373
-0.000111038
-0.000107064
-9.67127e-05
-0.000126279
-0.000116962
-0.000112734
-0.000101883
-0.000132159
-0.000122885
-0.000118439
-0.000107028
-0.000138026
-0.000128808
-0.000124177
-0.000112127
-0.000143891
-0.000134717
-0.000129947
-0.000117182
-0.000149768
-0.00014059
-0.000135759
-0.000122209
-0.000155671
-0.000146409
-0.000141641
-0.000127231
-0.000161596
-0.000152183
-0.000147627
-0.000132261
-0.000167525
-0.000157937
-0.000153734
-0.00013731
-0.000173437
-0.000163698
-0.00015993
-0.000142386
-0.000179332
-0.000169481
-0.000166133
-0.000147498
-0.000185237
-0.000175327
-0.000172269
-0.000152657
-0.000191183
-0.000181324
-0.000178349
-0.000157867
-0.000197183
-0.000187612
-0.000184445
-0.00016312
-0.000203238
-0.000194231
-0.000190611
-0.000168402
-0.000209345
-0.000200886
-0.000196854
-0.000173704
-0.000215507
-0.000207278
-0.000203228
-0.000179042
-0.000221728
-0.000213508
-0.000209895
-0.00018444
-0.000228015
-0.000219798
-0.000217139
-0.000189925
-0.000234386
-0.000226191
-0.000225009
-0.000195654
-0.000240857
-0.000232551
-0.000232763
-0.000201936
-0.000247439
-0.000238788
-0.000239927
-0.000209178
-0.000254134
-0.000244926
-0.000246779
-0.000217297
-0.000260942
-0.000251029
-0.000253698
-0.000224875
-0.000267862
-0.000257137
-0.000260788
-0.00023164
-0.000274897
-0.000263267
-0.000267974
-0.000238076
-0.000282047
-0.000269425
-0.000275229
-0.000244544
-0.000289316
-0.000275613
-0.000282563
-0.000251067
-0.000296706
-0.000281832
-0.000289982
-0.000257641
-0.000304219
-0.000288085
-0.000297489
-0.000264309
-0.000311854
-0.000294375
-0.000305088
-0.00027108
-0.000319607
-0.000300705
-0.000312784
-0.000277965
-0.00032747
-0.000307079
-0.000320576
-0.000284972
-0.000335441
-0.000313501
-0.000328466
-0.000292114
-0.000343524
-0.000319978
-0.000336462
-0.000299384
-0.000351734
-0.000326514
-0.000344584
-0.000306805
-0.000360083
-0.000333115
-0.000352867
-0.00031457
-0.000368586
-0.000339787
-0.000361329
-0.000322937
-0.000377247
-0.000346533
-0.00036993
-0.000331781
-0.000386068
-0.00035336
-0.000378593
-0.000340504
-0.000395048
-0.000360271
-0.000387268
-0.000349024
-0.000404176
-0.000367275
-0.000395978
-0.000357514
-0.000413438
-0.000374376
-0.000404758
-0.000366108
-0.000422819
-0.000381583
-0.00041362
-0.000374902
-0.000432293
-0.0003889
-0.000422562
-0.000383917
-0.000441801
-0.000396332
-0.000431583
-0.000393146
-0.000451562
-0.000403881
-0.000440678
-0.000402582
-0.000462172
-0.000411552
-0.000449843
-0.000412225
-0.000474169
-0.000419345
-0.000459071
-0.000422081
-0.0004875
-0.000427259
-0.000468357
-0.000432143
-0.000499242
-0.000435308
-0.000477696
-0.000442389
-0.000509698
-0.000443535
-0.000487079
-0.000452788
-0.000520225
-0.000452011
-0.0004965
-0.000463322
-0.000531316
-0.000460833
-0.00050595
-0.000473978
-0.000542743
-0.000470028
-0.000515417
-0.000484744
-0.000554309
-0.000479468
-0.000524891
-0.000495609
-0.000565984
-0.000489036
-0.00053436
-0.000506559
-0.000577732
-0.000498828
-0.000543816
-0.000517586
-0.000589521
-0.000509089
-0.000553249
-0.000528681
-0.000601322
-0.000519383
-0.000562602
-0.000539786
-0.000613068
-0.00052729
)
;
    }
    procBoundary0to2throughleftSides_periodic0
    {
        type            processorCyclic;
        value           nonuniform List<scalar> 
314
(
3.79818e-06
1.10375e-05
1.8271e-05
2.54087e-05
3.24301e-05
3.93666e-05
4.62209e-05
5.29854e-05
5.96483e-05
6.61951e-05
7.26129e-05
7.88939e-05
8.50374e-05
9.10485e-05
9.6936e-05
0.000102709
0.000108374
0.000113937
0.000119407
0.000124797
0.000130116
0.000135378
0.000140594
0.000145781
0.000150957
0.000156134
0.000161325
0.000166541
0.000171792
0.000177088
0.00018244
0.000187858
0.000193351
0.000198925
0.000204562
0.000210247
0.000216102
0.000222429
0.00022948
0.000236896
0.000243933
0.000250604
0.000257135
0.000263681
0.000270329
0.000277086
0.000283954
0.000290936
0.000298035
0.000305252
0.000312586
0.000320045
0.000327633
0.000335342
0.000343162
0.000351087
0.000359113
0.000367241
0.000375467
0.000383788
0.000392204
0.000400714
0.000409319
0.00041802
0.000426815
0.000435704
0.000444684
0.000453753
0.000462909
0.000472149
0.000481468
0.000490864
0.000500332
0.000509866
0.000519457
0.000529093
0.000538754
0.000548415
0.000558085
2.62268e-06
8.46125e-06
1.44503e-05
2.03669e-05
2.62004e-05
3.19886e-05
3.77409e-05
4.34528e-05
4.91138e-05
5.47096e-05
6.02254e-05
6.56485e-05
7.09712e-05
7.61939e-05
8.13228e-05
8.63607e-05
9.13074e-05
9.61652e-05
0.00010094
0.00010564
0.000110281
0.000114881
0.000119455
0.000124023
0.000128599
0.000133196
0.000137823
0.000142488
0.000147198
0.000151961
0.000156782
0.000161667
0.000166619
0.000171643
0.000176744
0.000181924
0.000187188
0.00019254
0.000197986
0.000203534
0.000209194
0.000214956
0.000220756
0.00022666
0.000233068
0.000240558
0.000248738
0.000256388