/*--------------------------------*- C++ -*----------------------------------*\
| =========                 |                                                 |
| \\      /  F ield         | OpenFOAM: The Open Source CFD Toolbox           |
|  \\    /   O peration     | Version:  v1906                                 |
|   \\  /    A nd           | Web:      www.OpenFOAM.com                      |
|    \\/     M anipulation  |                                                 |
\*---------------------------------------------------------------------------*/
FoamFile
{
    version     2.0;
    format      ascii;
    class       volVectorField;
    location    "98";
    object      UMean;
}
// * * * * * * * * * * * * * * * * * * * * * * * * * * * * * * * * * * * * * //

dimensions      [0 1 -1 0 0 0 0];


internalField   nonuniform List<vector> 
630
(
(1.49487e-05 -0.000201199 -0.00724882)
(-0.000119203 -1.31966e-06 -0.00765018)
(-8.48347e-07 -1.24274e-06 -0.00782264)
(0.000110705 -1.24732e-06 -0.00742681)
(5.42543e-05 0.000348768 -0.0209594)
(-0.000343483 -5.32744e-06 -0.0220691)
(-1.33161e-05 -5.7773e-06 -0.0225864)
(0.000318011 -5.02137e-06 -0.0214177)
(9.68868e-05 -0.000303372 -0.0340343)
(-0.00053989 -1.53835e-05 -0.0357477)
(-3.03164e-05 -1.60277e-05 -0.0366264)
(0.000497313 -1.47433e-05 -0.0346918)
(0.000138149 0.000185278 -0.046481)
(-0.000713185 -2.72205e-05 -0.0487025)
(-4.70609e-05 -2.89664e-05 -0.0499519)
(0.000653462 -2.6142e-05 -0.0472613)
(0.000176565 -8.20265e-05 -0.0583009)
(-0.000866397 -4.26856e-05 -0.0609618)
(-6.1935e-05 -4.54302e-05 -0.0625748)
(0.000789546 -4.1091e-05 -0.0591551)
(0.000212777 -1.24269e-05 -0.0695091)
(-0.00100319 -6.0365e-05 -0.0725559)
(-7.54466e-05 -6.43141e-05 -0.0745189)
(0.000909459 -5.81409e-05 -0.0704118)
(0.0002474 -3.34834e-05 -0.0801255)
(-0.00112454 -8.00115e-05 -0.0835141)
(-8.81031e-05 -8.53375e-05 -0.0858118)
(0.0010145 -7.70542e-05 -0.0810682)
(0.000280989 -4.30496e-05 -0.0901654)
(-0.00123114 -0.000101302 -0.093853)
(-0.000100388 -0.000108208 -0.0964727)
(0.00110571 -9.7519e-05 -0.0911493)
(0.000313919 -5.8223e-05 -0.0996339)
(-0.0013231 -0.000124069 -0.103572)
(-0.000112698 -0.00013261 -0.106505)
(0.00118353 -0.000119361 -0.100662)
(0.000346333 -7.16872e-05 -0.108529)
(-0.00140089 -0.000148218 -0.112664)
(-0.000125188 -0.000158169 -0.115906)
(0.0012487 -0.000142496 -0.109603)
(0.000378128 -8.53228e-05 -0.116857)
(-0.00146602 -0.000173542 -0.121131)
(-0.000137729 -0.000184845 -0.124683)
(0.00130285 -0.000166846 -0.117973)
(0.000409049 -9.95417e-05 -0.124636)
(-0.00152031 -0.000199741 -0.128991)
(-0.000150108 -0.000212896 -0.132858)
(0.00134801 -0.00019214 -0.125786)
(0.000438873 -0.000114746 -0.131896)
(-0.00156409 -0.000226649 -0.136282)
(-0.000162326 -0.000242282 -0.140465)
(0.0013849 -0.000218059 -0.133071)
(0.000467619 -0.00013045 -0.138665)
(-0.00159566 -0.000254271 -0.143042)
(-0.000174768 -0.000272483 -0.147537)
(0.00141191 -0.000244551 -0.139862)
(0.00049556 -0.000145927 -0.14497)
(-0.0016125 -0.000282667 -0.149309)
(-0.000187891 -0.000302972 -0.154104)
(0.00142607 -0.000271781 -0.146191)
(0.000523036 -0.000160961 -0.150837)
(-0.00161291 -0.000311699 -0.155123)
(-0.000201906 -0.00033363 -0.1602)
(0.00142507 -0.000299774 -0.152091)
(0.000550327 -0.000175838 -0.156297)
(-0.00159673 -0.000341127 -0.160521)
(-0.000216824 -0.000364477 -0.16586)
(0.00140825 -0.000328292 -0.157595)
(0.000577562 -0.000190811 -0.161383)
(-0.00156514 -0.000370756 -0.165543)
(-0.00023256 -0.000395427 -0.171122)
(0.00137634 -0.000357085 -0.162736)
(0.000604719 -0.000205758 -0.166128)
(-0.00152015 -0.000400426 -0.170227)
(-0.000248929 -0.000426358 -0.176024)
(0.00133087 -0.000386014 -0.167548)
(0.000631703 -0.000220541 -0.170568)
(-0.00146431 -0.000430004 -0.174611)
(-0.000265675 -0.00045707 -0.180602)
(0.00127392 -0.000414985 -0.172063)
(0.00065837 -0.000235415 -0.174739)
(-0.00140036 -0.000459327 -0.178729)
(-0.000282555 -0.000487338 -0.184893)
(0.00120781 -0.000443857 -0.176312)
(0.000684636 -0.000250892 -0.178673)
(-0.00133089 -0.000488186 -0.182616)
(-0.000299321 -0.000516966 -0.18893)
(0.00113494 -0.000472291 -0.180325)
(0.00071067 -0.000266314 -0.182399)
(-0.00125801 -0.000516392 -0.186302)
(-0.000315715 -0.000545875 -0.192744)
(0.00105741 -0.000500212 -0.184131)
(0.000736544 -0.000280889 -0.185939)
(-0.00118329 -0.00054382 -0.189811)
(-0.000331645 -0.000574038 -0.196363)
(0.000977012 -0.000527959 -0.187755)
(0.00076196 -0.000295446 -0.189318)
(-0.00110788 -0.000570442 -0.193166)
(-0.0003472 -0.000601543 -0.199812)
(0.000895722 -0.000555674 -0.191222)
(0.000786773 -0.000310738 -0.192556)
(-0.0010325 -0.000596079 -0.196385)
(-0.000362461 -0.000628577 -0.203111)
(0.000815622 -0.000582806 -0.194553)
(0.000811266 -0.000326132 -0.19567)
(-0.000957278 -0.000621032 -0.199483)
(-0.000377376 -0.000654152 -0.206279)
(0.000738006 -0.000608485 -0.197767)
(0.000836047 -0.000340475 -0.198668)
(-0.000882108 -0.000645643 -0.202474)
(-0.000392323 -0.000677859 -0.20933)
(0.000661857 -0.000633074 -0.200867)
(0.000861075 -0.000354263 -0.201563)
(-0.000806938 -0.000668835 -0.205372)
(-0.000408302 -0.000700979 -0.212281)
(0.000584827 -0.000658035 -0.203854)
(0.000885788 -0.000367758 -0.204365)
(-0.00073268 -0.000690115 -0.208184)
(-0.000425945 -0.000723564 -0.215139)
(0.000505415 -0.000682442 -0.206732)
(0.000910068 -0.000380877 -0.207082)
(-0.00066137 -0.000709274 -0.210917)
(-0.000444428 -0.000745234 -0.217913)
(0.00042452 -0.00070311 -0.209513)
(0.000935725 -0.000396217 -0.209721)
(-0.000593504 -0.000727681 -0.213577)
(-0.000461409 -0.00076512 -0.220608)
(0.000344463 -0.000725363 -0.212211)
(0.000965742 -0.000411736 -0.21229)
(-0.000528882 -0.000747631 -0.216176)
(-0.000475851 -0.000783715 -0.223224)
(0.000269377 -0.000752602 -0.21485)
(0.000999499 -0.000422593 -0.214791)
(-0.000464526 -0.000768977 -0.218718)
(-0.000490149 -0.000800244 -0.225763)
(0.000203139 -0.000780185 -0.217454)
(0.00103222 -0.000428645 -0.217229)
(-0.000404714 -0.000787129 -0.221232)
(-0.000509521 -0.000817037 -0.228243)
(0.00014613 -0.000799655 -0.22004)
(0.00105747 -0.000439596 -0.219655)
(-0.000355975 -0.000797764 -0.223749)
(-0.000535492 -0.000831624 -0.230696)
(0.000103811 -0.000807734 -0.222627)
(0.00107245 -0.00045906 -0.222124)
(-0.000306158 -0.000805243 -0.226192)
(-0.000562939 -0.000841102 -0.233125)
(6.1563e-05 -0.000826146 -0.225109)
(0.00108455 -0.000470641 -0.224594)
(-0.000246458 -0.000816458 -0.228505)
(-0.000584059 -0.000854108 -0.235539)
(1.63267e-05 -0.000850089 -0.227478)
(0.00109437 -0.00048125 -0.227025)
(-0.000178945 -0.000832673 -0.230719)
(-0.000597358 -0.000865814 -0.237958)
(-3.57474e-05 -0.000875393 -0.229756)
(0.00110595 -0.000482839 -0.2294)
(-0.000110173 -0.000849053 -0.232889)
(-0.000616217 -0.000881036 -0.240385)
(-9.13903e-05 -0.000896186 -0.231975)
(0.00111907 -0.000494696 -0.231784)
(-5.14418e-05 -0.000858809 -0.235092)
(-0.000648536 -0.000888855 -0.242738)
(-0.000136811 -0.000909446 -0.234205)
(0.00113071 -0.000510345 -0.234219)
(-9.7206e-06 -0.000864351 -0.237345)
(-0.000679978 -0.000890725 -0.245034)
(-0.000172394 -0.000925551 -0.236451)
(0.00114678 -0.000517342 -0.236707)
(1.19645e-05 -0.000861188 -0.239629)
(-0.000706371 -0.000897438 -0.247309)
(-0.000201041 -0.000941508 -0.238678)
(0.00118172 -0.00052131 -0.23915)
(3.41853e-05 -0.000870178 -0.24185)
(-0.000726126 -0.000910972 -0.249556)
(-0.000216937 -0.000962754 -0.240882)
(0.00123786 -0.000519277 -0.241536)
(5.82369e-05 -0.000880165 -0.244042)
(-0.000746298 -0.000922104 -0.251684)
(-0.000220323 -0.000978802 -0.243047)
(0.00129527 -0.000550739 -0.243944)
(7.69604e-05 -0.000887618 -0.246247)
(-0.000759325 -0.000919886 -0.25373)
(-0.000228025 -0.000991246 -0.245096)
(0.00133333 -0.000566515 -0.246173)
(9.62652e-05 -0.000884318 -0.248405)
(-0.000768881 -0.000914678 -0.255749)
(-0.000245003 -0.0010068 -0.247026)
(0.00135209 -0.000566246 -0.24819)
(0.000125233 -0.0008784 -0.250435)
(-0.000782028 -0.000921237 -0.257831)
(-0.000274819 -0.0010314 -0.248803)
(0.00136671 -0.00056341 -0.250086)
(0.000162009 -0.000886352 -0.252316)
(-0.000804418 -0.000933791 -0.259904)
(-0.000294937 -0.00105395 -0.250556)
(0.00138835 -0.000562153 -0.251939)
(0.000193054 -0.000894645 -0.254149)
(-0.000820357 -0.000924995 -0.261777)
(-0.000308926 -0.00107258 -0.252335)
(0.00142562 -0.000573408 -0.253782)
(0.000209204 -0.000892768 -0.256008)
(-0.000815017 -0.000921556 -0.263581)
(-0.000316166 -0.00109168 -0.254139)
(0.00146127 -0.000584732 -0.255649)
(0.00022768 -0.000886325 -0.257792)
(-0.00078899 -0.000941141 -0.265406)
(-0.000313487 -0.00109625 -0.255968)
(0.00148484 -0.000607794 -0.25757)
(0.000249115 -0.000880767 -0.259499)
(-0.000779124 -0.000945465 -0.267134)
(-0.00031697 -0.00110411 -0.257688)
(0.00150097 -0.000622249 -0.259376)
(0.000272477 -0.000880485 -0.261124)
(-0.000789765 -0.000931562 -0.268725)
(-0.000330766 -0.00113213 -0.259249)
(0.00151245 -0.0006142 -0.26104)
(0.000295013 -0.000882647 -0.262689)
(-0.000794781 -0.000933774 -0.270302)
(-0.000337922 -0.00116539 -0.260725)
(0.00151981 -0.000611297 -0.262631)
(0.000314407 -0.000878208 -0.26425)
(-0.00078161 -0.000939978 -0.271809)
(-0.000340604 -0.00118552 -0.262142)
(0.0015268 -0.000625477 -0.264158)
(0.000326688 -0.000870421 -0.265827)
(-0.00075647 -0.000938986 -0.273233)
(-0.00033828 -0.00118815 -0.263536)
(0.00153019 -0.000636616 -0.265652)
(0.000327615 -0.000865728 -0.267395)
(-0.000736786 -0.000936862 -0.274571)
(-0.000338398 -0.00120074 -0.264856)
(0.00152309 -0.000659081 -0.26714)
(0.000324891 -0.000865826 -0.268976)
(-0.000736367 -0.000933313 -0.275823)
(-0.000339793 -0.00123243 -0.266101)
(0.00151033 -0.000666315 -0.268491)
(0.000335118 -0.000870894 -0.270518)
(-0.000748338 -0.000933935 -0.277036)
(-0.000332375 -0.00126098 -0.267328)
(0.0015082 -0.000668318 -0.26971)
(0.000337299 -0.000866121 -0.27202)
(-0.000755712 -0.000936115 -0.278171)
(-0.000317841 -0.00127023 -0.268542)
(0.00151998 -0.000667816 -0.270896)
(0.000318991 -0.00083543 -0.273576)
(-0.000749919 -0.00094129 -0.279259)
(-0.000308156 -0.00128302 -0.26966)
(0.00153749 -0.000663851 -0.272056)
(0.000313412 -0.00082252 -0.274943)
(-0.000739958 -0.000931563 -0.280349)
(-0.000295903 -0.00130602 -0.270684)
(0.00154925 -0.00067872 -0.273309)
(0.000325199 -0.000836828 -0.276088)
(-0.000729429 -0.000926944 -0.281465)
(-0.000285252 -0.00133369 -0.271593)
(0.00155753 -0.000714832 -0.274591)
(0.000329291 -0.000845006 -0.277178)
(-0.000719937 -0.000938618 -0.282441)
(-0.00027991 -0.00134959 -0.272425)
(0.00155685 -0.000726076 -0.275709)
(0.000332028 -0.000831205 -0.278207)
(-0.000703726 -0.000934507 -0.283196)
(-0.000276499 -0.00136382 -0.273176)
(0.00155617 -0.0007115 -0.276586)
(0.000339066 -0.000813579 -0.279173)
(-0.000678993 -0.000921245 -0.283843)
(-0.000277297 -0.00138761 -0.273807)
(0.00154905 -0.000705999 -0.2774)
(0.000352315 -0.000806597 -0.28004)
(-0.00064511 -0.000923038 -0.284507)
(-0.000280665 -0.00141325 -0.274333)
(0.00152871 -0.000729582 -0.278256)
(0.000360959 -0.000804045 -0.28083)
(-0.000617067 -0.000927695 -0.285107)
(-0.000279623 -0.00143323 -0.274809)
(0.00149919 -0.000752282 -0.279029)
(0.000350144 -0.000808964 -0.281613)
(-0.0005975 -0.000918423 -0.285563)
(-0.000271766 -0.00144659 -0.275256)
(0.00147081 -0.000747929 -0.279641)
(0.000333861 -0.000798815 -0.28234)
(-0.00057581 -0.000910112 -0.285927)
(-0.00026246 -0.0014561 -0.275633)
(0.00144422 -0.000747759 -0.280167)
(0.000330076 -0.000773523 -0.282972)
(-0.0005475 -0.000919231 -0.286254)
(-0.000260001 -0.00147324 -0.275885)
(0.00141462 -0.000763474 -0.280661)
(0.000354566 -0.000769915 -0.28341)
(-0.000511892 -0.00091453 -0.286505)
(-0.000260701 -0.00149459 -0.276013)
(0.00138589 -0.000769881 -0.281023)
(0.000395007 -0.000768207 -0.283692)
(-0.000474565 -0.000898811 -0.286654)
(-0.000254754 -0.00150587 -0.276057)
(0.00135012 -0.000771838 -0.281273)
(0.000413909 -0.000761844 -0.283932)
(-0.000433824 -0.000900147 -0.28675)
(-0.000250038 -0.00152554 -0.27601)
(0.00131573 -0.000778221 -0.281404)
(0.000410661 -0.000749416 -0.284145)
(-0.000398879 -0.000901563 -0.28671)
(-0.000240233 -0.00154948 -0.275932)
(0.00128204 -0.000787843 -0.281462)
(0.000414994 -0.000735051 -0.284252)
(-0.000371047 -0.000897772 -0.28651)
(-0.000223126 -0.00155215 -0.275799)
(0.00125116 -0.000793607 -0.281422)
(0.000445197 -0.000712489 -0.284195)
(-0.000345568 -0.000894248 -0.286119)
(-0.000218245 -0.00152771 -0.275439)
(0.00122204 -0.000800139 -0.281272)
(0.000498946 -0.000702837 -0.284005)
(0.000104736 -6.53133e-07 -0.00468726)
(1.13967e-05 -4.27959e-07 -0.00401798)
(-9.36114e-05 -5.10721e-07 -0.0048221)
(-1.85205e-05 -6.12984e-07 -0.00451341)
(0.000290606 -2.65834e-06 -0.0141614)
(2.56494e-05 -2.39003e-06 -0.0122979)
(-0.000257677 -2.66647e-06 -0.0145589)
(-4.63849e-05 -3.57673e-06 -0.0137194)
(0.000446426 -8.11398e-06 -0.0237618)
(3.17509e-05 -6.70678e-06 -0.0208334)
(-0.000391892 -7.51039e-06 -0.0244197)
(-6.56777e-05 -9.96756e-06 -0.0231175)
(0.00058097 -1.4127e-05 -0.0334549)
(3.48887e-05 -1.20248e-05 -0.0295489)
(-0.000504953 -1.35491e-05 -0.0343613)
(-8.16889e-05 -1.81283e-05 -0.0326295)
(0.000701114 -2.19247e-05 -0.0431804)
(3.74479e-05 -1.87036e-05 -0.0383707)
(-0.000603636 -2.10943e-05 -0.044319)
(-9.69483e-05 -2.83193e-05 -0.0421776)
(0.000807021 -3.04278e-05 -0.0528617)
(3.88719e-05 -2.59271e-05 -0.0472269)
(-0.000688018 -2.93773e-05 -0.0542112)
(-0.000111045 -3.96636e-05 -0.0516857)
(0.000898929 -3.93102e-05 -0.06242)
(3.86192e-05 -3.33164e-05 -0.0560397)
(-0.000758317 -3.80229e-05 -0.0639556)
(-0.000123545 -5.17366e-05 -0.0610781)
(0.000977161 -4.8257e-05 -0.0717745)
(3.627e-05 -4.06012e-05 -0.0647265)
(-0.000814912 -4.6761e-05 -0.0734705)
(-0.000134055 -6.42242e-05 -0.0702785)
(0.00104222 -5.70403e-05 -0.0808441)
(3.1564e-05 -4.758e-05 -0.0732025)
(-0.00085839 -5.53993e-05 -0.0826757)
(-0.000142269 -7.68904e-05 -0.079212)
(0.00109483 -6.54271e-05 -0.0895556)
(2.44159e-05 -5.4077e-05 -0.0813895)
(-0.000889576 -6.37151e-05 -0.0914999)
(-0.000147998 -8.95363e-05 -0.0878101)
(0.0011359 -7.32998e-05 -0.0978581)
(1.48938e-05 -5.99844e-05 -0.0892282)
(-0.000909585 -7.15773e-05 -0.0998938)
(-0.000151139 -0.000101965 -0.0960223)
(0.00116661 -8.06559e-05 -0.105731)
(3.06456e-06 -6.52172e-05 -0.0966871)
(-0.000919871 -7.90367e-05 -0.107838)
(-0.000151638 -0.000113978 -0.103823)
(0.00118843 -8.74532e-05 -0.113179)
(-1.10456e-05 -6.96177e-05 -0.103763)
(-0.000921978 -8.60744e-05 -0.115341)
(-0.000149618 -0.000125444 -0.111218)
(0.00120285 -9.34599e-05 -0.120224)
(-2.72209e-05 -7.30365e-05 -0.110476)
(-0.000917431 -9.24907e-05 -0.122433)
(-0.000145426 -0.000136289 -0.118229)
(0.00121117 -9.8448e-05 -0.126895)
(-4.49977e-05 -7.54065e-05 -0.116856)
(-0.000907589 -9.80561e-05 -0.12915)
(-0.000139472 -0.000146428 -0.124888)
(0.00121439 -0.000102361 -0.133224)
(-6.3872e-05 -7.6725e-05 -0.122934)
(-0.000893285 -0.000102717 -0.135525)
(-0.000132013 -0.00015573 -0.131226)
(0.00121324 -0.000105213 -0.139237)
(-8.35364e-05 -7.69291e-05 -0.128739)
(-0.000875052 -0.000106518 -0.141587)
(-0.000123086 -0.000164069 -0.137268)
(0.00120838 -0.000106981 -0.14496)
(-0.000103905 -7.58954e-05 -0.134293)
(-0.000853415 -0.000109424 -0.14736)
(-0.000112694 -0.000171366 -0.143034)
(0.00120039 -0.000107595 -0.150413)
(-0.000124938 -7.35476e-05 -0.139617)
(-0.000828882 -0.000111371 -0.152867)
(-0.000100933 -0.000177588 -0.148544)
(0.00118975 -0.000107045 -0.155615)
(-0.000146528 -6.98636e-05 -0.144728)
(-0.00080192 -0.000112333 -0.158127)
(-8.79512e-05 -0.00018269 -0.153817)
(0.00117687 -0.000105338 -0.160582)
(-0.00016852 -6.48513e-05 -0.149642)
(-0.00077291 -0.000112332 -0.163159)
(-7.39405e-05 -0.000186617 -0.158868)
(0.00116207 -0.000102354 -0.165328)
(-0.000190739 -5.8519e-05 -0.154371)
(-0.000742188 -0.000111404 -0.167976)
(-5.91849e-05 -0.000189434 -0.16371)
(0.00114566 -9.82124e-05 -0.16987)
(-0.000213067 -5.09194e-05 -0.158926)
(-0.000710048 -0.000109569 -0.172594)
(-4.40203e-05 -0.000191139 -0.168353)
(0.00112802 -9.29744e-05 -0.174224)
(-0.000235433 -4.2076e-05 -0.163315)
(-0.0006767 -0.000106832 -0.177023)
(-2.87453e-05 -0.000191774 -0.172806)
(0.00110969 -8.65211e-05 -0.178409)
(-0.000257719 -3.21548e-05 -0.167548)
(-0.000642403 -0.000103295 -0.181273)
(-1.35195e-05 -0.000191559 -0.17708)
(0.00109106 -7.90458e-05 -0.182441)
(-0.00027977 -2.12187e-05 -0.171635)
(-0.000607492 -9.91019e-05 -0.185356)
(1.67055e-06 -0.000190422 -0.181189)
(0.00107199 -7.07663e-05 -0.186327)
(-0.000301485 -9.31152e-06 -0.175588)
(-0.000572349 -9.4237e-05 -0.189288)
(1.69953e-05 -0.000188313 -0.185143)
(0.00105172 -6.14917e-05 -0.190072)
(-0.000322712 3.47831e-06 -0.179417)
(-0.000537159 -8.85206e-05 -0.193083)
(3.26209e-05 -0.000185276 -0.188955)
(0.00102983 -5.11688e-05 -0.193687)
(-0.000343209 1.72709e-05 -0.183132)
(-0.000501522 -8.21581e-05 -0.19675)
(4.84286e-05 -0.000181552 -0.192629)
(0.0010064 -3.99976e-05 -0.19718)
(-0.000362804 3.21632e-05 -0.186736)
(-0.000465121 -7.57243e-05 -0.200298)
(6.4057e-05 -0.000177267 -0.196167)
(0.000981282 -2.78354e-05 -0.200558)
(-0.000381622 4.78427e-05 -0.190228)
(-0.000427549 -6.91249e-05 -0.203736)
(7.88589e-05 -0.000171869 -0.199576)
(0.000954275 -1.48591e-05 -0.203819)
(-0.000400156 6.37118e-05 -0.193608)
(-0.000387966 -6.14305e-05 -0.20708)
(9.18314e-05 -0.000165458 -0.202861)
(0.000925599 -1.52156e-06 -0.206979)
(-0.000418701 7.92844e-05 -0.196883)
(-0.000346061 -5.23249e-05 -0.210339)
(0.000102018 -0.000159203 -0.206029)
(0.000895946 1.19025e-05 -0.210064)
(-0.000437236 9.53061e-05 -0.200067)
(-0.000302447 -4.28217e-05 -0.213517)
(0.000109705 -0.000153659 -0.209092)
(0.000868259 2.65645e-05 -0.213066)
(-0.000455445 0.00011293 -0.203172)
(-0.000258952 -3.38544e-05 -0.216599)
(0.000116357 -0.000147339 -0.212067)
(0.000844954 4.27024e-05 -0.215971)
(-0.000471737 0.000131466 -0.206191)
(-0.000216731 -2.68093e-05 -0.219571)
(0.000123863 -0.000138567 -0.214969)
(0.000825268 5.92586e-05 -0.218809)
(-0.000484605 0.000149346 -0.20912)
(-0.000177366 -1.90473e-05 -0.222419)
(0.000132245 -0.000128878 -0.217787)
(0.000806334 7.4174e-05 -0.221618)
(-0.000494563 0.000165697 -0.211974)
(-0.000142724 -8.12474e-06 -0.22514)
(0.000139715 -0.000120937 -0.220508)
(0.000784398 8.92834e-05 -0.224377)
(-0.000504055 0.000182727 -0.214772)
(-0.000112212 4.67132e-06 -0.22776)
(0.00014613 -0.000114152 -0.223136)
(0.000757839 0.000107057 -0.227031)
(-0.000514344 0.000201733 -0.217506)
(-8.036e-05 1.52052e-05 -0.230299)
(0.000149971 -0.00010715 -0.22568)
(0.000726164 0.000124308 -0.229565)
(-0.00052358 0.000221536 -0.22014)
(-4.08331e-05 2.02529e-05 -0.232774)
(0.000150365 -9.82575e-05 -0.228122)
(0.000690251 0.000139624 -0.231988)
(-0.000530266 0.0002374 -0.222657)
(1.9632e-06 2.69087e-05 -0.235186)
(0.000148454 -8.89099e-05 -0.230457)
(0.000649706 0.000154189 -0.234315)
(-0.00053482 0.000251848 -0.225094)
(4.15485e-05 3.53398e-05 -0.237546)
(0.000144915 -7.99399e-05 -0.232704)
(0.000607068 0.000169173 -0.236562)
(-0.000537076 0.000267618 -0.22749)
(7.51493e-05 4.83681e-05 -0.239855)
(0.000140044 -7.31374e-05 -0.234874)
(0.000568637 0.000187268 -0.23871)
(-0.000538659 0.000285167 -0.229848)
(0.000105942 5.50708e-05 -0.242111)
(0.000134879 -6.83555e-05 -0.236974)
(0.000535313 0.000201221 -0.240807)
(-0.000541798 0.000302601 -0.232115)
(0.000136806 5.75165e-05 -0.2443)
(0.00012846 -6.34984e-05 -0.239024)
(0.000504334 0.000207057 -0.242904)
(-0.000544471 0.000317789 -0.234277)
(0.000167128 6.16065e-05 -0.246414)
(0.000121451 -5.55766e-05 -0.241032)
(0.000469767 0.000213146 -0.244953)
(-0.00054352 0.000329927 -0.236353)
(0.000197651 6.8127e-05 -0.248421)
(0.000114569 -4.65799e-05 -0.242982)
(0.000437338 0.00022956 -0.246887)
(-0.000539492 0.000338753 -0.23837)
(0.000228493 7.44473e-05 -0.250328)
(0.000105457 -3.96649e-05 -0.244851)
(0.000408404 0.000247354 -0.248745)
(-0.000535432 0.000347058 -0.240367)
(0.000258199 7.95553e-05 -0.252158)
(9.19929e-05 -3.45308e-05 -0.246645)
(0.000381507 0.000258444 -0.250574)
(-0.000530612 0.000358473 -0.242381)
(0.00028425 8.13228e-05 -0.253956)
(7.1822e-05 -3.12207e-05 -0.248374)
(0.000355157 0.000260933 -0.252361)
(-0.000522659 0.000371711 -0.244402)
(0.000306331 8.3712e-05 -0.255718)
(4.73875e-05 -2.52862e-05 -0.250064)
(0.000330963 0.000265979 -0.254095)
(-0.000514645 0.000382555 -0.246342)
(0.000326629 8.51184e-05 -0.257428)
(2.50104e-05 -1.85018e-05 -0.251729)
(0.000310912 0.000279305 -0.255816)
(-0.000507451 0.000390016 -0.248204)
(0.000346834 8.68699e-05 -0.259094)
(7.42895e-06 -1.54816e-05 -0.253366)
(0.000298682 0.000291113 -0.257531)
(-0.00049693 0.000394335 -0.250012)
(0.000365554 9.10997e-05 -0.260716)
(-9.6268e-06 -1.27931e-05 -0.254967)
(0.000282568 0.000297673 -0.259172)
(-0.000483901 0.00040084 -0.25178)
(0.000378329 9.2774e-05 -0.262285)
(-2.6117e-05 -7.34936e-06 -0.256483)
(0.000260174 0.000302089 -0.260712)
(-0.000471934 0.000410993 -0.253536)
(0.000386787 8.96218e-05 -0.263846)
(-3.9274e-05 -2.81981e-06 -0.25795)
(0.000235173 0.000303592 -0.262213)
(-0.000460765 0.000421616 -0.255274)
(0.000393613 8.74224e-05 -0.265388)
(-5.01535e-05 8.05626e-07 -0.259403)
(0.00021497 0.000308623 -0.263694)
(-0.000455316 0.000424307 -0.256971)
(0.000397541 9.07547e-05 -0.266894)
(-6.29274e-05 4.3477e-06 -0.26082)
(0.000202791 0.000313949 -0.26517)
(-0.000450571 0.000425404 -0.258615)
(0.000399971 8.99094e-05 -0.268348)
(-8.24304e-05 7.20816e-06 -0.262141)
(0.000193847 0.000320979 -0.266588)
(-0.000439165 0.000428591 -0.260199)
(0.000401537 8.9273e-05 -0.269735)
(-0.000105712 1.00084e-05 -0.263349)
(0.000184676 0.000327868 -0.267955)
(-0.00041839 0.000432434 -0.261717)
(0.000403509 9.33994e-05 -0.271074)
(-0.000128856 1.35825e-05 -0.264501)
(0.000175598 0.000331123 -0.269273)
(-0.000397603 0.000433757 -0.263195)
(0.0004032 9.45598e-05 -0.272395)
(-0.000151453 1.4962e-05 -0.265666)
(0.000164299 0.000330276 -0.270543)
(-0.000382453 0.000435268 -0.26466)
(0.000396695 8.59973e-05 -0.273702)
(-0.000171706 1.59314e-05 -0.266874)
(0.000154358 0.000333104 -0.271729)
(-0.000368866 0.000437747 -0.266099)
(0.000388245 8.40456e-05 -0.274952)
(-0.000190141 2.11877e-05 -0.268063)
(0.000145068 0.000338069 -0.272868)
(-0.000351911 0.000437793 -0.267489)
(0.0003813 8.79654e-05 -0.276125)
(-0.000207372 2.44634e-05 -0.26915)
(0.000133457 0.000342787 -0.274015)
(-0.00033242 0.000435595 -0.268851)
(0.000372535 8.86334e-05 -0.277239)
(-0.00022433 2.57706e-05 -0.270115)
(0.000122103 0.000340468 -0.275184)
(-0.000314843 0.000436975 -0.270182)
(0.000360383 8.566e-05 -0.278286)
(-0.000241615 2.72441e-05 -0.270991)
(0.000115929 0.000336588 -0.276319)
(-0.00029779 0.00043858 -0.271473)
(0.000346189 8.56658e-05 -0.279226)
(-0.000261278 2.91572e-05 -0.271808)
(0.0001168 0.000338516 -0.277354)
(-0.000276597 0.000439524 -0.272713)
(0.000333755 8.37996e-05 -0.280085)
(-0.000280783 2.87889e-05 -0.272598)
(0.000128429 0.000344832 -0.27825)
(-0.000252874 0.000440957 -0.273912)
(0.000321964 8.39588e-05 -0.280857)
(-0.000294565 2.81183e-05 -0.27332)
(0.000138546 0.000347694 -0.279032)
(-0.000232526 0.000442157 -0.275055)
(0.000310531 8.63629e-05 -0.281528)
(-0.000305564 3.045e-05 -0.27394)
(0.000139418 0.000345297 -0.279755)
(-0.00022262 0.000444923 -0.276106)
(0.000300024 8.76912e-05 -0.282104)
(-0.000318977 3.51327e-05 -0.274435)
(0.000136987 0.000345222 -0.280386)
(-0.000217186 0.000446484 -0.277028)
(0.000288199 8.79785e-05 -0.282593)
(-0.000336572 3.70248e-05 -0.274793)
(0.000130381 0.000344055 -0.280907)
(-0.000210611 0.000445094 -0.277817)
(0.000274801 8.70411e-05 -0.282977)
(-0.000356713 3.03881e-05 -0.275002)
(0.000118093 0.000343608 -0.281293)
(-0.000201385 0.000446161 -0.278498)
(0.000260648 8.95824e-05 -0.283248)
(-0.000370981 2.53937e-05 -0.275092)
(0.000106259 0.000344675 -0.281535)
(-0.000189843 0.000449768 -0.279069)
(0.000250799 9.64749e-05 -0.283415)
(-0.000373969 2.68691e-05 -0.275082)
(9.70217e-05 0.000340982 -0.281619)
(-0.000179605 0.000450871 -0.279505)
(0.000254403 9.7367e-05 -0.283487)
(-0.000366044 3.2776e-05 -0.274898)
(9.84434e-05 0.000337296 -0.281484)
(-0.000174114 0.000451641 -0.279815)
(0.000277975 8.61751e-05 -0.283429)
(-0.000354058 3.61615e-05 -0.274499)
)
;

boundaryField
{
    leftWall
    {
        type            calculated;
        value           uniform (0 0 0);
    }
    rightWall
    {
        type            calculated;
        value           nonuniform 0();
    }
    leftSides_periodic0
    {
        type            cyclic;
    }
    leftSides_periodic1
    {
        type            cyclic;
    }
    rightSides_periodic0
    {
        type            cyclic;
    }
    rightSides_periodic1
    {
        type            cyclic;
    }
    leftInOut_periodic0
    {
        type            cyclic;
    }
    leftInOut_periodic1
    {
        type            cyclic;
    }
    rightInOut_periodic0
    {
        type            cyclic;
    }
    rightInOut_periodic1
    {
        type            cyclic;
    }
    procBoundary0to1
    {
        type            processor;
        value           nonuniform List<vector> 
11
(
(-0.000320698 -0.000877868 -0.285497)
(-0.000260451 -0.0015312 -0.274544)
(0.00119769 -0.000794415 -0.280917)
(-0.000320698 -0.000877868 -0.285497)
(0.00053309 -0.000706739 -0.283673)
(-0.000320698 -0.000877868 -0.285497)
(-0.000260451 -0.0015312 -0.274544)
(0.000109845 0.000346749 -0.281099)
(-0.000171885 0.000454422 -0.279988)
(0.000288208 8.75371e-05 -0.283115)
(-0.000345064 2.44061e-05 -0.27385)
)
;
    }
    procBoundary0to1throughleftInOut_periodic1
    {
        type            processorCyclic;
        value           uniform (-0.000260451 -0.0015312 -0.274544);
    }
    procBoundary0to2
    {
        type            processor;
        value           nonuniform List<vector> 
316
(
(5.71755e-05 -1.52878e-06 -0.00522652)
(-1.69878e-05 1.0926e-06 -0.00519388)
(-4.27457e-05 -1.54808e-06 -0.00570501)
(1.0023e-05 9.06945e-07 -0.00532522)
(0.00014735 2.22503e-06 -0.0157846)
(-5.59821e-05 7.60966e-06 -0.0157105)
(-0.000104773 2.10244e-06 -0.0171662)
(3.50952e-05 6.40298e-06 -0.01606)
(0.000211682 5.13245e-06 -0.0264912)
(-0.00010232 1.95046e-05 -0.0264085)
(-0.000141432 4.29332e-06 -0.0287244)
(6.73597e-05 1.6365e-05 -0.0269261)
(0.000263271 1.35171e-05 -0.0372957)
(-0.000152308 3.52746e-05 -0.0372325)
(-0.000165772 1.18242e-05 -0.0403229)
(0.000103207 2.9417e-05 -0.0378731)
(0.000309195 2.34589e-05 -0.0481238)
(-0.000203328 5.39739e-05 -0.0480979)
(-0.000184923 2.03372e-05 -0.0518814)
(0.000140095 4.47707e-05 -0.0488185)
(0.000349195 3.57161e-05 -0.0588824)
(-0.00025493 7.53539e-05 -0.058907)
(-0.000198711 3.07632e-05 -0.0633021)
(0.000177653 6.21797e-05 -0.0596642)
(0.000383112 4.9878e-05 -0.0694744)
(-0.000306498 9.91186e-05 -0.0695601)
(-0.000207094 4.2648e-05 -0.0744873)
(0.000215368 8.13989e-05 -0.0703154)
(0.00041095 6.57186e-05 -0.079805)
(-0.000357285 0.0001249 -0.0799617)
(-0.000210208 5.5768e-05 -0.0853454)
(0.000252629 0.000102087 -0.0806851)
(0.000432774 8.29764e-05 -0.0897887)
(-0.000406479 0.000152494 -0.0900269)
(-0.000208271 6.98361e-05 -0.0957955)
(0.000288779 0.000124101 -0.0906985)
(0.000448654 0.000101388 -0.0993586)
(-0.000453356 0.000181692 -0.0996895)
(-0.000201425 8.46254e-05 -0.105777)
(0.000323229 0.000147364 -0.100298)
(0.000458962 0.000120863 -0.108475)
(-0.00049712 0.000212074 -0.10891)
(-0.000190066 0.000100156 -0.115254)
(0.000355556 0.00017153 -0.109449)
(0.00046485 0.000141407 -0.117123)
(-0.000537 0.000243264 -0.117677)
(-0.000175379 0.000116339 -0.124221)
(0.000385353 0.000196172 -0.118141)
(0.000467929 0.000162825 -0.125314)
(-0.000572613 0.000275322 -0.126)
(-0.000159065 0.000132917 -0.132694)
(0.000412256 0.000221338 -0.126385)
(0.00046963 0.000184863 -0.133069)
(-0.000603784 0.000308463 -0.133903)
(-0.000142625 0.000149762 -0.140703)
(0.000435924 0.000247375 -0.1342)
(0.000470833 0.00020738 -0.140411)
(-0.000630542 0.000342518 -0.141403)
(-0.000126899 0.00016683 -0.14827)
(0.000455913 0.000274195 -0.141606)
(0.000471817 0.000230431 -0.147359)
(-0.000653105 0.000377109 -0.148519)
(-0.000112165 0.000184182 -0.155418)
(0.000472037 0.00030135 -0.148622)
(0.000472877 0.000254021 -0.15393)
(-0.000671698 0.000412086 -0.155266)
(-9.86787e-05 0.000201695 -0.162164)
(0.000484358 0.000328664 -0.155263)
(0.000474464 0.000277905 -0.160133)
(-0.000686477 0.000447363 -0.161659)
(-8.6809e-05 0.000219122 -0.168524)
(0.000492899 0.000356115 -0.161541)
(0.00047698 0.000302 -0.165981)
(-0.000697383 0.000482686 -0.167709)
(-7.68781e-05 0.000236419 -0.174516)
(0.000497628 0.000383506 -0.167471)
(0.000480913 0.000325998 -0.171489)
(-0.000704214 0.000518061 -0.17343)
(-6.90462e-05 0.000253821 -0.18016)
(0.000498565 0.000410596 -0.173066)
(0.000486478 0.000349145 -0.176676)
(-0.000706544 0.00055375 -0.178838)
(-6.35355e-05 0.000271012 -0.185478)
(0.000496011 0.000437516 -0.178343)
(0.000493828 0.000372125 -0.181569)
(-0.000703833 0.000589304 -0.183951)
(-6.07371e-05 0.000287534 -0.190487)
(0.000490253 0.000464269 -0.183324)
(0.000502681 0.000395993 -0.186198)
(-0.000695652 0.000623958 -0.18879)
(-6.06555e-05 0.000303264 -0.195206)
(0.000481231 0.000490329 -0.188026)
(0.000511036 0.00042049 -0.19059)
(-0.000682533 0.000657312 -0.193373)
(-6.25102e-05 0.000319006 -0.199653)
(0.000468353 0.000515005 -0.19246)
(0.000516264 0.000443472 -0.194756)
(-0.000666499 0.000691032 -0.197705)
(-6.56488e-05 0.000334549 -0.203842)
(0.000450645 0.000539094 -0.196632)
(0.000518738 0.000463436 -0.198702)
(-0.000649152 0.000726335 -0.201792)
(-7.00683e-05 0.00034894 -0.207787)
(0.000428813 0.000564322 -0.200561)
(0.000523765 0.000481702 -0.202435)
(-0.000630303 0.000759968 -0.205658)
(-7.44395e-05 0.000362874 -0.211515)
(0.000405688 0.000589786 -0.204287)
(0.000535494 0.000500629 -0.205986)
(-0.000607769 0.0007905 -0.209341)
(-7.6639e-05 0.000377108 -0.215076)
(0.000384058 0.000611903 -0.207856)
(0.000552937 0.0005238 -0.209383)
(-0.000581179 0.000818922 -0.212871)
(-7.418e-05 0.000391288 -0.218517)
(0.000365013 0.000629403 -0.211282)
(0.000571348 0.000546865 -0.212612)
(-0.000554395 0.000849789 -0.216245)
(-6.84385e-05 0.000402714 -0.221854)