/*--------------------------------*- C++ -*----------------------------------*\
| =========                 |                                                 |
| \\      /  F ield         | OpenFOAM: The Open Source CFD Toolbox           |
|  \\    /   O peration     | Version:  v1906                                 |
|   \\  /    A nd           | Web:      www.OpenFOAM.com                      |
|    \\/     M anipulation  |                                                 |
\*---------------------------------------------------------------------------*/
FoamFile
{
    version     2.0;
    format      ascii;
    class       volScalarField;
    location    "200";
    object      alphat;
}
// * * * * * * * * * * * * * * * * * * * * * * * * * * * * * * * * * * * * * //

dimensions      [1 -1 -1 0 0 0 0];


internalField   nonuniform List<scalar> 
255960
(
1.75247e-08
1.75826e-08
1.74647e-08
1.76349e-08
1.73967e-08
1.76627e-08
1.75001e-08
1.76872e-08
1.76317e-08
1.76549e-08
1.77297e-08
1.79266e-08
1.81588e-08
1.79491e-08
1.8118e-08
1.7778e-08
1.71682e-08
1.7175e-08
1.75248e-08
1.75827e-08
1.74648e-08
1.76351e-08
1.73968e-08
1.76629e-08
1.75002e-08
1.76874e-08
1.76319e-08
1.76551e-08
1.77298e-08
1.79268e-08
1.8159e-08
1.78273e-08
1.81182e-08
1.77782e-08
1.71684e-08
1.71752e-08
1.7525e-08
1.75829e-08
1.7465e-08
1.76352e-08
1.73969e-08
1.76631e-08
1.75003e-08
1.76875e-08
1.7632e-08
1.76552e-08
1.773e-08
1.79269e-08
1.81592e-08
1.78274e-08
1.81184e-08
1.77783e-08
1.71685e-08
1.71753e-08
1.75251e-08
1.7583e-08
1.74651e-08
1.76354e-08
1.7397e-08
1.76632e-08
1.75005e-08
1.76877e-08
1.76322e-08
1.76553e-08
1.77302e-08
1.7927e-08
1.81594e-08
1.78275e-08
1.81186e-08
1.77785e-08
1.71686e-08
1.71754e-08
1.75252e-08
1.75832e-08
1.74652e-08
1.76355e-08
1.73971e-08
1.76634e-08
1.75006e-08
1.76878e-08
1.76323e-08
1.76555e-08
1.77303e-08
1.79272e-08
1.81595e-08
1.79496e-08
1.81188e-08
1.77786e-08
1.71687e-08
1.71755e-08
6.52217e-08
6.59891e-08
6.42796e-08
6.65216e-08
6.30114e-08
6.66362e-08
6.44003e-08
6.6585e-08
6.58118e-08
6.57644e-08
6.65666e-08
6.66264e-08
6.90466e-08
6.54237e-08
6.64589e-08
6.4001e-08
6.32479e-08
6.43296e-08
6.52255e-08
6.59933e-08
6.42829e-08
6.65261e-08
6.30142e-08
6.66406e-08
6.44036e-08
6.65893e-08
6.58157e-08
6.57682e-08
6.65709e-08
6.66299e-08
6.90513e-08
6.54266e-08
6.64634e-08
6.40043e-08
6.32519e-08
6.43335e-08
6.52292e-08
6.59974e-08
6.4286e-08
6.65304e-08
6.30169e-08
6.66449e-08
6.44068e-08
6.65934e-08
6.58194e-08
6.57719e-08
6.6575e-08
6.66332e-08
6.90558e-08
6.54294e-08
6.64677e-08
6.40074e-08
6.32558e-08
6.43372e-08
6.52327e-08
6.60013e-08
6.42891e-08
6.65345e-08
6.30195e-08
6.6649e-08
6.44098e-08
6.65973e-08
6.58229e-08
6.57755e-08
6.65789e-08
6.66364e-08
6.906e-08
6.54321e-08
6.64717e-08
6.40105e-08
6.32596e-08
6.43408e-08
6.5236e-08
6.60049e-08
6.42921e-08
6.65384e-08
6.3022e-08
6.66529e-08
6.44128e-08
6.6601e-08
6.58263e-08
6.57789e-08
6.65826e-08
6.66395e-08
6.90641e-08
6.54347e-08
6.64756e-08
6.40134e-08
6.32632e-08
6.43442e-08
4.76858e-07
4.81219e-07
4.71647e-07
4.84415e-07
4.64952e-07
4.85092e-07
4.72408e-07
4.84938e-07
4.80551e-07
4.79829e-07
4.84552e-07
4.84945e-07
4.98667e-07
4.76916e-07
4.67608e-07
4.52957e-07
4.50009e-07
4.5661e-07
4.76886e-07
4.8125e-07
4.71671e-07
4.84448e-07
4.64973e-07
4.85125e-07
4.72433e-07
4.84969e-07
4.8058e-07
4.79857e-07
4.84583e-07
4.8497e-07
4.98701e-07
4.76938e-07
4.67641e-07
4.52981e-07
4.50038e-07
4.56638e-07
4.76913e-07
4.8128e-07
4.71695e-07
4.84479e-07
4.64993e-07
4.85157e-07
4.72457e-07
4.85e-07
4.80607e-07
4.79885e-07
4.84614e-07
4.84995e-07
4.98735e-07
4.76959e-07
4.67672e-07
4.53004e-07
4.50067e-07
4.56666e-07
4.76939e-07
4.8131e-07
4.71718e-07
4.8451e-07
4.65013e-07
4.85188e-07
4.7248e-07
4.85029e-07
4.80634e-07
4.79912e-07
4.84643e-07
4.85019e-07
4.98767e-07
4.76979e-07
4.67702e-07
4.53026e-07
4.50096e-07
4.56693e-07
4.76965e-07
4.81338e-07
4.7174e-07
4.8454e-07
4.65032e-07
4.85218e-07
4.72502e-07
4.85058e-07
4.8066e-07
4.79937e-07
4.84672e-07
4.85043e-07
4.98798e-07
4.77e-07
4.67731e-07
4.53048e-07
4.50124e-07
4.56719e-07
2.41319e-06
2.42643e-06
2.39852e-06
2.43747e-06
2.37684e-06
2.44014e-06
2.40187e-06
2.44147e-06
2.42827e-06
2.42382e-06
2.43938e-06
2.44663e-06
2.48907e-06
2.26191e-06
2.31347e-06
2.26158e-06
2.23109e-06
2.25243e-06
2.4133e-06
2.42656e-06
2.39862e-06
2.4376e-06
2.37693e-06
2.44028e-06
2.40197e-06
2.4416e-06
2.42839e-06
2.42394e-06
2.43951e-06
2.44674e-06
2.48922e-06
2.262e-06
2.3136e-06
2.26168e-06
2.23122e-06
2.25255e-06
2.41342e-06
2.42669e-06
2.39872e-06
2.43774e-06
2.37701e-06
2.44041e-06
2.40207e-06
2.44173e-06
2.4285e-06
2.42406e-06
2.43964e-06
2.44684e-06
2.48936e-06
2.41769e-06
2.31373e-06
2.26177e-06
2.23134e-06
2.25267e-06
2.41353e-06
2.42681e-06
2.39882e-06
2.43787e-06
2.37709e-06
2.44054e-06
2.40217e-06
2.44186e-06
2.42862e-06
2.42417e-06
2.43976e-06
2.44695e-06
2.48949e-06
2.26216e-06
2.31386e-06
2.26187e-06
2.23146e-06
2.25278e-06
2.41364e-06
2.42693e-06
2.39892e-06
2.438e-06
2.37718e-06
2.44067e-06
2.40227e-06
2.44198e-06
2.42873e-06
2.42428e-06
2.43988e-06
2.44704e-06
2.48963e-06
2.26224e-06
2.31398e-06
2.26196e-06
2.23158e-06
2.25289e-06
8.56667e-06
8.59344e-06
8.54121e-06
8.62061e-06
8.50136e-06
8.62813e-06
8.55164e-06
8.63738e-06
8.61115e-06
8.59359e-06
8.62945e-06
8.66308e-06
8.75095e-06
8.58433e-06
8.09979e-06
7.96796e-06
7.82717e-06
7.87669e-06
8.56701e-06
8.59381e-06
8.5415e-06
8.621e-06
8.5016e-06
8.62852e-06
8.55193e-06
8.63776e-06
8.61149e-06
8.59393e-06
8.62983e-06
8.66339e-06
8.75136e-06
8.58459e-06
8.10017e-06
7.96824e-06
7.82753e-06
7.87703e-06
8.56734e-06
8.59418e-06
8.54179e-06
8.62139e-06
8.50185e-06
8.62891e-06
8.55222e-06
8.63813e-06
8.61183e-06
8.59427e-06
8.6302e-06
8.66369e-06
8.75177e-06
8.58485e-06
8.10055e-06
7.96852e-06
7.82789e-06
7.87736e-06
8.56767e-06
8.59454e-06
8.54208e-06
8.62178e-06
8.5021e-06
8.6293e-06
8.55251e-06
8.6385e-06
8.61216e-06
8.5946e-06
8.63057e-06
8.66399e-06
8.75216e-06
8.01601e-06
8.10091e-06
7.96879e-06
7.82824e-06
7.8777e-06
8.56799e-06
8.5949e-06
8.54237e-06
8.62216e-06
8.50234e-06
8.62968e-06
8.5528e-06
8.63886e-06
8.61249e-06
8.59493e-06
8.63093e-06
8.66429e-06
8.75256e-06
8.58535e-06
8.10127e-06
7.96906e-06
7.8286e-06
7.87804e-06
2.33906e-05
2.34299e-05
2.33648e-05
2.34832e-05
2.33028e-05
2.34992e-05
2.33893e-05
2.35303e-05
2.34931e-05
2.34408e-05
2.35057e-05
2.35973e-05
2.37294e-05
2.18458e-05
2.19112e-05
2.1645e-05
2.12377e-05
2.13333e-05
2.33914e-05
2.34307e-05
2.33654e-05
2.3484e-05
2.33033e-05
2.35001e-05
2.339e-05
2.35311e-05
2.34939e-05
2.34416e-05
2.35065e-05
2.35979e-05
2.37303e-05
2.18463e-05
2.1912e-05
2.16456e-05
2.12385e-05
2.1334e-05
2.33921e-05
2.34315e-05
2.33661e-05
2.34849e-05
2.33039e-05
2.3501e-05
2.33906e-05
2.35319e-05
2.34946e-05
2.34423e-05
2.35074e-05
2.35986e-05
2.37312e-05
2.18469e-05
2.19128e-05
2.16462e-05
2.12393e-05
2.13348e-05
2.33929e-05
2.34324e-05
2.33668e-05
2.34858e-05
2.33044e-05
2.35019e-05
2.33913e-05
2.35328e-05
2.34954e-05
2.34431e-05
2.35082e-05
2.35993e-05
2.37322e-05
2.18474e-05
2.19137e-05
2.16468e-05
2.12401e-05
2.13356e-05
2.33936e-05
2.34332e-05
2.33674e-05
2.34867e-05
2.3305e-05
2.35027e-05
2.3392e-05
2.35336e-05
2.34962e-05
2.34439e-05
2.3509e-05
2.36e-05
2.37331e-05
2.18479e-05
2.19145e-05
2.16475e-05
2.12409e-05
2.13364e-05
5.24924e-05
5.25338e-05
5.24929e-05
5.26226e-05
5.24305e-05
5.26486e-05
5.25378e-05
5.27206e-05
5.26845e-05
5.25562e-05
5.26542e-05
5.28286e-05
5.29704e-05
5.24592e-05
4.88355e-05
4.83833e-05
4.75238e-05
4.76918e-05
5.24938e-05
5.25354e-05
5.24941e-05
5.26242e-05
5.24316e-05
5.26503e-05
5.25391e-05
5.27222e-05
5.26859e-05
5.25577e-05
5.26558e-05
5.28299e-05
5.29722e-05
5.24603e-05
4.88371e-05
4.83845e-05
4.75253e-05
4.76933e-05
5.24952e-05
5.2537e-05
5.24954e-05
5.26259e-05
5.24326e-05
5.26519e-05
5.25403e-05
5.27238e-05
5.26873e-05
5.25591e-05
5.26574e-05
5.28312e-05
5.29739e-05
4.89211e-05
4.88386e-05
4.83856e-05
4.75269e-05
4.76948e-05
5.24967e-05
5.25386e-05
5.24966e-05
5.26276e-05
5.24337e-05
5.26536e-05
5.25416e-05
5.27254e-05
5.26888e-05
5.25605e-05
5.2659e-05
5.28325e-05
5.29756e-05
5.24625e-05
4.88402e-05
4.83868e-05
4.75285e-05
4.76963e-05
5.24981e-05
5.25401e-05
5.24979e-05
5.26292e-05
5.24347e-05
5.26553e-05
5.25428e-05
5.2727e-05
5.26902e-05
5.2562e-05
5.26606e-05
5.28338e-05
5.29773e-05
4.89231e-05
4.88417e-05
4.8388e-05
4.75301e-05
4.76978e-05
0.000101374
0.000101399
0.000101441
0.000101529
0.000101411
0.000101558
0.000101505
0.000101686
0.000101671
0.000101398
0.000101526
0.000101765
0.000101843
9.42252e-05
9.37843e-05
9.31155e-05
9.17085e-05
9.19898e-05
0.000101377
0.000101401
0.000101443
0.000101532
0.000101413
0.000101561
0.000101507
0.000101689
0.000101674
0.0001014
0.000101529
0.000101767
0.000101846
0.000101071
9.37868e-05
9.31173e-05
9.1711e-05
9.19922e-05
0.000101379
0.000101404
0.000101445
0.000101534
0.000101414
0.000101564
0.000101509
0.000101692
0.000101676
0.000101402
0.000101531
0.000101769
0.000101848
0.000101073
9.37893e-05
9.31192e-05
9.17136e-05
9.19946e-05
0.000101381
0.000101407
0.000101447
0.000101537
0.000101416
0.000101566
0.000101511
0.000101694
0.000101679
0.000101405
0.000101534
0.000101771
0.000101851
0.000101075
9.37918e-05
9.31211e-05
9.17162e-05
9.19971e-05
0.000101384
0.000101409
0.000101449
0.00010154
0.000101418
0.000101569
0.000101513
0.000101697
0.000101681
0.000101407
0.000101537
0.000101773
0.000101854
9.42316e-05
9.37944e-05
9.3123e-05
9.17189e-05
9.19997e-05
0.000174131
0.000174114
0.000174308
0.000174286
0.000174287
0.000174296
0.000174371
0.000174476
0.000174505
0.000173976
0.000174126
0.000174324
0.000174231
0.000173109
0.000160281
0.000159403
0.000157607
0.000158063
0.000174135
0.000174118
0.000174311
0.00017429
0.00017429
0.0001743
0.000174374
0.000174479
0.000174508
0.00017398
0.00017413
0.000174327
0.000174235
0.000173112
0.000160284
0.000159405
0.000157611
0.000158067
0.000174138
0.000174122
0.000174314
0.000174294
0.000174353
0.000174304
0.000174377
0.000174483
0.000174512
0.000173983
0.000174133
0.00017433
0.000174239
0.000173114
0.000160288
0.000159408
0.000157615
0.00015807
0.000174142
0.000174126
0.000174317
0.000174298
0.000174356
0.000174308
0.00017438
0.000174487
0.000174515
0.000173987
0.000174137
0.000174333
0.000174243
0.000173117
0.000160292
0.000159411
0.000157619
0.000158074
0.000174145
0.00017413
0.00017432
0.000174302
0.000174359
0.000174312
0.000174383
0.000174491
0.000174519
0.00017399
0.000174141
0.000174336
0.000174248
0.00017312
0.000160296
0.000159414
0.000157623
0.000158078
0.000272711
0.000272629
0.000273033
0.000272835
0.00027318
0.00027278
0.000273049
0.000272969
0.000273061
0.000272115
0.000272268
0.000272197
0.000271808
0.000270212
0.00024977
0.000248736
0.000247116
0.000247832
0.000272715
0.000272634
0.000273037
0.00027284
0.000273183
0.000272785
0.000273053
0.000272974
0.000273065
0.000272119
0.000272273
0.000272201
0.000271813
0.000270215
0.000249774
0.00024874
0.000247121
0.000247837
0.00027272
0.000272639
0.000273041
0.000272845
0.000273186
0.000272791
0.000273057
0.000272979
0.00027307
0.000272124
0.000272278
0.000272205
0.000271819
0.000270219
0.000249779
0.000248743
0.000247126
0.000247842
0.000272725
0.000272645
0.000273045
0.000272851
0.00027319
0.000272796
0.000273061
0.000272984
0.000273075
0.000272129
0.000272284
0.000272209
0.000271824
0.000270222
0.000249784
0.000248747
0.000247132
0.000247847
0.00027273
0.00027265
0.00027305
0.000272857
0.000273193
0.000272802
0.000273065
0.00027299
0.00027308
0.000272133
0.000272289
0.000272214
0.00027183
0.000270226
0.000249789
0.000248751
0.000247137
0.000247852
0.000396977
0.000396811
0.000397466
0.000397035
0.000397742
0.000396838
0.000397351
0.000396943
0.000397106
0.000395509
0.000395645
0.000394932
0.000394109
0.000391868
0.000361659
0.000360573
0.00036019
0.000361278
0.000396983
0.000396818
0.000397471
0.000397042
0.000397746
0.000396845
0.000397356
0.00039695
0.000397111
0.000395515
0.000395651
0.000394937
0.000394116
0.000391873
0.000361665
0.000360577
0.000360196
0.000361284
0.000396989
0.000396824
0.000397476
0.000397049
0.00039775
0.000396852
0.000397361
0.000396956
0.000397117
0.000395521
0.000395658
0.000394942
0.000394123
0.000391877
0.000361671
0.000360582
0.000360203
0.000361291
0.000396995
0.000396831
0.000397481
0.000397056
0.000397755
0.000396859
0.000397367
0.000396963
0.000397123
0.000395527
0.000395665
0.000394948
0.00039413
0.000391882
0.000361677
0.000360587
0.00036021
0.000361297
0.000397001
0.000396838
0.000397487
0.000397063
0.00039776
0.000396866
0.000397372
0.00039697
0.00039713
0.000395533
0.000395671
0.000394953
0.000394137
0.000391886
0.000361684
0.000360591
0.000360217
0.000361304
0.000545338
0.000545074
0.000545996
0.000545291
0.000546414
0.000544839
0.000545626
0.000544705
0.000544934
0.000542367
0.000542456
0.000540578
0.000539177
0.000536076
0.000492154
0.000491259
0.000495336
0.000496935
0.000545345
0.000545081
0.000546002
0.000545299
0.000546419
0.000544847
0.000545632
0.000544713
0.000544941
0.000542374
0.000542464
0.000540584
0.000539186
0.000536081
0.000492161
0.000491264
0.000495343
0.000496942
0.000545352
0.000545089
0.000546009
0.000545308
0.000546424
0.000544855
0.000545638
0.000544721
0.000544948
0.000542381
0.000542472
0.00054059
0.000539194
0.000536087
0.000492168
0.000491269
0.000495352
0.00049695
0.000545359
0.000545098
0.000546015
0.000545316
0.000546429
0.000544864
0.000545645
0.000544729
0.000544956
0.000542389
0.00054248
0.000540596
0.000539203
0.000536092
0.000492175
0.000491275
0.00049536
0.000496958
0.000545367
0.000545106
0.000546022
0.000545325
0.000546435
0.000544873
0.000545652
0.000544737
0.000544963
0.000542396
0.000542488
0.000540603
0.000539211
0.000536098
0.000492182
0.00049128
0.000495369
0.000496966
0.000715435
0.000715061
0.000716206
0.000715187
0.000716768
0.000714097
0.000715191
0.000713152
0.000713445
0.000708833
0.000708813
0.000703674
0.00070123
0.000643453
0.000636504
0.000636192
0.000648965
0.000651491
0.000715443
0.00071507
0.000716213
0.000715197
0.000716774
0.000714106
0.000715198
0.000713161
0.000713453
0.000708841
0.000708821
0.00070368
0.000701239
0.000643458
0.000636511
0.000636198
0.000648974
0.0006515
0.000715451
0.000715079
0.00071622
0.000715206
0.00071678
0.000714116
0.000715205
0.00071317
0.000713461
0.000708849
0.00070883
0.000703688
0.000701249
0.000643463
0.000636518
0.000636203
0.000648984
0.000651509
0.00071546
0.000715089
0.000716228
0.000715217
0.000716787
0.000714126
0.000715213
0.00071318
0.000713469
0.000708858
0.00070884
0.000703695
0.000701259
0.000643468
0.000636526
0.000636209
0.000648994
0.000651519
0.000715469
0.000715099
0.000716236
0.000715227
0.000716793
0.000714136
0.000715221
0.00071319
0.000713478
0.000708867
0.000708849
0.000703702
0.000701268
0.000643473
0.000636535
0.000636216
0.000649004
0.000651529
0.000902302
0.000901766
0.000903116
0.000901594
0.000903772
0.000899355
0.000900741
0.000896704
0.000896863
0.000889011
0.000888606
0.000879053
0.000875339
0.000799946
0.000790834
0.000791757
0.000816067
0.000819914
0.00090231
0.000901775
0.000903123
0.000901605
0.000903779
0.000899365
0.000900748
0.000896713
0.000896871
0.000889019
0.000888615
0.00087906
0.000875349
0.000868836
0.000790841
0.000791763
0.000816077
0.000819924
0.00090232
0.000901785
0.000903131
0.000901615
0.000903785
0.000899376
0.000900756
0.000896723
0.00089688
0.000889028
0.000888625
0.000879068
0.000875359
0.000868843
0.000790849
0.000791769
0.000816088
0.000819934
0.000902329
0.000901796
0.00090314
0.000901627
0.000903793
0.000899387
0.000900765
0.000896734
0.00089689
0.000889037
0.000888635
0.000879076
0.00087537
0.000799961
0.000790858
0.000791775
0.000816099
0.000819945
0.00090234
0.000901808
0.000903149
0.000901639
0.0009038
0.000899399
0.000900774
0.000896745
0.0008969
0.000889047
0.000888646
0.000879084
0.000875381
0.000868857
0.000790868
0.000791783
0.000816111
0.000819956
0.00110123
0.0011006
0.00110198
0.00110018
0.00110265
0.00109658
0.00109812
0.00109198
0.00109202
0.00108027
0.00107961
0.00106555
0.00106071
0.00105239
0.000954505
0.000956629
0.000993911
0.000999054
0.00110124
0.00110061
0.00110199
0.00110019
0.00110266
0.00109659
0.00109813
0.00109199
0.00109203
0.00108028
0.00107962
0.00106556
0.00106072
0.0010524
0.000954513
0.000956635
0.000993922
0.000999065
0.00110125
0.00110062
0.001102
0.0011002
0.00110267
0.0010966
0.00109814
0.001092
0.00109204
0.00108029
0.00107963
0.00106557
0.00106073
0.000965964
0.000954522
0.000956642
0.000993934
0.000999076
0.00110126
0.00110063
0.00110201
0.00110021
0.00110267
0.00109661
0.00109815
0.00109201
0.00109205
0.0010803
0.00107965
0.00106558
0.00106075
0.00105241
0.000954533
0.000956649
0.000993946
0.000999087
0.00110127
0.00110065
0.00110202
0.00110022
0.00110268
0.00109662
0.00109816
0.00109203
0.00109206
0.00108031
0.00107966
0.00106559
0.00106076
0.00105242
0.000954544
0.000956658
0.000993959
0.0009991
0.00131505
0.00131431
0.00131576
0.00131358
0.00131646
0.00130848
0.00131023
0.00130171
0.00130159
0.00128548
0.0012845
0.00126564
0.00125952
0.00124916
0.00113023
0.00113346
0.00118332
0.00118979
0.00131507
0.00131432
0.00131577
0.00131359
0.00131647
0.00130849
0.00131024
0.00130172
0.0013016
0.00128549
0.00128451
0.00126565
0.00125954
0.00114434
0.00113024
0.00113347
0.00118334
0.0011898
0.00131508
0.00131433
0.00131578
0.00131361
0.00131648
0.0013085
0.00131025
0.00130173
0.00130162
0.00128551
0.00128453
0.00126566
0.00125955
0.00114435
0.00113025
0.00113348
0.00118335
0.00118981
0.00131509
0.00131435
0.00131579
0.00131362
0.00131649
0.00130852
0.00131026
0.00130174
0.00130163
0.00128552
0.00128454
0.00126567
0.00125956
0.00114436
0.00113026
0.00113348
0.00118336
0.00118983
0.00154805
0.00154719
0.00154862
0.00154608
0.0015493
0.00153906
0.00154097
0.00152944
0.00152907
0.00150743
0.00150604
0.00148137
0.00147383
0.00133537
0.00131835
0.00132281
0.00138684
0.00139474
0.00154806
0.0015472
0.00154863
0.00154609
0.00154305
0.00153908
0.00154098
0.00152945
0.00152908
0.00150744
0.00150605
0.00148138
0.00147385
0.00146108
0.00131836
0.00132281
0.00138686
0.00139476
0.00154807
0.00154721
0.00154864
0.0015461
0.00154306
0.00153909
0.00154099
0.00152947
0.0015291
0.00150745
0.00150607
0.00148139
0.00147386
0.00146109
0.00131837
0.00132282
0.00138687
0.00139477
0.00154809
0.00154723
0.00154865
0.00154612
0.00154307
0.00153911
0.001541
0.00152948
0.00152911
0.00150747
0.00150608
0.00148141
0.00147387
0.0014611
0.00131838
0.00132283
0.00138688
0.00139478
0.0015481
0.00154724
0.00154867
0.00154613
0.00154308
0.00153912
0.00154101
0.0015295
0.00152912
0.00150748
0.00150609
0.00148142
0.00147389
0.00146111
0.00131839
0.00132284
0.0013869
0.0013948
0.00180113
0.00180016
0.00180149
0.00179859
0.00180208
0.00178938
0.00179133
0.0017761
0.00177534
0.00174671
0.0017448
0.0017131
0.00170399
0.00168841
0.00151927
0.00152513
0.00160598
0.00161546
0.00180114
0.00180017
0.0018015
0.0017986
0.00180209
0.00178939
0.00179134
0.00177611
0.00177535
0.00174672
0.00174481
0.00171311
0.001704
0.00168842
0.00151928
0.00152513
0.001606
0.00161548
0.00180115
0.00180019
0.00180151
0.00179862
0.0018021
0.00178941
0.00179135
0.00177613
0.00177536
0.00174673
0.00174483
0.00171313
0.00170402
0.00168843
0.00151929
0.00152514
0.00160601
0.00161549
0.00180117
0.00180021
0.00180152
0.00179864
0.00180211
0.00178943
0.00179137
0.00177614
0.00177538
0.00174675
0.00174484
0.00171314
0.00170403
0.00153948
0.0015193
0.00152515
0.00160603
0.00161551
0.00180118
0.00180022
0.00180154
0.00179866
0.00180212
0.00178945
0.00179138
0.00177616
0.00177539
0.00174676
0.00174486
0.00171315
0.00170405
0.00168845
0.00151932
0.00152516
0.00160605
0.00161553
0.00207219
0.00207111
0.00207256
0.00206929
0.002064
0.00205882
0.00206078
0.00204156
0.00204027
0.00200357
0.00200103
0.00196095
0.0019501
0.00193125
0.00173301
0.00174046
0.00184113
0.00185234
0.0020722
0.00207112
0.00207257
0.0020693
0.00206401
0.00205883
0.00206079
0.00204158
0.00204029
0.00200358
0.00200105
0.00196096
0.00195012
0.00193126
0.00173302
0.00174046
0.00184115
0.00185236
0.00207222
0.00207114
0.00207258
0.00206932
0.00206402
0.00205885
0.0020608
0.0020416
0.0020403
0.0020036
0.00200107
0.00196097
0.00195014
0.00193127
0.00173303
0.00174047
0.00184117
0.00185237
0.00207223
0.00207116
0.0020726
0.00206934
0.00206404
0.00205887
0.00206082
0.00204161
0.00204032
0.00200361
0.00200108
0.00196099
0.00195016
0.00193128
0.00173304
0.00174048
0.00184118
0.00185239
0.00207225
0.00207118
0.00207261
0.00206936
0.00206405
0.00205889
0.00206083
0.00204163
0.00204034
0.00200363
0.0020011
0.001961
0.00195018
0.00193129
0.00173306
0.00174049
0.0018412
0.00185241
0.00235312
0.0023519
0.00235401
0.00235044
0.00234534
0.0023396
0.00234195
0.00232159
0.00231984
0.0022775
0.00227432
0.00222483
0.00221211
0.00198687
0.0019596
0.00196882
0.00209258
0.00210564
0.00235314
0.00235192
0.00235402
0.00235046
0.0023551
0.00233961
0.00234196
0.00232161
0.00231985
0.00227752
0.00227434
0.00222484
0.00221213
0.00198687
0.00195961
0.00196883
0.00209259
0.00210566
0.00235315
0.00235194
0.00235403
0.00235048
0.00235511
0.00233963
0.00234198
0.00232162
0.00231987
0.00227754
0.00227436
0.00222486
0.00221215
0.00198688
0.00195962
0.00196883
0.00209261
0.00210568
0.00235317
0.00235196
0.00235405
0.0023505
0.00235513
0.00233965
0.00234199
0.00232164
0.00231988
0.00227755
0.00227438
0.00222487
0.00221216
0.00198689
0.00195964
0.00196885
0.00209263
0.0021057
0.00235319
0.00235198
0.00235407
0.00235052
0.00235514
0.00233967
0.00234201
0.00232166
0.0023199
0.00227757
0.0022744
0.00222489
0.00221219
0.0019869
0.00195965
0.00196886
0.00209266
0.00210572
0.00263609
0.00263482
0.0026372
0.00263353
0.00262938
0.00262371
0.00262666
0.0026065
0.00260524
0.00256402
0.00256077
0.00250324
0.0024885
0.00223044
0.00219938
0.00221059
0.00236025
0.00237527
0.0026361
0.00263483
0.00263722
0.00263354
0.0026384
0.00262372
0.00262667
0.00260652
0.00260526
0.00256404
0.00256079
0.00250326
0.00248852
0.00246187
0.00219939
0.00221059
0.00236027
0.00237529
0.00263612
0.00263485
0.00263723
0.00263356
0.00263841
0.00262374
0.00262669
0.00260653
0.00260527
0.00256405
0.00256081
0.00250327
0.00248854
0.00223045
0.0021994
0.0022106
0.0023603
0.00237531
0.00263614
0.00263487
0.00263724
0.00263358
0.00263843
0.00262376
0.0026267
0.00260655
0.00260529
0.00256407
0.00256083
0.00250329
0.00248857
0.00223046
0.00219942
0.00221062
0.00236032
0.00237534
0.00263616
0.00263489
0.00263726
0.00263361
0.00263844
0.00262379
0.00262672
0.00260657
0.00260531
0.00256409
0.00256085
0.0025033
0.00248859
0.00246191
0.00219944
0.00221063
0.00236034
0.00237536
0.00292342
0.00292205
0.00292436
0.00292036
0.00291532
0.00290913
0.00291218
0.00289431
0.00289379
0.002853
0.00285035
0.00278828
0.00277147
0.00248633
0.00245172
0.00246519
0.00264254
0.00265953
0.00292343
0.00292206
0.00292437
0.00292037
0.00291533
0.00290915
0.00291219
0.00289433
0.00289381
0.00285302
0.00285037
0.0027883
0.00277149
0.00248634
0.00245173
0.0024652
0.00264256
0.00265955
0.00292345
0.00292208
0.00292439
0.00292039
0.00291534
0.00290917
0.0029122
0.00289435
0.00289383
0.00285303
0.00285039
0.00278831
0.00277151
0.00274122
0.00245175
0.00246521
0.00264259
0.00265957
0.00292347
0.00292211
0.0029244
0.00292042
0.00291536
0.00290919
0.00291222
0.00289437
0.00289384
0.00285305
0.00285041
0.00278833
0.00277154
0.00248636
0.00245176
0.00246522
0.00264261
0.0026596
0.00292349
0.00292213
0.00292442
0.00292044
0.00291537
0.00290922
0.00291224
0.00289439
0.00289386
0.00285307
0.00285043
0.00278835
0.00277156
0.00274125
0.00245179
0.00246524
0.00264264
0.00265962
0.003217
0.00321554
0.00321768
0.00321337
0.00320674
0.00320003
0.00320312
0.00318217
0.00318136
0.00314071
0.00313793
0.00307047
0.00305283
0.00274837
0.00271191
0.00272826
0.00293149
0.00295021
0.00321701
0.00321556
0.00321769
0.00321339
0.00320675
0.00320005
0.00320314
0.00318219
0.00318138
0.00314072
0.00313794
0.00307049
0.00305285
0.00302027
0.00271192
0.00272827
0.00293152
0.00295023
0.00321703
0.00321558
0.00321771
0.00321341
0.00320676
0.00320007
0.00320315
0.00318221
0.00318139
0.00314074
0.00313796
0.0030705
0.00305288
0.00302028
0.00271194
0.00272828
0.00293154
0.00295026
0.00321705
0.0032156
0.00321772
0.00321344
0.00320678
0.00320009
0.00320317
0.00318223
0.00318141
0.00314076
0.00313798
0.00307052
0.0030529
0.0030203
0.00271196
0.00272829
0.00293157
0.00295028
0.00321707
0.00321562
0.00321774
0.00321346
0.00320679
0.00320012
0.00320319
0.00318225
0.00318143
0.00314078
0.00313801
0.00307054
0.00305292
0.00302031
0.00271198
0.00272831
0.0029316
0.0029503
0.00351631
0.00351478
0.00351664
0.00351205
0.00351757
0.00349635
0.00349944
0.00347505
0.0034739
0.00342693
0.0034236
0.00335183
0.00333315
0.00301141
0.00297331
0.00299178
0.00322393
0.00324413
0.00351633
0.00351479
0.00351665
0.00351207
0.00351758
0.00349637
0.00349945
0.00347507
0.00347392
0.00342695
0.00342361
0.00335184
0.00333317
0.00301141
0.00297332
0.00299178
0.00322395
0.00324415
0.00351635
0.00351482
0.00351667
0.0035121
0.0035176
0.00349639
0.00349947
0.00347509
0.00347394
0.00342697
0.00342364
0.00335186
0.0033332
0.00301142
0.00297334
0.0029918
0.00322398
0.00324418
0.00351637
0.00351484
0.00351669
0.00351212
0.00351761
0.00349642
0.00349949
0.00347511
0.00347396
0.00342699
0.00342366
0.00335188
0.00333322
0.00301144
0.00297336
0.00299181
0.003224
0.0032442
0.00351639
0.00351487
0.00351671
0.00351215
0.00351763
0.00349645
0.00349951
0.00347514
0.00347398
0.00342701
0.00342368
0.00335189
0.00333324
0.00301145
0.00297339
0.00299183
0.00322403
0.00324423
0.00382067
0.00381907
0.00382057
0.00381574
0.00380512
0.00379743
0.00380043
0.00377226
0.0037707
0.00371674
0.00371279
0.00363306
0.00361293
0.00357672
0.00323044
0.00325169
0.00351548
0.00353747
0.00382069
0.00381909
0.00382059
0.00381577
0.00380513
0.00379745
0.00380045
0.00377228
0.00377072
0.00371676
0.00371281
0.00363308
0.00361295
0.00357674
0.00323045
0.0032517
0.00351551
0.00353749
0.00382071
0.00381912
0.0038206
0.00381579
0.00380515
0.00379748
0.00380047
0.00377231
0.00377074
0.00371678
0.00371283
0.0036331
0.00361297
0.00357675
0.00323046
0.00325171
0.00351554
0.00353752
0.00382073
0.00381914
0.00382062
0.00381582
0.00380516
0.0037975
0.00380048
0.00377233
0.00377076
0.0037168
0.00371286
0.00363311
0.003613
0.00357676
0.00323048
0.00325173
0.00351557
0.00353755
0.00382076
0.00381917
0.00382064
0.00381584
0.00380518
0.00379753
0.00380051
0.00377236
0.00377079
0.00371682
0.00371288
0.00363313
0.00361302
0.00357678
0.00323051
0.00325174
0.0035156
0.00353757
0.00412925
0.00412762
0.00412864
0.00412362
0.00411057
0.00410246
0.00410529
0.00407292
0.00407086
0.00400862
0.004004
0.00391238
0.00389003
0.00352393
0.00348079
0.00350564
0.00380775
0.00383255
0.00412927
0.00412764
0.00412866
0.00412364
0.00411058
0.00410248
0.0041053
0.00407294
0.00407088
0.00400864
0.00400402
0.0039124
0.00389006
0.00352394
0.00348079
0.00350565
0.00380778
0.00383258
0.00412929
0.00412766
0.00412868
0.00412367
0.00411059
0.00410251
0.00410532
0.00407297
0.0040709
0.00400866
0.00400404
0.00391242
0.00389008
0.00352395
0.00348081
0.00350566
0.00380781
0.00383261
0.00412932
0.00412769
0.0041287
0.0041237
0.00411061
0.00410254
0.00410534
0.00407299
0.00407092
0.00400868
0.00400407
0.00391243
0.00389011
0.00352396
0.00348083
0.00350567
0.00380784
0.00383263
0.00412934
0.00412772
0.00412872
0.00412373
0.00411063
0.00410257
0.00410536
0.00407302
0.00407095
0.00400871
0.0040041
0.00391245
0.00389013
0.00352398
0.00348085
0.00350569
0.00380787
0.00383266
0.0044413
0.00443964
0.00444008
0.00443492
0.00441885
0.0044104
0.00441295
0.00437557
0.0043729
0.00430186
0.0042965
0.00419223
0.00416764
0.00412285
0.00372584
0.00375497
0.00410487
0.0041326
0.00444132
0.00443966
0.0044401
0.00443494
0.00441886
0.00441042
0.00441297
0.0043756
0.00437292
0.00430188
0.00429652
0.00419225
0.00416766
0.00377233
0.00372585
0.00375498
0.0041049
0.00413264
0.00444134
0.00443969
0.00444012
0.00443497
0.00441888
0.00441045
0.00441298
0.00437562
0.00437295
0.0043019
0.00429655
0.00419227
0.00416769
0.00377234
0.00372586
0.00375499
0.00410493
0.00413267
0.00444137
0.00443972
0.00444014
0.004435
0.0044189
0.00441048
0.00441301
0.00437565
0.00437297
0.00430192
0.00429657
0.00419229
0.00416772
0.00412289
0.00372588
0.003755
0.00410496
0.0041327
0.00444139
0.00443975
0.00444017
0.00443503
0.00441892
0.00441051
0.00441303
0.00437568
0.004373
0.00430195
0.0042966
0.00419231
0.00416774
0.00377237
0.00372591
0.00375502
0.004105
0.00413273
0.00475496
0.00475332
0.00475297
0.00474776
0.0047281
0.00471946
0.00472157
0.0046792
0.00467582
0.00459584
0.0045897
0.00447209
0.00444523
0.00439586
0.00397126
0.00400499
0.00440625
0.00443703
0.00475498
0.00475334
0.00475299
0.00474779
0.00472812
0.00471948
0.00472159
0.00467923
0.00467585
0.00459586
0.00458972
0.00447211
0.00444526
0.00439588
0.00397126
0.00400499
0.00440628
0.00443706
0.004755
0.00475337
0.00475301
0.00474781
0.00472814
0.00471951
0.00472161
0.00467925
0.00467587
0.00459588
0.00458974
0.00447213
0.00444528
0.00439589
0.00397127
0.004005
0.00440631
0.0044371
0.00475503
0.0047534
0.00475303
0.00474785
0.00472815
0.00471954
0.00472163
0.00467928
0.00467589
0.00459591
0.00458977
0.00447216
0.00444531
0.00439591
0.0039713
0.00400502
0.00440635
0.00443713
0.00475506
0.00475343
0.00475306
0.00474788
0.00472818
0.00471958
0.00472166
0.00467931
0.00467592
0.00459593
0.0045898
0.00447218
0.00444534
0.00439593
0.00397133
0.00400504
0.00440638
0.00443716
0.00506949
0.00506792
0.00506663
0.00506149
0.00506595
0.00502955
0.0050311
0.00498356
0.00497938
0.00489001
0.00488303
0.00475146
0.00472231
0.00426955
0.00421668
0.00425532
0.00471135
0.00474528
0.00506952
0.00506795
0.00506665
0.00506152
0.00506596
0.00502958
0.00503112
0.00498358
0.0049794
0.00489004
0.00488305
0.00475148
0.00472234
0.00426955
0.00421668
0.00425532
0.00471139
0.00474531
0.00506954
0.00506797
0.00506668
0.00506155
0.00506598
0.00502961
0.00503114
0.00498361
0.00497942
0.00489006
0.00488308
0.0047515
0.00472237
0.00426956
0.00421669
0.00425533
0.00471143
0.00474535
0.00506957
0.005068
0.0050667