/*--------------------------------*- C++ -*----------------------------------*\
| =========                 |                                                 |
| \\      /  F ield         | OpenFOAM: The Open Source CFD Toolbox           |
|  \\    /   O peration     | Version:  v1906                                 |
|   \\  /    A nd           | Web:      www.OpenFOAM.com                      |
|    \\/     M anipulation  |                                                 |
\*---------------------------------------------------------------------------*/
FoamFile
{
    version     2.0;
    format      ascii;
    class       volScalarField;
    location    "200";
    object      nut;
}
// * * * * * * * * * * * * * * * * * * * * * * * * * * * * * * * * * * * * * //

dimensions      [0 2 -1 0 0 0 0];


internalField   nonuniform List<scalar> 
255960
(
1.49465e-11
1.49956e-11
1.48957e-11
1.504e-11
1.48382e-11
1.50638e-11
1.4926e-11
1.50848e-11
1.50378e-11
1.50577e-11
1.51212e-11
1.52894e-11
1.54866e-11
1.53091e-11
1.54505e-11
1.51614e-11
1.46416e-11
1.46469e-11
1.49466e-11
1.49957e-11
1.48959e-11
1.50402e-11
1.48383e-11
1.5064e-11
1.49261e-11
1.50849e-11
1.50379e-11
1.50578e-11
1.51213e-11
1.52896e-11
1.54868e-11
1.52041e-11
1.54507e-11
1.51615e-11
1.46417e-11
1.4647e-11
1.49468e-11
1.49959e-11
1.4896e-11
1.50403e-11
1.48384e-11
1.50641e-11
1.49262e-11
1.5085e-11
1.5038e-11
1.50579e-11
1.51215e-11
1.52897e-11
1.54869e-11
1.52042e-11
1.54508e-11
1.51617e-11
1.46418e-11
1.46471e-11
1.49469e-11
1.4996e-11
1.48961e-11
1.50405e-11
1.48385e-11
1.50642e-11
1.49263e-11
1.50852e-11
1.50381e-11
1.50581e-11
1.51216e-11
1.52898e-11
1.54871e-11
1.52043e-11
1.5451e-11
1.51618e-11
1.46419e-11
1.46472e-11
1.4947e-11
1.49961e-11
1.48962e-11
1.50406e-11
1.48386e-11
1.50644e-11
1.49264e-11
1.50853e-11
1.50382e-11
1.50582e-11
1.51217e-11
1.52899e-11
1.54872e-11
1.53095e-11
1.54511e-11
1.51619e-11
1.4642e-11
1.46473e-11
5.54339e-11
5.60854e-11
5.46341e-11
5.65375e-11
5.35576e-11
5.6635e-11
5.47369e-11
5.65914e-11
5.5935e-11
5.58963e-11
5.65774e-11
5.66266e-11
5.86812e-11
5.56057e-11
5.64751e-11
5.43886e-11
5.37587e-11
5.46772e-11
5.54372e-11
5.6089e-11
5.46369e-11
5.65413e-11
5.35599e-11
5.66388e-11
5.47397e-11
5.6595e-11
5.59383e-11
5.58995e-11
5.6581e-11
5.66296e-11
5.86852e-11
5.56081e-11
5.64789e-11
5.43914e-11
5.37621e-11
5.46804e-11
5.54403e-11
5.60924e-11
5.46396e-11
5.65449e-11
5.35622e-11
5.66425e-11
5.47425e-11
5.65985e-11
5.59414e-11
5.59027e-11
5.65845e-11
5.66324e-11
5.8689e-11
5.56105e-11
5.64825e-11
5.43941e-11
5.37654e-11
5.46836e-11
5.54432e-11
5.60957e-11
5.46422e-11
5.65484e-11
5.35644e-11
5.66459e-11
5.47451e-11
5.66018e-11
5.59444e-11
5.59057e-11
5.65878e-11
5.66351e-11
5.86926e-11
5.56128e-11
5.6486e-11
5.43966e-11
5.37686e-11
5.46866e-11
5.54461e-11
5.60988e-11
5.46447e-11
5.65517e-11
5.35666e-11
5.66493e-11
5.47476e-11
5.6605e-11
5.59473e-11
5.59086e-11
5.6591e-11
5.66377e-11
5.86961e-11
5.56151e-11
5.64893e-11
5.43991e-11
5.37717e-11
5.46896e-11
4.04264e-10
4.07953e-10
3.99856e-10
4.10657e-10
3.94194e-10
4.11232e-10
4.00502e-10
4.11103e-10
4.07392e-10
4.06791e-10
4.10788e-10
4.11105e-10
4.22713e-10
4.04308e-10
3.96316e-10
3.83921e-10
3.81505e-10
3.87095e-10
4.04287e-10
4.0798e-10
3.99876e-10
4.10685e-10
3.94212e-10
4.1126e-10
4.00523e-10
4.1113e-10
4.07416e-10
4.06815e-10
4.10814e-10
4.11127e-10
4.22742e-10
4.04326e-10
3.96343e-10
3.83941e-10
3.81531e-10
3.87119e-10
4.0431e-10
4.08005e-10
3.99897e-10
4.10712e-10
3.94229e-10
4.11287e-10
4.00543e-10
4.11155e-10
4.0744e-10
4.06838e-10
4.1084e-10
4.11148e-10
4.2277e-10
4.04344e-10
3.9637e-10
3.83961e-10
3.81555e-10
3.87142e-10
4.04333e-10
4.0803e-10
3.99916e-10
4.10738e-10
3.94245e-10
4.11313e-10
4.00563e-10
4.1118e-10
4.07462e-10
4.06861e-10
4.10865e-10
4.11168e-10
4.22798e-10
4.04361e-10
3.96395e-10
3.8398e-10
3.81579e-10
3.87165e-10
4.04354e-10
4.08054e-10
3.99935e-10
4.10763e-10
3.94262e-10
4.11339e-10
4.00582e-10
4.11205e-10
4.07484e-10
4.06883e-10
4.10889e-10
4.11188e-10
4.22824e-10
4.04378e-10
3.9642e-10
3.83998e-10
3.81603e-10
3.87187e-10
2.04148e-09
2.05264e-09
2.02913e-09
2.06195e-09
2.01086e-09
2.06422e-09
2.03197e-09
2.06535e-09
2.05423e-09
2.05053e-09
2.06365e-09
2.0697e-09
2.10545e-09
1.91324e-09
1.95661e-09
1.91286e-09
1.88741e-09
1.90544e-09
2.04158e-09
2.05275e-09
2.02921e-09
2.06206e-09
2.01093e-09
2.06433e-09
2.03206e-09
2.06546e-09
2.05433e-09
2.05063e-09
2.06376e-09
2.06979e-09
2.10558e-09
1.91331e-09
1.95672e-09
1.91295e-09
1.88751e-09
1.90554e-09
2.04168e-09
2.05286e-09
2.0293e-09
2.06217e-09
2.011e-09
2.06445e-09
2.03214e-09
2.06557e-09
2.05443e-09
2.05073e-09
2.06387e-09
2.06988e-09
2.10569e-09
2.04525e-09
1.95683e-09
1.91303e-09
1.88761e-09
1.90564e-09
2.04177e-09
2.05296e-09
2.02938e-09
2.06229e-09
2.01107e-09
2.06456e-09
2.03223e-09
2.06568e-09
2.05452e-09
2.05082e-09
2.06397e-09
2.06996e-09
2.10581e-09
1.91345e-09
1.95694e-09
1.91311e-09
1.88772e-09
1.90573e-09
2.04187e-09
2.05306e-09
2.02946e-09
2.06239e-09
2.01114e-09
2.06467e-09
2.03231e-09
2.06578e-09
2.05462e-09
2.05092e-09
2.06408e-09
2.07005e-09
2.10592e-09
1.91351e-09
1.95704e-09
1.91319e-09
1.88782e-09
1.90583e-09
7.23267e-09
7.25513e-09
7.21134e-09
7.27797e-09
7.17796e-09
7.28436e-09
7.22019e-09
7.2922e-09
7.27022e-09
7.2556e-09
7.28574e-09
7.31384e-09
7.38752e-09
7.24738e-09
6.83692e-09
6.72614e-09
6.60813e-09
6.64995e-09
7.23295e-09
7.25544e-09
7.21159e-09
7.2783e-09
7.17817e-09
7.28469e-09
7.22044e-09
7.29252e-09
7.2705e-09
7.25589e-09
7.28606e-09
7.31409e-09
7.38787e-09
7.2476e-09
6.83724e-09
6.72637e-09
6.60843e-09
6.65023e-09
7.23323e-09
7.25575e-09
7.21183e-09
7.27863e-09
7.17838e-09
7.28502e-09
7.22068e-09
7.29284e-09
7.27079e-09
7.25617e-09
7.28638e-09
7.31435e-09
7.38822e-09
7.24782e-09
6.83756e-09
6.72661e-09
6.60874e-09
6.65052e-09
7.23351e-09
7.25606e-09
7.21207e-09
7.27895e-09
7.17858e-09
7.28535e-09
7.22093e-09
7.29315e-09
7.27107e-09
7.25645e-09
7.28669e-09
7.3146e-09
7.38855e-09
6.76696e-09
6.83786e-09
6.72684e-09
6.60904e-09
6.6508e-09
7.23379e-09
7.25636e-09
7.21231e-09
7.27927e-09
7.17879e-09
7.28567e-09
7.22117e-09
7.29345e-09
7.27134e-09
7.25673e-09
7.28699e-09
7.31485e-09
7.38888e-09
7.24824e-09
6.83817e-09
6.72707e-09
6.60934e-09
6.65109e-09
1.97134e-08
1.97462e-08
1.9692e-08
1.97909e-08
1.96402e-08
1.98045e-08
1.97128e-08
1.98308e-08
1.97999e-08
1.97564e-08
1.98107e-08
1.98871e-08
1.99973e-08
1.84096e-08
1.84629e-08
1.82398e-08
1.78981e-08
1.7979e-08
1.9714e-08
1.97469e-08
1.96926e-08
1.97916e-08
1.96407e-08
1.98053e-08
1.97133e-08
1.98315e-08
1.98005e-08
1.9757e-08
1.98114e-08
1.98877e-08
1.99981e-08
1.841e-08
1.84636e-08
1.82403e-08
1.78988e-08
1.79796e-08
1.97147e-08
1.97476e-08
1.96931e-08
1.97924e-08
1.96412e-08
1.9806e-08
1.97139e-08
1.98322e-08
1.98011e-08
1.97577e-08
1.98121e-08
1.98883e-08
1.99989e-08
1.84105e-08
1.84643e-08
1.82409e-08
1.78995e-08
1.79803e-08
1.97153e-08
1.97483e-08
1.96937e-08
1.97931e-08
1.96416e-08
1.98068e-08
1.97145e-08
1.98329e-08
1.98018e-08
1.97583e-08
1.98128e-08
1.98888e-08
1.99997e-08
1.84109e-08
1.8465e-08
1.82414e-08
1.79002e-08
1.79809e-08
1.97159e-08
1.9749e-08
1.96942e-08
1.97938e-08
1.96421e-08
1.98075e-08
1.9715e-08
1.98336e-08
1.98024e-08
1.97589e-08
1.98135e-08
1.98894e-08
2.00004e-08
1.84113e-08
1.84657e-08
1.82419e-08
1.79009e-08
1.79816e-08
4.41771e-08
4.42115e-08
4.41782e-08
4.42857e-08
4.41265e-08
4.4308e-08
4.42163e-08
4.43689e-08
4.43391e-08
4.42324e-08
4.43144e-08
4.44596e-08
4.45769e-08
4.41481e-08
4.10922e-08
4.0714e-08
3.99932e-08
4.01356e-08
4.41783e-08
4.42128e-08
4.41792e-08
4.42871e-08
4.41274e-08
4.43093e-08
4.42173e-08
4.43703e-08
4.43403e-08
4.42336e-08
4.43157e-08
4.44607e-08
4.45783e-08
4.4149e-08
4.10935e-08
4.0715e-08
3.99945e-08
4.01368e-08
4.41795e-08
4.42141e-08
4.41802e-08
4.42885e-08
4.41283e-08
4.43107e-08
4.42183e-08
4.43716e-08
4.43415e-08
4.42348e-08
4.43171e-08
4.44618e-08
4.45798e-08
4.11675e-08
4.10949e-08
4.07159e-08
3.99958e-08
4.0138e-08
4.41807e-08
4.42154e-08
4.41813e-08
4.42899e-08
4.41292e-08
4.43121e-08
4.42194e-08
4.43729e-08
4.43427e-08
4.4236e-08
4.43184e-08
4.44628e-08
4.45812e-08
4.41509e-08
4.10962e-08
4.07169e-08
3.99971e-08
4.01393e-08
4.41819e-08
4.42168e-08
4.41823e-08
4.42913e-08
4.41301e-08
4.43136e-08
4.42205e-08
4.43743e-08
4.43439e-08
4.42373e-08
4.43197e-08
4.44639e-08
4.45827e-08
4.11691e-08
4.10975e-08
4.07179e-08
3.99984e-08
4.01405e-08
8.52248e-08
8.52445e-08
8.52819e-08
8.53531e-08
8.52578e-08
8.53786e-08
8.53362e-08
8.54869e-08
8.54754e-08
8.52474e-08
8.53547e-08
8.5553e-08
8.56151e-08
7.92064e-08
7.88305e-08
7.8272e-08
7.70925e-08
7.73313e-08
8.52268e-08
8.52466e-08
8.52836e-08
8.53554e-08
8.52592e-08
8.53808e-08
8.53379e-08
8.5489e-08
8.54773e-08
8.52493e-08
8.53568e-08
8.55548e-08
8.56175e-08
8.49687e-08
7.88326e-08
7.82735e-08
7.70946e-08
7.73333e-08
8.52287e-08
8.52488e-08
8.52853e-08
8.53576e-08
8.52607e-08
8.53831e-08
8.53396e-08
8.54912e-08
8.54793e-08
8.52513e-08
8.5359e-08
8.55565e-08
8.56198e-08
8.49702e-08
7.88347e-08
7.82751e-08
7.70967e-08
7.73353e-08
8.52307e-08
8.52509e-08
8.5287e-08
8.536e-08
8.52621e-08
8.53854e-08
8.53413e-08
8.54934e-08
8.54813e-08
8.52533e-08
8.53612e-08
8.55583e-08
8.56222e-08
8.49717e-08
7.88368e-08
7.82767e-08
7.7099e-08
7.73374e-08
8.52327e-08
8.52532e-08
8.52888e-08
8.53623e-08
8.52637e-08
8.53878e-08
8.53431e-08
8.54956e-08
8.54833e-08
8.52553e-08
8.53634e-08
8.55601e-08
8.56246e-08
7.92118e-08
7.88389e-08
7.82783e-08
7.71012e-08
7.73396e-08
1.46279e-07
1.46263e-07
1.46429e-07
1.46407e-07
1.46414e-07
1.46416e-07
1.46483e-07
1.46568e-07
1.46595e-07
1.46154e-07
1.46278e-07
1.46441e-07
1.46359e-07
1.45419e-07
1.34621e-07
1.33889e-07
1.32384e-07
1.32772e-07
1.46282e-07
1.46266e-07
1.46431e-07
1.4641e-07
1.46416e-07
1.4642e-07
1.46485e-07
1.46572e-07
1.46598e-07
1.46157e-07
1.46282e-07
1.46444e-07
1.46362e-07
1.45421e-07
1.34624e-07
1.33891e-07
1.32388e-07
1.32775e-07
1.46285e-07
1.4627e-07
1.46434e-07
1.46413e-07
1.46469e-07
1.46423e-07
1.46488e-07
1.46575e-07
1.466e-07
1.4616e-07
1.46285e-07
1.46447e-07
1.46366e-07
1.45423e-07
1.34628e-07
1.33894e-07
1.32391e-07
1.32778e-07
1.46287e-07
1.46273e-07
1.46436e-07
1.46417e-07
1.46471e-07
1.46426e-07
1.4649e-07
1.46578e-07
1.46603e-07
1.46163e-07
1.46288e-07
1.46449e-07
1.46369e-07
1.45426e-07
1.34631e-07
1.33896e-07
1.32394e-07
1.32781e-07
1.4629e-07
1.46276e-07
1.46439e-07
1.4642e-07
1.46474e-07
1.4643e-07
1.46493e-07
1.46581e-07
1.46606e-07
1.46166e-07
1.46291e-07
1.46452e-07
1.46373e-07
1.45428e-07
1.34634e-07
1.33898e-07
1.32397e-07
1.32784e-07
2.28966e-07
2.28895e-07
2.29238e-07
2.29066e-07
2.29364e-07
2.29022e-07
2.29254e-07
2.29183e-07
2.29263e-07
2.28473e-07
2.28601e-07
2.28537e-07
2.28203e-07
2.26867e-07
2.0967e-07
2.0881e-07
2.07453e-07
2.08061e-07
2.28969e-07
2.28899e-07
2.29242e-07
2.29071e-07
2.29367e-07
2.29026e-07
2.29257e-07
2.29187e-07
2.29266e-07
2.28477e-07
2.28605e-07
2.28541e-07
2.28208e-07
2.2687e-07
2.09674e-07
2.08813e-07
2.07457e-07
2.08065e-07
2.28973e-07
2.28904e-07
2.29245e-07
2.29075e-07
2.2937e-07
2.29031e-07
2.2926e-07
2.29191e-07
2.2927e-07
2.28481e-07
2.28609e-07
2.28544e-07
2.28212e-07
2.26872e-07
2.09678e-07
2.08816e-07
2.07461e-07
2.08069e-07
2.28977e-07
2.28908e-07
2.29249e-07
2.2908e-07
2.29373e-07
2.29036e-07
2.29264e-07
2.29196e-07
2.29274e-07
2.28485e-07
2.28614e-07
2.28548e-07
2.28217e-07
2.26875e-07
2.09683e-07
2.08819e-07
2.07466e-07
2.08073e-07
2.28981e-07
2.28913e-07
2.29252e-07
2.29085e-07
2.29376e-07
2.2904e-07
2.29267e-07
2.292e-07
2.29278e-07
2.28489e-07
2.28618e-07
2.28551e-07
2.28222e-07
2.26879e-07
2.09687e-07
2.08822e-07
2.0747e-07
2.08078e-07
3.33167e-07
3.33026e-07
3.33581e-07
3.33212e-07
3.33817e-07
3.33048e-07
3.33486e-07
3.3314e-07
3.3328e-07
3.31947e-07
3.32059e-07
3.31457e-07
3.30757e-07
3.28881e-07
3.03478e-07
3.02576e-07
3.02256e-07
3.03179e-07
3.33172e-07
3.33031e-07
3.33585e-07
3.33218e-07
3.3382e-07
3.33054e-07
3.33491e-07
3.33145e-07
3.33285e-07
3.31952e-07
3.32065e-07
3.31461e-07
3.30762e-07
3.28884e-07
3.03483e-07
3.0258e-07
3.02261e-07
3.03184e-07
3.33177e-07
3.33036e-07
3.33589e-07
3.33223e-07
3.33824e-07
3.3306e-07
3.33495e-07
3.33151e-07
3.3329e-07
3.31957e-07
3.3207e-07
3.31466e-07
3.30768e-07
3.28888e-07
3.03488e-07
3.02584e-07
3.02267e-07
3.0319e-07
3.33182e-07
3.33042e-07
3.33594e-07
3.33229e-07
3.33828e-07
3.33066e-07
3.33499e-07
3.33157e-07
3.33295e-07
3.31962e-07
3.32076e-07
3.3147e-07
3.30774e-07
3.28892e-07
3.03493e-07
3.02588e-07
3.02273e-07
3.03195e-07
3.33187e-07
3.33048e-07
3.33598e-07
3.33235e-07
3.33831e-07
3.33072e-07
3.33504e-07
3.33162e-07
3.333e-07
3.31967e-07
3.32082e-07
3.31475e-07
3.3078e-07
3.28896e-07
3.03499e-07
3.02592e-07
3.02279e-07
3.03201e-07
4.57547e-07
4.57322e-07
4.58104e-07
4.57502e-07
4.58459e-07
4.57125e-07
4.57796e-07
4.57018e-07
4.57215e-07
4.55071e-07
4.55143e-07
4.53563e-07
4.52375e-07
4.4978e-07
4.12863e-07
4.12124e-07
4.15542e-07
4.16896e-07
4.57553e-07
4.57329e-07
4.58109e-07
4.57509e-07
4.58464e-07
4.57132e-07
4.57801e-07
4.57025e-07
4.57221e-07
4.55077e-07
4.55149e-07
4.53568e-07
4.52382e-07
4.49784e-07
4.12868e-07
4.12128e-07
4.15548e-07
4.16903e-07
4.57559e-07
4.57335e-07
4.58114e-07
4.57516e-07
4.58468e-07
4.57139e-07
4.57806e-07
4.57031e-07
4.57227e-07
4.55083e-07
4.55156e-07
4.53574e-07
4.52389e-07
4.49788e-07
4.12874e-07
4.12133e-07
4.15555e-07
4.16909e-07
4.57565e-07
4.57342e-07
4.58119e-07
4.57523e-07
4.58473e-07
4.57146e-07
4.57812e-07
4.57038e-07
4.57233e-07
4.55089e-07
4.55163e-07
4.53579e-07
4.52397e-07
4.49793e-07
4.1288e-07
4.12137e-07
4.15562e-07
4.16916e-07
4.57571e-07
4.57349e-07
4.58125e-07
4.57531e-07
4.58477e-07
4.57154e-07
4.57817e-07
4.57045e-07
4.57239e-07
4.55095e-07
4.5517e-07
4.53584e-07
4.52404e-07
4.49798e-07
4.12887e-07
4.12142e-07
4.1557e-07
4.16923e-07
6.00128e-07
5.9981e-07
6.00781e-07
5.99914e-07
6.01259e-07
5.99002e-07
5.99932e-07
5.98216e-07
5.98467e-07
5.94611e-07
5.9459e-07
5.90277e-07
5.88212e-07
5.397e-07
5.33843e-07
5.33597e-07
5.44302e-07
5.46438e-07
6.00135e-07
5.99818e-07
6.00786e-07
5.99921e-07
6.01264e-07
5.9901e-07
5.99938e-07
5.98224e-07
5.98474e-07
5.94617e-07
5.94598e-07
5.90283e-07
5.8822e-07
5.39703e-07
5.33849e-07
5.33601e-07
5.4431e-07
5.46445e-07
6.00142e-07
5.99826e-07
6.00792e-07
5.9993e-07
6.01269e-07
5.99018e-07
5.99944e-07
5.98231e-07
5.98481e-07
5.94624e-07
5.94605e-07
5.90289e-07
5.88228e-07
5.39707e-07
5.33855e-07
5.33606e-07
5.44318e-07
5.46453e-07
6.00149e-07
5.99834e-07
6.00799e-07
5.99938e-07
6.01274e-07
5.99026e-07
5.99951e-07
5.98239e-07
5.98488e-07
5.94631e-07
5.94613e-07
5.90295e-07
5.88236e-07
5.39712e-07
5.33862e-07
5.33611e-07
5.44326e-07
5.46461e-07
6.00157e-07
5.99842e-07
6.00805e-07
5.99947e-07
6.0128e-07
5.99035e-07
5.99957e-07
5.98248e-07
5.98495e-07
5.94639e-07
5.94621e-07
5.90301e-07
5.88244e-07
5.39716e-07
5.33869e-07
5.33616e-07
5.44335e-07
5.46469e-07
7.56748e-07
7.56293e-07
7.57437e-07
7.56146e-07
7.57996e-07
7.54273e-07
7.5545e-07
7.52056e-07
7.52197e-07
7.45625e-07
7.45282e-07
7.3727e-07
7.34137e-07
6.70847e-07
6.63173e-07
6.63965e-07
6.84338e-07
6.87586e-07
7.56755e-07
7.56301e-07
7.57443e-07
7.56155e-07
7.58001e-07
7.54281e-07
7.55456e-07
7.52064e-07
7.52204e-07
7.45632e-07
7.4529e-07
7.37276e-07
7.34145e-07
7.28694e-07
6.63179e-07
6.63969e-07
6.84347e-07
6.87594e-07
7.56763e-07
7.5631e-07
7.5745e-07
7.56164e-07
7.58007e-07
7.5429e-07
7.55463e-07
7.52073e-07
7.52211e-07
7.4564e-07
7.45299e-07
7.37283e-07
7.34154e-07
7.28699e-07
6.63185e-07
6.63975e-07
6.84356e-07
6.87602e-07
7.56771e-07
7.56319e-07
7.57457e-07
7.56173e-07
7.58013e-07
7.54299e-07
7.5547e-07
7.52082e-07
7.52219e-07
7.45648e-07
7.45307e-07
7.37289e-07
7.34162e-07
6.7086e-07
6.63193e-07
6.6398e-07
6.84365e-07
6.87611e-07
7.5678e-07
7.56328e-07
7.57465e-07
7.56183e-07
7.5802e-07
7.54309e-07
7.55478e-07
7.52091e-07
7.52228e-07
7.45656e-07
7.45316e-07
7.37296e-07
7.34172e-07
7.28711e-07
6.63201e-07
6.63986e-07
6.84375e-07
6.87621e-07
9.23461e-07
9.22928e-07
9.24098e-07
9.22567e-07
9.24672e-07
9.19554e-07
9.20868e-07
9.15708e-07
9.1575e-07
9.05913e-07
9.05357e-07
8.93566e-07
8.89485e-07
8.82519e-07
8.00319e-07
8.0212e-07
8.3336e-07
8.37697e-07
9.23468e-07
9.22937e-07
9.24105e-07
9.22576e-07
9.24678e-07
9.19564e-07
9.20875e-07
9.15716e-07
9.15758e-07
9.05921e-07
9.05366e-07
8.93573e-07
8.89494e-07
8.82524e-07
8.00325e-07
8.02125e-07
8.33369e-07
8.37705e-07
9.23477e-07
9.22946e-07
9.24112e-07
9.22586e-07
9.24684e-07
9.19573e-07
9.20883e-07
9.15726e-07
9.15767e-07
9.05929e-07
9.05375e-07
8.9358e-07
8.89503e-07
8.09966e-07
8.00333e-07
8.02131e-07
8.33379e-07
8.37715e-07
9.23486e-07
9.22956e-07
9.2412e-07
9.22597e-07
9.24691e-07
9.19584e-07
9.20891e-07
9.15736e-07
9.15775e-07
9.05938e-07
9.05384e-07
8.93587e-07
8.89513e-07
8.82537e-07
8.00341e-07
8.02137e-07
8.33389e-07
8.37725e-07
9.23496e-07
9.22967e-07
9.24128e-07
9.22608e-07
9.24698e-07
9.19595e-07
9.20899e-07
9.15746e-07
9.15785e-07
9.05947e-07
9.05394e-07
8.93595e-07
8.89523e-07
8.82544e-07
8.00351e-07
8.02144e-07
8.334e-07
8.37735e-07
1.10264e-06
1.10201e-06
1.10324e-06
1.1014e-06
1.10385e-06
1.09712e-06
1.09862e-06
1.09146e-06
1.09137e-06
1.07788e-06
1.07705e-06
1.06123e-06
1.05608e-06
1.04741e-06
9.47555e-07
9.50288e-07
9.92066e-07
9.97517e-07
1.10265e-06
1.10202e-06
1.10325e-06
1.10141e-06
1.10385e-06
1.09713e-06
1.09862e-06
1.09147e-06
1.09138e-06
1.07789e-06
1.07706e-06
1.06124e-06
1.05609e-06
9.59433e-07
9.47562e-07
9.50294e-07
9.92077e-07
9.97527e-07
1.10266e-06
1.10203e-06
1.10326e-06
1.10142e-06
1.10386e-06
1.09714e-06
1.09863e-06
1.09148e-06
1.09139e-06
1.0779e-06
1.07707e-06
1.06125e-06
1.0561e-06
9.59438e-07
9.4757e-07
9.503e-07
9.92088e-07
9.97537e-07
1.10267e-06
1.10204e-06
1.10327e-06
1.10143e-06
1.10387e-06
1.09716e-06
1.09864e-06
1.09149e-06
1.0914e-06
1.07791e-06
1.07708e-06
1.06126e-06
1.05611e-06
9.59444e-07
9.4758e-07
9.50307e-07
9.92099e-07
9.97548e-07
1.29788e-06
1.29715e-06
1.29837e-06
1.29621e-06
1.29896e-06
1.29034e-06
1.29196e-06
1.28228e-06
1.28198e-06
1.26386e-06
1.26268e-06
1.24201e-06
1.23566e-06
1.11949e-06
1.10517e-06
1.10893e-06
1.16259e-06
1.16925e-06
1.29789e-06
1.29716e-06
1.29838e-06
1.29622e-06
1.29371e-06
1.29035e-06
1.29197e-06
1.28229e-06
1.28199e-06
1.26387e-06
1.26269e-06
1.24202e-06
1.23567e-06
1.22498e-06
1.10518e-06
1.10894e-06
1.1626e-06
1.16926e-06
1.2979e-06
1.29717e-06
1.29839e-06
1.29624e-06
1.29372e-06
1.29036e-06
1.29197e-06
1.2823e-06
1.282e-06
1.26388e-06
1.26271e-06
1.24203e-06
1.23568e-06
1.22499e-06
1.10518e-06
1.10894e-06
1.16261e-06
1.16927e-06
1.29791e-06
1.29718e-06
1.2984e-06
1.29625e-06
1.29373e-06
1.29037e-06
1.29198e-06
1.28232e-06
1.28201e-06
1.26389e-06
1.26272e-06
1.24203e-06
1.23569e-06
1.225e-06
1.10519e-06
1.10895e-06
1.16262e-06
1.16928e-06
1.29792e-06
1.2972e-06
1.29841e-06
1.29626e-06
1.29374e-06
1.29039e-06
1.29199e-06
1.28233e-06
1.28203e-06
1.2639e-06
1.26273e-06
1.24204e-06
1.2357e-06
1.22501e-06
1.1052e-06
1.10896e-06
1.16264e-06
1.16929e-06
1.50993e-06
1.50912e-06
1.51025e-06
1.50779e-06
1.51076e-06
1.50008e-06
1.50174e-06
1.48896e-06
1.48833e-06
1.46435e-06
1.46274e-06
1.43617e-06
1.4285e-06
1.41546e-06
1.2735e-06
1.27844e-06
1.34619e-06
1.35418e-06
1.50994e-06
1.50913e-06
1.51026e-06
1.50781e-06
1.51077e-06
1.50009e-06
1.50175e-06
1.48897e-06
1.48834e-06
1.46436e-06
1.46275e-06
1.43618e-06
1.42851e-06
1.41546e-06
1.27351e-06
1.27845e-06
1.3462e-06
1.35419e-06
1.50996e-06
1.50914e-06
1.51027e-06
1.50782e-06
1.51078e-06
1.5001e-06
1.50176e-06
1.48898e-06
1.48835e-06
1.46437e-06
1.46276e-06
1.43619e-06
1.42852e-06
1.41547e-06
1.27352e-06
1.27846e-06
1.34622e-06
1.3542e-06
1.50997e-06
1.50915e-06
1.51028e-06
1.50783e-06
1.51078e-06
1.50012e-06
1.50177e-06
1.489e-06
1.48836e-06
1.46438e-06
1.46278e-06
1.4362e-06
1.42854e-06
1.2905e-06
1.27353e-06
1.27846e-06
1.34623e-06
1.35421e-06
1.50998e-06
1.50917e-06
1.51029e-06
1.50785e-06
1.51079e-06
1.50013e-06
1.50178e-06
1.48901e-06
1.48838e-06
1.46439e-06
1.46279e-06
1.43621e-06
1.42855e-06
1.41549e-06
1.27354e-06
1.27847e-06
1.34625e-06
1.35423e-06
1.73705e-06
1.73613e-06
1.73737e-06
1.7346e-06
1.73022e-06
1.72583e-06
1.7275e-06
1.71138e-06
1.71031e-06
1.67956e-06
1.67743e-06
1.64383e-06
1.63471e-06
1.61892e-06
1.45256e-06
1.45884e-06
1.54321e-06
1.55264e-06
1.73706e-06
1.73615e-06
1.73738e-06
1.73461e-06
1.73022e-06
1.72584e-06
1.72751e-06
1.71139e-06
1.71032e-06
1.67957e-06
1.67744e-06
1.64384e-06
1.63472e-06
1.61893e-06
1.45257e-06
1.45885e-06
1.54322e-06
1.55266e-06
1.73708e-06
1.73616e-06
1.73739e-06
1.73463e-06
1.73023e-06
1.72586e-06
1.72752e-06
1.71141e-06
1.71033e-06
1.67958e-06
1.67745e-06
1.64385e-06
1.63474e-06
1.61894e-06
1.45258e-06
1.45885e-06
1.54324e-06
1.55267e-06
1.73709e-06
1.73618e-06
1.73741e-06
1.73465e-06
1.73024e-06
1.72587e-06
1.72753e-06
1.71142e-06
1.71035e-06
1.6796e-06
1.67747e-06
1.64386e-06
1.63475e-06
1.61895e-06
1.45259e-06
1.45886e-06
1.54325e-06
1.55269e-06
1.7371e-06
1.73619e-06
1.73742e-06
1.73466e-06
1.73025e-06
1.72589e-06
1.72755e-06
1.71144e-06
1.71036e-06
1.67961e-06
1.67748e-06
1.64387e-06
1.63477e-06
1.61896e-06
1.45261e-06
1.45887e-06
1.54327e-06
1.5527e-06
1.97243e-06
1.9714e-06
1.97318e-06
1.97016e-06
1.96593e-06
1.96107e-06
1.96308e-06
1.94599e-06
1.94454e-06
1.90907e-06
1.90639e-06
1.86492e-06
1.85422e-06
1.66531e-06
1.64239e-06
1.65016e-06
1.75387e-06
1.76486e-06
1.97244e-06
1.97141e-06
1.9732e-06
1.97018e-06
1.97412e-06
1.96108e-06
1.96309e-06
1.94601e-06
1.94455e-06
1.90908e-06
1.90641e-06
1.86493e-06
1.85423e-06
1.66531e-06
1.6424e-06
1.65016e-06
1.75388e-06
1.76488e-06
1.97245e-06
1.97142e-06
1.97321e-06
1.97019e-06
1.97413e-06
1.9611e-06
1.9631e-06
1.94602e-06
1.94456e-06
1.90909e-06
1.90642e-06
1.86494e-06
1.85425e-06
1.66532e-06
1.64241e-06
1.65017e-06
1.7539e-06
1.76489e-06
1.97247e-06
1.97144e-06
1.97322e-06
1.97021e-06
1.97414e-06
1.96112e-06
1.96311e-06
1.94604e-06
1.94458e-06
1.90911e-06
1.90644e-06
1.86495e-06
1.85426e-06
1.66533e-06
1.64242e-06
1.65018e-06
1.75392e-06
1.76491e-06
1.97248e-06
1.97146e-06
1.97323e-06
1.97023e-06
1.97415e-06
1.96114e-06
1.96312e-06
1.94605e-06
1.94459e-06
1.90912e-06
1.90646e-06
1.86497e-06
1.85428e-06
1.66534e-06
1.64243e-06
1.65019e-06
1.75394e-06
1.76493e-06
2.2095e-06
2.20842e-06
2.21045e-06
2.20733e-06
2.20391e-06
2.1991e-06
2.20161e-06
2.18469e-06
2.18365e-06
2.14911e-06
2.14638e-06
2.09817e-06
2.08578e-06
1.86936e-06
1.84326e-06
1.85269e-06
1.97812e-06
1.99076e-06
2.20951e-06
2.20844e-06
2.21046e-06
2.20735e-06
2.21147e-06
2.19912e-06
2.20162e-06
2.1847e-06
2.18366e-06
2.14913e-06
2.1464e-06
2.09818e-06
2.08579e-06
2.06348e-06
1.84327e-06
1.8527e-06
1.97814e-06
1.99078e-06
2.20953e-06
2.20845e-06
2.21047e-06
2.20736e-06
2.21148e-06
2.19913e-06
2.20163e-06
2.18472e-06
2.18368e-06
2.14914e-06
2.14641e-06
2.0982e-06
2.08581e-06
1.86937e-06
1.84328e-06
1.85271e-06
1.97816e-06
1.9908e-06
2.20954e-06
2.20847e-06
2.21048e-06
2.20738e-06
2.21149e-06
2.19915e-06
2.20165e-06
2.18473e-06
2.18369e-06
2.14916e-06
2.14643e-06
2.09821e-06
2.08583e-06
1.86938e-06
1.84329e-06
1.85272e-06
1.97818e-06
1.99081e-06
2.20956e-06
2.20849e-06
2.2105e-06
2.2074e-06
2.2115e-06
2.19917e-06
2.20166e-06
2.18475e-06
2.18371e-06
2.14917e-06
2.14645e-06
2.09822e-06
2.08585e-06
2.06351e-06
1.84331e-06
1.85273e-06
1.9782e-06
1.99083e-06
2.45022e-06
2.44905e-06
2.45102e-06
2.44763e-06
2.44346e-06
2.43822e-06
2.44081e-06
2.42581e-06
2.42539e-06
2.39121e-06
2.38898e-06
2.33697e-06
2.32283e-06
2.08372e-06
2.05464e-06
2.06598e-06
2.21462e-06
2.22891e-06
2.45023e-06
2.44907e-06
2.45103e-06
2.44764e-06
2.44347e-06
2.43824e-06
2.44082e-06
2.42582e-06
2.4254e-06
2.39122e-06
2.38899e-06
2.33698e-06
2.32285e-06
2.08373e-06
2.05465e-06
2.06599e-06
2.21464e-06
2.22892e-06
2.45024e-06
2.44908e-06
2.45104e-06
2.44766e-06
2.44348e-06
2.43825e-06
2.44083e-06
2.42584e-06
2.42542e-06
2.39124e-06
2.38901e-06
2.33699e-06
2.32287e-06
2.29751e-06
2.05466e-06
2.066e-06
2.21466e-06
2.22894e-06
2.45026e-06
2.4491e-06
2.45106e-06
2.44768e-06
2.44349e-06
2.43827e-06
2.44085e-06
2.42586e-06
2.42543e-06
2.39126e-06
2.38903e-06
2.33701e-06
2.32289e-06
2.08375e-06
2.05468e-06
2.06601e-06
2.21468e-06
2.22896e-06
2.45028e-06
2.44912e-06
2.45107e-06
2.4477e-06
2.44351e-06
2.43829e-06
2.44086e-06
2.42588e-06
2.42545e-06
2.39127e-06
2.38905e-06
2.33702e-06
2.32291e-06
2.29753e-06
2.0547e-06
2.06602e-06
2.2147e-06
2.22898e-06
2.69616e-06
2.69492e-06
2.69674e-06
2.6931e-06
2.6876e-06
2.68192e-06
2.68455e-06
2.66695e-06
2.66629e-06
2.63223e-06
2.62989e-06
2.57336e-06
2.55853e-06
2.30323e-06
2.2726e-06
2.28635e-06
2.45669e-06
2.47243e-06
2.69617e-06
2.69494e-06
2.69676e-06
2.69312e-06
2.6876e-06
2.68193e-06
2.68456e-06
2.66697e-06
2.6663e-06
2.63224e-06
2.6299e-06
2.57338e-06
2.55855e-06
2.53127e-06
2.27261e-06
2.28636e-06
2.45671e-06
2.47245e-06
2.69619e-06
2.69496e-06
2.69677e-06
2.69313e-06
2.68762e-06
2.68195e-06
2.68457e-06
2.66698e-06
2.66632e-06
2.63226e-06
2.62992e-06
2.57339e-06
2.55857e-06
2.53128e-06
2.27262e-06
2.28637e-06
2.45673e-06
2.47247e-06
2.69621e-06
2.69497e-06
2.69678e-06
2.69315e-06
2.68763e-06
2.68197e-06
2.68459e-06
2.667e-06
2.66633e-06
2.63227e-06
2.62994e-06
2.57341e-06
2.55859e-06
2.5313e-06
2.27264e-06
2.28638e-06
2.45675e-06
2.47249e-06
2.69622e-06
2.69499e-06
2.6968e-06
2.69317e-06
2.68764e-06
2.68199e-06
2.6846e-06
2.66702e-06
2.66635e-06
2.63229e-06
2.62996e-06
2.57342e-06
2.55861e-06
2.53131e-06
2.27266e-06
2.28639e-06
2.45678e-06
2.47251e-06
2.9469e-06
2.9456e-06
2.94719e-06
2.94331e-06
2.94799e-06
2.93014e-06
2.93277e-06
2.9123e-06
2.91135e-06
2.87199e-06
2.86919e-06
2.80905e-06
2.79335e-06
2.52356e-06
2.49156e-06
2.50709e-06
2.70167e-06
2.71866e-06
2.94691e-06
2.94561e-06
2.9472e-06
2.94332e-06
2.948e-06
2.93016e-06
2.93278e-06
2.91231e-06
2.91136e-06
2.87201e-06
2.8692e-06
2.80907e-06
2.79337e-06
2.52357e-06
2.49157e-06
2.50709e-06
2.70169e-06
2.71868e-06
2.94693e-06
2.94563e-06
2.94722e-06
2.94334e-06
2.94801e-06
2.93018e-06
2.9328e-06
2.91233e-06
2.91138e-06
2.87202e-06
2.86922e-06
2.80908e-06
2.79339e-06
2.52358e-06
2.49158e-06
2.5071e-06
2.70171e-06
2.7187e-06
2.94695e-06
2.94565e-06
2.94723e-06
2.94336e-06
2.94803e-06
2.9302e-06
2.93281e-06
2.91235e-06
2.9114e-06
2.87204e-06
2.86924e-06
2.80909e-06
2.79341e-06
2.52359e-06
2.4916e-06
2.50712e-06
2.70173e-06
2.71872e-06
2.94697e-06
2.94567e-06
2.94725e-06
2.94339e-06
2.94804e-06
2.93022e-06
2.93283e-06
2.91237e-06
2.91142e-06
2.87206e-06
2.86926e-06
2.80911e-06
2.79343e-06
2.5236e-06
2.49162e-06
2.50713e-06
2.70176e-06
2.71874e-06
3.20186e-06
3.2005e-06
3.20179e-06
3.1977e-06
3.18885e-06
3.18235e-06
3.1849e-06
3.16126e-06
3.15997e-06
3.11475e-06
3.11143e-06
3.04463e-06
3.0277e-06
2.99739e-06
2.70693e-06
2.7248e-06
2.94591e-06
2.96439e-06
3.20187e-06
3.20052e-06
3.2018e-06
3.19772e-06
3.18886e-06
3.18237e-06
3.18492e-06
3.16128e-06
3.15998e-06
3.11476e-06
3.11145e-06
3.04464e-06
3.02772e-06
2.9974e-06
2.70694e-06
2.72481e-06
2.94593e-06
2.96441e-06
3.20189e-06
3.20054e-06
3.20182e-06
3.19774e-06
3.18888e-06
3.18239e-06
3.18493e-06
3.16129e-06
3.16e-06
3.11478e-06
3.11147e-06
3.04465e-06
3.02774e-06
2.99741e-06
2.70695e-06
2.72482e-06
2.94596e-06
2.96444e-06
3.20191e-06
3.20056e-06
3.20183e-06
3.19776e-06
3.18889e-06
3.18241e-06
3.18495e-06
3.16131e-06
3.16002e-06
3.1148e-06
3.11149e-06
3.04467e-06
3.02776e-06
2.99743e-06
2.70697e-06
2.72483e-06
2.94598e-06
2.96446e-06
3.20193e-06
3.20058e-06
3.20185e-06
3.19778e-06
3.18891e-06
3.18243e-06
3.18497e-06
3.16134e-06
3.16004e-06
3.11482e-06
3.11151e-06
3.04469e-06
3.02778e-06
2.99744e-06
2.70699e-06
2.72485e-06
2.946e-06
2.96448e-06
3.46034e-06
3.45895e-06
3.45985e-06
3.45559e-06
3.44471e-06
3.43785e-06
3.44026e-06
3.4131e-06
3.41139e-06
3.35923e-06
3.35535e-06
3.27858e-06
3.2598e-06
2.95286e-06
2.91662e-06
2.93751e-06
3.19074e-06
3.21158e-06
3.46036e-06
3.45897e-06
3.45986e-06
3.45561e-06
3.44472e-06
3.43787e-06
3.44028e-06
3.41312e-06
3.4114e-06
3.35925e-06
3.35537e-06
3.2786e-06
3.25982e-06
2.95287e-06
2.91662e-06
2.93751e-06
3.19077e-06
3.21161e-06
3.46037e-06
3.45899e-06
3.45988e-06
3.45563e-06
3.44473e-06
3.43789e-06
3.44029e-06
3.41314e-06
3.41142e-06
3.35927e-06
3.35538e-06
3.27861e-06
3.25984e-06
2.95287e-06
2.91663e-06
2.93752e-06
3.19079e-06
3.21163e-06
3.46039e-06
3.45901e-06
3.45989e-06
3.45566e-06
3.44475e-06
3.43791e-06
3.44031e-06
3.41316e-06
3.41144e-06
3.35929e-06
3.35541e-06
3.27863e-06
3.25986e-06
2.95288e-06
2.91665e-06
2.93753e-06
3.19082e-06
3.21165e-06
3.46042e-06
3.45904e-06
3.45991e-06
3.45568e-06
3.44476e-06
3.43794e-06
3.44033e-06
3.41318e-06
3.41146e-06
3.35931e-06
3.35543e-06
3.27865e-06
3.25989e-06
2.9529e-06
2.91667e-06
2.93755e-06
3.19084e-06
3.21168e-06
3.72171e-06
3.72031e-06
3.72071e-06
3.71634e-06
3.70293e-06
3.69578e-06
3.69796e-06
3.6666e-06
3.66438e-06
3.60484e-06
3.60034e-06
3.51298e-06
3.49231e-06
3.45481e-06
3.12186e-06
3.14634e-06
3.43962e-06
3.46293e-06
3.72173e-06
3.72033e-06
3.72073e-06
3.71636e-06
3.70294e-06
3.6958e-06
3.69798e-06
3.66661e-06
3.66439e-06
3.60486e-06
3.60036e-06
3.51299e-06
3.49233e-06
3.16091e-06
3.12187e-06
3.14635e-06
3.43965e-06
3.46296e-06
3.72175e-06
3.72035e-06
3.72074e-06
3.71638e-06
3.70295e-06
3.69582e-06
3.69799e-06
3.66663e-06
3.66441e-06
3.60488e-06
3.60038e-06
3.51301e-06
3.49235e-06
3.16091e-06
3.12188e-06
3.14636e-06
3.43968e-06
3.46298e-06
3.72177e-06
3.72037e-06
3.72076e-06
3.7164e-06
3.70297e-06
3.69585e-06
3.69801e-06
3.66666e-06
3.66443e-06
3.60489e-06
3.6004e-06
3.51302e-06
3.49237e-06
3.45485e-06
3.1219e-06
3.14637e-06
3.4397e-06
3.46301e-06
3.72179e-06
3.7204e-06
3.72078e-06
3.71643e-06
3.70299e-06
3.69587e-06
3.69803e-06
3.66668e-06
3.66445e-06
3.60492e-06
3.60042e-06
3.51304e-06
3.4924e-06
3.16094e-06
3.12192e-06
3.14639e-06
3.43973e-06
3.46303e-06
3.98443e-06
3.98304e-06
3.98278e-06
3.97837e-06
3.96195e-06
3.95464e-06
3.95645e-06
3.9209e-06
3.91809e-06
3.85106e-06
3.8459e-06
3.74737e-06
3.7248e-06
3.68347e-06
3.3274e-06
3.35575e-06
3.69207e-06
3.71793e-06
3.98444e-06
3.98306e-06
3.98279e-06
3.97839e-06
3.96196e-06
3.95466e-06
3.95647e-06
3.92092e-06
3.9181e-06
3.85108e-06
3.84591e-06
3.74738e-06
3.72482e-06
3.68348e-06
3.32741e-06
3.35575e-06
3.6921e-06
3.71796e-06
3.98446e-06