/*--------------------------------*- C++ -*----------------------------------*\
| =========                 |                                                 |
| \\      /  F ield         | OpenFOAM: The Open Source CFD Toolbox           |
|  \\    /   O peration     | Version:  v1906                                 |
|   \\  /    A nd           | Web:      www.OpenFOAM.com                      |
|    \\/     M anipulation  |                                                 |
\*---------------------------------------------------------------------------*/
FoamFile
{
    version     2.0;
    format      ascii;
    class       volScalarField;
    location    "99.2";
    object      pPrime2Mean;
}
// * * * * * * * * * * * * * * * * * * * * * * * * * * * * * * * * * * * * * //

dimensions      [2 -2 -4 0 0 0 0];


internalField   nonuniform List<scalar> 
630
(
-1.14441e-05
39627.1
3097.01
39180.3
0.007164
39622.4
3097.57
39175.4
0.0408592
39614.9
3098.51
39167.7
0.11581
39603.3
3100.03
39155.7
0.236439
39586.6
3102.25
39138.4
0.416996
39564.7
3105.19
39115.7
0.668385
39537.1
3108.92
39087.1
1.00813
39503.3
3113.51
39051.9
1.46076
39462.5
3119.07
39009.5
2.0577
39413.7
3125.75
38958.8
2.84301
39355.7
3133.71
38898.4
3.86989
39287
3143.13
38826.9
5.20546
39206.4
3154.18
38742.7
6.93056
39112.4
3167.04
38644.5
9.14188
39003.7
3181.9
38531
11.9569
38879.1
3198.96
38401
15.5172
38737.4
3218.44
38253.1
19.9897
38577.3
3240.56
38086.3
25.5679
38397.7
3265.56
37899.5
32.473
38197.7
3293.7
37691.8
40.9525
37976.5
3325.31
37462.5
51.288
37733.6
3360.7
37211.1
63.7987
37468.7
3400.16
36937.2
78.8316
37181.7
3443.97
36640.9
96.7476
36872.7
3492.32
36322.3
117.924
36542
3545.48
35982
142.768
36190.1
3603.69
35620.6
171.711
35818
3667.24
35238.5
205.189
35426.5
3736.34
34836.4
243.641
35016.8
3811.2
34414.8
287.507
34589.7
3892.11
33975.1
337.209
34146.2
3979.36
33518.9
393.153
33687.5
4073.22
33048.6
455.655
33216
4173.78
32567.2
524.787
32734.3
4280.8
32077.4
600.46
32242.8
4393.56
31579
682.73
31739.4
4511.01
31069.1
771.74
31222.2
4632.36
30545.2
867.426
30692
4758.25
30007.5
969.726
30154
4890.74
29460.1
1079.02
29613.6
5031.54
28907.9
1196.08
29073.2
5180.96
28354.4
1321.52
28532.4
5338.16
27800.6
1454.97
27990.6
5502.71
27245.2
1595.44
27448.7
5675.5
26685.7
1742.98
26907.8
5857
26120.2
1898.88
26366.5
6046.12
25549.1
2064.52
25822.4
6241.12
24975.8
2239.86
25275.5
6440.68
24405
2423.18
24729.5
6643.89
23840.3
2612.95
24188.8
6850.37
23283
2809.53
23655.2
7060.94
22732.1
3014.76
23128.3
7277.78
22185.1
3230.06
22608.2
7502.63
21641.1
3454.89
22095.9
7735.37
21102
3687.35
21591.5
7974.58
20570.6
3925.77
21094.5
8219.28
20048.4
4169.64
20605.1
8468.79
19535.1
4419.42
20125
8722.11
19030.8
4675.75
19656.8
8978.6
18537.4
4938.7
19201.5
9238.27
18055.6
5206.61
18757.5
9500.77
17584.2
5475.35
18321.9
9764.37
17121.3
5740.69
17893.5
10026.9
16666.8
6002.44
17474.9
10288.6
16222.7
6265.44
17070.1
10552.8
15790.8
6534.96
16679.6
10822.3
15370.3
6811.85
16299.7
11096
14957.6
7093
15926.5
11370.2
14550.7
7375.91
15560.5
11643
14151
7660.65
15205.5
11914.6
13761.6
7947.83
14863.9
12185.4
13383.9
8236.48
14535.1
12455.8
13017.4
8524.37
14215.7
12725.2
12660.8
8809.26
13903.6
12992.9
12314.1
9090.27
13599.8
13258.8
11980.8
9367.89
13308.2
13522.2
11666.3
9642.38
13033.5
13782.3
11377.9
9915.44
12777.9
123547
142639
126683
141809
123547
142638
126683
141808
123548
142637
126684
141807
123549
142635
126686
141805
123551
142633
126689
141803
123554
142629
126692
141799
123557
142625
126696
141795
123561
142620
126701
141789
123566
142613
126707
141783
123572
142606
126714
141775
123579
142596
126723
141765
123587
142586
126733
141754
123597
142572
126745
141741
123608
142557
126759
141725
123621
142539
126774
141708
123635
142519
126792
141688
123651
142496
126812
141666
123669
142470
126833
141641
123689
142441
126858
141613
123711
142409
126884
141583
123735
142373
126914
141550
123762
142335
126946
141514
123791
142293
126980
141475
123822
142247
127018
141433
123856
142197
127058
141387
123893
142144
127102
141338
123932
142088
127148
141286
123975
142027
127198
141230
124020
141964
127251
141172
124069
141896
127307
141110
124120
141825
127366
141044
124175
141749
127429
140975
124231
141669
127496
140902
124291
141586
127565
140827
124353
141501
127636
140750
124417
141414
127711
140673
124484
141322
127790
140594
124555
141227
127875
140511
124630
141129
127964
140425
124709
141027
128057
140335
124791
140921
128152
140242
124876
140811
128251
140145
124964
140699
128354
140044
125056
140587
128461
139939
125152
140474
128570
139832
125251
140359
128681
139724
125353
140238
128796
139616
125461
140109
128918
139509
125577
139974
129047
139400
125701
139837
129182
139288
125831
139701
129322
139174
125966
139567
129468
139059
126107
139434
129620
138941
126252
139300
129777
138822
126400
139164
129938
138701
126548
139027
130101
138581
126696
138889
130266
138460
126847
138749
130432
138340
127003
138607
130601
138220
127167
138465
130773
138099
127337
138325
130946
137979
127512
138189
131120
137860
127691
138056
131295
137741
127872
137925
131474
137624
128055
137795
131656
137508
128239
137669
131844
137392
128422
137545
132035
137274
128606
137425
132230
137155
128794
137308
132430
137035
128990
137193
132635
136914
129193
137079
132848
136793
129405
136966
133065
136675
129625
136854
133288
136559
129852
136743
133515
136448
130087
136634
133745
136341
130326
136524
133975
136234
130561
136408
134197
136121
130783
136278
134403
135996
130981
136126
134583
135853
)
;

boundaryField
{
    leftWall
    {
        type            calculated;
        value           nonuniform List<scalar> 8(-1.33514e-05 123547 39627.1 142639 3097.01 126683 39180.3 141809);
    }
    rightWall
    {
        type            calculated;
        value           nonuniform 0();
    }
    leftSides_periodic0
    {
        type            cyclic;
    }
    leftSides_periodic1
    {
        type            cyclic;
    }
    rightSides_periodic0
    {
        type            cyclic;
    }
    rightSides_periodic1
    {
        type            cyclic;
    }
    leftInOut_periodic0
    {
        type            cyclic;
    }
    leftInOut_periodic1
    {
        type            cyclic;
    }
    rightInOut_periodic0
    {
        type            cyclic;
    }
    rightInOut_periodic1
    {
        type            cyclic;
    }
    procBoundary0to1
    {
        type            processor;
        value           nonuniform List<scalar> 
11
(
14039.8
11117.5
10193.2
14039.8
12535.6
14039.8
11117.5
131155
135942
134737
135685
)
;
    }
    procBoundary0to1throughleftInOut_periodic1
    {
        type            processorCyclic;
        value           uniform 11117.5;
    }
    procBoundary0to2
    {
        type            processor;
        value           nonuniform List<scalar> 
316
(
68095.9
98707.5
68338.7
102934
68090.2
98698.9
68333.1
102925
68084.5
98688.3
68327.5
102914
68084.1
98679.8
68327.3
102905
68087
98670.9
68330.5
102895
68090.7
98658.9
68334.7
102882
68095.5
98643.6
68340.1
102865
68101.3
98624.6
68346.8
102844
68108.2
98601.7
68354.8
102819
68116.3
98574.4
68364.3
102789
68125.9
98542.2
68375.4
102753
68136.9
98504.7
68388.5
102712
68149.6
98461.4
68403.5
102664
68164.1
98411.9
68420.6
102609
68180.5
98355.7
68440.1
102547
68198.9
98292.3
68462
102477
68219.5
98221.4
68486.6
102398
68242.6
98142.4
68514.1
102310
68268.1
98055
68544.6
102213
68296.5
97958.8
68578.3
102105
68327.6
97853.3
68615.5
101987
68361.8
97738.1
68656.4
101857
68399.2
97612.3
68701.2
101714
68440.6
97475.6
68750
101559
68486.5
97327.2
68803
101390
68536.7
97168.1
68860.6
101208
68590.1
97000.3
68922.6
101016
68645.2
96825.1
68988.3
100816
68702.5
96640.8
69057.5
100605
68764.3
96444
69131.3
100380
68833
96232.5
69210.9
100137
68909
96007.6
69297.1
99875.1
68990.4
95772
69388.8
99597.7
69075.2
95526
69485
99307.5
69163.5
95268.1
69585.6
99004.3
69257
94995.8
69692
98687
69357
94708.6
69805.8
98354.8
69462.6
94409.8
69926.3
98009.9
69571.3
94106.7
70049.8
97657.2
69683
93804
70174.6
97299.1
69800.9
93497.8
70304
96931.5
69929.5
93179.3
70444
96548.1
70071.4
92841.9
70598.8
96146.5
70225.5
92487
70766.4
95732.5
70389.2
92120.8
70941.9
95313
70560.9
91747.6
71122.5
94888.7
70740.1
91369.1
71307.6
94456.3
70926.7
90986.2
71497.2
94014.2
71121.1
90599.3
71692.6
93564.9
71323.5
90208.2
71895.8
93111.9
71533.8
89814
72109
92658
71751.1
89422.6
72331.6
92207.8
71971.9
89042.9
72559
91767.9
72190.4
88678.6
72783.7
91342.1
72403.5
88323.2
73002.1
90925.1
72615.8
87965.2
73218.6
90504.7
72836.8
87597.9
73443.6
90072.1
73073.6
87225.1
73685.3
89630.8
73324.7
86854.5
73941.9
89190.9
73582.8
86488.1
74205.6
88758.6
73843.1
86124.9
74472.7
88334.2
74104.7
85766.5
74743.8
87917.7
74367.2
85418.2
75019.6
87511
74629.8
85085
75300.4
87116.2
74890.6
84767.5
75585.1
86732.7
75148.3
84460.7
75871.1
86355.8
75405.8
84158.5
76157.3
85979.6
75668.6
83858.1
76446
85603.4
75940.6
83561.2
76740.5
85231.2
76221.8
83270.4
77042.4
84866.7
76508.6
82986.4
77350.3
84509.8
76800
82709
77663.1
84157.7
77097.6
82438.8
77980.9
83808.3
77401.5
82176
78302.9
83463.2
77709
81919.6
78627.3
83126.2
78016.3
81667.5
78950.1
82799.9
78319.3
81418.8
79264.3
82484.1
78613.3
81174.9
79560.9
82177.6
78893.7
80933.2
79829.4
81873.6
)
;
    }
    procBoundary0to2throughleftSides_periodic0
    {
        type            processorCyclic;
        value           nonuniform List<scalar> 
314
(
14581.2
14571.2
14559.6
14553.1
14548.4
14542
14533.9
14523.9
14511.9
14497.7
14481.1
14461.8
14439.5
14413.9
14384.9
14352.2
14315.5
14274.6
14229.1
14178.8
14123.5
14062.7
13996.5
13924.7
13847.3
13764.4
13676.1
13582.5
13483.9
13380.5
13272.7
13160.6
13044.9
12925.7
12803.7
12679.2
12552.9
12425.2
12296.7
12167.9
12039.3
11911.6
11785.5
11661.6
11540.1
11421.2
11305.1
11192.2
11083
10978
10877.5
10781.7
10690.6
10604.3
10523
10447.2
10377
10312.2
10252.7
10198.4
10149.5
10106.1
10067.5
10032.9
10001.5
9973.35
9948.63
9927.71
9910.67
9897.31
9887.07
9879.24
9873.17
9868.64
9865.77
9864.67
9865.37
9867.73
9871.57
15197.6
15187.5
15175.9
15169.4
15164.8
15158.7
15151
15141.5
15130.1
15116.7
15101.1
15082.9
15061.8
15037.7
15010.2
14979.2
14944.2
14904.9
14861.1
14812.5
14758.7
14699.5
14634.7
14564.2
14487.9
14405.8
14317.9
14224.3
14125.2
14020.8
13911.2
13796.8
13677.9
13554.8
13427.9
13297.9
13165.1
13030.1
12893.5
12755.8
12617.5
12479.1
12341.4
12205.1
12070.9
11939.4
11811.1
11686.5
11566.1
11450.5
11339.8
11234.4
11134.9
11041.9
10955.7
10875.8
10801.3
10731.6
10666.8
10607.3
10553.6
10505.5
10462.3
10423.1
10387.3
10354.6
10325.2
10299.4
10277.3
10258.5
10242.6
10229.4
10218.6
10210.2
10203.7
10199
10195.9
10194.5
10194.5
14233.4
14223.5
14212
14205.7
14201.2
14195.1
14187.3
14177.7
14166.2
14152.5
14136.5
14117.9
14096.3
14071.6
14043.5
14011.9
13976.6
13937.1
13893.3
13844.9
13791.6
13733.3
13669.7
13600.9
13526.9
13447.8
13363.7
13274.9
13181.5
13083.8
12982.2
12876.8
12768.2
12656.6
12542.7
12426.8
12309.6
12191.6
12073
11954.5
11836.4
11719.3
11603.9
11490.6
11379.9
11272
11166.9
11065
10966.6
10872.1
10782.2
10697.1
10617.2
10542.4
10472.7
10408
10348.2
10293.3
10243.3
10198.4
10158.1
10122.3
10090.7
10063.4
10040.2
10020.6
10004
9990.15
9978.81
9969.88
9963.19
9958.64
9956.29
9956.06
9957.68
9960.87
9965.46
9971.27
13373.4
13363.6
13352.4
13346.6
13342.9
13337.9
13331.5
13323.6
13314
13302.7
13289.4
13273.9
13255.9
13235.2
13211.6
13184.9
13154.8
13121.2
13083.7
13042.3
12996.6
12946.7
12892.3
12833.5
12770.3
12702.9
12631.2
12555.6
12476.4
12393.7
12307.8
12219.3
12128.4
12035.4
11940.9
11845.3
11749.4
11653.7
11558.3
11463.5
11369.6
11277
11186.6
11098.4
11012.7
10929.4
10849.2
10772.7
10700.2
10631.8
10567.2
10506.7
10450.4
10398.3
10349.8
10304.3
10261.8
10222.5
10186.6
10154.1
10124.4
10097.3
10073.5
10053.4
10037.2
10024.2
10013.6
10004.8
9997.45
9991.83
9988
9985.98
9985.77
9987.21
9989.96
9993.93
9999.07
10005.1
)
;
    }
}


// ************************************************************************* //
