/*--------------------------------*- C++ -*----------------------------------*\
| =========                 |                                                 |
| \\      /  F ield         | OpenFOAM: The Open Source CFD Toolbox           |
|  \\    /   O peration     | Version:  v1906                                 |
|   \\  /    A nd           | Web:      www.OpenFOAM.com                      |
|    \\/     M anipulation  |                                                 |
\*---------------------------------------------------------------------------*/
FoamFile
{
    version     2.0;
    format      ascii;
    class       volScalarField;
    location    "98.8";
    object      alphat;
}
// * * * * * * * * * * * * * * * * * * * * * * * * * * * * * * * * * * * * * //

dimensions      [1 -1 -1 0 0 0 0];


internalField   nonuniform List<scalar> 
630
(
1.41736e-08
1.63599e-08
1.67669e-08
2.34248e-08
2.27778e-08
2.33982e-08
3.32072e-08
3.44623e-08
2.27572e-07
1.71459e-07
3.90501e-07
2.6133e-07
1.57978e-06
1.15202e-06
2.72701e-06
1.71085e-06
6.59079e-06
4.83099e-06
1.12468e-05
6.90005e-06
1.96059e-05
1.46093e-05
3.28055e-05
1.993e-05
4.60889e-05
3.51199e-05
7.50903e-05
4.5623e-05
9.12081e-05
7.12036e-05
0.000143858
8.81735e-05
0.000158455
0.000126622
0.000241039
0.000150041
0.000248932
0.000203127
0.000364674
0.000231564
0.000361501
0.00030033
0.000510319
0.000331282
0.000493521
0.000416183
0.000673395
0.000446585
0.000642221
0.000547963
0.000850517
0.000574655
0.000805691
0.000693574
0.0010286
0.000702774
0.000981847
0.000851275
0.00120739
0.000838134
0.00116896
0.00101325
0.00139071
0.00098206
0.0013655
0.00118415
0.0015778
0.00113376
0.00157009
0.00136478
0.00177037
0.00129268
0.00178194
0.00155535
0.00197388
0.00145808
0.00199997
0.00175628
0.00219415
0.00162905
0.00222305
0.00196709
0.00242453
0.00180454
0.00245003
0.00218339
0.0026294
0.00198361
0.00267971
0.00239391
0.00275423
0.00216579
0.00291141
0.00260638
0.00278333
0.00235117
0.00314534
0.00281996
0.00278755
0.00253925
0.00338111
0.00303388
0.00289074
0.00272698
0.00361832
0.00324732
0.00319792
0.00290824
0.00385655
0.00345953
0.00370821
0.00307642
0.0040956
0.00366547
0.00404603
0.00323331
0.00433547
0.00386415
0.00421698
0.00338688
0.00457598
0.00405924
0.00437702
0.00353973
0.00481688
0.00425346
0.0045276
0.00368992
0.00505772
0.00444693
0.00463517
0.00383656
0.00529793
0.00463977
0.00474445
0.00397982
0.00553683
0.00483331
0.0048468
0.00412054
0.00577369
0.00503062
0.00493561
0.00425982
0.00600795
0.00523634
0.00501144
0.00439841
0.00623905
0.00545623
0.00507432
0.00453527
0.00646676
0.0056641
0.00512407
0.00466633
0.00669106
0.00584331
0.00516061
0.00478611
0.00691186
0.00601382
0.00518425
0.00489289
0.00712867
0.00617482
0.00519574
0.00499484
0.00733958
0.00618272
0.00519664
0.00511172
0.00754068
0.00505618
0.00518862
0.00526976
0.00677666
0.00366594
0.00516924
0.00548442
0.00454451
0.00321027
0.00512846
0.0056859
0.00308438
0.00439743
0.00505229
0.00580912
0.00339957
0.00617374
0.00493675
0.00593456
0.00597765
0.00727549
0.00480022
0.00606415
0.00877276
0.00748556
0.00468522
0.0061987
0.00903344
0.00764482
0.00464032
0.0063385
0.00930816
0.00779808
0.00468044
0.00648439
0.00959357
0.00794501
0.00477254
0.00664028
0.0098686
0.00808585
0.00472168
0.00680673
0.0101386
0.00822098
0.00459871
0.00698432
0.010406
0.00835053
0.00447616
0.00717383
0.0106711
0.00847448
0.00435144
0.00737565
0.0109343
0.00859389
0.00422598
0.00758914
0.0111877
0.00870856
0.00410395
0.00781315
0.0114314
0.00881825
0.00343583
0.00804495
0.0116665
0.00892358
0.00314891
0.0082804
0.011895
0.0090248
0.00339441
0.00851168
0.0121197
0.00912224
0.00367386
0.00874142
0.0123435
0.0092163
0.00361135
0.00895722
0.0125696
0.0093075
0.00359086
0.00915514
0.0128011
0.00939664
0.00361733
0.0093207
0.0130408
0.00948487
0.0036863
0.00946668
0.0115902
0.00956464
0.00379555
0.00960832
0.00600927
0.00963648
0.00394197
0.0097385
0.00591044
0.00970063
0.00412071
0.00985174
0.013242
0.00975809
0.00432787
0.00994095
0.0111688
0.00980956
0.00454648
0.0100001
0.0147559
0.00985542
0.00476966
0.00388299
0.0149964
0.00989644
0.00498796
0.00266224
0.0152009
0.00993339
0.00520354
0.00440444
0.0153647
0.00996626
0.0024926
0.0105155
0.0154818
0.00999404
0.00189734
0.0114391
0.015552
0.0100159
0.00342851
0.0116403
0.0155691
0.0100297
5.16248e-10
3.75207e-09
6.40117e-09
3.22265e-09
2.64166e-09
1.06111e-08
1.40833e-08
7.23292e-09
4.60261e-08
1.52211e-07
1.77887e-07
9.21803e-08
3.43527e-07
1.10883e-06
1.2679e-06
6.64588e-07
1.51541e-06
4.7811e-06
5.35601e-06
2.86149e-06
4.8308e-06
1.47546e-05
1.61287e-05
8.85808e-06
1.23262e-05
3.60612e-05
3.8352e-05
2.18189e-05
2.66549e-05
7.4072e-05
7.6579e-05
4.53751e-05
5.06173e-05
0.000132979
0.000133798
8.28009e-05
8.65111e-05
0.000214679
0.000210749
0.000136252
0.000135576
0.000318602
0.000306122
0.00020638
0.000197764
0.000442352
0.000417301
0.000292423
0.000271882
0.000582599
0.000541185
0.000392618
0.000355935
0.000735907
0.000673335
0.000504686
0.000447729
0.000891929
0.000801094
0.0006262
0.000532449
0.0010462
0.000935782
0.000746996
0.000618092
0.00120559
0.00107665
0.000867686
0.00070709
0.00136973
0.00122305
0.00099279
0.00079872
0.00153757
0.00137451
0.0011215
0.000892575
0.00170808
0.00153069
0.00125301
0.000988242
0.00188034
0.00169148
0.00138648
0.0010855
0.00205366
0.00185689
0.0015212
0.00118469
0.00222761
0.00202656
0.00165661
0.00128678
0.00240197
0.00219931
0.00179242
0.00139295
0.00257616
0.00237313
0.0019285
0.00150276
0.00275021
0.00254625
0.0020647
0.00161132
0.00292448
0.00271806
0.0022002
0.00170884
0.00309837
0.00289388
0.00233269
0.00178821
0.0032706
0.00307863
0.00245617
0.00185196
0.00343978
0.00327272
0.00257241
0.00194152
0.00360475
0.00347148
0.00268393
0.0021051
0.00376437
0.00366959
0.00279646
0.00236092
0.00391718
0.00386656
0.00291745
0.00265204
0.00406115
0.00406906
0.0030508
0.00277244
0.00419364
0.00428826
0.00319317
0.00287862
0.00431075
0.00453178
0.00333769
0.00297845
0.00440705
0.00479245
0.00348024
0.00282779
0.00447711
0.00504405
0.00361975
0.00244327
0.00452033
0.00525533
0.00375258
0.00206865
0.00455054
0.00542295
0.00386657
0.00197896
0.00460062
0.00557413
0.00394035
0.00232393
0.00470841
0.00571939
0.0039561
0.00318793
0.00488754
0.00581044
0.00392841
0.00359111
0.00512863
0.00571331
0.00392067
0.00368951
0.00542136
0.00528485
0.00402025
0.00378555
0.00572685
0.00470712
0.00426507
0.00387893
0.00596571
0.00441203
0.00460611
0.00396811
0.00609588
0.00467198
0.00493834
0.00405223
0.00614182
0.00557617
0.00513729
0.00413121
0.00615582
0.00683026
0.00518434
0.004205
0.00619509
0.00718663
0.00518027
0.00339641
0.00630798
0.00723631
0.00516225
0.00246145
0.00651234
0.00650394
0.00511147
0.00208864
0.00677375
0.00563142
0.005043
0.00250841
0.00699697
0.00520598
0.00497566
0.00417475
0.00710136
0.00576607
0.00490434
0.00445984
0.00712568
0.00735903
0.00481885
0.00445846
0.00714883
0.00825276
0.00471485
0.00443915
0.007182
0.00839917
0.00458968
0.00440047
0.00720764
0.00854369
0.00444137
0.00408196
0.00722407
0.008685
0.00427175
0.00358194
0.00723663
0.00881918
0.0040854
0.00322705
0.00725233
0.00894102
0.00388499
0.00321482
0.00727544
0.00904687
0.00366451
0.00350847
0.00729936
0.00913408
0.00341005
0.00372361
0.00730786
0.00920005
0.00311806
0.00354659
0.00728847
0.00924632
0.00280719
0.00335967
0.00719665
0.00927182
0.00250415
0.00317415
0.00707321
0.00927307
0.00223796
0.00300554
0.00693815
0.00924685
0.00199802
0.00286585
0.00679516
0.00918965
0.00177734
0.00275874
0.00659036
0.00906738
0.00164592
0.00268405
0.00618615
0.00889173
0.00162572
0.00263997
0.00575113
0.00870925
0.0017306
0.00262465
0.00569703
0.00851867
0.00194697
0.00263589
0.00613064
0.00836663
0.00224197
0.00267158
0.00604064
0.00839268
0.00258353
0.00273027
0.00596728
0.00825127
0.002949
0.00281049
0.00591733
0.00813081
0.00332125
)
;

boundaryField
{
    leftWall
    {
        type            compressible::alphatWallFunction;
        Prt             0.85;
        value           uniform 0;
    }
    rightWall
    {
        type            compressible::alphatWallFunction;
        Prt             0.85;
        value           nonuniform 0();
    }
    leftSides_periodic0
    {
        type            cyclic;
    }
    leftSides_periodic1
    {
        type            cyclic;
    }
    rightSides_periodic0
    {
        type            cyclic;
    }
    rightSides_periodic1
    {
        type            cyclic;
    }
    leftInOut_periodic0
    {
        type            cyclic;
    }
    leftInOut_periodic1
    {
        type            cyclic;
    }
    rightInOut_periodic0
    {
        type            cyclic;
    }
    rightInOut_periodic1
    {
        type            cyclic;
    }
    procBoundary0to1
    {
        type            processor;
        value           nonuniform List<scalar> 
11
(
0.00629924
0.0118334
0.0155385
0.00629924
0.0100437
0.00629924
0.0118334
0.00291106
0.00589323
0.00803592
0.00368323
)
;
    }
    procBoundary0to1throughleftInOut_periodic1
    {
        type            processorCyclic;
        value           uniform 0.0118334;
    }
    procBoundary0to2
    {
        type            processor;
        value           nonuniform List<scalar> 
316
(
7.36288e-09
4.70873e-09
6.48955e-09
7.58587e-09
1.91424e-08
9.99563e-09
1.44927e-08
1.51606e-08
2.59037e-07
1.08919e-07
1.67623e-07
1.73885e-07
1.84798e-06
7.51086e-07
1.14805e-06
1.22019e-06
7.78092e-06
3.14087e-06
4.7088e-06
5.11073e-06
2.32698e-05
9.52181e-06
1.38866e-05
1.52887e-05
5.47141e-05
2.30759e-05
3.25558e-05
3.61671e-05
0.000107649
4.72598e-05
6.43852e-05
7.19455e-05
0.000184954
8.48287e-05
0.00011176
0.000125398
0.000286349
0.000137074
0.000175239
0.000197235
0.000409161
0.000203632
0.000253693
0.000286214
0.000535359
0.000282851
0.000341339
0.000387181
0.000668634
0.000364545
0.000428372
0.00048564
0.000810937
0.000447634
0.000521547
0.000590477
0.000961399
0.000535435
0.000620206
0.000700533
0.00112015
0.000627341
0.000724134
0.000815584
0.00128743
0.000723256
0.000832998
0.000935339
0.00146368
0.000823094
0.000946216
0.0010595
0.00164939
0.000926767
0.00106323
0.00118767
0.00184421
0.00103428
0.00118514
0.00131941
0.00204447
0.00114559
0.00131647
0.00145359
0.00224232
0.00125961
0.00146368
0.00158748
0.00243218
0.00137276
0.00162607
0.00171716
0.00262716
0.00148009
0.00178158
0.00184236
0.00286867
0.00158199
0.00188784
0.00197656
0.00319267
0.0016953
0.00192291
0.00215016
0.00357354
0.00185346
0.00193571
0.00238853
0.00394479
0.0020698
0.00202549
0.00269469
0.00427441
0.00230672
0.00225469
0.00291558
0.00455836
0.00252167
0.00259278
0.00305796
0.00482198
0.00270711
0.00292551
0.0030306
0.0050818
0.00286189
0.00314553
0.00266813
0.00533504
0.00301704
0.00330541
0.0024996
0.00557832
0.00317102
0.00346579
0.00273215
0.00580792
0.00332173
0.0036259
0.00333155
0.00602517
0.00346618
0.00378444
0.00400334
0.00624429
0.00360071
0.00394034
0.00415633
0.00470732
0.0037216
0.00409264
0.00430691
0.00372549
0.00383095
0.00423984
0.00445269
0.0041829
0.00382195
0.00438017
0.00458978
0.00581258
0.00206427
0.00451136
0.00471363
0.00768813
0.00185048
0.00463034
0.00482306
0.00794544
0.00256565
0.00473321
0.00492159
0.00819618
0.00421331
0.00481649
0.00251116
0.00844129
0.00483515
0.00488115
0.00199
0.00868061
0.00502712
0.00493102
0.00277716
0.00891434
0.00522444
0.00233608
0.00508218
0.0091427
0.00542442
0.00192258
0.00561639
0.00936548
0.00562518
0.00281516
0.00578487
0.00958168
0.00582675
0.0052104
0.00597545
0.00978935
0.0060294
0.00552797
0.00619211
0.00998531
0.00623597
0.00567718
0.00643307
0.0101649
0.00644631
0.005831
0.00668357
0.0103218
0.00665974
0.00597922
0.00693528
0.0104489
0.00687565
0.00612761
0.00718872
0.0105396
0.00709344
0.00391757
0.00744488
0.010588
0.00731257
0.00260165
0.00770782
0.010591
0.00753251
0.00371876
0.00797671
0.0105437
0.00775289
0.0068285
0.00825222
0.0104178
0.00797327
0.00699437
0.00853382
0.00386344
0.0081947
0.00716492
0.00882011
0.00290386
0.00841603
0.00733726
0.00910658
0.00485749
0.00863477
0.00750951
0.00938929
0.0106083
0.00884485
0.00768039
0.0096635
0.0109382
0.00904222
0.00784856
0.00992473
0.0111575
0.00921902
0.00801245
0.0101679
0.0113983
0.00936622
0.00817086
0.0103909
0.0116685
0.00947238
0.00832291
0.0105901
0.0119738
0.00952748
0.00846829
0.0107626
0.0122875
0.00954764
0.00860761
0.0109054
0.0125838
0.00955507
0.00874134
0.011016
0.0128606
0.00952557
0.00887054
0.0110925
0.0131163
0.0094108
0.00899745
0.0111346
0.013347
0.0031166
0.00911999
0.0111551
0.0135468
0.00238769
0.00923726
0.0111713
0.0137079
0.00410994
0.00935045
0.0111801
0.0138251
0.00987611
0.00945741
0.0111829
0.0138829
0.0100227
0.00955556
0.01118
0.0138758
0.0101664
0.00964189
0.00545196
)
;
    }
    procBoundary0to2throughleftSides_periodic0
    {
        type            processorCyclic;
        value           nonuniform List<scalar> 
314
(
6.60051e-09
9.25594e-09
6.10767e-08
4.01531e-07
1.68155e-06
5.11288e-06
1.24116e-05
2.55075e-05
4.61372e-05
7.55027e-05
0.000114111
0.00016181
0.000217957
0.000281632
0.000350653
0.000420554
0.000496276
0.00057788
0.000665222
0.000757933
0.000855415
0.000956853
0.00106134
0.00116774
0.00127035
0.00137381
0.00147762
0.00158127
0.00168421
0.00178597
0.00188608
0.00198415
0.00207982
0.0021728
0.00226287
0.00234993
0.002434
0.00251532
0.00259431
0.00267116
0.00274508
0.00281442
0.00287718
0.0029312
0.00298139
0.00302668
0.00306644
0.0031009
0.00312855
0.00314548
0.00314946
0.00313951
0.0031152
0.00307102
0.00300745
0.00292555
0.00282734
0.00271594
0.00259873
0.00248435
0.00238671
0.00232528
0.00230835
0.00232867
0.00237534
0.00243677
0.00250189
0.00256077
0.00260859
0.00263181
0.00262289
0.00257896
0.00250022
0.0023878
0.0022426
0.0020659
0.00185932
0.00162507
0.00136649
1.07131e-08
1.46129e-08
1.25703e-07
8.9553e-07
3.89498e-06
1.2057e-05
2.93492e-05
5.98254e-05
0.000106563
0.00017104
0.00025311
0.000351446
0.000464117
0.000583287
0.000706727
0.00083992
0.000983444
0.00113727
0.00130131
0.00147554
0.00165999
0.00185472
0.00205977
0.00227503
0.00249997
0.0027336
0.00297126
0.00320313
0.00342847
0.0036564
0.00388642
0.00411805
0.00435081
0.00458425
0.00481791
0.00505137
0.00528421
0.00551601
0.00574637
0.00597488
0.0062011
0.00642425
0.00664266
0.00685546
0.00706854
0.00728218
0.00749644
0.00770892
0.00791623
0.00811526
0.00830372
0.00847997
0.00864337
0.0087932
0.00892869
0.00904898
0.009153
0.00923922
0.00930617
0.00935237
0.00937375
0.00936851
0.0093348
0.00927064
0.00917273
0.00904014
0.00887357
0.00867278
0.00843877
0.00817414
0.00788447
0.00757945
0.00727214
0.00698023
0.00672837
0.00653007
0.00638046
0.00627015
0.0061919
1.23415e-08
2.16133e-08
2.25752e-07
1.57308e-06
6.57656e-06
1.96205e-05
4.62627e-05
9.17583e-05
0.000159616
0.000250919
0.00036461
0.000498339
0.000646718
0.000798843
0.000964054
0.00114101
0.00132981
0.0015312
0.00174584
0.00197285
0.00220892
0.00245164
0.00270059
0.0029557
0.00321663
0.00347797
0.00373506
0.00399625
0.00426119
0.00452953
0.00479992
0.00507057
0.00534065
0.00560923
0.00587547
0.0061386
0.00639784
0.00665246
0.00690178
0.00714515
0.00738204
0.007612
0.0078348
0.00805039
0.00825891
0.00846078
0.00865666
0.00884725
0.00903231
0.00921071
0.00938107
0.00954242
0.00969418
0.00983621
0.00996878
0.0100925
0.0102082
0.0103159
0.010415
0.0105048
0.0105822
0.010647
0.0106975
0.0107307
0.0107431
0.0107311
0.0106907
0.010619
0.0105142
0.0103763
0.0102072
0.0100186
0.00981244
0.00959694
0.00938723
0.00919768
0.00904632
0.00893956
9.27267e-09
1.4017e-08
1.13822e-07
7.71121e-07
3.23419e-06
9.78335e-06
2.35386e-05
4.78118e-05
8.52981e-05
0.000137482
0.000204471
0.000285236
0.000378041
0.000480867
0.000581458
0.00068753
0.000799888
0.000918568
0.00104332
0.0011739
0.00131012
0.00145188
0.00159906
0.00175161
0.00190959
0.00207351
0.00224522
0.00242593
0.0026087
0.00276707
0.00292571
0.00308462
0.00324382
0.00340316
0.00356234
0.00372086
0.00387824
0.00403411
0.00418826
0.00434061
0.00449125
0.00464055
0.00478918
0.00493806
0.00508788
0.00523829
0.00538791
0.00553491
0.00567758
0.00581434
0.00594366
0.00606397
0.00617362
0.00627083
0.00635376
0.00642083
0.00647102
0.00650337
0.00651459
0.00650286
0.00646763
0.00641101
0.00633398
0.00623788
0.00612455
0.00599663
0.00585698
0.0057086
0.00555391
0.00539481
0.00523261
0.00506788
0.00490116
0.00473382
0.0045594
0.00436868
0.00416522
0.00395683
)
;
    }
}


// ************************************************************************* //
