/*--------------------------------*- C++ -*----------------------------------*\
| =========                 |                                                 |
| \\      /  F ield         | OpenFOAM: The Open Source CFD Toolbox           |
|  \\    /   O peration     | Version:  v1906                                 |
|   \\  /    A nd           | Web:      www.OpenFOAM.com                      |
|    \\/     M anipulation  |                                                 |
\*---------------------------------------------------------------------------*/
FoamFile
{
    version     2.0;
    format      ascii;
    class       volScalarField;
    location    "98.8";
    object      pPrime2Mean;
}
// * * * * * * * * * * * * * * * * * * * * * * * * * * * * * * * * * * * * * //

dimensions      [2 -2 -4 0 0 0 0];


internalField   nonuniform List<scalar> 
630
(
-1.33514e-05
39395.3
3035.06
38946.3
0.00716209
39390.6
3035.61
38941.4
0.0408592
39383.1
3036.54
38933.7
0.115744
39371.6
3038.03
38921.8
0.236256
39355
3040.21
38904.6
0.416481
39333.2
3043.09
38882
0.667225
39305.7
3046.75
38853.6
1.00589
39272.1
3051.25
38818.6
1.45672
39231.5
3056.71
38776.4
2.05092
39182.9
3063.25
38726
2.8321
39125.2
3071.05
38665.9
3.85293
39056.9
3080.28
38594.7
5.17985
38976.6
3091.12
38511
6.89275
38883
3103.72
38413.3
9.08737
38774.8
3118.29
38300.3
11.8798
38650.8
3135.01
38170.8
15.4099
38509.6
3154.12
38023.6
19.843
38350.2
3175.82
37857.5
25.3702
38171.3
3200.36
37671.4
32.2103
37972.2
3228
37464.6
40.6079
37751.9
3259.04
37236.1
50.8415
37510
3293.8
36985.7
63.2268
37246.1
3332.58
36712.9
78.107
36960.3
3375.67
36417.7
95.8388
36652.5
3423.3
36100.3
116.795
36323.1
3475.74
35761.3
141.378
35972.7
3533.24
35401.3
170.014
35602.1
3596
35020.6
203.134
35212.2
3664.21
34620
241.171
34804.1
3738.08
34200.1
284.56
34378.8
3817.92
33762.1
333.718
33937.2
3904.06
33307.6
389.047
33480.4
3996.76
32839
450.856
33010.9
4096.15
32359.5
519.21
32531.2
4201.96
31871.7
594.015
32041.9
4313.48
31375.2
675.318
31540.7
4429.65
30867.4
763.257
31025.7
4549.7
30345.5
857.763
30497.8
4674.26
29809.9
958.769
29962.1
4805.4
29264.6
1066.65
29424.1
4944.85
28714.5
1182.17
28886.2
5092.92
28163.1
1305.95
28347.9
5248.77
27611.5
1437.6
27808.7
5412
27058.3
1576.12
27269.1
5583.47
26500.9
1721.62
26730
5763.67
25937.6
1875.53
26190.3
5951.52
25368.6
2039.4
25647.3
6145.28
24797.4
2213.34
25101.4
6343.61
24228.8
2395.58
24556.8
6545.63
23666.2
2584.34
24017.6
6750.94
23111.1
2779.63
23485.8
6960.37
22562.4
2983.07
22961.1
7176.11
22017.6
3196.04
22443.4
7399.91
21475.9
3418.14
21933.6
7631.66
20938.9
3647.65
21431.6
7869.94
20409.7
3883.03
20937.1
8113.78
19889.7
4123.76
20450.1
8362.53
19378.6
4370.3
19972.3
8615.19
18876.5
4623.28
19506.5
8871.12
18385.4
4882.77
19053.6
9130.26
17905.9
5147.11
18611.9
9392.23
17436.8
5412.16
18178.5
9655.28
16976.1
5673.67
17752.3
9917.32
16523.9
5931.46
17335.9
10178.5
16082.1
6190.37
16933.3
10442.2
15652.5
6455.69
16544.9
10711.4
15234.1
6728.42
16167
10984.7
14823.5
7005.67
15795.9
11258.5
14418.8
7284.92
15431.9
11531
14021.1
7565.91
15078.7
11802.3
13633.3
7848.9
14739
12072.9
13256.6
8132.95
14412
12343.1
12890.2
8416.08
14094.3
12612.7
12533.1
8696.18
13783.9
12880.6
12186.6
8972.38
13481.7
13146.7
11854.4
9245.18
13191.6
13410
11541.6
9514.87
12918.3
13670
11255.1
9783.13
12664
123228
142462
126431
141616
123228
142461
126431
141616
123229
142460
126432
141614
123230
142458
126434
141613
123232
142456
126437
141610
123235
142453
126440
141607
123238
142448
126444
141602
123242
142443
126449
141597
123247
142436
126455
141590
123253
142428
126463
141582
123260
142419
126471
141573
123269
142408
126482
141561
123278
142395
126494
141548
123290
142380
126507
141532
123302
142362
126523
141514
123317
142341
126541
141494
123333
142318
126560
141472
123351
142291
126582
141447
123372
142262
126607
141419
123394
142230
126634
141389
123419
142194
126663
141356
123445
142155
126695
141319
123475
142113
126730
141280
123507
142066
126768
141237
123541
142017
126809
141191
123578
141963
126852
141141
123618
141906
126899
141088
123661
141845
126949
141033
123707
141781
127002
140974
123756
141713
127059
140911
123808
141641
127119
140845
123863
141564
127182
140775
123921
141484
127248
140701
123981
141400
127318
140625
124043
141315
127390
140548
124108
141226
127465
140470
124176
141134
127545
140390
124247
141038
127630
140307
124323
140939
127719
140220
124403
140836
127813
140129
124487
140729
127909
140035
124572
140619
128008
139937
124661
140506
128112
139835
124754
140393
128219
139730
124850
140280
128328
139622
124950
140164
128440
139513
125053
140042
128556
139404
125162
139911
128678
139296
125279
139775
128808
139186
125404
139637
128943
139073
125535
139500
129085
138959
125671
139366
129231
138842
125813
139232
129384
138724
125960
139096
129541
138603
126108
138959
129703
138482
126257
138821
129867
138360
126406
138682
130032
138239
126558
138541
130199
138118
126716
138398
130369
137997
126881
138255
130541
137875
127052
138114
130715
137754
127228
137977
130889
137634
127408
137843
131065
137515
127590
137711
131244
137397
127774
137580
131427
137280
127958
137453
131615
137163
128143
137329
131807
137045
128327
137208
132002
136925
128516
137090
132202
136804
128713
136973
132409
136682
128917
136859
132621
136561
129130
136745
132839
136442
129351
136632
133062
136326
129579
136521
133290
136214
129815
136411
133521
136106
130055
136300
133751
135999
130291
136183
133974
135885
130514
136053
134180
135760
130712
135900
134361
135616
)
;

boundaryField
{
    leftWall
    {
        type            calculated;
        value           nonuniform List<scalar> 8(-1.52588e-05 123228 39395.3 142462 3035.06 126431 38946.3 141616);
    }
    rightWall
    {
        type            calculated;
        value           nonuniform 0();
    }
    leftSides_periodic0
    {
        type            cyclic;
    }
    leftSides_periodic1
    {
        type            cyclic;
    }
    rightSides_periodic0
    {
        type            cyclic;
    }
    rightSides_periodic1
    {
        type            cyclic;
    }
    leftInOut_periodic0
    {
        type            cyclic;
    }
    leftInOut_periodic1
    {
        type            cyclic;
    }
    rightInOut_periodic0
    {
        type            cyclic;
    }
    rightInOut_periodic1
    {
        type            cyclic;
    }
    procBoundary0to1
    {
        type            processor;
        value           nonuniform List<scalar> 
11
(
13927.4
10996.4
10056
13927.4
12423
13927.4
10996.4
130887
135716
134515
135447
)
;
    }
    procBoundary0to1throughleftInOut_periodic1
    {
        type            processorCyclic;
        value           uniform 10996.4;
    }
    procBoundary0to2
    {
        type            processor;
        value           nonuniform List<scalar> 
316
(
68132.1
98517.6
68223.4
102743
68126.4
98509
68217.8
102734
68120.6
98498.4
68212.1
102723
68120.1
98489.9
68211.9
102714
68123
98481
68215
102705
68126.7
98469
68219.3
102691
68131.4
98453.7
68224.6
102674
68137.1
98434.7
68231.2
102654
68143.9
98411.8
68239.2
102628
68151.9
98384.6
68248.6
102598
68161.2
98352.5
68259.6
102563
68172.1
98315
68272.6
102521
68184.6
98271.8
68287.4
102474
68198.8
98222.3
68304.5
102419
68214.9
98166.2
68323.7
102357
68233
98102.9
68345.5
102287
68253.3
98032.1
68369.8
102208
68275.8
97953.2
68397.1
102120
68301
97865.9
68427.3
102023
68328.8
97769.8
68460.8
101916
68359.4
97664.5
68497.7
101798
68392.9
97549.3
68538.2
101668
68429.6
97423.7
68582.6
101526
68470.2
97287.1
68631
101371
68515.3
97138.9
68683.6
101202
68564.6
96980
68740.8
101020
68616.9
96812.3
68802.3
100829
68671
96637.4
68867.5
100629
68727.1
96453.4
68936.3
100418
68787.6
96256.9
69009.5
100194
68855
96045.7
69088.5
99950.6
68929.6
95821.2
69173.9
99688.9
69009.4
95586
69265
99411.8
69092.6
95340.4
69360.4
99121.9
69179.2
95082.9
69460.2
98819.1
69271
94811.1
69565.8
98502.2
69369.5
94524.3
69678.8
98170.5
69473.9
94225.9
69798.5
97826
69581.5
93923.2
69921.2
97473.8
69691.9
93620.6
70045.1
97116.2
69808
93314.3
70173.6
96749.1
69934.3
92995.4
70312.7
96366.1
70073.8
92657.8
70466.6
95964.6
70225.5
92303.1
70633.4
95550.1
70386.8
91937.3
70808.1
95129.9
70556.2
91564.7
70988.2
94705.2
70732.9
91186.7
71173.1
94272.7
70916.9
90804.3
71362.7
93831
71108.7
90418
71557.9
93382.1
71308.5
90027.4
71760.6
92929.4
71516.1
89633.8
71973.1
92476
71730.6
89243.1
72195.1
92026.2
71948.7
88864.1
72421.8
91586.9
72164.3
88500.6
72645.9
91161.7
72374.5
88146.1
72864
90745.4
72583.8
87789
73080.5
90325.8
72801.7
87422.5
73305.9
89894
73035.5
87050.6
73547.9
89453.4
73283.9
86680.9
73804.4
89014.4
73540
86315.5
74067.9
88583
73799.4
85953.3
74334.8
88159.5
74060.6
85595.9
74605.6
87744.1
74322.1
85248.7
74881.3
87338.5
74582.7
84916.6
75161.9
86944.9
74840.6
84600.2
75446.5
86562.8
75095.1
84294.8
75732.3
86187.2
75349.4
83993.7
76018.4
85812.4
75609
83694.5
76306.9
85437.6
75877.8
83398.8
76601.4
85066.8
76155.6
83109.2
76903.1
84703.7
76439
82826.3
77211
84348.2
76726.9
82549.8
77523.7
83997.5
77021
82279.9
77841.5
83649.5
77321.2
82016.9
78163.4
83305.8
77625.1
81759.9
78487.7
82970.1
77928.7
81507.4
78810.4
82645.1
78228
81259.2
79124.5
82330.8
78518.3
81016.2
79420.9
82025.6
78795.2
80775.7
79689.2
81722.5
)
;
    }
    procBoundary0to2throughleftSides_periodic0
    {
        type            processorCyclic;
        value           nonuniform List<scalar> 
314
(
14583.8
14573.7
14562.1
14555.5
14550.8
14544.4
14536.3
14526.2
14514.2
14500
14483.3
14463.9
14441.5
14415.9
14386.7
14353.9
14317.1
14276
14230.4
14179.9
14124.3
14063.4
13996.9
13924.8
13847.2
13763.9
13675.3
13581.4
13482.4
13378.6
13270.4
13158
13041.7
12922.2
12799.7
12674.8
12548
12419.8
12290.8
12161.5
12032.5
11904.3
11777.8
11653.4
11531.5
11412.1
11295.7
11182.4
11072.8
10967.4
10866.6
10770.4
10679
10592.4
10510.8
10434.7
10364.3
10299.3
10239.6
10185.1
10136
10092.4
10053.7
10019
9987.59
9959.31
9934.51
9913.53
9896.46
9883.06
9872.81
9864.97
9858.9
9854.38
9851.51
9850.43
9851.15
9853.53
9857.38
15193.7
15183.6
15171.9
15165.4
15160.8
15154.7
15147
15137.5
15126.1
15112.6
15096.9
15078.6
15057.5
15033.4
15005.8
14974.6
14939.5
14900.2
14856.2
14807.4
14753.5
14694.1
14629.1
14558.4
14481.9
14399.6
14311.4
14217.5
14118.1
14013.4
13903.5
13788.7
13669.4
13546
13418.8
13288.3
13155.1
13019.7
12882.7
12744.6
12605.9
12467.2
12329.1
12192.4
12057.9
11926.1
11797.5
11672.5
11551.9
11435.9
11325
11219.5
11119.7
11026.6
10940.3
10860.2
10785.7
10715.9
10651
10591.5
10537.8
10489.7
10446.5
10407.4
10371.7
10339
10309.7
10283.9
10261.9
10243.2
10227.3
10214.2
10203.6
10195.2
10188.8
10184.2
10181.2
10179.9
10180
14240.4
14230.5
14218.9
14212.6
14208.1
14202
14194.1
14184.5
14172.9
14159.2
14143.1
14124.3
14102.7
14077.8
14049.7
14017.9
13982.4
13942.7
13898.7
13850.1
13796.5
13737.9
13674
13604.9
13530.5
13451
13366.6
13277.3
13183.5
13085.3
12983.2
12877.3
12768.1
12656
12541.5
12425.1
12307.3
12188.7
12069.5
11950.4
11831.7
11714
11598
11484.1
11372.9
11264.3
11158.7
11056.2
10957.3
10862.3
10771.8
10686.2
10605.8
10530.6
10460.5
10395.4
10335.2
10279.9
10229.7
10184.4
10143.8
10107.7
10075.9
10048.3
10024.9
10005.1
9988.37
9974.34
9962.85
9953.8
9947
9942.35
9939.92
9939.63
9941.2
9944.35
9948.91
9954.69
13369.6
13359.8
13348.6
13342.7
13339
13334
13327.6
13319.7
13310.1
13298.7
13285.4
13269.8
13251.8
13231
13207.4
13180.6
13150.4
13116.7
13079.1
13037.5
12991.7
12941.6
12887.1
12828.1
12764.7
12697
12625.1
12549.3
12469.8
12386.8
12300.7
12211.9
12120.7
12027.5
11932.6
11836.8
11740.6
11644.6
11549
11453.9
11359.6
11266.8
11176.1
11087.8
11001.8
10918.3
10837.9
10761.2
10688.6
10620
10555.3
10494.7
10438.4
10386.2
10337.6
10292.1
10249.6
10210.2
10174.4
10141.9
10112.2
10085.2
10061.4
10041.4
10025.3
10012.4
10001.9
9993.09
9985.89
9980.38
9976.65
9974.74
9974.66
9976.21
9979.1
9983.18
9988.45
9994.61
)
;
    }
}


// ************************************************************************* //
