/*--------------------------------*- C++ -*----------------------------------*\
| =========                 |                                                 |
| \\      /  F ield         | OpenFOAM: The Open Source CFD Toolbox           |
|  \\    /   O peration     | Version:  v1906                                 |
|   \\  /    A nd           | Web:      www.OpenFOAM.com                      |
|    \\/     M anipulation  |                                                 |
\*---------------------------------------------------------------------------*/
FoamFile
{
    version     2.0;
    format      ascii;
    class       volVectorField;
    location    "98.8";
    object      U;
}
// * * * * * * * * * * * * * * * * * * * * * * * * * * * * * * * * * * * * * //

dimensions      [0 1 -1 0 0 0 0];


internalField   nonuniform List<vector> 
630
(
(-0.000232225 -0.000127949 -0.00976893)
(-0.00567902 -6.03894e-05 -0.0076996)
(0.00023383 2.57838e-05 -0.0108387)
(0.00576681 -5.28213e-05 -0.0100139)
(-0.000158397 0.00116993 -0.0242468)
(-0.0095924 -0.000178843 -0.0189131)
(0.000162534 0.000105551 -0.0270484)
(0.00980572 -0.000169569 -0.0252873)
(0.000255018 -0.000211442 -0.0365858)
(-0.00764057 -0.000312268 -0.0285783)
(-0.000252632 0.00016802 -0.0407132)
(0.0079263 -0.000295305 -0.038554)
(0.000598533 0.0011823 -0.0489936)
(-0.00533325 -0.000503106 -0.0385043)
(-0.000604367 0.000281761 -0.0543992)
(0.005663 -0.00048252 -0.0517508)
(0.000769746 0.000692518 -0.0615214)
(-0.00452524 -0.000656924 -0.0487184)
(-0.000790602 0.00036968 -0.0683308)
(0.00483183 -0.000634725 -0.0649295)
(0.000839517 0.00107141 -0.073652)
(-0.00442406 -0.000820463 -0.0588114)
(-0.000883469 0.000462401 -0.0819417)
(0.00465392 -0.000796585 -0.0776701)
(0.000841184 0.00120797 -0.0851759)
(-0.00468624 -0.000986186 -0.0686048)
(-0.000917715 0.000553002 -0.0949663)
(0.00479481 -0.00096025 -0.0898147)
(0.000793635 0.00138736 -0.096)
(-0.00514173 -0.00115246 -0.0780046)
(-0.000913161 0.000640068 -0.107255)
(0.00508933 -0.00112392 -0.101302)
(0.000709839 0.00154813 -0.10607)
(-0.00568984 -0.00131982 -0.0869457)
(-0.000882018 0.000726323 -0.11872)
(0.00543888 -0.00128804 -0.112098)
(0.000599079 0.00172154 -0.115363)
(-0.00626689 -0.00148902 -0.0953797)
(-0.000830308 0.000810072 -0.129343)
(0.00578222 -0.00145405 -0.122181)
(0.000466364 0.00189969 -0.123901)
(-0.00685332 -0.00166159 -0.103285)
(-0.000761633 0.000886101 -0.139179)
(0.00610522 -0.00162169 -0.131555)
(0.00031506 0.00207159 -0.13175)
(-0.00746193 -0.00183402 -0.110673)
(-0.000680887 0.000953556 -0.148329)
(0.00641661 -0.00178642 -0.140255)
(0.000149955 0.00223559 -0.139001)
(-0.0080971 -0.00200142 -0.117595)
(-0.000594673 0.0010136 -0.156852)
(0.00671676 -0.00194655 -0.148352)
(-2.19934e-05 0.00239611 -0.145705)
(-0.00873768 -0.00216443 -0.124096)
(-0.000509663 0.00106881 -0.164781)
(0.00699574 -0.00210316 -0.155904)
(-0.000192667 0.0025597 -0.151881)
(-0.00933509 -0.00232709 -0.130188)
(-0.000429512 0.00111881 -0.172176)
(0.00722549 -0.00225918 -0.162942)
(-0.000356558 0.00272514 -0.157566)
(-0.00984301 -0.00249057 -0.135885)
(-0.000355579 0.00116241 -0.179097)
(0.0073871 -0.00241433 -0.169505)
(-0.000510961 0.00288806 -0.16281)
(-0.010246 -0.00265257 -0.141218)
(-0.000289084 0.00120066 -0.185592)
(0.00747933 -0.00256713 -0.175631)
(-0.000654324 0.00304955 -0.167658)
(-0.010544 -0.00281207 -0.146221)
(-0.00023176 0.00123293 -0.191698)
(0.00750174 -0.00271849 -0.181353)
(-0.000785932 0.00320953 -0.172157)
(-0.0107353 -0.00296946 -0.150919)
(-0.000186404 0.001259 -0.197433)
(0.00745559 -0.00286853 -0.186706)
(-0.000905655 0.00336804 -0.176348)
(-0.0108168 -0.00312553 -0.155336)
(-0.000156384 0.00128312 -0.202797)
(0.0073445 -0.0030173 -0.191719)
(-0.00101377 0.00352506 -0.18027)
(-0.0107891 -0.00328172 -0.159491)
(-0.000142825 0.00131582 -0.207792)
(0.00717398 -0.00316469 -0.196422)
(-0.00111082 0.0036803 -0.183957)
(-0.0106624 -0.00343839 -0.163403)
(-0.000140557 0.00136435 -0.212466)
(0.00694992 -0.00331045 -0.200844)
(-0.00119757 0.00383331 -0.187441)
(-0.0104568 -0.00359418 -0.1671)
(-0.000137475 0.00141745 -0.216949)
(0.00667614 -0.00345425 -0.205009)
(-0.00127487 0.00398379 -0.19075)
(-0.0101954 -0.00374753 -0.170613)
(-0.000121276 0.00144425 -0.221415)
(0.00635298 -0.0035967 -0.20894)
(-0.00134354 0.00412996 -0.193908)
(-0.00989549 -0.00389813 -0.17397)
(-9.0899e-05 0.00142196 -0.225978)
(0.00598029 -0.00373955 -0.212652)
(-0.00140435 0.00427784 -0.196932)
(-0.00956512 -0.00404702 -0.177193)
(-6.36519e-05 0.00137603 -0.230555)
(0.00556456 -0.00388634 -0.216165)
(-0.00145823 0.00442685 -0.199841)
(-0.00920748 -0.00419684 -0.180295)
(-6.77349e-05 0.00136865 -0.234852)
(0.0051258 -0.0040342 -0.219501)
(-0.00150606 0.0045697 -0.202652)
(-0.00882853 -0.00434798 -0.183288)
(-0.000119076 0.00145013 -0.238575)
(0.00468839 -0.0041772 -0.222692)
(-0.00154816 0.00470865 -0.205382)
(-0.00843807 -0.00449751 -0.186183)
(-0.000204602 0.00157084 -0.241731)
(0.00426619 -0.00431526 -0.225763)
(-0.0015841 0.00484319 -0.208041)
(-0.00804376 -0.00464404 -0.188994)
(-0.00029766 0.00164253 -0.244577)
(0.00385965 -0.00445079 -0.228728)
(-0.001613 0.00497923 -0.210627)
(-0.00764769 -0.00478778 -0.191731)
(-0.000383088 0.00165612 -0.247353)
(0.00345983 -0.00458916 -0.231589)
(-0.00163425 0.00511882 -0.213142)
(-0.00724692 -0.00493115 -0.194399)
(-0.000461744 0.00164534 -0.250125)
(0.00306079 -0.00472996 -0.23435)
(-0.00164761 0.00525626 -0.215588)
(-0.00683872 -0.0050757 -0.197002)
(-0.000541665 0.00166242 -0.252845)
(0.00266317 -0.00487007 -0.237018)
(-0.00165288 0.0053918 -0.21797)
(-0.00642452 -0.00521987 -0.199543)
(-0.000627923 0.00171154 -0.25548)
(0.00226902 -0.0050105 -0.239598)
(-0.00164981 0.00552533 -0.22029)
(-0.00600725 -0.00536318 -0.202027)
(-0.000720787 0.00176059 -0.258031)
(0.0018803 -0.00515151 -0.242094)
(-0.00163815 0.00565662 -0.222552)
(-0.00558844 -0.00550549 -0.204455)
(-0.000819641 0.00180868 -0.260508)
(0.00149774 -0.00529305 -0.24451)
(-0.00161759 0.00578525 -0.224758)
(-0.0051666 -0.00564533 -0.206828)
(-0.000924242 0.00185967 -0.262918)
(0.00112068 -0.005435 -0.246847)
(-0.00158775 0.00590881 -0.226911)
(-0.00473503 -0.00578599 -0.20914)
(-0.00103461 0.00191403 -0.265265)
(0.000748418 -0.00557728 -0.249107)
(-0.0015481 0.00602964 -0.229012)
(-0.00428174 -0.00593263 -0.211387)
(-0.00115104 0.00197192 -0.267555)
(0.00038333 -0.00572023 -0.251293)
(-0.00149788 0.00616087 -0.231061)
(-0.00378951 -0.00606367 -0.213558)
(-0.0012741 0.00203353 -0.269793)
(3.38538e-05 -0.00586461 -0.253412)
(-0.00143594 0.00631131 -0.233055)
(-0.00323157 -0.00622567 -0.215642)
(-0.00140491 0.00209938 -0.271983)
(-0.000286333 -0.00601071 -0.255472)
(-0.00136137 0.00646428 -0.234984)
(-0.00263651 -0.00635174 -0.21765)
(-0.00154419 0.00216978 -0.274128)
(-0.000565261 -0.00615802 -0.25748)
(-0.00127398 0.00638838 -0.236834)
(-0.00210121 -0.0066196 -0.219659)
(-0.00169064 0.00224458 -0.276232)
(-0.000803524 -0.00630551 -0.259435)
(-0.00117764 0.00673005 -0.238593)
(-0.00204729 -0.00699593 -0.221993)
(-0.00183626 0.00232407 -0.278296)
(-0.00102396 -0.00645271 -0.261321)
(-0.00110577 0.00753628 -0.240554)
(-0.00294779 -0.00696622 -0.225155)
(-0.00196241 0.002408 -0.280322)
(-0.00125343 -0.00659934 -0.263118)
(-0.00113842 0.00774467 -0.243537)
(-0.0044193 -0.00644664 -0.229424)
(-0.00205062 0.0024957 -0.282314)
(-0.00149105 -0.00674754 -0.264812)
(-0.0013229 0.00698061 -0.248523)
(-0.0053617 -0.00613725 -0.233713)
(-0.00209841 0.00258716 -0.28428)
(-0.001716 -0.00690554 -0.266399)
(-0.0015921 0.00550305 -0.255303)
(-0.00455694 -0.00700732 -0.235805)
(-0.00212541 0.00268336 -0.286231)
(-0.00191221 -0.00707669 -0.267883)
(-0.00164752 0.00619084 -0.259537)
(-0.00286889 -0.00788077 -0.236567)
(-0.002156 0.00278348 -0.288177)
(-0.00209774 -0.00725225 -0.269263)
(-0.00147376 0.00808468 -0.260279)
(-0.00152442 -0.00807409 -0.23754)
(-0.00220201 0.00288602 -0.290116)
(-0.00232422 -0.00741982 -0.27054)
(-0.00128938 0.00879035 -0.260405)
(-0.000896258 -0.00779624 -0.239043)
(-0.00226044 0.00299102 -0.292025)
(-0.00262419 -0.00757532 -0.271716)
(-0.00116884 0.0085593 -0.261183)
(-0.000554215 -0.00775409 -0.240691)
(-0.00232291 0.00310183 -0.293861)
(-0.00299222 -0.00772495 -0.272793)
(-0.00108645 0.00798537 -0.262523)
(-0.000164593 -0.00796698 -0.242291)
(-0.00238845 0.00322212 -0.295592)
(-0.00339144 -0.00787383 -0.27377)
(-0.00100453 0.00793689 -0.26396)
(0.000247866 -0.0081024 -0.243842)
(-0.00245765 0.00335145 -0.297213)
(-0.00378458 -0.00802271 -0.274651)
(-0.000913789 0.00821504 -0.265341)
(0.00066389 -0.00823155 -0.24535)
(-0.00252774 0.00348494 -0.298729)
(-0.00415948 -0.00817112 -0.275435)
(-0.000816635 0.00832268 -0.266669)
(0.00107858 -0.00835749 -0.246819)
(-0.00259557 0.00361753 -0.300138)
(-0.0045136 -0.00831854 -0.276124)
(-0.000714819 0.00842608 -0.267944)
(0.00148838 -0.00847989 -0.248247)
(-0.00265854 0.00375423 -0.30143)
(-0.00484308 -0.00846474 -0.276721)
(-0.000609671 0.00851508 -0.269172)
(0.0018915 -0.00859974 -0.249636)
(-0.00271322 0.00391514 -0.302654)
(-0.00514458 -0.00860949 -0.277228)
(-0.000502271 0.00859415 -0.270354)
(0.00228709 -0.00871672 -0.250985)
(-0.00275036 0.00410218 -0.30397)
(-0.00541499 -0.00875246 -0.277649)
(-0.000393521 0.00866381 -0.271495)
(0.00267565 -0.00883075 -0.252294)
(-0.00275608 0.00427115 -0.305556)
(-0.00565224 -0.00889309 -0.277988)
(-0.00028434 0.00872338 -0.272593)
(0.00305896 -0.00894155 -0.253563)
(-0.00272905 0.00440293 -0.307362)
(-0.00585546 -0.00903067 -0.278251)
(-0.000175724 0.00877618 -0.273642)
(0.00343883 -0.00904846 -0.254792)
(-0.00268444 0.00454448 -0.309085)
(-0.00602398 -0.00916436 -0.278444)
(-6.87139e-05 0.00883907 -0.274633)
(0.00381623 -0.00915096 -0.255982)
(-0.00263189 0.00472005 -0.310452)
(-0.0061566 -0.00929412 -0.278575)
(3.56223e-05 0.00889015 -0.275554)
(0.00419199 -0.00924847 -0.257135)
(-0.00256677 0.00490191 -0.311396)
(-0.00625182 -0.00941974 -0.278651)
(0.000136301 0.00901953 -0.276382)
(0.00456875 -0.00934074 -0.258252)
(-0.00248224 0.00507652 -0.311988)
(-0.00631026 -0.0095383 -0.278681)
(0.000234465 0.00887788 -0.277134)
(0.00495028 -0.00942796 -0.259334)
(-0.00237519 0.00525232 -0.312318)
(-0.00633597 -0.00964546 -0.278668)
(0.000324155 0.00900023 -0.277799)
(0.00534743 -0.00950994 -0.260385)
(-0.00224414 0.00542897 -0.312446)
(-0.00634354 -0.00974059 -0.278609)
(0.000430261 0.00990136 -0.278833)
(0.005768 -0.00958448 -0.261411)
(-0.00209013 0.00560667 -0.312424)
(-0.00634873 -0.00979614 -0.278488)
(0.000507191 0.00954036 -0.281388)
(0.00618802 -0.00965244 -0.262416)
(-0.00191703 0.00578495 -0.31229)
(-0.00633595 -0.0100001 -0.278286)
(0.000435183 0.00776991 -0.285508)
(0.00658105 -0.00972021 -0.263406)
(-0.00173865 0.00596114 -0.312077)
(-0.00612059 -0.0105387 -0.278418)
(0.000464405 0.00757982 -0.288341)
(0.00695338 -0.0097845 -0.264384)
(-0.00158456 0.0061582 -0.31181)
(-0.00554306 -0.0108063 -0.279713)
(0.000664138 0.00954897 -0.287648)
(0.00734788 -0.00983705 -0.26535)
(-0.0014843 0.00632293 -0.311497)
(-0.00490535 -0.00981231 -0.281628)
(0.000768814 0.0101183 -0.286827)
(0.00779398 -0.00987604 -0.266304)
(-0.00145791 0.00660796 -0.311449)
(-0.00495799 -0.00811135 -0.280026)
(0.000838284 0.00931076 -0.28691)
(0.00827296 -0.00990171 -0.267246)
(-0.00145432 0.00688971 -0.312274)
(-0.00655835 -0.00996942 -0.269478)
(0.000907119 0.00892981 -0.287271)
(0.00873884 -0.00992526 -0.26817)
(-0.00135875 0.00679507 -0.313469)
(-0.00778558 -0.0113572 -0.261769)
(0.000969583 0.00894316 -0.287505)
(0.00917151 -0.009927 -0.269068)
(-0.00117573 0.0063114 -0.312126)
(-0.00836736 -0.010773 -0.258308)
(0.00103734 0.00888957 -0.287617)
(0.00956187 -0.00991774 -0.269943)
(-0.00125143 0.00706373 -0.305936)
(-0.00836324 -0.0102366 -0.257491)
(0.00110642 0.00871147 -0.287634)
(0.00990693 -0.00988514 -0.270791)
(-0.00139471 0.00804191 -0.301545)
(-0.00813721 -0.0102388 -0.257303)
(0.00116571 0.00852384 -0.287478)
(0.0102151 -0.00974611 -0.271529)
(-3.19604e-05 -1.43495e-05 -0.00424718)
(-3.23842e-07 -4.43901e-07 -0.00389174)
(-4.56275e-05 -8.73724e-06 -0.00620106)
(-3.11436e-05 -1.0862e-06 -0.00374866)
(-0.000187619 -3.52535e-05 -0.00944207)
(-0.000386543 1.90932e-06 -0.0116448)
(-4.323e-05 -2.00907e-05 -0.0165043)
(0.000292444 -1.17662e-06 -0.0108647)
(-0.000372672 -6.2265e-05 -0.0131347)
(-0.000830327 -5.92656e-07 -0.0202731)
(-1.18057e-05 -4.39471e-05 -0.0262919)
(0.000672931 -4.31354e-06 -0.0185929)
(-0.000539509 -8.72881e-05 -0.0174662)
(-0.00114334 3.71684e-06 -0.0294586)
(3.87304e-07 -6.43964e-05 -0.0365618)
(0.000921961 -2.11175e-06 -0.0268489)
(-0.000684692 -0.00010755 -0.0227653)
(-0.00134152 3.7934e-06 -0.0387682)
(-1.02124e-05 -8.76789e-05 -0.0472052)
(0.00105562 -3.14516e-06 -0.035266)
(-0.00081615 -0.000127758 -0.0285692)
(-0.00147044 3.82042e-06 -0.0480806)
(-3.56167e-05 -0.000112442 -0.0578575)
(0.00111971 -4.41993e-06 -0.0436903)
(-0.000936193 -0.000147247 -0.0346502)
(-0.00154954 3.08628e-06 -0.0572888)
(-7.29775e-05 -0.000138824 -0.0683124)
(0.00113396 -6.37186e-06 -0.052017)
(-0.00104502 -0.000166015 -0.0408778)
(-0.00158864 1.69389e-06 -0.0662922)
(-0.000121057 -0.000166696 -0.078436)
(0.00110849 -9.08526e-06 -0.06017)
(-0.00114214 -0.00018402 -0.047162)
(-0.00159427 -1.82557e-08 -0.0749944)
(-0.000178896 -0.000195573 -0.0881296)
(0.00105016 -1.23586e-05 -0.0680896)
(-0.00122692 -0.000201108 -0.0534324)
(-0.00157163 -1.76293e-06 -0.0833107)
(-0.000245438 -0.000224925 -0.0973218)
(0.000964824 -1.60075e-05 -0.0757258)
(-0.00129889 -0.00021697 -0.0596307)
(-0.00152511 -3.31448e-06 -0.0911816)
(-0.000319545 -0.000254493 -0.105973)
(0.000857803 -1.9797e-05 -0.083039)
(-0.00135786 -0.000231978 -0.0657111)
(-0.00145868 -4.3946e-06 -0.0985806)
(-0.000400163 -0.000283715 -0.114079)
(0.000733852 -2.35794e-05 -0.0900031)
(-0.00140384 -0.000246027 -0.0716482)
(-0.001376 -4.78663e-06 -0.10551)
(-0.000486386 -0.000312412 -0.12167)
(0.000597284 -2.72012e-05 -0.0966088)
(-0.00143697 -0.000258873 -0.0774352)
(-0.00128023 -4.55127e-06 -0.111997)
(-0.00057736 -0.000340463 -0.128801)
(0.000451791 -3.04928e-05 -0.102861)
(-0.00145794 -0.000270476 -0.0830863)
(-0.00117413 -3.77537e-06 -0.118089)
(-0.000671945 -0.000367572 -0.135522)
(0.000299749 -3.37041e-05 -0.108779)
(-0.00146801 -0.000280604 -0.0886147)
(-0.00106121 -2.34046e-06 -0.123846)
(-0.000768844 -0.00039392 -0.141859)
(0.000143038 -3.69045e-05 -0.114403)
(-0.00146849 -0.000289903 -0.0940135)
(-0.000945754 8.09664e-08 -0.129309)
(-0.000866985 -0.000419281 -0.147842)
(-1.516e-05 -3.98868e-05 -0.119772)
(-0.00146049 -0.000298209 -0.0992773)
(-0.000831401 3.77698e-06 -0.134506)
(-0.000965446 -0.000443628 -0.153497)
(-0.00017127 -4.23858e-05 -0.124905)
(-0.00144491 -0.000305295 -0.104407)
(-0.000720572 8.75362e-06 -0.139462)
(-0.00106339 -0.000467035 -0.158851)
(-0.000322883 -4.43214e-05 -0.129821)
(-0.0014226 -0.00031133 -0.109401)
(-0.000614991 1.49972e-05 -0.144198)
(-0.00116008 -0.000489382 -0.163926)
(-0.000468394 -4.58279e-05 -0.134538)
(-0.00139434 -0.000316243 -0.114263)
(-0.000515978 2.25814e-05 -0.148736)
(-0.00125483 -0.000510639 -0.168744)
(-0.000606615 -4.68655e-05 -0.13907)
(-0.00136086 -0.000320039 -0.118992)
(-0.000424499 3.15762e-05 -0.153093)
(-0.00134707 -0.000530798 -0.173322)
(-0.000736667 -4.73714e-05 -0.143432)
(-0.00132283 -0.000322705 -0.123589)
(-0.000341184 4.20364e-05 -0.157284)
(-0.0014363 -0.000549958 -0.17768)
(-0.000857911 -4.73031e-05 -0.147638)
(-0.00128094 -0.000324204 -0.128052)
(-0.00026635 5.39922e-05 -0.161324)
(-0.00152219 -0.00056842 -0.181833)
(-0.000969902 -4.66065e-05 -0.151697)
(-0.0012359 -0.000324508 -0.132375)
(-0.000200073 6.74574e-05 -0.165223)
(-0.00160446 -0.000586607 -0.185801)
(-0.00107238 -4.52347e-05 -0.155619)
(-0.00118834 -0.000323768 -0.136552)
(-0.000142261 8.24446e-05 -0.168991)
(-0.00168289 -0.000604801 -0.189603)
(-0.00116534 -4.31154e-05 -0.159413)
(-0.00113872 -0.000322728 -0.140587)
(-9.26566e-05 9.89131e-05 -0.172636)
(-0.00175721 -0.000622955 -0.193257)
(-0.00124914 -4.02922e-05 -0.163085)
(-0.00108705 -0.000321727 -0.144504)
(-5.07674e-05 0.00011674 -0.176166)
(-0.00182705 -0.000640592 -0.196777)
(-0.00132491 -3.70876e-05 -0.166645)
(-0.00103293 -0.000319698 -0.148348)
(-1.56237e-05 0.000135727 -0.179587)
(-0.00189204 -0.00065717 -0.200163)
(-0.00139427 -3.39563e-05 -0.170104)
(-0.000976009 -0.000314879 -0.152157)
(1.43113e-05 0.000155596 -0.182909)
(-0.00195195 -0.000672461 -0.203417)
(-0.00145853 -3.10878e-05 -0.173475)
(-0.000917209 -0.000307126 -0.155914)
(4.07033e-05 0.000176191 -0.186138)
(-0.00200665 -0.000686713 -0.206543)
(-0.00151853 -2.83695e-05 -0.176767)
(-0.000859416 -0.000299122 -0.159507)
(6.50298e-05 0.000197431 -0.189283)
(-0.00205614 -0.000700498 -0.209552)
(-0.00157439 -2.52709e-05 -0.179981)
(-0.000806173 -0.000296528 -0.162785)
(8.86101e-05 0.000219185 -0.192352)
(-0.00210052 -0.000714136 -0.212457)
(-0.00162502 -2.1097e-05 -0.18311)
(-0.000758781 -0.000299429 -0.165697)
(0.000112712 0.000241316 -0.195353)
(-0.00213982 -0.000727616 -0.215265)
(-0.00166796 -1.54305e-05 -0.18614)
(-0.000714848 -0.000299504 -0.16835)
(0.00013875 0.000263735 -0.198294)
(-0.00217396 -0.000741022 -0.217978)
(-0.00170128 -8.32848e-06 -0.189059)
(-0.000670872 -0.000288613 -0.1709)
(0.000168456 0.000286481 -0.201184)
(-0.0022028 -0.000754529 -0.220591)
(-0.00172596 -6.91686e-07 -0.191868)
(-0.000625877 -0.000283653 -0.173422)
(0.000203931 0.000309293 -0.204035)
(-0.00222635 -0.000768443 -0.223098)
(-0.0017447 6.50573e-06 -0.194571)
(-0.000579794 -0.000293861 -0.176022)
(0.000247129 0.000331459 -0.206859)
(-0.00224503 -0.000782578 -0.225508)
(-0.0017599 1.32157e-05 -0.197175)
(-0.000526582 -0.000293676 -0.178958)
(0.000299696 0.000352523 -0.209672)
(-0.00225963 -0.000796584 -0.227843)
(-0.00177396 1.98962e-05 -0.199686)
(-0.000455304 -0.000266543 -0.182569)
(0.000362937 0.000372998 -0.212483)
(-0.00227083 -0.000810634 -0.230135)
(-0.00179032 2.66616e-05 -0.202114)
(-0.000367332 -0.000219406 -0.186814)
(0.000436887 0.000395202 -0.215288)
(-0.00227875 -0.000824781 -0.232401)
(-0.0018133 3.27017e-05 -0.204479)
(-0.00028413 -0.000200275 -0.190796)
(0.000516252 0.000421934 -0.218054)
(-0.00228314 -0.000838863 -0.234642)
(-0.00184682 3.63459e-05 -0.206812)
(-0.000223035 -0.000220665 -0.19372)
(0.000586723 0.000453566 -0.220732)
(-0.00228387 -0.000854972 -0.236867)
(-0.00189262 3.63527e-05 -0.209146)
(-0.000180207 -0.000239286 -0.195722)
(0.000642359 0.000489141 -0.223287)
(-0.00228129 -0.00087265 -0.239114)
(-0.00194899 3.42845e-05 -0.21149)
(-0.000139633 -0.000236287 -0.197417)
(0.00068913 0.000525028 -0.225698)
(-0.00227846 -0.000890487 -0.241497)
(-0.00200736 3.42974e-05 -0.213796)
(-9.32084e-05 -0.000211885 -0.199185)
(0.000734471 0.000555837 -0.227957)
(-0.002279 -0.000909894 -0.24421)
(-0.00204313 4.09376e-05 -0.21597)
(-4.26396e-05 -0.00018775 -0.20102)
(0.000774691 0.000582161 -0.23009)
(-0.00228051 -0.000928855 -0.247307)
(-0.00204631 5.49598e-05 -0.217954)
(9.18845e-06 -0.000182605 -0.202811)
(0.000801804 0.000609768 -0.232146)
(-0.00227564 -0.000944996 -0.250473)
(-0.00202652 7.14401e-05 -0.219752)
(5.98031e-05 -0.000192002 -0.204549)
(0.000822441 0.000635454 -0.234165)
(-0.0022617 -0.000958957 -0.253243)
(-0.0019997 8.42512e-05 -0.221416)
(0.000107683 -0.000206223 -0.206219)
(0.000840382 0.000657745 -0.236166)
(-0.00224142 -0.000969217 -0.255439)
(-0.00197589 9.16873e-05 -0.223018)
(0.00015196 -0.000228311 -0.207864)
(0.000852649 0.000680529 -0.238149)
(-0.00222278 -0.00097732 -0.25729)
(-0.00195505 9.60325e-05 -0.22459)
(0.000196361 -0.000251256 -0.209827)
(0.00085572 0.000704802 -0.240094)
(-0.00220931 -0.000984462 -0.259128)
(-0.00193594 0.000102211 -0.22613)
(0.000258936 -0.000241467 -0.212651)
(0.000848314 0.000730235 -0.241974)
(-0.00219881 -0.000992419 -0.26112)
(-0.00192246 0.000109588 -0.227644)
(0.000353252 -0.000186537 -0.216653)
(0.000831355 0.000758713 -0.243768)
(-0.00219384 -0.00100516 -0.263396)
(-0.00191983 0.000115686 -0.229142)
(0.000443043 -0.000159919 -0.220841)
(0.000809122 0.000788131 -0.245477)
(-0.00219533 -0.0010248 -0.266046)
(-0.00193076 0.000120775 -0.23062)
(0.00048036 -0.000222608 -0.223432)
(0.000786682 0.000814864 -0.247133)
(-0.00219093 -0.0010467 -0.268684)
(-0.00195505 0.000124795 -0.232074)
(0.000488974 -0.000281778 -0.224834)
(0.000765107 0.000838316 -0.248768)
(-0.00217207 -0.00106221 -0.270747)
(-0.00199177 0.000127728 -0.2335)
(0.000500314 -0.000287046 -0.22613)
(0.000742232 0.000860998 -0.250388)
(-0.00215195 -0.0010718 -0.272308)
(-0.00204116 0.00012961 -0.234901)
(0.000516072 -0.0002671 -0.227721)
(0.000717219 0.000884519 -0.25199)
(-0.0021405 -0.00107847 -0.273753)
(-0.00210453 0.000130491 -0.236279)
(0.000527486 -0.000267958 -0.229474)
(0.000690938 0.000907791 -0.253575)
(-0.00213442 -0.00108759 -0.275232)
(-0.00218341 0.00013041 -0.237636)
(0.000531792 -0.000289356 -0.231314)
(0.000664278 0.00093014 -0.255145)
(-0.0021293 -0.00109934 -0.276689)
(-0.00227911 0.000129238 -0.238974)
(0.000532378 -0.000292414 -0.233375)
(0.000637844 0.000951743 -0.256705)
(-0.00212485 -0.00111237 -0.278098)
(-0.00239242 0.000126813 -0.240295)
(0.000541397 -0.000269615 -0.235699)
(0.000611887 0.000972503 -0.258254)
(-0.00212104 -0.00112768 -0.279467)
(-0.00252334 0.000122943 -0.241599)
(0.000554899 -0.000240218 -0.238119)
(0.000586216 0.000992341 -0.259793)
(-0.00211757 -0.00114418 -0.280805)
(-0.0026711 0.000117408 -0.242888)
(0.000559987 -0.000233964 -0.240269)
(0.000560216 0.00101112 -0.261322)
(-0.00211411 -0.00116083 -0.282117)
(-0.00283449 0.000109971 -0.24417)
(0.00056081 -0.0002307 -0.242094)
(0.000533529 0.00102864 -0.262843)
(-0.00211015 -0.00117705 -0.283407)
(-0.0030125 0.000100088 -0.245459)
(0.000563992 -0.00020851 -0.243775)
(0.000506798 0.00104463 -0.264362)
(-0.00210492 -0.00119225 -0.284679)
(-0.00320349 8.71365e-05 -0.246781)
(0.00056514 -0.00019228 -0.245334)
(0.000481625 0.00105887 -0.265889)
(-0.00209741 -0.00120601 -0.285933)
(-0.003404 7.0717e-05 -0.248166)
(0.000560619 -0.000193724 -0.246698)
(0.000460712 0.00107111 -0.267434)
(-0.00208627 -0.00121809 -0.287174)
(-0.00360821 5.04627e-05 -0.249653)
(0.000549186 -0.000175845 -0.247851)
(0.00044859 0.00108078 -0.269009)
(-0.00206981 -0.00122839 -0.288407)
(-0.0038073 3.13368e-05 -0.251287)
(0.000527774 -0.000180044 -0.248877)
(0.000450929 0.00108569 -0.270626)
(-0.00204604 -0.00123688 -0.289637)
(-0.00398938 4.07718e-06 -0.2531)
(0.000492846 -0.000220268 -0.249838)
(0.000472751 0.00108448 -0.272304)
(-0.00201275 -0.00124368 -0.290868)
(-0.00413336 -4.2502e-05 -0.255124)
(0.000441036 -0.000228821 -0.250695)
(0.000521453 0.00107943 -0.274079)
(-0.00196796 -0.00124942 -0.292107)
(-0.00420474 -8.42587e-05 -0.257394)
(0.000370591 -0.000231968 -0.251458)
(0.000612121 0.00107095 -0.276016)
(-0.00190972 -0.00125602 -0.293356)
(-0.00419261 -0.00010654 -0.259807)
(0.00028003 -0.000236876 -0.252167)
(0.000746656 0.0010856 -0.278096)
(-0.0018357 -0.00125671 -0.294616)
(-0.00417898 -9.6472e-05 -0.261847)
(0.000168573 -0.000251834 -0.252831)
(0.000863244 0.00111058 -0.28005)
(-0.00174457 -0.00127152 -0.295894)
(-0.00418819 -7.50238e-05 -0.263285)
(3.56339e-05 -0.000266461 -0.253446)
(0.000934598 0.00114481 -0.281748)
(-0.00163822 -0.00127179 -0.297179)
(-0.00420636 -5.36049e-05 -0.264133)
(-0.000119146 -0.00027819 -0.254005)
(0.000966651 0.00118367 -0.283199)
(-0.00151638 -0.00125296 -0.298356)
(-0.00421927 -2.07632e-05 -0.264454)
(-0.000295029 -0.000315276 -0.254478)
(0.000967025 0.00118538 -0.284399)
(-0.00137992 -0.00125567 -0.299316)
(-0.00420853 -2.95317e-05 -0.264247)
)
;

boundaryField
{
    leftWall
    {
        type            noSlip;
    }
    rightWall
    {
        type            noSlip;
    }
    leftSides_periodic0
    {
        type            cyclic;
    }
    leftSides_periodic1
    {
        type            cyclic;
    }
    rightSides_periodic0
    {
        type            cyclic;
    }
    rightSides_periodic1
    {
        type            cyclic;
    }
    leftInOut_periodic0
    {
        type            cyclic;
    }
    leftInOut_periodic1
    {
        type            cyclic;
    }
    rightInOut_periodic0
    {
        type            cyclic;
    }
    rightInOut_periodic1
    {
        type            cyclic;
    }
    procBoundary0to1
    {
        type            processor;
        value           nonuniform List<vector> 
11
(
(-0.00133563 0.00777687 -0.29992)
(-0.00788259 -0.010166 -0.256816)
(0.00122216 0.0084117 -0.287031)
(-0.00133563 0.00777687 -0.29992)
(0.010491 -0.00969415 -0.272019)
(-0.00133563 0.00777687 -0.29992)
(-0.00788259 -0.010166 -0.256816)
(-0.000494846 -0.000333352 -0.254784)
(0.000929612 0.00120804 -0.285286)
(-0.001229 -0.00123435 -0.299978)
(-0.00414587 -2.03676e-05 -0.263462)
)
;
    }
    procBoundary0to1throughleftInOut_periodic1
    {
        type            processorCyclic;
        value           uniform (-0.00788259 -0.010166 -0.256816);
    }
    procBoundary0to2
    {
        type            processor;
        value           nonuniform List<vector> 
316
(
(0.000186527 4.26466e-05 -0.00481623)
(-0.00248596 -2.68473e-05 -0.0030901)
(-0.000225075 9.63249e-06 -0.00428352)
(0.00246218 -3.15709e-05 -0.00447181)
(0.000228821 9.17902e-05 -0.0185906)
(-0.0037829 -5.83634e-05 -0.012896)
(-0.000341255 3.08439e-05 -0.0173088)
(0.00370131 -6.0324e-05 -0.0171038)
(3.82097e-05 0.000193357 -0.0338466)
(-0.00236433 -0.000116403 -0.0239207)
(-0.000219711 7.51984e-05 -0.0321575)
(0.00221774 -0.000127525 -0.0309361)
(-0.00013224 0.000292846 -0.0482747)
(-0.000866646 -0.000169757 -0.0343425)
(-0.000111606 0.000126789 -0.0461949)
(0.000657374 -0.000180365 -0.0439749)
(-0.00021046 0.000387622 -0.0616971)
(-0.000116593 -0.000219138 -0.04411)
(-8.81036e-05 0.000185961 -0.0590977)
(-0.000166147 -0.000231393 -0.056112)
(-0.000238668 0.00048583 -0.0745264)
(0.000289973 -0.000268042 -0.0535886)
(-0.000106536 0.000249705 -0.0713289)
(-0.000650065 -0.000280848 -0.0677188)
(-0.000236426 0.000585425 -0.0868702)
(0.000526852 -0.00031567 -0.0628849)
(-0.000147292 0.000316941 -0.0830423)
(-0.000963027 -0.000328434 -0.0789073)
(-0.000214217 0.000686457 -0.0987184)
(0.000676779 -0.000361947 -0.0720031)
(-0.000200072 0.000386335 -0.094278)
(-0.00118481 -0.00037446 -0.0896979)
(-0.000178557 0.000789609 -0.110018)
(0.000784238 -0.000407067 -0.0809081)
(-0.000258585 0.000457448 -0.105035)
(-0.00135929 -0.000419354 -0.100078)
(-0.000133815 0.000894285 -0.120712)
(0.000875167 -0.000450587 -0.0895521)
(-0.000318579 0.0005304 -0.115299)
(-0.00151297 -0.00046224 -0.110024)
(-8.23647e-05 0.00100104 -0.130764)
(0.000964724 -0.000492565 -0.0978889)
(-0.000377469 0.000605001 -0.125052)
(-0.00166121 -0.000504655 -0.119513)
(-2.44313e-05 0.00110933 -0.140162)
(0.00105575 -0.000533521 -0.105882)
(-0.00043468 0.000681492 -0.134276)
(-0.00179948 -0.000546485 -0.128528)
(4.0347e-05 0.00121562 -0.148923)
(0.00113706 -0.000572753 -0.113505)
(-0.000490647 0.00075874 -0.142973)
(-0.00191197 -0.000586117 -0.137058)
(0.000111563 0.00132026 -0.157109)
(0.00119568 -0.000609722 -0.120752)
(-0.000545524 0.000835932 -0.15118)
(-0.00198981 -0.00062397 -0.145136)
(0.000187595 0.00142474 -0.164782)
(0.0012266 -0.000644284 -0.127646)
(-0.000598683 0.000914076 -0.158939)
(-0.00203281 -0.000659768 -0.15281)
(0.000266133 0.00153 -0.171985)
(0.00123478 -0.000677199 -0.134215)
(-0.000648894 0.000993065 -0.166278)
(-0.00205258 -0.000695366 -0.160109)
(0.000345653 0.0016359 -0.178753)
(0.00123118 -0.000709282 -0.140477)
(-0.000695491 0.00107252 -0.173219)
(-0.0020582 -0.000730631 -0.167057)
(0.00042541 0.001742 -0.185112)
(0.00122157 -0.000740067 -0.146445)
(-0.000738305 0.00115202 -0.179785)
(-0.00205026 -0.000764784 -0.173669)
(0.000504978 0.00184895 -0.191088)
(0.00120663 -0.000769535 -0.152128)
(-0.000776965 0.00123127 -0.185999)
(-0.00202901 -0.000798567 -0.179963)
(0.000584283 0.00195647 -0.196703)
(0.00118628 -0.000798232 -0.157539)
(-0.000811089 0.00131085 -0.191882)
(-0.00199394 -0.000832172 -0.185953)
(0.000663278 0.00206229 -0.201985)
(0.00115871 -0.000826376 -0.162686)
(-0.000841007 0.00139228 -0.19744)
(-0.00194429 -0.000865469 -0.191657)
(0.000741177 0.00216294 -0.206973)
(0.00112175 -0.000853666 -0.167581)
(-0.000868657 0.00147667 -0.202656)
(-0.00188254 -0.000897522 -0.197094)
(0.000815805 0.00225564 -0.211721)
(0.00107855 -0.000878948 -0.172243)
(-0.000897268 0.00156193 -0.20751)
(-0.00182027 -0.000927091 -0.202296)
(0.000884135 0.00235278 -0.216267)
(0.00104496 -0.000901089 -0.176704)
(-0.000928858 0.00164283 -0.212027)
(-0.00178052 -0.000953375 -0.207296)
(0.00094531 0.00246941 -0.220593)
(0.00104852 -0.000920208 -0.181004)
(-0.000960811 0.00171527 -0.216319)
(-0.00178636 -0.000983898 -0.21211)
(0.00100253 0.00258933 -0.224611)
(0.00110916 -0.000944435 -0.185154)
(-0.000984707 0.00177994 -0.220568)
(-0.00182404 -0.00102075 -0.216692)
(0.00106027 0.00269562 -0.228268)
(0.00119491 -0.000977643 -0.189095)
(-0.000990579 0.00185146 -0.224913)
(-0.00184261 -0.00106667 -0.220942)
(0.0011205 0.00278716 -0.231616)
(0.00123985 -0.00100908 -0.192718)
(-0.000978246 0.00194562 -0.229282)
(-0.00175836 -0.00112168 -0.224792)
(0.00118145 0.0028727 -0.234744)
(0.00120485 -0.00103069 -0.195999)
(-0.000961396 0.0020474 -0.233365)
(-0.00148696 -0.00116595 -0.228221)
(0.00124024 0.00296932 -0.237713)
(0.00109808 -0.00104563 -0.199016)
(-0.000954542 0.00213292 -0.236934)
(-0.00104022 -0.00118254 -0.231342)
(0.00129587 0.0030714 -0.240553)
(0.000972137 -0.00106419 -0.20185)
(-0.0009621 0.00220181 -0.240048)
(-0.000577787 -0.00115983 -0.234483)
(0.00134796 0.00315895 -0.243281)
(0.000867721 -0.00108689 -0.20455)
(-0.000978076 0.00226901 -0.242879)
(-0.000405902 -0.0011433 -0.238092)
(0.00139518 0.00324993 -0.245911)
(0.000790239 -0.00110858 -0.20713)
(-0.000992905 0.0023444 -0.245549)
(-0.000695441 -0.00120995 -0.24229)
(0.00143943 0.00342997 -0.248426)
(0.00073654 -0.00112968 -0.209595)
(-0.00100182 0.00242307 -0.248111)
(-0.00119985 -0.00132487 -0.246445)
(0.00149334 0.00365164 -0.250686)
(0.000703246 -0.00113988 -0.211954)
(-0.00100483 0.00250088 -0.250576)