-0.0075 	0 	0 	0
-0.0075 	1.00343e-35 	-3.36701e-36 	1.84898e-31
-0.00745622 	8.24258e-07 	-2.76579e-07 	0.0151882
-0.00745622 	8.24258e-07 	-2.76579e-07 	0.0151882
-0.00741165 	5.56655e-07 	-8.22905e-07 	0.0295712
-0.00741165 	5.56655e-07 	-8.22905e-07 	0.0295712
-0.00736628 	-3.43755e-08 	-1.7241e-06 	0.04326
-0.00736628 	-3.43755e-08 	-1.7241e-06 	0.04326
-0.0073201 	-4.95103e-07 	-2.96462e-06 	0.0562795
-0.0073201 	-4.95103e-07 	-2.96462e-06 	0.0562795
-0.00727309 	-8.32987e-07 	-4.59456e-06 	0.0686507
-0.00727309 	-8.32987e-07 	-4.59456e-06 	0.0686507
-0.00722524 	-1.13513e-06 	-6.61969e-06 	0.0803934
-0.00722524 	-1.13513e-06 	-6.61969e-06 	0.0803934
-0.00717653 	-1.43383e-06 	-9.05591e-06 	0.0915163
-0.00717653 	-1.43383e-06 	-9.05591e-06 	0.0915163
-0.00712695 	-1.7416e-06 	-1.19229e-05 	0.102007
-0.00712695 	-1.7416e-06 	-1.19229e-05 	0.102007
-0.00707647 	-2.06094e-06 	-1.52544e-05 	0.111835
-0.00707647 	-2.06094e-06 	-1.52544e-05 	0.111835
-0.0070251 	-2.38752e-06 	-1.91054e-05 	0.120974
-0.0070251 	-2.38752e-06 	-1.91054e-05 	0.120974
-0.0069728 	-2.71287e-06 	-2.35465e-05 	0.129417
-0.0069728 	-2.71287e-06 	-2.35465e-05 	0.129417
-0.00691956 	-3.02724e-06 	-2.86493e-05 	0.137181
-0.00691956 	-3.02724e-06 	-2.86493e-05 	0.137181
-0.00686537 	-3.32199e-06 	-3.44794e-05 	0.144305
-0.00686537 	-3.32199e-06 	-3.44794e-05 	0.144305
-0.00681021 	-3.5912e-06 	-4.11054e-05 	0.150845
-0.00681021 	-3.5912e-06 	-4.11054e-05 	0.150845
-0.00675406 	-3.83156e-06 	-4.86005e-05 	0.156862
-0.00675406 	-3.83156e-06 	-4.86005e-05 	0.156862
-0.0066969 	-4.04158e-06 	-5.70317e-05 	0.162411
-0.0066969 	-4.04158e-06 	-5.70317e-05 	0.162411
-0.00663871 	-4.22111e-06 	-6.64451e-05 	0.167535
-0.00663871 	-4.22111e-06 	-6.64451e-05 	0.167535
-0.00657949 	-4.37039e-06 	-7.68455e-05 	0.172279
-0.00657949 	-4.37039e-06 	-7.68455e-05 	0.172279
-0.0065192 	-4.48986e-06 	-8.81985e-05 	0.176681
-0.0065192 	-4.48986e-06 	-8.81985e-05 	0.176681
-0.00645783 	-4.58056e-06 	-0.000100454 	0.180783
-0.00645783 	-4.58056e-06 	-0.000100454 	0.180783
-0.00639535 	-4.64398e-06 	-0.000113558 	0.184626
-0.00639535 	-4.64398e-06 	-0.000113558 	0.184626
-0.00633176 	-4.68206e-06 	-0.000127457 	0.188242
-0.00633176 	-4.68206e-06 	-0.000127457 	0.188242
-0.00626703 	-4.69692e-06 	-0.000142098 	0.191657
-0.00626703 	-4.69692e-06 	-0.000142098 	0.191657
-0.00620114 	-4.69045e-06 	-0.000157423 	0.194895
-0.00620114 	-4.69045e-06 	-0.000157423 	0.194895
-0.00613406 	-4.66417e-06 	-0.000173374 	0.197978
-0.00613406 	-4.66417e-06 	-0.000173374 	0.197978
-0.00606579 	-4.61907e-06 	-0.00018989 	0.200921
-0.00606579 	-4.61907e-06 	-0.00018989 	0.200921
-0.00599629 	-4.55571e-06 	-0.000206905 	0.203743
-0.00599629 	-4.55571e-06 	-0.000206905 	0.203743
-0.00592554 	-4.47477e-06 	-0.000224352 	0.206459
-0.00592554 	-4.47477e-06 	-0.000224352 	0.206459
-0.00585352 	-4.37748e-06 	-0.000242151 	0.209084
-0.00585352 	-4.37748e-06 	-0.000242151 	0.209084
-0.00578022 	-4.26528e-06 	-0.000260213 	0.211629
-0.00578022 	-4.26528e-06 	-0.000260213 	0.211629
-0.00570559 	-4.13935e-06 	-0.000278441 	0.214104
-0.00570559 	-4.13935e-06 	-0.000278441 	0.214104
-0.00562963 	-4.00043e-06 	-0.000296737 	0.216517
-0.00562963 	-4.00043e-06 	-0.000296737 	0.216517
-0.00555231 	-3.84903e-06 	-0.000315002 	0.218875
-0.00555231 	-3.84903e-06 	-0.000315002 	0.218875
-0.0054736 	-3.68553e-06 	-0.000333135 	0.221184
-0.0054736 	-3.68553e-06 	-0.000333135 	0.221184
-0.00539348 	-3.51015e-06 	-0.000351032 	0.223448
-0.00539348 	-3.51015e-06 	-0.000351032 	0.223448
-0.00531193 	-3.32306e-06 	-0.000368591 	0.225672
-0.00531193 	-3.32306e-06 	-0.000368591 	0.225672
-0.00522891 	-3.12436e-06 	-0.000385709 	0.227857
-0.00522891 	-3.12436e-06 	-0.000385709 	0.227857
-0.0051444 	-2.91406e-06 	-0.000402287 	0.230007
-0.0051444 	-2.91406e-06 	-0.000402287 	0.230007
-0.00505838 	-2.69218e-06 	-0.00041823 	0.232122
-0.00505838 	-2.69218e-06 	-0.00041823 	0.232122
-0.00497081 	-2.45866e-06 	-0.000433446 	0.234203
-0.00497081 	-2.45866e-06 	-0.000433446 	0.234203
-0.00488168 	-2.21339e-06 	-0.000447851 	0.236251
-0.00488168 	-2.21339e-06 	-0.000447851 	0.236251
-0.00479094 	-1.95614e-06 	-0.000461361 	0.238264
-0.00479094 	-1.95614e-06 	-0.000461361 	0.238264
-0.00469858 	-1.68644e-06 	-0.000473899 	0.240241
-0.00469858 	-1.68644e-06 	-0.000473899 	0.240241
-0.00460456 	-1.40356e-06 	-0.00048539 	0.24218
-0.00460456 	-1.40356e-06 	-0.00048539 	0.24218
-0.00450886 	-1.10662e-06 	-0.000495788 	0.244081
-0.00450886 	-1.10662e-06 	-0.000495788 	0.244081
-0.00441144 	-7.94817e-07 	-0.000505072 	0.24594
-0.00441144 	-7.94817e-07 	-0.000505072 	0.24594
-0.00431227 	-4.67677e-07 	-0.00051326 	0.247757
-0.00431227 	-4.67677e-07 	-0.00051326 	0.247757
-0.00421133 	-1.24926e-07 	-0.000520398 	0.249529
-0.00421133 	-1.24926e-07 	-0.000520398 	0.249529
-0.00410857 	2.34667e-07 	-0.000526551 	0.251254
-0.00410857 	2.34667e-07 	-0.000526551 	0.251254
-0.00400397 	6.14596e-07 	-0.000531804 	0.25293
-0.00400397 	6.14596e-07 	-0.000531804 	0.25293
-0.0038975 	1.01939e-06 	-0.000536247 	0.254556
-0.0038975 	1.01939e-06 	-0.000536247 	0.254556
-0.00378912 	1.45144e-06 	-0.000539963 	0.256137
-0.00378912 	1.45144e-06 	-0.000539963 	0.256137
-0.00367879 	1.90965e-06 	-0.000543019 	0.257673
-0.00367879 	1.90965e-06 	-0.000543019 	0.257673
-0.00356649 	2.39142e-06 	-0.000545469 	0.259165
-0.00356649 	2.39142e-06 	-0.000545469 	0.259165
-0.00345217 	2.89497e-06 	-0.000547369 	0.26061
-0.00345217 	2.89497e-06 	-0.000547369 	0.26061
-0.0033358 	3.41947e-06 	-0.000548777 	0.262006
-0.0033358 	3.41947e-06 	-0.000548777 	0.262006
-0.00321735 	3.96413e-06 	-0.000549758 	0.263352
-0.00321735 	3.96413e-06 	-0.000549758 	0.263352
-0.00309677 	4.52784e-06 	-0.000550379 	0.264643
-0.00309677 	4.52784e-06 	-0.000550379 	0.264643
-0.00297403 	5.10912e-06 	-0.00055071 	0.265879
-0.00297403 	5.10912e-06 	-0.00055071 	0.265879
-0.00284909 	5.70601e-06 	-0.000550824 	0.267057
-0.00284909 	5.70601e-06 	-0.000550824 	0.267057
-0.0027219 	6.31611e-06 	-0.000550796 	0.268173
-0.0027219 	6.31611e-06 	-0.000550796 	0.268173
-0.00259244 	6.93677e-06 	-0.000550699 	0.269226
-0.00259244 	6.93677e-06 	-0.000550699 	0.269226
-0.00246065 	7.56513e-06 	-0.000550599 	0.270214
-0.00246065 	7.56513e-06 	-0.000550599 	0.270214
-0.00232651 	8.19797e-06 	-0.000550556 	0.271133
-0.00232651 	8.19797e-06 	-0.000550556 	0.271133
-0.00218995 	8.83167e-06 	-0.000550619 	0.271983
-0.00218995 	8.83167e-06 	-0.000550619 	0.271983
-0.00205095 	9.46251e-06 	-0.000550824 	0.272761
-0.00205095 	9.46251e-06 	-0.000550824 	0.272761
-0.00190946 	1.00869e-05 	-0.000551193 	0.273465
-0.00190946 	1.00869e-05 	-0.000551193 	0.273465
-0.00176543 	1.07011e-05 	-0.000551733 	0.274096
-0.00176543 	1.07011e-05 	-0.000551733 	0.274096
-0.00161881 	1.13004e-05 	-0.000552434 	0.274651
-0.00161881 	1.13004e-05 	-0.000552434 	0.274651
-0.00146957 	1.18787e-05 	-0.000553266 	0.275132
-0.00146957 	1.18787e-05 	-0.000553266 	0.275132
-0.00131765 	1.24287e-05 	-0.000554185 	0.275538
-0.00131765 	1.24287e-05 	-0.000554185 	0.275538
-0.001163 	1.29429e-05 	-0.000555137 	0.275869
-0.001163 	1.29429e-05 	-0.000555137 	0.275869
-0.00100559 	1.34131e-05 	-0.000556067 	0.276125
-0.00100559 	1.34131e-05 	-0.000556067 	0.276125
-0.000845345 	1.38298e-05 	-0.000556822 	0.276306
-0.000845345 	1.38298e-05 	-0.000556822 	0.276306
-0.000682232 	1.41836e-05 	-0.000557417 	0.27641
-0.000682232 	1.41836e-05 	-0.000557417 	0.27641
-0.000516194 	1.44633e-05 	-0.000557913 	0.276436
-0.000516194 	1.44633e-05 	-0.000557913 	0.276436
-0.000347178 	1.46576e-05 	-0.000558116 	0.276382
-0.000347178 	1.46576e-05 	-0.000558116 	0.276382
-0.000175132 	1.47459e-05 	-0.000558265 	0.276246
-0.000175132 	1.47459e-05 	-0.000558265 	0.276246
0 	1.47042e-05 	-0.000558152 	0.276026
0 	1.47042e-05 	-0.000558152 	0.276026
0 	1.47042e-05 	-0.000558152 	0.276026
0 	1.47042e-05 	-0.000558152 	0.276026
0.000175132 	1.45297e-05 	-0.000557442 	0.275724
0.000175132 	1.64549e-05 	-0.000451344 	0.27239
0.000347178 	1.42331e-05 	-0.000556418 	0.275346
0.000347178 	1.77168e-05 	-0.000451917 	0.27208
0.000516194 	1.38384e-05 	-0.000554843 	0.274898
0.000516194 	1.87781e-05 	-0.000452116 	0.271693
0.000682232 	1.3371e-05 	-0.000552793 	0.274382
0.000682232 	1.96602e-05 	-0.000452013 	0.271233
0.000845345 	1.28427e-05 	-0.000550528 	0.273803
0.000845345 	2.03785e-05 	-0.000451614 	0.270705
0.00100559 	1.22652e-05 	-0.000547944 	0.273162
0.00100559 	2.09518e-05 	-0.000450898 	0.270111
0.001163 	1.16499e-05 	-0.000545058 	0.272463
0.001163 	2.13979e-05 	-0.000449881 	0.269455
0.00131765 	1.10072e-05 	-0.00054189 	0.271707
0.00131765 	2.17331e-05 	-0.000448579 	0.26874
0.00146957 	1.03461e-05 	-0.000538451 	0.270897
0.00146957 	2.19718e-05 	-0.000446993 	0.267967
0.00161881 	9.67452e-06 	-0.000534753 	0.270034
0.00161881 	2.2127e-05 	-0.000445132 	0.26714
0.00176543 	8.9992e-06 	-0.000530809 	0.26912
0.00176543 	2.22101e-05 	-0.000443 	0.266259
0.00190946 	8.32574e-06 	-0.000526626 	0.268156
0.00190946 	2.22307e-05 	-0.000440604 	0.265327
0.00205095 	7.65875e-06 	-0.000522211 	0.267145
0.00205095 	2.21975e-05 	-0.000437946 	0.264346
0.00218995 	7.00195e-06 	-0.000517569 	0.266086
0.00218995 	2.21178e-05 	-0.000435027 	0.263315
0.00232651 	6.3583e-06 	-0.000512701 	0.26498
0.00232651 	2.19981e-05 	-0.000431846 	0.262237
0.00246065 	5.73013e-06 	-0.000507607 	0.263829
0.00246065 	2.18439e-05 	-0.000428399 	0.261112
0.00259244 	5.11923e-06 	-0.000502287 	0.262633
0.00259244 	2.16599e-05 	-0.00042468 	0.259941
0.0027219 	4.52701e-06 	-0.000496737 	0.261393
0.0027219 	2.145e-05 	-0.000420682 	0.258725
0.00284909 	3.95456e-06 	-0.00049095 	0.260108
0.00284909 	2.12175e-05 	-0.000416394 	0.257463
0.00297403 	3.40273e-06 	-0.000484922 	0.258779
0.00297403 	2.09651e-05 	-0.000411803 	0.256157
0.00309677 	2.87214e-06 	-0.000478642 	0.257406
0.00309677 	2.06952e-05 	-0.000406896 	0.254806
0.00321735 	2.3632e-06 	-0.000472103 	0.255988
0.00321735 	2.04099e-05 	-0.000401658 	0.25341
0.0033358 	1.8761e-06 	-0.000465296 	0.254525
0.0033358 	2.01108e-05 	-0.000396072 	0.251969
0.00345217 	1.97993e-05 	-0.000390127 	0.250481
0.00345217 	1.4109e-06 	-0.000458211 	0.253016
0.00356649 	9.67495e-07 	-0.000450841 	0.251461
0.00356649 	1.94769e-05 	-0.000383821 	0.248947
0.00367879 	5.458e-07 	-0.000443178 	0.249859
0.00367879 	1.91461e-05 	-0.000377155 	0.247364
0.00378912 	1.4581e-07 	-0.000435207 	0.248208
0.00378912 	1.881e-05 	-0.000370126 	0.245733
0.0038975 	-2.32428e-07 	-0.000426906 	0.246507
0.0038975 	1.84702e-05 	-0.000362718 	0.244055
0.00400397 	-5.89061e-07 	-0.000418238 	0.244753
0.00400397 	1.81263e-05 	-0.000354876 	0.242324
0.00410857 	1.77781e-05 	-0.000346493 	0.240529
0.00410857 	-9.2381e-07 	-0.000409137 	0.242941
0.00421133 	-1.23565e-06 	-0.000399526 	0.241063
0.00421133 	1.7427e-05 	-0.00033746 	0.238657
0.00431227 	-1.52418e-06 	-0.000389322 	0.239113
0.00431227 	1.70734e-05 	-0.000327697 	0.236701
0.00441144 	-1.7907e-06 	-0.000378454 	0.237084
0.00441144 	1.67157e-05 	-0.000317156 	0.234656
0.00450886 	-2.03757e-06 	-0.000366886 	0.234969
0.00450886 	1.63515e-05 	-0.000305833 	0.232519
0.00460456 	-2.26696e-06 	-0.000354616 	0.232764
0.00460456 	1.59783e-05 	-0.000293765 	0.230285
0.00469858 	-2.4801e-06 	-0.000341662 	0.230463
0.00469858 	1.55938e-05 	-0.000281004 	0.227952
0.00479094 	-2.67768e-06 	-0.000328049 	0.228061
0.00479094 	1.51957e-05 	-0.000267605 	0.225514
0.00488168 	-2.86024e-06 	-0.000313807 	0.225555
0.00488168 	1.47817e-05 	-0.000253625 	0.222968
0.00497081 	-3.02838e-06 	-0.000298975 	0.222941
0.00497081 	1.43492e-05 	-0.000239131 	0.22031
0.00505838 	-3.18272e-06 	-0.000283606 	0.220212
0.00505838 	1.38955e-05 	-0.000224197 	0.217536
0.0051444 	-3.32389e-06 	-0.000267766 	0.217367
0.0051444 	1.34182e-05 	-0.000208911 	0.214643
0.00522891 	-3.45245e-06 	-0.000251536 	0.214402
0.00522891 	1.29148e-05 	-0.000193376 	0.211627
0.00531193 	-3.56891e-06 	-0.000235015 	0.211312
0.00531193 	1.23833e-05 	-0.000177711 	0.208487
0.00539348 	-3.67368e-06 	-0.000218316 	0.208096
0.00539348 	1.18219e-05 	-0.000162047 	0.20522
0.0054736 	-3.76707e-06 	-0.000201562 	0.204749
0.0054736 	1.12291e-05 	-0.000146527 	0.201824
0.00555231 	-3.8493e-06 	-0.000184886 	0.201268
0.00555231 	1.0604e-05 	-0.000131295 	0.198297
0.00562963 	-3.92051e-06 	-0.000168421 	0.19765
0.00562963 	9.94577e-06 	-0.000116492 	0.194638
0.00570559 	-3.98076e-06 	-0.000152299 	0.193891
0.00570559 	9.25405e-06 	-0.00010225 	0.190842
0.00578022 	-4.03004e-06 	-0.000136644 	0.189984
0.00578022 	8.5287e-06 	-8.86891e-05 	0.186906
0.00585352 	-4.06828e-06 	-0.000121572 	0.185924
0.00585352 	7.76995e-06 	-7.5911e-05 	0.182826
0.00592554 	-4.09534e-06 	-0.000107185 	0.181705
0.00592554 	6.97842e-06 	-6.39989e-05 	0.178595
0.00599629 	-4.11095e-06 	-9.35711e-05 	0.17732
0.00599629 	6.15518e-06 	-5.30154e-05 	0.174207
0.00606579 	-4.11452e-06 	-8.08023e-05 	0.172758
0.00606579 	5.30189e-06 	-4.30031e-05 	0.169653
0.00613406 	-4.1052e-06 	-6.89404e-05 	0.168009
0.00613406 	4.42063e-06 	-3.39856e-05 	0.164922
0.00620114 	3.51382e-06 	-2.59699e-05 	0.159996
0.00620114 	-4.08226e-06 	-5.80327e-05 	0.163058
0.00626703 	-4.04551e-06 	-4.8115e-05 	0.157885
0.00626703 	2.58461e-06 	-1.89531e-05 	0.154859
0.00633176 	1.63748e-06 	-1.29225e-05 	0.149495
0.00633176 	-3.99516e-06 	-3.92157e-05 	0.152474
0.00639535 	6.78484e-07 	-7.84904e-06 	0.143889
0.00639535 	-3.93127e-06 	-3.13461e-05 	0.146811
0.00645783 	-3.85348e-06 	-2.44966e-05 	0.140879
0.00645783 	-2.84596e-07 	-3.68687e-06 	0.138024
0.0065192 	-3.76136e-06 	-1.8642e-05 	0.134662
0.0065192 	-1.24206e-06 	-3.77735e-07 	0.131884
0.00657949 	-3.65454e-06 	-1.37439e-05 	0.128141
0.00657949 	-2.18188e-06 	2.14552e-06 	0.12545
0.00663871 	-3.53182e-06 	-9.7507e-06 	0.121301
0.00663871 	-3.08903e-06 	3.95711e-06 	0.118706
0.0066969 	-3.39085e-06 	-6.58474e-06 	0.114125
0.0066969 	-3.94631e-06 	5.14174e-06 	0.111631
0.00675406 	-4.73612e-06 	5.78841e-06 	0.104191
0.00675406 	-3.2298e-06 	-4.15413e-06 	0.106579
0.00681021 	-5.43867e-06 	5.98502e-06 	0.0963589
0.00681021 	-3.04981e-06 	-2.3602e-06 	0.0986304
0.00686537 	-6.02972e-06 	5.8197e-06 	0.0881491
0.00686537 	-2.85617e-06 	-1.10816e-06 	0.0902878
0.00691956 	-6.48238e-06 	5.38194e-06 	0.0796289
0.00691956 	-2.65614e-06 	-3.12108e-07 	0.0816154
0.0069728 	-6.77037e-06 	4.76251e-06 	0.0709156
0.0069728 	-2.45634e-06 	1.24537e-07 	0.0727302
0.0070251 	-2.26234e-06 	3.02051e-07 	0.0638005
0.0070251 	-6.87298e-06 	4.0471e-06 	0.0621742
0.00707647 	-2.07771e-06 	3.16216e-07 	0.0550266
0.00707647 	-6.78026e-06 	3.31055e-06 	0.0535982
0.00712695 	-1.9022e-06 	2.49492e-07 	0.0466056
0.00712695 	-6.49503e-06 	2.61202e-06 	0.0453757
0.00717653 	-1.73073e-06 	1.62677e-07 	0.0386934
0.00717653 	-6.03081e-06 	1.99106e-06 	0.037655
0.00722524 	-1.553e-06 	9.24548e-08 	0.0313826
0.00722524 	-5.40638e-06 	1.46818e-06 	0.0305235
0.00727309 	-4.63952e-06 	1.04721e-06 	0.0240117
0.00727309 	-1.35211e-06 	5.36397e-08 	0.0247052
0.0073201 	-3.74133e-06 	7.17684e-07 	0.0181118
0.0073201 	-1.09906e-06 	4.29935e-08 	0.0186524
0.00736628 	-2.70958e-06 	4.76821e-07 	0.0127959
0.00736628 	-7.39558e-07 	5.41258e-08 	0.0131954
0.00741165 	-2.8943e-07 	4.90074e-08 	0.00829776
0.00741165 	-1.62358e-06 	2.68254e-07 	0.00802925
0.00745622 	3.68558e-08 	3.3282e-08 	0.00391968
0.00745622 	-6.89023e-07 	1.13383e-07 	0.00377334
0.0075 	0 	0 	0
0.0075 	0 	0 	0
