0 	0 	0 	0
5.01672e-05 	-2.24579e-05 	-4.53529e-06 	0.0203554
0.000100334 	-4.49158e-05 	-9.07058e-06 	0.0407107
0.000150502 	-6.73737e-05 	-1.36059e-05 	0.0610661
0.000200669 	-8.98316e-05 	-1.81412e-05 	0.0814214
0.000250836 	-0.00011229 	-2.26765e-05 	0.101777
0.000301003 	-0.000134747 	-2.72117e-05 	0.122132
0.000351171 	-0.000155129 	-3.24611e-05 	0.140377
0.000401338 	-0.000167656 	-4.04107e-05 	0.150639
0.000451505 	-0.000180184 	-4.83604e-05 	0.160901
0.000501672 	-0.000192711 	-5.631e-05 	0.171163
0.000551839 	-0.000205239 	-6.42596e-05 	0.181426
0.000602007 	-0.000217767 	-7.22092e-05 	0.191688
0.000652174 	-0.000230294 	-8.01589e-05 	0.20195
0.000702341 	-0.000242822 	-8.81085e-05 	0.212213
0.000752508 	-0.000252564 	-9.62818e-05 	0.221047
0.000802676 	-0.000255401 	-0.00010501 	0.22634
0.000852843 	-0.000258237 	-0.000113737 	0.231632
0.00090301 	-0.000261074 	-0.000122465 	0.236925
0.000953177 	-0.00026391 	-0.000131193 	0.242218
0.00100334 	-0.000266747 	-0.000139921 	0.247511
0.00105351 	-0.000269583 	-0.000148648 	0.252804
0.00110368 	-0.00027242 	-0.000157376 	0.258097
0.00115385 	-0.000275256 	-0.000166104 	0.26339
0.00120401 	-0.000277893 	-0.000174789 	0.268577
0.00125418 	-0.000276416 	-0.000182599 	0.271596
0.00130435 	-0.00027494 	-0.00019041 	0.274616
0.00135452 	-0.000273463 	-0.00019822 	0.277635
0.00140468 	-0.000271987 	-0.00020603 	0.280655
0.00145485 	-0.00027051 	-0.000213841 	0.283675
0.00150502 	-0.000269034 	-0.000221651 	0.286694
0.00155518 	-0.000267557 	-0.000229461 	0.289714
0.00160535 	-0.000266081 	-0.000237272 	0.292733
0.00165552 	-0.000264604 	-0.000245082 	0.295753
0.00170569 	-0.000263128 	-0.000252892 	0.298772
0.00175585 	-0.000261396 	-0.000260294 	0.301503
0.00180602 	-0.000258962 	-0.000266572 	0.303437
0.00185619 	-0.000256529 	-0.000272849 	0.305372
0.00190635 	-0.000254095 	-0.000279127 	0.307306
0.00195652 	-0.000251662 	-0.000285404 	0.309241
0.00200669 	-0.000249228 	-0.000291682 	0.311175
0.00205686 	-0.000246794 	-0.00029796 	0.31311
0.00210702 	-0.000244361 	-0.000304237 	0.315044
0.00215719 	-0.000241927 	-0.000310515 	0.316979
0.00220736 	-0.000239494 	-0.000316792 	0.318913
0.00225753 	-0.00023706 	-0.00032307 	0.320848
0.00230769 	-0.000234627 	-0.000329348 	0.322783
0.00235786 	-0.000232193 	-0.000335625 	0.324717
0.00240803 	-0.000230005 	-0.000340731 	0.326218
0.00245819 	-0.000227925 	-0.000345314 	0.327525
0.00250836 	-0.000225846 	-0.000349898 	0.328832
0.00255853 	-0.000223767 	-0.000354481 	0.330139
0.0026087 	-0.000221688 	-0.000359065 	0.331446
0.00265886 	-0.000219609 	-0.000363648 	0.332753
0.00270903 	-0.000217529 	-0.000368232 	0.334061
0.0027592 	-0.00021545 	-0.000372815 	0.335368
0.00280936 	-0.000213371 	-0.000377399 	0.336675
0.00285953 	-0.000211292 	-0.000381982 	0.337982
0.0029097 	-0.000209213 	-0.000386565 	0.339289
0.00295987 	-0.000207133 	-0.000391149 	0.340596
0.00301003 	-0.000205054 	-0.000395732 	0.341903
0.0030602 	-0.000202975 	-0.000400316 	0.343211
0.00311037 	-0.00020091 	-0.000404869 	0.344508
0.00316054 	-0.000199458 	-0.000408103 	0.345386
0.0032107 	-0.000198006 	-0.000411336 	0.346263
0.00326087 	-0.000196554 	-0.00041457 	0.347141
0.00331104 	-0.000195102 	-0.000417804 	0.348018
0.0033612 	-0.00019365 	-0.000421038 	0.348896
0.00341137 	-0.000192198 	-0.000424272 	0.349773
0.00346154 	-0.000190746 	-0.000427506 	0.350651
0.00351171 	-0.000189294 	-0.000430739 	0.351528
0.00356187 	-0.000187842 	-0.000433973 	0.352406
0.00361204 	-0.00018639 	-0.000437207 	0.353283
0.00366221 	-0.000184938 	-0.000440441 	0.354161
0.00371237 	-0.000183486 	-0.000443675 	0.355039
0.00376254 	-0.000182034 	-0.000446909 	0.355916
0.00381271 	-0.000180582 	-0.000450142 	0.356794
0.00386288 	-0.00017913 	-0.000453376 	0.357671
0.00391304 	-0.000177678 	-0.00045661 	0.358549
0.00396321 	-0.000176226 	-0.000459844 	0.359426
0.00401338 	-0.000175181 	-0.000462232 	0.360005
0.00406355 	-0.000174177 	-0.000464538 	0.360555
0.00411371 	-0.000173172 	-0.000466844 	0.361104
0.00416388 	-0.000172168 	-0.000469149 	0.361654
0.00421405 	-0.000171163 	-0.000471455 	0.362204
0.00426421 	-0.000170159 	-0.000473761 	0.362753
0.00431438 	-0.000169154 	-0.000476066 	0.363303
0.00436455 	-0.00016815 	-0.000478372 	0.363853
0.00441472 	-0.000167146 	-0.000480678 	0.364402
0.00446488 	-0.000166141 	-0.000482983 	0.364952
0.00451505 	-0.000165137 	-0.000485289 	0.365502
0.00456522 	-0.000164132 	-0.000487595 	0.366051
0.00461538 	-0.000163128 	-0.0004899 	0.366601
0.00466555 	-0.000162123 	-0.000492206 	0.367151
0.00471572 	-0.000161119 	-0.000494512 	0.3677
0.00476589 	-0.000160114 	-0.000496817 	0.36825
0.00481605 	-0.00015911 	-0.000499123 	0.3688
0.00486622 	-0.000158106 	-0.000501429 	0.369349
0.00491639 	-0.000157101 	-0.000503734 	0.369899
0.00496656 	-0.000156097 	-0.00050604 	0.370448
0.00501672 	-0.0001553 	-0.000507624 	0.370748
0.00506689 	-0.000154515 	-0.00050917 	0.371035
0.00511706 	-0.00015373 	-0.000510716 	0.371321
0.00516722 	-0.000152944 	-0.000512261 	0.371608
0.00521739 	-0.000152159 	-0.000513807 	0.371894
0.00526756 	-0.000151374 	-0.000515353 	0.372181
0.00531773 	-0.000150589 	-0.000516899 	0.372468
0.00536789 	-0.000149803 	-0.000518444 	0.372754
0.00541806 	-0.000149018 	-0.00051999 	0.373041
0.00546823 	-0.000148233 	-0.000521536 	0.373327
0.00551839 	-0.000147447 	-0.000523081 	0.373614
0.00556856 	-0.000146662 	-0.000524627 	0.3739
0.00561873 	-0.000145877 	-0.000526173 	0.374187
0.0056689 	-0.000145092 	-0.000527719 	0.374473
0.00571906 	-0.000144306 	-0.000529264 	0.37476
0.00576923 	-0.000143521 	-0.00053081 	0.375046
0.0058194 	-0.000142736 	-0.000532356 	0.375333
0.00586957 	-0.00014195 	-0.000533902 	0.375619
0.00591973 	-0.000141165 	-0.000535447 	0.375906
0.0059699 	-0.00014038 	-0.000536993 	0.376192
0.00602007 	-0.000139595 	-0.000538539 	0.376479
0.00607023 	-0.000138809 	-0.000540084 	0.376766
0.0061204 	-0.000138024 	-0.00054163 	0.377052
0.00617057 	-0.000137336 	-0.000542658 	0.377192
0.00622074 	-0.000136699 	-0.000543423 	0.377258
0.0062709 	-0.000136061 	-0.000544188 	0.377325
0.00632107 	-0.000135423 	-0.000544953 	0.377391
0.00637124 	-0.000134785 	-0.000545718 	0.377457
0.0064214 	-0.000134147 	-0.000546483 	0.377523
0.00647157 	-0.000133509 	-0.000547248 	0.377589
0.00652174 	-0.000132871 	-0.000548013 	0.377655
0.00657191 	-0.000132233 	-0.000548778 	0.377721
0.00662207 	-0.000131595 	-0.000549543 	0.377787
0.00667224 	-0.000130957 	-0.000550308 	0.377854
0.00672241 	-0.000130319 	-0.000551073 	0.37792
0.00677258 	-0.000129681 	-0.000551838 	0.377986
0.00682274 	-0.000129043 	-0.000552603 	0.378052
0.00687291 	-0.000128405 	-0.000553368 	0.378118
0.00692308 	-0.000127767 	-0.000554133 	0.378184
0.00697324 	-0.000127129 	-0.000554897 	0.37825
0.00702341 	-0.000126491 	-0.000555662 	0.378316
0.00707358 	-0.000125853 	-0.000556427 	0.378382
0.00712375 	-0.000125215 	-0.000557192 	0.378449
0.00717391 	-0.000124577 	-0.000557957 	0.378515
0.00722408 	-0.000123939 	-0.000558722 	0.378581
0.00727425 	-0.000123301 	-0.000559487 	0.378647
0.00732441 	-0.000122663 	-0.000560252 	0.378713
0.00737458 	-0.000122025 	-0.000561017 	0.378779
0.00742475 	-0.000121387 	-0.000561782 	0.378845
0.00747492 	-0.000120749 	-0.000562547 	0.378911
0.00752508 	-0.000120169 	-0.000562925 	0.378878
0.00757525 	-0.000119646 	-0.000562914 	0.378746
0.00762542 	-0.000119124 	-0.000562904 	0.378614
0.00767559 	-0.000118601 	-0.000562894 	0.378482
0.00772575 	-0.000118079 	-0.000562884 	0.378349
0.00777592 	-0.000117556 	-0.000562873 	0.378217
0.00782609 	-0.000117034 	-0.000562863 	0.378085
0.00787625 	-0.000116511 	-0.000562853 	0.377953
0.00792642 	-0.000115989 	-0.000562843 	0.377821
0.00797659 	-0.000115466 	-0.000562832 	0.377688
0.00802676 	-0.000114944 	-0.000562822 	0.377556
0.00807692 	-0.000114421 	-0.000562812 	0.377424
0.00812709 	-0.000113899 	-0.000562801 	0.377292
0.00817726 	-0.000113376 	-0.000562791 	0.377159
0.00822742 	-0.000112854 	-0.000562781 	0.377027
0.00827759 	-0.000112331 	-0.000562771 	0.376895
0.00832776 	-0.000111809 	-0.00056276 	0.376763
0.00837793 	-0.000111286 	-0.00056275 	0.376631
0.00842809 	-0.000110764 	-0.00056274 	0.376498
0.00847826 	-0.000110241 	-0.00056273 	0.376366
0.00852843 	-0.000109719 	-0.000562719 	0.376234
0.0085786 	-0.000109196 	-0.000562709 	0.376102
0.00862876 	-0.000108674 	-0.000562699 	0.375969
0.00867893 	-0.000108151 	-0.000562689 	0.375837
0.0087291 	-0.000107629 	-0.000562678 	0.375705
0.00877926 	-0.000107106 	-0.000562668 	0.375573
0.00882943 	-0.000106584 	-0.000562658 	0.375441
0.0088796 	-0.000106115 	-0.000562328 	0.375227
0.00892977 	-0.000105754 	-0.000561369 	0.374855
0.00897993 	-0.000105393 	-0.00056041 	0.374482
0.0090301 	-0.000105031 	-0.000559451 	0.37411
0.00908027 	-0.00010467 	-0.000558492 	0.373737
0.00913043 	-0.000104309 	-0.000557533 	0.373365
0.0091806 	-0.000103947 	-0.000556573 	0.372992
0.00923077 	-0.000103586 	-0.000555614 	0.37262
0.00928094 	-0.000103225 	-0.000554655 	0.372247
0.0093311 	-0.000102863 	-0.000553696 	0.371875
0.00938127 	-0.000102502 	-0.000552737 	0.371502
0.00943144 	-0.000102141 	-0.000551778 	0.37113
0.00948161 	-0.000101779 	-0.000550819 	0.370757
0.00953177 	-0.000101418 	-0.00054986 	0.370385
0.00958194 	-0.000101057 	-0.0005489 	0.370012
0.00963211 	-0.000100695 	-0.000547941 	0.36964
0.00968227 	-0.000100334 	-0.000546982 	0.369267
0.00973244 	-9.99727e-05 	-0.000546023 	0.368895
0.00978261 	-9.96114e-05 	-0.000545064 	0.368522
0.00983278 	-9.92501e-05 	-0.000544105 	0.36815
0.00988294 	-9.88888e-05 	-0.000543146 	0.367777
0.00993311 	-9.85274e-05 	-0.000542187 	0.367405
0.00998328 	-9.81661e-05 	-0.000541228 	0.367032
0.0100334 	-9.78226e-05 	-0.000540212 	0.366645
0.0100836 	-9.78114e-05 	-0.000538149 	0.365989
0.0101338 	-9.78002e-05 	-0.000536086 	0.365332
0.0101839 	-9.77891e-05 	-0.000534023 	0.364676
0.0102341 	-9.77779e-05 	-0.00053196 	0.364019
0.0102843 	-9.77667e-05 	-0.000529896 	0.363362
0.0103344 	-9.77555e-05 	-0.000527833 	0.362706
0.0103846 	-9.77443e-05 	-0.00052577 	0.362049
0.0104348 	-9.77332e-05 	-0.000523707 	0.361393
0.0104849 	-9.7722e-05 	-0.000521644 	0.360736
0.0105351 	-9.77108e-05 	-0.000519581 	0.360079
0.0105853 	-9.76996e-05 	-0.000517517 	0.359423
0.0106355 	-9.76885e-05 	-0.000515454 	0.358766
0.0106856 	-9.76773e-05 	-0.000513391 	0.35811
0.0107358 	-9.76661e-05 	-0.000511328 	0.357453
0.010786 	-9.76549e-05 	-0.000509265 	0.356797
0.0108361 	-9.76437e-05 	-0.000507202 	0.35614
0.0108863 	-9.76326e-05 	-0.000505138 	0.355483
0.0109365 	-9.76214e-05 	-0.000503075 	0.354827
0.0109866 	-9.76102e-05 	-0.000501012 	0.35417
0.0110368 	-9.76552e-05 	-0.000498807 	0.353481
0.011087 	-9.82732e-05 	-0.000495152 	0.352456
0.0111371 	-9.88911e-05 	-0.000491497 	0.351432
0.0111873 	-9.95091e-05 	-0.000487843 	0.350407
0.0112375 	-0.000100127 	-0.000484188 	0.349383
0.0112876 	-0.000100745 	-0.000480533 	0.348359
0.0113378 	-0.000101363 	-0.000476879 	0.347334
0.011388 	-0.000101981 	-0.000473224 	0.34631
0.0114381 	-0.000102599 	-0.000469569 	0.345285
0.0114883 	-0.000103217 	-0.000465914 	0.344261
0.0115385 	-0.000103835 	-0.00046226 	0.343236
0.0115886 	-0.000104453 	-0.000458605 	0.342212
0.0116388 	-0.000105071 	-0.00045495 	0.341188
0.011689 	-0.000105689 	-0.000451296 	0.340163
0.0117391 	-0.000106307 	-0.000447641 	0.339139
0.0117893 	-0.000106925 	-0.000443986 	0.338114
0.0118395 	-0.000107542 	-0.000440332 	0.33709
0.0118896 	-0.00010816 	-0.000436677 	0.336065
0.0119398 	-0.000109669 	-0.000430538 	0.334503
0.01199 	-0.000111198 	-0.000424341 	0.332928
0.0120401 	-0.000112727 	-0.000418144 	0.331353
0.0120903 	-0.000114256 	-0.000411947 	0.329778
0.0121405 	-0.000115784 	-0.000405751 	0.328203
0.0121906 	-0.000117313 	-0.000399554 	0.326628
0.0122408 	-0.000118842 	-0.000393357 	0.325053
0.012291 	-0.000120371 	-0.00038716 	0.323478
0.0123411 	-0.0001219 	-0.000380964 	0.321903
0.0123913 	-0.000123429 	-0.000374767 	0.320328
0.0124415 	-0.000124958 	-0.00036857 	0.318753
0.0124916 	-0.000126487 	-0.000362374 	0.317178
0.0125418 	-0.000128016 	-0.000356177 	0.315603
0.012592 	-0.000129545 	-0.00034998 	0.314028
0.0126421 	-0.000131329 	-0.000342822 	0.312168
0.0126923 	-0.000133687 	-0.000333509 	0.30967
0.0127425 	-0.000136046 	-0.000324195 	0.307172
0.0127926 	-0.000138404 	-0.000314882 	0.304674
0.0128428 	-0.000140762 	-0.000305569 	0.302175
0.012893 	-0.00014312 	-0.000296255 	0.299677
0.0129431 	-0.000145478 	-0.000286942 	0.297179
0.0129933 	-0.000147836 	-0.000277628 	0.294681
0.0130435 	-0.000150194 	-0.000268315 	0.292183
0.0130936 	-0.000152552 	-0.000259001 	0.289684
0.0131438 	-0.00015491 	-0.000249688 	0.287186
0.013194 	-0.000157268 	-0.000240374 	0.284688
0.0132441 	-0.000159626 	-0.000231061 	0.28219
0.0132943 	-0.000161671 	-0.000220165 	0.278477
0.0133445 	-0.000163601 	-0.000208694 	0.274323
0.0133946 	-0.000165531 	-0.000197223 	0.270169
0.0134448 	-0.000167461 	-0.000185751 	0.266014
0.013495 	-0.000169391 	-0.00017428 	0.26186
0.0135452 	-0.000171321 	-0.000162809 	0.257706
0.0135953 	-0.000173251 	-0.000151338 	0.253551
0.0136455 	-0.000175182 	-0.000139867 	0.249397
0.0136957 	-0.000177112 	-0.000128395 	0.245243
0.0137458 	-0.000179042 	-0.000116924 	0.241089
0.013796 	-0.000180972 	-0.000105453 	0.236934
0.0138462 	-0.000178912 	-9.56554e-05 	0.229494
0.0138963 	-0.000176657 	-8.59392e-05 	0.221893
0.0139465 	-0.000174402 	-7.62231e-05 	0.214293
0.0139967 	-0.000172147 	-6.65069e-05 	0.206692
0.0140468 	-0.000169893 	-5.67907e-05 	0.199091
0.014097 	-0.000167638 	-4.70746e-05 	0.191491
0.0141472 	-0.000165383 	-3.73584e-05 	0.18389
0.0141973 	-0.000163128 	-2.76422e-05 	0.17629
0.0142475 	-0.000160874 	-1.7926e-05 	0.168689
0.0142977 	-0.000153238 	-1.28862e-05 	0.158158
0.0143478 	-0.000143432 	-9.73242e-06 	0.146446
0.014398 	-0.000133626 	-6.57861e-06 	0.134734
0.0144482 	-0.00012382 	-3.42481e-06 	0.123022
0.0144983 	-0.000114014 	-2.71003e-07 	0.111309
0.0145485 	-0.000104208 	2.8828e-06 	0.0995973
0.0145987 	-9.44019e-05 	6.03661e-06 	0.0878851
0.0146488 	-8.4596e-05 	9.19041e-06 	0.0761729
0.014699 	-7.2932e-05 	8.70286e-06 	0.0651376
0.0147492 	-6.07766e-05 	7.25239e-06 	0.0542813
0.0147993 	-4.86213e-05 	5.80191e-06 	0.0434251
0.0148495 	-3.6466e-05 	4.35143e-06 	0.0325688
0.0148997 	-2.43107e-05 	2.90095e-06 	0.0217125
0.0149498 	-1.21553e-05 	1.45048e-06 	0.0108563
0.015 	0 	0 	0
