-0.0075 	373
-0.00715932 	359.731
-0.00676191 	357.658
-0.00629832 	356.837
-0.00575752 	356.337
-0.00512667 	355.947
-0.00439077 	355.603
-0.00353231 	355.274
-0.00253089 	354.941
-0.00136271 	354.586
0 	354.196
0.00136271 	353.771
0.00253089 	353.327
0.00353231 	352.874
0.00439077 	352.398
0.00512667 	351.859
0.00575752 	351.18
0.00629832 	350.176
0.00676191 	348.014
0.00715932 	337.217
0.0075 	313
