0 	0 	0 	0
5.01672e-05 	-2.69832e-05 	-5.04246e-06 	0.0204878
0.000100334 	-5.39664e-05 	-1.00849e-05 	0.0409756
0.000150502 	-8.09496e-05 	-1.51274e-05 	0.0614634
0.000200669 	-0.000107933 	-2.01698e-05 	0.0819512
0.000250836 	-0.000134916 	-2.52123e-05 	0.102439
0.000301003 	-0.000161899 	-3.02547e-05 	0.122927
0.000351171 	-0.000186206 	-3.60441e-05 	0.141273
0.000401338 	-0.000200393 	-4.46578e-05 	0.151519
0.000451505 	-0.00021458 	-5.32716e-05 	0.161765
0.000501672 	-0.000228767 	-6.18853e-05 	0.172012
0.000551839 	-0.000242954 	-7.0499e-05 	0.182258
0.000602007 	-0.000257141 	-7.91128e-05 	0.192504
0.000652174 	-0.000271328 	-8.77265e-05 	0.202751
0.000702341 	-0.000285515 	-9.63402e-05 	0.212997
0.000752508 	-0.000296503 	-0.000105156 	0.221832
0.000802676 	-0.000299559 	-0.000114474 	0.22717
0.000852843 	-0.000302615 	-0.000123791 	0.232507
0.00090301 	-0.00030567 	-0.000133108 	0.237845
0.000953177 	-0.000308726 	-0.000142426 	0.243182
0.00100334 	-0.000311781 	-0.000151743 	0.24852
0.00105351 	-0.000314837 	-0.00016106 	0.253857
0.00110368 	-0.000317893 	-0.000170378 	0.259195
0.00115385 	-0.000320948 	-0.000179695 	0.264532
0.00120401 	-0.000323779 	-0.00018896 	0.269764
0.00125418 	-0.000321996 	-0.000197142 	0.272822
0.00130435 	-0.000320213 	-0.000205324 	0.275881
0.00135452 	-0.00031843 	-0.000213507 	0.27894
0.00140468 	-0.000316647 	-0.000221689 	0.281998
0.00145485 	-0.000314864 	-0.000229871 	0.285057
0.00150502 	-0.000313081 	-0.000238054 	0.288116
0.00155518 	-0.000311298 	-0.000246236 	0.291174
0.00160535 	-0.000309515 	-0.000254418 	0.294233
0.00165552 	-0.000307732 	-0.000262601 	0.297292
0.00170569 	-0.000305949 	-0.000270783 	0.30035
0.00175585 	-0.0003039 	-0.000278502 	0.303117
0.00180602 	-0.00030112 	-0.000284945 	0.305079
0.00185619 	-0.000298339 	-0.000291388 	0.307041
0.00190635 	-0.000295558 	-0.000297832 	0.309004
0.00195652 	-0.000292777 	-0.000304275 	0.310966
0.00200669 	-0.000289996 	-0.000310719 	0.312928
0.00205686 	-0.000287216 	-0.000317162 	0.314891
0.00210702 	-0.000284435 	-0.000323605 	0.316853
0.00215719 	-0.000281654 	-0.000330049 	0.318816
0.00220736 	-0.000278873 	-0.000336492 	0.320778
0.00225753 	-0.000276093 	-0.000342935 	0.32274
0.00230769 	-0.000273312 	-0.000349379 	0.324703
0.00235786 	-0.000270531 	-0.000355822 	0.326665
0.00240803 	-0.000268081 	-0.000360989 	0.328186
0.00245819 	-0.000265778 	-0.000365587 	0.329509
0.00250836 	-0.000263476 	-0.000370184 	0.330833
0.00255853 	-0.000261173 	-0.000374782 	0.332157
0.0026087 	-0.00025887 	-0.00037938 	0.333481
0.00265886 	-0.000256568 	-0.000383977 	0.334805
0.00270903 	-0.000254265 	-0.000388575 	0.336129
0.0027592 	-0.000251962 	-0.000393172 	0.337453
0.00280936 	-0.00024966 	-0.00039777 	0.338776
0.00285953 	-0.000247357 	-0.000402368 	0.3401
0.0029097 	-0.000245054 	-0.000406965 	0.341424
0.00295987 	-0.000242752 	-0.000411563 	0.342748
0.00301003 	-0.000240449 	-0.000416161 	0.344072
0.0030602 	-0.000238146 	-0.000420758 	0.345396
0.00311037 	-0.00023586 	-0.000425324 	0.34671
0.00316054 	-0.000234305 	-0.000428517 	0.347595
0.0032107 	-0.00023275 	-0.000431709 	0.34848
0.00326087 	-0.000231195 	-0.000434902 	0.349365
0.00331104 	-0.00022964 	-0.000438095 	0.35025
0.0033612 	-0.000228086 	-0.000441287 	0.351135
0.00341137 	-0.000226531 	-0.00044448 	0.352021
0.00346154 	-0.000224976 	-0.000447672 	0.352906
0.00351171 	-0.000223421 	-0.000450865 	0.353791
0.00356187 	-0.000221866 	-0.000454057 	0.354676
0.00361204 	-0.000220311 	-0.00045725 	0.355561
0.00366221 	-0.000218756 	-0.000460443 	0.356447
0.00371237 	-0.000217201 	-0.000463635 	0.357332
0.00376254 	-0.000215646 	-0.000466828 	0.358217
0.00381271 	-0.000214091 	-0.00047002 	0.359102
0.00386288 	-0.000212536 	-0.000473213 	0.359987
0.00391304 	-0.000210981 	-0.000476406 	0.360872
0.00396321 	-0.000209426 	-0.000479598 	0.361758
0.00401338 	-0.000208332 	-0.000481944 	0.362338
0.00406355 	-0.000207284 	-0.000484207 	0.362889
0.00411371 	-0.000206235 	-0.000486469 	0.363439
0.00416388 	-0.000205187 	-0.000488732 	0.36399
0.00421405 	-0.000204138 	-0.000490995 	0.36454
0.00426421 	-0.00020309 	-0.000493257 	0.365091
0.00431438 	-0.000202041 	-0.00049552 	0.365642
0.00436455 	-0.000200993 	-0.000497783 	0.366192
0.00441472 	-0.000199944 	-0.000500045 	0.366743
0.00446488 	-0.000198896 	-0.000502308 	0.367293
0.00451505 	-0.000197847 	-0.000504571 	0.367844
0.00456522 	-0.000196799 	-0.000506833 	0.368395
0.00461538 	-0.000195751 	-0.000509096 	0.368945
0.00466555 	-0.000194702 	-0.000511359 	0.369496
0.00471572 	-0.000193654 	-0.000513621 	0.370046
0.00476589 	-0.000192605 	-0.000515884 	0.370597
0.00481605 	-0.000191557 	-0.000518147 	0.371148
0.00486622 	-0.000190508 	-0.000520409 	0.371698
0.00491639 	-0.00018946 	-0.000522672 	0.372249
0.00496656 	-0.000188411 	-0.000524935 	0.372799
0.00501672 	-0.000187584 	-0.000526461 	0.373096
0.00506689 	-0.000186769 	-0.000527948 	0.37338
0.00511706 	-0.000185953 	-0.000529435 	0.373663
0.00516722 	-0.000185138 	-0.000530922 	0.373947
0.00521739 	-0.000184323 	-0.000532409 	0.37423
0.00526756 	-0.000183507 	-0.000533896 	0.374514
0.00531773 	-0.000182692 	-0.000535383 	0.374797
0.00536789 	-0.000181877 	-0.00053687 	0.375081
0.00541806 	-0.000181061 	-0.000538358 	0.375364
0.00546823 	-0.000180246 	-0.000539845 	0.375648
0.00551839 	-0.000179431 	-0.000541332 	0.375931
0.00556856 	-0.000178615 	-0.000542819 	0.376215
0.00561873 	-0.0001778 	-0.000544306 	0.376498
0.0056689 	-0.000176985 	-0.000545793 	0.376781
0.00571906 	-0.000176169 	-0.00054728 	0.377065
0.00576923 	-0.000175354 	-0.000548767 	0.377348
0.0058194 	-0.000174539 	-0.000550254 	0.377632
0.00586957 	-0.000173723 	-0.000551741 	0.377915
0.00591973 	-0.000172908 	-0.000553228 	0.378199
0.0059699 	-0.000172093 	-0.000554715 	0.378482
0.00602007 	-0.000171277 	-0.000556202 	0.378766
0.00607023 	-0.000170462 	-0.000557689 	0.379049
0.0061204 	-0.000169647 	-0.000559176 	0.379333
0.00617057 	-0.00016893 	-0.000560124 	0.379469
0.00622074 	-0.000168265 	-0.000560799 	0.37953
0.0062709 	-0.000167599 	-0.000561473 	0.379592
0.00632107 	-0.000166933 	-0.000562147 	0.379654
0.00637124 	-0.000166267 	-0.000562822 	0.379715
0.0064214 	-0.000165601 	-0.000563496 	0.379777
0.00647157 	-0.000164936 	-0.000564171 	0.379838
0.00652174 	-0.00016427 	-0.000564845 	0.3799
0.00657191 	-0.000163604 	-0.00056552 	0.379961
0.00662207 	-0.000162938 	-0.000566194 	0.380023
0.00667224 	-0.000162272 	-0.000566869 	0.380084
0.00672241 	-0.000161606 	-0.000567543 	0.380146
0.00677258 	-0.000160941 	-0.000568218 	0.380207
0.00682274 	-0.000160275 	-0.000568892 	0.380269
0.00687291 	-0.000159609 	-0.000569566 	0.38033
0.00692308 	-0.000158943 	-0.000570241 	0.380392
0.00697324 	-0.000158277 	-0.000570915 	0.380453
0.00702341 	-0.000157612 	-0.00057159 	0.380515
0.00707358 	-0.000156946 	-0.000572264 	0.380577
0.00712375 	-0.00015628 	-0.000572939 	0.380638
0.00717391 	-0.000155614 	-0.000573613 	0.3807
0.00722408 	-0.000154948 	-0.000574288 	0.380761
0.00727425 	-0.000154282 	-0.000574962 	0.380823
0.00732441 	-0.000153617 	-0.000575636 	0.380884
0.00737458 	-0.000152951 	-0.000576311 	0.380946
0.00742475 	-0.000152285 	-0.000576985 	0.381007
0.00747492 	-0.000151619 	-0.00057766 	0.381069
0.00752508 	-0.000151012 	-0.000577923 	0.38103
0.00757525 	-0.000150465 	-0.000577776 	0.380892
0.00762542 	-0.000149917 	-0.000577629 	0.380753
0.00767559 	-0.000149369 	-0.000577482 	0.380615
0.00772575 	-0.000148821 	-0.000577335 	0.380477
0.00777592 	-0.000148274 	-0.000577187 	0.380338
0.00782609 	-0.000147726 	-0.00057704 	0.3802
0.00787625 	-0.000147178 	-0.000576893 	0.380061
0.00792642 	-0.00014663 	-0.000576746 	0.379923
0.00797659 	-0.000146083 	-0.000576599 	0.379784
0.00802676 	-0.000145535 	-0.000576451 	0.379646
0.00807692 	-0.000144987 	-0.000576304 	0.379508
0.00812709 	-0.000144439 	-0.000576157 	0.379369
0.00817726 	-0.000143892 	-0.00057601 	0.379231
0.00822742 	-0.000143344 	-0.000575863 	0.379092
0.00827759 	-0.000142796 	-0.000575716 	0.378954
0.00832776 	-0.000142248 	-0.000575568 	0.378815
0.00837793 	-0.000141701 	-0.000575421 	0.378677
0.00842809 	-0.000141153 	-0.000575274 	0.378538
0.00847826 	-0.000140605 	-0.000575127 	0.3784
0.00852843 	-0.000140057 	-0.00057498 	0.378262
0.0085786 	-0.00013951 	-0.000574832 	0.378123
0.00862876 	-0.000138962 	-0.000574685 	0.377985
0.00867893 	-0.000138414 	-0.000574538 	0.377846
0.0087291 	-0.000137866 	-0.000574391 	0.377708
0.00877926 	-0.000137319 	-0.000574244 	0.377569
0.00882943 	-0.000136771 	-0.000574096 	0.377431
0.0088796 	-0.000136282 	-0.000573607 	0.377211
0.00892977 	-0.000135908 	-0.000572444 	0.376829
0.00897993 	-0.000135534 	-0.00057128 	0.376446
0.0090301 	-0.00013516 	-0.000570117 	0.376064
0.00908027 	-0.000134787 	-0.000568954 	0.375682
0.00913043 	-0.000134413 	-0.00056779 	0.3753
0.0091806 	-0.000134039 	-0.000566627 	0.374918
0.00923077 	-0.000133665 	-0.000565464 	0.374536
0.00928094 	-0.000133292 	-0.0005643 	0.374154
0.0093311 	-0.000132918 	-0.000563137 	0.373772
0.00938127 	-0.000132544 	-0.000561974 	0.37339
0.00943144 	-0.000132171 	-0.00056081 	0.373008
0.00948161 	-0.000131797 	-0.000559647 	0.372626
0.00953177 	-0.000131423 	-0.000558484 	0.372244
0.00958194 	-0.000131049 	-0.00055732 	0.371862
0.00963211 	-0.000130676 	-0.000556157 	0.37148
0.00968227 	-0.000130302 	-0.000554994 	0.371098
0.00973244 	-0.000129928 	-0.00055383 	0.370716
0.00978261 	-0.000129554 	-0.000552667 	0.370334
0.00983278 	-0.000129181 	-0.000551504 	0.369952
0.00988294 	-0.000128807 	-0.00055034 	0.36957
0.00993311 	-0.000128433 	-0.000549177 	0.369188
0.00998328 	-0.000128059 	-0.000548014 	0.368806
0.0100334 	-0.000127706 	-0.000546793 	0.368409
0.0100836 	-0.000127731 	-0.000544495 	0.367739
0.0101338 	-0.000127756 	-0.000542198 	0.367069
0.0101839 	-0.000127781 	-0.0005399 	0.366399
0.0102341 	-0.000127806 	-0.000537603 	0.365729
0.0102843 	-0.000127831 	-0.000535305 	0.365058
0.0103344 	-0.000127856 	-0.000533007 	0.364388
0.0103846 	-0.000127881 	-0.00053071 	0.363718
0.0104348 	-0.000127906 	-0.000528412 	0.363048
0.0104849 	-0.000127931 	-0.000526115 	0.362378
0.0105351 	-0.000127956 	-0.000523817 	0.361707
0.0105853 	-0.000127981 	-0.00052152 	0.361037
0.0106355 	-0.000128006 	-0.000519222 	0.360367
0.0106856 	-0.000128031 	-0.000516925 	0.359697
0.0107358 	-0.000128056 	-0.000514627 	0.359027
0.010786 	-0.000128082 	-0.00051233 	0.358356
0.0108361 	-0.000128107 	-0.000510032 	0.357686
0.0108863 	-0.000128132 	-0.000507734 	0.357016
0.0109365 	-0.000128157 	-0.000505437 	0.356346
0.0109866 	-0.000128182 	-0.000503139 	0.355676
0.0110368 	-0.000128273 	-0.000500701 	0.354972
0.011087 	-0.000129038 	-0.000496822 	0.353929
0.0111371 	-0.000129803 	-0.000492944 	0.352885
0.0111873 	-0.000130568 	-0.000489066 	0.351842
0.0112375 	-0.000131333 	-0.000485188 	0.350798
0.0112876 	-0.000132097 	-0.00048131 	0.349754
0.0113378 	-0.000132862 	-0.000477432 	0.348711
0.011388 	-0.000133627 	-0.000473553 	0.347667
0.0114381 	-0.000134392 	-0.000469675 	0.346624
0.0114883 	-0.000135157 	-0.000465797 	0.34558
0.0115385 	-0.000135922 	-0.000461919 	0.344537
0.0115886 	-0.000136687 	-0.000458041 	0.343493
0.0116388 	-0.000137452 	-0.000454162 	0.34245
0.011689 	-0.000138217 	-0.000450284 	0.341406
0.0117391 	-0.000138982 	-0.000446406 	0.340363
0.0117893 	-0.000139747 	-0.000442528 	0.339319
0.0118395 	-0.000140512 	-0.00043865 	0.338276
0.0118896 	-0.000141277 	-0.000434772 	0.337232
0.0119398 	-0.000143101 	-0.000428456 	0.335642
0.01199 	-0.00014495 	-0.000422084 	0.334039
0.0120401 	-0.000146799 	-0.000415713 	0.332437
0.0120903 	-0.000148648 	-0.000409341 	0.330834
0.0121405 	-0.000150497 	-0.000402969 	0.329231
0.0121906 	-0.000152346 	-0.000396597 	0.327629
0.0122408 	-0.000154195 	-0.000390225 	0.326026
0.012291 	-0.000156044 	-0.000383854 	0.324423
0.0123411 	-0.000157893 	-0.000377482 	0.322821
0.0123913 	-0.000159742 	-0.00037111 	0.321218
0.0124415 	-0.000161591 	-0.000364738 	0.319615
0.0124916 	-0.00016344 	-0.000358366 	0.318013
0.0125418 	-0.000165289 	-0.000351995 	0.31641
0.012592 	-0.000167138 	-0.000345623 	0.314807
0.0126421 	-0.000169289 	-0.000338312 	0.312915
0.0126923 	-0.000172117 	-0.000328894 	0.310373
0.0127425 	-0.000174946 	-0.000319477 	0.30783
0.0127926 	-0.000177774 	-0.000310059 	0.305288
0.0128428 	-0.000180603 	-0.000300642 	0.302746
0.012893 	-0.000183431 	-0.000291224 	0.300204
0.0129431 	-0.00018626 	-0.000281807 	0.297662
0.0129933 	-0.000189089 	-0.000272389 	0.29512
0.0130435 	-0.000191917 	-0.000262972 	0.292577
0.0130936 	-0.000194746 	-0.000253554 	0.290035
0.0131438 	-0.000197574 	-0.000244137 	0.287493
0.013194 	-0.000200403 	-0.000234719 	0.284951
0.0132441 	-0.000203232 	-0.000225302 	0.282409
0.0132943 	-0.000205631 	-0.000214401 	0.278631
0.0133445 	-0.000207874 	-0.000202961 	0.274404
0.0133946 	-0.000210117 	-0.000191522 	0.270176
0.0134448 	-0.00021236 	-0.000180082 	0.265949
0.013495 	-0.000214603 	-0.000168642 	0.261722
0.0135452 	-0.000216846 	-0.000157203 	0.257495
0.0135953 	-0.000219089 	-0.000145763 	0.253268
0.0136455 	-0.000221332 	-0.000134323 	0.24904
0.0136957 	-0.000223575 	-0.000122884 	0.244813
0.0137458 	-0.000225818 	-0.000111444 	0.240586
0.013796 	-0.000228061 	-0.000100004 	0.236359
0.0138462 	-0.000225349 	-9.04167e-05 	0.228865
0.0138963 	-0.000222395 	-8.09192e-05 	0.221211
0.0139465 	-0.000219442 	-7.14216e-05 	0.213558
0.0139967 	-0.000216488 	-6.19241e-05 	0.205905
0.0140468 	-0.000213535 	-5.24266e-05 	0.198252
0.014097 	-0.000210581 	-4.29291e-05 	0.190598
0.0141472 	-0.000207628 	-3.34315e-05 	0.182945
0.0141973 	-0.000204674 	-2.3934e-05 	0.175292
0.0142475 	-0.00020172 	-1.44365e-05 	0.167639
0.0142977 	-0.000192171 	-9.65326e-06 	0.15717
0.0143478 	-0.000179961 	-6.77136e-06 	0.145566
0.014398 	-0.000167751 	-3.88947e-06 	0.133962
0.0144482 	-0.000155541 	-1.00758e-06 	0.122358
0.0144983 	-0.000143331 	1.87431e-06 	0.110754
0.0145485 	-0.000131121 	4.7562e-06 	0.09915
0.0145987 	-0.000118911 	7.6381e-06 	0.087546
0.0146488 	-0.000106701 	1.052e-05 	0.075942
0.014699 	-9.20181e-05 	9.82735e-06 	0.0649536
0.0147492 	-7.66817e-05 	8.18946e-06 	0.054128
0.0147993 	-6.13454e-05 	6.55157e-06 	0.0433024
0.0148495 	-4.6009e-05 	4.91368e-06 	0.0324768
0.0148997 	-3.06727e-05 	3.27578e-06 	0.0216512
0.0149498 	-1.53363e-05 	1.63789e-06 	0.0108256
0.015 	0 	0 	0
