/*--------------------------------*- C++ -*----------------------------------*\
| =========                 |                                                 |
| \\      /  F ield         | OpenFOAM: The Open Source CFD Toolbox           |
|  \\    /   O peration     | Version:  v1912                                 |
|   \\  /    A nd           | Website:  www.openfoam.com                      |
|    \\/     M anipulation  |                                                 |
\*---------------------------------------------------------------------------*/
FoamFile
{
    version     2.0;
    format      ascii;
    class       volScalarField;
    location    "96.8";
    object      k;
}
// * * * * * * * * * * * * * * * * * * * * * * * * * * * * * * * * * * * * * //

dimensions      [0 2 -2 0 0 0 0];


internalField   nonuniform List<scalar> 
2000
(
8.04701e-06
6.02012e-05
0.000131435
0.00016898
0.000174887
0.000176916
0.000174883
0.000168983
0.000131456
6.02406e-05
1.40934e-05
0.000294097
0.000481423
0.000559495
0.000579754
0.000585194
0.000579741
0.000559494
0.000481458
0.000294185
3.9553e-05
0.000805401
0.00084942
0.000876187
0.000895464
0.000900844
0.000895451
0.000876169
0.000849421
0.000805426
0.000258137
0.000946842
0.000880736
0.000889161
0.000902647
0.000907511
0.000902636
0.000889137
0.000880725
0.000946794
0.000816632
0.000903312
0.000789128
0.000798608
0.000808407
0.000813324
0.000808397
0.000798586
0.000789114
0.000903239
0.00135802
0.000845875
0.000679836
0.000685212
0.000693207
0.000698077
0.000693197
0.000685191
0.000679815
0.000845792
0.00152789
0.00078766
0.000576275
0.000569019
0.00057432
0.000578608
0.00057431
0.000568995
0.000576242
0.000787571
0.00137197
0.000716154
0.000485544
0.000462158
0.000464037
0.000467192
0.000464028
0.000462135
0.000485502
0.000716061
0.00110055
0.000628575
0.000419815
0.000392434
0.000393239
0.000395146
0.000393236
0.000392421
0.00041978
0.000628494
0.00083591
0.000535713
0.000405474
0.000395995
0.000399895
0.000401022
0.000399902
0.000396003
0.000405467
0.000535662
3.70521e-05
0.000177637
0.000255052
0.000287676
0.000305628
0.000311212
0.000305632
0.000287688
0.000255092
0.000177683
3.67519e-05
0.000517345
0.000654061
0.000723896
0.000764407
0.000775907
0.000764409
0.000723911
0.000654126
0.000517441
0.000196375
0.000982079
0.0010273
0.00107262
0.00111102
0.00112213
0.00111103
0.00107262
0.00102733
0.000982133
0.000563422
0.00112859
0.00109852
0.00112178
0.00115375
0.00116354
0.00115375
0.00112179
0.00109852
0.00112859
0.00096713
0.00111281
0.00105757
0.00106861
0.00109351
0.00110167
0.00109352
0.00106863
0.00105757
0.00111278
0.0012232
0.00101746
0.000967544
0.000972435
0.000990714
0.000997316
0.000990732
0.000972464
0.000967538
0.00101743
0.00121253
0.000886041
0.000854146
0.000855552
0.00086845
0.000873584
0.000868475
0.000855588
0.000854146
0.00088602
0.000987415
0.000742811
0.000729646
0.000728443
0.00073681
0.000740375
0.000736837
0.000728482
0.000729649
0.000742796
0.000725417
0.00059823
0.000597955
0.000596933
0.000602161
0.000604282
0.000602188
0.000596969
0.000597961
0.000598218
0.00050586
0.000464238
0.000472245
0.000473525
0.000477011
0.00047809
0.000477031
0.000473552
0.000472251
0.000464233
3.02659e-05
0.00019334
0.000244735
0.000259666
0.000268944
0.000270533
0.000268946
0.000259674
0.000244759
0.000193401
0.000145406
0.000494371
0.000569936
0.000590918
0.000602382
0.00060426
0.000602374
0.000590915
0.000569969
0.000494469
0.000589953
0.000848071
0.000862364
0.000885647
0.000897871
0.000901677
0.000897859
0.000885632
0.00086238
0.000848101
0.00101261
0.000957006
0.000881429
0.000899298
0.000913039
0.000917832
0.000913027
0.000899279
0.000881424
0.000956963
0.00136704
0.000961371
0.000802463
0.00081227
0.000825753
0.00083077
0.000825743
0.000812249
0.000802441
0.000961277
0.00159458
0.000902324
0.000688869
0.000688762
0.000700067
0.000704898
0.000700058
0.000688741
0.000688836
0.000902207
0.00160938
0.000812164
0.000573519
0.000560668
0.00056847
0.000572756
0.000568462
0.000560646
0.000573476
0.000812049
0.00141877
0.000714896
0.00047533
0.000448331
0.000452593
0.000456019
0.000452586
0.00044831
0.000475283
0.000714792
0.00112594
0.00061262
0.000409833
0.000380462
0.000382923
0.000385303
0.000382921
0.00038045
0.000409796
0.000612537
0.000840846
0.000520298
0.00039933
0.000388369
0.00039274
0.000394311
0.000392748
0.000388376
0.000399321
0.00052025
0.000150268
0.000238067
0.000272242
0.000297846
0.000316694
0.000322359
0.000316695
0.000297855
0.000272269
0.000238115
0.000429726
0.000607274
0.000678109
0.000731088
0.000767672
0.000779158
0.000767667
0.000731095
0.000678152
0.00060736
0.000865512
0.00098599
0.00102513
0.00106773
0.00110035
0.0011112
0.00110034
0.00106774
0.00102515
0.00098603
0.00110096
0.00110603
0.0011
0.00112961
0.00115746
0.00116687
0.00115746
0.00112962
0.0011
0.00110602
0.00125272
0.00111944
0.00107015
0.00108773
0.00111115
0.00111896
0.00111116
0.00108775
0.00107014
0.0011194
0.00129961
0.00104599
0.0009822
0.000990841
0.00100967
0.00101589
0.00100968
0.000990871
0.000982192
0.00104594
0.00120086
0.000909272
0.000859109
0.000863446
0.000877696
0.000882489
0.000877721
0.000863483
0.000859106
0.000909231
0.000962681
0.00074605
0.000725862
0.000728262
0.0007379
0.000741207
0.000737928
0.000728302
0.000725865
0.000746024
0.00068281
0.000587361
0.000593151
0.000595302
0.00060105
0.000602974
0.000601077
0.000595339
0.000593158
0.000587348
0.000462642
0.000452105
0.000469663
0.000472543
0.000475417
0.000476256
0.000475436
0.000472569
0.00046967
0.000452102
8.32292e-05
0.00021783
0.000255542
0.000262415
0.000267703
0.000267601
0.000267698
0.000262415
0.000255555
0.000217885
0.000250429
0.00049277
0.000578167
0.000592471
0.000602007
0.000602942
0.00060199
0.00059246
0.000578187
0.000492862
0.000702146
0.000778625
0.000843303
0.000867479
0.000878373
0.000882111
0.000878357
0.000867464
0.00084332
0.000778667
0.0010105
0.000859247
0.000853891
0.000877634
0.000888534
0.000893225
0.000888519
0.000877615
0.000853896
0.000859228
0.00125438
0.000892154
0.000788271
0.000802202
0.000812472
0.000817065
0.00081246
0.000802181
0.000788257
0.000892082
0.00142719
0.000888604
0.00069176
0.000692144
0.00070094
0.000705147
0.00070093
0.000692121
0.000691728
0.000888497
0.00148454
0.000835906
0.000582632
0.000566383
0.000572725
0.000576292
0.000572718
0.00056636
0.000582587
0.000835787
0.0013794
0.000739863
0.00047846
0.000448428
0.000451898
0.000454639
0.000451891
0.000448406
0.000478412
0.000739753
0.00113103
0.000622262
0.00040614
0.000375245
0.000377415
0.000379284
0.000377413
0.000375233
0.000406104
0.000622177
0.00084113
0.000517636
0.000394361
0.000382957
0.000387404
0.000388737
0.000387411
0.000382963
0.000394354
0.00051759
0.000266668
0.000251188
0.0002742
0.000295287
0.000311509
0.000316759
0.000311507
0.000295288
0.000274217
0.000251221
0.000679218
0.000624956
0.00067829
0.000725953
0.000762533
0.000774514
0.000762527
0.000725953
0.000678318
0.000625012
0.00105973
0.000990531
0.00102921
0.00107128
0.00110531
0.00111713
0.0011053
0.00107128
0.00102922
0.00099055
0.00118694
0.00108612
0.00109839
0.00113301
0.00116172
0.00117211
0.00116172
0.00113303
0.00109839
0.0010861
0.00120972
0.00107516
0.00106192
0.00108818
0.00111144
0.00111993
0.00111145
0.0010882
0.00106192
0.00107512
0.00115501
0.00100016
0.000971623
0.000989927
0.00100836
0.00101495
0.00100838
0.000989958
0.00097162
0.00100012
0.00102146
0.000880611
0.000852547
0.000864289
0.000878476
0.000883372
0.0008785
0.000864327
0.000852547
0.000880571
0.000819356
0.000734787
0.000722652
0.00072974
0.000739697
0.000743036
0.000739724
0.000729781
0.000722656
0.00073476
0.00059946
0.000583717
0.000591553
0.000596418
0.000602327
0.000604269
0.000602354
0.000596456
0.000591561
0.000583703
0.000420294
0.000449975
0.000469385
0.000473469
0.000475901
0.000476743
0.000475921
0.000473496
0.000469393
0.000449972
8.89115e-05
0.000236147
0.000274432
0.000278499
0.000281797
0.000281373
0.00028179
0.000278493
0.000274435
0.000236183
0.000132683
0.000499333
0.000594446
0.000603104
0.000608629
0.000608191
0.000608612
0.000603086
0.000594455
0.000499404
0.000425619
0.000736729
0.000833898
0.000859191
0.000868825
0.000871538
0.00086881
0.000859177
0.00083392
0.00073678
0.000687363
0.000798058
0.000840972
0.000867924
0.00087924
0.000883634
0.000879228
0.000867907
0.000840986
0.000798063
0.000957318
0.000840315
0.000781606
0.000799366
0.000810063
0.000814917
0.000810052
0.000799346
0.000781599
0.000840263
0.00118941
0.000859739
0.000694307
0.000695656
0.000703899
0.000708306
0.00070389
0.000695633
0.000694278
0.000859645
0.00132721
0.00082894
0.000586661
0.000570114
0.000575263
0.000578875
0.000575255
0.00057009
0.000586616
0.000828825
0.00130698
0.000742289
0.000477883
0.000447626
0.000450035
0.000452727
0.000450028
0.000447604
0.000477834
0.000742178
0.00110931
0.000621556
0.000400047
0.000369983
0.000371807
0.000373636
0.000371805
0.00036997
0.000400011
0.00062147
0.000831004
0.000511545
0.000387265
0.000377362
0.000382108
0.000383447
0.000382115
0.000377368
0.000387259
0.0005115
0.000319417
0.00023453
0.000256791
0.000276101
0.000291413
0.000296673
0.000291411
0.000276099
0.000256807
0.000234561
0.000897055
0.000621229
0.00066321
0.000704801
0.000740025
0.00075196
0.000740019
0.000704796
0.00066324
0.000621288
0.00131261
0.000988125
0.00101477
0.0010547
0.00108881
0.00110088
0.0010888
0.0010547
0.00101479
0.000988151
0.00136
0.00104023
0.00106765
0.00110767
0.00113703
0.0011479
0.00113703
0.00110768
0.00106766
0.00104023
0.00123722
0.000989273
0.00101964
0.00105704
0.00108156
0.00109072
0.00108157
0.00105706
0.00101966
0.000989263
0.00104227
0.000906199
0.000936439
0.00096656
0.00098645
0.000993707
0.000986467
0.000966594
0.000936449
0.000906184
0.000829358
0.000810049
0.000834534
0.000855105
0.0008704
0.000875791
0.000870424
0.000855144
0.000834541
0.00081003
0.000642627
0.000700243
0.000717386
0.00072972
0.000740347
0.000743979
0.000740374
0.000729761
0.000717393
0.000700225
0.000499736
0.000576113
0.00059219
0.000599509
0.00060568
0.000607737
0.000605707
0.000599547
0.000592199
0.000576099
0.000381542
0.000451663
0.000472259
0.000477222
0.000479502
0.000480309
0.000479522
0.00047725
0.000472268
0.000451659
0.000106668
0.000247158
0.000292118
0.000299977
0.000305717
0.000306699
0.00030571
0.000299974
0.000292122
0.000247191
0.000106753
0.000509358
0.000620699
0.000631978
0.000636254
0.000635973
0.000636235
0.000631962
0.000620706
0.000509428
0.000189986
0.000739595
0.000863547
0.000888455
0.000899197
0.000901318
0.000899183
0.000888442
0.000863565
0.000739659
0.000353518
0.000813745
0.000871523
0.000897169
0.000910261
0.000914264
0.000910251
0.000897156
0.000871536
0.000813756
0.000689069
0.000851945
0.00080578
0.000822817
0.000834395
0.000839305
0.000834388
0.000822801
0.000805776
0.000851893
0.00103109
0.000852228
0.000700829
0.000704599
0.000712817
0.000717605
0.00071281
0.00070458
0.000700805
0.000852131
0.00125264
0.000805053
0.00058032
0.000568144
0.000572854
0.000576928
0.000572847
0.000568121
0.000580282
0.00080494
0.00126174
0.000714763
0.000468524
0.000442792
0.000444878
0.000447972
0.00044487
0.000442769
0.00046848
0.000714657
0.00107245
0.000601811
0.000392758
0.000366199
0.000368064
0.00037017
0.000368061
0.000366185
0.000392725
0.00060173
0.00081313
0.000502627
0.000382341
0.00037453
0.000379601
0.00038109
0.000379608
0.000374536
0.000382335
0.000502584
0.000156823
0.000118697
0.000157042
0.000186085
0.000202199
0.000207162
0.000202196
0.000186084
0.000157063
0.000118741
0.000879104
0.000468115
0.000499976
0.000542978
0.000581152
0.000593594
0.000581146
0.000542971
0.000500004
0.000468186
0.00136802
0.000861795
0.000892534
0.000935452
0.000968147
0.000979461
0.000968146
0.000935456
0.000892561
0.000861858
0.00152171
0.000923244
0.00097791
0.00102432
0.0010535
0.00106342
0.0010535
0.00102434
0.000977938
0.000923303
0.0013332
0.000903268
0.000969282
0.00101111
0.00103709
0.00104571
0.0010371
0.00101114
0.000969305
0.000903309
0.00102023
0.000852871
0.000918059
0.000950764
0.000972383
0.000979559
0.0009724
0.000950798
0.000918075
0.000852893
0.000732855
0.000785606
0.000833651
0.000855131
0.000871127
0.000876589
0.000871151
0.00085517
0.00083366
0.000785605
0.000552169
0.000695804
0.000721522
0.000733916
0.000744459
0.000748126
0.000744486
0.000733957
0.000721529
0.000695788
0.000453382
0.000579668
0.000596232
0.000603588
0.000609589
0.000611605
0.000609616
0.000603626
0.000596241
0.000579651
0.000366255
0.000455379
0.000476079
0.000481042
0.000483367
0.000484084
0.000483387
0.000481071
0.000476088
0.000455373
0.000625354
0.000480585
0.000460877
0.000478572
0.000487669
0.000488853
0.000487685
0.000478596
0.000460901
0.000480574
0.000517273
0.000504892
0.000566704
0.000602731
0.00061607
0.000617853
0.000616087
0.000602759
0.000566747
0.000504914
0.000525878
0.000596523
0.000695649
0.000741554
0.000757866
0.000760467
0.000757877
0.000741577
0.0006957
0.00059656
0.000623579
0.000726732
0.000829291
0.0008776
0.000894719
0.000897985
0.000894723
0.000877613
0.000829342
0.000726772
0.000753082
0.000844515
0.000928492
0.00097177
0.000986691
0.000990021
0.000986687
0.000971773
0.000928533
0.000844547
0.000841312
0.000894493
0.000949073
0.000983062
0.000994
0.000996965
0.00099399
0.000983053
0.000949095
0.000894511
0.000836243
0.000843525
0.000867321
0.000890097
0.00089605
0.000898286
0.000896037
0.000890079
0.000867319
0.000843529
0.000692787
0.000659562
0.000651424
0.000662311
0.00066287
0.000663653
0.000662854
0.000662287
0.000651402
0.000659557
0.000129254
0.000115194
0.000109176
0.000112205
0.00011241
0.000112487
0.000112407
0.000112201
0.000109172
0.000115193
6.215e-05
5.95727e-05
5.84646e-05
6.01099e-05
6.06957e-05
6.08372e-05
6.06952e-05
6.011e-05
5.84653e-05
5.95739e-05
0.000384832
0.000382254
0.000394229
0.000399028
0.000402155
0.000403138
0.00040216
0.000399036
0.000394233
0.000382262
0.000391269
0.000401039
0.000413549
0.000423719
0.000428599
0.000430822
0.000428588
0.000423711
0.000413551
0.000401063
0.000489812
0.000501467
0.000516436
0.000533621
0.000541579
0.000545661
0.000541563
0.000533607
0.000516439
0.000501503
0.000630477
0.000639303
0.000655794
0.00067779
0.000688223
0.00069411
0.00068821
0.000677779
0.000655796
0.000639342
0.000767066
0.000766254
0.000783492
0.000808065
0.000820431
0.000827854
0.000820425
0.000808061
0.000783491
0.000766289
0.00086019
0.000852764
0.000872578
0.000899595
0.000914917
0.000923785
0.000914918
0.0008996
0.000872576
0.000852792
0.00088423
0.000874879
0.000900815
0.000931629
0.000950462
0.000960099
0.000950472
0.000931643
0.000900817
0.000874901
0.000766327
0.000762217
0.000797128
0.000829941
0.000851258
0.000860273
0.000851275
0.000829968
0.000797138
0.000762234
0.000120199
0.000113772
0.000131827
0.000143609
0.000151089
0.00015488
0.000151102
0.000143626
0.000131829
0.000113774
3.35384e-05
3.21761e-05
3.54964e-05
3.81992e-05
3.98521e-05
4.05954e-05
3.98549e-05
3.82027e-05
3.54979e-05
3.2177e-05
0.000625889
0.000478322
0.000460969
0.000477731
0.000486318
0.000487669
0.000486334
0.000477754
0.000460993
0.000478315
0.00052711
0.000517226
0.00057285
0.000608352
0.000620453
0.000622076
0.000620471
0.00060838
0.000572892
0.000517249
0.00054358
0.000612089
0.000699851
0.000744029
0.000758431
0.000760638
0.000758446
0.000744053
0.0006999
0.000612124
0.000627603
0.000722775
0.000813712
0.000858804
0.000874245
0.000876983
0.000874253
0.000858819
0.00081376
0.000722809
0.000724154
0.000810377
0.000887318
0.00092773
0.000942689
0.000945539
0.000942686
0.000927731
0.000887359
0.000810403
0.000803033
0.000861562
0.000917284
0.000949675
0.000962152
0.000963808
0.000962134
0.000949659
0.000917314
0.000861578
0.000832818
0.000857434
0.000889888
0.00091291
0.000923
0.000923871
0.000922972
0.000912884
0.000889899
0.00085744
0.000747632
0.00072892
0.000736654
0.000745312
0.000750379
0.000750819
0.000750346
0.000745278
0.000736639
0.000728913
0.000105045
9.79733e-05
0.000105841
0.000107633
0.000110135
0.000110997
0.000110131
0.000107631
0.000105835
9.79707e-05
2.13914e-05
1.97515e-05
2.22168e-05
2.33312e-05
2.42232e-05
2.46349e-05
2.42235e-05
2.33318e-05
2.22157e-05
1.97509e-05
0.000360547
0.000376169
0.000393147
0.000397878
0.000399607
0.000400305
0.000399611
0.000397886
0.000393151
0.000376179
0.000385171
0.000396365
0.000408919
0.000418267
0.000421781
0.000423742
0.00042177
0.000418258
0.00040892
0.00039639
0.000480855
0.000485382
0.000495817
0.000510819
0.000517711
0.000521407
0.000517693
0.000510804
0.000495817
0.000485416
0.000600617
0.000599888
0.000608926
0.000627429
0.000637207
0.00064221
0.000637189
0.000627415
0.000608926
0.000599926
0.000724794
0.000720976
0.000729602
0.000750198
0.000762108
0.000767743
0.000762091
0.000750186
0.000729603
0.000721012
0.000848569
0.000846149
0.000854486
0.00087726
0.00089147
0.000897432
0.000891455
0.000877249
0.000854491
0.000846182
0.000948365
0.000953566
0.000965469
0.000992478
0.00100998
0.00101636
0.00100997
0.000992471
0.000965482
0.000953594
0.000883362
0.000892245
0.000921405
0.000953324
0.000975536
0.000982107
0.000975537
0.000953334
0.000921429
0.000892264
0.000135208
0.000138606
0.000153218
0.00016257
0.000172061
0.000174369
0.000172065
0.000162581
0.000153229
0.000138612
2.25601e-05
2.28395e-05
2.61409e-05
2.80358e-05
2.98989e-05
3.04434e-05
2.99003e-05
2.80387e-05
2.61428e-05
2.28403e-05
0.000622931
0.000475187
0.000458945
0.000475274
0.000483906
0.000485259
0.000483921
0.000475296
0.000458968
0.000475182
0.000529001
0.000515976
0.000570633
0.000605123
0.000616832
0.0006185
0.00061685
0.000605151
0.000570674
0.000516
0.000545164
0.000609041
0.0006941
0.000736442
0.000749802
0.000751916
0.000749817
0.000736466
0.000694147
0.000609076
0.000634843
0.000727425
0.000814969
0.0008581
0.000872006
0.000874554
0.000872014
0.000858113
0.000815014
0.000727458
0.000761435
0.000851056
0.000925461
0.000966204
0.000980031
0.00098273
0.000980026
0.000966202
0.000925501
0.000851081
0.000884057
0.000959887
0.00101041
0.00104686
0.00105979
0.00106242
0.00105977
0.00104684
0.00101044
0.000959902
0.00095001
0.000995424
0.00102265
0.0010534
0.00106454
0.00106681
0.00106452
0.00105336
0.00102267
0.000995429
0.000823003
0.000828988
0.000843411
0.000862456
0.000871102
0.000872959
0.000871075
0.000862422
0.000843411
0.000828982
0.000125032
0.000124644
0.000128117
0.000130949
0.000133502
0.000133822
0.000133496
0.000130943
0.000128115
0.000124642
1.92538e-05
1.86148e-05
1.98477e-05
2.03344e-05
2.09727e-05
2.11335e-05
2.09722e-05
2.03344e-05
1.98475e-05
1.86146e-05
0.000340972
0.000373807
0.000392904
0.000397438
0.000398204
0.000398874
0.000398209
0.000397447
0.000392908
0.000373818
0.00037662
0.000392384
0.000406764
0.000415167
0.000417804
0.000419751
0.000417793
0.000415159
0.000406765
0.000392409
0.000479543
0.000484531
0.00049637
0.00051039
0.000516812
0.00052047
0.000516794
0.000510376
0.000496371
0.000484566
0.000611739
0.000614069
0.000622095
0.000640164
0.000649837
0.000654694
0.000649817
0.000640147
0.000622097
0.000614109
0.000753713
0.000755379
0.000759357
0.000781704
0.000794073
0.000799601
0.000794055
0.000781689
0.000759359
0.000755419
0.000889385
0.000893378
0.000896594
0.000924436
0.000939561
0.000945806
0.000939547
0.000924423
0.000896599
0.000893415
0.000976186
0.00098479
0.000998374
0.00103286
0.00105231
0.00105982
0.0010523
0.00103285
0.000998386
0.000984819
0.000874366
0.00088976
0.000922825
0.000961708
0.000986607
0.000994646
0.000986616
0.000961722
0.000922849
0.000889779
0.000138468
0.000146016
0.000157408
0.000170901
0.000180535
0.000182794
0.000180539
0.000170908
0.00015742
0.000146021
2.31958e-05
2.43921e-05
2.66966e-05
2.88288e-05
3.0569e-05
3.09533e-05
3.057e-05
2.88307e-05
2.66989e-05
2.43929e-05
0.000618853
0.0004713
0.000455647
0.000472675
0.000481852
0.00048325
0.000481867
0.000472697
0.000455671
0.000471298
0.000533889
0.000517863
0.000571207
0.00060475
0.000616852
0.000618506
0.000616868
0.000604776
0.000571247
0.000517887
0.000557288
0.000617861
0.000698697
0.000738453
0.00075162
0.000753565
0.000751634
0.000738474
0.000698741
0.000617896
0.00065879
0.000748096
0.000831193
0.000872851
0.000886144
0.00088853
0.000886151
0.000872862
0.000831236
0.000748129
0.000804252
0.000897184
0.000971092
0.00101183
0.00102481
0.001028
0.00102481
0.00101183
0.000971129
0.000897208
0.000954174
0.00103137
0.00108934
0.00112768
0.00114035
0.00114462
0.00114034
0.00112767
0.00108937
0.00103138
0.00101821
0.00106592
0.00110821
0.00114142
0.00115351
0.00115826
0.00115349
0.00114139
0.00110823
0.00106592
0.000851704
0.000864553
0.000887686
0.000909273
0.000918457
0.000921876
0.000918436
0.000909243
0.000887683
0.000864544
0.000130321
0.000131347
0.000134717
0.000138849
0.000140841
0.000141333
0.000140836
0.000138841
0.000134714
0.000131344
1.87486e-05
1.84024e-05
1.90286e-05
1.96911e-05
2.01668e-05
2.02572e-05
2.01661e-05
1.96902e-05
1.9028e-05
1.84021e-05
0.000323245
0.000375579
0.000396261
0.000399877
0.000399911
0.000400381
0.000399916
0.000399886
0.000396266
0.00037559
0.000369359
0.000395712
0.000410837
0.00041655
0.000418055
0.000419768
0.000418044
0.000416542
0.000410836
0.000395737
0.000488965
0.000499721
0.000513321
0.000525473
0.000531138
0.000534765
0.000531119
0.000525458
0.00051332
0.000499757
0.000649187
0.000657872
0.000670769
0.00069014
0.000700001
0.000705116
0.000699982
0.000690124
0.000670773
0.000657913
0.000815647
0.000824638
0.000834636
0.000859783
0.000873275
0.000879534
0.00087326
0.00085977
0.000834644
0.000824679
0.000943382
0.000951341
0.000959507
0.000990063
0.00100715
0.00101452
0.00100714
0.000990056
0.000959517
0.000951378
0.000981394
0.000990537
0.0010056
0.00104154
0.001063
0.00107138
0.001063
0.00104154
0.00100561
0.000990568
0.000841281
0.000857459
0.000885378
0.000923898
0.000948875
0.000957148
0.000948885
0.000923915
0.000885402
0.00085748
0.000140285
0.00014949
0.000159297
0.00017354
0.000183207
0.000185722
0.000183211
0.000173547
0.000159309
0.000149495
2.51156e-05
2.69175e-05
2.90664e-05
3.16093e-05
3.34688e-05
3.3934e-05
3.34697e-05
3.16108e-05
2.90686e-05
2.69182e-05
0.000617266
0.000469212
0.000453527
0.000471617
0.000481334
0.000482833
0.000481348
0.000471639
0.000453551
0.00046921
0.00054411
0.000523146
0.000576753
0.000611043
0.00062401
0.000625798
0.000624025
0.000611069
0.000576793
0.000523171
0.00057895
0.000635822
0.000716863
0.000757405
0.000771488
0.000773527
0.0007715
0.000757424
0.00071691
0.000635858
0.000684298
0.000770987
0.000852585
0.000894871
0.000908641
0.000911081
0.000908647
0.000894881
0.00085263
0.000771021
0.00081274
0.000896912
0.000970212
0.00101104
0.00102384
0.00102724
0.00102384
0.00101104
0.000970248
0.000896936
0.000933527
0.00099989
0.00106359
0.00110127
0.00111298
0.00111769
0.00111297
0.00110126
0.00106362
0.000999903
0.00100011
0.0010419
0.00109434
0.00112485
0.00113448
0.00113959
0.00113447
0.00112484
0.00109435
0.0010419
0.000865071
0.000878818
0.000906406
0.000922609
0.000927257
0.000930196
0.000927234
0.00092258
0.000906395
0.000878807
0.000123556
0.000122916
0.000126493
0.000129483
0.000129937
0.000130396
0.000129931
0.000129476
0.000126486
0.000122915
1.6382e-05
1.59583e-05
1.6422e-05
1.73144e-05
1.77301e-05
1.78511e-05
1.77292e-05
1.73135e-05
1.6421e-05
1.59583e-05
0.00031203
0.000377656
0.000400317
0.000403469
0.000403589
0.000403918
0.000403595
0.000403478
0.000400321
0.000377666
0.000359988
0.000399996
0.000416076
0.000420205
0.000421312
0.000422792
0.000421302
0.000420196
0.000416073
0.000400022
0.000483251
0.000505099
0.000519764
0.000530655
0.000535814
0.000539367
0.000535798
0.00053064
0.000519761
0.000505136
0.000652493
0.000668908
0.000688893
0.00070911
0.000719527
0.000725383
0.000719513
0.000709098
0.000688894
0.000668949
0.000846628
0.000868867
0.000894663
0.000921914
0.000937048
0.000944837
0.000937038
0.000921907
0.000894672
0.000868908
0.0010293
0.00105801
0.00108309
0.00111254
0.00113082
0.00113931
0.00113082
0.00111253
0.00108311
0.00105804
0.00112368
0.00115183
0.00116988
0.00119873
0.00121892
0.00122678
0.00121892
0.00119874
0.00116991
0.00115186
0.00101829
0.00103502
0.00104521
0.00107559
0.00109783
0.0011051
0.00109784
0.0010756
0.00104524
0.00103503
0.000296902
0.000309821
0.000312465
0.000323869
0.00033427
0.000337598
0.000334275
0.000323876
0.000312484
0.000309822
8.73149e-05
9.37203e-05
9.90007e-05
0.000102509
0.000105548
0.000106586
0.00010555
0.000102512
9.90056e-05
9.37213e-05
)
;

boundaryField
{
    leftWall
    {
        type            kqRWallFunction;
        value           nonuniform List<scalar> 
100
(
8.04701e-06
3.70521e-05
3.02659e-05
0.000150268
8.32292e-05
0.000266668
8.89115e-05
0.000319417
0.000106668
0.000156823
6.02012e-05
0.000177637
0.00019334
0.000238067
0.00021783
0.000251188
0.000236147
0.00023453
0.000247158
0.000118697
0.000131435
0.000255052
0.000244735
0.000272242
0.000255542
0.0002742
0.000274432
0.000256791
0.000292118
0.000157042
0.00016898
0.000287676
0.000259666
0.000297846
0.000262415
0.000295287
0.000278499
0.000276101
0.000299977
0.000186085
0.000174887
0.000305628
0.000268944
0.000316694
0.000267703
0.000311509
0.000281797
0.000291413
0.000305717
0.000202199
0.000176916
0.000311212
0.000270533
0.000322359
0.000267601
0.000316759
0.000281373
0.000296673
0.000306699
0.000207162
0.000174883
0.000305632
0.000268946
0.000316695
0.000267698
0.000311507
0.00028179
0.000291411
0.00030571
0.000202196
0.000168983
0.000287688
0.000259674
0.000297855
0.000262415
0.000295288
0.000278493
0.000276099
0.000299974
0.000186084
0.000131456
0.000255092
0.000244759
0.000272269
0.000255555
0.000274217
0.000274435
0.000256807
0.000292122
0.000157063
6.02406e-05
0.000177683
0.000193401
0.000238115
0.000217885
0.000251221
0.000236183
0.000234561
0.000247191
0.000118741
)
;
    }
    rightWall
    {
        type            kqRWallFunction;
        value           nonuniform List<scalar> 
100
(
6.215e-05
3.35384e-05
2.13914e-05
2.25601e-05
1.92538e-05
2.31958e-05
1.87486e-05
2.51156e-05
1.6382e-05
8.73149e-05
5.95727e-05
3.21761e-05
1.97515e-05
2.28395e-05
1.86148e-05
2.43921e-05
1.84024e-05
2.69175e-05
1.59583e-05
9.37203e-05
5.84646e-05
3.54964e-05
2.22168e-05
2.61409e-05
1.98477e-05
2.66966e-05
1.90286e-05
2.90664e-05
1.6422e-05
9.90007e-05
6.01099e-05
3.81992e-05
2.33312e-05
2.80358e-05
2.03344e-05
2.88288e-05
1.96911e-05
3.16093e-05
1.73144e-05
0.000102509
6.06957e-05
3.98521e-05
2.42232e-05
2.98989e-05
2.09727e-05
3.0569e-05
2.01668e-05
3.34688e-05
1.77301e-05
0.000105548
6.08372e-05
4.05954e-05
2.46349e-05
3.04434e-05
2.11335e-05
3.09533e-05
2.02572e-05
3.3934e-05
1.78511e-05
0.000106586
6.06952e-05
3.98549e-05
2.42235e-05
2.99003e-05
2.09722e-05
3.057e-05
2.01661e-05
3.34697e-05
1.77292e-05
0.00010555
6.011e-05
3.82027e-05
2.33318e-05
2.80387e-05
2.03344e-05
2.88307e-05
1.96902e-05
3.16108e-05
1.73135e-05
0.000102512
5.84653e-05
3.54979e-05
2.22157e-05
2.61428e-05
1.98475e-05
2.66989e-05
1.9028e-05
2.90686e-05
1.6421e-05
9.90056e-05
5.95739e-05
3.2177e-05
1.97509e-05
2.28403e-05
1.86146e-05
2.43929e-05
1.84021e-05
2.69182e-05
1.59583e-05
9.37213e-05
)
;
    }
    leftSides_periodic0
    {
        type            cyclic;
    }
    leftSides_periodic1
    {
        type            cyclic;
    }
    rightSides_periodic0
    {
        type            cyclic;
    }
    rightSides_periodic1
    {
        type            cyclic;
    }
    leftInOut_periodic0
    {
        type            cyclic;
    }
    leftInOut_periodic1
    {
        type            cyclic;
    }
    rightInOut_periodic0
    {
        type            cyclic;
    }
    rightInOut_periodic1
    {
        type            cyclic;
    }
}


// ************************************************************************* //
