/*--------------------------------*- C++ -*----------------------------------*\
| =========                 |                                                 |
| \\      /  F ield         | OpenFOAM: The Open Source CFD Toolbox           |
|  \\    /   O peration     | Version:  v1912                                 |
|   \\  /    A nd           | Website:  www.openfoam.com                      |
|    \\/     M anipulation  |                                                 |
\*---------------------------------------------------------------------------*/
FoamFile
{
    version     2.0;
    format      ascii;
    class       volVectorField;
    location    "96.8";
    object      U;
}
// * * * * * * * * * * * * * * * * * * * * * * * * * * * * * * * * * * * * * //

dimensions      [0 1 -1 0 0 0 0];


internalField   nonuniform List<vector> 
2528
(
(0.000480947 -0.00372735 0.00559128)
(0.00713353 1.76713e-05 0.000873535)
(-0.000614997 -7.32023e-07 0.00486968)
(-0.00719275 1.08361e-05 -0.000112506)
(0.000543832 -0.00032835 0.0155869)
(0.00836079 0.000110451 0.0091808)
(-0.000940156 -6.27566e-05 0.0143104)
(-0.008534 9.52892e-05 0.00715503)
(0.000149043 -0.00211161 0.0242735)
(0.00199382 0.000151908 0.0215584)
(-0.000809359 -9.27502e-05 0.0233813)
(-0.0022704 0.000124308 0.0192853)
(-0.000164238 -0.00063574 0.0330445)
(-0.00338367 0.000291658 0.033971)
(-0.000762666 -0.000201804 0.032689)
(0.00301608 0.000255276 0.0315169)
(-0.000300842 -0.000938734 0.0422817)
(-0.0058678 0.00038766 0.0452047)
(-0.000889421 -0.000290816 0.0422312)
(0.00541417 0.000342654 0.0423637)
(-0.00037133 -0.000967296 0.0516255)
(-0.00710257 0.000496838 0.05582)
(-0.00107822 -0.000392003 0.0517694)
(0.00656036 0.000442375 0.0524855)
(-0.00042568 -0.00111128 0.0609296)
(-0.00783647 0.000608361 0.0660879)
(-0.00127797 -0.000497029 0.0612236)
(0.00719171 0.000543315 0.0621977)
(-0.000487928 -0.00126623 0.0700784)
(-0.00842481 0.000720771 0.0760872)
(-0.00146312 -0.000603591 0.0705163)
(0.0076547 0.00064381 0.0716103)
(-0.000569997 -0.00142066 0.0789715)
(-0.00903791 0.000835162 0.0858055)
(-0.00161981 -0.000712391 0.0795643)
(0.0081206 0.000745108 0.0807408)
(-0.000676652 -0.00157543 0.0875255)
(-0.00974189 0.000951667 0.0951886)
(-0.00174151 -0.000823335 0.0882864)
(0.00866704 0.0008477 0.0895617)
(-0.000807564 -0.0017241 0.0956824)
(-0.0105385 0.0010695 0.104176)
(-0.00182746 -0.000936556 0.0966195)
(0.00931074 0.000951342 0.0980286)
(-0.000959046 -0.00187898 0.103416)
(-0.0113926 0.0011869 0.112725)
(-0.00188153 -0.00105305 0.10453)
(0.0100307 0.00105542 0.106103)
(-0.00112464 -0.00202786 0.110733)
(-0.0122511 0.00130551 0.120816)
(-0.00191111 -0.00117107 0.112017)
(0.0107849 0.00115941 0.113765)
(-0.00129717 -0.00214189 0.117666)
(-0.0130387 0.00142481 0.128438)
(-0.00192395 -0.00128782 0.119113)
(0.0115206 0.00126295 0.121006)
(-0.00147296 -0.00222296 0.12427)
(-0.0136782 0.00154117 0.135582)
(-0.00192417 -0.00140322 0.125873)
(0.0121858 0.00136622 0.127825)
(-0.00165238 -0.0022794 0.130592)
(-0.0141386 0.00165504 0.14228)
(-0.0019119 -0.00151845 0.132336)
(0.0127423 0.00146949 0.134228)
(-0.00183696 -0.00234128 0.136648)
(-0.0144413 0.00176758 0.148583)
(-0.00188649 -0.00163505 0.138522)
(0.0131731 0.00157395 0.140231)
(-0.00202668 -0.00240769 0.142453)
(-0.0146328 0.00188232 0.154539)
(-0.00184892 -0.00175176 0.144448)
(0.0134756 0.00168061 0.145858)
(-0.00222034 -0.00246138 0.148027)
(-0.0147435 0.00199969 0.160184)
(-0.00180093 -0.00186687 0.150133)
(0.0136518 0.00178739 0.151136)
(-0.00241692 -0.0025082 0.153385)
(-0.0147833 0.00211742 0.165542)
(-0.00174403 -0.00198033 0.155595)
(0.0137136 0.00189279 0.156099)
(-0.00261558 -0.00254686 0.158545)
(-0.0147552 0.00223663 0.170635)
(-0.00167945 -0.00209171 0.160848)
(0.0136869 0.00199814 0.160788)
(-0.00281574 -0.00257557 0.163519)
(-0.0146532 0.00235834 0.175478)
(-0.00160828 -0.00220057 0.165906)
(0.0135973 0.00210729 0.165235)
(-0.00301699 -0.00260097 0.168319)
(-0.014461 0.00248342 0.180082)
(-0.00153153 -0.00230642 0.170781)
(0.0134419 0.00222572 0.169447)
(-0.00321905 -0.00262874 0.172949)
(-0.0141604 0.00260581 0.184459)
(-0.00145008 -0.00240945 0.175481)
(0.0131748 0.00235399 0.173407)
(-0.00342166 -0.00265579 0.177409)
(-0.0137579 0.00271455 0.188639)
(-0.0013648 -0.00250922 0.180014)
(0.0127317 0.00248023 0.177097)
(-0.0036242 -0.00268013 0.181704)
(-0.0133149 0.00281004 0.192688)
(-0.00127632 -0.00260456 0.184387)
(0.0120974 0.00258255 0.180547)
(-0.00382584 -0.00269947 0.185852)
(-0.0129342 0.00290875 0.196677)
(-0.00118488 -0.00269497 0.18861)
(0.0113806 0.00265167 0.183878)
(-0.00402535 -0.00271922 0.189866)
(-0.0126901 0.00302716 0.200628)
(-0.00109075 -0.00278069 0.192695)
(0.0108184 0.00271276 0.187277)
(-0.00422009 -0.00274975 0.193764)
(-0.012577 0.00315977 0.204491)
(-0.000995007 -0.00286439 0.196645)
(0.0106332 0.00281253 0.190857)
(-0.00440608 -0.00278501 0.197563)
(-0.0125457 0.0032903 0.208224)
(-0.000899499 -0.00294705 0.200458)
(0.0108226 0.00298055 0.194523)
(-0.00458027 -0.00279462 0.201284)
(-0.0125604 0.0034145 0.211812)
(-0.000806146 -0.00302856 0.204133)
(0.0111171 0.00316592 0.19804)
(-0.00474374 -0.00276395 0.204949)
(-0.0125954 0.0035445 0.215235)
(-0.000716434 -0.00311082 0.207673)
(0.0112123 0.00331264 0.201224)
(-0.00490157 -0.00273338 0.208566)
(-0.0125791 0.00369964 0.218434)
(-0.000631534 -0.0031949 0.211091)
(0.0110165 0.00342624 0.204073)
(-0.00505878 -0.00275614 0.212105)
(-0.0123427 0.00389695 0.221289)
(-0.000553319 -0.00328032 0.214402)
(0.0106423 0.00351574 0.206698)
(-0.00521815 -0.00281656 0.21548)
(-0.0116168 0.00411036 0.223646)
(-0.000485573 -0.00336372 0.217635)
(0.0102325 0.0036019 0.209204)
(-0.00536979 -0.00285843 0.218671)
(-0.0101476 0.00425314 0.225423)
(-0.000432046 -0.00343842 0.220807)
(0.00979811 0.00382013 0.21159)
(-0.00550262 -0.0028564 0.221719)
(-0.00799616 0.00425245 0.226809)
(-0.000392092 -0.00350421 0.223923)
(0.00900528 0.00414074 0.213553)
(-0.00562069 -0.00284451 0.224655)
(-0.00595187 0.00407851 0.228485)
(-0.000357159 -0.00356846 0.226958)
(0.00719229 0.00432036 0.214631)
(-0.0057388 -0.00286782 0.227484)
(-0.00559732 0.00400977 0.231495)
(-0.000309324 -0.00361812 0.229841)
(0.00406879 0.00424315 0.214928)
(-0.00586989 -0.00292753 0.230207)
(-0.00773971 0.00437199 0.236043)
(-0.000237734 -0.00364332 0.232539)
(0.000759123 0.0038246 0.215689)
(-0.00601324 -0.00298751 0.232825)
(-0.0106971 0.00487261 0.240635)
(-0.000146899 -0.00365338 0.235077)
(0.000377983 0.00370986 0.219308)
(-0.00615261 -0.00302042 0.235343)
(-0.0124939 0.00512437 0.244058)
(-5.2393e-05 -0.00369226 0.237469)
(0.00405946 0.00429773 0.225822)
(-0.00627184 -0.00301805 0.237769)
(-0.0128329 0.00511905 0.246322)
(2.32039e-05 -0.00376988 0.239704)
(0.00809453 0.00486681 0.231707)
(-0.00636335 -0.0029912 0.240107)
(-0.0123843 0.00507168 0.247853)
(5.67189e-05 -0.00384893 0.241762)
(0.0100977 0.00507973 0.235619)
(-0.00642817 -0.0029569 0.242365)
(-0.0117647 0.00514579 0.249083)
(4.13293e-05 -0.00390721 0.243662)
(0.0102358 0.00499709 0.237876)
(-0.00647448 -0.00292199 0.244544)
(-0.0111023 0.00524779 0.250279)
(-8.34837e-06 -0.00393878 0.245428)
(0.00961349 0.00501566 0.239236)
(-0.00650854 -0.00289408 0.246645)
(-0.0104837 0.00526908 0.251523)
(-7.21573e-05 -0.00398256 0.247081)
(0.00890727 0.00514849 0.240345)
(-0.00653375 -0.00287048 0.248668)
(-0.0100747 0.00533552 0.252902)
(-0.000140125 -0.00404091 0.248616)
(0.00828884 0.00523116 0.241474)
(-0.00655339 -0.00283726 0.25061)
(-0.00992786 0.00543128 0.254426)
(-0.000209989 -0.00409508 0.249997)
(0.00799581 0.00532988 0.242761)
(-0.00656961 -0.00284748 0.252465)
(-0.00990441 0.00559505 0.255942)
(-0.000281118 -0.00416574 0.251251)
(0.00810044 0.00548463 0.244124)
(-0.00657895 -0.00290192 0.254226)
(-0.00962197 0.00590341 0.257104)
(-0.000355525 -0.00425183 0.252487)
(0.00835428 0.00560225 0.245402)
(-0.00656756 -0.00293267 0.255878)
(-0.00834716 0.00612676 0.25737)
(-0.000438946 -0.00432956 0.253692)
(0.00853981 0.00565718 0.246656)
(-0.00652047 -0.00290725 0.257426)
(-0.00541511 0.00602419 0.256582)
(-0.000538139 -0.00438512 0.254846)
(0.00868636 0.00570069 0.2479)
(-0.00643646 -0.00284247 0.258883)
(-0.00145481 0.00551658 0.255663)
(-0.000654388 -0.00441886 0.255949)
(0.00887743 0.00576931 0.249154)
(-0.00633014 -0.00282777 0.260248)
(-0.000260153 0.0051215 0.257365)
(-0.000779217 -0.00444254 0.257005)
(0.00910313 0.00584435 0.250425)
(-0.00622016 -0.00284563 0.261532)
(-0.00508866 0.00567492 0.263055)
(-0.000897874 -0.004474 0.258009)
(0.0093339 0.00590629 0.251697)
(-0.00611634 -0.00281944 0.262708)
(-0.0105663 0.00639171 0.268466)
(-0.00100155 -0.00452576 0.258955)
(0.00957096 0.00595986 0.252958)
(-0.00601904 -0.00277053 0.263734)
(-0.0130221 0.00648132 0.271727)
(-0.00109165 -0.00459527 0.259841)
(0.00981997 0.00600739 0.254209)
(-0.00592439 -0.00278401 0.264683)
(-0.0132082 0.00623196 0.273356)
(-0.00117452 -0.00466932 0.260662)
(0.0100829 0.00604804 0.255447)
(-0.00581547 -0.00294504 0.26582)
(-0.0127108 0.0061698 0.274181)
(-0.00125529 -0.00474027 0.261413)
(0.0103577 0.00608305 0.256668)
(-0.00566201 -0.00311753 0.267104)
(-0.0123203 0.00620614 0.274877)
(-0.00133511 -0.00480658 0.262092)
(0.0106334 0.00611157 0.257865)
(-0.0054451 -0.0030343 0.268519)
(-0.012061 0.00614531 0.275603)
(-0.00141322 -0.0048693 0.262697)
(0.0108937 0.00613256 0.259028)
(-0.00520406 -0.00273184 0.27022)
(-0.0120105 0.00602883 0.276516)
(-0.00148829 -0.00492967 0.263226)
(0.011127 0.00614654 0.260149)
(-0.00501545 -0.00269398 0.272404)
(-0.0122662 0.00598791 0.277916)
(-0.00155874 -0.00498923 0.263676)
(0.0113342 0.00615362 0.261226)
(-0.00490317 -0.00304074 0.274937)
(-0.0126699 0.00600775 0.279367)
(-0.00162388 -0.00504899 0.264045)
(0.0115239 0.00615306 0.262255)
(-0.00485802 -0.00329024 0.277184)
(-0.0129526 0.00599385 0.280553)
(-0.00168435 -0.00510879 0.264327)
(0.0116948 0.00614565 0.263227)
(-0.00482341 -0.00321326 0.279003)
(-0.0130917 0.0059567 0.281547)
(-0.00174154 -0.00516749 0.264518)
(0.0118187 0.00613246 0.264114)
(-0.00477311 -0.00302795 0.280517)
(-0.0131754 0.00594003 0.28246)
(-0.00179665 -0.00522236 0.26461)
(0.0118397 0.00611209 0.264875)
(-0.00469795 -0.00297595 0.281853)
(-0.0132098 0.00591192 0.28327)
(-0.00185059 -0.00527789 0.264597)
(0.0116912 0.00608077 0.265464)
(-0.00463114 -0.00297924 0.283026)
(-0.0131956 0.00587988 0.283973)
(-0.00190204 -0.00533913 0.264471)
(0.0113172 0.00603296 0.265852)
(-0.00458312 -0.00295082 0.284094)
(-0.0131355 0.00584239 0.28457)
(-0.00194786 -0.0054111 0.264219)
(0.0107006 0.00596228 0.266057)
(-0.00455148 -0.00291811 0.285028)
(-0.0130267 0.00579495 0.285057)
(-0.00198976 -0.00548689 0.263851)
(0.00990377 0.00586524 0.266164)
(-0.00453726 -0.00289175 0.285935)
(-0.012866 0.00573818 0.285432)
(-0.00205008 -0.00558172 0.263491)
(0.00909686 0.00574403 0.266329)
(-0.00454545 -0.00285386 0.286591)
(-0.0126506 0.00567139 0.285691)
(-0.00210623 -0.00564623 0.262933)
(0.00853381 0.00560542 0.266733)
(-0.00457577 -0.0028452 0.287032)
(-0.0123782 0.00559359 0.285832)
(-0.00214023 -0.00568497 0.262009)
(0.00846001 0.0054616 0.267508)
(-0.00462587 -0.00287425 0.287398)
(-0.0120447 0.00550279 0.285849)
(-0.00217444 -0.00572499 0.260907)
(0.00900109 0.00530848 0.268673)
(-0.00469179 -0.00292671 0.287914)
(-0.0116412 0.00539832 0.285732)
(-0.00221645 -0.00577682 0.259723)
(0.0100531 0.00517158 0.270047)
(-0.00476746 -0.00296592 0.28862)
(-0.0111618 0.00527243 0.285486)
(-0.00225553 -0.0058129 0.258349)
(0.0110907 0.0050603 0.271283)
(-0.00485982 -0.00290509 0.289379)
(-0.0106813 0.00510142 0.285174)
(-0.00227993 -0.0057965 0.256872)
(0.0115502 0.00485959 0.272209)
(0.000852193 3.0626e-05 0.0127133)
(-0.00031963 -2.64043e-05 0.0136113)
(-0.000810414 2.30366e-05 0.0105326)
(0.000325955 -3.61362e-05 0.0148823)
(0.0017223 8.57989e-05 0.0238654)
(-0.00152454 -9.45803e-05 0.026401)
(-0.00159735 7.38619e-05 0.0220688)
(0.00154254 -0.000107796 0.0296025)
(0.00163869 0.000146553 0.0286797)
(-0.00252585 -0.000159626 0.0315225)
(-0.00142979 0.000112633 0.0297219)
(0.00255544 -0.000189604 0.0369256)
(0.00138433 0.000244732 0.0352792)
(-0.00318332 -0.00026552 0.0377731)
(-0.00109194 0.000179239 0.0385772)
(0.00322356 -0.000304673 0.0457053)
(0.00132493 0.00031569 0.0443981)
(-0.00367125 -0.000346702 0.0465498)
(-0.00094922 0.000216259 0.0488211)
(0.00372063 -0.000391291 0.0570656)
(0.00136494 0.000391743 0.0541877)
(-0.00406482 -0.000435025 0.0560495)
(-0.000907477 0.000252944 0.0592433)
(0.00412179 -0.000482961 0.0690683)
(0.00146094 0.000467611 0.0638957)
(-0.00439845 -0.000525356 0.0655623)
(-0.000924351 0.000285357 0.0693869)
(0.00446177 -0.000573692 0.0808934)
(0.00159156 0.000542032 0.0731838)
(-0.00468874 -0.000616138 0.074767)
(-0.000978932 0.000312832 0.07905)
(0.00475706 -0.000666689 0.0921297)
(0.00174464 0.000617643 0.0818882)
(-0.00494441 -0.000707842 0.083495)
(-0.00105906 0.000336464 0.0881273)
(0.00501476 -0.000763811 0.102626)
(0.00191736 0.000696189 0.0899759)
(-0.00516991 -0.000802152 0.0916705)
(-0.00115766 0.000358559 0.0965645)
(0.00523063 -0.000860047 0.112434)
(0.00211052 0.000774324 0.0975391)
(-0.00536532 -0.0008972 0.0993243)
(-0.0012745 0.000379392 0.104377)
(0.0054005 -0.000954538 0.121692)
(0.00232215 0.000848999 0.104716)
(-0.0055269 -0.000989505 0.106553)
(-0.00140998 0.000395676 0.111649)
(0.0055324 -0.00104641 0.13042)
(0.00254882 0.000920424 0.111539)
(-0.00565546 -0.00107855 0.113412)
(-0.00156138 0.000406839 0.118472)
(0.00563506 -0.00113958 0.138499)
(0.00278084 0.000991934 0.117926)
(-0.00575837 -0.00116509 0.119849)
(-0.00172442 0.000414011 0.124864)
(0.00571213 -0.00123481 0.145872)
(0.00300692 0.00106465 0.123818)
(-0.00584121 -0.00125143 0.125764)
(-0.00189019 0.000419738 0.130797)
(0.00576649 -0.00132929 0.152557)
(0.00322078 0.00113668 0.129214)
(-0.00590653 -0.00133669 0.131121)
(-0.0020512 0.000424227 0.136282)
(0.00580073 -0.00142368 0.158593)
(0.00341909 0.00120769 0.13414)
(-0.00595667 -0.00141929 0.135937)
(-0.00220427 0.000425873 0.141353)
(0.00581738 -0.00151794 0.164034)
(0.00360012 0.00127784 0.138633)
(-0.00599353 -0.00149966 0.140253)
(-0.00234728 0.000425218 0.146046)
(0.00581884 -0.00161204 0.168939)
(0.00376331 0.00134725 0.142735)
(-0.00601857 -0.00157747 0.144129)
(-0.00247884 0.000422487 0.150397)
(0.00580733 -0.00170589 0.173377)
(0.0039091 0.00141627 0.146494)
(-0.00603298 -0.00165249 0.147633)
(-0.0025981 0.000418012 0.15444)
(0.00578486 -0.0017993 0.177417)
(0.00403879 0.00148529 0.149961)
(-0.00603792 -0.00172455 0.150837)
(-0.00270468 0.00041204 0.158206)
(0.00575322 -0.00189201 0.181127)
(0.00415434 0.00155429 0.153191)
(-0.00603455 -0.00179237 0.153804)
(-0.00279849 0.000404516 0.161725)
(0.00571412 -0.00198385 0.184573)
(0.00425792 0.0016228 0.15624)
(-0.00602416 -0.00185804 0.156584)
(-0.00287952 0.000394155 0.16502)
(0.00566913 -0.00207351 0.187813)
(0.00435143 0.00168989 0.159156)
(-0.00600827 -0.00192295 0.159226)
(-0.00294784 0.000384177 0.168112)
(0.00561977 -0.00216402 0.190895)
(0.00443617 0.00175738 0.161973)
(-0.00598715 -0.00198385 0.161787)
(-0.0030053 0.000378551 0.171025)
(0.00556739 -0.00225623 0.19387)
(0.00451356 0.00182811 0.164722)
(-0.00595999 -0.00204025 0.164317)
(-0.00305552 0.000373254 0.173809)
(0.00551221 -0.00234488 0.196793)
(0.00458528 0.00189844 0.167441)
(-0.00592802 -0.00209127 0.166833)
(-0.00310065 0.000366221 0.176523)
(0.00545392 -0.00243015 0.199709)
(0.004652 0.00196618 0.170167)
(-0.00589368 -0.00213874 0.169315)
(-0.00314047 0.000354605 0.179185)
(0.00539429 -0.00251194 0.202625)
(0.0047132 0.00203272 0.172905)
(-0.00585851 -0.00218578 0.171736)
(-0.00317147 0.000304236 0.181757)
(0.00533608 -0.00259295 0.205515)
(0.00476726 0.00209959 0.175631)
(-0.00582408 -0.00223083 0.174084)
(-0.00318849 0.000321195 0.184175)
(0.00528087 -0.00267658 0.208357)
(0.00481186 0.00217107 0.178317)
(-0.00579133 -0.00227334 0.176349)
(-0.00322044 0.000444236 0.186662)
(0.0052286 -0.00275936 0.211147)
(0.00484565 0.00224584 0.180956)
(-0.00575784 -0.00231412 0.178526)
(-0.00330902 0.000438896 0.189945)
(0.00517659 -0.00284102 0.213884)
(0.00486821 0.00232068 0.183545)
(-0.00571987 -0.0023541 0.180612)
(-0.00342613 0.00020087 0.194434)
(0.00512177 -0.00292437 0.216567)
(0.00487921 0.00239633 0.186089)
(-0.00567805 -0.00239358 0.182604)
(-0.00349606 6.52379e-05 0.198908)
(0.00506485 -0.0030096 0.219197)
(0.00487846 0.00247278 0.188587)
(-0.00563837 -0.00242985 0.184494)
(-0.0034792 0.00018809 0.201143)
(0.00501066 -0.00309516 0.221775)
(0.00486595 0.00255056 0.191039)
(-0.00560862 -0.00246493 0.186272)
(-0.00339072 0.000380668 0.201722)
(0.00496541 -0.00317919 0.2243)
(0.00484174 0.00263064 0.193446)
(-0.00559401 -0.00250424 0.187922)
(-0.00328207 0.000486149 0.202594)
(0.00493318 -0.00326069 0.226771)
(0.0048061 0.00271224 0.195809)
(-0.00559565 -0.00244395 0.189413)
(-0.00321018 0.000335231 0.204299)
(0.00491308 -0.00334138 0.229184)
(0.00476013 0.00279467 0.19813)
(-0.00561354 -0.00278272 0.190662)
(-0.00315909 0.000252036 0.206241)
(0.00490201 -0.0034226 0.231539)
(0.0047005 0.00287822 0.200404)
(-0.00560509 -0.00267226 0.192572)
(-0.00309588 0.00029055 0.208073)
(0.00490141 -0.0035016 0.233829)
(0.00462311 0.00296282 0.202621)
(-0.00549367 -0.00256646 0.19521)
(-0.00301528 0.000294982 0.209779)
(0.00491504 -0.00357594 0.23605)
(0.0045275 0.00304898 0.204768)
(-0.0053613 -0.00285007 0.198272)
(-0.00291758 0.000245309 0.211338)
(0.0049417 -0.00364572 0.238181)
(0.00440704 0.00313674 0.206835)
(-0.00515312 -0.00273947 0.203348)
(-0.0027954 0.000336268 0.212687)
(0.00496941 -0.00365849 0.240178)
(0.00425484 0.00322678 0.208818)
(-0.00452433 -0.00279484 0.212392)
(-0.00265324 0.000603689 0.214344)
(0.0049908 -0.0037543 0.241968)
(0.00406866 0.00331746 0.210714)
(-0.00357347 -0.00202409 0.2263)
(-0.00249397 0.000370027 0.217668)
(0.00497956 -0.00419445 0.243884)
(0.00386338 0.00340755 0.212524)
(-0.00376452 -0.0023637 0.228596)
(-0.00229079 0.000114226 0.221483)
(0.00482121 -0.00393936 0.247357)
(0.00365859 0.00349455 0.214239)
(-0.00449039 -0.00318869 0.223267)
(-0.00202539 0.000308197 0.223736)
(0.00455248 -0.00380215 0.251651)
(0.00346105 0.00358443 0.215847)
(-0.00495728 -0.00333428 0.219698)
(-0.00181627 0.000661541 0.227424)
(0.00439812 -0.00404777 0.255034)
(0.00327111 0.0036786 0.217326)
(-0.00509715 -0.00312278 0.219505)
(-0.0016227 0.000618972 0.236367)
(0.00414 -0.00422503 0.25936)
(0.0030853 0.00372869 0.21864)
(-0.00509185 -0.0029704 0.220875)
(-0.0013534 -0.000292486 0.250547)
(0.0033484 -0.00445982 0.268837)
(0.00290626 0.00388529 0.219706)
(-0.00508429 -0.00304019 0.222236)
(-0.00108546 0.000237497 0.252247)
(0.00200374 -0.00339775 0.285872)
(0.00274339 0.00408223 0.220841)
(-0.00511079 -0.00314088 0.22335)
(-0.000867805 0.000823121 0.247502)
(0.00208861 -0.00394673 0.289204)
(0.00259553 0.00420357 0.222858)
(-0.00517284 -0.0031058 0.22431)
(-0.000681739 0.000858007 0.244399)
(0.00295192 -0.00481675 0.283647)
(0.00244028 0.00403113 0.226187)
(-0.00527592 -0.0033269 0.225069)
(-0.000526108 0.000668781 0.24428)
(0.00352774 -0.00494266 0.280251)
(0.00221725 0.003832 0.228776)
(-0.005253 -0.00367537 0.226767)
(-0.000389156 0.000565895 0.245443)
(0.0036297 -0.00467334 0.280952)
(0.00197019 0.00437878 0.229725)
(-0.00486152 -0.00343032 0.231324)
(-0.000242906 0.000593065 0.246516)
(0.00352579 -0.00457352 0.283147)
(0.00184742 0.00488835 0.23519)
(-0.00444845 -0.0029741 0.236594)
(-8.59319e-05 0.000621134 0.247407)
(0.00341825 -0.00467789 0.285128)
(0.00170525 0.00441909 0.248397)
(-0.00487919 -0.00285561 0.235706)
(7.00727e-05 0.000634994 0.248213)
(0.00333089 -0.00474993 0.286834)
(0.00147746 0.00330457 0.267727)
(-0.0059569 -0.00357588 0.229296)
(0.00020768 0.000642143 0.248961)
(0.00326118 -0.00480564 0.288356)
(0.00120399 0.00428962 0.26739)
(-0.00651642 -0.00422416 0.226692)
(0.000319704 0.000643822 0.249642)
(0.00319625 -0.00485684 0.289732)
(0.0009092 0.00505211 0.259608)
(-0.0057747 -0.00400016 0.233823)
(0.000422252 0.000647001 0.250243)
(0.00311582 -0.00490761 0.290982)
(0.000638311 0.00503027 0.255238)
(-0.00400391 -0.00327475 0.249524)
(0.00053682 0.00066314 0.250775)
(0.00301551 -0.00495366 0.292114)
(0.000427366 0.00480676 0.255207)
(-0.00214593 -0.00272702 0.26733)
(0.000663376 0.000691771 0.251278)
(0.00290547 -0.00499499 0.293133)
(0.000259278 0.00501856 0.257122)
(-0.00265894 -0.00368301 0.265983)
(0.000787181 0.000721959 0.251783)
(0.0028001 -0.00503163 0.294028)
(0.000129578 0.00504111 0.261537)
(-0.00376935 -0.00420538 0.259494)
(0.000889796 0.000744024 0.252285)
(0.00271491 -0.00506596 0.29478)
(-1.27808e-05 0.00462635 0.266819)
(-0.0043132 -0.00409362 0.257173)
(0.000969384 0.000758853 0.252771)
(0.00265646 -0.00509976 0.295384)
(-0.000193553 0.0046783 0.269484)
(-0.00426495 -0.00388143 0.258945)
(0.00103389 0.000771318 0.253226)
(0.0026151 -0.005131 0.295877)
(-0.000331342 0.00534183 0.271184)
(-0.0040657 -0.00389045 0.261416)
(0.00108859 0.000784356 0.25364)
(0.00257428 -0.00515629 0.296314)
(-0.000502255 0.00522749 0.276315)
(-0.00392373 -0.00396463 0.263292)
(0.00113374 0.000797829 0.254005)
(0.00252873 -0.00517549 0.296734)
(-0.000682179 0.0047675 0.287013)
(-0.00380714 -0.00399584 0.264896)
(0.00116914 0.000811159 0.254314)
(0.00248237 -0.00518979 0.297151)
(-0.000823754 0.00503804 0.292439)
(-0.00369917 -0.0040189 0.26635)
(0.00119572 0.000824052 0.254563)
(0.00243456 -0.00519828 0.297573)
(-0.00103906 0.00463595 0.289369)
(-0.00357921 -0.00404132 0.2677)
(0.00121463 0.000836138 0.25475)
(0.0023718 -0.0052011 0.298012)
(-0.00128777 0.00528959 0.280002)
(-0.00343146 -0.00406406 0.268965)
(0.00122701 0.000848019 0.254874)
(0.0022817 -0.00519919 0.298479)
(-0.00148454 0.00577593 0.280242)
(-0.00325099 -0.0040851 0.270145)
(0.00123387 0.000860295 0.254932)
(0.00216101 -0.00519212 0.298984)
(-0.00168147 0.00521826 0.290364)
(-0.00304495 -0.00410299 0.271246)
(0.00123614 0.000872358 0.254929)
(0.00201685 -0.00517645 0.299521)
(-0.00188941 0.00460601 0.30809)
(-0.00281846 -0.00411187 0.272285)
(0.00123467 0.000882408 0.254882)
(0.00185544 -0.00514988 0.300069)
(-0.00202796 0.00455467 0.312038)
(-0.00256342 -0.00411417 0.273301)
(0.00123033 0.000891382 0.254827)
(0.00167356 -0.00511937 0.300613)
(-0.00208272 0.00506376 0.301657)
(-0.00226896 -0.00411045 0.27431)
(0.00122366 0.000895065 0.254768)
(0.0014648 -0.00506294 0.301123)
(-0.00210774 0.00529704 0.291376)
(-0.0019658 -0.00408051 0.275009)
(0.00121216 0.000873078 0.254343)
(0.00126711 -0.00500572 0.301199)
(0.000623236 -5.87213e-05 0.00536822)
(0.000620162 9.0007e-05 0.011512)
(-0.000779687 -6.33823e-05 0.00692656)
(-0.000668916 9.75523e-05 0.010619)
(0.00237768 -0.000194556 0.0179715)
(0.00161805 0.000249176 0.0285015)
(-0.00284096 -0.000176794 0.0215935)
(-0.00176138 0.000252682 0.0250367)
(0.00285053 -0.000335664 0.0318874)
(0.00169964 0.000458169 0.0413024)
(-0.00361337 -0.000333966 0.0364895)
(-0.00193373 0.000476194 0.0345965)
(0.00241277 -0.0005917 0.045533)
(0.00135672 0.000736785 0.0537382)
(-0.00347475 -0.000557708 0.0508411)
(-0.00167348 0.000735046 0.0438671)
(0.00181652 -0.000779072 0.0581916)
(0.00101672 0.00094552 0.0666245)
(-0.00317282 -0.000736384 0.0642915)
(-0.0014076 0.000946197 0.0539602)
(0.0011858 -0.000981659 0.0700644)
(0.000688609 0.0011612 0.0792304)
(-0.00282936 -0.000926316 0.076929)
(-0.00114336 0.00116642 0.0640683)
(0.00057608 -0.00118494 0.081299)
(0.000377973 0.00136985 0.0912801)
(-0.00249705 -0.00111782 0.0888581)
(-0.000885203 0.00138839 0.0739001)
(1.24267e-05 -0.00138582 0.0919586)
(8.92495e-05 0.00157012 0.102637)
(-0.00219842 -0.00130809 0.100132)
(-0.000636371 0.0016107 0.0833298)
(-0.000494011 -0.00158715 0.102064)
(-0.000173566 0.00177377 0.113222)
(-0.00194273 -0.00149963 0.110773)
(-0.000399667 0.00183298 0.0922974)
(-0.000939798 -0.00178889 0.111613)
(-0.000404253 0.0019823 0.12302)
(-0.00173205 -0.00169173 0.120788)
(-0.000177719 0.00205752 0.100769)
(-0.00132661 -0.00199166 0.120599)
(-0.000602229 0.00218091 0.132071)
(-0.00156384 -0.00188744 0.130178)
(2.52979e-05 0.00228728 0.108741)
(-0.00165846 -0.00219576 0.129023)
(-0.000771847 0.0023684 0.140461)
(-0.00143487 -0.00208822 0.138949)
(0.000206759 0.00251621 0.116242)
(-0.0019403 -0.00240158 0.136898)
(-0.000911584 0.0025452 0.14825)
(-0.00133871 -0.00228911 0.147119)
(0.000368253 0.00273813 0.123321)
(-0.00217923 -0.00260698 0.14424)
(-0.00102316 0.00271953 0.155439)
(-0.00126558 -0.00248743 0.154727)
(0.000509543 0.00295321 0.130014)
(-0.00238387 -0.00280781 0.151075)
(-0.00111147 0.00289286 0.162052)
(-0.00121201 -0.00268254 0.161817)
(0.000629801 0.00316586 0.136318)
(-0.00255924 -0.00300552 0.157434)
(-0.00117873 0.00305711 0.168131)
(-0.00117775 -0.00287844 0.168423)
(0.000730969 0.00337828 0.14222)
(-0.00270651 -0.00320621 0.163347)
(-0.00122697 0.0032139 0.173717)
(-0.00115931 -0.00307744 0.174573)
(0.000814856 0.00358701 0.147731)
(-0.0028293 -0.00341152 0.168837)
(-0.00125799 0.00336367 0.17885)
(-0.00115292 -0.00327664 0.180295)
(0.000882413 0.00379059 0.152867)
(-0.0029346 -0.00361576 0.173929)
(-0.00127326 0.00350746 0.183567)
(-0.00115582 -0.00347513 0.185613)
(0.000934083 0.00398977 0.157646)
(-0.00302735 -0.00381563 0.178655)
(-0.00127352 0.00364603 0.187905)
(-0.00116562 -0.00367143 0.190554)
(0.000969783 0.00418476 0.162088)
(-0.00310851 -0.00401225 0.18305)
(-0.00125887 0.00377936 0.1919)
(-0.00118024 -0.00387218 0.19514)
(0.000989205 0.00437573 0.166211)
(-0.00317921 -0.00421007 0.187145)
(-0.00122919 0.00390555 0.195586)
(-0.00119817 -0.00408131 0.199393)
(0.000992018 0.00456308 0.170038)
(-0.00324146 -0.00440964 0.190972)
(-0.00118464 0.00402129 0.198996)
(-0.00121466 -0.00428906 0.203331)
(0.000978115 0.00474618 0.17359)
(-0.00329623 -0.00460922 0.194561)
(-0.0011261 0.00412821 0.202159)
(-0.00122338 -0.00449062 0.206982)
(0.000947839 0.00491975 0.176887)
(-0.00334361 -0.00481073 0.197943)
(-0.00105443 0.00425636 0.205107)
(-0.00122489 -0.00468397 0.210383)
(0.000902188 0.00508943 0.179951)
(-0.0033833 -0.0050134 0.201143)
(-0.000968946 0.00439532 0.207876)
(-0.00122378 -0.00487674 0.213565)
(0.000841361 0.00527952 0.182809)
(-0.00341441 -0.00521528 0.204178)
(-0.000869793 0.00450944 0.21051)
(-0.0012234 -0.00507606 0.216552)
(0.000764268 0.00547724 0.185504)
(-0.00343536 -0.00541682 0.207059)
(-0.000759993 0.0046004 0.213056)
(-0.00122648 -0.00527606 0.219366)
(0.000670829 0.00565624 0.188079)
(-0.00344455 -0.0056173 0.2098)
(-0.000643988 0.0046664 0.215554)
(-0.00123489 -0.0054745 0.222024)
(0.00056309 0.00581162 0.19058)
(-0.00344097 -0.00581447 0.212408)
(-0.000523995 0.00473552 0.218002)
(-0.00125003 -0.00567391 0.224543)
(0.000447025 0.00595042 0.193042)
(-0.0034238 -0.006007 0.214888)
(-0.000400288 0.00481831 0.22039)
(-0.00127308 -0.00587524 0.226939)
(0.000325904 0.00609868 0.195455)
(-0.00339206 -0.00619438 0.217244)
(-0.000272937 0.00489448 0.222719)
(-0.00130492 -0.00607631 0.229219)
(0.000199636 0.00625271 0.197802)
(-0.00334541 -0.00638101 0.219479)
(-0.000143287 0.00496704 0.224994)
(-0.00134628 -0.00627451 0.231387)
(6.78589e-05 0.00639934 0.200081)
(-0.00328312 -0.00657074 0.221616)
(-1.32555e-05 0.0050378 0.227221)
(-0.00139779 -0.00646706 0.233442)
(-6.79017e-05 0.00654604 0.202291)
(-0.00319947 -0.00677501 0.223713)
(0.000115005 0.00510691 0.229404)
(-0.0014601 -0.00665152 0.235375)
(-0.000205768 0.00669256 0.204432)
(-0.00309253 -0.00699155 0.225792)
(0.000239204 0.0051739 0.231551)
(-0.00153469 -0.00683157 0.237188)
(-0.000343951 0.00683639 0.206503)
(-0.00296465 -0.00720669 0.227837)
(0.000357011 0.0052402 0.233665)
(-0.00162198 -0.0070134 0.238885)
(-0.000479819 0.00697963 0.208511)
(-0.0028175 -0.00742038 0.229834)
(0.000466022 0.00530474 0.235754)
(-0.00172159 -0.00719714 0.240481)
(-0.000610247 0.00712939 0.210463)
(-0.00265217 -0.00763559 0.231784)
(0.000563573 0.00536538 0.237822)
(-0.00183931 -0.0073928 0.242029)
(-0.000733416 0.00728836 0.212363)
(-0.0024703 -0.00784842 0.233687)
(0.000646988 0.00542042 0.239875)
(-0.00197757 -0.00760086 0.243553)
(-0.000849936 0.00745509 0.214199)
(-0.00227358 -0.00806007 0.235546)
(0.000713882 0.00547517 0.241921)
(-0.0021324 -0.00780969 0.245038)
(-0.000962488 0.00760229 0.215965)
(-0.00206381 -0.00826988 0.237365)
(0.000761071 0.00553037 0.243963)
(-0.00229875 -0.00801493 0.246467)
(-0.00105268 0.00773927 0.217748)
(-0.0018428 -0.00847825 0.239147)
(0.000784396 0.00558636 0.246005)
(-0.0024727 -0.00821927 0.247839)
(-0.00111271 0.00787384 0.219583)
(-0.0016122 -0.00868496 0.240896)
(0.000779863 0.00566195 0.24808)
(-0.00265146 -0.00842054 0.249157)
(-0.00114848 0.00798982 0.22144)
(-0.001373 -0.00888979 0.242616)
(0.000742445 0.00576424 0.250174)
(-0.00283418 -0.00861658 0.250426)
(-0.00115957 0.00810367 0.223318)
(-0.00112529 -0.00909372 0.24431)
(0.000666043 0.00587321 0.252196)
(-0.00302175 -0.00881313 0.251658)
(-0.00114409 0.00821902 0.225224)
(-0.000869321 -0.00929544 0.245981)
(0.000551625 0.00598053 0.254132)
(-0.00321604 -0.00900333 0.252846)
(-0.00110286 0.00833439 0.227166)
(-0.000605897 -0.00949409 0.247633)
(0.000400797 0.00607587 0.255985)
(-0.00342136 -0.00918297 0.254002)
(-0.00103479 0.0084439 0.229137)
(-0.000335555 -0.00968872 0.249269)
(0.000212186 0.0061639 0.257757)
(-0.00364538 -0.00935655 0.255174)
(-0.000938933 0.00854535 0.231151)
(-5.84237e-05 -0.00987678 0.250894)
(-1.70958e-05 0.00624921 0.259454)
(-0.00389669 -0.00951849 0.25633)
(-0.000814068 0.00866532 0.233275)
(0.000225167 -0.010062 0.252512)
(-0.000289396 0.00633517 0.261084)
(-0.00417934 -0.00967218 0.257347)
(-0.000651589 0.00881518 0.235512)
(0.000512592 -0.0102476 0.254129)
(-0.000606181 0.00642331 0.262652)
(-0.00449122 -0.00983208 0.258231)
(-0.000434273 0.008971 0.237721)
(0.000797504 -0.0104234 0.255751)
(-0.000967973 0.00651196 0.264163)
(-0.00482657 -0.00999926 0.258997)
(-0.000165801 0.00912239 0.239884)
(0.0010745 -0.0105746 0.25739)
(-0.00137381 0.00660033 0.265617)
(-0.00517948 -0.0101719 0.259644)
(0.000141486 0.00925625 0.242002)
(0.00134578 -0.0107137 0.259056)
(-0.00182106 0.00668626 0.267016)