0 	0 	0 	0
0 	2.72004e-35 	7.29891e-36 	1.82349e-31
5.01672e-05 	3.32645e-06 	5.30772e-07 	0.0170067
5.01672e-05 	3.32645e-06 	5.30772e-07 	0.0170067
0.000100334 	1.3862e-05 	-2.04796e-07 	0.03268
0.000150502 	3.39573e-05 	-1.62062e-06 	0.0471714
0.000150502 	3.39573e-05 	-1.62062e-06 	0.0471714
0.000200669 	6.58696e-05 	-3.52456e-06 	0.0605569
0.000200669 	6.58696e-05 	-3.52456e-06 	0.0605569
0.000250836 	0.000112022 	-6.12802e-06 	0.0729168
0.000301003 	0.000173725 	-9.14941e-06 	0.0843369
0.000301003 	0.000173725 	-9.14941e-06 	0.0843369
0.000351171 	0.00025106 	-1.25523e-05 	0.094899
0.000401338 	0.000343151 	-1.62338e-05 	0.104669
0.000451505 	0.000448346 	-2.01238e-05 	0.113695
0.000451505 	0.000448346 	-2.01238e-05 	0.113695
0.000501672 	0.000564469 	-2.4183e-05 	0.122016
0.000551839 	0.000689119 	-2.84057e-05 	0.129673
0.000551839 	0.000689119 	-2.84057e-05 	0.129673
0.000602007 	0.00081997 	-3.28166e-05 	0.136714
0.000602007 	0.00081997 	-3.28166e-05 	0.136714
0.000652174 	0.000954983 	-3.74688e-05 	0.143193
0.000652174 	0.000954983 	-3.74688e-05 	0.143193
0.000702341 	0.00109248 	-4.24293e-05 	0.14917
0.000702341 	0.00109248 	-4.24293e-05 	0.14917
0.000752508 	0.0012311 	-4.77597e-05 	0.154701
0.000802676 	0.00136964 	-5.35222e-05 	0.159831
0.000852843 	0.00150658 	-5.98421e-05 	0.164546
0.000852843 	0.00150658 	-5.98421e-05 	0.164546
0.00090301 	0.00164099 	-6.66622e-05 	0.16894
0.00090301 	0.00164099 	-6.66622e-05 	0.16894
0.000953177 	0.00177216 	-7.39886e-05 	0.173045
0.00100334 	0.00189956 	-8.18181e-05 	0.176888
0.00100334 	0.00189956 	-8.18181e-05 	0.176888
0.00105351 	0.00202278 	-9.01399e-05 	0.180495
0.00105351 	0.00202278 	-9.01399e-05 	0.180495
0.00110368 	0.00214142 	-9.89491e-05 	0.183882
0.00115385 	0.0022537 	-0.000108355 	0.18702
0.00120401 	0.00236093 	-0.000118181 	0.189989
0.00120401 	0.00236093 	-0.000118181 	0.189989
0.00130435 	0.00256039 	-0.000138945 	0.19548
0.00130435 	0.00256039 	-0.000138945 	0.19548
0.00135452 	0.00265106 	-0.0001499 	0.197991
0.00135452 	0.00265106 	-0.0001499 	0.197991
0.00140468 	0.00273596 	-0.000161135 	0.200372
0.00145485 	0.00281609 	-0.000172562 	0.202653
0.00145485 	0.00281609 	-0.000172562 	0.202653
0.00150502 	0.00289162 	-0.000184149 	0.204842
0.00150502 	0.00289162 	-0.000184149 	0.204842
0.00155518 	0.00296002 	-0.000195897 	0.206902
0.00155518 	0.00296002 	-0.000195897 	0.206902
0.00160535 	0.00302402 	-0.000207691 	0.208889
0.00160535 	0.00302402 	-0.000207691 	0.208889
0.00165552 	0.00308404 	-0.000219513 	0.210812
0.00165552 	0.00308404 	-0.000219513 	0.210812
0.00170569 	0.00313837 	-0.000231333 	0.21265
0.00170569 	0.00313837 	-0.000231333 	0.21265
0.00175585 	0.00318782 	-0.0002431 	0.214422
0.00175585 	0.00318782 	-0.0002431 	0.214422
0.00180602 	0.00323382 	-0.000254815 	0.216148
0.00180602 	0.00323382 	-0.000254815 	0.216148
0.00185619 	0.0032747 	-0.00026642 	0.217809
0.00185619 	0.0032747 	-0.00026642 	0.217809
0.00190635 	0.00331088 	-0.000277876 	0.219416
0.00190635 	0.00331088 	-0.000277876 	0.219416
0.00195652 	0.00334408 	-0.000289224 	0.220988
0.00195652 	0.00334408 	-0.000289224 	0.220988
0.00200669 	0.00337199 	-0.000300347 	0.222503
0.00200669 	0.00337199 	-0.000300347 	0.222503
0.00205686 	0.0033961 	-0.000311266 	0.223978
0.00210702 	0.00341768 	-0.000322049 	0.225428
0.00210702 	0.00341768 	-0.000322049 	0.225428
0.00215719 	0.0034332 	-0.000332444 	0.226818
0.00220736 	0.00344641 	-0.000342668 	0.228187
0.00225753 	0.00345596 	-0.000352618 	0.229522
0.00225753 	0.00345596 	-0.000352618 	0.229522
0.00230769 	0.00346126 	-0.00036221 	0.230819
0.00230769 	0.00346126 	-0.00036221 	0.230819
0.00235786 	0.00346474 	-0.000371645 	0.232099
0.00235786 	0.00346474 	-0.000371645 	0.232099
0.00240803 	0.00346284 	-0.000380572 	0.233331
0.00240803 	0.00346284 	-0.000380572 	0.233331
0.00245819 	0.00345915 	-0.000389314 	0.234548
0.00245819 	0.00345915 	-0.000389314 	0.234548
0.00250836 	0.00345182 	-0.000397677 	0.235734
0.00250836 	0.00345182 	-0.000397677 	0.235734
0.00255853 	0.00344142 	-0.000405694 	0.236892
0.0026087 	0.00342885 	-0.000413467 	0.238032
0.0026087 	0.00342885 	-0.000413467 	0.238032
0.00265886 	0.00341223 	-0.000420747 	0.239136
0.00270903 	0.00339464 	-0.000427909 	0.240232
0.00270903 	0.00339464 	-0.000427909 	0.240232
0.0027592 	0.00337229 	-0.000434451 	0.241284
0.00280936 	0.00334922 	-0.000440892 	0.24233
0.00280936 	0.00334922 	-0.000440892 	0.24233
0.00285953 	0.00332235 	-0.000446807 	0.24334
0.00285953 	0.00332235 	-0.000446807 	0.24334
0.0029097 	0.00329428 	-0.000452545 	0.244338
0.0029097 	0.00329428 	-0.000452545 	0.244338
0.00295987 	0.00326317 	-0.000457839 	0.245307
0.00295987 	0.00326317 	-0.000457839 	0.245307
0.00301003 	0.00323057 	-0.000462905 	0.246259
0.0030602 	0.00319551 	-0.000467594 	0.247186
0.00311037 	0.00315887 	-0.000472033 	0.248096
0.00311037 	0.00315887 	-0.000472033 	0.248096
0.00316054 	0.00312016 	-0.000476145 	0.248982
0.00316054 	0.00312016 	-0.000476145 	0.248982
0.00326087 	0.00303787 	-0.000483587 	0.250695
0.00326087 	0.00303787 	-0.000483587 	0.250695
0.00331104 	0.00299448 	-0.000486946 	0.251523
0.0033612 	0.00294941 	-0.000490036 	0.252329
0.0033612 	0.00294941 	-0.000490036 	0.252329
0.00341137 	0.00290325 	-0.000492955 	0.253119
0.00341137 	0.00290325 	-0.000492955 	0.253119
0.00346154 	0.00285546 	-0.000495614 	0.253885
0.00346154 	0.00285546 	-0.000495614 	0.253885
0.00351171 	0.00280692 	-0.000498156 	0.254639
0.00356187 	0.00275671 	-0.00050044 	0.255367
0.00356187 	0.00275671 	-0.00050044 	0.255367
0.00361204 	0.00270609 	-0.000502661 	0.256087
0.00366221 	0.00265375 	-0.000504615 	0.256777
0.00366221 	0.00265375 	-0.000504615 	0.256777
0.00371237 	0.00260135 	-0.000506559 	0.257466
0.00371237 	0.00260135 	-0.000506559 	0.257466
0.00376254 	0.00254713 	-0.000508208 	0.258119
0.00376254 	0.00254713 	-0.000508208 	0.258119
0.00381271 	0.00249291 	-0.000509858 	0.258773
0.00381271 	0.00249291 	-0.000509858 	0.258773
0.00386288 	0.00243729 	-0.000511265 	0.259398
0.00391304 	0.00238139 	-0.000512623 	0.260016
0.00391304 	0.00238139 	-0.000512623 	0.260016
0.00396321 	0.00232459 	-0.000513812 	0.260615
0.00401338 	0.00226717 	-0.000514886 	0.261201
0.00401338 	0.00226717 	-0.000514886 	0.261201
0.00406355 	0.00220934 	-0.00051587 	0.261777
0.00406355 	0.00220934 	-0.00051587 	0.261777
0.00411371 	0.00215062 	-0.000516659 	0.262331
0.00411371 	0.00215062 	-0.000516659 	0.262331
0.00421405 	0.00203215 	-0.000517951 	0.263406
0.00421405 	0.00203215 	-0.000517951 	0.263406
0.00426421 	0.00197239 	-0.000518452 	0.263928
0.00426421 	0.00197239 	-0.000518452 	0.263928
0.00431438 	0.00191218 	-0.000518771 	0.26443
0.00431438 	0.00191218 	-0.000518771 	0.26443
0.00436455 	0.00185169 	-0.000518983 	0.26492
0.00436455 	0.00185169 	-0.000518983 	0.26492
0.00441472 	0.00179111 	-0.00051913 	0.265403
0.00441472 	0.00179111 	-0.00051913 	0.265403
0.00446488 	0.0017302 	-0.000519053 	0.265861
0.00446488 	0.0017302 	-0.000519053 	0.265861
0.00451505 	0.00166929 	-0.000518977 	0.266319
0.00451505 	0.00166929 	-0.000518977 	0.266319
0.00456522 	0.00160829 	-0.000518675 	0.266752
0.00456522 	0.00160829 	-0.000518675 	0.266752
0.00461538 	0.00154727 	-0.00051831 	0.267178
0.00461538 	0.00154727 	-0.00051831 	0.267178
0.00466555 	0.00148631 	-0.000517861 	0.267595
0.00471572 	0.0014255 	-0.000517209 	0.267989
0.00476589 	0.00136469 	-0.000516558 	0.268382
0.00476589 	0.00136469 	-0.000516558 	0.268382
0.00486622 	0.00124404 	-0.000514755 	0.269112
0.00486622 	0.00124404 	-0.000514755 	0.269112
0.00491639 	0.00118394 	-0.00051377 	0.269467
0.00496656 	0.00112457 	-0.000512555 	0.269795
0.00496656 	0.00112457 	-0.000512555 	0.269795
0.00501672 	0.0010652 	-0.00051134 	0.270123
0.00506689 	0.00100652 	-0.000509974 	0.270433
0.00511706 	0.000948406 	-0.000508485 	0.270727
0.00511706 	0.000948406 	-0.000508485 	0.270727
0.00521739 	0.000833573 	-0.000505275 	0.271287
0.00521739 	0.000833573 	-0.000505275 	0.271287
0.00526756 	0.000777057 	-0.000503521 	0.271547
0.00526756 	0.000777057 	-0.000503521 	0.271547
0.00531773 	0.00072084 	-0.000501727 	0.271803
0.00536789 	0.000666275 	-0.000499716 	0.272029
0.00536789 	0.000666275 	-0.000499716 	0.272029
0.00541806 	0.000611711 	-0.000497705 	0.272256
0.00546823 	0.000558022 	-0.000495601 	0.272469
0.00551839 	0.00050575 	-0.000493345 	0.272661
0.00551839 	0.00050575 	-0.000493345 	0.272661
0.00556856 	0.000453477 	-0.000491088 	0.272853
0.00556856 	0.000453477 	-0.000491088 	0.272853
0.0056689 	0.000353026 	-0.000486213 	0.273183
0.0056689 	0.000353026 	-0.000486213 	0.273183
0.00571906 	0.000303375 	-0.000483724 	0.273341
0.00576923 	0.000255754 	-0.000481087 	0.273474
0.00576923 	0.000255754 	-0.000481087 	0.273474
0.0058194 	0.000209043 	-0.000478382 	0.273597
0.0058194 	0.000209043 	-0.000478382 	0.273597
0.00591973 	0.000118111 	-0.000472822 	0.273815
0.00591973 	0.000118111 	-0.000472822 	0.273815
0.0059699 	7.46417e-05 	-0.000469921 	0.273902
0.0059699 	7.46417e-05 	-0.000469921 	0.273902
0.00602007 	3.11727e-05 	-0.000467019 	0.27399
0.00607023 	-9.49918e-06 	-0.00046398 	0.27405
0.0061204 	-4.94426e-05 	-0.000460906 	0.274102
0.0061204 	-4.94426e-05 	-0.000460906 	0.274102
0.00617057 	-8.9386e-05 	-0.000457831 	0.274155
0.00622074 	-0.000126436 	-0.000454643 	0.274181
0.00622074 	-0.000126436 	-0.000454643 	0.274181
0.0062709 	-0.000162599 	-0.00045142 	0.274199
0.00632107 	-0.000198761 	-0.000448197 	0.274216
0.00632107 	-0.000198761 	-0.000448197 	0.274216
0.00637124 	-0.00023219 	-0.000444889 	0.27421
0.00637124 	-0.00023219 	-0.000444889 	0.27421
0.0064214 	-0.000264349 	-0.000441541 	0.274193
0.0064214 	-0.000264349 	-0.000441541 	0.274193
0.00647157 	-0.000296508 	-0.000438194 	0.274176
0.00647157 	-0.000296508 	-0.000438194 	0.274176
0.00652174 	-0.000326386 	-0.000434841 	0.27414
0.00657191 	-0.000354357 	-0.000431484 	0.274088
0.00657191 	-0.000354357 	-0.000431484 	0.274088
0.00662207 	-0.000382329 	-0.000428127 	0.274037
0.00667224 	-0.000408783 	-0.000424753 	0.273973
0.00672241 	-0.000432426 	-0.000421345 	0.273887
0.00672241 	-0.000432426 	-0.000421345 	0.273887
0.00677258 	-0.00045607 	-0.000417938 	0.273802
0.00682274 	-0.000479274 	-0.000414518 	0.273713
0.00682274 	-0.000479274 	-0.000414518 	0.273713
0.00687291 	-0.000498493 	-0.000410982 	0.273593
0.00687291 	-0.000498493 	-0.000410982 	0.273593
0.00692308 	-0.000517711 	-0.000407447 	0.273474
0.00697324 	-0.000536929 	-0.000403912 	0.273355
0.00702341 	-0.000552613 	-0.000400406 	0.27321
0.00707358 	-0.000567355 	-0.000396909 	0.273057
0.00707358 	-0.000567355 	-0.000396909 	0.273057
0.00717391 	-0.000594951 	-0.000389834 	0.272739
0.00717391 	-0.000594951 	-0.000389834 	0.272739
0.00722408 	-0.000605203 	-0.000386149 	0.272555
0.00722408 	-0.000605203 	-0.000386149 	0.272555
0.00727425 	-0.000615454 	-0.000382463 	0.272371
0.00727425 	-0.000615454 	-0.000382463 	0.272371
0.00732441 	-0.000625705 	-0.000378778 	0.272186
0.00732441 	-0.000625705 	-0.000378778 	0.272186
0.00737458 	-0.000631525 	-0.000375092 	0.271971
0.00737458 	-0.000631525 	-0.000375092 	0.271971
0.00742475 	-0.000637304 	-0.000371406 	0.271756
0.00747492 	-0.000643083 	-0.00036772 	0.271541
0.00752508 	-0.000646724 	-0.00036417 	0.271311
0.00752508 	-0.000646724 	-0.00036417 	0.271311
0.00757525 	-0.000648226 	-0.000360754 	0.271066
0.00762542 	-0.000649727 	-0.000357338 	0.270821
0.00767559 	-0.000651193 	-0.000353923 	0.270575
0.00767559 	-0.000651193 	-0.000353923 	0.270575
0.00772575 	-0.00064865 	-0.000350522 	0.2703
0.00777592 	-0.000646107 	-0.000347121 	0.270025
0.00777592 	-0.000646107 	-0.000347121 	0.270025
0.00782609 	-0.000643565 	-0.00034372 	0.269749
0.00787625 	-0.000638859 	-0.000340481 	0.269459
0.00787625 	-0.000638859 	-0.000340481 	0.269459
0.00792642 	-0.000632585 	-0.000337359 	0.269156
0.00797659 	-0.000626311 	-0.000334237 	0.268854
0.00802676 	-0.000619324 	-0.000331168 	0.268546
0.00802676 	-0.000619324 	-0.000331168 	0.268546
0.00807692 	-0.000609663 	-0.000328302 	0.268218
0.00807692 	-0.000609663 	-0.000328302 	0.268218
0.00812709 	-0.000600002 	-0.000325435 	0.267891
0.00817726 	-0.000590341 	-0.000322568 	0.267563
0.00817726 	-0.000590341 	-0.000322568 	0.267563
0.00822742 	-0.000577932 	-0.000319739 	0.267213
0.00827759 	-0.000565221 	-0.000316914 	0.266861
0.00827759 	-0.000565221 	-0.000316914 	0.266861
0.00832776 	-0.00055251 	-0.000314088 	0.266509
0.00832776 	-0.00055251 	-0.000314088 	0.266509
0.00837793 	-0.00053804 	-0.000311367 	0.266142
0.00842809 	-0.000522621 	-0.000308702 	0.265767
0.00842809 	-0.000522621 	-0.000308702 	0.265767
0.00847826 	-0.000507202 	-0.000306036 	0.265392
0.00847826 	-0.000507202 	-0.000306036 	0.265392
0.0085786 	-0.000472926 	-0.00030094 	0.26461
0.0085786 	-0.000472926 	-0.00030094 	0.26461
0.00862876 	-0.000455145 	-0.000298436 	0.264213
0.00867893 	-0.000436723 	-0.000295984 	0.263809
0.0087291 	-0.000416926 	-0.000293642 	0.263391
0.00877926 	-0.000397129 	-0.0002913 	0.262972
0.00882943 	-0.000376939 	-0.000288997 	0.262549
0.0088796 	-0.000355474 	-0.000286821 	0.26211
0.0088796 	-0.000355474 	-0.000286821 	0.26211
0.00892977 	-0.000334009 	-0.000284645 	0.261671
0.00892977 	-0.000334009 	-0.000284645 	0.261671
0.00897993 	-0.000312271 	-0.000282503 	0.261228
0.00897993 	-0.000312271 	-0.000282503 	0.261228
0.0090301 	-0.000289485 	-0.000280492 	0.260769
0.00908027 	-0.0002667 	-0.00027848 	0.26031
0.00908027 	-0.0002667 	-0.00027848 	0.26031
0.00913043 	-0.000243689 	-0.000276505 	0.259847
0.0091806 	-0.000219931 	-0.000274653 	0.259368
0.0091806 	-0.000219931 	-0.000274653 	0.259368
0.00923077 	-0.000196173 	-0.000272801 	0.25889
0.00928094 	-0.000172222 	-0.000270996 	0.258405
0.00928094 	-0.000172222 	-0.000270996 	0.258405
0.0093311 	-0.000147838 	-0.000269297 	0.257908
0.00938127 	-0.000123454 	-0.000267599 	0.25741
0.00938127 	-0.000123454 	-0.000267599 	0.25741
0.00943144 	-9.8934e-05 	-0.000265964 	0.256903
0.00943144 	-9.8934e-05 	-0.000265964 	0.256903
0.00948161 	-7.42408e-05 	-0.000264411 	0.256386
0.00948161 	-7.42408e-05 	-0.000264411 	0.256386
0.00953177 	-4.95476e-05 	-0.000262859 	0.255869
0.00953177 	-4.95476e-05 	-0.000262859 	0.255869
0.00958194 	-2.48415e-05 	-0.000261392 	0.255339
0.00958194 	-2.48415e-05 	-0.000261392 	0.255339
0.00963211 	-1.27429e-07 	-0.00025998 	0.254801
0.00968227 	2.45867e-05 	-0.000258567 	0.254264
0.00968227 	2.45867e-05 	-0.000258567 	0.254264
0.00973244 	4.9056e-05 	-0.000257276 	0.253709
0.00978261 	7.34812e-05 	-0.000256007 	0.25315
0.00978261 	7.34812e-05 	-0.000256007 	0.25315
0.00983278 	9.78275e-05 	-0.000254758 	0.25259
0.00983278 	9.78275e-05 	-0.000254758 	0.25259
0.00988294 	0.000121622 	-0.000253645 	0.252011
0.00993311 	0.000145416 	-0.000252533 	0.251432
0.00993311 	0.000145416 	-0.000252533 	0.251432
0.00998328 	0.000168768 	-0.000251496 	0.250843
0.0100334 	0.000191581 	-0.000250551 	0.250244
0.0100836 	0.000214393 	-0.000249607 	0.249644
0.0100836 	0.000214393 	-0.000249607 	0.249644
0.0101338 	0.00023611 	-0.000248809 	0.249028
0.0101839 	0.000257594 	-0.000248042 	0.248408
0.0101839 	0.000257594 	-0.000248042 	0.248408
0.0102341 	0.000278673 	-0.000247321 	0.247782
0.0102341 	0.000278673 	-0.000247321 	0.247782
0.0102843 	0.000298495 	-0.000246738 	0.247141
0.0103344 	0.000318317 	-0.000246155 	0.2465
0.0103344 	0.000318317 	-0.000246155 	0.2465
0.0103846 	0.00033673 	-0.000245701 	0.245843
0.0103846 	0.00033673 	-0.000245701 	0.245843
0.0104348 	0.000354563 	-0.000245299 	0.24518
0.0104348 	0.000354563 	-0.000245299 	0.24518
0.0104849 	0.000371891 	-0.000244932 	0.244512
0.0104849 	0.000371891 	-0.000244932 	0.244512
0.0105351 	0.000387403 	-0.000244694 	0.243827
0.0105853 	0.000402916 	-0.000244456 	0.243143
0.0105853 	0.000402916 	-0.000244456 	0.243143
0.0106856 	0.000429246 	-0.000244219 	0.241732
0.0106856 	0.000429246 	-0.000244219 	0.241732
0.0107358 	0.000441012 	-0.000244151 	0.241016
0.010786 	0.000450894 	-0.000244145 	0.240285
0.010786 	0.000450894 	-0.000244145 	0.240285
0.0108361 	0.000460755 	-0.000244139 	0.239553
0.0108863 	0.000467339 	-0.000244194 	0.238798
0.0108863 	0.000467339 	-0.000244194 	0.238798
0.0109365 	0.000473924 	-0.000244248 	0.238042
0.0109365 	0.000473924 	-0.000244248 	0.238042
0.0109866 	0.000478035 	-0.000244322 	0.237268
0.0110368 	0.000481017 	-0.000244404 	0.236487
0.0110368 	0.000481017 	-0.000244404 	0.236487
0.011087 	0.000482415 	-0.000244483 	0.235694
0.011087 	0.000482415 	-0.000244483 	0.235694
0.0111371 	0.000481512 	-0.00024456 	0.234885
0.0111873 	0.000479906 	-0.000244631 	0.234071
0.0111873 	0.000479906 	-0.000244631 	0.234071
0.0112375 	0.000474857 	-0.000244669 	0.233233
0.0112876 	0.000469807 	-0.000244708 	0.232395
0.0112876 	0.000469807 	-0.000244708 	0.232395
0.0113378 	0.000460506 	-0.000244678 	0.231526
0.0113378 	0.000460506 	-0.000244678 	0.231526
0.011388 	0.000451074 	-0.000244646 	0.230657
0.0114381 	0.00043792 	-0.000244535 	0.22976
0.0114381 	0.00043792 	-0.000244535 	0.22976
0.0114883 	0.000423892 	-0.000244406 	0.228856
0.0115385 	0.00040657 	-0.000244194 	0.227927
0.0115385 	0.00040657 	-0.000244194 	0.227927
0.0115886 	0.000387751 	-0.000243944 	0.226985
0.0116388 	0.00036594 	-0.00024361 	0.22602
0.0116388 	0.00036594 	-0.00024361 	0.22602
0.011689 	0.000342156 	-0.000243221 	0.225037
0.0117391 	0.000315537 	-0.000242751 	0.22403
0.0117893 	0.000286638 	-0.000242217 	0.223004
0.0118395 	0.000254878 	-0.000241603 	0.22195
0.0118395 	0.000254878 	-0.000241603 	0.22195
0.0118896 	0.000220701 	-0.000240922 	0.220873
0.0119398 	0.00018342 	-0.000240156 	0.219764
0.0119398 	0.00018342 	-0.000240156 	0.219764
0.01199 	0.000143754 	-0.000239325 	0.218631
0.0120401 	0.00010056 	-0.000238393 	0.217459
0.0120401 	0.00010056 	-0.000238393 	0.217459
0.0120903 	5.52349e-05 	-0.0002374 	0.216263
0.0120903 	5.52349e-05 	-0.0002374 	0.216263
0.0121906 	-4.5194e-05 	-0.000235106 	0.213753
0.0121906 	-4.5194e-05 	-0.000235106 	0.213753
0.0122408 	-0.000100961 	-0.000233775 	0.212425
0.012291 	-0.000157623 	-0.000232413 	0.211086
0.012291 	-0.000157623 	-0.000232413 	0.211086
0.0123411 	-0.000219763 	-0.000230859 	0.209668
0.0123913 	-0.000282903 	-0.000229266 	0.208232
0.0123913 	-0.000282903 	-0.000229266 	0.208232
0.0124415 	-0.000350257 	-0.000227513 	0.206727
0.0124415 	-0.000350257 	-0.000227513 	0.206727
0.0124916 	-0.000419614 	-0.000225672 	0.205185
0.0124916 	-0.000419614 	-0.000225672 	0.205185
0.0125418 	-0.000491791 	-0.00022371 	0.203588
0.012592 	-0.000566838 	-0.000221599 	0.201927
0.0126421 	-0.0006433 	-0.000219414 	0.200233
0.0126421 	-0.0006433 	-0.000219414 	0.200233
0.0126923 	-0.000723192 	-0.000216998 	0.198439
0.0127425 	-0.000803987 	-0.000214499 	0.196612
0.0127425 	-0.000803987 	-0.000214499 	0.196612
0.0127926 	-0.000886777 	-0.000211805 	0.194703
0.0128428 	-0.000970624 	-0.000208929 	0.192723
0.0128428 	-0.000970624 	-0.000208929 	0.192723
0.0129431 	-0.00114016 	-0.000202624 	0.188552
0.0129431 	-0.00114016 	-0.000202624 	0.188552
0.0129933 	-0.00122489 	-0.000199168 	0.186353
0.0130435 	-0.00130914 	-0.000195498 	0.184074
0.0130435 	-0.00130914 	-0.000195498 	0.184074
0.0131438 	-0.00147248 	-0.000187374 	0.179228
0.0131438 	-0.00147248 	-0.000187374 	0.179228
0.013194 	-0.0015507 	-0.000182953 	0.176669
0.0132441 	-0.0016248 	-0.000178242 	0.173993
0.0132441 	-0.0016248 	-0.000178242 	0.173993
0.0132943 	-0.00169567 	-0.00017334 	0.171237
0.0133445 	-0.00176152 	-0.000168173 	0.168367
0.0133445 	-0.00176152 	-0.000168173 	0.168367
0.0133946 	-0.00182031 	-0.000162711 	0.165358
0.0133946 	-0.00182031 	-0.000162711 	0.165358
0.0134448 	-0.00187364 	-0.000157049 	0.16225
0.0134448 	-0.00187364 	-0.000157049 	0.16225
0.013495 	-0.00192072 	-0.000151167 	0.159032
0.0135452 	-0.00195648 	-0.000144938 	0.155625
0.0135452 	-0.00195648 	-0.000144938 	0.155625
0.0135953 	-0.00198427 	-0.000138493 	0.15209
0.0135953 	-0.00198427 	-0.000138493 	0.15209
0.0136455 	-0.00200346 	-0.000131829 	0.148418
0.0136455 	-0.00200346 	-0.000131829 	0.148418
0.0136957 	-0.00201162 	-0.000124908 	0.144573
0.0136957 	-0.00201162 	-0.000124908 	0.144573
0.0137458 	-0.0020061 	-0.000117724 	0.140518
0.013796 	-0.00198958 	-0.000110363 	0.136293
0.013796 	-0.00198958 	-0.000110363 	0.136293
0.0138462 	-0.00196148 	-0.00010284 	0.13189
0.0138462 	-0.00196148 	-0.00010284 	0.13189
0.0138963 	-0.00192123 	-9.51723e-05 	0.127296
0.0139465 	-0.00186467 	-8.73672e-05 	0.122437
0.0139465 	-0.00186467 	-8.73672e-05 	0.122437
0.0139967 	-0.00179556 	-7.95033e-05 	0.11736
0.0139967 	-0.00179556 	-7.95033e-05 	0.11736
0.0140468 	-0.00171436 	-7.16216e-05 	0.112061
0.0140468 	-0.00171436 	-7.16216e-05 	0.112061
0.014097 	-0.00162145 	-6.37675e-05 	0.106528
0.0141472 	-0.00151745 	-5.59958e-05 	0.100751
0.0141472 	-0.00151745 	-5.59958e-05 	0.100751
0.0141973 	-0.00140324 	-4.8374e-05 	0.0947124
0.0142475 	-0.00127889 	-4.10296e-05 	0.0883443
0.0142977 	-0.00114816 	-3.40393e-05 	0.0816946
0.0142977 	-0.00114816 	-3.40393e-05 	0.0816946
0.0143478 	-0.00101391 	-2.7523e-05 	0.0747999
0.014398 	-0.00087953 	-2.15921e-05 	0.0677211
0.014398 	-0.00087953 	-2.15921e-05 	0.0677211
0.0144482 	-0.000748802 	-1.63394e-05 	0.0605481
0.0144983 	-0.000625491 	-1.18389e-05 	0.0533946
0.0144983 	-0.000625491 	-1.18389e-05 	0.0533946
0.0145485 	-0.000512818 	-8.1441e-06 	0.0463854
0.0145485 	-0.000512818 	-8.1441e-06 	0.0463854
0.0145987 	-0.000412949 	-5.28394e-06 	0.0396369
0.0146488 	-0.00032672 	-3.23978e-06 	0.0332383
0.014699 	-0.000253706 	-1.91129e-06 	0.0272428
0.014699 	-0.000253706 	-1.91129e-06 	0.0272428
0.0147492 	-0.000192583 	-1.13452e-06 	0.0216721
0.0147993 	-0.000141548 	-6.88582e-07 	0.0165282
0.0147993 	-0.000141548 	-6.88582e-07 	0.0165282
0.0148495 	-9.86669e-05 	-5.56028e-07 	0.0118029
0.0148495 	-9.86669e-05 	-5.56028e-07 	0.0118029
0.0148997 	-6.20619e-05 	-3.41557e-07 	0.00748457
0.0148997 	-6.20619e-05 	-3.41557e-07 	0.00748457
0.0149498 	-2.98756e-05 	-1.08806e-07 	0.00355978
0.0149498 	-2.98756e-05 	-1.08806e-07 	0.00355978
0.015 	0 	0 	0
0.015 	0 	0 	0
