0 	0 	0 	0
0 	0 	0 	0
0.00752508 	0.000752349 	-0.000918232 	-0.29571
0.00752508 	0.000752349 	-0.000918232 	-0.29571
0.00757525 	0.00076501 	-0.000913503 	-0.295143
0.00762542 	0.000777671 	-0.000908774 	-0.294576
0.00762542 	0.000777671 	-0.000908774 	-0.294576
0.00767559 	0.000790435 	-0.000904033 	-0.294007
0.00772575 	0.000814577 	-0.000897842 	-0.293178
0.00777592 	0.000838719 	-0.000891651 	-0.29235
0.00782609 	0.000862861 	-0.00088546 	-0.291521
0.00782609 	0.000862861 	-0.00088546 	-0.291521
0.00787625 	0.000888505 	-0.000879727 	-0.290728
0.00792642 	0.000915239 	-0.000874328 	-0.289961
0.00797659 	0.000941973 	-0.000868928 	-0.289194
0.00802676 	0.000967075 	-0.000863933 	-0.28849
0.00802676 	0.000967075 	-0.000863933 	-0.28849
0.00807692 	0.00098606 	-0.000860455 	-0.288023
0.00812709 	0.00100504 	-0.000856977 	-0.287556
0.00812709 	0.00100504 	-0.000856977 	-0.287556
0.00817726 	0.00102403 	-0.000853499 	-0.287089
0.00822742 	0.00103788 	-0.000849382 	-0.286739
0.00822742 	0.00103788 	-0.000849382 	-0.286739
0.00827759 	0.00105117 	-0.000845194 	-0.286401
0.00832776 	0.00106445 	-0.000841007 	-0.286064
0.00832776 	0.00106445 	-0.000841007 	-0.286064
0.00837793 	0.00107771 	-0.000834889 	-0.285707
0.00842809 	0.00109094 	-0.00082773 	-0.28534
0.00842809 	0.00109094 	-0.00082773 	-0.28534
0.00847826 	0.00110417 	-0.00082057 	-0.284972
0.00847826 	0.00110417 	-0.00082057 	-0.284972
0.00852843 	0.00111827 	-0.000813195 	-0.28458
0.00852843 	0.00111827 	-0.000813195 	-0.28458
0.0085786 	0.0011334 	-0.000805563 	-0.284159
0.0085786 	0.0011334 	-0.000805563 	-0.284159
0.00862876 	0.00114854 	-0.00079793 	-0.283737
0.00867893 	0.00116388 	-0.000790526 	-0.283307
0.00867893 	0.00116388 	-0.000790526 	-0.283307
0.0087291 	0.00117968 	-0.000783611 	-0.282854
0.00877926 	0.00119548 	-0.000776696 	-0.282402
0.00877926 	0.00119548 	-0.000776696 	-0.282402
0.00882943 	0.00121104 	-0.00076982 	-0.281945
0.0088796 	0.00122583 	-0.000763069 	-0.281468
0.0088796 	0.00122583 	-0.000763069 	-0.281468
0.00897993 	0.00125498 	-0.000749487 	-0.280509
0.00897993 	0.00125498 	-0.000749487 	-0.280509
0.0090301 	0.00126772 	-0.000742342 	-0.280005
0.00908027 	0.00128047 	-0.000735197 	-0.279502
0.00908027 	0.00128047 	-0.000735197 	-0.279502
0.00913043 	0.00129275 	-0.000728282 	-0.278992
0.0091806 	0.0013035 	-0.000722128 	-0.27846
0.0091806 	0.0013035 	-0.000722128 	-0.27846
0.00923077 	0.00131426 	-0.000715974 	-0.277929
0.00928094 	0.00132462 	-0.000711053 	-0.277388
0.00928094 	0.00132462 	-0.000711053 	-0.277388
0.0093311 	0.00133413 	-0.000708885 	-0.276829
0.00938127 	0.00134364 	-0.000706718 	-0.276269
0.00938127 	0.00134364 	-0.000706718 	-0.276269
0.00943144 	0.00135276 	-0.000702265 	-0.2757
0.00943144 	0.00135276 	-0.000702265 	-0.2757
0.00948161 	0.00136137 	-0.000694884 	-0.275117
0.00948161 	0.00136137 	-0.000694884 	-0.275117
0.00953177 	0.00136999 	-0.000687502 	-0.274534
0.00953177 	0.00136999 	-0.000687502 	-0.274534
0.00958194 	0.00137743 	-0.000669642 	-0.273932
0.00958194 	0.00137743 	-0.000669642 	-0.273932
0.00963211 	0.00138415 	-0.000645297 	-0.273318
0.00963211 	0.00138415 	-0.000645297 	-0.273318
0.00968227 	0.00139086 	-0.000620952 	-0.272704
0.00968227 	0.00139086 	-0.000620952 	-0.272704
0.00973244 	0.00139577 	-0.000601996 	-0.272032
0.00978261 	0.00140035 	-0.000584014 	-0.271348
0.00983278 	0.00140505 	-0.000569486 	-0.270649
0.00988294 	0.00141065 	-0.00057915 	-0.26984
0.00988294 	0.00141065 	-0.00057915 	-0.26984
0.00993311 	0.00141625 	-0.000588814 	-0.269032
0.00998328 	0.00142489 	-0.000597859 	-0.26813
0.00998328 	0.00142489 	-0.000597859 	-0.26813
0.0100334 	0.00143722 	-0.000606151 	-0.267116
0.0100334 	0.00143722 	-0.000606151 	-0.267116
0.0100836 	0.00144955 	-0.000614442 	-0.266103
0.0101338 	0.00147254 	-0.000599972 	-0.264847
0.0101338 	0.00147254 	-0.000599972 	-0.264847
0.0102341 	0.00152509 	-0.000559333 	-0.262198
0.0102341 	0.00152509 	-0.000559333 	-0.262198
0.0102843 	0.00155865 	-0.00053188 	-0.260743
0.0103344 	0.0015922 	-0.000504427 	-0.259287
0.0103344 	0.0015922 	-0.000504427 	-0.259287
0.0103846 	0.00161884 	-0.000492088 	-0.258007
0.0103846 	0.00161884 	-0.000492088 	-0.258007
0.0104348 	0.00164263 	-0.000485976 	-0.256798
0.0104849 	0.00166292 	-0.000482528 	-0.255669
0.0104849 	0.00166292 	-0.000482528 	-0.255669
0.0105351 	0.00167059 	-0.000488657 	-0.254825
0.0105853 	0.00167827 	-0.000494786 	-0.25398
0.0105853 	0.00167827 	-0.000494786 	-0.25398
0.0106355 	0.00168086 	-0.000494599 	-0.253246
0.0106856 	0.00168194 	-0.000492537 	-0.252543
0.0106856 	0.00168194 	-0.000492537 	-0.252543
0.0107358 	0.00168315 	-0.000487623 	-0.251833
0.0107358 	0.00168315 	-0.000487623 	-0.251833
0.010786 	0.00168458 	-0.000477799 	-0.251107
0.010786 	0.00168458 	-0.000477799 	-0.251107
0.0108361 	0.00168602 	-0.00046797 	-0.250381
0.0108361 	0.00168602 	-0.00046797 	-0.250381
0.0108863 	0.00168852 	-0.00045718 	-0.249605
0.0109365 	0.00169102 	-0.000446391 	-0.248828
0.0109365 	0.00169102 	-0.000446391 	-0.248828
0.0109866 	0.00169315 	-0.000438073 	-0.248033
0.0109866 	0.00169315 	-0.000438073 	-0.248033
0.0110368 	0.0016951 	-0.000430881 	-0.24723
0.011087 	0.00169649 	-0.000423915 	-0.246421
0.011087 	0.00169649 	-0.000423915 	-0.246421
0.0111371 	0.00169704 	-0.000417277 	-0.245603
0.0111873 	0.00169736 	-0.000410476 	-0.244783
0.0111873 	0.00169736 	-0.000410476 	-0.244783
0.0112375 	0.00169654 	-0.000402875 	-0.243949
0.0112876 	0.00169573 	-0.000395275 	-0.243115
0.0112876 	0.00169573 	-0.000395275 	-0.243115
0.0113378 	0.00169361 	-0.000387882 	-0.242261
0.011388 	0.00169146 	-0.000380495 	-0.241407
0.011388 	0.00169146 	-0.000380495 	-0.241407
0.0114883 	0.00168322 	-0.00036603 	-0.239657
0.0114883 	0.00168322 	-0.00036603 	-0.239657
0.0115385 	0.00167659 	-0.000358879 	-0.238762
0.0115886 	0.00166891 	-0.000351757 	-0.237858
0.0115886 	0.00166891 	-0.000351757 	-0.237858
0.0116388 	0.00165924 	-0.000343915 	-0.236936
0.011689 	0.00164826 	-0.000335599 	-0.236002
0.011689 	0.00164826 	-0.000335599 	-0.236002
0.0117391 	0.00163649 	-0.000326092 	-0.235049
0.0117893 	0.00162411 	-0.000315626 	-0.23408
0.0117893 	0.00162411 	-0.000315626 	-0.23408
0.0118395 	0.00161232 	-0.000307554 	-0.233089
0.0118896 	0.00160104 	-0.000301502 	-0.232078
0.0118896 	0.00160104 	-0.000301502 	-0.232078
0.0119398 	0.00159104 	-0.000299854 	-0.23103
0.0119398 	0.00159104 	-0.000299854 	-0.23103
0.01199 	0.00158203 	-0.000301593 	-0.229952
0.01199 	0.00158203 	-0.000301593 	-0.229952
0.0120401 	0.00157386 	-0.000299345 	-0.2288
0.0120401 	0.00157386 	-0.000299345 	-0.2288
0.0120903 	0.00156619 	-0.000294689 	-0.227602
0.0120903 	0.00156619 	-0.000294689 	-0.227602
0.0121405 	0.00155811 	-0.000279714 	-0.226278
0.0121405 	0.00155811 	-0.000279714 	-0.226278
0.0121906 	0.00154986 	-0.000260642 	-0.224904
0.0121906 	0.00154986 	-0.000260642 	-0.224904
0.0122408 	0.00153901 	-0.00023764 	-0.223397
0.0122408 	0.00153901 	-0.00023764 	-0.223397
0.012291 	0.00152766 	-0.000213909 	-0.221865
0.012291 	0.00152766 	-0.000213909 	-0.221865
0.0123411 	0.00151077 	-0.000207221 	-0.220351
0.0123411 	0.00151077 	-0.000207221 	-0.220351
0.0123913 	0.00149298 	-0.000204348 	-0.218864
0.0123913 	0.00149298 	-0.000204348 	-0.218864
0.0124415 	0.00147135 	-0.000217538 	-0.217488
0.0124916 	0.00144891 	-0.000228093 	-0.216137
0.0124916 	0.00144891 	-0.000228093 	-0.216137
0.012592 	0.0014011 	-0.000231402 	-0.21347
0.012592 	0.0014011 	-0.000231402 	-0.21347
0.0126421 	0.0013765 	-0.00022275 	-0.212105
0.0126923 	0.00135034 	-0.00020969 	-0.210664
0.0126923 	0.00135034 	-0.00020969 	-0.210664
0.0127425 	0.00132354 	-0.000197708 	-0.209199
0.0127425 	0.00132354 	-0.000197708 	-0.209199
0.0127926 	0.00129526 	-0.000189199 	-0.207681
0.0128428 	0.00126579 	-0.000183511 	-0.206124
0.0128428 	0.00126579 	-0.000183511 	-0.206124
0.012893 	0.00123559 	-0.000179585 	-0.204542
0.0129431 	0.00120363 	-0.000175707 	-0.20289
0.0129431 	0.00120363 	-0.000175707 	-0.20289
0.0129933 	0.00117098 	-0.00017155 	-0.201207
0.0130435 	0.00113731 	-0.000166962 	-0.199476
0.0130435 	0.00113731 	-0.000166962 	-0.199476
0.0130936 	0.00110231 	-0.000162486 	-0.197674
0.0131438 	0.00106661 	-0.00015822 	-0.195829
0.0131438 	0.00106661 	-0.00015822 	-0.195829
0.013194 	0.00102989 	-0.000154423 	-0.193914
0.0132441 	0.000992302 	-0.000150885 	-0.191918
0.0132441 	0.000992302 	-0.000150885 	-0.191918
0.0132943 	0.000954226 	-0.000147395 	-0.189865
0.0133445 	0.000915553 	-0.000143827 	-0.187727
0.0133445 	0.000915553 	-0.000143827 	-0.187727
0.0133946 	0.000876228 	-0.000139723 	-0.185483
0.0134448 	0.000836323 	-0.000135283 	-0.183159
0.0134448 	0.000836323 	-0.000135283 	-0.183159
0.013495 	0.000795719 	-0.000130492 	-0.180745
0.0135452 	0.000753364 	-0.000126342 	-0.17817
0.0135452 	0.000753364 	-0.000126342 	-0.17817
0.0136455 	0.000664003 	-0.000119368 	-0.172667
0.0136455 	0.000664003 	-0.000119368 	-0.172667
0.0136957 	0.000616215 	-0.000116215 	-0.169687
0.0137458 	0.000565468 	-0.000112783 	-0.166486
0.0137458 	0.000565468 	-0.000112783 	-0.166486
0.013796 	0.000512314 	-0.000108983 	-0.163095
0.0138462 	0.00045668 	-0.00010493 	-0.159494
0.0138462 	0.00045668 	-0.00010493 	-0.159494
0.0138963 	0.000398556 	-0.00010086 	-0.155662
0.0138963 	0.000398556 	-0.00010086 	-0.155662
0.0139465 	0.000337751 	-9.69036e-05 	-0.151494
0.0139967 	0.00027575 	-9.27621e-05 	-0.147039
0.0139967 	0.00027575 	-9.27621e-05 	-0.147039
0.0140468 	0.000213305 	-8.82702e-05 	-0.14228
0.0140468 	0.000213305 	-8.82702e-05 	-0.14228
0.014097 	0.000151128 	-8.34021e-05 	-0.137191
0.0141472 	8.99664e-05 	-7.83355e-05 	-0.131743
0.0141973 	3.06801e-05 	-7.35325e-05 	-0.125908
0.0141973 	3.06801e-05 	-7.35325e-05 	-0.125908
0.0142475 	-2.45321e-05 	-6.90482e-05 	-0.11959
0.0142977 	-7.43484e-05 	-6.43168e-05 	-0.11283
0.0143478 	-0.000117361 	-5.89264e-05 	-0.105618
0.0143478 	-0.000117361 	-5.89264e-05 	-0.105618
0.014398 	-0.000152509 	-5.3021e-05 	-0.0979623
0.014398 	-0.000152509 	-5.3021e-05 	-0.0979623
0.0144482 	-0.000179389 	-4.71462e-05 	-0.0898997
0.0144983 	-0.000197996 	-4.15192e-05 	-0.081502
0.0144983 	-0.000197996 	-4.15192e-05 	-0.081502
0.0145485 	-0.000208408 	-3.59917e-05 	-0.072873
0.0145987 	-0.000210723 	-3.05412e-05 	-0.0641373
0.0145987 	-0.000210723 	-3.05412e-05 	-0.0641373
0.0146488 	-0.000204992 	-2.52493e-05 	-0.0554199
0.014699 	-0.000190904 	-2.00849e-05 	-0.0468247
0.014699 	-0.000190904 	-2.00849e-05 	-0.0468247
0.0147492 	-0.000167415 	-1.50434e-05 	-0.0384221
0.0147993 	-0.000132146 	-1.03703e-05 	-0.030252
0.0147993 	-0.000132146 	-1.03703e-05 	-0.030252
0.0148495 	-8.02406e-05 	-5.59581e-06 	-0.0223299
0.0148495 	-8.02406e-05 	-5.59581e-06 	-0.0223299
0.0148997 	-1.69777e-05 	-2.18911e-06 	-0.0146593
0.0148997 	-1.69777e-05 	-2.18911e-06 	-0.0146593
0.0149498 	2.11629e-05 	-7.02897e-07 	-0.00724505
0.0149498 	2.11629e-05 	-7.02897e-07 	-0.00724505
0.015 	0 	0 	0
