-0.0075 	0 	0 	0
-0.0075 	3.04498e-22 	-3.43648e-22 	1.42924e-18
-0.00745622 	-1.96622e-06 	2.21902e-06 	-0.00922896
-0.00745622 	-1.96622e-06 	2.21902e-06 	-0.00922896
-0.00741165 	-4.97553e-06 	7.82813e-06 	-0.0186549
-0.00741165 	-4.97553e-06 	7.82813e-06 	-0.0186549
-0.00736628 	-9.34098e-06 	1.71237e-05 	-0.0282667
-0.00736628 	-9.34098e-06 	1.71237e-05 	-0.0282667
-0.0073201 	-1.52359e-05 	3.00035e-05 	-0.0380081
-0.0073201 	-1.52359e-05 	3.00035e-05 	-0.0380081
-0.00727309 	-2.27063e-05 	4.61921e-05 	-0.0478206
-0.00727309 	-2.27063e-05 	4.61921e-05 	-0.0478206
-0.00722524 	-3.16595e-05 	6.5451e-05 	-0.0576459
-0.00722524 	-3.16595e-05 	6.5451e-05 	-0.0576459
-0.00717653 	-4.18601e-05 	8.75347e-05 	-0.0674284
-0.00717653 	-4.18601e-05 	8.75347e-05 	-0.0674284
-0.00712695 	-5.29391e-05 	0.000112188 	-0.0771181
-0.00712695 	-5.29391e-05 	0.000112188 	-0.0771181
-0.00707647 	-6.44099e-05 	0.000139156 	-0.0866736
-0.00707647 	-6.44099e-05 	0.000139156 	-0.0866736
-0.0070251 	-7.56914e-05 	0.000168199 	-0.0960635
-0.0070251 	-7.56914e-05 	0.000168199 	-0.0960635
-0.0069728 	-8.61315e-05 	0.000199101 	-0.105266
-0.0069728 	-8.61315e-05 	0.000199101 	-0.105266
-0.00691956 	-9.50316e-05 	0.000231686 	-0.11427
-0.00691956 	-9.50316e-05 	0.000231686 	-0.11427
-0.00686537 	-0.000101669 	0.00026582 	-0.12307
-0.00686537 	-0.000101669 	0.00026582 	-0.12307
-0.00681021 	-0.000105319 	0.000301406 	-0.131664
-0.00681021 	-0.000105319 	0.000301406 	-0.131664
-0.00675406 	-0.000105287 	0.000338381 	-0.140052
-0.00675406 	-0.000105287 	0.000338381 	-0.140052
-0.0066969 	-0.00010094 	0.000376706 	-0.148231
-0.0066969 	-0.00010094 	0.000376706 	-0.148231
-0.00663871 	-9.17519e-05 	0.000416349 	-0.156198
-0.00663871 	-9.17519e-05 	0.000416349 	-0.156198
-0.00657949 	-7.73488e-05 	0.000457266 	-0.163946
-0.00657949 	-7.73488e-05 	0.000457266 	-0.163946
-0.0065192 	-5.75596e-05 	0.000499387 	-0.171464
-0.0065192 	-5.75596e-05 	0.000499387 	-0.171464
-0.00645783 	-3.24601e-05 	0.000542603 	-0.178738
-0.00645783 	-3.24601e-05 	0.000542603 	-0.178738
-0.00639535 	-2.40407e-06 	0.00058676 	-0.185748
-0.00639535 	-2.40407e-06 	0.00058676 	-0.185748
-0.00633176 	3.19653e-05 	0.00063166 	-0.192478
-0.00633176 	3.19653e-05 	0.00063166 	-0.192478
-0.00626703 	6.97268e-05 	0.000677058 	-0.198906
-0.00626703 	6.97268e-05 	0.000677058 	-0.198906
-0.00620114 	0.000109718 	0.000722665 	-0.205016
-0.00620114 	0.000109718 	0.000722665 	-0.205016
-0.00613406 	0.000150594 	0.000768153 	-0.210788
-0.00613406 	0.000150594 	0.000768153 	-0.210788
-0.00606579 	0.000190898 	0.000813155 	-0.21621
-0.00606579 	0.000190898 	0.000813155 	-0.21621
-0.00599629 	0.000229154 	0.000857278 	-0.221267
-0.00599629 	0.000229154 	0.000857278 	-0.221267
-0.00592554 	0.000263946 	0.000900103 	-0.22595
-0.00592554 	0.000263946 	0.000900103 	-0.22595
-0.00585352 	0.000294001 	0.000941198 	-0.230254
-0.00585352 	0.000294001 	0.000941198 	-0.230254
-0.00578022 	0.00031826 	0.000980126 	-0.234175
-0.00578022 	0.00031826 	0.000980126 	-0.234175
-0.00570559 	0.000335925 	0.00101646 	-0.237716
-0.00570559 	0.000335925 	0.00101646 	-0.237716
-0.00562963 	0.00034649 	0.00104979 	-0.24088
-0.00562963 	0.00034649 	0.00104979 	-0.24088
-0.00555231 	0.000349747 	0.00107974 	-0.243677
-0.00555231 	0.000349747 	0.00107974 	-0.243677
-0.0054736 	0.000345776 	0.00110599 	-0.24612
-0.0054736 	0.000345776 	0.00110599 	-0.24612
-0.00539348 	0.00033491 	0.00112829 	-0.248225
-0.00539348 	0.00033491 	0.00112829 	-0.248225
-0.00531193 	0.000317707 	0.00114643 	-0.250011
-0.00531193 	0.000317707 	0.00114643 	-0.250011
-0.00522891 	0.000294903 	0.00116032 	-0.251502
-0.00522891 	0.000294903 	0.00116032 	-0.251502
-0.0051444 	0.000267357 	0.00116993 	-0.252722
-0.0051444 	0.000267357 	0.00116993 	-0.252722
-0.00505838 	0.00023597 	0.00117537 	-0.253701
-0.00505838 	0.00023597 	0.00117537 	-0.253701
-0.00497081 	0.000201668 	0.00117679 	-0.254468
-0.00497081 	0.000201668 	0.00117679 	-0.254468
-0.00488168 	0.0001654 	0.00117443 	-0.25505
-0.00488168 	0.0001654 	0.00117443 	-0.25505
-0.00479094 	0.000128083 	0.00116856 	-0.255477
-0.00479094 	0.000128083 	0.00116856 	-0.255477
-0.00469858 	9.05554e-05 	0.00115953 	-0.255773
-0.00469858 	9.05554e-05 	0.00115953 	-0.255773
-0.00460456 	5.35567e-05 	0.00114768 	-0.255966
-0.00460456 	5.35567e-05 	0.00114768 	-0.255966
-0.00450886 	1.77114e-05 	0.0011334 	-0.256075
-0.00450886 	1.77114e-05 	0.0011334 	-0.256075
-0.00441144 	-1.64804e-05 	0.00111703 	-0.256122
-0.00441144 	-1.64804e-05 	0.00111703 	-0.256122
-0.00431227 	-4.86415e-05 	0.0010989 	-0.256122
-0.00431227 	-4.86415e-05 	0.0010989 	-0.256122
-0.00421133 	-7.85012e-05 	0.0010793 	-0.256087
-0.00421133 	-7.85012e-05 	0.0010793 	-0.256087
-0.00410857 	-0.000105872 	0.00105851 	-0.256027
-0.00410857 	-0.000105872 	0.00105851 	-0.256027
-0.00400397 	-0.000130624 	0.00103674 	-0.255951
-0.00400397 	-0.000130624 	0.00103674 	-0.255951
-0.0038975 	-0.000152651 	0.00101413 	-0.255862
-0.0038975 	-0.000152651 	0.00101413 	-0.255862
-0.00378912 	-0.000171834 	0.00099082 	-0.255764
-0.00378912 	-0.000171834 	0.00099082 	-0.255764
-0.00367879 	-0.000188026 	0.00096692 	-0.255662
-0.00367879 	-0.000188026 	0.00096692 	-0.255662
-0.00356649 	-0.000201026 	0.000942546 	-0.255555
-0.00356649 	-0.000201026 	0.000942546 	-0.255555
-0.00345217 	-0.000210546 	0.000917779 	-0.255446
-0.00345217 	-0.000210546 	0.000917779 	-0.255446
-0.0033358 	-0.000216292 	0.000892737 	-0.255337
-0.0033358 	-0.000216292 	0.000892737 	-0.255337
-0.00321735 	-0.000218116 	0.000867622 	-0.25523
-0.00321735 	-0.000218116 	0.000867622 	-0.25523
-0.00309677 	-0.000216051 	0.000842598 	-0.255128
-0.00309677 	-0.000216051 	0.000842598 	-0.255128
-0.00297403 	-0.00021026 	0.00081778 	-0.255032
-0.00297403 	-0.00021026 	0.00081778 	-0.255032
-0.00284909 	-0.00020088 	0.000793237 	-0.254944
-0.00284909 	-0.00020088 	0.000793237 	-0.254944
-0.0027219 	-0.000187917 	0.000768948 	-0.254864
-0.0027219 	-0.000187917 	0.000768948 	-0.254864
-0.00259244 	-0.000171416 	0.00074495 	-0.254792
-0.00259244 	-0.000171416 	0.00074495 	-0.254792
-0.00246065 	-0.000151462 	0.000721276 	-0.254728
-0.00246065 	-0.000151462 	0.000721276 	-0.254728
-0.00232651 	-0.000128086 	0.000697827 	-0.254671
-0.00232651 	-0.000128086 	0.000697827 	-0.254671
-0.00218995 	-0.000101419 	0.000674521 	-0.254621
-0.00218995 	-0.000101419 	0.000674521 	-0.254621
-0.00205095 	-7.17501e-05 	0.000651288 	-0.254579
-0.00205095 	-7.17501e-05 	0.000651288 	-0.254579
-0.00190946 	-3.94653e-05 	0.000628001 	-0.254544
-0.00190946 	-3.94653e-05 	0.000628001 	-0.254544
-0.00176543 	-5.03658e-06 	0.000604501 	-0.254516
-0.00176543 	-5.03658e-06 	0.000604501 	-0.254516
-0.00161881 	3.0995e-05 	0.00058061 	-0.254495
-0.00161881 	3.0995e-05 	0.00058061 	-0.254495
-0.00146957 	6.80411e-05 	0.000556129 	-0.254481
-0.00146957 	6.80411e-05 	0.000556129 	-0.254481
-0.00131765 	0.000105487 	0.000530844 	-0.254473
-0.00131765 	0.000105487 	0.000530844 	-0.254473
-0.001163 	0.000142693 	0.00050453 	-0.254472
-0.001163 	0.000142693 	0.00050453 	-0.254472
-0.00100559 	0.000178994 	0.000476958 	-0.254476
-0.00100559 	0.000178994 	0.000476958 	-0.254476
-0.000845345 	0.000213716 	0.000447904 	-0.254486
-0.000845345 	0.000213716 	0.000447904 	-0.254486
-0.000682232 	0.0002462 	0.00041715 	-0.2545
-0.000682232 	0.0002462 	0.00041715 	-0.2545
-0.000516194 	0.000275826 	0.000384487 	-0.254519
-0.000516194 	0.000275826 	0.000384487 	-0.254519
-0.000347178 	0.000302025 	0.000349718 	-0.254542
-0.000347178 	0.000302025 	0.000349718 	-0.254542
-0.000175132 	0.000324293 	0.000312657 	-0.25457
-0.000175132 	0.000324293 	0.000312657 	-0.25457
0 	0.000342133 	0.000273309 	-0.254602
0 	0.000342133 	0.000273309 	-0.254602
0.000175132 	0.000355124 	0.000232105 	-0.254638
0.000175132 	0.000355124 	0.000232105 	-0.254638
0.000347178 	0.000363196 	0.000189592 	-0.254678
0.000347178 	0.000363196 	0.000189592 	-0.254678
0.000516194 	0.000366627 	0.000146017 	-0.254723
0.000516194 	0.000366627 	0.000146017 	-0.254723
0.000682232 	0.000365823 	0.000101452 	-0.254772
0.000682232 	0.000365823 	0.000101452 	-0.254772
0.000845345 	0.000361228 	5.59666e-05 	-0.254826
0.000845345 	0.000361228 	5.59666e-05 	-0.254826
0.00100559 	0.000353299 	9.67043e-06 	-0.254885
0.00100559 	0.000353299 	9.67043e-06 	-0.254885
0.001163 	0.000342498 	-3.72543e-05 	-0.25495
0.001163 	0.000342498 	-3.72543e-05 	-0.25495
0.00131765 	0.000329291 	-8.46907e-05 	-0.255022
0.00131765 	0.000329291 	-8.46907e-05 	-0.255022
0.00146957 	0.000314082 	-0.000132556 	-0.255101
0.00146957 	0.000314082 	-0.000132556 	-0.255101
0.00161881 	0.000297156 	-0.000180643 	-0.255189
0.00161881 	0.000297156 	-0.000180643 	-0.255189
0.00176543 	0.000278758 	-0.000228769 	-0.255286
0.00176543 	0.000278758 	-0.000228769 	-0.255286
0.00190946 	0.000259166 	-0.000276843 	-0.255393
0.00190946 	0.000259166 	-0.000276843 	-0.255393
0.00205095 	0.000238683 	-0.000324684 	-0.255513
0.00205095 	0.000238683 	-0.000324684 	-0.255513
0.00218995 	0.000217611 	-0.000372076 	-0.255644
0.00218995 	0.000217611 	-0.000372076 	-0.255644
0.00232651 	0.000196267 	-0.00041884 	-0.255787
0.00232651 	0.000196267 	-0.00041884 	-0.255787
0.00246065 	0.000174969 	-0.000464795 	-0.255942
0.00246065 	0.000174969 	-0.000464795 	-0.255942
0.00259244 	0.000154028 	-0.000509762 	-0.256109
0.00259244 	0.000154028 	-0.000509762 	-0.256109
0.0027219 	0.000133742 	-0.000553577 	-0.256287
0.0027219 	0.000133742 	-0.000553577 	-0.256287
0.00284909 	0.000114385 	-0.000596102 	-0.256475
0.00284909 	0.000114385 	-0.000596102 	-0.256475
0.00297403 	9.61935e-05 	-0.000637224 	-0.256671
0.00297403 	9.61935e-05 	-0.000637224 	-0.256671
0.00309677 	7.9343e-05 	-0.000676849 	-0.256873
0.00309677 	7.9343e-05 	-0.000676849 	-0.256873
0.00321735 	6.38946e-05 	-0.000714899 	-0.25708
0.00321735 	6.38946e-05 	-0.000714899 	-0.25708
0.0033358 	4.97292e-05 	-0.000751332 	-0.257286
0.0033358 	4.97292e-05 	-0.000751332 	-0.257286
0.00345217 	3.64847e-05 	-0.000786194 	-0.257486
0.00345217 	3.64847e-05 	-0.000786194 	-0.257486
0.00356649 	2.35624e-05 	-0.000819533 	-0.257674
0.00356649 	2.35624e-05 	-0.000819533 	-0.257674
0.00367879 	1.04076e-05 	-0.000851059 	-0.257842
0.00367879 	1.04076e-05 	-0.000851059 	-0.257842
0.00378912 	-2.84061e-06 	-0.000880889 	-0.257991
0.00378912 	-2.84061e-06 	-0.000880889 	-0.257991
0.0038975 	-1.54991e-05 	-0.000909783 	-0.258122
0.0038975 	-1.54991e-05 	-0.000909783 	-0.258122
0.00400397 	-2.72331e-05 	-0.000937853 	-0.258232
0.00400397 	-2.72331e-05 	-0.000937853 	-0.258232
0.00410857 	-3.80208e-05 	-0.000964844 	-0.258316
0.00410857 	-3.80208e-05 	-0.000964844 	-0.258316
0.00421133 	-4.77808e-05 	-0.000990741 	-0.258363
0.00421133 	-4.77808e-05 	-0.000990741 	-0.258363
0.00431227 	-5.63907e-05 	-0.00101545 	-0.25836
0.00431227 	-5.63907e-05 	-0.00101545 	-0.25836
0.00441144 	-6.37087e-05 	-0.00103873 	-0.258288
0.00441144 	-6.37087e-05 	-0.00103873 	-0.258288
0.00450886 	-6.95813e-05 	-0.00106028 	-0.258126
0.00450886 	-6.95813e-05 	-0.00106028 	-0.258126
0.00460456 	-7.38448e-05 	-0.00107968 	-0.257845
0.00460456 	-7.38448e-05 	-0.00107968 	-0.257845
0.00469858 	-7.63324e-05 	-0.00109648 	-0.257415
0.00469858 	-7.63324e-05 	-0.00109648 	-0.257415
0.00479094 	-7.68962e-05 	-0.00111015 	-0.256801
0.00479094 	-7.68962e-05 	-0.00111015 	-0.256801
0.00488168 	-7.5434e-05 	-0.00112016 	-0.255966
0.00488168 	-7.5434e-05 	-0.00112016 	-0.255966
0.00497081 	-7.18878e-05 	-0.00112595 	-0.254871
0.00497081 	-7.18878e-05 	-0.00112595 	-0.254871
0.00505838 	-6.62436e-05 	-0.00112704 	-0.253476
0.00505838 	-6.62436e-05 	-0.00112704 	-0.253476
0.0051444 	-5.85895e-05 	-0.001123 	-0.251743
0.0051444 	-5.85895e-05 	-0.001123 	-0.251743
0.00522891 	-4.91502e-05 	-0.00111351 	-0.24964
0.00522891 	-4.91502e-05 	-0.00111351 	-0.24964
0.00531193 	-3.82669e-05 	-0.00109844 	-0.247139
0.00531193 	-3.82669e-05 	-0.00109844 	-0.247139
0.00539348 	-2.63807e-05 	-0.00107775 	-0.244216
0.00539348 	-2.63807e-05 	-0.00107775 	-0.244216
0.0054736 	-1.40138e-05 	-0.00105156 	-0.240856
0.0054736 	-1.40138e-05 	-0.00105156 	-0.240856
0.00555231 	-1.74121e-06 	-0.00102011 	-0.237047
0.00555231 	-1.74121e-06 	-0.00102011 	-0.237047
0.00562963 	9.84691e-06 	-0.000983781 	-0.232787
0.00562963 	9.84691e-06 	-0.000983781 	-0.232787
0.00570559 	2.01856e-05 	-0.000943059 	-0.228078
0.00570559 	2.01856e-05 	-0.000943059 	-0.228078
0.00578022 	2.87765e-05 	-0.000898515 	-0.22293
0.00578022 	2.87765e-05 	-0.000898515 	-0.22293
0.00585352 	3.5225e-05 	-0.000850785 	-0.217359
0.00585352 	3.5225e-05 	-0.000850785 	-0.217359
0.00592554 	3.92703e-05 	-0.000800533 	-0.211383
0.00592554 	3.92703e-05 	-0.000800533 	-0.211383
0.00599629 	4.08033e-05 	-0.000748434 	-0.205025
0.00599629 	4.08033e-05 	-0.000748434 	-0.205025
0.00606579 	3.98704e-05 	-0.000695149 	-0.19831
0.00606579 	3.98704e-05 	-0.000695149 	-0.19831
0.00613406 	3.66658e-05 	-0.000641326 	-0.191266
0.00613406 	3.66658e-05 	-0.000641326 	-0.191266
0.00620114 	3.15128e-05 	-0.00058758 	-0.183924
0.00620114 	3.15128e-05 	-0.00058758 	-0.183924
0.00626703 	2.48349e-05 	-0.000534487 	-0.176316
0.00626703 	2.48349e-05 	-0.000534487 	-0.176316
0.00633176 	1.7119e-05 	-0.000482578 	-0.168476
0.00633176 	1.7119e-05 	-0.000482578 	-0.168476
0.00639535 	8.87452e-06 	-0.000432326 	-0.160436
0.00639535 	8.87452e-06 	-0.000432326 	-0.160436
0.00645783 	5.93338e-07 	-0.000384148 	-0.152231
0.00645783 	5.93338e-07 	-0.000384148 	-0.152231
0.0065192 	-7.28467e-06 	-0.000338397 	-0.143895
0.0065192 	-7.28467e-06 	-0.000338397 	-0.143895
0.00657949 	-1.43979e-05 	-0.000295368 	-0.135462
0.00657949 	-1.43979e-05 	-0.000295368 	-0.135462
0.00663871 	-2.04793e-05 	-0.000255291 	-0.126965
0.00663871 	-2.04793e-05 	-0.000255291 	-0.126965
0.0066969 	-2.53616e-05 	-0.000218337 	-0.118441
0.0066969 	-2.53616e-05 	-0.000218337 	-0.118441
0.00675406 	-2.89746e-05 	-0.000184613 	-0.109922
0.00675406 	-2.89746e-05 	-0.000184613 	-0.109922
0.00681021 	-3.13327e-05 	-0.000154163 	-0.101445
0.00681021 	-3.13327e-05 	-0.000154163 	-0.101445
0.00686537 	-3.25178e-05 	-0.000126982 	-0.0930447
0.00686537 	-3.25178e-05 	-0.000126982 	-0.0930447
0.00691956 	-3.2659e-05 	-0.000103013 	-0.0847551
0.00691956 	-3.2659e-05 	-0.000103013 	-0.0847551
0.0069728 	-3.1913e-05 	-8.21513e-05 	-0.0766084
0.0069728 	-3.1913e-05 	-8.21513e-05 	-0.0766084
0.0070251 	-3.04441e-05 	-6.42457e-05 	-0.0686313
0.0070251 	-3.04441e-05 	-6.42457e-05 	-0.0686313
0.00707647 	-2.8409e-05 	-4.91095e-05 	-0.0608442
0.00707647 	-2.8409e-05 	-4.91095e-05 	-0.0608442
0.00712695 	-2.59461e-05 	-3.65278e-05 	-0.0532611
0.00712695 	-2.59461e-05 	-3.65278e-05 	-0.0532611
0.00717653 	-2.31697e-05 	-2.62679e-05 	-0.0458895
0.00717653 	-2.31697e-05 	-2.62679e-05 	-0.0458895
0.00722524 	-2.01694e-05 	-1.80888e-05 	-0.0387319
0.00722524 	-2.01694e-05 	-1.80888e-05 	-0.0387319
0.00727309 	-1.70113e-05 	-1.17492e-05 	-0.0317867
0.00727309 	-1.70113e-05 	-1.17492e-05 	-0.0317867
0.0073201 	-1.37416e-05 	-7.01768e-06 	-0.0250491
0.0073201 	-1.37416e-05 	-7.01768e-06 	-0.0250491
0.00736628 	-1.03912e-05 	-3.67132e-06 	-0.0185124
0.00736628 	-1.03912e-05 	-3.67132e-06 	-0.0185124
0.00741165 	-6.97963e-06 	-1.53001e-06 	-0.0121688
0.00741165 	-6.97963e-06 	-1.53001e-06 	-0.0121688
0.00745622 	-3.51892e-06 	-3.86879e-07 	-0.00600981
0.00745622 	-3.51892e-06 	-3.86879e-07 	-0.00600981
0.0075 	0 	0 	0
0.0075 	0 	0 	0
