0 	0 	0 	0
5.01672e-05 	-0.00018306 	-3.46969e-06 	0.0166416
0.000100334 	-0.000241194 	-8.48536e-06 	0.0322415
0.000150502 	-0.000267028 	-1.52795e-05 	0.0466178
0.000200669 	-0.00031083 	-2.33675e-05 	0.0597997
0.000250836 	-0.000366675 	-3.28854e-05 	0.071956
0.000301003 	-0.000422689 	-4.37963e-05 	0.0832025
0.000351171 	-0.000473426 	-5.6026e-05 	0.0936108
0.000401338 	-0.000516085 	-6.942e-05 	0.103231
0.000451505 	-0.000549402 	-8.37719e-05 	0.112101
0.000501672 	-0.000573242 	-9.88981e-05 	0.120256
0.000551839 	-0.000588255 	-0.000114643 	0.127738
0.000602007 	-0.000595512 	-0.000130894 	0.134602
0.000652174 	-0.000596224 	-0.000147544 	0.140905
0.000702341 	-0.000591569 	-0.000164472 	0.146705
0.000752508 	-0.000582601 	-0.000181594 	0.152055
0.000802676 	-0.000570199 	-0.000198893 	0.157
0.000852843 	-0.000554855 	-0.000216284 	0.161528
0.00090301 	-0.000537745 	-0.000233659 	0.165742
0.000953177 	-0.000519437 	-0.000250967 	0.169675
0.00100334 	-0.000500414 	-0.000268178 	0.173357
0.00105351 	-0.000481082 	-0.000285268 	0.176814
0.00110368 	-0.000461784 	-0.000302217 	0.180063
0.00115385 	-0.000443045 	-0.00031892 	0.183077
0.00120401 	-0.000425037 	-0.000335386 	0.185933
0.00125418 	-0.000407894 	-0.000351589 	0.188646
0.00130435 	-0.000391716 	-0.00036751 	0.191228
0.00135452 	-0.000376993 	-0.000383011 	0.193655
0.00140468 	-0.000363672 	-0.000398101 	0.19596
0.00145485 	-0.00035154 	-0.000412846 	0.198171
0.00150502 	-0.000340567 	-0.000427256 	0.200295
0.00155518 	-0.000331388 	-0.00044117 	0.202293
0.00160535 	-0.000323251 	-0.000454768 	0.20422
0.00165552 	-0.00031604 	-0.000468073 	0.206084
0.00170569 	-0.000310076 	-0.000480936 	0.207864
0.00175585 	-0.000305131 	-0.00049339 	0.209577
0.00180602 	-0.000300906 	-0.000505555 	0.211245
0.00185619 	-0.000297752 	-0.000517288 	0.212848
0.00190635 	-0.000295631 	-0.000528652 	0.214397
0.00195652 	-0.000294188 	-0.000539785 	0.215911
0.00200669 	-0.000294006 	-0.000550512 	0.217366
0.00205686 	-0.000294799 	-0.000560939 	0.218781
0.00210702 	-0.00029624 	-0.000571166 	0.220169
0.00215719 	-0.0002993 	-0.000580906 	0.221497
0.00220736 	-0.000302967 	-0.000590458 	0.222802
0.00225753 	-0.000307606 	-0.00059971 	0.224073
0.00230769 	-0.000313317 	-0.000608648 	0.225304
0.00235786 	-0.000319495 	-0.000617452 	0.226518
0.00240803 	-0.000327153 	-0.000625887 	0.227682
0.00245819 	-0.000335454 	-0.00063415 	0.228829
0.00250836 	-0.000345059 	-0.000642062 	0.229942
0.00255853 	-0.000355847 	-0.000649518 	0.231027
0.0026087 	-0.000367474 	-0.000656648 	0.232093
0.00265886 	-0.000379498 	-0.000663114 	0.233137
0.00270903 	-0.000391617 	-0.000669422 	0.234176
0.0027592 	-0.000400497 	-0.000675566 	0.235209
0.00280936 	-0.000408358 	-0.000681802 	0.236241
0.00285953 	-0.000410818 	-0.000688528 	0.237266
0.0029097 	-0.000411849 	-0.000695266 	0.238277
0.00295987 	-0.000409285 	-0.000702035 	0.239255
0.00301003 	-0.000406617 	-0.000708474 	0.240204
0.0030602 	-0.000403775 	-0.000714365 	0.241106
0.00311037 	-0.000402309 	-0.000720008 	0.241976
0.00316054 	-0.000402633 	-0.00072533 	0.242806
0.0032107 	-0.000404417 	-0.00073058 	0.243613
0.00326087 	-0.000407928 	-0.000735746 	0.24439
0.00331104 	-0.000412151 	-0.000740834 	0.245154
0.0033612 	-0.000417261 	-0.000745825 	0.2459
0.00341137 	-0.000422718 	-0.000750852 	0.246642
0.00346154 	-0.0004287 	-0.000755932 	0.247378
0.00351171 	-0.000434983 	-0.000761022 	0.248113
0.00356187 	-0.000441926 	-0.000766134 	0.248846
0.00361204 	-0.000449095 	-0.000771214 	0.249574
0.00366221 	-0.000457225 	-0.000776157 	0.250282
0.00371237 	-0.000465395 	-0.000781109 	0.250988
0.00376254 	-0.000474882 	-0.000786321 	0.251643
0.00381271 	-0.000484369 	-0.000791533 	0.252299
0.00386288 	-0.000494712 	-0.000797284 	0.252909
0.00391304 	-0.00050523 	-0.000803145 	0.253511
0.00396321 	-0.000515876 	-0.000809013 	0.254088
0.00401338 	-0.000526611 	-0.000814885 	0.254648
0.00406355 	-0.000537332 	-0.000820331 	0.255201
0.00411371 	-0.000548023 	-0.00082484 	0.255739
0.00416388 	-0.000558714 	-0.00082935 	0.256276
0.00421405 	-0.000570281 	-0.000831647 	0.25681
0.00426421 	-0.000581854 	-0.000833931 	0.257345
0.00431438 	-0.000594367 	-0.00083604 	0.257881
0.00436455 	-0.000607426 	-0.000838047 	0.258418
0.00441472 	-0.000620457 	-0.00084064 	0.258951
0.00446488 	-0.000633398 	-0.000845207 	0.259466
0.00451505 	-0.00064634 	-0.000849773 	0.259981
0.00456522 	-0.000656989 	-0.000856282 	0.260451
0.00461538 	-0.000667 	-0.000863332 	0.260907
0.00466555 	-0.000675752 	-0.000870637 	0.261341
0.00471572 	-0.00068145 	-0.000878562 	0.261723
0.00476589 	-0.000687149 	-0.000886487 	0.262105
0.00481605 	-0.000690172 	-0.000893912 	0.262439
0.00486622 	-0.000692335 	-0.000901175 	0.262758
0.00491639 	-0.000694162 	-0.000908194 	0.263069
0.00496656 	-0.000694413 	-0.000914075 	0.263346
0.00501672 	-0.000694665 	-0.000919956 	0.263622
0.00506689 	-0.000694483 	-0.000925525 	0.263882
0.00511706 	-0.000693944 	-0.000930839 	0.264129
0.00516722 	-0.000693406 	-0.000936153 	0.264375
0.00521739 	-0.000692451 	-0.000941942 	0.264598
0.00526756 	-0.000691437 	-0.0009478 	0.264818
0.00531773 	-0.000690355 	-0.00095375 	0.265034
0.00536789 	-0.000688902 	-0.000960213 	0.265228
0.00541806 	-0.000687448 	-0.000966677 	0.265421
0.00546823 	-0.000685879 	-0.000973192 	0.265605
0.00551839 	-0.000684125 	-0.000979792 	0.265774
0.00556856 	-0.00068237 	-0.000986391 	0.265942
0.00561873 	-0.000680558 	-0.000992989 	0.266096
0.0056689 	-0.000678702 	-0.000999586 	0.26624
0.00571906 	-0.000676846 	-0.00100618 	0.266384
0.00576923 	-0.000675068 	-0.00101279 	0.266512
0.0058194 	-0.000673325 	-0.0010194 	0.266632
0.00586957 	-0.000671582 	-0.00102601 	0.266753
0.00591973 	-0.000670102 	-0.00103262 	0.266856
0.0059699 	-0.000668702 	-0.00103923 	0.266954
0.00602007 	-0.000667301 	-0.00104584 	0.267051
0.00607023 	-0.000666365 	-0.00105243 	0.267131
0.0061204 	-0.00066555 	-0.00105903 	0.267207
0.00617057 	-0.000664735 	-0.00106562 	0.267282
0.00622074 	-0.000664569 	-0.00107217 	0.267341
0.0062709 	-0.000664602 	-0.00107871 	0.267395
0.00632107 	-0.000664635 	-0.00108525 	0.267449
0.00637124 	-0.000665444 	-0.00109173 	0.267488
0.0064214 	-0.000666613 	-0.00109818 	0.26752
0.00647157 	-0.000667783 	-0.00110463 	0.267553
0.00652174 	-0.000669721 	-0.00111105 	0.267573
0.00657191 	-0.000672302 	-0.00111745 	0.267584
0.00662207 	-0.000674882 	-0.00112384 	0.267595
0.00667224 	-0.000678006 	-0.0011302 	0.267598
0.00672241 	-0.000682138 	-0.0011365 	0.267588
0.00677258 	-0.00068627 	-0.00114281 	0.267578
0.00682274 	-0.000690681 	-0.00114911 	0.267565
0.00687291 	-0.000697631 	-0.00115544 	0.26753
0.00692308 	-0.00070458 	-0.00116176 	0.267494
0.00697324 	-0.00071153 	-0.00116809 	0.267459
0.00702341 	-0.000723111 	-0.00117444 	0.26739
0.00707358 	-0.000735926 	-0.00118079 	0.267312
0.00712375 	-0.000748741 	-0.00118715 	0.267235
0.00717391 	-0.000764019 	-0.00119316 	0.267132
0.00722408 	-0.000782692 	-0.0011987 	0.266996
0.00727425 	-0.000801364 	-0.00120424 	0.266859
0.00732441 	-0.000820037 	-0.00120977 	0.266723
0.00737458 	-0.000838131 	-0.00121465 	0.266553
0.00742475 	-0.000856219 	-0.00121951 	0.266382
0.00747492 	-0.000874308 	-0.00122438 	0.266212
0.00752508 	-0.000889338 	-0.00122948 	0.266048
0.00757525 	-0.000901311 	-0.00123483 	0.265892
0.00762542 	-0.000913284 	-0.00124018 	0.265735
0.00767559 	-0.000925208 	-0.00124552 	0.265579
0.00772575 	-0.000931815 	-0.00125067 	0.265441
0.00777592 	-0.000938422 	-0.00125581 	0.265304
0.00782609 	-0.000945029 	-0.00126095 	0.265167
0.00787625 	-0.00095048 	-0.00126535 	0.265025
0.00792642 	-0.000955093 	-0.0012692 	0.26488
0.00797659 	-0.000959705 	-0.00127306 	0.264735
0.00802676 	-0.000964187 	-0.00127668 	0.264587
0.00807692 	-0.00096818 	-0.00127947 	0.264426
0.00812709 	-0.000972172 	-0.00128226 	0.264264
0.00817726 	-0.000976165 	-0.00128504 	0.264103
0.00822742 	-0.000979002 	-0.00128724 	0.263927
0.00827759 	-0.000981712 	-0.00128937 	0.263749
0.00832776 	-0.000984421 	-0.00129151 	0.263572
0.00837793 	-0.000986057 	-0.00129326 	0.263379
0.00842809 	-0.000987113 	-0.00129481 	0.263179
0.00847826 	-0.000988169 	-0.00129636 	0.262979
0.00852843 	-0.000988711 	-0.00129753 	0.262765
0.0085786 	-0.000988637 	-0.00129826 	0.262535
0.00862876 	-0.000988564 	-0.00129899 	0.262304
0.00867893 	-0.00098839 	-0.00129943 	0.262064
0.0087291 	-0.000988002 	-0.00129927 	0.261802
0.00877926 	-0.000987614 	-0.0012991 	0.261541
0.00882943 	-0.000987221 	-0.00129873 	0.261272
0.0088796 	-0.000986815 	-0.00129767 	0.260983
0.00892977 	-0.000986409 	-0.00129661 	0.260694
0.00897993 	-0.000985834 	-0.00129529 	0.260401
0.0090301 	-0.000984609 	-0.00129299 	0.260093
0.00908027 	-0.000983385 	-0.0012907 	0.259786
0.00913043 	-0.000981654 	-0.00128811 	0.259476
0.0091806 	-0.000978244 	-0.00128458 	0.259159
0.00923077 	-0.000974835 	-0.00128105 	0.258842
0.00928094 	-0.000970555 	-0.00127739 	0.258523
0.0093311 	-0.000964332 	-0.00127343 	0.2582
0.00938127 	-0.000958109 	-0.00126947 	0.257877
0.00943144 	-0.000950874 	-0.00126551 	0.257548
0.00948161 	-0.000942341 	-0.00126155 	0.257213
0.00953177 	-0.000933808 	-0.0012576 	0.256878
0.00958194 	-0.000924475 	-0.00125328 	0.256532
0.00963211 	-0.000914646 	-0.00124873 	0.256177
0.00968227 	-0.000904818 	-0.00124419 	0.255823
0.00973244 	-0.000894777 	-0.00123856 	0.255449
0.00978261 	-0.000884698 	-0.00123274 	0.255071
0.00983278 	-0.000874684 	-0.00122677 	0.25469
0.00988294 	-0.000865124 	-0.00121975 	0.254287
0.00993311 	-0.000855564 	-0.00121272 	0.253884
0.00998328 	-0.000846429 	-0.00120544 	0.253469
0.0100334 	-0.000837811 	-0.00119783 	0.253041
0.0100836 	-0.000829193 	-0.00119023 	0.252612
0.0101338 	-0.000822092 	-0.00118266 	0.252158
0.0101839 	-0.000815316 	-0.0011751 	0.251699
0.0102341 	-0.00080958 	-0.00116763 	0.251228
0.0102843 	-0.000807079 	-0.00116044 	0.250724
0.0103344 	-0.000804578 	-0.00115326 	0.25022
0.0103846 	-0.000807519 	-0.00114604 	0.249675
0.0104348 	-0.000812702 	-0.00113881 	0.249114
0.0104849 	-0.000819781 	-0.00113124 	0.24854
0.0105351 	-0.000833672 	-0.00112242 	0.247925
0.0105853 	-0.000847564 	-0.00111359 	0.24731
0.0106355 	-0.000864609 	-0.00110298 	0.246674
0.0106856 	-0.00088259 	-0.00109184 	0.246031
0.0107358 	-0.000899532 	-0.00108053 	0.245388
0.010786 	-0.000914683 	-0.00106892 	0.244744
0.0108361 	-0.000929803 	-0.00105731 	0.244101
0.0108863 	-0.000939987 	-0.00104647 	0.243458
0.0109365 	-0.000950171 	-0.00103564 	0.242815
0.0109866 	-0.000958272 	-0.00102468 	0.24216
0.0110368 	-0.000965423 	-0.00101365 	0.241498
0.011087 	-0.000971734 	-0.00100208 	0.240823
0.0111371 	-0.000976828 	-0.000989718 	0.240128
0.0111873 	-0.000981577 	-0.000977147 	0.239427
0.0112375 	-0.000984634 	-0.000963547 	0.238695
0.0112876 	-0.000987691 	-0.000949948 	0.237962
0.0113378 	-0.000989062 	-0.000936127 	0.237193
0.011388 	-0.000990381 	-0.000922298 	0.236423
0.0114381 	-0.000990587 	-0.00090815 	0.235621
0.0114883 	-0.000990532 	-0.000893927 	0.234813
0.0115385 	-0.000989676 	-0.000879061 	0.233977
0.0115886 	-0.000988455 	-0.000863903 	0.233129
0.0116388 	-0.000986599 	-0.000848574 	0.232255
0.011689 	-0.000984324 	-0.000833133 	0.231364
0.0117391 	-0.000981852 	-0.000818033 	0.230443
0.0117893 	-0.000979221 	-0.000803209 	0.229499
0.0118395 	-0.000977269 	-0.000788834 	0.228514
0.0118896 	-0.000975892 	-0.00077484 	0.227496
0.0119398 	-0.000976098 	-0.000760778 	0.226424
0.01199 	-0.000977521 	-0.000746664 	0.225312
0.0120401 	-0.000980559 	-0.000731553 	0.22414
0.0120903 	-0.000984571 	-0.000715839 	0.222932
0.0121405 	-0.00098869 	-0.000698685 	0.221672
0.0121906 	-0.00099285 	-0.00068096 	0.220391
0.0122408 	-0.000994687 	-0.000662568 	0.219074
0.012291 	-0.000996086 	-0.000644051 	0.21775
0.0123411 	-0.000993507 	-0.000626226 	0.216395
0.0123913 	-0.000990292 	-0.000608569 	0.21503
0.0124415 	-0.000984391 	-0.00059162 	0.21363
0.0124916 	-0.000977634 	-0.000574711 	0.212204
0.0125418 	-0.00096967 	-0.000557856 	0.21074
0.012592 	-0.000961131 	-0.000540594 	0.209221
0.0126421 	-0.000952308 	-0.000523131 	0.207676
0.0126923 	-0.000944007 	-0.000505167 	0.206036
0.0127425 	-0.000936249 	-0.000487211 	0.204358
0.0127926 	-0.000929893 	-0.000469341 	0.202588
0.0128428 	-0.000924851 	-0.000451599 	0.200729
0.012893 	-0.000920629 	-0.000433938 	0.198813
0.0129431 	-0.000916914 	-0.000416286 	0.196752
0.0129933 	-0.000912503 	-0.000398647 	0.194638
0.0130435 	-0.000907009 	-0.000381027 	0.192445
0.0130936 	-0.000899092 	-0.000363356 	0.190156
0.0131438 	-0.000889924 	-0.000345667 	0.187814
0.013194 	-0.000878898 	-0.000327959 	0.185387
0.0132441 	-0.000866678 	-0.000310443 	0.182857
0.0132943 	-0.000853902 	-0.000293115 	0.180251
0.0133445 	-0.000840629 	-0.000276117 	0.177533
0.0133946 	-0.000827018 	-0.000259538 	0.174668
0.0134448 	-0.000813087 	-0.000243245 	0.171693
0.013495 	-0.000798762 	-0.00022726 	0.168598
0.0135452 	-0.000783438 	-0.00021175 	0.165296
0.0135953 	-0.000767324 	-0.000196541 	0.161857
0.0136455 	-0.000750345 	-0.00018166 	0.158273
0.0136957 	-0.000732247 	-0.000167201 	0.154506
0.0137458 	-0.000712759 	-0.000153309 	0.150516
0.013796 	-0.000692151 	-0.000139914 	0.146346
0.0138462 	-0.000670348 	-0.000127063 	0.141985
0.0138963 	-0.000647275 	-0.0001148 	0.137419
0.0139465 	-0.000622403 	-0.000103331 	0.132565
0.0139967 	-0.000596014 	-9.25001e-05 	0.127474
0.0140468 	-0.000568041 	-8.23314e-05 	0.122138
0.014097 	-0.000538403 	-7.2855e-05 	0.116544
0.0141472 	-0.000507041 	-6.40898e-05 	0.110677
0.0141973 	-0.000473897 	-5.60401e-05 	0.10452
0.0142475 	-0.000438378 	-4.88016e-05 	0.0980032
0.0142977 	-0.000400355 	-4.22697e-05 	0.0911684
0.0143478 	-0.000359603 	-3.64487e-05 	0.0840387
0.014398 	-0.000316187 	-3.1292e-05 	0.0766609
0.0144482 	-0.000270547 	-2.67161e-05 	0.06911
0.0144983 	-0.000223531 	-2.26257e-05 	0.061488
0.0145485 	-0.000176384 	-1.89215e-05 	0.0539162
0.0145987 	-0.000130621 	-1.55087e-05 	0.0465189
0.0146488 	-8.78259e-05 	-1.23186e-05 	0.0394043
0.014699 	-4.94928e-05 	-9.32453e-06 	0.0326493
0.0147492 	-1.71552e-05 	-6.54465e-06 	0.0262939
0.0147993 	6.96703e-06 	-4.05115e-06 	0.0203435
0.0148495 	1.86046e-05 	-1.95675e-06 	0.0147595
0.0148997 	1.38739e-05 	-5.291e-07 	0.00947292
0.0149498 	7.11301e-07 	7.35866e-08 	0.00450787
0.015 	0 	0 	0
