0 	0 	0 	0
0 	0 	0 	0
0.00752508 	0.000621346 	-0.000284417 	-0.294051
0.00752508 	0.000621346 	-0.000284417 	-0.294051
0.00757525 	0.000614475 	-0.000281319 	-0.293706
0.00762542 	0.000607603 	-0.000278221 	-0.293361
0.00762542 	0.000607603 	-0.000278221 	-0.293361
0.00767559 	0.000600733 	-0.000275115 	-0.293016
0.00772575 	0.000594023 	-0.000271125 	-0.292605
0.00777592 	0.000587313 	-0.000267135 	-0.292194
0.00782609 	0.000580603 	-0.000263144 	-0.291782
0.00782609 	0.000580603 	-0.000263144 	-0.291782
0.00787625 	0.000573818 	-0.000258343 	-0.291343
0.00792642 	0.000566979 	-0.000252954 	-0.290884
0.00797659 	0.00056014 	-0.000247564 	-0.290425
0.00802676 	0.000553274 	-0.000242182 	-0.289964
0.00802676 	0.000553274 	-0.000242182 	-0.289964
0.00807692 	0.000546311 	-0.000236826 	-0.289495
0.00812709 	0.000539347 	-0.00023147 	-0.289026
0.00812709 	0.000539347 	-0.00023147 	-0.289026
0.00817726 	0.000532384 	-0.000226114 	-0.288557
0.00822742 	0.000525564 	-0.000220855 	-0.28809
0.00822742 	0.000525564 	-0.000220855 	-0.28809
0.00827759 	0.00051876 	-0.000215606 	-0.287623
0.00832776 	0.000511957 	-0.000210357 	-0.287156
0.00832776 	0.000511957 	-0.000210357 	-0.287156
0.00837793 	0.00050536 	-0.000204657 	-0.286684
0.00842809 	0.000498875 	-0.000198714 	-0.28621
0.00842809 	0.000498875 	-0.000198714 	-0.28621
0.00847826 	0.000492391 	-0.00019277 	-0.285735
0.00847826 	0.000492391 	-0.00019277 	-0.285735
0.00852843 	0.000486147 	-0.000186451 	-0.285254
0.00852843 	0.000486147 	-0.000186451 	-0.285254
0.0085786 	0.000480191 	-0.000179682 	-0.284763
0.0085786 	0.000480191 	-0.000179682 	-0.284763
0.00862876 	0.000474235 	-0.000172913 	-0.284272
0.00867893 	0.000468447 	-0.000165983 	-0.283774
0.00867893 	0.000468447 	-0.000165983 	-0.283774
0.0087291 	0.00046302 	-0.000158706 	-0.283262
0.00877926 	0.000457593 	-0.00015143 	-0.28275
0.00877926 	0.000457593 	-0.00015143 	-0.28275
0.00882943 	0.000452248 	-0.000144043 	-0.282233
0.0088796 	0.000447168 	-0.000136297 	-0.281699
0.0088796 	0.000447168 	-0.000136297 	-0.281699
0.00897993 	0.000437048 	-0.000120717 	-0.280626
0.00897993 	0.000437048 	-0.000120717 	-0.280626
0.0090301 	0.000432164 	-0.000112548 	-0.28007
0.00908027 	0.000427279 	-0.000104379 	-0.279514
0.00908027 	0.000427279 	-0.000104379 	-0.279514
0.00913043 	0.000422414 	-9.61234e-05 	-0.278953
0.0091806 	0.000417612 	-8.75834e-05 	-0.278376
0.0091806 	0.000417612 	-8.75834e-05 	-0.278376
0.00923077 	0.000412809 	-7.90433e-05 	-0.277799
0.00928094 	0.00040801 	-7.03874e-05 	-0.277215
0.00928094 	0.00040801 	-7.03874e-05 	-0.277215
0.0093311 	0.000403218 	-6.14727e-05 	-0.276618
0.00938127 	0.000398426 	-5.2558e-05 	-0.276022
0.00938127 	0.000398426 	-5.2558e-05 	-0.276022
0.00943144 	0.000393677 	-4.35296e-05 	-0.275419
0.00943144 	0.000393677 	-4.35296e-05 	-0.275419
0.00948161 	0.000388982 	-3.43556e-05 	-0.274808
0.00948161 	0.000388982 	-3.43556e-05 	-0.274808
0.00953177 	0.000384287 	-2.51815e-05 	-0.274198
0.00953177 	0.000384287 	-2.51815e-05 	-0.274198
0.00958194 	0.000379755 	-1.59624e-05 	-0.273582
0.00958194 	0.000379755 	-1.59624e-05 	-0.273582
0.00963211 	0.000375324 	-6.71541e-06 	-0.272962
0.00963211 	0.000375324 	-6.71541e-06 	-0.272962
0.00968227 	0.000370892 	2.53156e-06 	-0.272342
0.00968227 	0.000370892 	2.53156e-06 	-0.272342
0.00973244 	0.000366684 	1.18433e-05 	-0.271714
0.00978261 	0.000362517 	2.11668e-05 	-0.271084
0.00983278 	0.000358366 	3.05041e-05 	-0.270453
0.00988294 	0.000354336 	3.99392e-05 	-0.26981
0.00988294 	0.000354336 	3.99392e-05 	-0.26981
0.00993311 	0.000350306 	4.93742e-05 	-0.269168
0.00998328 	0.00034629 	5.88192e-05 	-0.268519
0.00998328 	0.00034629 	5.88192e-05 	-0.268519
0.0100334 	0.000342291 	6.82763e-05 	-0.267862
0.0100334 	0.000342291 	6.82763e-05 	-0.267862
0.0100836 	0.000338293 	7.77334e-05 	-0.267205
0.0101338 	0.000334292 	8.7122e-05 	-0.266537
0.0101338 	0.000334292 	8.7122e-05 	-0.266537
0.0102341 	0.000326305 	0.000105841 	-0.265191
0.0102341 	0.000326305 	0.000105841 	-0.265191
0.0102843 	0.000322361 	0.000115094 	-0.264505
0.0103344 	0.000318417 	0.000124347 	-0.263819
0.0103344 	0.000318417 	0.000124347 	-0.263819
0.0103846 	0.00031461 	0.00013349 	-0.263122
0.0103846 	0.00031461 	0.00013349 	-0.263122
0.0104348 	0.00031086 	0.000142588 	-0.262421
0.0104849 	0.000307183 	0.000151667 	-0.261717
0.0104849 	0.000307183 	0.000151667 	-0.261717
0.0105351 	0.000303772 	0.00016068 	-0.260999
0.0105853 	0.000300361 	0.000169692 	-0.260281
0.0105853 	0.000300361 	0.000169692 	-0.260281
0.0106355 	0.000297261 	0.000178699 	-0.25955
0.0106856 	0.000294252 	0.000187703 	-0.258815
0.0106856 	0.000294252 	0.000187703 	-0.258815
0.0107358 	0.000291363 	0.000196556 	-0.258074
0.0107358 	0.000291363 	0.000196556 	-0.258074
0.010786 	0.000288679 	0.000205147 	-0.257322
0.010786 	0.000288679 	0.000205147 	-0.257322
0.0108361 	0.000285995 	0.000213731 	-0.256569
0.0108361 	0.000285995 	0.000213731 	-0.256569
0.0108863 	0.00028325 	0.000221407 	-0.255795
0.0109365 	0.000280505 	0.000229082 	-0.255021
0.0109365 	0.000280505 	0.000229082 	-0.255021
0.0109866 	0.00027735 	0.000236321 	-0.254226
0.0109866 	0.00027735 	0.000236321 	-0.254226
0.0110368 	0.000274006 	0.000243359 	-0.25342
0.011087 	0.000270493 	0.00025046 	-0.2526
0.011087 	0.000270493 	0.00025046 	-0.2526
0.0111371 	0.000266735 	0.000257651 	-0.251758
0.0111873 	0.00026306 	0.000264864 	-0.250913
0.0111873 	0.00026306 	0.000264864 	-0.250913
0.0112375 	0.000259798 	0.000272182 	-0.250044
0.0112876 	0.000256536 	0.000279501 	-0.249176
0.0112876 	0.000256536 	0.000279501 	-0.249176
0.0113378 	0.000254155 	0.00028611 	-0.248292
0.011388 	0.000251802 	0.000292698 	-0.247407
0.011388 	0.000251802 	0.000292698 	-0.247407
0.0114883 	0.000247917 	0.000303855 	-0.245609
0.0114883 	0.000247917 	0.000303855 	-0.245609
0.0115385 	0.000246012 	0.000308751 	-0.244694
0.0115886 	0.000244105 	0.000313383 	-0.243772
0.0115886 	0.000244105 	0.000313383 	-0.243772
0.0116388 	0.000242111 	0.000317688 	-0.242834
0.011689 	0.000240061 	0.000321777 	-0.241886
0.011689 	0.000240061 	0.000321777 	-0.241886
0.0117391 	0.000237893 	0.000325538 	-0.24092
0.0117893 	0.000235631 	0.000329036 	-0.239939
0.0117893 	0.000235631 	0.000329036 	-0.239939
0.0118395 	0.000233282 	0.000332162 	-0.238941
0.0118896 	0.000230859 	0.000334974 	-0.237927
0.0118896 	0.000230859 	0.000334974 	-0.237927
0.0119398 	0.000228434 	0.000337404 	-0.236893
0.0119398 	0.000228434 	0.000337404 	-0.236893
0.01199 	0.000226006 	0.000339542 	-0.235843
0.01199 	0.000226006 	0.000339542 	-0.235843
0.0120401 	0.000223655 	0.000341207 	-0.234771
0.0120401 	0.000223655 	0.000341207 	-0.234771
0.0120903 	0.00022135 	0.000342585 	-0.233685
0.0120903 	0.00022135 	0.000342585 	-0.233685
0.0121405 	0.000219192 	0.000343406 	-0.232572
0.0121405 	0.000219192 	0.000343406 	-0.232572
0.0121906 	0.000217093 	0.000344004 	-0.231447
0.0121906 	0.000217093 	0.000344004 	-0.231447
0.0122408 	0.00021512 	0.000343973 	-0.230287
0.0122408 	0.00021512 	0.000343973 	-0.230287
0.012291 	0.000213172 	0.000343823 	-0.22912
0.012291 	0.000213172 	0.000343823 	-0.22912
0.0123411 	0.000211141 	0.000342898 	-0.227908
0.0123411 	0.000211141 	0.000342898 	-0.227908
0.0123913 	0.000209033 	0.000341822 	-0.226686
0.0123913 	0.000209033 	0.000341822 	-0.226686
0.0124415 	0.000206608 	0.00034011 	-0.225424
0.0124916 	0.000203909 	0.000338076 	-0.224139
0.0124916 	0.000203909 	0.000338076 	-0.224139
0.012592 	0.000197181 	0.000332591 	-0.221468
0.012592 	0.000197181 	0.000332591 	-0.221468
0.0126421 	0.000193258 	0.000329344 	-0.220095
0.0126923 	0.000188433 	0.000325383 	-0.218662
0.0126923 	0.000188433 	0.000325383 	-0.218662
0.0127425 	0.000183301 	0.000321189 	-0.217208
0.0127425 	0.000183301 	0.000321189 	-0.217208
0.0127926 	0.000177455 	0.000316457 	-0.215706
0.0128428 	0.000171026 	0.000311287 	-0.214158
0.0128428 	0.000171026 	0.000311287 	-0.214158
0.012893 	0.000164232 	0.000305843 	-0.212583
0.0129431 	0.000156567 	0.000299722 	-0.210929
0.0129431 	0.000156567 	0.000299722 	-0.210929
0.0129933 	0.000148578 	0.000293342 	-0.20924
0.0130435 	0.000140101 	0.000286571 	-0.207499
0.0130435 	0.000140101 	0.000286571 	-0.207499
0.0130936 	0.000131025 	0.000279308 	-0.205678
0.0131438 	0.000121639 	0.000271783 	-0.20381
0.0131438 	0.000121639 	0.000271783 	-0.20381
0.013194 	0.000111793 	0.000263856 	-0.201867
0.0132441 	0.000101522 	0.000255523 	-0.199832
0.0132441 	0.000101522 	0.000255523 	-0.199832
0.0132943 	9.0988e-05 	0.000246935 	-0.197734
0.0133445 	8.01078e-05 	0.000238003 	-0.19554
0.0133445 	8.01078e-05 	0.000238003 	-0.19554
0.0133946 	6.88788e-05 	0.00022873 	-0.193224
0.0134448 	5.74381e-05 	0.000219248 	-0.190817
0.0134448 	5.74381e-05 	0.000219248 	-0.190817
0.013495 	4.57811e-05 	0.000209551 	-0.188308
0.0135452 	3.38989e-05 	0.000199578 	-0.185617
0.0135452 	3.38989e-05 	0.000199578 	-0.185617
0.0136455 	9.9983e-06 	0.00017926 	-0.17984
0.0136455 	9.9983e-06 	0.00017926 	-0.17984
0.0136957 	-1.92633e-06 	0.000168947 	-0.176701
0.0137458 	-1.36949e-05 	0.000158593 	-0.173327
0.0137458 	-1.36949e-05 	0.000158593 	-0.173327
0.013796 	-2.52586e-05 	0.000148246 	-0.169759
0.0138462 	-3.65435e-05 	0.000137941 	-0.165978
0.0138462 	-3.65435e-05 	0.000137941 	-0.165978
0.0138963 	-4.74603e-05 	0.000127719 	-0.161965
0.0138963 	-4.74603e-05 	0.000127719 	-0.161965
0.0139465 	-5.76992e-05 	0.000117688 	-0.157615
0.0139967 	-6.72481e-05 	0.000107869 	-0.152974
0.0139967 	-6.72481e-05 	0.000107869 	-0.152974
0.0140468 	-7.59921e-05 	9.83116e-05 	-0.148025
0.0140468 	-7.59921e-05 	9.83116e-05 	-0.148025
0.014097 	-8.37889e-05 	8.9065e-05 	-0.142742
0.0141472 	-9.04961e-05 	8.01673e-05 	-0.137098
0.0141973 	-9.60007e-05 	7.16461e-05 	-0.131062
0.0141973 	-9.60007e-05 	7.16461e-05 	-0.131062
0.0142475 	-0.000100098 	6.36283e-05 	-0.124528
0.0142977 	-0.000102959 	5.60877e-05 	-0.11753
0.0143478 	-0.000104442 	4.90588e-05 	-0.110051
0.0143478 	-0.000104442 	4.90588e-05 	-0.110051
0.014398 	-0.000104247 	4.25542e-05 	-0.102096
0.014398 	-0.000104247 	4.25542e-05 	-0.102096
0.0144482 	-0.000101968 	3.6544e-05 	-0.0936977
0.0144983 	-9.72361e-05 	3.09931e-05 	-0.0849257
0.0144983 	-9.72361e-05 	3.09931e-05 	-0.0849257
0.0145485 	-8.98492e-05 	2.58652e-05 	-0.075884
0.0145987 	-7.98836e-05 	2.11104e-05 	-0.0667042
0.0145987 	-7.98836e-05 	2.11104e-05 	-0.0667042
0.0146488 	-6.78011e-05 	1.66956e-05 	-0.0575264
0.014699 	-5.45384e-05 	1.26166e-05 	-0.0484767
0.014699 	-5.45384e-05 	1.26166e-05 	-0.0484767
0.0147492 	-4.15641e-05 	8.89186e-06 	-0.0396507
0.0147993 	-3.10822e-05 	5.58013e-06 	-0.0311137
0.0147993 	-3.10822e-05 	5.58013e-06 	-0.0311137
0.0148495 	-2.66799e-05 	2.79694e-06 	-0.0229127
0.0148495 	-2.66799e-05 	2.79694e-06 	-0.0229127
0.0148997 	-2.87218e-05 	8.59498e-07 	-0.0150611
0.0148997 	-2.87218e-05 	8.59498e-07 	-0.0150611
0.0149498 	-2.48071e-05 	-5.64609e-08 	-0.00748252
0.0149498 	-2.48071e-05 	-5.64609e-08 	-0.00748252
0.015 	0 	0 	0
