-0.0075 	0 	0 	0
-0.0075 	-1.60979e-34 	6.9528e-37 	-7.7995e-33
-0.00745622 	-0.000211575 	9.13806e-07 	-0.0102509
-0.00745622 	-0.000211575 	9.13806e-07 	-0.0102509
-0.00741165 	-0.000393285 	1.73167e-06 	-0.0206778
-0.00741165 	-0.000393285 	1.73167e-06 	-0.0206778
-0.00736628 	-0.000544625 	2.2657e-06 	-0.0312769
-0.00736628 	-0.000544625 	2.2657e-06 	-0.0312769
-0.0073201 	-0.000681282 	2.19297e-06 	-0.0419392
-0.0073201 	-0.000681282 	2.19297e-06 	-0.0419392
-0.00727309 	-0.000808872 	2.41222e-06 	-0.0525834
-0.00727309 	-0.000808872 	2.41222e-06 	-0.0525834
-0.00722524 	-0.000926311 	2.6254e-06 	-0.0631212
-0.00722524 	-0.000926311 	2.6254e-06 	-0.0631212
-0.00717653 	-0.00103271 	2.9492e-06 	-0.073454
-0.00717653 	-0.00103271 	2.9492e-06 	-0.073454
-0.00712695 	-0.00112736 	3.43878e-06 	-0.0834852
-0.00712695 	-0.00112736 	3.43878e-06 	-0.0834852
-0.00707647 	-0.00120987 	4.08207e-06 	-0.0931284
-0.00707647 	-0.00120987 	4.08207e-06 	-0.0931284
-0.0070251 	-0.00128026 	4.92623e-06 	-0.10232
-0.0070251 	-0.00128026 	4.92623e-06 	-0.10232
-0.0069728 	-0.00133906 	6.06361e-06 	-0.111026
-0.0069728 	-0.00133906 	6.06361e-06 	-0.111026
-0.00691956 	-0.00138718 	7.5026e-06 	-0.119248
-0.00691956 	-0.00138718 	7.5026e-06 	-0.119248
-0.00686537 	-0.00142566 	9.39864e-06 	-0.127019
-0.00686537 	-0.00142566 	9.39864e-06 	-0.127019
-0.00681021 	-0.00145548 	1.1751e-05 	-0.134381
-0.00681021 	-0.00145548 	1.1751e-05 	-0.134381
-0.00675406 	-0.00147751 	1.44878e-05 	-0.141368
-0.00675406 	-0.00147751 	1.44878e-05 	-0.141368
-0.0066969 	-0.00149244 	1.76909e-05 	-0.148006
-0.0066969 	-0.00149244 	1.76909e-05 	-0.148006
-0.00663871 	-0.00150087 	2.13474e-05 	-0.154316
-0.00663871 	-0.00150087 	2.13474e-05 	-0.154316
-0.00657949 	-0.00150335 	2.54303e-05 	-0.160319
-0.00657949 	-0.00150335 	2.54303e-05 	-0.160319
-0.0065192 	-0.00150039 	2.99243e-05 	-0.166033
-0.0065192 	-0.00150039 	2.99243e-05 	-0.166033
-0.00645783 	-0.00149243 	3.47958e-05 	-0.171477
-0.00645783 	-0.00149243 	3.47958e-05 	-0.171477
-0.00639535 	-0.00147994 	4.00031e-05 	-0.176662
-0.00639535 	-0.00147994 	4.00031e-05 	-0.176662
-0.00633176 	-0.00146336 	4.54857e-05 	-0.181596
-0.00633176 	-0.00146336 	4.54857e-05 	-0.181596
-0.00626703 	-0.0014432 	5.11603e-05 	-0.186287
-0.00626703 	-0.0014432 	5.11603e-05 	-0.186287
-0.00620114 	-0.00141992 	5.69349e-05 	-0.190746
-0.00620114 	-0.00141992 	5.69349e-05 	-0.190746
-0.00613406 	-0.0013938 	6.27405e-05 	-0.194993
-0.00613406 	-0.0013938 	6.27405e-05 	-0.194993
-0.00606579 	-0.00136495 	6.84644e-05 	-0.199049
-0.00606579 	-0.00136495 	6.84644e-05 	-0.199049
-0.00599629 	-0.00133344 	7.40799e-05 	-0.202934
-0.00599629 	-0.00133344 	7.40799e-05 	-0.202934
-0.00592554 	-0.0012993 	7.9565e-05 	-0.206664
-0.00592554 	-0.0012993 	7.9565e-05 	-0.206664
-0.00585352 	-0.00126251 	8.46281e-05 	-0.210255
-0.00585352 	-0.00126251 	8.46281e-05 	-0.210255
-0.00578022 	-0.00122299 	8.93289e-05 	-0.213732
-0.00578022 	-0.00122299 	8.93289e-05 	-0.213732
-0.00570559 	-0.00118031 	9.41281e-05 	-0.217141
-0.00570559 	-0.00118031 	9.41281e-05 	-0.217141
-0.00562963 	-0.00113308 	9.9054e-05 	-0.220532
-0.00562963 	-0.00113308 	9.9054e-05 	-0.220532
-0.00555231 	-0.00107995 	0.000104201 	-0.223913
-0.00555231 	-0.00107995 	0.000104201 	-0.223913
-0.0054736 	-0.001022 	0.000109004 	-0.227197
-0.0054736 	-0.001022 	0.000109004 	-0.227197
-0.00539348 	-0.000962364 	0.000112642 	-0.230271
-0.00539348 	-0.000962364 	0.000112642 	-0.230271
-0.00531193 	-0.000903236 	0.000115775 	-0.233116
-0.00531193 	-0.000903236 	0.000115775 	-0.233116
-0.00522891 	-0.000844225 	0.000118841 	-0.235798
-0.00522891 	-0.000844225 	0.000118841 	-0.235798
-0.0051444 	-0.000783863 	0.000121959 	-0.238383
-0.0051444 	-0.000783863 	0.000121959 	-0.238383
-0.00505838 	-0.000721446 	0.000124899 	-0.240882
-0.00505838 	-0.000721446 	0.000124899 	-0.240882
-0.00497081 	-0.000657059 	0.000126616 	-0.243282
-0.00497081 	-0.000657059 	0.000126616 	-0.243282
-0.00488168 	-0.000591126 	0.000126898 	-0.245572
-0.00488168 	-0.000591126 	0.000126898 	-0.245572
-0.00479094 	-0.000524254 	0.000126139 	-0.24775
-0.00479094 	-0.000524254 	0.000126139 	-0.24775
-0.00469858 	-0.000456892 	0.000124831 	-0.249817
-0.00469858 	-0.000456892 	0.000124831 	-0.249817
-0.00460456 	-0.000389006 	0.000123396 	-0.251785
-0.00460456 	-0.000389006 	0.000123396 	-0.251785
-0.00450886 	-0.000320366 	0.000121466 	-0.253678
-0.00450886 	-0.000320366 	0.000121466 	-0.253678
-0.00441144 	-0.000251017 	0.000118352 	-0.255519
-0.00441144 	-0.000251017 	0.000118352 	-0.255519
-0.00431227 	-0.00018129 	0.000114127 	-0.257331
-0.00431227 	-0.00018129 	0.000114127 	-0.257331
-0.00421133 	-0.000111752 	0.000109554 	-0.259127
-0.00421133 	-0.000111752 	0.000109554 	-0.259127
-0.00410857 	-4.31076e-05 	0.000105429 	-0.260899
-0.00410857 	-4.31076e-05 	0.000105429 	-0.260899
-0.00400397 	2.41925e-05 	0.000101791 	-0.262614
-0.00400397 	2.41925e-05 	0.000101791 	-0.262614
-0.0038975 	9.02099e-05 	9.76288e-05 	-0.264246
-0.0038975 	9.02099e-05 	9.76288e-05 	-0.264246
-0.00378912 	0.000155334 	9.21797e-05 	-0.265794
-0.00378912 	0.000155334 	9.21797e-05 	-0.265794
-0.00367879 	0.000219729 	8.5857e-05 	-0.26728
-0.00367879 	0.000219729 	8.5857e-05 	-0.26728
-0.00356649 	0.00028299 	7.9622e-05 	-0.268719
-0.00356649 	0.00028299 	7.9622e-05 	-0.268719
-0.00345217 	0.00034454 	7.38402e-05 	-0.270118
-0.00345217 	0.00034454 	7.38402e-05 	-0.270118
-0.0033358 	0.000403977 	6.82199e-05 	-0.271477
-0.0033358 	0.000403977 	6.82199e-05 	-0.271477
-0.00321735 	0.000460977 	6.25955e-05 	-0.272799
-0.00321735 	0.000460977 	6.25955e-05 	-0.272799
-0.00309677 	0.000515235 	5.7149e-05 	-0.274083
-0.00309677 	0.000515235 	5.7149e-05 	-0.274083
-0.00297403 	0.000566481 	5.20173e-05 	-0.275329
-0.00297403 	0.000566481 	5.20173e-05 	-0.275329
-0.00284909 	0.000614513 	4.70645e-05 	-0.276534
-0.00284909 	0.000614513 	4.70645e-05 	-0.276534
-0.0027219 	0.000659312 	4.26311e-05 	-0.277692
-0.0027219 	0.000659312 	4.26311e-05 	-0.277692
-0.00259244 	0.000701192 	3.94973e-05 	-0.278793
-0.00259244 	0.000701192 	3.94973e-05 	-0.278793
-0.00246065 	0.000740919 	3.80092e-05 	-0.279826
-0.00246065 	0.000740919 	3.80092e-05 	-0.279826
-0.00232651 	0.000779603 	3.82535e-05 	-0.280779
-0.00232651 	0.000779603 	3.82535e-05 	-0.280779
-0.00218995 	0.000818435 	3.99836e-05 	-0.281643
-0.00218995 	0.000818435 	3.99836e-05 	-0.281643
-0.00205095 	0.00085843 	4.27353e-05 	-0.282409
-0.00205095 	0.00085843 	4.27353e-05 	-0.282409
-0.00190946 	0.000900275 	4.66556e-05 	-0.28307
-0.00190946 	0.000900275 	4.66556e-05 	-0.28307
-0.00176543 	0.00094428 	5.21473e-05 	-0.283624
-0.00176543 	0.00094428 	5.21473e-05 	-0.283624
-0.00161881 	0.000990422 	5.92549e-05 	-0.284068
-0.00161881 	0.000990422 	5.92549e-05 	-0.284068
-0.00146957 	0.0010384 	6.79027e-05 	-0.284403
-0.00146957 	0.0010384 	6.79027e-05 	-0.284403
-0.00131765 	0.00108767 	7.80049e-05 	-0.284633
-0.00131765 	0.00108767 	7.80049e-05 	-0.284633
-0.001163 	0.00113746 	8.95103e-05 	-0.28476
-0.001163 	0.00113746 	8.95103e-05 	-0.28476
-0.00100559 	0.00118683 	0.000102523 	-0.284791
-0.00100559 	0.00118683 	0.000102523 	-0.284791
-0.000845345 	0.00123471 	0.000115244 	-0.284731
-0.000845345 	0.00123471 	0.000115244 	-0.284731
-0.000682232 	0.00127992 	0.000129034 	-0.284586
-0.000682232 	0.00127992 	0.000129034 	-0.284586
-0.000516194 	0.00132113 	0.000146018 	-0.28436
-0.000516194 	0.00132113 	0.000146018 	-0.28436
-0.000347178 	0.00135687 	0.00016328 	-0.284059
-0.000347178 	0.00135687 	0.00016328 	-0.284059
-0.000175132 	0.00138554 	0.000185917 	-0.283683
-0.000175132 	0.00138554 	0.000185917 	-0.283683
0 	0.00140537 	0.000210691 	-0.283232
0 	0.00140537 	0.000210691 	-0.283232
0 	0.00140537 	0.000210691 	-0.283232
0 	0.00140537 	0.000210691 	-0.283232
0.000175132 	0.0014154 	0.000231677 	-0.282703
0.000175132 	0.00227658 	0.00198517 	-0.268465
0.000347178 	0.00141674 	0.00025399 	-0.282095
0.000347178 	0.0022542 	0.00210776 	-0.268048
0.000516194 	0.00141159 	0.000272766 	-0.2814
0.000516194 	0.00221577 	0.00221837 	-0.267568
0.000682232 	0.00140198 	0.000288881 	-0.280608
0.000682232 	0.00216259 	0.00231051 	-0.267015
0.000845345 	0.00138952 	0.000306534 	-0.279715
0.000845345 	0.00209455 	0.00241255 	-0.266366
0.00100559 	0.0013753 	0.000323222 	-0.278717
0.00100559 	0.00200817 	0.00255617 	-0.265629
0.001163 	0.0013597 	0.000338876 	-0.277618
0.001163 	0.00189892 	0.00271674 	-0.264863
0.00131765 	0.00134226 	0.000353203 	-0.27643
0.00131765 	0.00176867 	0.00284293 	-0.2641
0.00146957 	0.00132187 	0.000365822 	-0.275166
0.00146957 	0.00162612 	0.00292598 	-0.263286
0.00161881 	0.00129739 	0.000376619 	-0.273838
0.00161881 	0.00147997 	0.00297985 	-0.262324
0.00176543 	0.00126787 	0.000385607 	-0.272453
0.00176543 	0.00133371 	0.0030214 	-0.261154
0.00190946 	0.00123124 	0.000393176 	-0.271006
0.00190946 	0.00118494 	0.00307151 	-0.25977
0.00205095 	0.00118468 	0.000400294 	-0.269512
0.00205095 	0.00102911 	0.00313997 	-0.258201
0.00218995 	0.00112846 	0.000407439 	-0.268014
0.00218995 	0.000863146 	0.0032252 	-0.256492
0.00232651 	0.00106636 	0.000413858 	-0.266539
0.00232651 	0.000687999 	0.00331483 	-0.254732
0.00246065 	0.00100099 	0.000418863 	-0.265064
0.00246065 	0.000504719 	0.00339313 	-0.252931
0.00259244 	0.000931667 	0.000422452 	-0.263533
0.00259244 	0.000306165 	0.00344913 	-0.250858
0.0027219 	0.000856775 	0.000425286 	-0.261904
0.0027219 	8.26636e-05 	0.00348482 	-0.248235
0.00284909 	0.000777271 	0.000427844 	-0.260191
0.00284909 	-0.000159607 	0.003511 	-0.245159
0.00297403 	0.000697143 	0.000429246 	-0.258466
0.00297403 	-0.000396361 	0.0035337 	-0.242149
0.00309677 	0.000619511 	0.000428998 	-0.25678
0.00309677 	-0.000611486 	0.00355922 	-0.239572
0.00321735 	0.00054437 	0.000427312 	-0.255117
0.00321735 	-0.000811317 	0.00359214 	-0.237364
0.0033358 	0.000470544 	0.000424526 	-0.253442
0.0033358 	-0.00100751 	0.00363138 	-0.235332
0.00345217 	0.000397113 	0.000421322 	-0.251731
0.00345217 	-0.00120419 	0.00366791 	-0.233335
0.00356649 	0.000323864 	0.000417524 	-0.249966
0.00356649 	-0.00140178 	0.00368228 	-0.231312
0.00367879 	0.000251804 	0.000412751 	-0.248142
0.00367879 	-0.00160226 	0.00366572 	-0.229313
0.00378912 	-0.00181101 	0.00363454 	-0.22741
0.00378912 	0.000182258 	0.000407042 	-0.246265
0.0038975 	0.000115614 	0.00040018 	-0.244343
0.0038975 	-0.00203271 	0.00361284 	-0.225602
0.00400397 	5.13427e-05 	0.000392222 	-0.242385
0.00400397 	-0.00226208 	0.00360537 	-0.223832
0.00410857 	-1.13441e-05 	0.000383477 	-0.240401
0.00410857 	-0.00248532 	0.00359741 	-0.222055
0.00421133 	-7.30338e-05 	0.000374073 	-0.238395
0.00421133 	-0.00269179 	0.00357811 	-0.220266
0.00431227 	-0.000133993 	0.000364152 	-0.23637
0.00431227 	-0.00287871 	0.00354609 	-0.21848
0.00441144 	-0.000194179 	0.000353852 	-0.234322
0.00441144 	-0.00304995 	0.00350248 	-0.216707
0.00450886 	-0.000253299 	0.00034317 	-0.232246
0.00450886 	-0.0032127 	0.00344667 	-0.214949
0.00460456 	-0.000310937 	0.000332012 	-0.230136
0.00460456 	-0.00337436 	0.00337931 	-0.213206
0.00469858 	-0.000366674 	0.000320288 	-0.227986
0.00469858 	-0.00354207 	0.00330723 	-0.211474
0.00479094 	-0.00042014 	0.000308001 	-0.225791
0.00479094 	-0.00371937 	0.00323593 	-0.209746
0.00488168 	-0.00047103 	0.000295236 	-0.223548
0.00488168 	-0.00390337 	0.00316499 	-0.208012
0.00497081 	-0.000519105 	0.000282098 	-0.22125
0.00497081 	-0.00408668 	0.00309134 	-0.206264
0.00505838 	-0.000564188 	0.000268678 	-0.218895
0.00505838 	-0.00426157 	0.0030119 	-0.204496
0.0051444 	-0.000606158 	0.000255054 	-0.216476
0.0051444 	-0.00442317 	0.0029255 	-0.202709
0.00522891 	-0.000644918 	0.000241302 	-0.213988
0.00522891 	-0.00457005 	0.00283274 	-0.200901
0.00531193 	-0.00470299 	0.00273515 	-0.199073
0.00531193 	-0.000680391 	0.000227487 	-0.211425
0.00539348 	-0.000712591 	0.000213669 	-0.208779
0.00539348 	-0.00482338 	0.00263416 	-0.197223
0.0054736 	-0.000741616 	0.000199908 	-0.206039
0.0054736 	-0.00493205 	0.00253053 	-0.195349
0.00555231 	-0.000767518 	0.000186238 	-0.203197
0.00555231 	-0.00502898 	0.00242455 	-0.193449
0.00562963 	-0.000790255 	0.000172681 	-0.200245
0.00562963 	-0.00511352 	0.0023163 	-0.191517
0.00570559 	-0.000809734 	0.000159278 	-0.19717
0.00570559 	-0.00518472 	0.00220595 	-0.189551
0.00578022 	-0.000825882 	0.00014611 	-0.19396
0.00578022 	-0.0052416 	0.0020938 	-0.187544
0.00585352 	-0.000838678 	0.000133286 	-0.190602
0.00585352 	-0.00528315 	0.00198031 	-0.185489
0.00592554 	-0.000848132 	0.000120892 	-0.187084
0.00592554 	-0.00530838 	0.00186601 	-0.183372
0.00599629 	-0.000854256 	0.000109003 	-0.18339
0.00599629 	-0.00531623 	0.00175151 	-0.181175
0.00606579 	-0.00530571 	0.00163727 	-0.17887
0.00606579 	-0.000857072 	9.76815e-05 	-0.179505
0.00613406 	-0.000856631 	8.69882e-05 	-0.17541
0.00613406 	-0.00527608 	0.00152376 	-0.17642
0.00620114 	-0.000852986 	7.69828e-05 	-0.171085
0.00620114 	-0.00522683 	0.00141159 	-0.173784
0.00626703 	-0.000846177 	6.77128e-05 	-0.166511
0.00626703 	-0.00515753 	0.00130135 	-0.170912
0.00633176 	-0.000836226 	5.92085e-05 	-0.161664
0.00633176 	-0.00506774 	0.00119352 	-0.167752
0.00639535 	-0.000823132 	5.14901e-05 	-0.156524
0.00639535 	-0.00495683 	0.00108846 	-0.164244
0.00645783 	-0.000806881 	4.45684e-05 	-0.151067
0.00645783 	-0.00482421 	0.000986506 	-0.160329
0.0065192 	-0.000787456 	3.84439e-05 	-0.145271
0.0065192 	-0.00466953 	0.0008883 	-0.155947
0.00657949 	-0.000764855 	3.31094e-05 	-0.139118
0.00657949 	-0.00449218 	0.000794694 	-0.15105
0.00663871 	-0.000739045 	2.85395e-05 	-0.132591
0.00663871 	-0.00429068 	0.000706246 	-0.145611
0.0066969 	-0.000709901 	2.46689e-05 	-0.125671
0.0066969 	-0.00406351 	0.000622776 	-0.13961
0.00675406 	-0.00067724 	2.14208e-05 	-0.118335
0.00675406 	-0.00381067 	0.000543906 	-0.133011
0.00681021 	-0.000640974 	1.87359e-05 	-0.110577
0.00681021 	-0.0035351 	0.000470056 	-0.12577
0.00686537 	-0.000601252 	1.65342e-05 	-0.102422
0.00686537 	-0.0032431 	0.000401827 	-0.117861
0.00691956 	-0.000558432 	1.46989e-05 	-0.0939304
0.00691956 	-0.00294273 	0.000339249 	-0.109292
0.0069728 	-0.000513046 	1.30976e-05 	-0.0851989
0.0069728 	-0.00264194 	0.000282144 	-0.100116
0.0070251 	-0.000465849 	1.16013e-05 	-0.0763515
0.0070251 	-0.00234783 	0.000230365 	-0.0904426
0.00707647 	-0.000417781 	1.01092e-05 	-0.0675247
0.00707647 	-0.00206574 	0.000183794 	-0.0804275
0.00712695 	-0.000369804 	8.56491e-06 	-0.0588453
0.00712695 	-0.00179808 	0.000142354 	-0.0702622
0.00717653 	-0.000322673 	6.95918e-06 	-0.050411
0.00717653 	-0.00154385 	0.000106001 	-0.0601416
0.00722524 	-0.000276747 	5.31141e-06 	-0.042281
0.00722524 	-0.00129829 	7.4715e-05 	-0.0502386
0.00727309 	-0.00023189 	3.67717e-06 	-0.0344812
0.00727309 	-0.00105195 	4.84657e-05 	-0.0407025
0.0073201 	-0.00018736 	2.18578e-06 	-0.0270165
0.0073201 	-0.000787722 	2.73484e-05 	-0.0316883
0.00736628 	-0.000141583 	7.35284e-07 	-0.0198772
0.00736628 	-0.000474728 	1.18587e-05 	-0.0234077
0.00741165 	-9.31368e-05 	2.26751e-08 	-0.0130322
0.00741165 	-0.000145697 	2.76342e-06 	-0.0158185
0.00745622 	-4.41303e-05 	-1.72014e-07 	-0.0064331
0.00745622 	4.52912e-05 	-1.01124e-06 	-0.00824845
0.0075 	0 	0 	0
0.0075 	0 	0 	0
