/*--------------------------------*- C++ -*----------------------------------*\
| =========                 |                                                 |
| \\      /  F ield         | OpenFOAM: The Open Source CFD Toolbox           |
|  \\    /   O peration     | Version:  v1912                                 |
|   \\  /    A nd           | Website:  www.openfoam.com                      |
|    \\/     M anipulation  |                                                 |
\*---------------------------------------------------------------------------*/
FoamFile
{
    version     2.0;
    format      ascii;
    class       volScalarField;
    location    "199.6";
    object      nut;
}
// * * * * * * * * * * * * * * * * * * * * * * * * * * * * * * * * * * * * * //

dimensions      [0 2 -1 0 0 0 0];


internalField   nonuniform List<scalar> 
10077
(
1.60276e-05
1.45228e-05
1.28289e-05
1.25229e-05
1.25876e-05
1.2592e-05
1.25677e-05
1.25401e-05
1.25356e-05
1.25429e-05
1.25736e-05
1.26006e-05
1.2599e-05
1.25365e-05
1.28406e-05
1.45229e-05
1.56465e-05
1.42815e-05
1.28426e-05
1.25863e-05
1.26404e-05
1.26214e-05
1.25813e-05
1.25413e-05
1.25343e-05
1.25442e-05
1.25874e-05
1.26302e-05
1.26522e-05
1.26004e-05
1.28552e-05
1.42828e-05
1.52492e-05
1.40309e-05
1.28321e-05
1.26256e-05
1.2672e-05
1.26331e-05
1.25783e-05
1.2528e-05
1.25188e-05
1.25309e-05
1.25845e-05
1.2642e-05
1.2684e-05
1.26401e-05
1.28454e-05
1.40334e-05
1.48436e-05
1.37755e-05
1.27996e-05
1.26413e-05
1.26825e-05
1.26272e-05
1.25593e-05
1.25004e-05
1.24894e-05
1.25035e-05
1.25656e-05
1.26363e-05
1.26947e-05
1.26561e-05
1.28136e-05
1.37791e-05
1.44369e-05
1.35189e-05
1.27474e-05
1.26346e-05
1.26725e-05
1.26044e-05
1.25251e-05
1.24591e-05
1.24466e-05
1.24623e-05
1.25316e-05
1.26136e-05
1.26849e-05
1.26496e-05
1.27618e-05
1.35236e-05
1.4035e-05
1.32638e-05
1.26776e-05
1.26069e-05
1.26431e-05
1.25654e-05
1.24766e-05
1.24047e-05
1.23909e-05
1.2408e-05
1.24831e-05
1.25747e-05
1.26555e-05
1.2622e-05
1.26924e-05
1.32696e-05
1.36424e-05
1.30126e-05
1.25922e-05
1.25596e-05
1.25954e-05
1.25109e-05
1.24143e-05
1.23378e-05
1.23231e-05
1.23411e-05
1.24209e-05
1.25202e-05
1.26077e-05
1.25748e-05
1.26073e-05
1.30192e-05
1.32626e-05
1.27665e-05
1.24932e-05
1.24948e-05
1.25311e-05
1.24417e-05
1.23393e-05
1.22592e-05
1.22438e-05
1.22625e-05
1.2346e-05
1.24511e-05
1.25434e-05
1.251e-05
1.25085e-05
1.2774e-05
1.28977e-05
1.25264e-05
1.23823e-05
1.24148e-05
1.24523e-05
1.23591e-05
1.22525e-05
1.21694e-05
1.21537e-05
1.21728e-05
1.22592e-05
1.23686e-05
1.24646e-05
1.24299e-05
1.23977e-05
1.25346e-05
1.25492e-05
1.22925e-05
1.22606e-05
1.23209e-05
1.23601e-05
1.22646e-05
1.21549e-05
1.20695e-05
1.20536e-05
1.20729e-05
1.21616e-05
1.22741e-05
1.23724e-05
1.23359e-05
1.22762e-05
1.23014e-05
1.22175e-05
1.20648e-05
1.21297e-05
1.22139e-05
1.22552e-05
1.21588e-05
1.20471e-05
1.19602e-05
1.19443e-05
1.19636e-05
1.20538e-05
1.21682e-05
1.22673e-05
1.22288e-05
1.21452e-05
1.20743e-05
1.19022e-05
1.18428e-05
1.19906e-05
1.20947e-05
1.21379e-05
1.2042e-05
1.19295e-05
1.18416e-05
1.18259e-05
1.1845e-05
1.19361e-05
1.20513e-05
1.21499e-05
1.21093e-05
1.20058e-05
1.18528e-05
1.16026e-05
1.16259e-05
1.18437e-05
1.1964e-05
1.2009e-05
1.19149e-05
1.18022e-05
1.1714e-05
1.16986e-05
1.17174e-05
1.18087e-05
1.19241e-05
1.20208e-05
1.19783e-05
1.18585e-05
1.16363e-05
1.13176e-05
1.14134e-05
1.16892e-05
1.18225e-05
1.18691e-05
1.17781e-05
1.16655e-05
1.15775e-05
1.15626e-05
1.15808e-05
1.16719e-05
1.17871e-05
1.18807e-05
1.18366e-05
1.17036e-05
1.1424e-05
1.10458e-05
1.12045e-05
1.15276e-05
1.16712e-05
1.17191e-05
1.1632e-05
1.152e-05
1.14324e-05
1.14182e-05
1.14358e-05
1.15264e-05
1.16409e-05
1.17305e-05
1.1685e-05
1.15417e-05
1.12154e-05
1.07857e-05
1.09986e-05
1.13593e-05
1.15111e-05
1.156e-05
1.14772e-05
1.13668e-05
1.12798e-05
1.12662e-05
1.12831e-05
1.1373e-05
1.14859e-05
1.15712e-05
1.15246e-05
1.13732e-05
1.10097e-05
1.05359e-05
1.07951e-05
1.11847e-05
1.13432e-05
1.13929e-05
1.13141e-05
1.12068e-05
1.11204e-05
1.11075e-05
1.11236e-05
1.12129e-05
1.13227e-05
1.14038e-05
1.13563e-05
1.11986e-05
1.08063e-05
1.02949e-05
1.05934e-05
1.10042e-05
1.11679e-05
1.12184e-05
1.11433e-05
1.10403e-05
1.09549e-05
1.09429e-05
1.09581e-05
1.10463e-05
1.11517e-05
1.12291e-05
1.11807e-05
1.1018e-05
1.06047e-05
1.00615e-05
1.03931e-05
1.0818e-05
1.09856e-05
1.10368e-05
1.09652e-05
1.08676e-05
1.07842e-05
1.0773e-05
1.07873e-05
1.08735e-05
1.09734e-05
1.10473e-05
1.09981e-05
1.08316e-05
1.04044e-05
9.83442e-06
1.01938e-05
1.0627e-05
1.07964e-05
1.08485e-05
1.07803e-05
1.06887e-05
1.0608e-05
1.05977e-05
1.06111e-05
1.06946e-05
1.07884e-05
1.08588e-05
1.08087e-05
1.064e-05
1.0205e-05
9.61265e-06
9.99512e-06
1.04316e-05
1.06004e-05
1.06535e-05
1.05891e-05
1.05039e-05
1.04264e-05
1.0417e-05
1.04294e-05
1.05097e-05
1.05971e-05
1.06636e-05
1.06125e-05
1.0444e-05
1.00064e-05
9.39524e-06
9.79697e-06
1.0232e-05
1.03987e-05
1.04521e-05
1.03921e-05
1.03132e-05
1.02394e-05
1.0231e-05
1.02424e-05
1.03189e-05
1.03999e-05
1.0462e-05
1.04105e-05
1.0244e-05
9.80819e-06
9.18142e-06
9.59924e-06
1.00287e-05
1.01925e-05
1.02454e-05
1.01898e-05
1.01167e-05
1.00473e-05
1.00399e-05
1.00503e-05
1.01223e-05
1.01975e-05
1.02551e-05
1.02037e-05
1.00403e-05
9.61042e-06
8.97058e-06
9.40197e-06
9.82195e-06
9.98248e-06
1.00342e-05
9.98279e-06
9.91449e-06
9.85029e-06
9.84369e-06
9.85322e-06
9.91993e-06
9.99023e-06
1.00436e-05
9.99326e-06
9.83312e-06
9.4131e-06
8.76229e-06
9.20512e-06
9.61208e-06
9.769e-06
9.81963e-06
9.77154e-06
9.70734e-06
9.64857e-06
9.64267e-06
9.65145e-06
9.71266e-06
9.7788e-06
9.82863e-06
9.77938e-06
9.62293e-06
9.21608e-06
8.55625e-06
9.00751e-06
9.39956e-06
9.55247e-06
9.60233e-06
9.55668e-06
9.49593e-06
9.442e-06
9.43667e-06
9.44482e-06
9.50113e-06
9.56375e-06
9.61101e-06
9.56248e-06
9.41011e-06
9.01823e-06
8.35192e-06
8.80773e-06
9.1839e-06
9.33241e-06
9.38175e-06
9.33786e-06
9.28003e-06
9.23029e-06
9.22553e-06
9.23305e-06
9.28511e-06
9.34474e-06
9.39013e-06
9.34207e-06
9.19415e-06
8.81815e-06
8.14876e-06
8.60467e-06
8.96423e-06
9.10798e-06
9.14978e-06
9.11435e-06
9.059e-06
9.01287e-06
9.00868e-06
9.01556e-06
9.06395e-06
9.12105e-06
9.15724e-06
9.11733e-06
8.97419e-06
8.61476e-06
7.9464e-06
8.39787e-06
8.72834e-06
8.83703e-06
8.86842e-06
8.85187e-06
8.82123e-06
8.78928e-06
8.78568e-06
8.7919e-06
8.82567e-06
8.85786e-06
8.87548e-06
8.84521e-06
8.73696e-06
8.40761e-06
7.74467e-06
8.18703e-06
8.43422e-06
8.54016e-06
8.57232e-06
8.55437e-06
8.52506e-06
8.49997e-06
8.4946e-06
8.50235e-06
8.5293e-06
8.56007e-06
8.57911e-06
8.54795e-06
8.44253e-06
8.19634e-06
7.54264e-06
7.9439e-06
8.12491e-06
8.23607e-06
8.27154e-06
8.24718e-06
8.21247e-06
8.18582e-06
8.18054e-06
8.18809e-06
8.21659e-06
8.25266e-06
8.27808e-06
8.24368e-06
8.13318e-06
7.95011e-06
7.33985e-06
7.61972e-06
7.81474e-06
7.92958e-06
7.9682e-06
7.93785e-06
7.89796e-06
7.86868e-06
7.86418e-06
7.87086e-06
7.90195e-06
7.94313e-06
7.97448e-06
7.93701e-06
7.82294e-06
7.62537e-06
7.09814e-06
7.28789e-06
7.508e-06
7.62241e-06
7.66288e-06
7.62885e-06
7.58613e-06
7.55521e-06
7.55165e-06
7.55731e-06
7.58997e-06
7.6339e-06
7.66889e-06
7.62961e-06
7.51602e-06
7.29368e-06
6.7813e-06
6.97145e-06
7.20584e-06
7.31611e-06
7.35695e-06
7.32158e-06
7.27844e-06
7.24744e-06
7.24476e-06
7.24946e-06
7.28212e-06
7.32641e-06
7.36268e-06
7.32301e-06
7.21357e-06
6.97737e-06
6.46555e-06
6.67343e-06
6.90864e-06
7.01234e-06
7.05238e-06
7.0174e-06
6.97558e-06
6.9458e-06
6.94386e-06
6.94773e-06
6.97909e-06
7.02201e-06
7.05783e-06
7.01891e-06
6.916e-06
6.67933e-06
6.17103e-06
6.39047e-06
6.61657e-06
6.7126e-06
6.75102e-06
6.71751e-06
6.67805e-06
6.65028e-06
6.64895e-06
6.6521e-06
6.68139e-06
6.72189e-06
6.75618e-06
6.71882e-06
6.62353e-06
6.39618e-06
5.89808e-06
6.11856e-06
6.32988e-06
6.4181e-06
6.45438e-06
6.42294e-06
6.38638e-06
6.36093e-06
6.3601e-06
6.36265e-06
6.38953e-06
6.42709e-06
6.45927e-06
6.42397e-06
6.33643e-06
6.12399e-06
5.64215e-06
5.85507e-06
6.04907e-06
6.12993e-06
6.16375e-06
6.13469e-06
6.10123e-06
6.07814e-06
6.07771e-06
6.07976e-06
6.10421e-06
6.13861e-06
6.16836e-06
6.13545e-06
6.05519e-06
5.86016e-06
5.39886e-06
5.59889e-06
5.775e-06
5.84925e-06
5.8804e-06
5.85389e-06
5.82359e-06
5.80272e-06
5.80259e-06
5.80423e-06
5.82638e-06
5.85759e-06
5.88475e-06
5.85443e-06
5.78071e-06
5.6036e-06
5.16534e-06
5.34987e-06
5.50877e-06
5.57725e-06
5.60566e-06
5.58174e-06
5.55452e-06
5.53566e-06
5.53577e-06
5.53708e-06
5.55713e-06
5.58521e-06
5.60974e-06
5.58209e-06
5.51407e-06
5.35422e-06
4.94016e-06
5.10843e-06
5.25137e-06
5.31489e-06
5.34061e-06
5.31923e-06
5.29492e-06
5.27785e-06
5.27812e-06
5.27917e-06
5.29735e-06
5.32248e-06
5.34445e-06
5.31942e-06
5.25628e-06
5.11242e-06
4.7227e-06
4.87514e-06
5.00359e-06
5.06284e-06
5.08602e-06
5.06702e-06
5.04537e-06
5.0299e-06
5.03029e-06
5.03112e-06
5.04763e-06
5.07005e-06
5.08961e-06
5.06706e-06
5.00814e-06
4.87879e-06
4.51261e-06
4.65031e-06
4.76576e-06
4.82119e-06
4.84206e-06
4.82522e-06
4.80595e-06
4.79194e-06
4.79241e-06
4.79307e-06
4.80805e-06
4.82804e-06
4.84542e-06
4.82512e-06
4.76997e-06
4.65365e-06
4.30932e-06
4.43368e-06
4.53748e-06
4.58932e-06
4.60816e-06
4.5932e-06
4.57605e-06
4.5634e-06
4.56394e-06
4.56445e-06
4.57799e-06
4.59584e-06
4.61131e-06
4.59299e-06
4.54138e-06
4.43675e-06
4.11195e-06
4.22437e-06
4.31764e-06
4.36598e-06
4.38308e-06
4.36974e-06
4.35444e-06
4.3431e-06
4.34371e-06
4.34408e-06
4.35625e-06
4.3722e-06
4.38604e-06
4.36942e-06
4.32126e-06
4.22718e-06
3.91937e-06
4.02106e-06
4.10474e-06
4.14963e-06
4.16521e-06
4.15327e-06
4.13962e-06
4.12954e-06
4.13021e-06
4.13045e-06
4.1413e-06
4.15557e-06
4.16799e-06
4.15285e-06
4.1081e-06
4.02365e-06
3.73044e-06
3.82238e-06
3.89723e-06
3.93874e-06
3.95299e-06
3.94226e-06
3.9301e-06
3.92125e-06
3.92197e-06
3.92209e-06
3.93168e-06
3.94442e-06
3.9556e-06
3.94176e-06
3.90035e-06
3.82477e-06
3.54414e-06
3.62712e-06
3.6938e-06
3.73203e-06
3.74507e-06
3.73545e-06
3.72466e-06
3.71695e-06
3.71774e-06
3.71774e-06
3.72613e-06
3.73748e-06
3.74754e-06
3.73487e-06
3.6967e-06
3.62932e-06
3.35966e-06
3.43431e-06
3.49341e-06
3.52849e-06
3.54042e-06
3.53181e-06
3.52229e-06
3.51567e-06
3.51649e-06
3.51641e-06
3.52367e-06
3.53372e-06
3.54275e-06
3.53116e-06
3.4961e-06
3.43633e-06
3.17637e-06
3.24323e-06
3.29528e-06
3.32734e-06
3.33822e-06
3.33056e-06
3.32223e-06
3.31661e-06
3.31748e-06
3.31731e-06
3.32353e-06
3.33237e-06
3.34043e-06
3.32986e-06
3.29778e-06
3.24509e-06
2.99384e-06
3.05338e-06
3.09886e-06
3.12803e-06
3.13791e-06
3.13114e-06
3.12392e-06
3.11924e-06
3.12013e-06
3.11989e-06
3.12515e-06
3.13285e-06
3.14e-06
3.13039e-06
3.10118e-06
3.05508e-06
2.81175e-06
2.86439e-06
2.90375e-06
2.93015e-06
2.93907e-06
2.93314e-06
2.92697e-06
2.92313e-06
2.92404e-06
2.92374e-06
2.92813e-06
2.93476e-06
2.94104e-06
2.93237e-06
2.90589e-06
2.86595e-06
2.62981e-06
2.67596e-06
2.70961e-06
2.73339e-06
2.74136e-06
2.73624e-06
2.73105e-06
2.72797e-06
2.72889e-06
2.72855e-06
2.73214e-06
2.73777e-06
2.74323e-06
2.73547e-06
2.71159e-06
2.67738e-06
2.44726e-06
2.48739e-06
2.51578e-06
2.53709e-06
2.54414e-06
2.53977e-06
2.53549e-06
2.5331e-06
2.53403e-06
2.53365e-06
2.53652e-06
2.54123e-06
2.54592e-06
2.53905e-06
2.5176e-06
2.48868e-06
2.26098e-06
2.29591e-06
2.31957e-06
2.33878e-06
2.34497e-06
2.34124e-06
2.33777e-06
2.33599e-06
2.33695e-06
2.33652e-06
2.33878e-06
2.34266e-06
2.34669e-06
2.34065e-06
2.32128e-06
2.2971e-06
2.07149e-06
2.1014e-06
2.12089e-06
2.13811e-06
2.14348e-06
2.14042e-06
2.13769e-06
2.13641e-06
2.13734e-06
2.1369e-06
2.13863e-06
2.14175e-06
2.1451e-06
2.13985e-06
2.12246e-06
2.10247e-06
1.88493e-06
1.91012e-06
1.92582e-06
1.94109e-06
1.94567e-06
1.94324e-06
1.94118e-06
1.94033e-06
1.94122e-06
1.94078e-06
1.94205e-06
1.94447e-06
1.94718e-06
1.94269e-06
1.92723e-06
1.91108e-06
1.70218e-06
1.72298e-06
1.73521e-06
1.7486e-06
1.75244e-06
1.75057e-06
1.74912e-06
1.74864e-06
1.74949e-06
1.74907e-06
1.74992e-06
1.75172e-06
1.75383e-06
1.75007e-06
1.73649e-06
1.72382e-06
1.52344e-06
1.54017e-06
1.54931e-06
1.56092e-06
1.56404e-06
1.5627e-06
1.56178e-06
1.56162e-06
1.56241e-06
1.56201e-06
1.56252e-06
1.56376e-06
1.56533e-06
1.56226e-06
1.55045e-06
1.54091e-06
1.3492e-06
1.36222e-06
1.36864e-06
1.3786e-06
1.38106e-06
1.38017e-06
1.37971e-06
1.37981e-06
1.38055e-06
1.38017e-06
1.3804e-06
1.38114e-06
1.38223e-06
1.3798e-06
1.36964e-06
1.36286e-06
1.18028e-06
1.19e-06
1.19409e-06
1.20252e-06
1.20438e-06
1.20389e-06
1.20383e-06
1.20412e-06
1.2048e-06
1.20444e-06
1.20445e-06
1.20477e-06
1.20544e-06
1.20359e-06
1.19496e-06
1.19054e-06
1.01781e-06
1.02457e-06
1.02667e-06
1.03371e-06
1.03503e-06
1.03489e-06
1.03516e-06
1.0356e-06
1.03621e-06
1.03589e-06
1.03571e-06
1.03568e-06
1.03598e-06
1.03466e-06
1.02742e-06
1.02502e-06
8.62842e-07
8.66607e-07
8.66741e-07
8.72471e-07
8.73208e-07
8.73436e-07
8.74048e-07
8.74626e-07
8.75175e-07
8.74883e-07
8.74541e-07
8.7414e-07
8.7405e-07
8.73295e-07
8.67376e-07
8.66968e-07
7.14826e-07
7.1247e-07
7.07976e-07
7.12054e-07
7.11451e-07
7.12648e-07
7.1424e-07
7.15237e-07
7.15745e-07
7.15475e-07
7.14697e-07
7.13304e-07
7.12233e-07
7.12779e-07
7.08482e-07
7.12704e-07
5.57136e-07
5.53258e-07
5.48309e-07
5.51437e-07
5.50609e-07
5.51867e-07
5.53474e-07
5.54417e-07
5.54843e-07
5.54616e-07
5.53855e-07
5.52416e-07
5.51265e-07
5.52035e-07
5.48712e-07
5.53427e-07
4.14393e-07
4.10057e-07
4.05242e-07
4.07564e-07
4.06688e-07
4.07869e-07
4.09354e-07
4.10188e-07
4.1053e-07
4.10348e-07
4.09659e-07
4.0831e-07
4.07214e-07
4.08037e-07
4.05551e-07
4.10172e-07
2.91136e-07
2.87016e-07
2.82814e-07
2.84475e-07
2.8369e-07
2.847e-07
2.85948e-07
2.86619e-07
2.86877e-07
2.8674e-07
2.86179e-07
2.85034e-07
2.8409e-07
2.84831e-07
2.83039e-07
2.87091e-07
1.90872e-07
1.87465e-07
1.84183e-07
1.85318e-07
1.84699e-07
1.85483e-07
1.86435e-07
1.86927e-07
1.87109e-07
1.87012e-07
1.86597e-07
1.85719e-07
1.84982e-07
1.85568e-07
1.84338e-07
1.8751e-07
1.15309e-07
1.12858e-07
1.10592e-07
1.11314e-07
1.10884e-07
1.11428e-07
1.1208e-07
1.12407e-07
1.12523e-07
1.12462e-07
1.12184e-07
1.1158e-07
1.11067e-07
1.11475e-07
1.1069e-07
1.12884e-07
6.34333e-08
6.19111e-08
6.05434e-08
6.09613e-08
6.07028e-08
6.10353e-08
6.14291e-08
6.16226e-08
6.16901e-08
6.16546e-08
6.14895e-08
6.11234e-08
6.0809e-08
6.10547e-08
6.05993e-08
6.19245e-08
3.14476e-08
3.06376e-08
2.99222e-08
3.01384e-08
3.00049e-08
3.01813e-08
3.03887e-08
3.04896e-08
3.05242e-08
3.0506e-08
3.04198e-08
3.02266e-08
3.00595e-08
3.01864e-08
2.99508e-08
3.06441e-08
1.39003e-08
1.35333e-08
1.3212e-08
1.33106e-08
1.32519e-08
1.33325e-08
1.34267e-08
1.34724e-08
1.34881e-08
1.34798e-08
1.34407e-08
1.3353e-08
1.32766e-08
1.33322e-08
1.32249e-08
1.35362e-08
5.39143e-09
5.25099e-09
5.12825e-09
5.16731e-09
5.14563e-09
5.17701e-09
5.21353e-09
5.23133e-09
5.23749e-09
5.23426e-09
5.21906e-09
5.18504e-09
5.15528e-09
5.1758e-09
5.13334e-09
5.25218e-09
1.78179e-09
1.7373e-09
1.69828e-09
1.71136e-09
1.70476e-09
1.71496e-09
1.7268e-09
1.73262e-09
1.73467e-09
1.73359e-09
1.72864e-09
1.71763e-09
1.70796e-09
1.71417e-09
1.69998e-09
1.73772e-09
4.74873e-10
4.63741e-10
4.53899e-10
4.57417e-10
4.55846e-10
4.58482e-10
4.61535e-10
4.63056e-10
4.63607e-10
4.63316e-10
4.62027e-10
4.59193e-10
4.56694e-10
4.58165e-10
4.54355e-10
4.63862e-10
9.20905e-11
9.00933e-11
8.83082e-11
8.89946e-11
8.87299e-11
8.9222e-11
8.97907e-11
9.00784e-11
9.01856e-11
9.01287e-11
8.98862e-11
8.93596e-11
8.88936e-11
8.91393e-11
8.83974e-11
9.01186e-11
1.06994e-11
1.0485e-11
1.02915e-11
1.03713e-11
1.03451e-11
1.04003e-11
1.04638e-11
1.04963e-11
1.05088e-11
1.05022e-11
1.04749e-11
1.04162e-11
1.03639e-11
1.0388e-11
1.03019e-11
1.04882e-11
6.67701e-13
6.52172e-13
6.38999e-13
6.43452e-13
6.41608e-13
6.45544e-13
6.49908e-13
6.5199e-13
6.52702e-13
6.52334e-13
6.50562e-13
6.4649e-13
6.42733e-13
6.44434e-13
6.39587e-13
6.52308e-13
2.6106e-13
2.5227e-13
2.45486e-13
2.46787e-13
2.45658e-13
2.47717e-13
2.49892e-13
2.50793e-13
2.51016e-13
2.50912e-13
2.50118e-13
2.48052e-13
2.46063e-13
2.47125e-13
2.45662e-13
2.52265e-13
1.20329e-05
1.27732e-05
1.34099e-05
1.31843e-05
1.29017e-05
1.27477e-05
1.27036e-05
1.26955e-05
1.26948e-05
1.26993e-05
1.27104e-05
1.27558e-05
1.29085e-05
1.31884e-05
1.34099e-05
1.27728e-05
1.23931e-05
1.29499e-05
1.33721e-05
1.31414e-05
1.2886e-05
1.27737e-05
1.27521e-05
1.27587e-05
1.27608e-05
1.27623e-05
1.27585e-05
1.27814e-05
1.28925e-05
1.3145e-05
1.33715e-05
1.29486e-05
1.27075e-05
1.3093e-05
1.33227e-05
1.30854e-05
1.28547e-05
1.27791e-05
1.27773e-05
1.27968e-05
1.28013e-05
1.28002e-05
1.27834e-05
1.27863e-05
1.28609e-05
1.30886e-05
1.33215e-05
1.30908e-05
1.2972e-05
1.32016e-05
1.3262e-05
1.30183e-05
1.28096e-05
1.27656e-05
1.27812e-05
1.28117e-05
1.28182e-05
1.28149e-05
1.2787e-05
1.27726e-05
1.28157e-05
1.30212e-05
1.32604e-05
1.31986e-05
1.31861e-05
1.32761e-05
1.31905e-05
1.29414e-05
1.27525e-05
1.27352e-05
1.27656e-05
1.28053e-05
1.28135e-05
1.28084e-05
1.27711e-05
1.2742e-05
1.27584e-05
1.29441e-05
1.31884e-05
1.32724e-05
1.33505e-05
1.33174e-05
1.31084e-05
1.28559e-05
1.26845e-05
1.26895e-05
1.27321e-05
1.27793e-05
1.2789e-05
1.27823e-05
1.27375e-05
1.26961e-05
1.26904e-05
1.28584e-05
1.31061e-05
1.33131e-05
1.34672e-05
1.3327e-05
1.30163e-05
1.27625e-05
1.26068e-05
1.26299e-05
1.26824e-05
1.27355e-05
1.27461e-05
1.27383e-05
1.26877e-05
1.26364e-05
1.26126e-05
1.2765e-05
1.30139e-05
1.33222e-05
1.35388e-05
1.3307e-05
1.29145e-05
1.26621e-05
1.25202e-05
1.25581e-05
1.26184e-05
1.26758e-05
1.26872e-05
1.26786e-05
1.26236e-05
1.25645e-05
1.2526e-05
1.26645e-05
1.29121e-05
1.33018e-05
1.35682e-05
1.32599e-05
1.28037e-05
1.25554e-05
1.24263e-05
1.24764e-05
1.25425e-05
1.2603e-05
1.26149e-05
1.26057e-05
1.25476e-05
1.24828e-05
1.24321e-05
1.25578e-05
1.28015e-05
1.32544e-05
1.35593e-05
1.31887e-05
1.26845e-05
1.24436e-05
1.23264e-05
1.23859e-05
1.24562e-05
1.25187e-05
1.25308e-05
1.25215e-05
1.24613e-05
1.23923e-05
1.23323e-05
1.24459e-05
1.26823e-05
1.3183e-05
1.35159e-05
1.30959e-05
1.25576e-05
1.23269e-05
1.22207e-05
1.2287e-05
1.23602e-05
1.24238e-05
1.24359e-05
1.24265e-05
1.23652e-05
1.22934e-05
1.22266e-05
1.23293e-05
1.25557e-05
1.309e-05
1.34416e-05
1.29836e-05
1.24234e-05
1.22053e-05
1.21089e-05
1.21795e-05
1.22546e-05
1.23186e-05
1.23305e-05
1.23213e-05
1.22596e-05
1.2186e-05
1.21148e-05
1.22077e-05
1.24219e-05
1.29777e-05
1.33398e-05
1.28537e-05
1.2282e-05
1.20782e-05
1.19908e-05
1.20632e-05
1.21393e-05
1.22033e-05
1.22149e-05
1.22059e-05
1.21443e-05
1.20697e-05
1.19966e-05
1.20806e-05
1.2281e-05
1.28478e-05
1.32136e-05
1.27079e-05
1.21333e-05
1.19454e-05
1.18659e-05
1.19377e-05
1.20144e-05
1.20778e-05
1.20891e-05
1.20804e-05
1.20194e-05
1.19442e-05
1.18717e-05
1.19478e-05
1.21329e-05
1.2702e-05
1.30657e-05
1.25478e-05
1.19775e-05
1.18059e-05
1.17344e-05
1.18031e-05
1.18799e-05
1.19425e-05
1.19533e-05
1.19451e-05
1.18848e-05
1.18096e-05
1.17401e-05
1.18085e-05
1.19774e-05
1.25419e-05
1.28989e-05
1.23747e-05
1.18143e-05
1.16585e-05
1.15955e-05
1.16597e-05
1.17359e-05
1.17975e-05
1.18078e-05
1.18001e-05
1.17408e-05
1.16662e-05
1.16013e-05
1.16616e-05
1.18146e-05
1.23691e-05
1.27155e-05
1.21903e-05
1.16441e-05
1.15032e-05
1.1449e-05
1.15081e-05
1.15825e-05
1.16432e-05
1.16528e-05
1.16457e-05
1.15873e-05
1.15145e-05
1.14549e-05
1.15066e-05
1.16446e-05
1.21847e-05
1.25178e-05
1.19957e-05
1.1467e-05
1.13402e-05
1.1294e-05
1.13487e-05
1.14202e-05
1.14798e-05
1.14888e-05
1.14823e-05
1.14251e-05
1.13551e-05
1.13e-05
1.13439e-05
1.14678e-05
1.19904e-05
1.23079e-05
1.17923e-05
1.12835e-05
1.11699e-05
1.11307e-05
1.11819e-05
1.12499e-05
1.13075e-05
1.13158e-05
1.131e-05
1.12547e-05
1.11882e-05
1.11368e-05
1.11738e-05
1.12845e-05
1.17871e-05
1.20876e-05
1.1581e-05
1.10941e-05
1.09928e-05
1.09599e-05
1.10083e-05
1.10722e-05
1.11274e-05
1.1135e-05
1.11299e-05
1.10769e-05
1.10145e-05
1.09661e-05
1.0997e-05
1.10952e-05
1.1576e-05
1.18587e-05
1.1363e-05
1.08995e-05
1.08098e-05
1.07823e-05
1.08286e-05
1.0888e-05
1.09406e-05
1.09475e-05
1.09431e-05
1.08926e-05
1.08348e-05
1.07885e-05
1.08141e-05
1.09007e-05
1.13581e-05
1.15968e-05
1.11389e-05
1.07002e-05
1.06212e-05
1.05985e-05
1.06433e-05
1.06981e-05
1.07479e-05
1.0754e-05
1.07504e-05
1.07027e-05
1.06494e-05
1.06048e-05
1.06256e-05
1.07015e-05
1.11342e-05
1.11898e-05
1.0909e-05
1.04965e-05
1.04276e-05
1.04091e-05
1.04527e-05
1.05034e-05
1.05498e-05
1.05551e-05
1.05522e-05
1.05079e-05
1.04587e-05
1.04153e-05
1.04321e-05
1.04978e-05
1.09045e-05
1.07764e-05
1.06738e-05
1.02888e-05
1.02295e-05
1.02146e-05
1.02573e-05
1.03044e-05
1.03469e-05
1.03515e-05
1.03493e-05
1.03089e-05
1.02633e-05
1.02208e-05
1.0234e-05
1.02902e-05
1.06693e-05
1.04042e-05
1.03457e-05
1.00776e-05
1.00273e-05
1.00156e-05
1.00576e-05
1.01016e-05
1.014e-05
1.01439e-05
1.01423e-05
1.0106e-05
1.00634e-05
1.00217e-05
1.00318e-05
1.0079e-05
1.03461e-05
1.00807e-05
1.00037e-05
9.86323e-06
9.82151e-06
9.81257e-06
9.8539e-06
9.89516e-06
9.93005e-06
9.9335e-06
9.93233e-06
9.89948e-06
9.85959e-06
9.81856e-06
9.82592e-06
9.86466e-06
1.00055e-05
9.79625e-06
9.68832e-06
9.63931e-06
9.61162e-06
9.60511e-06
9.64261e-06
9.6627e-06
9.67003e-06
9.67598e-06
9.67238e-06
9.66695e-06
9.64824e-06
9.61098e-06
9.61598e-06
9.64242e-06
9.68989e-06
9.53592e-06
9.402e-06
9.35853e-06
9.35531e-06
9.35199e-06
9.37394e-06
9.39165e-06
9.39517e-06
9.40074e-06
9.39743e-06
9.39573e-06
9.37933e-06
9.35784e-06
9.36028e-06
9.36179e-06
9.40297e-06
9.28575e-06
9.13455e-06
9.06587e-06
9.06696e-06
9.06588e-06
9.09103e-06
9.11284e-06
9.1209e-06
9.12543e-06
9.12304e-06
9.11668e-06
9.0961e-06
9.07143e-06
9.07173e-06
9.06865e-06
9.13488e-06
9.03448e-06
8.87187e-06
8.77199e-06
8.77279e-06
8.77369e-06
8.80517e-06
8.8314e-06
8.84557e-06
8.84881e-06
8.84759e-06
8.83504e-06
8.80993e-06
8.77885e-06
8.77709e-06
8.77418e-06
8.87163e-06
8.7738e-06
8.60135e-06
8.47761e-06
8.47834e-06
8.48116e-06
8.5178e-06
8.5465e-06
8.5654e-06
8.56742e-06
8.56731e-06
8.54997e-06
8.52231e-06
8.48598e-06
8.48219e-06
8.47931e-06
8.60065e-06
8.49808e-06
8.31672e-06
8.18223e-06
8.18443e-06
8.189e-06
8.2282e-06
8.25722e-06
8.27868e-06
8.2797e-06
8.28051e-06
8.26055e-06
8.23249e-06
8.19354e-06
8.18795e-06
8.1836e-06
8.31575e-06
8.20559e-06
8.01876e-06
7.88553e-06
7.89043e-06
7.89642e-06
7.93594e-06
7.9638e-06
7.98603e-06
7.98626e-06
7.98778e-06
7.967e-06
7.94005e-06
7.90073e-06
7.89373e-06
7.88673e-06
8.0177e-06
7.89811e-06
7.71178e-06
7.58761e-06
7.59567e-06
7.60266e-06
7.64108e-06
7.66705e-06
7.68893e-06
7.68854e-06
7.6906e-06
7.67013e-06
7.64503e-06
7.60679e-06
7.59881e-06
7.58873e-06
7.71077e-06
7.58039e-06
7.40059e-06
7.28897e-06
7.30003e-06
7.3076e-06
7.34421e-06
7.36812e-06
7.38905e-06
7.3882e-06
7.39066e-06
7.37108e-06
7.34801e-06
7.31158e-06
7.30307e-06
7.29007e-06
7.39969e-06
7.25818e-06
7.08914e-06
6.99059e-06
7.00415e-06
7.01193e-06
7.04648e-06
7.06843e-06
7.08819e-06
7.08698e-06
7.08972e-06
7.07126e-06
7.05012e-06
7.01577e-06
7.00711e-06
6.9917e-06
7.08838e-06
6.93657e-06
6.78043e-06
6.69387e-06
6.7093e-06
6.71701e-06
6.74947e-06
6.7697e-06
6.78822e-06
6.78677e-06
6.78967e-06
6.7724e-06
6.75296e-06
6.72071e-06
6.71218e-06
6.69501e-06
6.77982e-06
6.61949e-06
6.47686e-06
6.40057e-06
6.41729e-06
6.42471e-06
6.45518e-06
6.47395e-06
6.49121e-06
6.48962e-06
6.49259e-06
6.47651e-06
6.45851e-06
6.42827e-06
6.42009e-06
6.40174e-06
6.47637e-06
6.30994e-06
6.18049e-06
6.11276e-06
6.13025e-06
6.13724e-06
6.16587e-06
6.1834e-06
6.19941e-06
6.19776e-06
6.20071e-06
6.18582e-06
6.16904e-06
6.14066e-06
6.13297e-06
6.11396e-06
6.18012e-06
6.01021e-06
5.89327e-06
5.83262e-06
5.85048e-06
5.85696e-06
5.88389e-06
5.90035e-06
5.91514e-06
5.91348e-06
5.91634e-06
5.90261e-06
5.88689e-06
5.86022e-06
5.85312e-06
5.83383e-06
5.89299e-06
5.72201e-06
5.61666e-06
5.562e-06
5.57994e-06
5.58589e-06
5.61126e-06
5.62675e-06
5.64036e-06
5.63875e-06
5.64148e-06
5.62886e-06
5.61407e-06
5.58899e-06
5.58248e-06
5.56322e-06
5.61647e-06
5.44606e-06
5.35132e-06
5.3019e-06
5.31976e-06
5.3252e-06
5.34911e-06
5.36371e-06
5.37623e-06
5.37467e-06
5.37726e-06
5.36567e-06
5.35176e-06
5.32815e-06
5.3222e-06
5.30313e-06
5.35119e-06
5.18202e-06
5.09687e-06
5.05234e-06
5.06999e-06
5.07502e-06
5.09753e-06
5.11126e-06
5.12278e-06
5.12127e-06
5.12374e-06
5.11308e-06
5.10001e-06
5.07782e-06
5.07233e-06
5.05355e-06
5.09681e-06
4.92856e-06
4.85203e-06
4.81226e-06
4.82964e-06
4.83436e-06
4.85551e-06
4.86835e-06
4.879e-06
4.87752e-06
4.87989e-06
4.87005e-06
4.85784e-06
4.83703e-06
4.83189e-06
4.81348e-06
4.85203e-06
4.6838e-06
4.61504e-06
4.57998e-06
4.59702e-06
4.60156e-06
4.62134e-06
4.63328e-06
4.64316e-06
4.6417e-06
4.64398e-06
4.63487e-06
4.62354e-06
4.6041e-06
4.5992e-06
4.58119e-06
4.6151e-06
4.44583e-06
4.38411e-06
4.35366e-06
4.37032e-06
4.37476e-06
4.39316e-06
4.40421e-06
4.4134e-06
4.41194e-06
4.41417e-06
4.40571e-06
4.39525e-06
4.37718e-06
4.37242e-06
4.35488e-06
4.38423e-06
4.21305e-06
4.15776e-06
4.13174e-06
4.14793e-06
4.15233e-06
4.16939e-06
4.17956e-06
4.1881e-06
4.18665e-06
4.18882e-06
4.18097e-06
4.17137e-06
4.15466e-06
4.14997e-06
4.13297e-06
4.15793e-06
3.98427e-06
3.93486e-06
3.91302e-06
3.92868e-06
3.93308e-06
3.94881e-06
3.95812e-06
3.96606e-06
3.96462e-06
3.96673e-06
3.95946e-06
3.9507e-06
3.93531e-06
3.93067e-06
3.91425e-06
3.93508e-06
3.75863e-06
3.71465e-06
3.69666e-06
3.71174e-06
3.71614e-06
3.73058e-06
3.73908e-06
3.74643e-06
3.74502e-06
3.74707e-06
3.74035e-06
3.73239e-06
3.71829e-06
3.71367e-06
3.69789e-06
3.71491e-06
3.53557e-06
3.49659e-06
3.48212e-06
3.49657e-06
3.50098e-06
3.51418e-06
3.5219e-06
3.52868e-06
3.52731e-06
3.52928e-06
3.52312e-06
3.51591e-06
3.50305e-06
3.49845e-06
3.48335e-06
3.49689e-06
3.31474e-06
3.28039e-06
3.2691e-06
3.28291e-06
3.28734e-06
3.29933e-06
3.30634e-06
3.31254e-06
3.31123e-06
3.31311e-06
3.3075e-06
3.30099e-06
3.28933e-06
3.28473e-06
3.27033e-06
3.28072e-06
3.09602e-06
3.06594e-06
3.05753e-06
3.07069e-06
3.07512e-06
3.08597e-06
3.0923e-06
3.09793e-06
3.09669e-06
3.09848e-06
3.09341e-06
3.08756e-06
3.07703e-06
3.07245e-06
3.05875e-06
3.06631e-06
2.87936e-06
2.85326e-06
2.84743e-06
2.85995e-06
2.86439e-06
2.87415e-06
2.87985e-06
2.88492e-06
2.88376e-06
2.88544e-06
2.88092e-06
2.87567e-06
2.86623e-06
2.86166e-06
2.84864e-06
2.85364e-06
2.66466e-06
2.64221e-06
2.63873e-06
2.65067e-06
2.65513e-06
2.66388e-06
2.66901e-06
2.67352e-06
2.67245e-06
2.67401e-06
2.67002e-06
2.66534e-06
2.6569e-06
2.65233e-06
2.63993e-06
2.64262e-06
2.45084e-06
2.43165e-06
2.4304e-06
2.44201e-06
2.4466e-06
2.45447e-06
2.45908e-06
2.46304e-06
2.46208e-06
2.46351e-06
2.46004e-06
2.45587e-06
2.44834e-06
2.44366e-06
2.43162e-06
2.43209e-06
2.23514e-06
2.21898e-06
2.21937e-06
2.23037e-06
2.2349e-06
2.24188e-06
2.24605e-06
2.24954e-06
2.24866e-06
2.24999e-06
2.24699e-06
2.24323e-06
2.23655e-06
2.23194e-06
2.22056e-06
2.21942e-06
2.02412e-06
2.01077e-06
2.01254e-06
2.02287e-06
2.0273e-06
2.03344e-06
2.03715e-06
2.04014e-06
2.03937e-06
2.04057e-06
2.03803e-06
2.03471e-06
2.02886e-06
2.02435e-06
2.01368e-06
2.01121e-06
1.8189e-06
1.80814e-06
1.81108e-06
1.82074e-06
1.82506e-06
1.8304e-06
1.83368e-06
1.8362e-06
1.83554e-06
1.8366e-06
1.8345e-06
1.83159e-06
1.82651e-06
1.82214e-06
1.81217e-06
1.80858e-06
1.61982e-06
1.61144e-06
1.61532e-06
1.62429e-06
1.62846e-06
1.63308e-06
1.63596e-06
1.63805e-06
1.63749e-06
1.63841e-06
1.63672e-06
1.63419e-06
1.62981e-06
1.6256e-06
1.61636e-06
1.61186e-06
1.42742e-06
1.42118e-06
1.42578e-06
1.43405e-06
1.43801e-06
1.44197e-06
1.44449e-06
1.44619e-06
1.44574e-06
1.44652e-06
1.44519e-06
1.44299e-06
1.43926e-06
1.43526e-06
1.42676e-06
1.42159e-06
1.24253e-06
1.2382e-06
1.24328e-06
1.25081e-06
1.25453e-06
1.25789e-06
1.26008e-06
1.26143e-06
1.26108e-06
1.26173e-06
1.26072e-06
1.25882e-06
1.25566e-06
1.25192e-06
1.24419e-06
1.23859e-06
1.06605e-06
1.06342e-06
1.06878e-06
1.07555e-06
1.079e-06
1.08181e-06
1.08371e-06
1.08474e-06
1.08448e-06
1.08501e-06
1.08428e-06
1.08265e-06
1.08002e-06
1.07656e-06
1.06962e-06
1.06379e-06
8.97877e-07
8.97057e-07
9.02703e-07
9.08791e-07
9.12011e-07
9.14298e-07
9.15905e-07
9.16617e-07
9.16454e-07
9.16862e-07
9.16417e-07
9.15051e-07
9.12935e-07
9.09708e-07
9.03478e-07
8.97411e-07
7.29208e-07
7.32809e-07
7.40472e-07
7.46617e-07
7.50156e-07
7.51703e-07
7.52974e-07
7.53032e-07
7.53064e-07
7.53261e-07
7.53456e-07
7.52422e-07
7.51052e-07
7.47528e-07
7.41279e-07
7.33214e-07
5.63762e-07
5.67876e-07
5.74632e-07
5.79797e-07
5.82806e-07
5.84026e-07
5.85059e-07
5.85002e-07
5.85065e-07
5.85194e-07
5.85465e-07
5.84635e-07
5.83565e-07
5.80572e-07
5.75322e-07
5.68237e-07
4.1601e-07
4.20123e-07
4.25729e-07
4.29904e-07
4.32354e-07
4.33287e-07
4.34095e-07
4.33972e-07
4.34049e-07
4.34127e-07
4.34423e-07
4.33781e-07
4.32972e-07
4.30536e-07
4.26294e-07
4.20428e-07
2.89925e-07
2.93572e-07
2.97943e-07
3.01144e-07
3.03031e-07
3.03714e-07
3.04313e-07
3.04169e-07
3.04245e-07
3.04287e-07
3.04564e-07
3.04093e-07
3.03506e-07
3.01631e-07
2.9838e-07
2.93812e-07
1.88589e-07
1.91466e-07
1.94619e-07
1.96907e-07
1.98259e-07
1.98731e-07
1.99146e-07
1.99015e-07
1.99078e-07
1.99098e-07
1.99324e-07
1.99001e-07
1.98599e-07
1.97256e-07
1.94934e-07
1.91639e-07
1.13128e-07
1.15132e-07
1.17201e-07
1.18696e-07
1.1958e-07
1.19882e-07
1.20146e-07
1.20047e-07
1.20093e-07
1.20101e-07
1.20262e-07
1.20058e-07
1.19802e-07
1.18924e-07
1.17407e-07
1.15247e-07
6.18928e-08
6.31139e-08
6.43264e-08
6.52024e-08
6.57217e-08
6.5897e-08
6.60494e-08
6.5987e-08
6.60155e-08
6.60185e-08
6.6117e-08
6.60002e-08
6.58513e-08
6.5336e-08
6.44473e-08
6.31815e-08
3.0586e-08
3.12292e-08
3.18553e-08
3.23087e-08
3.25782e-08
3.26697e-08
3.27482e-08
3.27152e-08
3.27305e-08
3.27315e-08
3.27832e-08
3.2723e-08
3.26452e-08
3.23779e-08
3.19178e-08
3.12643e-08
1.35125e-08
1.38028e-08
1.40846e-08
1.42896e-08
1.44118e-08
1.44541e-08
1.44899e-08
1.44754e-08
1.44825e-08
1.44828e-08
1.45058e-08
1.44783e-08
1.44421e-08
1.43209e-08
1.41129e-08
1.38187e-08
5.25128e-09
5.36248e-09
5.4717e-09
5.55165e-09
5.59943e-09
5.61651e-09
5.6308e-09
5.62554e-09
5.62828e-09
5.62845e-09
5.63703e-09
5.62598e-09
5.61131e-09
5.56388e-09
5.48272e-09
5.36865e-09
1.74209e-09
1.77745e-09
1.81306e-09
1.83932e-09
1.85506e-09
1.86091e-09
1.86576e-09
1.86422e-09
1.86512e-09
1.86518e-09
1.86783e-09
1.86404e-09
1.85898e-09
1.84334e-09
1.81668e-09
1.77947e-09