0 	0 	0 	0
0 	-1.62922e-36 	-2.45215e-36 	1.85569e-31
5.01672e-05 	-1.85637e-07 	-2.722e-07 	0.0173109
5.01672e-05 	-1.85637e-07 	-2.722e-07 	0.0173109
0.000100334 	-6.0388e-07 	-9.2195e-07 	0.033301
0.000150502 	-1.03861e-06 	-2.00121e-06 	0.0481354
0.000150502 	-1.03861e-06 	-2.00121e-06 	0.0481354
0.000200669 	-1.41921e-06 	-3.50708e-06 	0.0619012
0.000200669 	-1.41921e-06 	-3.50708e-06 	0.0619012
0.000250836 	-1.77009e-06 	-5.43482e-06 	0.0746777
0.000301003 	-2.1098e-06 	-7.7726e-06 	0.0865317
0.000301003 	-2.1098e-06 	-7.7726e-06 	0.0865317
0.000351171 	-2.44305e-06 	-1.05157e-05 	0.0975074
0.000401338 	-2.77004e-06 	-1.36705e-05 	0.107627
0.000451505 	-3.08831e-06 	-1.72594e-05 	0.116905
0.000451505 	-3.08831e-06 	-1.72594e-05 	0.116905
0.000501672 	-3.39385e-06 	-2.1318e-05 	0.12537
0.000551839 	-3.68238e-06 	-2.58841e-05 	0.133066
0.000551839 	-3.68238e-06 	-2.58841e-05 	0.133066
0.000602007 	-3.95028e-06 	-3.09875e-05 	0.140054
0.000602007 	-3.95028e-06 	-3.09875e-05 	0.140054
0.000652174 	-4.1952e-06 	-3.66491e-05 	0.146405
0.000652174 	-4.1952e-06 	-3.66491e-05 	0.146405
0.000702341 	-4.41606e-06 	-4.28854e-05 	0.152192
0.000702341 	-4.41606e-06 	-4.28854e-05 	0.152192
0.000752508 	-4.6128e-06 	-4.97104e-05 	0.157483
0.000802676 	-4.7857e-06 	-5.71367e-05 	0.162334
0.000852843 	-4.93199e-06 	-6.5258e-05 	0.166738
0.000852843 	-4.93199e-06 	-6.5258e-05 	0.166738
0.00090301 	-5.05666e-06 	-7.39488e-05 	0.170806
0.00090301 	-5.05666e-06 	-7.39488e-05 	0.170806
0.000953177 	-5.16122e-06 	-8.31599e-05 	0.174577
0.00100334 	-5.24723e-06 	-9.28405e-05 	0.178087
0.00100334 	-5.24723e-06 	-9.28405e-05 	0.178087
0.00105351 	-5.31623e-06 	-0.000102942 	0.181369
0.00105351 	-5.31623e-06 	-0.000102942 	0.181369
0.00110368 	-5.3693e-06 	-0.000113428 	0.184444
0.00115385 	-5.40401e-06 	-0.00012434 	0.187291
0.00120401 	-5.42629e-06 	-0.000135528 	0.189988
0.00120401 	-5.42629e-06 	-0.000135528 	0.189988
0.00130435 	-5.43787e-06 	-0.000158595 	0.19499
0.00130435 	-5.43787e-06 	-0.000158595 	0.19499
0.00135452 	-5.42619e-06 	-0.000170461 	0.197288
0.00135452 	-5.42619e-06 	-0.000170461 	0.197288
0.00140468 	-5.40483e-06 	-0.000182481 	0.199476
0.00145485 	-5.37589e-06 	-0.000194605 	0.201581
0.00145485 	-5.37589e-06 	-0.000194605 	0.201581
0.00150502 	-5.3399e-06 	-0.000206814 	0.203609
0.00150502 	-5.3399e-06 	-0.000206814 	0.203609
0.00155518 	-5.29355e-06 	-0.000219106 	0.205528
0.00155518 	-5.29355e-06 	-0.000219106 	0.205528
0.00160535 	-5.24117e-06 	-0.000231414 	0.207388
0.00160535 	-5.24117e-06 	-0.000231414 	0.207388
0.00165552 	-5.18342e-06 	-0.000243727 	0.209195
0.00165552 	-5.18342e-06 	-0.000243727 	0.209195
0.00170569 	-5.11834e-06 	-0.000256009 	0.210932
0.00170569 	-5.11834e-06 	-0.000256009 	0.210932
0.00175585 	-5.0474e-06 	-0.000268216 	0.212614
0.00175585 	-5.0474e-06 	-0.000268216 	0.212614
0.00180602 	-4.97239e-06 	-0.000280353 	0.214258
0.00180602 	-4.97239e-06 	-0.000280353 	0.214258
0.00185619 	-4.89157e-06 	-0.000292358 	0.215849
0.00185619 	-4.89157e-06 	-0.000292358 	0.215849
0.00190635 	-4.80562e-06 	-0.000304195 	0.217394
0.00190635 	-4.80562e-06 	-0.000304195 	0.217394
0.00195652 	-4.71646e-06 	-0.000315913 	0.218912
0.00195652 	-4.71646e-06 	-0.000315913 	0.218912
0.00200669 	-4.62172e-06 	-0.000327389 	0.220383
0.00200669 	-4.62172e-06 	-0.000327389 	0.220383
0.00205686 	-4.52304e-06 	-0.00033865 	0.221821
0.00210702 	-4.42175e-06 	-0.000349768 	0.223239
0.00210702 	-4.42175e-06 	-0.000349768 	0.223239
0.00215719 	-4.31429e-06 	-0.000360483 	0.224607
0.00220736 	-4.20451e-06 	-0.000371021 	0.225957
0.00225753 	-4.09102e-06 	-0.000381277 	0.227279
0.00225753 	-4.09102e-06 	-0.000381277 	0.227279
0.00230769 	-3.97326e-06 	-0.000391165 	0.228569
0.00230769 	-3.97326e-06 	-0.000391165 	0.228569
0.00235786 	-3.85366e-06 	-0.000400891 	0.229845
0.00235786 	-3.85366e-06 	-0.000400891 	0.229845
0.00240803 	-3.72861e-06 	-0.000410096 	0.231081
0.00240803 	-3.72861e-06 	-0.000410096 	0.231081
0.00245819 	-3.60171e-06 	-0.000419108 	0.232303
0.00245819 	-3.60171e-06 	-0.000419108 	0.232303
0.00250836 	-3.47107e-06 	-0.000427731 	0.233498
0.00250836 	-3.47107e-06 	-0.000427731 	0.233498
0.00255853 	-3.33721e-06 	-0.000435996 	0.23467
0.0026087 	-3.20107e-06 	-0.000444007 	0.235826
0.0026087 	-3.20107e-06 	-0.000444007 	0.235826
0.00265886 	-3.06053e-06 	-0.000451503 	0.23695
0.00270903 	-2.91894e-06 	-0.000458876 	0.238067
0.00270903 	-2.91894e-06 	-0.000458876 	0.238067
0.0027592 	-2.77191e-06 	-0.000465592 	0.239145
0.00280936 	-2.62401e-06 	-0.000472201 	0.240216
0.00280936 	-2.62401e-06 	-0.000472201 	0.240216
0.00285953 	-2.47147e-06 	-0.000478242 	0.241256
0.00285953 	-2.47147e-06 	-0.000478242 	0.241256
0.0029097 	-2.31734e-06 	-0.00048409 	0.242284
0.0029097 	-2.31734e-06 	-0.00048409 	0.242284
0.00295987 	-2.15918e-06 	-0.000489452 	0.243285
0.00295987 	-2.15918e-06 	-0.000489452 	0.243285
0.00301003 	-1.99885e-06 	-0.000494562 	0.244272
0.0030602 	-1.83495e-06 	-0.000499256 	0.245235
0.00311037 	-1.6685e-06 	-0.00050367 	0.246182
0.00311037 	-1.6685e-06 	-0.00050367 	0.246182
0.00316054 	-1.49875e-06 	-0.000507722 	0.247107
0.00316054 	-1.49875e-06 	-0.000507722 	0.247107
0.00326087 	-1.15072e-06 	-0.00051495 	0.248902
0.00326087 	-1.15072e-06 	-0.00051495 	0.248902
0.00331104 	-9.72472e-07 	-0.000518156 	0.249772
0.0033612 	-7.90949e-07 	-0.000521057 	0.250621
0.0033612 	-7.90949e-07 	-0.000521057 	0.250621
0.00341137 	-6.06964e-07 	-0.000523763 	0.251456
0.00341137 	-6.06964e-07 	-0.000523763 	0.251456
0.00346154 	-4.19247e-07 	-0.000526171 	0.252267
0.00346154 	-4.19247e-07 	-0.000526171 	0.252267
0.00351171 	-2.29426e-07 	-0.000528444 	0.253067
0.00356187 	-3.4977e-08 	-0.000530421 	0.253841
0.00356187 	-3.4977e-08 	-0.000530421 	0.253841
0.00361204 	1.60826e-07 	-0.000532326 	0.254608
0.00366221 	3.62397e-07 	-0.000533927 	0.255346
0.00366221 	3.62397e-07 	-0.000533927 	0.255346
0.00371237 	5.64175e-07 	-0.000535519 	0.256084
0.00371237 	5.64175e-07 	-0.000535519 	0.256084
0.00376254 	7.72714e-07 	-0.000536792 	0.256789
0.00376254 	7.72714e-07 	-0.000536792 	0.256789
0.00381271 	9.81252e-07 	-0.000538065 	0.257495
0.00381271 	9.81252e-07 	-0.000538065 	0.257495
0.00386288 	1.19507e-06 	-0.000539099 	0.258173
0.00391304 	1.40996e-06 	-0.000540084 	0.258847
0.00391304 	1.40996e-06 	-0.000540084 	0.258847
0.00396321 	1.6282e-06 	-0.000540918 	0.259501
0.00401338 	1.84876e-06 	-0.000541649 	0.260142
0.00401338 	1.84876e-06 	-0.000541649 	0.260142
0.00406355 	2.0709e-06 	-0.000542311 	0.260773
0.00406355 	2.0709e-06 	-0.000542311 	0.260773
0.00411371 	2.29654e-06 	-0.000542823 	0.261383
0.00411371 	2.29654e-06 	-0.000542823 	0.261383
0.00421405 	2.75227e-06 	-0.000543664 	0.262569
0.00421405 	2.75227e-06 	-0.000543664 	0.262569
0.00426421 	2.98239e-06 	-0.000543993 	0.263146
0.00426421 	2.98239e-06 	-0.000543993 	0.263146
0.00431438 	3.21491e-06 	-0.000544228 	0.263702
0.00431438 	3.21491e-06 	-0.000544228 	0.263702
0.00436455 	3.44882e-06 	-0.000544408 	0.264246
0.00436455 	3.44882e-06 	-0.000544408 	0.264246
0.00441472 	3.68341e-06 	-0.000544563 	0.264784
0.00441472 	3.68341e-06 	-0.000544563 	0.264784
0.00446488 	3.9203e-06 	-0.000544631 	0.265296
0.00446488 	3.9203e-06 	-0.000544631 	0.265296
0.00451505 	4.15719e-06 	-0.000544699 	0.265808
0.00451505 	4.15719e-06 	-0.000544699 	0.265808
0.00456522 	4.39569e-06 	-0.000544708 	0.266294
0.00456522 	4.39569e-06 	-0.000544708 	0.266294
0.00461538 	4.63463e-06 	-0.000544699 	0.266774
0.00461538 	4.63463e-06 	-0.000544699 	0.266774
0.00466555 	4.87387e-06 	-0.000544678 	0.267244
0.00471572 	5.11383e-06 	-0.000544626 	0.267691
0.00476589 	5.3538e-06 	-0.000544575 	0.268138
0.00476589 	5.3538e-06 	-0.000544575 	0.268138
0.00486622 	5.83362e-06 	-0.000544453 	0.268975
0.00486622 	5.83362e-06 	-0.000544453 	0.268975
0.00491639 	6.07331e-06 	-0.000544393 	0.269384
0.00496656 	6.31201e-06 	-0.000544347 	0.269766
0.00496656 	6.31201e-06 	-0.000544347 	0.269766
0.00501672 	6.55071e-06 	-0.000544301 	0.270148
0.00506689 	6.78808e-06 	-0.000544277 	0.270512
0.00511706 	7.02434e-06 	-0.000544271 	0.270861
0.00511706 	7.02434e-06 	-0.000544271 	0.270861
0.00521739 	7.49355e-06 	-0.00054431 	0.271532
0.00521739 	7.49355e-06 	-0.00054431 	0.271532
0.00526756 	7.72604e-06 	-0.000544363 	0.27185
0.00526756 	7.72604e-06 	-0.000544363 	0.27185
0.00531773 	7.95773e-06 	-0.000544426 	0.272163
0.00536789 	8.18505e-06 	-0.000544549 	0.272448
0.00536789 	8.18505e-06 	-0.000544549 	0.272448
0.00541806 	8.41236e-06 	-0.000544672 	0.272734
0.00546823 	8.63715e-06 	-0.000544825 	0.273008
0.00551839 	8.85785e-06 	-0.000545026 	0.273262
0.00551839 	8.85785e-06 	-0.000545026 	0.273262
0.00556856 	9.07855e-06 	-0.000545227 	0.273517
0.00556856 	9.07855e-06 	-0.000545227 	0.273517
0.0056689 	9.50717e-06 	-0.00054575 	0.273977
0.0056689 	9.50717e-06 	-0.00054575 	0.273977
0.00571906 	9.7197e-06 	-0.000546029 	0.274201
0.00576923 	9.92535e-06 	-0.000546358 	0.274404
0.00576923 	9.92535e-06 	-0.000546358 	0.274404
0.0058194 	1.01279e-05 	-0.000546709 	0.274598
0.0058194 	1.01279e-05 	-0.000546709 	0.274598
0.00591973 	1.0524e-05 	-0.000547457 	0.274964
0.00591973 	1.0524e-05 	-0.000547457 	0.274964
0.0059699 	1.07147e-05 	-0.000547869 	0.275129
0.0059699 	1.07147e-05 	-0.000547869 	0.275129
0.00602007 	1.09054e-05 	-0.00054828 	0.275294
0.00607023 	1.1085e-05 	-0.000548726 	0.275437
0.0061204 	1.12618e-05 	-0.00054918 	0.275574
0.0061204 	1.12618e-05 	-0.00054918 	0.275574
0.00617057 	1.14386e-05 	-0.000549635 	0.275712
0.00622074 	1.16032e-05 	-0.000550108 	0.275828
0.00622074 	1.16032e-05 	-0.000550108 	0.275828
0.0062709 	1.17641e-05 	-0.000550587 	0.275939
0.00632107 	1.19249e-05 	-0.000551066 	0.276049
0.00632107 	1.19249e-05 	-0.000551066 	0.276049
0.00637124 	1.20735e-05 	-0.000551547 	0.276141
0.00637124 	1.20735e-05 	-0.000551547 	0.276141
0.0064214 	1.22164e-05 	-0.000552031 	0.276225
0.0064214 	1.22164e-05 	-0.000552031 	0.276225
0.00647157 	1.23593e-05 	-0.000552514 	0.27631
0.00647157 	1.23593e-05 	-0.000552514 	0.27631
0.00652174 	1.24912e-05 	-0.000552984 	0.27638
0.00657191 	1.26138e-05 	-0.000553443 	0.276439
0.00657191 	1.26138e-05 	-0.000553443 	0.276439
0.00662207 	1.27364e-05 	-0.000553902 	0.276497
0.00667224 	1.2851e-05 	-0.000554349 	0.276547
0.00672241 	1.2951e-05 	-0.000554773 	0.276581
0.00672241 	1.2951e-05 	-0.000554773 	0.276581
0.00677258 	1.30509e-05 	-0.000555196 	0.276615
0.00682274 	1.31483e-05 	-0.000555616 	0.276647
0.00682274 	1.31483e-05 	-0.000555616 	0.276647
0.00687291 	1.32229e-05 	-0.000555996 	0.276656
0.00687291 	1.32229e-05 	-0.000555996 	0.276656
0.00692308 	1.32975e-05 	-0.000556376 	0.276665
0.00697324 	1.33722e-05 	-0.000556756 	0.276675
0.00702341 	1.34248e-05 	-0.000557077 	0.276665
0.00707358 	1.34717e-05 	-0.000557383 	0.27665
0.00707358 	1.34717e-05 	-0.000557383 	0.27665
0.00717391 	1.35525e-05 	-0.000557968 	0.27661
0.00717391 	1.35525e-05 	-0.000557968 	0.27661
0.00722408 	1.35687e-05 	-0.000558209 	0.276571
0.00722408 	1.35687e-05 	-0.000558209 	0.276571
0.00727425 	1.35849e-05 	-0.000558449 	0.276532
0.00727425 	1.35849e-05 	-0.000558449 	0.276532
0.00732441 	1.36011e-05 	-0.00055869 	0.276492
0.00732441 	1.36011e-05 	-0.00055869 	0.276492
0.00737458 	1.35847e-05 	-0.000558838 	0.276429
0.00737458 	1.35847e-05 	-0.000558838 	0.276429
0.00742475 	1.3568e-05 	-0.000558985 	0.276366
0.00747492 	1.35513e-05 	-0.000559133 	0.276303
0.00752508 	1.35181e-05 	-0.000559216 	0.276228
0.00752508 	1.35181e-05 	-0.000559216 	0.276228
0.00757525 	1.34684e-05 	-0.000559236 	0.276141
0.00762542 	1.34187e-05 	-0.000559256 	0.276054
0.00767559 	1.33687e-05 	-0.000559275 	0.275966
0.00767559 	1.33687e-05 	-0.000559275 	0.275966
0.00772575 	1.32873e-05 	-0.000559183 	0.275855
0.00777592 	1.32059e-05 	-0.000559092 	0.275744
0.00777592 	1.32059e-05 	-0.000559092 	0.275744
0.00782609 	1.31244e-05 	-0.000559 	0.275632
0.00787625 	1.30267e-05 	-0.000558829 	0.275508
0.00787625 	1.30267e-05 	-0.000558829 	0.275508
0.00792642 	1.29171e-05 	-0.000558599 	0.275373
0.00797659 	1.28075e-05 	-0.00055837 	0.275238
0.00802676 	1.26928e-05 	-0.000558111 	0.275098
0.00802676 	1.26928e-05 	-0.000558111 	0.275098
0.00807692 	1.25591e-05 	-0.000557744 	0.274941
0.00807692 	1.25591e-05 	-0.000557744 	0.274941
0.00812709 	1.24253e-05 	-0.000557377 	0.274783
0.00817726 	1.22916e-05 	-0.000557009 	0.274625
0.00817726 	1.22916e-05 	-0.000557009 	0.274625
0.00822742 	1.21391e-05 	-0.000556536 	0.274447
0.00827759 	1.19845e-05 	-0.000556051 	0.274266
0.00827759 	1.19845e-05 	-0.000556051 	0.274266
0.00832776 	1.18299e-05 	-0.000555565 	0.274086
0.00832776 	1.18299e-05 	-0.000555565 	0.274086
0.00837793 	1.16638e-05 	-0.000554997 	0.27389
0.00842809 	1.14916e-05 	-0.000554383 	0.273687
0.00842809 	1.14916e-05 	-0.000554383 	0.273687
0.00847826 	1.13194e-05 	-0.00055377 	0.273484
0.00847826 	1.13194e-05 	-0.00055377 	0.273484
0.0085786 	1.09537e-05 	-0.000552358 	0.273045
0.0085786 	1.09537e-05 	-0.000552358 	0.273045
0.00862876 	1.0767e-05 	-0.000551618 	0.272819
0.00867893 	1.05765e-05 	-0.000550838 	0.272586
0.0087291 	1.0378e-05 	-0.000549972 	0.272338
0.00877926 	1.01796e-05 	-0.000549105 	0.27209
0.00882943 	9.97903e-06 	-0.00054821 	0.271836
0.0088796 	9.77154e-06 	-0.000547219 	0.271565
0.0088796 	9.77154e-06 	-0.000547219 	0.271565
0.00892977 	9.56404e-06 	-0.000546228 	0.271295
0.00892977 	9.56404e-06 	-0.000546228 	0.271295
0.00897993 	9.35516e-06 	-0.000545211 	0.271019
0.00897993 	9.35516e-06 	-0.000545211 	0.271019
0.0090301 	9.14097e-06 	-0.000544096 	0.270726
0.00908027 	8.92678e-06 	-0.000542981 	0.270433
0.00908027 	8.92678e-06 	-0.000542981 	0.270433
0.00913043 	8.71152e-06 	-0.000541837 	0.270134
0.0091806 	8.49272e-06 	-0.000540598 	0.269818
0.0091806 	8.49272e-06 	-0.000540598 	0.269818
0.00923077 	8.27393e-06 	-0.00053936 	0.269502
0.00928094 	8.05428e-06 	-0.000538083 	0.269179
0.00928094 	8.05428e-06 	-0.000538083 	0.269179
0.0093311 	7.83272e-06 	-0.00053672 	0.26884
0.00938127 	7.61116e-06 	-0.000535358 	0.268501
0.00938127 	7.61116e-06 	-0.000535358 	0.268501
0.00943144 	7.38909e-06 	-0.000533941 	0.268152
0.00943144 	7.38909e-06 	-0.000533941 	0.268152
0.00948161 	7.16636e-06 	-0.000532454 	0.26779
0.00948161 	7.16636e-06 	-0.000532454 	0.26779
0.00953177 	6.94363e-06 	-0.000530967 	0.267428
0.00953177 	6.94363e-06 	-0.000530967 	0.267428
0.00958194 	6.72103e-06 	-0.000529403 	0.267051
0.00958194 	6.72103e-06 	-0.000529403 	0.267051
0.00963211 	6.49851e-06 	-0.00052779 	0.266665
0.00968227 	6.276e-06 	-0.000526177 	0.26628
0.00968227 	6.276e-06 	-0.000526177 	0.26628
0.00973244 	6.05467e-06 	-0.000524456 	0.265874
0.00978261 	5.83356e-06 	-0.000522716 	0.265464
0.00978261 	5.83356e-06 	-0.000522716 	0.265464
0.00983278 	5.61275e-06 	-0.000520959 	0.265052
0.00983278 	5.61275e-06 	-0.000520959 	0.265052
0.00988294 	5.39409e-06 	-0.000519088 	0.264618
0.00993311 	5.17543e-06 	-0.000517217 	0.264184
0.00993311 	5.17543e-06 	-0.000517217 	0.264184
0.00998328 	4.95828e-06 	-0.000515285 	0.263739
0.0100334 	4.74298e-06 	-0.00051328 	0.26328
0.0100836 	4.52767e-06 	-0.000511275 	0.262821
0.0100836 	4.52767e-06 	-0.000511275 	0.262821
0.0101338 	4.31577e-06 	-0.000509156 	0.262341
0.0101839 	4.10459e-06 	-0.000507012 	0.261857
0.0101839 	4.10459e-06 	-0.000507012 	0.261857
0.0102341 	3.89458e-06 	-0.000504834 	0.261367
0.0102341 	3.89458e-06 	-0.000504834 	0.261367
0.0102843 	3.6882e-06 	-0.000502547 	0.260856
0.0103344 	3.48181e-06 	-0.00050026 	0.260346
0.0103344 	3.48181e-06 	-0.00050026 	0.260346
0.0103846 	3.27921e-06 	-0.000497867 	0.259817
0.0103846 	3.27921e-06 	-0.000497867 	0.259817
0.0104348 	3.07818e-06 	-0.00049543 	0.259279
0.0104348 	3.07818e-06 	-0.00049543 	0.259279
0.0104849 	2.87841e-06 	-0.00049296 	0.258736
0.0104849 	2.87841e-06 	-0.00049296 	0.258736
0.0105351 	2.6832e-06 	-0.000490368 	0.258171
0.0105853 	2.48799e-06 	-0.000487776 	0.257607
0.0105853 	2.48799e-06 	-0.000487776 	0.257607
0.0106856 	2.10863e-06 	-0.000482303 	0.256427
0.0106856 	2.10863e-06 	-0.000482303 	0.256427
0.0107358 	1.92208e-06 	-0.000479486 	0.255822
0.010786 	1.73969e-06 	-0.000476561 	0.255199
0.010786 	1.73969e-06 	-0.000476561 	0.255199
0.0108361 	1.55735e-06 	-0.000473635 	0.254576
0.0108863 	1.38182e-06 	-0.000470533 	0.253923
0.0108863 	1.38182e-06 	-0.000470533 	0.253923
0.0109365 	1.2063e-06 	-0.000467431 	0.253269
0.0109365 	1.2063e-06 	-0.000467431 	0.253269
0.0109866 	1.03565e-06 	-0.000464202 	0.252594
0.0110368 	8.67216e-07 	-0.000460915 	0.251908
0.0110368 	8.67216e-07 	-0.000460915 	0.251908
0.011087 	7.0178e-07 	-0.000457548 	0.251209
0.011087 	7.0178e-07 	-0.000457548 	0.251209
0.0111371 	5.40685e-07 	-0.000454065 	0.25049
0.0111873 	3.80878e-07 	-0.000450546 	0.249766
0.0111873 	3.80878e-07 	-0.000450546 	0.249766
0.0112375 	2.27387e-07 	-0.000446851 	0.249012
0.0112876 	7.38954e-08 	-0.000443156 	0.248258
0.0112876 	7.38954e-08 	-0.000443156 	0.248258
0.0113378 	-7.19761e-08 	-0.000439238 	0.247469
0.0113378 	-7.19761e-08 	-0.000439238 	0.247469
0.011388 	-2.17614e-07 	-0.000435314 	0.246679
0.0114381 	-3.56729e-07 	-0.000431181 	0.245857
0.0114381 	-3.56729e-07 	-0.000431181 	0.245857
0.0114883 	-4.94312e-07 	-0.000426999 	0.245028
0.0115385 	-6.26202e-07 	-0.000422613 	0.244168
0.0115385 	-6.26202e-07 	-0.000422613 	0.244168
0.0115886 	-7.55504e-07 	-0.000418135 	0.243295
0.0116388 	-8.79735e-07 	-0.000413451 	0.242393
0.0116388 	-8.79735e-07 	-0.000413451 	0.242393
0.011689 	-1.00062e-06 	-0.000408632 	0.241473
0.0117391 	-1.11692e-06 	-0.000403595 	0.240523
0.0117893 	-1.22954e-06 	-0.000398385 	0.23955
0.0118395 	-1.33786e-06 	-0.000392938 	0.238546
0.0118395 	-1.33786e-06 	-0.000392938 	0.238546
0.0118896 	-1.44256e-06 	-0.000387293 	0.237516
0.0119398 	-1.54298e-06 	-0.000381386 	0.23645
0.0119398 	-1.54298e-06 	-0.000381386 	0.23645
0.01199 	-1.64013e-06 	-0.000375278 	0.235357
0.0120401 	-1.73273e-06 	-0.000368872 	0.234223
0.0120401 	-1.73273e-06 	-0.000368872 	0.234223
0.0120903 	-1.82259e-06 	-0.000362287 	0.233063
0.0120903 	-1.82259e-06 	-0.000362287 	0.233063
0.0121906 	-1.99016e-06 	-0.000348286 	0.230621
0.0121906 	-1.99016e-06 	-0.000348286 	0.230621
0.0122408 	-2.06713e-06 	-0.000340808 	0.229326
0.012291 	-2.143e-06 	-0.000333253 	0.228018
0.012291 	-2.143e-06 	-0.000333253 	0.228018
0.0123411 	-2.21221e-06 	-0.000325215 	0.226629
0.0123913 	-2.28019e-06 	-0.000317085 	0.225224
0.0123913 	-2.28019e-06 	-0.000317085 	0.225224
0.0124415 	-2.343e-06 	-0.000308571 	0.22375
0.0124415 	-2.343e-06 	-0.000308571 	0.22375
0.0124916 	-2.40328e-06 	-0.000299865 	0.222237
0.0124916 	-2.40328e-06 	-0.000299865 	0.222237
0.0125418 	-2.45999e-06 	-0.00029089 	0.220671
0.012592 	-2.51284e-06 	-0.000281624 	0.219041
0.0126421 	-2.56378e-06 	-0.000272215 	0.217379
0.0126421 	-2.56378e-06 	-0.000272215 	0.217379
0.0126923 	-2.60954e-06 	-0.000262425 	0.21562
0.0127425 	-2.65366e-06 	-0.000252523 	0.213828
0.0127425 	-2.65366e-06 	-0.000252523 	0.213828
0.0127926 	-2.69406e-06 	-0.000242366 	0.211958
0.0128428 	-2.73149e-06 	-0.000232032 	0.21002
0.0128428 	-2.73149e-06 	-0.000232032 	0.21002
0.0129431 	-2.79818e-06 	-0.000210928 	0.205942
0.0129431 	-2.79818e-06 	-0.000210928 	0.205942
0.0129933 	-2.82756e-06 	-0.000200213 	0.203796
0.0130435 	-2.85434e-06 	-0.000189416 	0.201575
0.0130435 	-2.85434e-06 	-0.000189416 	0.201575
0.0131438 	-2.89939e-06 	-0.000167741 	0.19686
0.0131438 	-2.89939e-06 	-0.000167741 	0.19686
0.013194 	-2.91822e-06 	-0.000156933 	0.194375
0.0132441 	-2.93417e-06 	-0.000146223 	0.19178
0.0132441 	-2.93417e-06 	-0.000146223 	0.19178
0.0132943 	-2.94823e-06 	-0.000135604 	0.189109
0.0133445 	-2.95966e-06 	-0.00012514 	0.18633
0.0133445 	-2.95966e-06 	-0.00012514 	0.18633
0.0133946 	-2.96811e-06 	-0.000114921 	0.183419
0.0133946 	-2.96811e-06 	-0.000114921 	0.183419
0.0134448 	-2.97451e-06 	-0.0001049 	0.180414
0.0134448 	-2.97451e-06 	-0.0001049 	0.180414
0.013495 	-2.97865e-06 	-9.51106e-05 	0.177303
0.0135452 	-2.97909e-06 	-8.57548e-05 	0.174015
0.0135452 	-2.97909e-06 	-8.57548e-05 	0.174015
0.0135953 	-2.97703e-06 	-7.67106e-05 	0.170607
0.0135953 	-2.97703e-06 	-7.67106e-05 	0.170607
0.0136455 	-2.97232e-06 	-6.80053e-05 	0.167069
0.0136455 	-2.97232e-06 	-6.80053e-05 	0.167069
0.0136957 	-2.96423e-06 	-5.97377e-05 	0.163366
0.0136957 	-2.96423e-06 	-5.97377e-05 	0.163366
0.0137458 	-2.95199e-06 	-5.20203e-05 	0.159454
0.013796 	-2.93638e-06 	-4.47539e-05 	0.155369
0.013796 	-2.93638e-06 	-4.47539e-05 	0.155369
0.0138462 	-2.91713e-06 	-3.7969e-05 	0.151099
0.0138462 	-2.91713e-06 	-3.7969e-05 	0.151099
0.0138963 	-2.89396e-06 	-3.16963e-05 	0.146628
0.0139465 	-2.86497e-06 	-2.61279e-05 	0.141867
0.0139465 	-2.86497e-06 	-2.61279e-05 	0.141867
0.0139967 	-2.83083e-06 	-2.11203e-05 	0.13686
0.0139967 	-2.83083e-06 	-2.11203e-05 	0.13686
0.0140468 	-2.79105e-06 	-1.66725e-05 	0.131592
0.0140468 	-2.79105e-06 	-1.66725e-05 	0.131592
0.014097 	-2.74487e-06 	-1.27928e-05 	0.126043
0.0141472 	-2.69132e-06 	-9.481e-06 	0.120187
0.0141472 	-2.69132e-06 	-9.481e-06 	0.120187
0.0141973 	-2.62918e-06 	-6.72275e-06 	0.114
0.0142475 	-2.55522e-06 	-4.56078e-06 	0.107382
0.0142977 	-2.46969e-06 	-2.86241e-06 	0.100347
0.0142977 	-2.46969e-06 	-2.86241e-06 	0.100347
0.0143478 	-2.37208e-06 	-1.58245e-06 	0.0928875
0.014398 	-2.2621e-06 	-6.80193e-07 	0.085021
0.014398 	-2.2621e-06 	-6.80193e-07 	0.085021
0.0144482 	-2.13958e-06 	-1.04807e-07 	0.0768058
0.0144983 	-2.00443e-06 	2.05914e-07 	0.0683464
0.0144983 	-2.00443e-06 	2.05914e-07 	0.0683464
0.0145485 	-1.85677e-06 	3.21663e-07 	0.0597928
0.0145485 	-1.85677e-06 	3.21663e-07 	0.0597928
0.0145987 	-1.69696e-06 	3.12997e-07 	0.0513256
0.0146488 	-1.52545e-06 	2.42688e-07 	0.0431261
0.014699 	-1.34257e-06 	1.58034e-07 	0.0353428
0.014699 	-1.34257e-06 	1.58034e-07 	0.0353428
0.0147492 	-1.14788e-06 	8.74735e-08 	0.0280712
0.0147993 	-9.37938e-07 	4.17507e-08 	0.0213559
0.0147993 	-9.37938e-07 	4.17507e-08 	0.0213559
0.0148495 	-6.99991e-07 	2.16808e-08 	0.0152066
0.0148495 	-6.99991e-07 	2.16808e-08 	0.0152066
0.0148997 	-4.24593e-07 	1.38178e-08 	0.00961358
0.0148997 	-4.24593e-07 	1.38178e-08 	0.00961358
0.0149498 	-1.59643e-07 	9.18515e-09 	0.00455815
0.0149498 	-1.59643e-07 	9.18515e-09 	0.00455815
0.015 	0 	0 	0
0.015 	0 	0 	0
