-0.0075 	373
-0.00715932 	361.105
-0.00676191 	359.25
-0.00629832 	358.506
-0.00575752 	358.046
-0.00512667 	357.684
-0.00439077 	357.358
-0.00353231 	357.042
-0.00253089 	356.718
-0.00136271 	356.367
0 	355.98
0.00136271 	355.556
0.00253089 	355.111
0.00353231 	354.653
0.00439077 	354.168
0.00512667 	353.617
0.00575752 	352.918
0.00629832 	351.884
0.00676191 	349.659
0.00715932 	338.422
0.0075 	313
