/*--------------------------------*- C++ -*----------------------------------*\
| =========                 |                                                 |
| \\      /  F ield         | OpenFOAM: The Open Source CFD Toolbox           |
|  \\    /   O peration     | Version:  v1906                                 |
|   \\  /    A nd           | Web:      www.OpenFOAM.com                      |
|    \\/     M anipulation  |                                                 |
\*---------------------------------------------------------------------------*/
FoamFile
{
    version     2.0;
    format      ascii;
    class       volScalarField;
    location    "100";
    object      p;
}
// * * * * * * * * * * * * * * * * * * * * * * * * * * * * * * * * * * * * * //

dimensions      [1 -1 -2 0 0 0 0];


internalField   nonuniform List<scalar> 
630
(
99264
99260.4
99260.9
99260.4
99263.5
99260.6
99260.9
99260.6
99262.9
99260.9
99260.8
99260.7
99262.4
99261.2
99260.8
99260.8
99261.7
99261.5
99260.7
99261
99261.1
99261.8
99260.7
99261.3
99260.4
99262.1
99260.6
99261.8
99259.8
99262.4
99260.5
99262.2
99259.2
99262.8
99260.5
99262.7
99258.9
99263.1
99260.4
99263.2
99258.6
99263.5
99260.3
99263.7
99258.3
99263.8
99260.2
99264.2
99257.7
99263.9
99260.1
99264.8
99257
99264.1
99260
99265.4
99256.2
99264.3
99259.9
99266
99255.3
99264.7
99259.8
99266.6
99254.5
99265.2
99259.7
99267.2
99253.6
99265.7
99259.6
99267.9
99252.8
99266.2
99259.5
99268.4
99251.9
99266.8
99259.4
99268.7
99251
99267.3
99259.3
99269
99250.1
99267.9
99259.1
99269.4
99249.3
99268.4
99259
99270
99248.3
99269
99258.9
99270.7
99247.5
99269.6
99258.7
99271.5
99246.8
99270.1
99258.6
99272.2
99246.3
99270.7
99258.5
99273
99245.9
99271.2
99258.4
99273.8
99245.5
99271.5
99258.3
99274.6
99244.9
99271.9
99258.1
99275.3
99244.2
99272.3
99257.9
99276.1
99243.4
99272.8
99257.7
99276.9
99242.6
99273.3
99257.5
99277.6
99241.8
99273.8
99257.2
99278.4
99241.1
99274.3
99257
99279.1
99240.4
99274.8
99256.7
99279.8
99239.7
99275.3
99256.5
99280.5
99239
99275.8
99256.3
99281.2
99238.4
99276.2
99256
99281.9
99237.8
99276.7
99255.8
99282.5
99237.2
99277.1
99255.5
99283.1
99236.6
99277.5
99255.3
99283.7
99236.1
99277.9
99255.1
99284.3
99235.6
99278.3
99254.8
99284.9
99235.1
99278.7
99254.6
99285.4
99234.7
99279
99254.4
99285.9
99234.2
99279.4
99254.2
99286.4
99233.8
99279.7
99253.9
99286.8
99233.4
99280
99253.7
99287.2
99233.1
99280.2
99253.6
99287.7
99232.8
99280.5
99253.4
99288
99232.5
99280.8
99253.2
99288.4
99232.2
99281
99253
99288.7
99231.9
99281.2
99252.9
99289
99231.7
99281.4
99252.7
99289.3
99231.5
99281.6
99252.6
99289.5
99231.3
99281.7
99252.5
99289.8
99231.1
99281.9
99252.4
99290
99231
99282
99252.3
99290.2
99230.9
99282.1
99252.2
99290.3
99230.7
99282.2
99252.1
99290.5
99230.6
99282.3
99252
99290.6
99230.5
99282.4
99251.9
99290.7
99230.5
99282.5
99251.9
99290.8
99230.4
99282.5
99251.8
99290.9
99230.3
99282.6
99251.8
99290.9
99230.3
99282.6
99251.7
99291
99230.2
99282.7
99251.7
99291.1
99230.2
99282.7
99251.7
99291.1
99230.1
99282.7
99251.6
99291.1
99230.1
99282.8
99251.6
99291.2
99230
99282.8
99251.6
99291.2
99230
99282.8
99251.6
99291.2
99230
99282.8
99251.6
99291.2
99230
99282.8
99251.6
99291.3
99229.9
99282.9
99251.6
99291.3
99229.9
99282.9
99251.5
99291.3
99229.9
99282.9
99251.5
99291.3
99229.9
99282.9
99251.5
99291.3
99068.1
99071.4
99071.8
99069.4
99067.9
99071.5
99071.8
99069.4
99067.7
99071.5
99071.8
99069.4
99067.6
99071.5
99071.7
99069.5
99067.4
99071.5
99071.7
99069.5
99067.2
99071.5
99071.7
99069.5
99067
99071.5
99071.7
99069.6
99066.7
99071.5
99071.7
99069.6
99066.5
99071.5
99071.6
99069.6
99066.3
99071.5
99071.6
99069.6
99066.1
99071.5
99071.6
99069.7
99065.9
99071.6
99071.6
99069.7
99065.6
99071.6
99071.6
99069.7
99065.4
99071.6
99071.6
99069.8
99065.2
99071.6
99071.6
99069.8
99065
99071.6
99071.6
99069.8
99064.8
99071.6
99071.6
99069.9
99064.5
99071.6
99071.6
99069.9
99064.3
99071.6
99071.6
99069.9
99064.1
99071.7
99071.6
99070
99063.9
99071.7
99071.5
99070
99063.7
99071.7
99071.5
99070
99063.5
99071.7
99071.5
99070.1
99063.3
99071.7
99071.5
99070.1
99063.1
99071.7
99071.5
99070.1
99062.9
99071.7
99071.5
99070.2
99062.7
99071.8
99071.5
99070.2
99062.5
99071.8
99071.5
99070.2
99062.3
99071.8
99071.5
99070.3
99062.1
99071.8
99071.5
99070.3
99062
99071.8
99071.5
99070.3
99061.8
99071.8
99071.5
99070.4
99061.6
99071.8
99071.5
99070.4
99061.5
99071.8
99071.5
99070.4
99061.3
99071.8
99071.5
99070.5
99061.2
99071.8
99071.5
99070.5
99061.1
99071.8
99071.5
99070.5
99060.9
99071.8
99071.4
99070.5
99060.8
99071.8
99071.4
99070.6
99060.7
99071.8
99071.4
99070.6
99060.6
99071.8
99071.4
99070.6
99060.5
99071.8
99071.4
99070.6
99060.4
99071.8
99071.4
99070.7
99060.3
99071.8
99071.4
99070.7
99060.2
99071.8
99071.4
99070.7
99060.1
99071.8
99071.4
99070.7
99060.1
99071.8
99071.4
99070.7
99060
99071.8
99071.4
99070.7
99059.9
99071.8
99071.4
99070.8
99059.8
99071.8
99071.4
99070.8
99059.8
99071.8
99071.4
99070.8
99059.7
99071.8
99071.4
99070.8
99059.7
99071.8
99071.4
99070.8
99059.6
99071.8
99071.4
99070.8
99059.6
99071.8
99071.4
99070.8
99059.5
99071.8
99071.4
99070.8
99059.5
99071.8
99071.4
99070.9
99059.5
99071.8
99071.4
99070.9
99059.4
99071.8
99071.4
99070.9
99059.4
99071.8
99071.4
99070.9
99059.4
99071.8
99071.4
99070.9
99059.3
99071.8
99071.4
99070.9
99059.3
99071.8
99071.4
99070.9
99059.3
99071.8
99071.4
99070.9
99059.3
99071.8
99071.3
99070.9
99059.3
99071.8
99071.3
99070.9
99059.3
99071.8
99071.3
99070.9
99059.2
99071.8
99071.3
99070.9
99059.2
99071.8
99071.3
99070.9
99059.2
99071.8
99071.3
99070.9
99059.2
99071.8
99071.3
99070.9
99059.2
99071.8
99071.3
99070.9
99059.2
99071.8
99071.3
99070.9
99059.2
99071.8
99071.3
99070.9
99059.2
99071.8
99071.3
99070.9
99059.2
99071.8
99071.3
99070.9
99059.2
99071.8
99071.3
99070.9
99059.2
99071.8
99071.3
99070.9
99059.2
99071.8
)
;

boundaryField
{
    leftWall
    {
        type            calculated;
        value           nonuniform 0();
    }
    rightWall
    {
        type            calculated;
        value           nonuniform List<scalar> 8(99229.9 99071.3 99282.9 99070.9 99251.5 99059.2 99291.3 99071.8);
    }
    leftSides_periodic0
    {
        type            cyclic;
    }
    leftSides_periodic1
    {
        type            cyclic;
    }
    rightSides_periodic0
    {
        type            cyclic;
    }
    rightSides_periodic1
    {
        type            cyclic;
    }
    leftInOut_periodic0
    {
        type            cyclic;
    }
    leftInOut_periodic1
    {
        type            cyclic;
    }
    rightInOut_periodic0
    {
        type            cyclic;
    }
    rightInOut_periodic1
    {
        type            cyclic;
    }
    procBoundary3to1
    {
        type            processor;
        value           nonuniform List<scalar> 
316
(
99508.8
99512.2
99515.5
99511.1
99508.8
99512.2
99515.6
99511
99508.9
99512.2
99515.6
99511.1
99508.9
99512.2
99515.7
99511.1
99509
99512.3
99515.8
99511.1
99509
99512.3
99515.9
99511.1
99509.1
99512.3
99516
99511.1
99509.2
99512.3
99516.1
99511.1
99509.3
99512.3
99516.2
99511.1
99509.4
99512.3
99516.3
99511
99509.5
99512.3
99516.4
99511
99509.6
99512.3
99516.5
99511
99509.8
99512.2
99516.6
99511
99509.9
99512.2
99516.7
99511
99510.1
99512.2
99516.8
99510.9
99510.2
99512.2
99516.9
99510.9
99510.4
99512.1
99517
99510.9
99510.5
99512.1
99517.1
99510.8
99510.7
99512.1
99517.1
99510.8
99510.9
99512
99517.2
99510.7
99511.1
99512
99517.2
99510.7
99511.2
99511.9
99517.3
99510.6
99511.4
99511.8
99517.4
99510.6
99511.6
99511.8
99517.5
99510.5
99511.8
99511.7
99517.7
99510.4
99512
99511.7
99517.8
99510.4
99512.2
99511.6
99517.9
99510.3
99512.4
99511.5
99517.9
99510.2
99512.5
99511.4
99518
99510.1
99512.7
99511.4
99518.1
99510
99512.9
99511.3
99518.2
99510
99513.1
99511.2
99518.3
99509.9
99513.2
99511.1
99518.4
99509.8
99513.4
99511.1
99518.5
99509.7
99513.6
99511
99518.6
99509.6
99513.7
99510.9
99518.7
99509.6
99513.9
99510.8
99518.8
99509.5
99514
99510.8
99518.9
99509.4
99514.2
99510.7
99519
99509.3
99514.3
99510.6
99519.1
99509.3
99514.5
99510.6
99519.1
99509.2
99514.6
99510.5
99519.2
99509.1
99514.7
99510.4
99519.3
99509.1
99514.8
99510.4
99519.4
99509
99514.9
99510.3
99519.4
99508.9
99515
99510.3
99519.5
99508.9
99515.1
99510.2
99519.6
99508.8
99515.2
99510.2
99519.6
99508.8
99515.3
99510.1
99519.7
99508.7
99515.4
99510.1
99519.7
99508.7
99515.5
99510
99519.8
99508.7
99515.5
99510
99519.8
99508.6
99515.6
99510
99519.9
99508.6
99515.6
99509.9
99519.9
99508.6
99515.7
99509.9
99519.9
99508.5
99515.7
99509.9
99520
99508.5
99515.8
99509.8
99520
99508.5
99515.8
99509.8
99520
99508.5
99515.8
99509.8
99520
99508.5
99515.9
99509.8
99520.1
99508.4
99515.9
99509.8
99520.1
99508.4
99515.9
99509.8
99520.1
99508.4
99515.9
99509.7
99520.1
99508.4
99516
99509.7
99520.1
99508.4
99516
99509.7
99520.1
99508.4
99516
99509.7
99520.1
99508.4
99516
99509.7
99520.1
99508.4
99516
99509.7
99520.2
99508.4
99516
99509.7
99520.2
99508.4
99516
99509.7
99520.2
99508.3
99516
99509.7
99520.2
99508.3
99516
99509.7
99520.2
99508.3
99516
99509.7
99520.2
99508.3
99516.1
99509.7
99520.2
99508.3
99516.1
99509.7
99520.2
99508.3
99516.1
99509.7
99520.2
99508.3
99516.1
99509.7
99520.2
99508.3
99516.1
99509.7
99520.2
99508.3
99516.1
99509.7
99520.2
99508.3
)
;
    }
    procBoundary3to1throughrightSides_periodic1
    {
        type            processorCyclic;
        value           nonuniform List<scalar> 
314
(
99915.2
99913.6
99912.1
99910.6
99909
99907.4
99905.8
99904.3
99902.7
99901.1
99899.5
99897.9
99896.3
99894.8
99893.2
99891.7
99890.2
99888.8
99887.3
99885.9
99884.6
99883.3
99882
99880.7
99879.5
99878.4
99877.2
99876.1
99875.1
99874
99873.1
99872.2
99871.6
99871
99870.3
99869.7
99869
99868.3
99867.6
99867.1
99866.5
99866
99865.5
99865.1
99864.7
99864.4
99864
99863.7
99863.4
99863.1
99862.9
99862.6
99862.4
99862.2
99862
99861.9
99861.7
99861.6
99861.5
99861.3
99861.2
99861.1
99861.1
99861
99860.9
99860.8
99860.8
99860.7
99860.7
99860.6
99860.6
99860.5
99860.5
99860.5
99860.4
99860.4
99860.4
99860.4
99926.2
99926.9
99927.6
99928.2
99928.7
99929
99929.3
99929.8
99930.6
99931.4
99932.3
99933.1
99934
99934.8
99935.7
99936.6
99937.5
99938.4
99939.3
99940.2
99941
99941.9
99942.8
99943.7
99944.5
99945.3
99946.1
99946.9
99947.7
99948.4
99949.1
99949.9
99950.5
99951.2
99951.8
99952.4
99953
99953.6
99954.1
99954.7
99955.2
99955.6
99956.1
99956.5
99956.9
99957.1
99957.4
99957.7
99958
99958.3
99958.6
99958.9
99959.1
99959.3
99959.5
99959.7
99959.9
99960
99960.1
99960.2
99960.3
99960.4
99960.5
99960.6
99960.6
99960.7
99960.7
99960.8
99960.8
99960.8
99960.9
99960.9
99960.9
99960.9
99960.9
99961
99961
99961
99919.7
99919.3
99918.9
99918.5
99918.1
99917.7
99917.3
99916.9
99916.5
99916.1
99915.7
99915.3
99915
99914.6
99914.2
99913.9
99913.5
99913.1
99912.8
99912.4
99912.1
99911.7
99911.4
99911
99910.7
99910.4
99910.1
99909.8
99909.5
99909.2
99908.8
99908.5
99908.1
99907.8
99907.4
99907.1
99906.8
99906.5
99906.2
99905.9
99905.5
99905.2
99904.9
99904.6
99904.3
99904.1
99903.8
99903.6
99903.4
99903.2
99903
99902.8
99902.5
99902.3
99902.2
99902
99901.9
99901.7
99901.6
99901.5
99901.4
99901.3
99901.2
99901.1
99901
99901
99900.9
99900.9
99900.8
99900.8
99900.8
99900.8
99900.7
99900.7
99900.7
99900.7
99900.7
99900.7
99900.7
99926.8
99927.4
99928.1
99928.7
99929.4
99930.1
99930.8
99931.5
99932.2
99932.9
99933.7
99934.4
99935.2
99936
99936.8
99937.3
99937.7
99938.1
99938.8
99939.7
99940.6
99941.5
99942.4
99943.2
99944.1
99945
99945.9
99946.7
99947.6
99948.4
99949.2
99950
99950.8
99951.6
99952.3
99953
99953.7
99954.4
99955.1
99955.7
99956.3
99956.9
99957.4
99957.9
99958.4
99958.9
99959.4
99959.8
99960.1
99960.5
99960.7
99961
99961.2
99961.5
99961.8
99962
99962.2
99962.4
99962.5
99962.7
99962.8
99962.9
99963
99963.1
99963.2
99963.2
99963.3
99963.3
99963.4
99963.4
99963.4
99963.5
99963.5
99963.5
99963.5
99963.6
99963.6
99963.6
99963.6
)
;
    }
    procBoundary3to2
    {
        type            processor;
        value           nonuniform List<scalar> 
11
(
99264.6
99260.2
99261
99260.2
99068.2
99071.4
99071.8
99069.3
99071.8
99069.3
99069.3
)
;
    }
    procBoundary3to2throughrightInOut_periodic0
    {
        type            processorCyclic;
        value           uniform 99071.8;
    }
}


// ************************************************************************* //
