/*--------------------------------*- C++ -*----------------------------------*\
| =========                 |                                                 |
| \\      /  F ield         | OpenFOAM: The Open Source CFD Toolbox           |
|  \\    /   O peration     | Version:  v1906                                 |
|   \\  /    A nd           | Web:      www.OpenFOAM.com                      |
|    \\/     M anipulation  |                                                 |
\*---------------------------------------------------------------------------*/
FoamFile
{
    version     2.0;
    format      ascii;
    class       surfaceScalarField;
    location    "100";
    object      phi;
}
// * * * * * * * * * * * * * * * * * * * * * * * * * * * * * * * * * * * * * //

dimensions      [1 0 -1 0 0 0 0];
oriented        oriented;


internalField   nonuniform List<scalar> 
1408
(
2.47063e-05
-0.00119887
3.1405e-05
0.00048203
-1.58891e-05
0.000773011
-0.000604537
0.00111806
-0.000557974
2.26885e-05
-0.00125267
-0.000516006
2.93905e-05
0.000473789
-0.000561605
-1.52386e-05
0.000805524
-0.00059411
0.00112654
-0.000547611
2.071e-05
-0.00130191
-0.000506853
2.73654e-05
0.000465452
-0.000551306
-1.4172e-05
0.000835157
-0.000583661
0.00113536
-0.000535139
1.87829e-05
-0.00134522
-0.000498087
2.53382e-05
0.000457047
-0.000540923
-1.25379e-05
0.000861376
-0.000573262
0.00114354
-0.000518511
1.69051e-05
-0.00138252
-0.000489693
2.3319e-05
0.000448537
-0.000530454
-1.1406e-05
0.000884722
-0.000562935
0.00115078
-0.000503812
1.50723e-05
-0.0014137
-0.000481624
2.13296e-05
0.000439833
-0.000519901
-1.07128e-05
0.000905686
-0.000552698
0.00115697
-0.000491299
1.32778e-05
-0.00143849
-0.000473858
1.93954e-05
0.00043086
-0.000509303
-1.0198e-05
0.000924515
-0.000542565
0.00116188
-0.000479848
1.15247e-05
-0.00145678
-0.000466297
1.75377e-05
0.000421719
-0.000498769
-9.75095e-06
0.000941361
-0.000532547
0.00116535
-0.000468744
9.81625e-06
-0.001469
-0.000458116
1.57699e-05
0.00041261
-0.000488347
-9.337e-06
0.000956349
-0.00052265
0.00116732
-0.00045776
8.14785e-06
-0.00147592
-0.000447888
1.40808e-05
0.000403744
-0.000478144
-8.94505e-06
0.000969579
-0.00051288
0.00116782
-0.000446937
6.57651e-06
-0.00147856
-0.000434384
1.24905e-05
0.000395447
-0.000468403
-8.5615e-06
0.000981154
-0.000503238
0.00116706
-0.000436296
4.98057e-06
-0.00147799
-0.000419649
1.08851e-05
0.000388061
-0.000458684
-8.17146e-06
0.000991045
-0.000493726
0.00116527
-0.000425844
3.0463e-06
-0.00147451
-0.000406635
8.96997e-06
0.000381626
-0.000447221
-7.76811e-06
0.000998925
-0.00048434
0.00116245
-0.000415582
1.02329e-06
-0.00146875
-0.00039452
6.81553e-06
0.00037584
-0.000433225
-7.35543e-06
0.00100454
-0.000475078
0.00115853
-0.00040551
-4.12465e-07
-0.00146184
-0.000382671
5.27681e-06
0.000370552
-0.000421098
-6.95574e-06
0.0010085
-0.000465937
0.00115353
-0.000395624
-1.6343e-06
-0.00145414
-0.000371122
4.04783e-06
0.000365643
-0.000410812
-6.64205e-06
0.00101127
-0.000456917
0.0011475
-0.000385912
-2.91712e-06
-0.0014454
-0.000360007
3.00736e-06
0.000360749
-0.000401439
-6.26811e-06
0.00101306
-0.000448014
0.00114062
-0.000376446
-4.07089e-06
-0.00143535
-0.000349381
1.98293e-06
0.000355854
-0.000392423
-5.80996e-06
0.00101405
-0.000439218
0.00113305
-0.000367425
-5.14216e-06
-0.00142367
-0.0003392
9.04243e-07
0.000351011
-0.000383553
-5.44834e-06
0.0010147
-0.000430514
0.00112473
-0.000358608
-6.132e-06
-0.00141024
-0.000329405
-8.47873e-08
0.000346165
-0.000374828
-5.17647e-06
0.00101521
-0.000421876
0.00111571
-0.000348945
-7.046e-06
-0.00139563
-0.000319944
-1.05624e-06
0.00034135
-0.000366258
-4.71499e-06
0.00101504
-0.000413284
0.00110656
-0.00033774
-7.89012e-06
-0.00138021
-0.000310771
-2.04026e-06
0.000336638
-0.000357843
-4.20777e-06
0.00101377
-0.000404727
0.0010976
-0.000327234
-8.67509e-06
-0.00136376
-0.000301859
-3.03005e-06
0.000332091
-0.000349576
-3.9634e-06
0.00101149
-0.0003962
0.00108838
-0.000318119
-9.4242e-06
-0.0013459
-0.000293237
-4.00297e-06
0.000327725
-0.000341446
-3.8112e-06
0.0010083
-0.000387725
0.00107848
-0.000309855
-1.01966e-05
-0.00132638
-0.000284903
-4.88849e-06
0.00032343
-0.000333438
-3.68125e-06
0.00100435
-0.000379377
0.00106773
-0.000302009
-1.10875e-05
-0.0013049
-0.000276609
-5.67058e-06
0.000318981
-0.000325569
-3.73052e-06
0.00100005
-0.000371045
0.00105576
-0.000294372
-1.2105e-05
-0.00128136
-0.000267813
-6.45267e-06
0.000314267
-0.00031792
-3.88182e-06
0.00099554
-0.000362158
0.00104249
-0.0002869
-1.30136e-05
-0.00125633
-0.000258224
-7.36383e-06
0.000309564
-0.00031038
-3.77927e-06
0.000990343
-0.000352135
0.00102854
-0.000279588
-1.34676e-05
-0.00123089
-0.000248662
-8.3954e-06
0.000305445
-0.000302497
-3.30977e-06
0.000983819
-0.000341904
0.00101474
-0.000272428
-1.34071e-05
-0.0012056
-0.000240116
-9.42501e-06
0.000302335
-0.000294126
-2.82653e-06
0.000975923
-0.000332725
0.00100112
-0.000265411
-1.32164e-05
-0.00118036
-0.000232437
-1.02249e-05
0.000300056
-0.00028609
-2.53649e-06
0.000967087
-0.000324481
0.000987226
-0.00025853
-1.32754e-05
-0.00115484
-0.00022519
-1.08581e-05
0.00029805
-0.000278469
-2.36767e-06
0.000957551
-0.000316715
0.000972773
-0.000251781
-1.36771e-05
-0.00112878
-0.000218112
-1.1575e-05
0.000295862
-0.000271003
-2.19324e-06
0.000947163
-0.000309136
0.000957747
-0.000245157
-1.41643e-05
-0.00110223
-0.000211124
-1.23173e-05
0.000293368
-0.000263671
-1.99071e-06
0.000935829
-0.000301655
0.000942175
-0.00023864
-1.46266e-05
-0.00107529
-0.000204247
-1.29926e-05
0.000290646
-0.000256579
-1.76475e-06
0.000923538
-0.000294249
0.000926058
-0.000232204
-1.50662e-05
-0.00104803
-0.000197501
-1.36095e-05
0.000287807
-0.000249749
-1.51499e-06
0.000910256
-0.000286891
0.00090938
-0.00022583
-1.54867e-05
-0.00102049
-0.000190892
-1.41777e-05
0.000284901
-0.000243108
-1.24372e-06
0.00089595
-0.000279577
0.000892128
-0.000219518
-1.58896e-05
-0.000992708
-0.000184413
-1.47038e-05
0.000281914
-0.000236579
-9.55888e-07
0.000880599
-0.000272321
0.000874302
-0.00021328
-1.62752e-05
-0.000964761
-0.000178056
-1.51938e-05
0.000278788
-0.000230106
-6.57008e-07
0.000864192
-0.000265133
0.00085593
-0.000207127
-1.66436e-05
-0.00093669
-0.000171816
-1.56531e-05
0.000275445
-0.000223656
-3.51381e-07
0.000846727
-0.00025802
0.000837032
-0.00020106
-1.69946e-05
-0.000908528
-0.000165688
-1.60855e-05
0.000271814
-0.00021723
-4.15354e-08
0.000828203
-0.000250981
0.000817612
-0.000195076
-1.73279e-05
-0.000880304
-0.000159668
-1.64931e-05
0.00026785
-0.000210845
2.70894e-07
0.000808622
-0.000244013
0.000797671
-0.000189169
-1.76433e-05
-0.000852045
-0.000153753
-1.68776e-05
0.000263532
-0.000204517
5.84455e-07
0.000787989
-0.000237114
0.000777209
-0.000183333
-1.79403e-05
-0.000823774
-0.00014794
-1.72405e-05
0.000258847
-0.000198252
8.9748e-07
0.00076631
-0.000230279
0.000756227
-0.000177565
-1.8219e-05
-0.000795507
-0.000142228
-1.75829e-05
0.000253787
-0.000192045
1.20785e-06
0.000743596
-0.000223505
0.000734724
-0.000171862
-1.84797e-05
-0.000767256
-0.000136617
-1.79051e-05
0.000248343
-0.000185893
1.51357e-06
0.000719862
-0.000216789
0.000712702
-0.000166222
-1.87224e-05
-0.000739022
-0.000131107
-1.82079e-05
0.000242513
-0.000179796
1.81371e-06
0.000695129
-0.000210126
0.000690162
-0.000160641
-1.89469e-05
-0.000710802
-0.000125694
-1.84917e-05
0.000236308
-0.000173756
2.10784e-06
0.000669424
-0.000203515
0.000667106
-0.000155116
-1.9153e-05
-0.000682591
-0.000120375
-1.87559e-05
0.000229751
-0.000167779
2.39447e-06
0.000642787
-0.000196957
0.000643537
-0.000149641
-1.93405e-05
-0.000654378
-0.000115146
-1.89986e-05
0.000222869
-0.000161863
2.67088e-06
0.000615278
-0.000190452
0.000619459
-0.000144216
-1.95092e-05
-0.00062615
-0.000110003
-1.92176e-05
0.000215692
-0.000156002
2.93446e-06
0.000586973
-0.000183992
0.000594884
-0.000138838
-1.96588e-05
-0.000597885
-0.000104943
-1.94098e-05
0.00020825
-0.000150188
3.18437e-06
0.000557957
-0.000177567
0.000569832
-0.000133505
-1.97884e-05
-0.000569558
-9.99605e-05
-1.95721e-05
0.000200583
-0.000144413
3.42214e-06
0.000528317
-0.000171157
0.000544337
-0.000128212
-1.98971e-05
-0.000541141
-9.50485e-05
-1.97016e-05
0.00019273
-0.000138665
3.65068e-06
0.000498137
-0.000164747
0.000518451
-0.000122951
-1.99851e-05
-0.000512602
-9.01978e-05
-1.97951e-05
0.000184726
-0.000132937
3.87213e-06
0.000467506
-0.000158319
0.000492233
-0.000117716
-2.00522e-05
-0.000483905
-8.54028e-05
-1.98472e-05
0.000176597
-0.000127216
4.08614e-06
0.000436515
-0.000151863
0.000465742
-0.000112497
-2.00952e-05
-0.000455019
-8.06589e-05
-1.98514e-05
0.000168359
-0.000121486
4.28835e-06
0.000405269
-0.000145367
0.000439038
-0.000107286
-2.01059e-05
-0.000425926
-7.59608e-05
-1.97996e-05
0.000160029
-0.000115733
4.47212e-06
0.000373886
-0.000138821
0.000412178
-0.000102071
-2.00732e-05
-0.000396633
-7.13027e-05
-1.96807e-05
0.000151622
-0.000109941
4.63039e-06
0.000342502
-0.000132213
0.000385229
-9.68362e-05
-1.99854e-05
-0.000367182
-6.66792e-05
-1.94823e-05
0.000143158
-0.000104098
4.75365e-06
0.000311278
-0.000125532
0.000358269
-9.15693e-05
-1.98306e-05
-0.000337647
-6.20866e-05
-1.91916e-05
0.00013465
-9.81884e-05
4.83107e-06
0.000280398
-0.000118766
0.000331382
-8.62571e-05
-1.95964e-05
-0.000308141
-5.75225e-05
-1.87959e-05
0.000126113
-9.22006e-05
4.85258e-06
0.000250064
-0.000111902
0.000304664
-8.08861e-05
-1.92711e-05
-0.000278818
-5.2978e-05
-1.82841e-05
0.000117558
-8.61247e-05
4.8102e-06
0.000220499
-0.000104928
0.00027821
-7.5439e-05
-1.88473e-05
-0.000249867
-4.84486e-05
-1.76477e-05
0.000108993
-7.99567e-05
4.69693e-06
0.000191934
-9.78356e-05
0.000252123
-6.99068e-05
-1.83192e-05
-0.000221501
-4.3949e-05
-1.68769e-05
0.000100413
-7.36877e-05
4.50446e-06
0.000164605
-9.0606e-05
0.000226511
-6.42912e-05
-1.76767e-05
-0.00019396
-3.95076e-05
-1.59624e-05
9.18043e-05
-6.73048e-05
4.22632e-06
0.000138759
-8.32283e-05
0.000201489
-5.86001e-05
-1.69031e-05
-0.000167516
-3.51647e-05
-1.48982e-05
8.31573e-05
-6.08174e-05
3.85731e-06
0.000114655
-7.57155e-05
0.000177183
-5.28572e-05
-1.59857e-05
-0.000142462
-3.09691e-05
-1.36814e-05
7.44679e-05
-5.42681e-05
3.3969e-06
9.25523e-05
-6.80892e-05
0.000153731
-4.7107e-05
-1.49246e-05
-0.000119095
-2.6971e-05
-1.23216e-05
6.57418e-05
-4.77327e-05
2.86033e-06
7.26817e-05
-6.03905e-05
0.000131307
-4.14145e-05
-1.36671e-05
-9.78153e-05
-2.32133e-05
-1.08463e-05
5.70725e-05
-4.13163e-05
2.27844e-06
5.5211e-05
-5.27055e-05
0.000110181
-3.58598e-05
-1.22441e-05
-7.88651e-05
-1.97233e-05
-9.29582e-06
4.85799e-05
-3.51385e-05
1.68828e-06
4.02301e-05
-4.51598e-05
9.05477e-05
-3.05287e-05
-1.07624e-05
-6.23192e-05
-1.6511e-05
-7.72041e-06
4.03483e-05
-2.93083e-05
1.12351e-06
2.77456e-05
-3.78969e-05
7.25883e-05
-2.54984e-05
-9.27965e-06
-4.81325e-05
-1.35718e-05
-6.17215e-06
3.24725e-05
-2.39032e-05
6.06175e-07
1.7695e-05
-3.10513e-05
5.64404e-05
-2.0825e-05
-7.8483e-06
-3.61485e-05
-1.08939e-05
-4.69991e-06
2.50493e-05
-1.89637e-05
1.45144e-07
9.97146e-06
-2.47232e-05
4.2178e-05
-1.65403e-05
-6.51149e-06
-2.61113e-05
-8.4676e-06
-3.34244e-06
1.81753e-05
-1.45062e-05
-2.56572e-07
4.44052e-06
-1.89715e-05
2.98099e-05
-1.26598e-05
-5.30632e-06
-1.76629e-05
-6.29414e-06
-2.17094e-06
1.19963e-05
-1.05438e-05
-5.91317e-07
9.0481e-07
-1.38272e-05
1.92917e-05
-9.19974e-06
-4.27344e-06
-1.03057e-05
-4.40396e-06
-1.27196e-06
6.7401e-06
-7.1161e-06
-8.37666e-07
-9.13582e-07
-9.32385e-06
1.05367e-05
-6.20334e-06
-3.34195e-06
-3.81808e-06
-2.78887e-06
-4.16411e-07
2.46195e-06
-4.17651e-06
-1.06451e-06
-9.87228e-07
-5.43102e-06
3.61188e-06
-3.64142e-06
-1.75852e-06
-1.142e-06
2.58391e-07
-1.44221e-06
-8.54794e-07
-1.86307e-06
-1.26212e-06
3.71615e-07
-2.55712e-05
-0.000389793
1.67026e-06
-5.40741e-05
-4.51625e-06
0.000260812
-2.98317e-08
-3.82506e-05
-0.000422324
1.70852e-06
-7.52456e-05
-4.15254e-06
0.000252213
-4.29949e-07
-4.98078e-05
-0.000452116
1.77548e-06
-9.66569e-05
-3.78623e-06
0.000243781
-7.77348e-07
-6.02324e-05
-0.000474935
1.84451e-06
-0.000118236
-3.44112e-06
0.000234888
-9.39138e-07
-6.96999e-05
-0.000492769
1.88672e-06
-0.000139865
-3.13491e-06
0.000224458
-9.31033e-07
-7.841e-05
-0.000507911
1.88093e-06
-0.000161472
-2.85905e-06
0.000211421
-7.77698e-07
-8.65486e-05
-0.000521415
1.79968e-06
-0.000183044
-2.5564e-06
0.000197172
-4.73962e-07
-9.42637e-05
-0.000533434
1.56557e-06
-0.000204124
-2.19821e-06
0.000183199
-9.25838e-08
-0.000101611
-0.000543798
1.193e-06
-0.000223148
-1.79312e-06
0.000169775
3.42991e-07
-0.000108636
-0.000552354
7.57954e-07
-0.000237257
-1.3526e-06
0.000156481
8.22078e-07
-0.000115388
-0.000559021
1.64918e-07
-0.000245615
-8.86082e-07
0.000143284
1.33906e-06
-0.000121922
-0.000563773
-4.28409e-07
-0.000250659
-4.2197e-07
0.000132135
1.88379e-06
-0.000128309
-0.000566605
-1.05242e-06
-0.000253819
1.6339e-08
0.000125679
2.44716e-06
-0.000134631
-0.000567758
-1.70837e-06
-0.000255412
4.07857e-07
0.000122065
3.0274e-06
-0.00014099
-0.000567917
-2.30771e-06
-0.000255404
7.48362e-07
0.000119527
3.60976e-06
-0.000147477
-0.000568057
-2.82175e-06
-0.000253792
1.03854e-06
0.000117285
4.15594e-06
-0.000154146
-0.000568879
-3.25517e-06
-0.000250706
1.29089e-06
0.000115127
4.62236e-06
-0.000160991
-0.000569336
-3.61874e-06
-0.000246298
1.48403e-06
0.000113095
5.01254e-06
-0.000168007
-0.000568593
-3.92225e-06
-0.000240706
1.63965e-06
0.000111219
5.3359e-06
-0.000175146
-0.00056555
-4.17413e-06
-0.000234056
1.77973e-06
0.000109506
5.60243e-06
-0.000182313
-0.000558629
-4.38195e-06
-0.00022646
1.90864e-06
0.000107958
5.81612e-06
-0.000189403
-0.000548455
-4.55244e-06
-0.000218023
2.02801e-06
0.000106579
5.97764e-06
-0.000196308
-0.000536325
-4.69157e-06
-0.000208899
2.13779e-06
0.000105375
6.08631e-06
-0.00020295
-0.000523009
-4.80471e-06
-0.000199245
2.23731e-06
0.000104364
6.14253e-06
-0.000209418
-0.00050885
-4.89677e-06
-0.000188974
2.3259e-06
0.000103536
6.15052e-06
-0.00021583
-0.000493987
-4.97226e-06
-0.0001775
2.4028e-06
0.000102795
6.1164e-06
-0.000221794
-0.000478475
-5.03595e-06
-0.000163924
2.46687e-06
0.000102146
6.04573e-06
-0.000225972
-0.000462397
-5.08133e-06
-0.000148191
2.51388e-06
0.000102062
5.94307e-06
-0.000227584
-0.000445831
-5.09937e-06
-0.000131273
2.58768e-06
0.000103119
5.81236e-06
-0.000227343
-0.000428838
-5.09931e-06
-0.000114031
2.69222e-06
0.000104973
5.65654e-06
-0.00022606
-0.000411464
-5.10714e-06
-9.69479e-05
2.77928e-06
0.000107135
5.47611e-06
-0.000224124
-0.000393789
-5.14594e-06
-8.03824e-05
2.7905e-06
0.000109461
5.26858e-06
-0.00022167
-0.000375887
-5.19353e-06
-6.46499e-05
2.74436e-06
0.000111967
5.03337e-06
-0.000218752
-0.000357831
-5.20375e-06
-4.97431e-05
2.72396e-06
0.000114627
4.78042e-06
-0.000215357
-0.000339681
-5.15415e-06
-3.53388e-05
2.77618e-06
0.000117353
4.5259e-06
-0.00021143
-0.000321473
-5.04611e-06
-2.12732e-05
2.895e-06
0.000120069
4.2782e-06
-0.000206927
-0.000303234
-4.89877e-06
-7.6066e-06
3.05223e-06
0.000122729
4.03531e-06
-0.000201837
-0.000284996
-4.73341e-06
5.56102e-06
3.22134e-06
0.000125309
3.79184e-06
-0.000196182
-0.000266798
-4.56292e-06
1.81825e-05
3.3848e-06
0.000127799
3.54408e-06
-0.000190004
-0.000248683
-4.39369e-06
3.02278e-05
3.53409e-06
0.000130198
3.29153e-06
-0.000183354
-0.000230698
-4.22613e-06
4.16536e-05
3.67037e-06
0.000132495
3.03596e-06
-0.000176284
-0.000212887
-4.05708e-06
5.23891e-05
3.79962e-06
0.000134667
2.77975e-06
-0.000168841
-0.000195292
-3.88423e-06
6.23309e-05
3.92621e-06
0.000136638
2.52488e-06
-0.000161074
-0.000177959
-3.70796e-06
7.1401e-05
4.05041e-06
0.000138262
2.27279e-06
-0.000153053
-0.00016093
-3.52954e-06
7.96063e-05
4.17042e-06
0.000139295
2.02459e-06
-0.000144899
-0.000144252
-3.34823e-06
8.69878e-05
4.28633e-06
0.000139545
1.78135e-06
-0.000136773
-0.000127987
-3.16161e-06
9.35551e-05
4.40053e-06
0.000139127
1.54431e-06
-0.000128789
-0.000112231
-2.96833e-06
9.92656e-05
4.51503e-06
0.00013828
1.31392e-06
-0.000120952
-9.71426e-05
-2.76832e-06
0.000104048
4.6307e-06
0.000137146
1.08965e-06
-0.000113201
-8.29212e-05
-2.56263e-06
0.000107836
4.74706e-06
0.000135742
8.70673e-07
-0.000105478
-6.96762e-05
-2.35311e-06
0.000110592
4.86241e-06
0.000134031
6.54697e-07
-9.77694e-05
-5.73698e-05
-2.14215e-06
0.000112304
4.97432e-06
0.00013198
4.40391e-07
-9.01059e-05
-4.59014e-05
-1.93241e-06
0.000112976
5.08019e-06
0.000129551
2.27897e-07
-8.25368e-05
-3.52109e-05
-1.72799e-06
0.000112633
5.1777e-06
0.000126678
1.78198e-08
-7.51073e-05
-2.53185e-05
-1.53332e-06
0.000111311
5.26458e-06
0.000123291
-1.89807e-07
-6.78508e-05
-1.63033e-05
-1.33082e-06
0.000109038
5.33802e-06
0.000119355
-3.71901e-07
-6.08172e-05
-8.23249e-06
-1.13535e-06
0.000105865
5.39494e-06
0.000114856
-5.41797e-07
-5.40399e-05
-1.16075e-06
-9.44632e-07
0.000101853
5.43276e-06
0.000109802
-7.00388e-07
-4.75498e-05
4.88903e-06
-7.55604e-07
9.70664e-05
5.44917e-06
0.000104227
-8.46547e-07
-4.1377e-05
9.91909e-06
-5.83386e-07
9.15864e-05
5.44166e-06
9.81641e-05
-9.80076e-07
-3.55495e-05
1.39472e-05
-4.25392e-07
8.54965e-05
5.40751e-06
9.16639e-05
-1.10126e-06
-3.00929e-05
1.70031e-05
-2.80458e-07
7.8892e-05
5.34468e-06
8.47889e-05
-1.20871e-06
-2.5031e-05
1.91274e-05
-1.49037e-07
7.18866e-05
5.25253e-06
7.76087e-05
-1.29906e-06
-2.03861e-05
2.0369e-05
-3.23248e-08
6.46122e-05
5.12909e-06
7.02015e-05
-1.36784e-06
-1.61813e-05
2.07913e-05
6.76534e-08
5.72132e-05
4.96803e-06
6.26556e-05
-1.40943e-06
-1.24453e-05
2.0469e-05
1.46415e-07
4.98432e-05
4.76109e-06
5.50653e-05
-1.41907e-06
-9.21153e-06
1.94853e-05
1.98945e-07
4.26578e-05
4.50202e-06
4.75411e-05
-1.3945e-06
-6.51348e-06
1.79454e-05
2.21895e-07
3.58051e-05
4.18879e-06
4.02129e-05
-1.33583e-06
-4.3759e-06
1.59819e-05
2.14645e-07
2.94169e-05
3.8251e-06
3.32241e-05
-1.24619e-06
-2.7983e-06
1.37507e-05
1.79991e-07
2.36011e-05
3.42119e-06
2.67208e-05
-1.13162e-06
-1.73765e-06
1.1419e-05
1.24026e-07
1.84397e-05
2.99268e-06
2.08359e-05
-1.00038e-06
-1.10616e-06
9.14639e-06
5.51725e-08
1.39884e-05
2.55764e-06
1.56737e-05
-8.61859e-07
-7.8222e-07
7.06646e-06
-1.64007e-08
1.02717e-05
2.13399e-06
1.12986e-05
-7.26183e-07
-6.33377e-07
5.27246e-06
-7.78181e-08
7.26806e-06
1.73984e-06
7.72405e-06
-6.05439e-07
-5.41584e-07
3.8058e-06
-1.1035e-07
4.87646e-06
1.39901e-06
4.89232e-06
-5.17333e-07
-4.19348e-07
2.63718e-06
-8.38828e-08
2.8549e-06
1.12859e-06
2.65474e-06
-4.91315e-07
-2.37785e-07
1.62937e-06
-3.06442e-08
1.05553e-06
8.76182e-07
9.05262e-07
-4.96584e-07
-6.16427e-08
6.46222e-07
-1.38896e-08
4.34993e-07
-3.17543e-07
)
;

boundaryField
{
    leftWall
    {
        type            calculated;
        value           nonuniform 0();
    }
    rightWall
    {
        type            calculated;
        value           nonuniform List<scalar> 8(0 0 -4.33681e-19 4.33681e-19 0 4.33681e-19 0 0);
    }
    leftSides_periodic0
    {
        type            cyclic;
        value           nonuniform 0();
    }
    leftSides_periodic1
    {
        type            cyclic;
        value           nonuniform 0();
    }
    rightSides_periodic0
    {
        type            cyclic;
        value           nonuniform 0();
    }
    rightSides_periodic1
    {
        type            cyclic;
        value           nonuniform 0();
    }
    leftInOut_periodic0
    {
        type            cyclic;
        value           nonuniform 0();
    }
    leftInOut_periodic1
    {
        type            cyclic;
        value           nonuniform 0();
    }
    rightInOut_periodic0
    {
        type            cyclic;
        value           nonuniform List<scalar> 
157
(
-2.52062e-05
-2.38939e-05
-2.21338e-05
-1.96018e-05
-1.75566e-05
-1.59522e-05
-1.45309e-05
-1.32078e-05
-1.19084e-05
-1.06468e-05
-9.56459e-06
-8.67319e-06
-7.70697e-06
-6.61282e-06
-5.51696e-06
-4.49082e-06
-3.49073e-06
-2.39102e-06
-1.09816e-06
2.05288e-07
8.85793e-07
1.16824e-06
1.6447e-06
2.48177e-06
3.45893e-06
4.57923e-06
5.68073e-06
6.39736e-06
6.62135e-06
6.81824e-06
7.25931e-06
7.84902e-06
8.44626e-06
9.02035e-06
9.57499e-06
1.01132e-05
1.06368e-05
1.11466e-05
1.16203e-05
1.20736e-05
1.25203e-05
1.29603e-05
1.33932e-05
1.38188e-05
1.42375e-05
1.46505e-05
1.50589e-05
1.54634e-05
1.58645e-05
1.62626e-05
1.66584e-05
1.70524e-05
1.74445e-05
1.78338e-05
1.82184e-05
1.85952e-05
1.89602e-05
1.93054e-05
1.96161e-05
1.98726e-05
2.00538e-05
2.01376e-05
2.0103e-05
1.99338e-05
1.96175e-05
1.91381e-05
1.84771e-05
1.76226e-05
1.65555e-05
1.52156e-05
1.37216e-05
1.21301e-05
1.05086e-05
8.92566e-06
7.44737e-06
6.14483e-06
5.11388e-06
4.13671e-06
2.15751e-06
6.82643e-06
6.31538e-06
5.86174e-06
5.5314e-06
5.33727e-06
5.23785e-06
5.14537e-06
4.95302e-06
4.64546e-06
4.2718e-06
3.87158e-06
3.45626e-06
3.03809e-06
2.68178e-06
2.44637e-06
2.30471e-06
2.19327e-06
2.0952e-06
2.00198e-06
1.90863e-06
1.80837e-06
1.69573e-06
1.56837e-06
1.42855e-06
1.27951e-06
1.08134e-06
8.68742e-07
6.43156e-07
3.95574e-07
1.17923e-07
-1.5409e-07
-4.29978e-07
-7.11183e-07
-9.90917e-07
-1.26829e-06
-1.5386e-06
-1.80095e-06
-2.05697e-06
-2.30835e-06
-2.55533e-06
-2.79685e-06
-3.03126e-06
-3.25705e-06
-3.47301e-06
-3.67819e-06
-3.87164e-06
-4.05215e-06
-4.2185e-06
-4.37036e-06
-4.50859e-06
-4.63426e-06
-4.74765e-06
-4.84777e-06
-4.93269e-06
-5.00029e-06
-5.0485e-06
-5.07514e-06
-5.07797e-06
-5.05483e-06
-5.00429e-06
-4.92463e-06
-4.81279e-06
-4.66492e-06
-4.47675e-06
-4.24532e-06
-3.97067e-06
-3.65596e-06
-3.30786e-06
-2.93584e-06
-2.55072e-06
-2.16307e-06
-1.78242e-06
-1.41798e-06
-1.08066e-06
-7.86616e-07
-5.62623e-07
-3.60174e-07
-1.09891e-07
)
;
    }
    rightInOut_periodic1
    {
        type            cyclic;
        value           nonuniform List<scalar> 
157
(
2.52062e-05
2.38939e-05
2.21338e-05
1.96018e-05
1.75566e-05
1.59522e-05
1.45309e-05
1.32078e-05
1.19084e-05
1.06468e-05
9.56459e-06
8.67319e-06
7.70697e-06
6.61282e-06
5.51696e-06
4.49082e-06
3.49073e-06
2.39102e-06
1.09816e-06
-2.05288e-07
-8.85793e-07
-1.16824e-06
-1.6447e-06
-2.48177e-06
-3.45893e-06
-4.57923e-06
-5.68073e-06
-6.39736e-06
-6.62135e-06
-6.81824e-06
-7.25931e-06
-7.84902e-06
-8.44626e-06
-9.02035e-06
-9.57499e-06
-1.01132e-05
-1.06368e-05
-1.11466e-05
-1.16203e-05
-1.20736e-05
-1.25203e-05
-1.29603e-05
-1.33932e-05
-1.38188e-05
-1.42375e-05
-1.46505e-05
-1.50589e-05
-1.54634e-05
-1.58645e-05
-1.62626e-05
-1.66584e-05
-1.70524e-05
-1.74445e-05
-1.78338e-05
-1.82184e-05
-1.85952e-05
-1.89602e-05
-1.93054e-05
-1.96161e-05
-1.98726e-05
-2.00538e-05
-2.01376e-05
-2.0103e-05
-1.99338e-05
-1.96175e-05
-1.91381e-05
-1.84771e-05
-1.76226e-05
-1.65555e-05
-1.52156e-05
-1.37216e-05
-1.21301e-05
-1.05086e-05
-8.92566e-06
-7.44737e-06
-6.14483e-06
-5.11388e-06
-4.13671e-06
-2.15751e-06
-6.82643e-06
-6.31538e-06
-5.86174e-06
-5.5314e-06
-5.33727e-06
-5.23785e-06
-5.14537e-06
-4.95302e-06
-4.64546e-06
-4.2718e-06
-3.87158e-06
-3.45626e-06
-3.03809e-06
-2.68178e-06
-2.44637e-06
-2.30471e-06
-2.19327e-06
-2.0952e-06
-2.00198e-06
-1.90863e-06
-1.80837e-06
-1.69573e-06
-1.56837e-06
-1.42855e-06
-1.27951e-06
-1.08134e-06
-8.68742e-07
-6.43156e-07
-3.95574e-07
-1.17923e-07
1.5409e-07
4.29978e-07
7.11183e-07
9.90917e-07
1.26829e-06
1.5386e-06
1.80095e-06
2.05697e-06
2.30835e-06
2.55533e-06
2.79685e-06
3.03126e-06
3.25705e-06
3.47301e-06
3.67819e-06
3.87164e-06
4.05215e-06
4.2185e-06
4.37036e-06
4.50859e-06
4.63426e-06
4.74765e-06
4.84777e-06
4.93269e-06
5.00029e-06
5.0485e-06
5.07514e-06
5.07797e-06
5.05483e-06
5.00429e-06
4.92463e-06
4.81279e-06
4.66492e-06
4.47675e-06
4.24532e-06
3.97067e-06
3.65596e-06
3.30786e-06
2.93584e-06
2.55072e-06
2.16307e-06
1.78242e-06
1.41798e-06
1.08066e-06
7.86616e-07
5.62623e-07
3.60174e-07
1.09891e-07
)
;
    }
    procBoundary3to1
    {
        type            processor;
        value           nonuniform List<scalar> 
316
(
0.000532913
0.000573182
0.000616835
0.000559141
0.000523253
0.000563165
0.000606213
0.00054779
0.000513282
0.000553013
0.000595552
0.000534269
0.000503051
0.000542805
0.000584905
0.000517392
0.000492566
0.000532585
0.0005743
0.000502754
0.00048182
0.000522386
0.000563763
0.000490383
0.000470891
0.000512199
0.000553316
0.000479306
0.000459941
0.00050194
0.000542975
0.000468761
0.000448678
0.000491548
0.000532754
0.000458389
0.000435984
0.000481122
0.000522661
0.000448171
0.000420828
0.000470834
0.0005127
0.000438099
0.000405426
0.00046021
0.000502875
0.00042817
0.00039251
0.000447774
0.000493183
0.000418383
0.000381225
0.000433268
0.000483622
0.000408735
0.00037073
0.000420746
0.000474184
0.000399224
0.000360615
0.000410086
0.000464826
0.000389832
0.000350721
0.000400455
0.000455483
0.000380593
0.000341047
0.000391312
0.000445997
0.000371613
0.000331589
0.000382397
0.000436202
0.000362617
0.00032234
0.000373673
0.000426437
0.000352676
0.000313291
0.000365129
0.000417098
0.000341371
0.000304432
0.00035675
0.000408148
0.000330865
0.000295762
0.000348522
0.000399388
0.000321746
0.00028732
0.000340433
0.000390706
0.000313484
0.000279087
0.000332466
0.000382094
0.000305659
0.000270811
0.00032464
0.00037339
0.000298061
0.000262022
0.000317017
0.000364078
0.000290643
0.000252569
0.000309471
0.00035373
0.000283402
0.000243307
0.000301594
0.000343319
0.00027633
0.000235099
0.0002933
0.000333989
0.000269419
0.00022773
0.000285404
0.000325596
0.000262661
0.000220828
0.000278078
0.000317734
0.000256048
0.000214205
0.000271114
0.000310117
0.000249573
0.000207776
0.000264344
0.00030264
0.000243229
0.00020152
0.000257693
0.000295289
0.000237008
0.000195425
0.000251157
0.000288054
0.000230904
0.000189481
0.000244729
0.000280926
0.000224912
0.000183678
0.000238403
0.0002739
0.000219026
0.000178009
0.000232171
0.000266978
0.00021324
0.000172467
0.000226029
0.000260157
0.00020755
0.000167044
0.00021997
0.000253435
0.00020195
0.000161734
0.00021399
0.000246804
0.000196434
0.000156531
0.000208085
0.000240259
0.000190998
0.000151427
0.000202249
0.000233793
0.000185636
0.000146417
0.00019648
0.000227401
0.000180343
0.000141494
0.000190772
0.000221076
0.000175113
0.00013665
0.000185118
0.00021481
0.00016994
0.00013188
0.000179511
0.000208593
0.000164818
0.000127176
0.000173942
0.000202415
0.000159741
0.00012253
0.000168404
0.000196263
0.0001547
0.000117935
0.000162887
0.000190117
0.000149685
0.000113381
0.000157378
0.00018396
0.000144683
0.000108859
0.000151859
0.000177776
0.000139676
0.000104354
0.000146315
0.000171545
0.000134644
9.98531e-05
0.000140741
0.000165255
0.000129575
9.53442e-05
0.000135128
0.000158891
0.000124464
9.0819e-05
0.000129466
0.000152445
0.000119302
8.62705e-05
0.00012374
0.000145904
0.000114078
8.16927e-05
0.000117935
0.000139257
0.000108777
7.70814e-05
0.000112036
0.000132491
0.000103386
7.24345e-05
0.00010603
0.000125596
9.78932e-05
6.77531e-05
9.99052e-05
0.000118559
9.22881e-05
6.30377e-05
9.36549e-05
0.000111372
8.65646e-05
5.8295e-05
8.72786e-05
0.00010403
8.07173e-05
5.3545e-05
8.07764e-05
9.65278e-05
7.4746e-05
4.88167e-05
7.41437e-05
8.88614e-05
6.86607e-05
4.41464e-05
6.73938e-05
8.10413e-05
6.24859e-05
3.95735e-05
6.05738e-05
7.30942e-05
5.62652e-05
3.51363e-05
5.37592e-05
6.50657e-05
5.00609e-05
3.08654e-05
4.70494e-05
5.70452e-05
4.39508e-05
2.67811e-05
4.05531e-05
4.91578e-05
3.80185e-05
2.28926e-05
3.43662e-05
4.15433e-05
3.23407e-05
1.92015e-05
2.85534e-05
3.433e-05
2.69737e-05
1.5706e-05
2.31443e-05
2.7609e-05
2.1948e-05
1.24061e-05
1.81431e-05
2.14264e-05
1.72736e-05
9.30873e-06
1.35429e-05
1.57947e-05
1.29513e-05
6.44135e-06
9.34493e-06
1.07179e-05
8.99132e-06
3.78298e-06
5.51744e-06
6.15878e-06
5.36017e-06
1.24131e-06
1.88486e-06
1.99098e-06
1.86179e-06
)
;
    }
    procBoundary3to1throughrightSides_periodic1
    {
        type            processorCyclic;
        value           nonuniform List<scalar> 
314
(
-0.000489779
-0.000481012
-0.00047253
-0.000464367
-0.000456485
-0.000448826
-0.000441299
-0.000433577
-0.000425368
-0.000416726
-0.000407541
-0.000397666
-0.000387239
-0.000376659
-0.000366348
-0.000356468
-0.000346994
-0.000337871
-0.000329049
-0.000320488
-0.000312156
-0.000304026
-0.00029608
-0.000288303
-0.000280685
-0.000273214
-0.000265877
-0.000258652
-0.00025152
-0.000244442
-0.0002373
-0.000229941
-0.000222354
-0.000214921
-0.000208
-0.00020143
-0.000194962
-0.000188528
-0.000182164
-0.000175876
-0.000169646
-0.000163444
-0.000157236
-0.000151046
-0.000144954
-0.000138995
-0.000133135
-0.00012732
-0.000121514
-0.000115723
-0.000109966
-0.000104263
-9.8623e-05
-9.30462e-05
-8.75348e-05
-8.20905e-05
-7.67156e-05
-7.14117e-05
-6.61791e-05
-6.10148e-05
-5.5919e-05
-5.08927e-05
-4.59453e-05
-4.11039e-05
-3.64044e-05
-3.18911e-05
-2.76133e-05
-2.36178e-05
-1.99409e-05
-1.66023e-05
-1.36033e-05
-1.09302e-05
-8.55785e-06
-6.45274e-06
-4.57068e-06
-2.85736e-06
-1.31762e-06
-1.82001e-07
-0.000546503
-0.000536843
-0.000526926
-0.000516274
-0.000504446
-0.000491524
-0.000480161
-0.000470607
-0.00046173
-0.000452995
-0.000444431
-0.000436074
-0.000427833
-0.000419595
-0.000411327
-0.000403054
-0.000394809
-0.00038662
-0.00037851
-0.000370493
-0.000362578
-0.000354769
-0.000347063
-0.000339459
-0.000331953
-0.000324544
-0.000317224
-0.000309997
-0.000302858
-0.000295732
-0.000288529
-0.000281275
-0.000274109
-0.000267148
-0.000260381
-0.000253742
-0.000247173
-0.000240627
-0.000234085
-0.000227547
-0.000221029
-0.000214534
-0.000208022
-0.000201415
-0.000194615
-0.000187669
-0.000180889
-0.000174404
-0.000168117
-0.000161896
-0.000155682
-0.000149469
-0.000143238
-0.000136962
-0.000130619
-0.000124213
-0.000117757
-0.000111259
-0.000104723
-9.81474e-05
-9.15307e-05
-8.48737e-05
-7.81785e-05
-7.14427e-05
-6.4659e-05
-5.78416e-05
-5.10468e-05
-4.43708e-05
-3.7937e-05
-3.18752e-05
-2.62914e-05
-2.1244e-05
-1.67409e-05
-1.27524e-05
-9.2248e-06
-6.09387e-06
-3.33559e-06
-9.86275e-07
-0.000596194
-0.00058596
-0.00057587
-0.00056589
-0.000556013
-0.000546235
-0.000536551
-0.000526956
-0.00051745
-0.000508032
-0.000498701
-0.000489456
-0.000480297
-0.000471224
-0.000462234
-0.000453327
-0.000444496
-0.000435739
-0.000427058
-0.000418466
-0.00040997
-0.000401574
-0.000393274
-0.000385059
-0.000376842
-0.000368482
-0.000359932
-0.000351559
-0.000343743
-0.000336213
-0.00032875
-0.000321369
-0.000314088
-0.000306881
-0.000299718
-0.000292583
-0.000285478