# Region type : patch leftWall
# Faces       : 256
# Area        : 5.400000e-03
# Scale factor: 1.000000e+00
# Time        	areaAverage(heatTransferCoeff(T))	areaAverage(wallShearStress)	areaAverage(T)
100.4         	-2.706187e+02	(-3.804616e-04 1.466066e-04 -2.517748e-01)	3.730000e+02
100.8         	-2.887144e+02	(-2.069935e-04 -3.457802e-05 -2.575404e-01)	3.730000e+02
101.2         	-2.931841e+02	(-1.569385e-04 4.749281e-05 -2.601275e-01)	3.730000e+02
101.6         	-2.929933e+02	(-1.503521e-04 1.163433e-04 -2.614436e-01)	3.730000e+02
102           	-2.913180e+02	(-1.705523e-04 1.685274e-04 -2.607914e-01)	3.730000e+02
102.4         	-2.903606e+02	(-1.527768e-04 1.535890e-04 -2.594171e-01)	3.730000e+02
102.8         	-2.905596e+02	(-1.344100e-04 1.985676e-04 -2.598385e-01)	3.730000e+02
103.2         	-2.907956e+02	(-1.269981e-04 1.460892e-04 -2.598891e-01)	3.730000e+02
103.6         	-2.906355e+02	(-1.242871e-04 1.441375e-04 -2.601214e-01)	3.730000e+02
104           	-2.905618e+02	(-1.194883e-04 1.174585e-04 -2.603243e-01)	3.730000e+02
104.4         	-2.903703e+02	(-1.121599e-04 8.716505e-05 -2.605066e-01)	3.730000e+02
104.8         	-2.901621e+02	(-1.030708e-04 9.393834e-05 -2.607166e-01)	3.730000e+02
105.2         	-2.901039e+02	(-9.722223e-05 1.481395e-04 -2.611255e-01)	3.730000e+02
105.6         	-2.899302e+02	(-9.335642e-05 2.096860e-04 -2.614428e-01)	3.730000e+02
106           	-2.897103e+02	(-8.205676e-05 2.553471e-04 -2.616151e-01)	3.730000e+02
106.4         	-2.897421e+02	(-7.498879e-05 1.749867e-04 -2.619795e-01)	3.730000e+02
106.8         	-2.895651e+02	(-7.018279e-05 1.034186e-04 -2.620934e-01)	3.730000e+02
107.2         	-2.893834e+02	(-6.499493e-05 1.241021e-04 -2.620725e-01)	3.730000e+02
107.6         	-2.893075e+02	(-5.976951e-05 1.336249e-04 -2.621380e-01)	3.730000e+02
108           	-2.891548e+02	(-5.498336e-05 1.107629e-04 -2.621103e-01)	3.730000e+02
108.4         	-2.889516e+02	(-5.063213e-05 1.209153e-04 -2.622680e-01)	3.730000e+02
108.8         	-2.887069e+02	(-4.649720e-05 2.978046e-04 -2.621849e-01)	3.730000e+02
109.2         	-2.885971e+02	(-4.341196e-05 1.072696e-04 -2.621007e-01)	3.730000e+02
109.6         	-2.885318e+02	(-4.030435e-05 1.154475e-04 -2.620771e-01)	3.730000e+02
110           	-2.883460e+02	(-3.743280e-05 1.696564e-04 -2.619750e-01)	3.730000e+02
110.4         	-2.882416e+02	(-3.449929e-05 1.006092e-04 -2.621431e-01)	3.730000e+02
110.8         	-2.880721e+02	(-3.184145e-05 2.825870e-04 -2.622078e-01)	3.730000e+02
111.2         	-2.879179e+02	(-2.994726e-05 9.817355e-05 -2.620614e-01)	3.730000e+02
111.6         	-2.878652e+02	(-2.784507e-05 2.545594e-04 -2.621169e-01)	3.730000e+02
112           	-2.876755e+02	(-2.593960e-05 1.892243e-04 -2.620902e-01)	3.730000e+02
112.4         	-2.874745e+02	(-2.416323e-05 1.329860e-04 -2.621757e-01)	3.730000e+02
112.8         	-2.873373e+02	(-2.253241e-05 7.253108e-05 -2.621300e-01)	3.730000e+02
113.2         	-2.872848e+02	(-2.126448e-05 1.168530e-04 -2.621230e-01)	3.730000e+02
113.6         	-2.871641e+02	(-1.988961e-05 2.645997e-04 -2.621067e-01)	3.730000e+02
114           	-2.869439e+02	(-1.867592e-05 1.024793e-04 -2.620507e-01)	3.730000e+02
114.4         	-2.868104e+02	(-1.752088e-05 7.448117e-05 -2.621245e-01)	3.730000e+02
114.8         	-2.867403e+02	(-1.656555e-05 1.530371e-04 -2.620569e-01)	3.730000e+02
115.2         	-2.866265e+02	(-1.567870e-05 1.093298e-04 -2.620277e-01)	3.730000e+02
115.6         	-2.865039e+02	(-1.468732e-05 1.522255e-04 -2.620681e-01)	3.730000e+02
116           	-2.863113e+02	(-1.389832e-05 1.289760e-04 -2.620098e-01)	3.730000e+02
116.4         	-2.862110e+02	(-1.303013e-05 3.028900e-04 -2.620220e-01)	3.730000e+02
116.8         	-2.861476e+02	(-1.252762e-05 1.711894e-04 -2.619112e-01)	3.730000e+02
117.2         	-2.860138e+02	(-1.190507e-05 1.678860e-04 -2.618835e-01)	3.730000e+02
117.6         	-2.858682e+02	(-1.128029e-05 1.862129e-04 -2.619377e-01)	3.730000e+02
118           	-2.857288e+02	(-1.067467e-05 1.272140e-04 -2.620834e-01)	3.730000e+02
118.4         	-2.856418e+02	(-1.021879e-05 1.177908e-04 -2.620003e-01)	3.730000e+02
118.8         	-2.855991e+02	(-9.878131e-06 1.321869e-04 -2.619752e-01)	3.730000e+02
119.2         	-2.854565e+02	(-9.425970e-06 1.272598e-04 -2.619979e-01)	3.730000e+02
119.6         	-2.852828e+02	(-8.970380e-06 1.302315e-04 -2.620503e-01)	3.730000e+02
120           	-2.851500e+02	(-8.578223e-06 1.340439e-04 -2.620799e-01)	3.730000e+02
120.4         	-2.850379e+02	(-8.335961e-06 2.622180e-04 -2.618637e-01)	3.730000e+02
120.8         	-2.849942e+02	(-8.114307e-06 6.273569e-05 -2.619439e-01)	3.730000e+02
121.2         	-2.848963e+02	(-7.841124e-06 2.844644e-04 -2.619913e-01)	3.730000e+02
121.6         	-2.847493e+02	(-7.513463e-06 3.314329e-04 -2.620477e-01)	3.730000e+02
122           	-2.846150e+02	(-7.252557e-06 1.805463e-04 -2.619999e-01)	3.730000e+02
122.4         	-2.845846e+02	(-7.054844e-06 1.029769e-04 -2.619377e-01)	3.730000e+02
122.8         	-2.845118e+02	(-6.882009e-06 9.024301e-05 -2.618852e-01)	3.730000e+02
123.2         	-2.843735e+02	(-6.708024e-06 1.546711e-04 -2.620048e-01)	3.730000e+02
123.6         	-2.841680e+02	(-6.517085e-06 1.857927e-04 -2.618976e-01)	3.730000e+02
124           	-2.841070e+02	(-6.301213e-06 1.199721e-04 -2.619746e-01)	3.730000e+02
124.4         	-2.840426e+02	(-6.256740e-06 1.110135e-04 -2.618505e-01)	3.730000e+02
124.8         	-2.839694e+02	(-6.173972e-06 1.186880e-04 -2.618373e-01)	3.730000e+02
125.2         	-2.838771e+02	(-5.947892e-06 1.798336e-04 -2.618620e-01)	3.730000e+02
125.6         	-2.837025e+02	(-5.799987e-06 1.062665e-04 -2.619004e-01)	3.730000e+02
126           	-2.836586e+02	(-5.681699e-06 2.864716e-04 -2.618881e-01)	3.730000e+02
126.4         	-2.835971e+02	(-5.672164e-06 1.843165e-04 -2.617397e-01)	3.730000e+02
126.8         	-2.835197e+02	(-5.587144e-06 1.224173e-04 -2.618378e-01)	3.730000e+02
127.2         	-2.833656e+02	(-5.436503e-06 1.120987e-04 -2.618484e-01)	3.730000e+02
127.6         	-2.832317e+02	(-5.311364e-06 1.284041e-04 -2.618612e-01)	3.730000e+02
128           	-2.831738e+02	(-5.324946e-06 6.528054e-05 -2.617996e-01)	3.730000e+02
128.4         	-2.830915e+02	(-5.325196e-06 1.054829e-04 -2.616720e-01)	3.730000e+02
128.8         	-2.830988e+02	(-5.149387e-06 1.706754e-04 -2.619042e-01)	3.730000e+02
129.2         	-2.828879e+02	(-5.128339e-06 2.955176e-04 -2.618265e-01)	3.730000e+02
129.6         	-2.828518e+02	(-5.008945e-06 1.575671e-04 -2.618711e-01)	3.730000e+02
130           	-2.828020e+02	(-5.028698e-06 1.116483e-04 -2.617554e-01)	3.730000e+02
130.4         	-2.827194e+02	(-5.007634e-06 9.139299e-05 -2.616937e-01)	3.730000e+02
130.8         	-2.826939e+02	(-4.901061e-06 1.231448e-04 -2.618997e-01)	3.730000e+02
131.2         	-2.825436e+02	(-4.849575e-06 1.518727e-04 -2.618635e-01)	3.730000e+02
131.6         	-2.824583e+02	(-4.803934e-06 1.216590e-04 -2.618240e-01)	3.730000e+02
132           	-2.824807e+02	(-4.735872e-06 2.952492e-04 -2.618954e-01)	3.730000e+02
132.4         	-2.823057e+02	(-4.784241e-06 1.129555e-04 -2.618626e-01)	3.730000e+02
132.8         	-2.821777e+02	(-4.763628e-06 1.643830e-04 -2.618520e-01)	3.730000e+02
133.2         	-2.821517e+02	(-4.694179e-06 1.343871e-04 -2.618758e-01)	3.730000e+02
133.6         	-2.820687e+02	(-4.653435e-06 1.146073e-04 -2.618423e-01)	3.730000e+02
134           	-2.819602e+02	(-4.735883e-06 9.417841e-05 -2.617058e-01)	3.730000e+02
134.4         	-2.819867e+02	(-4.685618e-06 2.883041e-04 -2.618505e-01)	3.730000e+02
134.8         	-2.818150e+02	(-4.683458e-06 3.149561e-04 -2.617942e-01)	3.730000e+02
135.2         	-2.817280e+02	(-4.592396e-06 3.033006e-04 -2.618088e-01)	3.730000e+02
135.6         	-2.817065e+02	(-4.623089e-06 1.086393e-04 -2.617348e-01)	3.730000e+02
136           	-2.816708e+02	(-4.623852e-06 1.024745e-04 -2.617327e-01)	3.730000e+02
136.4         	-2.815036e+02	(-4.630317e-06 1.061710e-04 -2.615962e-01)	3.730000e+02
136.8         	-2.815032e+02	(-4.532848e-06 3.115547e-04 -2.617784e-01)	3.730000e+02
137.2         	-2.814061e+02	(-4.462546e-06 1.109215e-04 -2.616976e-01)	3.730000e+02
137.6         	-2.813731e+02	(-4.533044e-06 1.688360e-04 -2.616479e-01)	3.730000e+02
138           	-2.814017e+02	(-4.444157e-06 3.024459e-04 -2.617218e-01)	3.730000e+02
138.4         	-2.812432e+02	(-4.405296e-06 1.614800e-04 -2.618131e-01)	3.730000e+02
138.8         	-2.810583e+02	(-4.377721e-06 1.119225e-04 -2.617069e-01)	3.730000e+02
139.2         	-2.811088e+02	(-4.324191e-06 1.655024e-04 -2.617531e-01)	3.730000e+02
139.6         	-2.811374e+02	(-4.320664e-06 1.653860e-04 -2.618132e-01)	3.730000e+02
140           	-2.809016e+02	(-4.434899e-06 1.470378e-04 -2.616299e-01)	3.730000e+02
140.4         	-2.808798e+02	(-4.349738e-06 1.056153e-04 -2.617240e-01)	3.730000e+02
140.8         	-2.808650e+02	(-4.312251e-06 1.731697e-04 -2.617706e-01)	3.730000e+02
141.2         	-2.807662e+02	(-4.416212e-06 1.134602e-04 -2.615886e-01)	3.730000e+02
141.6         	-2.807156e+02	(-4.415909e-06 8.259010e-05 -2.615593e-01)	3.730000e+02
142           	-2.807163e+02	(-4.266422e-06 1.274392e-04 -2.617700e-01)	3.730000e+02
142.4         	-2.805283e+02	(-4.295618e-06 1.094553e-04 -2.616219e-01)	3.730000e+02
142.8         	-2.805449e+02	(-4.322816e-06 1.563342e-04 -2.616775e-01)	3.730000e+02
143.2         	-2.805614e+02	(-4.311607e-06 2.632890e-04 -2.617317e-01)	3.730000e+02
143.6         	-2.804066e+02	(-4.286074e-06 1.039717e-04 -2.616888e-01)	3.730000e+02
144           	-2.803627e+02	(-4.247792e-06 1.602200e-04 -2.617482e-01)	3.730000e+02
144.4         	-2.802992e+02	(-4.259020e-06 1.160446e-04 -2.617771e-01)	3.730000e+02
144.8         	-2.802801e+02	(-4.288586e-06 2.980431e-04 -2.617205e-01)	3.730000e+02
145.2         	-2.802303e+02	(-4.370185e-06 1.178957e-04 -2.617000e-01)	3.730000e+02
145.6         	-2.801237e+02	(-4.357062e-06 1.058634e-04 -2.616719e-01)	3.730000e+02
146           	-2.800683e+02	(-4.347216e-06 1.067225e-04 -2.616137e-01)	3.730000e+02
146.4         	-2.800768e+02	(-4.287850e-06 1.770684e-04 -2.615370e-01)	3.730000e+02
146.8         	-2.800683e+02	(-4.325576e-06 9.820011e-05 -2.615554e-01)	3.730000e+02
147.2         	-2.800332e+02	(-4.276380e-06 1.292294e-04 -2.616178e-01)	3.730000e+02
147.6         	-2.799221e+02	(-4.193683e-06 1.079801e-04 -2.616166e-01)	3.730000e+02
148           	-2.798295e+02	(-4.191098e-06 1.750380e-04 -2.617127e-01)	3.730000e+02
148.4         	-2.797604e+02	(-4.192002e-06 1.175731e-04 -2.615901e-01)	3.730000e+02
148.8         	-2.798099e+02	(-4.235684e-06 1.677670e-04 -2.616815e-01)	3.730000e+02
149.2         	-2.797245e+02	(-4.287721e-06 6.663642e-05 -2.616448e-01)	3.730000e+02
149.6         	-2.796121e+02	(-4.267501e-06 2.003524e-04 -2.615683e-01)	3.730000e+02
150           	-2.795735e+02	(-4.234657e-06 1.811043e-04 -2.615900e-01)	3.730000e+02
150.4         	-2.795279e+02	(-4.213727e-06 1.058562e-04 -2.616055e-01)	3.730000e+02
150.8         	-2.794610e+02	(-4.313669e-06 2.036344e-04 -2.614326e-01)	3.730000e+02
151.2         	-2.794871e+02	(-4.277809e-06 1.564680e-04 -2.615273e-01)	3.730000e+02
151.6         	-2.794284e+02	(-4.216020e-06 1.309868e-04 -2.616647e-01)	3.730000e+02
152           	-2.793672e+02	(-4.203053e-06 1.489232e-04 -2.616402e-01)	3.730000e+02
152.4         	-2.793333e+02	(-4.247820e-06 1.162978e-04 -2.616032e-01)	3.730000e+02
152.8         	-2.793445e+02	(-4.177430e-06 1.316171e-04 -2.617109e-01)	3.730000e+02
153.2         	-2.793171e+02	(-4.219127e-06 1.411467e-04 -2.616782e-01)	3.730000e+02
153.6         	-2.792194e+02	(-4.315190e-06 3.106233e-04 -2.615882e-01)	3.730000e+02
154           	-2.792140e+02	(-4.243036e-06 1.539526e-04 -2.616959e-01)	3.730000e+02
154.4         	-2.790843e+02	(-4.228620e-06 1.101670e-04 -2.615969e-01)	3.730000e+02
154.8         	-2.790532e+02	(-4.202423e-06 1.926614e-04 -2.615433e-01)	3.730000e+02
155.2         	-2.791013e+02	(-4.194389e-06 1.564314e-04 -2.616464e-01)	3.730000e+02
155.6         	-2.790262e+02	(-4.274102e-06 1.340759e-04 -2.616160e-01)	3.730000e+02
156           	-2.789273e+02	(-4.225541e-06 1.222789e-04 -2.615699e-01)	3.730000e+02
156.4         	-2.788643e+02	(-4.207253e-06 1.090949e-04 -2.616090e-01)	3.730000e+02
156.8         	-2.788845e+02	(-4.188739e-06 1.605100e-04 -2.615705e-01)	3.730000e+02
157.2         	-2.788584e+02	(-4.277956e-06 2.544064e-04 -2.614978e-01)	3.730000e+02
157.6         	-2.787770e+02	(-4.227023e-06 1.055522e-04 -2.615146e-01)	3.730000e+02
158           	-2.786691e+02	(-4.180103e-06 1.129837e-04 -2.615651e-01)	3.730000e+02
158.4         	-2.786645e+02	(-4.242245e-06 1.752540e-04 -2.614858e-01)	3.730000e+02
158.8         	-2.786772e+02	(-4.262081e-06 9.520757e-05 -2.614146e-01)	3.730000e+02
159.2         	-2.786357e+02	(-4.173866e-06 2.524249e-04 -2.614587e-01)	3.730000e+02
159.6         	-2.785494e+02	(-4.148547e-06 2.026908e-04 -2.615125e-01)	3.730000e+02
160           	-2.785520e+02	(-4.119902e-06 1.207779e-04 -2.616055e-01)	3.730000e+02
160.4         	-2.785746e+02	(-4.106048e-06 6.481738e-05 -2.616205e-01)	3.730000e+02
160.8         	-2.785576e+02	(-4.169500e-06 9.108377e-05 -2.616010e-01)	3.730000e+02
161.2         	-2.784166e+02	(-4.262254e-06 3.302175e-04 -2.614544e-01)	3.730000e+02
161.6         	-2.784614e+02	(-4.153229e-06 3.007951e-04 -2.616186e-01)	3.730000e+02
162           	-2.784182e+02	(-4.150232e-06 1.155102e-04 -2.616019e-01)	3.730000e+02
162.4         	-2.783319e+02	(-4.260301e-06 1.111437e-04 -2.613804e-01)	3.730000e+02
162.8         	-2.784007e+02	(-4.168545e-06 1.902638e-05 -2.615340e-01)	3.730000e+02
163.2         	-2.782894e+02	(-4.173635e-06 1.119327e-04 -2.614696e-01)	3.730000e+02
163.6         	-2.782536e+02	(-4.066182e-06 1.721419e-04 -2.614841e-01)	3.730000e+02
164           	-2.782442e+02	(-4.162996e-06 1.890711e-04 -2.613892e-01)	3.730000e+02
164.4         	-2.783003e+02	(-4.074361e-06 1.184719e-04 -2.615942e-01)	3.730000e+02
164.8         	-2.781540e+02	(-4.127753e-06 1.965942e-04 -2.614902e-01)	3.730000e+02
165.2         	-2.781520e+02	(-4.069742e-06 1.488111e-04 -2.616512e-01)	3.730000e+02
165.6         	-2.780975e+02	(-4.107060e-06 1.027677e-04 -2.615086e-01)	3.730000e+02
166           	-2.781247e+02	(-4.069262e-06 1.600749e-04 -2.614856e-01)	3.730000e+02
166.4         	-2.780663e+02	(-4.170954e-06 9.594594e-05 -2.614908e-01)	3.730000e+02
166.8         	-2.779895e+02	(-4.188203e-06 1.150056e-04 -2.614406e-01)	3.730000e+02
167.2         	-2.779799e+02	(-4.136863e-06 1.073596e-04 -2.615340e-01)	3.730000e+02
167.6         	-2.779174e+02	(-4.169588e-06 1.782465e-04 -2.613682e-01)	3.730000e+02
168           	-2.779880e+02	(-4.162892e-06 1.444745e-04 -2.614468e-01)	3.730000e+02
168.4         	-2.780199e+02	(-4.049973e-06 1.783182e-04 -2.615875e-01)	3.730000e+02
168.8         	-2.778476e+02	(-4.103536e-06 1.323423e-04 -2.615059e-01)	3.730000e+02
169.2         	-2.778583e+02	(-4.075894e-06 1.147920e-04 -2.615772e-01)	3.730000e+02
169.6         	-2.778737e+02	(-4.029891e-06 2.020399e-05 -2.615770e-01)	3.730000e+02
170           	-2.777918e+02	(-4.135520e-06 1.710148e-04 -2.614219e-01)	3.730000e+02
170.4         	-2.777757e+02	(-4.181362e-06 1.086020e-04 -2.614757e-01)	3.730000e+02
170.8         	-2.777572e+02	(-4.081695e-06 1.053054e-04 -2.615252e-01)	3.730000e+02
171.2         	-2.777023e+02	(-4.084399e-06 1.087267e-04 -2.614608e-01)	3.730000e+02
171.6         	-2.777032e+02	(-4.150251e-06 1.584985e-04 -2.613615e-01)	3.730000e+02
172           	-2.777316e+02	(-4.131096e-06 1.181706e-04 -2.615288e-01)	3.730000e+02
172.4         	-2.776083e+02	(-4.100772e-06 1.790837e-04 -2.613969e-01)	3.730000e+02
172.8         	-2.776222e+02	(-4.026461e-06 1.593600e-04 -2.615668e-01)	3.730000e+02
173.2         	-2.776307e+02	(-4.054559e-06 1.760867e-04 -2.615080e-01)	3.730000e+02
173.6         	-2.776002e+02	(-4.085164e-06 1.991316e-04 -2.613589e-01)	3.730000e+02
174           	-2.775825e+02	(-4.061544e-06 2.021854e-04 -2.614425e-01)	3.730000e+02
174.4         	-2.775046e+02	(-4.047986e-06 1.999444e-04 -2.615068e-01)	3.730000e+02
174.8         	-2.774322e+02	(-4.068612e-06 1.776104e-04 -2.614299e-01)	3.730000e+02
175.2         	-2.775117e+02	(-4.065429e-06 2.999231e-04 -2.615384e-01)	3.730000e+02
175.6         	-2.775333e+02	(-4.091653e-06 2.964051e-04 -2.615697e-01)	3.730000e+02
176           	-2.773617e+02	(-4.197677e-06 1.186229e-04 -2.613304e-01)	3.730000e+02
176.4         	-2.774731e+02	(-4.050074e-06 2.772877e-04 -2.616152e-01)	3.730000e+02
176.8         	-2.774169e+02	(-4.053378e-06 1.795223e-04 -2.615593e-01)	3.730000e+02
177.2         	-2.773671e+02	(-4.156449e-06 3.226402e-04 -2.614881e-01)	3.730000e+02
177.6         	-2.773850e+02	(-4.131078e-06 1.098566e-04 -2.614740e-01)	3.730000e+02
178           	-2.773563e+02	(-4.162492e-06 1.318569e-04 -2.615237e-01)	3.730000e+02
178.4         	-2.773298e+02	(-4.082085e-06 1.795653e-04 -2.613770e-01)	3.730000e+02
178.8         	-2.773573e+02	(-4.099237e-06 1.111030e-04 -2.614916e-01)	3.730000e+02
179.2         	-2.773329e+02	(-4.115341e-06 1.416924e-04 -2.615238e-01)	3.730000e+02
179.6         	-2.772220e+02	(-4.077082e-06 1.214266e-04 -2.614390e-01)	3.730000e+02
180           	-2.771919e+02	(-4.081867e-06 1.237111e-04 -2.615049e-01)	3.730000e+02
180.4         	-2.772008e+02	(-4.059228e-06 1.202665e-04 -2.614750e-01)	3.730000e+02
180.8         	-2.771792e+02	(-4.130996e-06 1.661223e-04 -2.613460e-01)	3.730000e+02
181.2         	-2.771794e+02	(-4.130400e-06 1.695747e-04 -2.614018e-01)	3.730000e+02
181.6         	-2.771589e+02	(-4.110963e-06 1.984666e-04 -2.613885e-01)	3.730000e+02
182           	-2.771012e+02	(-4.081379e-06 1.081659e-04 -2.614743e-01)	3.730000e+02
182.4         	-2.771010e+02	(-4.089588e-06 9.621775e-05 -2.614085e-01)	3.730000e+02
182.8         	-2.771139e+02	(-4.118059e-06 1.874204e-04 -2.614059e-01)	3.730000e+02
183.2         	-2.770985e+02	(-4.131145e-06 1.406135e-04 -2.615327e-01)	3.730000e+02
183.6         	-2.770036e+02	(-4.138871e-06 1.134312e-04 -2.614282e-01)	3.730000e+02
184           	-2.770818e+02	(-4.081434e-06 3.689090e-04 -2.615621e-01)	3.730000e+02
184.4         	-2.771055e+02	(-4.075028e-06 2.696829e-04 -2.615312e-01)	3.730000e+02
184.8         	-2.770118e+02	(-4.174532e-06 2.738136e-04 -2.613994e-01)	3.730000e+02
185.2         	-2.769976e+02	(-4.124449e-06 1.032960e-04 -2.614162e-01)	3.730000e+02
185.6         	-2.770148e+02	(-4.023111e-06 2.985723e-04 -2.615302e-01)	3.730000e+02
186           	-2.769406e+02	(-4.081811e-06 1.043033e-04 -2.613760e-01)	3.730000e+02
186.4         	-2.769561e+02	(-4.114239e-06 1.583136e-05 -2.614081e-01)	3.730000e+02
186.8         	-2.769448e+02	(-3.978692e-06 1.777130e-04 -2.614508e-01)	3.730000e+02
187.2         	-2.768387e+02	(-4.087868e-06 3.114367e-04 -2.614587e-01)	3.730000e+02
187.6         	-2.769006e+02	(-4.067115e-06 3.068119e-04 -2.614344e-01)	3.730000e+02
188           	-2.769180e+02	(-4.078878e-06 1.018844e-04 -2.613988e-01)	3.730000e+02
188.4         	-2.768905e+02	(-4.031517e-06 1.577099e-04 -2.615310e-01)	3.730000e+02
188.8         	-2.767991e+02	(-4.099252e-06 3.448550e-04 -2.614644e-01)	3.730000e+02
189.2         	-2.767996e+02	(-4.079075e-06 1.799919e-04 -2.614108e-01)	3.730000e+02
189.6         	-2.768292e+02	(-4.040090e-06 1.276175e-04 -2.615015e-01)	3.730000e+02
190           	-2.767964e+02	(-4.141785e-06 1.694140e-04 -2.614172e-01)	3.730000e+02
190.4         	-2.768196e+02	(-4.140744e-06 1.532996e-04 -2.614488e-01)	3.730000e+02
190.8         	-2.767649e+02	(-4.097204e-06 1.436860e-04 -2.615288e-01)	3.730000e+02
191.2         	-2.766749e+02	(-4.059233e-06 1.131027e-04 -2.614383e-01)	3.730000e+02
191.6         	-2.767144e+02	(-4.075309e-06 2.464770e-04 -2.613219e-01)	3.730000e+02
192           	-2.767647e+02	(-4.068941e-06 1.666303e-04 -2.614251e-01)	3.730000e+02
192.4         	-2.766926e+02	(-4.129345e-06 1.363931e-04 -2.614713e-01)	3.730000e+02
192.8         	-2.766810e+02	(-4.085553e-06 2.696714e-04 -2.613968e-01)	3.730000e+02
193.2         	-2.767245e+02	(-4.049742e-06 1.228744e-04 -2.614839e-01)	3.730000e+02
193.6         	-2.766766e+02	(-4.014939e-06 1.039958e-04 -2.614799e-01)	3.730000e+02
194           	-2.767169e+02	(-4.067073e-06 1.690080e-04 -2.615357e-01)	3.730000e+02
194.4         	-2.765842e+02	(-4.164244e-06 2.011929e-04 -2.612802e-01)	3.730000e+02
194.8         	-2.766409e+02	(-4.058867e-06 2.332624e-04 -2.613759e-01)	3.730000e+02
195.2         	-2.766260e+02	(-4.050267e-06 1.818486e-04 -2.613697e-01)	3.730000e+02
195.6         	-2.766437e+02	(-4.021208e-06 1.144448e-04 -2.613823e-01)	3.730000e+02
196           	-2.766625e+02	(-4.031162e-06 1.039429e-04 -2.613816e-01)	3.730000e+02
196.4         	-2.766465e+02	(-4.083032e-06 3.336245e-04 -2.614349e-01)	3.730000e+02
196.8         	-2.766290e+02	(-4.032445e-06 1.309658e-04 -2.614872e-01)	3.730000e+02
197.2         	-2.765635e+02	(-3.987576e-06 1.226318e-04 -2.614431e-01)	3.730000e+02
197.6         	-2.765885e+02	(-3.961214e-06 7.328576e-05 -2.614853e-01)	3.730000e+02
198           	-2.765672e+02	(-4.068810e-06 1.802259e-04 -2.614558e-01)	3.730000e+02
198.4         	-2.764722e+02	(-4.109339e-06 2.008730e-04 -2.613065e-01)	3.730000e+02
198.8         	-2.765295e+02	(-4.030962e-06 1.188912e-04 -2.615226e-01)	3.730000e+02
199.2         	-2.764661e+02	(-4.056506e-06 1.081523e-04 -2.614101e-01)	3.730000e+02
199.6         	-2.765381e+02	(-4.040234e-06 2.782250e-04 -2.614503e-01)	3.730000e+02
200           	-2.765425e+02	(-4.072209e-06 1.614140e-04 -2.614835e-01)	3.730000e+02
