0 	0 	0 	0
5.01672e-05 	-2.28499e-05 	-4.58655e-06 	0.0203649
0.000100334 	-4.56998e-05 	-9.17311e-06 	0.0407297
0.000150502 	-6.85497e-05 	-1.37597e-05 	0.0610946
0.000200669 	-9.13996e-05 	-1.83462e-05 	0.0814594
0.000250836 	-0.000114249 	-2.29328e-05 	0.101824
0.000301003 	-0.000137099 	-2.75193e-05 	0.122189
0.000351171 	-0.000157818 	-3.28249e-05 	0.140441
0.000401338 	-0.00017048 	-4.08494e-05 	0.1507
0.000451505 	-0.000183141 	-4.8874e-05 	0.160959
0.000501672 	-0.000195802 	-5.68985e-05 	0.171219
0.000551839 	-0.000208464 	-6.4923e-05 	0.181478
0.000602007 	-0.000221125 	-7.29476e-05 	0.191737
0.000652174 	-0.000233786 	-8.09721e-05 	0.201997
0.000702341 	-0.000246447 	-8.89967e-05 	0.212256
0.000752508 	-0.000256291 	-9.72425e-05 	0.221089
0.000802676 	-0.000259148 	-0.000106037 	0.226386
0.000852843 	-0.000262006 	-0.000114831 	0.231683
0.00090301 	-0.000264863 	-0.000123626 	0.23698
0.000953177 	-0.000267721 	-0.00013242 	0.242277
0.00100334 	-0.000270578 	-0.000141215 	0.247573
0.00105351 	-0.000273436 	-0.000150009 	0.25287
0.00110368 	-0.000276293 	-0.000158804 	0.258167
0.00115385 	-0.000279151 	-0.000167598 	0.263464
0.00120401 	-0.000281806 	-0.000176349 	0.268655
0.00125418 	-0.000280307 	-0.000184201 	0.271678
0.00130435 	-0.000278808 	-0.000192053 	0.274701
0.00135452 	-0.000277309 	-0.000199906 	0.277725
0.00140468 	-0.00027581 	-0.000207758 	0.280748
0.00145485 	-0.000274311 	-0.00021561 	0.283771
0.00150502 	-0.000272813 	-0.000223463 	0.286794
0.00155518 	-0.000271314 	-0.000231315 	0.289817
0.00160535 	-0.000269815 	-0.000239167 	0.292841
0.00165552 	-0.000268316 	-0.00024702 	0.295864
0.00170569 	-0.000266817 	-0.000254872 	0.298887
0.00175585 	-0.000265061 	-0.000262309 	0.301621
0.00180602 	-0.000262599 	-0.000268606 	0.303558
0.00185619 	-0.000260137 	-0.000274902 	0.305495
0.00190635 	-0.000257675 	-0.000281199 	0.307432
0.00195652 	-0.000255212 	-0.000287495 	0.309369
0.00200669 	-0.00025275 	-0.000293791 	0.311307
0.00205686 	-0.000250288 	-0.000300088 	0.313244
0.00210702 	-0.000247826 	-0.000306384 	0.315181
0.00215719 	-0.000245363 	-0.000312681 	0.317118
0.00220736 	-0.000242901 	-0.000318977 	0.319055
0.00225753 	-0.000240439 	-0.000325273 	0.320992
0.00230769 	-0.000237977 	-0.00033157 	0.32293
0.00235786 	-0.000235514 	-0.000337866 	0.324867
0.00240803 	-0.000233303 	-0.000342978 	0.326369
0.00245819 	-0.000231203 	-0.000347563 	0.327678
0.00250836 	-0.000229103 	-0.000352147 	0.328987
0.00255853 	-0.000227003 	-0.000356732 	0.330296
0.0026087 	-0.000224903 	-0.000361316 	0.331604
0.00265886 	-0.000222803 	-0.000365901 	0.332913
0.00270903 	-0.000220703 	-0.000370485 	0.334222
0.0027592 	-0.000218603 	-0.00037507 	0.335531
0.00280936 	-0.000216503 	-0.000379654 	0.336839
0.00285953 	-0.000214403 	-0.000384239 	0.338148
0.0029097 	-0.000212303 	-0.000388823 	0.339457
0.00295987 	-0.000210203 	-0.000393408 	0.340766
0.00301003 	-0.000208103 	-0.000397992 	0.342074
0.0030602 	-0.000206003 	-0.000402577 	0.343383
0.00311037 	-0.000203917 	-0.000407131 	0.344682
0.00316054 	-0.000202453 	-0.000410358 	0.34556
0.0032107 	-0.000200989 	-0.000413585 	0.346438
0.00326087 	-0.000199526 	-0.000416813 	0.347317
0.00331104 	-0.000198062 	-0.00042004 	0.348195
0.0033612 	-0.000196598 	-0.000423267 	0.349073
0.00341137 	-0.000195135 	-0.000426495 	0.349951
0.00346154 	-0.000193671 	-0.000429722 	0.350829
0.00351171 	-0.000192207 	-0.000432949 	0.351707
0.00356187 	-0.000190743 	-0.000436177 	0.352586
0.00361204 	-0.00018928 	-0.000439404 	0.353464
0.00366221 	-0.000187816 	-0.000442631 	0.354342
0.00371237 	-0.000186352 	-0.000445859 	0.35522
0.00376254 	-0.000184888 	-0.000449086 	0.356098
0.00381271 	-0.000183425 	-0.000452313 	0.356976
0.00386288 	-0.000181961 	-0.000455541 	0.357855
0.00391304 	-0.000180497 	-0.000458768 	0.358733
0.00396321 	-0.000179034 	-0.000461995 	0.359611
0.00401338 	-0.000177982 	-0.000464376 	0.36019
0.00406355 	-0.000176971 	-0.000466673 	0.360739
0.00411371 	-0.00017596 	-0.000468971 	0.361289
0.00416388 	-0.000174949 	-0.000471268 	0.361839
0.00421405 	-0.000173938 	-0.000473566 	0.362388
0.00426421 	-0.000172927 	-0.000475863 	0.362938
0.00431438 	-0.000171916 	-0.000478161 	0.363487
0.00436455 	-0.000170905 	-0.000480458 	0.364037
0.00441472 	-0.000169894 	-0.000482756 	0.364586
0.00446488 	-0.000168883 	-0.000485053 	0.365136
0.00451505 	-0.000167872 	-0.000487351 	0.365685
0.00456522 	-0.000166861 	-0.000489648 	0.366235
0.00461538 	-0.00016585 	-0.000491946 	0.366785
0.00466555 	-0.000164839 	-0.000494243 	0.367334
0.00471572 	-0.000163828 	-0.000496541 	0.367884
0.00476589 	-0.000162817 	-0.000498838 	0.368433
0.00481605 	-0.000161806 	-0.000501136 	0.368983
0.00486622 	-0.000160795 	-0.000503433 	0.369532
0.00491639 	-0.000159784 	-0.000505731 	0.370082
0.00496656 	-0.000158773 	-0.000508028 	0.370631
0.00501672 	-0.000157972 	-0.000509602 	0.370931
0.00506689 	-0.000157182 	-0.000511136 	0.371217
0.00511706 	-0.000156392 	-0.000512671 	0.371503
0.00516722 	-0.000155603 	-0.000514206 	0.371789
0.00521739 	-0.000154813 	-0.000515741 	0.372075
0.00526756 	-0.000154023 	-0.000517275 	0.372361
0.00531773 	-0.000153233 	-0.00051881 	0.372647
0.00536789 	-0.000152443 	-0.000520345 	0.372933
0.00541806 	-0.000151653 	-0.00052188 	0.373219
0.00546823 	-0.000150863 	-0.000523415 	0.373505
0.00551839 	-0.000150073 	-0.000524949 	0.373791
0.00556856 	-0.000149284 	-0.000526484 	0.374077
0.00561873 	-0.000148494 	-0.000528019 	0.374363
0.0056689 	-0.000147704 	-0.000529554 	0.374649
0.00571906 	-0.000146914 	-0.000531088 	0.374935
0.00576923 	-0.000146124 	-0.000532623 	0.375221
0.0058194 	-0.000145334 	-0.000534158 	0.375507
0.00586957 	-0.000144544 	-0.000535693 	0.375793
0.00591973 	-0.000143755 	-0.000537227 	0.376079
0.0059699 	-0.000142965 	-0.000538762 	0.376365
0.00602007 	-0.000142175 	-0.000540297 	0.376651
0.00607023 	-0.000141385 	-0.000541832 	0.376937
0.0061204 	-0.000140595 	-0.000543367 	0.377223
0.00617057 	-0.000139904 	-0.000544381 	0.377363
0.00622074 	-0.000139262 	-0.000545131 	0.377429
0.0062709 	-0.000138621 	-0.000545882 	0.377494
0.00632107 	-0.000137979 	-0.000546632 	0.37756
0.00637124 	-0.000137338 	-0.000547383 	0.377625
0.0064214 	-0.000136696 	-0.000548133 	0.377691
0.00647157 	-0.000136055 	-0.000548883 	0.377756
0.00652174 	-0.000135413 	-0.000549634 	0.377821
0.00657191 	-0.000134772 	-0.000550384 	0.377887
0.00662207 	-0.00013413 	-0.000551135 	0.377952
0.00667224 	-0.000133489 	-0.000551885 	0.378018
0.00672241 	-0.000132847 	-0.000552636 	0.378083
0.00677258 	-0.000132206 	-0.000553386 	0.378149
0.00682274 	-0.000131564 	-0.000554136 	0.378214
0.00687291 	-0.000130923 	-0.000554887 	0.37828
0.00692308 	-0.000130281 	-0.000555637 	0.378345
0.00697324 	-0.00012964 	-0.000556388 	0.378411
0.00702341 	-0.000128998 	-0.000557138 	0.378476
0.00707358 	-0.000128357 	-0.000557888 	0.378542
0.00712375 	-0.000127715 	-0.000558639 	0.378607
0.00717391 	-0.000127074 	-0.000559389 	0.378673
0.00722408 	-0.000126432 	-0.00056014 	0.378738
0.00727425 	-0.000125791 	-0.00056089 	0.378804
0.00732441 	-0.000125149 	-0.000561641 	0.378869
0.00737458 	-0.000124508 	-0.000562391 	0.378935
0.00742475 	-0.000123866 	-0.000563141 	0.379
0.00747492 	-0.000123225 	-0.000563892 	0.379066
0.00752508 	-0.000122641 	-0.000564252 	0.379032
0.00757525 	-0.000122116 	-0.000564223 	0.378899
0.00762542 	-0.000121591 	-0.000564194 	0.378766
0.00767559 	-0.000121066 	-0.000564165 	0.378633
0.00772575 	-0.000120541 	-0.000564136 	0.3785
0.00777592 	-0.000120016 	-0.000564107 	0.378367
0.00782609 	-0.00011949 	-0.000564078 	0.378234
0.00787625 	-0.000118965 	-0.000564049 	0.378101
0.00792642 	-0.00011844 	-0.00056402 	0.377968
0.00797659 	-0.000117915 	-0.000563991 	0.377835
0.00802676 	-0.00011739 	-0.000563962 	0.377702
0.00807692 	-0.000116865 	-0.000563932 	0.377569
0.00812709 	-0.00011634 	-0.000563903 	0.377436
0.00817726 	-0.000115814 	-0.000563874 	0.377303
0.00822742 	-0.000115289 	-0.000563845 	0.37717
0.00827759 	-0.000114764 	-0.000563816 	0.377037
0.00832776 	-0.000114239 	-0.000563787 	0.376904
0.00837793 	-0.000113714 	-0.000563758 	0.376771
0.00842809 	-0.000113189 	-0.000563729 	0.376638
0.00847826 	-0.000112663 	-0.0005637 	0.376505
0.00852843 	-0.000112138 	-0.000563671 	0.376372
0.0085786 	-0.000111613 	-0.000563641 	0.376239
0.00862876 	-0.000111088 	-0.000563612 	0.376106
0.00867893 	-0.000110563 	-0.000563583 	0.375973
0.0087291 	-0.000110038 	-0.000563554 	0.37584
0.00877926 	-0.000109513 	-0.000563525 	0.375707
0.00882943 	-0.000108987 	-0.000563496 	0.375574
0.0088796 	-0.000108517 	-0.000563146 	0.37536
0.00892977 	-0.000108155 	-0.000562162 	0.374986
0.00897993 	-0.000107793 	-0.000561178 	0.374613
0.0090301 	-0.00010743 	-0.000560195 	0.374239
0.00908027 	-0.000107068 	-0.000559211 	0.373866
0.00913043 	-0.000106706 	-0.000558228 	0.373492
0.0091806 	-0.000106344 	-0.000557244 	0.373118
0.00923077 	-0.000105982 	-0.000556261 	0.372745
0.00928094 	-0.000105619 	-0.000555277 	0.372371
0.0093311 	-0.000105257 	-0.000554293 	0.371997
0.00938127 	-0.000104895 	-0.00055331 	0.371624
0.00943144 	-0.000104533 	-0.000552326 	0.37125
0.00948161 	-0.000104171 	-0.000551343 	0.370877
0.00953177 	-0.000103808 	-0.000550359 	0.370503
0.00958194 	-0.000103446 	-0.000549375 	0.370129
0.00963211 	-0.000103084 	-0.000548392 	0.369756
0.00968227 	-0.000102722 	-0.000547408 	0.369382
0.00973244 	-0.000102359 	-0.000546425 	0.369009
0.00978261 	-0.000101997 	-0.000545441 	0.368635
0.00983278 	-0.000101635 	-0.000544457 	0.368261
0.00988294 	-0.000101273 	-0.000543474 	0.367888
0.00993311 	-0.000100911 	-0.00054249 	0.367514
0.00998328 	-0.000100548 	-0.000541507 	0.367141
0.0100334 	-0.000100204 	-0.000540467 	0.366753
0.0100836 	-0.000100197 	-0.000538378 	0.366094
0.0101338 	-0.000100189 	-0.000536289 	0.365436
0.0101839 	-0.000100182 	-0.000534201 	0.364778
0.0102341 	-0.000100175 	-0.000532112 	0.36412
0.0102843 	-0.000100167 	-0.000530023 	0.363462
0.0103344 	-0.00010016 	-0.000527934 	0.362804
0.0103846 	-0.000100152 	-0.000525846 	0.362146
0.0104348 	-0.000100145 	-0.000523757 	0.361488
0.0104849 	-0.000100138 	-0.000521668 	0.36083
0.0105351 	-0.00010013 	-0.00051958 	0.360172
0.0105853 	-0.000100123 	-0.000517491 	0.359514
0.0106355 	-0.000100116 	-0.000515402 	0.358856
0.0106856 	-0.000100108 	-0.000513313 	0.358198
0.0107358 	-0.000100101 	-0.000511225 	0.35754
0.010786 	-0.000100093 	-0.000509136 	0.356882
0.0108361 	-0.000100086 	-0.000507047 	0.356224
0.0108863 	-0.000100079 	-0.000504958 	0.355566
0.0109365 	-0.000100071 	-0.00050287 	0.354907
0.0109866 	-0.000100064 	-0.000500781 	0.354249
0.0110368 	-0.000100113 	-0.00049855 	0.353558
0.011087 	-0.000100744 	-0.000494874 	0.352532
0.0111371 	-0.000101376 	-0.000491197 	0.351506
0.0111873 	-0.000102007 	-0.000487521 	0.350479
0.0112375 	-0.000102638 	-0.000483844 	0.349453
0.0112876 	-0.000103269 	-0.000480168 	0.348426
0.0113378 	-0.0001039 	-0.000476492 	0.3474
0.011388 	-0.000104531 	-0.000472815 	0.346374
0.0114381 	-0.000105162 	-0.000469139 	0.345347
0.0114883 	-0.000105793 	-0.000465462 	0.344321
0.0115385 	-0.000106424 	-0.000461786 	0.343294
0.0115886 	-0.000107055 	-0.000458109 	0.342268
0.0116388 	-0.000107687 	-0.000454433 	0.341242
0.011689 	-0.000108318 	-0.000450756 	0.340215
0.0117391 	-0.000108949 	-0.00044708 	0.339189
0.0117893 	-0.00010958 	-0.000443403 	0.338162
0.0118395 	-0.000110211 	-0.000439727 	0.337136
0.0118896 	-0.000110842 	-0.00043605 	0.33611
0.0119398 	-0.000112377 	-0.000429898 	0.334544
0.01199 	-0.000113932 	-0.000423687 	0.332967
0.0120401 	-0.000115488 	-0.000417477 	0.331389
0.0120903 	-0.000117043 	-0.000411267 	0.329811
0.0121405 	-0.000118599 	-0.000405057 	0.328234
0.0121906 	-0.000120155 	-0.000398847 	0.326656
0.0122408 	-0.00012171 	-0.000392637 	0.325078
0.012291 	-0.000123266 	-0.000386427 	0.323501
0.0123411 	-0.000124821 	-0.000380217 	0.321923
0.0123913 	-0.000126377 	-0.000374007 	0.320345
0.0124415 	-0.000127933 	-0.000367797 	0.318768
0.0124916 	-0.000129488 	-0.000361587 	0.31719
0.0125418 	-0.000131044 	-0.000355376 	0.315612
0.012592 	-0.000132599 	-0.000349166 	0.314035
0.0126421 	-0.000134414 	-0.000341998 	0.312172
0.0126923 	-0.000136809 	-0.000332682 	0.309669
0.0127425 	-0.000139204 	-0.000323365 	0.307167
0.0127926 	-0.000141599 	-0.000314048 	0.304665
0.0128428 	-0.000143993 	-0.000304732 	0.302163
0.012893 	-0.000146388 	-0.000295415 	0.29966
0.0129431 	-0.000148783 	-0.000286098 	0.297158
0.0129933 	-0.000151178 	-0.000276782 	0.294656
0.0130435 	-0.000153573 	-0.000267465 	0.292154
0.0130936 	-0.000155968 	-0.000258148 	0.289651
0.0131438 	-0.000158363 	-0.000248832 	0.287149
0.013194 	-0.000160758 	-0.000239515 	0.284647
0.0132441 	-0.000163153 	-0.000230198 	0.282144
0.0132943 	-0.000165222 	-0.000219308 	0.278426
0.0133445 	-0.000167172 	-0.000207845 	0.274264
0.0133946 	-0.000169122 	-0.000196381 	0.270103
0.0134448 	-0.000171072 	-0.000184918 	0.265942
0.013495 	-0.000173022 	-0.000173455 	0.261781
0.0135452 	-0.000174973 	-0.000161992 	0.25762
0.0135953 	-0.000176923 	-0.000150529 	0.253458
0.0136455 	-0.000178873 	-0.000139066 	0.249297
0.0136957 	-0.000180823 	-0.000127603 	0.245136
0.0137458 	-0.000182773 	-0.00011614 	0.240975
0.013796 	-0.000184723 	-0.000104676 	0.236814
0.0138462 	-0.0001826 	-9.48982e-05 	0.229368
0.0138963 	-0.000180279 	-8.52021e-05 	0.221763
0.0139465 	-0.000177957 	-7.5506e-05 	0.214158
0.0139967 	-0.000175636 	-6.58099e-05 	0.206552
0.0140468 	-0.000173314 	-5.61137e-05 	0.198947
0.014097 	-0.000170993 	-4.64176e-05 	0.191341
0.0141472 	-0.000168671 	-3.67215e-05 	0.183736
0.0141973 	-0.00016635 	-2.70254e-05 	0.17613
0.0142475 	-0.000164028 	-1.73293e-05 	0.168525
0.0142977 	-0.000156235 	-1.23271e-05 	0.158003
0.0143478 	-0.000146235 	-9.21811e-06 	0.146306
0.014398 	-0.000136235 	-6.10909e-06 	0.134608
0.0144482 	-0.000126235 	-3.00008e-06 	0.12291
0.0144983 	-0.000116235 	1.08943e-07 	0.111212
0.0145485 	-0.000106235 	3.21796e-06 	0.0995144
0.0145987 	-9.62352e-05 	6.32698e-06 	0.0878166
0.0146488 	-8.62352e-05 	9.436e-06 	0.0761187
0.014699 	-7.43444e-05 	8.91157e-06 	0.0650924
0.0147492 	-6.19537e-05 	7.42631e-06 	0.0542437
0.0147993 	-4.9563e-05 	5.94105e-06 	0.043395
0.0148495 	-3.71722e-05 	4.45579e-06 	0.0325462
0.0148997 	-2.47815e-05 	2.97052e-06 	0.0216975
0.0149498 	-1.23907e-05 	1.48526e-06 	0.0108487
0.015 	0 	0 	0
