0 	0 	0 	0
5.01672e-05 	-0.00109067 	-1.31436e-05 	0.01476
0.000100334 	-0.00107697 	-2.69408e-05 	0.0305168
0.000150502 	-0.000734882 	-4.19832e-05 	0.0453558
0.000200669 	-0.000500709 	-5.57616e-05 	0.0587282
0.000250836 	-0.00035679 	-6.97034e-05 	0.0708652
0.000301003 	-0.000227344 	-8.37241e-05 	0.0820374
0.000351171 	-8.47174e-05 	-9.77279e-05 	0.0923989
0.000401338 	8.04653e-05 	-0.000111558 	0.102036
0.000451505 	0.0002691 	-0.000124991 	0.110999
0.000501672 	0.000477347 	-0.00013784 	0.119327
0.000551839 	0.000699049 	-0.000149842 	0.127053
0.000602007 	0.000927407 	-0.000160698 	0.134217
0.000652174 	0.0011559 	-0.000170342 	0.140859
0.000702341 	0.00137883 	-0.000178995 	0.147021
0.000752508 	0.00159172 	-0.000186945 	0.152741
0.000802676 	0.00179147 	-0.000194407 	0.158056
0.000852843 	0.00197397 	-0.000201657 	0.162955
0.00090301 	0.00214134 	-0.000208066 	0.167538
0.000953177 	0.002294 	-0.00021257 	0.171837
0.00100334 	0.00243235 	-0.000215224 	0.175873
0.00105351 	0.00255682 	-0.000216736 	0.179661
0.00110368 	0.00266754 	-0.000218206 	0.183208
0.00115385 	0.00276147 	-0.000220381 	0.186473
0.00120401 	0.00284379 	-0.000222365 	0.189552
0.00125418 	0.00291555 	-0.000223663 	0.192465
0.00130435 	0.00297766 	-0.000224038 	0.19523
0.00135452 	0.00302814 	-0.000223625 	0.197823
0.00140468 	0.0030693 	-0.000222934 	0.200284
0.00145485 	0.00310323 	-0.000221907 	0.202642
0.00150502 	0.00313049 	-0.000220497 	0.204905
0.00155518 	0.00314845 	-0.000218454 	0.207034
0.00160535 	0.00316129 	-0.00021617 	0.209086
0.00165552 	0.00316961 	-0.000213716 	0.211069
0.00170569 	0.0031719 	-0.000211178 	0.212958
0.00175585 	0.0031693 	-0.000208802 	0.214771
0.00180602 	0.00316327 	-0.000206563 	0.216531
0.00185619 	0.00315218 	-0.000204575 	0.218215
0.00190635 	0.0031364 	-0.000202584 	0.219835
0.00195652 	0.00311765 	-0.000200512 	0.221415
0.00200669 	0.00309371 	-0.000198068 	0.222929
0.00205686 	0.00306616 	-0.00019528 	0.224399
0.00210702 	0.00303621 	-0.00019227 	0.22584
0.00215719 	0.00300056 	-0.000189245 	0.227214
0.00220736 	0.00296265 	-0.00018637 	0.228564
0.00225753 	0.0029211 	-0.000183736 	0.229874
0.00230769 	0.00287535 	-0.000180736 	0.231139
0.00235786 	0.00282786 	-0.000177504 	0.232384
0.00240803 	0.00277645 	-0.000172229 	0.233573
0.00245819 	0.00272491 	-0.000166455 	0.234745
0.00250836 	0.0026731 	-0.000159669 	0.235882
0.00255853 	0.00262307 	-0.000154764 	0.236993
0.0026087 	0.00257431 	-0.000151194 	0.238084
0.00265886 	0.00252738 	-0.000152864 	0.239141
0.00270903 	0.00248089 	-0.000155779 	0.240189
0.0027592 	0.00243103 	-0.00016212 	0.241188
0.00280936 	0.00237975 	-0.000168219 	0.24218
0.00285953 	0.00232094 	-0.000173019 	0.243129
0.0029097 	0.00225932 	-0.000176679 	0.244063
0.00295987 	0.00219061 	-0.000177468 	0.244964
0.00301003 	0.00211948 	-0.000177158 	0.245848
0.0030602 	0.00204435 	-0.000175027 	0.246704
0.00311037 	0.00196844 	-0.000172527 	0.247543
0.00316054 	0.0018915 	-0.000169546 	0.248357
0.0032107 	0.00181498 	-0.00016637 	0.249153
0.00326087 	0.00173894 	-0.00016296 	0.249926
0.00331104 	0.0016636 	-0.000159933 	0.25068
0.0033612 	0.00158912 	-0.000157381 	0.25141
0.00341137 	0.00151488 	-0.000155697 	0.252122
0.00346154 	0.00144102 	-0.000155328 	0.252808
0.00351171 	0.00136676 	-0.000155637 	0.253481
0.00356187 	0.00129163 	-0.000157438 	0.254125
0.00361204 	0.00121611 	-0.000159651 	0.254762
0.00366221 	0.00113891 	-0.000163625 	0.255372
0.00371237 	0.00106167 	-0.000167642 	0.255982
0.00376254 	0.000983103 	-0.000173089 	0.256572
0.00381271 	0.000904533 	-0.000178537 	0.257162
0.00386288 	0.000825441 	-0.000183001 	0.257745
0.00391304 	0.000746244 	-0.000187263 	0.258327
0.00396321 	0.00066655 	-0.000188972 	0.258904
0.00401338 	0.000586514 	-0.00018892 	0.259478
0.00406355 	0.000505825 	-0.000188047 	0.260044
0.00411371 	0.000423705 	-0.000185377 	0.260595
0.00416388 	0.000341585 	-0.000182707 	0.261146
0.00421405 	0.000256018 	-0.000183572 	0.261652
0.00426421 	0.00017043 	-0.000184459 	0.262157
0.00431438 	8.23979e-05 	-0.000189348 	0.262626
0.00436455 	-7.05427e-06 	-0.000196562 	0.263074
0.00441472 	-9.71942e-05 	-0.0002044 	0.263511
0.00446488 	-0.000189651 	-0.000214336 	0.263907
0.00451505 	-0.000282107 	-0.000224271 	0.264303
0.00456522 	-0.000375786 	-0.000233284 	0.264666
0.00461538 	-0.000469806 	-0.000242039 	0.265019
0.00466555 	-0.000563928 	-0.000250597 	0.265362
0.00471572 	-0.000658298 	-0.00025868 	0.265679
0.00476589 	-0.000752668 	-0.000266763 	0.265996
0.00481605 	-0.000846644 	-0.000275575 	0.266286
0.00486622 	-0.000940492 	-0.000284621 	0.266567
0.00491639 	-0.00103411 	-0.000293853 	0.266841
0.00496656 	-0.00112664 	-0.000303958 	0.267085
0.00501672 	-0.00121918 	-0.000314063 	0.267328
0.00506689 	-0.0013105 	-0.000324697 	0.267551
0.00511706 	-0.00140083 	-0.000335765 	0.267756
0.00516722 	-0.00149116 	-0.000346834 	0.26796
0.00521739 	-0.00157856 	-0.000359037 	0.268129
0.00526756 	-0.00166556 	-0.000371403 	0.268293
0.00531773 	-0.00175187 	-0.000384032 	0.26845
0.00536789 	-0.00183448 	-0.000398125 	0.268571
0.00541806 	-0.00191709 	-0.000412217 	0.268692
0.00546823 	-0.00199787 	-0.000426977 	0.268798
0.00551839 	-0.00207572 	-0.000442818 	0.268882
0.00556856 	-0.00215358 	-0.000458659 	0.268966
0.00561873 	-0.00222851 	-0.000475089 	0.269031
0.0056689 	-0.00230117 	-0.000491979 	0.269082
0.00571906 	-0.00237383 	-0.000508869 	0.269134
0.00576923 	-0.00244238 	-0.000525965 	0.269163
0.0058194 	-0.00250908 	-0.000543154 	0.269182
0.00586957 	-0.00257578 	-0.000560343 	0.2692
0.00591973 	-0.00263761 	-0.000577697 	0.269194
0.0059699 	-0.00269797 	-0.000595101 	0.269181
0.00602007 	-0.00275833 	-0.000612505 	0.269168
0.00607023 	-0.00281353 	-0.000630303 	0.26913
0.0061204 	-0.00286739 	-0.000648205 	0.269085
0.00617057 	-0.00292125 	-0.000666107 	0.269041
0.00622074 	-0.00296998 	-0.000684465 	0.268973
0.0062709 	-0.00301713 	-0.000702963 	0.268899
0.00632107 	-0.00306429 	-0.000721461 	0.268824
0.00637124 	-0.0031067 	-0.000740322 	0.26873
0.0064214 	-0.00314692 	-0.000759352 	0.268626
0.00647157 	-0.00318713 	-0.000778382 	0.268522
0.00652174 	-0.00322345 	-0.000797647 	0.268404
0.00657191 	-0.00325652 	-0.000817109 	0.268272
0.00662207 	-0.00328958 	-0.00083657 	0.26814
0.00667224 	-0.00332009 	-0.000856174 	0.268
0.00672241 	-0.00334586 	-0.000876043 	0.267842
0.00677258 	-0.00337163 	-0.000895912 	0.267684
0.00682274 	-0.00339667 	-0.000915833 	0.267524
0.00687291 	-0.00341516 	-0.000936222 	0.267341
0.00692308 	-0.00343366 	-0.000956611 	0.267158
0.00697324 	-0.00345215 	-0.000977001 	0.266975
0.00702341 	-0.00346483 	-0.000997224 	0.266775
0.00707358 	-0.00347597 	-0.0010174 	0.26657
0.00712375 	-0.0034871 	-0.00103758 	0.266365
0.00717391 	-0.0034939 	-0.00105744 	0.266155
0.00722408 	-0.00349471 	-0.00107685 	0.26594
0.00727425 	-0.00349552 	-0.00109627 	0.265724
0.00732441 	-0.00349633 	-0.00111568 	0.265508
0.00737458 	-0.00348244 	-0.00113481 	0.265306
0.00742475 	-0.00346843 	-0.00115393 	0.265104
0.00747492 	-0.00345441 	-0.00117305 	0.264901
0.00752508 	-0.00343195 	-0.00119237 	0.264712
0.00757525 	-0.00340106 	-0.00121191 	0.264535
0.00762542 	-0.00337016 	-0.00123144 	0.264359
0.00767559 	-0.00333912 	-0.00125098 	0.264183
0.00772575 	-0.00329303 	-0.00127067 	0.26402
0.00777592 	-0.00324695 	-0.00129037 	0.263858
0.00782609 	-0.00320086 	-0.00131006 	0.263696
0.00787625 	-0.00314952 	-0.0013288 	0.263532
0.00792642 	-0.00309438 	-0.00134684 	0.263365
0.00797659 	-0.00303924 	-0.00136488 	0.263199
0.00802676 	-0.00298313 	-0.00138246 	0.26303
0.00807692 	-0.00292338 	-0.00139831 	0.262851
0.00812709 	-0.00286363 	-0.00141416 	0.262672
0.00817726 	-0.00280388 	-0.00143001 	0.262494
0.00822742 	-0.00274074 	-0.0014449 	0.262305
0.00827759 	-0.00267724 	-0.00145969 	0.262115
0.00832776 	-0.00261374 	-0.00147448 	0.261925
0.00837793 	-0.00254848 	-0.00148953 	0.261728
0.00842809 	-0.00248227 	-0.00150471 	0.261528
0.00847826 	-0.00241606 	-0.0015199 	0.261328
0.00852843 	-0.0023494 	-0.00153491 	0.261123
0.0085786 	-0.00228219 	-0.00154972 	0.260912
0.00862876 	-0.00221497 	-0.00156453 	0.260701
0.00867893 	-0.00214765 	-0.00157823 	0.260486
0.0087291 	-0.00208011 	-0.00158953 	0.260264
0.00877926 	-0.00201256 	-0.00160084 	0.260042
0.00882943 	-0.00194483 	-0.00161126 	0.259818
0.0088796 	-0.00187647 	-0.00161883 	0.259586
0.00892977 	-0.00180812 	-0.0016264 	0.259355
0.00897993 	-0.00173943 	-0.00163378 	0.25912
0.0090301 	-0.0016695 	-0.00164048 	0.258872
0.00908027 	-0.00159957 	-0.00164717 	0.258625
0.00913043 	-0.00152917 	-0.00165389 	0.258372
0.0091806 	-0.00145721 	-0.00166071 	0.2581
0.00923077 	-0.00138525 	-0.00166753 	0.257828
0.00928094 	-0.00131293 	-0.00167388 	0.257548
0.0093311 	-0.0012398 	-0.0016792 	0.25725
0.00938127 	-0.00116668 	-0.00168452 	0.256952
0.00943144 	-0.0010936 	-0.00168897 	0.256643
0.00948161 	-0.00102056 	-0.00169231 	0.25632
0.00953177 	-0.000947527 	-0.00169564 	0.255996
0.00958194 	-0.000874811 	-0.00169812 	0.255656
0.00963211 	-0.000802291 	-0.00170008 	0.255307
0.00968227 	-0.000729771 	-0.00170203 	0.254957
0.00973244 	-0.000657521 	-0.0017026 	0.254584
0.00978261 	-0.000585319 	-0.00170292 	0.254207
0.00983278 	-0.000513101 	-0.001703 	0.253827
0.00988294 	-0.000440776 	-0.0017014 	0.253423
0.00993311 	-0.00036845 	-0.00169979 	0.253019
0.00998328 	-0.000295858 	-0.00169753 	0.252603
0.0100334 	-0.000222941 	-0.00169446 	0.252174
0.0100836 	-0.000150024 	-0.0016914 	0.251744
0.0101338 	-7.63002e-05 	-0.00168779 	0.251294
0.0101839 	-2.4039e-06 	-0.00168407 	0.25084
0.0102341 	7.18134e-05 	-0.00168017 	0.25038
0.0102843 	0.000147029 	-0.00167572 	0.249901
0.0103344 	0.000222244 	-0.00167127 	0.249423
0.0103846 	0.000298601 	-0.0016658 	0.248927
0.0104348 	0.000375429 	-0.0016599 	0.248424
0.0104849 	0.000452633 	-0.00165381 	0.247916
0.0105351 	0.000531189 	-0.00164699 	0.247387
0.0105853 	0.000609745 	-0.00164017 	0.246858
0.0106355 	0.00068964 	-0.00163327 	0.246308
0.0106856 	0.000769933 	-0.00162634 	0.245752
0.0107358 	0.000850954 	-0.00161928 	0.245184
0.010786 	0.000933229 	-0.00161197 	0.244597
0.0108361 	0.00101552 	-0.00160466 	0.244011
0.0108863 	0.00110041 	-0.00159621 	0.243391
0.0109365 	0.00118529 	-0.00158775 	0.242771
0.0109866 	0.00127134 	-0.00157816 	0.242125
0.0110368 	0.00135793 	-0.00156806 	0.241466
0.011087 	0.00144358 	-0.00155735 	0.24079
0.0111371 	0.00152787 	-0.00154579 	0.240089
0.0111873 	0.00161127 	-0.00153402 	0.239379
0.0112375 	0.00169028 	-0.00152126 	0.238631
0.0112876 	0.0017693 	-0.0015085 	0.237884
0.0113378 	0.00184227 	-0.00149502 	0.23709
0.011388 	0.00191506 	-0.00148152 	0.236296
0.0114381 	0.00197932 	-0.0014677 	0.235465
0.0114883 	0.00204159 	-0.00145382 	0.234625
0.0115385 	0.00209213 	-0.00143956 	0.233756
0.0115886 	0.00213733 	-0.00142514 	0.232873
0.0116388 	0.00217097 	-0.00141061 	0.231963
0.011689 	0.00219697 	-0.001396 	0.231037
0.0117391 	0.00221525 	-0.00138113 	0.230084
0.0117893 	0.00222731 	-0.00136606 	0.229109
0.0118395 	0.00223706 	-0.00134992 	0.228105
0.0118896 	0.00224486 	-0.00133289 	0.227076
0.0119398 	0.00225447 	-0.00131465 	0.226012
0.01199 	0.00226549 	-0.00129547 	0.224923
0.0120401 	0.00227921 	-0.00127579 	0.223793
0.0120903 	0.00229456 	-0.00125582 	0.22264
0.0121405 	0.00230958 	-0.00123556 	0.221439
0.0121906 	0.00232445 	-0.0012152 	0.22022
0.0122408 	0.0023326 	-0.00118435 	0.218944
0.012291 	0.00233946 	-0.00115152 	0.217657
0.0123411 	0.00233189 	-0.00113492 	0.216296
0.0123913 	0.00232921 	-0.00112833 	0.214913
0.0124415 	0.00234712 	-0.00116393 	0.213437
0.0124916 	0.00241162 	-0.00118746 	0.211866
0.0125418 	0.00254174 	-0.001194 	0.210159
0.012592 	0.00275213 	-0.00113664 	0.208207
0.0126421 	0.00300212 	-0.00104778 	0.206134
0.0126923 	0.00330004 	-0.00089665 	0.20374
0.0127425 	0.00356877 	-0.00076788 	0.201357
0.0127926 	0.00375266 	-0.000707352 	0.19904
0.0128428 	0.00377266 	-0.000743873 	0.196958
0.012893 	0.00369032 	-0.000841002 	0.195022
0.0129431 	0.00346015 	-0.000907676 	0.1932
0.0129933 	0.00324512 	-0.000933106 	0.191306
0.0130435 	0.00305585 	-0.000895267 	0.189302
0.0130936 	0.00294562 	-0.000830464 	0.18709
0.0131438 	0.00286825 	-0.000766524 	0.184776
0.013194 	0.00283143 	-0.000719406 	0.182316
0.0132441 	0.00280407 	-0.000695174 	0.179729
0.0132943 	0.00278112 	-0.000677334 	0.177056
0.0133445 	0.00276222 	-0.000658205 	0.174258
0.0133946 	0.00274697 	-0.000630881 	0.171302
0.0134448 	0.00273137 	-0.000601695 	0.168236
0.013495 	0.00271389 	-0.000572417 	0.16505
0.0135452 	0.00268963 	-0.000550863 	0.161684
0.0135953 	0.00266357 	-0.000533307 	0.158197
0.0136455 	0.00263956 	-0.000516837 	0.154571
0.0136957 	0.00262629 	-0.000495056 	0.150756
0.0137458 	0.00263474 	-0.000465911 	0.146689
0.013796 	0.0026542 	-0.000436785 	0.142428
0.0138462 	0.00267884 	-0.000409916 	0.137971
0.0138963 	0.00270093 	-0.000387034 	0.133318
0.0139465 	0.00271079 	-0.000366915 	0.128411
0.0139967 	0.00271292 	-0.000346289 	0.123296
0.0140468 	0.00271117 	-0.000325071 	0.117959
0.014097 	0.00270924 	-0.000303667 	0.112382
0.0141472 	0.00271044 	-0.000282622 	0.106546
0.0141973 	0.00271655 	-0.000261732 	0.100433
0.0142475 	0.00272492 	-0.000239961 	0.09399
0.0142977 	0.00272719 	-0.000217448 	0.0872748
0.0143478 	0.00271232 	-0.000195024 	0.0803273
0.014398 	0.00266732 	-0.000173258 	0.0732101
0.0144482 	0.00258112 	-0.000152221 	0.0660092
0.0144983 	0.00244768 	-0.000132015 	0.0588292
0.0145485 	0.00226785 	-0.000112978 	0.0517828
0.0145987 	0.00205084 	-9.53272e-05 	0.0449724
0.0146488 	0.00181464 	-7.90375e-05 	0.0384703
0.014699 	0.00158504 	-6.40071e-05 	0.0323042
0.0147492 	0.00139601 	-5.01657e-05 	0.0264475
0.0147993 	0.00129503 	-3.78781e-05 	0.0208099
0.0148495 	0.00135636 	-2.52424e-05 	0.0152329
0.0148997 	0.00149716 	-1.41538e-05 	0.00961886
0.0149498 	0.00119255 	-6.58201e-06 	0.00427914
0.015 	0 	0 	0
