
2703
(
(4.7786e-07 0 0 4.7786e-07 0 4.7786e-07)
(3.17633e-07 -2.15094e-10 4.1697e-12 3.17536e-07 1.00556e-09 3.17616e-07)
(3.17959e-07 2.15267e-10 -4.10838e-12 3.17862e-07 1.00855e-09 3.17941e-07)
(4.78547e-07 0 0 4.78547e-07 0 4.78547e-07)
(3.86396e-07 -1.95853e-09 9.64922e-11 3.86812e-07 3.80995e-09 3.8607e-07)
(3.85905e-07 1.95381e-09 -9.52393e-11 3.8632e-07 3.83822e-09 3.85578e-07)
(1.39675e-06 -1.06326e-08 1.03372e-09 1.3882e-06 1.15816e-08 1.39328e-06)
(1.39456e-06 1.06023e-08 -1.01996e-09 1.38601e-06 1.18088e-08 1.39109e-06)
(3.9104e-06 -3.2335e-08 6.10057e-09 3.91098e-06 -1.72025e-08 3.88977e-06)
(3.9044e-06 3.22411e-08 -6.01599e-09 3.90499e-06 -1.61211e-08 3.88375e-06)
(8.90452e-06 -6.59332e-08 2.43291e-08 8.82592e-06 -2.93831e-07 8.82025e-06)
(8.8916e-06 6.57618e-08 -2.39743e-08 8.81302e-06 -2.90285e-07 8.80726e-06)
(1.75232e-05 -8.81629e-08 7.32321e-08 1.72711e-05 -1.40624e-06 1.72588e-05)
(1.74996e-05 8.8039e-08 -7.2098e-08 1.72476e-05 -1.39748e-06 1.7235e-05)
(3.09669e-05 -4.13977e-08 1.77055e-07 3.03991e-05 -4.4671e-06 3.02932e-05)
(3.09293e-05 4.17565e-08 -1.74117e-07 3.03615e-05 -4.44998e-06 3.02551e-05)
(5.01529e-05 1.55362e-07 3.57778e-07 4.89445e-05 -1.08795e-05 4.87186e-05)
(5.00993e-05 -1.5372e-07 -3.5138e-07 4.88911e-05 -1.0852e-05 4.86642e-05)
(7.51289e-05 5.67894e-07 6.23518e-07 7.29093e-05 -2.15728e-05 7.25315e-05)
(7.50594e-05 -5.64046e-07 -6.11504e-07 7.284e-05 -2.1535e-05 7.24608e-05)
(0.000104899 1.20063e-06 9.61313e-07 0.00010132 -3.62778e-05 0.00010082)
(0.000104815 -1.19438e-06 -9.41715e-07 0.000101236 -3.62354e-05 0.000100735)
(0.000137821 1.9256e-06 1.30556e-06 0.000132701 -5.32303e-05 0.000132143)
(0.000137727 -1.91707e-06 -1.27641e-06 0.000132606 -5.3186e-05 0.000132046)
(0.000172414 2.62444e-06 1.62968e-06 0.00016574 -7.10704e-05 0.000165251)
(0.00017231 -2.61367e-06 -1.58929e-06 0.000165636 -7.10216e-05 0.000165145)
(0.000207721 3.27179e-06 1.96256e-06 0.00019956 -8.96471e-05 0.000199398)
(0.00020761 -3.25925e-06 -1.91015e-06 0.000199448 -8.95946e-05 0.000199284)
(0.000243312 3.83829e-06 2.30217e-06 0.000233865 -0.000108465 0.000234373)
(0.000243195 -3.82473e-06 -2.23809e-06 0.000233747 -0.00010841 0.000234253)
(0.000279287 4.30352e-06 2.63934e-06 0.000269055 -0.000126223 0.00027048)
(0.000279165 -4.29028e-06 -2.56549e-06 0.000268932 -0.000126165 0.000270356)
(0.00031529 4.65283e-06 2.96579e-06 0.000304743 -0.000142948 0.000307166)
(0.000315165 -4.64096e-06 -2.88351e-06 0.000304617 -0.000142889 0.000307039)
(0.000350971 4.87452e-06 3.27583e-06 0.000340313 -0.000159604 0.000343807)
(0.000350844 -4.86472e-06 -3.18535e-06 0.000340185 -0.000159544 0.000343678)
(0.000386328 4.96116e-06 3.56672e-06 0.000375687 -0.000176167 0.000380385)
(0.000386199 -4.95412e-06 -3.46784e-06 0.000375558 -0.000176107 0.000380255)
(0.000421001 4.9077e-06 3.83848e-06 0.000410495 -0.000192478 0.000416536)
(0.000420872 -4.90353e-06 -3.73082e-06 0.000410365 -0.000192419 0.000416406)
(0.000454387 4.70866e-06 4.09256e-06 0.000444086 -0.000208266 0.00045168)
(0.000454258 -4.70763e-06 -3.97583e-06 0.000443956 -0.000208208 0.000451551)
(0.000485021 4.36189e-06 4.3306e-06 0.000474945 -0.000222848 0.000484377)
(0.000484894 -4.36404e-06 -4.20467e-06 0.000474816 -0.000222792 0.00048425)
(0.000511416 3.87704e-06 4.55167e-06 0.000501588 -0.000235529 0.00051311)
(0.000511291 -3.8823e-06 -4.41713e-06 0.000501461 -0.000235476 0.000512986)
(0.00053303 3.27946e-06 4.74975e-06 0.000523521 -0.000246042 0.000537249)
(0.000532907 -3.28821e-06 -4.60785e-06 0.000523396 -0.000245992 0.000537128)
(0.000549831 2.59714e-06 4.90771e-06 0.000540753 -0.000254356 0.000556657)
(0.000549712 -2.60935e-06 -4.75991e-06 0.000540632 -0.00025431 0.00055654)
(0.000562002 1.84655e-06 5.00024e-06 0.000553458 -0.000260535 0.000571419)
(0.000561887 -1.86168e-06 -4.84822e-06 0.000553341 -0.000260494 0.000571308)
(0.000569809 1.0295e-06 5.0111e-06 0.000561834 -0.000264632 0.000581724)
(0.000569699 -1.04679e-06 -4.85585e-06 0.000561723 -0.000264594 0.000581619)
(0.0005735 1.47408e-07 4.93234e-06 0.000566052 -0.00026663 0.000587755)
(0.000573397 -1.6639e-07 -4.77438e-06 0.000565948 -0.000266593 0.000587658)
(0.000573312 -7.56444e-07 4.78311e-06 0.0005663 -0.000266684 0.000589697)
(0.000573215 7.36165e-07 -4.6231e-06 0.000566203 -0.000266649 0.000589605)
(0.000569497 -1.62711e-06 4.58887e-06 0.00056281 -0.000265023 0.000587764)
(0.000569404 1.60598e-06 -4.4276e-06 0.000562718 -0.00026499 0.000587678)
(0.000562337 -2.43928e-06 4.35226e-06 0.000555842 -0.000261763 0.000582211)
(0.000562248 2.41805e-06 -4.18943e-06 0.000555756 -0.000261732 0.00058213)
(0.000552122 -3.17525e-06 4.0826e-06 0.000545712 -0.000257023 0.000573304)
(0.000552038 3.15442e-06 -3.91716e-06 0.000545629 -0.000256995 0.000573228)
(0.00053915 -3.82511e-06 3.80861e-06 0.000532817 -0.00025095 0.000561335)
(0.000539069 3.80418e-06 -3.64139e-06 0.000532737 -0.000250924 0.000561263)
(0.000523914 -4.36008e-06 3.60488e-06 0.00051773 -0.00024363 0.000546842)
(0.000523836 4.34029e-06 -3.43326e-06 0.000517654 -0.000243608 0.000546775)
(0.00050702 -4.79462e-06 3.50245e-06 0.000501382 -0.000235349 0.000530546)
(0.000506948 4.77622e-06 -3.32349e-06 0.000501311 -0.000235331 0.000530483)
(0.000489007 -5.17604e-06 3.47343e-06 0.000484558 -0.000226604 0.00051312)
(0.000488939 5.15787e-06 -3.28777e-06 0.000484492 -0.000226589 0.000513062)
(0.000470699 -5.49334e-06 3.52154e-06 0.000467192 -0.000217714 0.000495464)
(0.000470638 5.47573e-06 -3.328e-06 0.000467131 -0.000217701 0.000495412)
(0.000452999 -5.71253e-06 3.65739e-06 0.000449259 -0.000208908 0.000478316)
(0.000452945 5.69538e-06 -3.45369e-06 0.000449206 -0.000208894 0.000478271)
(0.000436154 -5.80877e-06 3.85549e-06 0.000431518 -0.000199702 0.000461442)
(0.000436109 5.79204e-06 -3.64344e-06 0.000431472 -0.00019969 0.000461405)
(0.000419742 -5.78923e-06 4.07417e-06 0.000414956 -0.000189035 0.000444114)
(0.000419704 5.7733e-06 -3.85799e-06 0.000414919 -0.000189029 0.000444085)
(0.000403456 -5.7026e-06 4.33549e-06 0.000399851 -0.000177875 0.000426405)
(0.000403428 5.68788e-06 -4.11753e-06 0.000399824 -0.000177869 0.000426385)
(0.000387675 -5.59812e-06 4.67228e-06 0.000385381 -0.00016762 0.000409092)
(0.000387657 5.58498e-06 -4.45263e-06 0.000385364 -0.00016761 0.000409081)
(0.000372711 -5.48708e-06 5.07579e-06 0.000371101 -0.000158263 0.000392539)
(0.000372703 5.47566e-06 -4.85454e-06 0.000371094 -0.000158261 0.000392538)
(0.000358425 -5.35604e-06 5.53585e-06 0.000357422 -0.000149845 0.000376652)
(0.000358427 5.34596e-06 -5.31391e-06 0.000357425 -0.000149847 0.000376661)
(0.00034481 -5.19178e-06 6.03721e-06 0.000344512 -0.000142386 0.00036147)
(0.000344822 5.18272e-06 -5.81456e-06 0.000344526 -0.000142392 0.000361489)
(0.000331013 -4.99392e-06 6.55934e-06 0.000331379 -0.000135948 0.000346174)
(0.000331035 4.9859e-06 -6.33707e-06 0.000331403 -0.000135962 0.000346203)
(0.000318096 -4.77211e-06 7.08501e-06 0.000319102 -0.000130397 0.000331858)
(0.000318128 4.76537e-06 -6.86236e-06 0.000319136 -0.000130412 0.000331897)
(0.000306942 -4.5402e-06 7.58923e-06 0.000308561 -0.000125639 0.000319436)
(0.000306983 4.53493e-06 -7.36444e-06 0.000308605 -0.000125659 0.000319484)
(0.000296392 -4.31052e-06 8.03763e-06 0.000298564 -0.000121732 0.000307768)
(0.000296441 4.30651e-06 -7.81058e-06 0.000298616 -0.000121758 0.000307825)
(0.000285996 -4.09455e-06 8.38439e-06 0.000288631 -0.000118434 0.000296441)
(0.000286052 4.09131e-06 -8.1554e-06 0.000288692 -0.000118467 0.000296506)
(0.000277114 -3.90669e-06 8.58098e-06 0.000280106 -0.000115834 0.000286871)
(0.000277176 3.90426e-06 -8.34995e-06 0.000280175 -0.000115875 0.000286943)
(0.000270825 -3.76023e-06 8.64124e-06 0.000274076 -0.000114061 0.000280104)
(0.000270893 3.75878e-06 -8.40594e-06 0.000274152 -0.000114108 0.000280183)
(0.000266016 -3.66081e-06 8.62486e-06 0.000269472 -0.000112656 0.000274926)
(0.00026609 3.66007e-06 -8.38443e-06 0.000269554 -0.000112714 0.000275011)
(0.000261998 -3.60488e-06 8.57318e-06 0.000265665 -0.000111132 0.00027058)
(0.000262076 3.60471e-06 -8.32787e-06 0.000265753 -0.000111192 0.00027067)
(0.000258379 -3.58224e-06 8.50993e-06 0.000262294 -0.00010932 0.000266642)
(0.00025846 3.58264e-06 -8.25876e-06 0.000262386 -0.000109376 0.000266736)
(0.000254959 -3.58237e-06 8.44448e-06 0.000259141 -0.00010711 0.00026286)
(0.000255043 3.58326e-06 -8.18821e-06 0.000259238 -0.000107173 0.000262957)
(0.000251594 -3.59819e-06 8.37488e-06 0.000256077 -0.000104379 0.000259053)
(0.00025168 3.59973e-06 -8.11534e-06 0.000256178 -0.000104449 0.000259154)
(0.000248179 -3.62301e-06 8.29877e-06 0.000252981 -0.00010133 0.000255181)
(0.000248267 3.62533e-06 -8.03652e-06 0.000253083 -0.000101402 0.000255284)
(0.000244664 -3.64782e-06 8.21843e-06 0.000249771 -9.81719e-05 0.000251277)
(0.000244754 3.65081e-06 -7.95249e-06 0.000249875 -9.8245e-05 0.000251382)
(0.000241015 -3.66408e-06 8.14061e-06 0.000246495 -9.49368e-05 0.000247333)
(0.000241106 3.66781e-06 -7.86947e-06 0.000246599 -9.5011e-05 0.000247439)
(0.000237226 -3.66856e-06 8.07218e-06 0.000243218 -9.16414e-05 0.000243333)
(0.000237317 3.67308e-06 -7.79538e-06 0.000243323 -9.17271e-05 0.000243439)
(0.000233384 -3.66485e-06 8.01285e-06 0.000239923 -8.78818e-05 0.000239236)
(0.000233473 3.67018e-06 -7.73284e-06 0.000240029 -8.79731e-05 0.000239342)
(0.000229517 -3.65919e-06 7.95816e-06 0.000236567 -8.3704e-05 0.000235038)
(0.000229604 3.66543e-06 -7.67613e-06 0.000236672 -8.37898e-05 0.000235143)
(0.000225604 -3.6548e-06 7.90248e-06 0.00023311 -7.94869e-05 0.00023079)
(0.000225688 3.66193e-06 -7.61932e-06 0.000233214 -7.95752e-05 0.000230892)
(0.000221662 -3.64995e-06 7.84271e-06 0.000229559 -7.51638e-05 0.000226506)
(0.000221744 3.65783e-06 -7.55927e-06 0.000229662 -7.52482e-05 0.000226607)
(0.000217697 -3.63977e-06 7.77698e-06 0.000225977 -7.07186e-05 0.000222187)
(0.000217775 3.64814e-06 -7.49296e-06 0.000226078 -7.07972e-05 0.000222284)
(0.000213729 -3.61953e-06 7.70217e-06 0.000222393 -6.61223e-05 0.000217854)
(0.000213804 3.62825e-06 -7.41877e-06 0.000222492 -6.62075e-05 0.000217948)
(0.000209797 -3.58647e-06 7.61641e-06 0.000218813 -6.13809e-05 0.000213548)
(0.000209867 3.59537e-06 -7.33498e-06 0.000218909 -6.14665e-05 0.000213638)
(0.000205936 -3.53891e-06 7.51802e-06 0.00021526 -5.65072e-05 0.000209306)
(0.000206 3.54763e-06 -7.23818e-06 0.000215353 -5.65866e-05 0.000209391)
(0.000202179 -3.47577e-06 7.40481e-06 0.000211767 -5.14814e-05 0.00020516)
(0.000202238 3.48406e-06 -7.12737e-06 0.000211856 -5.15715e-05 0.00020524)
(0.000198563 -3.39682e-06 7.2755e-06 0.000208371 -4.63006e-05 0.000201146)
(0.000198616 3.40424e-06 -7.00233e-06 0.000208456 -4.63952e-05 0.000201222)
(0.000195125 -3.3023e-06 7.13102e-06 0.000205112 -4.0961e-05 0.000197302)
(0.000195172 3.30834e-06 -6.86146e-06 0.000205192 -4.10447e-05 0.000197373)
(0.000191904 -3.19353e-06 6.97043e-06 0.000202032 -3.54718e-05 0.000193665)
(0.000191945 3.1979e-06 -6.70481e-06 0.000202107 -3.5546e-05 0.000193731)
(0.000188941 -3.07398e-06 6.79314e-06 0.000199172 -2.98224e-05 0.000190276)
(0.000188975 3.07616e-06 -6.53177e-06 0.000199242 -2.99016e-05 0.000190336)
(0.000186279 -2.94918e-06 6.5996e-06 0.000196571 -2.40021e-05 0.000187177)
(0.000186306 2.94871e-06 -6.3435e-06 0.000196636 -2.41008e-05 0.00018723)
(0.000183968 -2.82771e-06 6.38959e-06 0.00019427 -1.80463e-05 0.000184418)
(0.000183988 2.82434e-06 -6.14032e-06 0.00019433 -1.81338e-05 0.000184464)
(0.000182051 -2.71822e-06 6.16503e-06 0.000192333 -1.19549e-05 0.000182036)
(0.000182064 2.71142e-06 -5.92088e-06 0.000192386 -1.20204e-05 0.000182076)
(0.000180578 -2.60242e-06 5.92528e-06 0.000190791 -5.70437e-06 0.000180083)
(0.000180585 2.59186e-06 -5.68659e-06 0.000190838 -5.77808e-06 0.000180117)
(0.000179597 -2.44347e-06 5.67068e-06 0.000189678 7.12563e-07 0.000178611)
(0.000179597 2.42927e-06 -5.43827e-06 0.000189718 6.40293e-07 0.000178639)
(0.000179128 -2.24722e-06 5.40603e-06 0.000189075 7.27959e-06 0.000177658)
(0.000179122 2.22946e-06 -5.17891e-06 0.000189108 7.20868e-06 0.000177679)
(1.63044e-07 1.99014e-10 -2.74284e-12 1.63053e-07 1.06477e-10 1.63047e-07)
(1.81856e-07 0 0 1.81856e-07 0 1.81856e-07)
(4.69792e-07 1.8625e-09 -5.39209e-11 4.70095e-07 -3.10081e-09 4.69934e-07)
(1.76261e-06 1.01703e-08 -5.83242e-10 1.76563e-06 -4.72471e-08 1.76422e-06)
(4.72606e-06 3.09882e-08 -3.51391e-09 4.74191e-06 -3.08e-07 4.73543e-06)
(1.01234e-05 6.60849e-08 -1.43471e-08 1.01782e-05 -1.25456e-06 1.01592e-05)
(1.8606e-05 1.0311e-07 -4.43461e-08 1.87469e-05 -3.6998e-06 1.87074e-05)
(3.04827e-05 1.02737e-07 -1.10267e-07 3.07672e-05 -8.52007e-06 3.07107e-05)
(4.54793e-05 -1.74664e-09 -2.28857e-07 4.59436e-05 -1.60883e-05 4.59054e-05)
(6.27079e-05 -2.78909e-07 -4.08195e-07 6.33323e-05 -2.59573e-05 6.33942e-05)
(8.09613e-05 -7.70752e-07 -6.50176e-07 8.16124e-05 -3.64952e-05 8.19225e-05)
(9.91485e-05 -1.3841e-06 -8.99995e-07 9.96478e-05 -4.59592e-05 0.00010036)
(0.000116566 -2.00337e-06 -1.12974e-06 0.000116801 -5.4175e-05 0.000117995)
(0.000132853 -2.60559e-06 -1.3704e-06 0.000132734 -6.16336e-05 0.000134468)
(0.000147839 -3.16631e-06 -1.62236e-06 0.000147273 -6.84503e-05 0.000149611)
(0.000161481 -3.66526e-06 -1.87925e-06 0.000160388 -7.46196e-05 0.000163378)
(0.000173835 -4.08239e-06 -2.13382e-06 0.00017215 -8.0172e-05 0.000175819)
(0.000185015 -4.39775e-06 -2.38036e-06 0.000182692 -8.51685e-05 0.00018705)
(0.000195163 -4.59462e-06 -2.61559e-06 0.000192174 -8.96849e-05 0.000197217)
(0.000204421 -4.65794e-06 -2.83851e-06 0.000200751 -9.37989e-05 0.000206463)
(0.000212909 -4.57382e-06 -3.0495e-06 0.000208559 -9.75796e-05 0.000214917)
(0.000220717 -4.33283e-06 -3.2498e-06 0.0002157 -0.000101079 0.000222674)
(0.000227905 -3.93943e-06 -3.44074e-06 0.000222245 -0.000104327 0.000229801)
(0.000234509 -3.41639e-06 -3.62072e-06 0.000228241 -0.000107338 0.000236339)
(0.000240546 -2.79013e-06 -3.77663e-06 0.000233726 -0.00011012 0.000242311)
(0.000246032 -2.07687e-06 -3.88589e-06 0.000238723 -0.000112679 0.00024773)
(0.000250992 -1.27994e-06 -3.93408e-06 0.000243257 -0.000114978 0.000252622)
(0.000255442 -4.04521e-07 -3.91485e-06 0.000247362 -0.000116919 0.000257004)
(0.000259388 5.01727e-07 -3.84703e-06 0.000251057 -0.000118545 0.000260885)
(0.000262845 1.38044e-06 -3.75191e-06 0.000254345 -0.000119953 0.000264279)
(0.000265833 2.20465e-06 -3.62268e-06 0.000257234 -0.000121167 0.000267206)
(0.000268385 2.95666e-06 -3.4584e-06 0.000259744 -0.000122201 0.000269694)
(0.00027054 3.62727e-06 -3.28614e-06 0.000261906 -0.000123011 0.000271778)
(0.000272338 4.18933e-06 -3.18053e-06 0.000263755 -0.000123476 0.000273492)
(0.000273811 4.65317e-06 -3.17459e-06 0.000265312 -0.000123644 0.000274871)
(0.000274979 5.058e-06 -3.2451e-06 0.000266587 -0.000123697 0.000275947)
(0.00027585 5.38687e-06 -3.39407e-06 0.000267594 -0.000123662 0.000276732)
(0.000276415 5.60487e-06 -3.61959e-06 0.00026836 -0.000123394 0.000277223)
(0.000276675 5.69351e-06 -3.8943e-06 0.000268898 -0.000122841 0.000277414)
(0.000276649 5.66705e-06 -4.18471e-06 0.000269193 -0.000122069 0.000277309)
(0.00027635 5.57431e-06 -4.51226e-06 0.000269233 -0.000121158 0.000276922)
(0.000275789 5.45896e-06 -4.91016e-06 0.000269011 -0.000120193 0.000276265)
(0.000274971 5.32877e-06 -5.37468e-06 0.000268534 -0.000119163 0.000275345)
(0.000273901 5.16972e-06 -5.90233e-06 0.000267806 -0.000118034 0.000274169)
(0.000272587 4.96953e-06 -6.48162e-06 0.000266828 -0.00011677 0.000272742)
(0.000271034 4.72921e-06 -7.09221e-06 0.000265602 -0.000115398 0.000271072)
(0.000269246 4.45961e-06 -7.71465e-06 0.000264126 -0.000113907 0.000269162)
(0.000267228 4.17565e-06 -8.32419e-06 0.000262402 -0.000112283 0.000267017)
(0.000264983 3.89062e-06 -8.88715e-06 0.00026043 -0.000110531 0.000264638)
(0.000262514 3.61751e-06 -9.35785e-06 0.000258217 -0.000108648 0.000262029)
(0.000259825 3.3726e-06 -9.6876e-06 0.00025577 -0.000106627 0.000259193)
(0.000256923 3.17006e-06 -9.88844e-06 0.000253098 -0.000104469 0.000256137)
(0.000253818 3.01552e-06 -1.00206e-05 0.000250208 -0.000102185 0.000252871)
(0.000250525 2.90579e-06 -1.01257e-05 0.000247112 -9.97534e-05 0.000249413)
(0.000247059 2.83121e-06 -1.0226e-05 0.00024383 -9.71797e-05 0.000245779)
(0.000243433 2.78166e-06 -1.03304e-05 0.000240378 -9.44696e-05 0.000241986)
(0.000239661 2.75072e-06 -1.04363e-05 0.000236774 -9.16218e-05 0.000238052)
(0.00023576 2.73206e-06 -1.05392e-05 0.000233032 -8.86223e-05 0.000233993)
(0.000231751 2.71669e-06 -1.0639e-05 0.000229168 -8.54419e-05 0.000229829)
(0.000227657 2.69651e-06 -1.07413e-05 0.000225204 -8.21115e-05 0.000225578)
(0.000223497 2.66848e-06 -1.08518e-05 0.000221166 -7.8645e-05 0.000221263)
(0.000219293 2.63613e-06 -1.09698e-05 0.00021708 -7.50211e-05 0.000216903)
(0.000215067 2.60556e-06 -1.1089e-05 0.000212976 -7.12575e-05 0.000212521)
(0.000210844 2.57954e-06 -1.12019e-05 0.00020888 -6.73546e-05 0.000208141)
(0.000206648 2.55578e-06 -1.13036e-05 0.000204817 -6.3297e-05 0.00020379)
(0.000202509 2.5289e-06 -1.139e-05 0.000200817 -5.91069e-05 0.000199496)
(0.000198456 2.49404e-06 -1.14578e-05 0.00019691 -5.4786e-05 0.000195287)
(0.000194519 2.44819e-06 -1.15027e-05 0.00019313 -5.0302e-05 0.000191193)
(0.00019073 2.38921e-06 -1.15201e-05 0.000189513 -4.56624e-05 0.000187247)
(0.000187126 2.31605e-06 -1.1508e-05 0.000186094 -4.08971e-05 0.000183485)
(0.000183745 2.22872e-06 -1.14635e-05 0.000182906 -3.59793e-05 0.000179946)
(0.000180627 2.12824e-06 -1.13849e-05 0.000179985 -3.08939e-05 0.000176666)
(0.000177807 2.01723e-06 -1.12706e-05 0.000177373 -2.56596e-05 0.000173682)
(0.000175323 1.90039e-06 -1.1119e-05 0.000175115 -2.02748e-05 0.00017103)
(0.000173214 1.78572e-06 -1.09299e-05 0.000173248 -1.47429e-05 0.000168749)
(0.000171522 1.6864e-06 -1.07024e-05 0.000171812 -9.05482e-06 0.000166882)
(0.000170287 1.61506e-06 -1.04374e-05 0.000170852 -3.21969e-06 0.000165467)
(0.000169555 1.53986e-06 -1.01332e-05 0.000170395 2.76733e-06 0.000164552)
(0.000169362 1.41436e-06 -9.79078e-06 0.000170497 8.92678e-06 0.000164174)
(0.000169732 1.25601e-06 -9.41638e-06 0.000171231 1.52009e-05 0.000164355)
(1.60467e-07 4.55456e-12 3.63748e-12 1.60482e-07 3.44863e-10 1.60467e-07)
(1.64279e-07 0 0 1.64279e-07 0 1.64279e-07)
(5.32117e-07 1.78525e-10 9.711e-11 5.32514e-07 -3.39684e-10 5.32187e-07)
(2.0194e-06 1.31826e-09 1.03175e-09 2.02325e-06 -3.16575e-08 2.02034e-06)
(5.42738e-06 5.48115e-09 6.01535e-09 5.44732e-06 -2.631e-07 5.43325e-06)
(1.16349e-05 1.89734e-08 2.37442e-08 1.1704e-05 -1.1955e-06 1.16584e-05)
(2.13838e-05 5.53201e-08 7.07292e-08 2.15632e-05 -3.75994e-06 2.14529e-05)
(3.50063e-05 1.30807e-07 1.68868e-07 3.53746e-05 -9.025e-06 3.51667e-05)
(5.2128e-05 2.5059e-07 3.36066e-07 5.27468e-05 -1.74973e-05 5.24369e-05)
(7.16294e-05 3.98458e-07 5.75493e-07 7.25027e-05 -2.86581e-05 7.21439e-05)
(9.20278e-05 5.267e-07 8.6446e-07 9.30376e-05 -4.06788e-05 9.277e-05)
(0.000112022 5.9704e-07 1.16075e-06 0.000112986 -5.17164e-05 0.000112988)
(0.000130764 6.13691e-07 1.42945e-06 0.000131558 -6.10346e-05 0.000131949)
(0.000147826 5.86285e-07 1.67018e-06 0.000148357 -6.8959e-05 0.000149219)
(0.000163013 5.15786e-07 1.89259e-06 0.000163189 -7.59854e-05 0.000164598)
(0.000176258 4.04321e-07 2.09205e-06 0.000175998 -8.20936e-05 0.000178011)
(0.000187628 2.58839e-07 2.26503e-06 0.000186866 -8.73185e-05 0.000189522)
(0.000197291 8.97759e-08 2.41152e-06 0.000195977 -9.17494e-05 0.000199297)
(0.000205477 -9.15154e-08 2.53541e-06 0.000203577 -9.55198e-05 0.000207568)
(0.000212458 -2.75109e-07 2.64341e-06 0.000209952 -9.87939e-05 0.000214614)
(0.000218532 -4.53556e-07 2.74172e-06 0.000215411 -0.000101746 0.00022074)
(0.000223978 -6.20896e-07 2.82966e-06 0.000220246 -0.000104527 0.00022623)
(0.000228945 -7.7107e-07 2.89644e-06 0.000224616 -0.000107204 0.000231237)
(0.000233411 -8.96754e-07 2.92467e-06 0.000228512 -0.00010968 0.000235736)
(0.000237303 -9.87851e-07 2.89055e-06 0.000231876 -0.000111559 0.000239641)
(0.000240617 -1.04295e-06 2.78821e-06 0.000234715 -0.000112876 0.000242952)
(0.00024343 -1.06756e-06 2.62341e-06 0.00023711 -0.000113987 0.00024575)
(0.000245837 -1.06434e-06 2.39284e-06 0.000239166 -0.000114935 0.000248133)
(0.000247918 -1.03717e-06 2.09784e-06 0.000240961 -0.000115733 0.00025018)
(0.000249736 -9.90715e-07 1.74623e-06 0.00024255 -0.000116395 0.000251954)
(0.000251311 -9.29077e-07 1.35129e-06 0.000243954 -0.00011697 0.000253475)
(0.00025262 -8.53497e-07 9.31396e-07 0.000245164 -0.000117462 0.00025471)
(0.00025368 -7.68159e-07 5.26489e-07 0.000246226 -0.000117507 0.00025565)
(0.000254583 -6.80752e-07 1.65009e-07 0.000247233 -0.000116992 0.000256384)
(0.000255413 -5.95704e-07 -1.6233e-07 0.000248236 -0.000116346 0.000257021)
(0.000256204 -5.19455e-07 -4.62043e-07 0.000249245 -0.000115775 0.00025761)
(0.000256967 -4.60624e-07 -7.28757e-07 0.000250257 -0.000115302 0.000258173)
(0.000257684 -4.2052e-07 -9.48814e-07 0.00025127 -0.000114826 0.000258708)
(0.000258336 -3.93596e-07 -1.11749e-06 0.000252258 -0.000114377 0.000259206)
(0.000258921 -3.74468e-07 -1.24281e-06 0.000253179 -0.000114092 0.000259663)
(0.000259441 -3.64658e-07 -1.32809e-06 0.000254015 -0.000113935 0.000260086)
(0.000259891 -3.65302e-07 -1.38297e-06 0.00025475 -0.000113741 0.000260459)
(0.00026022 -3.73702e-07 -1.42338e-06 0.000255337 -0.000113381 0.00026072)
(0.000260355 -3.92059e-07 -1.45944e-06 0.000255708 -0.000112909 0.000260798)
(0.000260235 -4.20297e-07 -1.49772e-06 0.000255802 -0.000112328 0.000260636)
(0.000259816 -4.55762e-07 -1.54181e-06 0.000255573 -0.000111607 0.000260185)
(0.000259065 -4.97762e-07 -1.59432e-06 0.000254985 -0.000110732 0.000259405)
(0.000257958 -5.44477e-07 -1.65935e-06 0.000254022 -0.00010967 0.000258269)
(0.000256483 -5.93579e-07 -1.73928e-06 0.000252679 -0.000108408 0.000256757)
(0.000254638 -6.42841e-07 -1.83591e-06 0.000250962 -0.000106943 0.000254861)
(0.000252428 -6.9083e-07 -1.94992e-06 0.000248883 -0.000105266 0.000252584)
(0.000249865 -7.37111e-07 -2.0813e-06 0.000246455 -0.000103384 0.000249937)
(0.000246967 -7.81627e-07 -2.22938e-06 0.000243697 -0.000101322 0.000246939)
(0.000243754 -8.24188e-07 -2.39419e-06 0.00024063 -9.90716e-05 0.000243617)
(0.000240253 -8.64418e-07 -2.57518e-06 0.00023728 -9.66163e-05 0.000239999)
(0.000236492 -9.01858e-07 -2.77088e-06 0.000233675 -9.39658e-05 0.000236116)
(0.0002325 -9.36084e-07 -2.98021e-06 0.000229845 -9.11311e-05 0.000232002)
(0.000228311 -9.668e-07 -3.20074e-06 0.000225824 -8.80923e-05 0.000227686)
(0.000223959 -9.93875e-07 -3.43119e-06 0.00022165 -8.48448e-05 0.000223201)
(0.00021948 -1.01735e-06 -3.67029e-06 0.000217364 -8.14137e-05 0.000218581)
(0.000214913 -1.03727e-06 -3.91481e-06 0.000213004 -7.77938e-05 0.000213865)
(0.000210298 -1.05369e-06 -4.16244e-06 0.000208608 -7.39872e-05 0.000209093)
(0.000205673 -1.06693e-06 -4.41082e-06 0.000204212 -7.00202e-05 0.000204303)
(0.000201075 -1.07748e-06 -4.65685e-06 0.000199853 -6.58875e-05 0.000199533)
(0.000196541 -1.0859e-06 -4.89819e-06 0.000195568 -6.15801e-05 0.000194819)
(0.000192105 -1.09266e-06 -5.13179e-06 0.000191393 -5.7135e-05 0.000190198)
(0.000187804 -1.09823e-06 -5.35506e-06 0.000187363 -5.2551e-05 0.000185705)
(0.000183677 -1.10302e-06 -5.56464e-06 0.000183513 -4.77911e-05 0.000181381)
(0.000179766 -1.10745e-06 -5.75744e-06 0.000179882 -4.28944e-05 0.000177265)
(0.000176111 -1.11174e-06 -5.93091e-06 0.00017651 -3.78854e-05 0.0001734)
(0.000172754 -1.1154e-06 -6.08102e-06 0.000173436 -3.27329e-05 0.000169829)
(0.000169736 -1.11744e-06 -6.20578e-06 0.0001707 -2.7433e-05 0.000166592)
(0.000167097 -1.11691e-06 -6.30308e-06 0.000168341 -2.20012e-05 0.000163728)
(0.000164875 -1.11282e-06 -6.37062e-06 0.000166398 -1.64434e-05 0.000161278)
(0.000163109 -1.10358e-06 -6.40716e-06 0.00016491 -1.07524e-05 0.00015928)
(0.000161837 -1.08595e-06 -6.41131e-06 0.000163915 -4.93392e-06 0.000157774)
(0.000161097 -1.0574e-06 -6.3821e-06 0.000163454 1.02273e-06 0.000156799)
(0.000160926 -1.03039e-06 -6.31749e-06 0.000163567 7.12558e-06 0.000156397)
(0.000161363 -1.00262e-06 -6.21883e-06 0.000164294 1.33568e-05 0.000156605)
(0.000162444 -9.53272e-07 -6.08828e-06 0.000165666 1.9692e-05 0.000157454)
(1.94905e-07 1.03006e-11 2.5855e-12 1.94913e-07 6.18965e-10 1.949e-07)
(2.32863e-07 0 0 2.32863e-07 0 2.32863e-07)
(5.00702e-07 1.94475e-10 6.35752e-11 5.00837e-07 2.9829e-09 5.00619e-07)
(1.8781e-06 1.27922e-09 6.77881e-10 1.87926e-06 -5.20657e-09 1.87745e-06)
(5.06171e-06 5.10095e-09 4.00348e-09 5.06726e-06 -1.40612e-07 5.05892e-06)
(1.09118e-05 1.56277e-08 1.60932e-08 1.09301e-05 -8.09444e-07 1.09039e-05)
(2.02251e-05 3.90325e-08 4.90103e-08 2.02707e-05 -2.86747e-06 2.02093e-05)
(3.34975e-05 8.05311e-08 1.1979e-07 3.35877e-05 -7.46025e-06 3.34762e-05)
(5.05938e-05 1.38637e-07 2.43648e-07 5.07382e-05 -1.53733e-05 5.05831e-05)
(7.05906e-05 2.017e-07 4.24876e-07 7.07782e-05 -2.63648e-05 7.06281e-05)
(9.20293e-05 2.52777e-07 6.54548e-07 9.22231e-05 -3.93067e-05 9.21738e-05)
(0.00011343 2.74224e-07 8.96634e-07 0.000113569 -5.18904e-05 0.000113747)
(0.000133778 2.62768e-07 1.11042e-06 0.0001338 -6.22623e-05 0.000134312)
(0.000152553 2.31692e-07 1.298e-06 0.000152418 -7.10019e-05 0.000153338)
(0.000169427 1.88508e-07 1.47231e-06 0.000169104 -7.88563e-05 0.000170488)
(0.000184178 1.3302e-07 1.63045e-06 0.000183645 -8.57233e-05 0.000185532)
(0.000196755 6.60076e-08 1.77001e-06 0.000195997 -9.1582e-05 0.000198409)
(0.000207249 -9.65724e-09 1.89162e-06 0.000206255 -9.6491e-05 0.000209205)
(0.000215863 -9.06392e-08 1.99939e-06 0.000214626 -0.000100586 0.000218122)
(0.000222893 -1.75294e-07 2.10035e-06 0.000221405 -0.000104069 0.000225458)
(0.000228715 -2.64619e-07 2.20074e-06 0.000226967 -0.000107171 0.000231593)
(0.000233724 -3.60076e-07 2.29865e-06 0.000231702 -0.000110108 0.000236924)
(0.000238131 -4.60342e-07 2.38195e-06 0.000235819 -0.00011297 0.000241655)
(0.000241871 -5.59941e-07 2.43528e-06 0.000239257 -0.000115616 0.000245707)
(0.000244774 -6.50221e-07 2.43483e-06 0.000241864 -0.000117315 0.000248887)
(0.000246788 -7.29594e-07 2.37314e-06 0.000243595 -0.000117954 0.000251129)
(0.000248028 -8.00202e-07 2.2573e-06 0.000244561 -0.000118155 0.000252558)
(0.000248665 -8.59551e-07 2.0837e-06 0.000244939 -0.000118092 0.00025334)
(0.000248847 -9.053e-07 1.85003e-06 0.000244885 -0.00011783 0.000253621)
(0.000248697 -9.36446e-07 1.55653e-06 0.000244526 -0.000117442 0.000253521)
(0.000248298 -9.52782e-07 1.20445e-06 0.000243955 -0.000116986 0.000253119)
(0.000247673 -9.53625e-07 8.0086e-07 0.000243216 -0.000116474 0.000252426)
(0.000246885 -9.4111e-07 3.90242e-07 0.000242424 -0.000115461 0.000251466)
(0.000246104 -9.17587e-07 2.34663e-08 0.00024179 -0.000113544 0.000250402)
(0.000245507 -8.87258e-07 -2.97381e-07 0.000241451 -0.000111349 0.000249449)
(0.000245181 -8.54679e-07 -5.7985e-07 0.00024145 -0.000109457 0.00024873)
(0.000245153 -8.20707e-07 -8.16908e-07 0.000241792 -0.000107894 0.000248288)
(0.000245422 -7.86799e-07 -1.0031e-06 0.000242454 -0.000106717 0.000248142)
(0.000245969 -7.54738e-07 -1.13608e-06 0.000243398 -0.000105968 0.000248299)
(0.000246782 -7.27934e-07 -1.21591e-06 0.000244589 -0.000105665 0.000248768)
(0.000247855 -7.10765e-07 -1.24592e-06 0.000246004 -0.000105777 0.000249558)
(0.000249135 -6.98983e-07 -1.2406e-06 0.000247586 -0.000105959 0.000250601)
(0.000250488 -6.84901e-07 -1.21581e-06 0.000249207 -0.00010596 0.000251743)
(0.000251762 -6.70437e-07 -1.17395e-06 0.000250716 -0.000105978 0.000252843)
(0.000252826 -6.57213e-07 -1.11688e-06 0.000251983 -0.000106041 0.000253779)
(0.000253584 -6.44802e-07 -1.05069e-06 0.000252906 -0.00010602 0.000254446)
(0.000253958 -6.34563e-07 -9.80957e-07 0.000253413 -0.000105864 0.000254758)
(0.000253895 -6.26016e-07 -9.12934e-07 0.00025346 -0.000105524 0.000254653)
(0.000253363 -6.18178e-07 -8.50722e-07 0.000253022 -0.000104963 0.000254089)
(0.000252348 -6.10599e-07 -7.97375e-07 0.000252093 -0.000104165 0.000253044)
(0.000250852 -6.03389e-07 -7.54552e-07 0.00025068 -0.000103115 0.00025151)
(0.000248888 -5.9694e-07 -7.23343e-07 0.000248799 -0.000101799 0.000249492)
(0.000246474 -5.91336e-07 -7.03594e-07 0.000246472 -0.000100231 0.000247012)
(0.000243637 -5.8632e-07 -6.95056e-07 0.000243723 -9.8421e-05 0.0002441)
(0.000240408 -5.81611e-07 -6.9835e-07 0.000240579 -9.63638e-05 0.000240789)
(0.000236823 -5.76929e-07 -7.14033e-07 0.000237078 -9.40696e-05 0.000237117)
(0.000232922 -5.72026e-07 -7.42454e-07 0.000233257 -9.15377e-05 0.000233123)
(0.000228747 -5.66643e-07 -7.83605e-07 0.000229158 -8.87646e-05 0.000228847)
(0.000224342 -5.60568e-07 -8.38071e-07 0.000224826 -8.57617e-05 0.000224332)
(0.00021975 -5.53839e-07 -9.05677e-07 0.000220307 -8.25315e-05 0.000219622)
(0.000215019 -5.46581e-07 -9.85357e-07 0.000215653 -7.90752e-05 0.000214762)
(0.000210197 -5.38816e-07 -1.07617e-06 0.000210916 -7.53993e-05 0.000209802)
(0.000205332 -5.305e-07 -1.1769e-06 0.000206143 -7.1513e-05 0.00020479)
(0.000200473 -5.21574e-07 -1.28591e-06 0.000201382 -6.74243e-05 0.000199772)
(0.000195665 -5.12031e-07 -1.40247e-06 0.00019668 -6.313e-05 0.000194795)
(0.000190952 -5.01995e-07 -1.52495e-06 0.000192082 -5.86557e-05 0.000189904)
(0.000186379 -4.9173e-07 -1.65092e-06 0.000187633 -5.40108e-05 0.000185142)
(0.000181993 -4.81433e-07 -1.77946e-06 0.00018338 -4.91704e-05 0.000180556)
(0.00017784 -4.71204e-07 -1.90871e-06 0.00017937 -4.41639e-05 0.000176193)
(0.000173968 -4.61143e-07 -2.03522e-06 0.000175652 -3.90086e-05 0.000172101)
(0.000170425 -4.51323e-07 -2.15685e-06 0.00017228 -3.36901e-05 0.000168329)
(0.000167259 -4.41895e-07 -2.27136e-06 0.000169296 -2.82252e-05 0.000164924)
(0.000164514 -4.3322e-07 -2.3773e-06 0.000166741 -2.26222e-05 0.000161933)
(0.000162234 -4.26034e-07 -2.47231e-06 0.000164655 -1.68844e-05 0.000159399)
(0.000160459 -4.21585e-07 -2.55454e-06 0.000163079 -1.10205e-05 0.000157364)
(0.000159229 -4.21904e-07 -2.62335e-06 0.000162052 -5.0192e-06 0.000155869)
(0.00015858 -4.29723e-07 -2.67678e-06 0.000161617 1.12856e-06 0.000154951)
(0.00015855 -4.42452e-07 -2.71452e-06 0.000161806 7.40479e-06 0.00015465)
(0.000159176 -4.45139e-07 -2.73649e-06 0.000162655 1.37954e-05 0.000155002)