0 	0 	0 	0
5.01672e-05 	-0.000607637 	-7.84799e-06 	0.0166212
0.000100334 	-0.00102253 	-1.67762e-05 	0.0334279
0.000150502 	-0.00139233 	-2.69859e-05 	0.04897
0.000200669 	-0.0017675 	-3.74051e-05 	0.0628315
0.000250836 	-0.00213379 	-4.91791e-05 	0.075345
0.000301003 	-0.00247693 	-6.23862e-05 	0.0867981
0.000351171 	-0.00279233 	-7.70612e-05 	0.0973455
0.000401338 	-0.00307891 	-9.30697e-05 	0.107084
0.000451505 	-0.00333701 	-0.000110213 	0.116078
0.000501672 	-0.00356766 	-0.000128353 	0.124372
0.000551839 	-0.00377244 	-0.000147469 	0.132008
0.000602007 	-0.00395344 	-0.000167555 	0.139032
0.000652174 	-0.00411322 	-0.000188477 	0.145499
0.000702341 	-0.00425456 	-0.000210017 	0.151461
0.000752508 	-0.00438011 	-0.000232048 	0.156968
0.000802676 	-0.00449196 	-0.00025458 	0.162058
0.000852843 	-0.00459005 	-0.0002777 	0.166714
0.00090301 	-0.0046777 	-0.000301247 	0.171034
0.000953177 	-0.00475596 	-0.000324993 	0.175053
0.00100334 	-0.00482563 	-0.000348822 	0.178802
0.00105351 	-0.00488739 	-0.000372754 	0.182306
0.00110368 	-0.00494162 	-0.000396938 	0.185587
0.00115385 	-0.00498713 	-0.000421314 	0.188615
0.00120401 	-0.0050268 	-0.000445613 	0.191479
0.00125418 	-0.00506122 	-0.000469721 	0.194198
0.00130435 	-0.00509088 	-0.00049358 	0.196785
0.00135452 	-0.00511492 	-0.000517176 	0.19922
0.00140468 	-0.0051345 	-0.000540916 	0.201537
0.00145485 	-0.00515064 	-0.00056468 	0.203759
0.00150502 	-0.00516363 	-0.000588398 	0.205892
0.00155518 	-0.00517219 	-0.000611462 	0.207895
0.00160535 	-0.00517805 	-0.000633786 	0.209838
0.00165552 	-0.00518148 	-0.000655407 	0.211733
0.00170569 	-0.00518148 	-0.000675932 	0.213587
0.00175585 	-0.00517984 	-0.000696276 	0.215423
0.00180602 	-0.00517773 	-0.000716733 	0.217238
0.00185619 	-0.00517615 	-0.0007378 	0.219006
0.00190635 	-0.00517416 	-0.000759046 	0.220697
0.00195652 	-0.00517036 	-0.000780101 	0.222344
0.00200669 	-0.00515886 	-0.000799937 	0.223926
0.00205686 	-0.00513746 	-0.000818192 	0.225486
0.00210702 	-0.00510954 	-0.00083541 	0.227031
0.00215719 	-0.00507163 	-0.000851053 	0.228501
0.00220736 	-0.00503442 	-0.000866619 	0.229921
0.00225753 	-0.0049983 	-0.000882063 	0.23126
0.00230769 	-0.00496641 	-0.000897526 	0.23252
0.00235786 	-0.00493615 	-0.000913023 	0.23375
0.00240803 	-0.00490731 	-0.0009291 	0.234947
0.00245819 	-0.00487743 	-0.000945476 	0.236147
0.00250836 	-0.00484542 	-0.000962456 	0.237356
0.00255853 	-0.0048122 	-0.00097908 	0.238548
0.0026087 	-0.00477812 	-0.000995451 	0.239728
0.00265886 	-0.00474861 	-0.00101047 	0.240819
0.00270903 	-0.0047202 	-0.00102517 	0.241888
0.0027592 	-0.0047069 	-0.00103903 	0.242801
0.00280936 	-0.00469552 	-0.00105315 	0.243699
0.00285953 	-0.00469435 	-0.00106867 	0.244511
0.0029097 	-0.00468682 	-0.00108462 	0.245358
0.00295987 	-0.00466332 	-0.00110165 	0.246293
0.00301003 	-0.00461627 	-0.00111692 	0.247355
0.0030602 	-0.00453025 	-0.00112925 	0.248627
0.00311037 	-0.00442947 	-0.0011393 	0.249945
0.00316054 	-0.00430949 	-0.00114637 	0.251319
0.0032107 	-0.00419912 	-0.00115348 	0.252581
0.00326087 	-0.00410012 	-0.00116064 	0.253709
0.00331104 	-0.00401537 	-0.00116857 	0.254725
0.0033612 	-0.00394833 	-0.00117745 	0.255599
0.00341137 	-0.00388842 	-0.0011868 	0.25642
0.00346154 	-0.0038393 	-0.00119686 	0.257158
0.00351171 	-0.003791 	-0.00120742 	0.257884
0.00356187 	-0.00374448 	-0.00121908 	0.258582
0.00361204 	-0.00369811 	-0.00123091 	0.259273
0.00366221 	-0.00365232 	-0.00124352 	0.259941
0.00371237 	-0.00360665 	-0.00125603 	0.260607
0.00376254 	-0.00356493 	-0.00126529 	0.261202
0.00381271 	-0.00352321 	-0.00127454 	0.261796
0.00386288 	-0.00348415 	-0.00127889 	0.262328
0.00391304 	-0.00344563 	-0.00128224 	0.262846
0.00396321 	-0.00340584 	-0.00128401 	0.263421
0.00401338 	-0.00336519 	-0.0012847 	0.264036
0.00406355 	-0.00332246 	-0.00128695 	0.264752
0.00411371 	-0.00327519 	-0.00129264 	0.265691
0.00416388 	-0.00322792 	-0.00129832 	0.26663
0.00421405 	-0.00318173 	-0.00130828 	0.267631
0.00426421 	-0.00313554 	-0.00131827 	0.268632
0.00431438 	-0.00309962 	-0.00132693 	0.269422
0.00436455 	-0.00306966 	-0.00133482 	0.270088
0.00441472 	-0.0030429 	-0.00134256 	0.270683
0.00446488 	-0.00302692 	-0.00134977 	0.271038
0.00451505 	-0.00301095 	-0.00135698 	0.271394
0.00456522 	-0.00297093 	-0.00136524 	0.271777
0.00461538 	-0.00292422 	-0.00137379 	0.272168
0.00466555 	-0.00285179 	-0.00138128 	0.272687
0.00471572 	-0.00271695 	-0.0013862 	0.273516
0.00476589 	-0.00258211 	-0.00139112 	0.274346
0.00481605 	-0.00241737 	-0.0013927 	0.275306
0.00486622 	-0.00224301 	-0.00139322 	0.276308
0.00491639 	-0.00207583 	-0.0013941 	0.277258
0.00496656 	-0.00194221 	-0.00139667 	0.27796
0.00501672 	-0.00180859 	-0.00139925 	0.278663
0.00506689 	-0.00169905 	-0.0014024 	0.279204
0.00511706 	-0.00160929 	-0.00140601 	0.279613
0.00516722 	-0.00151953 	-0.00140962 	0.280021
0.00521739 	-0.00144856 	-0.00141123 	0.280305
0.00526756 	-0.00138028 	-0.00141255 	0.280572
0.00531773 	-0.00131215 	-0.00141382 	0.280833
0.00536789 	-0.0012448 	-0.00141486 	0.281067
0.00541806 	-0.00117745 	-0.00141591 	0.281301
0.00546823 	-0.00110859 	-0.00141701 	0.281529
0.00551839 	-0.00103727 	-0.00141819 	0.281749
0.00556856 	-0.000965954 	-0.00141938 	0.281969
0.00561873 	-0.000893457 	-0.00142006 	0.282176
0.0056689 	-0.000820042 	-0.00142035 	0.282372
0.00571906 	-0.000746627 	-0.00142063 	0.282569
0.00576923 	-0.000672403 	-0.00142052 	0.282748
0.0058194 	-0.000597818 	-0.00142024 	0.282919
0.00586957 	-0.000523232 	-0.00141995 	0.283089
0.00591973 	-0.000448271 	-0.00141937 	0.283239
0.0059699 	-0.000373197 	-0.0014187 	0.283382
0.00602007 	-0.000298122 	-0.00141803 	0.283525
0.00607023 	-0.000223155 	-0.00141705 	0.283645
0.0061204 	-0.000148216 	-0.001416 	0.283759
0.00617057 	-7.32768e-05 	-0.00141494 	0.283874
0.00622074 	1.13844e-06 	-0.00141362 	0.283965
0.0062709 	7.53928e-05 	-0.00141223 	0.28405
0.00632107 	0.000149647 	-0.00141083 	0.284134
0.00637124 	0.000223143 	-0.00140921 	0.284198
0.0064214 	0.000296285 	-0.00140749 	0.284253
0.00647157 	0.000369428 	-0.00140578 	0.284307
0.00652174 	0.000441789 	-0.0014039 	0.284345
0.00657191 	0.000513497 	-0.00140189 	0.284369
0.00662207 	0.000585205 	-0.00139988 	0.284393
0.00667224 	0.00065632 	-0.00139774 	0.284407
0.00672241 	0.000726335 	-0.00139535 	0.284401
0.00677258 	0.00079635 	-0.00139295 	0.284395
0.00682274 	0.000866172 	-0.0013905 	0.284386
0.00687291 	0.000934248 	-0.00138754 	0.284352
0.00692308 	0.00100232 	-0.00138458 	0.284318
0.00697324 	0.0010704 	-0.00138162 	0.284283
0.00702341 	0.00113658 	-0.00137894 	0.284217
0.00707358 	0.00120225 	-0.00137633 	0.284142
0.00712375 	0.00126792 	-0.00137372 	0.284067
0.00717391 	0.00133265 	-0.00137129 	0.283955
0.00722408 	0.00139609 	-0.00136911 	0.283794
0.00727425 	0.00145952 	-0.00136693 	0.283632
0.00732441 	0.00152296 	-0.00136475 	0.283471
0.00737458 	0.00158516 	-0.00136038 	0.283192
0.00742475 	0.00164736 	-0.00135599 	0.282912
0.00747492 	0.00170955 	-0.0013516 	0.282631
0.00752508 	0.00176863 	-0.00134545 	0.2823
0.00757525 	0.00182461 	-0.00133755 	0.281918
0.00762542 	0.00188059 	-0.00132965 	0.281536
0.00767559 	0.00193635 	-0.00132174 	0.281154
0.00772575 	0.00196943 	-0.00131318 	0.280748
0.00777592 	0.0020025 	-0.00130462 	0.280342
0.00782609 	0.00203557 	-0.00129606 	0.279936
0.00787625 	0.0020449 	-0.00128992 	0.279479
0.00792642 	0.002037 	-0.00128554 	0.278986
0.00797659 	0.0020291 	-0.00128115 	0.278493
0.00802676 	0.00201318 	-0.00127741 	0.277954
0.00807692 	0.00196719 	-0.00127608 	0.277243
0.00812709 	0.00192119 	-0.00127475 	0.276531
0.00817726 	0.0018752 	-0.00127341 	0.27582
0.00822742 	0.00185742 	-0.00126603 	0.275233
0.00827759 	0.00184274 	-0.00125798 	0.274659
0.00832776 	0.00182807 	-0.00124993 	0.274085
0.00837793 	0.00185791 	-0.00123795 	0.273752
0.00842809 	0.00191179 	-0.00122385 	0.273549
0.00847826 	0.00196567 	-0.00120975 	0.273346
0.00852843 	0.00202845 	-0.00119701 	0.273185
0.0085786 	0.0021019 	-0.00118591 	0.273077
0.00862876 	0.00217535 	-0.00117481 	0.272968
0.00867893 	0.0022447 	-0.00116437 	0.272836
0.0087291 	0.00230524 	-0.00115534 	0.272651
0.00877926 	0.00236578 	-0.00114632 	0.272467
0.00882943 	0.00242289 	-0.00113689 	0.272266
0.0088796 	0.00246888 	-0.00112616 	0.272011
0.00892977 	0.00251486 	-0.00111543 	0.271756
0.00897993 	0.00255964 	-0.00110439 	0.271495
0.0090301 	0.00259983 	-0.0010922 	0.271213
0.00908027 	0.00264002 	-0.00108 	0.270932
0.00913043 	0.00267967 	-0.00106762 	0.270646
0.0091806 	0.0027175 	-0.0010546 	0.270349
0.00923077 	0.00275532 	-0.00104158 	0.270051
0.00928094 	0.00279245 	-0.00102786 	0.269748
0.0093311 	0.00282799 	-0.00101258 	0.269431
0.00938127 	0.00286354 	-0.000997303 	0.269115
0.00943144 	0.00289801 	-0.00098106 	0.268791
0.00948161 	0.00293108 	-0.000963581 	0.268456
0.00953177 	0.00296416 	-0.000946102 	0.268121
0.00958194 	0.00299513 	-0.00092989 	0.267775
0.00963211 	0.00302479 	-0.000914462 	0.267422
0.00968227 	0.00305446 	-0.000899034 	0.26707
0.00973244 	0.00308128 	-0.000888531 	0.266701
0.00978261 	0.00310759 	-0.000878918 	0.266331
0.00983278 	0.00313388 	-0.000869568 	0.265957
0.00988294 	0.00316006 	-0.000862063 	0.26556
0.00993311 	0.00318625 	-0.000854559 	0.265164
0.00998328 	0.00321488 	-0.000844187 	0.26475
0.0100334 	0.00324649 	-0.000830325 	0.264315
0.0100836 	0.0032781 	-0.000816462 	0.26388
0.0101338 	0.00331754 	-0.000794222 	0.263402
0.0101839 	0.00335864 	-0.000770192 	0.262914
0.0102341 	0.00340172 	-0.000744868 	0.262413
0.0102843 	0.00345093 	-0.000715519 	0.261867
0.0103344 	0.00350013 	-0.000686171 	0.261321
0.0103846 	0.00354929 	-0.000657652 	0.260738
0.0104348 	0.00359843 	-0.000629475 	0.260139
0.0104849 	0.00364497 	-0.000602382 	0.259533
0.0105351 	0.00368214 	-0.000579182 	0.258901
0.0105853 	0.00371931 	-0.000555982 	0.258269
0.0106355 	0.00373972 	-0.000539728 	0.257627
0.0106856 	0.00375517 	-0.000525535 	0.256982
0.0107358 	0.00376208 	-0.000514968 	0.256334
0.010786 	0.00375431 	-0.000510637 	0.255682
0.0108361 	0.00374645 	-0.000506332 	0.25503
0.0108863 	0.00372372 	-0.000505913 	0.254368
0.0109365 	0.00370099 	-0.000505495 	0.253705
0.0109866 	0.00367673 	-0.000501192 	0.253034
0.0110368 	0.00365177 	-0.000495116 	0.25236
0.011087 	0.00362997 	-0.00048427 	0.25168
0.0111371 	0.00361274 	-0.000466504 	0.250991
0.0111873 	0.00359734 	-0.000447074 	0.250297
0.0112375 	0.00359091 	-0.000419486 	0.249576
0.0112876 	0.00358449 	-0.000391898 	0.248856
0.0113378 	0.00358544 	-0.000360475 	0.248085
0.011388 	0.00358661 	-0.000328935 	0.247312
0.0114381 	0.00358817 	-0.000299527 	0.246492
0.0114883 	0.00358982 	-0.00027062 	0.245661
0.0115385 	0.00358605 	-0.000247733 	0.244797
0.0115886 	0.00357981 	-0.000227582 	0.243918
0.0116388 	0.00356537 	-0.000213908 	0.243021
0.011689 	0.00354552 	-0.000204507 	0.242113
0.0117391 	0.00351823 	-0.000198888 	0.241195
0.0117893 	0.00348496 	-0.000196312 	0.240269
0.0118395 	0.00344718 	-0.00019327 	0.239332
0.0118896 	0.00340558 	-0.000189833 	0.238386
0.0119398 	0.00336243 	-0.000182905 	0.237421
0.01199 	0.00331809 	-0.000173293 	0.236441
0.0120401 	0.00327397 	-0.000160667 	0.235432
0.0120903 	0.00322999 	-0.000146221 	0.234407
0.0121405 	0.00318703 	-0.000131446 	0.233343
0.0121906 	0.00314447 	-0.00011654 	0.232264
0.0122408 	0.00310325 	-0.000103256 	0.231136
0.012291 	0.00306228 	-9.0277e-05 	0.229998
0.0123411 	0.00302244 	-7.78674e-05 	0.228793
0.0123913 	0.00298243 	-6.5156e-05 	0.227573
0.0124415 	0.00294177 	-5.11744e-05 	0.226286
0.0124916 	0.00289843 	-3.73596e-05 	0.22495
0.0125418 	0.0028513 	-2.37797e-05 	0.223546
0.012592 	0.00279438 	-1.22147e-05 	0.222027
0.0126421 	0.00273262 	-1.64367e-06 	0.220452
0.0126923 	0.00265422 	5.9828e-06 	0.218687
0.0127425 	0.00257279 	1.30278e-05 	0.21688
0.0127926 	0.00248531 	1.88788e-05 	0.214981
0.0128428 	0.00240049 	2.53578e-05 	0.213085
0.012893 	0.00231732 	3.22291e-05 	0.211191
0.0129431 	0.00223992 	3.90295e-05 	0.209338
0.0129933 	0.00216201 	4.50767e-05 	0.207473
0.0130435 	0.00208323 	4.99608e-05 	0.205591
0.0130936 	0.00199912 	5.47494e-05 	0.20361
0.0131438 	0.001912 	5.96127e-05 	0.201558
0.013194 	0.00182009 	6.47174e-05 	0.199379
0.0132441 	0.00172434 	6.9679e-05 	0.197046
0.0132943 	0.00162633 	7.44351e-05 	0.194606
0.0133445 	0.00152555 	7.87761e-05 	0.192015
0.0133946 	0.00142225 	8.1809e-05 	0.189249
0.0134448 	0.0013177 	8.402e-05 	0.186364
0.013495 	0.001212 	8.53745e-05 	0.183349
0.0135452 	0.00110553 	8.5979e-05 	0.180128
0.0135953 	0.000998906 	8.60397e-05 	0.176768
0.0136455 	0.000892241 	8.55171e-05 	0.173262
0.0136957 	0.000785784 	8.42576e-05 	0.169566
0.0137458 	0.000680338 	8.21733e-05 	0.165634
0.013796 	0.0005764 	7.94363e-05 	0.161506
0.0138462 	0.000474625 	7.60449e-05 	0.157168
0.0138963 	0.000375816 	7.20162e-05 	0.152602
0.0139465 	0.000282718 	6.72516e-05 	0.147713
0.0139967 	0.000195576 	6.20106e-05 	0.142551
0.0140468 	0.000115312 	5.63604e-05 	0.137105
0.014097 	4.28114e-05 	5.04497e-05 	0.131355
0.0141472 	-2.13732e-05 	4.44858e-05 	0.125281
0.0141973 	-7.73002e-05 	3.86282e-05 	0.11886
0.0142475 	-0.000124557 	3.26628e-05 	0.112014
0.0142977 	-0.00016475 	2.64179e-05 	0.104793
0.0143478 	-0.000197949 	1.99676e-05 	0.0972105
0.014398 	-0.000223975 	1.37478e-05 	0.0893041
0.0144482 	-0.00024264 	8.17119e-06 	0.0811433
0.0144983 	-0.000254203 	3.29378e-06 	0.0728308
0.0145485 	-0.000259271 	-9.57059e-07 	0.0644958
0.0145987 	-0.00025792 	-4.47469e-06 	0.0562756
0.0146488 	-0.000248771 	-7.08905e-06 	0.0482911
0.014699 	-0.000228564 	-8.6592e-06 	0.0406213
0.0147492 	-0.000191893 	-9.13141e-06 	0.033287
0.0147993 	-0.000130376 	-8.78247e-06 	0.0262382
0.0148495 	-3.01873e-05 	-6.53589e-06 	0.0193256
0.0148997 	9.15717e-05 	-4.02796e-06 	0.0124041
0.0149498 	0.000130637 	-2.21694e-06 	0.00574342
0.015 	0 	0 	0
