-0.0075 	0 	0 	0
-0.0075 	-4.70093e-34 	1.9447e-36 	-6.75628e-33
-0.00745622 	-0.000617843 	2.55592e-06 	-0.00887978
-0.00745622 	-0.000617843 	2.55592e-06 	-0.00887978
-0.00741165 	-0.000928022 	7.68172e-06 	-0.0181851
-0.00741165 	-0.000928022 	7.68172e-06 	-0.0181851
-0.00736628 	-0.00105689 	1.60974e-05 	-0.0277651
-0.00736628 	-0.00105689 	1.60974e-05 	-0.0277651
-0.0073201 	-0.0011381 	2.664e-05 	-0.0374957
-0.0073201 	-0.0011381 	2.664e-05 	-0.0374957
-0.00727309 	-0.0011848 	3.91331e-05 	-0.0473001
-0.00727309 	-0.0011848 	3.91331e-05 	-0.0473001
-0.00722524 	-0.00118024 	5.33898e-05 	-0.0570992
-0.00722524 	-0.00118024 	5.33898e-05 	-0.0570992
-0.00717653 	-0.00112597 	6.91304e-05 	-0.0667981
-0.00717653 	-0.00112597 	6.91304e-05 	-0.0667981
-0.00712695 	-0.00102911 	8.6049e-05 	-0.0762973
-0.00712695 	-0.00102911 	8.6049e-05 	-0.0762973
-0.00707647 	-0.000898212 	0.000103926 	-0.0855036
-0.00707647 	-0.000898212 	0.000103926 	-0.0855036
-0.0070251 	-0.000742099 	0.000122556 	-0.094342
-0.0070251 	-0.000742099 	0.000122556 	-0.094342
-0.0069728 	-0.000569619 	0.000141824 	-0.102765
-0.0069728 	-0.000569619 	0.000141824 	-0.102765
-0.00691956 	-0.000388519 	0.000161756 	-0.110757
-0.00691956 	-0.000388519 	0.000161756 	-0.110757
-0.00686537 	-0.000204241 	0.000182215 	-0.118338
-0.00686537 	-0.000204241 	0.000182215 	-0.118338
-0.00681021 	-1.99e-05 	0.00020306 	-0.125547
-0.00681021 	-1.99e-05 	0.00020306 	-0.125547
-0.00675406 	0.000162881 	0.00022432 	-0.132415
-0.00675406 	0.000162881 	0.00022432 	-0.132415
-0.0066969 	0.000342841 	0.000245975 	-0.138965
-0.0066969 	0.000342841 	0.000245975 	-0.138965
-0.00663871 	0.000518678 	0.000267968 	-0.145214
-0.00663871 	0.000518678 	0.000267968 	-0.145214
-0.00657949 	0.000689355 	0.000290241 	-0.151178
-0.00657949 	0.000689355 	0.000290241 	-0.151178
-0.0065192 	0.000854167 	0.000312711 	-0.156873
-0.0065192 	0.000854167 	0.000312711 	-0.156873
-0.00645783 	0.00101262 	0.000335304 	-0.162313
-0.00645783 	0.00101262 	0.000335304 	-0.162313
-0.00639535 	0.00116432 	0.000357946 	-0.167512
-0.00639535 	0.00116432 	0.000357946 	-0.167512
-0.00633176 	0.00130891 	0.000380566 	-0.172483
-0.00633176 	0.00130891 	0.000380566 	-0.172483
-0.00626703 	0.00144602 	0.000403141 	-0.177235
-0.00626703 	0.00144602 	0.000403141 	-0.177235
-0.00620114 	0.00157523 	0.000425714 	-0.18178
-0.00620114 	0.00157523 	0.000425714 	-0.18178
-0.00613406 	0.00169608 	0.000448302 	-0.186126
-0.00613406 	0.00169608 	0.000448302 	-0.186126
-0.00606579 	0.00180809 	0.00047079 	-0.190284
-0.00606579 	0.00180809 	0.00047079 	-0.190284
-0.00599629 	0.00191058 	0.000492914 	-0.19426
-0.00599629 	0.00191058 	0.000492914 	-0.19426
-0.00592554 	0.00200228 	0.000514318 	-0.19806
-0.00592554 	0.00200228 	0.000514318 	-0.19806
-0.00585352 	0.00208133 	0.000534779 	-0.201686
-0.00585352 	0.00208133 	0.000534779 	-0.201686
-0.00578022 	0.00214564 	0.000554336 	-0.20514
-0.00578022 	0.00214564 	0.000554336 	-0.20514
-0.00570559 	0.00219349 	0.000574043 	-0.208426
-0.00570559 	0.00219349 	0.000574043 	-0.208426
-0.00562963 	0.00222453 	0.000595356 	-0.211552
-0.00562963 	0.00222453 	0.000595356 	-0.211552
-0.00555231 	0.00224066 	0.00061759 	-0.214529
-0.00555231 	0.00224066 	0.00061759 	-0.214529
-0.0054736 	0.00224568 	0.000638879 	-0.217375
-0.0054736 	0.00224568 	0.000638879 	-0.217375
-0.00539348 	0.00224365 	0.00065842 	-0.220106
-0.00539348 	0.00224365 	0.00065842 	-0.220106
-0.00531193 	0.00223747 	0.000676973 	-0.222738
-0.00531193 	0.00223747 	0.000676973 	-0.222738
-0.00522891 	0.00222845 	0.000695855 	-0.22528
-0.00522891 	0.00222845 	0.000695855 	-0.22528
-0.0051444 	0.00221714 	0.000715002 	-0.227738
-0.0051444 	0.00221714 	0.000715002 	-0.227738
-0.00505838 	0.00220386 	0.000733823 	-0.230119
-0.00505838 	0.00220386 	0.000733823 	-0.230119
-0.00497081 	0.00218866 	0.000752353 	-0.23243
-0.00497081 	0.00218866 	0.000752353 	-0.23243
-0.00488168 	0.00217135 	0.00077071 	-0.234673
-0.00488168 	0.00217135 	0.00077071 	-0.234673
-0.00479094 	0.00215169 	0.000788962 	-0.23685
-0.00479094 	0.00215169 	0.000788962 	-0.23685
-0.00469858 	0.00212958 	0.000807178 	-0.238957
-0.00469858 	0.00212958 	0.000807178 	-0.238957
-0.00460456 	0.00210508 	0.000825373 	-0.240998
-0.00460456 	0.00210508 	0.000825373 	-0.240998
-0.00450886 	0.00207825 	0.000843453 	-0.242983
-0.00450886 	0.00207825 	0.000843453 	-0.242983
-0.00441144 	0.00204872 	0.000861285 	-0.244933
-0.00441144 	0.00204872 	0.000861285 	-0.244933
-0.00431227 	0.00201535 	0.000878849 	-0.246871
-0.00431227 	0.00201535 	0.000878849 	-0.246871
-0.00421133 	0.00197627 	0.000896286 	-0.248813
-0.00421133 	0.00197627 	0.000896286 	-0.248813
-0.00410857 	0.00192969 	0.000913766 	-0.250763
-0.00410857 	0.00192969 	0.000913766 	-0.250763
-0.00400397 	0.00187484 	0.000931431 	-0.252706
-0.00400397 	0.00187484 	0.000931431 	-0.252706
-0.0038975 	0.00181215 	0.000949375 	-0.254621
-0.0038975 	0.00181215 	0.000949375 	-0.254621
-0.00378912 	0.00174264 	0.000967656 	-0.25649
-0.00378912 	0.00174264 	0.000967656 	-0.25649
-0.00367879 	0.00166708 	0.000986341 	-0.25831
-0.00367879 	0.00166708 	0.000986341 	-0.25831
-0.00356649 	0.00158541 	0.00100562 	-0.260085
-0.00356649 	0.00158541 	0.00100562 	-0.260085
-0.00345217 	0.00149652 	0.00102593 	-0.261823
-0.00345217 	0.00149652 	0.00102593 	-0.261823
-0.0033358 	0.00139909 	0.0010475 	-0.263517
-0.0033358 	0.00139909 	0.0010475 	-0.263517
-0.00321735 	0.00129224 	0.00106986 	-0.265152
-0.00321735 	0.00129224 	0.00106986 	-0.265152
-0.00309677 	0.00117566 	0.00109215 	-0.266713
-0.00309677 	0.00117566 	0.00109215 	-0.266713
-0.00297403 	0.00104974 	0.00111399 	-0.268188
-0.00297403 	0.00104974 	0.00111399 	-0.268188
-0.00284909 	0.000915587 	0.00113599 	-0.269571
-0.00284909 	0.000915587 	0.00113599 	-0.269571
-0.0027219 	0.00077443 	0.00115935 	-0.270858
-0.0027219 	0.00077443 	0.00115935 	-0.270858
-0.00259244 	0.000627211 	0.00118477 	-0.272053
-0.00259244 	0.000627211 	0.00118477 	-0.272053
-0.00246065 	0.00047446 	0.00121233 	-0.273164
-0.00246065 	0.00047446 	0.00121233 	-0.273164
-0.00232651 	0.000316445 	0.00124203 	-0.274202
-0.00232651 	0.000316445 	0.00124203 	-0.274202
-0.00218995 	0.000153397 	0.00127388 	-0.275178
-0.00218995 	0.000153397 	0.00127388 	-0.275178
-0.00205095 	-1.43379e-05 	0.00130831 	-0.276103
-0.00205095 	-1.43379e-05 	0.00130831 	-0.276103
-0.00190946 	-0.000186159 	0.00134665 	-0.276982
-0.00190946 	-0.000186159 	0.00134665 	-0.276982
-0.00176543 	-0.000360851 	0.00138932 	-0.277817
-0.00176543 	-0.000360851 	0.00138932 	-0.277817
-0.00161881 	-0.000536636 	0.00143448 	-0.278607
-0.00161881 	-0.000536636 	0.00143448 	-0.278607
-0.00146957 	-0.000711895 	0.00148094 	-0.279348
-0.00146957 	-0.000711895 	0.00148094 	-0.279348
-0.00131765 	-0.000885353 	0.00152975 	-0.280037
-0.00131765 	-0.000885353 	0.00152975 	-0.280037
-0.001163 	-0.00105579 	0.00158159 	-0.280673
-0.001163 	-0.00105579 	0.00158159 	-0.280673
-0.00100559 	-0.00122205 	0.00163563 	-0.281251
-0.00100559 	-0.00122205 	0.00163563 	-0.281251
-0.000845345 	-0.00138305 	0.00169236 	-0.281771
-0.000845345 	-0.00138305 	0.00169236 	-0.281771
-0.000682232 	-0.00153783 	0.00175023 	-0.282232
-0.000682232 	-0.00153783 	0.00175023 	-0.282232
-0.000516194 	-0.00168563 	0.00180776 	-0.282634
-0.000516194 	-0.00168563 	0.00180776 	-0.282634
-0.000347178 	-0.00182601 	0.00186522 	-0.282976
-0.000347178 	-0.00182601 	0.00186522 	-0.282976
-0.000175132 	-0.00195838 	0.00191833 	-0.283259
-0.000175132 	-0.00195838 	0.00191833 	-0.283259
0 	-0.00208265 	0.00196972 	-0.283487
0 	-0.00208265 	0.00196972 	-0.283487
0 	-0.00208265 	0.00196972 	-0.283487
0 	-0.00208265 	0.00196972 	-0.283487
0.000175132 	-0.00219863 	0.00202112 	-0.283663
0.000175132 	-0.00705903 	0.0150136 	-0.318574
0.000347178 	-0.0023056 	0.00206727 	-0.283783
0.000347178 	-0.00725248 	0.0151932 	-0.319209
0.000516194 	-0.00240505 	0.00210955 	-0.283847
0.000516194 	-0.00742043 	0.0153145 	-0.31963
0.000682232 	-0.00249938 	0.0021471 	-0.283856
0.000682232 	-0.00756521 	0.0153988 	-0.319821
0.000845345 	-0.00258978 	0.00217789 	-0.283811
0.000845345 	-0.00768778 	0.0154555 	-0.319784
0.00100559 	-0.0026767 	0.0022034 	-0.283712
0.00100559 	-0.00778472 	0.0154871 	-0.31955
0.001163 	-0.00275973 	0.00222445 	-0.283559
0.001163 	-0.00785036 	0.0155015 	-0.319141
0.00131765 	-0.0028375 	0.00223768 	-0.283348
0.00131765 	-0.00787761 	0.0154753 	-0.318568
0.00146957 	-0.00290785 	0.00224776 	-0.283077
0.00146957 	-0.00785867 	0.0154426 	-0.317833
0.00161881 	-0.00296551 	0.00227685 	-0.282735
0.00161881 	-0.0077682 	0.0155584 	-0.316906
0.00176543 	-0.00299647 	0.00231328 	-0.282297
0.00176543 	-0.00751985 	0.0157377 	-0.315633
0.00190946 	-0.00298032 	0.00229294 	-0.281692
0.00190946 	-0.00697823 	0.0155374 	-0.313572
0.00205095 	-0.00290176 	0.00218662 	-0.280814
0.00205095 	-0.00603679 	0.0147571 	-0.310015
0.00218995 	-0.00278789 	0.00208825 	-0.279689
0.00218995 	-0.00487998 	0.0140455 	-0.305169
0.00232651 	-0.00271484 	0.00210957 	-0.278577
0.00232651 	-0.00403275 	0.0141738 	-0.300855
0.00246065 	-0.00271155 	0.00219106 	-0.277663
0.00246065 	-0.00369531 	0.0147304 	-0.298327
0.00259244 	-0.00273644 	0.00221589 	-0.276878
0.00259244 	-0.00358636 	0.0149187 	-0.297064
0.0027219 	-0.00275559 	0.00217017 	-0.276105
0.0027219 	-0.0034765 	0.0146414 	-0.296165
0.00284909 	-0.00276426 	0.00209746 	-0.275288
0.00284909 	-0.00333159 	0.0141884 	-0.295213
0.00297403 	-0.00276831 	0.00203939 	-0.274415
0.00297403 	-0.00318587 	0.013846 	-0.294153
0.00309677 	-0.00277087 	0.00199756 	-0.273479
0.00309677 	-0.00305401 	0.0136266 	-0.293036
0.00321735 	-0.0027714 	0.00195351 	-0.272471
0.00321735 	-0.00292546 	0.0134007 	-0.291908
0.0033358 	-0.00276912 	0.00190418 	-0.271386
0.0033358 	-0.00278824 	0.0131456 	-0.290798
0.00345217 	-0.002764 	0.00185244 	-0.270221
0.00345217 	-0.00263692 	0.0128789 	-0.289707
0.00356649 	-0.00275642 	0.00179844 	-0.268977
0.00356649 	-0.00246996 	0.0126018 	-0.288634
0.00367879 	-0.00274684 	0.00174287 	-0.267654
0.00367879 	-0.00228713 	0.0123179 	-0.287577
0.00378912 	-0.00208835 	0.0120274 	-0.286539
0.00378912 	-0.00273595 	0.00168552 	-0.266254
0.0038975 	-0.0027246 	0.00162684 	-0.264784
0.0038975 	-0.00187387 	0.0117315 	-0.285522
0.00400397 	-0.00271298 	0.0015702 	-0.263214
0.00400397 	-0.0016445 	0.0114384 	-0.284518
0.00410857 	-0.00269925 	0.00151561 	-0.261459
0.00410857 	-0.00140163 	0.0111542 	-0.28352
0.00421133 	-0.00267966 	0.00145486 	-0.25946
0.00421133 	-0.00114752 	0.0108361 	-0.282527
0.00431227 	-0.00265444 	0.00139882 	-0.257305
0.00431227 	-0.000883568 	0.0105581 	-0.281541
0.00441144 	-0.00262728 	0.00136218 	-0.255169
0.00441144 	-0.00059272 	0.0104159 	-0.280543
0.00450886 	-0.00259633 	0.00131782 	-0.253131
0.00450886 	-0.000227776 	0.0102096 	-0.279425
0.00460456 	-0.00255641 	0.00124211 	-0.251127
0.00460456 	0.000249516 	0.00977547 	-0.277967
0.00469858 	-0.0025092 	0.00115027 	-0.249074
0.00469858 	0.000810773 	0.00922737 	-0.27603
0.00479094 	-0.00246726 	0.00108468 	-0.246953
0.00479094 	0.00134501 	0.00885985 	-0.273841
0.00488168 	-0.00244169 	0.00106383 	-0.244798
0.00488168 	0.00175598 	0.00879895 	-0.271803
0.00497081 	-0.00242741 	0.00104907 	-0.24262
0.00497081 	0.00206518 	0.00877816 	-0.270014
0.00505838 	-0.00241184 	0.00100323 	-0.240389
0.00505838 	0.00235073 	0.00853977 	-0.268286
0.0051444 	-0.00238974 	0.000936804 	-0.23808
0.0051444 	0.00264425 	0.00815503 	-0.266487
0.00522891 	-0.00236265 	0.00088064 	-0.235684
0.00522891 	0.00293141 	0.00783662 	-0.264602
0.00531193 	0.00320146 	0.00759421 	-0.262622
0.00531193 	-0.00233145 	0.000836327 	-0.233192
0.00539348 	-0.0022947 	0.000793346 	-0.230594
0.00539348 	0.00345975 	0.00735556 	-0.260529
0.0054736 	-0.00225027 	0.000751876 	-0.22788
0.0054736 	0.00371804 	0.00712239 	-0.258298
0.00555231 	-0.00219572 	0.000711101 	-0.225034
0.00555231 	0.00399144 	0.00688889 	-0.255903
0.00562963 	-0.00212878 	0.00066979 	-0.222043
0.00562963 	0.00429528 	0.00664608 	-0.253302
0.00570559 	-0.00204784 	0.000627746 	-0.218888
0.00570559 	0.00464063 	0.00639194 	-0.250448
0.00578022 	-0.0019522 	0.000586044 	-0.215552
0.00578022 	0.00503205 	0.00613405 	-0.247309
0.00585352 	-0.00184163 	0.000546329 	-0.212022
0.00585352 	0.00546916 	0.00588345 	-0.243866
0.00592554 	-0.00171605 	0.000508629 	-0.208281
0.00592554 	0.00594917 	0.00563863 	-0.240109
0.00599629 	-0.00157568 	0.000472773 	-0.204314
0.00599629 	0.0064674 	0.00539718 	-0.236036
0.00606579 	0.00701808 	0.00515853 	-0.231649
0.00606579 	-0.00142099 	0.00043862 	-0.200101
0.00613406 	-0.00125267 	0.00040549 	-0.195623
0.00613406 	0.00759559 	0.00491944 	-0.226949
0.00620114 	-0.00107167 	0.000373058 	-0.190862
0.00620114 	0.00819452 	0.00467791 	-0.221935
0.00626703 	-0.000879177 	0.000341485 	-0.185803
0.00626703 	0.00880895 	0.00443371 	-0.216595
0.00633176 	-0.000676771 	0.000311055 	-0.180432
0.00633176 	0.00943157 	0.00418795 	-0.210916
0.00639535 	-0.000466488 	0.00028198 	-0.174734
0.00639535 	0.0100533 	0.00394182 	-0.204878
0.00645783 	-0.000250805 	0.000254358 	-0.16869
0.00645783 	0.0106633 	0.00369563 	-0.198455
0.0065192 	-3.27104e-05 	0.000228142 	-0.162281
0.0065192 	0.0112486 	0.00344942 	-0.191618
0.00657949 	0.000184494 	0.000203208 	-0.155486
0.00657949 	0.0117933 	0.00320336 	-0.184341
0.00663871 	0.000397239 	0.000179843 	-0.148286
0.00663871 	0.0122789 	0.00295888 	-0.176593
0.0066969 	0.000601154 	0.000158487 	-0.140662
0.0066969 	0.0126852 	0.00271719 	-0.168343
0.00675406 	0.000790781 	0.000138866 	-0.132595
0.00675406 	0.0129906 	0.0024762 	-0.15956
0.00681021 	0.000959542 	0.000120247 	-0.124068
0.00681021 	0.0131696 	0.0022335 	-0.150168
0.00686537 	0.00109969 	0.000102415 	-0.115066
0.00686537 	0.0131888 	0.00199059 	-0.140072
0.00691956 	0.00120301 	8.59863e-05 	-0.105614
0.00691956 	0.0130091 	0.00175323 	-0.129246
0.0069728 	0.00126268 	7.13292e-05 	-0.0957965
0.0069728 	0.0125969 	0.00152583 	-0.117772
0.0070251 	0.00127499 	5.82166e-05 	-0.0857483
0.0070251 	0.0119361 	0.00130974 	-0.105818
0.00707647 	0.00124009 	4.66182e-05 	-0.0756439
0.00707647 	0.0110328 	0.00110728 	-0.093644
0.00712695 	0.00116225 	3.66356e-05 	-0.06567
0.00712695 	0.00991688 	0.000921143 	-0.081544
0.00717653 	0.00104957 	2.82e-05 	-0.0559884
0.00717653 	0.0086395 	0.00075236 	-0.0697755
0.00722524 	0.000913482 	2.11188e-05 	-0.0467082
0.00722524 	0.00726566 	0.000598673 	-0.0584976
0.00727309 	0.000769416 	1.52745e-05 	-0.0378795
0.00727309 	0.00587111 	0.000461515 	-0.0477564
0.0073201 	0.000640242 	1.06703e-05 	-0.0295065
0.0073201 	0.00455144 	0.000350541 	-0.0375078
0.00736628 	0.000564384 	6.53062e-06 	-0.0215681
0.00736628 	0.00345003 	0.000211088 	-0.0276452
0.00741165 	0.000519048 	3.63672e-06 	-0.0140267
0.00741165 	0.00255814 	0.0001334 	-0.0180627
0.00745622 	0.000360622 	1.64167e-06 	-0.00684588
0.00745622 	0.00150964 	6.4726e-05 	-0.00878793
0.0075 	0 	0 	0
0.0075 	0 	0 	0
