-0.0075 	373
-0.00715932 	351.882
-0.00676191 	348.079
-0.00629832 	346.679
-0.00575752 	345.885
-0.00512667 	345.303
-0.00439077 	344.826
-0.00353231 	344.417
-0.00253089 	344.05
-0.00136271 	343.706
0 	343.37
0.00136271 	343.046
0.00253089 	342.741
0.00353231 	342.449
0.00439077 	342.144
0.00512667 	341.792
0.00575752 	341.33
0.00629832 	340.601
0.00676191 	338.892
0.00715932 	330.523
0.0075 	313
