/*--------------------------------*- C++ -*----------------------------------*\
| =========                 |                                                 |
| \\      /  F ield         | OpenFOAM: The Open Source CFD Toolbox           |
|  \\    /   O peration     | Version:  v1912                                 |
|   \\  /    A nd           | Website:  www.openfoam.com                      |
|    \\/     M anipulation  |                                                 |
\*---------------------------------------------------------------------------*/
FoamFile
{
    version     2.0;
    format      ascii;
    class       volScalarField;
    location    "11.2";
    object      omega;
}
// * * * * * * * * * * * * * * * * * * * * * * * * * * * * * * * * * * * * * //

dimensions      [0 0 -1 0 0 0 0];


internalField   nonuniform List<scalar> 
34128
(
156509
156509
156509
156509
156509
156509
156508
156508
156509
156509
156509
156508
25865.7
25866.8
25868.7
25869.2
25868.2
25867.3
25867.4
25866.4
25868.9
25873.5
25869.9
25863.7
8910.89
8912.04
8913.7
8914.17
8913.35
8912.21
8911.88
8910.87
8913.18
8917.51
8914.48
8909.03
4283.26
4284.59
4286.05
4286.52
4285.84
4284.26
4283.49
4282.39
4284.56
4288.91
4286.34
4281.42
2497.69
2499.21
2500.51
2500.98
2500.54
2498.52
2497.22
2495.84
2497.91
2502.61
2500.36
2495.6
1655.73
1657.38
1658.48
1658.89
1658.86
1656.62
1654.75
1652.89
1654.76
1659.91
1657.99
1653.23
1205.22
1206.84
1207.66
1207.97
1208.51
1206.35
1203.94
1201.44
1202.94
1208.53
1206.98
1202.21
942.283
943.7
944.154
944.309
945.579
943.808
940.932
937.704
938.687
944.582
943.49
938.739
778.3
779.355
779.443
779.43
781.429
780.313
777.096
773.116
773.439
779.515
778.926
774.212
670.219
670.77
670.433
670.255
673.027
672.722
669.311
664.643
664.234
670.359
670.285
665.622
595.31
595.25
594.462
594.152
597.675
598.229
594.776
589.556
588.404
594.453
594.874
590.273
540.841
540.1
538.859
538.469
542.675
544.049
540.698
535.112
533.251
539.104
539.983
535.458
499.338
497.883
496.206
495.793
500.583
502.686
499.564
493.823
491.315
496.852
498.145
493.728
466.245
464.072
461.994
461.609
466.859
469.58
466.796
461.119
458.036
463.13
464.798
460.543
438.69
435.82
433.389
433.068
438.642
441.868
439.513
434.11
430.532
435.046
437.053
433.036
414.807
411.275
408.534
408.312
414.06
417.696
415.846
410.913
406.916
410.711
413.023
409.336
393.235
389.197
386.175
386.092
391.856
395.739
394.542
390.251
385.917
388.855
391.433
388.179
373.102
368.707
365.448
365.52
371.108
375.174
374.742
371.237
366.649
368.608
371.403
368.689
353.81
349.153
345.741
345.97
351.202
355.406
355.722
353.243
348.483
349.365
352.32
350.248
334.942
330.109
326.644
326.992
331.764
336.035
337.089
335.826
330.963
330.698
333.658
332.323
316.185
311.377
307.963
308.282
312.509
316.781
318.534
318.459
313.758
312.218
315.148
314.639
297.342
292.758
289.523
289.784
293.26
297.474
299.916
300.926
296.635
293.73
296.57
296.989
278.302
274.142
271.205
271.37
273.929
278.034
281.118
283.115
279.279
275.128
277.88
279.275
259.027
255.477
252.956
252.982
254.496
258.45
262.1
264.981
261.659
256.467
259.034
261.427
239.535
236.764
234.762
234.604
234.991
238.764
242.875
246.479
243.773
237.726
240.04
243.434
219.883
218.038
216.642
216.26
215.477
219.054
223.501
227.626
225.61
218.923
220.951
225.326
200.16
199.356
198.638
197.995
196.037
199.419
204.06
208.479
207.203
200.108
201.843
207.165
180.483
180.792
180.804
179.868
176.761
179.967
184.645
189.121
188.608
181.34
182.805
189.034
161.035
162.44
163.191
161.935
157.763
160.826
165.347
169.643
169.891
162.682
163.928
171.025
142.43
144.512
145.885
144.309
139.493
142.504
146.403
150.158
151.141
144.265
145.408
153.266
125.402
127.652
129.393
127.621
122.535
125.498
128.689
131.286
132.753
126.812
128.07
136.321
109.82
112.015
114.005
112.094
106.891
109.792
112.405
113.791
115.571
110.712
112.066
120.509
95.5929
97.6189
99.7362
97.7207
92.552
95.3722
97.4477
97.8143
99.8046
95.9574
97.3073
105.815
82.6582
84.4538
86.715
84.6244
79.517
82.221
83.8178
83.3683
85.4754
82.579
83.8119
92.2272
70.9647
72.5127
74.9544
72.8325
67.8093
70.3374
71.5458
70.4416
72.5779
70.5542
71.6389
79.7615
60.4658
61.805
64.4014
62.2944
57.5036
59.8193
60.6827
59.0137
61.1021
59.856
60.849
68.437
51.1381
52.3949
55.0115
52.9649
48.5143
50.6156
51.169
49.0527
51.0306
50.4515
51.3857
58.2666
42.9535
44.2531
46.7431
44.7988
40.7597
42.6499
42.9403
40.512
42.333
42.296
43.1859
49.2674
35.8677
37.2411
39.5439
37.7379
34.1425
35.826
35.9122
33.3012
34.9349
35.2947
36.1672
41.4508
29.7454
31.1245
33.2377
31.5951
28.4301
29.9087
29.8478
27.1817
28.6153
29.2446
30.1022
34.716
24.4895
25.7956
27.7013
26.2434
23.5105
24.7844
24.6303
22.0413
23.2681
24.0663
24.8749
28.8829
20.1152
21.3011
22.9715
21.7101
19.4091
20.4859
20.2894
17.875
18.8972
19.7663
20.5142
23.8981
16.5205
17.5609
18.9987
17.9307
16.0281
16.9206
16.72
14.5487
15.3779
16.2429
16.9211
19.7469
13.6052
14.4859
15.703
14.8162
13.2685
13.9944
13.8148
11.9277
12.5818
13.3906
13.9923
16.3255
11.2638
11.9834
13.0018
12.277
11.0361
11.6174
11.4703
9.88461
10.3852
11.1063
11.6261
13.5302
9.40134
9.95847
10.8126
10.2268
9.24464
9.70635
9.59271
8.30345
8.67405
9.29324
9.72802
11.262
7.93321
8.32929
9.05676
8.58586
7.81737
8.18522
8.10234
7.08298
7.34777
7.86433
8.21441
9.43651
6.7827
7.05205
7.66141
7.2826
6.68778
6.98532
6.92912
6.13747
6.32066
6.7434
7.01623
7.98064
5.88506
6.06008
6.56127
6.25459
5.79899
6.04551
6.02083
5.4127
5.52302
5.86552
6.07454
6.82833
5.18674
5.29266
5.69926
5.44832
5.10304
5.31295
5.31639
4.85168
4.90187
5.17681
5.33837
5.92126
4.6443
4.70032
5.02682
4.81868
4.56011
4.74336
4.76738
4.41381
4.41324
4.6355
4.76472
5.20964
4.22325
4.2443
4.50373
4.32844
4.13745
4.30085
4.33887
4.0664
4.02684
4.21088
4.31687
4.65232
3.89661
3.89534
4.09749
3.9474
3.8084
3.95681
4.00538
3.78905
3.72294
3.87704
3.96645
4.21621
3.64315
3.6319
3.7824
3.65149
3.55205
3.68913
3.74112
3.56805
3.48603
3.61201
3.69228
3.87504
3.44621
3.43279
3.53845
3.4219
3.35271
3.48159
3.5289
3.39181
3.30101
3.4017
3.4786
3.60799
3.29306
3.28251
3.34996
3.24417
3.19786
3.32122
3.36097
3.25087
3.15513
3.2364
3.31225
3.39868
3.17423
3.16985
3.20479
3.10724
3.07709
3.19653
3.2294
3.13709
3.03947
3.10716
3.18218
3.23743
3.08161
3.08149
3.09272
3.00227
2.98325
3.09975
3.12643
3.04394
2.94748
3.00612
3.08248
3.11511
3.00822
3.01147
3.00585
2.92198
2.91118
3.02612
3.04553
2.96654
2.87456
2.92684
3.0096
3.02073
2.9493
2.95577
2.9389
2.86045
2.85623
2.97129
2.9814
2.90147
2.81572
2.86425
2.95459
2.94864
2.90124
2.91085
2.88744
2.81316
2.81443
2.93039
2.9291
2.84685
2.767
2.81439
2.9133
2.89482
2.86102
2.87363
2.8473
2.77677
2.78248
2.89925
2.88497
2.80027
2.72641
2.77481
2.88256
2.85527
2.8263
2.84153
2.81506
2.74858
2.75788
2.87446
2.84663
2.76091
2.69333
2.74363
2.85959
2.82688
2.7955
2.81264
2.78815
2.72642
2.73868
2.85365
2.81285
2.72696
2.66614
2.71892
2.84193
2.8071
2.76765
2.78574
2.76482
2.70868
2.72353
2.83529
2.78304
2.69723
2.64367
2.69697
2.82756
2.79395
2.74228
2.76031
2.74398
2.69419
2.71139
2.81849
2.75696
2.67145
2.62504
2.67803
2.81494
2.78583
2.71926
2.7363
2.72508
2.68215
2.70147
2.80283
2.73452
2.64934
2.60973
2.66183
2.80279
2.78142
2.69868
2.71384
2.70783
2.67216
2.6932
2.78815
2.71533
2.63067
2.59737
2.64801
2.79015
2.77958
2.68064
2.69313
2.69225
2.66403
2.68623
2.77444
2.69899
2.61523
2.58758
2.63627
2.77643
2.77934
2.66525
2.6745
2.67854
2.65776
2.6803
2.76168
2.68534
2.60279
2.58002
2.62641
2.76311
2.7799
2.65263
2.65826
2.66697
2.65341
2.67528
2.75002
2.67432
2.59315
2.57434
2.61824
2.75031
2.78072
2.64283
2.64465
2.65792
2.6511
2.67109
2.73948
2.66584
2.5861
2.57026
2.61159
2.73786
2.78234
2.63588
2.63391
2.65172
2.65104
2.66768
2.73021
2.65977
2.58144
2.56752
2.60631
2.72597
2.78208
2.6318
2.6262
2.64821
2.65334
2.66504
2.72226
2.65598
2.57901
2.56593
2.60233
2.71482
2.77922
2.63034
2.6216
2.64684
2.65816
2.66317
2.71573
2.65431
2.57866
2.56538
2.59957
2.70451
2.77325
2.63061
2.62008
2.64768
2.66444
2.66212
2.71064
2.65456
2.58031
2.56585
2.598
2.6952
2.7661
2.63344
2.62151
2.65084
2.671
2.66192
2.70699
2.65658
2.58395
2.56746
2.59763
2.68712
2.75993
2.6392
2.62584
2.65621
2.67843
2.66262
2.70473
2.66021
2.58966
2.57045
2.59856
2.68048
2.75499
2.64748
2.63299
2.66357
2.68688
2.66434
2.70376
2.66527
2.59761
2.57522
2.60099
2.67557
2.75165
156509
156509
156509
156509
156509
156509
156509
156509
156509
156509
156509
156509
25848.9
25849.8
25850.3
25850.5
25851.4
25853.8
25852.2
25848.3
25850.3
25857.2
25854.6
25845.9
8677.47
8678.2
8666.94
8660.68
8681.9
8726.8
8708.34
8671.93
8663.5
8686.09
8694.5
8665.4
4207.8
4208.95
4205.78
4204
4211.07
4224.89
4217.86
4204.65
4203.09
4214.06
4215.44
4202.25
2469.24
2470.48
2469.56
2469.09
2472.34
2476.93
2472.93
2466.23
2466.4
2474.18
2473.77
2465.25
1645.46
1646.6
1646.33
1646.32
1648.58
1649.83
1646.7
1642.08
1642.52
1649.3
1648.52
1641.65
1203.14
1203.99
1203.77
1203.9
1206.2
1206.3
1203.4
1199.32
1199.42
1205.85
1205.21
1199.02
944.112
944.502
944.062
944.185
946.957
946.954
944.083
939.969
939.422
945.623
945.391
939.516
782.107
781.847
781.005
781.103
784.57
784.999
782.217
777.926
776.588
782.512
782.777
777.048
674.981
673.991
672.689
672.759
676.933
677.996
675.399
670.983
668.824
674.362
675.141
669.539
600.406
598.661
596.887
596.957
601.767
603.497
601.199
596.811
593.878
598.911
600.173
594.71
545.863
543.389
541.167
541.278
546.601
548.931
547.042
542.876
539.261
543.676
545.365
540.075
504.005
500.872
498.249
498.439
504.129
506.941
505.551
501.81
497.629
501.316
503.369
498.301
470.345
466.661
463.699
463.997
469.89
473.057
472.237
469.107
464.485
467.342
469.69
464.912
442.044
437.947
434.724
435.14
441.065
444.467
444.272
441.911
436.977
438.909
441.481
437.072
417.232
412.896
409.498
410.023
415.804
419.34
419.809
418.342
413.227
414.152
416.875
412.92
394.756
390.268
386.793
387.398
392.856
396.535
397.601
397.11
391.957
391.816
394.607
391.193
373.743
369.206
365.757
366.404
371.412
375.213
376.78
377.297
372.267
371.028
373.801
371.015
353.57
349.151
345.795
346.438
350.874
354.748
356.887
358.237
353.504
351.172
353.839
351.767
333.794
329.692
326.486
327.078
330.864
334.702
337.44
339.41
335.185
331.808
334.417
333.127
314.158
310.597
307.55
308.045
311.097
314.828
318.119
320.7
316.968
312.712
315.193
314.827
294.515
291.586
288.821
289.182
291.354
294.989
298.734
301.862
298.594
293.731
295.957
296.586
274.811
272.585
270.234
270.434
271.59
275.129
279.21
282.725
280.099
274.669
276.628
278.302
255.067
253.585
251.821
251.798
251.819
255.267
259.55
263.19
261.34
255.495
257.201
259.948
235.359
234.625
233.435
233.151
232.103
235.47
239.816
243.309
242.252
236.243
237.729
241.554
215.799
215.783
215.134
214.566
212.545
215.846
220.12
223.197
222.91
216.994
218.311
223.188
196.509
197.162
197.01
196.146
193.27
196.522
200.603
203.022
203.44
197.866
199.081
204.951
177.595
178.875
179.174
178.017
174.418
177.634
181.434
183
184.025
179.003
180.191
186.962
159.184
161.028
161.75
160.314
156.124
159.314
162.783
163.381
164.881
160.574
161.805
169.35
141.513
143.708
144.868
143.185
138.507
141.681
144.818
144.44
146.257
142.754
144.086
152.244
124.883
127.069
128.664
126.779
121.684
124.865
127.687
126.426
128.41
125.715
127.188
135.773
109.485
111.48
113.291
111.251
106.032
109.174
111.534
109.516
111.534
109.627
111.27
120.101
95.3675
97.0889
98.882
96.7369
91.6678
94.7425
96.5866
93.8531
95.795
94.6428
96.4737
105.394
82.5136
83.9252
85.5307
83.3298
78.6067
81.5641
82.9568
79.5536
81.3344
80.8765
82.93
91.758
70.8652
71.9832
73.3043
71.0953
66.8084
69.6175
70.6396
66.6964
68.2602
68.4087
70.6523
79.2553
60.3867
61.2445
62.2466
60.0749
56.2363
58.9084
59.6067
55.3192
56.6372
57.2809
59.6541
67.9182
51.0771
51.6479
52.3745
50.2821
46.8957
49.4203
49.8466
45.4178
46.4812
47.4976
49.9233
57.7519
42.8966
43.1525
43.6727
41.6968
38.7516
41.1051
41.3122
36.9278
37.7465
39.0099
41.4144
48.7299
35.7781
35.7252
36.0923
34.2626
31.7433
33.901
33.9419
29.7585
30.358
31.7554
34.063
40.7923
29.6584
29.3399
29.5891
27.9266
25.8173
27.7655
27.689
23.8292
24.2432
25.6796
27.819
33.879
24.4732
23.9557
24.1157
22.6324
20.9038
22.6389
22.4874
19.0295
19.2936
20.6912
22.6158
27.9487
20.138
19.4903
19.5858
18.2842
16.8963
18.4231
18.2318
15.2137
15.3617
16.6638
18.3491
22.947
16.568
15.8452
15.8952
14.7702
13.679
15.0092
14.8066
12.2327
12.2927
13.4632
14.9043
18.7935
13.6642
12.9162
12.9324
11.9734
11.1346
12.2845
12.0936
9.9425
9.93594
10.9565
12.1641
15.3971
11.3288
10.6012
10.586
9.77805
9.14948
10.1381
9.97679
8.21009
8.15108
9.01779
10.0146
12.6603
9.46872
8.80809
8.74839
8.07447
7.61815
8.46504
8.3469
6.91798
6.81432
7.53356
8.34918
10.4841
7.99926
7.44279
7.32133
6.76335
6.44633
7.17068
7.10355
5.96674
5.82122
6.40576
7.0712
8.77211
6.84761
6.38652
6.22128
5.76163
5.55345
6.17368
6.15796
5.27454
5.08011
5.55345
6.09643
7.43499
5.9504
5.56879
5.37927
5.00138
4.87373
5.40707
5.42672
4.74599
4.51256
4.90743
5.35457
6.39462
5.25445
4.93805
4.7379
4.42687
4.35674
4.81756
4.86402
4.32955
4.07402
4.40571
4.78999
5.58589
4.71633
4.45351
4.25053
3.99352
3.96397
4.36395
4.42475
3.99771
3.74411
4.01039
4.35464
4.95671
4.30159
4.08252
3.88055
3.66671
3.66556
4.01582
4.07305
3.73432
3.49602
3.70204
4.0119
4.46665
3.98351
3.79861
3.59999
3.42006
3.43756
3.74488
3.79171
3.52827
3.30659
3.46493
3.74036
4.08535
3.73825
3.57945
3.38741
3.23367
3.26063
3.5309
3.57033
3.36967
3.1614
3.28533
3.5275
3.78864
3.54535
3.41022
3.2251
3.09268
3.1229
3.36301
3.39911
3.24776
3.04991
3.15075
3.3628
3.55563
3.392
3.27825
3.09715
2.98505
3.01729
3.23286
3.26773
3.15192
2.964
3.04993
3.23695
3.37194
3.27111
3.17747
3.00068
2.90262
2.93745
3.13329
3.16642
3.07384
2.89669
2.97355
3.14173
3.22834
3.18097
3.10239
2.93027
2.8404
2.8776
3.05772
3.08676
3.00752
2.84307
2.91443
3.06993
3.11734
3.11146
3.04659
2.87922
2.79427
2.83286
3.00013
3.02202
2.94911
2.7998
2.86733
3.0157
3.03389
3.05565
3.00403
2.84178
2.76042
2.79921
2.95554
2.96742
2.89657
2.76412
2.8286
2.97537
2.97291
3.0083
2.96946
2.81352
2.73552
2.77344
2.92017
2.91994
2.849
2.73375
2.79573
2.94528
2.92787
2.96565
2.93875
2.79122
2.71686
2.75303
2.8913
2.8778
2.80665
2.70729
2.76707
2.92204
2.89489
2.92532
2.90906
2.77266
2.70234
2.73627
2.86681
2.83997
2.769
2.68318
2.7424
2.90322
2.87155
2.88617
2.8788
2.75634
2.69044
2.72206
2.84511
2.80594
2.73578
2.66152
2.72116
2.88718
2.85602
2.84826
2.84749
2.74138
2.6803
2.70973
2.82512
2.7756
2.70612
2.64249
2.70285
2.87274
2.84612
2.81205
2.81548
2.72728
2.67152
2.69895
2.80626
2.74898
2.68007
2.62622
2.6867
2.85902
2.84009
2.77797
2.78358
2.71393
2.66395
2.68947
2.78834
2.72606
2.65731
2.61266
2.67245
2.8455
2.83627
2.7467
2.75292
2.70042
2.65759
2.68109
2.7714
2.70628
2.63782
2.60154
2.65998
2.83192
2.83298
2.71888
2.72456
2.68757
2.65253
2.67374
2.75562
2.68928
2.62155
2.59261
2.64919
2.81793
2.82906
2.69503
2.69933
2.67588
2.64893
2.66734
2.74112
2.67509
2.60841
2.58562
2.63998
2.80207
2.82365
2.67517
2.67731
2.66575
2.64697
2.66185
2.72795
2.6637
2.59827
2.58035
2.63229
2.78495
2.81615
2.65904
2.65856
2.6576
2.6468
2.65724
2.71623
2.65508
2.591
2.57657
2.62605
2.76793
2.80528
2.64654
2.64345
2.65178
2.64856
2.65351
2.70612
2.64917
2.58643
2.57413
2.62123
2.75169
2.79395
2.6377
2.63223
2.64859
2.65237
2.65068
2.69774
2.64583
2.58443
2.57289
2.61775
2.7366
2.78323
2.63252
2.62501
2.64809
2.65823
2.64873
2.69119
2.64489
2.58483
2.5728
2.61559
2.72294
2.77315
2.63079
2.62175
2.65007
2.66609
2.64761
2.68646
2.64617
2.58754
2.57392
2.61471
2.71098
2.76373
2.632
2.6223
2.65424
2.67573
2.64732
2.68349
2.6494
2.5925
2.57638
2.61515
2.70096
2.7553
2.63566
2.62639
2.6602
2.68666
2.64789
2.6822
2.65425
2.59971
2.58047
2.61701
2.69313
2.74825
2.64135
2.63355
2.66755
2.69801
2.64935
2.68241
2.66039
2.60923
2.58659
2.62052
2.68774
2.74291
156509
156509
156509
156509
156509
156509
156509
156509
156509
156509
156509
156509
25880.4
25881.5
25883.1
25884.4
25882.9
25879.4
25879.7
25879.7
25883.1
25889
25885.3
25878.3
8924.3
8925.27
8926.55
8927.66
8926.7
8923.59
8923.5
8923.21
8925.85
8931.28
8928.29
8922.18
4296.35
4297.12
4298.02
4299.01
4298.73
4295.99
4295.41
4294.64
4296.55
4301.75
4299.5
4293.97
2511.21
2511.71
2512.22
2513.16
2513.69
2511.27
2510.22
2508.93
2510.09
2515.34
2513.74
2508.32
1669.82
1669.91
1669.97
1670.89
1672.33
1670.36
1668.92
1667.13
1667.47
1672.79
1671.82
1666.3
1219.59
1219.13
1218.69
1219.59
1222.01
1220.66
1218.98
1216.79
1216.21
1221.45
1221.12
1215.46
956.531
955.403
954.425
955.321
958.681
958.086
956.362
953.934
952.409
957.351
957.668
951.886
791.962
790.189
788.713
789.581
793.733
793.883
792.28
789.834
787.405
791.839
792.745
786.964
682.864
680.469
678.531
679.396
684.19
685.042
683.734
681.509
678.284
682.029
683.44
677.713
606.628
603.689
601.355
602.247
607.498
608.943
608.064
606.288
602.42
605.336
607.149
601.535
550.616
547.255
544.608
545.552
551.062
552.959
552.606
551.47
547.131
549.118
551.222
545.787
507.419
503.784
500.921
501.929
507.499
509.712
509.942
509.59
504.955
505.947
508.234
503.047
472.509
468.766
465.792
466.857
472.299
474.714
475.559
476.076
471.31
471.271
473.64
468.775
443.021
439.345
436.365
437.462
442.6
445.134
446.605
448.021
443.276
442.2
444.557
440.091
417.078
413.645
410.762
411.853
416.526
419.125
421.224
423.507
418.924
416.836
419.096
415.109
393.426
390.401
387.711
388.749
392.812
395.436
398.099
401.23
396.936
393.894
395.981
392.56
371.217
368.744
366.331
367.265
370.589
373.148
376.347
380.106
376.389
372.486
374.336
371.575
349.873
348.049
346.006
346.787
349.223
351.709
355.357
359.551
356.624
351.997
353.475
351.552
329.02
327.837
326.311
326.894
328.243
330.773
334.76
339.208
336.992
331.847
332.994
332.07
308.434
307.822
306.956
307.296
307.449
310.077
314.292
318.753
317.252
311.788
312.673
312.781
288.002
287.976
287.624
287.676
286.763
289.48
293.806
298.018
297.292
291.622
292.355
293.608
267.7
268.212
268.226
267.942
266.107
268.931
273.247
276.937
276.967
271.343
271.973
274.461
247.563
248.512
248.701
248.077
245.479
248.442
252.629
255.541
256.26
250.929
251.533
255.317
227.664
228.917
229.231
228.242
224.933
228.074
232.02
233.924
235.232
230.417
231.093
236.2
208.115
209.501
209.858
208.484
204.557
207.917
211.52
212.233
214
209.894
210.746
217.172
189.051
190.372
190.651
188.875
184.465
188.077
191.246
190.642
192.723
189.477
190.606
198.314
170.621
171.649
171.694
169.509
164.78
168.663
171.32
169.326
171.579
169.301
170.789
179.714
152.905
153.459
153.079
150.481
145.632
149.782
151.863
148.459
150.746
149.506
151.41
161.456
135.921
135.956
134.915
131.936
127.315
131.666
133.128
128.441
130.496
130.291
132.66
143.616
119.974
119.506
117.621
114.485
110.497
114.909
115.787
110.054
111.662
112.316
115.183
126.501
105.185
104.287
101.744
98.5552
95.1221
99.5614
100.091
93.5031
94.6207
95.9911
99.3025
110.665
91.5703
90.3207
87.3832
84.1911
81.1672
85.5845
85.9199
78.7825
79.418
81.3659
85.0281
96.208
79.1511
77.6091
74.5105
71.3613
68.6458
73.0103
73.1839
65.8426
66.0363
68.41
72.2683
83.1017
67.9728
66.1576
63.08
60.0238
57.6021
61.8582
61.8814
54.6159
54.432
57.0757
61.0043
71.3058
58.0436
55.9686
53.042
50.1304
48.0378
52.0846
52.0085
45.0181
44.5377
47.3029
51.1791
60.7866
49.3106
47.0681
44.3403
41.6227
39.8726
43.636
43.5073
36.9448
36.2523
39.003
42.727
51.5118
41.6953
39.4132
36.892
34.4054
32.9508
36.3795
36.2264
30.1776
29.3273
31.931
35.4987
43.4371
35.0284
32.7921
30.4671
28.2319
27.0449
30.1113
29.9595
24.5013
23.563
25.943
29.2907
36.434
29.1839
27.0792
24.9534
22.9922
22.0777
24.7707
24.6491
19.8519
18.9075
21.0355
24.0434
30.3349
24.1772
22.2908
20.3753
18.6973
18.0194
20.3446
20.2642
16.1374
15.2331
17.0798
19.7237
25.1101
19.9707
18.3322
16.6269
15.2252
14.7435
16.7216
16.6854
13.2065
12.3722
13.9336
16.2115
20.7457
16.4798
15.0951
13.5957
12.4516
12.1268
13.7882
13.7932
10.9163
10.1678
11.459
13.3865
17.1428
13.6198
12.4747
11.1713
10.2573
10.0541
11.4353
11.4743
9.13735
8.48014
9.52903
11.1339
14.1983
11.3066
10.3728
9.24893
8.53201
8.4227
9.56293
9.62608
7.75837
7.19007
8.03125
9.34944
11.812
9.45825
8.69968
7.73024
7.17552
7.14381
8.08222
8.15922
6.68731
6.20038
6.87008
7.94175
9.89238
7.99702
7.37706
6.52039
6.0943
6.14283
6.91691
6.99904
5.85166
5.43463
5.96646
6.83354
8.35814
6.85221
6.34116
5.57916
5.2537
5.35796
6.00287
6.08472
5.19698
4.83472
5.25719
5.96107
7.13959
5.962
5.53668
4.86753
4.61708
4.73743
5.28695
5.36716
4.6845
4.35782
4.69279
5.27342
6.17748
5.27389
4.91628
4.33387
4.13815
4.25644
4.72586
4.80522
4.2824
3.98246
4.23901
4.7329
5.42146
4.74388
4.44037
3.93158
3.7771
3.88657
4.28651
4.36749
3.96124
3.68579
3.88266
4.30879
4.82848
4.33749
4.07706
3.62697
3.50327
3.60243
3.94475
4.02157
3.70407
3.45326
3.60546
3.97243
4.36372
4.02752
3.80267
3.39803
3.29486
3.38376
3.67856
3.74407
3.50256
3.2735
3.39383
3.70579
4.00066
3.78939
3.59835
3.22924
3.13626
3.21611
3.47022
3.52507
3.34639
3.13548
3.23483
3.49849
3.71965
3.60842
3.4449
3.1065
3.01598
3.08862
3.3087
3.35543
3.22513
3.02977
3.11621
3.33996
3.50131
3.47701
3.33291
3.0202
2.9252
2.9922
3.18533
3.225
3.12976
2.94874
3.02601
3.2202
3.33119
3.38474
3.25345
2.95492
2.85682
2.91887
3.09194
3.12436
3.05305
2.88521
2.95598
3.13039
3.20103
3.31402
3.19803
2.90434
2.80512
2.86147
3.02124
3.04563
2.98957
2.83452
2.90051
3.06322
3.1035
3.25851
3.15857
2.86485
2.7657
2.81652
2.96713
2.98259
2.93543
2.79416
2.85574
3.01281
3.03191
3.21112
3.1278
2.83353
2.73533
2.78131
2.92474
2.9305
2.88796
2.76086
2.81906
2.97466
2.98051
3.16613
3.09966
2.80803
2.71176
2.75345
2.89032
2.88595
2.84552
2.73258
2.78864
2.94538
2.94552
3.11952
3.06969
2.78652
2.69343
2.73108
2.86109
2.84663
2.80722
2.70786
2.76309
2.92236
2.92271
3.06875
3.03524
2.76767
2.67883
2.71273
2.83509
2.81124
2.77291
2.68617
2.74095
2.90355
2.90746
3.01268
2.99555
2.75053
2.66672
2.69729
2.81105
2.77921
2.74269
2.66734
2.72191
2.88744
2.89603
2.95532
2.95155
2.73449
2.65667
2.68398
2.78833
2.75047
2.71625
2.65116
2.70572
2.87292
2.88646
2.90222
2.90508
2.71925
2.64844
2.67231
2.76674
2.72522
2.69193
2.63736
2.69197
2.85923
2.87727
2.85228
2.85816
2.70474
2.64189
2.66198
2.74647
2.70308
2.66955
2.62573
2.68027
2.84586
2.86752
2.80646
2.81296
2.69198
2.637
2.65283
2.72763
2.68364
2.64985
2.61605
2.67032
2.83268
2.85689
2.76585
2.77143
2.68039
2.63377
2.6448
2.7102
2.66693
2.63332
2.60814
2.66197
2.81993
2.84515
2.73131
2.73509
2.67006
2.63231
2.63789
2.69434
2.65302
2.6198
2.60185
2.65518
2.80719
2.83235
2.70282
2.70411
2.66125
2.63271
2.63205
2.68023
2.64194
2.60926
2.59703
2.64988
2.79396
2.81873
2.67984
2.67818
2.65432
2.63507
2.62728
2.668
2.6337
2.60168
2.59361
2.64606
2.77981
2.80459
2.66211
2.65744
2.64954
2.63943
2.6236
2.65786
2.62825
2.59704
2.59152
2.64368
2.76497
2.79007
2.64951
2.64205
2.64706
2.64575
2.62106
2.65
2.62524
2.59525
2.59077
2.64268
2.75028
2.77583
2.64177
2.63201
2.64695
2.65387
2.61952
2.64448
2.62472
2.59623
2.59139
2.64301
2.73656
2.76176
2.63844
2.62713
2.64905
2.66354
2.61802
2.64093
2.62721
2.59987
2.59349
2.64464
2.72444
2.7494
2.63883
2.62701
2.65317
2.6745
2.61749
2.63885
2.63211
2.60608
2.59726
2.64759
2.71442
2.73914
2.6422
2.63106
2.65889
2.68628
2.61805
2.6391
2.63889
2.61477
2.60299
2.65195
2.70688
2.73112
2.64773
2.63865
2.6658
2.69807
2.61958
2.6416
2.64723
2.62584
2.61107
2.658
2.7022
2.72544
156509
156509
156509
156509
156509
156509
156509
156509
156509
156509
156509
156509
25861.5
25862.4
25863.6
25865.5
25864.3
25859.6
25859.9
25860.7
25864
25870.4
25867
25859.6
8656.84
8656.7
8656.62
8658.4
8660.46
8659.33
8660.06
8661.27
8659.94
8665.39
8665.76
8656.54
4210.03
4210.18
4210.34
4211.78
4212.88
4210.6
4210.4
4210.37
4210.64
4215.87
4214.97
4208.12
2478.62
2478.58
2478.54
2479.83
2481.32
2479.12
2478.47
2477.86
2477.89
2482.93
2482.11
2475.79
1657.71
1657.29
1656.9
1658.12
1660.32
1658.59
1657.75
1656.86
1656.17
1660.9
1660.48
1654.15
1216.38
1215.47
1214.7
1215.87
1218.84
1217.75
1216.93
1216.05
1214.46
1218.69
1218.74
1212.26
957.254
955.781
954.628
955.763
959.411
959.022
958.444
957.805
955.417
958.851
959.349
952.735
794.294
792.495
791.036
792.152
796.298
796.561
796.383
796.231
793.174
795.64
796.493
789.824
685.746
683.695
682.019
683.14
687.565
688.36
688.695
689.223
685.696
687.083
688.168
681.543
609.458
607.279
605.495
606.642
611.123
612.3
613.209
614.542
610.769
611.033
612.219
605.738
553.043
550.885
549.111
550.297
554.625
556.037
557.529
559.718
555.925
555.08
556.243
550.003
509.241
507.259
505.61
506.832
510.822
512.352
514.398
517.417
513.811
511.922
512.956
507.047
473.622
471.96
470.542
471.782
475.278
476.842
479.385
483.141
479.905
477.077
477.895
472.411
443.387
442.163
441.067
442.293
445.168
446.718
449.676
454.019
451.315
447.684
448.223
443.268
416.709
416.01
415.306
416.478
418.631
420.146
423.412
428.151
426.114
421.844
422.071
417.764
392.376
392.242
391.974
393.05
394.404
395.881
399.397
404.226
402.979
398.254
398.167
394.652
369.576
369.994
370.176
371.113
371.618
373.091
376.843
381.552
380.982
375.994
375.635
373.078
347.763
348.669
349.278
350.033
349.672
351.202
355.069
359.463
359.447
354.416
353.988
352.45
326.584
327.926
328.843
329.383
328.198
329.886
333.669
337.482
338.158
333.244
332.751
332.362
305.828
307.524
308.583
308.84
306.994
308.805
312.412
315.38
316.752
312.158
311.65
312.611
285.394
287.381
288.449
288.387
285.855
287.842
291.183
293.066
295.009
290.959
290.562
292.976
265.278
267.318
268.317
267.893
264.745
266.965
269.964
270.561
272.909
269.58
269.457
273.382
245.528
247.355
248.137
247.312
243.704
246.207
248.808
247.975
250.531
248.07
248.379
253.823
226.032
227.561
227.96
226.717
222.824
225.648
227.821
225.485
228.034
226.542
227.431
234.341
206.88
208.039
207.899
206.238
202.241
205.405
207.15
203.315
205.643
205.167
206.759
215.019
188.168
188.914
188.109
186.045
182.115
185.618
186.962
181.714
183.624
184.15
186.532
195.968
169.998
170.317
168.77
166.339
162.62
166.438
167.433
160.937
162.268
163.727
166.933
177.322
152.479
152.382
150.077
147.331
143.927
148.017
148.734
141.226
141.875
144.134
148.143
159.224
135.729
135.24
132.221
129.227
126.197
130.495
131.014
122.784
122.721
125.599
130.322
141.818
119.873
119.016
115.375
112.211
109.578
114.01
114.396
105.747
105.005
108.308
113.6
125.236
105.042
103.851
99.6805
96.4254
94.2218
98.7054
98.9964
90.21
88.859
92.4003
98.0969
109.609
91.3404
89.8584
85.2462
81.9849
80.2411
84.6965
84.9167
76.233
74.3678
77.9778
83.9124
95.0695
78.8289
77.1125
72.1525
68.9675
67.6933
72.046
72.2212
63.8303
61.5676
65.102
71.1124
81.7213
67.5285
65.6421
60.444
57.4108
56.5832
60.7675
60.9197
52.9763
50.4454
53.789
59.7178
69.6314
57.4279
55.4368
50.1263
47.3033
46.8657
50.8244
50.9663
43.5951
40.93
43.9952
49.6977
58.824
48.4845
46.4422
41.1541
38.5817
38.4608
42.1461
42.2853
35.5802
32.9066
35.6398
40.987
49.2738
40.6356
38.5827
33.4586
31.1652
31.2908
34.6686
34.8091
28.8349
26.26
28.6447
33.5252
40.9255
33.8294
31.8041
26.9813
24.9807
25.2853
28.3333
28.475
23.2594
20.8644
22.9076
27.2484
33.7298
28.014
26.0521
21.6381
19.9272
20.3448
23.0514
23.1907
18.7244
16.5634
18.2849
22.0577
27.6326
23.1113
21.2442
17.3068
15.8687
16.3439
18.709
18.8425
15.0878
13.1914
14.6221
17.8295
22.546
19.0297
17.2878
13.8551
12.6633
13.1532
15.1888
15.314
12.2118
10.5881
11.7651
14.4359
18.3598
15.6738
14.0837
11.1499
10.1726
10.646
12.3744
12.4902
9.96704
8.60583
9.56788
11.7508
14.9604
12.9479
11.5297
9.06359
8.26731
8.70285
10.1543
10.2609
8.23615
7.11359
7.89803
9.65527
12.2366
10.7592
9.52467
7.48028
6.83293
7.21492
8.42428
8.52327
6.9155
6.00019
6.64073
8.03999
10.0825
9.02093
7.97185
6.30239
5.77538
6.0873
7.09053
7.18361
5.91627
5.17473
5.70049
6.80855
8.39907
7.65413
6.78246
5.45649
5.02494
5.24085
6.07151
6.15949
5.16438
4.56592
4.99446
5.87873
7.09699
6.58942
5.87838
4.83911
4.47931
4.61306
5.29946
5.38105
4.59991
4.11165
4.45303
5.17671
6.09823
5.76768
5.19494
4.37164
4.06624
4.15714
4.71397
4.78773
4.16775
3.77388
4.04198
4.6338
5.33798
5.14033
4.68177
4.00833
3.74743
3.81154
4.26026
4.32419
3.83165
3.51667
3.74308
4.2071
4.76157
4.65643
4.29584
3.72365
3.49774
3.54009
3.90442
3.95668
3.5748
3.32007
3.51919
3.87559
4.31515
4.27477
4.00016
3.50325
3.30239
3.32671
3.62877
3.67029
3.38241
3.17115
3.35216
3.62283
3.96278
3.97639
3.77347
3.3333
3.15129
3.1621
3.41862
3.45181
3.23966
3.05897
3.22641
3.43419
3.68719
3.75123
3.60569
3.20033
3.03536
3.03727
3.26087
3.28741
3.13401
2.97461
3.12817
3.29562
3.47465
3.58753
3.49057
3.0985
2.94659
2.94306
3.14366
3.16413
3.05534
2.91111
3.04821
3.19424
3.31358
3.47179
3.41619
3.02078
2.87833
2.8717
3.05656
3.07102
2.99563
2.8633
2.98295
3.11941
3.19384
3.39087
3.37084
2.96172
2.82527
2.81741
2.99093
2.99937
2.94869
2.82721
2.9293
3.06312
3.10629
3.33435
3.34353
2.91624
2.78337
2.77727
2.94004
2.94259
2.91
2.79847
2.88482
3.01956
3.04298
3.29261
3.32481
2.88017
2.74957
2.74693
2.89884
2.89592
2.87646
2.77318
2.84758
2.98473
2.99736
3.25759
3.3067
2.85037
2.72172
2.72296
2.86381
2.85609
2.8461
2.75083
2.81608
2.95609
2.96425
3.22332
3.2827
2.82458
2.69829
2.70311
2.83258
2.821
2.8178
2.731
2.78922
2.93208
2.93986
3.18619
3.24852
2.80131
2.67833
2.68599
2.80372
2.78937
2.79101
2.71383
2.76631
2.91176
2.92164
3.14481
3.20216
2.77964
2.6616
2.67077
2.7765
2.76053
2.76549
2.69898
2.74668
2.89442
2.90774
3.09946
3.14418
2.75911
2.64798
2.65683
2.75063
2.73417
2.74133
2.68592
2.7299
2.87945
2.89663
3.04667
3.07849
2.73956
2.63691
2.6439
2.7262
2.71024
2.71871
2.67427
2.71562
2.86621
2.88682
2.98459
3.01214
2.72102
2.62799
2.63199
2.70349
2.68882
2.69837
2.66387
2.70367
2.85417
2.8771
2.92339
2.94606
2.70368
2.62101
2.62123
2.68254
2.66992
2.68063
2.65511
2.69396
2.84285
2.86661
2.86619
2.88327
2.68799
2.61596
2.6118
2.6633
2.65339
2.66478
2.64764
2.68645
2.83194
2.85478
2.81494
2.82618
2.67429
2.61294
2.60381
2.64596
2.63919
2.65047
2.64098
2.68112
2.82122
2.84135
2.77101
2.77649
2.6627
2.61205
2.5973
2.63083
2.62744
2.63824
2.63531
2.67814
2.81047
2.82634
2.73521
2.73532
2.6533
2.61337
2.59175
2.61798
2.61821
2.62844
2.63071
2.67725
2.79961
2.8101
2.70702
2.70219
2.64617
2.61698
2.58761