/*--------------------------------*- C++ -*----------------------------------*\
| =========                 |                                                 |
| \\      /  F ield         | OpenFOAM: The Open Source CFD Toolbox           |
|  \\    /   O peration     | Version:  v1912                                 |
|   \\  /    A nd           | Website:  www.openfoam.com                      |
|    \\/     M anipulation  |                                                 |
\*---------------------------------------------------------------------------*/
FoamFile
{
    version     2.0;
    format      ascii;
    class       volScalarField;
    location    "11.2";
    object      T;
}
// * * * * * * * * * * * * * * * * * * * * * * * * * * * * * * * * * * * * * //

dimensions      [0 0 0 1 0 0 0];


internalField   nonuniform List<scalar> 
34128
(
371.856
371.852
371.843
371.84
371.844
371.848
371.847
371.852
371.84
371.819
371.836
371.866
369.556
369.542
369.515
369.507
369.52
369.535
369.534
369.545
369.508
369.442
369.494
369.588
367.224
367.201
367.156
367.139
367.164
367.2
367.198
367.212
367.145
367.029
367.119
367.279
364.868
364.833
364.772
364.742
364.784
364.857
364.854
364.862
364.759
364.587
364.716
364.946
362.501
362.453
362.378
362.33
362.391
362.52
362.516
362.513
362.365
362.131
362.302
362.602
360.145
360.081
359.995
359.925
360.008
360.21
360.207
360.184
359.987
359.69
359.901
360.267
357.832
357.75
357.655
357.56
357.664
357.952
357.953
357.904
357.657
357.301
357.548
357.968
355.6
355.499
355.398
355.278
355.401
355.774
355.784
355.709
355.417
355.013
355.287
355.741
353.492
353.372
353.269
353.128
353.262
353.709
353.733
353.638
353.314
352.877
353.163
353.627
351.55
351.413
351.312
351.156
351.293
351.789
351.83
351.727
351.391
350.941
351.221
351.67
349.808
349.659
349.562
349.403
349.533
350.043
350.105
350.008
349.682
349.239
349.495
349.907
348.288
348.134
348.046
347.894
348.009
348.498
348.579
348.501
348.206
347.79
348.006
348.366
346.997
346.847
346.769
346.634
346.728
347.166
347.262
347.213
346.965
346.589
346.758
347.059
345.933
345.793
345.728
345.617
345.688
346.054
346.158
346.14
345.947
345.62
345.74
345.986
345.085
344.962
344.911
344.829
344.876
345.162
345.264
345.273
345.135
344.86
344.939
345.135
344.435
344.333
344.296
344.241
344.268
344.476
344.567
344.596
344.507
344.283
344.33
344.486
343.957
343.876
343.853
343.822
343.832
343.972
344.047
344.088
344.036
343.858
343.885
344.008
343.62
343.561
343.549
343.536
343.534
343.619
343.677
343.722
343.694
343.557
343.572
343.67
343.393
343.353
343.351
343.348
343.339
343.386
343.426
343.469
343.456
343.354
343.363
343.437
343.247
343.223
343.227
343.228
343.217
343.239
343.265
343.302
343.297
343.225
343.23
343.283
343.157
343.146
343.153
343.154
343.144
343.153
343.168
343.197
343.195
343.148
343.149
343.184
343.105
343.103
343.11
343.109
343.103
343.105
343.113
343.133
343.132
343.104
343.104
343.122
343.075
343.078
343.085
343.082
343.079
343.08
343.084
343.095
343.095
343.08
343.079
343.086
343.059
343.064
343.07
343.066
343.065
343.067
343.068
343.073
343.073
343.066
343.065
343.066
343.049
343.055
343.06
343.056
343.056
343.057
343.059
343.061
343.06
343.057
343.057
343.055
343.042
343.048
343.053
343.05
343.049
343.05
343.052
343.052
343.051
343.049
343.05
343.049
343.037
343.042
343.046
343.044
343.042
343.042
343.045
343.046
343.044
343.042
343.044
343.044
343.031
343.036
343.04
343.038
343.034
343.034
343.038
343.04
343.038
343.035
343.037
343.039
343.026
343.03
343.034
343.033
343.028
343.027
343.032
343.034
343.031
343.028
343.03
343.033
343.021
343.024
343.028
343.027
343.021
343.021
343.025
343.027
343.025
343.023
343.024
343.028
343.016
343.019
343.023
343.021
343.015
343.016
343.019
343.02
343.019
343.018
343.018
343.022
343.012
343.014
343.017
343.016
343.011
343.012
343.014
343.014
343.014
343.013
343.013
343.017
343.009
343.01
343.013
343.011
343.007
343.009
343.01
343.009
343.009
343.009
343.01
343.013
343.006
343.007
343.009
343.007
343.004
343.006
343.007
343.005
343.006
343.006
343.006
343.01
343.004
343.004
343.006
343.005
343.003
343.004
343.004
343.003
343.003
343.004
343.004
343.007
343.002
343.002
343.003
343.003
343.001
343.002
343.002
343.001
343.001
343.002
343.002
343.005
343.001
343.001
343.002
343.001
343
343.001
343.001
343
343
343.001
343.001
343.003
343.001
343
343.001
343
343
343.001
343
342.999
343
343
343
343.002
343
343
343
343
343
343
343
342.999
342.999
343
343
343.001
343
342.999
343
342.999
342.999
343
342.999
342.999
342.999
343
343
343
342.999
342.999
342.999
342.999
342.999
342.999
342.999
342.999
342.999
342.999
342.999
343
342.999
342.999
342.999
342.999
342.999
342.999
342.999
342.999
342.999
342.999
342.999
343
342.999
342.999
342.999
342.999
342.999
342.999
342.999
342.999
342.999
342.999
342.999
342.999
342.999
342.999
342.999
342.999
342.999
342.999
342.999
342.999
342.999
342.999
342.999
342.999
342.999
342.999
342.999
342.999
342.999
342.999
342.999
342.999
342.999
342.999
342.999
342.999
342.999
342.999
342.999
342.999
342.999
342.999
342.999
342.999
343
343
342.999
342.999
342.999
342.999
342.999
342.999
342.999
342.999
342.999
343
343
343
342.999
342.999
342.999
342.999
342.999
342.999
343
342.999
342.999
343
343
343
343
342.999
343
342.999
342.999
343
343
343
342.999
343
343
343
343
342.999
343
343
343
343
343
343
343
343
343
343
343
343
343
343
343
343
343
343
343
343
343
343
343
343
343
343
343
343
343
343
343
343
343
343
343
343
343
343
343
343
343
343
343
343
343
343
343
343
343
343
343
343
343
343
343
343
343
343
343
343
343
343
343
343
343
343
343
343
343
343
343
343
343
343
343
343
343
343
343
343
343
343
343
343
343
343
343
343
343
343
343
343
343
343
343
343
343
343
343
343
343
343
343
343
343
343
343
343
343
343
343
343
343
343
343
343
343
343
343
343
343
343
343
343
343
343
343
343
343
343
343
343
343
343
343
343
343
343
343
343
343
343
343
343
343
343
343
343
343
343
343
343
343
343
343
343
343
343
343
343
343
343
343
343
343
343
343
343
343
343
343
343
343
343
343
343
343
343
343
343
343
343
343
343
343
343
343
343
343
343
343
343
343
343
343
343
343
343
343
343
343
343
343
343
343
343
343
343
343
343
343
343
343
343
343
343
343
343
343
343
343
343
343
343
343
343
343
343
343
343
343
343
343
343
343
343
343
343
343
343
343
343
343
343
343
343
343
343
343
343
343
343
343
343
343
343
343
343
343
343
343
343
343
343
343
343
343
343
343
343
343
343
343
343
343
343
343
343
343
343
343
343
343
343
343
343
343
343
343
343
343
343
343
343
343
343
343
343
343
343
343
343
343
343
343
343
343
343
343
343
343
343
343
343
343
343
343
343
343
343
343
343
343
343
343
343
343
343
343
343
343
343
343
343
343
343
343
343
343
343
343
343
343
343
343
343
343
343
343
343
343
343
343
343
343
343
343
343
343
343
371.832
371.827
371.819
371.815
371.82
371.83
371.829
371.83
371.816
371.791
371.809
371.842
369.483
369.469
369.445
369.43
369.447
369.481
369.478
369.48
369.436
369.36
369.415
369.514
367.102
367.078
367.038
367.01
367.042
367.11
367.106
367.105
367.025
366.893
366.987
367.155
364.7
364.664
364.609
364.563
364.611
364.731
364.726
364.715
364.594
364.401
364.535
364.774
362.292
362.24
362.174
362.104
362.171
362.359
362.356
362.328
362.161
361.904
362.078
362.385
359.902
359.832
359.755
359.659
359.744
360.013
360.015
359.966
359.752
359.432
359.643
360.008
357.561
357.471
357.386
357.263
357.363
357.716
357.729
357.659
357.402
357.026
357.266
357.675
355.306
355.196
355.106
354.959
355.068
355.496
355.525
355.44
355.153
354.732
354.989
355.422
353.179
353.05
352.959
352.794
352.904
353.385
353.436
353.348
353.047
352.6
352.856
353.292
351.219
351.076
350.987
350.814
350.917
351.419
351.494
351.417
351.125
350.671
350.91
351.326
349.46
349.311
349.226
349.058
349.146
349.634
349.731
349.678
349.416
348.976
349.182
349.562
347.927
347.781
347.704
347.551
347.619
348.06
348.175
348.153
347.937
347.528
347.693
348.03
346.632
346.497
346.431
346.302
346.348
346.719
346.842
346.854
346.693
346.325
346.448
346.741
345.576
345.458
345.404
345.306
345.328
345.619
345.74
345.781
345.673
345.355
345.441
345.694
344.749
344.651
344.61
344.543
344.544
344.755
344.865
344.927
344.865
344.597
344.655
344.872
344.127
344.052
344.023
343.982
343.968
344.108
344.2
344.273
344.244
344.026
344.065
344.25
343.682
343.628
343.609
343.588
343.564
343.649
343.721
343.794
343.786
343.614
343.642
343.795
343.379
343.343
343.331
343.322
343.295
343.341
343.393
343.459
343.463
343.334
343.354
343.475
343.184
343.162
343.154
343.15
343.127
343.148
343.183
343.237
343.244
343.154
343.168
343.257
343.067
343.055
343.048
343.045
343.029
343.038
343.06
343.098
343.106
343.049
343.056
343.116
343.003
342.996
342.989
342.986
342.978
342.982
342.994
343.017
343.023
342.992
342.996
343.031
342.974
342.967
342.96
342.958
342.957
342.959
342.964
342.975
342.98
342.966
342.968
342.984
342.964
342.957
342.949
342.948
342.953
342.954
342.956
342.957
342.96
342.957
342.959
342.964
342.965
342.956
342.948
342.951
342.957
342.957
342.957
342.954
342.955
342.957
342.959
342.959
342.971
342.961
342.953
342.959
342.964
342.963
342.963
342.958
342.958
342.961
342.964
342.962
342.978
342.968
342.961
342.968
342.972
342.969
342.969
342.965
342.964
342.967
342.97
342.969
342.984
342.975
342.97
342.977
342.978
342.976
342.976
342.972
342.971
342.973
342.976
342.976
342.989
342.981
342.978
342.984
342.984
342.982
342.981
342.978
342.977
342.979
342.981
342.982
342.993
342.986
342.984
342.989
342.987
342.987
342.985
342.982
342.982
342.985
342.985
342.987
342.995
342.99
342.989
342.992
342.99
342.991
342.989
342.985
342.986
342.989
342.988
342.991
342.997
342.993
342.992
342.993
342.992
342.994
342.991
342.987
342.989
342.992
342.991
342.994
342.998
342.995
342.994
342.995
342.994
342.996
342.993
342.989
342.991
342.994
342.993
342.996
342.999
342.996
342.995
342.995
342.995
342.997
342.995
342.991
342.993
342.996
342.995
342.998
342.999
342.997
342.996
342.996
342.996
342.998
342.996
342.993
342.994
342.996
342.996
342.999
342.999
342.998
342.997
342.996
342.996
342.998
342.997
342.994
342.996
342.997
342.997
342.999
343
342.998
342.997
342.997
342.997
342.998
342.998
342.996
342.997
342.998
342.997
342.999
343
342.998
342.998
342.997
342.997
342.998
342.998
342.997
342.997
342.998
342.998
342.999
343
342.999
342.998
342.998
342.998
342.998
342.998
342.998
342.998
342.998
342.998
342.999
342.999
342.999
342.998
342.998
342.998
342.999
342.999
342.998
342.999
342.999
342.998
342.999
342.999
342.999
342.999
342.998
342.998
342.999
342.999
342.999
342.999
342.999
342.999
342.999
342.999
342.999
342.999
342.999
342.999
342.999
342.999
342.999
342.999
342.999
342.999
342.999
342.999
342.999
342.999
342.999
342.999
342.999
342.999
342.999
342.999
342.999
342.999
342.999
342.999
342.999
342.999
342.999
342.999
342.999
342.999
342.999
342.999
342.999
342.999
342.999
342.999
342.999
342.999
342.999
342.999
342.999
342.999
342.999
342.999
342.999
342.999
342.999
342.999
342.999
342.999
342.999
342.999
342.999
342.999
342.999
343
342.999
342.999
342.999
342.999
342.999
342.999
342.999
342.999
342.999
342.999
343
343
342.999
342.999
342.999
342.999
342.999
342.999
342.999
342.999
342.999
342.999
343
343
343
342.999
342.999
342.999
342.999
342.999
342.999
342.999
342.999
342.999
343
343
343
342.999
342.999
342.999
342.999
342.999
343
343
342.999
342.999
343
343
343
343
342.999
342.999
342.999
343
343
343
342.999
342.999
343
343
343
343
342.999
342.999
342.999
343
343
343
343
343
343
343
343
343
342.999
343
343
343
343
343
343
343
343
343
343
343
343
343
343
343
343
343
343
343
343
343
343
343
343
343
343
343
343
343
343
343
343
343
343
343
343
343
343
343
343
343
343
343
343
343
343
343
343
343
343
343
343
343
343
343
343
343
343
343
343
343
343
343
343
343
343
343
343
343
343
343
343
343
343
343
343
343
343
343
343
343
343
343
343
343
343
343
343
343
343
343
343
343
343
343
343
343
343
343
343
343
343
343
343
343
343
343
343
343
343
343
343
343
343
343
343
343
343
343
343
343
343
343
343
343
343
343
343
343
343
343
343
343
343
343
343
343
343
343
343
343
343
343
343
343
343
343
343
343
343
343
343
343
343
343
343
343
343
343
343
343
343
343
343
343
343
343
343
343
343
343
343
343
343
343
343
343
343
343
343
343
343
343
343
343
343
343
343
343
343
343
343
343
343
343
343
343
343
343
343
343
343
343
343
343
343
343
343
343
343
343
343
343
343
343
343
343
343
343
343
343
343
343
343
343
343
343
343
343
343
343
343
343
343
343
343
343
343
343
343
343
343
343
343
343
343
343
343
343
343
343
343
343
343
343
343
343
343
343
343
343
343
343
343
343
343
343
343
343
343
343
343
343
343
343
343
343
343
343
343
343
343
343
343
343
343
343
343
343
343
343
343
343
343
343
343
343
343
343
343
343
343
343
343
343
343
343
343
343
343
343
343
343
343
343
343
343
343
343
343
343
343
343
343
343
343
343
343
343
343
343
343
343
343
343
343
371.79
371.784
371.775
371.769
371.777
371.794
371.792
371.79
371.773
371.746
371.765
371.8
369.356
369.339
369.314
369.293
369.317
369.373
369.368
369.36
369.309
369.225
369.282
369.387
366.891
366.861
366.82
366.781
366.822
366.928
366.921
366.903
366.814
366.669
366.766
366.941
364.403
364.359
364.304
364.243
364.3
364.471
364.465
364.432
364.3
364.093
364.229
364.473
361.911
361.85
361.782
361.695
361.77
362.017
362.016
361.965
361.791
361.519
361.691
361.997
359.441
359.362
359.285
359.17
359.257
359.586
359.596
359.527
359.315
358.982
359.183
359.541
357.031
356.933
356.849
356.708
356.802
357.205
357.233
357.154
356.914
356.53
356.748
357.14
354.724
354.61
354.522
354.361
354.453
354.911
354.963
354.885
354.635
354.214
354.433
354.839
352.57
352.443
352.355
352.184
352.266
352.748
352.826
352.763
352.524
352.086
352.288
352.689
350.614
350.48
350.396
350.228
350.291
350.761
350.865
350.829
350.622
350.185
350.357
350.738
348.893
348.759
348.682
348.53
348.569
348.994
349.118
349.116
348.956
348.537
348.671
349.023
347.429
347.302
347.238
347.112
347.123
347.479
347.613
347.646
347.539
347.152
347.246
347.569
346.226
346.113
346.063
345.969
345.952
346.228
346.36
346.424
346.367
346.02
346.08
346.374
345.272
345.179
345.143
345.082
345.041
345.237
345.357
345.441
345.426
345.123
345.158
345.423
344.547
344.475
344.454
344.42
344.363
344.488
344.589
344.682
344.696
344.439
344.457
344.691
344.019
343.969
343.96
343.945
343.88
343.952
344.031
344.12
344.15
343.941
343.947
344.146
343.652
343.622
343.622
343.616
343.553
343.589
343.645
343.723
343.758
343.597
343.594
343.754
343.407
343.394
343.399
343.396
343.343
343.357
343.394
343.455
343.488
343.372
343.363
343.482
343.253
343.25
343.258
343.254
343.215
343.22
343.241
343.282
343.311
343.234
343.222
343.301
343.16
343.163
343.172
343.167
343.142
343.144
343.154
343.178
343.2
343.153
343.141
343.187
343.107
343.112
343.121
343.117
343.104
343.104
343.107
343.119
343.134
343.107
343.098
343.12
343.079
343.083
343.091
343.089
343.084
343.082
343.083
343.088
343.097
343.082
343.077
343.084
343.065
343.068
343.075
343.075
343.073
343.07
343.07
343.073
343.077
343.067
343.067
343.066
343.057
343.059
343.066
343.067
343.065
343.062
343.062
343.066
343.066
343.058
343.061
343.057
343.052
343.054
343.06
343.061
343.058
343.055
343.057
343.061
343.059
343.052
343.056
343.052
343.047
343.051
343.055
343.055
343.051
343.05
343.051
343.056
343.053
343.047
343.051
343.048
343.042
343.046
343.05
343.048
343.043
343.044
343.045
343.049
343.046
343.043
343.045
343.044
343.037
343.041
343.044
343.04
343.035
343.039
343.039
343.04
343.039
343.037
343.039
343.039
343.032
343.036
343.037
343.032
343.028
343.033
343.033
343.032
343.032
343.031
343.032
343.034
343.027
343.029
343.029
343.024
343.021
343.027
343.027
343.024
343.024
343.025
343.026
343.029
343.022
343.023
343.022
343.018
343.015
343.021
343.021
343.018
343.018
343.019
343.02
343.024
343.017
343.018
343.016
343.012
343.011
343.015
343.016
343.013
343.013
343.013
343.014
343.019
343.013
343.013
343.011
343.008
343.007
343.011
343.012
343.009
343.009
343.009
343.01
343.014
343.01
343.009
343.007
343.005
343.005
343.007
343.008
343.006
343.006
343.006
343.007
343.011
343.007
343.006
343.004
343.003
343.003
343.004
343.005
343.004
343.003
343.003
343.004
343.008
343.005
343.004
343.002
343.002
343.001
343.002
343.003
343.003
343.002
343.002
343.002
343.005
343.003
343.002
343.001
343.001
343.001
343.001
343.002
343.002
343.001
343.001
343.001
343.003
343.002
343.001
343
343
343
343
343.001
343.001
343
343
343
343.002
343.001
343
343
343
343
342.999
343
343
343
343
343
343.001
343
343
342.999
342.999
342.999
342.999
342.999
343
343
342.999
343
343
342.999
342.999
342.999
342.999
342.999
342.999
342.999
343
343
342.999
342.999
343
342.999
342.999
342.999
342.999
342.999
342.999
342.999
343
343
342.999
342.999
342.999
342.999
342.999
342.999
342.999
342.999
342.999
342.999
343
343
342.999
342.999
342.999
342.999
342.999
342.999
342.999
342.999
342.999
342.999
343
343
342.999
342.999
342.999
342.999
342.999
342.999
342.999
342.999
342.999
342.999
343
343
343
342.999
342.999
342.999
342.999
342.999
342.999
342.999
342.999
342.999
343
343
343
342.999
342.999
342.999
342.999
342.999
343
342.999
342.999
342.999
343
343
343
342.999
342.999
342.999
342.999
342.999
343
343
342.999
342.999
343
343
343
342.999
342.999
342.999
342.999
343
343
343
342.999
342.999
343
343
343
343
342.999
342.999
342.999
343
343
343
342.999
342.999
343
343
343
343
342.999
342.999
342.999
343
343
343
343
343
343
343
343
343
342.999
342.999
342.999
343
343
343
343
343
343
343
343
343
343
342.999
343
343
343
343
343
343
343
343
343
343
343
343
343
343
343
343
343
343
343
343
343
343
343
343
343
343
343
343
343
343
343
343
343
343
343
343
343
343
343
343
343
343
343
343
343
343
343
343
343
343
343
343
343
343
343
343
343
343
343
343
343
343
343
343
343
343
343
343
343
343
343
343
343
343
343
343
343
343
343
343
343
343
343
343
343
343
343
343
343
343
343
343
343
343
343
343
343
343
343
343
343
343
343
343
343
343
343
343
343
343
343
343
343
343
343
343
343
343
343
343
343
343
343
343
343
343
343
343
343
343
343
343
343
343
343
343
343
343
343
343
343
343
343
343
343
343
343
343
343
343
343
343
343
343
343
343
343
343
343
343
343
343
343
343
343
343
343
343
343
343
343
343
343
343
343
343
343
343
343
343
343
343
343
343
343
343
343
343
343
343
343
343
343
343
343
343
343
343
343
343
343
343
343
343
343
343
343
343
343
343
343
343
343
343
343
343
343
343
343
343
343
343
343
343
343
343
343
343
343
343
343
343
343
343
343
343
343
343
343
343
343
343
343
343
343
343
343
343
343
343
343
343
343
343
343
343
343
343
343
343
343
343
343
343
343
343
343
343
343
343
343
343
343
343
343
343
343
343
343
343
343
343
343
343
343
343
343
343
343
343
343
343
343
343
343
343
343
343
343
343
343
343
343
343
343
343
343
343
343
343
343
343
343
343
343
343
343
343
343
343
343
343
343
371.759
371.754
371.746
371.737
371.745
371.77
371.768
371.763
371.744
371.714
371.734
371.769
369.266
369.249
369.227
369.197
369.222
369.3
369.296
369.279
369.221
369.13
369.189
369.294
366.741
366.711
366.675
366.622
366.662
366.804
366.8
366.768
366.67
366.515
366.613
366.786
364.197
364.152
364.102
364.022
364.077
364.292
364.292
364.244
364.105
363.886
364.02
364.258
361.655
361.593
361.53
361.42
361.486
361.779
361.79
361.726
361.552
361.271
361.435
361.73
359.144
359.062
358.99
358.851
358.922
359.288
359.317
359.244
359.045
358.707
358.891
359.231
356.702
356.602
356.522
356.36
356.427
356.849
356.901
356.83
356.624
356.242
356.431
356.8
354.373
354.259
354.175
353.999
354.052
354.502
354.583
354.527
354.334
353.921
354.1
354.486
352.205
352.082
351.998
351.821
351.853
352.297
352.405
352.378
352.217
351.791
351.947
352.338
350.243
350.119
350.041
349.876
349.879
350.285
350.414
350.423
350.31
349.887
350.012
350.401
348.524
348.406
348.338
348.197
348.168
348.512
348.652
348.698
348.638
348.233
348.325
348.707
347.068
346.967
346.911
346.801
346.741
347.009
347.149
347.225
347.216
346.841
346.904
347.274
345.881
345.802
345.761
345.683
345.598
345.789
345.917
346.013
346.043
345.708
345.748
346.099
344.951
344.898
344.872
344.819
344.719
344.843
344.952
345.053
345.11
344.823
344.845
345.167
344.254
344.227
344.211
344.177
344.075
344.147
344.233
344.327
344.395
344.163
344.171
344.451
343.753
343.749
343.741
343.716
343.624
343.663
343.724
343.801
343.87
343.695
343.693
343.921
343.413
343.423
343.42
343.399
343.326
343.346
343.386
343.44
343.502
343.382
343.373
343.544
343.193
343.211
343.21
343.191
343.14
343.152
343.175
343.207
343.257
343.184
343.172
343.289
343.062
343.079
343.078
343.062
343.033
343.041
343.052
343.066
343.103
343.065
343.055
343.126
342.991
343.003
343.001
342.99
342.977
342.982
342.987
342.99
343.013
342.998
342.993
343.03
342.959
342.963
342.96
342.955
342.953
342.955
342.957
342.955
342.967
342.963
342.964
342.979
342.949
342.947
342.943
342.943
342.945
342.945
342.946
342.945
342.949
342.949
342.953
342.956
342.952
342.946
342.94
342.944
342.947
342.945
342.947
342.948
342.946
342.947
342.953
342.95
342.96
342.952
342.946
342.95
342.953
342.951
342.952
342.954
342.951
342.952
342.957
342.951
342.969
342.961
342.954
342.958
342.96
342.96
342.96
342.961
342.958
342.96
342.963
342.957
342.978
342.97
342.963
342.966
342.967
342.969
342.968
342.967
342.966
342.969
342.969
342.964
342.985
342.978
342.971
342.972
342.974
342.977
342.975
342.972
342.972
342.975
342.974
342.971
342.99
342.984
342.977
342.978
342.98
342.984
342.981
342.976
342.977
342.98
342.979
342.978
342.994
342.989
342.981
342.982
342.985
342.988
342.985
342.98
342.98
342.984
342.983
342.984
342.997
342.992
342.985
342.985
342.988
342.991
342.989
342.983
342.984
342.986
342.986
342.989
342.999
342.994
342.988
342.988
342.991
342.993
342.991
342.987
342.987
342.988
342.989
342.992
343
342.995
342.99
342.991
342.993
342.994
342.993
342.99
342.989
342.99
342.991
342.995
343
342.996
342.992
342.993
342.995
342.995
342.995
342.992
342.992
342.992
342.993
342.996
343
342.997
342.994
342.994
342.996
342.996
342.996
342.994
342.994
342.994
342.994
342.997
343
342.998
342.995
342.996
342.997
342.996
342.996
342.996
342.995
342.995
342.995
342.998
343
342.998
342.996
342.997
342.997
342.997
342.997
342.997
342.997
342.996
342.996
342.998
342.999
342.998
342.997
342.997
342.998
342.997
342.998
342.998
342.997
342.997
342.997
342.998
342.999
342.999
342.998
342.998
342.998
342.998
342.998
342.998
342.998
342.998
342.998
342.998
342.999
342.999
342.998
342.998
342.998
342.998
342.998
342.998
342.999
342.998
342.998
342.998
342.999
342.999
342.999
342.999
342.998
342.998
342.998
342.999
342.999
342.999
342.998
342.998
342.999
342.999
342.999
342.999
342.998
342.998
342.998
342.999
342.999
342.999
342.999
342.999
342.999
342.999
342.999
342.999
342.999
342.998
342.998
342.999
342.999
342.999
342.999
342.999
342.999
342.999
342.999
342.999
342.999
342.998
342.999
342.999
342.999
342.999
342.999
342.999
342.999
342.999
342.999
342.999
342.999
342.999
342.999
342.999
342.999
342.999
342.999
342.999
342.999
342.999
342.999
342.999
342.999
342.999
342.999
342.999
342.999
342.999
342.999
342.999
342.999
342.999
342.999
342.999
342.999
342.999
342.999
342.999
343
342.999
342.999
342.999
342.999
342.999
342.999
342.999
342.999
342.999
342.999
342.999
343
343
342.999
342.999
342.999
342.999
342.999
342.999
342.999
342.999
342.999
342.999
343
343
342.999
342.999
342.999
342.999
342.999
343
342.999
342.999
342.999
343
343
343
342.999
342.999
342.999
342.999
343
343
343
342.999
342.999
343
343
343
343
342.999
342.999
342.999
343
343
343
342.999
342.999
343
343
343
343
342.999
342.999
342.999
343
343
343
343
343
343
343
343
343
343
342.999
342.999
343
343
343
343
343
343
343
343
343
343
343
343
343
343
343
343
343
343
343
343
343
343
343
343
343
343
343
343
343
343
343
343
343
343
343
343
343
343
343
343
343
343
343
343
343
343
343
343
343
343
343
343
343
343
343
343
343
343
343
343
343
343
343
343
343
343
343
343
343
343
343
343
343
343
343
343
343
343
343
343
343
343
343
343
343
343
343
343
343
343
343
343
343
343
343
343
343
343
343
343
343
343
343
343
343
343
343
343
343
343
343
343
343
343
343
343
343
343
343
343
343
343
343
343
343
343
343
343
343
343
343
343
343
343
343
343
343
343
343
343
343
343
343
343
343
343
343
343
343
343
343
343
343
343
343
343
343
343
343
343
343
343
343
343
343
343
343
343
343
343
343
343
343
343
343
343
343
343
343
343
343
343
343
343
343
343
343
343
343
343
343
343
343
343
343
343
343
343
343
343
343
343
343
343
343
343
343
343
343
343
343
343
343
343
343
343
343
343
343
343
343
343
343
343
343
343
343
343
343
343
343
343
343
343
343
343
343
343
343
343
343
343
343
343
343
343
343
343
343
343
343
343
343
343
343
343
343
343
343
343
343
343
343
343
343
343
343
343
343
343
343
343
343
343
343
343
343
343
343
343
343
343
343
343
343
343
343
343
343
343
343
343
343
343
343
343
343
343
343
343
343
343
343
343
343
343
343
343
343
343
343
343
343
343
343
343
343
343
343
343
343
343
371.709
371.702
371.694
371.682
371.691
371.724
371.722
371.714
371.694
371.663
371.683
371.717
369.115
369.094
369.07
369.032
369.06
369.159
369.157
369.132
369.072
368.977
369.036
369.139
366.49
366.452
366.412
366.347
366.39
366.563
366.563
366.52
366.422
366.264
366.36
366.529
363.846
363.791
363.734
363.64
363.695
363.944
363.952
363.894
363.764
363.543
363.67
363.9
361.206
361.133
361.062
360.939
360.999
361.319
361.342
361.275
361.124
360.845
360.994
361.277
358.605
358.514
358.433
358.285
358.341
358.716
358.762
358.697
358.542
358.213
358.37
358.697
356.089
355.984
355.896
355.733
355.772
356.178
356.25
356.2
356.061
355.695
355.846
356.207
353.712
353.599
353.508
353.342
353.355
353.759
353.858
353.834
353.731
353.343
353.474
353.862
351.53
351.418
351.329
351.174
351.152
351.522
351.643
351.652
351.6
351.204
351.307
351.716
349.594
349.49
349.41
349.278
349.217
349.529
349.662
349.704
349.706
349.319
349.391
349.813
347.939
347.851
347.784
347.681
347.584
347.825
347.958
348.026
348.078
347.713
347.755
348.182
346.578
346.514
346.462
346.388
346.263
346.434
346.555
346.636
346.725
346.397
346.413
346.829
345.503
345.466
345.429
345.377
345.239
345.349
345.452
345.53
345.64
345.361
345.357
345.743
344.687
344.675
344.652
344.616
344.48
344.546
344.625
344.688
344.803
344.582
344.562
344.9
344.096
344.104
344.091
344.063
343.944
343.984
344.037
344.077
344.184
344.025
343.994
344.269
343.688
343.706
343.701
343.678
343.586
343.61
343.642
343.657
343.748
343.646
343.61
343.817
343.421
343.441
343.441
343.422
343.359
343.376
343.392
343.386
343.456
343.4
343.367
343.508
343.256
343.271
343.274
343.262
343.224
343.236
343.241
343.224
343.272
343.247
343.221
343.309
343.161
343.167
343.174
343.168
343.148
343.155
343.155
343.136
343.164
343.156
343.139
343.189
343.11
343.108
343.117
343.117
343.107
343.109
343.107
343.095
343.107
343.104
343.096
343.12
343.084
343.078
343.088
343.092
343.086
343.084
343.083
343.079
343.081
343.078
343.074
343.084
343.071
343.066
343.075
343.08
343.074
343.071
343.07
343.073
343.071
343.066
343.064
343.066
343.064
343.061
343.07
343.073
343.067
343.065
343.064
343.071
343.069
343.063
343.06
343.057
343.059
343.06
343.067
343.067
343.062
343.061
343.06
343.068
343.067
343.061
343.057
343.053
343.054
343.059
343.064
343.062
343.057
343.058
343.056
343.063
343.063
343.058
343.055
343.051
343.049
343.056
343.06
343.055
343.052
343.054
343.052
343.057
343.057
343.053
343.051
343.049
343.043
343.052
343.053
343.048
343.046
343.048
343.047
343.05
343.049
343.046
343.046
343.046
343.038
343.046
343.046
343.04
343.039
343.04
343.041
343.043
343.04
343.038
343.04
343.042
343.032
343.039
343.038
343.033
343.032
343.033
343.035
343.036
343.032
343.03
343.034
343.037
343.027
343.032
343.03
343.026
343.025
343.025
343.029
343.029
343.024
343.022
343.027
343.031
343.022
343.026
343.023
343.02
343.018
343.019
343.022
343.022
343.018
343.016
343.021
343.025
343.017
343.02
343.017
343.014
343.013
343.014
343.017
343.017
343.013
343.011
343.015
343.019
343.013
343.014
343.013
343.01
343.009
343.009
343.012
343.012
343.009
343.008
343.011
343.014
343.009
343.01
343.009
343.007
343.006
343.006
343.009
343.008
343.006
343.005
343.007
343.01
343.006
343.007
343.006
343.004
343.003
343.004
343.006
343.005
343.004
343.003
343.005
343.006
343.004
343.004
343.004
343.003
343.002
343.002
343.003
343.003
343.002
343.002
343.003
343.004
343.002
343.003
343.002
343.001
343.001
343.001
343.002
343.001
343.001
343.001
343.001
343.002
343.001
343.001
343.001
343
343
343
343.001
343.001
343
343
343.001
343.001
343
343
343
343
343
342.999
343
343
343
343
343
343
343
343
343
342.999
342.999
342.999
342.999
343
343
343
343
343
342.999
342.999
342.999
342.999
342.999
342.999
342.999
342.999
343
343
342.999
342.999
342.999
342.999
342.999
342.999
342.999
342.999
342.999
342.999
343
342.999
342.999
342.999
342.999
342.999
342.999
342.999
342.999
342.999
342.999
342.999
343
342.999
342.999
342.999
342.999
342.999
342.999
342.999
342.999
342.999
342.999
342.999
343
342.999
342.999
342.999
342.999
342.999
342.999
342.999
342.999
342.999
342.999
342.999
343
342.999
342.999
342.999
342.999
342.999
342.999
342.999
342.999
342.999
342.999
342.999
343
343
342.999
342.999
342.999
342.999
342.999
342.999
342.999
342.999
342.999
342.999
343
343
342.999
342.999
342.999
342.999
342.999
342.999
342.999
342.999
342.999
342.999
343
343
342.999
342.999
342.999
342.999
342.999
342.999
342.999
342.999
342.999
343
343
343
342.999
342.999
342.999
342.999
343
343
343
342.999
342.999
343
343
343
343
342.999
342.999
342.999
343
343
343
343
343
343
343
343
343
343
342.999
342.999
343
343
343
343
343
343
343
343
343
343
343
343
343
343
343
343
343
343
343
343
343
343
343
343
343
343
343
343
343
343
343
343
343
343
343
343
343
343
343
343
343
343
343
343
343
343
343
343
343
343
343
343
343
343
343
343
343
343
343
343
343
343
343
343
343
343
343
343
343
343
343
343
343
343
343
343
343
343
343
343
343
343
343
343
343
343
343
343
343
343
343
343
343
343
343
343
343
343
343
343
343
343
343
343
343
343
343
343
343
343
343
343
343
343
343
343
343
343
343
343