/*--------------------------------*- C++ -*----------------------------------*\
| =========                 |                                                 |
| \\      /  F ield         | OpenFOAM: The Open Source CFD Toolbox           |
|  \\    /   O peration     | Version:  v1912                                 |
|   \\  /    A nd           | Website:  www.openfoam.com                      |
|    \\/     M anipulation  |                                                 |
\*---------------------------------------------------------------------------*/
FoamFile
{
    version     2.0;
    format      ascii;
    class       volVectorField;
    location    "11.2";
    object      U;
}
// * * * * * * * * * * * * * * * * * * * * * * * * * * * * * * * * * * * * * //

dimensions      [0 1 -1 0 0 0 0];


internalField   nonuniform List<vector> 
34128
(
(-1.38786e-05 3.17811e-07 -0.00451139)
(-1.22261e-05 3.28775e-07 -0.00456671)
(-1.12043e-05 3.45127e-07 -0.00460434)
(-1.74187e-05 3.14463e-07 -0.00463005)
(-1.50516e-05 2.85893e-07 -0.00460219)
(3.96854e-07 3.12051e-07 -0.00448898)
(6.3214e-06 3.53946e-07 -0.00444015)
(1.05965e-05 2.80452e-07 -0.00443624)
(5.62297e-06 3.17514e-07 -0.00450932)
(-4.06999e-06 3.26973e-07 -0.00462854)
(3.49285e-06 3.08631e-07 -0.00457309)
(-8.46038e-08 3.66484e-07 -0.00446532)
(-4.11335e-05 4.07158e-06 -0.0137157)
(-3.53302e-05 4.26738e-06 -0.0138777)
(-3.12292e-05 4.39367e-06 -0.0139855)
(-4.9433e-05 4.23015e-06 -0.0140603)
(-4.34796e-05 3.90676e-06 -0.013981)
(1.87615e-06 4.01387e-06 -0.013648)
(2.13461e-05 4.28717e-06 -0.0135021)
(3.28822e-05 3.98971e-06 -0.0134888)
(1.42981e-05 4.17602e-06 -0.0137008)
(-1.44938e-05 4.09323e-06 -0.0140504)
(7.8188e-06 4.05326e-06 -0.0138915)
(-2.13518e-06 4.65763e-06 -0.0135789)
(-6.74191e-05 1.15039e-05 -0.0231321)
(-5.70092e-05 1.20323e-05 -0.0233967)
(-4.94678e-05 1.24055e-05 -0.0235684)
(-7.96891e-05 1.19636e-05 -0.023689)
(-7.11245e-05 1.10916e-05 -0.0235658)
(3.61338e-06 1.15756e-05 -0.0230217)
(3.81497e-05 1.23171e-05 -0.0227769)
(5.64537e-05 1.16664e-05 -0.0227482)
(2.18288e-05 1.19865e-05 -0.0230896)
(-2.55995e-05 1.15189e-05 -0.0236642)
(1.14159e-05 1.14758e-05 -0.0234109)
(-4.22979e-06 1.31453e-05 -0.0229037)
(-9.18844e-05 2.2738e-05 -0.0327064)
(-7.67426e-05 2.37414e-05 -0.0330677)
(-6.60918e-05 2.44533e-05 -0.0332952)
(-0.000108711 2.36962e-05 -0.0334568)
(-9.84266e-05 2.20126e-05 -0.0333011)
(5.23603e-06 2.28925e-05 -0.0325597)
(5.60322e-05 2.43133e-05 -0.032213)
(8.12581e-05 2.33722e-05 -0.0321587)
(2.94115e-05 2.38389e-05 -0.0326161)
(-3.59024e-05 2.27187e-05 -0.0334096)
(1.58287e-05 2.27095e-05 -0.033074)
(-4.79097e-06 2.59224e-05 -0.0323839)
(-0.000113647 3.75398e-05 -0.0423816)
(-9.38662e-05 3.91062e-05 -0.0428323)
(-8.11211e-05 4.02634e-05 -0.0431058)
(-0.000136905 3.91215e-05 -0.0433021)
(-0.000125759 3.641e-05 -0.0431289)
(6.37647e-06 3.78997e-05 -0.0422099)
(7.42945e-05 4.02348e-05 -0.0417574)
(0.000107203 3.90437e-05 -0.0416635)
(3.81122e-05 3.95669e-05 -0.0422196)
(-4.41697e-05 3.7405e-05 -0.0432248)
(2.2282e-05 3.74924e-05 -0.0428212)
(-2.48663e-06 4.2728e-05 -0.0419619)
(-0.000131829 5.57237e-05 -0.0521005)
(-0.000107642 5.7901e-05 -0.0526311)
(-9.44641e-05 5.9594e-05 -0.0529397)
(-0.000164552 5.80235e-05 -0.0531627)
(-0.000153424 5.40904e-05 -0.0529903)
(6.66209e-06 5.63819e-05 -0.0519196)
(9.22199e-05 5.98695e-05 -0.0513575)
(0.000134121 5.85196e-05 -0.0512068)
(4.88471e-05 5.89783e-05 -0.0518401)
(-4.94106e-05 5.53559e-05 -0.0530481)
(3.16919e-05 5.56261e-05 -0.0525932)
(3.76097e-06 6.33344e-05 -0.0515798)
(-0.000145595 7.71003e-05 -0.0618079)
(-0.000117324 7.9898e-05 -0.0624065)
(-0.000105955 8.22154e-05 -0.0627384)
(-0.000191811 8.01684e-05 -0.0629792)
(-0.000181615 7.48373e-05 -0.0628279)
(5.73258e-06 7.81851e-05 -0.0616375)
(0.000109055 8.3078e-05 -0.0609626)
(0.000161727 8.16695e-05 -0.0607353)
(6.23534e-05 8.18982e-05 -0.0614215)
(-5.08583e-05 7.63443e-05 -0.0628218)
(4.46894e-05 7.69077e-05 -0.0623337)
(1.47625e-05 8.75263e-05 -0.0611814)
(-0.000154191 0.000101458 -0.0714532)
(-0.000122221 0.000104858 -0.0721055)
(-0.000115392 0.00010789 -0.0724483)
(-0.00021873 0.000105316 -0.0726976)
(-0.000210423 9.84093e-05 -0.072589)
(3.24005e-06 0.0001031 -0.0713154)
(0.000124005 0.000109667 -0.070526)
(0.000189602 0.000108322 -0.0702014)
(7.91817e-05 0.000108132 -0.070914)
(-4.79492e-05 0.00010015 -0.0724951)
(6.16505e-05 0.000101129 -0.0719925)
(3.10622e-05 0.000115066 -0.0707153)
(-0.000156998 0.000128563 -0.0809934)
(-0.000121749 0.00013253 -0.0816828)
(-0.000122572 0.000136372 -0.082024)
(-0.000245277 0.000133218 -0.082273)
(-0.000239855 0.000124544 -0.0822289)
(-1.1507e-06 0.00013088 -0.0809099)
(0.000136238 0.000139414 -0.0800065)
(0.00021719 0.000138277 -0.0795648)
(9.96993e-05 0.000137474 -0.0802772)
(-4.02961e-05 0.000126563 -0.0820276)
(8.27357e-05 0.000128074 -0.081528)
(5.29517e-05 0.000145704 -0.0801374)
(-0.000153554 0.000158176 -0.0903953)
(-0.000115474 0.000162675 -0.0911034)
(-0.00012732 0.000167435 -0.0914306)
(-0.000271371 0.000163642 -0.0916716)
(-0.000269856 0.000152978 -0.0917126)
(-7.76334e-06 0.00016125 -0.090385)
(0.000144898 0.000172064 -0.0893705)
(0.000243815 0.000171321 -0.0887948)
(0.000124101 0.000169732 -0.0894819)
(-2.76553e-05 0.000155396 -0.0913908)
(0.000107936 0.000157535 -0.0909097)
(8.04952e-05 0.000179194 -0.0894133)
(-0.000143573 0.00019006 -0.0996357)
(-0.000103133 0.000195073 -0.100343)
(-0.00012951 0.000200877 -0.100644)
(-0.000296903 0.000196385 -0.100872)
(-0.00030033 0.000183467 -0.101017)
(-1.69126e-05 0.000193927 -0.0997125)
(0.000149117 0.000207355 -0.0985926)
(0.000268688 0.00020723 -0.0978703)
(0.000152422 0.000204728 -0.09851)
(-9.89338e-06 0.000186489 -0.100568)
(0.000137116 0.000189328 -0.100118)
(0.000113564 0.000215318 -0.0985192)
(-0.000126958 0.000223992 -0.108701)
(-8.46493e-05 0.000229532 -0.109387)
(-0.000129082 0.00023653 -0.109651)
(-0.000321763 0.000231283 -0.109862)
(-0.000331157 0.000215794 -0.110127)
(-2.89073e-05 0.000228636 -0.108873)
(0.000148025 0.00024502 -0.107655)
(0.000290925 0.000245778 -0.106779)
(0.00018455 0.000242295 -0.107353)
(1.30397e-05 0.000219706 -0.109551)
(0.000170058 0.000223294 -0.109142)
(0.000151871 0.000253893 -0.107442)
(-0.000103792 0.00025977 -0.117586)
(-6.01389e-05 0.000265902 -0.118232)
(-0.000126056 0.000274275 -0.118446)
(-0.000345854 0.000268218 -0.118641)
(-0.000362214 0.000249782 -0.119041)
(-4.40531e-05 0.000265127 -0.117856)
(0.000140771 0.000284807 -0.11655)
(0.000309568 0.000286747 -0.115518)
(0.000220237 0.000282281 -0.116011)
(4.11304e-05 0.000254934 -0.118342)
(0.000206484 0.0002593 -0.11798)
(0.000195004 0.000294786 -0.116177)
(-7.43589e-05 0.000297214 -0.12629)
(-2.99296e-05 0.000304064 -0.126876)
(-0.000120547 0.000314031 -0.127031)
(-0.000369103 0.000307114 -0.127211)
(-0.000393364 0.000285291 -0.127757)
(-6.26495e-05 0.000303191 -0.126654)
(0.000126534 0.000326486 -0.125272)
(0.000323586 0.000329916 -0.124088)
(0.000259085 0.000324531 -0.124488)
(7.43004e-05 0.000292069 -0.126944)
(0.000246074 0.000297237 -0.126634)
(0.000242433 0.000337905 -0.124726)
(-3.9151e-05 0.000336158 -0.134812)
(5.41537e-06 0.000343923 -0.135319)
(-0.000112785 0.000355747 -0.135404)
(-0.000391462 0.000347915 -0.135575)
(-0.000424463 0.000322202 -0.136276)
(-8.49791e-05 0.000342651 -0.135264)
(0.000104553 0.000369844 -0.133816)
(0.000331906 0.000375063 -0.13249)
(0.000300536 0.000368878 -0.132787)
(0.00011239 0.000330994 -0.135358)
(0.000288453 0.000337004 -0.135106)
(0.000293509 0.000383184 -0.133092)
(1.11664e-06 0.00037645 -0.14315)
(4.50813e-05 0.000385409 -0.143561)
(-0.000103131 0.000399401 -0.143568)
(-0.000412927 0.000390587 -0.143735)
(-0.00045536 0.000360418 -0.144598)
(-0.000111297 0.000383371 -0.143681)
(7.41633e-05 0.000414697 -0.142181)
(0.000333445 0.000421959 -0.140724)
(0.000343865 0.000415135 -0.14091)
(0.000155144 0.00037159 -0.143582)
(0.000333202 0.000378504 -0.143393)
(0.000347468 0.000430576 -0.141277)
(4.54988e-05 0.000417941 -0.1513)
(8.79872e-05 0.000428457 -0.151601)
(-9.20913e-05 0.000444976 -0.151521)
(-0.000433545 0.000435086 -0.151688)
(-0.000485901 0.00039984 -0.152718)
(-0.00014181 0.000425239 -0.1519)
(3.48422e-05 0.000460881 -0.150362)
(0.000327156 0.00047036 -0.148792)
(0.000388175 0.000463085 -0.148858)
(0.000202196 0.000413722 -0.151614)
(0.00037985 0.000421638 -0.151494)
(0.000403428 0.000480036 -0.149279)
(9.28205e-05 0.000460468 -0.159255)
(0.000132784 0.000472993 -0.159431)
(-8.03274e-05 0.000492447 -0.159257)
(-0.000453424 0.000481347 -0.159431)
(-0.000515932 0.000440356 -0.160628)
(-0.000176654 0.000468154 -0.159912)
(-1.37379e-05 0.000508235 -0.158351)
(0.000312087 0.00051999 -0.156688)
(0.000432403 0.000512469 -0.156628)
(0.000253045 0.000457234 -0.159446)
(0.000427871 0.000466288 -0.159401)
(0.000460398 0.000531499 -0.157095)
(0.000141694 0.000503845 -0.167004)
(0.000177875 0.000518916 -0.167043)
(-6.86532e-05 0.000541759 -0.166769)
(-0.000472737 0.000529263 -0.166954)
(-0.000545306 0.000481819 -0.168317)
(-0.000215865 0.000512012 -0.167705)
(-7.16492e-05 0.000556584 -0.166137)
(0.000287449 0.000570524 -0.164406)
(0.000475333 0.000562974 -0.164212)
(0.000307047 0.000501935 -0.167067)
(0.000476686 0.00051231 -0.167102)
(0.000517289 0.000584872 -0.164717)
(0.000190558 0.000547853 -0.174528)
(0.000221461 0.000566083 -0.174424)
(-5.80155e-05 0.00059281 -0.174044)
(-0.000491722 0.000578678 -0.174244)
(-0.000573889 0.000524047 -0.175767)
(-0.000259357 0.00055669 -0.175262)
(-0.000138654 0.000605731 -0.173705)
(0.000252691 0.000621578 -0.171933)
(0.000515631 0.000614219 -0.171601)
(0.000363404 0.000547597 -0.174464)
(0.000525668 0.000559523 -0.174582)
(0.000572954 0.000640023 -0.17213)
(0.000237742 0.000592242 -0.181808)
(0.000261622 0.000614306 -0.181555)
(-4.94578e-05 0.000645447 -0.181069)
(-0.000510672 0.00062938 -0.181285)
(-0.000601566 0.000566812 -0.182958)
(-0.000306905 0.000602035 -0.182561)
(-0.000214165 0.000655445 -0.181035)
(0.000207577 0.0006727 -0.179253)
(0.000551887 0.000665753 -0.178781)
(0.000421172 0.000593937 -0.181618)
(0.000574148 0.000607708 -0.181823)
(0.000626223 0.000696783 -0.17932)
(0.00028155 0.00063673 -0.18882)
(0.000296421 0.000663349 -0.18842)
(-4.40652e-05 0.00069946 -0.187825)
(-0.000529925 0.000681098 -0.188058)
(-0.000628253 0.000609843 -0.189868)
(-0.000358133 0.000647861 -0.18958)
(-0.000297226 0.000705455 -0.188105)
(0.000152239 0.000723369 -0.186345)
(0.000582683 0.000717046 -0.185735)
(0.000479274 0.000640621 -0.188511)
(0.00062143 0.0006566 -0.188801)
(0.000675964 0.000754941 -0.186265)
(0.000320355 0.000681011 -0.195539)
(0.000324028 0.000712928 -0.194995)
(-4.28961e-05 0.000754576 -0.194295)
(-0.000549829 0.000733507 -0.194545)
(-0.000653897 0.000652829 -0.196475)
(-0.000412524 0.00069395 -0.196294)
(-0.000386528 0.000755462 -0.194891)
(8.7225e-05 0.000772996 -0.193185)
(0.000606663 0.000767491 -0.192442)
(0.00053653 0.000687254 -0.195123)
(0.00066681 0.000705895 -0.195495)
(0.000721134 0.000814251 -0.192946)
(0.000352703 0.000724765 -0.20194)
(0.00034285 0.00076272 -0.201262)
(-4.69043e-05 0.000810468 -0.200461)
(-0.000570713 0.000786229 -0.200727)
(-0.000678479 0.000695427 -0.202754)
(-0.000469433 0.000740059 -0.20268)
(-0.00048045 0.000805131 -0.201368)
(1.35019e-05 0.00082094 -0.199746)
(0.000622615 0.000816409 -0.19888)
(0.000591704 0.00073338 -0.201432)
(0.000709592 0.000755251 -0.201881)
(0.000760834 0.000874431 -0.19934)
(0.000377401 0.000767674 -0.207999)
(0.000351651 0.000812373 -0.207201)
(-5.68605e-05 0.000866755 -0.206308)
(-0.000592851 0.000838839 -0.206586)
(-0.000702012 0.000737268 -0.208687)
(-0.000528122 0.000785922 -0.208715)
(-0.000577135 0.000854099 -0.207511)
(-6.75629e-05 0.000866522 -0.206003)
(0.000629551 0.000863058 -0.205027)
(0.000643555 0.000778495 -0.207417)
(0.000749111 0.000804295 -0.207936)
(0.000794358 0.000935171 -0.205425)
(0.00039359 0.000809432 -0.213693)
(0.000349651 0.000861515 -0.212793)
(-7.32807e-05 0.000923012 -0.211819)
(-0.000616421 0.00089087 -0.212107)
(-0.000724538 0.000777969 -0.214253)
(-0.000587794 0.000831263 -0.214381)
(-0.000674587 0.000901991 -0.2133)
(-0.000154257 0.000909043 -0.211927)
(0.000626781 0.000906649 -0.210858)
(0.000690901 0.000822042 -0.21306)
(0.000784761 0.000852631 -0.213639)
(0.000821228 0.000996139 -0.211183)
(0.000400795 0.000849758 -0.219004)
(0.000336594 0.000909763 -0.218024)
(-9.63683e-05 0.000978776 -0.216983)
(-0.000641473 0.000941823 -0.217276)
(-0.00074612 0.00081714 -0.219439)
(-0.000647641 0.0008758 -0.219661)
(-0.000770778 0.000948423 -0.218714)
(-0.000244604 0.000947802 -0.217494)
(0.000613965 0.000946365 -0.216352)
(0.000732681 0.00086343 -0.218344)
(0.000816013 0.000899847 -0.218973)
(0.000841217 0.00105698 -0.216593)
(0.000398939 0.000888406 -0.223918)
(0.000312769 0.000956739 -0.222882)
(-0.000125978 0.00103355 -0.221788)
(-0.000667905 0.000991178 -0.222082)
(-0.000766839 0.000854399 -0.224233)
(-0.000706888 0.000919245 -0.224544)
(-0.000863763 0.000993009 -0.223738)
(-0.000336464 0.000982123 -0.222682)
(0.000591152 0.000981384 -0.221487)
(0.000768013 0.000902042 -0.223254)
(0.000842443 0.000945527 -0.223924)
(0.000854357 0.00111734 -0.221643)
(0.000388334 0.00092517 -0.228426)
(0.000278998 0.00100208 -0.227358)
(-0.000161605 0.00108684 -0.226229)
(-0.000695447 0.0010384 -0.226516)
(-0.000786777 0.00088938 -0.228628)
(-0.000764832 0.000961317 -0.229024)
(-0.000951774 0.00103537 -0.228362)
(-0.000427645 0.00101138 -0.227472)
(0.000558795 0.0010109 -0.226246)
(0.000796242 0.00093725 -0.227781)
(0.000863753 0.000989261 -0.228481)
(0.000860929 0.00117683 -0.226319)
(0.000369636 0.000959892 -0.232524)
(0.000236575 0.00104543 -0.231447)
(-0.000202397 0.00113811 -0.230301)
(-0.000723658 0.00108297 -0.230576)
(-0.000806014 0.000921744 -0.232622)
(-0.000820868 0.00100174 -0.233098)
(-0.00103331 0.00107515 -0.232579)
(-0.000516012 0.00103502 -0.23185)
(0.000517736 0.00103418 -0.230613)
(0.000816983 0.000968436 -0.231917)
(0.000879787 0.00103065 -0.23264)
(0.000861444 0.00123509 -0.230615)
(0.00034379 0.000992455 -0.236213)
(0.000187173 0.00108649 -0.23515)
(-0.000247198 0.00118688 -0.234004)
(-0.00075194 0.00112439 -0.234261)
(-0.000824606 0.000951194 -0.236219)
(-0.000874511 0.00104023 -0.236771)
(-0.00110718 0.00111198 -0.236389)
(-0.000599586 0.00105259 -0.235808)
(0.000469178 0.00105053 -0.234579)
(0.000830141 0.000995013 -0.235661)
(0.000890542 0.00106931 -0.2364)
(0.000856603 0.00129174 -0.234528)
(0.000311946 0.00102279 -0.2395)
(0.00013273 0.00112499 -0.238471)
(-0.000294607 0.00123264 -0.237341)
(-0.000779557 0.00116218 -0.237574)
(-0.000842576 0.000977488 -0.239425)
(-0.000925395 0.00107655 -0.240048)
(-0.00117256 0.00114555 -0.239796)
(-0.000676631 0.00106375 -0.239342)
(0.000414625 0.00105942 -0.238139)
(0.000835915 0.00101644 -0.239013)
(0.000896176 0.00110492 -0.239765)
(0.000847254 0.00134644 -0.238059)
(0.000275385 0.00105087 -0.242399)
(7.53154e-05 0.0011607 -0.241418)
(-0.00034306 0.00127498 -0.240319)
(-0.000805667 0.00119595 -0.240523)
(-0.000859893 0.00100045 -0.242252)
(-0.000973261 0.00111046 -0.242944)
(-0.00122897 0.00117557 -0.242808)
(-0.000745716 0.00106828 -0.242459)
(0.000355819 0.00106041 -0.241293)
(0.00083479 0.00103225 -0.241982)
(0.000897 0.00113717 -0.242745)
(0.000834344 0.00139883 -0.241213)
(0.00023543 0.00107668 -0.244926)
(1.69964e-05 0.00119345 -0.244006)
(-0.000390912 0.00131349 -0.242949)
(-0.000829363 0.00122537 -0.24312)
(-0.000876459 0.00101996 -0.244718)
(-0.00101793 0.00114174 -0.245473)
(-0.00127623 0.00120178 -0.245439)
(-0.000805742 0.00106612 -0.245168)
(0.000294651 0.00105326 -0.24405)
(0.000827507 0.00104208 -0.244579)
(0.000893468 0.00116581 -0.245353)
(0.000818858 0.0014486 -0.244002)
(0.000193385 0.00110025 -0.247103)
(-4.02751e-05 0.0012231 -0.24625)
(-0.000436526 0.00134785 -0.245245)
(-0.00084971 0.00125019 -0.24538)
(-0.000892092 0.001036 -0.246842)
(-0.00105927 0.00117022 -0.247656)
(-0.00131446 0.00122394 -0.247708)
(-0.000855956 0.00105734 -0.247486)
(0.00023308 0.00103788 -0.246422)
(0.000815013 0.00104566 -0.24682)
(0.000886151 0.00119065 -0.247608)
(0.000801776 0.00149546 -0.246441)
(0.000150471 0.0011216 -0.248954)
(-9.47613e-05 0.00124958 -0.248171)
(-0.000478353 0.0013778 -0.247226)
(-0.000865793 0.00127029 -0.247322)
(-0.000906518 0.00104862 -0.248649)
(-0.00109714 0.00119574 -0.249516)
(-0.00134396 0.00124188 -0.249637)
(-0.000895924 0.00104211 -0.249438)
(0.000173051 0.00101435 -0.248429)
(0.000798408 0.00104284 -0.248724)
(0.00087571 0.00121157 -0.249532)
(0.000784018 0.00153914 -0.248546)
(0.000107797 0.00114077 -0.250506)
(-0.000145007 0.00127285 -0.249793)
(-0.000515 0.00140318 -0.248911)
(-0.000876761 0.00128562 -0.248969)
(-0.00091937 0.00105793 -0.250163)
(-0.00113139 0.00121818 -0.251078)
(-0.00136517 0.00125546 -0.251251)
(-0.000925507 0.00102074 -0.251051)
(0.000116411 0.000982922 -0.250095)
(0.000778882 0.0010336 -0.250318)
(0.000862856 0.0012285 -0.25115)
(0.000766412 0.00157944 -0.250341)
(6.63372e-05 0.00115784 -0.251787)
(-0.00018988 0.00129293 -0.251142)
(-0.000545295 0.00142391 -0.250325)
(-0.000881876 0.00129626 -0.250345)
(-0.000930197 0.00106418 -0.251414)
(-0.00116176 0.00123753 -0.252369)
(-0.00137858 0.00126461 -0.252578)
(-0.000944818 0.000993624 -0.252355)
(6.48458e-05 0.000944022 -0.251449)
(0.000757647 0.00101809 -0.251626)
(0.000848314 0.00124148 -0.252489)
(0.000749652 0.00161619 -0.251848)
(2.68884e-05 0.00117289 -0.252828)
(-0.000228589 0.00130988 -0.252243)
(-0.000568331 0.00143997 -0.251491)
(-0.000880563 0.00130241 -0.251475)
(-0.00093849 0.00106768 -0.252429)
(-0.00118795 0.00125378 -0.253418)
(-0.00138471 0.00126938 -0.253645)
(-0.000954169 0.000961331 -0.253384)
(1.98386e-05 0.000898323 -0.252522)
(0.000735873 0.000996656 -0.252677)
(0.000832769 0.00125061 -0.253577)
(0.000734283 0.00164928 -0.253093)
(-9.983e-06 0.00118603 -0.253661)
(-0.000260772 0.0013238 -0.253128)
(-0.00058357 0.00145148 -0.252438)
(-0.000872482 0.00130439 -0.25239)
(-0.000943757 0.0010688 -0.253241)
(-0.00120967 0.00126705 -0.254255)
(-0.00138411 0.00126985 -0.254487)
(-0.000954131 0.000924503 -0.254176)
(-1.75185e-05 0.000846637 -0.253351)
(0.000714577 0.000969736 -0.253506)
(0.000816834 0.0012561 -0.254446)
(0.000720662 0.00167868 -0.254105)
(-4.38495e-05 0.00119733 -0.254316)
(-0.000286359 0.00133481 -0.253827)
(-0.000590748 0.00145861 -0.253195)
(-0.0008575 0.00130258 -0.253119)
(-0.000945525 0.00106796 -0.253881)
(-0.00122652 0.00127746 -0.25491)
(-0.00137726 0.00126614 -0.255135)
(-0.00094545 0.000883697 -0.254768)
(-4.65908e-05 0.000789731 -0.253974)
(0.000694568 0.000937809 -0.254145)
(0.000800994 0.00125821 -0.255127)
(0.000708948 0.00170447 -0.254913)
(-7.43925e-05 0.00120681 -0.25482)
(-0.000305485 0.00134299 -0.254366)
(-0.000589878 0.00146153 -0.253788)
(-0.000835708 0.00129739 -0.253689)
(-0.00094336 0.00106554 -0.254376)
(-0.00123811 0.00128511 -0.25541)
(-0.00136452 0.00125838 -0.25562)
(-0.000928904 0.000839469 -0.255197)
(-6.70923e-05 0.000728449 -0.254426)
(0.000676444 0.00090151 -0.254625)
(0.000785575 0.00125719 -0.25565)
(0.000699127 0.00172667 -0.255545)
(-0.000101443 0.00121448 -0.255199)
(-0.000318522 0.00134846 -0.254773)
(-0.000581289 0.00146049 -0.254243)
(-0.00080745 0.0012893 -0.254128)
(-0.000936941 0.00106194 -0.254752)
(-0.00124408 0.00129013 -0.255782)
(-0.00134619 0.00124675 -0.255968)
(-0.000905304 0.000792398 -0.255494)
(-7.90835e-05 0.000663692 -0.254741)
(0.000660541 0.000861476 -0.254974)
(0.000770741 0.00125333 -0.256042)
(0.000691016 0.00174536 -0.256028)
(-0.000124946 0.00122037 -0.255476)
(-0.000325998 0.00135133 -0.255071)
(-0.00056557 0.00145578 -0.254582)
(-0.000773286 0.00127877 -0.254458)
(-0.00092609 0.00105754 -0.255033)
(-0.00124417 0.00129273 -0.256048)
(-0.00132256 0.00123146 -0.256206)
(-0.000875463 0.000742996 -0.255688)
(-8.29715e-05 0.00059629 -0.254948)
(0.000646949 0.000818377 -0.255219)
(0.000756502 0.00124695 -0.256327)
(0.000684287 0.00176068 -0.256387)
(-0.000144941 0.00122449 -0.255671)
(-0.000328534 0.00135172 -0.255282)
(-0.000543505 0.00144769 -0.25483)
(-0.000733941 0.00126628 -0.254701)
(-0.000910782 0.00105268 -0.255238)
(-0.00123827 0.00129308 -0.256231)
(-0.00129388 0.00121276 -0.256357)
(-0.000840141 0.000691721 -0.255802)
(-7.94232e-05 0.000527019 -0.255072)
(0.00063554 0.000772879 -0.255382)
(0.000742731 0.00123838 -0.256528)
(0.000678511 0.00177283 -0.256647)
(-0.000161534 0.00122685 -0.255803)
(-0.000326776 0.00134973 -0.255424)
(-0.000515998 0.0014365 -0.255003)
(-0.000690236 0.00125224 -0.254877)
(-0.000891135 0.00104764 -0.255383)
(-0.0012264 0.00129138 -0.256347)
(-0.00126038 0.00119088 -0.256441)
(-0.000799974 0.000638961 -0.255857)
(-6.92426e-05 0.000456576 -0.255134)
(0.00062602 0.00072561 -0.255482)
(0.000729197 0.00122792 -0.256663)
(0.000673193 0.00178198 -0.256828)
(-0.00017488 0.00122748 -0.255884)
(-0.000321355 0.00134545 -0.255514)
(-0.00048399 0.00142249 -0.25512)
(-0.000643014 0.00123702 -0.255)
(-0.000867371 0.00104263 -0.255482)
(-0.00120871 0.00128778 -0.256413)
(-0.00122225 0.00116608 -0.256473)
(-0.000755416 0.000585028 -0.255866)
(-5.32267e-05 0.000385601 -0.25515)
(0.000617987 0.000677142 -0.255535)
(0.000715602 0.00121586 -0.256747)
(0.000667819 0.00178834 -0.256946)
(-0.000185157 0.0012264 -0.255926)
(-0.000312841 0.00133897 -0.255562)
(-0.00044838 0.0014059 -0.255192)
(-0.000593065 0.00122094 -0.255082)
(-0.000839766 0.0010378 -0.255546)
(-0.00118543 0.00128241 -0.25644)
(-0.00117961 0.00113856 -0.256465)
(-0.000706694 0.00053017 -0.255841)
(-3.20322e-05 0.00031458 -0.255131)
(0.000611003 0.000628017 -0.255554)
(0.000701608 0.00120245 -0.256792)
(0.000661895 0.00179209 -0.257017)
(-0.00019254 0.00122365 -0.255939)
(-0.000301702 0.00133035 -0.25558)
(-0.00040996 0.00138691 -0.255231)
(-0.00054107 0.00120422 -0.255132)
(-0.000808595 0.00103325 -0.255583)
(-0.0011568 0.00127538 -0.256438)
(-0.00113243 0.0011085 -0.256429)
(-0.000653812 0.000474359 -0.25579)
(-6.18422e-06 0.000243694 -0.255086)
(0.000604683 0.000578737 -0.255545)
(0.000686864 0.0011879 -0.256808)
(0.00065497 0.00179341 -0.257052)
(-0.000197183 0.00121925 -0.255927)
(-0.000288302 0.00131963 -0.255573)
(-0.000369379 0.00136569 -0.255243)
(-0.000487573 0.00118704 -0.255159)
(-0.000774079 0.00102899 -0.255599)
(-0.001123 0.00126673 -0.256414)
(-0.00108055 0.00107608 -0.256371)
(-0.00059667 0.000418189 -0.255717)
(2.36504e-05 0.00017356 -0.255021)
(0.000598716 0.000529585 -0.255516)
(0.000671048 0.00117243 -0.256802)
(0.000646647 0.00179245 -0.25706)
(-0.000199213 0.00121321 -0.255898)
(-0.000272907 0.00130682 -0.255548)
(-0.000327138 0.00134236 -0.255235)
(-0.00043298 0.00116948 -0.255167)
(-0.000736354 0.00102501 -0.255598)
(-0.00108409 0.00125647 -0.256373)
(-0.00102371 0.00104123 -0.256294)
(-0.000534889 0.00036176 -0.255625)
(5.68928e-05 0.000104952 -0.25494)
(0.000592602 0.000480788 -0.25547)
(0.000653966 0.0011562 -0.256778)
(0.000636574 0.00178933 -0.257047)
(-0.00019871 0.00120554 -0.255855)
(-0.000255704 0.00129194 -0.255509)
(-0.000283605 0.00131699 -0.255211)
(-0.000377579 0.00115161 -0.25516)
(-0.000695459 0.00102125 -0.255582)
(-0.00103998 0.00124459 -0.256319)
(-0.00096138 0.00100378 -0.256204)
(-0.000467512 0.000303986 -0.255516)
(9.35353e-05 3.70764e-05 -0.254847)
(0.000585413 0.000432962 -0.255411)
(0.000635519 0.00113926 -0.25674)
(0.000624426 0.00178415 -0.257019)
(-0.000195702 0.00119626 -0.2558)
(-0.000236818 0.00127497 -0.255457)
(-0.000239062 0.00128964 -0.255174)
(-0.000321579 0.00113342 -0.25514)
(-0.00065135 0.00101758 -0.255556)
(-0.000990408 0.00123098 -0.256253)
(-0.000893022 0.000964408 -0.256102)
(-0.000393896 0.000245017 -0.255391)
(0.000132892 -2.98836e-05 -0.254743)
(0.00057641 0.000386361 -0.255343)
(0.000615484 0.00112164 -0.256689)
(0.0006099 0.00177702 -0.256979)
(-0.000190135 0.00118538 -0.255735)
(-0.000216328 0.0012559 -0.255396)
(-0.000193756 0.0012603 -0.255127)
(-0.000265166 0.00111486 -0.25511)
(-0.000604007 0.00101379 -0.255519)
(-0.000935152 0.00121536 -0.256178)
(-0.00081727 0.0009223 -0.255989)
(-0.000314442 0.000185809 -0.255254)
(0.000173238 -9.43705e-05 -0.254635)
(0.000565538 0.00034062 -0.255265)
(0.000593361 0.00110324 -0.256627)
(0.000592719 0.00176801 -0.256929)
(-0.000181877 0.00117282 -0.255661)
(-0.000194271 0.00123465 -0.255327)
(-0.000147961 0.00122897 -0.25507)
(-0.000208563 0.00109585 -0.255072)
(-0.000553675 0.00100968 -0.255473)
(-0.00087406 0.0011975 -0.256094)
(-0.000732532 0.000876484 -0.255862)
(-0.000230423 0.000126693 -0.255111)
(0.000213073 -0.000155902 -0.254527)
(0.000552387 0.000296087 -0.255181)
(0.000568363 0.0010841 -0.256557)
(0.000572629 0.00175712 -0.256872)
(-0.000170764 0.00115848 -0.255579)
(-0.000170681 0.00121116 -0.255249)
(-0.000101985 0.00119568 -0.255005)
(-0.00015208 0.00107628 -0.255025)
(-0.000500462 0.00100497 -0.25542)
(-0.000806851 0.00117721 -0.256004)
(-0.000638979 0.000828016 -0.255727)
(-0.000143452 6.81233e-05 -0.254967)
(0.000251107 -0.000214081 -0.254422)
(0.000536146 0.000253428 -0.255092)
(0.000540079 0.00106421 -0.256479)
(0.000549381 0.00174435 -0.256808)
(-0.000156718 0.00114232 -0.25549)
(-0.000145662 0.00118548 -0.255165)
(-5.61816e-05 0.00116058 -0.254934)
(-9.62016e-05 0.00105602 -0.254973)
(-0.000443964 0.000999316 -0.255359)
(-0.00073226 0.00115397 -0.255906)
(-0.000537388 0.000777187 -0.255586)
(-5.52608e-05 1.06985e-05 -0.254826)
(0.000286205 -0.0002685 -0.254324)
(0.000516327 0.000212814 -0.255001)
(0.000508582 0.0010433 -0.256393)
(0.000522717 0.00172965 -0.256737)
(-0.000139474 0.00112426 -0.255394)
(-0.000119104 0.00115758 -0.255075)
(-1.07557e-05 0.00112375 -0.254858)
(-4.15959e-05 0.00103496 -0.254916)
(-0.000384459 0.000992366 -0.255293)
(-0.000649497 0.00112735 -0.255801)
(-0.000429001 0.000724323 -0.255445)
(3.23753e-05 -4.49385e-05 -0.25469)
(0.000317386 -0.000318767 -0.254234)
(0.000492801 0.000174374 -0.25491)
(0.000473668 0.00102134 -0.256299)
(0.000492384 0.00171296 -0.256661)
(-0.000118506 0.00110401 -0.255291)
(-9.0682e-05 0.0011271 -0.254976)
(3.40476e-05 0.00108495 -0.254776)
(1.10229e-05 0.001013 -0.254854)
(-0.000323179 0.000983744 -0.255222)
(-0.000559623 0.00109745 -0.255691)
(-0.000315457 0.000669928 -0.255305)
(0.000117695 -9.81431e-05 -0.254563)
(0.000343896 -0.000363993 -0.254153)
(0.000465729 0.000138241 -0.25482)
(0.000434907 0.000998439 -0.256197)
(0.000458185 0.00169425 -0.256579)
(-9.36515e-05 0.00108153 -0.255181)
(-6.0561e-05 0.00109409 -0.254872)
(7.71831e-05 0.00104442 -0.254689)
(6.10037e-05 0.000989999 -0.25479)
(-0.000261358 0.000973037 -0.255147)
(-0.000464173 0.00106413 -0.255577)
(-0.00019874 0.000614548 -0.255169)
(0.000199125 -0.000148335 -0.254445)
(0.000366158 -0.000404282 -0.254081)
(0.000435435 0.000104611 -0.254732)
(0.000392093 0.000974605 -0.25609)
(0.000420021 0.00167348 -0.256492)
(-6.52144e-05 0.0010569 -0.255067)
(-2.93776e-05 0.00105885 -0.254764)
(0.000117315 0.00100257 -0.254601)
(0.00010759 0.00096582 -0.254722)
(-0.00020014 0.000959852 -0.255071)
(-0.000364822 0.00102727 -0.255461)
(-8.11603e-05 0.000558725 -0.255039)
(0.000275588 -0.000195106 -0.254339)
(0.000385144 -0.00044008 -0.254013)
(0.000402207 7.36478e-05 -0.254647)
(0.000345282 0.000949861 -0.255977)
(0.000377933 0.0016506 -0.256401)
(-3.36524e-05 0.00103014 -0.254951)
(2.30698e-06 0.00102147 -0.254655)
(0.000153498 0.000959414 -0.254511)
(0.000149797 0.000940395 -0.254653)
(-0.000140582 0.000943819 -0.254992)
(-0.000263366 0.000986816 -0.255344)
(3.47041e-05 0.000502974 -0.254915)
(0.000346453 -0.000238057 -0.254245)
(0.000401235 -0.000471033 -0.253951)
(0.00036635 4.55185e-05 -0.254564)
(0.000294772 0.000924243 -0.255859)
(0.000332147 0.00162567 -0.256305)
(4.76949e-07 0.00100131 -0.254837)
(3.40382e-05 0.000982125 -0.254546)
(0.000185016 0.000915086 -0.254423)
(0.000186756 0.000913624 -0.254583)
(-8.36259e-05 0.000924597 -0.254914)
(-0.000161765 0.000942772 -0.255228)
(0.000146183 0.000447774 -0.2548)
(0.000411535 -0.000276429 -0.254163)
(0.000414522 -0.000496952 -0.253893)
(0.000328269 2.03944e-05 -0.254484)
(0.000241099 0.000897792 -0.255736)
(0.000282923 0.00159866 -0.256205)
(3.65305e-05 0.000970523 -0.254725)
(6.53939e-05 0.000941066 -0.25444)
(0.000211294 0.00086978 -0.254336)
(0.000217891 0.000885369 -0.254513)
(-3.00791e-05 0.000901871 -0.254835)
(-6.2139e-05 0.000895239 -0.255113)
(0.000250881 0.000393539 -0.254694)
(0.00047124 -0.000310865 -0.254091)
(0.000425032 -0.000517877 -0.25384)
(0.000288491 -1.59945e-06 -0.254407)
(0.000185044 0.000870571 -0.255609)
(0.000230589 0.00156943 -0.256099)
(7.38166e-05 0.00093796 -0.254617)
(9.59057e-05 0.000898584 -0.254337)
(0.000231885 0.000823666 -0.254252)
(0.000242867 0.000855474 -0.254444)
(1.9367e-05 0.000875392 -0.254756)
(3.32904e-05 0.000844388 -0.255001)
(0.000347079 0.000340469 -0.254598)
(0.000525338 -0.000341726 -0.254025)
(0.000432645 -0.000533907 -0.253792)
(0.000247645 -2.03978e-05 -0.254333)
(0.000127618 0.00084265 -0.255478)
(0.000175789 0.00153807 -0.255987)
(0.000111598 0.000903795 -0.254515)
(0.000125023 0.000855061 -0.254241)
(0.000246472 0.000776923 -0.254172)
(0.00026148 0.000823766 -0.254375)
(6.40896e-05 0.000845148 -0.254679)
(0.0001223 0.000790466 -0.254893)
(0.000433559 0.000288662 -0.254513)
(0.000573242 -0.000368487 -0.253967)
(0.000437241 -0.000545147 -0.253748)
(0.000206432 -3.60062e-05 -0.254261)
(7.00262e-05 0.000814102 -0.255345)
(0.000119466 0.00150465 -0.255869)
(0.000149074 0.000868234 -0.254419)
(0.000152195 0.000811066 -0.254152)
(0.000254901 0.000730014 -0.254096)
(0.000273588 0.000790095 -0.254308)
(0.000103771 0.000811062 -0.254602)
(0.000202775 0.00073379 -0.25479)
(0.000509581 0.000238827 -0.254439)
(0.000614498 -0.000391461 -0.253916)
(0.000438789 -0.000551786 -0.25371)
(0.000165611 -4.8512e-05 -0.254192)
(1.36191e-05 0.000784992 -0.255209)
(6.28596e-05 0.00146923 -0.255744)
(0.000185434 0.000831595 -0.25433)
(0.000177078 0.00076704 -0.254071)
(0.000257204 0.000682985 -0.254025)
(0.000279094 0.000754332 -0.254243)
(0.000138064 0.000773051 -0.254526)
(0.00027288 0.000674684 -0.254693)