-0.0075 	0 	0 	0
-0.0075 	-4.33763e-37 	-2.69121e-36 	1.85033e-31
-0.00745622 	-3.56309e-08 	-2.21066e-07 	0.0151993
-0.00745622 	-3.56309e-08 	-2.21066e-07 	0.0151993
-0.00741165 	-4.98516e-07 	-7.31688e-07 	0.0296001
-0.00741165 	-4.98516e-07 	-7.31688e-07 	0.0296001
-0.00736628 	-1.0668e-06 	-1.60656e-06 	0.0433006
-0.00736628 	-1.0668e-06 	-1.60656e-06 	0.0433006
-0.0073201 	-1.56044e-06 	-2.84871e-06 	0.0563265
-0.0073201 	-1.56044e-06 	-2.84871e-06 	0.0563265
-0.00727309 	-1.99152e-06 	-4.48793e-06 	0.0687012
-0.00727309 	-1.99152e-06 	-4.48793e-06 	0.0687012
-0.00722524 	-2.39238e-06 	-6.52847e-06 	0.0804452
-0.00722524 	-2.39238e-06 	-6.52847e-06 	0.0804452
-0.00717653 	-2.77044e-06 	-8.98459e-06 	0.0915673
-0.00717653 	-2.77044e-06 	-8.98459e-06 	0.0915673
-0.00712695 	-3.12754e-06 	-1.18765e-05 	0.102055
-0.00712695 	-3.12754e-06 	-1.18765e-05 	0.102055
-0.00707647 	-3.46349e-06 	-1.52393e-05 	0.111878
-0.00707647 	-3.46349e-06 	-1.52393e-05 	0.111878
-0.0070251 	-3.77629e-06 	-1.91274e-05 	0.121011
-0.0070251 	-3.77629e-06 	-1.91274e-05 	0.121011
-0.0069728 	-4.06272e-06 	-2.36103e-05 	0.129445
-0.0069728 	-4.06272e-06 	-2.36103e-05 	0.129445
-0.00691956 	-4.31932e-06 	-2.87593e-05 	0.137199
-0.00691956 	-4.31932e-06 	-2.87593e-05 	0.137199
-0.00686537 	-4.5433e-06 	-3.46385e-05 	0.144313
-0.00686537 	-4.5433e-06 	-3.46385e-05 	0.144313
-0.00681021 	-4.73334e-06 	-4.13132e-05 	0.150842
-0.00681021 	-4.73334e-06 	-4.13132e-05 	0.150842
-0.00675406 	-4.8894e-06 	-4.88515e-05 	0.156848
-0.00675406 	-4.8894e-06 	-4.88515e-05 	0.156848
-0.0066969 	-5.01216e-06 	-5.73151e-05 	0.162384
-0.0066969 	-5.01216e-06 	-5.73151e-05 	0.162384
-0.00663871 	-5.10287e-06 	-6.67467e-05 	0.167497
-0.00663871 	-5.10287e-06 	-6.67467e-05 	0.167497
-0.00657949 	-5.16307e-06 	-7.71486e-05 	0.172229
-0.00657949 	-5.16307e-06 	-7.71486e-05 	0.172229
-0.0065192 	-5.1945e-06 	-8.84879e-05 	0.176622
-0.0065192 	-5.1945e-06 	-8.84879e-05 	0.176622
-0.00645783 	-5.19915e-06 	-0.000100717 	0.180716
-0.00645783 	-5.19915e-06 	-0.000100717 	0.180716
-0.00639535 	-5.17913e-06 	-0.000113784 	0.184552
-0.00639535 	-5.17913e-06 	-0.000113784 	0.184552
-0.00633176 	-5.13656e-06 	-0.000127638 	0.188161
-0.00633176 	-5.13656e-06 	-0.000127638 	0.188161
-0.00626703 	-5.07348e-06 	-0.000142223 	0.191571
-0.00626703 	-5.07348e-06 	-0.000142223 	0.191571
-0.00620114 	-4.99176e-06 	-0.000157483 	0.194805
-0.00620114 	-4.99176e-06 	-0.000157483 	0.194805
-0.00613406 	-4.893e-06 	-0.000173358 	0.197883
-0.00613406 	-4.893e-06 	-0.000173358 	0.197883
-0.00606579 	-4.77852e-06 	-0.000189788 	0.200823
-0.00606579 	-4.77852e-06 	-0.000189788 	0.200823
-0.00599629 	-4.6492e-06 	-0.000206708 	0.203642
-0.00599629 	-4.6492e-06 	-0.000206708 	0.203642
-0.00592554 	-4.50582e-06 	-0.000224048 	0.206355
-0.00592554 	-4.50582e-06 	-0.000224048 	0.206355
-0.00585352 	-4.34925e-06 	-0.000241734 	0.208976
-0.00585352 	-4.34925e-06 	-0.000241734 	0.208976
-0.00578022 	-4.18055e-06 	-0.000259675 	0.21152
-0.00578022 	-4.18055e-06 	-0.000259675 	0.21152
-0.00570559 	-4.00065e-06 	-0.000277775 	0.213993
-0.00570559 	-4.00065e-06 	-0.000277775 	0.213993
-0.00562963 	-3.81023e-06 	-0.000295933 	0.216406
-0.00562963 	-3.81023e-06 	-0.000295933 	0.216406
-0.00555231 	-3.60975e-06 	-0.000314049 	0.218765
-0.00555231 	-3.60975e-06 	-0.000314049 	0.218765
-0.0054736 	-3.39956e-06 	-0.000332023 	0.221074
-0.0054736 	-3.39956e-06 	-0.000332023 	0.221074
-0.00539348 	-3.17992e-06 	-0.00034975 	0.22334
-0.00539348 	-3.17992e-06 	-0.00034975 	0.22334
-0.00531193 	-2.95104e-06 	-0.000367127 	0.225565
-0.00531193 	-2.95104e-06 	-0.000367127 	0.225565
-0.00522891 	-2.71305e-06 	-0.000384054 	0.227752
-0.00522891 	-2.71305e-06 	-0.000384054 	0.227752
-0.0051444 	-2.46601e-06 	-0.000400431 	0.229904
-0.0051444 	-2.46601e-06 	-0.000400431 	0.229904
-0.00505838 	-2.20994e-06 	-0.000416163 	0.232022
-0.00505838 	-2.20994e-06 	-0.000416163 	0.232022
-0.00497081 	-1.94482e-06 	-0.000431161 	0.234106
-0.00497081 	-1.94482e-06 	-0.000431161 	0.234106
-0.00488168 	-1.67053e-06 	-0.00044534 	0.236156
-0.00488168 	-1.67053e-06 	-0.00044534 	0.236156
-0.00479094 	-1.38686e-06 	-0.00045862 	0.238172
-0.00479094 	-1.38686e-06 	-0.00045862 	0.238172
-0.00469858 	-1.09341e-06 	-0.000470925 	0.240152
-0.00469858 	-1.09341e-06 	-0.000470925 	0.240152
-0.00460456 	-7.89597e-07 	-0.000482188 	0.242094
-0.00460456 	-7.89597e-07 	-0.000482188 	0.242094
-0.00450886 	-4.7467e-07 	-0.000492361 	0.243998
-0.00450886 	-4.7467e-07 	-0.000492361 	0.243998
-0.00441144 	-1.47824e-07 	-0.000501426 	0.24586
-0.00441144 	-1.47824e-07 	-0.000501426 	0.24586
-0.00431227 	1.91644e-07 	-0.000509401 	0.247681
-0.00431227 	1.91644e-07 	-0.000509401 	0.247681
-0.00421133 	5.44336e-07 	-0.000516329 	0.249457
-0.00421133 	5.44336e-07 	-0.000516329 	0.249457
-0.00410857 	9.11107e-07 	-0.000522276 	0.251186
-0.00410857 	9.11107e-07 	-0.000522276 	0.251186
-0.00400397 	1.29372e-06 	-0.000527324 	0.252867
-0.00400397 	1.29372e-06 	-0.000527324 	0.252867
-0.0038975 	1.69471e-06 	-0.000531566 	0.254498
-0.0038975 	1.69471e-06 	-0.000531566 	0.254498
-0.00378912 	2.11585e-06 	-0.000535091 	0.256082
-0.00378912 	2.11585e-06 	-0.000535091 	0.256082
-0.00367879 	2.55714e-06 	-0.000537969 	0.257622
-0.00367879 	2.55714e-06 	-0.000537969 	0.257622
-0.00356649 	3.0174e-06 	-0.000540263 	0.259118
-0.00356649 	3.0174e-06 	-0.000540263 	0.259118
-0.00345217 	3.4955e-06 	-0.000542026 	0.260568
-0.00345217 	3.4955e-06 	-0.000542026 	0.260568
-0.0033358 	3.99078e-06 	-0.000543317 	0.261968
-0.0033358 	3.99078e-06 	-0.000543317 	0.261968
-0.00321735 	4.50252e-06 	-0.000544201 	0.263318
-0.00321735 	4.50252e-06 	-0.000544201 	0.263318
-0.00309677 	5.02971e-06 	-0.000544745 	0.264615
-0.00309677 	5.02971e-06 	-0.000544745 	0.264615
-0.00297403 	5.57101e-06 	-0.000545023 	0.265856
-0.00297403 	5.57101e-06 	-0.000545023 	0.265856
-0.00284909 	6.12466e-06 	-0.000545107 	0.267039
-0.00284909 	6.12466e-06 	-0.000545107 	0.267039
-0.0027219 	6.6885e-06 	-0.000545072 	0.268162
-0.0027219 	6.6885e-06 	-0.000545072 	0.268162
-0.00259244 	7.26014e-06 	-0.000544991 	0.269221
-0.00259244 	7.26014e-06 	-0.000544991 	0.269221
-0.00246065 	7.83696e-06 	-0.000544935 	0.270214
-0.00246065 	7.83696e-06 	-0.000544935 	0.270214
-0.00232651 	8.41599e-06 	-0.000544962 	0.27114
-0.00232651 	8.41599e-06 	-0.000544962 	0.27114
-0.00218995 	8.99382e-06 	-0.000545124 	0.271996
-0.00218995 	8.99382e-06 	-0.000545124 	0.271996
-0.00205095 	9.56676e-06 	-0.000545458 	0.27278
-0.00205095 	9.56676e-06 	-0.000545458 	0.27278
-0.00190946 	1.01309e-05 	-0.000545989 	0.273491
-0.00190946 	1.01309e-05 	-0.000545989 	0.273491
-0.00176543 	1.06818e-05 	-0.000546725 	0.274127
-0.00176543 	1.06818e-05 	-0.000546725 	0.274127
-0.00161881 	1.12143e-05 	-0.000547657 	0.274689
-0.00161881 	1.12143e-05 	-0.000547657 	0.274689
-0.00146957 	1.1722e-05 	-0.000548757 	0.275176
-0.00146957 	1.1722e-05 	-0.000548757 	0.275176
-0.00131765 	1.21983e-05 	-0.000549983 	0.275588
-0.00131765 	1.21983e-05 	-0.000549983 	0.275588
-0.001163 	1.26361e-05 	-0.000551283 	0.275926
-0.001163 	1.26361e-05 	-0.000551283 	0.275926
-0.00100559 	1.30276e-05 	-0.000552603 	0.276188
-0.00100559 	1.30276e-05 	-0.000552603 	0.276188
-0.000845345 	1.3364e-05 	-0.000553841 	0.276374
-0.000845345 	1.3364e-05 	-0.000553841 	0.276374
-0.000682232 	1.36354e-05 	-0.000554973 	0.276484
-0.000682232 	1.36354e-05 	-0.000554973 	0.276484
-0.000516194 	1.3831e-05 	-0.000555996 	0.276514
-0.000516194 	1.3831e-05 	-0.000555996 	0.276514
-0.000347178 	1.39393e-05 	-0.000556781 	0.276464
-0.000347178 	1.39393e-05 	-0.000556781 	0.276464
-0.000175132 	1.39452e-05 	-0.000557401 	0.276331
-0.000175132 	1.39452e-05 	-0.000557401 	0.276331
0 	1.38342e-05 	-0.000557727 	0.276112
0 	1.38342e-05 	-0.000557727 	0.276112
0 	1.38342e-05 	-0.000557727 	0.276112
0 	1.38342e-05 	-0.000557727 	0.276112
0.000175132 	1.36055e-05 	-0.000557576 	0.275809
0.000175132 	1.69804e-05 	-0.000456402 	0.272584
0.000347178 	1.32693e-05 	-0.000557073 	0.27543
0.000347178 	1.82948e-05 	-0.000458065 	0.272269
0.000516194 	1.28436e-05 	-0.000556099 	0.274978
0.000516194 	1.94318e-05 	-0.000459221 	0.271875
0.000682232 	1.2347e-05 	-0.000554681 	0.274459
0.000682232 	2.0409e-05 	-0.000459876 	0.271407
0.000845345 	1.17923e-05 	-0.000552945 	0.273875
0.000845345 	2.12412e-05 	-0.000460285 	0.270869
0.00100559 	1.11916e-05 	-0.000550849 	0.27323
0.00100559 	2.19447e-05 	-0.000460314 	0.270266
0.001163 	1.05559e-05 	-0.000548411 	0.272525
0.001163 	2.25346e-05 	-0.000459972 	0.2696
0.00131765 	9.89494e-06 	-0.000545649 	0.271764
0.00131765 	2.3025e-05 	-0.000459268 	0.268875
0.00146957 	9.21729e-06 	-0.000542578 	0.270949
0.00146957 	2.34284e-05 	-0.000458208 	0.268093
0.00161881 	8.5303e-06 	-0.000539211 	0.270081
0.00161881 	2.37559e-05 	-0.0004568 	0.267256
0.00176543 	7.84025e-06 	-0.000535562 	0.269162
0.00176543 	2.40173e-05 	-0.000455053 	0.266366
0.00190946 	7.15244e-06 	-0.00053164 	0.268193
0.00190946 	2.42209e-05 	-0.000452973 	0.265425
0.00205095 	6.47128e-06 	-0.000527454 	0.267177
0.00205095 	2.43742e-05 	-0.000450568 	0.264435
0.00218995 	5.8004e-06 	-0.000523009 	0.266113
0.00218995 	2.44834e-05 	-0.000447841 	0.263396
0.00232651 	5.14279e-06 	-0.000518309 	0.265003
0.00232651 	2.4554e-05 	-0.000444793 	0.26231
0.00246065 	4.50091e-06 	-0.000513357 	0.263848
0.00246065 	2.45908e-05 	-0.000441425 	0.261177
0.00259244 	3.87679e-06 	-0.000508153 	0.262648
0.00259244 	2.45976e-05 	-0.000437735 	0.259998
0.0027219 	3.27202e-06 	-0.000502693 	0.261403
0.0027219 	2.45775e-05 	-0.000433719 	0.258775
0.00284909 	2.68789e-06 	-0.000496976 	0.260115
0.00284909 	2.45331e-05 	-0.000429372 	0.257506
0.00297403 	2.12536e-06 	-0.000490995 	0.258782
0.00297403 	2.44662e-05 	-0.000424685 	0.256194
0.00309677 	1.58519e-06 	-0.000484745 	0.257405
0.00309677 	2.43784e-05 	-0.000419648 	0.254836
0.00321735 	1.06791e-06 	-0.000478218 	0.255984
0.00321735 	2.42709e-05 	-0.000414249 	0.253435
0.0033358 	5.73872e-07 	-0.000471407 	0.254519
0.0033358 	2.41446e-05 	-0.000408479 	0.251988
0.00345217 	2.40001e-05 	-0.000402329 	0.250496
0.00345217 	1.03288e-07 	-0.000464306 	0.253008
0.00356649 	-3.43743e-07 	-0.00045691 	0.25145
0.00356649 	2.38382e-05 	-0.000395805 	0.248956
0.00367879 	-7.67167e-07 	-0.00044921 	0.249846
0.00367879 	2.36604e-05 	-0.000388901 	0.24737
0.00378912 	-1.16689e-06 	-0.000441188 	0.248194
0.00378912 	2.3469e-05 	-0.000381608 	0.245737
0.0038975 	-1.54281e-06 	-0.000432823 	0.246492
0.0038975 	2.32648e-05 	-0.000373907 	0.244058
0.00400397 	-1.89496e-06 	-0.000424074 	0.244737
0.00400397 	2.30478e-05 	-0.000365736 	0.242325
0.00410857 	2.2818e-05 	-0.000356993 	0.240527
0.00410857 	-2.22325e-06 	-0.000414877 	0.242922
0.00421133 	-2.52746e-06 	-0.000405157 	0.241043
0.00421133 	2.25754e-05 	-0.000347582 	0.238651
0.00431227 	-2.80801e-06 	-0.000394834 	0.239093
0.00431227 	2.23179e-05 	-0.000337435 	0.236693
0.00441144 	-3.06605e-06 	-0.000383842 	0.237063
0.00441144 	2.20426e-05 	-0.000326509 	0.234647
0.00450886 	-3.3029e-06 	-0.000372148 	0.234949
0.00450886 	2.17462e-05 	-0.000314807 	0.23251
0.00460456 	-3.51964e-06 	-0.00035975 	0.232744
0.00460456 	2.14255e-05 	-0.000302366 	0.230277
0.00469858 	-3.71692e-06 	-0.000346666 	0.230444
0.00469858 	2.10774e-05 	-0.000289236 	0.227944
0.00479094 	-3.89519e-06 	-0.000332919 	0.228045
0.00479094 	2.06988e-05 	-0.000275472 	0.225508
0.00488168 	-4.05489e-06 	-0.000318539 	0.22554
0.00488168 	2.02867e-05 	-0.000261132 	0.222964
0.00497081 	-4.19651e-06 	-0.000303567 	0.222927
0.00497081 	1.98377e-05 	-0.000246283 	0.220308
0.00505838 	-4.32056e-06 	-0.000288054 	0.220201
0.00505838 	1.93488e-05 	-0.000230998 	0.217536
0.0051444 	-4.42755e-06 	-0.000272064 	0.217357
0.0051444 	1.88169e-05 	-0.000215366 	0.214645
0.00522891 	-4.51799e-06 	-0.000255679 	0.214393
0.00522891 	1.82393e-05 	-0.00019949 	0.211631
0.00531193 	-4.59235e-06 	-0.000238997 	0.211305
0.00531193 	1.76136e-05 	-0.000183487 	0.208493
0.00539348 	-4.65106e-06 	-0.00022213 	0.20809
0.00539348 	1.69382e-05 	-0.000167491 	0.205227
0.0054736 	-4.69453e-06 	-0.000205203 	0.204744
0.0054736 	1.62118e-05 	-0.000151642 	0.201834
0.00555231 	-4.7231e-06 	-0.000188348 	0.201265
0.00555231 	1.54336e-05 	-0.000136086 	0.198309
0.00562963 	-4.73711e-06 	-0.000171698 	0.197648
0.00562963 	1.46034e-05 	-0.000120964 	0.194652
0.00570559 	-4.73686e-06 	-0.000155387 	0.19389
0.00570559 	1.37214e-05 	-0.000106409 	0.190859
0.00578022 	-4.72262e-06 	-0.00013954 	0.189985
0.00578022 	1.27882e-05 	-9.25423e-05 	0.186926
0.00585352 	-4.69464e-06 	-0.000124275 	0.185927
0.00585352 	1.18052e-05 	-7.94671e-05 	0.18285
0.00592554 	-4.65314e-06 	-0.000109695 	0.181711
0.00592554 	1.07742e-05 	-6.72678e-05 	0.178623
0.00599629 	-4.59833e-06 	-9.58887e-05 	0.177328
0.00599629 	9.6974e-06 	-5.60077e-05 	0.174239
0.00606579 	-4.53024e-06 	-8.29312e-05 	0.17277
0.00606579 	8.57812e-06 	-4.57304e-05 	0.169691
0.00613406 	-4.44881e-06 	-7.08851e-05 	0.168025
0.00613406 	7.42007e-06 	-3.64603e-05 	0.164965
0.00620114 	6.22748e-06 	-2.82049e-05 	0.160046
0.00620114 	-4.35397e-06 	-5.9799e-05 	0.163077
0.00626703 	-4.24587e-06 	-4.97096e-05 	0.157909
0.00626703 	5.00554e-06 	-2.09612e-05 	0.154916
0.00633176 	3.76137e-06 	-1.47166e-05 	0.14956
0.00633176 	-4.12495e-06 	-4.06461e-05 	0.152504
0.00639535 	2.50417e-06 	-9.44292e-06 	0.143962
0.00639535 	-3.99171e-06 	-3.26211e-05 	0.146846
0.00645783 	-3.84649e-06 	-2.56263e-05 	0.14092
0.00645783 	1.24517e-06 	-5.09457e-06 	0.138106
0.0065192 	-3.68967e-06 	-1.9637e-05 	0.134708
0.0065192 	-2.18314e-09 	-1.61315e-06 	0.131974
0.00657949 	-3.52174e-06 	-1.46152e-05 	0.128193
0.00657949 	-1.22185e-06 	1.069e-06 	0.125547
0.00663871 	-3.34299e-06 	-1.05096e-05 	0.121358
0.00663871 	-2.39482e-06 	3.02631e-06 	0.11881
0.0066969 	-3.1533e-06 	-7.24168e-06 	0.114186
0.0066969 	-3.49996e-06 	4.34401e-06 	0.111741
0.00675406 	-4.51573e-06 	5.11198e-06 	0.104305
0.00675406 	-2.95264e-06 	-4.71866e-06 	0.106643
0.00681021 	-5.41789e-06 	5.4196e-06 	0.0964734
0.00681021 	-2.7422e-06 	-2.84011e-06 	0.098696
0.00686537 	-6.17644e-06 	5.35657e-06 	0.088262
0.00686537 	-2.52558e-06 	-1.50969e-06 	0.0903527
0.00691956 	-6.75845e-06 	5.01251e-06 	0.0797365
0.00691956 	-2.30772e-06 	-6.41538e-07 	0.0816769
0.0069728 	-7.1337e-06 	4.47765e-06 	0.071014
0.0069728 	-2.09326e-06 	-1.39582e-07 	0.0727856
0.0070251 	-1.88599e-06 	9.59363e-08 	0.0638472
0.0070251 	-7.28089e-06 	3.83688e-06 	0.0622597
0.00707647 	-1.68842e-06 	1.6006e-07 	0.0550627
0.00707647 	-7.19373e-06 	3.16382e-06 	0.0536682
0.00712695 	-1.50107e-06 	1.34247e-07 	0.0466306
0.00712695 	-6.88319e-06 	2.51603e-06 	0.0454294
0.00717653 	-1.32239e-06 	7.83256e-08 	0.0387082
0.00717653 	-6.37452e-06 	1.93164e-06 	0.0376931
0.00722524 	-1.14891e-06 	2.8427e-08 	0.0313891
0.00722524 	-5.70014e-06 	1.43051e-06 	0.0305484
0.00727309 	-4.89186e-06 	1.01828e-06 	0.0240267
0.00727309 	-9.74433e-07 	7.08072e-11 	0.0247059
0.0073201 	-3.97458e-06 	6.88188e-07 	0.0181199
0.0073201 	-7.8624e-07 	-7.14225e-09 	0.01865
0.00736628 	-2.9598e-06 	4.36227e-07 	0.0128001
0.00736628 	-5.54965e-07 	5.20942e-09 	0.013192
0.00741165 	-2.78844e-07 	1.08208e-08 	0.00829406
0.00741165 	-1.89315e-06 	2.35879e-07 	0.00803069
0.00745622 	-5.5378e-08 	1.17708e-08 	0.00391585
0.00745622 	-8.86407e-07 	9.23424e-08 	0.00377194
0.0075 	0 	0 	0
0.0075 	0 	0 	0
