/*--------------------------------*- C++ -*----------------------------------*\
| =========                 |                                                 |
| \\      /  F ield         | OpenFOAM: The Open Source CFD Toolbox           |
|  \\    /   O peration     | Version:  v1912                                 |
|   \\  /    A nd           | Website:  www.openfoam.com                      |
|    \\/     M anipulation  |                                                 |
\*---------------------------------------------------------------------------*/
FoamFile
{
    version     2.0;
    format      ascii;
    class       volScalarField;
    location    "196.4";
    object      pPrime2Mean;
}
// * * * * * * * * * * * * * * * * * * * * * * * * * * * * * * * * * * * * * //

dimensions      [2 -2 -4 0 0 0 0];


internalField   nonuniform List<scalar> 
10077
(
1637.57
1638.28
1639.25
1640.17
1641.37
1642.19
1642.77
1643.3
1643.67
1643.17
1641.76
1640.08
1638.34
1637.26
1636.99
1636.87
1637.54
1638.22
1639.19
1640.1
1641.29
1642.11
1642.69
1643.21
1643.57
1643.07
1641.67
1640
1638.29
1637.22
1636.94
1636.84
1637.48
1638.13
1639.1
1640
1641.18
1642
1642.57
1643.08
1643.41
1642.91
1641.53
1639.88
1638.2
1637.15
1636.86
1636.78
1637.41
1638.03
1638.99
1639.88
1641.04
1641.86
1642.42
1642.92
1643.22
1642.72
1641.37
1639.74
1638.1
1637.06
1636.77
1636.7
1637.32
1637.93
1638.88
1639.76
1640.9
1641.71
1642.27
1642.76
1643.02
1642.52
1641.21
1639.6
1637.99
1636.97
1636.68
1636.62
1637.24
1637.82
1638.76
1639.63
1640.75
1641.56
1642.11
1642.59
1642.82
1642.32
1641.03
1639.45
1637.88
1636.88
1636.58
1636.55
1637.15
1637.72
1638.65
1639.5
1640.6
1641.41
1641.95
1642.42
1642.62
1642.13
1640.86
1639.3
1637.77
1636.79
1636.49
1636.47
1637.07
1637.62
1638.54
1639.38
1640.46
1641.27
1641.8
1642.25
1642.43
1641.93
1640.7
1639.15
1637.66
1636.7
1636.4
1636.4
1636.99
1637.52
1638.43
1639.26
1640.32
1641.12
1641.65
1642.09
1642.24
1641.74
1640.53
1639.01
1637.55
1636.61
1636.31
1636.32
1636.91
1637.43
1638.32
1639.14
1640.18
1640.98
1641.5
1641.93
1642.05
1641.55
1640.37
1638.87
1637.44
1636.52
1636.22
1636.25
1636.84
1637.34
1638.21
1639.02
1640.04
1640.84
1641.35
1641.77
1641.87
1641.37
1640.21
1638.73
1637.33
1636.43
1636.13
1636.19
1636.76
1637.25
1638.1
1638.91
1639.91
1640.7
1641.21
1641.61
1641.69
1641.2
1640.05
1638.6
1637.23
1636.35
1636.05
1636.12
1636.69
1637.17
1638
1638.8
1639.78
1640.57
1641.07
1641.46
1641.52
1641.02
1639.9
1638.47
1637.13
1636.26
1635.97
1636.06
1636.62
1637.09
1637.9
1638.69
1639.65
1640.43
1640.93
1641.31
1641.35
1640.85
1639.75
1638.34
1637.03
1636.18
1635.89
1635.99
1636.56
1637.01
1637.8
1638.58
1639.53
1640.3
1640.79
1641.17
1641.18
1640.69
1639.61
1638.22
1636.93
1636.1
1635.82
1635.93
1636.49
1636.94
1637.71
1638.47
1639.41
1640.18
1640.66
1641.02
1641.02
1640.53
1639.47
1638.1
1636.83
1636.02
1635.74
1635.87
1636.42
1636.86
1637.61
1638.37
1639.29
1640.06
1640.53
1640.88
1640.86
1640.38
1639.33
1637.98
1636.74
1635.94
1635.67
1635.82
1636.36
1636.79
1637.52
1638.27
1639.17
1639.93
1640.41
1640.74
1640.71
1640.22
1639.19
1637.86
1636.65
1635.87
1635.6
1635.76
1636.3
1636.72
1637.43
1638.17
1639.06
1639.82
1640.29
1640.61
1640.56
1640.08
1639.06
1637.75
1636.56
1635.8
1635.53
1635.71
1636.24
1636.65
1637.35
1638.08
1638.95
1639.7
1640.17
1640.48
1640.42
1639.93
1638.93
1637.64
1636.47
1635.72
1635.47
1635.65
1636.18
1636.59
1637.26
1637.99
1638.84
1639.59
1640.05
1640.35
1640.27
1639.79
1638.81
1637.53
1636.39
1635.65
1635.4
1635.6
1636.12
1636.52
1637.18
1637.9
1638.74
1639.48
1639.94
1640.22
1640.14
1639.66
1638.68
1637.43
1636.3
1635.59
1635.34
1635.55
1636.07
1636.46
1637.1
1637.81
1638.64
1639.37
1639.82
1640.1
1640
1639.52
1638.57
1637.33
1636.22
1635.52
1635.28
1635.5
1636.01
1636.4
1637.02
1637.72
1638.54
1639.27
1639.72
1639.98
1639.87
1639.39
1638.45
1637.23
1636.14
1635.45
1635.22
1635.45
1635.96
1636.34
1636.94
1637.64
1638.44
1639.17
1639.61
1639.86
1639.74
1639.27
1638.34
1637.13
1636.07
1635.39
1635.16
1635.41
1635.9
1636.28
1636.87
1637.56
1638.35
1639.07
1639.51
1639.75
1639.62
1639.15
1638.23
1637.04
1635.99
1635.33
1635.11
1635.36
1635.85
1636.23
1636.79
1637.48
1638.26
1638.97
1639.41
1639.64
1639.5
1639.03
1638.12
1636.95
1635.92
1635.27
1635.06
1635.32
1635.8
1636.17
1636.72
1637.4
1638.17
1638.88
1639.31
1639.53
1639.38
1638.91
1638.01
1636.86
1635.85
1635.21
1635
1635.27
1635.75
1636.12
1636.65
1637.33
1638.09
1638.79
1639.21
1639.43
1639.27
1638.8
1637.91
1636.78
1635.78
1635.15
1634.95
1635.23
1635.71
1636.07
1636.59
1637.26
1638.01
1638.7
1639.12
1639.33
1639.16
1638.69
1637.81
1636.69
1635.71
1635.1
1634.91
1635.19
1635.66
1636.02
1636.52
1637.19
1637.93
1638.61
1639.04
1639.23
1639.05
1638.59
1637.72
1636.61
1635.65
1635.05
1634.86
1635.15
1635.62
1635.97
1636.46
1637.12
1637.85
1638.53
1638.95
1639.13
1638.95
1638.49
1637.63
1636.54
1635.59
1635
1634.82
1635.11
1635.57
1635.93
1636.4
1637.05
1637.78
1638.46
1638.87
1639.04
1638.86
1638.39
1637.54
1636.47
1635.53
1634.95
1634.78
1635.07
1635.53
1635.88
1636.35
1636.99
1637.71
1638.38
1638.79
1638.96
1638.76
1638.3
1637.46
1636.4
1635.48
1634.9
1634.74
1635.04
1635.49
1635.84
1636.29
1636.93
1637.64
1638.31
1638.72
1638.88
1638.68
1638.22
1637.38
1636.33
1635.42
1634.86
1634.7
1635
1635.45
1635.8
1636.24
1636.88
1637.58
1638.24
1638.65
1638.8
1638.59
1638.13
1637.31
1636.27
1635.37
1634.82
1634.66
1634.97
1635.42
1635.76
1636.19
1636.82
1637.52
1638.18
1638.58
1638.72
1638.51
1638.05
1637.24
1636.21
1635.32
1634.77
1634.63
1634.94
1635.38
1635.72
1636.15
1636.77
1637.46
1638.11
1638.52
1638.65
1638.44
1637.98
1637.17
1636.15
1635.28
1634.74
1634.6
1634.91
1635.35
1635.69
1636.1
1636.72
1637.41
1638.06
1638.46
1638.59
1638.36
1637.91
1637.1
1636.1
1635.23
1634.7
1634.56
1634.88
1635.31
1635.65
1636.06
1636.68
1637.36
1638
1638.4
1638.52
1638.29
1637.84
1637.04
1636.04
1635.19
1634.66
1634.54
1634.85
1635.28
1635.62
1636.02
1636.63
1637.31
1637.95
1638.34
1638.46
1638.23
1637.78
1636.98
1636
1635.15
1634.63
1634.51
1634.82
1635.25
1635.59
1635.98
1636.59
1637.26
1637.89
1638.29
1638.4
1638.17
1637.71
1636.93
1635.95
1635.11
1634.6
1634.48
1634.8
1635.22
1635.56
1635.95
1636.55
1637.22
1637.85
1638.24
1638.35
1638.11
1637.66
1636.87
1635.9
1635.07
1634.57
1634.46
1634.77
1635.2
1635.53
1635.91
1636.51
1637.18
1637.8
1638.19
1638.29
1638.05
1637.6
1636.82
1635.86
1635.04
1634.54
1634.43
1634.75
1635.17
1635.5
1635.88
1636.47
1637.14
1637.76
1638.15
1638.24
1638
1637.55
1636.78
1635.82
1635.01
1634.51
1634.41
1634.73
1635.15
1635.48
1635.85
1636.44
1637.1
1637.71
1638.11
1638.19
1637.95
1637.5
1636.73
1635.78
1634.97
1634.49
1634.39
1634.7
1635.12
1635.45
1635.82
1636.4
1637.06
1637.67
1638.07
1638.15
1637.9
1637.45
1636.69
1635.75
1634.95
1634.46
1634.37
1634.68
1635.1
1635.43
1635.79
1636.37
1637.03
1637.64
1638.03
1638.11
1637.85
1637.41
1636.65
1635.71
1634.92
1634.44
1634.35
1634.66
1635.08
1635.41
1635.77
1636.34
1637
1637.6
1637.99
1638.06
1637.81
1637.36
1636.61
1635.68
1634.89
1634.42
1634.33
1634.64
1635.06
1635.39
1635.74
1636.31
1636.97
1637.57
1637.96
1638.03
1637.77
1637.32
1636.57
1635.65
1634.87
1634.39
1634.31
1634.63
1635.04
1635.37
1635.72
1636.29
1636.94
1637.54
1637.92
1637.99
1637.73
1637.29
1636.54
1635.62
1634.84
1634.37
1634.3
1634.61
1635.02
1635.35
1635.7
1636.26
1636.91
1637.51
1637.89
1637.96
1637.7
1637.25
1636.51
1635.6
1634.82
1634.36
1634.28
1634.59
1635
1635.33
1635.67
1636.24
1636.89
1637.48
1637.87
1637.93
1637.66
1637.22
1636.48
1635.57
1634.8
1634.34
1634.27
1634.58
1634.99
1635.31
1635.66
1636.22
1636.86
1637.45
1637.84
1637.9
1637.63
1637.19
1636.45
1635.55
1634.78
1634.32
1634.25
1634.57
1634.97
1635.3
1635.64
1636.19
1636.84
1637.43
1637.81
1637.87
1637.6
1637.16
1636.42
1635.53
1634.76
1634.31
1634.24
1634.55
1634.96
1635.28
1635.62
1636.18
1636.82
1637.41
1637.79
1637.84
1637.58
1637.13
1636.4
1635.51
1634.75
1634.29
1634.23
1634.54
1634.95
1635.27
1635.61
1636.16
1636.8
1637.39
1637.77
1637.82
1637.55
1637.11
1636.37
1635.49
1634.73
1634.28
1634.22
1634.53
1634.93
1635.26
1635.59
1636.14
1636.79
1637.37
1637.75
1637.8
1637.53
1637.09
1636.35
1635.47
1634.72
1634.27
1634.21
1634.52
1634.92
1635.24
1635.58
1636.13
1636.77
1637.35
1637.73
1637.78
1637.51
1637.07
1636.34
1635.46
1634.7
1634.26
1634.2
1634.51
1634.91
1635.23
1635.57
1636.11
1636.76
1637.33
1637.72
1637.76
1637.49
1637.05
1636.32
1635.44
1634.69
1634.25
1634.19
1634.5
1634.9
1635.23
1635.56
1636.1
1636.74
1637.32
1637.7
1637.74
1637.47
1637.03
1636.3
1635.43
1634.68
1634.24
1634.19
1634.49
1634.89
1635.22
1635.55
1636.09
1636.73
1637.31
1637.69
1637.73
1637.46
1637.02
1636.29
1635.42
1634.67
1634.23
1634.18
1634.49
1634.89
1635.21
1635.54
1636.08
1636.72
1637.3
1637.68
1637.72
1637.45
1637
1636.28
1635.41
1634.66
1634.22
1634.17
1634.48
1634.88
1635.2
1635.53
1636.07
1636.71
1637.29
1637.67
1637.71
1637.43
1636.99
1636.27
1635.4
1634.66
1634.22
1634.17
1634.47
1634.87
1635.2
1635.53
1636.07
1636.71
1637.28
1637.66
1637.7
1637.42
1636.98
1636.26
1635.39
1634.65
1634.21
1634.16
1634.47
1634.87
1635.19
1635.52
1636.06
1636.7
1637.27
1637.65
1637.69
1637.42
1636.97
1636.25
1635.38
1634.64
1634.21
1634.16
1634.46
1634.86
1635.19
1635.52
1636.05
1636.69
1637.26
1637.64
1637.68
1637.41
1636.97
1636.24
1635.38
1634.64
1634.2
1634.16
1634.46
1634.86
1635.18
1635.51
1636.05
1636.69
1637.26
1637.64
1637.67
1637.4
1636.96
1636.24
1635.37
1634.64
1634.2
1634.15
1634.46
1634.86
1635.18
1635.51
1636.04
1636.68
1637.25
1637.63
1637.67
1637.4
1636.95
1636.23
1635.37
1634.63
1634.2
1634.15
1634.45
1634.85
1635.18
1635.5
1636.04
1636.68
1637.25
1637.63
1637.66
1637.39
1636.95
1636.23
1635.37
1634.63
1634.19
1634.15
1634.45
1634.85
1635.17
1635.5
1636.04
1636.68
1637.24
1637.62
1637.66
1637.39
1636.95
1636.22
1635.36
1634.63
1634.19
1634.15
1634.45
1634.85
1635.17
1635.5
1636.03
1636.67
1637.24
1637.62
1637.66
1637.38
1636.94
1636.22
1635.36
1634.62
1634.19
1634.15
1634.45
1634.85
1635.17
1635.5
1636.03
1636.67
1637.24
1637.62
1637.65
1637.38
1636.94
1636.22
1635.36
1634.62
1634.19
1634.15
1634.45
1634.85
1635.17
1635.5
1636.03
1636.67
1637.23
1637.61
1637.65
1637.38
1636.94
1636.22
1635.36
1634.62
1634.19
1634.14
1634.45
1634.85
1635.17
1635.49
1636.03
1636.67
1637.23
1637.61
1637.65
1637.38
1636.93
1636.21
1635.35
1634.62
1634.19
1634.14
1634.44
1634.84
1635.16
1635.49
1636.03
1636.66
1637.23
1637.61
1637.64
1637.37
1636.93
1636.21
1635.35
1634.62
1634.19
1634.14
1634.44
1634.84
1635.16
1635.49
1636.03
1636.66
1637.23
1637.61
1637.64
1637.37
1636.93
1636.21
1635.35
1634.62
1634.18
1634.14
1634.44
1634.84
1635.16
1635.49
1636.03
1636.66
1637.23
1637.61
1637.64
1637.37
1636.93
1636.21
1635.35
1634.62
1634.18
1634.14
1634.44
1634.84
1635.16
1635.49
1636.03
1636.66
1637.23
1637.61
1637.64
1637.37
1636.93
1636.21
1635.35
1634.62
1634.18
1634.14
1634.44
1608.89
1608.63
1608.74
1609.4
1610.73
1611.52
1611.81
1612.36
1613.09
1612.93
1611.85
1610.81
1610.04
1609.49
1609.41
1609.16
1608.83
1608.57
1608.7
1609.36
1610.67
1611.45
1611.75
1612.3
1613.01
1612.85
1611.78
1610.75
1609.98
1609.44
1609.34
1609.09
1608.75
1608.49
1608.63
1609.3
1610.57
1611.35
1611.66
1612.21
1612.89
1612.72
1611.69
1610.66
1609.89
1609.35
1609.24
1608.99
1608.65
1608.4
1608.56
1609.22
1610.45
1611.23
1611.55
1612.1
1612.74
1612.58
1611.57
1610.56
1609.78
1609.25
1609.12
1608.87
1608.54
1608.3
1608.48
1609.14
1610.33
1611.11
1611.44
1611.98
1612.59
1612.42
1611.45
1610.44
1609.67
1609.14
1608.99
1608.74
1608.43
1608.2
1608.4
1609.05
1610.21
1610.98
1611.33
1611.87
1612.44
1612.27
1611.33
1610.33
1609.55
1609.03
1608.86
1608.61
1608.32
1608.1
1608.32
1608.97
1610.09
1610.85
1611.22
1611.75
1612.29
1612.12
1611.2
1610.22
1609.43
1608.91
1608.74
1608.48
1608.21
1608.01
1608.24
1608.89
1609.97
1610.73
1611.11
1611.63
1612.14
1611.97
1611.08
1610.11
1609.32
1608.81
1608.61
1608.35
1608.1
1607.91
1608.16
1608.81
1609.86
1610.61
1611
1611.52
1611.99
1611.82
1610.96
1610
1609.21
1608.7
1608.49
1608.23
1607.98
1607.81
1608.08
1608.73
1609.75
1610.49
1610.9
1611.4
1611.85
1611.67
1610.84
1609.89
1609.1
1608.59
1608.37
1608.1
1607.87
1607.72
1608
1608.65
1609.64
1610.38
1610.79
1611.29
1611.71
1611.53
1610.73
1609.78
1608.99
1608.49
1608.25
1607.98
1607.76
1607.63
1607.92
1608.57
1609.53
1610.27
1610.69
1611.18
1611.57
1611.4
1610.61
1609.68
1608.89
1608.39
1608.14
1607.87
1607.65
1607.54
1607.85
1608.49
1609.43
1610.16
1610.59
1611.07
1611.44
1611.26
1610.5
1609.58
1608.78
1608.28
1608.02
1607.75
1607.55
1607.45
1607.77
1608.42
1609.33
1610.05
1610.49
1610.97
1611.31
1611.13
1610.39
1609.48
1608.68
1608.19
1607.91
1607.64
1607.44
1607.36
1607.7
1608.34
1609.23
1609.95
1610.39
1610.86
1611.18
1611.01
1610.29
1609.38
1608.58
1608.09
1607.8
1607.53
1607.34
1607.28
1607.63
1608.27
1609.14
1609.85
1610.3
1610.76
1611.06
1610.88
1610.18
1609.28
1608.49
1607.99
1607.7
1607.42
1607.24
1607.2
1607.56
1608.2
1609.05
1609.75
1610.2
1610.66
1610.94
1610.76
1610.08
1609.19
1608.39
1607.9
1607.6
1607.32
1607.14
1607.12
1607.49
1608.13
1608.96
1609.65
1610.11
1610.56
1610.83
1610.65
1609.98
1609.09
1608.3
1607.81
1607.5
1607.22
1607.04
1607.04
1607.42
1608.06
1608.87
1609.56
1610.02
1610.47
1610.71
1610.53
1609.88
1609
1608.21
1607.72
1607.4
1607.12
1606.95
1606.97
1607.36
1607.99
1608.79
1609.47
1609.93
1610.37
1610.6
1610.42
1609.78
1608.92
1608.12
1607.63
1607.3
1607.03
1606.86
1606.89
1607.29
1607.93
1608.7
1609.38
1609.85
1610.28
1610.5
1610.32
1609.69
1608.83
1608.04
1607.55
1607.21
1606.94
1606.77
1606.82
1607.23
1607.86
1608.62
1609.29
1609.77
1610.19
1610.39
1610.21
1609.6
1608.75
1607.95
1607.46
1607.12
1606.85
1606.68
1606.75
1607.17
1607.8
1608.54
1609.21
1609.69
1610.1
1610.29
1610.11
1609.51
1608.66
1607.87
1607.38
1607.03
1606.76
1606.6
1606.69
1607.11
1607.74
1608.47
1609.12
1609.61
1610.02
1610.19
1610.01
1609.42
1608.58
1607.79
1607.3
1606.94
1606.68
1606.52
1606.62
1607.05
1607.68
1608.39
1609.04
1609.53
1609.94
1610.1
1609.91
1609.33
1608.51
1607.71
1607.22
1606.86
1606.6
1606.45
1606.56
1607
1607.62
1608.32
1608.97
1609.45
1609.86
1610.01
1609.82
1609.25
1608.43
1607.64
1607.14
1606.78
1606.52
1606.38
1606.5
1606.94
1607.57
1608.25
1608.89
1609.38
1609.78
1609.92
1609.73
1609.17
1608.36
1607.56
1607.07
1606.7
1606.45
1606.31
1606.44
1606.89
1607.51
1608.19
1608.82
1609.31
1609.7
1609.83
1609.64
1609.09
1608.28
1607.49
1607
1606.62
1606.37
1606.24
1606.39
1606.84
1607.46
1608.12
1608.75
1609.24
1609.63
1609.75
1609.56
1609.01
1608.21
1607.42
1606.93
1606.55
1606.31
1606.18
1606.33
1606.79
1607.41
1608.06
1608.68
1609.18
1609.56
1609.67
1609.48
1608.94
1608.15
1607.36
1606.86
1606.48
1606.24
1606.12
1606.28
1606.74
1607.36
1608
1608.61
1609.12
1609.49
1609.59
1609.4
1608.87
1608.08
1607.3
1606.79
1606.41
1606.18
1606.06
1606.23
1606.7
1607.31
1607.94
1608.55
1609.05
1609.42
1609.52
1609.33
1608.8
1608.02
1607.24
1606.73
1606.34
1606.11
1606
1606.19
1606.66
1607.27
1607.89
1608.49
1609
1609.36
1609.45
1609.26
1608.74
1607.96
1607.18
1606.67
1606.28
1606.06
1605.95
1606.14
1606.62
1607.23
1607.84
1608.43
1608.94
1609.3
1609.38
1609.19
1608.68
1607.9
1607.13
1606.61
1606.22
1606
1605.89
1606.1
1606.58
1607.19
1607.79
1608.38
1608.89
1609.24
1609.31
1609.12
1608.62
1607.85
1607.07
1606.55
1606.16
1605.95
1605.84
1606.06
1606.54
1607.15
1607.74
1608.32
1608.84
1609.19
1609.25
1609.06
1608.56
1607.8
1607.03
1606.5
1606.11
1605.9
1605.8
1606.02
1606.5
1607.11
1607.69
1608.27
1608.79
1609.13
1609.19
1609
1608.5
1607.75
1606.98
1606.45
1606.06
1605.85
1605.75
1605.98
1606.47
1607.07
1607.65
1608.23
1608.74
1609.08
1609.14
1608.95
1608.45
1607.7
1606.93
1606.4
1606.01
1605.8
1605.71
1605.95
1606.44
1607.04
1607.61
1608.18
1608.7
1609.04
1609.09
1608.89
1608.4
1607.65
1606.89
1606.35
1605.96
1605.76
1605.67
1605.91
1606.41
1607.01
1607.57
1608.14
1608.66
1608.99
1609.04
1608.84
1608.36
1607.61
1606.85
1606.31
1605.92
1605.72
1605.64
1605.88
1606.38
1606.98
1607.53
1608.1
1608.62
1608.95
1608.99
1608.8
1608.31
1607.57
1606.81
1606.26
1605.87
1605.68
1605.6
1605.85
1606.35
1606.95
1607.5
1608.06
1608.58
1608.91
1608.94
1608.75
1608.27
1607.53
1606.78
1606.22
1605.83
1605.64
1605.57
1605.82
1606.33
1606.92
1607.47
1608.02
1608.54
1608.87
1608.9
1608.71
1608.23
1607.49
1606.74
1606.19
1605.8
1605.61
1605.54
1605.8
1606.3
1606.89
1607.43
1607.99
1608.51
1608.83
1608.86
1608.67
1608.19
1607.46
1606.71
1606.15
1605.76
1605.58
1605.51
1605.77
1606.28
1606.87
1607.41
1607.95
1608.47
1608.8
1608.82
1608.63
1608.15
1607.42
1606.68
1606.11
1605.73
1605.54
1605.48
1605.75
1606.26
1606.84
1607.38
1607.92
1608.44
1608.76
1608.78
1608.59
1608.12
1607.39
1606.65
1606.08
1605.7
1605.52
1605.46
1605.72
1606.24
1606.82
1607.35
1607.89
1608.41
1608.73
1608.75
1608.56
1608.09
1607.36
1606.63
1606.05
1605.67
1605.49
1605.43
1605.7
1606.22
1606.8
1607.33
1607.86
1608.39
1608.7
1608.72
1608.52
1608.06
1607.33
1606.6
1606.02
1605.64
1605.46
1605.41
1605.68
1606.2
1606.78
1607.3
1607.84
1608.36
1608.67
1608.69
1608.49
1608.03
1607.3
1606.58
1605.99
1605.61
1605.44
1605.39
1605.66
1606.18
1606.76
1607.28
1607.81
1608.34
1608.65
1608.66
1608.46
1608
1607.28
1606.55
1605.96
1605.58
1605.41
1605.37
1605.64
1606.17
1606.74
1607.26
1607.79
1608.31
1608.62
1608.63
1608.44
1607.97
1607.25
1606.53
1605.94
1605.56
1605.39
1605.35
1605.63
1606.15
1606.73
1607.24
1607.77
1608.29
1608.6
1608.61
1608.41
1607.95
1607.23
1606.51
1605.92
1605.54
1605.37
1605.34
1605.61
1606.14
1606.71
1607.22
1607.75
1608.27
1608.58
1608.58
1608.39
1607.93
1607.21
1606.49
1605.89
1605.52
1605.35
1605.32
1605.6
1606.12
1606.7
1607.2
1607.73
1608.25
1608.56
1608.56
1608.37
1607.91
1607.19
1606.48
1605.87
1605.5
1605.33
1605.3
1605.58
1606.11
1606.68
1607.19
1607.71
1608.24
1608.54
1608.54
1608.34
1607.89
1607.17
1606.46
1605.86
1605.48
1605.32
1605.29
1605.57
1606.1
1606.67
1607.17
1607.69
1608.22
1608.52
1608.52
1608.33
1607.87
1607.16
1606.44
1605.84
1605.46
1605.3
1605.28
1605.56
1606.09
1606.66
1607.16
1607.68
1608.2
1608.5
1608.5
1608.31
1607.85
1607.14
1606.43
1605.82
1605.45
1605.29
1605.27
1605.55
1606.08
1606.65
1607.15
1607.67
1608.19
1608.49
1608.49
1608.29
1607.84
1607.13
1606.42
1605.81
1605.44
1605.28
1605.26
1605.54
1606.07
1606.64
1607.14
1607.65
1608.18
1608.47
1608.47
1608.28
1607.82
1607.12
1606.41
1605.79
1605.42
1605.27
1605.25
1605.53
1606.06
1606.63
1607.13
1607.64
1608.17
1608.46
1608.46
1608.27
1607.81
1607.1
1606.4
1605.78
1605.41
1605.25
1605.24
1605.52
1606.06
1606.62
1607.12
1607.63
1608.16
1608.45
1608.45
1608.25
1607.8
1607.09
1606.39
1605.77
1605.4
1605.24
1605.23
1605.52
1606.05
1606.62
1607.11
1607.62
1608.15
1608.44
1608.44
1608.24
1607.79
1607.08
1606.38
1605.76
1605.39
1605.24
1605.23
1605.51
1606.04
1606.61
1607.1
1607.61
1608.14
1608.43
1608.43
1608.23
1607.78
1607.08
1606.37
1605.75
1605.39
1605.23
1605.22
1605.51
1606.04
1606.6
1607.09
1607.61
1608.13
1608.43
1608.42
1608.23
1607.77
1607.07
1606.37
1605.75
1605.38
1605.22
1605.22
1605.5
1606.03
1606.6
1607.09
1607.6
1608.13
1608.42
1608.41
1608.22
1607.76
1607.06
1606.36
1605.74
1605.37
1605.22
1605.21
1605.5
1606.03
1606.59
1607.08
1607.6
1608.12
1608.41
1608.41
1608.21
1607.76
1607.06
1606.35
1605.73
1605.37
1605.21
1605.21
1605.49
1606.03
1606.59
1607.08
1607.59
1608.12
1608.41
1608.4
1608.21
1607.75
1607.05
1606.35
1605.73
1605.36
1605.21
1605.21
1605.49
1606.02
1606.59
1607.08
1607.59
1608.11
1608.4
1608.4
1608.2
1607.75
1607.05
1606.35
1605.73
1605.36
1605.2
1605.2
1605.49
1606.02
1606.59
1607.07
1607.58
1608.11
1608.4
1608.39
1608.2
1607.75
1607.04
1606.34
1605.72
1605.36
1605.2
1605.2
1605.48
1606.02
1606.58
1607.07
1607.58
1608.11
1608.4
1608.39
1608.2
1607.74
1607.04
1606.34
1605.72
1605.35
1605.2
1605.2
1605.48
1606.02
1606.58
1607.07
1607.58
1608.1
1608.39
1608.39
1608.19
1607.74
1607.04
1606.34
1605.72
1605.35
1605.2
1605.2
1605.48
1606.02
1606.58
1607.07
1607.58
1608.1
1608.39
1608.39
1608.19
1607.74
1607.04
1606.34
1605.71
1605.35
1605.19
1605.19
1605.48
1606.01
1606.58
1607.06
1607.57
1608.1
1608.39
1608.38
1608.19
1607.74
1607.03
1606.33
1605.71
1605.35
1605.19
1605.19
1605.48
1606.01
1606.58
1607.06
1607.57
1608.1
1608.39
1608.38
1608.19
1607.73
1607.03
1606.33
1605.71
1605.34
1605.19
1605.19
1605.48
1606.01
1606.58
1607.06
1607.57
1608.1
1608.39
1608.38
1608.18
1607.73
1607.03
1606.33
1605.71
1605.34
1605.19
1605.19
1605.48
1606.01
1606.57
1607.06
1607.57
1608.09
1608.38
1608.38
1608.18
1607.73
1607.03
1606.33
1605.71
1605.34
1605.19
1605.19
1605.48
1606.01
1606.57
1607.06
1607.57
1608.09
1608.38
1608.38
1608.18
1607.73
1607.03
1606.33
1605.71
1605.34
1605.19
1605.19
1605.47
1606.01
1606.57
1607.06
1607.57
1608.09
1608.38
1608.38
1608.18
1607.73
1607.03
1606.33
1605.71
1605.34
1605.19
1605.19
1605.48
1606.01
1606.57
1607.06
1607.57
1608.09
1608.38
1608.38
1608.18
1607.73
1607.03
1606.33
1605.71
1605.34
1605.19
1569.02
1569.15
1568.79
1568.37
1567.66
1567.23
1567.32
1567.6
1567.97
1568.17
1568.15
1567.96
1567.58
1567.48
1567.55
1568.05
1569
1569.12
1568.77
1568.34
1567.65
1567.23
1567.31
1567.58
1567.95
1568.15
1568.14
1567.94
1567.58
1567.48
1567.56
1568.07
1568.96
1569.08
1568.73
1568.29
1567.62
1567.21
1567.28
1567.55
1567.91
1568.12
1568.1
1567.91
1567.57
1567.47
1567.56
1568.07
1568.91
1569.02
1568.68
1568.23
1567.58
1567.18
1567.24
1567.52
1567.87
1568.07
1568.05
1567.87
1567.56
1567.46
1567.56
1568.07
1568.86
1568.96
1568.62
1568.16
1567.54
1567.15
1567.2
1567.47
1567.82
1568.02
1568.01
1567.83
1567.55
1567.45
1567.56
1568.06
1568.8
1568.9
1568.56
1568.1
1567.5
1567.12
1567.16
1567.43
1567.77
1567.97
1567.96
1567.79
1567.53
1567.44
1567.55
1568.05
1568.75
1568.84
1568.5
1568.03
1567.46
1567.09
1567.12
1567.39
1567.72
1567.92
1567.91
1567.75
1567.52
1567.43
1567.55
1568.04
1568.7
1568.78
1568.44
1567.97
1567.42
1567.06
1567.08
1567.35
1567.67
1567.87
1567.86
1567.71
1567.5
1567.42
1567.54
1568.03
1568.65
1568.72
1568.39
1567.91
1567.38
1567.03
1567.05
1567.31
1567.62
1567.82
1567.82
1567.67
1567.49
1567.4
1567.54
1568.02
1568.61
1568.67
1568.33
1567.85
1567.35
1567
1567.01
1567.27
1567.58
1567.77
1567.77
1567.63
1567.47
1567.39
1567.53
1568.02
1568.57
1568.61
1568.28
1567.8
1567.31
1566.97
1566.98
1567.23
1567.53
1567.73
1567.73
1567.59
1567.46
1567.38
1567.53
1568.01
1568.52
1568.56
1568.23
1567.74
1567.27
1566.94
1566.94
1567.19
1567.49
1567.69
1567.69
1567.56
1567.44
1567.37
1567.52
1568
1568.48
1568.52
1568.18
1567.69
1567.23
1566.92
1566.91
1567.15
1567.45
1567.64
1567.65
1567.52
1567.43
1567.36
1567.52
1567.99
1568.45
1568.47
1568.13
1567.64
1567.2
1566.89
1566.88
1567.11
1567.41
1567.6
1567.61
1567.49
1567.41
1567.35
1567.51
1567.98
1568.41
1568.42
1568.09
1567.59
1567.16
1566.86
1566.85
1567.08
1567.37
1567.56
1567.57
1567.46
1567.4
1567.34
1567.51
1567.97
1568.37
1568.38
1568.04
1567.55
1567.13
1566.84
1566.82
1567.05
1567.33
1567.53
1567.54
1567.43
1567.38
1567.33
1567.5
1567.96
1568.34
1568.34
1568
1567.5
1567.09
1566.81
1566.79
1567.01
1567.29
1567.49
1567.5
1567.4
1567.37
1567.32
1567.5
1567.95
1568.31
1568.29
1567.95
1567.46
1567.06
1566.79
1566.76
1566.98
1567.25
1567.45
1567.47
1567.37
1567.36
1567.31
1567.49
1567.94
1568.28
1568.25
1567.91
1567.42
1567.03
1566.77
1566.73
1566.95
1567.22
1567.42
1567.44
1567.34
1567.34
1567.3
1567.49
1567.92
1568.24
1568.21
1567.87
1567.38
1567
1566.74
1566.71
1566.92
1567.18
1567.39
1567.41
1567.32
1567.33
1567.3
1567.49
1567.91
1568.21
1568.17
1567.83
1567.34
1566.97
1566.72
1566.68
1566.89
1567.15
1567.35
1567.38
1567.29
1567.32
1567.29
1567.48
1567.9
1568.18
1568.14
1567.79
1567.3
1566.94
1566.7
1566.66
1566.86
1567.12
1567.32
1567.35
1567.27
1567.3
1567.28
1567.48
1567.89
1568.15
1568.1
1567.75
1567.27
1566.91
1566.68
1566.63
1566.83
1567.09
1567.29
1567.32
1567.24
1567.29
1567.27
1567.47
1567.88
1568.12
1568.06
1567.71
1567.23
1566.88
1566.66
1566.61
1566.8
1567.06
1567.26
1567.29
1567.22
1567.27
1567.26
1567.47
1567.87
1568.1
1568.03
1567.67
1567.2
1566.86
1566.64
1566.59
1566.78
1567.03
1567.23
1567.26
1567.2
1567.26
1567.26
1567.47
1567.85
1568.07
1567.99
1567.63
1567.16
1566.83
1566.62
1566.57
1566.75
1567
1567.2
1567.24
1567.18
1567.25
1567.25
1567.46
1567.84
1568.04
1567.96
1567.6
1567.13
1566.8
1566.6
1566.55
1566.73
1566.97
1567.18
1567.22
1567.16
1567.23
1567.24
1567.46
1567.83
1568.02
1567.92
1567.57
1567.1
1566.78
1566.58
1566.53
1566.7
1566.94
1567.15
1567.19
1567.14
1567.22
1567.24
1567.45
1567.82
1567.99
1567.89
1567.53
1567.07
1566.75
1566.56
1566.51
1566.68
1566.92
1567.13
1567.17
1567.12
1567.21
1567.23
1567.45
1567.8
1567.96
1567.86
1567.5
1567.04
1566.73
1566.54
1566.49
1566.66
1566.9
1567.1
1567.15
1567.1
1567.19
1567.23
1567.45
1567.79
1567.94
1567.83
1567.47
1567.02
1566.71
1566.53
1566.48
1566.64
1566.87
1567.08
1567.13
1567.08
1567.18
1567.22
1567.44
1567.78
1567.91
1567.8
1567.44
1566.99
1566.69
1566.51
1566.46
1566.62
1566.85
1567.06
1567.11
1567.07
1567.17
1567.21
1567.44
1567.77
1567.89
1567.77
1567.41
1566.96
1566.66
1566.5
1566.45
1566.6
1566.83
1567.03
1567.09
1567.05
1567.15
1567.21
1567.43
1567.75
1567.87
1567.74
1567.38
1566.94
1566.64
1566.48
1566.43
1566.58
1566.81
1567.01
1567.07
1567.04
1567.14
1567.21
1567.43
1567.74
1567.85
1567.71
1567.35
1566.91
1566.62
1566.47
1566.42
1566.56
1566.79
1566.99
1567.06
1567.02
1567.12
1567.2
1567.43
1567.73
1567.83
1567.69
1567.32
1566.89
1566.61
1566.45
1566.4
1566.54
1566.77
1566.97
1567.04
1567.01
1567.11
1567.2
1567.42
1567.72
1567.8
1567.66
1567.3
1566.87
1566.59
1566.44
1566.39
1566.53
1566.75
1566.96
1567.02
1567
1567.1
1567.19
1567.42
1567.71
1567.78
1567.64
1567.27
1566.84
1566.57
1566.43
1566.38
1566.51
1566.73
1566.94
1567.01
1566.99
1567.08
1567.19
1567.41
1567.69
1567.77
1567.62
1567.25
1566.82
1566.55
1566.41
1566.37
1566.49
1566.71
1566.92
1566.99
1566.98
1567.07
1567.18
1567.41
1567.68
1567.75
1567.59
1567.22
1566.8
1566.54
1566.4
1566.35
1566.48
1566.7
1566.9
1566.98
1566.97
1567.06
1567.18
1567.41
1567.67
1567.73
1567.57
1567.2
1566.78
1566.52
1566.39
1566.34
1566.47
1566.68
1566.89
1566.97
1566.95
1567.04
1567.17
1567.4
1567.66
1567.71
1567.55
1567.18
1566.77
1566.51
1566.38
1566.33
1566.45
1566.67
1566.87
1566.95
1566.95
1567.03
1567.17
1567.4
1567.65
1567.7
1567.53
1567.16
1566.75
1566.49
1566.37
1566.32
1566.44
1566.65
1566.86
1566.94
1566.94
1567.02
1567.17
1567.39
1567.64
1567.68
1567.51
1567.14
1566.73
1566.48
1566.35
1566.31
1566.43
1566.64
1566.85
1566.93
1566.93
1567.01
1567.16
1567.39
1567.63
1567.66
1567.49
1567.12
1566.72
1566.47
1566.34
1566.3
1566.41
1566.63
1566.83
1566.92
1566.92
1567
1567.16
1567.39
1567.62
1567.65
1567.47
1567.1
1566.7
1566.45
1566.33
1566.3
1566.4
1566.61
1566.82
1566.9
1566.91
1566.98
1567.16
1567.38
1567.61
1567.63
1567.46
1567.09
1566.68
1566.44
1566.33
1566.29
1566.39
1566.6
1566.81
1566.89
1566.9
1566.97
1567.15
1567.38
1567.6
1567.62
1567.44
1567.07
1566.67
1566.43
1566.32
1566.28
1566.38
1566.59
1566.8
1566.88
1566.9
1566.96
1567.15
1567.38
1567.59
1567.61
1567.42
1567.06
1566.66
1566.42
1566.31
1566.27
1566.37
1566.58
1566.78
1566.87
1566.89
1566.95
1567.15
1567.37
1567.58
1567.6
1567.41
1567.04
1566.64
1566.41
1566.3
1566.26
1566.36
1566.57
1566.77
1566.86
1566.88
1566.94
1567.14
1567.37
1567.57
1567.58
1567.4
1567.03
1566.63
1566.4
1566.29
1566.26
1566.35
1566.56
1566.76
1566.86
1566.88
1566.93
1567.14
1567.37
1567.56
1567.57
1567.38
1567.01
1566.62
1566.39
1566.28
1566.25
1566.34
1566.55
1566.75
1566.85
1566.87
1566.93
1567.14
1567.36
1567.55
1567.56
1567.37
1567
1566.61
1566.38
1566.28
1566.24
1566.34
1566.54
1566.74
1566.84
1566.86
1566.92
1567.13
1567.36
1567.54
1567.55
1567.36
1566.99
1566.6
1566.37
1566.27
1566.24
1566.33
1566.53
1566.74
1566.83
1566.86
1566.91
1567.13
1567.36
1567.54
1567.54
1567.35
1566.98
1566.59
1566.36
1566.26
1566.23
1566.32
1566.53
1566.73
1566.82
1566.85
1566.9
1567.13
1567.35
1567.53
1567.53
1567.34
1566.97
1566.58
1566.36
1566.26
1566.23
1566.32
1566.52
1566.72
1566.82
1566.85
1566.9
1567.13
1567.35
1567.52
1567.53
1567.33
1566.96
1566.57
1566.35
1566.25
1566.22
1566.31
1566.51
1566.71
1566.81
1566.84
1566.89
1567.12
1567.35
1567.52
1567.52
1567.32
1566.95
1566.57
1566.34
1566.25
1566.22
1566.3
1566.51
1566.71
1566.8
1566.84
1566.88
1567.12
1567.35
1567.51
1567.51
1567.31
1566.94
1566.56
1566.34
1566.24
1566.21
1566.3
1566.5
1566.7
1566.8
1566.84
1566.88
1567.12
1567.34
1567.51
1567.51
1567.3
1566.94
1566.55
1566.33
1566.24
1566.21
1566.29
1566.49
1566.7
1566.79
1566.83
1566.87
1567.12
1567.34
1567.5
1567.5
1567.3
1566.93
1566.55
1566.33
1566.23
1566.2
1566.29
1566.49
1566.69
1566.79
1566.83
1566.87
1567.11
1567.34
1567.5
1567.5
1567.29
1566.92
1566.54
1566.33
1566.23
1566.2
1566.28
1566.49
1566.69
1566.79
1566.83
1566.86
1567.11
1567.34
1567.49
1567.49
1567.28
1566.92
1566.54
1566.32
1566.23
1566.2
1566.28
1566.48
1566.68
1566.78
1566.82
1566.86
1567.11
1567.33
1567.49
1567.49
1567.28
1566.91
1566.53
1566.32
1566.22
1566.2
1566.28
1566.48
1566.68
1566.78
1566.82
1566.86
1567.11
1567.33
1567.49
1567.48
1567.28
1566.91
1566.53
1566.32
1566.22
1566.19
1566.28
1566.47
1566.67
1566.78
1566.82
1566.85
1567.11
1567.33
1567.48
1567.48
1567.27
1566.91
1566.53
1566.31
1566.22
1566.19
1566.27
1566.47
1566.67
1566.77
1566.82
1566.85
1567.11
1567.33
1567.48
1567.48
1567.27
1566.9
1566.52
1566.31
1566.22
1566.19
1566.27
1566.47
1566.67
1566.77
1566.81
1566.85
1567.11
1567.33
1567.48
1567.48
1567.27
1566.9
1566.52
1566.31
1566.22
1566.19
1566.27
1566.47
1566.67
1566.77
1566.81
1566.85
1567.11
1567.33
1567.48
1567.47
1567.26
1566.9
1566.52
1566.31
1566.21
1566.19
1566.27
1566.47
1566.67
1566.77
1566.81
1566.85
1567.1
1567.33
1567.47
1567.47
1567.26
1566.9
1566.52
1566.31
1566.21
1566.19
1566.27
1566.46
1566.66
1566.77
1566.81
1566.85
1567.1
1567.33
1567.47
1567.47
1567.26
1566.9
1566.52
1566.3
1566.21
1566.19
1566.27
1566.46
1566.66
1566.76
1566.81
1566.84
1567.1
1567.33
1567.47
1567.47
1567.26
1566.89
1566.52
1566.3
1566.21
1566.18
1566.26
1566.46
1566.66
1566.76
1566.81
1566.84
1567.1
1567.33
1567.47
1567.47
1567.26
1566.89
1566.52
1566.3
1566.21
1566.18
1566.26
1566.46
1566.66
1566.76
1566.81
1566.84
1567.1
1567.33
1567.47