/*--------------------------------*- C++ -*----------------------------------*\
| =========                 |                                                 |
| \\      /  F ield         | OpenFOAM: The Open Source CFD Toolbox           |
|  \\    /   O peration     | Version:  v1912                                 |
|   \\  /    A nd           | Website:  www.openfoam.com                      |
|    \\/     M anipulation  |                                                 |
\*---------------------------------------------------------------------------*/
FoamFile
{
    version     2.0;
    format      ascii;
    class       volScalarField;
    location    "196.4";
    object      T;
}
// * * * * * * * * * * * * * * * * * * * * * * * * * * * * * * * * * * * * * //

dimensions      [0 0 0 1 0 0 0];


internalField   nonuniform List<scalar> 
10077
(
347.031
346.864
346.62
346.497
346.448
346.442
346.448
346.457
346.458
346.454
346.444
346.436
346.443
346.491
346.615
346.861
346.979
346.816
346.575
346.451
346.401
346.394
346.4
346.408
346.409
346.405
346.396
346.388
346.396
346.446
346.57
346.812
346.927
346.768
346.53
346.406
346.355
346.346
346.352
346.36
346.361
346.357
346.348
346.341
346.349
346.401
346.526
346.764
346.876
346.72
346.486
346.362
346.309
346.299
346.305
346.312
346.314
346.31
346.301
346.295
346.304
346.356
346.481
346.716
346.826
346.672
346.442
346.318
346.264
346.253
346.258
346.265
346.267
346.263
346.254
346.248
346.259
346.312
346.437
346.669
346.776
346.624
346.398
346.274
346.219
346.208
346.212
346.219
346.22
346.217
346.208
346.203
346.214
346.269
346.393
346.621
346.726
346.577
346.354
346.231
346.175
346.163
346.166
346.173
346.174
346.171
346.163
346.158
346.17
346.226
346.35
346.574
346.676
346.53
346.311
346.188
346.131
346.118
346.121
346.127
346.128
346.125
346.117
346.113
346.126
346.183
346.306
346.527
346.627
346.483
346.268
346.145
346.088
346.074
346.076
346.082
346.083
346.08
346.073
346.069
346.083
346.14
346.263
346.48
346.578
346.436
346.224
346.103
346.045
346.03
346.032
346.038
346.039
346.036
346.028
346.025
346.04
346.098
346.22
346.433
346.53
346.39
346.181
346.061
346.002
345.986
345.988
345.993
345.994
345.991
345.984
345.982
345.997
346.056
346.177
346.386
346.481
346.343
346.139
346.019
345.959
345.943
345.944
345.949
345.95
345.947
345.941
345.939
345.955
346.014
346.134
346.34
346.433
346.297
346.096
345.977
345.917
345.9
345.901
345.906
345.907
345.904
345.898
345.896
345.912
345.972
346.092
346.294
346.385
346.251
346.053
345.935
345.875
345.858
345.858
345.863
345.863
345.861
345.855
345.853
345.87
345.931
346.049
346.248
346.337
346.205
346.011
345.894
345.833
345.815
345.815
345.819
345.82
345.818
345.812
345.811
345.828
345.89
346.007
346.202
346.29
346.16
345.969
345.853
345.791
345.773
345.773
345.777
345.777
345.775
345.769
345.769
345.787
345.848
345.965
346.157
346.243
346.115
345.926
345.811
345.749
345.731
345.73
345.734
345.735
345.732
345.727
345.727
345.745
345.807
345.922
346.112
346.196
346.069
345.884
345.77
345.708
345.689
345.688
345.692
345.692
345.69
345.685
345.685
345.704
345.766
345.88
346.067
346.15
346.025
345.842
345.729
345.666
345.647
345.646
345.65
345.65
345.648
345.643
345.643
345.662
345.725
345.838
346.022
346.104
345.98
345.8
345.688
345.625
345.605
345.604
345.607
345.608
345.606
345.601
345.602
345.621
345.684
345.796
345.977
346.058
345.935
345.758
345.647
345.583
345.564
345.562
345.565
345.566
345.564
345.559
345.56
345.579
345.643
345.754
345.933
346.012
345.891
345.716
345.605
345.542
345.522
345.521
345.524
345.524
345.522
345.518
345.518
345.538
345.601
345.712
345.888
345.967
345.847
345.674
345.564
345.501
345.48
345.479
345.482
345.482
345.48
345.476
345.477
345.497
345.56
345.67
345.844
345.922
345.803
345.632
345.523
345.459
345.439
345.437
345.44
345.44
345.438
345.434
345.435
345.455
345.519
345.628
345.8
345.877
345.759
345.589
345.481
345.417
345.397
345.395
345.398
345.398
345.396
345.392
345.393
345.413
345.477
345.586
345.756
345.832
345.715
345.547
345.44
345.375
345.355
345.353
345.356
345.356
345.354
345.35
345.351
345.371
345.436
345.543
345.712
345.787
345.671
345.504
345.398
345.333
345.313
345.311
345.314
345.314
345.312
345.308
345.309
345.329
345.394
345.501
345.668
345.743
345.627
345.461
345.355
345.291
345.271
345.269
345.271
345.271
345.27
345.266
345.267
345.287
345.352
345.458
345.624
345.698
345.582
345.418
345.313
345.248
345.228
345.226
345.229
345.229
345.227
345.223
345.224
345.244
345.309
345.415
345.58
345.652
345.538
345.374
345.27
345.204
345.185
345.183
345.186
345.185
345.184
345.18
345.181
345.201
345.266
345.371
345.535
345.607
345.493
345.33
345.225
345.16
345.14
345.139
345.142
345.141
345.14
345.136
345.137
345.157
345.222
345.326
345.49
345.561
345.447
345.284
345.18
345.115
345.095
345.094
345.097
345.097
345.095
345.091
345.092
345.111
345.177
345.281
345.444
345.514
345.4
345.237
345.134
345.069
345.049
345.048
345.051
345.05
345.049
345.045
345.046
345.065
345.131
345.234
345.397
345.467
345.351
345.189
345.087
345.021
345.002
345.001
345.004
345.003
345.002
344.998
344.998
345.018
345.083
345.186
345.348
345.418
345.301
345.14
345.038
344.972
344.953
344.952
344.955
344.954
344.953
344.95
344.95
344.969
345.035
345.136
345.298
345.367
345.25
345.089
344.988
344.922
344.903
344.902
344.905
344.904
344.903
344.9
344.9
344.918
344.984
345.085
345.247
345.314
345.197
345.036
344.936
344.87
344.851
344.851
344.853
344.853
344.851
344.848
344.848
344.866
344.932
345.033
345.194
345.26
345.142
344.982
344.882
344.816
344.797
344.797
344.799
344.799
344.798
344.794
344.794
344.812
344.879
344.978
345.139
345.204
345.085
344.925
344.826
344.76
344.742
344.742
344.744
344.744
344.742
344.739
344.738
344.757
344.823
344.922
345.082
345.146
345.026
344.867
344.769
344.702
344.684
344.684
344.686
344.686
344.685
344.682
344.681
344.699
344.765
344.863
345.023
345.086
344.965
344.806
344.708
344.642
344.624
344.625
344.627
344.626
344.625
344.622
344.621
344.638
344.705
344.803
344.962
345.024
344.902
344.743
344.646
344.579
344.562
344.563
344.565
344.564
344.563
344.56
344.559
344.576
344.643
344.74
344.899
344.959
344.836
344.677
344.581
344.514
344.497
344.498
344.5
344.5
344.499
344.496
344.494
344.511
344.578
344.674
344.834
344.892
344.768
344.609
344.513
344.446
344.429
344.431
344.433
344.433
344.432
344.428
344.426
344.443
344.51
344.605
344.765
344.822
344.697
344.538
344.443
344.375
344.359
344.361
344.363
344.363
344.362
344.359
344.356
344.372
344.44
344.534
344.694
344.75
344.623
344.463
344.369
344.301
344.286
344.288
344.29
344.29
344.289
344.286
344.283
344.299
344.366
344.46
344.62
344.674
344.546
344.386
344.293
344.225
344.21
344.213
344.215
344.214
344.213
344.21
344.207
344.222
344.29
344.383
344.543
344.595
344.466
344.305
344.213
344.145
344.13
344.133
344.135
344.135
344.134
344.131
344.127
344.142
344.21
344.302
344.463
344.513
344.382
344.221
344.129
344.061
344.047
344.051
344.053
344.052
344.051
344.048
344.044
344.058
344.126
344.217
344.379
344.427
344.294
344.133
344.042
343.973
343.96
343.964
343.966
343.965
343.965
343.962
343.957
343.97
344.039
344.129
344.291
344.337
344.202
344.04
343.95
343.881
343.868
343.873
343.875
343.875
343.874
343.871
343.866
343.878
343.947
344.036
344.199
344.242
344.105
343.942
343.854
343.784
343.772
343.778
343.78
343.779
343.778
343.775
343.77
343.782
343.851
343.939
344.102
344.141
344.003
343.84
343.752
343.682
343.671
343.677
343.679
343.678
343.678
343.675
343.668
343.68
343.749
343.836
344
344.035
343.895
343.731
343.644
343.574
343.564
343.57
343.572
343.572
343.571
343.568
343.561
343.572
343.641
343.727
343.892
343.923
343.78
343.615
343.53
343.46
343.45
343.457
343.459
343.458
343.458
343.455
343.447
343.457
343.527
343.612
343.777
343.802
343.657
343.491
343.408
343.337
343.328
343.336
343.338
343.337
343.336
343.333
343.325
343.334
343.405
343.488
343.654
343.672
343.525
343.358
343.276
343.205
343.197
343.205
343.207
343.206
343.206
343.203
343.194
343.202
343.273
343.355
343.521
343.532
343.381
343.214
343.133
343.062
343.055
343.064
343.066
343.065
343.065
343.062
343.052
343.059
343.13
343.211
343.378
343.379
343.225
343.057
342.977
342.906
342.9
342.91
342.912
342.911
342.91
342.907
342.897
342.904
342.975
343.053
343.222
343.21
343.054
342.884
342.806
342.735
342.729
342.74
342.742
342.742
342.741
342.738
342.727
342.732
342.804
342.881
343.051
343.023
342.864
342.692
342.617
342.545
342.54
342.552
342.555
342.554
342.553
342.55
342.538
342.542
342.614
342.689
342.86
342.814
342.65
342.477
342.404
342.331
342.329
342.341
342.344
342.343
342.343
342.339
342.326
342.329
342.401
342.474
342.647
342.576
342.408
342.233
342.162
342.089
342.088
342.102
342.104
342.104
342.103
342.1
342.085
342.087
342.159
342.229
342.405
342.301
342.127
341.949
341.881
341.807
341.808
341.823
341.826
341.826
341.825
341.821
341.806
341.806
341.878
341.946
342.124
341.973
341.791
341.608
341.543
341.468
341.471
341.488
341.492
341.492
341.491
341.487
341.469
341.467
341.541
341.605
341.788
341.563
341.371
341.181
341.12
341.045
341.05
341.07
341.075
341.074
341.074
341.068
341.049
341.044
341.118
341.178
341.367
341.033
340.827
340.629
340.573
340.496
340.505
340.529
340.534
340.534
340.534
340.527
340.504
340.495
340.572
340.626
340.824
340.322
340.1
339.89
339.841
339.762
339.776
339.803
339.811
339.81
339.81
339.802
339.775
339.762
339.84
339.888
340.096
339.343
339.099
338.876
338.835
338.754
338.774
338.806
338.816
338.815
338.815
338.805
338.773
338.755
338.834
338.874
339.096
337.984
337.717
337.478
337.447
337.365
337.391
337.43
337.442
337.441
337.441
337.429
337.391
337.367
337.448
337.477
337.713
336.15
335.864
335.616
335.594
335.512
335.545
335.588
335.602
335.602
335.602
335.588
335.546
335.515
335.596
335.615
335.861
333.841
333.55
333.303
333.29
333.211
333.247
333.293
333.308
333.308
333.308
333.293
333.248
333.214
333.292
333.302
333.547
331.181
330.904
330.673
330.665
330.593
330.628
330.673
330.688
330.688
330.688
330.674
330.63
330.595
330.667
330.672
330.901
328.345
328.096
327.893
327.888
327.825
327.858
327.898
327.911
327.911
327.912
327.898
327.859
327.827
327.89
327.892
328.094
325.462
325.253
325.083
325.08
325.028
325.056
325.09
325.101
325.101
325.101
325.09
325.057
325.03
325.082
325.083
325.251
322.601
322.437
322.305
322.303
322.262
322.284
322.31
322.319
322.319
322.32
322.311
322.285
322.263
322.304
322.304
322.436
319.789
319.672
319.578
319.576
319.547
319.563
319.582
319.588
319.588
319.588
319.582
319.563
319.548
319.577
319.577
319.671
317.032
316.963
316.906
316.906
316.888
316.898
316.909
316.913
316.913
316.913
316.909
316.898
316.889
316.906
316.906
316.962
314.332
314.309
314.291
314.291
314.285
314.288
314.292
314.293
314.293
314.293
314.292
314.288
314.285
314.291
314.291
314.309
346.569
346.695
346.841
346.853
346.823
346.775
346.743
346.722
346.716
346.719
346.738
346.77
346.817
346.848
346.838
346.694
346.522
346.642
346.781
346.792
346.762
346.715
346.684
346.662
346.656
346.66
346.679
346.71
346.756
346.787
346.778
346.64
346.476
346.59
346.722
346.732
346.703
346.657
346.625
346.604
346.598
346.602
346.621
346.651
346.697
346.728
346.719
346.588
346.431
346.539
346.664
346.674
346.645
346.599
346.568
346.548
346.542
346.545
346.564
346.594
346.639
346.669
346.661
346.537
346.387
346.489
346.608
346.617
346.588
346.543
346.512
346.492
346.486
346.49
346.508
346.538
346.582
346.612
346.605
346.488
346.343
346.441
346.552
346.561
346.532
346.488
346.458
346.438
346.432
346.435
346.454
346.483
346.526
346.556
346.55
346.439
346.301
346.393
346.498
346.505
346.477
346.434
346.404
346.384
346.379
346.382
346.4
346.429
346.471
346.501
346.495
346.391
346.258
346.346
346.445
346.451
346.422
346.38
346.351
346.332
346.326
346.33
346.347
346.375
346.417
346.447
346.442
346.345
346.216
346.299
346.393
346.398
346.369
346.328
346.299
346.28
346.275
346.278
346.295
346.323
346.364
346.394
346.39
346.298
346.175
346.254
346.341
346.345
346.317
346.276
346.248
346.229
346.224
346.227
346.244
346.272
346.312
346.341
346.339
346.252
346.134
346.208
346.291
346.294
346.265
346.225
346.198
346.179
346.174
346.177
346.194
346.221
346.261
346.29
346.288
346.207
346.092
346.163
346.241
346.242
346.214
346.175
346.148
346.13
346.124
346.127
346.144
346.171
346.21
346.239
346.238
346.162
346.051
346.119
346.191
346.192
346.164
346.126
346.099
346.081
346.075
346.079
346.095
346.121
346.16
346.188
346.189
346.118
346.011
346.075
346.143
346.142
346.114
346.077
346.05
346.032
346.027
346.03
346.046
346.072
346.11
346.139
346.14
346.074
345.97
346.031
346.094
346.093
346.065
346.028
346.002
345.984
345.979
345.982
345.998
346.024
346.061
346.089
346.092
346.03
345.929
345.987
346.047
346.044
346.017
345.98
345.954
345.937
345.932
345.935
345.951
345.976
346.012
346.041
346.044
345.986
345.888
345.943
345.999
345.996
345.969
345.932
345.907
345.89
345.885
345.888
345.904
345.928
345.964
345.993
345.997
345.942
345.847
345.9
345.952
345.948
345.921
345.885
345.86
345.843
345.838
345.841
345.857
345.881
345.917
345.945
345.95
345.899
345.806
345.856
345.906
345.901
345.874
345.838
345.814
345.797
345.792
345.795
345.81
345.834
345.87
345.898
345.903
345.855
345.765
345.813
345.859
345.854
345.827
345.791
345.767
345.751
345.746
345.749
345.764
345.787
345.823
345.85
345.857
345.812
345.723
345.769
345.813
345.807
345.78
345.745
345.721
345.705
345.7
345.703
345.718
345.741
345.776
345.804
345.811
345.768
345.681
345.726
345.767
345.76
345.733
345.699
345.675
345.659
345.654
345.657
345.672
345.695
345.729
345.757
345.764
345.725
345.639
345.682
345.72
345.713
345.687
345.652
345.629
345.613
345.608
345.611
345.626
345.649
345.683
345.71
345.718
345.681
345.596
345.638
345.674
345.667
345.64
345.606
345.583
345.567
345.562
345.565
345.58
345.602
345.636
345.664
345.672
345.637
345.552
345.594
345.628
345.62
345.594
345.56
345.537
345.521
345.516
345.519
345.534
345.556
345.59
345.617
345.626
345.593
345.507
345.549
345.582
345.573
345.547
345.514
345.491
345.475
345.47
345.473
345.488
345.51
345.544
345.571
345.58
345.548
345.461
345.503
345.536
345.527
345.501
345.467
345.445
345.429
345.424
345.427
345.442
345.464
345.497
345.524
345.534
345.502
345.415
345.457
345.489
345.48
345.454
345.421
345.398
345.382
345.378
345.38
345.395
345.417
345.45
345.477
345.487
345.456
345.368
345.41
345.441
345.432
345.406
345.373
345.351
345.335
345.33
345.333
345.348
345.37
345.403
345.429
345.44
345.409
345.32
345.362
345.393
345.384
345.358
345.325
345.303
345.287
345.283
345.285
345.3
345.322
345.355
345.381
345.392
345.361
345.272
345.314
345.344
345.335
345.309
345.277
345.255
345.238
345.234
345.236
345.252
345.273
345.306
345.332
345.343
345.313
345.223
345.265
345.294
345.285
345.259
345.227
345.205
345.189
345.185
345.187
345.202
345.224
345.256
345.282
345.293
345.264
345.173
345.215
345.243
345.234
345.208
345.176
345.155
345.138
345.134
345.136
345.152
345.173
345.205
345.231
345.242
345.214
345.122
345.163
345.191
345.181
345.156
345.124
345.103
345.086
345.083
345.085
345.1
345.121
345.153
345.179
345.19
345.163
345.069
345.111
345.138
345.128
345.103
345.071
345.05
345.033
345.03
345.032
345.047
345.068
345.1
345.125
345.136
345.11
345.015
345.056
345.083
345.073
345.048
345.017
344.996
344.979
344.975
344.977
344.993
345.013
345.045
345.07
345.082
345.056
344.959
345
345.026
345.016
344.992
344.96
344.94
344.923
344.919
344.921
344.937
344.957
344.989
345.014
345.025
345
344.901
344.943
344.968
344.958
344.934
344.903
344.882
344.865
344.862
344.864
344.879
344.899
344.931
344.956
344.967
344.942
344.84
344.883
344.908
344.898
344.874
344.843
344.822
344.806
344.802
344.804
344.82
344.84
344.871
344.896
344.907
344.882
344.778
344.821
344.846
344.835
344.812
344.781
344.761
344.744
344.74
344.742
344.758
344.778
344.809
344.833
344.844
344.82
344.713
344.757
344.781
344.771
344.747
344.717
344.697
344.68
344.677
344.678
344.694
344.714
344.745
344.769
344.78
344.756
344.646
344.69
344.714
344.705
344.681
344.651
344.631
344.614
344.611
344.612
344.628
344.648
344.678
344.702
344.713
344.69
344.577
344.621
344.645
344.636
344.612
344.582
344.563
344.545
344.542
344.544
344.56
344.579
344.61
344.634
344.644
344.621
344.504
344.55
344.574
344.564
344.541
344.511
344.492
344.474
344.471
344.473
344.489
344.508
344.538
344.562
344.573
344.55
344.429
344.476
344.499
344.49
344.467
344.438
344.418
344.401
344.398
344.399
344.416
344.435
344.465
344.488
344.498
344.476
344.351
344.399
344.422
344.413
344.391
344.361
344.342
344.324
344.322
344.323
344.34
344.358
344.388
344.411
344.421
344.399
344.269
344.319
344.342
344.334
344.311
344.282
344.263
344.245
344.242
344.244
344.261
344.279
344.309
344.332
344.341
344.319
344.185
344.236
344.259
344.251
344.229
344.199
344.181
344.163
344.16
344.161
344.178
344.197
344.226
344.249
344.258
344.235
344.096
344.149
344.172
344.164
344.142
344.114
344.095
344.077
344.074
344.076
344.093
344.111
344.14
344.163
344.172
344.149
344.004
344.058
344.082
344.074
344.053
344.024
344.006
343.987
343.985
343.986
344.003
344.021
344.05
344.072
344.081
344.058
343.907
343.963
343.987
343.98
343.959
343.93
343.912
343.893
343.891
343.892
343.91
343.927
343.956
343.978
343.986
343.963
343.805
343.863
343.887
343.881
343.86
343.831
343.813
343.795
343.792
343.793
343.811
343.829
343.858
343.879
343.887
343.863
343.698
343.758
343.782
343.776
343.756
343.727
343.71
343.691
343.689
343.69
343.708
343.725
343.754
343.775
343.782
343.758
343.585
343.647
343.671
343.666
343.646
343.618
343.6
343.581
343.579
343.58
343.598
343.615
343.644
343.664
343.671
343.647
343.464
343.529
343.554
343.549
343.529
343.501
343.484
343.464
343.462
343.463
343.481
343.499
343.527
343.547
343.553
343.529
343.335
343.402
343.428
343.423
343.404
343.376
343.359
343.34
343.338
343.338
343.357
343.374
343.402
343.422
343.427
343.403
343.196
343.266
343.292
343.288
343.27
343.242
343.225
343.206
343.204
343.204
343.223
343.24
343.268
343.287
343.292
343.267
343.046
343.119
343.145
343.143
343.125
343.097
343.08
343.06
343.059
343.059
343.078
343.095
343.123
343.142
343.145
343.119
342.882
342.958
342.985
342.984
342.966
342.939
342.922
342.902
342.901
342.901
342.92
342.937
342.965
342.983
342.986
342.959
342.702
342.782
342.81
342.809
342.792
342.765
342.749
342.729
342.727
342.728
342.747
342.763
342.791
342.808
342.81
342.782
342.502
342.586
342.615
342.616
342.6
342.573
342.557
342.536
342.535
342.535
342.555
342.571
342.598
342.615
342.616
342.587
342.279
342.367
342.397
342.399
342.384
342.357
342.341
342.321
342.32
342.32
342.34
342.356
342.383
342.398
342.398
342.367
342.024
342.118
342.15
342.153
342.139
342.113
342.097
342.076
342.075
342.075
342.095
342.111
342.138
342.152
342.15
342.118
341.729
341.829
341.864
341.869
341.856
341.83
341.815
341.794
341.793
341.792
341.813
341.829
341.856
341.868
341.865
341.83
341.375
341.483
341.521
341.529
341.519
341.493
341.478
341.456
341.455
341.455
341.476
341.492
341.518
341.529
341.523
341.484
340.932
341.051
341.095
341.106
341.098
341.073
341.058
341.035
341.035
341.034
341.056
341.072
341.098
341.106
341.097
341.053
340.362
340.495
340.545
340.56
340.556
340.531
340.517
340.494
340.493
340.493
340.516
340.53
340.556
340.561
340.547
340.496
339.602
339.752
339.812
339.833
339.833
339.809
339.795
339.771
339.771
339.77
339.794
339.809
339.834
339.835
339.815
339.754
338.563
338.736
338.807
338.835
338.841
338.818
338.805
338.78
338.781
338.78
338.805
338.819
338.843
338.838
338.811
338.739
337.141
337.338
337.422
337.459
337.472
337.45
337.438
337.412
337.414
337.412
337.438
337.452
337.475
337.463
337.428
337.342
335.258
335.476
335.572
335.616
335.635
335.615
335.604
335.578
335.58
335.578
335.605
335.617
335.639
335.621
335.578
335.48
332.938
333.164
333.265
333.312
333.335
333.317
333.307
333.282
333.284
333.282
333.308
333.32
333.34
333.318
333.271
333.169
330.319
330.537
330.634
330.68
330.703
330.688
330.678
330.655
330.657
330.655
330.679
330.69
330.708
330.686
330.64
330.542
327.57
327.767
327.852
327.893
327.914
327.901
327.892
327.872
327.874
327.873
327.893
327.903
327.918
327.898
327.858
327.771
324.808
324.974
325.045
325.078
325.096
325.085
325.078
325.061
325.062
325.062
325.078
325.087
325.099
325.083
325.049
324.977
322.086
322.216
322.271
322.297
322.311
322.303
322.297
322.284
322.285
322.284
322.297
322.304
322.314
322.301
322.275
322.219
319.42
319.513
319.552
319.571
319.581
319.575
319.57
319.561
319.562
319.562
319.571
319.576
319.582
319.573
319.555
319.515
316.813
316.868
316.891
316.902
316.908
316.904
316.902
316.897
316.897
316.897
316.902
316.905
316.909
316.904
316.893
316.869
314.26
314.278
314.286
314.289
314.291
314.29
314.289
314.288
314.288
314.288
314.289
314.29
314.292
314.29
314.286
314.279
347.034
346.861
346.611
346.487
346.438
346.431
346.438
346.446
346.448
346.444
346.434
346.426
346.432
346.481
346.607
346.857
346.981
346.812
346.567
346.442
346.391
346.384
346.39
346.398
346.399
346.396
346.386
346.379
346.386
346.436
346.562
346.809
346.929
346.764
346.522
346.397
346.345
346.337
346.342
346.35
346.352
346.348
346.338
346.332
346.34
346.392
346.518
346.761
346.878
346.716
346.478
346.353
346.3
346.29
346.296
346.303
346.305
346.301
346.292
346.286
346.295
346.348
346.474
346.713
346.827
346.668
346.435
346.309
346.255
346.245
346.249
346.257
346.258
346.254
346.246
346.24
346.25
346.304
346.43
346.665
346.777
346.621
346.391
346.266
346.211
346.2
346.204
346.211
346.212
346.209
346.2
346.195
346.206
346.261
346.386
346.618
346.727
346.573
346.347
346.223
346.167
346.155
346.158
346.165
346.166
346.163
346.155
346.15
346.162
346.218
346.343
346.57
346.677
346.526
346.304
346.18
346.123
346.111
346.114
346.12
346.121
346.118
346.11
346.106
346.118
346.175
346.3
346.523
346.627
346.479
346.261
346.138
346.08
346.067
346.069
346.075
346.076
346.073
346.066
346.062
346.075
346.133
346.257
346.476
346.578
346.432
346.218
346.096
346.037
346.023
346.025
346.031
346.032
346.029
346.022
346.018
346.032
346.091
346.214
346.429
346.529
346.386
346.175
346.054
345.994
345.98
345.981
345.987
345.988
345.985
345.978
345.975
345.99
346.049
346.171
346.383
346.48
346.339
346.132
346.012
345.952
345.937
345.938
345.943
345.944
345.941
345.934
345.932
345.947
346.007
346.128
346.336
346.432
346.293
346.09
345.97
345.91
345.894
345.895
345.899
345.9
345.898
345.891
345.89
345.905
345.966
346.085
346.29
346.383
346.247
346.047
345.929
345.868
345.851
345.852
345.856
345.857
345.854
345.848
345.847
345.863
345.924
346.043
346.244
346.335
346.201
346.005
345.887
345.826
345.809
345.809
345.813
345.814
345.811
345.805
345.805
345.822
345.883
346.001
346.198
346.288
346.155
345.962
345.846
345.784
345.766
345.766
345.77
345.771
345.769
345.763
345.762
345.78
345.841
345.958
346.152
346.24
346.109
345.92
345.804
345.742
345.724
345.724
345.728
345.728
345.726
345.721
345.72
345.738
345.8
345.916
346.106
346.193
346.064
345.877
345.763
345.701
345.682
345.681
345.685
345.685
345.683
345.678
345.678
345.697
345.759
345.874
346.061
346.146
346.019
345.835
345.722
345.659
345.64
345.639
345.643
345.643
345.641
345.636
345.636
345.655
345.718
345.831
346.016
346.099
345.974
345.793
345.68
345.617
345.598
345.597
345.6
345.601
345.599
345.594
345.594
345.613
345.676
345.789
345.971
346.053
345.929
345.75
345.639
345.576
345.556
345.555
345.558
345.558
345.556
345.552
345.552
345.572
345.635
345.746
345.926
346.006
345.884
345.708
345.597
345.534
345.514
345.513
345.516
345.516
345.514
345.51
345.51
345.53
345.593
345.704
345.881
345.96
345.839
345.665
345.556
345.492
345.472
345.47
345.473
345.473
345.472
345.467
345.468
345.488
345.552
345.661
345.836
345.914
345.794
345.622
345.514
345.45
345.43
345.428
345.431
345.431
345.429
345.425
345.426
345.446
345.51
345.619
345.791
345.868
345.749
345.58
345.471
345.407
345.387
345.386
345.388
345.388
345.387
345.383
345.384
345.404
345.468
345.576
345.746
345.822
345.704
345.536
345.429
345.364
345.344
345.343
345.346
345.346
345.344
345.34
345.341
345.36
345.425
345.533
345.702
345.775
345.659
345.493
345.385
345.321
345.301
345.3
345.302
345.302
345.301
345.297
345.297
345.317
345.381
345.489
345.657
345.729
345.614
345.448
345.341
345.276
345.257
345.256
345.258
345.258
345.257
345.253
345.253
345.273
345.338
345.444
345.611
345.682
345.568
345.403
345.297
345.232
345.212
345.211
345.214
345.214
345.212
345.208
345.209
345.228
345.293
345.399
345.566
345.635
345.522
345.357
345.252
345.186
345.167
345.166
345.168
345.168
345.167
345.163
345.163
345.183
345.248
345.353
345.519
345.588
345.474
345.31
345.206
345.14
345.121
345.12
345.122
345.122
345.121
345.117
345.117
345.137
345.202
345.306
345.472
345.54
345.426
345.262
345.159
345.093
345.074
345.073
345.075
345.075
345.074
345.07
345.07
345.09
345.155
345.259
345.423
345.491
345.376
345.214
345.111
345.045
345.026
345.025
345.027
345.027
345.026
345.022
345.023
345.042
345.107
345.21
345.373
345.44
345.325
345.164
345.062
344.996
344.977
344.976
344.978
344.978
344.977
344.973
344.973
344.992
345.058
345.16
345.323
345.389
345.273
345.112
345.011
344.945
344.926
344.926
344.928
344.927
344.926
344.923
344.923
344.942
345.008
345.109
345.27
345.335
345.22
345.06
344.96
344.893
344.875
344.874
344.876
344.876
344.875
344.871
344.871
344.89
344.956
345.056
345.217
345.281
345.165
345.006
344.906
344.84
344.821
344.821
344.823
344.822
344.821
344.818
344.818
344.837
344.903
345.002
345.162
345.225
345.109
344.95
344.851
344.785
344.766
344.766
344.768
344.768
344.767
344.763
344.763
344.782
344.848
344.947
345.106
345.167
345.05
344.892
344.794
344.728
344.709
344.709
344.711
344.711
344.71
344.707
344.706
344.725
344.791
344.889
345.048
345.107
344.99
344.833
344.735
344.669
344.651
344.651
344.653
344.652
344.651
344.648
344.648
344.666
344.732
344.829
344.988
345.046
344.928
344.771
344.674
344.607
344.59
344.59
344.592
344.591
344.591
344.587
344.587
344.604
344.671
344.768
344.926
344.983
344.864
344.707
344.611
344.544
344.526
344.527
344.529
344.529
344.528
344.525
344.524
344.541
344.608
344.704
344.862
344.917
344.798
344.641
344.545
344.478
344.461
344.462
344.464
344.463
344.463
344.459
344.458
344.475
344.542
344.637
344.795
344.85
344.729
344.572
344.477
344.41
344.393
344.394
344.397
344.396
344.395
344.392
344.39
344.407
344.474
344.569
344.727
344.78
344.658
344.501
344.407
344.339
344.323
344.325
344.327
344.326
344.325
344.322
344.32
344.337
344.404
344.498
344.655
344.708
344.585
344.427
344.334
344.266
344.25
344.252
344.254
344.254
344.253
344.25
344.247
344.263
344.331
344.424
344.582
344.633
344.508
344.351
344.258
344.19
344.175
344.177
344.179
344.178
344.178
344.175
344.172
344.187
344.255
344.347
344.506
344.555
344.429
344.271
344.18
344.111
344.096
344.099
344.101
344.1
344.1
344.097
344.094
344.109
344.176
344.268
344.427
344.475
344.347
344.189
344.098
344.029
344.015
344.018
344.02
344.019
344.019
344.016
344.012
344.027
344.095
344.185
344.344
344.391
344.262
344.103
344.013
343.944
343.93
343.934
343.936
343.935
343.935
343.931
343.927
343.941
344.01
344.099
344.259
344.304
344.173
344.013
343.924
343.855
343.841
343.845
343.848
343.847
343.847
343.843
343.839
343.852
343.921
344.01
344.17
344.213
344.079
343.919
343.831
343.762
343.749
343.753
343.756
343.755
343.755
343.751
343.746
343.759
343.828
343.916
344.076
344.117
343.981
343.821
343.733
343.664
343.652
343.657
343.659
343.658
343.658
343.654
343.649
343.661
343.73
343.818
343.978
344.016
343.878
343.717
343.631
343.561
343.549
343.555
343.558
343.556
343.556
343.552
343.547
343.558
343.628
343.714
343.875
343.91
343.769
343.607
343.522
343.452
343.441
343.447
343.45
343.448
343.449
343.445
343.438
343.449
343.519
343.604
343.766
343.796
343.653
343.49
343.406
343.335
343.325
343.332
343.335
343.334
343.334
343.33
343.323
343.333
343.403
343.487
343.65
343.674
343.528
343.365
343.282
343.211
343.201
343.209
343.212
343.21
343.211
343.206
343.199
343.208
343.279
343.362
343.525
343.542
343.394
343.229
343.147
343.076
343.068
343.076
343.079
343.078
343.078
343.073
343.065
343.074
343.145
343.226
343.39
343.399
343.247
343.082
343.001
342.93
342.922
342.931
342.935
342.933
342.934
342.929
342.92
342.928
342.999
343.079
343.244
343.242
343.086
342.921
342.841
342.77
342.763
342.772
342.776
342.774
342.775
342.77
342.761
342.768
342.839
342.917
343.083
343.068
342.908
342.741
342.664
342.592
342.586
342.596
342.601
342.599
342.6
342.594
342.584
342.59
342.661
342.738
342.905
342.873
342.709
342.541
342.465
342.393
342.388
342.399
342.404
342.402
342.403
342.397
342.386
342.391
342.462
342.537
342.706
342.651
342.482
342.312
342.239
342.166
342.163
342.175
342.18
342.178
342.179
342.173
342.161
342.164
342.236
342.309
342.479
342.394
342.218
342.046
341.975
341.901
341.9
341.913
341.919
341.916
341.918
341.911
341.898
341.9
341.972
342.043
342.215
342.086
341.9
341.724
341.655
341.581
341.582
341.597
341.603
341.601
341.602
341.595
341.58
341.58
341.653
341.721
341.897
341.7
341.502
341.32
341.255
341.18
341.183
341.2
341.208
341.205
341.207
341.199
341.181
341.179
341.253
341.317
341.499
341.198
340.985
340.796
340.735
340.658
340.665
340.685
340.694
340.691
340.694
340.684
340.664
340.658
340.734
340.793
340.981
340.523
340.289
340.09
340.035
339.956
339.967
339.992
340.003
340
340.002
339.991
339.967
339.957
340.035
340.088
340.285
339.585
339.326
339.115
339.067
338.986
339.003
339.032
339.046
339.043
339.046
339.032
339.003
338.987
339.067
339.113
339.322
338.271
337.982
337.759
337.72
337.637
337.66
337.695
337.712
337.709
337.712
337.695
337.661
337.639
337.721
337.757
337.979
336.477
336.163
335.931
335.902
335.818
335.847
335.887
335.907
335.903
335.907
335.888
335.849
335.821
335.904
335.93
336.159
334.188
333.865
333.634
333.613
333.531
333.564
333.608
333.629
333.625
333.629
333.609
333.567
333.535
333.615
333.633
333.861
331.522
331.21
330.994
330.979
330.904
330.937
330.98
331
330.997
331.001
330.981
330.94
330.907
330.981
330.993