/*--------------------------------*- C++ -*----------------------------------*\
| =========                 |                                                 |
| \\      /  F ield         | OpenFOAM: The Open Source CFD Toolbox           |
|  \\    /   O peration     | Version:  v1906                                 |
|   \\  /    A nd           | Web:      www.OpenFOAM.com                      |
|    \\/     M anipulation  |                                                 |
\*---------------------------------------------------------------------------*/
FoamFile
{
    version     2.0;
    format      ascii;
    class       volScalarField;
    location    "97.6";
    object      nut;
}
// * * * * * * * * * * * * * * * * * * * * * * * * * * * * * * * * * * * * * //

dimensions      [0 2 -1 0 0 0 0];


internalField   nonuniform List<scalar> 
630
(
1.4016e-05
1.13016e-05
7.68513e-06
1.13373e-05
1.40726e-05
1.13657e-05
7.6528e-06
1.13656e-05
1.41057e-05
5.10385e-06
7.6197e-06
1.13796e-05
1.41213e-05
4.17813e-06
7.58957e-06
1.13681e-05
1.41229e-05
6.1365e-06
7.56424e-06
1.13241e-05
1.41117e-05
1.11405e-05
7.54407e-06
1.12453e-05
1.40851e-05
1.0929e-05
7.53026e-06
1.1131e-05
1.40392e-05
1.07343e-05
7.52205e-06
1.09867e-05
1.39695e-05
1.05517e-05
7.51779e-06
1.08122e-05
1.38713e-05
1.03712e-05
7.51729e-06
1.06121e-05
1.37403e-05
1.01843e-05
7.5231e-06
1.03931e-05
1.35733e-05
9.98474e-06
7.52156e-06
1.01601e-05
1.33696e-05
9.76832e-06
7.50905e-06
9.91549e-06
1.31328e-05
9.53367e-06
7.48305e-06
9.6626e-06
1.28736e-05
9.2796e-06
7.46479e-06
9.40762e-06
1.26144e-05
9.00571e-06
7.45518e-06
9.15452e-06
1.23776e-05
8.7024e-06
7.45576e-06
4.68471e-06
1.21702e-05
8.362e-06
7.47089e-06
5.33606e-06
1.19731e-05
7.99268e-06
7.50646e-06
8.24743e-06
1.17878e-05
7.6018e-06
7.55001e-06
8.00793e-06
1.16097e-05
7.20044e-06
7.58404e-06
7.78311e-06
6.47872e-06
6.80097e-06
7.60911e-06
7.55239e-06
5.11715e-06
6.41663e-06
7.62472e-06
7.32324e-06
9.16468e-06
6.06105e-06
7.63018e-06
7.09913e-06
1.08105e-05
5.74674e-06
7.62467e-06
6.88153e-06
1.06518e-05
5.4843e-06
7.60759e-06
6.67015e-06
1.04788e-05
5.28462e-06
7.57812e-06
6.46432e-06
1.02672e-05
5.14216e-06
7.53571e-06
6.26315e-06
1.00153e-05
5.03892e-06
7.4803e-06
6.06535e-06
9.71562e-06
4.95986e-06
7.41267e-06
5.86879e-06
9.37489e-06
4.89536e-06
7.34168e-06
5.67655e-06
9.00074e-06
4.84261e-06
7.2738e-06
5.48773e-06
8.60553e-06
4.79566e-06
7.20455e-06
5.30172e-06
8.20506e-06
4.74751e-06
7.12476e-06
5.11811e-06
7.81666e-06
4.69288e-06
7.03392e-06
4.93664e-06
7.45763e-06
4.62741e-06
6.93172e-06
4.75712e-06
7.13548e-06
4.54988e-06
6.8181e-06
4.57941e-06
4.19886e-06
4.45951e-06
6.69333e-06
4.40338e-06
2.9249e-06
4.35571e-06
6.55746e-06
4.22892e-06
3.43257e-06
4.24227e-06
6.41036e-06
4.05591e-06
5.90933e-06
4.12161e-06
6.25208e-06
3.8839e-06
5.72518e-06
3.99618e-06
6.08265e-06
3.71249e-06
5.54391e-06
3.86812e-06
5.90227e-06
3.54143e-06
5.3412e-06
3.73898e-06
5.71129e-06
3.37058e-06
5.11187e-06
3.60964e-06
5.51024e-06
3.1999e-06
4.86083e-06
3.48032e-06
5.29977e-06
3.02941e-06
4.59535e-06
3.35081e-06
5.08058e-06
2.85924e-06
4.32233e-06
3.21975e-06
4.85351e-06
2.68958e-06
4.04711e-06
3.08331e-06
4.61947e-06
2.52064e-06
3.77292e-06
2.94178e-06
4.37942e-06
2.35273e-06
3.50239e-06
2.79554e-06
4.13441e-06
2.1862e-06
3.23688e-06
2.64504e-06
3.88557e-06
2.02088e-06
2.97763e-06
2.48391e-06
3.63407e-06
1.85324e-06
2.72574e-06
2.31172e-06
3.37578e-06
1.68213e-06
2.45807e-06
2.14298e-06
3.09203e-06
1.51368e-06
2.1898e-06
1.97266e-06
2.80858e-06
1.3483e-06
1.93116e-06
1.79218e-06
2.52993e-06
1.18731e-06
1.68292e-06
1.59798e-06
2.25937e-06
1.03367e-06
1.45092e-06
1.4014e-06
1.99759e-06
8.91789e-07
1.24564e-06
1.22453e-06
1.74564e-06
7.64905e-07
1.07386e-06
1.07778e-06
1.50914e-06
6.52189e-07
9.25573e-07
9.50272e-07
1.29656e-06
5.49121e-07
7.86892e-07
8.27997e-07
1.10868e-06
4.46626e-07
6.53747e-07
7.06785e-07
9.37875e-07
3.44555e-07
5.28783e-07
5.88927e-07
7.78569e-07
2.54851e-07
4.03276e-07
4.77217e-07
6.29526e-07
1.79423e-07
2.85342e-07
3.72387e-07
4.92271e-07
1.19364e-07
1.88589e-07
2.63085e-07
3.56153e-07
7.45279e-08
1.14935e-07
1.71646e-07
2.33585e-07
4.34104e-08
6.37823e-08
1.01514e-07
1.38782e-07
2.34554e-08
3.18453e-08
5.33984e-08
7.31606e-08
1.16805e-08
1.41225e-08
2.45345e-08
3.35787e-08
5.30733e-09
5.46526e-09
9.66521e-09
1.31805e-08
2.16055e-09
1.79269e-09
3.17922e-09
4.31604e-09
7.61858e-10
4.73573e-10
8.31436e-10
1.1241e-09
2.18894e-10
9.1762e-11
1.57071e-10
2.116e-10
4.59662e-11
1.10585e-11
1.7995e-11
2.40068e-11
5.99059e-12
1.04272e-12
1.48809e-12
1.74167e-12
7.10617e-13
6.99579e-13
9.06934e-13
9.17094e-13
4.62507e-13
9.74975e-06
4.97917e-06
5.41369e-06
3.14464e-06
9.81202e-06
5.1751e-06
5.60077e-06
3.03223e-06
9.87184e-06
5.33861e-06
5.46791e-06
3.07847e-06
9.93099e-06
5.4824e-06
5.09268e-06
3.29284e-06
8.3794e-06
5.61477e-06
5.96856e-06
3.62847e-06
6.93871e-06
5.73869e-06
6.16979e-06
4.03869e-06
8.97312e-06
5.85577e-06
6.24051e-06
4.48708e-06
1.01985e-05
5.96624e-06
6.29285e-06
4.94874e-06
1.02184e-05
6.06923e-06
6.33153e-06
5.40731e-06
1.02044e-05
6.16433e-06
6.35826e-06
5.85221e-06
1.01531e-05
6.24917e-06
6.37487e-06
6.27548e-06
1.00796e-05
6.3236e-06
6.38304e-06
6.67211e-06
9.99829e-06
6.38734e-06
5.81154e-06
7.03834e-06
9.89716e-06
6.44054e-06
4.62099e-06
7.37159e-06
9.75249e-06
6.48366e-06
4.23049e-06
7.67036e-06
9.57357e-06
6.51739e-06
4.97786e-06
7.92523e-06
9.37174e-06
6.54394e-06
6.23476e-06
8.13286e-06
6.91066e-06
6.56546e-06
6.1926e-06
8.29719e-06
4.9078e-06
6.58269e-06
6.14907e-06
8.42158e-06
4.64998e-06
6.59588e-06
6.10546e-06
8.5086e-06
6.09603e-06
6.60513e-06
6.06434e-06
8.42278e-06
8.42557e-06
6.62135e-06
6.02873e-06
7.06211e-06
8.35422e-06
6.63919e-06
5.99953e-06
5.71989e-06
8.30724e-06
6.65429e-06
5.97373e-06
5.38422e-06
8.27511e-06
6.66243e-06
5.94675e-06
6.15169e-06
8.24358e-06
6.65999e-06
5.91455e-06
7.52848e-06
8.20233e-06
6.64358e-06
5.87393e-06
8.29939e-06
8.14356e-06
6.61054e-06
5.82258e-06
8.16984e-06
8.06183e-06
6.55908e-06
5.759e-06
8.00437e-06
7.95435e-06
6.32293e-06
5.68251e-06
7.70913e-06
7.81536e-06
6.03422e-06
5.59206e-06
7.37352e-06
7.64397e-06
5.81411e-06
5.48741e-06
6.93747e-06
7.44898e-06
5.65627e-06
5.37004e-06
6.3726e-06
7.2427e-06
5.50969e-06
5.24198e-06
5.79233e-06
6.83412e-06
5.34452e-06
5.10557e-06
5.31584e-06
5.73696e-06
5.15825e-06
4.96337e-06
4.9703e-06
4.76017e-06
4.96121e-06
4.81807e-06
4.73142e-06
4.45394e-06
4.76202e-06
4.67221e-06
4.56203e-06
4.88702e-06
4.56382e-06
4.52725e-06
4.42624e-06
5.67448e-06
4.3677e-06
4.38266e-06
4.29905e-06
5.7867e-06
4.17497e-06
4.23691e-06
4.16859e-06
5.61414e-06
3.98675e-06
4.08872e-06
4.03038e-06
5.42963e-06
3.80311e-06
3.73962e-06
3.88217e-06
5.23232e-06
3.62319e-06
3.20667e-06
3.7228e-06
5.02175e-06
3.44598e-06
2.83486e-06
3.553e-06
4.71592e-06
3.27099e-06
2.75747e-06
3.37593e-06
4.38831e-06
3.09815e-06
2.91442e-06
3.19896e-06
4.10109e-06
2.92742e-06
3.07553e-06
3.03408e-06
3.88926e-06
2.75853e-06
2.9377e-06
2.88932e-06
3.72374e-06
2.59099e-06
2.77291e-06
2.75698e-06
3.55255e-06
2.42366e-06
2.58125e-06
2.6206e-06
3.34631e-06
2.25266e-06
2.34067e-06
2.4709e-06
3.10915e-06
2.08018e-06
2.11112e-06
2.30612e-06
2.85949e-06
1.91241e-06
1.89458e-06
2.1261e-06
2.61016e-06
1.75051e-06
1.70312e-06
1.94374e-06
2.36927e-06
1.59429e-06
1.53323e-06
1.76218e-06
2.13939e-06
1.44285e-06
1.37313e-06
1.58293e-06
1.9186e-06
1.29528e-06
1.21751e-06
1.40743e-06
1.70541e-06
1.15128e-06
1.06645e-06
1.23705e-06
1.49949e-06
1.01134e-06
9.21341e-07
1.07311e-06
1.30133e-06
8.76293e-07
7.82881e-07
9.16679e-07
1.11139e-06
7.46091e-07
6.51731e-07
7.67649e-07
9.3073e-07
6.12461e-07
5.20331e-07
6.17467e-07
7.59423e-07
4.77785e-07
3.92511e-07
4.72029e-07
5.86205e-07
3.5719e-07
2.81427e-07
3.43932e-07
4.32282e-07
2.53859e-07
1.89904e-07
2.36475e-07
3.01446e-07
1.70056e-07
1.19416e-07
1.51811e-07
1.96545e-07
1.06475e-07
6.93486e-08
9.00726e-08
1.18475e-07
6.18342e-08
3.6909e-08
4.89498e-08
6.53356e-08
3.30749e-08
1.78721e-08
2.41661e-08
3.26457e-08
1.61711e-08
7.79547e-09
1.07278e-08
1.46185e-08
7.14634e-09
3.00942e-09
4.20821e-09
5.76719e-09
2.80037e-09
9.95772e-10
1.41306e-09
1.9437e-09
9.41132e-10
2.66674e-10
3.83637e-10
5.29114e-10
2.55939e-10
5.20659e-11
7.59305e-11
1.04925e-10
5.07264e-11
6.0745e-12
9.08058e-12
1.24834e-11
6.03423e-12
3.48787e-13
6.72342e-13
8.04252e-13
3.94474e-13
1.08536e-13
3.40212e-13
3.2087e-13
1.63072e-13
)
;

boundaryField
{
    leftWall
    {
        type            nutUWallFunction;
        Cmu             0.09;
        kappa           0.41;
        E               9.8;
        value           nonuniform 0();
    }
    rightWall
    {
        type            nutUWallFunction;
        Cmu             0.09;
        kappa           0.41;
        E               9.8;
        value           uniform 0;
    }
    leftSides_periodic0
    {
        type            cyclic;
    }
    leftSides_periodic1
    {
        type            cyclic;
    }
    rightSides_periodic0
    {
        type            cyclic;
    }
    rightSides_periodic1
    {
        type            cyclic;
    }
    leftInOut_periodic0
    {
        type            cyclic;
    }
    leftInOut_periodic1
    {
        type            cyclic;
    }
    rightInOut_periodic0
    {
        type            cyclic;
    }
    rightInOut_periodic1
    {
        type            cyclic;
    }
    procBoundary3to1
    {
        type            processor;
        value           nonuniform List<scalar> 
316
(
3.32895e-06
3.84475e-06
8.34907e-06
1.26865e-06
3.36213e-06
4.18561e-06
8.53774e-06
1.81416e-06
3.3903e-06
4.53249e-06
8.7119e-06
2.42769e-06
3.41065e-06
4.87947e-06
8.87354e-06
3.01689e-06
3.41673e-06
5.2255e-06
9.02383e-06
3.54867e-06
3.40824e-06
5.5704e-06
9.16311e-06
4.0159e-06
3.38565e-06
5.91555e-06
9.29083e-06
4.41745e-06
3.35057e-06
6.26024e-06
9.40617e-06
4.75633e-06
3.30529e-06
6.60199e-06
9.50814e-06
5.03736e-06
3.25365e-06
6.93728e-06
9.59612e-06
5.26649e-06
3.2009e-06
7.26219e-06
9.66956e-06
5.45033e-06
3.15372e-06
7.57263e-06
9.72885e-06
5.59568e-06
3.11986e-06
7.86441e-06
9.77338e-06
5.70921e-06
3.10769e-06
8.13326e-06
9.79925e-06
5.7977e-06
3.12563e-06
8.37484e-06
9.80118e-06
5.86825e-06
3.18187e-06
8.58449e-06
9.77686e-06
5.9286e-06
3.28349e-06
8.75178e-06
9.72646e-06
5.97552e-06
3.4316e-06
8.86827e-06
9.65192e-06
6.01297e-06
3.62199e-06
8.93512e-06
9.55646e-06
6.04767e-06
3.8293e-06
8.95392e-06
9.44416e-06
6.08608e-06
4.0353e-06
8.92692e-06
9.31999e-06
6.13282e-06
4.22778e-06
8.85711e-06
9.18952e-06
6.18917e-06
4.39829e-06
8.74832e-06
9.05888e-06
6.24929e-06
4.54397e-06
8.60528e-06
8.93392e-06
6.3049e-06
4.66454e-06
8.4338e-06
8.81541e-06
6.34961e-06
4.7598e-06
8.24101e-06
8.69871e-06
6.37917e-06
4.8297e-06
8.04441e-06
8.57811e-06
6.39093e-06
4.8743e-06
7.85211e-06
8.44871e-06
6.38343e-06
4.89376e-06
7.66564e-06
8.30733e-06
6.35613e-06
4.88862e-06
7.48562e-06
8.15129e-06
6.30922e-06
4.86022e-06
7.24927e-06
7.97915e-06
6.24265e-06
4.81051e-06
7.01751e-06
7.79101e-06
6.1568e-06
4.74198e-06
6.88226e-06
7.58722e-06
6.05317e-06
4.65754e-06
6.79596e-06
7.36815e-06
5.9335e-06
4.56023e-06
6.66727e-06
7.13472e-06
5.79955e-06
4.45293e-06
6.50625e-06
6.88754e-06
5.65308e-06
4.33805e-06
6.33693e-06
6.62756e-06
5.49569e-06
4.21748e-06
6.15659e-06
6.35639e-06
5.32886e-06
4.09274e-06
5.96359e-06
6.07673e-06
5.15393e-06
3.96581e-06
5.75433e-06
5.79273e-06
4.97214e-06
3.83686e-06
5.52943e-06
5.50884e-06
4.78461e-06
3.70393e-06
5.29129e-06
5.22775e-06
4.59198e-06
3.56548e-06
5.02122e-06
4.95088e-06
4.37882e-06
3.42089e-06
4.72714e-06
4.67888e-06
4.1452e-06
3.27042e-06
4.44259e-06
4.41193e-06
3.91073e-06
3.115e-06
4.17328e-06
4.14981e-06
3.67711e-06
2.95604e-06
3.91523e-06
3.89267e-06
3.44586e-06
2.79419e-06
3.65897e-06
3.6409e-06
3.21883e-06
2.6303e-06
3.38932e-06
3.39311e-06
2.99734e-06
2.46567e-06
3.09956e-06
3.12235e-06
2.78206e-06
2.30091e-06
2.80768e-06
2.85741e-06
2.57255e-06
2.13702e-06
2.53822e-06
2.60595e-06
2.36551e-06
1.97435e-06
2.29683e-06
2.36922e-06
2.16547e-06
1.81321e-06
2.07992e-06
2.13742e-06
1.97254e-06
1.63893e-06
1.88268e-06
1.9233e-06
1.7859e-06
1.44746e-06
1.70017e-06
1.72675e-06
1.60547e-06
1.27297e-06
1.52884e-06
1.54466e-06
1.43212e-06
1.11847e-06
1.36645e-06
1.37392e-06
1.26693e-06
9.79962e-07
1.21178e-06
1.21263e-06
1.11058e-06
8.52647e-07
1.06442e-06
1.0601e-06
9.63245e-07
7.33916e-07
9.24426e-07
9.1626e-07
8.2504e-07
6.23117e-07
7.92086e-07
7.81368e-07
6.95408e-07
5.20485e-07
6.67836e-07
6.55847e-07
5.69128e-07
4.25705e-07
5.51306e-07
5.39489e-07
4.43584e-07
3.27131e-07
4.33016e-07
4.19298e-07
3.32132e-07
2.38684e-07
3.20955e-07
3.10714e-07
2.36977e-07
1.64327e-07
2.25013e-07
2.17958e-07
1.59716e-07
1.05646e-07
1.47516e-07
1.43156e-07
1.00771e-07
6.27742e-08
8.93781e-08
8.70333e-08
5.90236e-08
3.41511e-08
4.94917e-08
4.84346e-08
3.18479e-08
1.68598e-08
2.47849e-08
2.44064e-08
1.57027e-08
7.47188e-09
1.1097e-08
1.10009e-08
6.99506e-09
2.92148e-09
4.36655e-09
4.35684e-09
2.76269e-09
9.77295e-10
1.46525e-09
1.47074e-09
9.36291e-10
2.6484e-10
3.97134e-10
4.00957e-10
2.57345e-10
5.27845e-11
7.88053e-11
8.01488e-11
5.19808e-11
6.72434e-12
9.76654e-12
1.01122e-11
6.6562e-12
9.05065e-13
1.05077e-12
1.21508e-12
8.34634e-13
6.78558e-13
6.8628e-13
8.56151e-13
5.93908e-13
)
;
    }
    procBoundary3to1throughrightSides_periodic1
    {
        type            processorCyclic;
        value           nonuniform List<scalar> 
314
(
1.20093e-05
1.21127e-05
1.21615e-05
1.21519e-05
1.21009e-05
1.20331e-05
1.19503e-05
1.18542e-05
1.17474e-05
1.16334e-05
1.15149e-05
1.13929e-05
1.12724e-05
1.11666e-05
1.1045e-05
4.61664e-06
3.82962e-06
6.0666e-06
1.08581e-05
1.07973e-05
1.07267e-05
1.06436e-05
1.05358e-05
1.03934e-05
1.0213e-05
9.99656e-06
9.74894e-06
9.47651e-06
9.18573e-06
8.8825e-06
8.57183e-06
8.25774e-06
7.94328e-06
7.63067e-06
7.32146e-06
7.01662e-06
6.71565e-06
6.418e-06
6.12418e-06
5.83456e-06
5.54933e-06
5.26865e-06
4.99324e-06
4.72593e-06
4.45852e-06
3.75763e-06
2.49391e-06
2.29236e-06
2.66857e-06
3.16278e-06
3.1116e-06
2.89383e-06
2.67053e-06
2.44476e-06
2.2199e-06
1.99861e-06
1.78288e-06
1.52959e-06
1.3017e-06
1.11061e-06
9.47309e-07
8.00434e-07
6.64831e-07
5.25862e-07
3.92847e-07
2.77335e-07
1.82865e-07
1.11322e-07
6.18966e-08
3.11276e-08
1.40066e-08
5.54549e-09
1.8738e-09
5.10938e-10
1.01428e-10
1.21652e-11
9.21431e-13
4.76206e-13
1.13953e-05
1.13754e-05
1.12882e-05
1.11601e-05
1.1012e-05
1.08523e-05
1.06847e-05
1.05106e-05
1.03278e-05
1.01314e-05
9.91626e-06
9.6788e-06
9.41668e-06
9.12842e-06
8.81434e-06
8.48404e-06
8.14897e-06
7.81204e-06
7.47628e-06
7.14539e-06
6.82353e-06
6.51514e-06
6.22478e-06
5.95575e-06
5.70775e-06
5.46902e-06
5.23718e-06
5.01458e-06
4.80208e-06
4.59971e-06
4.40704e-06
4.22334e-06
4.04772e-06
3.87925e-06
3.71704e-06
3.56164e-06
3.41583e-06
3.28204e-06
3.16071e-06
3.05162e-06
2.95077e-06
2.85786e-06
2.77224e-06
2.69333e-06
2.62205e-06
2.55951e-06
2.2347e-06
1.5551e-06
1.41913e-06
1.63943e-06
1.97669e-06
2.10124e-06
1.98457e-06
1.85751e-06
1.72213e-06
1.5812e-06
1.40926e-06
1.21377e-06
1.04406e-06
9.07053e-07
7.9193e-07
6.85776e-07
5.82824e-07
4.83544e-07
3.85146e-07
2.81786e-07
1.92458e-07
1.20943e-07
6.89429e-08
3.52015e-08
1.59132e-08
6.27352e-09
2.09758e-09
5.63251e-10
1.09484e-10
1.27641e-11
9.53595e-13
4.99612e-13
3.1043e-06
2.57453e-06
6.45321e-06
6.94287e-06
6.6224e-06
7.16535e-06
7.03042e-06
6.90699e-06
5.46742e-06
6.26691e-06
4.39059e-06
1.80655e-06
2.1006e-06
4.40798e-06
5.55589e-06
5.29264e-06
5.03453e-06
4.80944e-06
4.64428e-06
4.53914e-06
4.49912e-06
4.52024e-06
2.16301e-06
1.89567e-06
2.72905e-06
4.88806e-06
4.86838e-06
4.83858e-06
4.79046e-06
4.71899e-06
4.62501e-06
4.51488e-06
4.39713e-06
4.28801e-06
4.19826e-06
4.13028e-06
4.07832e-06
2.15968e-06
1.89375e-06
2.48299e-06
3.59134e-06
3.9213e-06
3.82831e-06
3.71881e-06
3.59469e-06
3.46041e-06
3.31413e-06
2.55933e-06
2.25195e-06
2.3519e-06
2.55325e-06
2.59155e-06
2.43623e-06
2.27541e-06
2.11027e-06
1.86831e-06
1.64869e-06
1.47087e-06
1.32107e-06
1.18195e-06
1.04473e-06
9.08608e-07
7.75842e-07
6.49181e-07
5.17052e-07
3.88425e-07
2.74882e-07
1.80903e-07
1.09315e-07
5.99696e-08
2.95893e-08
1.30071e-08
5.01765e-09
1.64981e-09
4.3762e-10
8.45142e-11
9.81133e-12
6.46691e-13
2.80759e-13
5.41436e-06
7.37708e-06
1.15231e-05
1.13663e-05
1.12541e-05
1.11678e-05
1.10833e-05
1.09925e-05
1.08646e-05
1.06729e-05
1.04282e-05
1.01376e-05
9.81788e-06
9.48692e-06
9.16017e-06
8.84767e-06
8.55126e-06
8.28589e-06
8.06374e-06
7.81529e-06
3.43669e-06
2.7004e-06
4.06656e-06
6.88333e-06
6.69978e-06
6.52442e-06
6.34876e-06
6.16229e-06
5.9591e-06
5.73821e-06
5.50218e-06
5.25407e-06
5.00062e-06
4.74837e-06
4.50224e-06
4.26523e-06
4.0387e-06
3.82284e-06
3.61716e-06
3.42043e-06
3.23125e-06
3.04857e-06
2.87163e-06
2.69984e-06
2.53274e-06
2.37011e-06
2.21187e-06
2.0581e-06
1.90886e-06
1.76413e-06
1.62407e-06
1.48876e-06
1.35796e-06
1.16059e-06
9.73814e-07
8.49594e-07
7.72062e-07
7.09496e-07
6.39178e-07
5.57709e-07
4.73195e-07
3.82718e-07
2.98671e-07
2.24243e-07
1.61052e-07
1.10007e-07
7.10739e-08
4.32194e-08
2.4614e-08
1.30493e-08
6.38313e-09
2.8409e-09
1.12545e-09
3.83399e-10
1.06161e-10
2.16765e-11
2.77399e-12
2.82627e-13
1.75753e-13
)
;
    }
    procBoundary3to2
    {
        type            processor;
        value           nonuniform List<scalar> 
11
(
1.39607e-05
1.13254e-05
7.71248e-06
1.12948e-05
9.68655e-06
4.74198e-06
5.21843e-06
3.35987e-06
5.21843e-06
3.35987e-06
3.35987e-06
)
;
    }
    procBoundary3to2throughrightInOut_periodic0
    {
        type            processorCyclic;
        value           uniform 5.21843e-06;
    }
}


// ************************************************************************* //
