/*--------------------------------*- C++ -*----------------------------------*\
| =========                 |                                                 |
| \\      /  F ield         | OpenFOAM: The Open Source CFD Toolbox           |
|  \\    /   O peration     | Version:  v1906                                 |
|   \\  /    A nd           | Web:      www.OpenFOAM.com                      |
|    \\/     M anipulation  |                                                 |
\*---------------------------------------------------------------------------*/
FoamFile
{
    version     2.0;
    format      ascii;
    class       volScalarField;
    location    "97.6";
    object      p;
}
// * * * * * * * * * * * * * * * * * * * * * * * * * * * * * * * * * * * * * //

dimensions      [1 -1 -2 0 0 0 0];


internalField   nonuniform List<scalar> 
630
(
99496.6
99509.6
99511
99502.6
99498.3
99508.9
99511.6
99501.4
99500.1
99508.4
99512.2
99500.2
99502
99508
99512.9
99498.8
99503.9
99507.1
99513.6
99497.5
99505.9
99506
99514.3
99496
99508
99504.6
99515
99494.6
99510.2
99503.3
99515.8
99493
99512.4
99501.9
99516.7
99491.5
99514.7
99500.5
99517.5
99489.9
99517.1
99499
99518.5
99488.3
99519.5
99497.5
99519.4
99486.7
99521.9
99496.1
99520.4
99485.1
99524.3
99494.6
99521.4
99483.5
99526.8
99493.1
99522.5
99481.8
99529.2
99491.6
99523.6
99480.2
99531.7
99490.1
99524.7
99478.8
99534.2
99488.6
99525.9
99477.8
99536.7
99487.2
99527.1
99476.8
99539.3
99485.8
99528.4
99475.6
99541.9
99484.4
99529.7
99474.1
99544.3
99483.1
99531
99472.5
99546
99481.8
99532.4
99471
99547.3
99480.6
99533.8
99469.5
99548.7
99479.4
99535.2
99468
99550.7
99478.3
99536.7
99466.5
99553.3
99477.2
99538.1
99465.1
99556
99476.1
99539.6
99463.7
99558.6
99475
99541.1
99462.3
99561
99474
99542.6
99460.9
99563.4
99472.9
99544.1
99459.6
99565.7
99471.8
99545.7
99458.3
99567.9
99470.7
99547.2
99457
99570.1
99469.6
99548.7
99455.7
99572.1
99468.5
99550.2
99454.5
99574.1
99467.4
99551.7
99453.3
99576.1
99466.3
99553.2
99452.1
99577.9
99465.3
99554.7
99451
99579.1
99464.2
99556.1
99449.9
99579.9
99463.2
99557.6
99448.8
99580.7
99462.2
99559
99447.8
99581.8
99461.2
99560.3
99446.8
99583.3
99460.2
99561.6
99445.8
99584.8
99459.3
99562.9
99444.9
99586.3
99458.4
99564.2
99444.1
99587.6
99457.5
99565.4
99443.2
99588.9
99456.7
99566.5
99442.4
99590
99455.9
99567.6
99441.7
99591.1
99455.1
99568.7
99440.9
99592.2
99454.4
99569.7
99440.3
99593.1
99453.6
99570.6
99439.6
99594
99453
99571.5
99439
99594.8
99452.3
99572.3
99438.5
99595.5
99451.7
99573.1
99438
99596.2
99451.2
99573.8
99437.5
99596.9
99450.6
99574.4
99437
99597.4
99450.2
99575
99436.6
99598
99449.7
99575.5
99436.3
99598.4
99449.3
99576
99435.9
99598.8
99448.9
99576.4
99435.6
99599.2
99448.6
99576.8
99435.3
99599.5
99448.3
99577.2
99435.1
99599.8
99448.1
99577.4
99434.9
99600.1
99447.8
99577.7
99434.7
99600.3
99447.6
99577.9
99434.5
99600.5
99447.4
99578.1
99434.3
99600.6
99447.3
99578.3
99434.2
99600.8
99447.2
99578.4
99434.1
99600.9
99447
99578.5
99434
99601
99446.9
99578.6
99433.9
99601.1
99446.9
99578.7
99433.8
99601.2
99446.8
99578.8
99433.7
99601.3
99446.7
99578.8
99433.6
99601.4
99446.7
99578.9
99433.5
99601.4
99446.6
99578.9
99433.5
99601.5
99446.6
99579
99433.4
99601.5
99446.5
99579
99433.4
99601.5
99446.5
99579
99433.4
99601.5
99446.5
99579
99433.4
98926
98908.4
98908.9
98920.5
98925.6
98908.6
98908.7
98920.5
98925.3
98908.7
98908.5
98920.6
98924.9
98908.9
98908.3
98920.7
98924.5
98909.1
98908.1
98920.8
98924.2
98909.4
98907.9
98920.9
98923.9
98909.6
98907.6
98921.1
98923.6
98909.9
98907.3
98921.3
98923.1
98910.2
98907
98921.6
98922.6
98910.5
98906.6
98921.9
98922
98910.8
98906.3
98922.2
98921.4
98911.2
98905.9
98922.6
98920.7
98911.6
98905.5
98923
98920.1
98912
98905.2
98923.5
98919.4
98912.4
98904.9
98924
98918.7
98912.8
98904.6
98924.6
98918
98913.2
98904.3
98925.2
98917.3
98913.7
98903.9
98925.8
98916.8
98914.2
98903.4
98926.4
98916.4
98914.6
98902.9
98927.1
98916
98915.1
98902.5
98927.9
98915.6
98915.6
98902
98928.6
98915
98916.2
98901.5
98929.2
98914.3
98916.7
98901
98929.7
98913.5
98917.3
98900.5
98930.1
98912.7
98917.8
98900
98930.6
98911.9
98918.4
98899.5
98931.3
98911.1
98919
98899
98932
98910.3
98919.6
98898.4
98932.8
98909.5
98920.2
98897.9
98933.6
98908.7
98920.8
98897.4
98934.4
98907.9
98921.4
98896.9
98935.2
98907.1
98921.9
98896.4
98935.9
98906.3
98922.5
98895.9
98936.5
98905.5
98923
98895.4
98937.1
98904.7
98923.5
98894.9
98937.7
98904.1
98924
98894.4
98938.2
98903.6
98924.5
98893.9
98938.6
98903.2
98925
98893.5
98939.1
98902.7
98925.5
98893.1
98939.6
98902.1
98925.9
98892.6
98940
98901.5
98926.4
98892.2
98940.5
98900.8
98926.8
98891.8
98940.9
98900.2
98927.2
98891.4
98941.3
98899.6
98927.6
98891.1
98941.7
98899.1
98927.9
98890.8
98942.1
98898.5
98928.3
98890.5
98942.4
98898.1
98928.6
98890.3
98942.8
98897.6
98928.9
98890
98943.1
98897.2
98929.2
98889.7
98943.4
98896.8
98929.5
98889.4
98943.7
98896.4
98929.7
98889.1
98944
98896
98930
98888.9
98944.2
98895.7
98930.2
98888.7
98944.5
98895.3
98930.4
98888.5
98944.7
98895.1
98930.6
98888.3
98944.9
98894.8
98930.8
98888.2
98945.1
98894.5
98930.9
98888
98945.3
98894.3
98931.1
98887.9
98945.4
98894.1
98931.2
98887.8
98945.6
98894
98931.4
98887.7
98945.7
98893.8
98931.5
98887.6
98945.8
98893.7
98931.6
98887.5
98945.9
98893.5
98931.7
98887.4
98946
98893.4
98931.7
98887.4
98946.1
98893.4
98931.8
98887.3
98946.1
98893.3
98931.8
98887.3
98946.2
98893.2
98931.9
98887.2
98946.2
98893.2
98931.9
98887.2
98946.3
98893.1
98932
98887.2
98946.3
98893.1
98932
98887.1
98946.4
98893
98932.1
98887.1
98946.4
98893
98932.1
98887.1
98946.4
98893
98932.1
98887.1
98946.4
98892.9
98932.1
98887
98946.5
98892.9
98932.1
98887
98946.5
98892.9
98932.2
98887
98946.5
98892.9
98932.2
98887
98946.5
98892.9
98932.2
)
;

boundaryField
{
    leftWall
    {
        type            calculated;
        value           nonuniform 0();
    }
    rightWall
    {
        type            calculated;
        value           nonuniform List<scalar> 8(99601.5 98887 99446.5 98946.5 99579 98892.9 99433.4 98932.2);
    }
    leftSides_periodic0
    {
        type            cyclic;
    }
    leftSides_periodic1
    {
        type            cyclic;
    }
    rightSides_periodic0
    {
        type            cyclic;
    }
    rightSides_periodic1
    {
        type            cyclic;
    }
    leftInOut_periodic0
    {
        type            cyclic;
    }
    leftInOut_periodic1
    {
        type            cyclic;
    }
    rightInOut_periodic0
    {
        type            cyclic;
    }
    rightInOut_periodic1
    {
        type            cyclic;
    }
    procBoundary3to1
    {
        type            processor;
        value           nonuniform List<scalar> 
316
(
99983.5
99961.1
99967.1
99971.8
99983.4
99961.2
99966.6
99971.8
99983.4
99961.4
99966
99971.7
99983.3
99961.5
99965.4
99971.7
99983.2
99961.7
99964.7
99971.8
99983.2
99961.9
99964
99971.8
99983
99962.2
99963.2
99971.9
99982.9
99962.5
99962.3
99972.1
99982.8
99962.9
99961.4
99972.2
99982.6
99963.3
99960.5
99972.4
99982.5
99963.8
99959.4
99972.7
99982.3
99964.3
99958.4
99973
99982.1
99964.9
99957.3
99973.3
99981.9
99965.5
99956.1
99973.6
99981.7
99966.2
99954.9
99974
99981.5
99967
99953.7
99974.4
99981.2
99967.8
99952.4
99974.8
99980.9
99968.7
99951.1
99975.3
99980.6
99969.6
99949.8
99975.8
99980.2
99970.5
99948.4
99976.3
99979.9
99971.5
99947.1
99976.8
99979.4
99972.5
99945.7
99977.4
99978.9
99973.5
99944.3
99978
99978.4
99974.5
99942.9
99978.6
99977.9
99975.6
99941.5
99979.2
99977.3
99976.6
99940
99979.9
99976.7
99977.7
99938.6
99980.6
99976.1
99978.7
99937.2
99981.3
99975.5
99979.8
99935.7
99982.1
99974.8
99980.8
99934.3
99982.8
99974.1
99981.8
99932.8
99983.5
99973.5
99982.8
99931.4
99984.3
99972.8
99983.8
99930
99985.1
99972.1
99984.8
99928.6
99985.8
99971.4
99985.8
99927.3
99986.6
99970.8
99986.8
99925.9
99987.3
99970.1
99987.8
99924.6
99988
99969.5
99988.7
99923.4
99988.8
99968.8
99989.7
99922.2
99989.5
99968.2
99990.6
99921
99990.2
99967.6
99991.5
99919.9
99990.8
99967
99992.4
99918.9
99991.5
99966.4
99993.3
99917.8
99992.1
99965.8
99994.1
99916.9
99992.7
99965.3
99994.8
99916
99993.3
99964.8
99995.5
99915.1
99993.8
99964.3
99996.2
99914.3
99994.4
99963.8
99996.8
99913.5
99994.8
99963.4
99997.4
99912.8
99995.3
99962.9
99998
99912.1
99995.7
99962.5
99998.5
99911.5
99996.1
99962.2
99999
99911
99996.5
99961.8
99999.4
99910.4
99996.8
99961.5
99999.8
99910
99997.2
99961.2
100000
99909.5
99997.5
99960.9
100000
99909.1
99997.7
99960.7
100001
99908.8
99998
99960.5
100001
99908.4
99998.2
99960.3
100001
99908.1
99998.4
99960.1
100002
99907.9
99998.6
99959.9
100002
99907.6
99998.8
99959.8
100002
99907.4
99998.9
99959.6
100002
99907.2
99999
99959.5
100002
99907
99999.1
99959.4
100002
99906.8
99999.2
99959.3
100002
99906.7
99999.3
99959.2
100003
99906.6
99999.4
99959.2
100003
99906.5
99999.5
99959.1
100003
99906.4
99999.5
99959
100003
99906.3
99999.6
99959
100003
99906.2
99999.7
99958.9
100003
99906.2
99999.7
99958.9
100003
99906.1
99999.7
99958.9
100003
99906.1
99999.8
99958.8
100003
99906
99999.8
99958.8
100003
99906
99999.8
99958.8
100003
99906
99999.8
99958.8
100003
99905.9
99999.9
99958.8
100003
99905.9
99999.9
)
;
    }
    procBoundary3to1throughrightSides_periodic1
    {
        type            processorCyclic;
        value           nonuniform List<scalar> 
314
(
99997.4
99997.3
99997.2
99997.1
99997
99996.9
99996.7
99996.6
99996.5
99996.3
99996.2
99996
99995.8
99995.6
99995.5
99995.4
99995.4
99995.2
99995
99994.8
99994.6
99994.4
99994.2
99994
99993.7
99993.5
99993.3
99993.1
99992.9
99992.7
99992.5
99992.3
99992.1
99992
99991.8
99991.6
99991.5
99991.3
99991.2
99991
99990.9
99990.8
99990.7
99990.5
99990.4
99990.4
99990.3
99990.3
99990.2
99990.1
99990
99990
99989.9
99989.9
99989.8
99989.8
99989.7
99989.7
99989.7
99989.6
99989.6
99989.6
99989.6
99989.6
99989.6
99989.5
99989.5
99989.5
99989.5
99989.5
99989.5
99989.5
99989.5
99989.5
99989.5
99989.5
99989.5
99989.5
99997.3
99997.6
99997.9
99998.2
99998.6
99998.9
99999.2
99999.5
99999.8
100000
100000
100001
100001
100001
100002
100002
100002
100002
100003
100003
100003
100003
100004
100004
100004
100004
100004
100004
100005
100005
100005
100005
100005
100005
100005
100006
100006
100006
100006
100006
100006
100006
100006
100006
100006
100006
100007
100007
100007
100007
100007
100007
100007
100007
100007
100007
100007
100007
100007
100007
100007
100007
100007
100007
100007
100007
100007
100007
100007
100007
100007
100007
100007
100007
100007
100007
100007
100007
99981.9
99981.8
99981.8
99981.7
99981.6
99981.5
99981.4
99981.3
99981.2
99981.2
99981.1
99981.1
99981
99981
99980.9
99980.8
99980.7
99980.7
99980.6
99980.5
99980.4
99980.4
99980.4
99980.3
99980.3
99980.2
99980.1
99980
99980
99979.9
99979.8
99979.8
99979.7
99979.6
99979.6
99979.5
99979.5
99979.4
99979.4
99979.4
99979.3
99979.3
99979.2
99979.2
99979.1
99979.1
99979.1
99979
99979
99979
99979
99978.9
99978.9
99978.9
99978.9
99978.8
99978.8
99978.8
99978.8
99978.8
99978.8
99978.8
99978.8
99978.8
99978.8
99978.8
99978.8
99978.8
99978.8
99978.7
99978.7
99978.7
99978.7
99978.7
99978.7
99978.7
99978.7
99978.7
99978.7
99984.3
99984.7
99985.1
99985.6
99986.1
99986.6
99987.1
99987.6
99988.1
99988.6
99989.1
99989.6
99990
99990.5
99990.9
99991.3
99991.7
99992.1
99992.5
99992.8
99993
99993.1
99993.3
99993.6
99994
99994.3
99994.6
99994.9
99995.2
99995.4
99995.7
99996
99996.2
99996.4
99996.6
99996.9
99997.1
99997.2
99997.4
99997.6
99997.7
99997.9
99998
99998.2
99998.3
99998.4
99998.5
99998.6
99998.7
99998.8
99998.9
99999
99999.1
99999.1
99999.2
99999.2
99999.3
99999.3
99999.4
99999.4
99999.5
99999.5
99999.5
99999.5
99999.6
99999.6
99999.6
99999.6
99999.7
99999.7
99999.7
99999.7
99999.7
99999.7
99999.7
99999.7
99999.7
99999.7
99999.7
)
;
    }
    procBoundary3to2
    {
        type            processor;
        value           nonuniform List<scalar> 
11
(
99494.9
99510.6
99510.4
99503.8
98926.3
98908.3
98909.1
98920.4
98909.1
98920.4
98920.4
)
;
    }
    procBoundary3to2throughrightInOut_periodic0
    {
        type            processorCyclic;
        value           uniform 98909.1;
    }
}


// ************************************************************************* //
