/*--------------------------------*- C++ -*----------------------------------*\
| =========                 |                                                 |
| \\      /  F ield         | OpenFOAM: The Open Source CFD Toolbox           |
|  \\    /   O peration     | Version:  v1906                                 |
|   \\  /    A nd           | Web:      www.OpenFOAM.com                      |
|    \\/     M anipulation  |                                                 |
\*---------------------------------------------------------------------------*/
FoamFile
{
    version     2.0;
    format      ascii;
    class       volVectorField;
    location    "97.6";
    object      UMean;
}
// * * * * * * * * * * * * * * * * * * * * * * * * * * * * * * * * * * * * * //

dimensions      [0 1 -1 0 0 0 0];


internalField   nonuniform List<vector> 
630
(
(0.000671713 0.000629717 -0.280818)
(0.000494473 0.00170142 -0.284533)
(0.000210582 0.000629124 -0.284357)
(-0.000244973 0.00095469 -0.272551)
(0.000646417 0.000597885 -0.280177)
(0.000496624 0.00171679 -0.284072)
(0.000250111 0.000607637 -0.283266)
(-0.000233104 0.000958853 -0.271613)
(0.000606327 0.000590866 -0.279519)
(0.000497172 0.00171874 -0.283568)
(0.000306936 0.00059293 -0.28217)
(-0.000219015 0.000936644 -0.270837)
(0.000559435 0.00059955 -0.278851)
(0.000496654 0.00171512 -0.28301)
(0.000355145 0.00061311 -0.281296)
(-0.000204914 0.000919277 -0.270023)
(0.000514983 0.000597255 -0.278115)
(0.00049893 0.00170711 -0.282391)
(0.000390588 0.000639638 -0.280513)
(-0.000194783 0.00090565 -0.269043)
(0.000476731 0.00059261 -0.277247)
(0.000495548 0.00170421 -0.28173)
(0.000426763 0.000632301 -0.279647)
(-0.000188063 0.000904514 -0.26789)
(0.000431043 0.000581839 -0.276238)
(0.000489926 0.00169749 -0.280966)
(0.000469305 0.000626827 -0.278713)
(-0.000183665 0.000898509 -0.266672)
(0.000370851 0.000576757 -0.275203)
(0.000480857 0.00169823 -0.280026)
(0.000512548 0.000631038 -0.277703)
(-0.000171867 0.000884634 -0.265368)
(0.00030615 0.000566672 -0.27412)
(0.000470754 0.00169223 -0.278994)
(0.000555812 0.000633868 -0.27662)
(-0.000152298 0.00087468 -0.263839)
(0.000255932 0.000566083 -0.272939)
(0.000459016 0.00167984 -0.277965)
(0.000606048 0.000638128 -0.275535)
(-0.000122876 0.000882864 -0.262143)
(0.000219462 0.000568935 -0.271608)
(0.000450119 0.00167286 -0.276947)
(0.000657187 0.000637314 -0.27435)
(-8.87785e-05 0.000891477 -0.260475)
(0.000194217 0.000567738 -0.270229)
(0.000443614 0.00166147 -0.275864)
(0.00070036 0.000646546 -0.273003)
(-6.84701e-05 0.000871468 -0.258899)
(0.000172638 0.000560233 -0.268838)
(0.000436779 0.00164676 -0.274679)
(0.000755487 0.000654144 -0.271552)
(-5.70176e-05 0.000861977 -0.257309)
(0.000147158 0.000552619 -0.26752)
(0.000427429 0.0016397 -0.27344)
(0.000825574 0.00065268 -0.270016)
(-4.09745e-05 0.000854073 -0.255704)
(0.000116378 0.000555796 -0.266263)
(0.000411756 0.00164371 -0.272113)
(0.000901652 0.000641809 -0.268444)
(-2.217e-05 0.000852539 -0.253997)
(8.96759e-05 0.000556118 -0.264917)
(0.000394107 0.0016249 -0.270751)
(0.000964994 0.000639565 -0.266978)
(-7.36329e-06 0.000853662 -0.252208)
(6.92719e-05 0.000552661 -0.263516)
(0.000378507 0.00159762 -0.269364)
(0.00100997 0.000648245 -0.26556)
(5.34643e-06 0.000861913 -0.250373)
(4.26798e-05 0.00055208 -0.262095)
(0.000362217 0.00158633 -0.267871)
(0.00103822 0.000652739 -0.264153)
(2.55031e-05 0.000851537 -0.248629)
(1.2959e-05 0.000555819 -0.260627)
(0.000341848 0.00160139 -0.266199)
(0.00106636 0.000656635 -0.26273)
(5.24198e-05 0.000836463 -0.246932)
(-1.69672e-05 0.000550926 -0.258994)
(0.000318204 0.00158849 -0.26448)
(0.00110934 0.000661941 -0.261248)
(8.0209e-05 0.000847171 -0.245096)
(-5.70644e-05 0.000552488 -0.257269)
(0.000282024 0.00154921 -0.262861)
(0.00116268 0.000676383 -0.259686)
(9.38052e-05 0.000845308 -0.243222)
(-0.000117979 0.000558379 -0.255484)
(0.000243149 0.00153696 -0.2612)
(0.00122636 0.000680853 -0.257914)
(0.000106193 0.00084096 -0.241367)
(-0.000199388 0.000554824 -0.253635)
(0.000211557 0.00152986 -0.259481)
(0.00128427 0.000655734 -0.255987)
(0.000121937 0.000837039 -0.239495)
(-0.000288779 0.000551985 -0.251765)
(0.000185242 0.00153167 -0.25764)
(0.00132917 0.000644999 -0.254073)
(0.00014052 0.000828649 -0.237559)
(-0.000362326 0.00056189 -0.249942)
(0.000168499 0.00150681 -0.255853)
(0.00138188 0.000666561 -0.252185)
(0.000164724 0.00083625 -0.235447)
(-0.000424768 0.000561796 -0.248011)
(0.000157335 0.00147655 -0.254109)
(0.00144864 0.000685906 -0.25019)
(0.000189482 0.0008338 -0.233327)
(-0.000481593 0.000563408 -0.245891)
(0.000149102 0.00145801 -0.252265)
(0.00151189 0.000683834 -0.24796)
(0.000214197 0.00082289 -0.231156)
(-0.000530259 0.000566979 -0.243609)
(0.00014082 0.00145184 -0.250303)
(0.00156396 0.000651517 -0.245548)
(0.000239724 0.000821119 -0.228911)
(-0.000574753 0.000566491 -0.241289)
(0.000127378 0.00143675 -0.248281)
(0.00160522 0.000651934 -0.243267)
(0.000260221 0.000829988 -0.226668)
(-0.000620117 0.000573749 -0.239002)
(0.000105707 0.00142201 -0.246227)
(0.00165524 0.00066294 -0.241133)
(0.000273411 0.000833381 -0.224466)
(-0.000696907 0.000566652 -0.236728)
(8.31051e-05 0.00139875 -0.244108)
(0.00170706 0.000669829 -0.23905)
(0.00028094 0.000827669 -0.222299)
(-0.00078733 0.000550691 -0.234436)
(6.26491e-05 0.00137292 -0.241964)
(0.00175284 0.000664813 -0.236909)
(0.000287732 0.000811 -0.220134)
(-0.000859685 0.000557926 -0.232122)
(4.145e-05 0.00135472 -0.239723)
(0.00178819 0.000660465 -0.234746)
(0.000291788 0.000802864 -0.217904)
(-0.000913565 0.000579606 -0.229743)
(2.45332e-05 0.00133811 -0.237422)
(0.00181916 0.000646505 -0.232543)
(0.000294553 0.000810801 -0.215582)
(-0.000977786 0.000583267 -0.227326)
(1.55593e-05 0.00132219 -0.235139)
(0.00184991 0.000644555 -0.23032)
(0.000295494 0.000809753 -0.213196)
(-0.00105515 0.000561088 -0.224858)
(1.25979e-05 0.00129326 -0.232889)
(0.00188836 0.000638065 -0.228029)
(0.000292806 0.000806503 -0.2108)
(-0.00113395 0.000540367 -0.222407)
(1.43382e-05 0.00126494 -0.230591)
(0.00193042 0.000633966 -0.225674)
(0.000288848 0.000789824 -0.208447)
(-0.00119239 0.000545994 -0.220025)
(1.95505e-05 0.00123672 -0.228211)
(0.00197997 0.000625303 -0.223229)
(0.000289281 0.000777965 -0.206072)
(-0.00123652 0.000551016 -0.217605)
(1.93162e-05 0.0012124 -0.225761)
(0.00202879 0.000609875 -0.220738)
(0.000293616 0.000770812 -0.203633)
(-0.00127354 0.000545248 -0.215132)
(1.58507e-05 0.00119046 -0.223241)
(0.00206886 0.000604231 -0.218209)
(0.000298444 0.000764848 -0.201174)
(-0.00130827 0.000534264 -0.212631)
(1.31799e-05 0.00116165 -0.220704)
(0.0021041 0.000596297 -0.215632)
(0.000301315 0.000757255 -0.198694)
(-0.00134685 0.000526589 -0.210071)
(1.07405e-05 0.00113157 -0.218135)
(0.00214215 0.00058317 -0.213033)
(0.000302288 0.000746906 -0.196184)
(-0.00139037 0.000516387 -0.207422)
(7.93819e-06 0.0010996 -0.215516)
(0.00217749 0.000567925 -0.210393)
(0.000300858 0.000732859 -0.193641)
(-0.00143452 0.000501892 -0.204699)
(3.77449e-06 0.00106858 -0.212836)
(0.00220065 0.000556848 -0.20768)
(0.000297963 0.000715274 -0.191048)
(-0.00147315 0.000490378 -0.201924)
(-5.9515e-07 0.00103471 -0.210103)
(0.00221462 0.000542491 -0.204902)
(0.000295409 0.00069872 -0.188394)
(-0.00150619 0.000480681 -0.199087)
(-4.06052e-06 0.0009995 -0.207301)
(0.0022263 0.00052562 -0.202075)
(0.000293958 0.000683821 -0.185673)
(-0.00153568 0.000467531 -0.196172)
(-5.50247e-06 0.000967477 -0.204413)
(0.00223825 0.00050913 -0.199181)
(0.000293222 0.000668068 -0.182876)
(-0.001562 0.000452255 -0.193174)
(-4.21175e-06 0.000933946 -0.201417)
(0.00224842 0.000492177 -0.196185)
(0.000292352 0.000650195 -0.179997)
(-0.00158386 0.000436684 -0.190081)
(-1.54017e-06 0.0008964 -0.198307)
(0.00225439 0.000475089 -0.193075)
(0.000291212 0.000630724 -0.177028)
(-0.00160066 0.000420491 -0.18688)
(-8.6388e-07 0.000858601 -0.195097)
(0.00225639 0.000456167 -0.189866)
(0.000289924 0.000610196 -0.173967)
(-0.00161315 0.00040337 -0.183561)
(-2.71564e-06 0.000821606 -0.191783)
(0.00225462 0.000436176 -0.186553)
(0.000288513 0.00058878 -0.17081)
(-0.00162176 0.000385839 -0.180119)
(-5.57716e-06 0.000784775 -0.18834)
(0.0022486 0.000416377 -0.183117)
(0.000287184 0.000566352 -0.167547)
(-0.00162635 0.000368029 -0.176534)
(-8.00405e-06 0.000746729 -0.184746)
(0.00223781 0.000396538 -0.179534)
(0.000285998 0.000542811 -0.164158)
(-0.00162683 0.00034965 -0.17278)
(-9.71206e-06 0.000707287 -0.180979)
(0.00222212 0.000376217 -0.175779)
(0.000284882 0.000518485 -0.160618)
(-0.00162329 0.000330803 -0.168828)
(-1.11399e-05 0.00066796 -0.177017)
(0.00220173 0.000355358 -0.171825)
(0.000283657 0.00049348 -0.156906)
(-0.00161607 0.000311691 -0.164654)
(-1.25568e-05 0.000628678 -0.172833)
(0.00217695 0.000334395 -0.167645)
(0.000282264 0.000467583 -0.152997)
(-0.00160558 0.000292405 -0.160227)
(-1.41212e-05 0.000589041 -0.168399)
(0.00214812 0.000313369 -0.163211)
(0.00028073 0.000440925 -0.148865)
(-0.00159214 0.000272971 -0.15552)
(-1.59988e-05 0.000549382 -0.163683)
(0.00211554 0.00029225 -0.158492)
(0.000279028 0.000413886 -0.14448)
(-0.00157586 0.00025355 -0.150503)
(-1.82949e-05 0.000509973 -0.158653)
(0.00207924 0.000271145 -0.15346)
(0.000277092 0.000386688 -0.139813)
(-0.00155646 0.000234185 -0.14515)
(-2.10209e-05 0.000470959 -0.153276)
(0.00203888 0.000250177 -0.148086)
(0.000274815 0.00035944 -0.134838)
(-0.00153314 0.000214781 -0.139439)
(-2.41393e-05 0.000432472 -0.14752)
(0.00199366 0.00022941 -0.142343)
(0.00027204 0.000332275 -0.129528)
(-0.00150449 0.000195451 -0.13335)
(-2.75685e-05 0.000394639 -0.141357)
(0.00194237 0.000208871 -0.13621)
(0.000268512 0.000305348 -0.123867)
(-0.00146879 0.000176557 -0.126866)
(-3.12273e-05 0.000357646 -0.134762)
(0.00188349 0.000188654 -0.129666)
(0.000263851 0.000278766 -0.117838)
(-0.00142419 0.000158318 -0.119975)
(-3.50077e-05 0.000321679 -0.127714)
(0.00181549 0.000168928 -0.122699)
(0.000257572 0.000252552 -0.111434)
(-0.00136935 0.000140786 -0.112671)
(-3.87186e-05 0.000286769 -0.120194)
(0.00173712 0.000149942 -0.1153)
(0.000249186 0.000226722 -0.104648)
(-0.00130374 0.000123978 -0.104958)
(-4.22143e-05 0.000252921 -0.112194)
(0.00164762 0.000131916 -0.10747)
(0.000238328 0.000201444 -0.097492)
(-0.00122769 0.000107935 -0.0968609)
(-4.5368e-05 0.000220268 -0.103726)
(0.00154689 0.000114861 -0.0992313)
(0.000224803 0.00017695 -0.0899978)
(-0.00114236 9.27029e-05 -0.0884396)
(-4.7948e-05 0.000189192 -0.0948365)
(0.00143567 9.86451e-05 -0.0906376)
(0.000208708 0.000153385 -0.0822295)
(-0.00104941 7.8191e-05 -0.0797912)
(-4.95808e-05 0.000160023 -0.0856196)
(0.00131545 8.31596e-05 -0.0817863)
(0.000190455 0.000130876 -0.0742802)
(-0.000950715 6.43912e-05 -0.0710457)
(-4.98973e-05 0.000132853 -0.0762187)
(0.00118823 6.84804e-05 -0.0728123)
(0.000170712 0.000109591 -0.0662641)
(-0.000848208 5.14912e-05 -0.0623475)
(-4.87898e-05 0.000107815 -0.0668079)
(0.00105631 5.48163e-05 -0.0638699)
(0.000150342 8.97409e-05 -0.0582992)
(-0.000743662 3.96725e-05 -0.0538294)
(-4.64499e-05 8.51332e-05 -0.0575605)
(0.000922045 4.23361e-05 -0.0551047)
(0.000130242 7.1538e-05 -0.0504887)
(-0.000638474 2.91238e-05 -0.0455893)
(-4.32877e-05 6.49857e-05 -0.048615)
(0.000787576 3.12225e-05 -0.0466268)
(0.000111168 5.51621e-05 -0.0429055)
(-0.000533648 2.00242e-05 -0.0376807)
(-3.9832e-05 4.7435e-05 -0.0400539)
(0.000654612 2.16418e-05 -0.0384985)
(9.3629e-05 4.07056e-05 -0.0355881)
(-0.00042989 1.25039e-05 -0.0301196)
(-3.65782e-05 3.26278e-05 -0.0319075)
(0.00052437 1.37117e-05 -0.0307399)
(7.79071e-05 2.83583e-05 -0.0285475)
(-0.000327713 6.05958e-06 -0.0228986)
(-3.38811e-05 2.08181e-05 -0.0241716)
(0.000397645 6.92275e-06 -0.0233446)
(6.41149e-05 1.83753e-05 -0.0217777)
(-0.000227535 4.05948e-06 -0.0160008)
(-3.18998e-05 9.66981e-06 -0.0168268)
(0.000274958 4.52629e-06 -0.0162949)
(5.22257e-05 8.6206e-06 -0.0152664)
(-0.000131152 -1.18546e-06 -0.00940162)
(-2.60952e-05 5.31985e-06 -0.0098465)
(0.000158057 -9.18428e-07 -0.00956416)
(3.76581e-05 4.8892e-06 -0.00899711)
(-4.1446e-05 6.35372e-07 -0.00307118)
(-1.11215e-05 -1.18892e-07 -0.00320036)
(4.98285e-05 6.69797e-07 -0.00312034)
(1.47912e-05 -1.00305e-07 -0.00294925)
(5.2078e-05 -0.000317827 -0.282338)
(-0.00044623 -0.00058516 -0.27198)
(0.000245448 -8.93401e-05 -0.280703)
(-7.03872e-05 0.000128394 -0.279214)
(5.3198e-05 -0.000319646 -0.281781)
(-0.000474059 -0.000577372 -0.270817)
(0.000220302 -9.03407e-05 -0.280086)
(-4.73658e-05 0.000131084 -0.278761)
(5.76946e-05 -0.000319071 -0.281119)
(-0.000499049 -0.000579429 -0.269744)
(0.000190288 -9.67195e-05 -0.279355)
(-2.60718e-05 0.000129089 -0.278219)
(5.93783e-05 -0.000306482 -0.280372)
(-0.000521193 -0.000585979 -0.268694)
(0.000161655 -0.000103864 -0.278505)
(-7.99962e-06 0.00012388 -0.2776)
(5.85929e-05 -0.000294796 -0.27953)
(-0.000538432 -0.000589872 -0.267589)
(0.00013732 -0.000104479 -0.277543)
(9.11013e-06 0.000120071 -0.276877)
(6.14451e-05 -0.000290943 -0.278569)
(-0.000549343 -0.00059045 -0.266404)
(0.000118367 -0.000101568 -0.276494)
(2.78311e-05 0.000119444 -0.276035)
(7.01967e-05 -0.000290305 -0.277487)
(-0.000557421 -0.000590089 -0.265135)
(9.99685e-05 -0.000102373 -0.275375)
(4.66572e-05 0.000119298 -0.275073)
(8.66842e-05 -0.000289261 -0.276311)
(-0.00056902 -0.000587064 -0.263795)
(7.87226e-05 -0.000105318 -0.274177)
(6.38613e-05 0.000120718 -0.274008)
(0.000101405 -0.000281678 -0.27509)
(-0.000583925 -0.000583414 -0.262385)
(4.93592e-05 -0.000115208 -0.272897)
(8.06623e-05 0.000119351 -0.272896)
(0.000105006 -0.000274661 -0.273883)
(-0.000601769 -0.000582017 -0.260902)
(2.31684e-05 -0.000121114 -0.271624)
(9.63586e-05 0.000114325 -0.271758)
(0.000104414 -0.000267841 -0.272669)
(-0.000613531 -0.000578842 -0.259346)
(7.75103e-06 -0.00011891 -0.270362)
(0.00010999 0.000112863 -0.270579)
(0.000101358 -0.000260179 -0.271422)
(-0.000616878 -0.000573145 -0.257742)
(-1.64166e-06 -0.000114132 -0.269076)
(0.000121815 0.000115853 -0.269336)
(9.75731e-05 -0.000253883 -0.270095)
(-0.000619897 -0.000565484 -0.256104)
(-1.01451e-05 -0.000109694 -0.267706)
(0.000135095 0.000111781 -0.268042)
(9.65345e-05 -0.000248563 -0.26869)
(-0.000624137 -0.0005587 -0.25448)
(-2.45086e-05 -0.000114257 -0.266235)
(0.000147478 0.000105988 -0.266692)
(0.000105188 -0.000239175 -0.267249)
(-0.000626944 -0.000549277 -0.252858)
(-4.31875e-05 -0.00012371 -0.264716)
(0.000160618 0.00010658 -0.265282)
(0.000119711 -0.000229853 -0.265791)
(-0.000626645 -0.000544355 -0.251219)
(-5.95076e-05 -0.000124815 -0.263195)
(0.000174741 0.000110903 -0.26383)
(0.000133229 -0.000222504 -0.264314)
(-0.000623279 -0.000538814 -0.249518)
(-7.71443e-05 -0.000119091 -0.261653)
(0.000186388 0.000109107 -0.26235)
(0.000143972 -0.000209031 -0.262808)
(-0.000619017 -0.00052608 -0.247729)
(-9.81611e-05 -0.000114266 -0.260069)
(0.000193366 0.000105939 -0.26082)
(0.000155914 -0.00019623 -0.261236)
(-0.000613333 -0.000510527 -0.245921)
(-0.000121903 -0.00011228 -0.258428)
(0.000194439 0.00010819 -0.25923)
(0.000167187 -0.000190888 -0.259599)
(-0.000608809 -0.000493398 -0.244112)
(-0.000148802 -0.000116013 -0.256706)
(0.00019227 0.000111605 -0.257589)
(0.000176443 -0.000184046 -0.257935)
(-0.00060437 -0.000483974 -0.242305)
(-0.000178452 -0.000118342 -0.254933)
(0.000187294 0.000114139 -0.255911)
(0.000185518 -0.000173097 -0.256241)
(-0.000600616 -0.000477616 -0.240473)
(-0.000207563 -0.000116095 -0.253147)
(0.00018222 0.000115473 -0.254235)
(0.00019791 -0.000161466 -0.254504)
(-0.000594356 -0.000462498 -0.238574)
(-0.000234075 -0.000109949 -0.25136)
(0.000177966 0.000120335 -0.252528)
(0.000214348 -0.000146603 -0.252714)
(-0.000584163 -0.000440869 -0.236576)
(-0.000256563 -0.000104359 -0.249534)
(0.000168312 0.000123764 -0.250788)
(0.000235323 -0.000131135 -0.250866)
(-0.000569359 -0.000424693 -0.234525)
(-0.000275558 -9.91401e-05 -0.247632)
(0.000152089 0.000126307 -0.249015)
(0.00026322 -0.000121234 -0.248957)
(-0.000552702 -0.000410244 -0.232436)
(-0.000294701 -9.27031e-05 -0.245667)
(0.000133615 0.000131186 -0.247182)
(0.000298928 -0.000115916 -0.246961)
(-0.000540032 -0.000388122 -0.230269)
(-0.00031504 -8.40845e-05 -0.243636)
(0.000121176 0.000137189 -0.245281)
(0.000334276 -0.00010605 -0.244874)
(-0.000532139 -0.000365026 -0.228052)
(-0.000338092 -7.85766e-05 -0.241534)
(0.000114886 0.000144157 -0.24331)
(0.000363623 -8.3476e-05 -0.242715)
(-0.000522287 -0.00034618 -0.225798)
(-0.000364602 -7.20172e-05 -0.239364)
(0.000108181 0.000146458 -0.241273)
(0.000380384 -6.52573e-05 -0.240514)
(-0.000510547 -0.000330116 -0.223499)
(-0.000392508 -6.00344e-05 -0.237128)
(9.9279e-05 0.000149192 -0.239135)
(0.000390646 -5.03609e-05 -0.238276)
(-0.0004994 -0.000306375 -0.221105)
(-0.000418196 -4.45391e-05 -0.234804)
(8.7655e-05 0.00015759 -0.236892)
(0.000399437 -3.55499e-05 -0.235963)
(-0.000489864 -0.000279704 -0.218625)
(-0.000444087 -3.24511e-05 -0.232352)
(6.96654e-05 0.000166403 -0.234568)
(0.000408347 -1.91988e-05 -0.233545)
(-0.000482116 -0.000256137 -0.216097)
(-0.000472447 -2.47184e-05 -0.229783)
(4.77526e-05 0.000176901 -0.232173)
(0.000418138 -5.23046e-06 -0.231018)
(-0.000473696 -0.000236626 -0.213514)
(-0.000495673 -1.5432e-05 -0.227166)
(2.79634e-05 0.000186215 -0.229712)
(0.000431944 7.36446e-06 -0.228411)
(-0.000462737 -0.000215677 -0.210846)
(-0.000513343 6.6753e-09 -0.224512)
(1.12768e-05 0.000193509 -0.227167)
(0.000450131 2.18264e-05 -0.225758)
(-0.000447475 -0.000188649 -0.208078)
(-0.00052993 1.47986e-05 -0.221783)
(-7.06676e-06 0.000200146 -0.224518)
(0.000469073 3.78142e-05 -0.223059)
(-0.000429601 -0.000161232 -0.205219)
(-0.000547641 2.99208e-05 -0.218984)
(-2.93683e-05 0.000204305 -0.221766)
(0.00048562 5.4461e-05 -0.220281)
(-0.000413325 -0.000136925 -0.202286)
(-0.000567612 4.20503e-05 -0.216107)
(-5.13531e-05 0.000212743 -0.218942)
(0.000497892 6.82483e-05 -0.217414)
(-0.000401116 -0.00011657 -0.199295)
(-0.0005866 5.3599e-05 -0.213158)
(-6.97152e-05 0.000223416 -0.216027)
(0.000504838 8.12705e-05 -0.214468)
(-0.000390254 -9.67489e-05 -0.196231)
(-0.00060195 6.64455e-05 -0.210119)
(-8.34626e-05 0.000232595 -0.212996)
(0.000506816 9.3671e-05 -0.211426)
(-0.000378724 -7.36644e-05 -0.193074)
(-0.000613618 7.99396e-05 -0.20697)
(-9.52504e-05 0.000238712 -0.209869)
(0.00050684 0.000106043 -0.208282)
(-0.000364797 -5.14469e-05 -0.189844)
(-0.000622835 9.23177e-05 -0.203712)
(-0.000107539 0.000243669 -0.206656)
(0.000509194 0.000118458 -0.205034)
(-0.000350725 -3.04259e-05 -0.186539)
(-0.000631324 0.000101499 -0.200348)
(-0.000120226 0.00024954 -0.203356)
(0.000516942 0.000129799 -0.201686)
(-0.000338957 -1.07754e-05 -0.183145)
(-0.000640372 0.000110134 -0.196883)
(-0.000132395 0.000254914 -0.199961)
(0.000530389 0.000140461 -0.198242)
(-0.00032832 7.42063e-06 -0.179655)
(-0.000650845 0.000120508 -0.193325)
(-0.000143776 0.000259245 -0.19646)
(0.000547411 0.000149304 -0.194695)
(-0.000317038 2.51225e-05 -0.17607)
(-0.000663325 0.000131084 -0.189669)
(-0.000154959 0.000262836 -0.192848)
(0.000562747 0.000157732 -0.191045)
(-0.000304505 4.15487e-05 -0.172384)
(-0.000677469 0.000139691 -0.185902)
(-0.000166325 0.000265798 -0.189119)
(0.000573903 0.000165562 -0.187286)
(-0.000291865 5.74124e-05 -0.168585)
(-0.000691854 0.000146559 -0.182011)
(-0.000177462 0.000268321 -0.185262)
(0.00058197 0.000172279 -0.183409)
(-0.000280204 7.24648e-05 -0.164668)
(-0.000704768 0.00015211 -0.177988)
(-0.000187472 0.000269936 -0.181264)
(0.000588743 0.000178347 -0.179405)
(-0.000269517 8.57959e-05 -0.160634)
(-0.000715063 0.000157672 -0.17383)
(-0.000196125 0.000270275 -0.177117)
(0.000595331 0.000183178 -0.17526)
(-0.000259347 9.7664e-05 -0.156473)
(-0.000723148 0.00016292 -0.169528)
(-0.000203412 0.000269509 -0.172807)
(0.000601955 0.000186816 -0.170965)
(-0.000249268 0.000108233 -0.152168)
(-0.000730185 0.000167099 -0.165064)
(-0.000209305 0.00026775 -0.168318)
(0.00060881 0.000189358 -0.166504)
(-0.000239221 0.000117439 -0.147701)
(-0.000736986 0.000169637 -0.160418)
(-0.000213851 0.000265085 -0.163633)
(0.000616042 0.000190804 -0.161859)
(-0.000229296 0.000125031 -0.143061)
(-0.00074374 0.000170665 -0.155572)
(-0.000217122 0.000261328 -0.15874)
(0.000623505 0.000190991 -0.157009)
(-0.000219553 0.000131074 -0.138242)
(-0.000750277 0.000170648 -0.150511)
(-0.000219189 0.000256245 -0.153627)
(0.00063085 0.000189759 -0.151941)
(-0.000210053 0.000135443 -0.133242)
(-0.000756329 0.000169279 -0.145227)
(-0.000219963 0.000249829 -0.148285)
(0.000637671 0.000187174 -0.146644)
(-0.000200843 0.000137946 -0.128058)
(-0.000761534 0.000166544 -0.139709)
(-0.0002193 0.000242048 -0.142705)
(0.000643667 0.000183252 -0.141109)
(-0.000191885 0.000138683 -0.122685)
(-0.000765516 0.000162566 -0.133949)
(-0.00021716 0.000232941 -0.136877)
(0.00064864 0.000178034 -0.135328)
(-0.00018306 0.000137719 -0.117116)
(-0.000767951 0.00015741 -0.127936)
(-0.000213584 0.000222578 -0.13079)
(0.00065241 0.000171604 -0.12929)
(-0.00017423 0.000135186 -0.111344)
(-0.000768507 0.000151137 -0.121656)
(-0.000208612 0.000211015 -0.124432)
(0.000654736 0.000164072 -0.122984)
(-0.000165301 0.000131308 -0.105359)
(-0.00076679 0.000143751 -0.115097)
(-0.000202252 0.000198408 -0.117791)
(0.000655266 0.000155486 -0.116395)
(-0.000156219 0.000126229 -0.0991547)
(-0.000762355 0.00013528 -0.108243)
(-0.000194533 0.000184943 -0.110851)
(0.00065357 0.000145854 -0.109509)
(-0.000146923 0.000119995 -0.0927182)
(-0.000754532 0.000125918 -0.101078)
(-0.000185551 0.000170761 -0.103596)
(0.000649014 0.00013535 -0.102308)
(-0.000137346 0.000112677 -0.0860445)
(-0.000742269 0.000115948 -0.0935906)
(-0.000175394 0.000155919 -0.0960152)
(0.000640613 0.000124244 -0.0947799)
(-0.000127459 0.000104416 -0.0791463)
(-0.00072435 0.000105574 -0.0857943)
(-0.000164084 0.000140537 -0.0881192)
(0.000627251 0.000112766 -0.0869398)
(-0.000117308 9.5464e-05 -0.072062)
(-0.000699534 9.48325e-05 -0.0777398)
(-0.000151619 0.000124878 -0.0799523)
(0.000607895 0.000100998 -0.0788391)
(-0.00010701 8.60072e-05 -0.0648602)
(-0.000666875 8.37708e-05 -0.0695224)
(-0.000138056 0.000109217 -0.071604)
(0.000581708 8.8984e-05 -0.0705728)
(-9.67227e-05 7.61902e-05 -0.0576407)
(-0.000626124 7.26229e-05 -0.061281)
(-0.000123617 9.37984e-05 -0.0632085)
(0.000548378 7.69358e-05 -0.0622785)
(-8.65903e-05 6.62231e-05 -0.0505269)
(-0.000577813 6.16489e-05 -0.0531832)
(-0.000108686 7.88492e-05 -0.0549311)
(0.000508302 6.5129e-05 -0.054122)
(-7.67067e-05 5.63196e-05 -0.0436486)
(-0.00052329 5.10547e-05 -0.0453978)
(-9.37371e-05 6.46363e-05 -0.0469429)
(0.000462551 5.37952e-05 -0.0462692)
(-6.70993e-05 4.67003e-05 -0.0371218)
(-0.000464514 4.10485e-05 -0.0380623)
(-7.9264e-05 5.14358e-05 -0.0393893)
(0.000412711 4.31467e-05 -0.0388556)
(-5.77394e-05 3.75699e-05 -0.0310306)
(-0.000403591 3.18315e-05 -0.0312623)
(-6.56834e-05 3.94794e-05 -0.0323658)
(0.000360523 3.33859e-05 -0.0319666)
(-4.85718e-05 2.9124e-05 -0.0254194)
(-0.000342334 2.35788e-05 -0.0250307)
(-5.32699e-05 2.89437e-05 -0.025914)
(0.00030754 2.46843e-05 -0.0256363)
(-3.95442e-05 2.15379e-05 -0.0202978)
(-0.000282064 1.64356e-05 -0.0193629)
(-4.21588e-05 1.99542e-05 -0.0200343)
(0.000254953 1.71817e-05 -0.0198621)
(-3.06254e-05 1.49557e-05 -0.0156521)
(-0.000223638 1.03662e-05 -0.0142336)
(-3.23846e-05 1.24402e-05 -0.014704)
(0.000203579 1.08279e-05 -0.0146213)
(-2.18072e-05 9.31121e-06 -0.0114568)
(-0.00016757 5.38576e-06 -0.00961039)
(-2.39231e-05 6.45436e-06 -0.00989138)
(0.00015395 5.64183e-06 -0.00988367)
(-1.30943e-05 4.94661e-06 -0.00768319)
(-0.000108119 2.16024e-06 -0.00544888)
(-1.55723e-05 2.49715e-06 -0.00557163)
(0.00010037 2.24945e-06 -0.00560866)
(-5.62412e-06 1.76567e-06 -0.00431125)
(-3.86288e-05 1.29956e-07 -0.00170034)
(-5.73351e-06 1.74479e-07 -0.00172255)
(3.62099e-05 1.496e-07 -0.00175181)
(-9.57751e-07 1.54546e-07 -0.00132542)
)
;

boundaryField
{
    leftWall
    {
        type            calculated;
        value           nonuniform 0();
    }
    rightWall
    {
        type            calculated;
        value           uniform (0 0 0);
    }
    leftSides_periodic0
    {
        type            cyclic;
    }
    leftSides_periodic1
    {
        type            cyclic;
    }
    rightSides_periodic0
    {
        type            cyclic;
    }
    rightSides_periodic1
    {
        type            cyclic;
    }
    leftInOut_periodic0
    {
        type            cyclic;
    }
    leftInOut_periodic1
    {
        type            cyclic;
    }
    rightInOut_periodic0
    {
        type            cyclic;
    }
    rightInOut_periodic1
    {
        type            cyclic;
    }
    procBoundary3to1
    {
        type            processor;
        value           nonuniform List<vector> 
316
(
(0.000113861 0.000345724 -0.281232)
(-0.000157468 0.000453959 -0.280002)
(0.00029085 9.11332e-05 -0.283062)
(-0.00035153 3.04696e-05 -0.273891)
(0.000108011 0.000345998 -0.280744)
(-0.000155201 0.000456308 -0.280004)
(0.000280117 0.000101419 -0.282535)
(-0.0003496 2.6267e-05 -0.273107)
(9.38562e-05 0.000336502 -0.280164)
(-0.000151421 0.00045614 -0.279817)
(0.000260279 0.000104575 -0.281879)
(-0.000351721 2.83326e-05 -0.272199)
(8.15826e-05 0.000330194 -0.279488)
(-0.000145097 0.000455155 -0.279459)
(0.000247787 0.000104888 -0.281122)
(-0.000356182 3.1713e-05 -0.271223)
(7.14092e-05 0.000334643 -0.278688)
(-0.000138276 0.000453333 -0.278962)
(0.000242339 0.00010384 -0.280288)
(-0.000363367 3.58747e-05 -0.270155)
(5.62792e-05 0.000335675 -0.277778)
(-0.000132777 0.000454624 -0.278357)
(0.000241276 9.96873e-05 -0.279407)
(-0.000371725 3.74028e-05 -0.268982)
(3.74048e-05 0.000329409 -0.276777)
(-0.000127365 0.000459362 -0.277643)
(0.00024151 9.87023e-05 -0.278461)
(-0.000378753 3.58077e-05 -0.267744)
(1.99723e-05 0.000316586 -0.275708)
(-0.000118349 0.000463831 -0.276807)
(0.000241552 0.000101884 -0.277425)
(-0.000384928 3.63358e-05 -0.266432)
(2.5504e-06 0.00031245 -0.274573)
(-0.000106275 0.00045945 -0.275855)
(0.000240642 0.000104177 -0.27631)
(-0.000393394 3.99554e-05 -0.265029)
(-1.86615e-05 0.000319295 -0.273352)
(-9.30466e-05 0.000454155 -0.274812)
(0.000234218 0.000102617 -0.275123)
(-0.00040404 4.02343e-05 -0.263532)
(-4.10279e-05 0.000315312 -0.272089)
(-8.2377e-05 0.000452567 -0.273702)
(0.000220193 0.000106924 -0.273858)
(-0.000415823 2.92072e-05 -0.261949)
(-5.79696e-05 0.000303564 -0.270784)
(-7.43585e-05 0.000453412 -0.272509)
(0.000209512 0.000108685 -0.272533)
(-0.000425024 2.44851e-05 -0.260336)
(-6.54429e-05 0.000298469 -0.269426)
(-6.81991e-05 0.000453372 -0.271208)
(0.000207067 0.00010295 -0.271145)
(-0.000431153 2.14698e-05 -0.258703)
(-7.36858e-05 0.000295275 -0.268018)
(-6.21981e-05 0.000448599 -0.269865)
(0.00021023 0.000100284 -0.26971)
(-0.000435927 1.72213e-05 -0.257079)
(-8.59838e-05 0.000287716 -0.266558)
(-5.87525e-05 0.000450678 -0.268524)
(0.00021272 0.000101609 -0.268227)
(-0.000440717 1.41942e-05 -0.255469)
(-0.000104586 0.000276962 -0.265033)
(-5.63162e-05 0.000453022 -0.267155)
(0.000217093 0.000103894 -0.266715)
(-0.000444525 9.92423e-06 -0.253849)
(-0.000128983 0.000268268 -0.263462)
(-5.21647e-05 0.000449609 -0.26572)
(0.000222699 0.000100944 -0.265181)
(-0.000447171 7.06625e-06 -0.252222)
(-0.000154754 0.000263693 -0.261863)
(-4.84817e-05 0.000440256 -0.264216)
(0.000227859 9.59018e-05 -0.26363)
(-0.000450075 2.05997e-06 -0.250574)
(-0.00017851 0.000264358 -0.260238)
(-4.7271e-05 0.00043504 -0.262675)
(0.000234522 9.20061e-05 -0.262057)
(-0.00045268 -1.221e-05 -0.248901)
(-0.000203829 0.000256896 -0.258608)
(-4.10913e-05 0.00043301 -0.261136)
(0.000245246 8.97767e-05 -0.260446)
(-0.000455897 -2.64852e-05 -0.247218)
(-0.000231041 0.000246269 -0.25696)
(-3.11969e-05 0.000429547 -0.259599)
(0.000259906 8.77773e-05 -0.258793)
(-0.000459467 -3.27142e-05 -0.245548)
(-0.000260239 0.000236399 -0.255272)
(-2.13137e-05 0.00042347 -0.25803)
(0.000275667 8.27013e-05 -0.257105)
(-0.000464258 -3.68331e-05 -0.243861)
(-0.00029061 0.000225843 -0.253553)
(-1.39983e-05 0.000413318 -0.256403)
(0.000292677 7.73194e-05 -0.25539)
(-0.000470704 -4.30904e-05 -0.242132)
(-0.0003227 0.000214337 -0.251806)
(-9.97418e-06 0.000406751 -0.254737)
(0.000311056 7.34057e-05 -0.253646)
(-0.000476745 -5.40413e-05 -0.240371)
(-0.000356347 0.000202618 -0.250023)
(-9.35584e-06 0.000396647 -0.253017)
(0.000330127 6.87678e-05 -0.251866)
(-0.000480862 -6.87557e-05 -0.238592)
(-0.000388387 0.000194425 -0.248198)
(-1.15876e-05 0.000383767 -0.251261)
(0.000350912 6.27195e-05 -0.250055)
(-0.000482639 -8.3837e-05 -0.236823)
(-0.000422322 0.000185174 -0.246361)
(-1.25157e-05 0.00037034 -0.249483)
(0.000375324 5.4772e-05 -0.248237)
(-0.00048225 -9.55574e-05 -0.235063)
(-0.000462101 0.000172842 -0.244519)
(-1.36112e-05 0.000359016 -0.247678)
(0.000402511 4.67983e-05 -0.246409)
(-0.000480644 -0.00010455 -0.233298)
(-0.000507019 0.000158195 -0.242664)
(-1.68776e-05 0.000350477 -0.245858)
(0.00043161 3.62055e-05 -0.244574)
(-0.000478882 -0.000114983 -0.231514)
(-0.000556315 0.000141699 -0.240785)
(-2.00469e-05 0.000336805 -0.244028)
(0.000461986 2.51607e-05 -0.242726)
(-0.000477712 -0.000128052 -0.2297)
(-0.000606454 0.000125313 -0.238887)
(-2.28642e-05 0.000320006 -0.242175)
(0.000494078 1.53629e-05 -0.240856)
(-0.000477107 -0.000144935 -0.227848)
(-0.000655581 0.000109932 -0.236968)
(-2.55604e-05 0.000303388 -0.240289)
(0.000528798 5.87844e-06 -0.238952)
(-0.000475802 -0.000160988 -0.225978)
(-0.000703597 9.52344e-05 -0.235025)
(-2.78216e-05 0.000287705 -0.238381)
(0.000565619 -5.23699e-06 -0.237016)
(-0.000473088 -0.0001749 -0.22411)
(-0.000749895 7.94549e-05 -0.233054)
(-2.8453e-05 0.000270315 -0.236451)
(0.000604182 -1.8503e-05 -0.235051)
(-0.000469661 -0.000186158 -0.222235)
(-0.000794493 6.16944e-05 -0.231056)
(-2.86959e-05 0.000251373 -0.234501)
(0.000641388 -3.02526e-05 -0.233064)
(-0.000466197 -0.00019781 -0.220338)
(-0.000837133 4.35339e-05 -0.229037)
(-2.99528e-05 0.000232869 -0.232528)
(0.000676779 -4.06754e-05 -0.231052)
(-0.000462772 -0.000211475 -0.218409)
(-0.00087837 2.63965e-05 -0.226993)
(-3.19401e-05 0.00021507 -0.230526)
(0.000711246 -5.10518e-05 -0.229011)