-0.0075 	0 	0 	0
-0.0075 	-4.48127e-34 	-5.47882e-36 	-6.62847e-33
-0.00745622 	-0.000588974 	-7.20082e-06 	-0.00871179
-0.00745622 	-0.000588974 	-7.20082e-06 	-0.00871179
-0.00741165 	-0.00111576 	-1.05601e-05 	-0.0185026
-0.00741165 	-0.00111576 	-1.05601e-05 	-0.0185026
-0.00736628 	-0.00152351 	-1.04746e-05 	-0.0287214
-0.00736628 	-0.00152351 	-1.04746e-05 	-0.0287214
-0.0073201 	-0.00186074 	-5.87261e-06 	-0.0389558
-0.0073201 	-0.00186074 	-5.87261e-06 	-0.0389558
-0.00727309 	-0.00216323 	1.22947e-06 	-0.0490551
-0.00727309 	-0.00216323 	1.22947e-06 	-0.0490551
-0.00722524 	-0.00243649 	1.05183e-05 	-0.0589851
-0.00722524 	-0.00243649 	1.05183e-05 	-0.0589851
-0.00717653 	-0.00268133 	2.17036e-05 	-0.0687045
-0.00717653 	-0.00268133 	2.17036e-05 	-0.0687045
-0.00712695 	-0.00289723 	3.45455e-05 	-0.0781538
-0.00712695 	-0.00289723 	3.45455e-05 	-0.0781538
-0.00707647 	-0.00308363 	4.9225e-05 	-0.0872726
-0.00707647 	-0.00308363 	4.9225e-05 	-0.0872726
-0.0070251 	-0.00324058 	6.5817e-05 	-0.0960101
-0.0070251 	-0.00324058 	6.5817e-05 	-0.0960101
-0.0069728 	-0.00336917 	8.4128e-05 	-0.104333
-0.0069728 	-0.00336917 	8.4128e-05 	-0.104333
-0.00691956 	-0.00347087 	0.00010407 	-0.112229
-0.00691956 	-0.00347087 	0.00010407 	-0.112229
-0.00686537 	-0.00354614 	0.000125435 	-0.119711
-0.00686537 	-0.00354614 	0.000125435 	-0.119711
-0.00681021 	-0.00359497 	0.000148286 	-0.126814
-0.00681021 	-0.00359497 	0.000148286 	-0.126814
-0.00675406 	-0.00361762 	0.000172664 	-0.133567
-0.00675406 	-0.00361762 	0.000172664 	-0.133567
-0.0066969 	-0.00361502 	0.000198552 	-0.139986
-0.0066969 	-0.00361502 	0.000198552 	-0.139986
-0.00663871 	-0.00358921 	0.000226123 	-0.146089
-0.00663871 	-0.00358921 	0.000226123 	-0.146089
-0.00657949 	-0.0035424 	0.000254475 	-0.151895
-0.00657949 	-0.0035424 	0.000254475 	-0.151895
-0.0065192 	-0.00347604 	0.000281719 	-0.15743
-0.0065192 	-0.00347604 	0.000281719 	-0.15743
-0.00645783 	-0.00339096 	0.000306613 	-0.162725
-0.00645783 	-0.00339096 	0.000306613 	-0.162725
-0.00639535 	-0.00328836 	0.000333202 	-0.16781
-0.00639535 	-0.00328836 	0.000333202 	-0.16781
-0.00633176 	-0.00317143 	0.000367091 	-0.172693
-0.00633176 	-0.00317143 	0.000367091 	-0.172693
-0.00626703 	-0.00304442 	0.000405217 	-0.17736
-0.00626703 	-0.00304442 	0.000405217 	-0.17736
-0.00620114 	-0.00290964 	0.000438847 	-0.181805
-0.00620114 	-0.00290964 	0.000438847 	-0.181805
-0.00613406 	-0.00276761 	0.000463292 	-0.186038
-0.00613406 	-0.00276761 	0.000463292 	-0.186038
-0.00606579 	-0.00261788 	0.000483011 	-0.190061
-0.00606579 	-0.00261788 	0.000483011 	-0.190061
-0.00599629 	-0.00245985 	0.000502379 	-0.193875
-0.00599629 	-0.00245985 	0.000502379 	-0.193875
-0.00592554 	-0.00229407 	0.000520789 	-0.197499
-0.00592554 	-0.00229407 	0.000520789 	-0.197499
-0.00585352 	-0.00212029 	0.000547749 	-0.200961
-0.00585352 	-0.00212029 	0.000547749 	-0.200961
-0.00578022 	-0.0019361 	0.000607059 	-0.204303
-0.00578022 	-0.0019361 	0.000607059 	-0.204303
-0.00570559 	-0.00174326 	0.000689055 	-0.207569
-0.00570559 	-0.00174326 	0.000689055 	-0.207569
-0.00562963 	-0.00154725 	0.000724416 	-0.210781
-0.00562963 	-0.00154725 	0.000724416 	-0.210781
-0.00555231 	-0.00134503 	0.00065753 	-0.21393
-0.00555231 	-0.00134503 	0.00065753 	-0.21393
-0.0054736 	-0.00113761 	0.000562058 	-0.21714
-0.0054736 	-0.00113761 	0.000562058 	-0.21714
-0.00539348 	-0.000949904 	0.000594025 	-0.220634
-0.00539348 	-0.000949904 	0.000594025 	-0.220634
-0.00531193 	-0.000795027 	0.000731595 	-0.224254
-0.00531193 	-0.000795027 	0.000731595 	-0.224254
-0.00522891 	-0.000638381 	0.000823649 	-0.227563
-0.00522891 	-0.000638381 	0.000823649 	-0.227563
-0.0051444 	-0.000442039 	0.000814506 	-0.230325
-0.0051444 	-0.000442039 	0.000814506 	-0.230325
-0.00505838 	-0.000216155 	0.000767532 	-0.232622
-0.00505838 	-0.000216155 	0.000767532 	-0.232622
-0.00497081 	8.74526e-06 	0.000763809 	-0.234706
-0.00497081 	8.74526e-06 	0.000763809 	-0.234706
-0.00488168 	0.000223113 	0.000782054 	-0.236728
-0.00488168 	0.000223113 	0.000782054 	-0.236728
-0.00479094 	0.000422654 	0.000777237 	-0.238725
-0.00479094 	0.000422654 	0.000777237 	-0.238725
-0.00469858 	0.000582325 	0.000773967 	-0.2408
-0.00469858 	0.000582325 	0.000773967 	-0.2408
-0.00460456 	0.000682052 	0.00079881 	-0.243131
-0.00460456 	0.000682052 	0.00079881 	-0.243131
-0.00450886 	0.000744869 	0.00083523 	-0.245714
-0.00450886 	0.000744869 	0.00083523 	-0.245714
-0.00441144 	0.000864005 	0.000830867 	-0.247957
-0.00441144 	0.000864005 	0.000830867 	-0.247957
-0.00431227 	0.00107767 	0.000782132 	-0.249496
-0.00431227 	0.00107767 	0.000782132 	-0.249496
-0.00421133 	0.00131082 	0.000746288 	-0.250734
-0.00421133 	0.00131082 	0.000746288 	-0.250734
-0.00410857 	0.00151005 	0.000740129 	-0.251996
-0.00410857 	0.00151005 	0.000740129 	-0.251996
-0.00400397 	0.00167497 	0.000741387 	-0.253291
-0.00400397 	0.00167497 	0.000741387 	-0.253291
-0.0038975 	0.00182108 	0.000734158 	-0.254543
-0.0038975 	0.00182108 	0.000734158 	-0.254543
-0.00378912 	0.00195502 	0.000713012 	-0.255713
-0.00378912 	0.00195502 	0.000713012 	-0.255713
-0.00367879 	0.0020595 	0.000663731 	-0.256856
-0.00367879 	0.0020595 	0.000663731 	-0.256856
-0.00356649 	0.00209132 	0.000648959 	-0.258172
-0.00356649 	0.00209132 	0.000648959 	-0.258172
-0.00345217 	0.00203982 	0.000737935 	-0.259867
-0.00345217 	0.00203982 	0.000737935 	-0.259867
-0.0033358 	0.00197151 	0.000835844 	-0.261792
-0.0033358 	0.00197151 	0.000835844 	-0.261792
-0.00321735 	0.00203682 	0.000712249 	-0.263016
-0.00321735 	0.00203682 	0.000712249 	-0.263016
-0.00309677 	0.00219084 	0.000331082 	-0.263534
-0.00309677 	0.00219084 	0.000331082 	-0.263534
-0.00297403 	0.00214298 	0.000218719 	-0.264855
-0.00297403 	0.00214298 	0.000218719 	-0.264855
-0.00284909 	0.00190356 	0.000499575 	-0.267012
-0.00284909 	0.00190356 	0.000499575 	-0.267012
-0.0027219 	0.00169826 	0.000644699 	-0.268916
-0.0027219 	0.00169826 	0.000644699 	-0.268916
-0.00259244 	0.00159848 	0.000541525 	-0.27034
-0.00259244 	0.00159848 	0.000541525 	-0.27034
-0.00246065 	0.00155446 	0.000427547 	-0.271428
-0.00246065 	0.00155446 	0.000427547 	-0.271428
-0.00232651 	0.00148123 	0.000403426 	-0.272226
-0.00232651 	0.00148123 	0.000403426 	-0.272226
-0.00218995 	0.00135958 	0.000400616 	-0.272812
-0.00218995 	0.00135958 	0.000400616 	-0.272812
-0.00205095 	0.00120033 	0.000372113 	-0.273442
-0.00205095 	0.00120033 	0.000372113 	-0.273442
-0.00190946 	0.00098628 	0.000344685 	-0.274405
-0.00190946 	0.00098628 	0.000344685 	-0.274405
-0.00176543 	0.000698154 	0.000351045 	-0.275829
-0.00176543 	0.000698154 	0.000351045 	-0.275829
-0.00161881 	0.000421909 	0.000321827 	-0.277114
-0.00161881 	0.000421909 	0.000321827 	-0.277114
-0.00146957 	0.000253467 	0.000228105 	-0.277625
-0.00146957 	0.000253467 	0.000228105 	-0.277625
-0.00131765 	0.000144106 	0.000155742 	-0.2777
-0.00131765 	0.000144106 	0.000155742 	-0.2777
-0.001163 	2.07268e-05 	0.000122389 	-0.27782
-0.001163 	2.07268e-05 	0.000122389 	-0.27782
-0.00100559 	-0.000124751 	9.02404e-05 	-0.278014
-0.00100559 	-0.000124751 	9.02404e-05 	-0.278014
-0.000845345 	-0.000277318 	6.31136e-05 	-0.278157
-0.000845345 	-0.000277318 	6.31136e-05 	-0.278157
-0.000682232 	-0.000437372 	2.81366e-05 	-0.278223
-0.000682232 	-0.000437372 	2.81366e-05 	-0.278223
-0.000516194 	-0.000607671 	-8.62589e-05 	-0.27816
-0.000516194 	-0.000607671 	-8.62589e-05 	-0.27816
-0.000347178 	-0.000777802 	-0.000188742 	-0.277804
-0.000347178 	-0.000777802 	-0.000188742 	-0.277804
-0.000175132 	-0.000934068 	-8.62411e-05 	-0.277016
-0.000175132 	-0.000934068 	-8.62411e-05 	-0.277016
0 	-0.00108306 	-1.71405e-06 	-0.276093
0 	-0.00108306 	-1.71405e-06 	-0.276093
0 	-0.00108306 	-1.71405e-06 	-0.276093
0 	-0.00108306 	-1.71405e-06 	-0.276093
0.000175132 	-0.00124644 	-0.000201529 	-0.27554
0.000175132 	-0.00329972 	-0.022398 	-0.242446
0.000347178 	-0.001424 	-0.000390221 	-0.275246
0.000347178 	-0.0033014 	-0.0237051 	-0.242116
0.000516194 	-0.00160036 	-0.000373625 	-0.274798
0.000516194 	-0.00327038 	-0.0235583 	-0.241846
0.000682232 	-0.00177358 	-0.000411324 	-0.274062
0.000682232 	-0.00319218 	-0.023795 	-0.240542
0.000845345 	-0.00194318 	-0.000546759 	-0.272893
0.000845345 	-0.00304197 	-0.024672 	-0.237297
0.00100559 	-0.00208635 	-0.00042084 	-0.27099
0.00100559 	-0.00269632 	-0.0235939 	-0.230376
0.001163 	-0.00215237 	8.0807e-05 	-0.268113
0.001163 	-0.00205453 	-0.0201658 	-0.219087
0.00131765 	-0.00208778 	0.000196761 	-0.265183
0.00131765 	-0.00135566 	-0.0200638 	-0.210962
0.00146957 	-0.0018694 	-0.000361748 	-0.262591
0.00146957 	-0.000804705 	-0.0232259 	-0.210832
0.00161881 	-0.00153203 	-0.000950014 	-0.259406
0.00161881 	-0.000339826 	-0.0244364 	-0.212397
0.00176543 	-0.00129053 	-0.000916539 	-0.256638
0.00176543 	8.45248e-05 	-0.0236715 	-0.211711
0.00190946 	-0.001275 	-0.000472508 	-0.255286
0.00190946 	0.000481886 	-0.0227381 	-0.209782
0.00205095 	-0.00136345 	-0.000302782 	-0.254477
0.00205095 	0.0008067 	-0.0224861 	-0.207836
0.00218995 	-0.00145832 	-0.000377798 	-0.253566
0.00218995 	0.00103247 	-0.0224385 	-0.20618
0.00232651 	-0.00153863 	-0.000491 	-0.252473
0.00232651 	0.00118722 	-0.0222846 	-0.20493
0.00246065 	-0.00161411 	-0.000541302 	-0.251291
0.00246065 	0.00131468 	-0.0221224 	-0.204242
0.00259244 	-0.0016913 	-0.000542956 	-0.250075
0.00259244 	0.00146421 	-0.0219704 	-0.203566
0.0027219 	-0.0017694 	-0.000547366 	-0.248832
0.0027219 	0.00167766 	-0.021822 	-0.202148
0.00284909 	-0.00184625 	-0.000553907 	-0.247551
0.00284909 	0.00194776 	-0.0216515 	-0.200147
0.00297403 	-0.00191945 	-0.00055415 	-0.246222
0.00297403 	0.00225371 	-0.0214457 	-0.198049
0.00309677 	-0.00198652 	-0.000570573 	-0.244839
0.00309677 	0.00259068 	-0.0212139 	-0.196044
0.00321735 	-0.00204677 	-0.000583004 	-0.2434
0.00321735 	0.00295176 	-0.0209672 	-0.194162
0.0033358 	-0.00210117 	-0.00048942 	-0.24188
0.0033358 	0.00332378 	-0.0206093 	-0.192565
0.00345217 	-0.00214456 	-0.000339315 	-0.240164
0.00345217 	0.0037169 	-0.0202597 	-0.191569
0.00356649 	-0.0021626 	-0.000398199 	-0.238007
0.00356649 	0.00417228 	-0.0203734 	-0.191065
0.00367879 	-0.00214084 	-0.00078157 	-0.235101
0.00367879 	0.00476595 	-0.0207698 	-0.189343
0.00378912 	0.00561812 	-0.0203625 	-0.184485
0.00378912 	-0.00208496 	-0.00107746 	-0.231554
0.0038975 	-0.00201422 	-0.000737205 	-0.228088
0.0038975 	0.0068078 	-0.0183212 	-0.175818
0.00400397 	-0.0019425 	-0.000141191 	-0.225161
0.00400397 	0.00811049 	-0.0161072 	-0.165264
0.00410857 	-0.00192293 	-5.4996e-05 	-0.222927
0.00410857 	0.0089142 	-0.0162402 	-0.15805
0.00421133 	-0.00199049 	-0.000375635 	-0.221282
0.00421133 	0.00897671 	-0.0177568 	-0.155877
0.00431227 	-0.00209929 	-0.000611086 	-0.219737
0.00431227 	0.00869691 	-0.0182504 	-0.155484
0.00441144 	-0.00220017 	-0.000586209 	-0.218031
0.00441144 	0.0084537 	-0.0174744 	-0.154628
0.00450886 	-0.00228146 	-0.000455914 	-0.216187
0.00450886 	0.00833166 	-0.0164114 	-0.153237
0.00460456 	-0.00235276 	-0.000398775 	-0.214282
0.00460456 	0.00825878 	-0.0158362 	-0.151823
0.00469858 	-0.00242021 	-0.000390473 	-0.212343
0.00469858 	0.00819066 	-0.0155346 	-0.150639
0.00479094 	-0.0024833 	-0.0003768 	-0.210368
0.00479094 	0.00812642 	-0.0151856 	-0.149668
0.00488168 	-0.00254083 	-0.000359927 	-0.20835
0.00488168 	0.00806751 	-0.014798 	-0.148398
0.00497081 	-0.00259215 	-0.000342591 	-0.206283
0.00497081 	0.00801836 	-0.0143902 	-0.146473
0.00505838 	-0.00263706 	-0.000325038 	-0.204163
0.00505838 	0.00797693 	-0.0139812 	-0.144234
0.0051444 	-0.00267563 	-0.000307167 	-0.201982
0.0051444 	0.00793375 	-0.0135799 	-0.142051
0.00522891 	-0.00270811 	-0.000288983 	-0.199733
0.00522891 	0.00788317 	-0.0131818 	-0.139989
0.00531193 	0.00782473 	-0.0127822 	-0.137956
0.00531193 	-0.00273475 	-0.000270612 	-0.197413
0.00539348 	-0.00275614 	-0.000252385 	-0.195013
0.00539348 	0.00775817 	-0.0123809 	-0.13587
0.0054736 	-0.00277364 	-0.000234853 	-0.19253
0.0054736 	0.00767921 	-0.0119799 	-0.133729
0.00555231 	-0.00278899 	-0.000218506 	-0.189959
0.00555231 	0.00758239 	-0.011581 	-0.131576
0.00562963 	-0.00280303 	-0.00020334 	-0.187293
0.00562963 	0.00746568 	-0.0111836 	-0.129443
0.00570559 	-0.00281513 	-0.000188823 	-0.184528
0.00570559 	0.00732954 	-0.010786 	-0.127283
0.00578022 	-0.00282346 	-0.000174418 	-0.181653
0.00578022 	0.00717574 	-0.010387 	-0.124988
0.00585352 	-0.00282595 	-0.000160224 	-0.17866
0.00585352 	0.00700649 	-0.00998653 	-0.122513
0.00592554 	-0.00282102 	-0.000146736 	-0.175536
0.00592554 	0.00682135 	-0.00958699 	-0.119921
0.00599629 	-0.00280733 	-0.000134064 	-0.172262
0.00599629 	0.0066191 	-0.00918912 	-0.117262
0.00606579 	0.00640199 	-0.00879091 	-0.114525
0.00606579 	-0.00278317 	-0.000121871 	-0.168817
0.00613406 	-0.00274652 	-0.000109987 	-0.165174
0.00613406 	0.00617548 	-0.00839109 	-0.111673
0.00620114 	-0.00269557 	-9.86809e-05 	-0.161298
0.00620114 	0.0059458 	-0.00798955 	-0.108684
0.00626703 	-0.00262929 	-8.82345e-05 	-0.15715
0.00626703 	0.00571871 	-0.00758623 	-0.105541
0.00633176 	-0.00254713 	-7.85067e-05 	-0.152693
0.00633176 	0.00549883 	-0.00718111 	-0.102235
0.00639535 	-0.00244833 	-6.92016e-05 	-0.147903
0.00639535 	0.00528833 	-0.00677416 	-0.0987651
0.00645783 	-0.00233191 	-6.04049e-05 	-0.142767
0.00645783 	0.00508617 	-0.00636548 	-0.0951336
0.0065192 	-0.00219745 	-5.24727e-05 	-0.137278
0.0065192 	0.00488885 	-0.00595538 	-0.0913413
0.00657949 	-0.00204615 	-4.56299e-05 	-0.131429
0.00657949 	0.00469155 	-0.00554418 	-0.087392
0.00663871 	-0.00188104 	-3.98459e-05 	-0.125213
0.00663871 	0.00448889 	-0.00513245 	-0.083302
0.0066969 	-0.00170644 	-3.49905e-05 	-0.11863
0.0066969 	0.00427556 	-0.00472097 	-0.0791063
0.00675406 	-0.0015277 	-3.102e-05 	-0.111682
0.00675406 	0.0040459 	-0.00431135 	-0.0748558
0.00681021 	-0.00135107 	-2.79717e-05 	-0.104373
0.00681021 	0.00379413 	-0.00390586 	-0.0706022
0.00686537 	-0.00118355 	-2.58111e-05 	-0.0967288
0.00686537 	0.00351578 	-0.00350689 	-0.0663932
0.00691956 	-0.00103232 	-2.42579e-05 	-0.0888066
0.00691956 	0.00320883 	-0.00311729 	-0.0622664
0.0069728 	-0.000903094 	-2.2912e-05 	-0.0806938
0.0069728 	0.00287478 	-0.00274047 	-0.0582313
0.0070251 	-0.000798791 	-2.14257e-05 	-0.0725002
0.0070251 	0.00251928 	-0.00237993 	-0.0542558
0.00707647 	-0.000718079 	-1.94972e-05 	-0.0643422
0.00707647 	0.0021525 	-0.00203853 	-0.0502707
0.00712695 	-0.000654228 	-1.69341e-05 	-0.0563229
0.00712695 	0.00179031 	-0.00171838 	-0.0461862
0.00717653 	-0.000594676 	-1.37061e-05 	-0.0485134
0.00717653 	0.00145625 	-0.00142113 	-0.041912
0.00722524 	-0.000520609 	-9.9324e-06 	-0.0409448
0.00722524 	0.00118496 	-0.0011438 	-0.0373637
0.00727309 	-0.000404867 	-5.83317e-06 	-0.0336104
0.00727309 	0.00102888 	-0.000890584 	-0.0324481
0.0073201 	-0.000206237 	-1.86479e-06 	-0.0264718
0.0073201 	0.0010716 	-0.000685289 	-0.0270254
0.00736628 	0.000141461 	1.86745e-06 	-0.0194897
0.00736628 	0.0014513 	-0.000399651 	-0.0208878
0.00741165 	0.000522588 	2.85596e-06 	-0.0126722
0.00741165 	0.00189894 	-0.00025781 	-0.0139387
0.00745622 	0.000538494 	2.11903e-06 	-0.00611801
0.00745622 	0.00153834 	-0.000125425 	-0.00664662
0.0075 	0 	0 	0
0.0075 	0 	0 	0
