0 	0 	0 	0
5.01672e-05 	-2.58381e-05 	-4.90662e-06 	0.020453
0.000100334 	-5.16762e-05 	-9.81325e-06 	0.0409061
0.000150502 	-7.75144e-05 	-1.47199e-05 	0.0613591
0.000200669 	-0.000103352 	-1.96265e-05 	0.0818121
0.000250836 	-0.000129191 	-2.45331e-05 	0.102265
0.000301003 	-0.000155029 	-2.94397e-05 	0.122718
0.000351171 	-0.000178343 	-3.50876e-05 	0.141037
0.000401338 	-0.000192114 	-4.35383e-05 	0.151288
0.000451505 	-0.000205886 	-5.1989e-05 	0.161538
0.000501672 	-0.000219657 	-6.04397e-05 	0.171788
0.000551839 	-0.000233428 	-6.88905e-05 	0.182039
0.000602007 	-0.000247199 	-7.73412e-05 	0.192289
0.000652174 	-0.00026097 	-8.57919e-05 	0.202539
0.000702341 	-0.000274742 	-9.42426e-05 	0.21279
0.000752508 	-0.000285417 	-0.000102902 	0.221625
0.000802676 	-0.000288418 	-0.000112079 	0.226951
0.000852843 	-0.000291418 	-0.000121255 	0.232277
0.00090301 	-0.000294419 	-0.000130432 	0.237603
0.000953177 	-0.000297419 	-0.000139608 	0.242929
0.00100334 	-0.00030042 	-0.000148785 	0.248255
0.00105351 	-0.00030342 	-0.000157961 	0.253581
0.00110368 	-0.000306421 	-0.000167138 	0.258907
0.00115385 	-0.000309421 	-0.000176314 	0.264233
0.00120401 	-0.000312203 	-0.000185441 	0.269453
0.00125418 	-0.000310498 	-0.000193536 	0.272501
0.00130435 	-0.000308792 	-0.000201632 	0.27555
0.00135452 	-0.000307087 	-0.000209728 	0.278598
0.00140468 	-0.000305382 	-0.000217824 	0.281647
0.00145485 	-0.000303676 	-0.000225919 	0.284695
0.00150502 	-0.000301971 	-0.000234015 	0.287744
0.00155518 	-0.000300266 	-0.000242111 	0.290792
0.00160535 	-0.00029856 	-0.000250207 	0.293841
0.00165552 	-0.000296855 	-0.000258302 	0.296889
0.00170569 	-0.00029515 	-0.000266398 	0.299938
0.00175585 	-0.000293181 	-0.000274044 	0.302695
0.00180602 	-0.000290486 	-0.000280451 	0.30465
0.00185619 	-0.000287792 	-0.000286859 	0.306605
0.00190635 	-0.000285098 	-0.000293266 	0.30856
0.00195652 	-0.000282403 	-0.000299674 	0.310515
0.00200669 	-0.000279709 	-0.000306081 	0.31247
0.00205686 	-0.000277015 	-0.000312489 	0.314425
0.00210702 	-0.00027432 	-0.000318896 	0.31638
0.00215719 	-0.000271626 	-0.000325304 	0.318335
0.00220736 	-0.000268932 	-0.000331712 	0.32029
0.00225753 	-0.000266237 	-0.000338119 	0.322245
0.00230769 	-0.000263543 	-0.000344527 	0.3242
0.00235786 	-0.000260848 	-0.000350934 	0.326155
0.00240803 	-0.000258462 	-0.00035609 	0.327671
0.00245819 	-0.000256212 	-0.000360688 	0.32899
0.00250836 	-0.000253963 	-0.000365286 	0.33031
0.00255853 	-0.000251713 	-0.000369884 	0.331629
0.0026087 	-0.000249463 	-0.000374482 	0.332949
0.00265886 	-0.000247214 	-0.00037908 	0.334268
0.00270903 	-0.000244964 	-0.000383678 	0.335588
0.0027592 	-0.000242715 	-0.000388276 	0.336907
0.00280936 	-0.000240465 	-0.000392873 	0.338226
0.00285953 	-0.000238215 	-0.000397471 	0.339546
0.0029097 	-0.000235966 	-0.000402069 	0.340865
0.00295987 	-0.000233716 	-0.000406667 	0.342185
0.00301003 	-0.000231467 	-0.000411265 	0.343504
0.0030602 	-0.000229217 	-0.000415863 	0.344824
0.00311037 	-0.000226984 	-0.000420429 	0.346133
0.00316054 	-0.000225451 	-0.000423634 	0.347016
0.0032107 	-0.000223917 	-0.000426838 	0.347899
0.00326087 	-0.000222384 	-0.000430043 	0.348782
0.00331104 	-0.000220851 	-0.000433247 	0.349666
0.0033612 	-0.000219318 	-0.000436452 	0.350549
0.00341137 	-0.000217784 	-0.000439656 	0.351432
0.00346154 	-0.000216251 	-0.00044286 	0.352315
0.00351171 	-0.000214718 	-0.000446065 	0.353198
0.00356187 	-0.000213185 	-0.000449269 	0.354081
0.00361204 	-0.000211652 	-0.000452474 	0.354964
0.00366221 	-0.000210118 	-0.000455678 	0.355847
0.00371237 	-0.000208585 	-0.000458883 	0.35673
0.00376254 	-0.000207052 	-0.000462087 	0.357613
0.00381271 	-0.000205519 	-0.000465291 	0.358496
0.00386288 	-0.000203985 	-0.000468496 	0.359379
0.00391304 	-0.000202452 	-0.0004717 	0.360263
0.00396321 	-0.000200919 	-0.000474905 	0.361146
0.00401338 	-0.000199834 	-0.000477261 	0.361726
0.00406355 	-0.000198793 	-0.000479534 	0.362276
0.00411371 	-0.000197751 	-0.000481806 	0.362826
0.00416388 	-0.00019671 	-0.000484079 	0.363376
0.00421405 	-0.000195669 	-0.000486352 	0.363926
0.00426421 	-0.000194628 	-0.000488625 	0.364477
0.00431438 	-0.000193587 	-0.000490898 	0.365027
0.00436455 	-0.000192545 	-0.000493171 	0.365577
0.00441472 	-0.000191504 	-0.000495443 	0.366127
0.00446488 	-0.000190463 	-0.000497716 	0.366677
0.00451505 	-0.000189422 	-0.000499989 	0.367228
0.00456522 	-0.000188381 	-0.000502262 	0.367778
0.00461538 	-0.000187339 	-0.000504535 	0.368328
0.00466555 	-0.000186298 	-0.000506808 	0.368878
0.00471572 	-0.000185257 	-0.00050908 	0.369428
0.00476589 	-0.000184216 	-0.000511353 	0.369979
0.00481605 	-0.000183175 	-0.000513626 	0.370529
0.00486622 	-0.000182133 	-0.000515899 	0.371079
0.00491639 	-0.000181092 	-0.000518172 	0.371629
0.00496656 	-0.000180051 	-0.000520445 	0.372179
0.00501672 	-0.000179229 	-0.000521983 	0.372477
0.00506689 	-0.000178418 	-0.000523483 	0.372761
0.00511706 	-0.000177607 	-0.000524983 	0.373045
0.00516722 	-0.000176796 	-0.000526482 	0.373329
0.00521739 	-0.000175985 	-0.000527982 	0.373613
0.00526756 	-0.000175175 	-0.000529482 	0.373897
0.00531773 	-0.000174364 	-0.000530981 	0.374181
0.00536789 	-0.000173553 	-0.000532481 	0.374466
0.00541806 	-0.000172742 	-0.00053398 	0.37475
0.00546823 	-0.000171932 	-0.00053548 	0.375034
0.00551839 	-0.000171121 	-0.00053698 	0.375318
0.00556856 	-0.00017031 	-0.000538479 	0.375602
0.00561873 	-0.000169499 	-0.000539979 	0.375886
0.0056689 	-0.000168689 	-0.000541478 	0.37617
0.00571906 	-0.000167878 	-0.000542978 	0.376454
0.00576923 	-0.000167067 	-0.000544478 	0.376738
0.0058194 	-0.000166256 	-0.000545977 	0.377022
0.00586957 	-0.000165445 	-0.000547477 	0.377307
0.00591973 	-0.000164635 	-0.000548977 	0.377591
0.0059699 	-0.000163824 	-0.000550476 	0.377875
0.00602007 	-0.000163013 	-0.000551976 	0.378159
0.00607023 	-0.000162202 	-0.000553475 	0.378443
0.0061204 	-0.000161392 	-0.000554975 	0.378727
0.00617057 	-0.00016068 	-0.00055594 	0.378864
0.00622074 	-0.000160019 	-0.000556634 	0.378927
0.0062709 	-0.000159358 	-0.000557328 	0.378989
0.00632107 	-0.000158697 	-0.000558022 	0.379052
0.00637124 	-0.000158036 	-0.000558716 	0.379114
0.0064214 	-0.000157375 	-0.00055941 	0.379177
0.00647157 	-0.000156714 	-0.000560104 	0.37924
0.00652174 	-0.000156053 	-0.000560798 	0.379302
0.00657191 	-0.000155392 	-0.000561492 	0.379365
0.00662207 	-0.000154731 	-0.000562186 	0.379427
0.00667224 	-0.00015407 	-0.00056288 	0.37949
0.00672241 	-0.000153409 	-0.000563574 	0.379553
0.00677258 	-0.000152748 	-0.000564268 	0.379615
0.00682274 	-0.000152087 	-0.000564962 	0.379678
0.00687291 	-0.000151425 	-0.000565656 	0.37974
0.00692308 	-0.000150764 	-0.000566351 	0.379803
0.00697324 	-0.000150103 	-0.000567045 	0.379865
0.00702341 	-0.000149442 	-0.000567739 	0.379928
0.00707358 	-0.000148781 	-0.000568433 	0.379991
0.00712375 	-0.00014812 	-0.000569127 	0.380053
0.00717391 	-0.000147459 	-0.000569821 	0.380116
0.00722408 	-0.000146798 	-0.000570515 	0.380178
0.00727425 	-0.000146137 	-0.000571209 	0.380241
0.00732441 	-0.000145476 	-0.000571903 	0.380303
0.00737458 	-0.000144815 	-0.000572597 	0.380366
0.00742475 	-0.000144154 	-0.000573291 	0.380429
0.00747492 	-0.000143493 	-0.000573985 	0.380491
0.00752508 	-0.000142891 	-0.000574273 	0.380454
0.00757525 	-0.000142348 	-0.000574156 	0.380317
0.00762542 	-0.000141804 	-0.00057404 	0.38018
0.00767559 	-0.000141261 	-0.000573923 	0.380043
0.00772575 	-0.000140718 	-0.000573806 	0.379906
0.00777592 	-0.000140175 	-0.000573689 	0.379769
0.00782609 	-0.000139632 	-0.000573572 	0.379632
0.00787625 	-0.000139089 	-0.000573455 	0.379495
0.00792642 	-0.000138545 	-0.000573338 	0.379358
0.00797659 	-0.000138002 	-0.000573222 	0.379221
0.00802676 	-0.000137459 	-0.000573105 	0.379084
0.00807692 	-0.000136916 	-0.000572988 	0.378947
0.00812709 	-0.000136373 	-0.000572871 	0.37881
0.00817726 	-0.00013583 	-0.000572754 	0.378673
0.00822742 	-0.000135286 	-0.000572637 	0.378536
0.00827759 	-0.000134743 	-0.00057252 	0.378399
0.00832776 	-0.0001342 	-0.000572403 	0.378262
0.00837793 	-0.000133657 	-0.000572287 	0.378125
0.00842809 	-0.000133114 	-0.00057217 	0.377989
0.00847826 	-0.000132571 	-0.000572053 	0.377852
0.00852843 	-0.000132027 	-0.000571936 	0.377715
0.0085786 	-0.000131484 	-0.000571819 	0.377578
0.00862876 	-0.000130941 	-0.000571702 	0.377441
0.00867893 	-0.000130398 	-0.000571585 	0.377304
0.0087291 	-0.000129855 	-0.000571468 	0.377167
0.00877926 	-0.000129311 	-0.000571352 	0.37703
0.00882943 	-0.000128768 	-0.000571235 	0.376893
0.0088796 	-0.000128283 	-0.000570781 	0.376674
0.00892977 	-0.000127911 	-0.000569664 	0.376294
0.00897993 	-0.000127539 	-0.000568548 	0.375915
0.0090301 	-0.000127167 	-0.000567431 	0.375535
0.00908027 	-0.000126795 	-0.000566314 	0.375155
0.00913043 	-0.000126423 	-0.000565197 	0.374776
0.0091806 	-0.000126051 	-0.00056408 	0.374396
0.00923077 	-0.00012568 	-0.000562963 	0.374016
0.00928094 	-0.000125308 	-0.000561846 	0.373636
0.0093311 	-0.000124936 	-0.000560729 	0.373257
0.00938127 	-0.000124564 	-0.000559612 	0.372877
0.00943144 	-0.000124192 	-0.000558495 	0.372497
0.00948161 	-0.00012382 	-0.000557379 	0.372118
0.00953177 	-0.000123448 	-0.000556262 	0.371738
0.00958194 	-0.000123076 	-0.000555145 	0.371358
0.00963211 	-0.000122705 	-0.000554028 	0.370978
0.00968227 	-0.000122333 	-0.000552911 	0.370599
0.00973244 	-0.000121961 	-0.000551794 	0.370219
0.00978261 	-0.000121589 	-0.000550677 	0.369839
0.00983278 	-0.000121217 	-0.00054956 	0.36946
0.00988294 	-0.000120845 	-0.000548443 	0.36908
0.00993311 	-0.000120473 	-0.000547327 	0.3687
0.00998328 	-0.000120101 	-0.00054621 	0.36832
0.0100334 	-0.000119749 	-0.000545035 	0.367926
0.0100836 	-0.000119764 	-0.000542792 	0.367259
0.0101338 	-0.000119779 	-0.000540549 	0.366592
0.0101839 	-0.000119794 	-0.000538305 	0.365926
0.0102341 	-0.000119809 	-0.000536062 	0.365259
0.0102843 	-0.000119824 	-0.000533819 	0.364592
0.0103344 	-0.000119839 	-0.000531575 	0.363925
0.0103846 	-0.000119854 	-0.000529332 	0.363258
0.0104348 	-0.000119869 	-0.000527089 	0.362591
0.0104849 	-0.000119884 	-0.000524845 	0.361925
0.0105351 	-0.0001199 	-0.000522602 	0.361258
0.0105853 	-0.000119915 	-0.000520359 	0.360591
0.0106355 	-0.00011993 	-0.000518115 	0.359924
0.0106856 	-0.000119945 	-0.000515872 	0.359257
0.0107358 	-0.00011996 	-0.000513628 	0.35859
0.010786 	-0.000119975 	-0.000511385 	0.357924
0.0108361 	-0.00011999 	-0.000509142 	0.357257
0.0108863 	-0.000120005 	-0.000506898 	0.35659
0.0109365 	-0.00012002 	-0.000504655 	0.355923
0.0109866 	-0.000120035 	-0.000502412 	0.355256
0.0110368 	-0.000120113 	-0.000500027 	0.354556
0.011087 	-0.00012084 	-0.000496203 	0.353517
0.0111371 	-0.000121566 	-0.000492379 	0.352479
0.0111873 	-0.000122293 	-0.000488555 	0.35144
0.0112375 	-0.000123019 	-0.000484731 	0.350401
0.0112876 	-0.000123746 	-0.000480907 	0.349363
0.0113378 	-0.000124472 	-0.000477083 	0.348324
0.011388 	-0.000125199 	-0.000473259 	0.347285
0.0114381 	-0.000125925 	-0.000469435 	0.346246
0.0114883 	-0.000126652 	-0.000465611 	0.345208
0.0115385 	-0.000127378 	-0.000461787 	0.344169
0.0115886 	-0.000128105 	-0.000457963 	0.34313
0.0116388 	-0.000128831 	-0.000454139 	0.342091
0.011689 	-0.000129558 	-0.000450315 	0.341053
0.0117391 	-0.000130284 	-0.000446491 	0.340014
0.0117893 	-0.000131011 	-0.000442667 	0.338975
0.0118395 	-0.000131737 	-0.000438843 	0.337937
0.0118896 	-0.000132464 	-0.000435019 	0.336898
0.0119398 	-0.000134205 	-0.000428751 	0.335315
0.01199 	-0.00013597 	-0.000422427 	0.333719
0.0120401 	-0.000137735 	-0.000416103 	0.332124
0.0120903 	-0.0001395 	-0.000409779 	0.330528
0.0121405 	-0.000141265 	-0.000403454 	0.328933
0.0121906 	-0.000143029 	-0.00039713 	0.327337
0.0122408 	-0.000144794 	-0.000390806 	0.325742
0.012291 	-0.000146559 	-0.000384482 	0.324146
0.0123411 	-0.000148324 	-0.000378158 	0.322551
0.0123913 	-0.000150089 	-0.000371834 	0.320955
0.0124415 	-0.000151854 	-0.00036551 	0.31936
0.0124916 	-0.000153619 	-0.000359185 	0.317765
0.0125418 	-0.000155384 	-0.000352861 	0.316169
0.012592 	-0.000157148 	-0.000346537 	0.314574
0.0126421 	-0.000159203 	-0.00033927 	0.31269
0.0126923 	-0.000161907 	-0.000329886 	0.310159
0.0127425 	-0.000164611 	-0.000320503 	0.307629
0.0127926 	-0.000167316 	-0.00031112 	0.305098
0.0128428 	-0.00017002 	-0.000301737 	0.302568
0.012893 	-0.000172724 	-0.000292353 	0.300037
0.0129431 	-0.000175428 	-0.00028297 	0.297507
0.0129933 	-0.000178132 	-0.000273587 	0.294976
0.0130435 	-0.000180837 	-0.000264204 	0.292446
0.0130936 	-0.000183541 	-0.00025482 	0.289915
0.0131438 	-0.000186245 	-0.000245437 	0.287385
0.013194 	-0.000188949 	-0.000236054 	0.284855
0.0132441 	-0.000191653 	-0.000226671 	0.282324
0.0132943 	-0.000193959 	-0.000215775 	0.278563
0.0133445 	-0.000196119 	-0.000204329 	0.274355
0.0133946 	-0.000198279 	-0.000192883 	0.270147
0.0134448 	-0.000200439 	-0.000181438 	0.265938
0.013495 	-0.000202599 	-0.000169992 	0.26173
0.0135452 	-0.00020476 	-0.000158547 	0.257522
0.0135953 	-0.00020692 	-0.000147101 	0.253314
0.0136455 	-0.00020908 	-0.000135655 	0.249105
0.0136957 	-0.00021124 	-0.00012421 	0.244897
0.0137458 	-0.0002134 	-0.000112764 	0.240689
0.013796 	-0.000215561 	-0.000101318 	0.236481
0.0138462 	-0.000213018 	-9.16653e-05 	0.229
0.0138963 	-0.000210247 	-8.20996e-05 	0.221359
0.0139465 	-0.000207476 	-7.25339e-05 	0.213719
0.0139967 	-0.000204704 	-6.29682e-05 	0.206078
0.0140468 	-0.000201933 	-5.34025e-05 	0.198438
0.014097 	-0.000199161 	-4.38368e-05 	0.190797
0.0141472 	-0.00019639 	-3.42711e-05 	0.183157
0.0141973 	-0.000193619 	-2.47054e-05 	0.175516
0.0142475 	-0.000190847 	-1.51397e-05 	0.167876
0.0142977 	-0.000181801 	-1.02958e-05 	0.157392
0.0143478 	-0.000170225 	-7.35623e-06 	0.145762
0.014398 	-0.000158649 	-4.41666e-06 	0.134132
0.0144482 	-0.000147072 	-1.47709e-06 	0.122502
0.0144983 	-0.000135496 	1.46248e-06 	0.110871
0.0145485 	-0.000123919 	4.40206e-06 	0.0992412
0.0145987 	-0.000112343 	7.34163e-06 	0.0876111
0.0146488 	-0.000100767 	1.02812e-05 	0.0759809
0.014699 	-8.68922e-05 	9.62703e-06 	0.0649831
0.0147492 	-7.24102e-05 	8.02252e-06 	0.0541526
0.0147993 	-5.79282e-05 	6.41802e-06 	0.0433221
0.0148495 	-4.34461e-05 	4.81351e-06 	0.0324916
0.0148997 	-2.89641e-05 	3.20901e-06 	0.021661
0.0149498 	-1.4482e-05 	1.6045e-06 	0.0108305
0.015 	0 	0 	0
