0 	0 	0 	0
5.01672e-05 	0.000604482 	-8.07605e-06 	0.0201088
0.000100334 	0.000623967 	-2.28481e-05 	0.0354683
0.000150502 	0.000629238 	-4.44915e-05 	0.0493518
0.000200669 	0.000771128 	-6.88359e-05 	0.0629099
0.000250836 	0.000974667 	-9.65968e-05 	0.0759144
0.000301003 	0.00118019 	-0.00012722 	0.0881055
0.000351171 	0.0013668 	-0.000160388 	0.0994101
0.000401338 	0.00152758 	-0.000195805 	0.109823
0.000451505 	0.00166076 	-0.000233473 	0.119374
0.000501672 	0.00176837 	-0.000273145 	0.128125
0.000551839 	0.0018561 	-0.000314193 	0.136151
0.000602007 	0.00193036 	-0.000356118 	0.143527
0.000652174 	0.00199574 	-0.000398772 	0.150312
0.000702341 	0.00205485 	-0.000442215 	0.156558
0.000752508 	0.00210872 	-0.000486449 	0.162313
0.000802676 	0.00215753 	-0.0005312 	0.167619
0.000852843 	0.00220155 	-0.000576456 	0.172459
0.00090301 	0.00224275 	-0.000622125 	0.176938
0.000953177 	0.00228187 	-0.000668112 	0.18109
0.00100334 	0.0023194 	-0.000714194 	0.184947
0.00105351 	0.00235561 	-0.000760107 	0.188539
0.00110368 	0.00239051 	-0.000805577 	0.191891
0.00115385 	0.00242317 	-0.000850656 	0.194983
0.00120401 	0.00245338 	-0.000895457 	0.19791
0.00125418 	0.00248022 	-0.00094132 	0.200687
0.00130435 	0.00250301 	-0.000988475 	0.203324
0.00135452 	0.00251933 	-0.00103314 	0.20578
0.00140468 	0.00252599 	-0.00106999 	0.20811
0.00145485 	0.00252179 	-0.00110815 	0.210384
0.00150502 	0.00250581 	-0.00115196 	0.212631
0.00155518 	0.0024785 	-0.00121441 	0.214906
0.00160535 	0.0024546 	-0.00127636 	0.217121
0.00165552 	0.00243701 	-0.0013331 	0.21924
0.00170569 	0.0024384 	-0.00136757 	0.221095
0.00175585 	0.00246213 	-0.00138449 	0.222728
0.00180602 	0.00249663 	-0.00139744 	0.224248
0.00185619 	0.00253788 	-0.00141997 	0.225677
0.00190635 	0.00256277 	-0.00146432 	0.227049
0.00195652 	0.00257674 	-0.00151712 	0.228376
0.00200669 	0.00256981 	-0.00156927 	0.229598
0.00205686 	0.00255188 	-0.00160122 	0.230802
0.00210702 	0.00252657 	-0.00162005 	0.231998
0.00215719 	0.00247425 	-0.00163506 	0.233462
0.00220736 	0.00241019 	-0.00166904 	0.235141
0.00225753 	0.0023273 	-0.0017334 	0.237164
0.00230769 	0.00222719 	-0.00182547 	0.239499
0.00235786 	0.00212107 	-0.00192473 	0.241922
0.00240803 	0.00202284 	-0.00195864 	0.243776
0.00245819 	0.00194089 	-0.0019676 	0.245269
0.00250836 	0.00189194 	-0.001926 	0.246034
0.00255853 	0.00187435 	-0.00189936 	0.24659
0.0026087 	0.00187904 	-0.00188333 	0.246997
0.00265886 	0.00190006 	-0.00191069 	0.247527
0.00270903 	0.00192496 	-0.00194836 	0.248086
0.0027592 	0.00195941 	-0.0020158 	0.248817
0.00280936 	0.00200291 	-0.00208086 	0.249575
0.00285953 	0.00209442 	-0.00213321 	0.250473
0.0029097 	0.00220744 	-0.00216949 	0.251445
0.00295987 	0.00237461 	-0.00216531 	0.252605
0.00301003 	0.00254095 	-0.00215366 	0.253784
0.0030602 	0.00270592 	-0.00212966 	0.254996
0.00311037 	0.00280535 	-0.00213193 	0.255989
0.00316054 	0.00281953 	-0.00216835 	0.256697
0.0032107 	0.00276105 	-0.00221822 	0.257169
0.00326087 	0.00261657 	-0.002284 	0.257361
0.00331104 	0.00246814 	-0.00233492 	0.257529
0.0033612 	0.0023148 	-0.00236736 	0.257667
0.00341137 	0.00218828 	-0.00239039 	0.257856
0.00346154 	0.00210241 	-0.00239916 	0.258124
0.00351171 	0.00203251 	-0.00240736 	0.258418
0.00356187 	0.00199775 	-0.0024143 	0.258771
0.00361204 	0.0019663 	-0.00242271 	0.259124
0.00366221 	0.00194897 	-0.00243737 	0.259482
0.00371237 	0.00193165 	-0.00245216 	0.259838
0.00376254 	0.00191451 	-0.00247078 	0.260162
0.00381271 	0.00189737 	-0.0024894 	0.260486
0.00386288 	0.0018785 	-0.00250653 	0.260777
0.00391304 	0.00185928 	-0.00252335 	0.261062
0.00396321 	0.00183861 	-0.00253846 	0.261324
0.00401338 	0.00181692 	-0.00255239 	0.261571
0.00406355 	0.00179446 	-0.00256572 	0.261807
0.00411371 	0.00177029 	-0.00257772 	0.262019
0.00416388 	0.00174611 	-0.00258972 	0.262232
0.00421405 	0.00172179 	-0.00260131 	0.262413
0.00426421 	0.00169746 	-0.0026129 	0.262593
0.00431438 	0.00167467 	-0.00262484 	0.262756
0.00436455 	0.00165278 	-0.00263698 	0.262908
0.00441472 	0.00163161 	-0.00264923 	0.263054
0.00446488 	0.00161289 	-0.00266184 	0.263179
0.00451505 	0.00159417 	-0.00267446 	0.263304
0.00456522 	0.0015771 	-0.00268696 	0.263411
0.00461538 	0.0015605 	-0.00269942 	0.263512
0.00466555 	0.00154395 	-0.00271164 	0.263607
0.00471572 	0.00152752 	-0.00272327 	0.263687
0.00476589 	0.00151108 	-0.00273489 	0.263767
0.00481605 	0.00149376 	-0.00274417 	0.263831
0.00486622 	0.00147615 	-0.00275269 	0.263891
0.00491639 	0.00145827 	-0.00276137 	0.263947
0.00496656 	0.00143909 	-0.00277083 	0.263989
0.00501672 	0.00141991 	-0.00278028 	0.264031
0.00506689 	0.00140575 	-0.00279707 	0.26408
0.00511706 	0.0013957 	-0.00281987 	0.264136
0.00516722 	0.00138564 	-0.00284268 	0.264192
0.00521739 	0.00141192 	-0.00286997 	0.264353
0.00526756 	0.00144338 	-0.00289789 	0.26453
0.00531773 	0.00148474 	-0.00292122 	0.264741
0.00536789 	0.00158091 	-0.00291904 	0.265144
0.00541806 	0.00167707 	-0.00291686 	0.265548
0.00546823 	0.00177426 	-0.00288996 	0.265972
0.00551839 	0.00187312 	-0.00282311 	0.26643
0.00556856 	0.00197197 	-0.00275627 	0.266888
0.00561873 	0.00199843 	-0.00271532 	0.267053
0.0056689 	0.00196843 	-0.00269456 	0.266989
0.00571906 	0.00193843 	-0.0026738 	0.266926
0.00576923 	0.00184015 	-0.00271662 	0.266536
0.0058194 	0.00171131 	-0.00278791 	0.266
0.00586957 	0.00158248 	-0.00285919 	0.265465
0.00591973 	0.00146204 	-0.00289469 	0.264986
0.0059699 	0.00134414 	-0.0029194 	0.264525
0.00602007 	0.00122624 	-0.00294411 	0.264064
0.00607023 	0.00114808 	-0.00293354 	0.263765
0.0061204 	0.00108026 	-0.00291377 	0.263508
0.00617057 	0.00101245 	-0.00289401 	0.263251
0.00622074 	0.000976681 	-0.00288967 	0.263058
0.0062709 	0.000950752 	-0.00289008 	0.262885
0.00632107 	0.000924824 	-0.00289048 	0.262711
0.00637124 	0.000908741 	-0.00290105 	0.262547
0.0064214 	0.000897238 	-0.00291635 	0.262386
0.00647157 	0.000885734 	-0.00293164 	0.262226
0.00652174 	0.00089572 	-0.0029509 	0.262161
0.00657191 	0.000923671 	-0.00297347 	0.262175
0.00662207 	0.000951622 	-0.00299604 	0.26219
0.00667224 	0.000991522 	-0.00300046 	0.262265
0.00672241 	0.00105356 	-0.00297127 	0.262449
0.00677258 	0.0011156 	-0.00294207 	0.262634
0.00682274 	0.00117515 	-0.00290925 	0.262796
0.00687291 	0.00121214 	-0.00284343 	0.262746
0.00692308 	0.00124912 	-0.00277761 	0.262696
0.00697324 	0.0012861 	-0.0027118 	0.262646
0.00702341 	0.00124891 	-0.00271112 	0.262079
0.00707358 	0.00119195 	-0.00272782 	0.261374
0.00712375 	0.00113499 	-0.00274452 	0.260669
0.00717391 	0.00105596 	-0.00277962 	0.259871
0.00722408 	0.000946506 	-0.00284011 	0.258945
0.00727425 	0.00083705 	-0.00290059 	0.25802
0.00732441 	0.000727593 	-0.00296107 	0.257095
0.00737458 	0.0006425 	-0.0029666 	0.256463
0.00742475 	0.000557629 	-0.00297162 	0.255834
0.00747492 	0.000472758 	-0.00297664 	0.255205
0.00752508 	0.000398505 	-0.00296578 	0.254652
0.00757525 	0.00033487 	-0.00293905 	0.254174
0.00762542 	0.000271235 	-0.00291232 	0.253696
0.00767559 	0.000207733 	-0.00288589 	0.253218
0.00772575 	0.000158772 	-0.00289215 	0.252788
0.00777592 	0.000109811 	-0.00289841 	0.252359
0.00782609 	6.08497e-05 	-0.00290466 	0.251929
0.00787625 	1.76418e-05 	-0.00290493 	0.251543
0.00792642 	-2.1393e-05 	-0.00290086 	0.251189
0.00797659 	-6.04278e-05 	-0.00289678 	0.250834
0.00802676 	-9.89541e-05 	-0.00288603 	0.250488
0.00807692 	-0.000135573 	-0.00285022 	0.25017
0.00812709 	-0.000172193 	-0.00281442 	0.249852
0.00817726 	-0.000208812 	-0.00277862 	0.249534
0.00822742 	-0.000257464 	-0.00278802 	0.249119
0.00827759 	-0.000307442 	-0.00280239 	0.248694
0.00832776 	-0.000357419 	-0.00281675 	0.248269
0.00837793 	-0.00042084 	-0.00284026 	0.247769
0.00842809 	-0.000491518 	-0.0028687 	0.247231
0.00847826 	-0.000562196 	-0.00289714 	0.246692
0.00852843 	-0.000634205 	-0.00290764 	0.246159
0.0085786 	-0.000707806 	-0.0028967 	0.245634
0.00862876 	-0.000781407 	-0.00288575 	0.245109
0.00867893 	-0.000852517 	-0.00287299 	0.2446
0.0087291 	-0.000918272 	-0.00285636 	0.244125
0.00877926 	-0.000984027 	-0.00283973 	0.24365
0.00882943 	-0.00104923 	-0.00282564 	0.243177
0.0088796 	-0.00111264 	-0.00281984 	0.242712
0.00892977 	-0.00117605 	-0.00281405 	0.242247
0.00897993 	-0.00123956 	-0.00280846 	0.241781
0.0090301 	-0.00130343 	-0.00280369 	0.241315
0.00908027 	-0.00136731 	-0.00279892 	0.240849
0.00913043 	-0.00143109 	-0.00279323 	0.240384
0.0091806 	-0.00149453 	-0.00278448 	0.239921
0.00923077 	-0.00155797 	-0.00277573 	0.239458
0.00928094 	-0.00162128 	-0.0027664 	0.238993
0.0093311 	-0.00168429 	-0.00275576 	0.238521
0.00938127 	-0.00174729 	-0.00274512 	0.238049
0.00943144 	-0.00181047 	-0.00273402 	0.237569
0.00948161 	-0.00187386 	-0.00272232 	0.237077
0.00953177 	-0.00193725 	-0.00271062 	0.236584
0.00958194 	-0.0020015 	-0.00269892 	0.236077
0.00963211 	-0.0020663 	-0.00268723 	0.235561
0.00968227 	-0.00213109 	-0.00267553 	0.235044
0.00973244 	-0.00219759 	-0.00266386 	0.234505
0.00978261 	-0.00226439 	-0.0026522 	0.233962
0.00983278 	-0.00233146 	-0.00264046 	0.233416
0.00988294 	-0.00240043 	-0.00262819 	0.232847
0.00993311 	-0.0024694 	-0.00261591 	0.232278
0.00998328 	-0.0025393 	-0.0026032 	0.231699
0.0100334 	-0.00261032 	-0.00258997 	0.231107
0.0100836 	-0.00268133 	-0.00257673 	0.230515
0.0101338 	-0.00275384 	-0.00256281 	0.229907
0.0101839 	-0.00282667 	-0.00254875 	0.229294
0.0102341 	-0.00289988 	-0.00253452 	0.228678
0.0102843 	-0.00297427 	-0.00251977 	0.228047
0.0103344 	-0.00304866 	-0.00250502 	0.227416
0.0103846 	-0.00312403 	-0.00248952 	0.226773
0.0104348 	-0.0031998 	-0.00247371 	0.226125
0.0104849 	-0.00327586 	-0.00245758 	0.225474
0.0105351 	-0.00335299 	-0.00244028 	0.224808
0.0105853 	-0.00343011 	-0.00242298 	0.224143
0.0106355 	-0.00350819 	-0.00240437 	0.223464
0.0106856 	-0.00358654 	-0.00238537 	0.22278
0.0107358 	-0.00366524 	-0.00236551 	0.222087
0.010786 	-0.00374453 	-0.00234415 	0.221379
0.0108361 	-0.00382383 	-0.00232278 	0.22067
0.0108863 	-0.00390354 	-0.00229875 	0.219934
0.0109365 	-0.00398326 	-0.00227472 	0.219199
0.0109866 	-0.00406127 	-0.00224999 	0.218449
0.0110368 	-0.0041385 	-0.00222493 	0.217693
0.011087 	-0.00421289 	-0.00220073 	0.216929
0.0111371 	-0.00428316 	-0.00217778 	0.216155
0.0111873 	-0.00435264 	-0.00215543 	0.215376
0.0112375 	-0.00441826 	-0.00213605 	0.214571
0.0112876 	-0.00448387 	-0.00211667 	0.213765
0.0113378 	-0.00455852 	-0.00209747 	0.212902
0.011388 	-0.00463344 	-0.00207828 	0.212037
0.0114381 	-0.00472747 	-0.00205507 	0.211109
0.0114883 	-0.004826 	-0.00203093 	0.210166
0.0115385 	-0.0049386 	-0.00200298 	0.20918
0.0115886 	-0.0050576 	-0.0019733 	0.208175
0.0116388 	-0.00517755 	-0.00194211 	0.207153
0.011689 	-0.00529814 	-0.00190994 	0.206121
0.0117391 	-0.00541062 	-0.00187738 	0.205084
0.0117893 	-0.00551659 	-0.00184453 	0.204043
0.0118395 	-0.00561268 	-0.00181184 	0.202993
0.0118896 	-0.00570041 	-0.00177928 	0.201934
0.0119398 	-0.00578074 	-0.00174741 	0.200855
0.01199 	-0.00585536 	-0.00171608 	0.199761
0.0120401 	-0.00592648 	-0.00168482 	0.198633
0.0120903 	-0.00599547 	-0.00165361 	0.197485
0.0121405 	-0.00606458 	-0.00162031 	0.19629
0.0121906 	-0.00613374 	-0.00158618 	0.195077
0.0122408 	-0.00620484 	-0.00155434 	0.193809
0.012291 	-0.00627631 	-0.00152295 	0.192531
0.0123411 	-0.00635088 	-0.00150156 	0.191216
0.0123913 	-0.00642594 	-0.00147921 	0.189906
0.0124415 	-0.00650307 	-0.00145282 	0.188614
0.0124916 	-0.00657852 	-0.00141381 	0.187332
0.0125418 	-0.00665158 	-0.00135699 	0.186063
0.012592 	-0.00671561 	-0.00128645 	0.184694
0.0126421 	-0.0067752 	-0.00120915 	0.183276
0.0126923 	-0.00682034 	-0.00116342 	0.181491
0.0127425 	-0.00686135 	-0.00113086 	0.179601
0.0127926 	-0.00689308 	-0.0011298 	0.177478
0.0128428 	-0.00691694 	-0.00112361 	0.175339
0.012893 	-0.00693589 	-0.00111421 	0.17319
0.0129431 	-0.00694835 	-0.00106593 	0.171152
0.0129933 	-0.00695868 	-0.00101227 	0.169132
0.0130435 	-0.00696584 	-0.000950913 	0.167139
0.0130936 	-0.00695943 	-0.000907769 	0.165096
0.0131438 	-0.00694524 	-0.000872522 	0.163012
0.013194 	-0.00691868 	-0.000847441 	0.16085
0.0132441 	-0.0068904 	-0.000818889 	0.158586
0.0132943 	-0.00686485 	-0.000785559 	0.156241
0.0133445 	-0.0068476 	-0.000742679 	0.153769
0.0133946 	-0.00683836 	-0.00069238 	0.151108
0.0134448 	-0.00682831 	-0.000642786 	0.148305
0.013495 	-0.00681412 	-0.000596938 	0.14534
0.0135452 	-0.00677828 	-0.000562646 	0.142125
0.0135953 	-0.00672683 	-0.00053129 	0.138778
0.0136455 	-0.00666047 	-0.000500966 	0.135303
0.0136957 	-0.00657921 	-0.000467906 	0.13169
0.0137458 	-0.00648605 	-0.000431678 	0.127921
0.013796 	-0.00638382 	-0.000395314 	0.124016
0.0138462 	-0.00627114 	-0.000359879 	0.119958
0.0138963 	-0.00614592 	-0.00032634 	0.115729
0.0139465 	-0.00600022 	-0.00029511 	0.111251
0.0139967 	-0.00583644 	-0.000264939 	0.106569
0.0140468 	-0.00565338 	-0.000235509 	0.101681
0.014097 	-0.00544903 	-0.00020674 	0.0965729
0.0141472 	-0.00522112 	-0.000178865 	0.0912305
0.0141973 	-0.00496734 	-0.000152564 	0.0856363
0.0142475 	-0.0046838 	-0.000128988 	0.0797323
0.0142977 	-0.00437906 	-0.000107743 	0.073553
0.0143478 	-0.00406141 	-8.84833e-05 	0.0671091
0.014398 	-0.00374249 	-7.09659e-05 	0.060433
0.0144482 	-0.00343456 	-5.52006e-05 	0.0535848
0.0144983 	-0.00314753 	-4.13186e-05 	0.046654
0.0145485 	-0.00288655 	-2.93937e-05 	0.0397542
0.0145987 	-0.00265015 	-1.94503e-05 	0.0330137
0.0146488 	-0.00242886 	-1.1477e-05 	0.026565
0.014699 	-0.00220458 	-5.37565e-06 	0.0205408
0.0147492 	-0.00194866 	-9.62848e-07 	0.015088
0.0147993 	-0.00161526 	2.09193e-06 	0.0104061
0.0148495 	-0.00112668 	3.08974e-06 	0.00680997
0.0148997 	-0.000480113 	2.70787e-06 	0.00448123
0.0149498 	2.34616e-05 	1.92041e-06 	0.00270275
0.015 	0 	0 	0
