-0.0075 	0 	0 	0
-0.0075 	-1.17476e-35 	-1.64005e-36 	1.85727e-31
-0.00745622 	-9.64992e-07 	-1.3472e-07 	0.0152563
-0.00745622 	-9.64992e-07 	-1.3472e-07 	0.0152563
-0.00741165 	-1.53668e-06 	-5.83585e-07 	0.029703
-0.00741165 	-1.53668e-06 	-5.83585e-07 	0.029703
-0.00736628 	-2.02915e-06 	-1.39064e-06 	0.0434353
-0.00736628 	-2.02915e-06 	-1.39064e-06 	0.0434353
-0.0073201 	-2.56578e-06 	-2.58917e-06 	0.0564776
-0.0073201 	-2.56578e-06 	-2.58917e-06 	0.0564776
-0.00727309 	-3.1183e-06 	-4.17727e-06 	0.0688552
-0.00727309 	-3.1183e-06 	-4.17727e-06 	0.0688552
-0.00722524 	-3.64944e-06 	-6.16642e-06 	0.0805919
-0.00722524 	-3.64944e-06 	-6.16642e-06 	0.0805919
-0.00717653 	-4.1451e-06 	-8.566e-06 	0.0917004
-0.00717653 	-4.1451e-06 	-8.566e-06 	0.0917004
-0.00712695 	-4.59975e-06 	-1.13947e-05 	0.102172
-0.00712695 	-4.59975e-06 	-1.13947e-05 	0.102172
-0.00707647 	-5.01078e-06 	-1.46885e-05 	0.111981
-0.00707647 	-5.01078e-06 	-1.46885e-05 	0.111981
-0.0070251 	-5.37671e-06 	-1.85046e-05 	0.121101
-0.0070251 	-5.37671e-06 	-1.85046e-05 	0.121101
-0.0069728 	-5.6968e-06 	-2.29163e-05 	0.129526
-0.0069728 	-5.6968e-06 	-2.29163e-05 	0.129526
-0.00691956 	-5.97115e-06 	-2.79986e-05 	0.137274
-0.00691956 	-5.97115e-06 	-2.79986e-05 	0.137274
-0.00686537 	-6.20066e-06 	-3.38177e-05 	0.144383
-0.00686537 	-6.20066e-06 	-3.38177e-05 	0.144383
-0.00681021 	-6.38708e-06 	-4.0437e-05 	0.150909
-0.00681021 	-6.38708e-06 	-4.0437e-05 	0.150909
-0.00675406 	-6.53268e-06 	-4.7925e-05 	0.15691
-0.00675406 	-6.53268e-06 	-4.7925e-05 	0.15691
-0.0066969 	-6.63957e-06 	-5.63447e-05 	0.162442
-0.0066969 	-6.63957e-06 	-5.63447e-05 	0.162442
-0.00663871 	-6.70986e-06 	-6.57401e-05 	0.16755
-0.00663871 	-6.70986e-06 	-6.57401e-05 	0.16755
-0.00657949 	-6.74606e-06 	-7.61176e-05 	0.172278
-0.00657949 	-6.74606e-06 	-7.61176e-05 	0.172278
-0.0065192 	-6.75109e-06 	-8.74435e-05 	0.176666
-0.0065192 	-6.75109e-06 	-8.74435e-05 	0.176666
-0.00645783 	-6.72788e-06 	-9.96682e-05 	0.180758
-0.00645783 	-6.72788e-06 	-9.96682e-05 	0.180758
-0.00639535 	-6.67906e-06 	-0.000112739 	0.18459
-0.00639535 	-6.67906e-06 	-0.000112739 	0.18459
-0.00633176 	-6.60688e-06 	-0.000126602 	0.188197
-0.00633176 	-6.60688e-06 	-0.000126602 	0.188197
-0.00626703 	-6.51336e-06 	-0.000141205 	0.191603
-0.00626703 	-6.51336e-06 	-0.000141205 	0.191603
-0.00620114 	-6.40032e-06 	-0.000156489 	0.194832
-0.00620114 	-6.40032e-06 	-0.000156489 	0.194832
-0.00613406 	-6.26939e-06 	-0.000172396 	0.197906
-0.00613406 	-6.26939e-06 	-0.000172396 	0.197906
-0.00606579 	-6.1221e-06 	-0.000188867 	0.200842
-0.00606579 	-6.1221e-06 	-0.000188867 	0.200842
-0.00599629 	-5.95991e-06 	-0.000205835 	0.203656
-0.00599629 	-5.95991e-06 	-0.000205835 	0.203656
-0.00592554 	-5.7841e-06 	-0.000223233 	0.206364
-0.00592554 	-5.7841e-06 	-0.000223233 	0.206364
-0.00585352 	-5.59556e-06 	-0.00024099 	0.20898
-0.00585352 	-5.59556e-06 	-0.00024099 	0.20898
-0.00578022 	-5.39481e-06 	-0.000259017 	0.211517
-0.00578022 	-5.39481e-06 	-0.000259017 	0.211517
-0.00570559 	-5.18223e-06 	-0.000277218 	0.213986
-0.00570559 	-5.18223e-06 	-0.000277218 	0.213986
-0.00562963 	-4.95823e-06 	-0.000295493 	0.216394
-0.00562963 	-4.95823e-06 	-0.000295493 	0.216394
-0.00555231 	-4.72318e-06 	-0.000313743 	0.218748
-0.00555231 	-4.72318e-06 	-0.000313743 	0.218748
-0.0054736 	-4.4774e-06 	-0.000331865 	0.221054
-0.0054736 	-4.4774e-06 	-0.000331865 	0.221054
-0.00539348 	-4.22113e-06 	-0.000349757 	0.223316
-0.00539348 	-4.22113e-06 	-0.000349757 	0.223316
-0.00531193 	-3.95456e-06 	-0.000367315 	0.225539
-0.00531193 	-3.95456e-06 	-0.000367315 	0.225539
-0.00522891 	-3.6778e-06 	-0.000384437 	0.227725
-0.00522891 	-3.6778e-06 	-0.000384437 	0.227725
-0.0051444 	-3.39091e-06 	-0.000401022 	0.229876
-0.0051444 	-3.39091e-06 	-0.000401022 	0.229876
-0.00505838 	-3.09387e-06 	-0.000416975 	0.231994
-0.00505838 	-3.09387e-06 	-0.000416975 	0.231994
-0.00497081 	-2.78659e-06 	-0.000432204 	0.234079
-0.00497081 	-2.78659e-06 	-0.000432204 	0.234079
-0.00488168 	-2.46892e-06 	-0.000446622 	0.236132
-0.00488168 	-2.46892e-06 	-0.000446622 	0.236132
-0.00479094 	-2.14064e-06 	-0.000460149 	0.23815
-0.00479094 	-2.14064e-06 	-0.000460149 	0.23815
-0.00469858 	-1.80149e-06 	-0.000472707 	0.240134
-0.00469858 	-1.80149e-06 	-0.000472707 	0.240134
-0.00460456 	-1.45118e-06 	-0.000484224 	0.242081
-0.00460456 	-1.45118e-06 	-0.000484224 	0.242081
-0.00450886 	-1.08927e-06 	-0.000494644 	0.243991
-0.00450886 	-1.08927e-06 	-0.000494644 	0.243991
-0.00441144 	-7.15178e-07 	-0.000503943 	0.24586
-0.00441144 	-7.15178e-07 	-0.000503943 	0.24586
-0.00431227 	-3.28131e-07 	-0.000512129 	0.247689
-0.00431227 	-3.28131e-07 	-0.000512129 	0.247689
-0.00421133 	7.28516e-08 	-0.000519239 	0.249474
-0.00421133 	7.28516e-08 	-0.000519239 	0.249474
-0.00410857 	4.88667e-07 	-0.000525341 	0.251213
-0.00410857 	4.88667e-07 	-0.000525341 	0.251213
-0.00400397 	9.19617e-07 	-0.000530515 	0.252904
-0.00400397 	9.19617e-07 	-0.000530515 	0.252904
-0.0038975 	1.36535e-06 	-0.000534855 	0.254546
-0.0038975 	1.36535e-06 	-0.000534855 	0.254546
-0.00378912 	1.82562e-06 	-0.000538447 	0.256142
-0.00378912 	1.82562e-06 	-0.000538447 	0.256142
-0.00367879 	2.30086e-06 	-0.000541363 	0.257694
-0.00367879 	2.30086e-06 	-0.000541363 	0.257694
-0.00356649 	2.79173e-06 	-0.000543667 	0.259202
-0.00356649 	2.79173e-06 	-0.000543667 	0.259202
-0.00345217 	3.29815e-06 	-0.000545416 	0.260664
-0.00345217 	3.29815e-06 	-0.000545416 	0.260664
-0.0033358 	3.81924e-06 	-0.00054667 	0.262077
-0.0033358 	3.81924e-06 	-0.00054667 	0.262077
-0.00321735 	4.35371e-06 	-0.000547498 	0.263439
-0.00321735 	4.35371e-06 	-0.000547498 	0.263439
-0.00309677 	4.90004e-06 	-0.000547972 	0.264748
-0.00309677 	4.90004e-06 	-0.000547972 	0.264748
-0.00297403 	5.45643e-06 	-0.000548168 	0.266001
-0.00297403 	5.45643e-06 	-0.000548168 	0.266001
-0.00284909 	6.02079e-06 	-0.000548165 	0.267195
-0.00284909 	6.02079e-06 	-0.000548165 	0.267195
-0.0027219 	6.59074e-06 	-0.000548043 	0.268328
-0.0027219 	6.59074e-06 	-0.000548043 	0.268328
-0.00259244 	7.1637e-06 	-0.000547881 	0.269397
-0.00259244 	7.1637e-06 	-0.000547881 	0.269397
-0.00246065 	7.73691e-06 	-0.000547754 	0.2704
-0.00246065 	7.73691e-06 	-0.000547754 	0.2704
-0.00232651 	8.30732e-06 	-0.000547726 	0.271334
-0.00232651 	8.30732e-06 	-0.000547726 	0.271334
-0.00218995 	8.87168e-06 	-0.000547853 	0.272197
-0.00218995 	8.87168e-06 	-0.000547853 	0.272197
-0.00205095 	9.42636e-06 	-0.000548177 	0.272987
-0.00205095 	9.42636e-06 	-0.000548177 	0.272987
-0.00190946 	9.96725e-06 	-0.000548725 	0.273704
-0.00190946 	9.96725e-06 	-0.000548725 	0.273704
-0.00176543 	1.04895e-05 	-0.000549505 	0.274345
-0.00176543 	1.04895e-05 	-0.000549505 	0.274345
-0.00161881 	1.09876e-05 	-0.000550511 	0.27491
-0.00161881 	1.09876e-05 	-0.000550511 	0.27491
-0.00146957 	1.14554e-05 	-0.000551713 	0.2754
-0.00146957 	1.14554e-05 	-0.000551713 	0.2754
-0.00131765 	1.18864e-05 	-0.000553067 	0.275813
-0.00131765 	1.18864e-05 	-0.000553067 	0.275813
-0.001163 	1.22739e-05 	-0.000554516 	0.276152
-0.001163 	1.22739e-05 	-0.000554516 	0.276152
-0.00100559 	1.26103e-05 	-0.000555997 	0.276414
-0.00100559 	1.26103e-05 	-0.000555997 	0.276414
-0.000845345 	1.28864e-05 	-0.000557473 	0.2766
-0.000845345 	1.28864e-05 	-0.000557473 	0.2766
-0.000682232 	1.30913e-05 	-0.000558859 	0.276709
-0.000682232 	1.30913e-05 	-0.000558859 	0.276709
-0.000516194 	1.32123e-05 	-0.000560059 	0.276739
-0.000516194 	1.32123e-05 	-0.000560059 	0.276739
-0.000347178 	1.32356e-05 	-0.000561055 	0.276689
-0.000347178 	1.32356e-05 	-0.000561055 	0.276689
-0.000175132 	1.31495e-05 	-0.000561706 	0.276555
-0.000175132 	1.31495e-05 	-0.000561706 	0.276555
0 	1.2947e-05 	-0.000561995 	0.276335
0 	1.2947e-05 	-0.000561995 	0.276335
0 	1.2947e-05 	-0.000561995 	0.276335
0 	1.2947e-05 	-0.000561995 	0.276335
0.000175132 	1.26283e-05 	-0.000561953 	0.276033
0.000175132 	1.42099e-05 	-0.000463198 	0.272465
0.000347178 	1.22048e-05 	-0.000561477 	0.275655
0.000347178 	1.52883e-05 	-0.00046486 	0.272159
0.000516194 	1.16905e-05 	-0.000560638 	0.275204
0.000516194 	1.61798e-05 	-0.000466192 	0.271774
0.000682232 	1.10996e-05 	-0.000559433 	0.274686
0.000682232 	1.69005e-05 	-0.000467147 	0.271315
0.000845345 	1.04483e-05 	-0.000557807 	0.274103
0.000845345 	1.74683e-05 	-0.000467684 	0.270785
0.00100559 	9.75087e-06 	-0.000555809 	0.273458
0.00100559 	1.78999e-05 	-0.000467819 	0.270189
0.001163 	9.01971e-06 	-0.000553456 	0.272753
0.001163 	1.82111e-05 	-0.000467562 	0.26953
0.00131765 	8.26545e-06 	-0.000550762 	0.271992
0.00131765 	1.84165e-05 	-0.000466922 	0.268811
0.00146957 	7.49722e-06 	-0.000547745 	0.271176
0.00146957 	1.85289e-05 	-0.000465907 	0.268033
0.00161881 	6.72283e-06 	-0.000544418 	0.270307
0.00161881 	1.85597e-05 	-0.000464527 	0.267201
0.00176543 	5.94883e-06 	-0.000540795 	0.269386
0.00176543 	1.85191e-05 	-0.000462791 	0.266314
0.00190946 	5.18069e-06 	-0.000536885 	0.268416
0.00190946 	1.84158e-05 	-0.000460708 	0.265376
0.00205095 	4.42291e-06 	-0.000532697 	0.267397
0.00205095 	1.82576e-05 	-0.000458282 	0.264387
0.00218995 	3.67919e-06 	-0.000528238 	0.266331
0.00218995 	1.80512e-05 	-0.000455519 	0.263349
0.00232651 	2.95254e-06 	-0.000523511 	0.265218
0.00232651 	1.78025e-05 	-0.000452424 	0.262263
0.00246065 	2.24547e-06 	-0.00051852 	0.26406
0.00246065 	1.75165e-05 	-0.000448997 	0.26113
0.00259244 	1.55996e-06 	-0.000513265 	0.262856
0.00259244 	1.71975e-05 	-0.000445238 	0.259951
0.0027219 	8.97576e-07 	-0.000507745 	0.261608
0.0027219 	1.68491e-05 	-0.000441143 	0.258726
0.00284909 	2.5948e-07 	-0.000501958 	0.260315
0.00284909 	1.64744e-05 	-0.000436707 	0.257457
0.00297403 	-3.53466e-07 	-0.000495899 	0.258977
0.00297403 	1.60763e-05 	-0.000431922 	0.256142
0.00309677 	-9.40665e-07 	-0.000489562 	0.257596
0.00309677 	1.56569e-05 	-0.000426777 	0.254782
0.00321735 	-1.50172e-06 	-0.000482941 	0.256169
0.00321735 	1.52184e-05 	-0.000421264 	0.253377
0.0033358 	-2.0364e-06 	-0.00047603 	0.254697
0.0033358 	1.47625e-05 	-0.000415372 	0.251926
0.00345217 	1.42907e-05 	-0.0004091 	0.250429
0.00345217 	-2.54454e-06 	-0.000468825 	0.25318
0.00356649 	-3.02609e-06 	-0.000461318 	0.251616
0.00356649 	1.38046e-05 	-0.000402447 	0.248885
0.00367879 	-3.48102e-06 	-0.000453496 	0.250005
0.00367879 	1.33068e-05 	-0.000395405 	0.247294
0.00378912 	-3.90931e-06 	-0.00044534 	0.248345
0.00378912 	1.28006e-05 	-0.000387956 	0.245656
0.0038975 	-4.31094e-06 	-0.000436823 	0.246635
0.0038975 	1.22891e-05 	-0.000380072 	0.243971
0.00400397 	-4.68601e-06 	-0.000427904 	0.24487
0.00400397 	1.17745e-05 	-0.000371692 	0.24223
0.00410857 	1.12582e-05 	-0.000362712 	0.240422
0.00410857 	-5.03502e-06 	-0.000418517 	0.243046
0.00421133 	-5.35909e-06 	-0.000408585 	0.241155
0.00421133 	1.07397e-05 	-0.000353034 	0.238534
0.00431227 	-5.65963e-06 	-0.000398029 	0.239192
0.00431227 	1.02175e-05 	-0.000342589 	0.236562
0.00441144 	-5.93761e-06 	-0.000386789 	0.23715
0.00441144 	9.69013e-06 	-0.000331342 	0.234501
0.00450886 	-6.19337e-06 	-0.000374837 	0.235022
0.00450886 	9.15639e-06 	-0.000319306 	0.232348
0.00460456 	-6.42701e-06 	-0.000362177 	0.232802
0.00460456 	8.61533e-06 	-0.000306525 	0.2301
0.00469858 	-6.63881e-06 	-0.000348829 	0.230488
0.00469858 	8.06625e-06 	-0.000293051 	0.227751
0.00479094 	-6.82918e-06 	-0.000334819 	0.228073
0.00479094 	7.50859e-06 	-0.000278941 	0.225298
0.00488168 	-6.99854e-06 	-0.000320179 	0.225553
0.00488168 	6.94182e-06 	-0.000264256 	0.222738
0.00497081 	-7.14733e-06 	-0.000304952 	0.222924
0.00497081 	6.36546e-06 	-0.000249062 	0.220064
0.00505838 	-7.27596e-06 	-0.000289189 	0.220183
0.00505838 	5.77907e-06 	-0.000233439 	0.217275
0.0051444 	-7.38483e-06 	-0.000272962 	0.217324
0.0051444 	5.18233e-06 	-0.000217478 	0.214367
0.00522891 	-7.47431e-06 	-0.000256354 	0.214345
0.00522891 	4.57506e-06 	-0.000201286 	0.211337
0.00531193 	-7.54479e-06 	-0.000239467 	0.211242
0.00531193 	3.95726e-06 	-0.000184987 	0.208182
0.00539348 	-7.59659e-06 	-0.000222417 	0.208012
0.00539348 	3.3291e-06 	-0.000168717 	0.204901
0.0054736 	-7.63001e-06 	-0.000205331 	0.204653
0.0054736 	2.69093e-06 	-0.000152621 	0.201492
0.00555231 	-7.64531e-06 	-0.000188341 	0.20116
0.00555231 	2.04327e-06 	-0.000136846 	0.197952
0.00562963 	-7.6427e-06 	-0.000171583 	0.19753
0.00562963 	1.3868e-06 	-0.000121535 	0.194281
0.00570559 	-7.62233e-06 	-0.000155189 	0.193759
0.00570559 	7.22331e-07 	-0.00010682 	0.190474
0.00578022 	-7.58431e-06 	-0.000139283 	0.189841
0.00578022 	5.08486e-08 	-9.28205e-05 	0.186528
0.00585352 	-7.52868e-06 	-0.000123981 	0.185771
0.00585352 	-6.26503e-07 	-7.96392e-05 	0.182438
0.00592554 	-7.45543e-06 	-0.000109384 	0.181543
0.00592554 	-1.30837e-06 	-6.73578e-05 	0.178199
0.00599629 	-7.36456e-06 	-9.55785e-05 	0.177148
0.00599629 	-1.99319e-06 	-5.60374e-05 	0.173804
0.00606579 	-7.25608e-06 	-8.26364e-05 	0.172578
0.00606579 	-2.67911e-06 	-4.57193e-05 	0.169244
0.00613406 	-7.13006e-06 	-7.06181e-05 	0.167821
0.00613406 	-3.36404e-06 	-3.64256e-05 	0.164506
0.00620114 	-4.04564e-06 	-2.81612e-05 	0.159575
0.00620114 	-6.98636e-06 	-5.95694e-05 	0.162861
0.00626703 	-6.82467e-06 	-4.95253e-05 	0.15768
0.00626703 	-4.72102e-06 	-2.09206e-05 	0.154434
0.00633176 	-5.38623e-06 	-1.46883e-05 	0.149068
0.00633176 	-6.64475e-06 	-4.05123e-05 	0.152264
0.00639535 	-6.03622e-06 	-9.43191e-06 	0.143461
0.00639535 	-6.44655e-06 	-3.2539e-05 	0.146595
0.00645783 	-6.23026e-06 	-2.55936e-05 	0.14066
0.00645783 	-6.66492e-06 	-5.10252e-06 	0.137597
0.0065192 	-5.99611e-06 	-1.96488e-05 	0.13444
0.0065192 	-7.26504e-06 	-1.63882e-06 	0.13146
0.00657949 	-5.74452e-06 	-1.46639e-05 	0.127919
0.00657949 	-7.82784e-06 	1.02969e-06 	0.125031
0.00663871 	-5.47636e-06 	-1.05854e-05 	0.12108
0.00663871 	-8.34313e-06 	2.97975e-06 	0.118295
0.0066969 	-5.19306e-06 	-7.33349e-06 	0.113906
0.0066969 	-8.79924e-06 	4.29808e-06 	0.11123
0.00675406 	-9.18312e-06 	5.07576e-06 	0.1038
0.00675406 	-4.89551e-06 	-4.8141e-06 	0.106363
0.00681021 	-9.47921e-06 	5.4034e-06 	0.0959812
0.00681021 	-4.5838e-06 	-2.92645e-06 	0.0984211
0.00686537 	-9.66831e-06 	5.37044e-06 	0.0877926
0.00686537 	-4.25874e-06 	-1.57496e-06 	0.0900902
0.00691956 	-9.72952e-06 	5.06352e-06 	0.0793022
0.00691956 	-3.92252e-06 	-6.75942e-07 	0.0814367
0.0069728 	-9.64379e-06 	4.56746e-06 	0.070628
0.0069728 	-3.57809e-06 	-1.37861e-07 	0.072578
0.0070251 	-3.22831e-06 	1.33511e-07 	0.0636814
0.0070251 	-9.39751e-06 	3.96121e-06 	0.0619337
0.00707647 	-2.87536e-06 	2.27907e-07 	0.0549444
0.00707647 	-8.98581e-06 	3.31298e-06 	0.0534093
0.00712695 	-2.52083e-06 	2.21751e-07 	0.0465602
0.00712695 	-8.41419e-06 	2.67589e-06 	0.0452388
0.00717653 	-2.1662e-06 	1.71369e-07 	0.0386808
0.00717653 	-7.69709e-06 	2.08551e-06 	0.0375655
0.00722524 	-1.81394e-06 	1.11397e-07 	0.0313959
0.00722524 	-6.85412e-06 	1.56114e-06 	0.0304737
0.00727309 	-5.90657e-06 	1.11095e-06 	0.0239926
0.00727309 	-1.46903e-06 	5.89213e-08 	0.0247361
0.0073201 	-4.87634e-06 	7.37475e-07 	0.0181138
0.0073201 	-1.14206e-06 	2.08319e-08 	0.0186926
0.00736628 	-3.78825e-06 	4.32189e-07 	0.0128093
0.00736628 	-8.55706e-07 	-6.72139e-09 	0.013236
0.00741165 	-6.16255e-07 	-1.40511e-08 	0.00832941
0.00741165 	-2.64202e-06 	2.12515e-07 	0.00804382
0.00745622 	-3.60723e-07 	-1.156e-08 	0.00393541
0.00745622 	-1.38843e-06 	6.86601e-08 	0.00378079
0.0075 	0 	0 	0
0.0075 	0 	0 	0
