
400
(
(0 0 0)
(6.91551e-20 8.52614e-21 -2.42142e-18)
(0.000446826 5.50892e-05 -0.0156453)
(0.000710978 -8.88242e-05 -0.0246321)
(0.000795224 1.6336e-05 -0.0278347)
(0.00161923 0.000512306 -0.0444831)
(0.00103234 -2.11362e-05 -0.0389964)
(0.0023143 -0.000370581 -0.0610769)
(0.00122214 4.78478e-06 -0.0503287)
(0.00294654 0.000333233 -0.0780835)
(0.00139307 -4.15036e-05 -0.0616878)
(0.00356626 -0.000116511 -0.094955)
(0.00154533 -4.20273e-05 -0.0727367)
(0.00414514 2.41346e-05 -0.110684)
(0.00167907 -5.92168e-05 -0.0833258)
(0.00468041 -3.41812e-05 -0.125194)
(0.00179478 -7.56089e-05 -0.093376)
(0.00517078 -5.63754e-05 -0.138496)
(0.00189324 -9.36271e-05 -0.102838)
(0.00561477 -9.37835e-05 -0.150612)
(0.00197555 -0.000111947 -0.111691)
(0.00601215 -0.00013072 -0.161591)
(0.00204295 -0.000131129 -0.119951)
(0.00636328 -0.000172202 -0.17154)
(0.00209694 -0.000151328 -0.127659)
(0.00666915 -0.000219192 -0.180617)
(0.00213934 -0.00017242 -0.134866)
(0.00693345 -0.00027174 -0.188966)
(0.00217183 -0.00019412 -0.141618)
(0.00716059 -0.000328781 -0.196646)
(0.00219596 -0.000216255 -0.147955)
(0.00735431 -0.000389289 -0.203693)
(0.00221307 -0.000238831 -0.153912)
(0.00751758 -0.000453486 -0.21016)
(0.0022242 -0.000261787 -0.159521)
(0.0076533 -0.000521873 -0.216111)
(0.0022301 -0.000285024 -0.164817)
(0.00776407 -0.000594103 -0.221605)
(0.00223138 -0.000308493 -0.169831)
(0.0078524 -0.000669973 -0.226692)
(0.00222858 -0.000332149 -0.174591)
(0.00792053 -0.000749232 -0.231418)
(0.00222221 -0.000355953 -0.17912)
(0.00797009 -0.000831658 -0.235823)
(0.00221276 -0.000379877 -0.183436)
(0.00800278 -0.000917084 -0.239943)
(0.00220076 -0.000403915 -0.187558)
(0.00801993 -0.00100543 -0.243808)
(0.00218688 -0.000428067 -0.191503)
(0.00802332 -0.00109662 -0.247452)
(0.0021716 -0.000452223 -0.19529)
(0.00801557 -0.00119024 -0.250916)
(0.00215472 -0.000476172 -0.198943)
(0.00799882 -0.00128529 -0.254244)
(0.0021352 -0.000499599 -0.202475)
(0.00797385 -0.00138093 -0.257455)
(0.00211164 -0.000522611 -0.205885)
(0.00793928 -0.00147654 -0.260516)
(0.00208387 -0.000545919 -0.209152)
(0.00789179 -0.00157566 -0.263337)
(0.00205445 -0.000569647 -0.212258)
(0.00783108 -0.0016809 -0.265861)
(0.00202747 -0.000593899 -0.215201)
(0.00776068 -0.00178715 -0.268148)
(0.00200493 -0.000618661 -0.217992)
(0.00768439 -0.00189043 -0.270346)
(0.00198519 -0.000644131 -0.22065)
(0.00760324 -0.00199108 -0.272537)
(0.00196541 -0.00066739 -0.2232)
(0.0075178 -0.00210668 -0.274681)
(0.00194057 -0.000685884 -0.225689)
(0.00742947 -0.00219835 -0.276699)
(0.00189963 -0.000707229 -0.228233)
(0.00733126 -0.00227201 -0.278697)
(0.0018322 -0.000735686 -0.23098)
(0.00719847 -0.00239202 -0.280953)
(0.0017457 -0.000765387 -0.233925)
(0.00702036 -0.00254318 -0.283627)
(0.00167445 -0.000788464 -0.236695)
(0.00684507 -0.00270227 -0.286254)
(0.00164581 -0.000804092 -0.238888)
(0.00675724 -0.00278785 -0.287773)
(0.00164504 -0.00082196 -0.240587)
(0.00672349 -0.00282156 -0.288375)
(0.00164205 -0.000847454 -0.242139)
(0.00665946 -0.00289986 -0.289001)
(0.00162493 -0.000875597 -0.243726)
(0.00655045 -0.00302524 -0.28994)
(0.00159866 -0.0008989 -0.245318)
(0.00642385 -0.00316144 -0.290962)
(0.0015712 -0.00092155 -0.246836)
(0.00629969 -0.00327466 -0.291849)
(0.00154169 -0.000952495 -0.248284)
(0.00617685 -0.00337425 -0.292592)
(0.0014999 -0.000986018 -0.249766)
(0.00605638 -0.00347362 -0.293187)
(0.00143944 -0.00100209 -0.251417)
(0.00595186 -0.00359089 -0.293504)
(0.00135919 -0.000993376 -0.253306)
(0.00587269 -0.00366749 -0.293399)
(0.00125728 -0.00100027 -0.255283)
(0.00575966 -0.00372738 -0.293485)
(0.00111428 -0.00104802 -0.257345)
(0.00545594 -0.00385654 -0.295406)
(0.000916297 -0.001112 -0.259709)
(0.00483257 -0.00400797 -0.300295)
(0.000774649 -0.00114385 -0.261524)
(0.00404607 -0.00418412 -0.306581)
(0.000760166 -0.00113997 -0.262177)
(0.00388689 -0.00416441 -0.307058)
(0.000782355 -0.001149 -0.262454)
(0.00398979 -0.0041595 -0.304935)
(0.000776127 -0.00118107 -0.262935)
(0.00398998 -0.00425623 -0.303609)
(0.000740623 -0.00121824 -0.263631)
(0.00386564 -0.00438604 -0.303338)
(0.000693277 -0.00124906 -0.264379)
(0.00369474 -0.00449515 -0.303418)
(0.000643395 -0.00127576 -0.265087)
(0.00352353 -0.00457425 -0.303397)
(0.000592488 -0.00130392 -0.265742)
(0.00335421 -0.00465623 -0.303259)
(0.000541111 -0.00133342 -0.266342)
(0.00318661 -0.00474046 -0.303039)
(0.000490065 -0.00136323 -0.266887)
(0.00302324 -0.00482287 -0.302743)
(0.000439749 -0.00139509 -0.267372)
(0.00286585 -0.00490296 -0.302377)
(0.000389956 -0.0014303 -0.267805)
(0.002714 -0.00497863 -0.301963)
(0.000340094 -0.00146649 -0.268207)
(0.00256599 -0.00504879 -0.30152)
(0.000289814 -0.00150211 -0.268592)
(0.00242094 -0.00511552 -0.301049)
(0.000239381 -0.00153732 -0.26896)
(0.00227924 -0.0051795 -0.300545)
(0.000189298 -0.00157148 -0.269307)
(0.00214129 -0.00523974 -0.300017)
(0.000140124 -0.00160453 -0.269625)
(0.00200711 -0.00529617 -0.299474)
(9.26028e-05 -0.00163742 -0.269904)
(0.00187659 -0.00534825 -0.298934)
(4.76055e-05 -0.00167043 -0.270139)
(0.00174931 -0.00539473 -0.298415)
(6.20913e-06 -0.00170312 -0.270329)
(0.00162489 -0.00543478 -0.297924)
(-2.99291e-05 -0.00174035 -0.270471)
(0.00150316 -0.00546366 -0.297443)
(-6.34314e-05 -0.0017842 -0.270605)
(0.00138429 -0.00550638 -0.296933)
(-0.000111494 -0.00183296 -0.270963)
(0.00124165 -0.005558 -0.296688)
(-0.000198638 -0.00188078 -0.271941)
(0.0010082 -0.00556583 -0.297876)
(-0.000331776 -0.00191554 -0.273595)
(0.000639578 -0.00551534 -0.301717)
(-0.000458983 -0.00196916 -0.274573)
(0.000173336 -0.00539278 -0.307022)
(-0.00047158 -0.00203208 -0.272482)
(-6.11744e-05 -0.00536432 -0.305638)
(0 0 0)
(-0.000121518 -1.02988e-05 -0.0105852)
(-7.49643e-05 -2.21689e-05 -0.0223139)
(9.82591e-05 -3.67601e-05 -0.0343589)
(0.000275109 -4.86614e-05 -0.0461768)
(0.000420747 -6.19911e-05 -0.0576954)
(0.000545858 -7.55851e-05 -0.0689283)
(0.000654914 -8.98868e-05 -0.0798326)
(0.000749987 -0.000104791 -0.090346)
(0.000832119 -0.000120004 -0.100404)
(0.000901907 -0.000135442 -0.10995)
(0.000960569 -0.000151124 -0.118958)
(0.00100998 -0.000166801 -0.127429)
(0.00105189 -0.000181802 -0.135397)
(0.00108809 -0.000196015 -0.142909)
(0.00111996 -0.000209942 -0.150008)
(0.00114807 -0.000223666 -0.156721)
(0.00117265 -0.000236937 -0.163069)
(0.00119396 -0.000249742 -0.169081)
(0.00121225 -0.000262337 -0.174779)
(0.00122797 -0.000275036 -0.180184)
(0.00124174 -0.000287873 -0.185312)
(0.00125419 -0.000300103 -0.190179)
(0.00126551 -0.000310044 -0.194806)
(0.00127485 -0.00031599 -0.19922)
(0.00128038 -0.000323122 -0.20345)
(0.0012814 -0.000338456 -0.207504)
(0.00127931 -0.00035495 -0.211358)
(0.00127674 -0.000370628 -0.214994)
(0.00127989 -0.000393826 -0.218422)
(0.00129674 -0.000419105 -0.221634)
(0.00132902 -0.00042705 -0.224612)
(0.00136794 -0.000394999 -0.227403)
(0.00139565 -0.000360529 -0.230167)
(0.00140151 -0.000392691 -0.233021)
(0.00139215 -0.000465977 -0.235855)
(0.00137719 -0.000512096 -0.238516)
(0.00136319 -0.000507172 -0.241036)
(0.0013531 -0.00048736 -0.243503)
(0.00134981 -0.000498149 -0.245843)
(0.00136082 -0.000527186 -0.247892)
(0.00138545 -0.00055281 -0.249638)
(0.00141328 -0.000573024 -0.251227)
(0.00143641 -0.000588557 -0.252767)
(0.00145433 -0.000601865 -0.254267)
(0.00147053 -0.00062011 -0.255692)
(0.00148279 -0.000647691 -0.257058)
(0.00148009 -0.000674684 -0.258476)
(0.00145481 -0.000689716 -0.260084)
(0.00141253 -0.000693599 -0.261871)
(0.0013781 -0.000708908 -0.263416)
(0.00136989 -0.000747546 -0.264394)
(0.00137445 -0.000790023 -0.26505)
(0.00137234 -0.000823988 -0.265711)
(0.00135837 -0.000853583 -0.266446)
(0.0013356 -0.000884546 -0.267195)
(0.00130656 -0.000919285 -0.267912)
(0.00127155 -0.000949198 -0.268591)
(0.00122887 -0.000952306 -0.269218)
(0.00117903 -0.000970669 -0.269731)
(0.00113524 -0.00106548 -0.270122)
(0.0010818 -0.00109366 -0.270425)
(0.00101112 -0.00099638 -0.270395)
(0.00102571 -0.00112045 -0.26973)
(0.00111152 -0.00148383 -0.268722)
(0.00101835 -0.00143058 -0.268679)
(0.000786212 -0.00112676 -0.269693)
(0.000623386 -0.00112169 -0.270578)
(0.000516715 -0.00125825 -0.271046)
(0.000421136 -0.00134461 -0.271231)
(0.000326785 -0.00139384 -0.271284)
(0.000237989 -0.00145001 -0.271212)
(0.000186934 -0.00137875 -0.270742)
(0.000296775 -0.00134938 -0.269392)
(0.000692864 -0.00167014 -0.266756)
(0.00105051 -0.00195414 -0.264263)
(0.000951833 -0.00179038 -0.263705)
(0.000598851 -0.00152462 -0.2643)
(0.000311023 -0.00154134 -0.264772)
(0.000121913 -0.00171853 -0.264858)
(0 0 0)
(-0.000296875 1.07759e-06 -0.0112592)
(-0.000346383 2.67947e-06 -0.0251941)
(-0.000192395 2.31723e-06 -0.0394499)
(-6.47125e-06 1.41511e-06 -0.0527581)
(0.000155904 3.08038e-07 -0.0651906)
(0.000305027 -1.58761e-06 -0.0770205)
(0.000444585 -4.42366e-06 -0.0883373)
(0.000575587 -8.32442e-06 -0.0991544)
(0.000697873 -1.33083e-05 -0.109455)
(0.000810804 -1.96039e-05 -0.119214)
(0.000914462 -2.7397e-05 -0.128418)
(0.00100972 -3.65751e-05 -0.137073)
(0.00109754 -4.65126e-05 -0.145204)
(0.00117909 -5.69707e-05 -0.152844)
(0.00125499 -6.85954e-05 -0.160027)
(0.00132508 -8.16456e-05 -0.166785)
(0.00138926 -9.59346e-05 -0.173147)
(0.00144769 -0.000111514 -0.179137)
(0.00150059 -0.000128553 -0.184778)
(0.00154826 -0.000147261 -0.190091)
(0.00159106 -0.000167643 -0.195087)
(0.00162922 -0.000189034 -0.199782)
(0.00166268 -0.000209795 -0.204198)
(0.00169063 -0.000228071 -0.208369)
(0.00171162 -0.000248835 -0.212331)
(0.00172564 -0.000278995 -0.216095)
(0.00173491 -0.000311562 -0.219636)
(0.00174257 -0.000344789 -0.222929)
(0.00175438 -0.000387059 -0.225988)
(0.00177652 -0.000432406 -0.228826)
(0.00180845 -0.000460159 -0.231454)
(0.00184075 -0.000447175 -0.233944)
(0.0018575 -0.000433078 -0.236448)
(0.00185065 -0.000486945 -0.239057)
(0.00183009 -0.000581245 -0.241628)
(0.00181042 -0.00064964 -0.243966)
(0.00180143 -0.000671035 -0.246047)
(0.00180298 -0.000681939 -0.247939)
(0.00180555 -0.000721118 -0.249709)
(0.00180349 -0.000768503 -0.251382)
(0.00179797 -0.000808531 -0.252968)
(0.00179064 -0.00084797 -0.254472)
(0.00178159 -0.000888426 -0.255897)
(0.00177011 -0.000929859 -0.257246)
(0.00175546 -0.000971632 -0.258522)
(0.00173711 -0.00101345 -0.259729)
(0.00171463 -0.00105535 -0.260872)
(0.00168758 -0.00109763 -0.261951)
(0.00165529 -0.00114072 -0.262972)
(0.00161693 -0.00118471 -0.263939)
(0.00157198 -0.00122852 -0.264866)
(0.00152103 -0.00126996 -0.265763)
(0.00146571 -0.00130776 -0.266631)
(0.00140722 -0.00134349 -0.267458)
(0.00134561 -0.0013793 -0.26824)
(0.0012809 -0.00141756 -0.268972)
(0.00121322 -0.00145053 -0.269655)
(0.00114102 -0.00145573 -0.270276)
(0.001065 -0.00147475 -0.270779)
(0.000999259 -0.00156724 -0.271166)
(0.000928816 -0.00158978 -0.271479)
(0.000845209 -0.00148399 -0.271471)
(0.000848427 -0.00159366 -0.270835)
(0.000921984 -0.00193482 -0.269847)
(0.000815394 -0.00185599 -0.269783)
(0.000570219 -0.00152525 -0.270728)
(0.000395755 -0.00149084 -0.271509)
(0.000278598 -0.00159666 -0.271847)
(0.000172754 -0.0016507 -0.271896)
(6.67721e-05 -0.00166379 -0.271821)
(-3.73367e-05 -0.00167912 -0.271642)
(-0.000110788 -0.00156205 -0.271083)
(-3.53988e-05 -0.00147862 -0.269663)
(0.000310618 -0.0017366 -0.266973)
(0.000609211 -0.00194042 -0.264384)
(0.000456137 -0.00167636 -0.263614)
(6.02588e-05 -0.00130134 -0.263853)
(-0.000257462 -0.0011885 -0.263854)
(-0.000463286 -0.00123513 -0.263423)
(0 0 0)
(0.000271469 6.64655e-05 -0.0163192)
(0.000523806 4.11844e-05 -0.030715)
(0.000741689 1.79412e-05 -0.0440874)
(0.00094056 5.48613e-05 -0.0569099)
(0.00112823 2.07955e-05 -0.069183)
(0.0013045 3.19702e-05 -0.080829)
(0.00146874 2.62464e-05 -0.0918306)
(0.00162038 2.08578e-05 -0.102184)
(0.00175899 1.30686e-05 -0.111889)
(0.00188445 3.89034e-06 -0.120954)
(0.00199684 -7.40205e-06 -0.129411)
(0.00209668 -2.11026e-05 -0.137304)
(0.00218499 -3.713e-05 -0.144674)
(0.00226283 -5.50757e-05 -0.151552)
(0.00233098 -7.49092e-05 -0.157973)
(0.00239008 -9.681e-05 -0.163977)
(0.0024408 -0.000120785 -0.169599)
(0.00248383 -0.000146796 -0.174873)
(0.00251972 -0.00017471 -0.179831)
(0.00254887 -0.000204373 -0.184498)
(0.00257153 -0.000235724 -0.188895)
(0.00258779 -0.000268808 -0.193039)
(0.00259792 -0.000303666 -0.196949)
(0.00260266 -0.000340148 -0.200651)
(0.00260285 -0.000377937 -0.204171)
(0.00259896 -0.000416712 -0.207535)
(0.00259079 -0.000456211 -0.210753)
(0.00257746 -0.000496773 -0.213819)
(0.00255836 -0.000539151 -0.216718)
(0.00253424 -0.000582948 -0.21945)
(0.0025069 -0.000627008 -0.222044)
(0.00247773 -0.000670837 -0.224533)
(0.00244704 -0.00071668 -0.226932)
(0.00241454 -0.000761643 -0.229235)
(0.00237851 -0.000801152 -0.231462)
(0.00233286 -0.000844772 -0.233683)
(0.00227044 -0.00089955 -0.23599)
(0.00219559 -0.000959966 -0.238362)
(0.00213019 -0.00101143 -0.240561)
(0.00208849 -0.00104541 -0.242379)
(0.00205755 -0.00107768 -0.243917)
(0.00201941 -0.0011224 -0.245384)
(0.00197012 -0.00117547 -0.246856)
(0.00191443 -0.00122689 -0.248297)
(0.00185614 -0.00127307 -0.249667)
(0.001796 -0.00131825 -0.250955)
(0.00173445 -0.00136668 -0.252162)
(0.00167221 -0.00141 -0.253284)
(0.00160195 -0.00144049 -0.254408)
(0.00149611 -0.00147608 -0.255806)
(0.00131637 -0.00152899 -0.257817)
(0.00106288 -0.00159194 -0.260422)
(0.000868019 -0.00162762 -0.262444)
(0.000809015 -0.00162988 -0.263189)
(0.000792369 -0.00164376 -0.263498)
(0.00075047 -0.00167934 -0.263995)
(0.000682299 -0.00171957 -0.264695)
(0.000605427 -0.00175249 -0.265437)
(0.000529369 -0.00177984 -0.266135)
(0.000456504 -0.00180568 -0.266786)
(0.00038813 -0.00182953 -0.267396)
(0.000324158 -0.00185084 -0.267963)
(0.00026247 -0.00186831 -0.268477)
(0.000200421 -0.0018813 -0.26893)
(0.000137136 -0.0018919 -0.269312)
(7.38213e-05 -0.00190059 -0.269628)
(1.17501e-05 -0.00190646 -0.269891)
(-4.882e-05 -0.00190989 -0.270109)
(-0.000108259 -0.00191062 -0.270289)
(-0.00016741 -0.00190737 -0.270441)
(-0.00022772 -0.00189953 -0.270569)
(-0.000291513 -0.00188642 -0.27067)
(-0.000362102 -0.00186959 -0.270742)
(-0.000445678 -0.00185066 -0.270821)
(-0.000552792 -0.00181924 -0.271084)
(-0.000694335 -0.00176676 -0.271849)
(-0.000870368 -0.00169227 -0.273147)
(-0.00102747 -0.00161633 -0.273655)
(-0.00105678 -0.00154868 -0.271047)
)
