0 	0 	0 	0
5.01672e-05 	-2.24752e-05 	-4.53761e-06 	0.0203558
0.000100334 	-4.49503e-05 	-9.07522e-06 	0.0407116
0.000150502 	-6.74255e-05 	-1.36128e-05 	0.0610674
0.000200669 	-8.99007e-05 	-1.81504e-05 	0.0814232
0.000250836 	-0.000112376 	-2.26881e-05 	0.101779
0.000301003 	-0.000134851 	-2.72257e-05 	0.122135
0.000351171 	-0.000155247 	-3.24776e-05 	0.14038
0.000401338 	-0.000167781 	-4.04305e-05 	0.150642
0.000451505 	-0.000180315 	-4.83835e-05 	0.160904
0.000501672 	-0.000192848 	-5.63365e-05 	0.171166
0.000551839 	-0.000205382 	-6.42895e-05 	0.181428
0.000602007 	-0.000217916 	-7.22425e-05 	0.191691
0.000652174 	-0.00023045 	-8.01955e-05 	0.201953
0.000702341 	-0.000242983 	-8.81485e-05 	0.212215
0.000752508 	-0.00025273 	-9.6325e-05 	0.221049
0.000802676 	-0.000255568 	-0.000105056 	0.226342
0.000852843 	-0.000258405 	-0.000113786 	0.231635
0.00090301 	-0.000261243 	-0.000122517 	0.236928
0.000953177 	-0.00026408 	-0.000131248 	0.242221
0.00100334 	-0.000266918 	-0.000139979 	0.247514
0.00105351 	-0.000269755 	-0.000148709 	0.252807
0.00110368 	-0.000272593 	-0.00015744 	0.2581
0.00115385 	-0.00027543 	-0.000166171 	0.263393
0.00120401 	-0.000278067 	-0.000174859 	0.268581
0.00125418 	-0.000276589 	-0.000182671 	0.2716
0.00130435 	-0.000275112 	-0.000190484 	0.27462
0.00135452 	-0.000273634 	-0.000198296 	0.27764
0.00140468 	-0.000272157 	-0.000206108 	0.280659
0.00145485 	-0.000270679 	-0.00021392 	0.283679
0.00150502 	-0.000269201 	-0.000221733 	0.286699
0.00155518 	-0.000267724 	-0.000229545 	0.289719
0.00160535 	-0.000266246 	-0.000237357 	0.292738
0.00165552 	-0.000264769 	-0.000245169 	0.295758
0.00170569 	-0.000263291 	-0.000252982 	0.298778
0.00175585 	-0.000261558 	-0.000260385 	0.301508
0.00180602 	-0.000259123 	-0.000266663 	0.303443
0.00185619 	-0.000256688 	-0.000272942 	0.305377
0.00190635 	-0.000254253 	-0.000279221 	0.307312
0.00195652 	-0.000251819 	-0.000285499 	0.309247
0.00200669 	-0.000249384 	-0.000291778 	0.311181
0.00205686 	-0.000246949 	-0.000298056 	0.313116
0.00210702 	-0.000244514 	-0.000304335 	0.315051
0.00215719 	-0.000242079 	-0.000310613 	0.316985
0.00220736 	-0.000239644 	-0.000316892 	0.31892
0.00225753 	-0.000237209 	-0.00032317 	0.320855
0.00230769 	-0.000234774 	-0.000329449 	0.322789
0.00235786 	-0.000232339 	-0.000335727 	0.324724
0.00240803 	-0.000230149 	-0.000340833 	0.326225
0.00245819 	-0.000228069 	-0.000345417 	0.327532
0.00250836 	-0.000225989 	-0.000350001 	0.328839
0.00255853 	-0.000223909 	-0.000354584 	0.330146
0.0026087 	-0.000221829 	-0.000359168 	0.331454
0.00265886 	-0.000219748 	-0.000363752 	0.332761
0.00270903 	-0.000217668 	-0.000368335 	0.334068
0.0027592 	-0.000215588 	-0.000372919 	0.335375
0.00280936 	-0.000213508 	-0.000377502 	0.336682
0.00285953 	-0.000211428 	-0.000382086 	0.33799
0.0029097 	-0.000209347 	-0.00038667 	0.339297
0.00295987 	-0.000207267 	-0.000391253 	0.340604
0.00301003 	-0.000205187 	-0.000395837 	0.341911
0.0030602 	-0.000203107 	-0.00040042 	0.343218
0.00311037 	-0.000201041 	-0.000404974 	0.344516
0.00316054 	-0.000199588 	-0.000408207 	0.345394
0.0032107 	-0.000198136 	-0.000411441 	0.346271
0.00326087 	-0.000196683 	-0.000414675 	0.347149
0.00331104 	-0.00019523 	-0.000417908 	0.348026
0.0033612 	-0.000193778 	-0.000421142 	0.348904
0.00341137 	-0.000192325 	-0.000424375 	0.349781
0.00346154 	-0.000190873 	-0.000427609 	0.350659
0.00351171 	-0.00018942 	-0.000430843 	0.351537
0.00356187 	-0.000187968 	-0.000434076 	0.352414
0.00361204 	-0.000186515 	-0.00043731 	0.353292
0.00366221 	-0.000185062 	-0.000440544 	0.354169
0.00371237 	-0.00018361 	-0.000443777 	0.355047
0.00376254 	-0.000182157 	-0.000447011 	0.355924
0.00381271 	-0.000180705 	-0.000450245 	0.356802
0.00386288 	-0.000179252 	-0.000453478 	0.357679
0.00391304 	-0.000177799 	-0.000456712 	0.358557
0.00396321 	-0.000176347 	-0.000459946 	0.359435
0.00401338 	-0.000175302 	-0.000462334 	0.360014
0.00406355 	-0.000174297 	-0.000464639 	0.360563
0.00411371 	-0.000173293 	-0.000466945 	0.361113
0.00416388 	-0.000172288 	-0.00046925 	0.361662
0.00421405 	-0.000171283 	-0.000471555 	0.362212
0.00426421 	-0.000170278 	-0.000473861 	0.362762
0.00431438 	-0.000169273 	-0.000476166 	0.363311
0.00436455 	-0.000168269 	-0.000478472 	0.363861
0.00441472 	-0.000167264 	-0.000480777 	0.364411
0.00446488 	-0.000166259 	-0.000483082 	0.36496
0.00451505 	-0.000165254 	-0.000485388 	0.36551
0.00456522 	-0.000164249 	-0.000487693 	0.36606
0.00461538 	-0.000163245 	-0.000489998 	0.366609
0.00466555 	-0.00016224 	-0.000492304 	0.367159
0.00471572 	-0.000161235 	-0.000494609 	0.367709
0.00476589 	-0.00016023 	-0.000496915 	0.368258
0.00481605 	-0.000159226 	-0.00049922 	0.368808
0.00486622 	-0.000158221 	-0.000501525 	0.369358
0.00491639 	-0.000157216 	-0.000503831 	0.369907
0.00496656 	-0.000156211 	-0.000506136 	0.370457
0.00501672 	-0.000155414 	-0.00050772 	0.370757
0.00506689 	-0.000154629 	-0.000509265 	0.371043
0.00511706 	-0.000153843 	-0.000510811 	0.37133
0.00516722 	-0.000153058 	-0.000512356 	0.371616
0.00521739 	-0.000152272 	-0.000513901 	0.371903
0.00526756 	-0.000151487 	-0.000515447 	0.372189
0.00531773 	-0.000150701 	-0.000516992 	0.372476
0.00536789 	-0.000149916 	-0.000518537 	0.372762
0.00541806 	-0.00014913 	-0.000520083 	0.373049
0.00546823 	-0.000148345 	-0.000521628 	0.373335
0.00551839 	-0.000147559 	-0.000523173 	0.373622
0.00556856 	-0.000146774 	-0.000524719 	0.373908
0.00561873 	-0.000145988 	-0.000526264 	0.374195
0.0056689 	-0.000145203 	-0.000527809 	0.374481
0.00571906 	-0.000144417 	-0.000529355 	0.374768
0.00576923 	-0.000143631 	-0.0005309 	0.375054
0.0058194 	-0.000142846 	-0.000532445 	0.375341
0.00586957 	-0.00014206 	-0.000533991 	0.375627
0.00591973 	-0.000141275 	-0.000535536 	0.375914
0.0059699 	-0.000140489 	-0.000537081 	0.3762
0.00602007 	-0.000139704 	-0.000538626 	0.376487
0.00607023 	-0.000138918 	-0.000540172 	0.376773
0.0061204 	-0.000138133 	-0.000541717 	0.37706
0.00617057 	-0.000137445 	-0.000542744 	0.3772
0.00622074 	-0.000136807 	-0.000543509 	0.377266
0.0062709 	-0.000136169 	-0.000544273 	0.377332
0.00632107 	-0.00013553 	-0.000545038 	0.377399
0.00637124 	-0.000134892 	-0.000545802 	0.377465
0.0064214 	-0.000134254 	-0.000546566 	0.377531
0.00647157 	-0.000133616 	-0.000547331 	0.377597
0.00652174 	-0.000132978 	-0.000548095 	0.377663
0.00657191 	-0.000132339 	-0.00054886 	0.377729
0.00662207 	-0.000131701 	-0.000549624 	0.377795
0.00667224 	-0.000131063 	-0.000550388 	0.377861
0.00672241 	-0.000130425 	-0.000551153 	0.377927
0.00677258 	-0.000129787 	-0.000551917 	0.377993
0.00682274 	-0.000129148 	-0.000552682 	0.378059
0.00687291 	-0.00012851 	-0.000553446 	0.378126
0.00692308 	-0.000127872 	-0.00055421 	0.378192
0.00697324 	-0.000127234 	-0.000554975 	0.378258
0.00702341 	-0.000126596 	-0.000555739 	0.378324
0.00707358 	-0.000125957 	-0.000556504 	0.37839
0.00712375 	-0.000125319 	-0.000557268 	0.378456
0.00717391 	-0.000124681 	-0.000558032 	0.378522
0.00722408 	-0.000124043 	-0.000558797 	0.378588
0.00727425 	-0.000123405 	-0.000559561 	0.378654
0.00732441 	-0.000122766 	-0.000560326 	0.37872
0.00737458 	-0.000122128 	-0.00056109 	0.378786
0.00742475 	-0.00012149 	-0.000561854 	0.378853
0.00747492 	-0.000120852 	-0.000562619 	0.378919
0.00752508 	-0.000120271 	-0.000562995 	0.378886
0.00757525 	-0.000119749 	-0.000562984 	0.378753
0.00762542 	-0.000119226 	-0.000562973 	0.378621
0.00767559 	-0.000118703 	-0.000562962 	0.378489
0.00772575 	-0.000118181 	-0.000562951 	0.378357
0.00777592 	-0.000117658 	-0.00056294 	0.378224
0.00782609 	-0.000117135 	-0.000562929 	0.378092
0.00787625 	-0.000116613 	-0.000562918 	0.37796
0.00792642 	-0.00011609 	-0.000562907 	0.377828
0.00797659 	-0.000115567 	-0.000562896 	0.377695
0.00802676 	-0.000115044 	-0.000562885 	0.377563
0.00807692 	-0.000114522 	-0.000562874 	0.377431
0.00812709 	-0.000113999 	-0.000562863 	0.377299
0.00817726 	-0.000113476 	-0.000562852 	0.377166
0.00822742 	-0.000112954 	-0.000562841 	0.377034
0.00827759 	-0.000112431 	-0.00056283 	0.376902
0.00832776 	-0.000111908 	-0.000562819 	0.37677
0.00837793 	-0.000111385 	-0.000562808 	0.376637
0.00842809 	-0.000110863 	-0.000562797 	0.376505
0.00847826 	-0.00011034 	-0.000562786 	0.376373
0.00852843 	-0.000109817 	-0.000562775 	0.376241
0.0085786 	-0.000109295 	-0.000562763 	0.376108
0.00862876 	-0.000108772 	-0.000562752 	0.375976
0.00867893 	-0.000108249 	-0.000562741 	0.375844
0.0087291 	-0.000107727 	-0.00056273 	0.375712
0.00877926 	-0.000107204 	-0.000562719 	0.375579
0.00882943 	-0.000106681 	-0.000562708 	0.375447
0.0088796 	-0.000106213 	-0.000562378 	0.375234
0.00892977 	-0.000105851 	-0.000561418 	0.374861
0.00897993 	-0.00010549 	-0.000560457 	0.374489
0.0090301 	-0.000105128 	-0.000559497 	0.374116
0.00908027 	-0.000104767 	-0.000558537 	0.373744
0.00913043 	-0.000104405 	-0.000557577 	0.373371
0.0091806 	-0.000104044 	-0.000556617 	0.372999
0.00923077 	-0.000103682 	-0.000555656 	0.372626
0.00928094 	-0.000103321 	-0.000554696 	0.372254
0.0093311 	-0.00010296 	-0.000553736 	0.371881
0.00938127 	-0.000102598 	-0.000552776 	0.371508
0.00943144 	-0.000102237 	-0.000551816 	0.371136
0.00948161 	-0.000101875 	-0.000550856 	0.370763
0.00953177 	-0.000101514 	-0.000549895 	0.370391
0.00958194 	-0.000101152 	-0.000548935 	0.370018
0.00963211 	-0.000100791 	-0.000547975 	0.369646
0.00968227 	-0.000100429 	-0.000547015 	0.369273
0.00973244 	-0.000100068 	-0.000546055 	0.368901
0.00978261 	-9.97065e-05 	-0.000545095 	0.368528
0.00983278 	-9.9345e-05 	-0.000544134 	0.368156
0.00988294 	-9.89836e-05 	-0.000543174 	0.367783
0.00993311 	-9.86221e-05 	-0.000542214 	0.36741
0.00998328 	-9.82607e-05 	-0.000541254 	0.367038
0.0100334 	-9.7917e-05 	-0.000540237 	0.366651
0.0100836 	-9.79059e-05 	-0.000538173 	0.365994
0.0101338 	-9.78948e-05 	-0.000536109 	0.365338
0.0101839 	-9.78837e-05 	-0.000534044 	0.364681
0.0102341 	-9.78725e-05 	-0.00053198 	0.364024
0.0102843 	-9.78614e-05 	-0.000529916 	0.363368
0.0103344 	-9.78503e-05 	-0.000527851 	0.362711
0.0103846 	-9.78392e-05 	-0.000525787 	0.362054
0.0104348 	-9.78281e-05 	-0.000523723 	0.361398
0.0104849 	-9.7817e-05 	-0.000521658 	0.360741
0.0105351 	-9.78058e-05 	-0.000519594 	0.360084
0.0105853 	-9.77947e-05 	-0.00051753 	0.359428
0.0106355 	-9.77836e-05 	-0.000515465 	0.358771
0.0106856 	-9.77725e-05 	-0.000513401 	0.358114
0.0107358 	-9.77614e-05 	-0.000511337 	0.357458
0.010786 	-9.77503e-05 	-0.000509272 	0.356801
0.0108361 	-9.77391e-05 	-0.000507208 	0.356145
0.0108863 	-9.7728e-05 	-0.000505144 	0.355488
0.0109365 	-9.77169e-05 	-0.000503079 	0.354831
0.0109866 	-9.77058e-05 	-0.000501015 	0.354175
0.0110368 	-9.77509e-05 	-0.000498809 	0.353485
0.011087 	-9.83693e-05 	-0.000495153 	0.352461
0.0111371 	-9.89877e-05 	-0.000491497 	0.351436
0.0111873 	-9.96061e-05 	-0.000487841 	0.350412
0.0112375 	-0.000100225 	-0.000484186 	0.349387
0.0112876 	-0.000100843 	-0.00048053 	0.348362
0.0113378 	-0.000101461 	-0.000476874 	0.347338
0.011388 	-0.00010208 	-0.000473218 	0.346313
0.0114381 	-0.000102698 	-0.000469563 	0.345289
0.0114883 	-0.000103317 	-0.000465907 	0.344264
0.0115385 	-0.000103935 	-0.000462251 	0.34324
0.0115886 	-0.000104553 	-0.000458595 	0.342215
0.0116388 	-0.000105172 	-0.00045494 	0.341191
0.011689 	-0.00010579 	-0.000451284 	0.340166
0.0117391 	-0.000106409 	-0.000447628 	0.339142
0.0117893 	-0.000107027 	-0.000443973 	0.338117
0.0118395 	-0.000107646 	-0.000440317 	0.337093
0.0118896 	-0.000108264 	-0.000436661 	0.336068
0.0119398 	-0.000109773 	-0.000430521 	0.334506
0.01199 	-0.000111303 	-0.000424323 	0.33293
0.0120401 	-0.000112833 	-0.000418126 	0.331355
0.0120903 	-0.000114363 	-0.000411929 	0.32978
0.0121405 	-0.000115893 	-0.000405731 	0.328205
0.0121906 	-0.000117423 	-0.000399534 	0.32663
0.0122408 	-0.000118953 	-0.000393336 	0.325055
0.012291 	-0.000120483 	-0.000387139 	0.32348
0.0123411 	-0.000122013 	-0.000380941 	0.321905
0.0123913 	-0.000123543 	-0.000374744 	0.32033
0.0124415 	-0.000125073 	-0.000368546 	0.318755
0.0124916 	-0.000126603 	-0.000362349 	0.317179
0.0125418 	-0.000128133 	-0.000356151 	0.315604
0.012592 	-0.000129663 	-0.000349954 	0.314029
0.0126421 	-0.000131449 	-0.000342795 	0.312169
0.0126923 	-0.000133808 	-0.000333482 	0.309671
0.0127425 	-0.000136168 	-0.000324168 	0.307173
0.0127926 	-0.000138528 	-0.000314854 	0.304674
0.0128428 	-0.000140887 	-0.00030554 	0.302176
0.012893 	-0.000143247 	-0.000296226 	0.299678
0.0129431 	-0.000145606 	-0.000286913 	0.297179
0.0129933 	-0.000147966 	-0.000277599 	0.294681
0.0130435 	-0.000150326 	-0.000268285 	0.292182
0.0130936 	-0.000152685 	-0.000258971 	0.289684
0.0131438 	-0.000155045 	-0.000249658 	0.287186
0.013194 	-0.000157405 	-0.000240344 	0.284687
0.0132441 	-0.000159764 	-0.00023103 	0.282189
0.0132943 	-0.000161809 	-0.000220134 	0.278476
0.0133445 	-0.00016374 	-0.000208663 	0.274321
0.0133946 	-0.000165671 	-0.000197192 	0.270167
0.0134448 	-0.000167602 	-0.000185721 	0.266012
0.013495 	-0.000169533 	-0.00017425 	0.261858
0.0135452 	-0.000171464 	-0.00016278 	0.257703
0.0135953 	-0.000173395 	-0.000151309 	0.253548
0.0136455 	-0.000175326 	-0.000139838 	0.249394
0.0136957 	-0.000177257 	-0.000128367 	0.245239
0.0137458 	-0.000179188 	-0.000116896 	0.241085
0.013796 	-0.000181119 	-0.000105425 	0.23693
0.0138462 	-0.000179056 	-9.56278e-05 	0.229489
0.0138963 	-0.000176799 	-8.59124e-05 	0.221889
0.0139465 	-0.000174541 	-7.6197e-05 	0.214288
0.0139967 	-0.000172284 	-6.64816e-05 	0.206687
0.0140468 	-0.000170026 	-5.67662e-05 	0.199086
0.014097 	-0.000167769 	-4.70508e-05 	0.191485
0.0141472 	-0.000165511 	-3.73354e-05 	0.183884
0.0141973 	-0.000163254 	-2.762e-05 	0.176284
0.0142475 	-0.000160996 	-1.79046e-05 	0.168683
0.0142977 	-0.000153354 	-1.28661e-05 	0.158153
0.0143478 	-0.00014354 	-9.71389e-06 	0.146441
0.014398 	-0.000133726 	-6.56166e-06 	0.134729
0.0144482 	-0.000123912 	-3.40944e-06 	0.123018
0.0144983 	-0.000114098 	-2.57214e-07 	0.111306
0.0145485 	-0.000104284 	2.89501e-06 	0.0995943
0.0145987 	-9.44704e-05 	6.04723e-06 	0.0878826
0.0146488 	-8.46564e-05 	9.19946e-06 	0.076171
0.014699 	-7.29839e-05 	8.71056e-06 	0.065136
0.0147492 	-6.08199e-05 	7.2588e-06 	0.05428
0.0147993 	-4.8656e-05 	5.80704e-06 	0.043424
0.0148495 	-3.6492e-05 	4.35528e-06 	0.032568
0.0148997 	-2.4328e-05 	2.90352e-06 	0.021712
0.0149498 	-1.2164e-05 	1.45176e-06 	0.010856
0.015 	0 	0 	0
