/*--------------------------------*- C++ -*----------------------------------*\
| =========                 |                                                 |
| \\      /  F ield         | OpenFOAM: The Open Source CFD Toolbox           |
|  \\    /   O peration     | Version:  v1912                                 |
|   \\  /    A nd           | Website:  www.openfoam.com                      |
|    \\/     M anipulation  |                                                 |
\*---------------------------------------------------------------------------*/
FoamFile
{
    version     2.0;
    format      ascii;
    class       volScalarField;
    location    "198.8";
    object      nut;
}
// * * * * * * * * * * * * * * * * * * * * * * * * * * * * * * * * * * * * * //

dimensions      [0 2 -1 0 0 0 0];


internalField   nonuniform List<scalar> 
40448
(
9.94326e-12
4.61234e-12
1.59627e-12
4.46158e-12
4.38588e-12
5.18506e-12
5.35105e-12
5.56045e-12
5.54422e-12
5.55025e-12
5.32643e-12
5.15118e-12
4.34773e-12
4.42891e-12
1.58393e-12
4.58216e-12
1.66156e-11
1.15519e-11
1.5156e-11
1.66581e-11
1.64961e-11
1.71961e-11
1.74032e-11
1.77909e-11
1.7726e-11
1.77658e-11
1.73755e-11
1.7169e-11
1.64676e-11
1.66339e-11
1.51783e-11
1.15414e-11
1.85636e-10
1.48316e-10
2.75878e-10
2.60129e-10
2.57983e-10
2.58767e-10
2.60129e-10
2.64386e-10
2.63341e-10
2.64061e-10
2.59996e-10
2.58802e-10
2.5806e-10
2.60201e-10
2.76533e-10
1.48602e-10
1.44382e-09
1.03609e-09
1.9962e-09
1.88503e-09
1.8684e-09
1.87104e-09
1.88006e-09
1.91004e-09
1.90238e-09
1.90777e-09
1.87928e-09
1.87154e-09
1.86923e-09
1.88578e-09
2.00102e-09
1.03825e-09
6.84049e-09
4.36279e-09
8.48782e-09
8.12596e-09
8.04943e-09
8.07005e-09
8.10959e-09
8.23944e-09
8.20608e-09
8.22981e-09
8.10637e-09
8.07226e-09
8.05292e-09
8.12914e-09
8.50789e-09
4.37155e-09
2.36024e-08
1.33457e-08
2.57853e-08
2.52894e-08
2.50349e-08
2.51832e-08
2.53193e-08
2.57386e-08
2.56332e-08
2.57083e-08
2.53078e-08
2.51877e-08
2.50425e-08
2.52964e-08
2.58429e-08
1.337e-08
6.52766e-08
3.2587e-08
6.13229e-08
6.23856e-08
6.17022e-08
6.24519e-08
6.28545e-08
6.39715e-08
6.37054e-08
6.38931e-08
6.28164e-08
6.24492e-08
6.17031e-08
6.23872e-08
6.14472e-08
3.26356e-08
1.51465e-07
6.66245e-08
1.19902e-07
1.27824e-07
1.26252e-07
1.28918e-07
1.29946e-07
1.32492e-07
1.3193e-07
1.32319e-07
1.29836e-07
1.28868e-07
1.26201e-07
1.2778e-07
1.20114e-07
6.66967e-08
3.013e-07
1.17454e-07
1.99746e-07
2.24031e-07
2.20875e-07
2.27852e-07
2.3007e-07
2.35077e-07
2.34058e-07
2.34745e-07
2.29805e-07
2.2767e-07
2.20681e-07
2.23859e-07
2.0005e-07
1.17531e-07
5.22124e-07
1.83151e-07
2.92933e-07
3.44953e-07
3.39385e-07
3.5364e-07
3.57694e-07
3.66268e-07
3.64644e-07
3.65714e-07
3.57172e-07
3.53213e-07
3.38937e-07
3.44548e-07
2.93319e-07
1.83195e-07
8.04683e-07
2.57899e-07
3.66599e-07
4.7941e-07
4.70611e-07
4.94873e-07
5.01319e-07
5.14381e-07
5.12043e-07
5.13552e-07
5.00445e-07
4.94096e-07
4.69814e-07
4.7868e-07
3.66956e-07
2.57697e-07
1.13023e-06
3.14566e-07
4.28764e-07
5.93886e-07
5.78041e-07
6.26291e-07
6.37586e-07
6.59718e-07
6.56145e-07
6.58376e-07
6.35907e-07
6.24606e-07
5.76424e-07
5.9238e-07
4.29185e-07
3.14335e-07
1.48012e-06
3.73216e-07
4.88047e-07
6.81069e-07
6.62271e-07
7.18345e-07
7.31271e-07
7.56659e-07
7.52559e-07
7.55134e-07
7.29341e-07
7.16411e-07
6.60436e-07
6.79354e-07
4.88538e-07
3.72972e-07
1.84048e-06
4.35008e-07
5.44646e-07
7.63682e-07
7.42423e-07
8.04781e-07
8.19023e-07
8.46979e-07
8.42448e-07
8.45316e-07
8.16903e-07
8.02667e-07
7.40437e-07
7.61824e-07
5.45206e-07
4.34756e-07
2.13028e-06
5.0039e-07
5.98598e-07
8.43715e-07
8.20106e-07
8.88864e-07
9.04462e-07
9.34961e-07
9.30007e-07
9.33167e-07
9.02156e-07
8.86574e-07
8.17981e-07
8.41726e-07
5.99229e-07
5.00137e-07
2.37856e-06
5.70052e-07
6.50322e-07
9.21789e-07
8.95888e-07
9.71302e-07
9.88297e-07
1.02135e-06
1.01597e-06
1.01943e-06
9.8581e-07
9.68836e-07
8.93632e-07
9.19678e-07
6.51026e-07
5.69806e-07
2.64088e-06
6.45041e-07
7.00622e-07
9.99774e-07
9.71484e-07
1.054e-06
1.07235e-06
1.10796e-06
1.10212e-06
1.10592e-06
1.0697e-06
1.05136e-06
9.69101e-07
9.97547e-07
7.01399e-07
6.44812e-07
2.93246e-06
7.26836e-07
7.50654e-07
1.08146e-06
1.05029e-06
1.14109e-06
1.16067e-06
1.19894e-06
1.19256e-06
1.19677e-06
1.15789e-06
1.13829e-06
1.04776e-06
1.0791e-06
7.51507e-07
7.26627e-07
3.26669e-06
8.17307e-07
8.01829e-07
1.17209e-06
1.13698e-06
1.23875e-06
1.2593e-06
1.30056e-06
1.29348e-06
1.29826e-06
1.25644e-06
1.23577e-06
1.13422e-06
1.16954e-06
8.0276e-07
8.17116e-07
3.65507e-06
9.18519e-07
8.55674e-07
1.27709e-06
1.23652e-06
1.35345e-06
1.37437e-06
1.4184e-06
1.41053e-06
1.41598e-06
1.37151e-06
1.35024e-06
1.23343e-06
1.27424e-06
8.56686e-07
9.18334e-07
4.08995e-06
1.03251e-06
9.13732e-07
1.39903e-06
1.35293e-06
1.48594e-06
1.50426e-06
1.54404e-06
1.53658e-06
1.54187e-06
1.50194e-06
1.48254e-06
1.34947e-06
1.39586e-06
9.14827e-07
1.0323e-06
4.53808e-06
1.16122e-06
9.77517e-07
1.52138e-06
1.48273e-06
1.59942e-06
1.61676e-06
1.65972e-06
1.65144e-06
1.65737e-06
1.61442e-06
1.5966e-06
1.47987e-06
1.51878e-06
9.78698e-07
1.16097e-06
4.97489e-06
1.30627e-06
1.04853e-06
1.6263e-06
1.58707e-06
1.71085e-06
1.729e-06
1.77642e-06
1.76712e-06
1.77378e-06
1.72661e-06
1.70802e-06
1.5841e-06
1.62369e-06
1.0498e-06
1.30594e-06
5.38886e-06
1.46807e-06
1.12824e-06
1.72689e-06
1.68842e-06
1.81784e-06
1.83636e-06
1.88739e-06
1.87717e-06
1.88447e-06
1.83406e-06
1.81509e-06
1.68544e-06
1.7244e-06
1.1296e-06
1.4677e-06
5.77714e-06
1.64075e-06
1.21806e-06
1.82115e-06
1.78705e-06
1.91412e-06
1.93183e-06
1.98459e-06
1.97373e-06
1.98144e-06
1.92984e-06
1.9117e-06
1.7844e-06
1.81908e-06
1.21951e-06
1.64081e-06
6.1428e-06
1.79809e-06
1.3193e-06
1.90614e-06
1.88035e-06
1.99573e-06
2.01127e-06
2.06344e-06
2.05228e-06
2.06018e-06
2.00983e-06
1.99394e-06
1.87842e-06
1.90484e-06
1.32085e-06
1.79838e-06
6.4899e-06
1.96655e-06
1.43317e-06
1.98051e-06
1.96688e-06
2.06165e-06
2.0737e-06
2.12294e-06
2.11183e-06
2.11979e-06
2.07304e-06
2.06077e-06
1.96607e-06
1.98033e-06
1.43481e-06
1.96705e-06
6.82213e-06
2.15226e-06
1.56056e-06
2.04479e-06
2.04681e-06
2.11317e-06
2.12066e-06
2.16484e-06
2.15413e-06
2.16196e-06
2.12098e-06
2.11347e-06
2.04749e-06
2.046e-06
1.56229e-06
2.15299e-06
7.14216e-06
2.35737e-06
1.70064e-06
2.10266e-06
2.12186e-06
2.15368e-06
2.15583e-06
2.19307e-06
2.18308e-06
2.19057e-06
2.15728e-06
2.15535e-06
2.12434e-06
2.10543e-06
1.70244e-06
2.35833e-06
7.45055e-06
2.58298e-06
1.84284e-06
2.16104e-06
2.19648e-06
2.19062e-06
2.18686e-06
2.21514e-06
2.20622e-06
2.2131e-06
2.18951e-06
2.19379e-06
2.20085e-06
2.16536e-06
1.84465e-06
2.58421e-06
7.74643e-06
2.82997e-06
1.99287e-06
2.2249e-06
2.27666e-06
2.23374e-06
2.22396e-06
2.24181e-06
2.23426e-06
2.2403e-06
2.22781e-06
2.23842e-06
2.28279e-06
2.23073e-06
1.99479e-06
2.83149e-06
8.0317e-06
3.09892e-06
2.15823e-06
2.29582e-06
2.36601e-06
2.28919e-06
2.2741e-06
2.28144e-06
2.27541e-06
2.28049e-06
2.27913e-06
2.29537e-06
2.3738e-06
2.30309e-06
2.16026e-06
3.1007e-06
8.3233e-06
3.39002e-06
2.34118e-06
2.37479e-06
2.46618e-06
2.36e-06
2.3409e-06
2.33836e-06
2.33399e-06
2.338e-06
2.34702e-06
2.36761e-06
2.47549e-06
2.38345e-06
2.34329e-06
3.39202e-06
8.66387e-06
3.70307e-06
2.54295e-06
2.46371e-06
2.57888e-06
2.44818e-06
2.42662e-06
2.4152e-06
2.41259e-06
2.41541e-06
2.43375e-06
2.45712e-06
2.58959e-06
2.4737e-06
2.5451e-06
3.70521e-06
9.10799e-06
4.0372e-06
2.7645e-06
2.56563e-06
2.70673e-06
2.55623e-06
2.53361e-06
2.51414e-06
2.51344e-06
2.51493e-06
2.5417e-06
2.56643e-06
2.71865e-06
2.57687e-06
2.76664e-06
4.03937e-06
9.69513e-06
4.39003e-06
3.00529e-06
2.68436e-06
2.8531e-06
2.68804e-06
2.66577e-06
2.63889e-06
2.64029e-06
2.64027e-06
2.67477e-06
2.6994e-06
2.86602e-06
2.69673e-06
3.00735e-06
4.39207e-06
1.03853e-05
4.75626e-06
3.25715e-06
2.82435e-06
3.02222e-06
2.84859e-06
2.82851e-06
2.79509e-06
2.79881e-06
2.79707e-06
2.83831e-06
2.86098e-06
3.03595e-06
2.8377e-06
3.25896e-06
4.75792e-06
1.10094e-05
5.12678e-06
3.47767e-06
2.99131e-06
3.22003e-06
3.04378e-06
3.02828e-06
2.98998e-06
2.99615e-06
2.99254e-06
3.03868e-06
3.05695e-06
3.23443e-06
3.00545e-06
3.47873e-06
5.1278e-06
1.1149e-05
5.48137e-06
3.67445e-06
3.19216e-06
3.45524e-06
3.28021e-06
3.27204e-06
3.23115e-06
3.23982e-06
3.2342e-06
3.28279e-06
3.29389e-06
3.47041e-06
3.20693e-06
3.67526e-06
5.48103e-06
1.12138e-05
5.78908e-06
3.87645e-06
3.43432e-06
3.73764e-06
3.56332e-06
3.56531e-06
3.52438e-06
3.53558e-06
3.52783e-06
3.57615e-06
3.57728e-06
3.75357e-06
3.44976e-06
3.87699e-06
5.7884e-06
1.12545e-05
6.10006e-06
4.0836e-06
3.71694e-06
4.0596e-06
3.88956e-06
3.90465e-06
3.86724e-06
3.88112e-06
3.87095e-06
3.9151e-06
3.90337e-06
4.07625e-06
3.73306e-06
4.08382e-06
6.09898e-06
1.12777e-05
6.41439e-06
4.29587e-06
3.98357e-06
4.34842e-06
4.19704e-06
4.22681e-06
4.20864e-06
4.22277e-06
4.21182e-06
4.2354e-06
4.20924e-06
4.36723e-06
4.00061e-06
4.29577e-06
6.41281e-06
1.12896e-05
6.73288e-06
4.5133e-06
4.21561e-06
4.60051e-06
4.45878e-06
4.49676e-06
4.47983e-06
4.49575e-06
4.4831e-06
4.50507e-06
4.47063e-06
4.61873e-06
4.23245e-06
4.51285e-06
6.73067e-06
1.12963e-05
7.05625e-06
4.73592e-06
4.46529e-06
4.86675e-06
4.73986e-06
4.78605e-06
4.76932e-06
4.78744e-06
4.77268e-06
4.79406e-06
4.75136e-06
4.88405e-06
4.48165e-06
4.7351e-06
7.05326e-06
1.13037e-05
7.3844e-06
4.9637e-06
4.72921e-06
5.14355e-06
5.03617e-06
5.09079e-06
5.07632e-06
5.09617e-06
5.07966e-06
5.09837e-06
5.04716e-06
5.1597e-06
4.74485e-06
4.96251e-06
7.38039e-06
1.13177e-05
7.7168e-06
5.19656e-06
5.00363e-06
5.42733e-06
5.34266e-06
5.40547e-06
5.39477e-06
5.41591e-06
5.39801e-06
5.41257e-06
5.35305e-06
5.44217e-06
5.01832e-06
5.19499e-06
7.71207e-06
1.13437e-05
8.05056e-06
5.43426e-06
5.28485e-06
5.71463e-06
5.65517e-06
5.72559e-06
5.71938e-06
5.74147e-06
5.72248e-06
5.73221e-06
5.66496e-06
5.72808e-06
5.29843e-06
5.43232e-06
8.04535e-06
1.13865e-05
8.38398e-06
5.67638e-06
5.56935e-06
6.00229e-06
5.97092e-06
6.04885e-06
6.04746e-06
6.07035e-06
6.05042e-06
6.05505e-06
5.98008e-06
6.01438e-06
5.58173e-06
5.67407e-06
8.37844e-06
1.14511e-05
8.71615e-06
5.9223e-06
5.85374e-06
6.28927e-06
6.28805e-06
6.37405e-06
6.37889e-06
6.40238e-06
6.38167e-06
6.37981e-06
6.29654e-06
6.3001e-06
5.8649e-06
5.91966e-06
8.71036e-06
1.15427e-05
9.04652e-06
6.17218e-06
6.13644e-06
6.57507e-06
6.60527e-06
6.69922e-06
6.71123e-06
6.73504e-06
6.71377e-06
6.70451e-06
6.61305e-06
6.5847e-06
6.14643e-06
6.16921e-06
9.04055e-06
1.16643e-05
9.37471e-06
6.42691e-06
6.41681e-06
6.85754e-06
6.91997e-06
7.02157e-06
7.04139e-06
7.06529e-06
7.04369e-06
7.02641e-06
6.92705e-06
6.86605e-06
6.42571e-06
6.4236e-06
9.3686e-06
1.18171e-05
9.70043e-06
6.68651e-06
6.6929e-06
7.13455e-06
7.23003e-06
7.33883e-06
7.36691e-06
7.39067e-06
7.36895e-06
7.34323e-06
7.23643e-06
7.14204e-06
6.70078e-06
6.68289e-06
9.69424e-06
1.20013e-05
1.00236e-05
6.95028e-06
6.96237e-06
7.40399e-06
7.53363e-06
7.64904e-06
7.68578e-06
7.70913e-06
7.68755e-06
7.65305e-06
7.53942e-06
7.41058e-06
6.96933e-06
6.94639e-06
1.00174e-05
1.22158e-05
1.03447e-05
7.21749e-06
7.22626e-06
7.66625e-06
7.82907e-06
7.95036e-06
7.99627e-06
8.01889e-06
7.99779e-06
7.95406e-06
7.83432e-06
7.67204e-06
7.23232e-06
7.21335e-06
1.03384e-05
1.24591e-05
1.06638e-05
7.48738e-06
7.48602e-06
7.92303e-06
8.11482e-06
8.24108e-06
8.29683e-06
8.31828e-06
8.2981e-06
8.24456e-06
8.11965e-06
7.9281e-06
7.49124e-06
7.48304e-06
1.06575e-05
1.25711e-05
1.09807e-05
7.75926e-06
7.74221e-06
8.17509e-06
8.39073e-06
8.52261e-06
8.58602e-06
8.60712e-06
8.58711e-06
8.52579e-06
8.39511e-06
8.17954e-06
7.74665e-06
7.75476e-06
1.09743e-05
1.26797e-05
1.12943e-05
8.03247e-06
7.99492e-06
8.42269e-06
8.65852e-06
8.79609e-06
8.86586e-06
8.88699e-06
8.8668e-06
8.79895e-06
8.66246e-06
8.42659e-06
7.99866e-06
8.02785e-06
1.12879e-05
1.28971e-05
1.16038e-05
8.30635e-06
8.24411e-06
8.66583e-06
8.91888e-06
9.06185e-06
9.13711e-06
9.15844e-06
9.13793e-06
9.06442e-06
8.92243e-06
8.66927e-06
8.24722e-06
8.30166e-06
1.15973e-05
1.32805e-05
1.19081e-05
8.58027e-06
8.48959e-06
8.90439e-06
9.17205e-06
9.31991e-06
9.39994e-06
9.42152e-06
9.40067e-06
9.32222e-06
9.17526e-06
8.90745e-06
8.49217e-06
8.57556e-06
1.19016e-05
1.38182e-05
1.22063e-05
8.85364e-06
8.73107e-06
9.13812e-06
9.41795e-06
9.57005e-06
9.65423e-06
9.67606e-06
9.65488e-06
9.57215e-06
9.42088e-06
9.14087e-06
8.73319e-06
8.84896e-06
1.21998e-05
1.43105e-05
1.24971e-05
9.12584e-06
8.96814e-06
9.36652e-06
9.65614e-06
9.8118e-06
9.89956e-06
9.92162e-06
9.90013e-06
9.81372e-06
9.65884e-06
9.36901e-06
8.96989e-06
9.12126e-06
1.24907e-05
1.46415e-05
1.27794e-05
9.39627e-06
9.2005e-06
9.58902e-06
9.88595e-06
1.00444e-05
1.01351e-05
1.01574e-05
1.01356e-05
1.00461e-05
9.88845e-06
9.59132e-06
9.20197e-06
9.39188e-06
1.2773e-05
1.4965e-05
1.30515e-05
9.66435e-06
9.42815e-06
9.80532e-06
1.01068e-05
1.0267e-05
1.03597e-05
1.03823e-05
1.03601e-05
1.02686e-05
1.01092e-05
9.80752e-06
9.42948e-06
9.66021e-06
1.30453e-05
1.52751e-05
1.33121e-05
9.92946e-06
9.65155e-06
1.00155e-05
1.03186e-05
1.04793e-05
1.05725e-05
1.05957e-05
1.05729e-05
1.04809e-05
1.03209e-05
1.00177e-05
9.65289e-06
9.92566e-06
1.33059e-05
1.55666e-05
1.35592e-05
1.01909e-05
9.87156e-06
1.02202e-05
1.05216e-05
1.06813e-05
1.07733e-05
1.07968e-05
1.07736e-05
1.06828e-05
1.05239e-05
1.02226e-05
9.87315e-06
1.01876e-05
1.35532e-05
1.58351e-05
1.37909e-05
1.04481e-05
1.00889e-05
1.04203e-05
1.07163e-05
1.08733e-05
1.09624e-05
1.0986e-05
1.09627e-05
1.08748e-05
1.07187e-05
1.04229e-05
1.00909e-05
1.04453e-05
1.37851e-05
1.60766e-05
1.40051e-05
1.07001e-05
1.03042e-05
1.06166e-05
1.09031e-05
1.10551e-05
1.11402e-05
1.11636e-05
1.11406e-05
1.10567e-05
1.09057e-05
1.06196e-05
1.03065e-05
1.06978e-05
1.39994e-05
1.62881e-05
1.41995e-05
1.09458e-05
1.05176e-05
1.08099e-05
1.10817e-05
1.12269e-05
1.13072e-05
1.133e-05
1.13076e-05
1.12286e-05
1.10844e-05
1.08133e-05
1.05204e-05
1.09443e-05
1.4194e-05
1.64667e-05
1.43716e-05
1.1184e-05
1.07291e-05
1.1e-05
1.12522e-05
1.1389e-05
1.14637e-05
1.14856e-05
1.14642e-05
1.13909e-05
1.12552e-05
1.1004e-05
1.07324e-05
1.11833e-05
1.43665e-05
1.66103e-05
1.45192e-05
1.14133e-05
1.09378e-05
1.11858e-05
1.14149e-05
1.15416e-05
1.16096e-05
1.16304e-05
1.16103e-05
1.15436e-05
1.14183e-05
1.11904e-05
1.09418e-05
1.14134e-05
1.45143e-05
1.67168e-05
1.46397e-05
1.16321e-05
1.1142e-05
1.13655e-05
1.15699e-05
1.16846e-05
1.17451e-05
1.17643e-05
1.17458e-05
1.16869e-05
1.15737e-05
1.13706e-05
1.11468e-05
1.16331e-05
1.46351e-05
1.67844e-05
1.47309e-05
1.18389e-05
1.13398e-05
1.15383e-05
1.17169e-05
1.18179e-05
1.18699e-05
1.18873e-05
1.18708e-05
1.18206e-05
1.17212e-05
1.1544e-05
1.13454e-05
1.18407e-05
1.47267e-05
1.68114e-05
1.47908e-05
1.20314e-05
1.15299e-05
1.17037e-05
1.18557e-05
1.19415e-05
1.19839e-05
1.19991e-05
1.1985e-05
1.19445e-05
1.18605e-05
1.17102e-05
1.15365e-05
1.20343e-05
1.47869e-05
1.67953e-05
1.48174e-05
1.22064e-05
1.17113e-05
1.18611e-05
1.19857e-05
1.20548e-05
1.20868e-05
1.20996e-05
1.20881e-05
1.20581e-05
1.1991e-05
1.18683e-05
1.17189e-05
1.22104e-05
1.48141e-05
1.6732e-05
1.48095e-05
1.23626e-05
1.18826e-05
1.20094e-05
1.21061e-05
1.21574e-05
1.21782e-05
1.21883e-05
1.21797e-05
1.21611e-05
1.2112e-05
1.20173e-05
1.18912e-05
1.23678e-05
1.48067e-05
1.66179e-05
1.47661e-05
1.24987e-05
1.20421e-05
1.21474e-05
1.22161e-05
1.22486e-05
1.22577e-05
1.2265e-05
1.22595e-05
1.22527e-05
1.22225e-05
1.21561e-05
1.20518e-05
1.25052e-05
1.47639e-05
1.64525e-05
1.4686e-05
1.26137e-05
1.2188e-05
1.22737e-05
1.23145e-05
1.23279e-05
1.23249e-05
1.23291e-05
1.23268e-05
1.23324e-05
1.23215e-05
1.22832e-05
1.21987e-05
1.26214e-05
1.46845e-05
1.6238e-05
1.45694e-05
1.27067e-05
1.23184e-05
1.23868e-05
1.24004e-05
1.23944e-05
1.23792e-05
1.23803e-05
1.23814e-05
1.23993e-05
1.24078e-05
1.2397e-05
1.23302e-05
1.27157e-05
1.45687e-05
1.59784e-05
1.44208e-05
1.27759e-05
1.24308e-05
1.24849e-05
1.24726e-05
1.24476e-05
1.24203e-05
1.24183e-05
1.24227e-05
1.24528e-05
1.24805e-05
1.24958e-05
1.24435e-05
1.27862e-05
1.44209e-05
9.44743e-12
6.19635e-12
4.48058e-12
4.31717e-12
4.48043e-12
4.55281e-12
4.59239e-12
4.62099e-12
4.62695e-12
4.62639e-12
4.60481e-12
4.56995e-12
4.49848e-12
4.33278e-12
4.49502e-12
6.20955e-12
7.06866e-11
1.94416e-11
1.79867e-11
2.22137e-11
2.23839e-11
2.40671e-11
2.45742e-11
2.52152e-11
2.51733e-11
2.52119e-11
2.45673e-11
2.40688e-11
2.23715e-11
2.22039e-11
1.80251e-11
1.94432e-11
1.20919e-09
2.79055e-10
2.85378e-10
3.71149e-10
3.70851e-10
4.0246e-10
4.11503e-10
4.23465e-10
4.22493e-10
4.23305e-10
4.11149e-10
4.02195e-10
3.70293e-10
3.70683e-10
2.85898e-10
2.78875e-10
8.38131e-09
1.95301e-09
2.05098e-09
2.6654e-09
2.65527e-09
2.87857e-09
2.94091e-09
3.02492e-09
3.01759e-09
3.02369e-09
2.93819e-09
2.87642e-09
2.65102e-09
2.66184e-09
2.05461e-09
1.95168e-09
3.42101e-08
8.12698e-09
8.70483e-09
1.12964e-08
1.1225e-08
1.21545e-08
1.2408e-08
1.27554e-08
1.27233e-08
1.27498e-08
1.23958e-08
1.21444e-08
1.12061e-08
1.12805e-08
8.71968e-09
8.12126e-09
1.00381e-07
2.44377e-08
2.65537e-08
3.44999e-08
3.42054e-08
3.70132e-08
3.77616e-08
3.88017e-08
3.87013e-08
3.87835e-08
3.77212e-08
3.6978e-08
3.41438e-08
3.44478e-08
2.65964e-08
2.44193e-08
2.32978e-07
5.86827e-08
6.43135e-08
8.38731e-08
8.29896e-08
8.97948e-08
9.15664e-08
9.40563e-08
9.38083e-08
9.40074e-08
9.14579e-08
8.96949e-08
8.28266e-08
8.37353e-08
6.44083e-08
5.86338e-08
4.51468e-07
1.1872e-07
1.3053e-07
1.71204e-07
1.69067e-07
1.82927e-07
1.86462e-07
1.91476e-07
1.90966e-07
1.91365e-07
1.86215e-07
1.82688e-07
1.68703e-07
1.70896e-07
1.30701e-07
1.18609e-07
7.59924e-07
2.09065e-07
2.29601e-07
3.03164e-07
2.988e-07
3.23406e-07
3.29562e-07
3.38353e-07
3.37448e-07
3.38134e-07
3.29073e-07
3.22914e-07
2.98096e-07
3.02568e-07
2.29862e-07
2.08846e-07
1.14706e-06
3.2845e-07
3.59191e-07
4.77565e-07
4.69813e-07
5.08909e-07
5.1854e-07
5.32344e-07
5.30918e-07
5.31963e-07
5.17687e-07
5.08024e-07
4.6861e-07
4.76548e-07
3.59541e-07
3.28069e-07
1.59227e-06
4.70238e-07
5.11643e-07
6.84139e-07
6.71849e-07
7.28705e-07
7.42571e-07
7.62456e-07
7.6041e-07
7.61856e-07
7.41227e-07
7.27282e-07
6.69999e-07
6.82577e-07
5.12073e-07
4.69649e-07
2.07201e-06
6.25732e-07
6.77236e-07
9.08555e-07
8.90743e-07
9.67818e-07
9.86525e-07
1.01331e-06
1.01058e-06
1.01244e-06
9.84581e-07
9.6573e-07
8.88129e-07
9.06353e-07
6.77736e-07
6.24931e-07
2.56424e-06
7.8685e-07
8.46946e-07
1.13649e-06
1.11251e-06
1.21121e-06
1.23518e-06
1.26939e-06
1.26595e-06
1.26822e-06
1.23255e-06
1.20837e-06
1.1091e-06
1.13359e-06
8.47509e-07
7.85838e-07
3.05081e-06
9.47326e-07
1.0142e-06
1.3596e-06
1.32901e-06
1.44817e-06
1.4772e-06
1.51846e-06
1.51437e-06
1.51698e-06
1.47388e-06
1.44458e-06
1.32479e-06
1.35599e-06
1.01482e-06
9.46121e-07
3.51878e-06
1.09581e-06
1.1596e-06
1.57207e-06
1.53459e-06
1.67349e-06
1.70752e-06
1.75565e-06
1.75095e-06
1.75386e-06
1.7035e-06
1.66916e-06
1.52958e-06
1.56777e-06
1.16017e-06
1.09389e-06
3.95997e-06
1.21965e-06
1.2777e-06
1.77126e-06
1.72669e-06
1.88423e-06
1.92305e-06
1.97772e-06
1.97246e-06
1.97562e-06
1.91836e-06
1.87918e-06
1.72092e-06
1.7663e-06
1.27835e-06
1.21761e-06
4.37006e-06
1.33629e-06
1.38739e-06
1.95675e-06
1.90491e-06
2.07984e-06
2.12317e-06
2.18394e-06
2.17817e-06
2.18155e-06
2.11783e-06
2.07412e-06
1.89844e-06
1.95118e-06
1.38814e-06
1.3343e-06
4.74745e-06
1.45004e-06
1.49342e-06
2.12662e-06
2.05078e-06
2.26127e-06
2.30876e-06
2.37518e-06
2.36895e-06
2.37252e-06
2.30283e-06
2.25491e-06
2.0418e-06
2.11874e-06
1.49428e-06
1.44817e-06
5.09216e-06
1.56328e-06
1.59834e-06
2.23967e-06
2.15695e-06
2.40756e-06
2.46673e-06
2.55305e-06
2.5464e-06
2.55014e-06
2.45876e-06
2.3987e-06
2.14748e-06
2.23137e-06
1.59932e-06
1.56158e-06
5.40497e-06
1.6783e-06
1.70455e-06
2.34105e-06
2.25556e-06
2.51221e-06
2.57281e-06
2.66467e-06
2.65597e-06
2.66068e-06
2.56457e-06
2.50298e-06
2.24613e-06
2.33287e-06
1.70566e-06
1.67681e-06
5.68662e-06
1.79758e-06
1.81452e-06
2.4409e-06
2.35372e-06
2.60802e-06
2.66733e-06
2.75871e-06
2.7495e-06
2.75453e-06
2.65928e-06
2.59896e-06
2.34448e-06
2.43286e-06
1.81578e-06
1.79632e-06
5.93739e-06
1.92318e-06
1.93023e-06
2.54361e-06
2.45366e-06
2.70531e-06
2.76279e-06
2.85257e-06
2.84321e-06
2.84844e-06
2.755e-06
2.69649e-06
2.44451e-06
2.53569e-06
1.93163e-06
1.92218e-06
6.17583e-06
2.05433e-06
2.05049e-06
2.65028e-06
2.5567e-06
2.8068e-06
2.86253e-06
2.95093e-06
2.94144e-06
2.94688e-06
2.85496e-06
2.79818e-06
2.54757e-06
2.64244e-06
2.05203e-06
2.05368e-06
6.41428e-06
2.18448e-06
2.17525e-06
2.76145e-06
2.66348e-06
2.91324e-06
2.96742e-06
3.05488e-06
3.04521e-06
3.0509e-06
2.96002e-06
2.90476e-06
2.65432e-06
2.75364e-06
2.17697e-06
2.1842e-06
6.65317e-06
2.31868e-06
2.30847e-06
2.87805e-06
2.77493e-06
3.02536e-06
3.07811e-06
3.16501e-06
3.15509e-06
3.16106e-06
3.07085e-06
3.01696e-06
2.7657e-06
2.87024e-06
2.3104e-06
2.31882e-06
6.89283e-06
2.45861e-06
2.45227e-06
3.00176e-06
2.89254e-06
3.14469e-06
3.19606e-06
3.28256e-06
3.27236e-06
3.27863e-06
3.1889e-06
3.13631e-06
2.88318e-06
2.99389e-06
2.45444e-06
2.45924e-06
7.13345e-06
2.60534e-06
2.60811e-06
3.13492e-06
3.01838e-06
3.27329e-06
3.32325e-06
3.4093e-06
3.39882e-06
3.4054e-06
3.31615e-06
3.26489e-06
3.00882e-06
3.12695e-06
2.61053e-06
2.6065e-06
7.37518e-06
2.75992e-06
2.7769e-06
3.27919e-06
3.15421e-06
3.41145e-06
3.45953e-06
3.54463e-06
3.53391e-06
3.54075e-06
3.45254e-06
3.40307e-06
3.14441e-06
3.27108e-06
2.7796e-06
2.76166e-06
7.61812e-06
2.92336e-06
2.95904e-06
3.43299e-06
3.29942e-06
3.55406e-06
3.59881e-06
3.68125e-06
3.67046e-06
3.67743e-06
3.59213e-06
3.54593e-06
3.28946e-06
3.42485e-06
2.96204e-06
2.92572e-06
7.86215e-06
3.09647e-06
3.15456e-06
3.59159e-06
3.45058e-06
3.69236e-06
3.73126e-06
3.80793e-06
3.79738e-06
3.80427e-06
3.72528e-06
3.68491e-06
3.44072e-06
3.58372e-06
3.15786e-06
3.09948e-06
8.1068e-06
3.27987e-06
3.36325e-06
3.74985e-06
3.60331e-06
3.81882e-06
3.84893e-06
3.91604e-06
3.9061e-06
3.91268e-06
3.84407e-06
3.81257e-06
3.59394e-06
3.74263e-06
3.36687e-06
3.28353e-06
8.35002e-06
3.4739e-06
3.58473e-06
3.90432e-06
3.7543e-06
3.9299e-06
3.94852e-06
4.00257e-06
3.99356e-06
3.99965e-06
3.94513e-06
3.92531e-06
3.7459e-06
3.89818e-06
3.58865e-06
3.47822e-06
8.5856e-06
3.6786e-06
3.81816e-06
4.05393e-06
3.90223e-06
4.02637e-06
4.03161e-06
4.07003e-06
4.06225e-06
4.06768e-06
4.02995e-06
4.02379e-06
3.89524e-06
4.04927e-06
3.82235e-06
3.68353e-06
8.80358e-06
3.89358e-06
4.06211e-06
4.19989e-06
4.04781e-06
4.11361e-06
4.10518e-06
4.12675e-06
4.12043e-06
4.12509e-06
4.10529e-06
4.11318e-06
4.0426e-06
4.197e-06
4.06655e-06
3.89906e-06
8.99393e-06
4.11805e-06
4.31446e-06
4.34557e-06
4.19399e-06
4.20186e-06
4.18085e-06
4.18597e-06
4.18123e-06
4.18506e-06
4.18261e-06
4.20348e-06
4.19074e-06
4.34457e-06
4.31907e-06
4.12399e-06
9.15262e-06
4.35087e-06
4.57232e-06
4.49709e-06
4.34612e-06
4.3014e-06
4.26922e-06
4.25935e-06
4.25611e-06
4.25916e-06
4.27244e-06
4.30485e-06
4.34478e-06
4.49788e-06
4.57703e-06
4.35713e-06
9.27548e-06
4.59068e-06
4.83236e-06
4.66117e-06
4.51011e-06
4.41894e-06
4.37702e-06
4.35381e-06
4.35195e-06
4.3543e-06
4.38146e-06
4.42394e-06
4.51053e-06
4.66353e-06
4.83708e-06
4.59708e-06
9.35319e-06
4.83609e-06
5.09171e-06
4.8426e-06
4.69052e-06
4.55919e-06
4.50888e-06
4.47411e-06
4.47346e-06
4.47519e-06
4.51432e-06
4.56544e-06
4.69249e-06
4.84629e-06
5.09636e-06
4.84245e-06
9.37924e-06
5.0857e-06
5.34912e-06
5.04439e-06
4.89033e-06
4.7251e-06
4.66779e-06
4.62334e-06
4.6237e-06
4.62494e-06
4.67398e-06
4.73231e-06
4.89364e-06
5.04913e-06
5.35364e-06
5.09185e-06
9.35495e-06
5.33669e-06
5.60542e-06
5.2672e-06
5.11036e-06
4.91773e-06
4.85497e-06
4.80304e-06
4.80415e-06
4.80507e-06
4.86162e-06
4.92555e-06
5.11477e-06
5.27274e-06
5.6098e-06
5.34266e-06
9.2848e-06
5.58155e-06
5.8627e-06
5.50899e-06
5.3488e-06
5.13606e-06
5.06966e-06
5.01294e-06
5.01446e-06
5.01527e-06
5.07646e-06
5.14411e-06
5.35409e-06
5.51507e-06
5.86696e-06
5.58798e-06
9.17446e-06
5.78655e-06
6.123e-06
5.76555e-06
5.60223e-06
5.37765e-06
5.30966e-06
5.25115e-06
5.25268e-06
5.25366e-06
5.31629e-06
5.38555e-06
5.60818e-06
5.77193e-06
6.12717e-06
5.79553e-06
9.0301e-06
5.96511e-06
6.38695e-06
6.03254e-06
5.86778e-06
5.64021e-06
5.57272e-06
5.51531e-06
5.51641e-06
5.51789e-06
5.57892e-06
5.64762e-06
5.8742e-06
6.03901e-06
6.39106e-06
5.97437e-06
8.85798e-06
6.14001e-06
6.65312e-06
6.30736e-06
6.14477e-06
5.92257e-06
5.85743e-06
5.803e-06
5.80331e-06
5.80558e-06
5.86298e-06
5.92918e-06
6.15146e-06
6.31378e-06
6.65718e-06
6.14951e-06
8.66421e-06
6.31162e-06
6.91871e-06
6.58967e-06
6.43347e-06
6.22385e-06
6.16183e-06
6.10858e-06
6.10825e-06
6.11118e-06
6.16665e-06
6.22954e-06
6.44004e-06
6.59591e-06
6.92269e-06
6.32132e-06
8.45473e-06
6.48077e-06
7.18065e-06
6.88087e-06
6.73386e-06
6.54135e-06
6.47998e-06
6.41501e-06
6.41599e-06
6.41794e-06
6.4843e-06
6.54637e-06
6.7397e-06
6.88662e-06
7.18456e-06
6.49065e-06
8.23534e-06
6.64805e-06
7.43656e-06
7.18388e-06
7.04618e-06
6.8651e-06
6.79384e-06
6.67419e-06
6.68345e-06
6.67838e-06
6.79857e-06
6.87074e-06
7.05072e-06
7.18864e-06
7.44039e-06
6.65809e-06
8.01176e-06
6.81359e-06
7.68539e-06
7.50336e-06
7.37071e-06
7.15859e-06
7.04862e-06
6.92952e-06
6.93802e-06
6.93355e-06
7.05608e-06
7.16854e-06
7.37359e-06
7.50664e-06
7.68918e-06
6.82377e-06
7.78971e-06
6.97761e-06
7.9283e-06
7.84377e-06
7.70419e-06
7.4087e-06
7.29812e-06
7.18374e-06
7.19086e-06
7.18746e-06
7.30521e-06
7.41784e-06
7.70566e-06
7.84535e-06
7.93209e-06
6.9879e-06
7.57477e-06
7.14043e-06
8.16944e-06
8.20348e-06
8.02906e-06
7.65466e-06
7.54358e-06
7.43347e-06
7.43934e-06
7.43689e-06
7.55024e-06
7.66302e-06
8.03067e-06
8.20383e-06
8.17328e-06
7.1508e-06
7.37228e-06
7.30238e-06
8.41691e-06
8.5638e-06
8.28934e-06
7.89463e-06
7.78329e-06
7.67718e-06
7.68188e-06
7.6803e-06
7.78947e-06
7.90223e-06
8.29541e-06
8.56488e-06
8.42084e-06
7.31281e-06
7.18795e-06
7.46381e-06
8.68368e-06
8.86757e-06
8.50891e-06
8.12677e-06
8.01553e-06
7.91329e-06
7.91691e-06
7.91611e-06
8.02121e-06
8.13359e-06
8.51437e-06
8.87433e-06
8.68774e-06
7.47426e-06
7.02785e-06
7.625e-06
8.98601e-06
9.09282e-06
8.72492e-06
8.35026e-06
8.23872e-06
8.14023e-06
8.14292e-06
8.14276e-06
8.24385e-06
8.35644e-06
8.72986e-06
9.09917e-06
8.99021e-06
7.63544e-06
6.89771e-06
7.78624e-06
9.33887e-06
9.31296e-06
8.93617e-06
8.56591e-06
8.45346e-06
8.35739e-06
8.3594e-06
8.35968e-06
8.45812e-06
8.57158e-06
8.94073e-06
9.31904e-06
9.34328e-06
7.79663e-06
6.80268e-06
7.94777e-06
9.74523e-06
9.52677e-06
9.14117e-06
8.77497e-06
8.66121e-06
8.56605e-06
8.56774e-06
8.56815e-06
8.66543e-06
8.78021e-06
9.14548e-06
9.53271e-06
9.75012e-06
7.95808e-06
6.74613e-06
8.10978e-06
1.0176e-05
9.73435e-06
9.33981e-06
8.97778e-06
8.86101e-06
8.76775e-06
8.76839e-06
8.76967e-06
8.86499e-06
8.98278e-06
9.34399e-06
9.74024e-06
1.01821e-05
8.11997e-06
6.72814e-06
8.27235e-06
1.05168e-05
9.93581e-06
9.53215e-06
9.17297e-06
9.05225e-06
8.96085e-06
8.96021e-06
8.96263e-06
9.0561e-06
9.17787e-06
9.53631e-06
9.94173e-06
1.05259e-05
8.28237e-06
6.74776e-06
8.43561e-06
1.07095e-05
1.01315e-05
9.71854e-06
9.36051e-06
9.23533e-06
9.14538e-06
9.14344e-06
9.14705e-06
9.23914e-06
9.36541e-06
9.72276e-06
1.01375e-05
1.07188e-05
8.44544e-06
6.80325e-06
8.59983e-06
1.08973e-05
1.03218e-05
9.89949e-06
9.54101e-06
9.41113e-06
9.32209e-06
9.31893e-06
9.3237e-06
9.41494e-06
9.54597e-06
9.90386e-06
1.03279e-05
1.09069e-05
8.60944e-06
6.89274e-06
8.7654e-06
1.10793e-05
1.05072e-05
1.00756e-05
9.71533e-06
9.58068e-06
9.49206e-06
9.4878e-06
9.49365e-06
9.58454e-06
9.72042e-06
1.00802e-05
1.05136e-05
1.1089e-05
8.77477e-06
7.01519e-06
8.93288e-06
1.12547e-05
1.06883e-05
1.02476e-05
9.8846e-06
9.7452e-06
9.65658e-06
9.65131e-06
9.65819e-06
9.74917e-06
9.88987e-06
1.02525e-05
1.06949e-05
1.12646e-05
8.942e-06
7.17162e-06
9.10292e-06
1.14231e-05
1.08655e-05
1.04163e-05
1.00501e-05
9.90606e-06
9.81716e-06
9.81096e-06
9.81884e-06
9.9102e-06
1.00556e-05
1.04215e-05
1.08723e-05
1.14332e-05
9.11179e-06
7.36632e-06
9.27633e-06
1.15846e-05
1.10389e-05
1.05822e-05
1.02127e-05
1.00645e-05
9.97537e-06
9.96823e-06
9.97715e-06
1.00689e-05
1.02186e-05
1.05877e-05
1.10461e-05
1.15948e-05
9.28492e-06
7.60096e-06
9.45395e-06
1.17393e-05
1.12086e-05
1.07455e-05
1.03734e-05
1.02214e-05
1.01325e-05
1.01243e-05
1.01345e-05
1.0226e-05
1.03795e-05
1.07514e-05
1.1216e-05
1.17495e-05
9.46223e-06
7.85848e-06
9.63665e-06
1.18875e-05
1.13741e-05
1.09061e-05
1.05322e-05
1.03773e-05
1.02894e-05
1.02803e-05
1.02915e-05
1.03821e-05
1.05387e-05
1.09124e-05
1.13816e-05
1.18977e-05
9.6446e-06
8.12517e-06
9.8255e-06
1.20298e-05
1.15353e-05
1.1064e-05
1.06895e-05
1.05325e-05
1.04463e-05
1.04364e-05
1.04485e-05
1.05376e-05
1.06963e-05
1.10707e-05
1.1543e-05
1.20399e-05
9.8331e-06
8.40368e-06
1.00215e-05
1.21666e-05
1.16921e-05
1.12189e-05
1.08455e-05
1.06878e-05
1.06035e-05
1.05932e-05
1.06059e-05
1.06932e-05
1.08527e-05
1.12259e-05
1.17e-05
1.21765e-05
1.00287e-05
8.6959e-06
1.02257e-05
1.22986e-05
1.18443e-05
1.13707e-05
1.10013e-05
1.08437e-05
1.07616e-05
1.0751e-05
1.07641e-05
1.08495e-05
1.10089e-05
1.1378e-05
1.18525e-05
1.2308e-05
1.02325e-05
9.00309e-06
1.04387e-05
1.24265e-05
1.19917e-05
1.15194e-05
1.11569e-05
1.10006e-05
1.09209e-05
1.09102e-05
1.09236e-05
1.10066e-05
1.11648e-05
1.15271e-05
1.20001e-05
1.24352e-05
1.0445e-05
9.3259e-06
1.06611e-05
1.25504e-05
1.21341e-05
1.16657e-05
1.13121e-05
1.11584e-05
1.10817e-05
1.1071e-05
1.10846e-05
1.11648e-05
1.13205e-05
1.16737e-05
1.21427e-05
1.25585e-05
1.06669e-05
9.66438e-06
1.0893e-05
1.26697e-05
1.22718e-05
1.18102e-05
1.14669e-05
1.13171e-05
1.12441e-05
1.12337e-05
1.12472e-05
1.13238e-05
1.14755e-05
1.18186e-05
1.22805e-05
1.26772e-05
1.08982e-05
1.00178e-05
1.11339e-05
1.27838e-05
1.24049e-05
1.19523e-05
1.16207e-05
1.14764e-05
1.1408e-05
1.1398e-05
1.14112e-05
1.14833e-05
1.16296e-05
1.1961e-05
1.24137e-05
1.27907e-05
1.11384e-05
1.03848e-05
1.13829e-05
1.28924e-05
1.25321e-05
1.20907e-05
1.17729e-05
1.16358e-05
1.15728e-05
1.15635e-05
1.15762e-05
1.16429e-05
1.1782e-05
1.20996e-05
1.25407e-05
1.28985e-05
1.13867e-05
1.07627e-05
1.16384e-05
1.29962e-05
1.26512e-05
1.22241e-05
1.19224e-05
1.17941e-05
1.17376e-05
1.17292e-05
1.17411e-05
1.18015e-05
1.19317e-05
1.2233e-05
1.26595e-05
1.30015e-05
1.16413e-05