-0.0075 	0 	0 	0
-0.0075 	-1.27781e-34 	6.28833e-37 	-7.79417e-33
-0.00745622 	-0.000167943 	8.26475e-07 	-0.0102439
-0.00745622 	-0.000167943 	8.26475e-07 	-0.0102439
-0.00741165 	-0.00034679 	1.69692e-06 	-0.0199892
-0.00741165 	-0.00034679 	1.69692e-06 	-0.0199892
-0.00736628 	-0.000530875 	2.24606e-06 	-0.0296506
-0.00736628 	-0.000530875 	2.24606e-06 	-0.0296506
-0.0073201 	-0.000712084 	3.4522e-06 	-0.039402
-0.0073201 	-0.000712084 	3.4522e-06 	-0.039402
-0.00727309 	-0.000887555 	5.28193e-06 	-0.0491763
-0.00727309 	-0.000887555 	5.28193e-06 	-0.0491763
-0.00722524 	-0.00105628 	7.83086e-06 	-0.0588415
-0.00722524 	-0.00105628 	7.83086e-06 	-0.0588415
-0.00717653 	-0.00121666 	1.10489e-05 	-0.0682971
-0.00717653 	-0.00121666 	1.10489e-05 	-0.0682971
-0.00712695 	-0.00136699 	1.49526e-05 	-0.0774651
-0.00712695 	-0.00136699 	1.49526e-05 	-0.0774651
-0.00707647 	-0.0015057 	1.94399e-05 	-0.0862808
-0.00707647 	-0.0015057 	1.94399e-05 	-0.0862808
-0.0070251 	-0.00163145 	2.44897e-05 	-0.0946943
-0.0070251 	-0.00163145 	2.44897e-05 	-0.0946943
-0.0069728 	-0.0017433 	3.02392e-05 	-0.102676
-0.0069728 	-0.0017433 	3.02392e-05 	-0.102676
-0.00691956 	-0.00184092 	3.66735e-05 	-0.110222
-0.00691956 	-0.00184092 	3.66735e-05 	-0.110222
-0.00686537 	-0.00192453 	4.39246e-05 	-0.117352
-0.00686537 	-0.00192453 	4.39246e-05 	-0.117352
-0.00681021 	-0.00199474 	5.19822e-05 	-0.124098
-0.00681021 	-0.00199474 	5.19822e-05 	-0.124098
-0.00675406 	-0.00205226 	6.07446e-05 	-0.130483
-0.00675406 	-0.00205226 	6.07446e-05 	-0.130483
-0.0066969 	-0.00209772 	7.02799e-05 	-0.136531
-0.0066969 	-0.00209772 	7.02799e-05 	-0.136531
-0.00663871 	-0.00213178 	8.05541e-05 	-0.142264
-0.00663871 	-0.00213178 	8.05541e-05 	-0.142264
-0.00657949 	-0.00215521 	9.15632e-05 	-0.147703
-0.00657949 	-0.00215521 	9.15632e-05 	-0.147703
-0.0065192 	-0.00216894 	0.000103274 	-0.152866
-0.0065192 	-0.00216894 	0.000103274 	-0.152866
-0.00645783 	-0.00217397 	0.000115458 	-0.157768
-0.00645783 	-0.00217397 	0.000115458 	-0.157768
-0.00639535 	-0.00217099 	0.000127728 	-0.162425
-0.00639535 	-0.00217099 	0.000127728 	-0.162425
-0.00633176 	-0.00215987 	0.000139817 	-0.166851
-0.00633176 	-0.00215987 	0.000139817 	-0.166851
-0.00626703 	-0.00213957 	0.00015209 	-0.171055
-0.00626703 	-0.00213957 	0.00015209 	-0.171055
-0.00620114 	-0.0021089 	0.000165149 	-0.175044
-0.00620114 	-0.0021089 	0.000165149 	-0.175044
-0.00613406 	-0.00206749 	0.000178983 	-0.178828
-0.00613406 	-0.00206749 	0.000178983 	-0.178828
-0.00606579 	-0.00201625 	0.000193075 	-0.182424
-0.00606579 	-0.00201625 	0.000193075 	-0.182424
-0.00599629 	-0.00195689 	0.000206892 	-0.185858
-0.00599629 	-0.00195689 	0.000206892 	-0.185858
-0.00592554 	-0.00189122 	0.000220265 	-0.189157
-0.00592554 	-0.00189122 	0.000220265 	-0.189157
-0.00585352 	-0.00182048 	0.000232306 	-0.192338
-0.00585352 	-0.00182048 	0.000232306 	-0.192338
-0.00578022 	-0.00174491 	0.000243591 	-0.195417
-0.00578022 	-0.00174491 	0.000243591 	-0.195417
-0.00570559 	-0.00166565 	0.000258112 	-0.19841
-0.00570559 	-0.00166565 	0.000258112 	-0.19841
-0.00562963 	-0.00158748 	0.000274655 	-0.20135
-0.00562963 	-0.00158748 	0.000274655 	-0.20135
-0.00555231 	-0.00151544 	0.000283328 	-0.204297
-0.00555231 	-0.00151544 	0.000283328 	-0.204297
-0.0054736 	-0.00144871 	0.00027864 	-0.207298
-0.0054736 	-0.00144871 	0.00027864 	-0.207298
-0.00539348 	-0.00137709 	0.000274454 	-0.210296
-0.00539348 	-0.00137709 	0.000274454 	-0.210296
-0.00531193 	-0.00128711 	0.000289549 	-0.213132
-0.00531193 	-0.00128711 	0.000289549 	-0.213132
-0.00522891 	-0.00117712 	0.000315382 	-0.215727
-0.00522891 	-0.00117712 	0.000315382 	-0.215727
-0.0051444 	-0.00105695 	0.00033047 	-0.218145
-0.0051444 	-0.00105695 	0.00033047 	-0.218145
-0.00505838 	-0.000935055 	0.000331576 	-0.22047
-0.00505838 	-0.000935055 	0.000331576 	-0.22047
-0.00497081 	-0.000813199 	0.000329648 	-0.222724
-0.00497081 	-0.000813199 	0.000329648 	-0.222724
-0.00488168 	-0.000689207 	0.000331764 	-0.2249
-0.00488168 	-0.000689207 	0.000331764 	-0.2249
-0.00479094 	-0.000561674 	0.000335283 	-0.226998
-0.00479094 	-0.000561674 	0.000335283 	-0.226998
-0.00469858 	-0.000429916 	0.000337455 	-0.229023
-0.00469858 	-0.000429916 	0.000337455 	-0.229023
-0.00460456 	-0.00029283 	0.000338504 	-0.230983
-0.00460456 	-0.00029283 	0.000338504 	-0.230983
-0.00450886 	-0.000149941 	0.000338447 	-0.232882
-0.00450886 	-0.000149941 	0.000338447 	-0.232882
-0.00441144 	-2.01308e-06 	0.000337007 	-0.234722
-0.00441144 	-2.01308e-06 	0.000337007 	-0.234722
-0.00431227 	0.000149395 	0.000334063 	-0.236505
-0.00431227 	0.000149395 	0.000334063 	-0.236505
-0.00421133 	0.000302876 	0.000329835 	-0.238236
-0.00421133 	0.000302876 	0.000329835 	-0.238236
-0.00410857 	0.000458206 	0.000324429 	-0.239914
-0.00410857 	0.000458206 	0.000324429 	-0.239914
-0.00400397 	0.000616126 	0.000317394 	-0.24154
-0.00400397 	0.000616126 	0.000317394 	-0.24154
-0.0038975 	0.000777039 	0.000308405 	-0.243114
-0.0038975 	0.000777039 	0.000308405 	-0.243114
-0.00378912 	0.000940104 	0.00029808 	-0.244636
-0.00378912 	0.000940104 	0.00029808 	-0.244636
-0.00367879 	0.00110363 	0.000287515 	-0.246102
-0.00367879 	0.00110363 	0.000287515 	-0.246102
-0.00356649 	0.00126656 	0.000277308 	-0.247513
-0.00356649 	0.00126656 	0.000277308 	-0.247513
-0.00345217 	0.00142936 	0.000267464 	-0.248865
-0.00345217 	0.00142936 	0.000267464 	-0.248865
-0.0033358 	0.00159353 	0.000258042 	-0.250155
-0.0033358 	0.00159353 	0.000258042 	-0.250155
-0.00321735 	0.00176067 	0.000249362 	-0.251377
-0.00321735 	0.00176067 	0.000249362 	-0.251377
-0.00309677 	0.00193215 	0.000241599 	-0.252524
-0.00309677 	0.00193215 	0.000241599 	-0.252524
-0.00297403 	0.00210943 	0.000234585 	-0.253588
-0.00297403 	0.00210943 	0.000234585 	-0.253588
-0.00284909 	0.00229387 	0.000228083 	-0.254561
-0.00284909 	0.00229387 	0.000228083 	-0.254561
-0.0027219 	0.00248608 	0.000222019 	-0.255438
-0.0027219 	0.00248608 	0.000222019 	-0.255438
-0.00259244 	0.00268481 	0.000216451 	-0.256215
-0.00259244 	0.00268481 	0.000216451 	-0.256215
-0.00246065 	0.00288538 	0.000211536 	-0.256892
-0.00246065 	0.00288538 	0.000211536 	-0.256892
-0.00232651 	0.00307987 	0.000207454 	-0.257478
-0.00232651 	0.00307987 	0.000207454 	-0.257478
-0.00218995 	0.00326136 	0.000204217 	-0.257989
-0.00218995 	0.00326136 	0.000204217 	-0.257989
-0.00205095 	0.0034277 	0.000201801 	-0.258443
-0.00205095 	0.0034277 	0.000201801 	-0.258443
-0.00190946 	0.00358015 	0.00020031 	-0.258857
-0.00190946 	0.00358015 	0.00020031 	-0.258857
-0.00176543 	0.00372056 	0.000199909 	-0.259233
-0.00176543 	0.00372056 	0.000199909 	-0.259233
-0.00161881 	0.00385022 	0.000200697 	-0.259569
-0.00161881 	0.00385022 	0.000200697 	-0.259569
-0.00146957 	0.00396948 	0.00020272 	-0.259854
-0.00146957 	0.00396948 	0.00020272 	-0.259854
-0.00131765 	0.00407783 	0.000205966 	-0.260075
-0.00131765 	0.00407783 	0.000205966 	-0.260075
-0.001163 	0.00417398 	0.000210398 	-0.260223
-0.001163 	0.00417398 	0.000210398 	-0.260223
-0.00100559 	0.00425624 	0.000216013 	-0.260294
-0.00100559 	0.00425624 	0.000216013 	-0.260294
-0.000845345 	0.00432297 	0.000221105 	-0.260293
-0.000845345 	0.00432297 	0.000221105 	-0.260293
-0.000682232 	0.00437337 	0.000226744 	-0.260234
-0.000682232 	0.00437337 	0.000226744 	-0.260234
-0.000516194 	0.00440814 	0.000234702 	-0.260134
-0.000516194 	0.00440814 	0.000234702 	-0.260134
-0.000347178 	0.00442983 	0.000242672 	-0.260004
-0.000347178 	0.00442983 	0.000242672 	-0.260004
-0.000175132 	0.00444183 	0.000254916 	-0.259835
-0.000175132 	0.00444183 	0.000254916 	-0.259835
0 	0.00444856 	0.000268279 	-0.259602
0 	0.00444856 	0.000268279 	-0.259602
0 	0.00444856 	0.000268279 	-0.259602
0 	0.00444856 	0.000268279 	-0.259602
0.000175132 	0.00445376 	0.000276575 	-0.259278
0.000175132 	0.00792528 	0.013829 	-0.243598
0.000347178 	0.00445805 	0.000283562 	-0.25886
0.000347178 	0.00877874 	0.0139419 	-0.24124
0.000516194 	0.00446086 	0.000285807 	-0.25835
0.000516194 	0.00959608 	0.013984 	-0.238758
0.000682232 	0.00446016 	0.000284688 	-0.257743
0.000682232 	0.0103743 	0.013991 	-0.236181
0.000845345 	0.00445129 	0.000284017 	-0.257041
0.000845345 	0.0111076 	0.0139782 	-0.233527
0.00100559 	0.00442874 	0.000281359 	-0.256251
0.00100559 	0.01179 	0.0139405 	-0.230823
0.001163 	0.00438782 	0.000276752 	-0.255385
0.001163 	0.0124165 	0.0138785 	-0.228102
0.00131765 	0.00432546 	0.000270672 	-0.254455
0.00131765 	0.012983 	0.0137966 	-0.225385
0.00146957 	0.00424023 	0.000263448 	-0.253468
0.00146957 	0.0134851 	0.0136981 	-0.222687
0.00161881 	0.00413209 	0.000255274 	-0.252428
0.00161881 	0.0139187 	0.0135839 	-0.220018
0.00176543 	0.0040019 	0.000246365 	-0.251338
0.00176543 	0.0142795 	0.013454 	-0.217398
0.00190946 	0.00385106 	0.000236888 	-0.250203
0.00190946 	0.0145637 	0.0133093 	-0.214866
0.00205095 	0.00368144 	0.000226766 	-0.249026
0.00205095 	0.0147685 	0.0131504 	-0.212459
0.00218995 	0.00349522 	0.000215803 	-0.24781
0.00218995 	0.0148937 	0.0129767 	-0.210183
0.00232651 	0.00329475 	0.00020413 	-0.246556
0.00232651 	0.0149424 	0.0127892 	-0.208015
0.00246065 	0.00308226 	0.000191892 	-0.245267
0.00246065 	0.0149204 	0.0125893 	-0.205917
0.00259244 	0.00285959 	0.000179197 	-0.243944
0.00259244 	0.0148346 	0.0123783 	-0.203855
0.0027219 	0.00262827 	0.000163873 	-0.242588
0.0027219 	0.0146924 	0.0121404 	-0.201812
0.00284909 	0.00239051 	0.000150206 	-0.2412
0.00284909 	0.0145042 	0.0119034 	-0.199779
0.00297403 	0.00214772 	0.000159554 	-0.239783
0.00297403 	0.0142711 	0.0118168 	-0.197778
0.00309677 	0.00189436 	0.000195008 	-0.238354
0.00309677 	0.0139508 	0.0118689 	-0.195939
0.00321735 	0.00162006 	0.000194799 	-0.236923
0.00321735 	0.0134829 	0.0116757 	-0.194354
0.0033358 	0.00132969 	7.58291e-05 	-0.23542
0.0033358 	0.0129202 	0.0108358 	-0.192518
0.00345217 	0.00106177 	-8.33761e-05 	-0.233677
0.00345217 	0.0125303 	0.0098509 	-0.189104
0.00356649 	0.000843463 	-5.98852e-05 	-0.231643
0.00356649 	0.0124962 	0.00986242 	-0.183674
0.00367879 	0.000631291 	0.000144044 	-0.229534
0.00367879 	0.012569 	0.0104298 	-0.178332
0.00378912 	0.0124374 	0.0104373 	-0.174836
0.00378912 	0.00036891 	0.000288007 	-0.227404
0.0038975 	5.22829e-05 	0.000211731 	-0.225149
0.0038975 	0.0119997 	0.00989133 	-0.172829
0.00400397 	-0.000273558 	5.25101e-05 	-0.222971
0.00400397 	0.0113415 	0.00938986 	-0.171539
0.00410857 	-0.000570747 	-2.4604e-06 	-0.221054
0.00410857 	0.0106471 	0.00925774 	-0.170398
0.00421133 	-0.000846802 	2.933e-05 	-0.219317
0.00421133 	0.00996938 	0.00914197 	-0.169178
0.00431227 	-0.00111321 	6.7679e-05 	-0.217647
0.00431227 	0.00928787 	0.00888178 	-0.167896
0.00441144 	-0.00136982 	6.35976e-05 	-0.215979
0.00441144 	0.00860654 	0.00863175 	-0.1666
0.00450886 	-0.00161582 	5.03042e-05 	-0.214288
0.00450886 	0.00793468 	0.00842587 	-0.165314
0.00460456 	-0.00185143 	4.97284e-05 	-0.212569
0.00460456 	0.00727472 	0.00822407 	-0.164037
0.00469858 	-0.00207687 	4.73396e-05 	-0.210815
0.00469858 	0.00662746 	0.00801253 	-0.162765
0.00479094 	-0.00229208 	4.31966e-05 	-0.209022
0.00479094 	0.00599466 	0.00780253 	-0.161493
0.00488168 	-0.00249701 	3.87795e-05 	-0.207186
0.00488168 	0.00537762 	0.00759291 	-0.160219
0.00497081 	-0.00269165 	3.47433e-05 	-0.205302
0.00497081 	0.00477659 	0.00738337 	-0.158933
0.00505838 	-0.00287605 	3.08545e-05 	-0.203366
0.00505838 	0.00419066 	0.00717528 	-0.157639
0.0051444 	-0.00305034 	2.70078e-05 	-0.201373
0.0051444 	0.00361864 	0.00696946 	-0.156366
0.00522891 	-0.00321472 	2.33154e-05 	-0.199319
0.00522891 	0.00306054 	0.00676539 	-0.155152
0.00531193 	0.00251699 	0.00656112 	-0.154004
0.00531193 	-0.00336948 	1.99668e-05 	-0.197199
0.00539348 	-0.00351505 	1.69862e-05 	-0.195007
0.00539348 	0.00198679 	0.00635577 	-0.152867
0.0054736 	-0.00365195 	1.42561e-05 	-0.192735
0.0054736 	0.00146599 	0.0061506 	-0.151666
0.00555231 	-0.00378069 	1.16161e-05 	-0.190373
0.00555231 	0.000949223 	0.00594606 	-0.150362
0.00562963 	-0.00390165 	9.01568e-06 	-0.187912
0.00562963 	0.000432575 	0.00574202 	-0.148965
0.00570559 	-0.00401503 	6.50212e-06 	-0.185341
0.00570559 	-8.51761e-05 	0.00553794 	-0.147489
0.00578022 	-0.00412087 	4.05547e-06 	-0.182647
0.00578022 	-0.000604632 	0.00533282 	-0.145942
0.00585352 	-0.00421902 	1.65936e-06 	-0.179815
0.00585352 	-0.00112703 	0.00512713 	-0.144321
0.00592554 	-0.00430907 	-8.97166e-07 	-0.176827
0.00592554 	-0.00165345 	0.00492142 	-0.142616
0.00599629 	-0.00439061 	-3.66036e-06 	-0.173664
0.00599629 	-0.00218432 	0.00471533 	-0.140812
0.00606579 	-0.00271937 	0.00450886 	-0.138894
0.00606579 	-0.00446331 	-6.10006e-06 	-0.170308
0.00613406 	-0.00452673 	-7.83537e-06 	-0.166741
0.00613406 	-0.00325758 	0.00430216 	-0.136845
0.00620114 	-0.00458007 	-8.78131e-06 	-0.162938
0.00620114 	-0.00379673 	0.00409483 	-0.134638
0.00626703 	-0.00462195 	-9.28503e-06 	-0.158875
0.00626703 	-0.00433311 	0.00388653 	-0.132244
0.00633176 	-0.00465042 	-9.77249e-06 	-0.154525
0.00633176 	-0.00486123 	0.00367728 	-0.129627
0.00639535 	-0.00466317 	-1.00286e-05 	-0.149865
0.00639535 	-0.00537366 	0.00346749 	-0.126753
0.00645783 	-0.00465767 	-9.91608e-06 	-0.144869
0.00645783 	-0.00586098 	0.00325771 	-0.123584
0.0065192 	-0.00463119 	-9.46969e-06 	-0.139515
0.0065192 	-0.00631199 	0.00304803 	-0.120085
0.00657949 	-0.00458092 	-8.86593e-06 	-0.133783
0.00657949 	-0.00671377 	0.00283858 	-0.116217
0.00663871 	-0.00450432 	-8.37849e-06 	-0.127654
0.00663871 	-0.00705157 	0.00262942 	-0.111938
0.0066969 	-0.00439925 	-7.72278e-06 	-0.121118
0.0066969 	-0.00730911 	0.0024205 	-0.107213
0.00675406 	-0.00426332 	-6.51982e-06 	-0.114169
0.00675406 	-0.00746934 	0.0022123 	-0.102027
0.00681021 	-0.00409395 	-4.70468e-06 	-0.106804
0.00681021 	-0.00751577 	0.00200598 	-0.0963845
0.00686537 	-0.00388934 	-2.70528e-06 	-0.0990497
0.00686537 	-0.00743429 	0.00180271 	-0.0903117
0.00691956 	-0.00364913 	-1.01315e-06 	-0.0909607
0.00691956 	-0.00721586 	0.00160358 	-0.0838515
0.0069728 	-0.00337519 	4.71112e-07 	-0.0826232
0.0069728 	-0.0068588 	0.00141025 	-0.0770608
0.0070251 	-0.00307208 	1.75461e-06 	-0.0741472
0.0070251 	-0.00637018 	0.0012247 	-0.0700041
0.00707647 	-0.00274668 	2.62047e-06 	-0.0656536
0.00707647 	-0.00576643 	0.00104867 	-0.0627473
0.00712695 	-0.00240757 	2.99933e-06 	-0.0572581
0.00712695 	-0.00507266 	0.00088357 	-0.055355
0.00717653 	-0.00206425 	2.9406e-06 	-0.0490541
0.00717653 	-0.00432188 	0.000730506 	-0.0478908
0.00722524 	-0.00172687 	2.5544e-06 	-0.0411072
0.00722524 	-0.00355626 	0.000587807 	-0.0404229
0.00727309 	-0.0014072 	1.96823e-06 	-0.0334609
0.00727309 	-0.00283395 	0.000458003 	-0.0330349
0.0073201 	-0.00112154 	1.29258e-06 	-0.0261522
0.0073201 	-0.00224526 	0.000352237 	-0.0258453
0.00736628 	-0.000896066 	4.87356e-07 	-0.0192187
0.00736628 	-0.00194239 	0.000209368 	-0.0190263
0.00741165 	-0.000703727 	1.31393e-08 	-0.0126488
0.00741165 	-0.0018248 	0.000135314 	-0.0126625
0.00745622 	-0.000426064 	-1.03312e-07 	-0.00631411
0.00745622 	-0.00130369 	6.47545e-05 	-0.00647785
0.0075 	0 	0 	0
0.0075 	0 	0 	0
