0 	0 	0 	0
0 	0 	0 	0
0.00752508 	0.00444931 	0.000269467 	-0.259555
0.00752508 	0.00444931 	0.000269467 	-0.259555
0.00757525 	0.0044508 	0.000271843 	-0.259463
0.00762542 	0.00445229 	0.00027422 	-0.25937
0.00762542 	0.00445229 	0.00027422 	-0.25937
0.00767559 	0.00445377 	0.000276593 	-0.259277
0.00772575 	0.00445502 	0.000278631 	-0.259155
0.00777592 	0.00445627 	0.000280668 	-0.259033
0.00782609 	0.00445753 	0.000282705 	-0.258911
0.00782609 	0.00445753 	0.000282705 	-0.258911
0.00787625 	0.00445853 	0.000283948 	-0.258772
0.00792642 	0.00445937 	0.000284614 	-0.258621
0.00797659 	0.0044602 	0.000285281 	-0.258469
0.00802676 	0.00446082 	0.000285736 	-0.258311
0.00802676 	0.00446082 	0.000285736 	-0.258311
0.00807692 	0.00446061 	0.000285398 	-0.258128
0.00812709 	0.0044604 	0.00028506 	-0.257945
0.00812709 	0.0044604 	0.00028506 	-0.257945
0.00817726 	0.00446019 	0.000284722 	-0.257762
0.00822742 	0.00445771 	0.000284502 	-0.257549
0.00822742 	0.00445771 	0.000284502 	-0.257549
0.00827759 	0.00445498 	0.000284296 	-0.257333
0.00832776 	0.00445225 	0.000284089 	-0.257117
0.00832776 	0.00445225 	0.000284089 	-0.257117
0.00837793 	0.00444671 	0.000283476 	-0.25688
0.00842809 	0.00443965 	0.000282644 	-0.256633
0.00842809 	0.00443965 	0.000282644 	-0.256633
0.00847826 	0.00443259 	0.000281812 	-0.256386
0.00847826 	0.00443259 	0.000281812 	-0.256386
0.00852843 	0.0044228 	0.00028069 	-0.256125
0.00852843 	0.0044228 	0.00028069 	-0.256125
0.0085786 	0.00440976 	0.000279222 	-0.255849
0.0085786 	0.00440976 	0.000279222 	-0.255849
0.00862876 	0.00439672 	0.000277754 	-0.255573
0.00867893 	0.0043814 	0.000276125 	-0.255289
0.00867893 	0.0043814 	0.000276125 	-0.255289
0.0087291 	0.00436117 	0.000274153 	-0.254987
0.00877926 	0.00434094 	0.000272181 	-0.254686
0.00877926 	0.00434094 	0.000272181 	-0.254686
0.00882943 	0.00431884 	0.000270111 	-0.254378
0.0088796 	0.0042907 	0.000267726 	-0.254052
0.0088796 	0.0042907 	0.000267726 	-0.254052
0.00897993 	0.00423272 	0.00026288 	-0.253395
0.00897993 	0.00423272 	0.00026288 	-0.253395
0.0090301 	0.00419637 	0.000260133 	-0.253046
0.00908027 	0.00416002 	0.000257385 	-0.252696
0.00908027 	0.00416002 	0.000257385 	-0.252696
0.00913043 	0.00412177 	0.000254568 	-0.252341
0.0091806 	0.00407722 	0.000251519 	-0.251968
0.0091806 	0.00407722 	0.000251519 	-0.251968
0.00923077 	0.00403267 	0.000248471 	-0.251596
0.00928094 	0.00398565 	0.000245344 	-0.251216
0.00928094 	0.00398565 	0.000245344 	-0.251216
0.0093311 	0.00393311 	0.000242043 	-0.250821
0.00938127 	0.00388058 	0.000238743 	-0.250425
0.00938127 	0.00388058 	0.000238743 	-0.250425
0.00943144 	0.00382471 	0.000235316 	-0.25002
0.00943144 	0.00382471 	0.000235316 	-0.25002
0.00948161 	0.00376457 	0.000231727 	-0.249603
0.00948161 	0.00376457 	0.000231727 	-0.249603
0.00953177 	0.00370443 	0.000228138 	-0.249186
0.00953177 	0.00370443 	0.000228138 	-0.249186
0.00958194 	0.00363992 	0.000224322 	-0.248755
0.00958194 	0.00363992 	0.000224322 	-0.248755
0.00963211 	0.00357271 	0.000220366 	-0.248316
0.00963211 	0.00357271 	0.000220366 	-0.248316
0.00968227 	0.0035055 	0.000216409 	-0.247877
0.00968227 	0.0035055 	0.000216409 	-0.247877
0.00973244 	0.00343284 	0.000212171 	-0.24742
0.00978261 	0.00335919 	0.000207883 	-0.246959
0.00983278 	0.00328482 	0.000203558 	-0.246496
0.00988294 	0.00320536 	0.000198981 	-0.246014
0.00988294 	0.00320536 	0.000198981 	-0.246014
0.00993311 	0.00312589 	0.000194405 	-0.245532
0.00998328 	0.00304404 	0.000189712 	-0.24504
0.00998328 	0.00304404 	0.000189712 	-0.24504
0.0100334 	0.00295927 	0.00018488 	-0.244536
0.0100334 	0.00295927 	0.00018488 	-0.244536
0.0100836 	0.0028745 	0.000180047 	-0.244033
0.0101338 	0.00278572 	0.000174304 	-0.243511
0.0101338 	0.00278572 	0.000174304 	-0.243511
0.0102341 	0.00260544 	0.000162561 	-0.242455
0.0102341 	0.00260544 	0.000162561 	-0.242455
0.0102843 	0.00251166 	0.00015717 	-0.241907
0.0103344 	0.00241788 	0.000151779 	-0.241359
0.0103344 	0.00241788 	0.000151779 	-0.241359
0.0103846 	0.00232147 	0.000152864 	-0.240797
0.0103846 	0.00232147 	0.000152864 	-0.240797
0.0104348 	0.00222398 	0.000156618 	-0.240228
0.0104849 	0.00212517 	0.000162709 	-0.239656
0.0104849 	0.00212517 	0.000162709 	-0.239656
0.0105351 	0.00202162 	0.0001772 	-0.239072
0.0105853 	0.00191806 	0.000191691 	-0.238487
0.0105853 	0.00191806 	0.000191691 	-0.238487
0.0106355 	0.00180636 	0.000194941 	-0.237895
0.0106856 	0.00169224 	0.000194854 	-0.237299
0.0106856 	0.00169224 	0.000194854 	-0.237299
0.0107358 	0.00157486 	0.00017628 	-0.236689
0.0107358 	0.00157486 	0.00017628 	-0.236689
0.010786 	0.00145188 	0.000125895 	-0.236053
0.010786 	0.00145188 	0.000125895 	-0.236053
0.0108361 	0.00132895 	7.53938e-05 	-0.235415
0.0108361 	0.00132895 	7.53938e-05 	-0.235415
0.0108863 	0.00121345 	6.75919e-06 	-0.234664
0.0109365 	0.00109796 	-6.18754e-05 	-0.233913
0.0109365 	0.00109796 	-6.18754e-05 	-0.233913
0.0109866 	0.000995982 	-7.62967e-05 	-0.233064
0.0109866 	0.000995982 	-7.62967e-05 	-0.233064
0.0110368 	0.000900179 	-6.5988e-05 	-0.232171
0.011087 	0.000804794 	-2.27182e-05 	-0.231258
0.011087 	0.000804794 	-2.27182e-05 	-0.231258
0.0111371 	0.000710015 	6.83785e-05 	-0.230316
0.0111873 	0.000611081 	0.000155133 	-0.22937
0.0111873 	0.000611081 	0.000155133 	-0.22937
0.0112375 	0.000491771 	0.000220596 	-0.228401
0.0112876 	0.000372462 	0.000286058 	-0.227433
0.0112876 	0.000372462 	0.000286058 	-0.227433
0.0113378 	0.000226715 	0.000253752 	-0.226391
0.011388 	8.01573e-05 	0.000218446 	-0.225347
0.011388 	8.01573e-05 	0.000218446 	-0.225347
0.0114883 	-0.000225571 	7.59585e-05 	-0.223292
0.0114883 	-0.000225571 	7.59585e-05 	-0.223292
0.0115385 	-0.000371544 	3.43857e-05 	-0.222339
0.0115886 	-0.000514083 	8.02071e-06 	-0.22142
0.0115886 	-0.000514083 	8.02071e-06 	-0.22142
0.0116388 	-0.000651944 	6.89026e-06 	-0.220543
0.011689 	-0.00078672 	2.2411e-05 	-0.219695
0.011689 	-0.00078672 	2.2411e-05 	-0.219695
0.0117391 	-0.000920179 	3.98925e-05 	-0.218857
0.0117893 	-0.00105258 	5.8951e-05 	-0.218027
0.0117893 	-0.00105258 	5.8951e-05 	-0.218027
0.0118395 	-0.00118358 	6.65598e-05 	-0.21719
0.0118896 	-0.00131339 	6.44951e-05 	-0.216346
0.0118896 	-0.00131339 	6.44951e-05 	-0.216346
0.0119398 	-0.00144143 	5.97276e-05 	-0.215487
0.0119398 	-0.00144143 	5.97276e-05 	-0.215487
0.01199 	-0.00156811 	5.28821e-05 	-0.214616
0.01199 	-0.00156811 	5.28821e-05 	-0.214616
0.0120401 	-0.00169281 	5.0116e-05 	-0.213726
0.0120401 	-0.00169281 	5.0116e-05 	-0.213726
0.0120903 	-0.00181632 	4.98142e-05 	-0.212825
0.0120903 	-0.00181632 	4.98142e-05 	-0.212825
0.0121405 	-0.00193753 	4.88161e-05 	-0.211899
0.0121405 	-0.00193753 	4.88161e-05 	-0.211899
0.0121906 	-0.00205782 	4.75414e-05 	-0.210963
0.0121906 	-0.00205782 	4.75414e-05 	-0.210963
0.0122408 	-0.00217525 	4.54456e-05 	-0.209996
0.0122408 	-0.00217525 	4.54456e-05 	-0.209996
0.012291 	-0.00229215 	4.31952e-05 	-0.209022
0.012291 	-0.00229215 	4.31952e-05 	-0.209022
0.0123411 	-0.00240545 	4.0753e-05 	-0.208007
0.0123411 	-0.00240545 	4.0753e-05 	-0.208007
0.0123913 	-0.00251804 	3.83435e-05 	-0.206983
0.0123913 	-0.00251804 	3.83435e-05 	-0.206983
0.0124415 	-0.00262758 	3.60719e-05 	-0.205922
0.0124916 	-0.00273551 	3.38184e-05 	-0.204842
0.0124916 	-0.00273551 	3.38184e-05 	-0.204842
0.012592 	-0.00294412 	2.93522e-05 	-0.202588
0.012592 	-0.00294412 	2.93522e-05 	-0.202588
0.0126421 	-0.00304576 	2.71089e-05 	-0.201426
0.0126923 	-0.00314353 	2.49146e-05 	-0.200209
0.0126923 	-0.00314353 	2.49146e-05 	-0.200209
0.0127425 	-0.00324001 	2.27682e-05 	-0.198973
0.0127425 	-0.00324001 	2.27682e-05 	-0.198973
0.0127926 	-0.00333353 	2.07447e-05 	-0.197692
0.0128428 	-0.0034246 	1.88382e-05 	-0.196369
0.0128428 	-0.0034246 	1.88382e-05 	-0.196369
0.012893 	-0.00351414 	1.70047e-05 	-0.195021
0.0129431 	-0.0035999 	1.5294e-05 	-0.193598
0.0129431 	-0.0035999 	1.5294e-05 	-0.193598
0.0129933 	-0.00368419 	1.35951e-05 	-0.192143
0.0130435 	-0.00376624 	1.19124e-05 	-0.190638
0.0130435 	-0.00376624 	1.19124e-05 	-0.190638
0.0130936 	-0.00384535 	1.0226e-05 	-0.189057
0.0131438 	-0.00392282 	8.54652e-06 	-0.187432
0.0131438 	-0.00392282 	8.54652e-06 	-0.187432
0.013194 	-0.0039977 	6.88646e-06 	-0.185734
0.0132441 	-0.00406971 	5.23809e-06 	-0.183949
0.0132441 	-0.00406971 	5.23809e-06 	-0.183949
0.0132943 	-0.00413975 	3.59467e-06 	-0.182102
0.0133445 	-0.00420691 	1.95491e-06 	-0.180165
0.0133445 	-0.00420691 	1.95491e-06 	-0.180165
0.0133946 	-0.00427044 	1.99448e-07 	-0.178109
0.0134448 	-0.00433129 	-1.65004e-06 	-0.175965
0.0134448 	-0.00433129 	-1.65004e-06 	-0.175965
0.013495 	-0.00438911 	-3.60943e-06 	-0.173722
0.0135452 	-0.00444173 	-5.37561e-06 	-0.171305
0.0135452 	-0.00444173 	-5.37561e-06 	-0.171305
0.0136455 	-0.00453581 	-7.99643e-06 	-0.166093
0.0136455 	-0.00453581 	-7.99643e-06 	-0.166093
0.0136957 	-0.0045757 	-8.70393e-06 	-0.163249
0.0137458 	-0.00460847 	-9.12288e-06 	-0.160183
0.0137458 	-0.00460847 	-9.12288e-06 	-0.160183
0.013796 	-0.00463469 	-9.50308e-06 	-0.156929
0.0138462 	-0.00465331 	-9.83044e-06 	-0.153471
0.0138462 	-0.00465331 	-9.83044e-06 	-0.153471
0.0138963 	-0.00466309 	-1.00268e-05 	-0.149788
0.0138963 	-0.00466309 	-1.00268e-05 	-0.149788
0.0139465 	-0.00465867 	-9.93649e-06 	-0.145776
0.0139967 	-0.00464091 	-9.63364e-06 	-0.141482
0.0139967 	-0.00464091 	-9.63364e-06 	-0.141482
0.0140468 	-0.00460815 	-9.19302e-06 	-0.136889
0.0140468 	-0.00460815 	-9.19302e-06 	-0.136889
0.014097 	-0.00455828 	-8.72187e-06 	-0.131972
0.0141472 	-0.00448907 	-8.28332e-06 	-0.126706
0.0141973 	-0.00439823 	-7.71378e-06 	-0.121066
0.0141973 	-0.00439823 	-7.71378e-06 	-0.121066
0.0142475 	-0.00427893 	-6.65797e-06 	-0.114967
0.0142977 	-0.0041318 	-5.11033e-06 	-0.10845
0.0143478 	-0.00395442 	-3.34119e-06 	-0.101516
0.0143478 	-0.00395442 	-3.34119e-06 	-0.101516
0.014398 	-0.00374473 	-1.68664e-06 	-0.0941802
0.014398 	-0.00374473 	-1.68664e-06 	-0.0941802
0.0144482 	-0.00350197 	-2.15813e-07 	-0.0864819
0.0144983 	-0.00322723 	1.09764e-06 	-0.0784857
0.0144983 	-0.00322723 	1.09764e-06 	-0.0784857
0.0145485 	-0.00292389 	2.14893e-06 	-0.0702792
0.0145987 	-0.00259761 	2.78701e-06 	-0.061963
0.0145987 	-0.00259761 	2.78701e-06 	-0.061963
0.0146488 	-0.00225606 	2.97341e-06 	-0.0536375
0.014699 	-0.00190864 	2.76248e-06 	-0.0453888
0.014699 	-0.00190864 	2.76248e-06 	-0.0453888
0.0147492 	-0.00156705 	2.26135e-06 	-0.0372845
0.0147993 	-0.00124776 	1.59111e-06 	-0.0293814
0.0147993 	-0.00124776 	1.59111e-06 	-0.0293814
0.0148495 	-0.000978012 	7.80001e-07 	-0.0217386
0.0148495 	-0.000978012 	7.80001e-07 	-0.0217386
0.0148997 	-0.000754533 	1.38401e-07 	-0.0143842
0.0148997 	-0.000754533 	1.38401e-07 	-0.0143842
0.0149498 	-0.000465839 	-8.66303e-08 	-0.00722154
0.0149498 	-0.000465839 	-8.66303e-08 	-0.00722154
0.015 	0 	0 	0
