0 	0 	0 	0
5.01672e-05 	-2.17589e-05 	-4.44061e-06 	0.0203379
0.000100334 	-4.35178e-05 	-8.88122e-06 	0.0406758
0.000150502 	-6.52768e-05 	-1.33218e-05 	0.0610137
0.000200669 	-8.70357e-05 	-1.77624e-05 	0.0813516
0.000250836 	-0.000108795 	-2.22031e-05 	0.101689
0.000301003 	-0.000130554 	-2.66437e-05 	0.122027
0.000351171 	-0.000150333 	-3.17905e-05 	0.140259
0.000401338 	-0.000162628 	-3.96079e-05 	0.150525
0.000451505 	-0.000174923 	-4.74252e-05 	0.160792
0.000501672 	-0.000187218 	-5.52426e-05 	0.171058
0.000551839 	-0.000199513 	-6.306e-05 	0.181324
0.000602007 	-0.000211808 	-7.08774e-05 	0.191591
0.000652174 	-0.000224102 	-7.86948e-05 	0.201857
0.000702341 	-0.000236397 	-8.65121e-05 	0.212123
0.000752508 	-0.000245965 	-9.45577e-05 	0.220958
0.000802676 	-0.000248771 	-0.000103169 	0.226245
0.000852843 	-0.000251578 	-0.000111781 	0.231531
0.00090301 	-0.000254384 	-0.000120392 	0.236817
0.000953177 	-0.00025719 	-0.000129004 	0.242103
0.00100334 	-0.000259996 	-0.000137615 	0.247389
0.00105351 	-0.000262802 	-0.000146227 	0.252676
0.00110368 	-0.000265609 	-0.000154838 	0.257962
0.00115385 	-0.000268415 	-0.00016345 	0.263248
0.00120401 	-0.000271024 	-0.00017202 	0.268429
0.00125418 	-0.000269591 	-0.000179756 	0.271442
0.00130435 	-0.000268158 	-0.000187492 	0.274456
0.00135452 	-0.000266726 	-0.000195228 	0.277469
0.00140468 	-0.000265293 	-0.000202963 	0.280483
0.00145485 	-0.00026386 	-0.000210699 	0.283496
0.00150502 	-0.000262427 	-0.000218435 	0.28651
0.00155518 	-0.000260995 	-0.000226171 	0.289524
0.00160535 	-0.000259562 	-0.000233907 	0.292537
0.00165552 	-0.000258129 	-0.000241642 	0.295551
0.00170569 	-0.000256696 	-0.000249378 	0.298564
0.00175585 	-0.000255011 	-0.000256716 	0.301289
0.00180602 	-0.00025263 	-0.000262957 	0.303219
0.00185619 	-0.00025025 	-0.000269199 	0.305149
0.00190635 	-0.000247869 	-0.000275441 	0.30708
0.00195652 	-0.000245489 	-0.000281683 	0.30901
0.00200669 	-0.000243108 	-0.000287925 	0.31094
0.00205686 	-0.000240728 	-0.000294167 	0.31287
0.00210702 	-0.000238347 	-0.000300409 	0.3148
0.00215719 	-0.000235967 	-0.000306651 	0.316731
0.00220736 	-0.000233586 	-0.000312892 	0.318661
0.00225753 	-0.000231205 	-0.000319134 	0.320591
0.00230769 	-0.000228825 	-0.000325376 	0.322521
0.00235786 	-0.000226444 	-0.000331618 	0.324451
0.00240803 	-0.000224299 	-0.000336709 	0.325949
0.00245819 	-0.000222258 	-0.000341286 	0.327253
0.00250836 	-0.000220217 	-0.000345863 	0.328558
0.00255853 	-0.000218177 	-0.000350441 	0.329862
0.0026087 	-0.000216136 	-0.000355018 	0.331167
0.00265886 	-0.000214095 	-0.000359596 	0.332472
0.00270903 	-0.000212054 	-0.000364173 	0.333776
0.0027592 	-0.000210014 	-0.00036875 	0.335081
0.00280936 	-0.000207973 	-0.000373328 	0.336385
0.00285953 	-0.000205932 	-0.000377905 	0.33769
0.0029097 	-0.000203891 	-0.000382482 	0.338994
0.00295987 	-0.000201851 	-0.00038706 	0.340299
0.00301003 	-0.00019981 	-0.000391637 	0.341603
0.0030602 	-0.000197769 	-0.000396214 	0.342908
0.00311037 	-0.000195742 	-0.000400762 	0.344203
0.00316054 	-0.000194312 	-0.000404003 	0.345079
0.0032107 	-0.000192882 	-0.000407244 	0.345956
0.00326087 	-0.000191452 	-0.000410485 	0.346832
0.00331104 	-0.000190022 	-0.000413725 	0.347709
0.0033612 	-0.000188592 	-0.000416966 	0.348585
0.00341137 	-0.000187162 	-0.000420207 	0.349462
0.00346154 	-0.000185732 	-0.000423448 	0.350338
0.00351171 	-0.000184303 	-0.000426689 	0.351215
0.00356187 	-0.000182873 	-0.00042993 	0.352091
0.00361204 	-0.000181443 	-0.000433171 	0.352968
0.00366221 	-0.000180013 	-0.000436412 	0.353844
0.00371237 	-0.000178583 	-0.000439653 	0.354721
0.00376254 	-0.000177153 	-0.000442894 	0.355597
0.00381271 	-0.000175723 	-0.000446135 	0.356474
0.00386288 	-0.000174293 	-0.000449376 	0.35735
0.00391304 	-0.000172863 	-0.000452617 	0.358227
0.00396321 	-0.000171433 	-0.000455858 	0.359103
0.00401338 	-0.000170402 	-0.000458257 	0.359682
0.00406355 	-0.000169411 	-0.000460573 	0.360232
0.00411371 	-0.000168419 	-0.000462889 	0.360782
0.00416388 	-0.000167427 	-0.000465205 	0.361332
0.00421405 	-0.000166436 	-0.000467521 	0.361881
0.00426421 	-0.000165444 	-0.000469838 	0.362431
0.00431438 	-0.000164452 	-0.000472154 	0.362981
0.00436455 	-0.000163461 	-0.00047447 	0.363531
0.00441472 	-0.000162469 	-0.000476786 	0.364081
0.00446488 	-0.000161477 	-0.000479102 	0.36463
0.00451505 	-0.000160486 	-0.000481419 	0.36518
0.00456522 	-0.000159494 	-0.000483735 	0.36573
0.00461538 	-0.000158502 	-0.000486051 	0.36628
0.00466555 	-0.000157511 	-0.000488367 	0.36683
0.00471572 	-0.000156519 	-0.000490683 	0.367379
0.00476589 	-0.000155527 	-0.000492999 	0.367929
0.00481605 	-0.000154536 	-0.000495316 	0.368479
0.00486622 	-0.000153544 	-0.000497632 	0.369029
0.00491639 	-0.000152552 	-0.000499948 	0.369578
0.00496656 	-0.000151561 	-0.000502264 	0.370128
0.00501672 	-0.000150774 	-0.000503864 	0.370429
0.00506689 	-0.000149998 	-0.000505425 	0.370716
0.00511706 	-0.000149222 	-0.000506986 	0.371004
0.00516722 	-0.000148447 	-0.000508547 	0.371291
0.00521739 	-0.000147671 	-0.000510108 	0.371578
0.00526756 	-0.000146895 	-0.000511669 	0.371866
0.00531773 	-0.000146119 	-0.00051323 	0.372153
0.00536789 	-0.000145344 	-0.000514791 	0.37244
0.00541806 	-0.000144568 	-0.000516352 	0.372728
0.00546823 	-0.000143792 	-0.000517913 	0.373015
0.00551839 	-0.000143016 	-0.000519474 	0.373302
0.00556856 	-0.000142241 	-0.000521035 	0.37359
0.00561873 	-0.000141465 	-0.000522596 	0.373877
0.0056689 	-0.000140689 	-0.000524157 	0.374164
0.00571906 	-0.000139913 	-0.000525718 	0.374452
0.00576923 	-0.000139138 	-0.000527279 	0.374739
0.0058194 	-0.000138362 	-0.00052884 	0.375026
0.00586957 	-0.000137586 	-0.000530401 	0.375314
0.00591973 	-0.00013681 	-0.000531962 	0.375601
0.0059699 	-0.000136035 	-0.000533523 	0.375888
0.00602007 	-0.000135259 	-0.000535084 	0.376176
0.00607023 	-0.000134483 	-0.000536645 	0.376463
0.0061204 	-0.000133707 	-0.000538206 	0.37675
0.00617057 	-0.000133029 	-0.000539253 	0.376891
0.00622074 	-0.000132399 	-0.000540039 	0.376959
0.0062709 	-0.000131769 	-0.000540825 	0.377026
0.00632107 	-0.000131139 	-0.000541612 	0.377093
0.00637124 	-0.000130509 	-0.000542398 	0.37716
0.0064214 	-0.00012988 	-0.000543184 	0.377227
0.00647157 	-0.00012925 	-0.000543971 	0.377294
0.00652174 	-0.00012862 	-0.000544757 	0.377361
0.00657191 	-0.00012799 	-0.000545543 	0.377428
0.00662207 	-0.00012736 	-0.000546329 	0.377495
0.00667224 	-0.000126731 	-0.000547116 	0.377562
0.00672241 	-0.000126101 	-0.000547902 	0.377629
0.00677258 	-0.000125471 	-0.000548688 	0.377696
0.00682274 	-0.000124841 	-0.000549475 	0.377763
0.00687291 	-0.000124212 	-0.000550261 	0.37783
0.00692308 	-0.000123582 	-0.000551047 	0.377897
0.00697324 	-0.000122952 	-0.000551834 	0.377964
0.00702341 	-0.000122322 	-0.00055262 	0.378032
0.00707358 	-0.000121692 	-0.000553406 	0.378099
0.00712375 	-0.000121063 	-0.000554193 	0.378166
0.00717391 	-0.000120433 	-0.000554979 	0.378233
0.00722408 	-0.000119803 	-0.000555765 	0.3783
0.00727425 	-0.000119173 	-0.000556551 	0.378367
0.00732441 	-0.000118543 	-0.000557338 	0.378434
0.00737458 	-0.000117914 	-0.000558124 	0.378501
0.00742475 	-0.000117284 	-0.00055891 	0.378568
0.00747492 	-0.000116654 	-0.000559697 	0.378635
0.00752508 	-0.000116082 	-0.000560099 	0.378603
0.00757525 	-0.000115567 	-0.000560117 	0.378472
0.00762542 	-0.000115052 	-0.000560135 	0.378341
0.00767559 	-0.000114536 	-0.000560153 	0.37821
0.00772575 	-0.000114021 	-0.000560172 	0.378079
0.00777592 	-0.000113506 	-0.00056019 	0.377947
0.00782609 	-0.000112991 	-0.000560208 	0.377816
0.00787625 	-0.000112476 	-0.000560226 	0.377685
0.00792642 	-0.000111961 	-0.000560244 	0.377554
0.00797659 	-0.000111446 	-0.000560263 	0.377423
0.00802676 	-0.000110931 	-0.000560281 	0.377292
0.00807692 	-0.000110416 	-0.000560299 	0.377161
0.00812709 	-0.000109901 	-0.000560317 	0.37703
0.00817726 	-0.000109386 	-0.000560335 	0.376899
0.00822742 	-0.000108871 	-0.000560354 	0.376767
0.00827759 	-0.000108356 	-0.000560372 	0.376636
0.00832776 	-0.000107841 	-0.00056039 	0.376505
0.00837793 	-0.000107325 	-0.000560408 	0.376374
0.00842809 	-0.00010681 	-0.000560426 	0.376243
0.00847826 	-0.000106295 	-0.000560445 	0.376112
0.00852843 	-0.00010578 	-0.000560463 	0.375981
0.0085786 	-0.000105265 	-0.000560481 	0.37585
0.00862876 	-0.00010475 	-0.000560499 	0.375719
0.00867893 	-0.000104235 	-0.000560517 	0.375587
0.0087291 	-0.00010372 	-0.000560536 	0.375456
0.00877926 	-0.000103205 	-0.000560554 	0.375325
0.00882943 	-0.00010269 	-0.000560572 	0.375194
0.0088796 	-0.000102228 	-0.000560274 	0.374982
0.00892977 	-0.000101872 	-0.000559353 	0.374611
0.00897993 	-0.000101516 	-0.000558432 	0.37424
0.0090301 	-0.00010116 	-0.000557511 	0.37387
0.00908027 	-0.000100804 	-0.000556591 	0.373499
0.00913043 	-0.000100448 	-0.00055567 	0.373128
0.0091806 	-0.000100092 	-0.000554749 	0.372757
0.00923077 	-9.97365e-05 	-0.000553828 	0.372386
0.00928094 	-9.93806e-05 	-0.000552907 	0.372015
0.0093311 	-9.90246e-05 	-0.000551986 	0.371644
0.00938127 	-9.86687e-05 	-0.000551065 	0.371273
0.00943144 	-9.83127e-05 	-0.000550145 	0.370902
0.00948161 	-9.79567e-05 	-0.000549224 	0.370531
0.00953177 	-9.76008e-05 	-0.000548303 	0.370161
0.00958194 	-9.72448e-05 	-0.000547382 	0.36979
0.00963211 	-9.68889e-05 	-0.000546461 	0.369419
0.00968227 	-9.65329e-05 	-0.00054554 	0.369048
0.00973244 	-9.61769e-05 	-0.000544619 	0.368677
0.00978261 	-9.5821e-05 	-0.000543699 	0.368306
0.00983278 	-9.5465e-05 	-0.000542778 	0.367935
0.00988294 	-9.51091e-05 	-0.000541857 	0.367564
0.00993311 	-9.47531e-05 	-0.000540936 	0.367193
0.00998328 	-9.43971e-05 	-0.000540015 	0.366822
0.0100334 	-9.40586e-05 	-0.000539038 	0.366437
0.0100836 	-9.40455e-05 	-0.000537017 	0.365783
0.0101338 	-9.40324e-05 	-0.000534995 	0.365128
0.0101839 	-9.40193e-05 	-0.000532973 	0.364474
0.0102341 	-9.40061e-05 	-0.000530952 	0.36382
0.0102843 	-9.3993e-05 	-0.00052893 	0.363165
0.0103344 	-9.39799e-05 	-0.000526909 	0.362511
0.0103846 	-9.39668e-05 	-0.000524887 	0.361857
0.0104348 	-9.39537e-05 	-0.000522865 	0.361202
0.0104849 	-9.39405e-05 	-0.000520844 	0.360548
0.0105351 	-9.39274e-05 	-0.000518822 	0.359894
0.0105853 	-9.39143e-05 	-0.0005168 	0.359239
0.0106355 	-9.39012e-05 	-0.000514779 	0.358585
0.0106856 	-9.3888e-05 	-0.000512757 	0.35793
0.0107358 	-9.38749e-05 	-0.000510736 	0.357276
0.010786 	-9.38618e-05 	-0.000508714 	0.356622
0.0108361 	-9.38487e-05 	-0.000506692 	0.355967
0.0108863 	-9.38356e-05 	-0.000504671 	0.355313
0.0109365 	-9.38224e-05 	-0.000502649 	0.354659
0.0109866 	-9.38093e-05 	-0.000500627 	0.354004
0.0110368 	-9.3851e-05 	-0.000498463 	0.353317
0.011087 	-9.44517e-05 	-0.000494849 	0.352296
0.0111371 	-9.50524e-05 	-0.000491234 	0.351275
0.0111873 	-9.56531e-05 	-0.000487619 	0.350253
0.0112375 	-9.62538e-05 	-0.000484004 	0.349232
0.0112876 	-9.68545e-05 	-0.000480389 	0.348211
0.0113378 	-9.74552e-05 	-0.000476775 	0.347189
0.011388 	-9.80559e-05 	-0.00047316 	0.346168
0.0114381 	-9.86566e-05 	-0.000469545 	0.345147
0.0114883 	-9.92573e-05 	-0.00046593 	0.344125
0.0115385 	-9.9858e-05 	-0.000462315 	0.343104
0.0115886 	-0.000100459 	-0.000458701 	0.342083
0.0116388 	-0.000101059 	-0.000455086 	0.341062
0.011689 	-0.00010166 	-0.000451471 	0.34004
0.0117391 	-0.000102261 	-0.000447856 	0.339019
0.0117893 	-0.000102862 	-0.000444241 	0.337998
0.0118395 	-0.000103462 	-0.000440626 	0.336976
0.0118896 	-0.000104063 	-0.000437012 	0.335955
0.0119398 	-0.000105532 	-0.00043091 	0.334397
0.01199 	-0.00010702 	-0.00042475 	0.332827
0.0120401 	-0.000108509 	-0.000418591 	0.331256
0.0120903 	-0.000109998 	-0.000412431 	0.329686
0.0121405 	-0.000111487 	-0.000406272 	0.328116
0.0121906 	-0.000112976 	-0.000400112 	0.326545
0.0122408 	-0.000114464 	-0.000393953 	0.324975
0.012291 	-0.000115953 	-0.000387793 	0.323404
0.0123411 	-0.000117442 	-0.000381634 	0.321834
0.0123913 	-0.000118931 	-0.000375474 	0.320264
0.0124415 	-0.000120419 	-0.000369315 	0.318693
0.0124916 	-0.000121908 	-0.000363155 	0.317123
0.0125418 	-0.000123397 	-0.000356996 	0.315553
0.012592 	-0.000124886 	-0.000350836 	0.313982
0.0126421 	-0.000126624 	-0.000343715 	0.312128
0.0126923 	-0.000128923 	-0.000334435 	0.309637
0.0127425 	-0.000131221 	-0.000325155 	0.307146
0.0127926 	-0.000133519 	-0.000315876 	0.304655
0.0128428 	-0.000135818 	-0.000306596 	0.302164
0.012893 	-0.000138116 	-0.000297317 	0.299673
0.0129431 	-0.000140414 	-0.000288037 	0.297183
0.0129933 	-0.000142713 	-0.000278758 	0.294692
0.0130435 	-0.000145011 	-0.000269478 	0.292201
0.0130936 	-0.000147309 	-0.000260199 	0.28971
0.0131438 	-0.000149608 	-0.000250919 	0.287219
0.013194 	-0.000151906 	-0.00024164 	0.284728
0.0132441 	-0.000154204 	-0.00023236 	0.282237
0.0132943 	-0.000156201 	-0.000221488 	0.278534
0.0133445 	-0.000158089 	-0.000210037 	0.27439
0.0133946 	-0.000159977 	-0.000198585 	0.270246
0.0134448 	-0.000161865 	-0.000187134 	0.266102
0.013495 	-0.000163753 	-0.000175682 	0.261958
0.0135452 	-0.00016564 	-0.000164231 	0.257814
0.0135953 	-0.000167528 	-0.00015278 	0.25367
0.0136455 	-0.000169416 	-0.000141328 	0.249526
0.0136957 	-0.000171304 	-0.000129877 	0.245382
0.0137458 	-0.000173192 	-0.000118425 	0.241238
0.013796 	-0.000175079 	-0.000106974 	0.237093
0.0138462 	-0.000173087 	-9.71337e-05 	0.229656
0.0138963 	-0.000170905 	-8.73719e-05 	0.222058
0.0139465 	-0.000168723 	-7.76101e-05 	0.21446
0.0139967 	-0.000166542 	-6.78483e-05 	0.206862
0.0140468 	-0.00016436 	-5.80865e-05 	0.199264
0.014097 	-0.000162178 	-4.83248e-05 	0.191665
0.0141472 	-0.000159997 	-3.8563e-05 	0.184067
0.0141973 	-0.000157815 	-2.88012e-05 	0.176469
0.0142475 	-0.000155634 	-1.90394e-05 	0.168871
0.0142977 	-0.000148228 	-1.39175e-05 	0.158326
0.0143478 	-0.000138715 	-1.06669e-05 	0.146592
0.014398 	-0.000129201 	-7.41626e-06 	0.134858
0.0144482 	-0.000119688 	-4.16564e-06 	0.123124
0.0144983 	-0.000110175 	-9.15021e-07 	0.111391
0.0145485 	-0.000100662 	2.3356e-06 	0.0996568
0.0145987 	-9.11493e-05 	5.58622e-06 	0.087923
0.0146488 	-8.16363e-05 	8.83684e-06 	0.0761891
0.014699 	-7.03711e-05 	8.40835e-06 	0.065148
0.0147492 	-5.86426e-05 	7.00696e-06 	0.05429
0.0147993 	-4.69141e-05 	5.60557e-06 	0.043432
0.0148495 	-3.51856e-05 	4.20418e-06 	0.032574
0.0148997 	-2.3457e-05 	2.80278e-06 	0.021716
0.0149498 	-1.17285e-05 	1.40139e-06 	0.010858
0.015 	0 	0 	0
