-0.0075 	373
-0.00715932 	360.843
-0.00676191 	358.946
-0.00629832 	358.187
-0.00575752 	357.719
-0.00512667 	357.352
-0.00439077 	357.022
-0.00353231 	356.703
-0.00253089 	356.377
-0.00136271 	356.026
0 	355.637
0.00136271 	355.213
0.00253089 	354.769
0.00353231 	354.312
0.00439077 	353.829
0.00512667 	353.28
0.00575752 	352.585
0.00629832 	351.557
0.00676191 	349.344
0.00715932 	338.19
0.0075 	313
