-0.0075 	373
-0.0075 	373
-0.00745622 	370.641
-0.00745622 	370.641
-0.00741165 	368.263
-0.00741165 	368.263
-0.00736628 	365.867
-0.00736628 	365.867
-0.0073201 	363.487
-0.0073201 	363.487
-0.00727309 	361.209
-0.00727309 	361.209
-0.00722524 	359.154
-0.00722524 	359.154
-0.00717653 	357.423
-0.00717653 	357.423
-0.00712695 	356.043
-0.00712695 	356.043
-0.00707647 	354.974
-0.00707647 	354.974
-0.0070251 	354.147
-0.0070251 	354.147
-0.0069728 	353.497
-0.0069728 	353.497
-0.00691956 	352.974
-0.00691956 	352.974
-0.00686537 	352.54
-0.00686537 	352.54
-0.00681021 	352.171
-0.00681021 	352.171
-0.00675406 	351.848
-0.00675406 	351.848
-0.0066969 	351.561
-0.0066969 	351.561
-0.00663871 	351.303
-0.00663871 	351.303
-0.00657949 	351.069
-0.00657949 	351.069
-0.0065192 	350.855
-0.0065192 	350.855
-0.00645783 	350.658
-0.00645783 	350.658
-0.00639535 	350.476
-0.00639535 	350.476
-0.00633176 	350.307
-0.00633176 	350.307
-0.00626703 	350.149
-0.00626703 	350.149
-0.00620114 	350.001
-0.00620114 	350.001
-0.00613406 	349.862
-0.00613406 	349.862
-0.00606579 	349.733
-0.00606579 	349.733
-0.00599629 	349.613
-0.00599629 	349.613
-0.00592554 	349.499
-0.00592554 	349.499
-0.00585352 	349.389
-0.00585352 	349.389
-0.00578022 	349.283
-0.00578022 	349.283
-0.00570559 	349.178
-0.00570559 	349.178
-0.00562963 	349.078
-0.00562963 	349.078
-0.00555231 	348.984
-0.00555231 	348.984
-0.0054736 	348.896
-0.0054736 	348.896
-0.00539348 	348.815
-0.00539348 	348.815
-0.00531193 	348.737
-0.00531193 	348.737
-0.00522891 	348.66
-0.00522891 	348.66
-0.0051444 	348.585
-0.0051444 	348.585
-0.00505838 	348.512
-0.00505838 	348.512
-0.00497081 	348.441
-0.00497081 	348.441
-0.00488168 	348.372
-0.00488168 	348.372
-0.00479094 	348.305
-0.00479094 	348.305
-0.00469858 	348.243
-0.00469858 	348.243
-0.00460456 	348.183
-0.00460456 	348.183
-0.00450886 	348.124
-0.00450886 	348.124
-0.00441144 	348.067
-0.00441144 	348.067
-0.00431227 	348.012
-0.00431227 	348.012
-0.00421133 	347.957
-0.00421133 	347.957
-0.00410857 	347.903
-0.00410857 	347.903
-0.00400397 	347.85
-0.00400397 	347.85
-0.0038975 	347.797
-0.0038975 	347.797
-0.00378912 	347.746
-0.00378912 	347.746
-0.00367879 	347.695
-0.00367879 	347.695
-0.00356649 	347.645
-0.00356649 	347.645
-0.00345217 	347.596
-0.00345217 	347.596
-0.0033358 	347.548
-0.0033358 	347.548
-0.00321735 	347.502
-0.00321735 	347.502
-0.00309677 	347.457
-0.00309677 	347.457
-0.00297403 	347.412
-0.00297403 	347.412
-0.00284909 	347.367
-0.00284909 	347.367
-0.0027219 	347.323
-0.0027219 	347.323
-0.00259244 	347.279
-0.00259244 	347.279
-0.00246065 	347.234
-0.00246065 	347.234
-0.00232651 	347.19
-0.00232651 	347.19
-0.00218995 	347.144
-0.00218995 	347.144
-0.00205095 	347.098
-0.00205095 	347.098
-0.00190946 	347.05
-0.00190946 	347.05
-0.00176543 	347.003
-0.00176543 	347.003
-0.00161881 	346.957
-0.00161881 	346.957
-0.00146957 	346.911
-0.00146957 	346.911
-0.00131765 	346.865
-0.00131765 	346.865
-0.001163 	346.817
-0.001163 	346.817
-0.00100559 	346.769
-0.00100559 	346.769
-0.000845345 	346.72
-0.000845345 	346.72
-0.000682232 	346.67
-0.000682232 	346.67
-0.000516194 	346.618
-0.000516194 	346.618
-0.000347178 	346.564
-0.000347178 	346.564
-0.000175132 	346.51
-0.000175132 	346.51
0 	346.454
0 	346.454
0 	346.454
0 	346.454
0.000175132 	346.398
0.000175132 	349.084
0.000347178 	346.344
0.000347178 	349.055
0.000516194 	346.292
0.000516194 	349.026
0.000682232 	346.241
0.000682232 	348.998
0.000845345 	346.192
0.000845345 	348.97
0.00100559 	346.145
0.00100559 	348.941
0.001163 	346.099
0.001163 	348.913
0.00131765 	346.055
0.00131765 	348.884
0.00146957 	346.012
0.00146957 	348.857
0.00161881 	345.969
0.00161881 	348.831
0.00176543 	345.928
0.00176543 	348.806
0.00190946 	345.888
0.00190946 	348.779
0.00205095 	345.848
0.00205095 	348.747
0.00218995 	345.808
0.00218995 	348.714
0.00232651 	345.77
0.00232651 	348.688
0.00246065 	345.73
0.00246065 	348.666
0.00259244 	345.685
0.00259244 	348.64
0.0027219 	345.628
0.0027219 	348.607
0.00284909 	345.565
0.00284909 	348.569
0.00297403 	345.511
0.00297403 	348.529
0.00309677 	345.468
0.00309677 	348.488
0.00321735 	345.428
0.00321735 	348.444
0.0033358 	345.389
0.0033358 	348.399
0.00345217 	345.35
0.00345217 	348.351
0.00356649 	345.311
0.00356649 	348.301
0.00367879 	345.272
0.00367879 	348.249
0.00378912 	348.196
0.00378912 	345.232
0.0038975 	345.192
0.0038975 	348.144
0.00400397 	345.152
0.00400397 	348.098
0.00410857 	345.111
0.00410857 	348.056
0.00421133 	345.069
0.00421133 	348.007
0.00431227 	345.028
0.00431227 	347.952
0.00441144 	344.986
0.00441144 	347.895
0.00450886 	344.944
0.00450886 	347.838
0.00460456 	344.901
0.00460456 	347.782
0.00469858 	344.858
0.00469858 	347.726
0.00479094 	344.815
0.00479094 	347.672
0.00488168 	344.772
0.00488168 	347.618
0.00497081 	344.728
0.00497081 	347.565
0.00505838 	344.684
0.00505838 	347.514
0.0051444 	344.639
0.0051444 	347.464
0.00522891 	344.594
0.00522891 	347.419
0.00531193 	347.379
0.00531193 	344.548
0.00539348 	344.501
0.00539348 	347.342
0.0054736 	344.454
0.0054736 	347.305
0.00555231 	344.406
0.00555231 	347.267
0.00562963 	344.357
0.00562963 	347.228
0.00570559 	344.306
0.00570559 	347.192
0.00578022 	344.255
0.00578022 	347.158
0.00585352 	344.201
0.00585352 	347.127
0.00592554 	344.145
0.00592554 	347.101
0.00599629 	344.087
0.00599629 	347.079
0.00606579 	347.061
0.00606579 	344.025
0.00613406 	343.96
0.00613406 	347.048
0.00620114 	343.889
0.00620114 	347.04
0.00626703 	343.813
0.00626703 	347.036
0.00633176 	343.729
0.00633176 	347.037
0.00639535 	343.635
0.00639535 	347.044
0.00645783 	343.53
0.00645783 	347.056
0.0065192 	343.41
0.0065192 	347.074
0.00657949 	343.272
0.00657949 	347.099
0.00663871 	343.112
0.00663871 	347.13
0.0066969 	342.922
0.0066969 	347.171
0.00675406 	342.693
0.00675406 	347.224
0.00681021 	342.409
0.00681021 	347.296
0.00686537 	342.042
0.00686537 	347.391
0.00691956 	341.552
0.00691956 	347.513
0.0069728 	340.876
0.0069728 	347.645
0.0070251 	339.929
0.0070251 	347.724
0.00707647 	338.605
0.00707647 	347.573
0.00712695 	336.807
0.00712695 	346.856
0.00717653 	334.501
0.00717653 	345.147
0.00722524 	331.751
0.00722524 	342.2
0.00727309 	328.704
0.00727309 	338.158
0.0073201 	325.52
0.0073201 	333.412
0.00736628 	322.312
0.00736628 	328.333
0.00741165 	319.143
0.00741165 	323.163
0.00745622 	316.042
0.00745622 	318.029
0.0075 	313
0.0075 	313
