-0.0075 	0 	0 	0
-0.0075 	4.27499e-35 	-3.37339e-36 	-5.6556e-33
-0.00745622 	5.61862e-05 	-4.43365e-06 	-0.00743315
-0.00745622 	5.61862e-05 	-4.43365e-06 	-0.00743315
-0.00741165 	-5.19988e-05 	-7.16035e-06 	-0.0165005
-0.00741165 	-5.19988e-05 	-7.16035e-06 	-0.0165005
-0.00736628 	-0.000285855 	-6.5644e-06 	-0.0262658
-0.00736628 	-0.000285855 	-6.5644e-06 	-0.0262658
-0.0073201 	-0.000524053 	9.42594e-07 	-0.0359854
-0.0073201 	-0.000524053 	9.42594e-07 	-0.0359854
-0.00727309 	-0.000731625 	9.32524e-06 	-0.0455588
-0.00727309 	-0.000731625 	9.32524e-06 	-0.0455588
-0.00722524 	-0.000920591 	2.10326e-05 	-0.0550456
-0.00722524 	-0.000920591 	2.10326e-05 	-0.0550456
-0.00717653 	-0.00109639 	3.52865e-05 	-0.0644178
-0.00717653 	-0.00109639 	3.52865e-05 	-0.0644178
-0.00712695 	-0.00126155 	5.20046e-05 	-0.0736098
-0.00712695 	-0.00126155 	5.20046e-05 	-0.0736098
-0.00707647 	-0.00141726 	7.11137e-05 	-0.0825446
-0.00707647 	-0.00141726 	7.11137e-05 	-0.0825446
-0.0070251 	-0.00156421 	9.23833e-05 	-0.0911547
-0.0070251 	-0.00156421 	9.23833e-05 	-0.0911547
-0.0069728 	-0.00170333 	0.000115927 	-0.0993937
-0.0069728 	-0.00170333 	0.000115927 	-0.0993937
-0.00691956 	-0.0018355 	0.000142164 	-0.10724
-0.00691956 	-0.0018355 	0.000142164 	-0.10724
-0.00686537 	-0.00196157 	0.000171338 	-0.114696
-0.00686537 	-0.00196157 	0.000171338 	-0.114696
-0.00681021 	-0.00208313 	0.000202657 	-0.121782
-0.00681021 	-0.00208313 	0.000202657 	-0.121782
-0.00675406 	-0.00220117 	0.000235563 	-0.128533
-0.00675406 	-0.00220117 	0.000235563 	-0.128533
-0.0066969 	-0.0023159 	0.000270582 	-0.134981
-0.0066969 	-0.0023159 	0.000270582 	-0.134981
-0.00663871 	-0.00242802 	0.000307976 	-0.141148
-0.00663871 	-0.00242802 	0.000307976 	-0.141148
-0.00657949 	-0.00253797 	0.000347494 	-0.14705
-0.00657949 	-0.00253797 	0.000347494 	-0.14705
-0.0065192 	-0.00264587 	0.00038887 	-0.152703
-0.0065192 	-0.00264587 	0.00038887 	-0.152703
-0.00645783 	-0.00275191 	0.000432034 	-0.15812
-0.00645783 	-0.00275191 	0.000432034 	-0.15812
-0.00639535 	-0.00285623 	0.000477156 	-0.163317
-0.00639535 	-0.00285623 	0.000477156 	-0.163317
-0.00633176 	-0.00295863 	0.000524767 	-0.168313
-0.00633176 	-0.00295863 	0.000524767 	-0.168313
-0.00626703 	-0.00305841 	0.000574663 	-0.173131
-0.00626703 	-0.00305841 	0.000574663 	-0.173131
-0.00620114 	-0.00315486 	0.000624964 	-0.177786
-0.00620114 	-0.00315486 	0.000624964 	-0.177786
-0.00613406 	-0.00324787 	0.000674853 	-0.182265
-0.00613406 	-0.00324787 	0.000674853 	-0.182265
-0.00606579 	-0.00333777 	0.000724154 	-0.186529
-0.00606579 	-0.00333777 	0.000724154 	-0.186529
-0.00599629 	-0.00342707 	0.000771573 	-0.190542
-0.00599629 	-0.00342707 	0.000771573 	-0.190542
-0.00592554 	-0.00352062 	0.000818828 	-0.1943
-0.00592554 	-0.00352062 	0.000818828 	-0.1943
-0.00585352 	-0.00362112 	0.000872515 	-0.197869
-0.00585352 	-0.00362112 	0.000872515 	-0.197869
-0.00578022 	-0.00372419 	0.000941717 	-0.201389
-0.00578022 	-0.00372419 	0.000941717 	-0.201389
-0.00570559 	-0.0038152 	0.00101927 	-0.205006
-0.00570559 	-0.0038152 	0.00101927 	-0.205006
-0.00562963 	-0.00388261 	0.00107795 	-0.208732
-0.00562963 	-0.00388261 	0.00107795 	-0.208732
-0.00555231 	-0.00393161 	0.00111467 	-0.212372
-0.00555231 	-0.00393161 	0.00111467 	-0.212372
-0.0054736 	-0.0039707 	0.00115981 	-0.215693
-0.0054736 	-0.0039707 	0.00115981 	-0.215693
-0.00539348 	-0.004007 	0.00122339 	-0.218634
-0.00539348 	-0.004007 	0.00122339 	-0.218634
-0.00531193 	-0.00405169 	0.00127362 	-0.221311
-0.00531193 	-0.00405169 	0.00127362 	-0.221311
-0.00522891 	-0.0041094 	0.00130577 	-0.223921
-0.00522891 	-0.0041094 	0.00130577 	-0.223921
-0.0051444 	-0.00417141 	0.00136569 	-0.22661
-0.0051444 	-0.00417141 	0.00136569 	-0.22661
-0.00505838 	-0.00422919 	0.00145874 	-0.229364
-0.00505838 	-0.00422919 	0.00145874 	-0.229364
-0.00497081 	-0.00428424 	0.00154126 	-0.23205
-0.00497081 	-0.00428424 	0.00154126 	-0.23205
-0.00488168 	-0.00433566 	0.00159093 	-0.234541
-0.00488168 	-0.00433566 	0.00159093 	-0.234541
-0.00479094 	-0.00438026 	0.00162702 	-0.236802
-0.00479094 	-0.00438026 	0.00162702 	-0.236802
-0.00469858 	-0.0044194 	0.00167436 	-0.238901
-0.00469858 	-0.0044194 	0.00167436 	-0.238901
-0.00460456 	-0.00445218 	0.00173141 	-0.240921
-0.00460456 	-0.00445218 	0.00173141 	-0.240921
-0.00450886 	-0.00447717 	0.00179111 	-0.242893
-0.00450886 	-0.00447717 	0.00179111 	-0.242893
-0.00441144 	-0.00449613 	0.00184841 	-0.24481
-0.00441144 	-0.00449613 	0.00184841 	-0.24481
-0.00431227 	-0.00451053 	0.00189941 	-0.246663
-0.00431227 	-0.00451053 	0.00189941 	-0.246663
-0.00421133 	-0.00451977 	0.00194798 	-0.24846
-0.00421133 	-0.00451977 	0.00194798 	-0.24846
-0.00410857 	-0.00452272 	0.00199706 	-0.250213
-0.00410857 	-0.00452272 	0.00199706 	-0.250213
-0.00400397 	-0.00451929 	0.00204634 	-0.251927
-0.00400397 	-0.00451929 	0.00204634 	-0.251927
-0.0038975 	-0.00451002 	0.0020953 	-0.2536
-0.0038975 	-0.00451002 	0.0020953 	-0.2536
-0.00378912 	-0.00449518 	0.00214359 	-0.255228
-0.00378912 	-0.00449518 	0.00214359 	-0.255228
-0.00367879 	-0.00447397 	0.00219255 	-0.256804
-0.00367879 	-0.00447397 	0.00219255 	-0.256804
-0.00356649 	-0.00444498 	0.0022436 	-0.258326
-0.00356649 	-0.00444498 	0.0022436 	-0.258326
-0.00345217 	-0.00440809 	0.00229387 	-0.259796
-0.00345217 	-0.00440809 	0.00229387 	-0.259796
-0.0033358 	-0.00436401 	0.00234035 	-0.26121
-0.0033358 	-0.00436401 	0.00234035 	-0.26121
-0.00321735 	-0.00431249 	0.00238719 	-0.262555
-0.00321735 	-0.00431249 	0.00238719 	-0.262555
-0.00309677 	-0.00425347 	0.00243596 	-0.263823
-0.00309677 	-0.00425347 	0.00243596 	-0.263823
-0.00297403 	-0.00418576 	0.00248116 	-0.265023
-0.00297403 	-0.00418576 	0.00248116 	-0.265023
-0.00284909 	-0.00410632 	0.00252111 	-0.266177
-0.00284909 	-0.00410632 	0.00252111 	-0.266177
-0.0027219 	-0.0040142 	0.00255866 	-0.267294
-0.0027219 	-0.0040142 	0.00255866 	-0.267294
-0.00259244 	-0.00391036 	0.00259598 	-0.268375
-0.00259244 	-0.00391036 	0.00259598 	-0.268375
-0.00246065 	-0.00379359 	0.00263252 	-0.26942
-0.00246065 	-0.00379359 	0.00263252 	-0.26942
-0.00232651 	-0.00366097 	0.0026638 	-0.270445
-0.00232651 	-0.00366097 	0.0026638 	-0.270445
-0.00218995 	-0.00351338 	0.00268607 	-0.271476
-0.00218995 	-0.00351338 	0.00268607 	-0.271476
-0.00205095 	-0.00335853 	0.00270455 	-0.272513
-0.00205095 	-0.00335853 	0.00270455 	-0.272513
-0.00190946 	-0.00320296 	0.00272909 	-0.27351
-0.00190946 	-0.00320296 	0.00272909 	-0.27351
-0.00176543 	-0.00304313 	0.00275871 	-0.274431
-0.00176543 	-0.00304313 	0.00275871 	-0.274431
-0.00161881 	-0.00286997 	0.00278338 	-0.275293
-0.00161881 	-0.00286997 	0.00278338 	-0.275293
-0.00146957 	-0.00267874 	0.00279918 	-0.276122
-0.00146957 	-0.00267874 	0.00279918 	-0.276122
-0.00131765 	-0.0024708 	0.00280944 	-0.27692
-0.00131765 	-0.0024708 	0.00280944 	-0.27692
-0.001163 	-0.00225015 	0.00281583 	-0.277678
-0.001163 	-0.00225015 	0.00281583 	-0.277678
-0.00100559 	-0.00201953 	0.00281544 	-0.278383
-0.00100559 	-0.00201953 	0.00281544 	-0.278383
-0.000845345 	-0.00177887 	0.0028076 	-0.27902
-0.000845345 	-0.00177887 	0.0028076 	-0.27902
-0.000682232 	-0.00152968 	0.00278639 	-0.279578
-0.000682232 	-0.00152968 	0.00278639 	-0.279578
-0.000516194 	-0.001277 	0.00275336 	-0.280034
-0.000516194 	-0.001277 	0.00275336 	-0.280034
-0.000347178 	-0.00102703 	0.00271543 	-0.280356
-0.000347178 	-0.00102703 	0.00271543 	-0.280356
-0.000175132 	-0.000778984 	0.00265573 	-0.280541
-0.000175132 	-0.000778984 	0.00265573 	-0.280541
0 	-0.000522168 	0.00258969 	-0.280663
0 	-0.000522168 	0.00258969 	-0.280663
0 	-0.000522168 	0.00258969 	-0.280663
0 	-0.000522168 	0.00258969 	-0.280663
0.000175132 	-0.000250938 	0.00253423 	-0.28079
0.000175132 	0.00323622 	0.0391337 	-0.258654
0.000347178 	3.00227e-05 	0.00248012 	-0.28091
0.000347178 	0.00382636 	0.0394103 	-0.260947
0.000516194 	0.000313803 	0.00243844 	-0.280981
0.000516194 	0.00441067 	0.0395303 	-0.263215
0.000682232 	0.000595983 	0.00240232 	-0.280985
0.000682232 	0.00496437 	0.0395511 	-0.265371
0.000845345 	0.000874164 	0.00236351 	-0.280927
0.000845345 	0.00547869 	0.039556 	-0.267415
0.00100559 	0.00114674 	0.00232677 	-0.28081
0.00100559 	0.00595737 	0.0396067 	-0.269398
0.001163 	0.001415 	0.00228956 	-0.280633
0.001163 	0.00643889 	0.0395889 	-0.271447
0.00131765 	0.00168251 	0.00224913 	-0.280399
0.00131765 	0.00699299 	0.0393791 	-0.273695
0.00146957 	0.00195238 	0.00220546 	-0.280117
0.00146957 	0.00767746 	0.0390686 	-0.276186
0.00161881 	0.00222712 	0.00216079 	-0.279792
0.00161881 	0.00849641 	0.0385858 	-0.278766
0.00176543 	0.00250619 	0.00211699 	-0.279426
0.00176543 	0.00933954 	0.038028 	-0.280916
0.00190946 	0.00278077 	0.00207392 	-0.279014
0.00190946 	0.0100072 	0.0379482 	-0.282116
0.00205095 	0.00303758 	0.00203653 	-0.278554
0.00205095 	0.0104879 	0.0380819 	-0.282837
0.00218995 	0.00327363 	0.00200964 	-0.278064
0.00218995 	0.0109392 	0.0377829 	-0.284047
0.00232651 	0.00350552 	0.00198124 	-0.277643
0.00232651 	0.0114314 	0.0371407 	-0.286012
0.00246065 	0.00375413 	0.00193916 	-0.277365
0.00246065 	0.0118913 	0.0365293 	-0.288044
0.00259244 	0.00401036 	0.00187606 	-0.277014
0.00259244 	0.0122293 	0.0361079 	-0.289439
0.0027219 	0.00420248 	0.00181827 	-0.275952
0.0027219 	0.0124855 	0.0357164 	-0.290425
0.00284909 	0.00428284 	0.00180171 	-0.273976
0.00284909 	0.0127302 	0.035261 	-0.291447
0.00297403 	0.00432414 	0.00179699 	-0.271976
0.00297403 	0.0129755 	0.0347763 	-0.292577
0.00309677 	0.00439985 	0.001778 	-0.270567
0.00309677 	0.0132061 	0.0342896 	-0.293703
0.00321735 	0.00451125 	0.00174527 	-0.269552
0.00321735 	0.0134093 	0.0338111 	-0.294732
0.0033358 	0.00463532 	0.00170725 	-0.268672
0.0033358 	0.0135851 	0.033323 	-0.295643
0.00345217 	0.00474963 	0.00168054 	-0.267767
0.00345217 	0.0137366 	0.0328104 	-0.296425
0.00356649 	0.00484951 	0.00165792 	-0.266794
0.00356649 	0.0138642 	0.0322968 	-0.297064
0.00367879 	0.0049378 	0.00163262 	-0.265757
0.00367879 	0.0139806 	0.0318108 	-0.297605
0.00378912 	0.014124 	0.0312989 	-0.298221
0.00378912 	0.00501681 	0.00160686 	-0.264658
0.0038975 	0.00508851 	0.0015798 	-0.263499
0.0038975 	0.0143217 	0.03071 	-0.299117
0.00400397 	0.0051549 	0.00155064 	-0.26228
0.00400397 	0.014558 	0.0300537 	-0.300293
0.00410857 	0.00521783 	0.00151946 	-0.261005
0.00410857 	0.0147412 	0.0294283 	-0.301099
0.00421133 	0.00527797 	0.00148783 	-0.259677
0.00421133 	0.0148122 	0.0288951 	-0.30105
0.00431227 	0.00533479 	0.00145707 	-0.258293
0.00431227 	0.0148351 	0.0283593 	-0.300542
0.00441144 	0.00538751 	0.00142708 	-0.256851
0.00441144 	0.0148723 	0.0277741 	-0.300005
0.00450886 	0.00543558 	0.00139727 	-0.255351
0.00450886 	0.0149295 	0.0271638 	-0.299538
0.00460456 	0.00547859 	0.00136722 	-0.253789
0.00460456 	0.0149886 	0.0265531 	-0.299065
0.00469858 	0.0055163 	0.00133681 	-0.252163
0.00469858 	0.01503 	0.0259638 	-0.298495
0.00479094 	0.00554871 	0.00130615 	-0.250471
0.00479094 	0.0150476 	0.0253872 	-0.297801
0.00488168 	0.00557642 	0.00127534 	-0.24871
0.00488168 	0.0150463 	0.0248083 	-0.296982
0.00497081 	0.00560062 	0.00124443 	-0.246877
0.00497081 	0.0150375 	0.0242243 	-0.296053
0.00505838 	0.00562266 	0.00121333 	-0.244967
0.00505838 	0.0150371 	0.0236292 	-0.295069
0.0051444 	0.00564336 	0.00118187 	-0.242977
0.0051444 	0.0150564 	0.0230152 	-0.29412
0.00522891 	0.00566277 	0.00114992 	-0.240902
0.00522891 	0.015086 	0.0223945 	-0.293257
0.00531193 	0.0150961 	0.0217821 	-0.292391
0.00531193 	0.00568049 	0.00111719 	-0.238737
0.00539348 	0.00569617 	0.00108373 	-0.23648
0.00539348 	0.0150528 	0.0211881 	-0.291259
0.0054736 	0.00570985 	0.00105022 	-0.234127
0.0054736 	0.0149504 	0.0206099 	-0.289698
0.00555231 	0.00572207 	0.00101697 	-0.231668
0.00555231 	0.0148192 	0.0200216 	-0.28782
0.00562963 	0.00573353 	0.00098368 	-0.229095
0.00562963 	0.0146889 	0.0194158 	-0.2858
0.00570559 	0.00574469 	0.00094991 	-0.226394
0.00570559 	0.0145639 	0.0188052 	-0.28372
0.00578022 	0.00575531 	0.00091567 	-0.22355
0.00578022 	0.0144325 	0.0181979 	-0.281568
0.00585352 	0.00576448 	0.000881574 	-0.220546
0.00585352 	0.014279 	0.0175942 	-0.279306
0.00592554 	0.00577074 	0.000848205 	-0.217365
0.00592554 	0.0140898 	0.0169884 	-0.276906
0.00599629 	0.00577221 	0.000814677 	-0.21399
0.00599629 	0.0138525 	0.0163763 	-0.27434
0.00606579 	0.0135531 	0.0157599 	-0.271557
0.00606579 	0.00576751 	0.000779758 	-0.2104
0.00613406 	0.00575645 	0.000744321 	-0.20657
0.00613406 	0.0131761 	0.0151403 	-0.268493
0.00620114 	0.00573843 	0.000709609 	-0.202465
0.00620114 	0.0127059 	0.0145132 	-0.265105
0.00626703 	0.00571036 	0.000676126 	-0.198041
0.00626703 	0.0121259 	0.013875 	-0.26135
0.00633176 	0.00566586 	0.000642695 	-0.193247
0.00633176 	0.0114175 	0.0132249 	-0.257177
0.00639535 	0.00559672 	0.000607522 	-0.188039
0.00639535 	0.0105624 	0.0125653 	-0.252524
0.00645783 	0.00549639 	0.000570933 	-0.182384
0.00645783 	0.00954297 	0.011896 	-0.24732
0.0065192 	0.00536148 	0.000533554 	-0.176259
0.0065192 	0.00834698 	0.0112139 	-0.241486
0.00657949 	0.00519066 	0.000495866 	-0.169644
0.00657949 	0.00697529 	0.0105217 	-0.234944
0.00663871 	0.00498262 	0.000457995 	-0.162513
0.00663871 	0.00543882 	0.00982 	-0.227625
0.0066969 	0.00473632 	0.000419452 	-0.154841
0.0066969 	0.00375328 	0.00910809 	-0.21946
0.00675406 	0.00445279 	0.000380085 	-0.146602
0.00675406 	0.00193797 	0.00838295 	-0.210367
0.00681021 	0.0041345 	0.00034041 	-0.137765
0.00681021 	2.31839e-05 	0.00764225 	-0.200236
0.00686537 	0.00378436 	0.000301678 	-0.128296
0.00686537 	-0.00193117 	0.00689218 	-0.188959
0.00691956 	0.00340481 	0.000263817 	-0.118201
0.00691956 	-0.00382543 	0.00613812 	-0.176447
0.0069728 	0.00299913 	0.00022598 	-0.107546
0.0069728 	-0.00552291 	0.00538689 	-0.162656
0.0070251 	0.00257641 	0.000188965 	-0.0964696
0.0070251 	-0.00685938 	0.00465177 	-0.147651
0.00707647 	0.00215463 	0.000154307 	-0.0851815
0.00707647 	-0.00766866 	0.00394791 	-0.131681
0.00712695 	0.00175775 	0.000123178 	-0.073934
0.00712695 	-0.00783098 	0.00329064 	-0.115193
0.00717653 	0.00140871 	9.66906e-05 	-0.0629722
0.00717653 	-0.00733856 	0.00269259 	-0.098736
0.00722524 	0.00112074 	7.53923e-05 	-0.0524769
0.00722524 	-0.00635148 	0.00215384 	-0.0827709
0.00727309 	0.000892538 	5.89252e-05 	-0.0425309
0.00727309 	-0.0052105 	0.00167637 	-0.0674881
0.0073201 	0.000710728 	4.66763e-05 	-0.0331218
0.0073201 	-0.00441258 	0.00128813 	-0.0527203
0.00736628 	0.000556524 	3.38232e-05 	-0.0241668
0.00736628 	-0.00459413 	0.000796039 	-0.0379605
0.00741165 	0.000401793 	2.19016e-05 	-0.0155998
0.00741165 	-0.0052621 	0.000496776 	-0.0232289
0.00745622 	0.000214354 	1.16136e-05 	-0.00749769
0.00745622 	-0.00418349 	0.000247128 	-0.0100078
0.0075 	0 	0 	0
0.0075 	0 	0 	0
