/*--------------------------------*- C++ -*----------------------------------*\
| =========                 |                                                 |
| \\      /  F ield         | OpenFOAM: The Open Source CFD Toolbox           |
|  \\    /   O peration     | Version:  v1912                                 |
|   \\  /    A nd           | Website:  www.openfoam.com                      |
|    \\/     M anipulation  |                                                 |
\*---------------------------------------------------------------------------*/
FoamFile
{
    version     2.0;
    format      ascii;
    class       volScalarField;
    location    "8";
    object      heatTransferCoeff(T);
}
// * * * * * * * * * * * * * * * * * * * * * * * * * * * * * * * * * * * * * //

dimensions      [1 0 -3 -1 0 0 0];


internalField   uniform 0;

boundaryField
{
    leftWall
    {
        type            calculated;
        value           nonuniform List<scalar> 
216
(
-217.733
-222.726
-231.554
-238.291
-249.17
-257.408
-269.796
-279.324
-293.915
-306.943
-326.911
-346.667
-375.041
-407.329
-460.719
-545.691
-812.661
-2781.81
-218.362
-223.297
-231.938
-238.465
-249.084
-257.148
-269.535
-279.214
-293.954
-306.764
-326.179
-345.614
-374.866
-409.023
-464.116
-550.267
-816.919
-2784.33
-217.794
-222.537
-230.968
-237.224
-247.672
-255.698
-268.335
-278.422
-293.624
-306.568
-325.9
-345.312
-375.366
-410.899
-467.001
-553.203
-818.72
-2787.28
-220.442
-225.757
-234.543
-240.978
-251.328
-259.075
-271.215
-280.691
-295.117
-307.186
-325.497
-343.877
-373.082
-408.118
-464.074
-551.432
-819.11
-2786.47
-221.715
-226.905
-235.418
-241.518
-251.436
-258.807
-270.659
-280.085
-294.7
-307.151
-325.861
-344.296
-373.041
-407.194
-462.764
-550.352
-817.525
-2785.87
-221.974
-226.403
-234.285
-239.796
-249.458
-256.812
-269.123
-279.305
-295.117
-308.953
-329.234
-348.739
-377.527
-410.534
-464.857
-550.75
-815.891
-2785.69
-223.965
-227.838
-235.177
-240.016
-249.061
-255.705
-267.437
-277.135
-292.868
-307.113
-328.394
-349.244
-379.302
-413.211
-467.347
-551.735
-817.093
-2778.19
-221.333
-225.279
-232.699
-237.555
-246.597
-253.158
-264.71
-274.01
-289.109
-302.611
-323.545
-345.031
-376.688
-411.946
-466.338
-551.037
-817.513
-2777.16
-220.005
-224.228
-231.946
-237.252
-246.74
-253.929
-266.108
-276.242
-292.106
-306.26
-326.978
-347.005
-375.827
-408.455
-461.744
-547.297
-814.216
-2787.84
-222.154
-226.401
-234.018
-239.28
-248.444
-255.25
-266.694
-276.166
-291.277
-304.958
-325.042
-344.495
-372.855
-406.097
-460.676
-546.974
-814.563
-2792.69
-224.367
-228.907
-236.667
-241.996
-250.981
-257.454
-268.126
-276.489
-289.98
-302.212
-321.592
-342.013
-372.139
-406.256
-460.055
-547.115
-818.161
-2786.61
-226.822
-232.172
-241.066
-247.428
-257.729
-265.228
-276.894
-285.585
-298.983
-310.261
-328.258
-346.912
-375.595
-408.637
-461.441
-546.864
-815.147
-2790.44
)
;
    }
    rightWall
    {
        type            calculated;
        value           nonuniform List<scalar> 
216
(
-209.362
-213.286
-218.438
-222.985
-229.225
-234.802
-242.694
-250.015
-260.396
-270.384
-284.352
-298.684
-319.585
-344.753
-388.565
-460.64
-704.297
-2814.1
-208.34
-212.261
-217.425
-221.974
-228.291
-233.849
-241.823
-249.079
-259.574
-269.671
-284.171
-299.111
-320.656
-345.518
-388.026
-458.843
-702.459
-2822.89
-207.85
-211.678
-216.79
-221.247
-227.542
-232.995
-240.945
-248.058
-258.513
-268.526
-283.144
-298.338
-320.615
-346.587
-390.193
-461.191
-703.133
-2829.63
-207.32
-211.047
-216.118
-220.52
-226.815
-232.284
-240.304
-247.529
-258.16
-268.424
-283.348
-298.874
-321.511
-348.134
-392.913
-464.891
-703.886
-2825.89
-207.839
-211.729
-216.954
-221.59
-228.067
-233.786
-241.937
-249.299
-259.856
-269.94
-284.346
-299.107
-320.562
-345.925
-390.236
-464.197
-706.371
-2826.32
-208.397
-212.467
-217.829
-222.588
-229.105
-234.82
-242.869
-250.099
-260.48
-270.378
-284.582
-299.159
-320.411
-345.326
-388.872
-462.208
-705.646
-2826.2
-206.689
-210.626
-215.851
-220.482
-226.907
-232.574
-240.66
-247.99
-258.596
-268.788
-283.524
-298.918
-321.486
-347.827
-391.942
-463.269
-704.853
-2826.16
-205.687
-209.431
-214.469
-218.948
-225.295
-231.019
-239.354
-247.184
-258.529
-269.681
-285.382
-301.511
-324.16
-349.904
-393.12
-463.221
-702.916
-2826.23
-207.545
-211.374
-216.51
-220.992
-227.297
-232.855
-240.908
-248.313
-259.065
-269.511
-284.462
-300.03
-322.422
-348.503
-392.243
-462.539
-703.334
-2827.52
-207.229
-211.157
-216.433
-221.005
-227.402
-232.952
-240.943
-248.124
-258.546
-268.462
-282.751
-297.396
-318.87
-344.452
-388.992
-461.796
-704.376
-2827.5
-205.582
-209.491
-214.765
-219.401
-225.937
-231.668
-239.946
-247.402
-258.195
-268.458
-283.291
-298.771
-321.482
-347.789
-391.359
-461.038
-700.365
-2826.1
-207.487
-211.548
-217.014
-221.799
-228.513
-234.354
-242.756
-250.212
-260.97
-270.959
-285.44
-300.571
-323.626
-351.196
-396.529
-465.802
-702.064
-2815.4
)
;
    }
    leftSides_periodic0
    {
        type            cyclic;
    }
    leftSides_periodic1
    {
        type            cyclic;
    }
    rightSides_periodic0
    {
        type            cyclic;
    }
    rightSides_periodic1
    {
        type            cyclic;
    }
    leftInOut_periodic0
    {
        type            calculated;
        value           nonuniform 0();
    }
    leftInOut_periodic1
    {
        type            calculated;
        value           uniform 0;
    }
    rightInOut_periodic0
    {
        type            calculated;
        value           nonuniform 0();
    }
    rightInOut_periodic1
    {
        type            calculated;
        value           uniform 0;
    }
    procBoundary4to1
    {
        type            processor;
        value           uniform 0;
    }
    procBoundary4to3
    {
        type            processor;
        value           uniform 0;
    }
    procBoundary4to5
    {
        type            processor;
        value           uniform 0;
    }
}


// ************************************************************************* //
