/*--------------------------------*- C++ -*----------------------------------*\
| =========                 |                                                 |
| \\      /  F ield         | OpenFOAM: The Open Source CFD Toolbox           |
|  \\    /   O peration     | Version:  v1912                                 |
|   \\  /    A nd           | Website:  www.openfoam.com                      |
|    \\/     M anipulation  |                                                 |
\*---------------------------------------------------------------------------*/
FoamFile
{
    version     2.0;
    format      ascii;
    class       volScalarField;
    location    "8";
    object      omega;
}
// * * * * * * * * * * * * * * * * * * * * * * * * * * * * * * * * * * * * * //

dimensions      [0 0 -1 0 0 0 0];


internalField   nonuniform List<scalar> 
34128
(
156509
156509
156509
156509
156509
156509
156509
156508
156509
156509
156509
156509
25864.2
25865.2
25864.6
25867.5
25868.7
25868.8
25870.7
25867.9
25866.5
25868.9
25871.4
25874.1
8909.63
8910.69
8910.49
8912.94
8913.82
8913.65
8914.74
8912.06
8911.27
8913.26
8915.36
8918.3
4282.16
4283.43
4283.62
4285.79
4286.32
4285.88
4286
4283.32
4283.19
4284.9
4286.61
4289.92
2496.51
2497.99
2498.59
2500.65
2500.96
2500.33
2499.5
2496.57
2497.16
2498.71
2499.98
2503.81
1654.26
1655.87
1656.88
1658.9
1659.13
1658.45
1656.74
1653.41
1654.81
1656.23
1656.88
1661.19
1203.26
1204.84
1206.24
1208.24
1208.53
1207.97
1205.5
1201.76
1203.98
1205.28
1205.11
1209.71
939.715
941.086
942.799
944.801
945.257
944.968
941.911
937.827
940.855
941.996
940.842
945.503
775.027
776.135
778.072
780.036
780.725
780.817
777.364
772.989
776.774
777.745
775.606
780.045
666.235
666.925
669.001
670.957
671.935
672.46
668.794
664.229
668.692
669.483
666.334
670.414
590.684
590.832
592.959
594.938
596.218
597.175
593.463
588.823
593.871
594.477
590.368
594.006
535.694
535.213
537.313
539.34
540.898
542.247
538.624
534.03
539.565
539.984
535.018
538.18
493.82
492.661
494.677
496.764
498.547
500.222
496.796
492.371
498.289
498.514
492.83
495.515
460.507
458.666
460.564
462.703
464.641
466.563
463.418
459.278
465.474
465.495
459.249
461.47
432.868
430.384
432.149
434.313
436.328
438.415
435.617
431.871
438.231
438.038
431.396
433.164
409.009
405.959
407.592
409.741
411.751
413.919
411.524
408.273
414.674
414.26
407.385
408.703
387.649
384.145
385.654
387.734
389.663
391.83
389.885
387.219
393.527
392.893
385.947
386.806
367.901
364.081
365.477
367.431
369.183
371.292
369.836
367.833
373.906
372.957
366.201
366.582
349.14
345.165
346.455
348.228
349.662
351.613
350.772
349.495
355.061
353.864
347.526
347.406
330.926
326.968
328.159
329.622
330.672
332.362
332.246
331.761
336.581
335.211
329.485
328.841
312.865
309.191
310.292
311.324
311.905
313.273
313.86
314.322
318.195
316.687
311.686
310.475
294.8
291.616
292.567
293.127
293.277
294.235
295.395
296.846
299.685
298.093
293.912
292.113
276.612
274.036
274.854
274.899
274.673
275.14
276.868
279.176
280.929
279.318
276.12
273.611
258.234
256.363
257.062
256.653
256.046
255.946
258.211
261.348
261.877
260.325
258.225
255.022
239.648
238.67
239.249
238.378
237.399
236.665
239.411
243.321
242.542
241.134
240.2
236.327
220.881
220.953
221.415
220.099
218.772
217.342
220.49
225.102
222.979
221.806
222.053
217.553
201.987
203.233
203.588
201.865
200.225
198.043
201.496
206.724
203.269
202.427
203.824
198.749
183.034
185.544
185.809
183.739
181.826
178.841
182.487
188.239
183.509
183.099
185.566
179.984
164.086
167.922
168.118
165.779
163.642
159.814
163.519
169.696
163.809
163.942
167.336
161.328
145.256
150.403
150.556
148.06
145.795
141.275
144.769
151.168
144.547
145.332
149.219
142.899
127.28
133.245
133.402
131.06
128.927
124.017
127.073
133.215
126.763
128.154
131.765
125.356
110.689
117.179
117.358
115.259
113.21
108.125
110.797
116.529
110.5
112.32
115.64
109.229
95.5516
102.4
102.596
100.613
98.6541
93.5601
95.9721
101.233
95.6346
97.7712
100.742
94.4708
81.8547
88.8991
89.1037
87.1637
85.3603
80.4344
82.5645
87.3247
82.1263
84.4598
87.0406
81.1419
69.5757
76.6419
76.8536
75.0146
73.3805
68.6947
70.5342
74.777
69.9522
72.3661
74.6611
69.2076
58.6882
65.6041
65.8262
64.1393
62.6823
58.2897
59.8415
63.5634
59.0845
61.5041
63.6111
58.6143
49.1562
55.7683
56.0079
54.5114
53.23
49.168
50.4448
53.6545
49.497
51.8935
53.8398
49.3159
40.9288
47.1173
47.3837
46.0975
44.9808
41.2731
42.2968
45.0154
41.1668
43.5478
45.3005
41.262
33.9362
39.6243
39.9064
38.8139
37.8427
34.5023
35.3277
37.5984
34.116
36.4005
37.9359
34.3611
27.9618
33.1424
33.3791
32.4573
31.6146
28.6443
29.3103
31.2229
28.1459
30.2301
31.5449
28.4034
22.8752
27.5136
27.6954
26.9448
26.218
23.6184
24.1327
25.7336
23.104
24.9332
26.0083
23.3075
18.6826
22.731
22.9056
22.3108
21.679
19.4376
19.8276
21.1288
18.9799
20.5444
21.3654
19.0879
15.2779
18.7579
18.9282
18.466
17.9093
16.0028
16.2932
17.3406
15.6374
16.9489
17.5323
15.642
12.5467
15.4984
15.6664
15.3121
14.8151
13.2128
13.4241
14.2618
12.9486
14.0235
14.4085
12.8634
10.3788
12.8538
13.0211
12.7506
12.3036
10.9694
11.1178
11.7855
10.7969
11.6569
11.8925
10.6483
8.67288
10.7285
10.8962
10.688
10.2871
9.18172
9.27913
9.81018
9.07884
9.75934
9.88652
8.89971
7.33906
9.0342
9.20226
9.04027
8.68404
7.76791
7.8228
8.2428
7.70854
8.25066
8.30041
7.53072
6.30078
7.69188
7.85929
7.73436
7.4199
6.65632
6.67529
6.99854
6.62107
7.05892
7.05417
6.46629
5.49477
6.63295
6.79732
6.70466
6.42805
5.78569
5.77464
5.9951
5.76198
6.12127
6.07916
5.64309
4.86994
5.7988
5.95614
5.89284
5.65053
5.10483
5.0696
5.20502
5.08665
5.38442
5.31814
5.00788
4.38566
5.14097
5.28804
5.25263
5.04006
4.57178
4.51843
4.59601
4.55721
4.80398
4.72446
4.51715
4.00983
4.62191
4.75895
4.74478
4.56179
4.15329
4.08766
4.12865
4.13964
4.34421
4.26079
4.13697
3.71777
4.21393
4.33276
4.33256
4.17798
3.82465
3.75097
3.76951
3.80859
3.97828
3.89836
3.84262
3.49132
3.88878
3.9838
3.99496
3.86427
3.56567
3.48796
3.49236
3.54566
3.68798
3.61609
3.6132
3.31454
3.62649
3.70143
3.72237
3.61221
3.35919
3.28301
3.27818
3.33719
3.45849
3.39718
3.43174
3.1754
3.41762
3.47604
3.50412
3.41196
3.19435
3.12414
3.11374
3.17424
3.27655
3.22677
3.28863
3.06684
3.25339
3.29758
3.32951
3.2533
3.0631
3.0017
2.98878
3.04806
3.13437
3.09462
3.17734
2.98305
3.1248
3.1565
3.18921
3.12751
2.96162
2.90713
2.89471
2.94986
3.0214
2.99353
3.09111
2.91822
3.02356
3.04446
3.07569
3.02874
2.88395
2.83364
2.82443
2.87308
2.93204
2.91671
3.02379
2.86722
2.94303
2.95462
2.98315
2.94938
2.82456
2.7769
2.77239
2.81252
2.86151
2.85825
2.97038
2.82602
2.8781
2.88164
2.90713
2.88218
2.77893
2.73407
2.73448
2.76499
2.80568
2.81332
2.92709
2.79168
2.82498
2.82161
2.84414
2.82467
2.74244
2.70231
2.70745
2.72755
2.76108
2.77826
2.89132
2.76222
2.78095
2.77192
2.79155
2.77555
2.71217
2.67904
2.68863
2.69804
2.72517
2.75056
2.86133
2.73637
2.74413
2.73041
2.74771
2.73428
2.68584
2.66201
2.67604
2.67475
2.69616
2.7285
2.83595
2.71338
2.71321
2.69514
2.71101
2.69954
2.66292
2.6494
2.66815
2.65635
2.67261
2.71078
2.81427
2.69289
2.68676
2.66616
2.67985
2.66993
2.64289
2.63991
2.66406
2.64182
2.65342
2.6965
2.79545
2.67478
2.6644
2.64281
2.65347
2.64446
2.62535
2.63278
2.66242
2.63035
2.63778
2.68502
2.77907
2.65905
2.64598
2.62434
2.63258
2.62277
2.61
2.62721
2.66105
2.6213
2.62513
2.67585
2.76503
2.64568
2.63127
2.61031
2.61689
2.60464
2.59665
2.62139
2.65982
2.61417
2.615
2.66865
2.75333
2.63478
2.6202
2.60048
2.60519
2.58994
2.58516
2.61526
2.65919
2.60858
2.60704
2.66315
2.744
2.62656
2.61262
2.59485
2.59731
2.57855
2.57547
2.60903
2.65853
2.60425
2.60097
2.65913
2.73703
2.62122
2.60834
2.5936
2.59314
2.57041
2.56755
2.60294
2.65745
2.60097
2.59657
2.65645
2.73236
2.6189
2.60668
2.5959
2.59277
2.56547
2.56142
2.59729
2.65571
2.59855
2.59368
2.65502
2.72986
2.61974
2.60805
2.60109
2.59622
2.5637
2.55718
2.5922
2.65324
2.59691
2.59216
2.6548
2.72934
2.62379
2.61242
2.60878
2.60349
2.56511
2.55495
2.58784
2.6497
2.59619
2.5919
2.65583
2.73049
2.63112
2.6196
2.61876
2.6143
2.56966
2.5549
2.58449
2.64558
2.59579
2.59279
2.65825
2.73304
2.64178
2.62945
2.63173
2.6282
2.57728
2.55724
2.58241
2.64154
2.59591
2.59475
2.66227
2.7367
2.65588
2.64191
2.64754
2.64457
2.58776
2.56217
2.58143
2.63795
2.59676
2.59767
2.66589
2.74151
2.67359
2.65687
2.6661
2.66267
2.60084
2.56987
2.58246
2.63517
2.59826
2.60148
2.66943
2.74806
156509
156509
156509
156509
156509
156509
156509
156509
156509
156509
156509
156509
25846.5
25846.7
25846.3
25850
25851.8
25852.6
25853
25848.6
25849
25851.1
25852.4
25857.2
8665.38
8659.16
8661.1
8666.84
8674.95
8691.2
8681.71
8662.36
8675.72
8674.21
8662.04
8677.79
4202.92
4201.54
4202.46
4205.97
4209.04
4214.1
4210.28
4201.75
4206.84
4207.36
4203.86
4211.88
2466.27
2466.3
2467.21
2470.03
2471.57
2473.39
2470.65
2465.04
2468.31
2469.3
2467.81
2473.87
1642.9
1643.32
1644.47
1647.05
1648.07
1648.79
1646.03
1641.25
1644.45
1645.49
1644.13
1649.64
1200.38
1200.72
1202.17
1204.67
1205.57
1206.02
1202.98
1198.36
1202.06
1202.98
1201.06
1206.32
940.877
940.866
942.587
945.099
946.082
946.599
943.305
938.653
943.013
943.757
940.969
945.969
778.401
777.818
779.667
782.156
783.325
784.23
780.817
776.148
781.155
781.628
777.891
782.573
670.838
669.572
671.481
673.974
675.35
676.67
673.289
668.689
674.244
674.431
669.799
674.073
595.939
593.938
595.842
598.349
599.908
601.613
598.4
593.978
599.945
599.837
594.445
598.272
541.229
538.5
540.347
542.86
544.545
546.573
543.636
539.504
545.731
545.318
539.351
542.734
499.371
495.974
497.734
500.228
501.963
504.235
501.656
497.916
504.245
503.516
497.183
500.145
465.872
461.915
463.577
466.007
467.708
470.14
467.983
464.725
470.992
469.94
463.452
466.02
437.879
433.512
435.074
437.382
438.965
441.476
439.788
437.092
443.127
441.753
435.316
437.503
413.518
408.922
410.389
412.502
413.891
416.398
415.222
413.155
418.782
417.096
410.91
412.709
391.522
386.898
388.271
390.111
391.238
393.658
393.033
391.653
396.688
394.718
388.973
390.358
371.011
366.572
367.847
369.331
370.166
372.389
372.35
371.705
375.963
373.886
368.63
369.553
351.361
347.329
348.496
349.54
350.119
352.065
352.55
352.681
356.113
353.935
349.263
349.662
332.136
328.727
329.77
330.399
330.675
332.289
333.199
334.127
336.668
334.415
330.435
330.235
313.122
310.453
311.354
311.622
311.563
312.708
314.102
315.725
317.291
315.053
311.912
311.101
294.07
292.294
293.136
293.055
292.665
293.139
294.993
297.371
297.813
295.692
293.503
292.106
274.86
274.175
274.952
274.473
273.787
273.509
275.754
278.888
278.167
276.267
275.16
273.005
255.468
255.997
256.718
255.852
254.871
253.815
256.365
260.19
258.363
256.786
256.687
253.777
235.939
237.74
238.421
237.213
235.96
234.114
236.868
241.297
238.474
237.312
238.108
234.465
216.374
219.447
220.106
218.619
217.127
214.505
217.358
222.283
218.625
217.951
219.495
215.16
196.917
201.203
201.859
200.163
198.474
195.12
197.972
203.268
198.974
198.83
200.96
195.994
177.748
183.126
183.797
181.963
180.123
176.115
178.878
184.414
179.696
180.091
182.637
177.127
159.064
165.361
166.062
164.158
162.21
157.655
160.264
165.905
160.966
161.869
164.684
158.739
141.067
148.071
148.811
146.897
144.878
139.902
142.321
147.948
142.938
144.281
147.264
141.013
123.936
131.42
132.208
130.332
128.276
123.013
125.221
130.743
125.721
127.434
130.539
124.119
107.815
115.564
116.405
114.622
112.572
107.147
109.112
114.448
109.613
111.69
114.655
108.204
92.7934
100.648
101.544
99.9155
97.9087
92.4347
94.127
99.2027
94.8105
97.1735
99.7597
93.4016
78.9728
86.8005
87.7478
86.3198
84.3824
78.9621
80.3708
85.122
81.3542
83.8641
85.9684
79.8119
66.5155
74.1238
75.1101
73.9016
72.0538
66.7878
67.9187
72.2946
69.2391
71.7667
73.3579
67.5079
55.4969
62.6861
63.6921
62.7005
60.9575
55.9388
56.811
60.7759
58.4252
60.9143
61.9797
56.529
45.9194
52.5165
53.5191
52.7272
51.1011
46.4084
47.0502
50.5847
48.8955
51.3016
51.8592
46.878
37.6765
43.5914
44.5677
43.9513
42.4545
38.1469
38.5896
41.6936
40.5901
42.8783
42.9841
38.5113
30.625
35.8532
36.7873
36.3249
34.9665
31.0846
31.3546
34.0341
33.4216
35.5696
35.3034
31.3605
24.7044
29.2536
30.1399
29.813
28.5953
25.1602
25.2822
27.5425
27.3255
29.316
28.7675
25.3645
19.8488
23.737
24.5701
24.3584
23.2791
20.2881
20.2895
22.1522
22.2379
24.0532
23.3148
20.438
15.9188
19.2087
19.9798
19.8641
18.918
16.3484
16.2544
17.7572
18.0608
19.6862
18.843
16.4597
12.8007
15.5503
16.2554
16.2194
15.3987
13.2135
13.0467
14.2332
14.6861
16.1146
15.2347
13.3
10.366
12.6388
13.2778
13.3076
12.6019
10.756
10.5359
11.4518
12.0013
13.2363
12.3677
10.8301
8.49039
10.3534
10.929
11.013
10.4093
8.85435
8.59708
9.28868
9.8954
10.9487
10.1217
8.9271
7.0609
8.58094
9.09751
9.22562
8.7092
7.39757
7.1163
7.62836
8.26389
9.15105
8.3834
7.47818
5.98009
7.21987
7.68274
7.84566
7.40147
6.28894
5.9942
6.37
7.01156
7.74981
7.05091
6.38335
5.16767
6.18261
6.59785
6.78662
6.40072
5.44779
5.1485
5.43234
6.05445
6.66255
6.03614
5.55748
4.56018
5.39701
5.77082
5.97728
5.63731
4.80974
4.51373
4.75967
5.32158
5.82057
5.26608
4.93238
4.10788
4.79686
5.12428
5.33833
5.04712
4.32562
4.03824
4.26434
4.75556
5.16936
4.68249
4.45778
3.77224
4.3272
4.60222
4.81572
4.57571
3.95547
3.68167
3.88597
4.31425
4.65969
4.24035
4.09302
3.51991
3.95526
4.18109
4.39064
4.19374
3.66523
3.41341
3.5927
3.96424
4.25038
3.90025
3.8054
3.32575
3.66276
3.84587
4.04966
3.88882
3.43529
3.21084
3.36482
3.68319
3.91841
3.63167
3.57631
3.1758
3.43525
3.58294
3.77908
3.64961
3.25621
3.05749
3.18739
3.45984
3.65158
3.41854
3.39614
3.06158
3.25996
3.37828
3.56456
3.46339
3.11953
2.94075
3.04959
3.28411
3.43932
3.25173
3.25668
2.97574
3.12501
3.21886
3.39306
3.31775
3.01757
2.85192
2.94376
3.14452
3.27178
3.12274
3.14984
2.91139
3.01995
3.0937
3.25384
3.2018
2.94417
2.78567
2.86342
3.03211
3.1391
3.02339
3.06782
2.86244
2.93529
2.99418
3.1387
3.10673
2.88893
2.73807
2.80314
2.9436
3.03484
2.94642
3.00391
2.82402
2.86481
2.91388
3.04183
3.02605
2.84495
2.70526
2.7586
2.87415
2.95231
2.8861
2.9529
2.79256
2.80779
2.8481
2.95944
2.95584
2.8074
2.68317
2.72628
2.82023
2.88633
2.83798
2.911
2.76563
2.7618
2.79265
2.88921
2.89444
2.77324
2.66824
2.70316
2.77791
2.83297
2.79869
2.87568
2.74169
2.72399
2.7468
2.82964
2.8405
2.74228
2.65801
2.68689
2.74437
2.78937
2.76671
2.84537
2.71983
2.6925
2.71025
2.77946
2.79285
2.7152
2.65064
2.67601
2.71747
2.75345
2.74064
2.81915
2.69959
2.66614
2.68155
2.73756
2.75063
2.69134
2.64503
2.66915
2.69566
2.72369
2.71924
2.79616
2.68085
2.6439
2.65932
2.70316
2.71398
2.67027
2.64044
2.66525
2.6778
2.69881
2.70164
2.77567
2.66365
2.62548
2.64077
2.67468
2.68267
2.65136
2.6363
2.66346
2.66305
2.67778
2.68723
2.75748
2.64804
2.61026
2.62524
2.65136
2.65613
2.63416
2.63222
2.66292
2.65078
2.66005
2.67559
2.74168
2.6342
2.59782
2.61279
2.63235
2.6336
2.61865
2.62796
2.66315
2.64048
2.64532
2.66643
2.72839
2.6224
2.58804
2.60338
2.61772
2.61493
2.60487
2.62345
2.66343
2.63173
2.63327
2.65948
2.71773
2.61294
2.58083
2.59702
2.60751
2.60009
2.59291
2.61859
2.6633
2.62424
2.62364
2.65448
2.7098
2.60605
2.57629
2.59372
2.60177
2.58911
2.58285
2.61339
2.66245
2.61796
2.61619
2.65125
2.70464
2.60192
2.57461
2.59348
2.60058
2.58199
2.57475
2.60798
2.66062
2.61277
2.61072
2.64965
2.70225
2.60064
2.57652
2.59632
2.60393
2.57876
2.56866
2.60244
2.65779
2.60784
2.60704
2.64957
2.70257
2.60224
2.58165
2.60242
2.61181
2.57937
2.56468
2.59678
2.65404
2.60338
2.60501
2.65088
2.7054
2.60671
2.59007
2.61181
2.62401
2.58377
2.56298
2.59136
2.64961
2.59947
2.60448
2.65355
2.71058
2.61403
2.60153
2.62459
2.64016
2.59186
2.56374
2.58663
2.64475
2.59701
2.60536
2.65757
2.71778
2.62418
2.61443
2.64058
2.65983
2.60345
2.5672
2.58308
2.6398
2.59584
2.60754
2.66299
2.72663
2.63718
2.62937
2.65967
2.68289
2.61829
2.57357
2.58136
2.63509
2.59562
2.61092
2.67006
2.73675
2.65313
2.64624
2.68163
2.70869
2.636
2.58306
2.58172
2.63091
2.59626
2.61558
2.67945
2.7477
156509
156509
156509
156509
156509
156509
156509
156509
156509
156509
156509
156509
25879.7
25880.3
25879.5
25883.3
25884.2
25882.8
25883.5
25880.7
25880.3
25882.5
25885.2
25890.1
8923.6
8924.15
8923.7
8926.99
8927.62
8926.45
8926.51
8923.85
8924.03
8925.9
8927.7
8932.29
4295.44
4295.9
4295.89
4298.74
4299.23
4298.31
4297.61
4294.84
4295.88
4297.37
4298.19
4302.72
2509.99
2510.23
2510.62
2513.24
2513.69
2513.11
2511.69
2508.59
2510.62
2511.76
2511.52
2516.23
1668.22
1668.07
1668.79
1671.27
1671.78
1671.64
1669.64
1666.19
1669.19
1669.99
1668.62
1673.5
1217.61
1216.92
1217.88
1220.24
1220.87
1221.29
1218.91
1215.17
1219.08
1219.48
1216.98
1221.89
954.242
952.878
953.981
956.19
956.972
958.038
955.495
951.609
956.261
956.236
952.664
957.437
789.42
787.363
788.578
790.683
791.607
793.161
790.67
786.802
791.98
791.545
787.082
791.532
680.252
677.504
678.731
680.697
681.734
683.753
681.492
677.8
683.27
682.408
677.282
681.341
604.135
600.759
601.925
603.721
604.82
607.235
605.336
601.955
607.492
606.199
600.666
604.314
548.413
544.527
545.587
547.181
548.279
550.997
549.544
546.589
551.981
550.268
544.58
547.831
505.645
501.409
502.343
503.699
504.733
507.651
506.692
504.249
509.307
507.196
501.588
504.467
471.269
466.876
467.678
468.759
469.675
472.683
472.242
470.373
474.931
472.457
467.135
469.656
442.388
438.046
438.719
439.491
440.245
443.231
443.313
442.065
445.975
443.187
438.328
440.487
417.099
413.021
413.571
414.004
414.568
417.415
418.016
417.419
420.554
417.518
413.268
415.038
394.117
390.511
390.94
391.02
391.379
393.963
395.067
395.144
397.375
394.191
390.675
392.008
372.553
369.613
369.928
369.654
369.807
372.003
373.579
374.344
375.538
372.295
369.665
370.5
351.715
349.691
349.901
349.292
349.226
350.828
352.808
354.375
354.469
351.282
349.626
349.895
331.23
330.292
330.417
329.5
329.196
330.012
332.37
334.678
333.761
330.756
330.14
329.65
310.813
311.014
311.11
309.917
309.355
309.364
311.992
315.017
313.159
310.46
310.783
309.493
290.299
291.725
291.832
290.352
289.506
288.745
291.536
295.243
292.526
290.253
291.367
289.226
269.619
272.324
272.488
270.823
269.687
268.086
270.93
275.258
271.819
270.079
271.757
268.885
248.785
252.771
253.044
251.288
249.907
247.389
250.175
255.048
251.064
249.944
252.086
248.461
227.868
233.087
233.522
231.763
230.174
226.71
229.332
234.658
230.336
229.904
232.361
228.004
206.984
213.343
213.987
212.302
210.536
206.141
208.506
214.182
209.747
210.042
212.634
207.606
186.273
193.644
194.537
192.986
191.071
185.798
187.825
193.742
189.422
190.456
192.989
187.388
165.884
174.118
175.284
173.911
171.867
165.804
167.428
173.475
169.489
171.248
173.525
167.483
145.96
154.897
156.346
155.174
153.021
146.286
147.456
153.515
150.083
152.517
154.347
148.021
126.708
136.119
137.844
136.889
134.658
127.498
128.2
134.059
131.547
134.459
135.591
129.192
108.79
118.099
120.112
119.474
117.286
110.111
110.4
115.844
114.563
117.701
117.82
111.62
92.587
101.509
103.778
103.466
101.37
94.3786
94.3069
99.272
99.1205
102.27
101.553
95.686
78.1755
86.5331
89.0039
88.9724
86.9834
80.2952
79.9235
84.3828
85.0929
88.1499
86.8654
81.4232
65.5293
73.1646
75.7764
75.9699
74.0935
67.8065
67.2009
71.1438
72.4566
75.4089
73.7305
68.7852
54.4943
61.3649
64.0526
64.4155
62.6562
56.8498
56.0771
59.5066
61.2145
64.0667
62.1066
57.7088
44.9453
51.087
53.7836
54.2656
52.6265
47.3561
46.4796
49.4122
51.3819
54.0814
51.9452
48.1206
36.779
42.2727
44.9135
45.4688
43.9503
39.2407
38.3206
40.7891
42.9092
45.407
43.1868
39.9309
29.8713
34.7717
37.3043
37.8819
36.497
32.3341
31.4443
33.5294
35.6843
37.9562
35.7442
32.9758
24.0827
28.3611
30.7393
31.3142
30.0706
26.4423
25.6158
27.3712
29.4716
31.5035
29.3795
27.0475
19.3416
22.9789
25.1575
25.7258
24.6156
21.5129
20.7485
22.1907
24.1843
25.9531
23.9701
22.0801
15.5548
18.5992
20.554
21.0974
20.1137
17.492
16.805
17.9835
19.8339
21.3388
19.5254
18.0267
12.5916
15.0885
16.811
17.3174
16.4502
14.2554
13.6515
14.6163
16.3001
17.5554
15.9267
14.7594
10.2912
12.3123
13.8062
14.2685
13.5062
11.6803
11.1579
11.954
13.4597
14.4893
13.0495
12.1532
8.52011
10.1415
11.4201
11.8352
11.1659
9.65175
9.20378
9.86949
11.1947
12.0282
10.7732
10.0919
7.16391
8.45853
9.54104
9.90979
9.32201
8.06622
7.68178
8.24855
9.39844
10.0677
8.98702
8.47121
6.12716
7.16009
8.06925
8.39551
7.87934
6.83372
6.50004
6.99248
7.97819
8.51538
7.59333
7.20206
5.33315
6.15895
6.9186
7.20859
6.75612
5.87842
5.58328
6.01933
6.8568
7.29188
6.5093
6.21059
4.72338
5.38309
6.01743
6.27841
5.88389
5.13765
4.87301
5.26328
5.97178
6.33035
5.66678
5.43748
4.25724
4.77427
5.30807
5.54951
5.20761
4.56037
4.32658
4.67285
5.27301
5.57497
5.01052
4.83547
3.90202
4.28411
4.74679
4.97739
4.68637
4.1197
3.9096
4.21074
4.72149
4.98293
4.49777
4.3668
3.62823
3.89812
4.28536
4.51892
4.28244
3.78503
3.59091
3.84875
4.28854
4.51442
4.09695
4.00289
3.4165
3.59825
3.91391
4.14837
3.96366
3.53132
3.34672
3.56512
3.94542
4.13741
3.78239
3.72241
3.25067
3.37007
3.62321
3.85407
3.71256
3.34119
3.15961
3.34345
3.67009
3.83588
3.53455
3.5029
3.11944
3.19822
3.399
3.62211
3.51802
3.19729
3.01688
3.17106
3.45156
3.59912
3.34121
3.32818
3.01691
3.06868
3.2261
3.43848
3.3679
3.08665
2.90917
3.03792
3.28102
3.415
3.19261
3.19075
2.93764
2.97024
3.09254
3.29122
3.25058
3.0015
2.82914
2.93594
3.14951
3.27174
3.07827
3.08386
2.87624
2.89542
2.98977
3.17098
3.15626
2.93586
2.77074
2.85851
3.05015
3.1601
2.98919
3.00053
2.82807
2.83916
2.91004
3.07105
3.0774
2.88442
2.72913
2.80033
2.9734
3.06999
2.91896
2.93461
2.78947
2.79678
2.84734
2.98688
3.00872
2.84306
2.70035
2.75723
2.91212
2.99587
2.86403
2.88136
2.75771
2.76152
2.79825
2.91562
2.94695
2.80877
2.68086
2.72594
2.86258
2.93337
2.81962
2.83775
2.73091
2.73088
2.76066
2.85586
2.89064
2.77959
2.66749
2.70373
2.82223
2.87988
2.78339
2.80189
2.70771
2.70397
2.72984
2.80613
2.83954
2.75423
2.65817
2.68856
2.78891
2.83372
2.75326
2.77225
2.68704
2.67999
2.703
2.7643
2.79419
2.73051
2.65179
2.67839
2.76097
2.79387
2.72788
2.74696
2.66827
2.65865
2.67977
2.7299
2.75536
2.70815
2.64738
2.67178
2.73726
2.75963
2.70625
2.72338
2.65076
2.63976
2.65992
2.70012
2.72219
2.68737
2.64416
2.66764
2.71686
2.73041
2.68786
2.70284
2.63445
2.62323
2.64334
2.67466
2.69278
2.66842
2.64145
2.66525
2.69887
2.70534
2.67244
2.68636
2.61984
2.60903
2.62986
2.65364
2.66668
2.65117
2.6387
2.66404
2.68266
2.68379
2.65987
2.67361
2.60707
2.59716
2.61927
2.63708
2.64448
2.63549
2.63548
2.66329
2.66791
2.66554
2.65004
2.66436
2.59629
2.5876
2.61145
2.62498
2.62653
2.62138
2.6315
2.66237
2.65443
2.65037
2.64284
2.65841
2.58766
2.58037
2.60632
2.6174
2.61294
2.60876
2.62658
2.66077
2.64208
2.63807
2.63816
2.65562
2.58136
2.57546
2.60385
2.61441
2.60374
2.59832
2.62074
2.65817
2.63061
2.62842
2.63582
2.65585
2.57755
2.57285
2.60406
2.61601
2.59893
2.5905
2.61403
2.6544
2.62005
2.62122
2.6356
2.6589
2.57641
2.57249
2.60704
2.62226
2.5985
2.58495
2.60679
2.64948
2.61135
2.61624
2.63727
2.66466
2.57791
2.57425
2.61288
2.63306
2.60237
2.58174
2.59963
2.64358
2.60435
2.61326
2.64062
2.67291
2.58159
2.57798
2.62166
2.64824
2.61048
2.58114
2.59299
2.63698
2.59884
2.6121
2.64554
2.68338
2.58712
2.58388
2.63335
2.66747
2.62267
2.58342
2.58732
2.63002
2.59453
2.61259
2.65189
2.69578
2.59472
2.59381
2.64777
2.69028
2.63869
2.58873
2.58312
2.62301
2.59138
2.61457
2.65963
2.70972
2.60434
2.60738
2.66452
2.71651
2.65822
2.59731
2.58083
2.61625
2.58943
2.61788
2.66885
2.72507
2.61596
2.62277
2.68333
2.74543
2.68082
2.60941
2.58092
2.61004
2.58869
2.62223
2.67952
2.74156
156509
156509
156509
156509
156509
156509
156509
156509
156509
156509
156509
156509
25862
25862
25860.8
25864.8
25865.3
25863.7
25863.7
25860.9
25861.2
25863.2
25865.5
25871.6
8658.75
8656.22
8655.37
8658.65
8659.56
8660.64
8660.74
8656.85
8659.94
8659.3
8658.66
8666.04
4210.42
4209.36
4209.05
4211.89
4212.43
4212.47
4211.67
4208.41
4210.82
4211.21
4210.77
4216.64
2478.41
2477.44
2477.51
2480.05
2480.54
2480.73
2479.38
2476.06
2478.88
2479.23
2478.07
2483.58
1657.17
1655.84
1656.18
1658.47
1659.04
1659.74
1658.08
1654.57
1657.98
1657.97
1655.92
1661.32
1215.68
1213.78
1214.29
1216.34
1217.03
1218.37
1216.64
1213.04
1216.93
1216.43
1213.53
1218.79
956.507
953.97
954.544
956.337
957.161
959.153
957.569
954.019
958.175
957.152
953.588
958.586
793.871
790.733
791.28
792.793
793.728
796.306
795.047
791.723
795.877
794.289
790.362
795.004
685.775
682.144
682.597
683.813
684.818
687.865
687.049
684.105
688.001
685.881
681.875
686.107
610.054
606.094
606.411
607.318
608.341
611.716
611.405
608.959
612.377
609.777
605.962
609.771
554.284
550.195
550.359
550.953
551.942
555.494
555.703
553.835
556.602
553.59
550.196
553.588
511.157
507.161
507.174
507.454
508.366
511.943
512.651
511.41
513.398
510.06
507.264
510.242
476.201
472.516
472.392
472.364
473.167
476.617
477.783
477.194
478.319
474.756
472.683
475.232
446.568
443.405
443.161
442.84
443.512
446.682
448.249
448.326
448.542
444.87
443.6
445.679
420.387
417.933
417.592
417.002
417.53
420.266
422.169
422.916
422.212
418.561
418.134
419.674
396.386
394.803
394.395
393.574
393.948
396.093
398.257
399.675
398.1
394.588
395.006
395.918
373.686
373.11
372.672
371.669
371.882
373.277
375.621
377.706
375.424
372.115
373.322
373.509
351.786
352.212
351.795
350.672
350.714
351.309
353.778
356.39
353.518
350.575
352.458
351.824
330.192
331.633
331.336
330.155
330.015
329.824
332.268
335.44
332.012
329.633
331.977
330.609
308.655
311.224
311.085
309.951
309.62
308.451
310.785
314.529
310.68
308.956
311.722
309.529
287.06
290.747
290.82
289.798
289.28
287.072
289.211
293.466
289.416
288.417
291.477
288.393
265.395
270.119
270.475
269.619
268.901
265.664
267.53
272.217
268.203
267.968
271.117
267.164
243.727
249.362
250.06
249.416
248.485
244.28
245.811
250.837
247.095
247.627
250.639
245.892
222.19
228.565
229.651
229.248
228.094
223.033
224.187
229.449
226.197
227.461
230.121
224.685
200.957
207.873
209.372
209.221
207.842
202.079
202.841
208.23
205.649
207.57
209.69
203.704
180.232
187.47
189.385
189.476
187.879
181.601
181.981
187.391
185.609
188.078
189.517
183.141
160.227
167.566
169.877
170.182
168.381
161.797
161.829
167.16
166.239
169.125
169.8
163.204
141.147
148.382
151.044
151.518
149.538
142.855
142.6
147.766
147.692
150.85
150.747
144.105
123.164
130.131
133.077
133.664
131.538
124.947
124.476
129.417
130.096
133.39
132.563
126.042
106.404
112.999
116.147
116.784
114.552
108.211
107.602
112.276
113.569
116.875
115.43
109.175
90.963
97.1273
100.386
101.018
98.7251
92.7696
92.0945
96.4649
98.2461
101.461
99.4915
93.6221
76.9724
82.6189
85.897
86.4809
84.1788
78.7159
78.034
82.0734
84.2405
87.2751
84.8618
79.4702
64.5507
69.5435
72.7552
73.2622
71.003
66.1053
65.4631
69.1527
71.6164
74.3937
71.622
66.7713
53.6823
57.9318
60.9998
61.4154
59.2491
54.9538
54.3845
57.7154
60.3894
62.8487
59.8162
55.5403
44.2489
47.7656
50.6285
50.9508
48.9222
45.2345
44.7546
47.7281
50.5208
52.6317
49.4483
45.7476
36.1505
38.9822
41.5957
41.8318
39.9746
36.8764
36.4892
39.1119
41.9335
43.6929
40.4693
37.3209
29.2964
31.5137
33.8471
34.0124
32.3462
29.7987
29.4952
31.7735
34.5459
35.9669
32.8035
30.1827
23.6008
25.293
27.3304
27.4437
25.9753
23.9189
23.6848
25.6324
28.2882
29.3994
26.3836
24.2541
18.9521
20.214
21.9567
22.0345
20.7603
19.1243
18.9455
20.5878
23.0705
23.9158
21.1169
19.4205
15.2183
16.1385
17.6017
17.6602
16.5681
15.2794
15.1412
16.508
18.776
19.406
16.8721
15.5445
12.2642
12.9224
14.1312
14.1854
13.2577
12.2462
12.1352
13.2586
15.2868
15.7522
13.5085
12.4861
9.96064
10.4246
11.4097
11.4722
10.6885
9.89047
9.79612
10.7091
12.4891
12.8357
10.8859
10.1095
8.18798
8.51233
9.3067
9.38743
8.72654
8.0868
8.00282
8.73772
10.2757
10.5414
8.87076
8.288
6.84019
7.06643
7.70214
7.80797
7.24928
6.72293
6.64738
7.23409
8.54696
8.76093
7.34196
6.90777
5.82656
5.98411
6.48983
6.62499
6.14999
5.70234
5.63641
6.10107
7.21315
7.39596
6.19405
5.8703
5.07133
5.18038
5.57964
5.7465
5.3399
4.94558
4.89029
5.25531
6.19505
6.36037
5.33955
5.09357
4.51081
4.57975
4.89785
5.08214
4.74071
4.39017
4.34091
4.62704
5.42516
5.58172
4.70914
4.51283
4.08956
4.12585
4.37229
4.5631
4.28515
3.98863
3.93029
4.15997
4.83796
4.98168
4.23679
4.0782
3.76841
3.79238
3.96222
4.15737
3.93489
3.69087
3.61666
3.80773
4.37669
4.5051
3.87495
3.7436
3.51892
3.53782
3.66124
3.84747
3.67173
3.46423
3.37601
3.53529
4.01065
4.1304
3.60043
3.48111
3.32153
3.3431
3.43446
3.61514
3.47963
3.28987
3.19222
3.32227
3.7257
3.84254
3.40026
3.27914
3.16737
3.19518
3.26369
3.44092
3.34169
3.15656
3.05104
3.15709
3.50862
3.62539
3.25541
3.12699
3.04898
3.08322
3.13659
3.3075
3.24201
3.05523
2.94232
3.03058
3.34548
3.46244
3.14642
3.01407
2.95903
2.99813
3.04267
3.20185
3.16754
2.97903
2.85992
2.93492
3.22296
3.33888
3.06235
2.93035
2.89078
2.93233
2.9715
3.11504
3.10826
2.92273
2.79852
2.86335
3.1296
3.24257
2.99598
2.86743
2.83854
2.87907
2.91422
3.04121
3.05699
2.88085
2.75338
2.81016
3.05616
3.16402
2.94216
2.81867
2.79771
2.83446
2.86632
2.97681
3.00912
2.84873
2.72055
2.77067
2.99734
3.09765
2.89656
2.77841
2.76472
2.79633
2.82566
2.92004
2.96224
2.82253
2.69684
2.7412
2.94986
3.03841
2.85483
2.74293
2.73671
2.76331
2.791
2.87012
2.91569
2.79927
2.67995
2.71899
2.90928
2.9839
2.81728
2.71464
2.71201
2.73452
2.76163
2.82675
2.87008
2.77702
2.66816
2.70211
2.87256
2.93326
2.78397
2.69226
2.69078
2.70933
2.7374
2.7898
2.82675
2.75489
2.66023
2.68922
2.83845
2.88622
2.755
2.67441
2.67174
2.6873
2.71734
2.75884
2.7872
2.73317
2.65504
2.67958
2.80642
2.84284
2.73018
2.66042
2.65442
2.66775
2.70049
2.73105
2.7525
2.71226
2.65156
2.67247
2.77625
2.80345
2.70904
2.65162
2.63885
2.65024
2.68632
2.70688
2.72221
2.69258
2.64888
2.66711
2.748
2.76836
2.69092
2.64587
2.62483
2.6347
2.67456
2.68635
2.69589
2.67463
2.64628
2.66264
2.72205
2.73773
2.67553
2.64172
2.61183
2.62111
2.66495
2.66957
2.67343
2.65882
2.6432
2.65842
2.69868
2.71126
2.66287
2.63919
2.5999
2.60941
2.65727
2.65661
2.6545
2.64522
2.63927
2.65392
2.67798
2.68842
2.65288
2.63836
2.58922
2.59958
2.65133
2.64759
2.63956
2.63382
2.6343
2.64877
2.65989
2.66899
2.64546
2.63928
2.57997
2.59156
2.64698
2.64261
2.62916
2.62497
2.6283
2.64276
2.64429
2.65297
2.6405
2.64205
2.57228
2.58535
2.64417
2.64178
2.62328
2.61815
2.62141
2.63574
2.63084
2.64021
2.63783