/*--------------------------------*- C++ -*----------------------------------*\
| =========                 |                                                 |
| \\      /  F ield         | OpenFOAM: The Open Source CFD Toolbox           |
|  \\    /   O peration     | Version:  v1912                                 |
|   \\  /    A nd           | Website:  www.openfoam.com                      |
|    \\/     M anipulation  |                                                 |
\*---------------------------------------------------------------------------*/
FoamFile
{
    version     2.0;
    format      ascii;
    class       surfaceScalarField;
    location    "8";
    object      phi;
}
// * * * * * * * * * * * * * * * * * * * * * * * * * * * * * * * * * * * * * //

dimensions      [1 0 -1 0 0 0 0];
oriented        oriented;


internalField   nonuniform List<scalar> 
97428
(
2.2993e-09
7.96418e-09
-2.50193e-07
1.10954e-09
9.02071e-09
-2.52816e-07
9.65609e-11
9.0263e-09
-2.54406e-07
-5.27862e-10
8.71659e-09
-2.56796e-07
-4.27619e-10
8.39104e-09
-2.56003e-07
8.5624e-10
7.77376e-09
-2.53954e-07
1.26381e-09
8.08894e-09
-2.50304e-07
4.65658e-10
8.62462e-09
-2.46023e-07
1.04438e-09
8.16422e-09
-2.48248e-07
1.2569e-09
8.30969e-09
-2.49901e-07
-4.87361e-10
8.84175e-09
-2.5169e-07
7.9017e-09
-2.59265e-07
6.53947e-09
3.20109e-08
-7.75069e-07
3.00212e-09
3.56624e-08
-7.82869e-07
4.50147e-11
3.56203e-08
-7.87742e-07
-1.54268e-09
3.41381e-08
-7.94812e-07
-9.70702e-10
3.28771e-08
-7.92401e-07
2.79544e-09
3.0854e-08
-7.86296e-07
3.84482e-09
3.22452e-08
-7.75119e-07
1.15615e-09
3.45077e-08
-7.62279e-07
2.88158e-09
3.23988e-08
-7.69213e-07
3.66408e-09
3.2796e-08
-7.74058e-07
-1.40297e-09
3.48017e-08
-7.79127e-07
3.12436e-08
-8.01838e-07
1.07213e-08
7.23161e-08
-1.33209e-06
4.72541e-09
7.97335e-08
-1.34496e-06
-1.77851e-10
7.94458e-08
-1.35332e-06
-2.62316e-09
7.58063e-08
-1.36504e-06
-1.42832e-09
7.30183e-08
-1.36105e-06
4.82485e-09
6.90871e-08
-1.35101e-06
6.41104e-09
7.24859e-08
-1.33186e-06
1.63761e-09
7.77575e-08
-1.31024e-06
4.557e-09
7.26568e-08
-1.32242e-06
6.07326e-09
7.32433e-08
-1.33034e-06
-2.27639e-09
7.75839e-08
-1.33812e-06
6.97341e-08
-1.37614e-06
1.50253e-08
1.2876e-07
-1.91919e-06
6.39842e-09
1.40868e-07
-1.93688e-06
-5.64147e-10
1.4002e-07
-1.94896e-06
-3.82611e-09
1.33092e-07
-1.96528e-06
-1.94798e-09
1.28249e-07
-1.95983e-06
6.80073e-09
1.22122e-07
-1.94617e-06
8.8665e-09
1.28631e-07
-1.91857e-06
1.91273e-09
1.38267e-07
-1.8879e-06
6.10958e-09
1.28763e-07
-1.90604e-06
8.52843e-09
1.29325e-07
-1.91682e-06
-3.0893e-09
1.36775e-07
-1.92641e-06
1.22856e-07
-1.97977e-06
1.95756e-08
2.00954e-07
-2.53393e-06
8.12405e-09
2.18488e-07
-2.55605e-06
-1.07918e-09
2.16674e-07
-2.57212e-06
-5.19988e-09
2.05224e-07
-2.59291e-06
-2.64227e-09
1.97853e-07
-2.58625e-06
8.5884e-09
1.89424e-07
-2.56948e-06
1.11156e-08
2.00301e-07
-2.53297e-06
1.95608e-09
2.15737e-07
-2.49296e-06
7.5622e-09
2.00383e-07
-2.51789e-06
1.10609e-08
2.00584e-07
-2.53127e-06
-3.80463e-09
2.11819e-07
-2.54144e-06
1.89914e-07
-2.60992e-06
2.44677e-08
2.88255e-07
-3.17356e-06
9.98217e-09
3.11825e-07
-3.19958e-06
-1.702e-09
3.08576e-07
-3.21994e-06
-6.78248e-09
2.91292e-07
-3.24503e-06
-3.61053e-09
2.80983e-07
-3.23751e-06
1.00635e-08
2.70278e-07
-3.21834e-06
1.30603e-08
2.86932e-07
-3.17253e-06
1.73212e-09
3.09691e-07
-3.12292e-06
8.9306e-09
2.87014e-07
-3.15555e-06
1.36975e-08
2.86432e-07
-3.17116e-06
-4.38697e-09
3.0204e-07
-3.18043e-06
2.70066e-07
-3.26355e-06
2.97677e-08
3.89817e-07
-3.83516e-06
1.2033e-08
4.19964e-07
-3.8644e-06
-2.41035e-09
4.14764e-07
-3.88934e-06
-8.59385e-09
3.90288e-07
-3.91855e-06
-4.92679e-09
3.7669e-07
-3.91064e-06
1.11198e-08
3.63811e-07
-3.88996e-06
1.46086e-08
3.87798e-07
-3.83461e-06
1.20501e-09
4.19493e-07
-3.77516e-06
1.02266e-08
3.87983e-07
-3.81643e-06
1.64564e-08
3.86154e-07
-3.83387e-06
-4.80561e-09
4.06674e-07
-3.84054e-06
3.62368e-07
-3.93749e-06
3.55124e-08
5.04671e-07
-4.5158e-06
1.43196e-08
5.41921e-07
-4.54746e-06
-3.17645e-09
5.342e-07
-4.57724e-06
-1.06333e-08
5.01161e-07
-4.61039e-06
-6.64131e-09
4.83973e-07
-4.60268e-06
1.16729e-08
4.69029e-07
-4.58153e-06
1.56813e-08
5.02049e-07
-4.51655e-06
3.44732e-10
5.44386e-07
-4.44709e-06
1.14616e-08
5.02473e-07
-4.49793e-06
1.93472e-08
4.98945e-07
-4.51674e-06
-5.03539e-09
5.24913e-07
-4.51898e-06
4.65849e-07
-4.62872e-06
4.17133e-08
6.3182e-07
-5.21279e-06
1.68723e-08
6.76719e-07
-5.24594e-06
-3.96393e-09
6.65839e-07
-5.28077e-06
-1.28787e-08
6.22882e-07
-5.31775e-06
-8.7777e-09
6.01839e-07
-5.31089e-06
1.16629e-08
5.84868e-07
-5.29036e-06
1.62169e-08
6.28751e-07
-5.21586e-06
-8.58095e-10
6.83522e-07
-5.13628e-06
1.26505e-08
6.29559e-07
-5.19755e-06
2.2371e-08
6.23937e-07
-5.21731e-06
-5.05693e-09
6.55951e-07
-5.21325e-06
5.79583e-07
-5.33451e-06
4.83615e-08
7.70338e-07
-5.92388e-06
1.9713e-08
8.23476e-07
-5.95743e-06
-4.72544e-09
8.08707e-07
-5.99742e-06
-1.52866e-08
7.54509e-07
-6.03822e-06
-1.13338e-08
7.29348e-07
-6.03293e-06
1.10561e-08
7.10251e-07
-6.01409e-06
1.6177e-08
7.6694e-07
-5.93036e-06
-2.40067e-09
8.36019e-07
-5.84064e-06
1.38156e-08
7.68253e-07
-5.91313e-06
2.55227e-08
7.60243e-07
-5.93344e-06
-4.85591e-09
7.99024e-07
-5.92123e-06
7.02754e-07
-6.05269e-06
5.5433e-08
9.19426e-07
-6.64739e-06
2.28601e-08
9.81456e-07
-6.68013e-06
-5.40102e-09
9.61965e-07
-6.72527e-06
-1.77935e-08
8.9524e-07
-6.76999e-06
-1.42828e-08
8.65664e-07
-6.76697e-06
9.84555e-09
8.44148e-07
-6.7508e-06
1.55497e-08
9.15666e-07
-6.65826e-06
-4.25401e-09
1.001e-06
-6.55845e-06
1.49897e-08
9.17551e-07
-6.64288e-06
2.87927e-08
9.06985e-07
-6.66339e-06
-4.42163e-09
9.53436e-07
-6.64135e-06
8.34691e-07
-6.78175e-06
6.28931e-08
1.07842e-06
-7.38229e-06
2.63325e-08
1.15009e-06
-7.41284e-06
-5.91705e-09
1.12495e-06
-7.46296e-06
-2.03176e-08
1.04445e-06
-7.51182e-06
-1.75754e-08
1.01008e-06
-7.51171e-06
8.05109e-09
9.85622e-07
-7.49906e-06
1.43517e-08
1.07404e-06
-7.39824e-06
-6.35825e-09
1.17763e-06
-7.28849e-06
1.62191e-08
1.07649e-06
-7.38549e-06
3.21686e-08
1.06332e-06
-7.40588e-06
-3.74528e-09
1.11857e-06
-7.37251e-06
9.74866e-07
-7.52079e-06
7.07004e-08
1.24674e-06
-8.12813e-06
3.01534e-08
1.32897e-06
-8.15496e-06
-6.18576e-09
1.2972e-06
-8.20981e-06
-2.27607e-08
1.20167e-06
-8.2631e-06
-2.11414e-08
1.16203e-06
-8.26644e-06
5.71891e-09
1.13386e-06
-8.25799e-06
1.26309e-08
1.24124e-06
-8.14946e-06
-8.62322e-09
1.36516e-06
-8.03001e-06
1.75658e-08
1.24416e-06
-8.14018e-06
3.56371e-08
1.22846e-06
-8.16013e-06
-2.81792e-09
1.29387e-06
-8.11416e-06
1.12285e-06
-8.26952e-06
7.88056e-08
1.42381e-06
-8.88476e-06
3.43508e-08
1.51776e-06
-8.9063e-06
-6.10538e-09
1.47839e-06
-8.96553e-06
-2.50091e-08
1.3666e-06
-9.0236e-06
-2.489e-08
1.32105e-06
-9.03075e-06
2.9219e-09
1.28817e-06
-9.02704e-06
1.04672e-08
1.41654e-06
-8.9114e-06
-1.0925e-08
1.56285e-06
-8.78264e-06
1.91082e-08
1.41971e-06
-8.90646e-06
3.91847e-08
1.40165e-06
-8.9256e-06
-1.6287e-09
1.47882e-06
-8.86603e-06
1.27825e-06
-9.02794e-06
8.71493e-08
1.60899e-06
-9.65208e-06
3.8957e-08
1.7162e-06
-9.66676e-06
-5.56186e-09
1.66836e-06
-9.73004e-06
-2.69365e-08
1.53903e-06
-9.79317e-06
-2.87105e-08
1.48683e-06
-9.80434e-06
-2.39529e-10
1.44801e-06
-9.80578e-06
7.97522e-09
1.59929e-06
-9.68364e-06
-1.31043e-08
1.77005e-06
-9.54608e-06
2.09407e-08
1.60235e-06
-9.68395e-06
4.27977e-08
1.58222e-06
-9.70182e-06
-1.61782e-10
1.6729e-06
-9.62795e-06
1.44067e-06
-9.79609e-06
9.56622e-08
1.80149e-06
-1.04299e-05
4.40071e-08
1.92397e-06
-1.04363e-05
-4.43261e-09
1.86697e-06
-1.05033e-05
-2.84076e-08
1.71882e-06
-1.05717e-05
-3.24741e-08
1.65908e-06
-1.05869e-05
-3.63784e-09
1.6129e-06
-1.05938e-05
5.30422e-09
1.78891e-06
-1.04658e-05
-1.49673e-08
1.98609e-06
-1.03201e-05
2.31727e-08
1.79129e-06
-1.04723e-05
4.64639e-08
1.76951e-06
-1.04883e-05
1.59745e-09
1.87555e-06
-1.03997e-05
1.6096e-06
-1.05739e-05
1.04263e-07
2.00037e-06
-1.12178e-05
4.95362e-08
2.14071e-06
-1.12147e-05
-2.59267e-09
2.07408e-06
-1.12853e-05
-2.92847e-08
1.9058e-06
-1.13591e-05
-3.60366e-08
1.83754e-06
-1.13782e-05
-7.11956e-09
1.78236e-06
-1.13907e-05
2.63722e-09
1.98478e-06
-1.12575e-05
-1.62897e-08
2.21023e-06
-1.11045e-05
2.59253e-08
1.98573e-06
-1.1271e-05
5.0173e-08
1.96288e-06
-1.12846e-05
3.65468e-09
2.08612e-06
-1.11811e-05
1.7844e-06
-1.13611e-05
1.1286e-07
2.20444e-06
-1.20152e-05
5.55745e-08
2.36585e-06
-1.20016e-05
7.65127e-11
2.2894e-06
-1.20757e-05
-2.94351e-08
2.09969e-06
-1.21548e-05
-3.92429e-08
2.02186e-06
-1.21776e-05
-1.05071e-08
1.95587e-06
-1.21958e-05
1.90343e-10
2.18625e-06
-1.20581e-05
-1.68233e-08
2.44162e-06
-1.18987e-05
2.93248e-08
2.18473e-06
-1.20794e-05
5.39175e-08
2.16166e-06
-1.20899e-05
6.05588e-09
2.30377e-06
-1.19715e-05
1.96427e-06
-1.21572e-05
1.21347e-07
2.41232e-06
-1.28211e-05
6.21408e-08
2.59868e-06
-1.27964e-05
3.67502e-09
2.51249e-06
-1.28738e-05
-2.87415e-08
2.30009e-06
-1.29581e-05
-4.19328e-08
2.21156e-06
-1.29841e-05
-1.3605e-08
2.13273e-06
-1.30081e-05
-1.81072e-09
2.39248e-06
-1.28667e-05
-1.63085e-08
2.67921e-06
-1.27019e-05
3.34949e-08
2.38723e-06
-1.28964e-05
5.7693e-08
2.36506e-06
-1.2903e-05
8.82445e-09
2.52748e-06
-1.27701e-05
2.14817e-06
-1.29611e-05
1.29606e-07
2.62244e-06
-1.3634e-05
6.92352e-08
2.83822e-06
-1.35981e-05
8.28019e-09
2.74264e-06
-1.36788e-05
-2.71124e-08
2.50639e-06
-1.37678e-05
-4.39496e-08
2.40599e-06
-1.37965e-05
-1.62068e-08
2.31209e-06
-1.38262e-05
-3.10949e-09
2.60247e-06
-1.3682e-05
-1.44898e-08
2.92172e-06
-1.35132e-05
3.85453e-08
2.59197e-06
-1.37206e-05
6.1498e-08
2.57216e-06
-1.37227e-05
1.19935e-08
2.75601e-06
-1.35758e-05
2.33487e-06
-1.37716e-05
1.37508e-07
2.83298e-06
-1.44524e-05
7.68312e-08
3.08326e-06
-1.44053e-05
1.39156e-08
2.9789e-06
-1.44893e-05
-2.44943e-08
2.71777e-06
-1.45823e-05
-4.51495e-08
2.60428e-06
-1.46133e-05
-1.81062e-08
2.49285e-06
-1.46483e-05
-3.46295e-09
2.81495e-06
-1.45024e-05
-1.1137e-08
3.16763e-06
-1.4331e-05
4.45596e-08
2.79752e-06
-1.455e-05
6.53338e-08
2.78188e-06
-1.4547e-05
1.56004e-08
2.98786e-06
-1.43871e-05
2.52288e-06
-1.4587e-05
1.44914e-07
3.0419e-06
-1.52743e-05
8.48682e-08
3.3323e-06
-1.52166e-05
2.05562e-08
3.22006e-06
-1.53036e-05
-2.08805e-08
2.93321e-06
-1.53999e-05
-4.54113e-08
2.80537e-06
-1.54326e-05
-1.91088e-08
2.67369e-06
-1.54724e-05
-2.64661e-09
3.02839e-06
-1.5326e-05
-6.06701e-09
3.41519e-06
-1.51534e-05
5.15814e-08
3.00227e-06
-1.53825e-05
6.92041e-08
2.99296e-06
-1.53739e-05
1.9685e-08
3.22129e-06
-1.52022e-05
2.71055e-06
-1.54053e-05
1.51676e-07
3.24697e-06
-1.60973e-05
9.3245e-08
3.58357e-06
-1.603e-05
2.81147e-08
3.46467e-06
-1.61197e-05
-1.63183e-08
3.15148e-06
-1.62186e-05
-4.46457e-08
3.00796e-06
-1.62521e-05
-1.90452e-08
2.85308e-06
-1.62961e-05
-4.7372e-10
3.24102e-06
-1.61503e-05
8.3261e-10
3.66239e-06
-1.59783e-05
5.96029e-08
3.20449e-06
-1.62154e-05
7.31141e-08
3.20398e-06
-1.62008e-05
2.42883e-08
3.45435e-06
-1.60191e-05
2.89604e-06
-1.62242e-05
1.57642e-07
3.44572e-06
-1.69188e-05
1.01817e-07
3.83504e-06
-1.68433e-05
3.64324e-08
3.71104e-06
-1.69356e-05
-1.09112e-08
3.37115e-06
-1.70359e-05
-4.28014e-08
3.21057e-06
-1.70696e-05
-1.7783e-08
3.02932e-06
-1.71168e-05
3.1879e-09
3.45082e-06
-1.69729e-05
9.58664e-09
3.90706e-06
-1.68033e-05
6.85551e-08
3.40237e-06
-1.70459e-05
7.70702e-08
3.41338e-06
-1.70252e-05
2.94502e-08
3.68487e-06
-1.68354e-05
3.07739e-06
-1.70412e-05
1.6266e-07
3.63558e-06
-1.77362e-05
1.10393e-07
4.08443e-06
-1.76544e-05
4.52864e-08
3.95728e-06
-1.77488e-05
-4.81669e-09
3.59063e-06
-1.78495e-05
-3.98697e-08
3.41152e-06
-1.78828e-05
-1.52362e-08
3.20055e-06
-1.7932e-05
8.38818e-09
3.65561e-06
-1.77912e-05
2.01135e-08
4.14683e-06
-1.76257e-05
7.8303e-08
3.59408e-06
-1.78711e-05
8.10789e-08
3.61952e-06
-1.78444e-05
3.52068e-08
3.91049e-06
-1.76487e-05
3.25255e-06
-1.78536e-05
1.66585e-07
3.81389e-06
-1.85466e-05
1.18743e-07
4.32925e-06
-1.84606e-05
5.43939e-08
4.20131e-06
-1.85569e-05
1.76285e-09
3.80816e-06
-1.86571e-05
-3.58839e-08
3.60899e-06
-1.86892e-05
-1.13718e-08
3.3648e-06
-1.87389e-05
1.51144e-08
3.85306e-06
-1.86022e-05
3.22533e-08
4.37926e-06
-1.84428e-05
8.86466e-08
3.77784e-06
-1.86882e-05
8.51466e-08
3.82065e-06
-1.86557e-05
4.15878e-08
4.12876e-06
-1.84565e-05
3.41948e-06
-1.86589e-05
1.69284e-07
3.97799e-06
-1.93472e-05
1.26604e-07
4.5669e-06
-1.92597e-05
6.34263e-08
4.44092e-06
-1.93576e-05
8.58643e-09
4.02185e-06
-1.94562e-05
-3.09169e-08
3.801e-06
-1.94865e-05
-6.21168e-09
3.52009e-06
-1.95351e-05
2.3262e-08
4.04077e-06
-1.94034e-05
4.56746e-08
4.60192e-06
-1.92518e-05
9.93272e-08
3.95196e-06
-1.94944e-05
8.92792e-08
4.01501e-06
-1.94566e-05
4.86136e-08
4.33712e-06
-1.92564e-05
3.57615e-06
-1.94544e-05
1.70643e-07
4.12536e-06
-2.01352e-05
1.33691e-07
4.79468e-06
-2.00492e-05
7.20273e-08
4.67382e-06
-2.01483e-05
1.54026e-08
4.22971e-06
-2.02446e-05
-2.5074e-08
3.9855e-06
-2.02725e-05
1.71259e-10
3.6644e-06
-2.03182e-05
3.26445e-08
4.21641e-06
-2.01921e-05
6.00019e-08
4.81241e-06
-2.00501e-05
1.10041e-07
4.11492e-06
-2.02869e-05
9.34819e-08
4.20082e-06
-2.02447e-05
5.62924e-08
4.53302e-06
-2.00458e-05
3.7207e-06
-2.02376e-05
1.70578e-07
4.25368e-06
-2.09083e-05
1.39714e-07
5.00988e-06
-2.08266e-05
7.98359e-08
4.89764e-06
-2.09269e-05
2.19558e-08
4.42968e-06
-2.102e-05
-1.84842e-08
4.16035e-06
-2.10452e-05
7.64768e-09
3.79582e-06
-2.10861e-05
4.30098e-08
4.37771e-06
-2.0966e-05
7.47727e-08
5.0085e-06
-2.08349e-05
1.20455e-07
4.26538e-06
-2.10636e-05
9.77596e-08
4.37633e-06
-2.10178e-05
6.46174e-08
4.71396e-06
-2.08224e-05
3.85142e-06
-2.10062e-05
1.69035e-07
4.36095e-06
-2.16644e-05
1.44397e-07
5.20989e-06
-2.15899e-05
8.65103e-08
5.11005e-06
-2.16912e-05
2.80104e-08
4.61968e-06
-2.17807e-05
-1.12899e-08
4.32342e-06
-2.18026e-05
1.60661e-08
3.91255e-06
-2.1837e-05
5.40492e-08
4.52263e-06
-2.1723e-05
8.94798e-08
5.18818e-06
-2.1604e-05
1.30231e-07
4.40224e-06
-2.18225e-05
1.02117e-07
4.53982e-06
-2.17743e-05
7.35646e-08
4.87758e-06
-2.15843e-05
3.9669e-06
-2.17582e-05
1.66004e-07
4.44558e-06
-2.24016e-05
1.47494e-07
5.39227e-06
-2.23371e-05
9.17512e-08
5.30879e-06
-2.24394e-05
3.33662e-08
4.79763e-06
-2.25249e-05
-3.62823e-09
4.47263e-06
-2.25434e-05
2.52377e-08
4.01304e-06
-2.25693e-05
6.54214e-08
4.64945e-06
-2.24614e-05
1.03604e-07
5.34976e-06
-2.23556e-05
1.39044e-07
4.52466e-06
-2.25621e-05
1.06556e-07
4.68967e-06
-2.25128e-05
8.30905e-08
5.02174e-06
-2.23296e-05
4.06605e-06
-2.24921e-05
1.61514e-07
4.50646e-06
-2.31188e-05
1.48805e-07
5.55483e-06
-2.30667e-05
9.53225e-08
5.49173e-06
-2.317e-05
3.78719e-08
4.96156e-06
-2.32513e-05
4.3191e-09
4.60602e-06
-2.32664e-05
3.49605e-08
4.09594e-06
-2.32823e-05
7.67737e-08
4.75681e-06
-2.318e-05
1.16648e-07
5.49194e-06
-2.30879e-05
1.4661e-07
4.63206e-06
-2.32813e-05
1.11079e-07
4.82433e-06
-2.32322e-05
9.31299e-08
5.1446e-06
-2.3057e-05
4.14814e-06
-2.32066e-05
1.55638e-07
4.54302e-06
-2.38153e-05
1.48195e-07
5.69571e-06
-2.37776e-05
9.70676e-08
5.65697e-06
-2.38818e-05
4.14333e-08
5.10961e-06
-2.39592e-05
1.24599e-08
4.72179e-06
-2.39706e-05
4.50282e-08
4.16031e-06
-2.39752e-05
8.77649e-08
4.84381e-06
-2.3878e-05
1.28169e-07
5.61386e-06
-2.37999e-05
1.52698e-07
4.72409e-06
-2.39796e-05
1.15683e-07
4.9424e-06
-2.39321e-05
1.03595e-07
5.24465e-06
-2.37655e-05
4.21286e-06
-2.39011e-05
1.48491e-07
4.55525e-06
-2.44908e-05
1.456e-07
5.81346e-06
-2.44689e-05
9.69187e-08
5.80286e-06
-2.45743e-05
4.40168e-08
5.24012e-06
-2.46478e-05
2.0665e-08
4.81841e-06
-2.46559e-05
5.52388e-08
4.20554e-06
-2.46481e-05
9.80847e-08
4.91005e-06
-2.45552e-05
1.37809e-07
5.7151e-06
-2.44912e-05
1.5715e-07
4.80069e-06
-2.46571e-05
1.20359e-07
5.0426e-06
-2.46124e-05
1.14374e-07
5.32085e-06
-2.44546e-05
4.26032e-06
-2.45754e-05
1.40225e-07
4.54371e-06
-2.51459e-05
1.41036e-07
5.90709e-06
-2.51406e-05
9.49001e-08
5.92808e-06
-2.52473e-05
4.56466e-08
5.35165e-06
-2.53173e-05
2.88314e-08
4.89465e-06
-2.53222e-05
6.54007e-08
4.23143e-06
-2.53014e-05
1.07471e-07
4.95564e-06
-2.5212e-05
1.45314e-07
5.79577e-06
-2.51618e-05
1.59887e-07
4.86195e-06
-2.53142e-05
1.25092e-07
5.12387e-06
-2.52733e-05
1.25328e-07
5.37258e-06
-2.51243e-05
4.29102e-06
-2.52299e-05
1.31026e-07
4.5095e-06
-2.57815e-05
1.34598e-07
5.97611e-06
-2.57928e-05
9.11257e-08
6.03165e-06
-2.59009e-05
4.63978e-08
5.44309e-06
-2.59678e-05
3.68685e-08
4.94963e-06
-2.59699e-05
7.53356e-08
4.2382e-06
-2.5936e-05
1.15719e-07
4.98119e-06
-2.58494e-05
1.50546e-07
5.85637e-06
-2.58123e-05
1.60915e-07
4.90819e-06
-2.59518e-05
1.2985e-07
5.18534e-06
-2.59156e-05
1.36296e-07
5.39973e-06
-2.57751e-05
4.30583e-06
-2.58655e-05
1.21101e-07
4.45414e-06
-2.6399e-05
1.26459e-07
6.0205e-06
-2.64264e-05
8.57914e-08
6.113e-06
-2.65359e-05
4.63874e-08
5.51366e-06
-2.66003e-05
4.46944e-08
4.9829e-06
-2.65999e-05
8.488e-08
4.22645e-06
-2.65532e-05
1.2269e-07
4.98777e-06
-2.64685e-05
1.53492e-07
5.89784e-06
-2.64437e-05
1.60319e-07
4.9399e-06
-2.65715e-05
1.34593e-07
5.22644e-06
-2.65404e-05
1.47086e-07
5.40267e-06
-2.64078e-05
4.3059e-06
-2.64833e-05
1.10679e-07
4.37968e-06
-2.70003e-05
1.16869e-07
6.04089e-06
-2.70426e-05
7.91654e-08
6.17213e-06
-2.71536e-05
4.57618e-08
5.56314e-06
-2.7216e-05
5.22293e-08
4.99458e-06
-2.72137e-05
9.38827e-08
4.19732e-06
-2.71548e-05
1.28311e-07
4.97698e-06
-2.70713e-05
1.54259e-07
5.92154e-06
-2.70577e-05
1.58264e-07
4.95791e-06
-2.7175e-05
1.39263e-07
5.24711e-06
-2.71494e-05
1.57488e-07
5.38236e-06
-2.70239e-05
4.29281e-06
-2.70853e-05
9.99993e-08
4.28865e-06
-2.75878e-05
1.06131e-07
6.03858e-06
-2.76434e-05
7.15534e-08
6.20957e-06
-2.7756e-05
4.46755e-08
5.5918e-06
-2.78169e-05
5.93956e-08
4.98533e-06
-2.78129e-05
1.02205e-07
4.15234e-06
-2.7743e-05
1.32572e-07
4.95086e-06
-2.76602e-05
1.53072e-07
5.92928e-06
-2.76565e-05
1.54984e-07
4.96327e-06
-2.77646e-05
1.43785e-07
5.24768e-06
-2.77445e-05
1.67268e-07
5.34035e-06
-2.76253e-05
4.26839e-06
-2.76736e-05
8.9288e-08
4.18386e-06
-2.8164e-05
9.45661e-08
6.01519e-06
-2.82311e-05
6.32672e-08
6.22611e-06
-2.83451e-05
4.32742e-08
5.60013e-06
-2.84048e-05
6.61307e-08
4.95606e-06
-2.83998e-05
1.09758e-07
4.09316e-06
-2.83203e-05
1.35538e-07
4.91153e-06
-2.82376e-05
1.50234e-07
5.92297e-06
-2.82426e-05
1.50741e-07
4.95691e-06
-2.83428e-05
1.48071e-07
5.22865e-06
-2.83279e-05
1.76203e-07
5.27851e-06
-2.82141e-05
4.23445e-06
-2.82507e-05
7.87454e-08
4.06807e-06
-2.87318e-05
8.25172e-08
5.97253e-06
-2.8808e-05
5.46415e-08
6.22273e-06
-2.89231e-05
4.17022e-08
5.58886e-06
-2.8982e-05
7.23714e-08
4.908e-06
-2.89766e-05
1.16468e-07
4.02158e-06
-2.88892e-05
1.37322e-07
4.86113e-06
-2.88064e-05
1.461e-07
5.90449e-06
-2.88185e-05
1.45816e-07
4.9397e-06
-2.89121e-05
1.52034e-07
5.19074e-06
-2.89019e-05
1.84083e-07
5.19894e-06
-2.87929e-05
4.1927e-06
-2.88192e-05
6.85671e-08
3.94388e-06
-2.92939e-05
7.03607e-08
5.9126e-06
-2.93766e-05
4.60164e-08
6.20077e-06
-2.94926e-05
4.00924e-08
5.5591e-06
-2.95509e-05
7.80489e-08
4.84271e-06
-2.95456e-05
1.2226e-07
3.93952e-06
-2.94522e-05
1.38058e-07
4.80181e-06
-2.93692e-05
1.41066e-07
5.87571e-06
-2.93872e-05
1.40509e-07
4.91253e-06
-2.94752e-05
1.55585e-07
5.13496e-06
-2.94689e-05
1.90705e-07
5.10398e-06
-2.93641e-05
4.14482e-06
-2.93818e-05
5.89207e-08
3.81368e-06
-2.98529e-05
5.84477e-08
5.83758e-06
-2.99397e-05
3.76935e-08
6.16179e-06
-3.00562e-05
3.85497e-08
5.51225e-06
-3.0114e-05
8.31058e-08
4.76203e-06
-3.01094e-05
1.27088e-07
3.8489e-06
-3.00118e-05
1.37909e-07
4.73561e-06
-2.99286e-05
1.35524e-07
5.8384e-06
-2.99513e-05
1.35093e-07
4.87629e-06
-3.00345e-05
1.58636e-07
5.06259e-06
-3.00313e-05
1.95896e-07
4.99607e-06
-2.99304e-05
4.09233e-06
-2.9941e-05
4.99358e-08
3.67962e-06
-3.04114e-05
4.70841e-08
5.74966e-06
-3.04999e-05
2.99225e-08
6.10752e-06
-3.06163e-05
3.71502e-08
5.44989e-06
-3.06738e-05
8.74974e-08
4.6679e-06
-3.06704e-05
1.30928e-07
3.75159e-06
-3.05705e-05
1.37042e-07
4.66436e-06
-3.04872e-05
1.29835e-07
5.79415e-06
-3.05135e-05
1.29805e-07
4.83183e-06
-3.05927e-05
1.61113e-07
4.97509e-06
-3.05916e-05
1.99526e-07
4.87768e-06
-3.04942e-05
4.03657e-06
-3.04992e-05
4.1704e-08
3.54347e-06
-3.09714e-05
3.65202e-08
5.6509e-06
-3.10596e-05
2.28949e-08
6.03969e-06
-3.11756e-05
3.59426e-08
5.37366e-06
-3.12327e-05
9.1195e-08
4.5623e-06
-3.1231e-05
1.3378e-07
3.64928e-06
-3.11304e-05
1.35614e-07
4.58959e-06
-3.10473e-05
1.243e-07
5.74429e-06
-3.10763e-05
1.2483e-07
4.77996e-06
-3.11519e-05
1.62958e-07
4.87401e-06
-3.11521e-05
2.01506e-07
4.75116e-06
-3.10578e-05
3.97861e-06
-3.10586e-05
3.42799e-08
3.40664e-06
-3.1535e-05
2.69399e-08
5.54315e-06
-3.16211e-05
1.67379e-08
5.96e-06
-3.17363e-05
3.49477e-08
5.28524e-06
-3.17929e-05
9.4185e-08
4.44714e-06
-3.17933e-05
1.35662e-07
3.54346e-06
-3.16935e-05
1.33762e-07
4.51248e-06
-3.16108e-05
1.19148e-07
5.68986e-06
-3.16417e-05
1.20297e-07
4.72134e-06
-3.17142e-05
1.64133e-07
4.76096e-06
-3.17149e-05
2.01788e-07
4.61868e-06
-3.16236e-05
3.91929e-06
-3.16212e-05
2.7684e-08
3.27015e-06
-3.21035e-05
1.84567e-08
5.42802e-06
-3.21863e-05
1.1512e-08
5.87003e-06
-3.23004e-05
3.41569e-08
5.18624e-06
-3.23564e-05
9.64636e-08
4.32418e-06
-3.23592e-05
1.36605e-07
3.43536e-06
-3.22613e-05
1.31594e-07
4.4339e-06
-3.21794e-05
1.14534e-07
5.63158e-06
-3.22118e-05
1.16283e-07
4.65657e-06
-3.22813e-05
1.64614e-07
4.6375e-06
-3.22818e-05
2.00349e-07
4.48218e-06
-3.21932e-05
3.85922e-06
-3.21886e-05
2.19121e-08
3.13462e-06
-3.26783e-05
1.11207e-08
5.30681e-06
-3.27568e-05
7.21582e-09
5.77122e-06
-3.28695e-05
3.35291e-08
5.07819e-06
-3.29248e-05
9.80265e-08
4.19503e-06
-3.29302e-05
1.36641e-07
3.32596e-06
-3.28351e-05
1.29184e-07
4.35434e-06
-3.27545e-05
1.10545e-07
5.56987e-06
-3.27879e-05
1.12815e-07
4.58609e-06
-3.28545e-05
1.64383e-07
4.50517e-06
-3.28543e-05
1.97171e-07
4.34333e-06
-3.27682e-05
3.79878e-06
-3.2762e-05
1.69502e-08
3.00041e-06
-3.32604e-05
4.93882e-09
5.18057e-06
-3.33341e-05
3.79711e-09
5.66488e-06
-3.34451e-05
3.29887e-08
4.96252e-06
-3.34994e-05
9.88545e-08
4.06105e-06
-3.35076e-05
1.35799e-07
3.21599e-06
-3.34161e-05
1.26579e-07
4.27402e-06
-3.3337e-05
1.07212e-07
5.50485e-06
-3.33714e-05
1.09885e-07
4.51027e-06
-3.34351e-05
1.63419e-07
4.36543e-06
-3.34337e-05
1.9222e-07
4.20363e-06
-3.33499e-05
3.7382e-06
-3.33424e-05
1.28001e-08
2.86752e-06
-3.38504e-05
-9.00365e-11
5.04996e-06
-3.39188e-05
1.1724e-09
5.55174e-06
-3.40276e-05
3.24265e-08
4.8399e-06
-3.40804e-05
9.89002e-08
3.9232e-06
-3.40921e-05
1.34088e-07
3.10595e-06
-3.40049e-05
1.23794e-07
4.19289e-06
-3.39279e-05
1.04526e-07
5.43635e-06
-3.3963e-05
1.07453e-07
4.42941e-06
-3.4024e-05
1.61686e-07
4.2197e-06
-3.4021e-05
1.85425e-07
4.06438e-06
-3.39392e-05
3.67759e-06
-3.39308e-05
9.48071e-09
2.7358e-06
-3.4449e-05
-3.98811e-09
4.91499e-06
-3.45113e-05
-7.5601e-10
5.43167e-06
-3.46172e-05
3.17507e-08
4.70989e-06
-3.4668e-05
9.81064e-08
3.78158e-06
-3.46837e-05
1.31498e-07
2.99605e-06
-3.46021e-05
1.20825e-07
4.11065e-06
-3.45277e-05
1.02452e-07
5.364e-06
-3.45637e-05
1.05463e-07
4.34376e-06
-3.46219e-05
1.59122e-07
4.06919e-06
-3.46168e-05
1.76675e-07
3.9268e-06
-3.45369e-05
3.61688e-06
-3.45274e-05
6.9969e-09
2.60482e-06
-3.50565e-05
-6.82785e-09
4.77526e-06
-3.5112e-05
-2.10638e-09
5.30431e-06
-3.52143e-05
3.08844e-08
4.57216e-06
-3.52625e-05
9.64726e-08
3.63571e-06
-3.52828e-05
1.27996e-07
2.88613e-06
-3.5208e-05
1.17645e-07
4.02684e-06
-3.51369e-05
1.00943e-07
5.28727e-06
-3.51739e-05
1.03854e-07
4.25326e-06
-3.52291e-05
1.55645e-07
3.91467e-06
-3.52214e-05
1.65823e-07
3.79191e-06
-3.51435e-05
3.55558e-06
-3.51324e-05
5.27965e-09
2.47385e-06
-3.56729e-05
-8.76653e-09
4.63032e-06
-3.57213e-05
-3.10323e-09
5.16993e-06
-3.58195e-05
2.94821e-08
4.42729e-06
-3.58645e-05
9.38327e-08
3.48535e-06
-3.58894e-05
1.23559e-07
2.77546e-06
-3.58226e-05
1.14219e-07
3.94087e-06
-3.57561e-05
9.99595e-08
5.2055e-06
-3.57941e-05
1.02588e-07
4.15755e-06
-3.58458e-05
1.51185e-07
3.75665e-06
-3.58349e-05
1.52731e-07
3.66037e-06
-3.57591e-05
3.49286e-06
-3.57459e-05
4.32237e-09
2.34194e-06
-3.62984e-05
-9.75885e-09
4.48015e-06
-3.63399e-05
-3.82463e-09
5.02957e-06
-3.64335e-05
2.72868e-08
4.2766e-06
-3.64749e-05
8.98907e-08
3.3308e-06
-3.65041e-05
1.18127e-07
2.66322e-06
-3.64464e-05
1.10507e-07
3.85205e-06
-3.63856e-05
9.94716e-08
5.11788e-06
-3.64248e-05
1.01651e-07
4.0563e-06
-3.64726e-05
1.45715e-07
3.59578e-06
-3.64581e-05
1.37167e-07
3.53284e-06
-3.6384e-05
3.42821e-06
-3.63685e-05
4.25632e-09
2.20819e-06
-3.69335e-05
-9.72797e-09
4.32543e-06
-3.69683e-05
-4.18453e-09
4.88465e-06
-3.70572e-05
2.44663e-08
4.12163e-06
-3.70948e-05
8.45756e-08
3.17284e-06
-3.71279e-05
1.11575e-07
2.54886e-06
-3.70799e-05
1.06459e-07
3.75948e-06
-3.70256e-05
9.94509e-08
5.02343e-06
-3.70662e-05
1.01014e-07
3.94938e-06
-3.71102e-05
1.39166e-07
3.43302e-06
-3.70917e-05
1.18702e-07
3.41061e-06
-3.70189e-05
3.36181e-06
-3.70005e-05
5.04511e-09
2.0722e-06
-3.75786e-05
-8.81244e-09
4.16723e-06
-3.76073e-05
-4.1499e-09
4.73654e-06
-3.76918e-05
2.12021e-08
3.96388e-06
-3.77256e-05
7.79475e-08
3.01238e-06
-3.77618e-05
1.03798e-07
2.43212e-06
-3.77233e-05
1.02023e-07
3.66218e-06
-3.76766e-05
9.98643e-08
4.92125e-06
-3.77187e-05
1.00632e-07
3.83684e-06
-3.7759e-05
1.3132e-07
3.26978e-06
-3.77363e-05
9.70093e-08
3.29542e-06
-3.76644e-05
3.29444e-06
-3.76428e-05
6.4359e-09
1.93396e-06
-3.82342e-05
-7.19985e-09
4.00665e-06
-3.82579e-05
-3.74665e-09
4.58647e-06
-3.83383e-05
1.76351e-08
3.80467e-06
-3.83683e-05
7.01767e-08
2.8503e-06
-3.84067e-05
9.48029e-08
2.31287e-06
-3.83776e-05
9.71431e-08
3.5593e-06
-3.8339e-05
1.0066e-07
4.81056e-06
-3.83829e-05
1.00485e-07
3.71885e-06
-3.84197e-05
1.22058e-07
3.10783e-06
-3.83928e-05
7.2181e-08
3.18892e-06
-3.83213e-05
3.227e-06
-3.82961e-05
8.12694e-09
1.79366e-06
-3.89009e-05
-5.1437e-09
3.84465e-06
-3.89208e-05
-3.0286e-09
4.43536e-06
-3.89973e-05
1.38771e-08
3.64512e-06
-3.90237e-05
6.14443e-08
2.6874e-06
-3.90635e-05
8.465e-08
2.19105e-06
-3.90434e-05
9.17611e-08
3.4501e-06
-3.90132e-05
1.01751e-07
4.69062e-06
-3.90591e-05
1.00537e-07
3.59567e-06
-3.90928e-05
1.11472e-07
2.94888e-06
-3.90617e-05
4.45852e-08
3.09262e-06
-3.89902e-05
3.1604e-06
-3.89614e-05
9.88941e-09
1.65156e-06
-3.95794e-05
-2.83336e-09
3.68197e-06
-3.95967e-05
-2.05337e-09
4.2839e-06
-3.96698e-05
1.00261e-08
3.48615e-06
-3.96927e-05
5.19335e-08
2.52437e-06
-3.9733e-05
7.3434e-08
2.06664e-06
-3.97213e-05
8.5817e-08
3.33387e-06
-3.96996e-05
1.03008e-07
4.56068e-06
-3.97477e-05
1.00693e-07
3.46755e-06
-3.97788e-05
9.9652e-08
2.79451e-06
-3.97436e-05
1.46449e-08
3.00777e-06
-3.96719e-05
3.09543e-06
-3.96394e-05
1.15534e-08
1.50791e-06
-4.027e-05
-4.46128e-10
3.51915e-06
-4.02861e-05
-8.67418e-10
4.13257e-06
-4.03562e-05
6.18224e-09
3.32855e-06
-4.03759e-05
4.18384e-08
2.3619e-06
-4.04158e-05
6.12733e-08
1.93967e-06
-4.04119e-05
7.92535e-08
3.20994e-06
-4.03984e-05
1.04273e-07
4.42e-06
-4.0449e-05
1.0081e-07
3.33477e-06
-4.04778e-05
8.66655e-08
2.64622e-06
-4.04391e-05
-1.71629e-08
2.93528e-06
-4.0367e-05
3.03282e-06
-4.03308e-05
1.29845e-08
1.36301e-06
-4.09733e-05
1.86669e-09
3.35657e-06
-4.09894e-05
5.02656e-10
3.98161e-06
-4.10572e-05
2.46e-09
3.17297e-06
-4.10741e-05
3.13689e-08
2.20064e-06
-4.11128e-05
4.83112e-08
1.81034e-06
-4.11157e-05
7.20198e-08
3.07782e-06
-4.111e-05
1.05369e-07
4.26788e-06
-4.11632e-05
1.00709e-07
3.19759e-06
-4.11902e-05
7.25603e-08
2.50534e-06
-4.11485e-05
-5.03481e-08
2.87569e-06
-4.10759e-05
2.97305e-06
-4.10362e-05
1.40801e-08
1.21722e-06
-4.16897e-05
3.98412e-09
3.19442e-06
-4.1707e-05
2.05189e-09
3.831e-06
-4.1773e-05
-1.00228e-09
3.0199e-06
-4.17877e-05
2.07438e-08
2.04132e-06
-4.18247e-05
3.47161e-08
1.67898e-06
-4.18332e-05
6.40751e-08
2.93727e-06
-4.18345e-05
1.06112e-07
4.10374e-06
-4.18905e-05
1.00175e-07
3.05627e-06
-4.19163e-05
5.73399e-08
2.37301e-06
-4.1872e-05
-8.43655e-08
2.82904e-06
-4.1799e-05
2.91637e-06
-4.17563e-05
1.47706e-08
1.07095e-06
-4.24195e-05
5.81267e-09
3.03277e-06
-4.24391e-05
3.79694e-09
3.6805e-06
-4.2504e-05
-4.02944e-09
2.86957e-06
-4.25173e-05
1.01587e-08
1.88478e-06
-4.25519e-05
2.06322e-08
1.54629e-06
-4.2565e-05
5.5388e-08
2.7882e-06
-4.25723e-05
1.06312e-07
3.92715e-06
-4.26313e-05
9.90028e-08
2.91112e-06
-4.26562e-05
4.10048e-08
2.25017e-06
-4.26101e-05
-1.18638e-07
2.79478e-06
-4.25367e-05
2.86261e-06
-4.24914e-05
1.50157e-08
9.24671e-07
-4.31632e-05
7.27521e-09
2.87155e-06
-4.31861e-05
5.77014e-09
3.52962e-06
-4.32506e-05
-6.40806e-09
2.7219e-06
-4.32631e-05
-1.8271e-10
1.73194e-06
-4.32952e-05
6.16223e-09
1.41324e-06
-4.33113e-05
4.59402e-08
2.6307e-06
-4.33236e-05
1.05786e-07
3.7379e-06
-4.33857e-05
9.70175e-08
2.76238e-06
-4.34103e-05
2.3602e-08
2.1375e-06
-4.33628e-05
-1.52585e-07
2.77184e-06
-4.32893e-05
2.81102e-06
-4.32418e-05
1.4791e-08
7.78904e-07
-4.39211e-05
8.32775e-09
2.71044e-06
-4.39479e-05
7.92582e-09
3.37752e-06
-4.40126e-05
-8.08963e-09
2.57638e-06
-4.40248e-05
-1.00467e-08
1.5836e-06
-4.40547e-05
-8.55308e-09
1.28096e-06
-4.40725e-05
3.573e-08
2.46499e-06
-4.40888e-05
1.04367e-07
3.53594e-06
-4.4154e-05
9.40438e-08
2.61034e-06
-4.41787e-05
5.2142e-09
2.03535e-06
-4.41305e-05
-1.8579e-07
2.75871e-06
-4.40572e-05
2.76019e-06
-4.40076e-05
1.41776e-08
6.34091e-07
-4.46936e-05
9.05171e-09
2.54896e-06
-4.47246e-05
1.01592e-08
3.22336e-06
-4.479e-05
-9.32725e-09
2.43238e-06
-4.48024e-05
-1.94034e-08
1.44017e-06
-4.48304e-05
-2.33424e-08
1.15019e-06
-4.48488e-05
2.47778e-08
2.29151e-06
-4.48682e-05
1.01905e-07
3.32139e-06
-4.49363e-05
8.99291e-08
2.45526e-06
-4.49616e-05
-1.4076e-08
1.94375e-06
-4.49133e-05
-2.18105e-07
2.75384e-06
-4.48406e-05
2.7084e-06
-4.4789e-05
1.33407e-08
4.90393e-07
-4.54808e-05
9.59739e-09
2.38662e-06
-4.55164e-05
1.24583e-08
3.06649e-06
-4.5583e-05
-1.02401e-08
2.28965e-06
-4.5596e-05
-2.82745e-08
1.30182e-06
-4.5622e-05
-3.80269e-08
1.02134e-06
-4.56403e-05
1.31363e-08
2.11085e-06
-4.56622e-05
9.82782e-08
3.09455e-06
-4.5733e-05
8.45648e-08
2.29742e-06
-4.57594e-05
-3.41164e-08
1.86245e-06
-4.57114e-05
-2.49252e-07
2.75554e-06
-4.56399e-05
2.65367e-06
-4.55865e-05
1.24629e-08
3.47749e-07
-4.62831e-05
1.00684e-08
2.22301e-06
-4.63235e-05
1.48953e-08
2.9064e-06
-4.6392e-05
-1.06909e-08
2.14803e-06
-4.64062e-05
-3.65219e-08
1.16858e-06
-4.64299e-05
-5.23963e-08
8.94761e-07
-4.64474e-05
9.06861e-10
1.92375e-06
-4.6471e-05
9.34024e-08