/*--------------------------------*- C++ -*----------------------------------*\
| =========                 |                                                 |
| \\      /  F ield         | OpenFOAM: The Open Source CFD Toolbox           |
|  \\    /   O peration     | Version:  v1912                                 |
|   \\  /    A nd           | Website:  www.openfoam.com                      |
|    \\/     M anipulation  |                                                 |
\*---------------------------------------------------------------------------*/
FoamFile
{
    version     2.0;
    format      ascii;
    class       volScalarField;
    location    "8";
    object      pPrime2Mean;
}
// * * * * * * * * * * * * * * * * * * * * * * * * * * * * * * * * * * * * * //

dimensions      [2 -2 -4 0 0 0 0];


internalField   nonuniform List<scalar> 
34128
(
4135.01
4135.14
4135.3
4135.45
4135.58
4135.72
4135.88
4136.07
4136.32
4136.59
4136.86
4137.09
4130.58
4130.71
4130.86
4131.01
4131.15
4131.28
4131.43
4131.63
4131.86
4132.13
4132.4
4132.62
4123.73
4123.85
4124
4124.15
4124.27
4124.41
4124.55
4124.74
4124.97
4125.22
4125.49
4125.7
4119.28
4119.41
4119.55
4119.69
4119.82
4119.95
4120.09
4120.27
4120.5
4120.75
4121
4121.21
4118.12
4118.24
4118.39
4118.53
4118.66
4118.79
4118.93
4119.11
4119.33
4119.58
4119.83
4120.04
4118.17
4118.29
4118.44
4118.58
4118.7
4118.83
4118.97
4119.15
4119.38
4119.62
4119.88
4120.08
4118.21
4118.33
4118.48
4118.62
4118.75
4118.88
4119.02
4119.2
4119.42
4119.67
4119.92
4120.12
4118.25
4118.37
4118.51
4118.66
4118.78
4118.91
4119.05
4119.23
4119.46
4119.7
4119.95
4120.16
4118.27
4118.4
4118.54
4118.68
4118.81
4118.94
4119.08
4119.26
4119.48
4119.73
4119.98
4120.18
4118.29
4118.42
4118.56
4118.7
4118.83
4118.96
4119.1
4119.28
4119.5
4119.75
4120
4120.2
4118.3
4118.43
4118.57
4118.71
4118.84
4118.97
4119.11
4119.29
4119.51
4119.76
4120.01
4120.21
4118.31
4118.43
4118.58
4118.72
4118.85
4118.98
4119.12
4119.29
4119.52
4119.76
4120.01
4120.21
4118.31
4118.43
4118.58
4118.72
4118.84
4118.97
4119.11
4119.29
4119.51
4119.75
4120
4120.2
4118.3
4118.42
4118.57
4118.71
4118.83
4118.96
4119.1
4119.28
4119.5
4119.74
4119.99
4120.19
4118.28
4118.4
4118.55
4118.69
4118.82
4118.95
4119.09
4119.27
4119.48
4119.72
4119.97
4120.17
4118.26
4118.38
4118.53
4118.67
4118.8
4118.93
4119.07
4119.24
4119.46
4119.7
4119.94
4120.14
4118.23
4118.35
4118.5
4118.64
4118.77
4118.9
4119.04
4119.21
4119.43
4119.67
4119.91
4120.11
4118.19
4118.31
4118.46
4118.6
4118.73
4118.86
4119
4119.18
4119.39
4119.63
4119.87
4120.07
4118.15
4118.27
4118.42
4118.56
4118.69
4118.82
4118.96
4119.13
4119.35
4119.58
4119.82
4120.02
4118.1
4118.22
4118.37
4118.51
4118.64
4118.77
4118.91
4119.08
4119.3
4119.53
4119.77
4119.97
4118.04
4118.17
4118.31
4118.46
4118.59
4118.72
4118.85
4119.03
4119.24
4119.47
4119.71
4119.91
4117.98
4118.11
4118.25
4118.4
4118.53
4118.66
4118.79
4118.97
4119.18
4119.41
4119.64
4119.84
4117.91
4118.04
4118.19
4118.33
4118.46
4118.59
4118.73
4118.9
4119.11
4119.34
4119.57
4119.76
4117.84
4117.97
4118.11
4118.26
4118.39
4118.52
4118.65
4118.82
4119.03
4119.26
4119.49
4119.68
4117.76
4117.89
4118.03
4118.18
4118.31
4118.44
4118.57
4118.74
4118.95
4119.18
4119.41
4119.6
4117.67
4117.8
4117.95
4118.1
4118.22
4118.35
4118.49
4118.66
4118.87
4119.09
4119.32
4119.51
4117.58
4117.71
4117.86
4118.01
4118.14
4118.26
4118.4
4118.57
4118.77
4118.99
4119.22
4119.41
4117.48
4117.62
4117.76
4117.91
4118.04
4118.17
4118.3
4118.47
4118.67
4118.89
4119.12
4119.31
4117.38
4117.52
4117.66
4117.81
4117.94
4118.07
4118.2
4118.37
4118.57
4118.79
4119.01
4119.2
4117.28
4117.41
4117.56
4117.71
4117.84
4117.96
4118.1
4118.26
4118.46
4118.68
4118.9
4119.08
4117.16
4117.3
4117.45
4117.6
4117.73
4117.85
4117.99
4118.15
4118.35
4118.56
4118.78
4118.96
4117.05
4117.18
4117.33
4117.48
4117.61
4117.74
4117.87
4118.04
4118.23
4118.44
4118.66
4118.84
4116.93
4117.06
4117.21
4117.36
4117.49
4117.62
4117.75
4117.91
4118.11
4118.32
4118.53
4118.71
4116.8
4116.94
4117.09
4117.24
4117.37
4117.5
4117.63
4117.79
4117.98
4118.19
4118.4
4118.58
4116.67
4116.81
4116.96
4117.11
4117.24
4117.37
4117.5
4117.66
4117.85
4118.06
4118.26
4118.44
4116.54
4116.68
4116.83
4116.98
4117.11
4117.24
4117.37
4117.53
4117.71
4117.92
4118.12
4118.3
4116.4
4116.54
4116.7
4116.85
4116.98
4117.1
4117.23
4117.39
4117.58
4117.78
4117.98
4118.15
4116.26
4116.4
4116.56
4116.71
4116.84
4116.96
4117.1
4117.25
4117.43
4117.63
4117.83
4118
4116.12
4116.26
4116.42
4116.57
4116.7
4116.82
4116.95
4117.11
4117.29
4117.48
4117.68
4117.85
4115.97
4116.12
4116.27
4116.42
4116.55
4116.68
4116.81
4116.96
4117.14
4117.33
4117.52
4117.69
4115.82
4115.97
4116.12
4116.27
4116.41
4116.53
4116.66
4116.81
4116.99
4117.18
4117.37
4117.53
4115.67
4115.82
4115.97
4116.13
4116.26
4116.38
4116.51
4116.66
4116.83
4117.02
4117.21
4117.37
4115.52
4115.67
4115.82
4115.97
4116.11
4116.23
4116.36
4116.5
4116.68
4116.86
4117.04
4117.2
4115.36
4115.51
4115.67
4115.82
4115.95
4116.08
4116.2
4116.35
4116.52
4116.7
4116.88
4117.04
4115.21
4115.36
4115.51
4115.67
4115.8
4115.92
4116.05
4116.19
4116.36
4116.54
4116.71
4116.87
4115.05
4115.2
4115.36
4115.51
4115.64
4115.77
4115.89
4116.03
4116.2
4116.37
4116.55
4116.7
4114.89
4115.04
4115.2
4115.35
4115.49
4115.61
4115.73
4115.87
4116.03
4116.21
4116.38
4116.53
4114.73
4114.88
4115.04
4115.2
4115.33
4115.45
4115.57
4115.71
4115.87
4116.04
4116.21
4116.36
4114.57
4114.72
4114.89
4115.04
4115.17
4115.29
4115.41
4115.55
4115.71
4115.87
4116.04
4116.19
4114.41
4114.56
4114.73
4114.88
4115.01
4115.13
4115.25
4115.39
4115.54
4115.71
4115.87
4116.02
4114.25
4114.41
4114.57
4114.72
4114.86
4114.98
4115.09
4115.23
4115.38
4115.54
4115.7
4115.84
4114.09
4114.25
4114.41
4114.57
4114.7
4114.82
4114.94
4115.07
4115.22
4115.37
4115.53
4115.67
4113.93
4114.09
4114.26
4114.41
4114.54
4114.66
4114.78
4114.91
4115.05
4115.21
4115.36
4115.5
4113.78
4113.94
4114.1
4114.26
4114.39
4114.51
4114.62
4114.75
4114.89
4115.05
4115.2
4115.34
4113.62
4113.78
4113.95
4114.11
4114.24
4114.36
4114.47
4114.59
4114.74
4114.88
4115.03
4115.17
4113.47
4113.63
4113.8
4113.96
4114.09
4114.21
4114.32
4114.44
4114.58
4114.73
4114.87
4115.01
4113.32
4113.49
4113.65
4113.81
4113.94
4114.06
4114.17
4114.29
4114.43
4114.57
4114.71
4114.85
4113.18
4113.34
4113.51
4113.67
4113.8
4113.91
4114.02
4114.14
4114.27
4114.42
4114.56
4114.69
4113.04
4113.2
4113.37
4113.53
4113.66
4113.77
4113.88
4114
4114.13
4114.27
4114.4
4114.53
4112.9
4113.06
4113.23
4113.39
4113.52
4113.63
4113.74
4113.86
4113.98
4114.12
4114.26
4114.38
4112.77
4112.93
4113.1
4113.26
4113.39
4113.5
4113.61
4113.72
4113.85
4113.98
4114.11
4114.24
4112.64
4112.81
4112.98
4113.13
4113.26
4113.37
4113.48
4113.59
4113.71
4113.84
4113.97
4114.1
4112.52
4112.68
4112.86
4113.01
4113.14
4113.25
4113.36
4113.46
4113.59
4113.71
4113.84
4113.96
4112.4
4112.57
4112.74
4112.9
4113.03
4113.14
4113.24
4113.35
4113.47
4113.59
4113.72
4113.84
4112.3
4112.47
4112.64
4112.79
4112.92
4113.03
4113.13
4113.24
4113.35
4113.48
4113.6
4113.72
4112.2
4112.37
4112.54
4112.7
4112.83
4112.93
4113.03
4113.14
4113.25
4113.37
4113.5
4113.61
4112.12
4112.29
4112.46
4112.61
4112.74
4112.85
4112.95
4113.05
4113.16
4113.28
4113.4
4113.52
4112.05
4112.22
4112.39
4112.54
4112.67
4112.78
4112.87
4112.97
4113.08
4113.2
4113.32
4113.44
4112
4112.17
4112.34
4112.49
4112.62
4112.72
4112.82
4112.91
4113.02
4113.14
4113.26
4113.37
4111.96
4112.13
4112.3
4112.45
4112.58
4112.68
4112.78
4112.87
4112.98
4113.09
4113.21
4113.33
4111.95
4112.12
4112.29
4112.44
4112.56
4112.67
4112.76
4112.86
4112.96
4113.07
4113.19
4113.3
4111.97
4112.13
4112.3
4112.45
4112.58
4112.68
4112.77
4112.86
4112.97
4113.08
4113.19
4113.31
4112.01
4112.18
4112.34
4112.49
4112.61
4112.72
4112.81
4112.9
4113
4113.11
4113.23
4113.34
4112.08
4112.25
4112.41
4112.56
4112.68
4112.78
4112.88
4112.97
4113.07
4113.18
4113.29
4113.41
4112.19
4112.35
4112.51
4112.66
4112.78
4112.88
4112.97
4113.06
4113.16
4113.27
4113.39
4113.5
4112.31
4112.47
4112.64
4112.78
4112.9
4113
4113.09
4113.18
4113.29
4113.4
4113.51
4113.63
4112.46
4112.62
4112.78
4112.92
4113.04
4113.14
4113.23
4113.32
4113.43
4113.54
4113.65
4113.77
4112.6
4112.76
4112.92
4113.06
4113.18
4113.28
4113.38
4113.47
4113.57
4113.68
4113.8
4113.92
4112.74
4112.89
4113.05
4113.19
4113.32
4113.42
4113.51
4113.6
4113.7
4113.81
4113.94
4114.06
4586.53
4586.71
4586.93
4587.15
4587.35
4587.56
4587.78
4588.05
4588.37
4588.73
4589.11
4589.42
4581.78
4581.95
4582.17
4582.38
4582.58
4582.79
4583
4583.27
4583.59
4583.94
4584.3
4584.61
4574.42
4574.6
4574.8
4575.01
4575.21
4575.4
4575.61
4575.87
4576.18
4576.52
4576.87
4577.17
4569.66
4569.83
4570.04
4570.24
4570.43
4570.62
4570.82
4571.08
4571.38
4571.71
4572.05
4572.34
4568.41
4568.58
4568.79
4568.99
4569.18
4569.37
4569.57
4569.82
4570.12
4570.45
4570.79
4571.08
4568.46
4568.63
4568.84
4569.04
4569.23
4569.42
4569.62
4569.87
4570.17
4570.5
4570.84
4571.12
4568.51
4568.68
4568.88
4569.09
4569.27
4569.47
4569.67
4569.92
4570.21
4570.54
4570.88
4571.17
4568.55
4568.72
4568.92
4569.13
4569.31
4569.5
4569.71
4569.95
4570.25
4570.58
4570.92
4571.21
4568.58
4568.75
4568.95
4569.15
4569.34
4569.53
4569.74
4569.98
4570.28
4570.61
4570.95
4571.23
4568.6
4568.77
4568.97
4569.18
4569.36
4569.56
4569.76
4570.01
4570.3
4570.63
4570.97
4571.25
4568.61
4568.78
4568.98
4569.19
4569.38
4569.57
4569.77
4570.02
4570.31
4570.64
4570.98
4571.26
4568.62
4568.79
4568.99
4569.19
4569.38
4569.57
4569.77
4570.02
4570.32
4570.64
4570.98
4571.26
4568.61
4568.78
4568.99
4569.19
4569.38
4569.57
4569.77
4570.02
4570.31
4570.64
4570.97
4571.25
4568.6
4568.77
4568.98
4569.18
4569.37
4569.56
4569.76
4570.01
4570.3
4570.63
4570.96
4571.24
4568.59
4568.76
4568.96
4569.17
4569.35
4569.54
4569.75
4569.99
4570.28
4570.61
4570.94
4571.22
4568.56
4568.73
4568.94
4569.14
4569.33
4569.52
4569.72
4569.97
4570.26
4570.58
4570.91
4571.19
4568.53
4568.7
4568.91
4569.11
4569.3
4569.49
4569.69
4569.93
4570.22
4570.54
4570.87
4571.15
4568.49
4568.66
4568.87
4569.07
4569.26
4569.45
4569.65
4569.9
4570.18
4570.5
4570.83
4571.11
4568.45
4568.62
4568.82
4569.03
4569.22
4569.41
4569.61
4569.85
4570.14
4570.46
4570.78
4571.06
4568.39
4568.57
4568.77
4568.98
4569.17
4569.36
4569.55
4569.8
4570.08
4570.4
4570.72
4571
4568.34
4568.51
4568.71
4568.92
4569.11
4569.3
4569.5
4569.74
4570.02
4570.34
4570.66
4570.94
4568.27
4568.45
4568.65
4568.86
4569.04
4569.23
4569.43
4569.67
4569.96
4570.27
4570.59
4570.86
4568.2
4568.37
4568.58
4568.78
4568.97
4569.16
4569.36
4569.6
4569.88
4570.19
4570.51
4570.78
4568.12
4568.3
4568.5
4568.71
4568.9
4569.09
4569.28
4569.52
4569.8
4570.11
4570.43
4570.7
4568.04
4568.21
4568.42
4568.62
4568.81
4569
4569.2
4569.44
4569.72
4570.02
4570.33
4570.61
4567.95
4568.13
4568.33
4568.54
4568.72
4568.91
4569.11
4569.35
4569.62
4569.93
4570.24
4570.51
4567.85
4568.03
4568.24
4568.44
4568.63
4568.82
4569.02
4569.25
4569.53
4569.83
4570.14
4570.4
4567.75
4567.93
4568.14
4568.34
4568.53
4568.72
4568.91
4569.15
4569.42
4569.72
4570.03
4570.29
4567.65
4567.82
4568.03
4568.24
4568.42
4568.61
4568.81
4569.04
4569.31
4569.61
4569.91
4570.18
4567.54
4567.71
4567.92
4568.13
4568.31
4568.5
4568.7
4568.93
4569.2
4569.49
4569.79
4570.06
4567.42
4567.6
4567.8
4568.01
4568.2
4568.39
4568.58
4568.81
4569.08
4569.37
4569.67
4569.93
4567.3
4567.48
4567.68
4567.89
4568.08
4568.27
4568.46
4568.69
4568.95
4569.24
4569.54
4569.8
4567.17
4567.35
4567.56
4567.76
4567.95
4568.14
4568.33
4568.56
4568.82
4569.11
4569.4
4569.66
4567.04
4567.22
4567.43
4567.64
4567.82
4568.01
4568.2
4568.43
4568.69
4568.97
4569.26
4569.52
4566.91
4567.09
4567.29
4567.5
4567.69
4567.88
4568.07
4568.29
4568.55
4568.83
4569.12
4569.37
4566.77
4566.95
4567.16
4567.36
4567.55
4567.74
4567.93
4568.15
4568.41
4568.68
4568.97
4569.22
4566.62
4566.81
4567.02
4567.22
4567.41
4567.6
4567.78
4568
4568.26
4568.54
4568.81
4569.06
4566.48
4566.66
4566.87
4567.08
4567.27
4567.45
4567.64
4567.86
4568.11
4568.38
4568.66
4568.9
4566.33
4566.51
4566.72
4566.93
4567.12
4567.3
4567.49
4567.7
4567.95
4568.22
4568.5
4568.74
4566.18
4566.36
4566.57
4566.78
4566.97
4567.15
4567.34
4567.55
4567.8
4568.06
4568.33
4568.58
4566.02
4566.21
4566.42
4566.63
4566.81
4567
4567.18
4567.39
4567.64
4567.9
4568.17
4568.41
4565.86
4566.05
4566.26
4566.47
4566.66
4566.84
4567.02
4567.23
4567.48
4567.74
4568
4568.24
4565.71
4565.89
4566.11
4566.31
4566.5
4566.68
4566.86
4567.07
4567.31
4567.57
4567.83
4568.06
4565.54
4565.73
4565.95
4566.15
4566.34
4566.52
4566.7
4566.91
4567.14
4567.4
4567.65
4567.89
4565.38
4565.57
4565.78
4565.99
4566.18
4566.36
4566.54
4566.74
4566.98
4567.23
4567.48
4567.71
4565.22
4565.41
4565.62
4565.83
4566.02
4566.2
4566.38
4566.58
4566.81
4567.05
4567.3
4567.53
4565.05
4565.25
4565.46
4565.67
4565.85
4566.03
4566.21
4566.41
4566.64
4566.88
4567.12
4567.35
4564.89
4565.08
4565.3
4565.5
4565.69
4565.87
4566.04
4566.24
4566.47
4566.71
4566.94
4567.17
4564.72
4564.92
4565.13
4565.34
4565.53
4565.7
4565.88
4566.07
4566.29
4566.53
4566.77
4566.99
4564.56
4564.76
4564.97
4565.18
4565.36
4565.54
4565.71
4565.9
4566.12
4566.36
4566.59
4566.8
4564.4
4564.59
4564.81
4565.02
4565.2
4565.38
4565.55
4565.74
4565.95
4566.18
4566.41
4566.62
4564.23
4564.43
4564.65
4564.85
4565.04
4565.21
4565.38
4565.57
4565.78
4566.01
4566.23
4566.44
4564.07
4564.27
4564.49
4564.7
4564.88
4565.05
4565.22
4565.41
4565.61
4565.84
4566.06
4566.27
4563.91
4564.11
4564.33
4564.54
4564.72
4564.89
4565.06
4565.24
4565.45
4565.67
4565.89
4566.09
4563.76
4563.96
4564.17
4564.38
4564.56
4564.74
4564.9
4565.08
4565.28
4565.5
4565.71
4565.92
4563.6
4563.8
4564.02
4564.23
4564.41
4564.58
4564.75
4564.92
4565.12
4565.33
4565.55
4565.74
4563.45
4563.65
4563.87
4564.08
4564.26
4564.43
4564.59
4564.77
4564.96
4565.17
4565.38
4565.58
4563.31
4563.51
4563.72
4563.93
4564.11
4564.28
4564.44
4564.61
4564.81
4565.01
4565.22
4565.41
4563.16
4563.36
4563.58
4563.79
4563.97
4564.13
4564.29
4564.46
4564.65
4564.85
4565.06
4565.25
4563.02
4563.22
4563.44
4563.65
4563.83
4563.99
4564.15
4564.32
4564.51
4564.7
4564.9
4565.09
4562.89
4563.09
4563.31
4563.51
4563.69
4563.86
4564.01
4564.18
4564.36
4564.56
4564.75
4564.94
4562.76
4562.96
4563.18
4563.38
4563.56
4563.73
4563.88
4564.04
4564.22
4564.41
4564.61
4564.79
4562.64
4562.84
4563.06
4563.26
4563.44
4563.6
4563.75
4563.92
4564.09
4564.28
4564.47
4564.65
4562.52
4562.73
4562.94
4563.15
4563.32
4563.48
4563.64
4563.79
4563.97
4564.15
4564.34
4564.52
4562.42
4562.62
4562.84
4563.04
4563.22
4563.38
4563.53
4563.68
4563.85
4564.04
4564.22
4564.4
4562.32
4562.53
4562.74
4562.94
4563.12
4563.28
4563.43
4563.58
4563.75
4563.93
4564.11
4564.29
4562.24
4562.44
4562.66
4562.86
4563.03
4563.19
4563.34
4563.49
4563.65
4563.83
4564.01
4564.19
4562.17
4562.37
4562.59
4562.79
4562.96
4563.12
4563.26
4563.41
4563.58
4563.75
4563.93
4564.1
4562.12
4562.32
4562.54
4562.73
4562.91
4563.06
4563.2
4563.35
4563.51
4563.68
4563.86
4564.03
4562.09
4562.29
4562.5
4562.7
4562.87
4563.02
4563.16
4563.31
4563.47
4563.64
4563.81
4563.99
4562.08
4562.28
4562.49
4562.69
4562.86
4563.01
4563.15
4563.29
4563.45
4563.62
4563.79
4563.96
4562.1
4562.3
4562.51
4562.7
4562.87
4563.02
4563.16
4563.3
4563.46
4563.63
4563.8
4563.97
4562.15
4562.35
4562.55
4562.75
4562.91
4563.06
4563.2
4563.34
4563.5
4563.67
4563.84
4564.01
4562.23
4562.43
4562.63
4562.82
4562.99
4563.14
4563.27
4563.42
4563.57
4563.74
4563.91
4564.08
4562.35
4562.54
4562.74
4562.93
4563.09
4563.24
4563.38
4563.52
4563.68
4563.84
4564.02
4564.19
4562.48
4562.67
4562.87
4563.06
4563.22
4563.37
4563.51
4563.65
4563.81
4563.97
4564.15
4564.32
4562.63
4562.82
4563.02
4563.21
4563.37
4563.52
4563.65
4563.8
4563.95
4564.12
4564.3
4564.48
4562.78
4562.97
4563.17
4563.35
4563.52
4563.66
4563.8
4563.94
4564.1
4564.28
4564.46
4564.64
4562.92
4563.1
4563.3
4563.48
4563.65
4563.79
4563.93
4564.08
4564.24
4564.41
4564.6
4564.78
5065.66
5065.83
5066.05
5066.29
5066.52
5066.75
5066.98
5067.23
5067.51
5067.79
5068.06
5068.27
5060.5
5060.67
5060.88
5061.12
5061.34
5061.57
5061.8
5062.04
5062.31
5062.59
5062.85
5063.06
5052.52
5052.68
5052.9
5053.12
5053.34
5053.56
5053.78
5054.02
5054.27
5054.54
5054.79
5054.99
5047.36
5047.52
5047.72
5047.94
5048.16
5048.37
5048.59
5048.82
5049.07
5049.33
5049.57
5049.76
5046
5046.16
5046.37
5046.59
5046.8
5047.01
5047.22
5047.45
5047.7
5047.96
5048.2
5048.39
5046.06
5046.21
5046.42
5046.64
5046.85
5047.07
5047.28
5047.51
5047.76
5048.01
5048.26
5048.44
5046.1
5046.26
5046.47
5046.69
5046.9
5047.12
5047.33
5047.56
5047.8
5048.06
5048.3
5048.49
5046.14
5046.3
5046.51
5046.73
5046.94
5047.16
5047.37
5047.6
5047.84
5048.1
5048.34
5048.53
5046.17
5046.33
5046.54
5046.76
5046.97
5047.19
5047.4
5047.63
5047.87
5048.13
5048.37
5048.56
5046.19
5046.35
5046.56
5046.78
5046.99
5047.21
5047.42
5047.65
5047.89
5048.15
5048.39
5048.58
5046.21
5046.37
5046.57
5046.79
5047.01
5047.22
5047.43
5047.66
5047.9
5048.16
5048.4
5048.58
5046.21
5046.37
5046.57
5046.8
5047.01
5047.22
5047.43
5047.66
5047.9
5048.16
5048.4
5048.58
5046.2
5046.36
5046.57
5046.79
5047
5047.22
5047.42
5047.65
5047.9
5048.15
5048.39
5048.58
5046.19
5046.35
5046.56
5046.78
5046.99
5047.2
5047.41
5047.64
5047.88
5048.13
5048.37
5048.56
5046.17
5046.33
5046.53
5046.76
5046.97
5047.18
5047.39
5047.61
5047.86
5048.11
5048.35
5048.53
5046.14
5046.3
5046.5
5046.73
5046.94
5047.15
5047.36
5047.58
5047.83
5048.08
5048.31
5048.5
5046.1
5046.26
5046.47
5046.69
5046.9
5047.11
5047.32
5047.55
5047.79
5048.04
5048.27
5048.46
5046.05
5046.22
5046.42
5046.64
5046.86
5047.07
5047.27
5047.5
5047.74
5047.99
5048.22
5048.41
5046
5046.16
5046.37
5046.59
5046.8
5047.02
5047.22
5047.44
5047.69
5047.93
5048.16
5048.35
5045.94
5046.1
5046.31
5046.53
5046.74
5046.96
5047.16
5047.38
5047.62
5047.87
5048.1
5048.28
5045.87
5046.04
5046.24
5046.46
5046.68
5046.89
5047.09
5047.31
5047.55
5047.8
5048.02
5048.21
5045.8
5045.96
5046.17
5046.39
5046.6
5046.81
5047.02
5047.24
5047.47
5047.72
5047.94
5048.13
5045.72
5045.88
5046.09
5046.31
5046.52
5046.73
5046.93
5047.15
5047.39
5047.63
5047.86
5048.04
5045.63
5045.79
5046
5046.22
5046.43
5046.64
5046.84
5047.06
5047.3
5047.54
5047.76
5047.94
5045.53
5045.7
5045.9
5046.12
5046.34
5046.55
5046.75
5046.97
5047.2
5047.44
5047.66
5047.84
5045.43
5045.59
5045.8
5046.02
5046.24
5046.44
5046.64
5046.86
5047.09
5047.33
5047.55
5047.73
5045.32
5045.49
5045.69
5045.92
5046.13
5046.33
5046.54
5046.75
5046.98
5047.21
5047.43
5047.61
5045.2
5045.37
5045.58
5045.8
5046.01
5046.22
5046.42
5046.63
5046.86
5047.09
5047.31
5047.49
5045.08
5045.25
5045.46
5045.68
5045.89
5046.1
5046.3
5046.51
5046.74
5046.97
5047.18
5047.36
5044.95
5045.12
5045.33
5045.55
5045.77
5045.97
5046.17
5046.38
5046.61
5046.83
5047.05
5047.22
5044.82
5044.99
5045.2
5045.42
5045.63
5045.84
5046.04
5046.25
5046.47
5046.7
5046.91
5047.08
5044.68
5044.85
5045.06
5045.29
5045.5
5045.7
5045.9
5046.1
5046.33
5046.55
5046.76
5046.93
5044.54
5044.71
5044.92
5045.14
5045.35
5045.56
5045.75
5045.96
5046.18
5046.4
5046.61
5046.78
5044.39
5044.56
5044.77
5045
5045.21
5045.41
5045.6
5045.81
5046.03
5046.25
5046.45
5046.62
5044.24
5044.41
5044.62
5044.84
5045.05
5045.26
5045.45
5045.65
5045.87
5046.09
5046.29
5046.46
5044.08
5044.25
5044.47
5044.69
5044.9
5045.1
5045.29
5045.49
5045.71
5045.92
5046.12
5046.29
5043.92
5044.09
5044.31
5044.53
5044.74
5044.94
5045.13
5045.33
5045.54
5045.75
5045.95
5046.12
5043.75
5043.93
5044.14
5044.36
5044.57
5044.77
5044.96
5045.16
5045.37
5045.58
5045.77
5045.94
5043.58
5043.76
5043.97
5044.2
5044.4
5044.6
5044.79
5044.99
5045.19
5045.4
5045.6
5045.76
5043.41
5043.59
5043.8
5044.02
5044.23
5044.43
5044.62
5044.81
5045.02
5045.22
5045.41
5045.58
5043.23
5043.42
5043.63
5043.85
5044.06
5044.25
5044.44
5044.63
5044.84
5045.04
5045.23
5045.39
5043.05
5043.24
5043.45
5043.67
5043.88
5044.08
5044.26
5044.45
5044.65
5044.85
5045.04
5045.2
5042.87
5043.06
5043.27
5043.49
5043.7
5043.89
5044.08
5044.27
5044.47
5044.66
5044.85
5045
5042.69
5042.88
5043.09
5043.31
5043.52
5043.71
5043.89
5044.08
5044.28
5044.47
5044.65
5044.81
5042.51
5042.69
5042.91
5043.13
5043.34
5043.53
5043.71
5043.89
5044.09
5044.28
5044.46
5044.61
5042.32
5042.51
5042.73
5042.95
5043.15
5043.34
5043.52
5043.7
5043.9
5044.08
5044.26
5044.41
5042.14
5042.33
5042.54
5042.76
5042.97
5043.16
5043.33
5043.51
5043.7
5043.89
5044.06
5044.21
5041.95
5042.14
5042.36
5042.58
5042.78
5042.97
5043.15
5043.32
5043.51
5043.69
5043.86
5044.01
5041.76
5041.96
5042.17
5042.39
5042.6
5042.78
5042.96
5043.13
5043.32
5043.49
5043.66
5043.81
5041.58
5041.77
5041.99
5042.21
5042.41
5042.6
5042.77
5042.94
5043.12
5043.3
5043.46
5043.61
5041.39
5041.59
5041.81
5042.03
5042.23
5042.41
5042.58
5042.75
5042.93
5043.1
5043.27
5043.41
5041.21
5041.41
5041.62
5041.84
5042.04
5042.23
5042.4
5042.56
5042.74
5042.91
5043.07
5043.21
5041.03
5041.22
5041.44
5041.66
5041.86
5042.04
5042.21
5042.38
5042.55
5042.72
5042.87
5043.01
5040.85
5041.05
5041.27
5041.49
5041.68
5041.86
5042.03
5042.19
5042.36
5042.52
5042.68
5042.82
5040.67
5040.87
5041.09
5041.31
5041.51
5041.69
5041.85
5042.01
5042.17
5042.34
5042.49
5042.63
5040.5
5040.7
5040.92
5041.14
5041.33
5041.51
5041.67
5041.83
5041.99
5042.15
5042.3
5042.44
5040.33
5040.53
5040.75
5040.97
5041.16
5041.34
5041.5
5041.65
5041.81
5041.97
5042.12
5042.25
5040.16
5040.36
5040.58
5040.8
5041
5041.17
5041.33
5041.48
5041.64
5041.79
5041.93
5042.07
5040
5040.2
5040.42
5040.64
5040.83
5041.01
5041.16
5041.31
5041.46
5041.61
5041.76
5041.89
5039.84
5040.04
5040.27
5040.48
5040.67
5040.85
5041
5041.15
5041.3
5041.45
5041.59
5041.71
5039.69
5039.89
5040.12
5040.33
5040.52
5040.69
5040.84
5040.99
5041.14
5041.28
5041.42
5041.55
5039.55
5039.75
5039.97
5040.19
5040.38
5040.54
5040.69
5040.84
5040.98
5041.12
5041.26
5041.39
5039.41
5039.61
5039.84
5040.05
5040.24
5040.4
5040.55
5040.69
5040.83
5040.97
5041.11
5041.23
5039.28
5039.49
5039.71
5039.92
5040.11
5040.27
5040.42
5040.56
5040.69
5040.83
5040.96
5041.09
5039.16
5039.37
5039.59
5039.8
5039.99
5040.15
5040.29
5040.43
5040.57
5040.7
5040.83
5040.95
5039.06
5039.26
5039.48
5039.69
5039.88
5040.04
5040.18
5040.31
5040.45
5040.58
5040.71
5040.83
5038.96
5039.17
5039.38
5039.59
5039.78
5039.94
5040.08
5040.21
5040.34
5040.47
5040.6
5040.72
5038.88
5039.09
5039.3
5039.51
5039.7
5039.85
5039.99
5040.12
5040.25
5040.38
5040.5
5040.63
5038.82
5039.02
5039.24
5039.45
5039.63
5039.79
5039.92
5040.05
5040.18
5040.3
5040.43
5040.55
5038.78
5038.99
5039.2
5039.41
5039.59
5039.74
5039.87
5040
5040.13
5040.25
5040.38
5040.5
5038.77
5038.97
5039.19
5039.39
5039.57
5039.72
5039.85
5039.98
5040.1
5040.22
5040.35
5040.47
5038.79
5038.99
5039.2
5039.4
5039.58
5039.73
5039.86
5039.98
5040.11
5040.23
5040.36
5040.48
5038.84
5039.04
5039.25
5039.45
5039.62
5039.77
5039.9
5040.02
5040.15
5040.27
5040.4
5040.52
5038.93
5039.12
5039.33
5039.53
5039.7
5039.85
5039.98
5040.1
5040.22
5040.34
5040.47
5040.6
5039.05
5039.24
5039.44
5039.64
5039.81
5039.96
5040.09
5040.21
5040.33
5040.46
5040.59
5040.71
5039.19
5039.38
5039.59
5039.78
5039.95
5040.1
5040.23
5040.35
5040.47
5040.6
5040.73
5040.86
5039.36
5039.55
5039.75
5039.94
5040.11
5040.26
5040.39
5040.51
5040.63
5040.76
5040.9
5041.03
5039.52
5039.71
5039.91
5040.1
5040.27
5040.41
5040.54
5040.67
5040.79
5040.93
5041.07
5041.21
5039.66
5039.85
5040.05
5040.24
5040.41
5040.56
5040.69
5040.81
5040.94
5041.07
5041.22
5041.36
5570.92
5571.07
5571.27
5571.5
5571.72
5571.93
5572.13
5572.32
5572.51
5572.67
5572.8
5572.87
5565.28
5565.43
5565.63
5565.85
5566.07
5566.28
5566.47
5566.66
5566.84
5566.99
5567.12
5567.18
5556.57
5556.71
5556.9
5557.12
5557.33
5557.53
5557.72
5557.9
5558.07
5558.22
5558.34
5558.4
5550.92
5551.06
5551.25
5551.46
5551.67
5551.87
5552.05
5552.22
5552.39
5552.54
5552.65
5552.7
5549.44
5549.58
5549.77
5549.98
5550.18
5550.38
5550.56
5550.73
5550.9
5551.04
5551.16
5551.21
5549.5
5549.63
5549.82
5550.03
5550.24
5550.44
5550.62
5550.79
5550.95
5551.1
5551.21
5551.26
5549.55
5549.69
5549.88
5550.09
5550.29
5550.49
5550.67
5550.84
5551.01
5551.15
5551.26
5551.31
5549.59
5549.73
5549.92
5550.13
5550.33
5550.53
5550.71
5550.88
5551.05
5551.19
5551.3
5551.35
5549.62
5549.76
5549.95
5550.16
5550.36
5550.56
5550.74
5550.91
5551.08
5551.22
5551.33
5551.38
5549.64
5549.78
5549.97
5550.18
5550.38
5550.58
5550.76
5550.93
5551.1
5551.24
5551.35
5551.4
5549.65
5549.79
5549.98
5550.19
5550.4
5550.59
5550.77
5550.94
5551.11
5551.25
5551.36
5551.41
5549.65
5549.79
5549.98
5550.19
5550.4
5550.6
5550.77
5550.94
5551.1
5551.25
5551.36
5551.41
5549.64
5549.78
5549.97
5550.18
5550.39
5550.59
5550.76
5550.93
5551.09
5551.24
5551.35
5551.4
5549.63
5549.77
5549.95
5550.17
5550.37
5550.57
5550.74
5550.92
5551.07
5551.22
5551.33
5551.37
5549.6
5549.74
5549.93
5550.14
5550.34
5550.54
5550.72
5550.89
5551.05
5551.19
5551.29
5551.34
5549.56
5549.7
5549.89
5550.1
5550.31
5550.51
5550.68
5550.85
5551.01
5551.15
5551.26
5551.3
5549.52
5549.66
5549.85
5550.06
5550.26
5550.46
5550.63
5550.8
5550.96
5551.1
5551.21
5551.26
5549.47
5549.61
5549.8
5550.01
5550.21
5550.41
5550.58
5550.75
5550.91
5551.04
5551.15
5551.2
5549.4
5549.55
5549.73
5549.95
5550.15
5550.35
5550.52
5550.69
5550.84
5550.98
5551.08
5551.13
5549.33
5549.48
5549.66
5549.88
5550.08
5550.28
5550.45
5550.61
5550.77
5550.9
5551.01
5551.06
5549.25
5549.4
5549.59
5549.8
5550
5550.2
5550.37
5550.53
5550.69
5550.82
5550.93
5550.97
5549.17
5549.31
5549.5
5549.71
5549.92
5550.11
5550.28
5550.45
5550.6
5550.73
5550.83
5550.88
5549.07
5549.22
5549.41
5549.62
5549.82
5550.02
5550.19
5550.35
5550.5
5550.63
5550.73
5550.78
5548.97
5549.12
5549.31
5549.52
5549.72
5549.91
5550.08
5550.25
5550.4
5550.53
5550.63
5550.67
5548.86
5549.01
5549.2
5549.41
5549.61
5549.8
5549.97
5550.13
5550.28
5550.41
5550.51
5550.56
5548.74
5548.89
5549.08
5549.29
5549.49
5549.68
5549.85
5550.01
5550.16
5550.29
5550.39
5550.43
5548.62
5548.77
5548.96
5549.17
5549.37
5549.56
5549.73
5549.89
5550.03
5550.16
5550.25
5550.3
5548.48
5548.63
5548.82
5549.04
5549.24
5549.43
5549.59
5549.75
5549.9
5550.02
5550.12
5550.16
5548.35
5548.5
5548.69
5548.9
5549.1
5549.29
5549.45
5549.61
5549.76
5549.88
5549.97
5550.02
5548.2
5548.35
5548.54
5548.75
5548.95
5549.14
5549.31
5549.46
5549.61
5549.73
5549.82
5549.86
5548.05
5548.2
5548.39
5548.6
5548.8
5548.99
5549.16
5549.31
5549.45
5549.57
5549.66
5549.7
5547.89
5548.04
5548.23
5548.45
5548.65
5548.83
5549
5549.15
5549.29
5549.4
5549.49
5549.54
5547.72
5547.88
5548.07
5548.28
5548.48
5548.67
5548.83
5548.98
5549.12
5549.23
5549.32
5549.37
5547.55
5547.71
5547.9
5548.11
5548.31
5548.5
5548.66
5548.81
5548.94
5549.06
5549.14
5549.19
5547.38
5547.54
5547.73
5547.94
5548.14
5548.32
5548.48
5548.63
5548.76
5548.88
5548.96
5549
5547.2
5547.36
5547.55
5547.76
5547.96
5548.14
5548.3
5548.45
5548.58
5548.69
5548.77
5548.81
5547.01
5547.17
5547.37
5547.58
5547.78
5547.96
5548.12
5548.26
5548.39
5548.5
5548.58
5548.62
5546.82
5546.99
5547.18
5547.39
5547.59
5547.77
5547.92
5548.07
5548.2
5548.3
5548.38
5548.42
5546.63
5546.79
5546.99
5547.2
5547.39
5547.57
5547.73
5547.87
5548
5548.1
5548.18
5548.22
5546.43
5546.6
5546.79
5547
5547.2
5547.38
5547.53
5547.67
5547.79
5547.89
5547.97
5548.01
5546.23
5546.4
5546.59
5546.8
5547
5547.18
5547.33
5547.46
5547.59
5547.69
5547.76
5547.8
5546.03
5546.19
5546.39
5546.6
5546.8
5546.97
5547.12
5547.26
5547.38
5547.47
5547.54
5547.58
5545.82
5545.99
5546.19
5546.4
5546.59
5546.76
5546.91
5547.05
5547.16
5547.26
5547.33
5547.37
5545.61
5545.78
5545.98
5546.19
5546.38
5546.55
5546.7
5546.83
5546.95
5547.04
5547.11
5547.14
5545.4
5545.57
5545.77
5545.98
5546.17
5546.34
5546.49
5546.62
5546.73
5546.82
5546.89
5546.92
5545.18
5545.36
5545.56
5545.77
5545.96
5546.13
5546.27
5546.4
5546.51
5546.6
5546.66
5546.7
5544.97
5545.15
5545.35
5545.56
5545.75
5545.92
5546.06
5546.18
5546.29
5546.38
5546.44
5546.47
5544.76
5544.93
5545.13
5545.34
5545.53
5545.7
5545.84
5545.96
5546.07
5546.15
5546.21
5546.25
5544.54
5544.72
5544.92
5545.13
5545.32
5545.49
5545.62
5545.74
5545.85
5545.93
5545.99
5546.02
5544.33
5544.51
5544.71
5544.92
5545.11
5545.27
5545.41
5545.53
5545.63
5545.71
5545.76
5545.8
5544.12
5544.3
5544.5
5544.71
5544.9
5545.06
5545.19
5545.31
5545.41
5545.48
5545.54
5545.57
5543.9
5544.09
5544.29
5544.5
5544.68
5544.85
5544.98
5545.09
5545.19
5545.26
5545.32
5545.35
5543.69
5543.88
5544.08
5544.29
5544.48
5544.64
5544.77
5544.88
5544.97
5545.04
5545.09
5545.12
5543.49
5543.67
5543.88
5544.08
5544.27
5544.43
5544.56
5544.66
5544.75
5544.82
5544.87
5544.9
5543.28
5543.47
5543.67
5543.88
5544.06
5544.22
5544.35
5544.45
5544.54
5544.61
5544.66
5544.68
5543.08
5543.27
5543.47
5543.68
5543.86
5544.02
5544.14
5544.24
5544.33
5544.39
5544.44
5544.47
5542.88
5543.07
5543.28
5543.48
5543.66
5543.82
5543.94
5544.04
5544.12
5544.19
5544.23
5544.26
5542.69
5542.88
5543.09
5543.29
5543.47
5543.62
5543.74
5543.84
5543.92
5543.98
5544.02
5544.05
5542.5
5542.69
5542.9
5543.1
5543.28
5543.43
5543.55
5543.64
5543.72
5543.78
5543.82
5543.85
5542.32
5542.51
5542.72
5542.92
5543.1
5543.24
5543.36
5543.45
5543.53
5543.58
5543.63
5543.65
5542.14
5542.33
5542.54
5542.74
5542.92
5543.06
5543.18
5543.27
5543.34
5543.4
5543.44
5543.46
5541.97
5542.16
5542.37
5542.58
5542.75
5542.89
5543
5543.09
5543.16
5543.21
5543.25
5543.28
5541.81
5542
5542.21
5542.41
5542.59
5542.73
5542.84
5542.92
5542.99
5543.04
5543.08
5543.1
5541.66
5541.85
5542.06
5542.26
5542.43
5542.57
5542.68
5542.76
5542.83
5542.88
5542.91
5542.94
5541.52
5541.71
5541.92
5542.12
5542.29
5542.43
5542.54
5542.62
5542.68
5542.73
5542.76
5542.79
5541.39
5541.59
5541.8
5541.99
5542.16
5542.3
5542.4
5542.48
5542.54
5542.59
5542.62
5542.65
5541.28
5541.48
5541.68
5541.88
5542.05
5542.18
5542.28
5542.36
5542.42
5542.46
5542.49
5542.52
5541.19
5541.38
5541.59
5541.78
5541.95
5542.08
5542.18
5542.25
5542.31
5542.35
5542.39
5542.41
5541.11
5541.31
5541.51
5541.71
5541.87
5542
5542.1
5542.17
5542.23
5542.27
5542.3
5542.33
5541.06
5541.26
5541.46
5541.65
5541.82
5541.94
5542.04
5542.11
5542.16
5542.2
5542.24
5542.27
5541.04
5541.24
5541.44
5541.63
5541.79
5541.92
5542.01
5542.08
5542.13
5542.17
5542.21
5542.24
5541.06
5541.25
5541.45
5541.64