/*--------------------------------*- C++ -*----------------------------------*\
| =========                 |                                                 |
| \\      /  F ield         | OpenFOAM: The Open Source CFD Toolbox           |
|  \\    /   O peration     | Version:  v1912                                 |
|   \\  /    A nd           | Website:  www.openfoam.com                      |
|    \\/     M anipulation  |                                                 |
\*---------------------------------------------------------------------------*/
FoamFile
{
    version     2.0;
    format      ascii;
    class       volVectorField;
    location    "8";
    object      UMean;
}
// * * * * * * * * * * * * * * * * * * * * * * * * * * * * * * * * * * * * * //

dimensions      [0 1 -1 0 0 0 0];


internalField   nonuniform List<vector> 
34128
(
(-3.06203e-07 -4.55759e-07 -0.00494183)
(4.44121e-07 -4.55554e-07 -0.00493031)
(3.39492e-07 -4.47716e-07 -0.00490966)
(-8.53866e-07 -4.47268e-07 -0.00490659)
(-1.20292e-06 -4.49739e-07 -0.00491907)
(-1.31551e-06 -4.55265e-07 -0.00493485)
(-2.19854e-07 -4.59219e-07 -0.00494778)
(8.41729e-07 -4.53286e-07 -0.00492896)
(2.26738e-08 -4.4486e-07 -0.00489792)
(-2.01153e-06 -4.47056e-07 -0.00491093)
(-1.72278e-06 -4.60939e-07 -0.00495838)
(1.0176e-06 -4.64184e-07 -0.00496713)
(-8.81283e-07 4.80333e-06 -0.0147886)
(1.27636e-06 4.82147e-06 -0.0147551)
(9.87661e-07 4.90644e-06 -0.0146952)
(-2.47636e-06 4.92736e-06 -0.0146863)
(-3.49114e-06 4.88367e-06 -0.0147226)
(-3.80617e-06 4.81159e-06 -0.0147683)
(-6.6773e-07 4.76531e-06 -0.0148058)
(2.40221e-06 4.83364e-06 -0.0147511)
(3.03023e-08 4.94697e-06 -0.0146611)
(-5.83754e-06 4.9091e-06 -0.014699)
(-4.94646e-06 4.73878e-06 -0.0148366)
(2.93655e-06 4.71135e-06 -0.0148622)
(-1.42735e-06 1.03042e-05 -0.0247182)
(2.05518e-06 1.03599e-05 -0.0246638)
(1.59842e-06 1.0597e-05 -0.0245666)
(-4.05031e-06 1.06586e-05 -0.0245525)
(-5.70563e-06 1.0529e-05 -0.0246113)
(-6.20312e-06 1.03255e-05 -0.0246855)
(-1.14729e-06 1.01946e-05 -0.024746)
(3.83352e-06 1.03877e-05 -0.0246571)
(-2.42633e-08 1.07127e-05 -0.0245113)
(-9.52749e-06 1.05978e-05 -0.0245731)
(-8.01327e-06 1.01131e-05 -0.0247963)
(4.7264e-06 1.0037e-05 -0.0248382)
(-1.93616e-06 2.22003e-05 -0.0346977)
(2.78871e-06 2.23155e-05 -0.0346237)
(2.17732e-06 2.2782e-05 -0.0344917)
(-5.5736e-06 2.29106e-05 -0.0344729)
(-7.84359e-06 2.26487e-05 -0.0345528)
(-8.50096e-06 2.22451e-05 -0.0346533)
(-1.64693e-06 2.19862e-05 -0.0347354)
(5.14855e-06 2.23655e-05 -0.0346144)
(-1.27337e-07 2.30138e-05 -0.0344165)
(-1.30671e-05 2.278e-05 -0.0345008)
(-1.09137e-05 2.182e-05 -0.034804)
(6.39743e-06 2.16757e-05 -0.0348616)
(-2.39889e-06 3.57203e-05 -0.0446856)
(3.48484e-06 3.59164e-05 -0.0445934)
(2.72881e-06 3.66885e-05 -0.0444293)
(-7.04636e-06 3.69075e-05 -0.0444065)
(-9.90529e-06 3.6466e-05 -0.044506)
(-1.06986e-05 3.57965e-05 -0.0446306)
(-2.16164e-06 3.53667e-05 -0.0447323)
(6.35239e-06 3.59941e-05 -0.0445815)
(-2.72664e-07 3.70747e-05 -0.0443358)
(-1.64504e-05 3.66788e-05 -0.0444411)
(-1.36463e-05 3.50852e-05 -0.0448181)
(7.95232e-06 3.48508e-05 -0.0448905)
(-2.80828e-06 5.29875e-05 -0.0546375)
(4.14966e-06 5.32858e-05 -0.0545288)
(3.25489e-06 5.4439e-05 -0.0543356)
(-8.4713e-06 5.47718e-05 -0.0543094)
(-1.18942e-05 5.41033e-05 -0.0544266)
(-1.27989e-05 5.31038e-05 -0.0545729)
(-2.69212e-06 5.24609e-05 -0.054692)
(7.44394e-06 5.33962e-05 -0.0545143)
(-4.59534e-07 5.5017e-05 -0.0542255)
(-1.96769e-05 5.4415e-05 -0.0543499)
(-1.62151e-05 5.20321e-05 -0.0547938)
(9.38933e-06 5.16885e-05 -0.0548803)
(-3.15789e-06 7.32415e-05 -0.0645094)
(4.78847e-06 7.36634e-05 -0.0643857)
(3.75669e-06 7.52732e-05 -0.0641667)
(-9.85177e-06 7.57423e-05 -0.0641379)
(-1.38149e-05 7.47989e-05 -0.0642709)
(-1.48066e-05 7.34064e-05 -0.0644362)
(-3.24117e-06 7.25081e-05 -0.0645707)
(8.42033e-06 7.38108e-05 -0.0643689)
(-6.88546e-07 7.60796e-05 -0.0640418)
(-2.27481e-05 7.52265e-05 -0.0641836)
(-1.86249e-05 7.18992e-05 -0.0646872)
(1.07069e-05 7.14279e-05 -0.0647865)
(-3.44275e-06 9.63378e-05 -0.0742608)
(5.4055e-06 9.69045e-05 -0.0741237)
(4.23468e-06 9.90465e-05 -0.073882)
(-1.11915e-05 9.96736e-05 -0.0738514)
(-1.56732e-05 9.84065e-05 -0.0739983)
(-1.67281e-05 9.65602e-05 -0.07418)
(-3.81302e-06 9.53649e-05 -0.0743276)
(9.27814e-06 9.70935e-05 -0.0741047)
(-9.60995e-07 0.000100117 -0.0737443)
(-2.56669e-05 9.89671e-05 -0.0739016)
(-2.08806e-05 9.45413e-05 -0.0744575)
(1.19043e-05 9.39238e-05 -0.0745686)
(-3.65982e-06 0.00012206 -0.0838572)
(6.00361e-06 0.000122792 -0.0837083)
(4.68891e-06 0.000125542 -0.0834471)
(-1.2494e-05 0.000126347 -0.0834152)
(-1.74753e-05 0.000124708 -0.0835742)
(-1.85708e-05 0.000122349 -0.0837698)
(-4.4125e-06 0.000120816 -0.0839286)
(1.00144e-05 0.000123027 -0.0836873)
(-1.27838e-06 0.000126911 -0.0832983)
(-2.84373e-05 0.000125418 -0.0834692)
(-2.29876e-05 0.000119742 -0.0840707)
(1.29822e-05 0.00011896 -0.0841923)
(-3.80809e-06 0.000150223 -0.0932725)
(6.5843e-06 0.000151141 -0.0931132)
(5.11942e-06 0.000154572 -0.0928352)
(-1.37624e-05 0.000155575 -0.0928025)
(-1.9228e-05 0.000153514 -0.0929719)
(-2.03433e-05 0.000150588 -0.0931795)
(-5.04456e-06 0.000148678 -0.0933477)
(1.06269e-05 0.000151427 -0.0930906)
(-1.64206e-06 0.000156272 -0.092677)
(-3.10639e-05 0.00015439 -0.0928597)
(-2.49504e-05 0.000147317 -0.0935008)
(1.39427e-05 0.000146354 -0.0936318)
(-3.88837e-06 0.00018064 -0.102489)
(7.14788e-06 0.000181764 -0.102321)
(5.52664e-06 0.000185947 -0.102028)
(-1.49988e-05 0.000187168 -0.101995)
(-2.09379e-05 0.000184637 -0.102174)
(-2.20544e-05 0.000181089 -0.102391)
(-5.71392e-06 0.000178766 -0.102568)
(1.11146e-05 0.000182105 -0.102297)
(-2.05312e-06 0.00018801 -0.101862)
(-3.3552e-05 0.000185694 -0.102055)
(-2.67734e-05 0.000177081 -0.102731)
(1.47889e-05 0.00017592 -0.10287)
(-3.90288e-06 0.000213149 -0.111498)
(7.69371e-06 0.000214495 -0.111322)
(5.91166e-06 0.000219501 -0.111017)
(-1.62035e-05 0.000220956 -0.110984)
(-2.2611e-05 0.000217907 -0.11117)
(-2.37129e-05 0.000213689 -0.111396)
(-6.42498e-06 0.000210918 -0.11158)
(1.14771e-05 0.000214896 -0.111297)
(-2.51232e-06 0.000221956 -0.110843)
(-3.59064e-05 0.000219161 -0.111046)
(-2.84594e-05 0.000208872 -0.111752)
(1.55249e-05 0.000207498 -0.111899)
(-3.85461e-06 0.00024761 -0.120298)
(8.22056e-06 0.000249196 -0.120114)
(6.2765e-06 0.000255092 -0.119798)
(-1.73756e-05 0.0002568 -0.119765)
(-2.42526e-05 0.000253185 -0.119958)
(-2.53268e-05 0.000248249 -0.120192)
(-7.18187e-06 0.000244998 -0.120382)
(1.17138e-05 0.00024966 -0.120088)
(-3.02024e-06 0.000257964 -0.119618)
(-3.81313e-05 0.000254646 -0.119829)
(-3.00106e-05 0.000242554 -0.120562)
(1.61545e-05 0.000240954 -0.120716)
(-3.74669e-06 0.00028391 -0.128889)
(8.72676e-06 0.000285749 -0.128699)
(6.62378e-06 0.0002926 -0.128373)
(-1.85117e-05 0.000294577 -0.12834)
(-2.58668e-05 0.00029035 -0.12854)
(-2.69026e-05 0.000284651 -0.128781)
(-7.9886e-06 0.000280889 -0.128976)
(1.18231e-05 0.000286279 -0.128672)
(-3.57758e-06 0.000295912 -0.128187)
(-4.02294e-05 0.000292029 -0.128406)
(-3.1427e-05 0.000278009 -0.129164)
(1.66805e-05 0.000276174 -0.129324)
(-3.58225e-06 0.00032194 -0.137274)
(9.21018e-06 0.000324045 -0.137078)
(6.95658e-06 0.000331913 -0.136744)
(-1.96064e-05 0.000334177 -0.136711)
(-2.74554e-05 0.000329292 -0.136916)
(-2.84451e-05 0.000322786 -0.137164)
(-8.84903e-06 0.000318487 -0.137364)
(1.18019e-05 0.000324644 -0.137051)
(-4.18517e-06 0.000335686 -0.136552)
(-4.2201e-05 0.000331196 -0.136778)
(-3.27071e-05 0.000315134 -0.137559)
(1.71042e-05 0.000313054 -0.137725)
(-3.36423e-06 0.000361606 -0.145454)
(9.66843e-06 0.000363985 -0.145252)
(7.27842e-06 0.000372932 -0.14491)
(-2.06516e-05 0.000375503 -0.144877)
(-2.9018e-05 0.000369913 -0.145087)
(-2.99568e-05 0.000362557 -0.14534)
(-9.76686e-06 0.000357693 -0.145546)
(1.16449e-05 0.000364655 -0.145224)
(-4.84383e-06 0.000377185 -0.144712)
(-4.40443e-05 0.000372045 -0.144945)
(-3.38471e-05 0.000353831 -0.145747)
(1.74252e-05 0.000351501 -0.145918)
(-3.09527e-06 0.000402807 -0.153425)
(1.00988e-05 0.000405469 -0.153219)
(7.59303e-06 0.000415553 -0.152869)
(-2.16367e-05 0.000418452 -0.152837)
(-3.05522e-05 0.00041211 -0.153052)
(-3.14381e-05 0.000403861 -0.15331)
(-1.07455e-05 0.000398408 -0.15352)
(1.13454e-05 0.000406209 -0.15319)
(-5.55443e-06 0.000420304 -0.152667)
(-4.57545e-05 0.000414471 -0.152906)
(-3.48416e-05 0.000393998 -0.153726)
(1.7642e-05 0.000391416 -0.153902)
(-2.77774e-06 0.000445424 -0.161183)
(1.04984e-05 0.000448374 -0.160973)
(7.90423e-06 0.000459656 -0.160618)
(-2.25487e-05 0.000462905 -0.160586)
(-3.20526e-05 0.000455765 -0.160805)
(-3.28871e-05 0.000446578 -0.161066)
(-1.17876e-05 0.000440511 -0.16128)
(1.08948e-05 0.000449186 -0.160945)
(-6.31771e-06 0.000464919 -0.160412)
(-4.73247e-05 0.00045835 -0.160655)
(-3.56831e-05 0.000435516 -0.161491)
(1.77514e-05 0.00043268 -0.161671)
(-2.41369e-06 0.000489308 -0.16872)
(1.08636e-05 0.000492548 -0.168507)
(8.21579e-06 0.000505088 -0.168148)
(-2.33716e-05 0.000508712 -0.168116)
(-3.35111e-05 0.000500726 -0.168338)
(-3.42993e-05 0.000490556 -0.168602)
(-1.2895e-05 0.000483851 -0.168819)
(1.02836e-05 0.000493433 -0.168478)
(-7.13418e-06 0.000510878 -0.167938)
(-4.8745e-05 0.000503528 -0.168185)
(-3.63625e-05 0.000478232 -0.169032)
(1.77494e-05 0.000475144 -0.169216)
(-2.00475e-06 0.000534267 -0.176022)
(1.11911e-05 0.000537801 -0.175807)
(8.53141e-06 0.000551658 -0.175445)
(-2.4087e-05 0.000555686 -0.175415)
(-3.49168e-05 0.000546805 -0.175638)
(-3.56679e-05 0.000535605 -0.175903)
(-1.40678e-05 0.000528236 -0.176123)
(9.50209e-06 0.000538758 -0.175778)
(-8.00396e-06 0.000557988 -0.175234)
(-5.00037e-05 0.000549812 -0.175484)
(-3.68694e-05 0.000521954 -0.176338)
(1.76315e-05 0.000518618 -0.176524)
(-1.55191e-06 0.000580067 -0.183074)
(1.14773e-05 0.000583893 -0.182857)
(8.85472e-06 0.000599128 -0.182496)
(-2.46741e-05 0.00060359 -0.182467)
(-3.62556e-05 0.000593765 -0.18269)
(-3.69834e-05 0.000581486 -0.182955)
(-1.5304e-05 0.000573429 -0.183175)
(8.54081e-06 0.000584922 -0.18283)
(-8.92665e-06 0.000606009 -0.182284)
(-5.10869e-05 0.000596961 -0.182535)
(-3.71922e-05 0.000566444 -0.183391)
(1.73933e-05 0.000562864 -0.183579)
(-1.05527e-06 0.000626422 -0.189858)
(1.17191e-05 0.000630538 -0.189641)
(9.18926e-06 0.000647211 -0.189282)
(-2.51104e-05 0.000652141 -0.189255)
(-3.75109e-05 0.000641323 -0.189477)
(-3.82341e-05 0.000627914 -0.189739)
(-1.65992e-05 0.000619145 -0.189959)
(7.39184e-06 0.00063164 -0.189614)
(-9.90123e-06 0.000654655 -0.189071)
(-5.19797e-05 0.000644687 -0.189321)
(-3.73188e-05 0.000611416 -0.190174)
(1.70309e-05 0.000607599 -0.190362)
(-5.13683e-07 0.000673002 -0.196353)
(1.19144e-05 0.000677402 -0.196138)
(9.53849e-06 0.000695572 -0.195785)
(-2.53721e-05 0.000701008 -0.195758)
(-3.86635e-05 0.000689149 -0.195977)
(-3.94059e-05 0.000674558 -0.196235)
(-1.79459e-05 0.000665053 -0.196454)
(6.04957e-06 0.000678579 -0.196113)
(-1.09259e-05 0.000703587 -0.195576)
(-5.26661e-05 0.000692651 -0.195823)
(-3.72367e-05 0.000656539 -0.196666)
(1.65415e-05 0.000652494 -0.196853)
(7.56329e-08 0.000719434 -0.202541)
(1.20627e-05 0.000724109 -0.202329)
(9.90577e-06 0.000743834 -0.201983)
(-2.54351e-05 0.000749815 -0.201959)
(-3.96922e-05 0.00073687 -0.202173)
(-4.04826e-05 0.000721042 -0.202424)
(-1.93334e-05 0.000710778 -0.202639)
(4.51173e-06 0.000725362 -0.202305)
(-1.1998e-05 0.000752424 -0.201779)
(-5.31301e-05 0.000740474 -0.202022)
(-3.69339e-05 0.000701439 -0.202848)
(1.59239e-05 0.000697179 -0.203033)
(7.17443e-07 0.00076531 -0.208401)
(1.21659e-05 0.00077025 -0.208193)
(1.02943e-05 0.00079158 -0.207859)
(-2.52759e-05 0.000798153 -0.207837)
(-4.05742e-05 0.000784076 -0.208045)
(-4.14462e-05 0.000766959 -0.208287)
(-2.07471e-05 0.000755916 -0.208497)
(2.78045e-06 0.000771579 -0.208172)
(-1.31137e-05 0.000800748 -0.207662)
(-5.3356e-05 0.000787738 -0.207898)
(-3.63996e-05 0.000745711 -0.2087)
(1.5179e-05 0.000741252 -0.208881)
(1.41888e-06 0.000810198 -0.213917)
(1.22283e-05 0.000815388 -0.213715)
(1.07072e-05 0.00083837 -0.213395)
(-2.48729e-05 0.000845583 -0.213375)
(-4.12852e-05 0.000830335 -0.213574)
(-4.22772e-05 0.000811874 -0.213805)
(-2.21683e-05 0.000800033 -0.214009)
(8.63202e-07 0.000816794 -0.213696)
(-1.42678e-05 0.000848111 -0.213205)
(-5.33288e-05 0.000833999 -0.213432)
(-3.56243e-05 0.000788925 -0.214206)
(1.43098e-05 0.000784286 -0.214381)
(2.18973e-06 0.000853649 -0.219073)
(1.22582e-05 0.00085907 -0.218878)
(1.11474e-05 0.000883743 -0.218575)
(-2.4207e-05 0.000891647 -0.218558)
(-4.18008e-05 0.000875195 -0.218745)
(-4.29546e-05 0.000855337 -0.218964)
(-2.35742e-05 0.000842684 -0.21916)
(-1.22617e-06 0.000860555 -0.218862)
(-1.54533e-05 0.000894048 -0.218395)
(-5.30352e-05 0.000878794 -0.218611)
(-3.46008e-05 0.000830637 -0.219348)
(1.33219e-05 0.000825842 -0.219518)
(3.0426e-06 0.000895211 -0.223856)
(1.22676e-05 0.00090084 -0.223669)
(1.16175e-05 0.000927233 -0.223386)
(-2.32629e-05 0.000935882 -0.223371)
(-4.20958e-05 0.000918201 -0.223547)
(-4.34563e-05 0.000896895 -0.22375)
(-2.49375e-05 0.000883419 -0.223937)
(-3.46659e-06 0.000902404 -0.223657)
(-1.66611e-05 0.000938085 -0.223217)
(-5.24635e-05 0.000921654 -0.223421)
(-3.33247e-05 0.000870399 -0.224116)
(1.22238e-05 0.000865478 -0.224279)
(3.99295e-06 0.00093444 -0.228258)
(1.22728e-05 0.00094025 -0.22808)
(1.21203e-05 0.000968379 -0.227819)
(-2.20297e-05 0.000977832 -0.227808)
(-4.21459e-05 0.000958904 -0.227969)
(-4.37597e-05 0.000936103 -0.228156)
(-2.62261e-05 0.000921798 -0.228332)
(-5.82894e-06 0.000941894 -0.228072)
(-1.78796e-05 0.000979755 -0.227663)
(-5.16046e-05 0.000962117 -0.227852)
(-3.1795e-05 0.000907777 -0.228501)
(1.10269e-05 0.000902765 -0.228656)
(5.05877e-06 0.000970913 -0.232274)
(1.22946e-05 0.000976873 -0.232107)
(1.26584e-05 0.00100674 -0.23187)
(-2.05021e-05 0.00101706 -0.231861)
(-4.19273e-05 0.000996877 -0.232006)
(-4.38418e-05 0.000972536 -0.232176)
(-2.74037e-05 0.000957404 -0.232341)
(-8.27544e-06 0.000978596 -0.232103)
(-1.90937e-05 0.00101861 -0.231726)
(-5.04525e-05 0.00099974 -0.2319)
(-3.00147e-05 0.000942356 -0.232498)
(9.74577e-06 0.000937295 -0.232644)
(6.26017e-06 0.00100424 -0.235903)
(1.2358e-05 0.00101032 -0.235747)
(1.32345e-05 0.00104191 -0.235536)
(-1.86807e-05 0.00105315 -0.23553)
(-4.14182e-05 0.00103172 -0.235658)
(-4.36798e-05 0.0010058 -0.235809)
(-2.84293e-05 0.000989851 -0.235962)
(-1.07593e-05 0.00101212 -0.235747)
(-2.02845e-05 0.00105423 -0.235406)
(-4.90045e-05 0.00103411 -0.235564)
(-2.79911e-05 0.000973759 -0.236108)
(8.39816e-06 0.000968695 -0.236245)
(7.6185e-06 0.00103408 -0.23915)
(1.24919e-05 0.00104024 -0.239005)
(1.38517e-05 0.00107353 -0.238821)
(-1.65729e-05 0.00108575 -0.238818)
(-4.05988e-05 0.0010631 -0.238928)
(-4.32513e-05 0.00103556 -0.239059)
(-2.92584e-05 0.0010188 -0.239199)
(-1.32245e-05 0.00104211 -0.23901)
(-2.14288e-05 0.00108624 -0.238705)
(-4.72623e-05 0.00106487 -0.238846)
(-2.57365e-05 0.00100166 -0.239334)
(7.00517e-06 0.000996644 -0.239462)
(9.15541e-06 0.00106015 -0.242022)
(1.27282e-05 0.00106635 -0.24189)
(1.4513e-05 0.00110129 -0.241733)
(-1.41932e-05 0.00111455 -0.241733)
(-3.94529e-05 0.0010907 -0.241825)
(-4.25359e-05 0.00106153 -0.241936)
(-2.98435e-05 0.00104399 -0.242063)
(-1.56068e-05 0.00106829 -0.241899)
(-2.24984e-05 0.00111433 -0.241631)
(-4.52321e-05 0.00109171 -0.241754)
(-2.32682e-05 0.00102578 -0.242186)
(5.59114e-06 0.00102088 -0.242306)
(1.08915e-05 0.00108222 -0.244534)
(1.31005e-05 0.00108844 -0.244414)
(1.52221e-05 0.00112496 -0.244285)
(-1.15631e-05 0.00113932 -0.244288)
(-3.79681e-05 0.00111431 -0.24436)
(-4.15148e-05 0.00108349 -0.244451)
(-3.01356e-05 0.00106519 -0.244565)
(-1.78343e-05 0.00109045 -0.244428)
(-2.34603e-05 0.00113826 -0.244197)
(-4.2925e-05 0.00111439 -0.244302)
(-2.06086e-05 0.00104593 -0.244678)
(4.18356e-06 0.0010412 -0.244788)
(1.28445e-05 0.00110016 -0.246703)
(1.36424e-05 0.00110635 -0.246594)
(1.59825e-05 0.00114437 -0.246493)
(-8.71141e-06 0.00115987 -0.246498)
(-3.61375e-05 0.00113378 -0.246551)
(-4.01727e-05 0.00110129 -0.246623)
(-3.00857e-05 0.00108227 -0.246724)
(-1.98297e-05 0.00110842 -0.246612)
(-2.42763e-05 0.00115786 -0.246417)
(-4.03578e-05 0.00113276 -0.246505)
(-1.77853e-05 0.00106197 -0.246827)
(2.81272e-06 0.00105748 -0.246929)
(1.50275e-05 0.0011139 -0.248548)
(1.4385e-05 0.00112003 -0.248451)
(1.67971e-05 0.00115944 -0.248376)
(-5.67408e-06 0.00117612 -0.248383)
(-3.39604e-05 0.00114902 -0.248419)
(-3.84981e-05 0.00111486 -0.248471)
(-2.96473e-05 0.00109518 -0.24856)
(-2.1513e-05 0.00112215 -0.248473)
(-2.49044e-05 0.00117303 -0.248312)
(-3.75527e-05 0.00114671 -0.248383)
(-1.48302e-05 0.00107386 -0.248653)
(1.51103e-06 0.00106967 -0.248748)
(1.74465e-05 0.00112342 -0.250095)
(1.53541e-05 0.00112949 -0.250009)
(1.76673e-05 0.00117016 -0.249958)
(-2.49414e-06 0.00118805 -0.249968)
(-3.14442e-05 0.00116003 -0.249986)
(-3.6485e-05 0.00112421 -0.25002)
(-2.87796e-05 0.00110391 -0.250097)
(-2.28054e-05 0.00113164 -0.250035)
(-2.52994e-05 0.00118376 -0.249906)
(-3.4537e-05 0.00115626 -0.249961)
(-1.178e-05 0.00108161 -0.250183)
(3.11687e-07 0.00107779 -0.25027)
(2.00975e-05 0.00112886 -0.251368)
(1.65658e-05 0.00113483 -0.251293)
(1.85919e-05 0.00117663 -0.251266)
(7.79028e-07 0.00119574 -0.251277)
(-2.8606e-05 0.00116691 -0.251278)
(-3.41343e-05 0.00112944 -0.251296)
(-2.74514e-05 0.00110858 -0.251363)
(-2.36346e-05 0.00113701 -0.251322)
(-2.5415e-05 0.00119014 -0.251223)
(-3.13425e-05 0.0011615 -0.251264)
(-8.67354e-06 0.00108535 -0.251441)
(-7.52532e-07 0.00108197 -0.251522)
(2.29679e-05 0.00113039 -0.252397)
(1.80247e-05 0.00113626 -0.252332)
(1.95681e-05 0.00117905 -0.252325)
(4.0966e-06 0.00119939 -0.252338)
(-2.54676e-05 0.00116985 -0.252324)
(-3.14531e-05 0.00113076 -0.252326)
(-2.56433e-05 0.00110941 -0.252384)
(-2.39404e-05 0.00113845 -0.252364)
(-2.52076e-05 0.00119238 -0.252291)
(-2.80039e-05 0.00116262 -0.252319)
(-5.54711e-06 0.00108529 -0.252457)
(-1.64729e-06 0.00108242 -0.252532)
(2.60389e-05 0.0011283 -0.253212)
(1.97277e-05 0.00113408 -0.253156)
(2.05932e-05 0.00117769 -0.253168)
(7.41166e-06 0.00119923 -0.253181)
(-2.20584e-05 0.0011691 -0.253155)
(-2.84525e-05 0.00112843 -0.253143)
(-2.33474e-05 0.00110666 -0.253192)
(-2.36745e-05 0.00113626 -0.253191)
(-2.46439e-05 0.00119075 -0.253141)
(-2.45634e-05 0.00115991 -0.253157)
(-2.43635e-06 0.00108172 -0.253261)
(-2.34175e-06 0.0010794 -0.253332)
(2.92829e-05 0.00112287 -0.253844)
(2.16579e-05 0.00112858 -0.253796)
(2.16559e-05 0.00117285 -0.253823)
(1.06709e-05 0.00119557 -0.253838)
(-1.8419e-05 0.00116496 -0.2538)
(-2.5147e-05 0.00112275 -0.253776)
(-2.05718e-05 0.00110063 -0.253818)
(-2.2808e-05 0.00113073 -0.253833)
(-2.36956e-05 0.00118556 -0.253803)
(-2.10609e-05 0.00115368 -0.253809)
(6.21374e-07 0.00107494 -0.253884)
(-2.82008e-06 0.00107322 -0.253951)
(3.26617e-05 0.00111443 -0.254322)
(2.37775e-05 0.00112009 -0.254281)
(2.27331e-05 0.00116486 -0.254321)
(1.38209e-05 0.0011887 -0.254336)
(-1.45941e-05 0.00115774 -0.254288)
(-2.15555e-05 0.00111403 -0.254254)
(-1.73417e-05 0.00109163 -0.25429)
(-2.13414e-05 0.00112219 -0.254319)
(-2.23475e-05 0.00117714 -0.254306)
(-1.75302e-05 0.00114425 -0.254303)
(3.59539e-06 0.00106527 -0.254354)
(-3.07737e-06 0.00106419 -0.254417)
(3.6132e-05 0.0011033 -0.25467)
(2.60381e-05 0.00110897 -0.254637)
(2.37975e-05 0.00115407 -0.254687)
(1.68179e-05 0.00117897 -0.254702)
(-1.06284e-05 0.00114776 -0.254646)
(-1.76997e-05 0.0011026 -0.254604)
(-1.36966e-05 0.00107999 -0.254635)
(-1.93004e-05 0.001111 -0.254675)
(-2.06042e-05 0.00116587 -0.254676)
(-1.40036e-05 0.001132 -0.254666)
(6.46466e-06 0.00105306 -0.254698)
(-3.11351e-06 0.00105264 -0.254758)
(3.9649e-05 0.00108984 -0.254915)
(2.83844e-05 0.00109557 -0.254888)
(2.4821e-05 0.00114084 -0.254947)
(1.96271e-05 0.00116671 -0.25496)
(-6.56576e-06 0.00113536 -0.254898)
(-1.3603e-05 0.00108881 -0.254849)
(-9.68666e-06 0.00106607 -0.254876)
(-1.6731e-05 0.00109749 -0.254927)
(-1.8483e-05 0.0011521 -0.254938)
(-1.05052e-05 0.00111728 -0.254924)
(9.21806e-06 0.00103864 -0.25494)
(-2.93636e-06 0.00103891 -0.254997)
(4.31696e-05 0.00107439 -0.255078)
(3.07586e-05 0.00108024 -0.255057)
(2.57745e-05 0.00112554 -0.255121)
(2.22244e-05 0.00115227 -0.255134)
(-2.4458e-06 0.00112087 -0.255067)
(-9.2889e-06 0.00107299 -0.255012)
(-5.36852e-06 0.00105018 -0.255036)
(-1.36958e-05 0.00108202 -0.255095)
(-1.60136e-05 0.00113622 -0.255116)
(-7.04981e-06 0.00110047 -0.255096)
(1.18545e-05 0.00102235 -0.255101)
(-2.56115e-06 0.00102332 -0.255155)
(4.66557e-05 0.00105725 -0.255177)
(3.31064e-05 0.0010633 -0.255161)
(2.66315e-05 0.00110848 -0.25523)
(2.45964e-05 0.00113595 -0.255241)
(1.6978e-06 0.00110458 -0.255171)
(-4.78058e-06 0.00105544 -0.255111)
(-7.98935e-07 0.00103264 -0.255133)
(-1.02655e-05 0.0010649 -0.255199)
(-1.32337e-05 0.00111856 -0.255226)
(-3.64276e-06 0.00108189 -0.255204)
(1.43824e-05 0.00100449 -0.255198)
(-2.00694e-06 0.00100616 -0.25525)
(5.0076e-05 0.00103869 -0.255226)
(3.53819e-05 0.00104503 -0.255216)
(2.73703e-05 0.00108995 -0.255287)
(2.67402e-05 0.00111804 -0.255297)
(5.83849e-06 0.00108675 -0.255224)
(-1.00447e-07 0.00103642 -0.255161)
(3.97099e-06 0.00101372 -0.255181)
(-6.50959e-06 0.00104641 -0.255253)
(-1.01834e-05 0.00109941 -0.255286)
(-2.80643e-07 0.00106185 -0.25526)
(1.68177e-05 0.000985323 -0.255248)
(-1.29259e-06 0.000987698 -0.255296)
(5.34063e-05 0.00101895 -0.255239)
(3.7551e-05 0.00102566 -0.255233)
(2.79774e-05 0.0010702 -0.255307)
(2.86614e-05 0.00109875 -0.255315)
(9.9566e-06 0.0010676 -0.25524)
(4.73087e-06 0.00101616 -0.255174)
(8.90015e-06 0.000993621 -0.255192)
(-2.48731e-06 0.00102678 -0.255269)
(-6.89937e-06 0.00107904 -0.255306)
(3.0458e-06 0.00104059 -0.255279)
(1.91808e-05 0.000965072 -0.255261)
(-4.33266e-07 0.000968146 -0.255306)
(5.66261e-05 0.000998216 -0.255223)
(3.95915e-05 0.00100539 -0.255222)
(2.8447e-05 0.00104941 -0.255296)
(3.03708e-05 0.00107827 -0.255303)
(1.40381e-05 0.00104729 -0.255226)
(9.6954e-06 0.000994827 -0.255158)
(1.396e-05 0.000972535 -0.255175)
(1.75906e-06 0.00100619 -0.255257)
(-3.40986e-06 0.00105764 -0.255298)
(6.34836e-06 0.0010183 -0.255269)
(2.1493e-05 0.000943902 -0.255246)
(5.62831e-07 0.000947673 -0.255288)
(5.97175e-05 0.000976611 -0.255185)
(4.14894e-05 0.000984352 -0.255189)
(2.87817e-05 0.00102774 -0.255264)
(3.18822e-05 0.00105672 -0.255268)
(1.80726e-05 0.00102595 -0.255191)
(1.4778e-05 0.000972549 -0.255121)
(1.91334e-05 0.000950587 -0.255137)
(6.20671e-06 0.00098478 -0.255223)
(2.67051e-07 0.00103538 -0.255267)
(9.63744e-06 0.000995154 -0.255236)
(2.37755e-05 0.000921934 -0.255209)
(1.70053e-06 0.000926412 -0.255248)
(6.26655e-05 0.000954226 -0.255131)
(4.32312e-05 0.000962637 -0.255139)
(2.89945e-05 0.00100527 -0.255214)
(3.32105e-05 0.00103422 -0.255216)
(2.20561e-05 0.00100364 -0.255138)
(1.99602e-05 0.000949401 -0.255066)
(2.44101e-05 0.000927864 -0.255082)
(1.08525e-05 0.00096264 -0.255171)
(4.12796e-06 0.00101236 -0.255219)
(1.29215e-05 0.000971238 -0.255187)
(2.60568e-05 0.00089928 -0.255156)
(3.00221e-06 0.000904448 -0.255191)
(6.54512e-05 0.000931126 -0.255063)
(4.48069e-05 0.00094031 -0.255076)
(2.9103e-05 0.00098206 -0.255151)
(3.43712e-05 0.00101079 -0.255151)
(2.59816e-05 0.000980408 -0.255072)
(2.52275e-05 0.000925414 -0.254999)
(2.9783e-05 0.000904397 -0.255014)
(1.57093e-05 0.000939823 -0.255107)
(8.18674e-06 0.000988641 -0.255156)
(1.62212e-05 0.000946622 -0.255123)
(2.83581e-05 0.000875967 -0.255088)
(4.49561e-06 0.0008818 -0.25512)
(6.80679e-05 0.000907298 -0.254983)
(4.62245e-05 0.00091738 -0.255002)
(2.91058e-05 0.000958141 -0.255076)
(3.53756e-05 0.000986415 -0.255073)
(2.9811e-05 0.000956215 -0.254994)
(3.05784e-05 0.000900589 -0.25492)
(3.52546e-05 0.000880178 -0.254935)
(2.08054e-05 0.000916334 -0.255031)
(1.24656e-05 0.000964247 -0.255083)
(1.956e-05 0.00092135 -0.255049)
(3.0667e-05 0.000851936 -0.255009)
(6.21213e-06 0.000858451 -0.255038)
(7.04913e-05 0.000882683 -0.254894)
(4.74917e-05 0.000893797 -0.254919)
(2.89958e-05 0.000933487 -0.254991)
(3.62199e-05 0.000961062 -0.254987)
(3.35272e-05 0.000930993 -0.254907)
(3.59836e-05 0.000874864 -0.254832)
(4.08268e-05 0.000855159 -0.254847)
(2.61539e-05 0.000892112 -0.254946)
(1.69865e-05 0.000939185 -0.255)
(2.29836e-05 0.000895371 -0.254964)
(3.29991e-05 0.000827158 -0.25492)
(8.22371e-06 0.000834364 -0.254946)
(7.26501e-05 0.000857279 -0.254797)
(4.85995e-05 0.00086953 -0.254828)
(2.88236e-05 0.000908007 -0.254899)
(3.69305e-05 0.000934719 -0.254892)
(3.71823e-05 0.000904733 -0.254812)
(4.14114e-05 0.000848166 -0.254736)
(4.64818e-05 0.000829287 -0.254751)
(3.17371e-05 0.000867112 -0.254852)
(2.17708e-05 0.000913407 -0.254909)
(2.65607e-05 0.000868639 -0.254871)
(3.54242e-05 0.000801614 -0.254822)
(1.05661e-05 0.000809515 -0.254845)
(7.44649e-05 0.000831117 -0.254695)
(4.95475e-05 0.000844586 -0.254731)
(2.8669e-05 0.000881708 -0.2548)
(3.75532e-05 0.000907369 -0.25479)
(4.08062e-05 0.000877436 -0.254711)
(4.68372e-05 0.000820534 -0.254635)
(5.21601e-05 0.000802581 -0.25465)
(3.75106e-05 0.000841349 -0.254753)
(2.68191e-05 0.000886892 -0.254812)
(3.03471e-05 0.00084119 -0.254772)
(3.79707e-05 0.000775313 -0.254719)
(1.3186e-05 0.000783941 -0.254739)
(7.58659e-05 0.000804263 -0.254588)
(5.03342e-05 0.000819002 -0.25463)
(2.85495e-05 0.000854677 -0.254696)
(3.80923e-05 0.000879045 -0.254684)
(4.43698e-05 0.000849144 -0.254606)
(5.22003e-05 0.000792056 -0.25453)
(5.77541e-05 0.000775104 -0.254545)
(4.33883e-05 0.000814871 -0.254649)
(3.21086e-05 0.000859707 -0.254711)
(3.43944e-05 0.000813079 -0.254668)
(4.05978e-05 0.000748317 -0.25461)
(1.60107e-05 0.000757702 -0.254628)
(7.68058e-05 0.000776782 -0.254481)
(5.09311e-05 0.000792826 -0.254527)
(2.84294e-05 0.000826965 -0.254589)
(3.85292e-05 0.000849818 -0.254576)
(4.78222e-05 0.000819919 -0.254499)
(5.7419e-05 0.000762798 -0.254424)
(6.31361e-05 0.000746927 -0.254439)
(4.92513e-05 0.000787732 -0.254544)
(3.75861e-05 0.00083192 -0.254606)
(3.87319e-05 0.000784389 -0.254562)
(4.32588e-05 0.000720702 -0.2545)
(1.89658e-05 0.000730857 -0.254516)
(7.72588e-05 0.000748716 -0.254373)
(5.12997e-05 0.000766094 -0.254424)
(2.82731e-05 0.00079861 -0.254482)
(3.88247e-05 0.000819755 -0.254467)
(5.11138e-05 0.000789796 -0.254392)
(6.2401e-05 0.000732791 -0.254319)
(6.81903e-05 0.000718092 -0.254334)
(5.49721e-05 0.000759957 -0.254438)
(4.317e-05 0.000803565 -0.254501)
(4.33542e-05 0.000755188 -0.254455)
(4.59252e-05 0.000692524 -0.254389)
(2.19682e-05 0.00070344 -0.254405)
(7.72219e-05 0.000720084 -0.254268)
(5.14157e-05 0.000738816 -0.254321)
(2.80695e-05 0.000769642 -0.254376)
(3.89423e-05 0.000788884 -0.254358)
(5.41935e-05 0.000758802 -0.254287)
(6.70514e-05 0.000702069 -0.254216)
(7.28244e-05 0.000688616 -0.254231)
(6.04415e-05 0.000731553 -0.254333)
(4.87704e-05 0.000774656 -0.254397)
(4.82213e-05 0.000725513 -0.254349)
(4.85749e-05 0.000663823 -0.25428)
(2.49416e-05 0.000675468 -0.254295)
(7.67076e-05 0.000690891 -0.254166)
(5.12701e-05 0.000710982 -0.254222)
(2.78251e-05 0.000740077 -0.254271)
(3.88656e-05 0.000757217 -0.254252)
(5.70007e-05 0.000726957 -0.254184)
(7.12802e-05 0.000670659 -0.254116)
(7.6972e-05 0.000658511 -0.254132)
(6.55762e-05 0.000702514 -0.254231)
(5.43025e-05 0.000745184 -0.254295)
(5.32684e-05 0.000695379 -0.254246)
(5.11817e-05 0.000634628 -0.254175)
(2.78151e-05 0.000646946 -0.254188)
(7.57361e-05 0.000661142 -0.254068)
(5.08628e-05 0.000682577 -0.254125)
(2.75539e-05 0.00070992 -0.25417)
(3.86011e-05 0.00072477 -0.254149)
(5.94677e-05 0.000694271 -0.254085)
(7.50038e-05 0.00063858 -0.25402)
(8.05981e-05 0.000627777 -0.254037)
(7.03042e-05 0.000672823 -0.254133)
(5.96886e-05 0.000715127 -0.254196)
(5.84068e-05 0.000664796 -0.254146)
(5.37122e-05 0.000604964 -0.254073)
(3.05251e-05 0.000617872 -0.254085)
(7.43271e-05 0.000630829 -0.253975)
(5.02084e-05 0.00065359 -0.254033)
(2.727e-05 0.000679166 -0.254072)
(3.81642e-05 0.000691559 -0.25405)
(6.15233e-05 0.000660756 -0.25399)
(7.814e-05 0.000605835 -0.25393)
(8.36837e-05 0.000596408 -0.253946)
(7.45607e-05 0.00064246 -0.254039)
(6.48611e-05 0.000684457 -0.2541)
(6.35212e-05 0.000633764 -0.25405)
(5.61221e-05 0.000574853 -0.253976)
(3.30255e-05 0.000588241 -0.253988)
(7.25015e-05 0.000599939 -0.253887)
(4.93418e-05 0.000623987 -0.253945)
(2.69908e-05 0.000647807 -0.253979)
(3.75683e-05 0.0006576 -0.253956)
(6.30983e-05 0.000626432 -0.253901)
(8.061e-05 0.00057242 -0.253844)
(8.61923e-05 0.000564386 -0.253861)
(7.82966e-05 0.000611406 -0.25395)
(6.97654e-05 0.000653147 -0.254009)
(6.84767e-05 0.000602286 -0.25396)
(5.83566e-05 0.00054431 -0.253885)
(3.52856e-05 0.000558052 -0.253896)
(7.02942e-05 0.000568461 -0.253805)
(4.83085e-05 0.000593734 -0.253861)
(2.67319e-05 0.000615833 -0.253891)
(3.6818e-05 0.000622907 -0.253867)
(6.41418e-05 0.00059132 -0.253816)
(8.23372e-05 0.000538344 -0.253765)
(8.80665e-05 0.000531697 -0.253781)
(8.1478e-05 0.000579635 -0.253866)
(7.43545e-05 0.000621171 -0.253923)
(7.31321e-05 0.00057036 -0.253874)
(6.03648e-05 0.00051334 -0.2538)
(3.72787e-05 0.000527288 -0.25381)
(6.77453e-05 0.00053637 -0.253728)
(4.71555e-05 0.000562805 -0.253783)
(2.64936e-05 0.000583235 -0.253808)
(3.59137e-05 0.000587508 -0.253784)
(6.46178e-05 0.000555434 -0.253738)
(8.3248e-05 0.000503606 -0.253691)
(8.92371e-05 0.000498325 -0.253707)
(8.40841e-05 0.00054712 -0.253787)
(7.85738e-05 0.000588497 -0.253842)
(7.73537e-05 0.00053797 -0.253794)
(6.20986e-05 0.000481939 -0.253722)
(3.89829e-05 0.000495932 -0.25373)
(6.48954e-05 0.00050362 -0.253658)
(4.59206e-05 0.00053117 -0.253711)
(2.62657e-05 0.000550014 -0.253731)
(3.48733e-05 0.000551425 -0.253707)
(6.44975e-05 0.000518795 -0.253666)
(8.32802e-05 0.000468199 -0.253623)
(8.96306e-05 0.000464245 -0.253639)
(8.61067e-05 0.000513814 -0.253715)
(8.23624e-05 0.000555122 -0.253767)
(8.10194e-05 0.000505113 -0.253721)
(6.34894e-05 0.000450094 -0.25365)
(4.03824e-05 0.000463958 -0.253658)
(6.17845e-05 0.000470175 -0.253595)
(4.46384e-05 0.000498799 -0.253645)
(2.60501e-05 0.000516169 -0.253661)
(3.37346e-05 0.000514677 -0.253638)