/*--------------------------------*- C++ -*----------------------------------*\
| =========                 |                                                 |
| \\      /  F ield         | OpenFOAM: The Open Source CFD Toolbox           |
|  \\    /   O peration     | Version:  v1912                                 |
|   \\  /    A nd           | Website:  www.openfoam.com                      |
|    \\/     M anipulation  |                                                 |
\*---------------------------------------------------------------------------*/
FoamFile
{
    version     2.0;
    format      ascii;
    class       surfaceScalarField;
    location    "199.2";
    object      phi;
}
// * * * * * * * * * * * * * * * * * * * * * * * * * * * * * * * * * * * * * //

dimensions      [1 0 -1 0 0 0 0];
oriented        oriented;


internalField   nonuniform List<scalar> 
28208
(
4.1397e-07
1.78995e-05
0.00013561
7.30725e-07
7.00607e-07
0.000136358
4.27214e-07
-1.77464e-05
0.000137267
1.48536e-07
-1.76154e-05
0.000137814
3.38647e-08
-1.61066e-05
0.000138041
3.71147e-09
-1.34612e-05
0.000138123
4.74729e-09
-1.15495e-05
0.000138146
1.7536e-08
-1.02968e-05
0.00013814
3.45881e-08
-1.00808e-05
0.000138145
4.41463e-08
-1.03256e-05
0.000138159
3.66614e-08
-1.15908e-05
0.000138181
-5.69718e-09
-1.34918e-05
0.00013817
-1.34402e-07
-1.61042e-05
0.000138093
-4.23738e-07
-1.76432e-05
0.000137862
-7.33888e-07
-1.78591e-05
0.000137307
4.9982e-07
0.000136383
4.08968e-07
1.70652e-05
0.000133143
7.26857e-07
3.64592e-07
0.000133842
4.35332e-07
-1.74722e-05
0.000134689
1.60375e-07
-1.73491e-05
0.000135208
4.21638e-08
-1.59944e-05
0.00013543
8.00991e-09
-1.34321e-05
0.000135512
6.14268e-09
-1.15523e-05
0.00013554
1.73772e-08
-1.03139e-05
0.000135537
3.31511e-08
-1.01016e-05
0.000135544
4.12023e-08
-1.03391e-05
0.000135555
3.11256e-08
-1.15846e-05
0.000135574
-1.47678e-08
-1.34499e-05
0.000135558
-1.46416e-07
-1.59772e-05
0.00013548
-4.31706e-07
-1.73649e-05
0.000135255
-7.29908e-07
-1.75768e-05
0.000134728
1.69925e-07
0.000133866
4.03325e-07
1.62485e-05
0.000130687
7.20834e-07
3.51922e-08
0.000131338
4.40893e-07
-1.72025e-05
0.000132126
1.7057e-07
-1.70812e-05
0.000132617
4.96115e-08
-1.58734e-05
0.000132832
1.18682e-08
-1.33932e-05
0.000132914
7.31391e-09
-1.15464e-05
0.000132946
1.70845e-08
-1.03235e-05
0.000132947
3.1626e-08
-1.01151e-05
0.000132955
3.82725e-08
-1.03451e-05
0.000132965
2.5882e-08
-1.15701e-05
0.000132979
-2.307e-08
-1.33988e-05
0.000132958
-1.56731e-07
-1.58422e-05
0.00013288
-4.36972e-07
-1.70855e-05
0.000132662
-7.23566e-07
-1.72992e-05
0.000132162
-1.53376e-07
0.000131361
3.97107e-07
1.54505e-05
0.000128245
7.12923e-07
-2.86244e-07
0.000128848
4.44169e-07
-1.69369e-05
0.000129578
1.79253e-07
-1.68122e-05
0.000130042
5.62496e-08
-1.5744e-05
0.00013025
1.53061e-08
-1.33448e-05
0.000130333
8.27494e-09
-1.15316e-05
0.000130369
1.66775e-08
-1.03254e-05
0.000130373
3.00499e-08
-1.01212e-05
0.000130382
3.54074e-08
-1.03435e-05
0.00013039
2.09601e-08
-1.15472e-05
0.000130401
-3.05989e-08
-1.33389e-05
0.000130376
-1.65493e-07
-1.56996e-05
0.000130297
-4.39846e-07
-1.68058e-05
0.000130087
-7.15177e-07
-1.70258e-05
0.000129614
-4.68753e-07
0.000128871
3.90397e-07
1.46725e-05
0.000125818
7.0338e-07
-5.9861e-07
0.000126375
4.45432e-07
-1.66752e-05
0.000127049
1.86565e-07
-1.65429e-05
0.000127487
6.21378e-08
-1.56068e-05
0.000127688
1.83532e-08
-1.32872e-05
0.00012777
9.04684e-09
-1.15081e-05
0.00012781
1.61715e-08
-1.03194e-05
0.000127817
2.84456e-08
-1.01195e-05
0.000127827
3.26303e-08
-1.03342e-05
0.000127833
1.63602e-08
-1.1516e-05
0.000127841
-3.7393e-08
-1.32703e-05
0.000127812
-1.72852e-07
-1.55502e-05
0.000127734
-4.40626e-07
-1.65263e-05
0.000127531
-7.05029e-07
-1.67565e-05
0.000127084
-7.75111e-07
0.000126396
3.83272e-07
1.39153e-05
0.000123407
6.92445e-07
-9.01e-07
0.00012392
4.44937e-07
-1.64171e-05
0.00012454
1.92639e-07
-1.62737e-05
0.000124954
6.73359e-08
-1.54623e-05
0.000125147
2.10409e-08
-1.32204e-05
0.000125229
9.65112e-09
-1.14759e-05
0.000125272
1.55856e-08
-1.03057e-05
0.000125281
2.68322e-08
-1.01103e-05
0.000125292
2.99546e-08
-1.03172e-05
0.000125297
1.20764e-08
-1.14766e-05
0.000125302
-4.35004e-08
-1.31934e-05
0.000125269
-1.78951e-07
-1.53945e-05
0.000125191
-4.39588e-07
-1.62476e-05
0.000124996
-6.9339e-07
-1.64911e-05
0.000124574
-1.07155e-06
0.00012394
3.75805e-07
1.31794e-05
0.000121016
6.80339e-07
-1.19268e-06
0.000121485
4.42914e-07
-1.61625e-05
0.000122054
1.97601e-07
-1.6005e-05
0.000122444
7.19003e-08
-1.53109e-05
0.000122628
2.33991e-08
-1.3145e-05
0.00012271
1.0108e-08
-1.14352e-05
0.000122756
1.49375e-08
-1.02842e-05
0.000122768
2.52262e-08
-1.00935e-05
0.00012278
2.73907e-08
-1.02926e-05
0.000122783
8.10125e-09
-1.14292e-05
0.000122785
-4.8969e-08
-1.31086e-05
0.000122749
-1.83923e-07
-1.52328e-05
0.000122672
-4.36983e-07
-1.597e-05
0.000122485
-6.80508e-07
-1.62294e-05
0.000122087
-1.35736e-06
0.000121504
3.68068e-07
1.24655e-05
0.000118643
6.67273e-07
-1.47307e-06
0.00011907
4.39579e-07
-1.5911e-05
0.000119591
2.01566e-07
-1.57371e-05
0.000119958
7.58845e-08
-1.5153e-05
0.000120135
2.54563e-08
-1.30611e-05
0.000120215
1.04361e-08
-1.13861e-05
0.000120264
1.42429e-08
-1.02551e-05
0.000120278
2.36411e-08
-1.00692e-05
0.000120291
2.49456e-08
-1.02606e-05
0.000120293
4.42608e-09
-1.13741e-05
0.000120292
-5.38456e-08
-1.30161e-05
0.000120253
-1.87889e-07
-1.50657e-05
0.000120177
-4.33041e-07
-1.56941e-05
0.000119998
-6.66614e-07
-1.59712e-05
0.000119623
-1.63197e-06
0.000119089
3.60128e-07
1.17737e-05
0.000116291
6.53437e-07
-1.74171e-06
0.000116678
4.35127e-07
-1.56625e-05
0.000117153
2.04641e-07
-1.54704e-05
0.000117497
7.93376e-08
-1.4989e-05
0.000117667
2.7239e-08
-1.29691e-05
0.000117747
1.06524e-08
-1.1329e-05
0.000117798
1.35159e-08
-1.02185e-05
0.000117814
2.20884e-08
-1.00375e-05
0.000117827
2.26238e-08
-1.02213e-05
0.000117829
1.05324e-09
-1.13115e-05
0.000117825
-5.81749e-08
-1.29163e-05
0.000117784
-1.9096e-07
-1.48934e-05
0.000117708
-4.27972e-07
-1.54199e-05
0.000117536
-6.51919e-07
-1.57163e-05
0.000117184
-1.89492e-06
0.000116696
3.52049e-07
1.11042e-05
0.00011396
6.3901e-07
-1.99825e-06
0.000114309
4.29734e-07
-1.54167e-05
0.00011474
2.06923e-07
-1.52049e-05
0.000115064
8.23053e-08
-1.48191e-05
0.000115226
2.87713e-08
-1.28693e-05
0.000115305
1.07718e-08
-1.1264e-05
0.000115359
1.27685e-08
-1.01745e-05
0.000115376
2.0577e-08
-9.99859e-06
0.00011539
2.04279e-08
-1.01748e-05
0.00011539
-2.07205e-09
-1.12415e-05
0.000115385
-6.19988e-08
-1.28095e-05
0.000115341
-1.93239e-07
-1.47162e-05
0.000115266
-4.21965e-07
-1.51477e-05
0.000115102
-6.36618e-07
-1.54644e-05
0.00011477
-2.14587e-06
0.000114326
3.43892e-07
1.04571e-05
0.000111651
6.24155e-07
-2.24242e-06
0.000111963
4.23562e-07
-1.51734e-05
0.000112354
2.08503e-07
-1.49407e-05
0.000112658
8.48293e-08
-1.46437e-05
0.000112812
3.00752e-08
-1.27618e-05
0.000112891
1.08077e-08
-1.11913e-05
0.000112946
1.20111e-08
-1.01232e-05
0.000112966
1.91143e-08
-9.95253e-06
0.00011298
1.83588e-08
-1.01213e-05
0.000112979
-4.93656e-09
-1.11643e-05
0.000112972
-6.53566e-08
-1.26958e-05
0.000112926
-1.94819e-07
-1.45344e-05
0.000112852
-4.1519e-07
-1.48775e-05
0.000112696
-6.20888e-07
-1.52153e-05
0.000112383
-2.38456e-06
0.00011198
3.35712e-07
9.83227e-06
0.000109365
6.09017e-07
-2.47402e-06
0.000109643
4.16756e-07
-1.49322e-05
0.000109995
2.0946e-07
-1.46779e-05
0.000110281
8.69484e-08
-1.4463e-05
0.000110428
3.11706e-08
-1.26469e-05
0.000110505
1.07717e-08
-1.1111e-05
0.000110563
1.12522e-08
-1.00648e-05
0.000110584
1.77061e-08
-9.89941e-06
0.000110599
1.64164e-08
-1.00608e-05
0.000110597
-7.54132e-09
-1.10801e-05
0.000110588
-6.82851e-08
-1.25754e-05
0.00011054
-1.95783e-07
-1.43482e-05
0.000110467
-4.078e-07
-1.46094e-05
0.000110317
-6.04886e-07
-1.49686e-05
0.000110024
-2.61081e-06
0.000109659
3.27558e-07
9.22949e-06
0.000107102
5.93727e-07
-2.69291e-06
0.000107348
4.09444e-07
-1.46928e-05
0.000107664
2.0987e-07
-1.44164e-05
0.000107932
8.86982e-08
-1.42771e-05
0.000108072
3.20756e-08
-1.25248e-05
0.000108149
1.0674e-08
-1.10233e-05
0.000108208
1.04991e-08
-9.99937e-06
0.00010823
1.63566e-08
-9.83931e-06
0.000108246
1.45996e-08
-9.99351e-06
0.000108243
-9.9055e-09
-1.09889e-05
0.000108233
-7.08185e-08
-1.24486e-05
0.000108183
-1.96208e-07
-1.41576e-05
0.000108111
-3.99929e-07
-1.43433e-05
0.000107968
-5.88753e-07
-1.47242e-05
0.000107692
-2.82448e-06
0.000107363
3.19475e-07
8.64853e-06
0.000104863
5.78401e-07
-2.89901e-06
0.000105079
4.0174e-07
-1.44548e-05
0.000105362
2.09799e-07
-1.41561e-05
0.000105614
9.01111e-08
-1.40861e-05
0.000105747
3.28067e-08
-1.23956e-05
0.000105822
1.05234e-08
-1.09283e-05
0.000105883
9.75752e-09
-9.92692e-06
0.000105907
1.50689e-08
-9.77228e-06
0.000105922
1.29065e-08
-9.91942e-06
0.000105919
-1.20419e-08
-1.0891e-05
0.000105907
-7.29883e-08
-1.23154e-05
0.000105855
-1.96162e-07
-1.39628e-05
0.000105785
-3.91698e-07
-1.4079e-05
0.000105649
-5.72612e-07
-1.44815e-05
0.000105389
-3.02548e-06
0.000105094
3.11501e-07
8.08907e-06
0.000102649
5.63139e-07
-3.09225e-06
0.000102836
3.93745e-07
-1.42179e-05
0.000103088
2.09307e-07
-1.3897e-05
0.000103325
9.1217e-08
-1.38902e-05
0.000103451
3.33786e-08
-1.22594e-05
0.000103526
1.03276e-08
-1.08262e-05
0.000103588
9.03216e-09
-9.84753e-06
0.000103612
1.38452e-08
-9.69837e-06
0.000103628
1.13347e-08
-9.83859e-06
0.000103625
-1.39621e-08
-1.07863e-05
0.000103612
-7.48238e-08
-1.2176e-05
0.000103558
-1.95707e-07
-1.37638e-05
0.000103488
-3.83209e-07
-1.38164e-05
0.000103359
-5.5657e-07
-1.42403e-05
0.000103115
-3.21377e-06
0.00010285
3.03671e-07
7.55076e-06
0.000100459
5.48027e-07
-3.27258e-06
0.00010062
3.85546e-07
-1.39817e-05
0.000100844
2.08448e-07
-1.36388e-05
0.000101066
9.2043e-08
-1.36894e-05
0.000101186
3.38046e-08
-1.21164e-05
0.00010126
1.00929e-08
-1.07168e-05
0.000101324
8.32671e-09
-9.76121e-06
0.000101348
1.26868e-08
-9.61756e-06
0.000101365
9.8813e-09
-9.75103e-06
0.00010136
-1.56773e-08
-1.06749e-05
0.000101346
-7.63516e-08
-1.20303e-05
0.000101292
-1.94898e-07
-1.35606e-05
0.000101223
-3.74552e-07
-1.35553e-05
0.0001011
-5.40719e-07
-1.4e-05
0.00010087
-3.38929e-06
0.000100634
2.96012e-07
7.03322e-06
9.82952e-05
5.33137e-07
-3.43999e-06
9.84315e-05
3.77216e-07
-1.37456e-05
9.8629e-05
2.0727e-07
-1.33812e-05
9.88377e-05
9.26137e-08
-1.34838e-05
9.8952e-05
3.40967e-08
-1.19664e-05
9.90249e-05
9.82493e-09
-1.06004e-05
9.90891e-05
7.64397e-09
-9.66795e-06
9.91146e-05
1.15945e-08
-9.52984e-06
9.9131e-05
8.54336e-09
-9.65671e-06
9.91261e-05
-1.7198e-08
-1.05568e-05
9.91114e-05
-7.75963e-08
-1.18783e-05
9.90558e-05
-1.93781e-07
-1.33533e-05
9.89875e-05
-3.65804e-07
-1.32954e-05
9.88711e-05
-5.25134e-07
-1.37603e-05
9.86547e-05
-3.55202e-06
9.84451e-05
2.88548e-07
6.53605e-06
9.61568e-05
5.1853e-07
-3.59443e-06
9.62703e-05
3.68821e-07
-1.35091e-05
9.64434e-05
2.05816e-07
-1.31241e-05
9.66397e-05
9.29513e-08
-1.32733e-05
9.67481e-05
3.42655e-08
-1.18096e-05
9.682e-05
9.52811e-09
-1.04768e-05
9.68852e-05
6.98604e-09
-9.56768e-06
9.69111e-05
1.05683e-08
-9.43511e-06
9.69277e-05
7.31777e-09
-9.55557e-06
9.69223e-05
-1.85339e-08
-1.0432e-05
9.69069e-05
-7.85801e-08
-1.172e-05
9.68504e-05
-1.92401e-07
-1.31418e-05
9.6783e-05
-3.5703e-07
-1.30364e-05
9.66726e-05
-5.09879e-07
-1.35205e-05
9.64686e-05
-3.70194e-06
9.62834e-05
2.81296e-07
6.05883e-06
9.40445e-05
5.04254e-07
-3.7359e-06
9.41367e-05
3.60415e-07
-1.32718e-05
9.42873e-05
2.04122e-07
-1.28669e-05
9.44721e-05
9.30759e-08
-1.30579e-05
9.45749e-05
3.43204e-08
-1.16458e-05
9.46458e-05
9.20628e-09
-1.03459e-05
9.47117e-05
6.35442e-09
-9.46029e-06
9.4738e-05
9.60815e-09
-9.33328e-06
9.47547e-05
6.20126e-09
-9.44749e-06
9.47489e-05
-1.96946e-08
-1.03002e-05
9.47329e-05
-7.93236e-08
-1.15553e-05
9.46755e-05
-1.90794e-07
-1.2926e-05
9.46092e-05
-3.48286e-07
-1.27779e-05
9.45044e-05
-4.95006e-07
-1.32802e-05
9.43119e-05
-3.83901e-06
9.41493e-05
2.7427e-07
5.60116e-06
9.19583e-05
4.90349e-07
-3.86435e-06
9.20307e-05
3.52042e-07
-1.30329e-05
9.21605e-05
2.02222e-07
-1.26092e-05
9.23348e-05
9.30059e-08
-1.28375e-05
9.24322e-05
3.427e-08
-1.14749e-05
9.2502e-05
8.86268e-09
-1.02078e-05
9.25686e-05
5.75009e-09
-9.34567e-06
9.25951e-05
8.71327e-09
-9.22418e-06
9.26119e-05
5.19045e-09
-9.33232e-06
9.26058e-05
-2.06887e-08
-1.01615e-05
9.25894e-05
-7.98452e-08
-1.13839e-05
9.25311e-05
-1.88993e-07
-1.27056e-05
9.24659e-05
-3.39617e-07
-1.25194e-05
9.23665e-05
-4.80555e-07
-1.30386e-05
9.21847e-05
-3.96321e-06
9.20429e-05
2.67481e-07
5.16264e-06
8.98984e-05
4.76845e-07
-3.97978e-06
8.99524e-05
3.43741e-07
-1.2792e-05
9.00631e-05
2.00144e-07
-1.23507e-05
9.02275e-05
9.27576e-08
-1.26117e-05
9.03198e-05
3.4122e-08
-1.12968e-05
9.03885e-05
8.50004e-09
-1.00622e-05
9.04557e-05
5.17365e-09
-9.22365e-06
9.04824e-05
7.88265e-09
-9.10767e-06
9.04993e-05
4.28183e-09
-9.20992e-06
9.04928e-05
-2.15248e-08
-1.00157e-05
9.04761e-05
-8.01619e-08
-1.12059e-05
9.04171e-05
-1.87027e-07
-1.24805e-05
9.03529e-05
-3.3106e-07
-1.22605e-05
9.02587e-05
-4.66556e-07
-1.27953e-05
9.00868e-05
-4.07451e-06
8.99643e-05
2.60936e-07
4.7434e-06
8.78645e-05
4.63762e-07
-4.08216e-06
8.79017e-05
3.35542e-07
-1.25484e-05
8.79947e-05
1.97915e-07
-1.20907e-05
8.81502e-05
9.23462e-08
-1.23805e-05
8.82376e-05
3.38833e-08
-1.11115e-05
8.83052e-05
8.12071e-09
-9.90907e-06
8.8373e-05
4.62536e-09
-9.09411e-06
8.83997e-05
7.11497e-09
-8.98358e-06
8.84166e-05
3.47181e-09
-9.08014e-06
8.84098e-05
-2.22106e-08
-9.8627e-06
8.83928e-05
-8.02892e-08
-1.10211e-05
8.83332e-05
-1.84921e-07
-1.22504e-05
8.82701e-05
-3.22644e-07
-1.20005e-05
8.81808e-05
-4.53031e-07
-1.25497e-05
8.8018e-05
-4.17289e-06
8.79133e-05
2.54641e-07
4.34522e-06
8.58548e-05
4.51116e-07
-4.17148e-06
8.58787e-05
3.2747e-07
-1.23016e-05
8.59553e-05
1.95554e-07
-1.18289e-05
8.61025e-05
9.17848e-08
-1.21436e-05
8.61853e-05
3.35601e-08
-1.09187e-05
8.62518e-05
7.72671e-09
-9.74837e-06
8.632e-05
4.10523e-09
-8.95694e-06
8.63467e-05
6.40871e-09
-8.8518e-06
8.63637e-05
2.75668e-09
-8.94286e-06
8.63566e-05
-2.27539e-08
-9.70236e-06
8.63394e-05
-8.02411e-08
-1.08292e-05
8.62792e-05
-1.82696e-07
-1.20151e-05
8.62173e-05
-3.14395e-07
-1.17391e-05
8.61326e-05
-4.39995e-07
-1.2301e-05
8.59782e-05
-4.25833e-06
8.58899e-05
2.48594e-07
3.97103e-06
8.38681e-05
4.38913e-07
-4.24765e-06
8.38831e-05
3.19544e-07
-1.20511e-05
8.39446e-05
1.93083e-07
-1.15648e-05
8.40842e-05
9.10854e-08
-1.19009e-05
8.41626e-05
3.3158e-08
-1.07186e-05
8.4228e-05
7.31983e-09
-9.58007e-06
8.42965e-05
3.61304e-09
-8.81206e-06
8.43231e-05
5.76212e-09
-8.71224e-06
8.43401e-05
2.13271e-09
-8.79799e-06
8.43328e-05
-2.31617e-08
-9.53465e-06
8.43156e-05
-8.00302e-08
-1.06303e-05
8.42549e-05
-1.8037e-07
-1.17743e-05
8.4194e-05
-3.06331e-07
-1.14757e-05
8.41138e-05
-4.27453e-07
-1.20489e-05
8.39671e-05
-4.33077e-06
8.3894e-05
2.42787e-07
3.62345e-06
8.19046e-05
4.27152e-07
-4.30953e-06
8.19136e-05
3.11779e-07
-1.17964e-05
8.19624e-05
1.90515e-07
-1.12979e-05
8.2095e-05
9.02585e-08
-1.16521e-05
8.21691e-05
3.26818e-08
-1.0511e-05
8.22334e-05
6.9015e-09
-9.40418e-06
8.23023e-05
3.14844e-09
-8.65947e-06
8.23288e-05
5.17332e-09
-8.56489e-06
8.23457e-05
1.59622e-09
-8.64551e-06
8.23382e-05
-2.34404e-08
-9.35957e-06
8.23209e-05
-7.96679e-08
-1.04243e-05
8.22599e-05
-1.77959e-07
-1.15278e-05
8.22e-05
-2.98463e-07
-1.12099e-05
8.21241e-05
-4.15405e-07
-1.17929e-05
8.19844e-05
-4.38914e-06
8.19243e-05
2.37206e-07
3.30382e-06
7.99648e-05
4.15829e-07
-4.355e-06
7.9969e-05
3.04183e-07
-1.15373e-05
8.00082e-05
1.87865e-07
-1.10281e-05
8.01344e-05
8.93132e-08
-1.13971e-05
8.02045e-05
3.2136e-08
-1.0296e-05
8.02679e-05
6.47275e-09
-9.22075e-06
8.03369e-05
2.71101e-09
-8.49904e-06
8.0363e-05
4.6402e-09
-8.40963e-06
8.038e-05
1.14377e-09
-8.4853e-06
8.03723e-05
-2.35964e-08
-9.17717e-06
8.03552e-05
-7.9164e-08
-1.02112e-05
8.02938e-05
-1.75476e-07
-1.12755e-05
8.0235e-05
-2.90801e-07
-1.09414e-05
8.01631e-05
-4.03845e-07
-1.15326e-05
8.00299e-05
-4.4313e-06
7.99795e-05
2.31841e-07
3.01183e-06
7.80493e-05
4.0493e-07
-4.38228e-06
7.80492e-05
2.9676e-07
-1.12732e-05
7.80815e-05
1.85144e-07
-1.07549e-05
7.82021e-05
8.82567e-08
-1.11357e-05
7.82683e-05
3.15244e-08
-1.00733e-05
7.83305e-05
6.03473e-09
-9.02936e-06
7.83995e-05
2.30026e-09
-8.33002e-06
7.84248e-05
4.16051e-09
-8.24577e-06
7.84418e-05
7.71649e-10
-8.3166e-06
7.84339e-05
-2.36352e-08
-8.98698e-06
7.84174e-05
-7.85265e-08
-9.99065e-06
7.83559e-05
-1.7293e-07
-1.10171e-05
7.82983e-05
-2.83348e-07
-1.06698e-05
7.82303e-05
-3.92757e-07
-1.12675e-05
7.81028e-05
-4.45549e-06
7.80596e-05
2.2668e-07
2.74606e-06
7.61584e-05
3.94437e-07
-4.39036e-06
7.61545e-05
2.89511e-07
-1.10028e-05
7.61811e-05
1.82359e-07
-1.04773e-05
7.62968e-05
8.70962e-08
-1.08671e-05
7.6359e-05
3.08506e-08
-9.84205e-06
7.642e-05
5.58895e-09
-8.82884e-06
7.64888e-05
1.91569e-09
-8.15117e-06
7.65132e-05
3.73235e-09
-8.07205e-06
7.65302e-05
4.76125e-10
-8.13814e-06
7.65221e-05
-2.35616e-08
-8.78781e-06
7.65063e-05
-7.77631e-08
-9.7617e-06
7.6445e-05
-1.70331e-07
-1.07516e-05
7.63885e-05
-2.76101e-07
-1.03941e-05
7.63245e-05
-3.82123e-07
-1.09963e-05
7.6202e-05
-4.46066e-06
7.61647e-05
2.21716e-07
2.50481e-06
7.4292e-05
3.84329e-07
-4.37892e-06
7.4285e-05
2.82427e-07
-1.07244e-05
7.43056e-05
1.79521e-07
-1.01935e-05
7.44163e-05
8.58424e-08
-1.05895e-05
7.44744e-05
3.01208e-08
-9.60059e-06
7.45348e-05
5.13706e-09
-8.6178e-06
7.46036e-05
1.55657e-09
-7.96127e-06
7.46275e-05
3.35394e-09
-7.88722e-06
7.46444e-05
2.52723e-10
-7.94869e-06
7.46361e-05
-2.33837e-08
-8.57825e-06
7.46207e-05
-7.68852e-08
-9.52278e-06
7.45593e-05
-1.67687e-07
-1.04774e-05
7.45034e-05
-2.69053e-07
-1.01123e-05
7.44436e-05
-3.71921e-07
-1.07173e-05
7.43262e-05
-4.44647e-06
7.4295e-05
2.1694e-07
2.2865e-06
7.24498e-05
3.74576e-07
-4.34796e-06
7.24403e-05
2.7549e-07
-1.04361e-05
7.24534e-05
1.76637e-07
-9.90132e-06
7.25589e-05
8.45057e-08
-1.03009e-05
7.26131e-05
2.9343e-08
-9.34742e-06
7.26732e-05
4.68178e-09
-8.39485e-06
7.27423e-05
1.22179e-09
-7.75913e-06
7.2766e-05
3.02151e-09
-7.69009e-06
7.27829e-05
9.50985e-11
-7.74707e-06
7.27745e-05
-2.31125e-08
-8.3569e-06
7.2759e-05
-7.59054e-08
-9.27232e-06
7.26972e-05
-1.65005e-07
-1.01925e-05
7.26415e-05
-2.62182e-07
-9.82232e-06
7.25858e-05
-3.62118e-07
-1.04286e-05
7.24737e-05
-4.41288e-06
7.245e-05
2.12335e-07
2.08979e-06
7.06312e-05
3.6514e-07
-4.298e-06
7.06192e-05
2.68685e-07
-1.01363e-05
7.06228e-05
1.73713e-07
-9.59893e-06
7.07236e-05
8.30932e-08
-9.99984e-06
7.07741e-05
2.8522e-08
-9.08106e-06
7.08339e-05
4.22557e-09
-8.15865e-06
7.09033e-05
9.10333e-10
-7.54354e-06
7.09269e-05
2.73075e-09
-7.47941e-06
7.09436e-05
-1.47285e-12
-7.53206e-06
7.09352e-05
-2.27565e-08
-8.12238e-06
7.09197e-05
-7.48319e-08
-9.00879e-06
7.08574e-05
-1.62292e-07
-9.89509e-06
7.0802e-05
-2.55474e-07
-9.52226e-06
7.07499e-05
-3.52674e-07
-1.01284e-05
7.06428e-05
-4.36034e-06
7.06288e-05
2.07866e-07
1.91373e-06
6.88353e-05
3.55978e-07
-4.22987e-06
6.88192e-05
2.62009e-07
-9.82351e-06
6.88128e-05
1.70754e-07
-9.28481e-06
6.89094e-05
8.16087e-08
-9.68479e-06
6.89566e-05
2.76601e-08
-8.80029e-06
6.90159e-05
3.76912e-09
-7.90806e-06
6.90856e-05
6.20872e-10
-7.31357e-06
6.91089e-05
2.47879e-09
-7.2542e-06
6.91255e-05
-4.35113e-11
-7.3027e-06
6.9117e-05
-2.23208e-08
-7.87355e-06
6.91016e-05
-7.367e-08
-8.73096e-06
6.9039e-05
-1.59551e-07
-9.58386e-06
6.8984e-05
-2.48922e-07
-9.21058e-06
6.89353e-05
-3.43545e-07
-9.81543e-06
6.88324e-05
-4.28967e-06
6.88284e-05
2.03505e-07
1.7578e-06
6.70606e-05
3.47062e-07
-4.14414e-06
6.70375e-05
2.55464e-07
-9.49744e-06
6.70224e-05
1.67763e-07
-8.95857e-06
6.71154e-05
8.0055e-08
-9.35558e-06
6.71596e-05
2.67577e-08
-8.50494e-06
6.72184e-05
3.31186e-09
-7.6429e-06
6.7288e-05
3.49578e-10
-7.06913e-06
6.73109e-05
2.26358e-09
-7.01434e-06
6.73273e-05
-3.48744e-11
-7.05891e-06
6.73188e-05
-2.18082e-08
-7.61022e-06
6.73037e-05
-7.24234e-08
-8.43866e-06
6.72411e-05
-1.56786e-07
-9.25858e-06
6.71865e-05
-2.42526e-07
-8.88687e-06
6.71408e-05
-3.34698e-07
-9.48921e-06
6.70416e-05
-4.20142e-06
6.70465e-05
1.99248e-07
1.62187e-06
6.5304e-05
3.38386e-07
-4.04117e-06
6.52731e-05
2.49046e-07
-9.15872e-06
6.52507e-05
1.64743e-07
-8.62095e-06
6.53406e-05
7.84344e-08
-9.01318e-06
6.5382e-05
2.58155e-08
-8.19589e-06
6.54403e-05
2.85289e-09
-7.36396e-06
6.55097e-05
1.03531e-10
-6.81095e-06
6.5532e-05
2.08361e-09
-6.76055e-06
6.55482e-05
2.28936e-11
-6.80142e-06
6.55397e-05
-2.12214e-08
-7.33316e-06
6.55251e-05
-7.10953e-08
-8.13273e-06
6.54625e-05
-1.53997e-07
-8.92018e-06
6.54085e-05
-2.36281e-07
-8.55185e-06
6.53656e-05
-3.26126e-07
-9.15043e-06
6.52696e-05
-4.09598e-06
6.52818e-05
1.95093e-07
1.50599e-06
6.3563e-05
3.29945e-07
-3.92134e-06
6.35251e-05
2.42751e-07
-8.80839e-06
6.34969e-05
1.61692e-07
-8.27303e-06
6.35841e-05
7.67494e-08
-8.65892e-06
6.36229e-05
2.48345e-08
-7.87437e-06
6.36805e-05
2.39157e-09
-7.07234e-06
6.37497e-05
-1.23977e-10
-6.54007e-06
6.37713e-05
1.93743e-09
-6.49385e-06
6.37873e-05
1.29109e-10
-6.53126e-06
6.37789e-05
-2.05633e-08
-7.04347e-06
6.37647e-05
-6.96892e-08
-7.81438e-06
6.37023e-05
-1.51184e-07
-8.56997e-06
6.36489e-05
-2.30182e-07
-8.20659e-06
6.36086e-05
-3.1782e-07
-8.8001e-06
6.35154e-05
-3.97373e-06
6.35337e-05
1.91036e-07
1.41016e-06
6.18367e-05
3.21727e-07
-3.78518e-06
6.17932e-05
2.36572e-07
-8.44755e-06
6.17602e-05
1.5861e-07
-7.91595e-06
6.1845e-05
7.50024e-08
-8.29414e-06
6.18813e-05
2.38163e-08
-7.54166e-06
6.19383e-05
1.92766e-09
-6.76927e-06
6.2007e-05
-3.35371e-10
-6.25761e-06
6.20279e-05
1.82351e-09
-6.21538e-06
6.20438e-05
2.83488e-10
-6.24953e-06
6.20353e-05
-1.98374e-08
-6.74233e-06
6.20217e-05
-6.82085e-08
-7.48488e-06
6.19596e-05
-1.48347e-07
-8.20927e-06
6.19068e-05
-2.24221e-07
-7.85221e-06
6.1869e-05
-3.09767e-07
-8.43933e-06
6.17784e-05
-3.83521e-06
6.18016e-05
1.87068e-07
1.33404e-06
6.01247e-05
3.13719e-07
-3.63347e-06
6.00769e-05
2.30504e-07
-8.07732e-06
6.00397e-05
1.55496e-07
-7.55083e-06
6.01223e-05
7.31959e-08
-7.92014e-06
6.01563e-05
2.27628e-08
-7.19904e-06
6.02126e-05
1.4612e-09
-6.45594e-06
6.02809e-05
-5.30604e-10
-5.96473e-06
6.0301e-05
1.74021e-09
-5.92629e-06
6.03167e-05
4.80707e-10
-5.95739e-06
6.03082e-05
-1.90474e-08
-6.43095e-06
6.02953e-05
-6.66565e-08
-7.14548e-06
6.02335e-05
-1.45484e-07
-7.83936e-06
6.01813e-05
-2.18389e-07
-7.48982e-06
6.01459e-05
-3.01953e-07
-8.06923e-06
6.00575e-05
-3.6812e-06
6.0085e-05
1.83179e-07
1.27689e-06
5.84268e-05
3.05903e-07
-3.46721e-06
5.83756e-05
2.24536e-07
-7.69883e-06
5.83348e-05
1.52349e-07
-7.17875e-06
5.84154e-05
7.13324e-08
-7.53816e-06
5.84471e-05
2.16761e-08
-6.84774e-06
5.85028e-05
9.92422e-10
-6.13356e-06
5.85705e-05
-7.10499e-10
-5.6626e-06
5.85899e-05
1.68584e-09
-5.62777e-06
5.86053e-05
7.18234e-10
-5.65601e-06
5.8597e-05
-1.81973e-08
-6.11052e-06
5.85846e-05
-6.50366e-08
-6.79739e-06
5.85233e-05
-1.42592e-07
-7.46146e-06
5.84717e-05
-2.12677e-07
-7.12048e-06
5.84386e-05
-2.94358e-07
-7.69091e-06
5.83523e-05
-3.51271e-06
5.83835e-05
1.79358e-07
1.23761e-06
5.67428e-05
2.98261e-07
-3.28761e-06
5.66889e-05
2.18659e-07
-7.31326e-06
5.66448e-05
1.49165e-07
-6.80083e-06
5.67237e-05
6.94144e-08
-7.14945e-06
5.67531e-05
2.05586e-08
-6.48904e-06
5.68082e-05
5.22323e-10
-5.80339e-06
5.68754e-05
-8.75963e-10
-5.35247e-06
5.68939e-05
1.65869e-09
-5.32103e-06
5.69092e-05
9.93667e-10
-5.34661e-06
5.69008e-05
-1.72915e-08
-5.78227e-06
5.68891e-05
-6.33522e-08
-6.44187e-06
5.68282e-05
-1.39669e-07
-7.0768e-06
5.67772e-05
-2.07074e-07
-6.7453e-06
5.67464e-05
-2.86962e-07
-7.30554e-06
5.6662e-05
-3.33095e-06
5.66967e-05
1.75595e-07
1.21478e-06
5.50726e-05
2.90776e-07
-3.0961e-06
5.50165e-05
2.12866e-07
-6.92188e-06
5.49693e-05
1.45944e-07
-6.4183e-06
5.50465e-05
6.74448e-08
-6.75534e-06
5.50737e-05
1.94131e-08
-6.12428e-06
5.51283e-05
5.06266e-11
-5.46678e-06
5.51949e-05
-1.02789e-09
-5.03565e-06
5.52127e-05
1.65698e-09
-5.00741e-06
5.52277e-05
1.30424e-09
-5.03053e-06
5.52194e-05
-1.63343e-08
-5.44755e-06
5.52083e-05
-6.16069e-08
-6.08026e-06
5.51479e-05
-1.36714e-07
-6.68669e-06
5.50973e-05
-2.0157e-07
-6.36549e-06
5.50688e-05
-2.79745e-07
-6.91441e-06
5.49861e-05
-3.13733e-06
5.50241e-05
1.71877e-07
1.20671e-06
5.34159e-05
2.83432e-07
-2.89433e-06
5.33582e-05
2.07148e-07
-6.52617e-06
5.33081e-05
1.42682e-07
-6.03254e-06
5.33837e-05
6.54265e-08
-6.35733e-06
5.34088e-05
1.82426e-08
-5.75499e-06
5.34628e-05
-4.23959e-10
-5.12524e-06
5.35288e-05
-1.16714e-09
-4.71367e-06
5.35458e-05
1.67894e-09
-4.68842e-06
5.35606e-05
1.64698e-09
-4.70926e-06
5.35524e-05
-1.53305e-08
-5.10786e-06
5.3542e-05
-5.98044e-08
-5.71405e-06
5.3482e-05
-1.33722e-07
-6.29262e-06
5.34319e-05
-1.96155e-07
-5.98243e-06
5.34055e-05
-2.7269e-07
-6.51895e-06
5.33245e-05
-2.93351e-06
5.33655e-05
1.68196e-07
1.21144e-06
5.17729e-05
2.76212e-07
-2.6842e-06
5.17137e-05
2.01497e-07
-6.12779e-06
5.16609e-05
1.39378e-07
-5.64516e-06
5.17352e-05
6.33627e-08
-5.95714e-06
5.17581e-05
1.70502e-08
-5.38291e-06
5.18117e-05
-8.97539e-10
-4.78054e-06
5.18771e-05
-1.29452e-09
-4.38826e-06
5.18932e-05
1.72275e-09
-4.36581e-06
5.19077e-05
2.01876e-09
-4.38454e-06
5.18997e-05
-1.42849e-08
-4.76495e-06
5.18899e-05
-5.79488e-08
-5.34498e-06
5.18304e-05
-1.30693e-07
-5.8963e-06
5.17808e-05
-1.9082e-07
-5.59771e-06
5.17566e-05
-2.65778e-07
-6.12085e-06
5.1677e-05
-2.72138e-06
5.17208e-05
1.64541e-07
1.2268e-06
5.01436e-05
2.69102e-07
-2.46788e-06
5.00832e-05
1.95905e-07
-5.72872e-06
5.00279e-05
1.36031e-07
-5.25805e-06
5.0101e-05
6.1257e-08
-5.55674e-06
5.01218e-05
1.58395e-08
-5.01004e-06
5.01749e-05
-1.36997e-09
-4.43467e-06
5.02397e-05
-1.41079e-09
-4.06142e-06
5.0255e-05
1.78658e-09
-4.04156e-06
5.02692e-05
2.41632e-09
-4.05836e-06
5.02613e-05
-1.32028e-08
-4.4208e-06
5.02522e-05
-5.60442e-08
-4.97504e-06
5.01932e-05
-1.27623e-07
-5.49968e-06
5.0144e-05
-1.85557e-07
-5.21322e-06
5.01219e-05
-2.58992e-07
-5.72207e-06
5.00437e-05
-2.50311e-06
5.00902e-05
1.60904e-07
1.25038e-06
4.85279e-05
2.62087e-07
-2.24775e-06
4.84667e-05
1.90366e-07
-5.33115e-06
4.84092e-05
1.32637e-07
-4.87334e-06
4.84811e-05
5.91133e-08
-5.15836e-06
4.85e-05
1.46145e-08
-4.63863e-06
4.85526e-05
-1.84023e-09
-4.08989e-06
4.86167e-05
-1.51664e-09
-3.73537e-06
4.86312e-05
1.86856e-09
-3.71793e-06
4.86452e-05
2.83628e-09
-3.73295e-06
4.86373e-05
-1.20896e-08
-4.07767e-06
4.86289e-05
-5.40952e-08
-4.60645e-06
4.85705e-05
-1.24512e-07
-5.10498e-06
4.85216e-05
-1.80356e-07
-4.83107e-06
4.85015e-05
-2.52317e-07
-5.32479e-06
4.84246e-05
-2.28108e-06
4.84735e-05
1.57277e-07
1.27966e-06
4.69261e-05
2.55153e-07
-2.02634e-06
4.68643e-05
1.84871e-07
-4.93745e-06
4.68047e-05
1.29198e-07
-4.49334e-06
4.68757e-05
5.69354e-08
-4.7644e-06
4.68926e-05
1.33789e-08
-4.27107e-06
4.69448e-05
-2.30703e-09
-3.74862e-06
4.70082e-05
-1.6127e-09
-3.41253e-06
4.70219e-05
1.9668e-09
-3.39731e-06
4.70355e-05
3.27515e-09
-3.4107e-06
4.70278e-05
-1.09507e-08
-3.73797e-06
4.702e-05
-5.21063e-08
-4.24161e-06
4.69622e-05
-1.21356e-07
-4.71459e-06
4.69138e-05
-1.75209e-07
-4.45357e-06
4.68957e-05
-2.45735e-07
-4.93138e-06
4.68198e-05
-2.0578e-06
4.68709e-05
1.53649e-07
1.31208e-06
4.53379e-05
2.48287e-07
-1.80624e-06
4.52759e-05
1.79415e-07
-4.55008e-06
4.52146e-05
1.2571e-07
-4.12043e-06
4.52847e-05
5.47276e-08
-4.37733e-06
4.52997e-05
1.21371e-08
-3.90987e-06
4.53514e-05
-2.76893e-09
-3.41334e-06
4.5414e-05
-1.69953e-09
-3.09537e-06
4.5427e-05
2.0794e-09
-3.08218e-06
4.54403e-05
3.72937e-09
-3.09408e-06
4.54328e-05
-9.79177e-09
-3.40417e-06
4.54255e-05
-5.00822e-08
-3.88301e-06
4.53684e-05
-1.18156e-07
-4.33098e-06
4.53204e-05
-1.70108e-07
-4.08309e-06
4.53042e-05
-2.39232e-07
-4.54429e-06
4.52293e-05
-1.83588e-06
4.52822e-05
1.50013e-07
1.34512e-06
4.37633e-05
2.41474e-07
-1.58999e-06
4.37012e-05
1.73989e-07
-4.17147e-06
4.36385e-05
1.22173e-07
-3.75698e-06
4.37078e-05
5.24938e-08
-3.99962e-06
4.37211e-05
1.08932e-08
-3.55748e-06
4.37723e-05
-3.22436e-09
-3.08652e-06
4.3834e-05
-1.77765e-09
-2.78632e-06
4.38463e-05
2.20443e-09
-2.77501e-06
4.38593e-05
4.19528e-09
-2.78555e-06
4.38519e-05
-8.61842e-09
-3.07873e-06
4.38452e-05
-4.80275e-08
-3.53311e-06
4.37889e-05
-1.14908e-07
-3.9566e-06
4.37413e-05
-1.65044e-07
-3.72201e-06
4.37268e-05
-2.32791e-07
-4.16596e-06
4.36529e-05
-1.61785e-06
4.37074e-05
1.4636e-07
1.37643e-06
4.22017e-05
2.34699e-07
-1.38e-06
4.21398e-05
1.68585e-07
-3.80394e-06
4.20761e-05
1.18585e-07
-3.40526e-06
4.21447e-05
5.02381e-08
-3.63358e-06
4.21563e-05
9.65158e-09
-3.21624e-06
4.22071e-05
-3.67162e-09
-2.77048e-06
4.22678e-05
-1.84751e-09
-2.48772e-06
4.22794e-05
2.33993e-09
-2.47812e-06
4.2292e-05
4.66914e-09
-2.48742e-06
4.22848e-05
-7.43632e-09
-2.76399e-06
4.22787e-05
-4.59468e-08
-3.19423e-06
4.22232e-05
-1.11613e-07
-3.59377e-06
4.2176e-05
-1.60008e-07
-3.37258e-06
4.21632e-05
-2.26395e-07
-3.79871e-06
4.20901e-05
-1.40612e-06
4.21458e-05
1.42679e-07
1.40385e-06
4.06527e-05
2.27946e-07
-1.17848e-06
4.05913e-05
1.63194e-07
-3.44964e-06
4.05268e-05
1.14946e-07
-3.06732e-06
4.05948e-05
4.79645e-08
-3.28138e-06
4.06049e-05
8.41645e-09
-2.8883e-06
4.06551e-05
-4.10891e-09
-2.46738e-06
4.07148e-05
-1.90951e-09
-2.20169e-06
4.07257e-05
2.48395e-09
-2.19363e-06
4.0738e-05
5.14711e-09
-2.20181e-06
4.0731e-05
-6.25114e-09
-2.46208e-06
4.07253e-05
-4.38446e-08
-2.86852e-06
4.06707e-05
-1.08267e-07
-3.24464e-06
4.06241e-05
-1.5499e-07
-3.03685e-06
4.06129e-05
-2.20028e-07
-3.44466e-06
4.05405e-05
-1.20291e-06
4.05972e-05
1.38962e-07
1.42549e-06
3.91156e-05
2.212e-07
-9.8739e-07
3.9055e-05
1.57809e-07
-3.11043e-06
3.899e-05
1.11253e-07
-2.74498e-06
3.90573e-05
4.5677e-08
-2.94488e-06
3.90661e-05
7.19223e-09
-2.57553e-06
3.91156e-05
-4.53428e-09
-2.17906e-06
3.91742e-05
-1.964e-09
-1.93008e-06
3.91846e-05
2.63449e-09
-1.92342e-06
3.91964e-05
5.62528e-09
-1.93057e-06
3.91897e-05
-5.06854e-09
-2.17486e-06
3.91844e-05
-4.17254e-08
-2.55786e-06
3.91309e-05
-1.04869e-07
-2.91108e-06
3.90847e-05
-1.49981e-07
-2.71665e-06
3.90749e-05
-2.13671e-07
-3.10571e-06
3.90034e-05
-1.01017e-06
3.90606e-05
1.352e-07
1.43976e-06
3.75896e-05
2.14446e-07
-8.08378e-07
3.75299e-05
1.52421e-07
-2.78791e-06
3.74648e-05
1.07506e-07
-2.43976e-06
3.75315e-05