0 	0 	0 	0
0 	0 	0 	0
0.00752508 	-0.000961917 	0.0022295 	-0.277918
0.00752508 	-0.000961917 	0.0022295 	-0.277918
0.00757525 	-0.000969475 	0.00222621 	-0.277737
0.00762542 	-0.000977033 	0.00222292 	-0.277556
0.00762542 	-0.000977033 	0.00222292 	-0.277556
0.00767559 	-0.000984553 	0.0022196 	-0.277375
0.00772575 	-0.0009879 	0.00221284 	-0.27717
0.00777592 	-0.000991247 	0.00220608 	-0.276965
0.00782609 	-0.000994594 	0.00219933 	-0.276759
0.00782609 	-0.000994594 	0.00219933 	-0.276759
0.00787625 	-0.000998482 	0.00219377 	-0.276541
0.00792642 	-0.00100276 	0.00218908 	-0.276313
0.00797659 	-0.00100704 	0.00218439 	-0.276084
0.00802676 	-0.00101165 	0.00217994 	-0.275852
0.00802676 	-0.00101165 	0.00217994 	-0.275852
0.00807692 	-0.00101751 	0.00217641 	-0.275602
0.00812709 	-0.00102336 	0.00217288 	-0.275352
0.00812709 	-0.00102336 	0.00217288 	-0.275352
0.00817726 	-0.00102921 	0.00216935 	-0.275102
0.00822742 	-0.00103539 	0.00216372 	-0.274836
0.00822742 	-0.00103539 	0.00216372 	-0.274836
0.00827759 	-0.00104161 	0.00215787 	-0.274567
0.00832776 	-0.00104782 	0.00215201 	-0.274298
0.00832776 	-0.00104782 	0.00215201 	-0.274298
0.00837793 	-0.00105364 	0.00214587 	-0.274017
0.00842809 	-0.00105925 	0.00213959 	-0.273729
0.00842809 	-0.00105925 	0.00213959 	-0.273729
0.00847826 	-0.00106486 	0.00213331 	-0.273442
0.00847826 	-0.00106486 	0.00213331 	-0.273442
0.00852843 	-0.0010699 	0.00212664 	-0.273145
0.00852843 	-0.0010699 	0.00212664 	-0.273145
0.0085786 	-0.00107428 	0.00211951 	-0.272837
0.0085786 	-0.00107428 	0.00211951 	-0.272837
0.00862876 	-0.00107866 	0.00211237 	-0.27253
0.00867893 	-0.00108247 	0.00210494 	-0.272215
0.00867893 	-0.00108247 	0.00210494 	-0.272215
0.0087291 	-0.00108505 	0.00209687 	-0.271886
0.00877926 	-0.00108763 	0.0020888 	-0.271557
0.00877926 	-0.00108763 	0.0020888 	-0.271557
0.00882943 	-0.00108964 	0.00208056 	-0.271223
0.0088796 	-0.00108979 	0.00207176 	-0.270873
0.0088796 	-0.00108979 	0.00207176 	-0.270873
0.00897993 	-0.00108953 	0.00205402 	-0.270169
0.00897993 	-0.00108953 	0.00205402 	-0.270169
0.0090301 	-0.00108698 	0.00204451 	-0.269798
0.00908027 	-0.00108442 	0.002035 	-0.269427
0.00908027 	-0.00108442 	0.002035 	-0.269427
0.00913043 	-0.00108137 	0.00202527 	-0.269051
0.0091806 	-0.00107673 	0.00201479 	-0.268659
0.0091806 	-0.00107673 	0.00201479 	-0.268659
0.00923077 	-0.00107209 	0.00200431 	-0.268267
0.00928094 	-0.00106712 	0.00199345 	-0.267868
0.00928094 	-0.00106712 	0.00199345 	-0.267868
0.0093311 	-0.00106144 	0.00198173 	-0.267454
0.00938127 	-0.00105575 	0.00197 	-0.267039
0.00938127 	-0.00105575 	0.00197 	-0.267039
0.00943144 	-0.00104964 	0.00195765 	-0.266614
0.00943144 	-0.00104964 	0.00195765 	-0.266614
0.00948161 	-0.00104297 	0.00194449 	-0.266175
0.00948161 	-0.00104297 	0.00194449 	-0.266175
0.00953177 	-0.00103631 	0.00193134 	-0.265737
0.00953177 	-0.00103631 	0.00193134 	-0.265737
0.00958194 	-0.0010279 	0.00191744 	-0.265282
0.00958194 	-0.0010279 	0.00191744 	-0.265282
0.00963211 	-0.00101842 	0.0019031 	-0.264817
0.00963211 	-0.00101842 	0.0019031 	-0.264817
0.00968227 	-0.00100894 	0.00188875 	-0.264352
0.00968227 	-0.00100894 	0.00188875 	-0.264352
0.00973244 	-0.000994423 	0.00187408 	-0.263863
0.00978261 	-0.000978995 	0.00185935 	-0.26337
0.00983278 	-0.000962496 	0.00184462 	-0.262873
0.00988294 	-0.000938499 	0.00182991 	-0.26235
0.00988294 	-0.000938499 	0.00182991 	-0.26235
0.00993311 	-0.000914503 	0.00181521 	-0.261828
0.00998328 	-0.000886219 	0.00180065 	-0.261292
0.00998328 	-0.000886219 	0.00180065 	-0.261292
0.0100334 	-0.000852714 	0.00178627 	-0.26074
0.0100334 	-0.000852714 	0.00178627 	-0.26074
0.0100836 	-0.00081921 	0.00177188 	-0.260189
0.0101338 	-0.000778155 	0.00175749 	-0.259614
0.0101338 	-0.000778155 	0.00175749 	-0.259614
0.0102341 	-0.000690751 	0.00172885 	-0.258448
0.0102341 	-0.000690751 	0.00172885 	-0.258448
0.0102843 	-0.000639586 	0.00171494 	-0.257842
0.0103344 	-0.00058842 	0.00170104 	-0.257235
0.0103344 	-0.00058842 	0.00170104 	-0.257235
0.0103846 	-0.000531968 	0.00168998 	-0.256607
0.0103846 	-0.000531968 	0.00168998 	-0.256607
0.0104348 	-0.000473337 	0.00168009 	-0.255971
0.0104849 	-0.00041372 	0.00167028 	-0.255325
0.0104849 	-0.00041372 	0.00167028 	-0.255325
0.0105351 	-0.000350557 	0.00166079 	-0.254646
0.0105853 	-0.000287394 	0.00165129 	-0.253968
0.0105853 	-0.000287394 	0.00165129 	-0.253968
0.0106355 	-0.000223974 	0.00163233 	-0.253245
0.0106856 	-0.000160478 	0.00161055 	-0.252508
0.0106856 	-0.000160478 	0.00161055 	-0.252508
0.0107358 	-9.70524e-05 	0.00158351 	-0.251748
0.0107358 	-9.70524e-05 	0.00158351 	-0.251748
0.010786 	-3.37489e-05 	0.00154741 	-0.250949
0.010786 	-3.37489e-05 	0.00154741 	-0.250949
0.0108361 	2.9599e-05 	0.00151133 	-0.25015
0.0108361 	2.9599e-05 	0.00151133 	-0.25015
0.0108863 	9.9884e-05 	0.00147902 	-0.249319
0.0109365 	0.000170169 	0.00144672 	-0.248489
0.0109365 	0.000170169 	0.00144672 	-0.248489
0.0109866 	0.000251311 	0.00142869 	-0.247671
0.0109866 	0.000251311 	0.00142869 	-0.247671
0.0110368 	0.000337405 	0.00141717 	-0.246858
0.011087 	0.000429787 	0.00141195 	-0.246056
0.011087 	0.000429787 	0.00141195 	-0.246056
0.0111371 	0.000531292 	0.00141588 	-0.24527
0.0111873 	0.000634113 	0.00141674 	-0.244486
0.0111873 	0.000634113 	0.00141674 	-0.244486
0.0112375 	0.000743381 	0.00140258 	-0.243704
0.0112876 	0.000852649 	0.00138842 	-0.242923
0.0112876 	0.000852649 	0.00138842 	-0.242923
0.0113378 	0.000963974 	0.00133462 	-0.242094
0.011388 	0.00107536 	0.00127961 	-0.241263
0.011388 	0.00107536 	0.00127961 	-0.241263
0.0114883 	0.00130099 	0.00118137 	-0.239305
0.0114883 	0.00130099 	0.00118137 	-0.239305
0.0115385 	0.00141913 	0.00117105 	-0.238123
0.0115886 	0.00153961 	0.0011781 	-0.236855
0.0115886 	0.00153961 	0.0011781 	-0.236855
0.0116388 	0.00166817 	0.00120846 	-0.235452
0.011689 	0.00180206 	0.00125422 	-0.23396
0.011689 	0.00180206 	0.00125422 	-0.23396
0.0117391 	0.00193742 	0.00127077 	-0.232565
0.0117893 	0.00207396 	0.00126384 	-0.231247
0.0117893 	0.00207396 	0.00126384 	-0.231247
0.0118395 	0.00220437 	0.00121361 	-0.230163
0.0118896 	0.00232958 	0.00112678 	-0.229277
0.0118896 	0.00232958 	0.00112678 	-0.229277
0.0119398 	0.00244897 	0.00104871 	-0.228483
0.0119398 	0.00244897 	0.00104871 	-0.228483
0.01199 	0.00256388 	0.000977378 	-0.227762
0.01199 	0.00256388 	0.000977378 	-0.227762
0.0120401 	0.00267575 	0.000939229 	-0.22697
0.0120401 	0.00267575 	0.000939229 	-0.22697
0.0120903 	0.00278578 	0.000921126 	-0.226136
0.0120903 	0.00278578 	0.000921126 	-0.226136
0.0121405 	0.00289383 	0.000917608 	-0.225189
0.0121405 	0.00289383 	0.000917608 	-0.225189
0.0121906 	0.00300108 	0.000919884 	-0.224198
0.0121906 	0.00300108 	0.000919884 	-0.224198
0.0122408 	0.0031052 	0.000911548 	-0.223126
0.0122408 	0.0031052 	0.000911548 	-0.223126
0.012291 	0.00320872 	0.000901206 	-0.22204
0.012291 	0.00320872 	0.000901206 	-0.22204
0.0123411 	0.00330707 	0.000874796 	-0.220907
0.0123411 	0.00330707 	0.000874796 	-0.220907
0.0123913 	0.00340419 	0.00084824 	-0.219768
0.0123913 	0.00340419 	0.00084824 	-0.219768
0.0124415 	0.00349612 	0.000821069 	-0.218597
0.0124916 	0.00358481 	0.000795084 	-0.217409
0.0124916 	0.00358481 	0.000795084 	-0.217409
0.012592 	0.00374696 	0.000745846 	-0.214948
0.012592 	0.00374696 	0.000745846 	-0.214948
0.0126421 	0.00382192 	0.000720623 	-0.213686
0.0126923 	0.00388582 	0.000692712 	-0.212374
0.0126923 	0.00388582 	0.000692712 	-0.212374
0.0127425 	0.00394495 	0.000664392 	-0.211044
0.0127425 	0.00394495 	0.000664392 	-0.211044
0.0127926 	0.00399258 	0.000635312 	-0.209674
0.0128428 	0.00402778 	0.000607028 	-0.208267
0.0128428 	0.00402778 	0.000607028 	-0.208267
0.012893 	0.00405521 	0.00057924 	-0.206837
0.0129431 	0.00405997 	0.000554625 	-0.205338
0.0129431 	0.00405997 	0.000554625 	-0.205338
0.0129933 	0.00405563 	0.000531276 	-0.203808
0.0130435 	0.00403759 	0.000509833 	-0.202229
0.0130435 	0.00403759 	0.000509833 	-0.202229
0.0130936 	0.00400353 	0.000488391 	-0.200575
0.0131438 	0.00396151 	0.000466594 	-0.198876
0.0131438 	0.00396151 	0.000466594 	-0.198876
0.013194 	0.00390801 	0.000443894 	-0.197103
0.0132441 	0.00384361 	0.000419376 	-0.195241
0.0132441 	0.00384361 	0.000419376 	-0.195241
0.0132943 	0.00377165 	0.000393449 	-0.193315
0.0133445 	0.00368873 	0.00036532 	-0.191296
0.0133445 	0.00368873 	0.00036532 	-0.191296
0.0133946 	0.003591 	0.000338023 	-0.189157
0.0134448 	0.00348379 	0.0003134 	-0.18693
0.0134448 	0.00348379 	0.0003134 	-0.18693
0.013495 	0.0033666 	0.000292767 	-0.1846
0.0135452 	0.00324721 	0.000277774 	-0.182082
0.0135452 	0.00324721 	0.000277774 	-0.182082
0.0136455 	0.00305364 	0.000243669 	-0.176605
0.0136455 	0.00305364 	0.000243669 	-0.176605
0.0136957 	0.00299953 	0.000219501 	-0.173582
0.0137458 	0.0029844 	0.000190637 	-0.170302
0.0137458 	0.0029844 	0.000190637 	-0.170302
0.013796 	0.00298827 	0.000162424 	-0.166812
0.0138462 	0.00300262 	0.000136927 	-0.1631
0.0138462 	0.00300262 	0.000136927 	-0.1631
0.0138963 	0.00301686 	0.000116044 	-0.159148
0.0138963 	0.00301686 	0.000116044 	-0.159148
0.0139465 	0.00301583 	9.99693e-05 	-0.154851
0.0139967 	0.0029987 	8.51348e-05 	-0.150256
0.0139967 	0.0029987 	8.51348e-05 	-0.150256
0.0140468 	0.0029654 	7.07856e-05 	-0.145347
0.0140468 	0.0029654 	7.07856e-05 	-0.145347
0.014097 	0.00291578 	5.67483e-05 	-0.140098
0.0141472 	0.00284995 	4.32571e-05 	-0.134482
0.0141973 	0.0027681 	3.05219e-05 	-0.128473
0.0141973 	0.0027681 	3.05219e-05 	-0.128473
0.0142475 	0.00266568 	1.87031e-05 	-0.12198
0.0142977 	0.00254213 	8.6026e-06 	-0.115056
0.0143478 	0.00240049 	1.34747e-06 	-0.107701
0.0143478 	0.00240049 	1.34747e-06 	-0.107701
0.014398 	0.00225226 	-2.87004e-06 	-0.0999254
0.014398 	0.00225226 	-2.87004e-06 	-0.0999254
0.0144482 	0.00211796 	-5.19625e-06 	-0.0917653
0.0144983 	0.00202184 	-6.93248e-06 	-0.0832895
0.0144983 	0.00202184 	-6.93248e-06 	-0.0832895
0.0145485 	0.00197952 	-8.07562e-06 	-0.0745989
0.0145987 	0.00198604 	-7.83133e-06 	-0.0658134
0.0145987 	0.00198604 	-7.83133e-06 	-0.0658134
0.0146488 	0.00201127 	-5.96759e-06 	-0.0570496
0.014699 	0.00199896 	-2.63905e-06 	-0.0483978
0.014699 	0.00199896 	-2.63905e-06 	-0.0483978
0.0147492 	0.00186304 	1.8761e-06 	-0.0399087
0.0147993 	0.00147508 	6.92435e-06 	-0.0315936
0.0147993 	0.00147508 	6.92435e-06 	-0.0315936
0.0148495 	0.000632589 	1.03943e-05 	-0.0234172
0.0148495 	0.000632589 	1.03943e-05 	-0.0234172
0.0148997 	-0.000582703 	1.02429e-05 	-0.0153535
0.0148997 	-0.000582703 	1.02429e-05 	-0.0153535
0.0149498 	-0.00115499 	6.73467e-06 	-0.00752197
0.0149498 	-0.00115499 	6.73467e-06 	-0.00752197
0.015 	0 	0 	0
