/*--------------------------------*- C++ -*----------------------------------*\
| =========                 |                                                 |
| \\      /  F ield         | OpenFOAM: The Open Source CFD Toolbox           |
|  \\    /   O peration     | Version:  v1906                                 |
|   \\  /    A nd           | Web:      www.OpenFOAM.com                      |
|    \\/     M anipulation  |                                                 |
\*---------------------------------------------------------------------------*/
FoamFile
{
    version     2.0;
    format      ascii;
    class       surfaceScalarField;
    location    "96.8";
    object      phi;
}
// * * * * * * * * * * * * * * * * * * * * * * * * * * * * * * * * * * * * * //

dimensions      [1 0 -1 0 0 0 0];
oriented        oriented;


internalField   nonuniform List<scalar> 
1408
(
-5.75307e-08
9.83468e-06
-2.47486e-06
2.89459e-07
-1.86587e-06
-1.62181e-06
-1.14858e-06
4.21973e-07
-2.82321e-06
-3.12529e-06
-2.89007e-06
5.36915e-07
8.20245e-06
-8.43001e-06
-3.58603e-07
-4.19027e-06
-5.9782e-06
-2.3428e-06
3.37684e-07
-9.4089e-06
-9.53331e-06
-9.65758e-06
1.31393e-06
5.69771e-06
-1.47649e-05
-1.37719e-06
-6.09238e-06
-1.06321e-05
-3.28508e-06
-4.57053e-07
-1.63536e-05
-1.86206e-05
-1.66937e-05
2.10388e-06
2.41377e-06
-2.10713e-05
-2.40939e-06
-7.43641e-06
-1.53019e-05
-4.30986e-06
-1.82227e-06
-2.32845e-05
-3.03936e-05
-2.37145e-05
2.87334e-06
-1.65848e-06
-2.73183e-05
-3.39677e-06
-8.13903e-06
-2.00142e-05
-5.33037e-06
-3.66776e-06
-3.01844e-05
-4.46625e-05
-3.07292e-05
3.60693e-06
-6.44862e-06
-3.35455e-05
-4.35608e-06
-8.11932e-06
-2.47946e-05
-6.32666e-06
-5.9043e-06
-3.70876e-05
-6.12469e-05
-3.77489e-05
4.29755e-06
-1.18685e-05
-3.97502e-05
-5.29117e-06
-7.30785e-06
-2.9641e-05
-7.2873e-06
-8.45628e-06
-4.39822e-05
-7.99719e-05
-4.47594e-05
4.93946e-06
-1.78293e-05
-4.59177e-05
-6.20172e-06
-5.65317e-06
-3.45401e-05
-8.20314e-06
-1.1268e-05
-5.08407e-05
-0.000100667
-5.17394e-05
5.52927e-06
-2.42502e-05
-5.20282e-05
-7.08577e-06
-3.12449e-06
-3.94717e-05
-9.06687e-06
-1.43036e-05
-5.76291e-05
-0.000123166
-5.86625e-05
6.06528e-06
-3.10595e-05
-5.80584e-05
-7.94081e-06
2.87222e-07
-4.44124e-05
-9.87353e-06
-1.75421e-05
-6.43132e-05
-0.000147306
-6.55001e-05
6.54772e-06
-3.81955e-05
-6.3987e-05
-8.76446e-06
4.57162e-06
-4.93384e-05
-1.06216e-05
-2.09698e-05
-7.08669e-05
-0.000172933
-7.2228e-05
6.97876e-06
-4.56054e-05
-6.98e-05
-9.5551e-06
9.7049e-06
-5.42297e-05
-1.13133e-05
-2.45733e-05
-7.72777e-05
-0.000199899
-7.8832e-05
7.36202e-06
-5.32438e-05
-7.54937e-05
-1.03121e-05
1.5657e-05
-5.90738e-05
-1.19533e-05
-2.83389e-05
-8.35467e-05
-0.000228071
-8.53159e-05
7.70192e-06
-6.10671e-05
-8.10741e-05
-1.10356e-05
2.23948e-05
-6.38658e-05
-1.25465e-05
-3.22453e-05
-8.96946e-05
-0.000257317
-9.17043e-05
8.00326e-06
-6.90386e-05
-8.65542e-05
-1.17266e-05
2.98887e-05
-6.8613e-05
-1.30981e-05
-3.62594e-05
-9.57492e-05
-0.00028751
-9.80224e-05
8.27095e-06
-7.71279e-05
-9.19514e-05
-1.23874e-05
3.81225e-05
-7.33316e-05
-1.36135e-05
-4.03445e-05
-0.000101733
-0.000318534
-0.000104284
8.50939e-06
-8.52972e-05
-9.72883e-05
-1.30204e-05
4.70913e-05
-7.80345e-05
-1.40967e-05
-4.44632e-05
-0.000107666
-0.000350285
-0.000110501
8.72245e-06
-9.35e-05
-0.000102585
-1.3628e-05
5.67965e-05
-8.27311e-05
-1.45516e-05
-4.85761e-05
-0.00011356
-0.000382667
-0.000116682
8.91343e-06
-0.000101688
-0.000107856
-1.4212e-05
6.72435e-05
-8.74304e-05
-1.49821e-05
-5.26435e-05
-0.000119428
-0.000415596
-0.000122837
9.08523e-06
-0.000109811
-0.000113113
-1.4774e-05
7.84408e-05
-9.21415e-05
-1.53916e-05
-5.66257e-05
-0.000125284
-0.000448993
-0.000128977
9.24043e-06
-0.000117821
-0.000118368
-1.53159e-05
9.03996e-05
-9.68732e-05
-1.57831e-05
-6.0484e-05
-0.000131137
-0.000482789
-0.00013511
9.3813e-06
-0.000125667
-0.000123632
-1.5839e-05
0.000103132
-0.000101633
-1.61591e-05
-6.41815e-05
-0.000136998
-0.000516926
-0.000141245
9.50984e-06
-0.000133303
-0.000128913
-1.63448e-05
0.000116652
-0.00010643
-1.65222e-05
-6.76856e-05
-0.000142875
-0.000551355
-0.000147389
9.62782e-06
-0.000140681
-0.00013422
-1.68344e-05
0.00013097
-0.000111268
-1.68743e-05
-7.09691e-05
-0.000148777
-0.000586035
-0.000153548
9.7368e-06
-0.000147755
-0.000139562
-1.73091e-05
0.0001461
-0.000116156
-1.72172e-05
-7.40093e-05
-0.000154711
-0.000620936
-0.000159728
9.83821e-06
-0.000154486
-0.000144944
-1.77697e-05
0.000162047
-0.000121096
-1.75525e-05
-7.67877e-05
-0.000160683
-0.000656033
-0.000165932
9.93331e-06
-0.000160844
-0.000150372
-1.82167e-05
0.000178819
-0.000126094
-1.78817e-05
-7.92904e-05
-0.000166699
-0.000691306
-0.000172167
1.00232e-05
-0.000166803
-0.000155853
-1.86509e-05
0.000196418
-0.000131155
-1.8206e-05
-8.15066e-05
-0.000172763
-0.000726739
-0.000178435
1.0109e-05
-0.000172348
-0.000161391
-1.90726e-05
0.000214841
-0.000136283
-1.85264e-05
-8.3428e-05
-0.000178879
-0.000762323
-0.000184738
1.01914e-05
-0.000177467
-0.000166991
-1.94821e-05
0.000234085
-0.000141482
-1.88438e-05
-8.50492e-05
-0.000185051
-0.000798049
-0.000191078
1.02711e-05
-0.000182154
-0.000172656
-1.98795e-05
0.000254143
-0.000146752
-1.9159e-05
-8.63669e-05
-0.00019128
-0.000833915
-0.000197455
1.03483e-05
-0.000186405
-0.000178388
-2.02646e-05
0.000275006
-0.000152096
-1.94725e-05
-8.73805e-05
-0.000197567
-0.000869923
-0.000203869
1.04236e-05
-0.000190225
-0.000184189
-2.0638e-05
0.000296659
-0.00015752
-1.97848e-05
-8.80916e-05
-0.000203912
-0.000906075
-0.000210319
1.04974e-05
-0.00019362
-0.00019006
-2.1e-05
0.000319089
-0.000163025
-2.00966e-05
-8.8503e-05
-0.000210316
-0.00094238
-0.000216804
1.05699e-05
-0.000196603
-0.000196004
-2.13505e-05
0.000342277
-0.000168616
-2.04084e-05
-8.86181e-05
-0.000216779
-0.000978848
-0.000223325
1.06414e-05
-0.000199192
-0.000202021
-2.16891e-05
0.000366205
-0.000174293
-2.07203e-05
-8.84401e-05
-0.0002233
-0.00101549
-0.000229884
1.07121e-05
-0.000201406
-0.000208112
-2.20154e-05
0.000390848
-0.00018006
-2.10315e-05
-8.79733e-05
-0.000229882
-0.00105232
-0.000236481
1.07822e-05
-0.000203272
-0.000214281
-2.23292e-05
0.000416181
-0.000185917
-2.13398e-05
-8.72243e-05
-0.000236527
-0.00108934
-0.000243118
1.08519e-05
-0.000204819
-0.00022053
-2.26308e-05
0.000442179
-0.000191867
-2.16431e-05
-8.62041e-05
-0.000243236
-0.00112655
-0.000249785
1.09212e-05
-0.000206076
-0.000226859
-2.29208e-05
0.000468811
-0.000197909
-2.19419e-05
-8.49273e-05
-0.000250008
-0.00116395
-0.000256466
1.09899e-05
-0.000207069
-0.000233269
-2.31994e-05
0.000496047
-0.000204046
-2.22426e-05
-8.34086e-05
-0.000256835
-0.00120155
-0.000263143
1.10576e-05
-0.000207825
-0.000239758
-2.34652e-05
0.000523851
-0.000210276
-2.25512e-05
-8.16621e-05
-0.000263708
-0.00123941
-0.000269822
1.11238e-05
-0.000208385
-0.00024632
-2.37149e-05
0.000552181
-0.000216601
-2.28657e-05
-7.9704e-05
-0.000270621
-0.00127753
-0.000276521
1.11879e-05
-0.000208802
-0.000252952
-2.39445e-05
0.000580989
-0.000223021
-2.31829e-05
-7.75443e-05
-0.000277588
-0.00131595
-0.000283246
1.12498e-05
-0.000209132
-0.000259654
-2.41521e-05
0.000610225
-0.000229538
-2.35015e-05
-7.51753e-05
-0.00028464
-0.00135468
-0.000289995
1.1309e-05
-0.000209427
-0.00026644
-2.43404e-05
0.000639837
-0.00023615
-2.38168e-05
-7.25712e-05
-0.000291825
-0.00139374
-0.000296764
1.1365e-05
-0.000209712
-0.000273337
-2.45156e-05
0.000669778
-0.000242855
-2.41224e-05
-6.9697e-05
-0.000299178
-0.00143313
-0.000303549
1.14148e-05
-0.000209975
-0.000280384
-2.46822e-05
0.000699996
-0.000249648
-2.44144e-05
-6.65274e-05
-0.000306692
-0.00147285
-0.000310343
1.14522e-05
-0.000210168
-0.000287607
-2.48386e-05
0.000730417
-0.000256524
-2.46946e-05
-6.30678e-05
-0.000314314
-0.00151292
-0.00031715
1.14658e-05
-0.00021023
-0.000295006
-2.49765e-05
0.000760935
-0.000263476
-2.49685e-05
-5.93612e-05
-0.000321974
-0.00155332
-0.000323982
1.14438e-05
-0.000210138
-0.00030256
-2.50864e-05
0.000791412
-0.000270511
-2.52378e-05
-5.54702e-05
-0.000329639
-0.00159404
-0.000330848
1.13816e-05
-0.000209938
-0.000310276
-2.51636e-05
0.000821706
-0.000277639
-2.54988e-05
-5.14459e-05
-0.000337336
-0.00163506
-0.000337752
1.12902e-05
-0.000209737
-0.000318215
-2.5204e-05
0.000851669
-0.000284857
-2.57443e-05
-4.73093e-05
-0.000345117
-0.00167634
-0.000344694
1.11994e-05
-0.000209652
-0.000326416
-2.51997e-05
0.000881145
-0.000292178
-2.59642e-05
-4.3054e-05
-0.000353029
-0.00171777
-0.000351676
1.11318e-05
-0.000209769
-0.000334735
-2.51461e-05
0.000909973
-0.000299689
-2.61495e-05
-3.86688e-05
-0.000361086
-0.00175926
-0.000358699
1.10919e-05
-0.000210142
-0.00034295
-2.5048e-05
0.00093803
-0.000307548
-2.62981e-05
-3.41557e-05
-0.000369269
-0.00180081
-0.000365765
1.10823e-05
-0.000210883
-0.000351072
-2.49201e-05
0.00096527
-0.000315871
-2.64174e-05
-2.95519e-05
-0.000377541
-0.00184246
-0.000372873
1.11009e-05
-0.000212202
-0.000359216
-2.47779e-05
0.000991714
-0.000324563
-2.65125e-05
-2.49473e-05
-0.000385884
-0.00188417
-0.000380023
1.11212e-05
-0.000214356
-0.000367447
-2.46257e-05
0.00101737
-0.000333333
-2.65721e-05
-2.05306e-05
-0.000394302
-0.00192589
-0.000387214
1.10826e-05
-0.000217472
-0.000375783
-2.44363e-05
0.0010421
-0.000341945
-2.65838e-05
-1.65656e-05
-0.000402806
-0.00196758
-0.000394443
1.09646e-05
-0.000221412
-0.000384218
-2.41853e-05
0.00106573
-0.000350442
-2.65432e-05
-1.32069e-05
-0.000411408
-0.00200919
-0.000401706
1.07875e-05
-0.000225908
-0.000392742
-2.38822e-05
0.0010881
-0.000358977
-2.64463e-05
-1.03678e-05
-0.000420115
-0.00205066
-0.000408998
1.0575e-05
-0.000230785
-0.00040135
-2.35287e-05
0.00110915
-0.00036764
-2.62883e-05
-7.82425e-06
-0.000428934
-0.00209194
-0.000416313
1.03365e-05
-0.000236
-0.000410046
-2.31107e-05
0.00112878
-0.000376458
-2.60639e-05
-5.42946e-06
-0.000437865
-0.00213297
-0.000423641
1.00725e-05
-0.000241555
-0.000418836
-2.26218e-05
0.00114688
-0.000385431
-2.57678e-05
-3.16781e-06
-0.000446908
-0.00217369
-0.000430972
9.78256e-06
-0.000247436
-0.000427722
-2.20562e-05
0.00116333
-0.000394559
-2.53944e-05
-1.06869e-06
-0.000456059
-0.00221404
-0.000438296
9.46696e-06
-0.000253617
-0.000436708
-2.14071e-05
0.00117796
-0.00040384
-2.49379e-05
8.52577e-07
-0.000465316
-0.00225396
-0.0004456
9.11754e-06
-0.000260054
-0.000445798
-2.06747e-05
0.0011906
-0.000413253
-2.43918e-05
2.58486e-06
-0.000474672
-0.0022934
-0.000452869
8.70979e-06
-0.000266674
-0.000454996
-1.984e-05
0.00120101
-0.000422728
-2.37498e-05
4.13284e-06
-0.000484123
-0.00233228
-0.000460087
8.24632e-06
-0.000273398
-0.00046431
-1.88466e-05
0.00120879
-0.000432297
-2.30056e-05
5.55636e-06
-0.000493661
-0.00237053
-0.000467247
7.79891e-06
-0.000280206
-0.000473744
-1.76553e-05
0.00121362
-0.000442238
-2.21524e-05
6.95562e-06
-0.000503279
-0.00240802
-0.000474358
7.46838e-06
-0.000287168
-0.000483305
-1.62875e-05
0.00121546
-0.00045287
-2.11836e-05
8.41265e-06
-0.000512971
-0.00244452
-0.000481456
7.2107e-06
-0.000294291
-0.000493
-1.4825e-05
0.00121439
-0.000463934
-2.00922e-05
9.93153e-06
-0.000522729
-0.0024797
-0.000488579
6.85237e-06
-0.000301394
-0.000502833
-1.32902e-05
0.00121029
-0.000474773
-1.88703e-05
1.14963e-05
-0.000532544
-0.00251317
-0.000495744
6.35899e-06
-0.000308235
-0.000512807
-1.16254e-05
0.00120286
-0.000485361
-1.75091e-05
1.31497e-05
-0.000542406
-0.00254454
-0.00050295
5.76552e-06
-0.000314551
-0.000522917
-9.82888e-06
0.00119193
-0.00049595
-1.59917e-05
1.49292e-05
-0.000552301
-0.00257345
-0.00051018
5.10372e-06
-0.000320233
-0.000533148
-7.889e-06
0.00117747
-0.000506688
-1.43084e-05
1.68771e-05
-0.000562211
-0.0025994
-0.000517366
4.39265e-06
-0.000325176
-0.000543469
-5.77338e-06
0.00115944
-0.000517619
-1.24898e-05
-0.000572119
-0.000524402
3.64198e-06
-0.000553865
-0.00052877
-1.35825e-07
9.89647e-08
1.05881e-08
2.93612e-07
-4.07166e-07
2.49885e-07
-2.83303e-07
-3.32226e-07
-6.75923e-07
-1.6356e-07
-2.97839e-07
-5.47051e-07
-2.90769e-07
-1.39209e-06
-5.65229e-07
-2.46311e-06
-3.55757e-07
-2.04127e-06
-4.82897e-07
-1.85585e-06
-3.13867e-06
-8.03538e-07
-4.95331e-06
-5.54152e-07
-4.65538e-06
-4.27565e-07
-4.1544e-06
-5.24802e-06
-1.01367e-06
-7.86461e-06
-7.69362e-07
-7.82446e-06
-4.03602e-07
-6.89624e-06
-7.50518e-06
-1.20951e-06
-1.09914e-05
-9.93813e-07
-1.13275e-05
-3.96675e-07
-9.89038e-06
-9.76294e-06
-1.3952e-06
-1.4179e-05
-1.22391e-06
-1.49929e-05
-4.00808e-07
-1.30063e-05
-1.19227e-05
-1.57142e-06
-1.73144e-05
-1.45739e-06
-1.86834e-05
-4.13011e-07
-1.61574e-05
-1.3923e-05
-1.73749e-06
-2.03176e-05
-1.69242e-06
-2.22906e-05
-4.31647e-07
-1.92879e-05
-1.57298e-05
-1.89238e-06
-2.31321e-05
-1.92738e-06
-2.57301e-05
-4.56276e-07
-2.23599e-05
-1.7325e-05
-2.03506e-06
-2.5714e-05
-2.16101e-06
-2.89348e-05
-4.87651e-07
-2.53432e-05
-1.86979e-05
-2.1648e-06
-2.80227e-05
-2.39289e-06
-3.18494e-05
-5.2506e-07
-2.8209e-05
-1.9823e-05
-2.28124e-06
-3.00081e-05
-2.62306e-06
-3.44255e-05
-5.62914e-07
-3.09206e-05
-2.06644e-05
-2.38436e-06
-3.16164e-05
-2.85194e-06
-3.66178e-05
-6.11702e-07
-3.34278e-05
-2.12134e-05
-2.47448e-06
-3.28038e-05
-3.08043e-06
-3.83777e-05
-6.71112e-07
-3.56933e-05
-2.14734e-05
-2.55202e-06
-3.35372e-05
-3.30899e-06
-3.96556e-05
-7.39546e-07
-3.76954e-05
-2.14485e-05
-2.61739e-06
-3.37939e-05
-3.53783e-06
-4.04091e-05
-8.16108e-07
-3.94232e-05
-2.1146e-05
-2.67091e-06
-3.35507e-05
-3.7672e-06
-4.06039e-05
-9.00453e-07
-4.0873e-05
-2.0588e-05
-2.71327e-06
-3.27906e-05
-3.99725e-06
-4.02126e-05
-9.92266e-07
-4.20464e-05
-1.97989e-05
-2.74513e-06
-3.15026e-05
-4.228e-06
-3.92152e-05
-1.09116e-06
-4.29505e-05
-1.88059e-05
-2.76688e-06
-2.96808e-05
-4.45946e-06
-3.75978e-05
-1.19671e-06
-4.35974e-05
-1.76394e-05
-2.7789e-06
-2.73248e-05
-4.69162e-06
-3.53524e-05
-1.29546e-06
-4.40162e-05
-1.63202e-05
-2.78161e-06
-2.44389e-05
-4.92446e-06
-3.24765e-05
-1.40397e-06
-4.42233e-05
-1.48886e-05
-2.77543e-06
-2.10318e-05
-5.15793e-06
-2.89728e-05
-1.52054e-06
-4.42396e-05
-1.3386e-05
-2.76074e-06
-1.71164e-05
-5.39196e-06
-2.48489e-05
-1.64356e-06
-4.40899e-05
-1.18549e-05
-2.73789e-06
-1.27083e-05
-5.6264e-06
-2.0117e-05
-1.77194e-06
-4.38021e-05
-1.03384e-05
-2.70725e-06
-7.82504e-06
-5.86112e-06
-1.4793e-05
-1.90477e-06
-4.34068e-05
-8.88045e-06
-2.66921e-06
-2.48607e-06
-6.09601e-06
-8.89619e-06
-2.04117e-06
-4.29372e-05
-7.52506e-06
-2.62422e-06
3.2872e-06
-6.33096e-06
-2.44671e-06
-2.1803e-06
-4.24287e-05
-6.31611e-06
-2.57284e-06
9.47149e-06
-6.56587e-06
4.5356e-06
-2.32142e-06
-4.19207e-05
-5.29731e-06
-2.51566e-06
1.60416e-05
-6.80064e-06
1.20296e-05
-2.46385e-06
-4.1459e-05
-4.51452e-06
-2.45327e-06
2.29699e-05
-7.03515e-06
2.00095e-05
-2.60696e-06
-4.10968e-05
-4.01919e-06
-2.3863e-06
3.02259e-05
-7.26934e-06
2.84443e-05
-2.7502e-06
-4.08898e-05
-3.87023e-06
-2.31544e-06
3.77754e-05
-7.5031e-06
3.73013e-05
-2.89302e-06
-4.08868e-05
-4.12917e-06
-2.24142e-06
4.55803e-05
-7.73631e-06
4.65505e-05
-3.03486e-06
-4.11199e-05
-4.84642e-06
-2.16503e-06
5.35991e-05
-7.96883e-06
5.61667e-05
-3.1751e-06
-4.1607e-05
-6.04711e-06
-2.08712e-06
6.17892e-05
-8.20038e-06
6.61267e-05
-3.31288e-06
-4.23617e-05
-7.74413e-06
-2.00868e-06
7.011e-05
-8.43057e-06
7.64068e-05
-3.44705e-06
-4.33994e-05
-9.95066e-06
-1.93093e-06
7.85277e-05
-8.65893e-06
8.69823e-05
-3.57622e-06
-4.47366e-05
-1.26687e-05
-1.85534e-06
8.70184e-05
-8.88515e-06
9.78287e-05
-3.69921e-06
-4.63893e-05
-1.58788e-05
-1.78364e-06
9.55695e-05
-9.10939e-06
0.000108923
-3.81563e-06
-4.83699e-05
-1.95422e-05
-1.71754e-06
0.000104175
-9.33245e-06
0.000120242
-3.92639e-06
-5.06821e-05
-2.36257e-05
-1.65834e-06
0.000112832
-9.55556e-06
0.000131768
-4.03331e-06
-5.33211e-05
-2.81156e-05
-1.60658e-06
0.000121538
-9.77952e-06
0.000143483
-4.13759e-06
-5.62802e-05
-3.3008e-05
-1.56225e-06
0.000130297
-1.00036e-05
0.000155374
-4.23763e-06
-5.95644e-05
-3.82995e-05
-1.52582e-06
0.000139115
-1.02253e-05
0.000167426
-4.32797e-06
-6.32019e-05
-4.39804e-05
-1.49979e-06
0.000147998
-1.04408e-05
0.000179624
-4.4011e-06
-6.72426e-05
-5.00277e-05
-1.48957e-06
0.000156954
-1.06484e-05
0.000191951
-4.45291e-06
-7.17371e-05
-5.64006e-05
-1.50194e-06
0.000165986
-1.08499e-05
0.000204385
-4.4866e-06
-7.67103e-05
-6.30466e-05
-1.54189e-06
0.000175098
-1.10513e-05
0.000216915
-4.51083e-06
-8.21518e-05
-6.99161e-05
-1.60986e-06
0.000184274
-1.12591e-05
0.000229538
-4.53394e-06
-8.80351e-05
-7.69709e-05
-1.7013e-06
0.000193438
-1.14764e-05
0.00024226
-4.55822e-06
-9.43412e-05
-8.41867e-05
-1.81001e-06
0.000202416
-1.1702e-05
0.000255101
-4.57922e-06
-0.000101076
-9.15489e-05
-1.93281e-06
0.000211
-1.1934e-05
0.000268073
-4.59117e-06
-0.000108275
-9.90457e-05
-2.07178e-06
0.000219163
-1.21719e-05
0.000281096
-4.59166e-06
-0.000115983
-0.000106663
-2.23267e-06
0.000227134
-1.24166e-05
0.000293928
-4.58058e-06
-0.000124225
-0.000114383
-2.4204e-06
0.000235139
-1.2669e-05
0.000306217
-4.5576e-06
-0.000132987
-0.000122183
-2.63699e-06
0.00024329
-1.29287e-05
0.000317707
-4.52192e-06
-0.000142233
-0.000130039
-2.88206e-06
0.000251623
-1.31947e-05
0.000328444
-4.47266e-06
-0.000151924
-0.000137928
-3.15404e-06
0.000260148
-1.34654e-05
0.000338726
-4.40875e-06
-0.000162034
-0.000145832
-3.45072e-06
0.000268865
-1.37396e-05
0.00034881
-4.32877e-06
-0.000172551
-0.000153731
-3.7699e-06
0.000277768
-1.40169e-05
0.000358808
-4.23108e-06
-0.000183475
-0.000161613
-4.11098e-06
0.000286847
-1.42968e-05
0.000368744
-4.11378e-06
-0.000194819
-0.000169467
-4.47522e-06
0.000296085
-1.45792e-05
0.000378614
-3.97465e-06
-0.000206599
-0.000177284
-4.86483e-06
0.000305459
-1.48636e-05
0.00038841
-3.81111e-06
-0.000218838
-0.000185056
-5.28211e-06
0.000314942
-1.51496e-05
0.000398123
-3.62021e-06
-0.000231555
-0.000192746
-5.72909e-06
0.000324504
-1.54365e-05
0.000407733
-3.39867e-06
-0.000244774
-0.000200241
-6.20767e-06
0.000334116
-1.57224e-05
0.000417231
-3.14286e-06
-0.000258515
-0.000207511
-6.71922e-06
0.000343743
-1.60037e-05
0.000426656
-2.84956e-06
-0.000272796
-0.00021493
-7.2639e-06
0.000353347
-1.62741e-05
0.000435985
-2.51752e-06
-0.000287626
-0.000223517
-7.83956e-06
0.000362881
-1.65228e-05
0.000444878
-2.15149e-06
-0.000302991
-0.000234393
-8.4382e-06
0.000372276
-1.67309e-05
0.000452646
-1.77445e-06
-0.000318832
-0.000247463
-9.04198e-06
0.000381437
-1.68687e-05
0.000458866
-1.35923e-06
-0.000335079
-0.000261448
-9.62853e-06
0.000390233
-1.6902e-05
0.000463792
-8.8891e-07
-0.000351636
-0.000275394
-1.01844e-05
0.000398519
-1.68072e-05
0.000467723
-3.27988e-07
-0.000368412
-0.000288737
-1.07088e-05
0.000406144
-1.65747e-05
0.000470709
2.10728e-07
-0.000385184
-0.00030125
-1.12081e-05
0.000412967
-1.62031e-05
0.000472651
7.51715e-07
-0.000401739
-0.000312725
-1.16922e-05
0.000418869
-1.56945e-05
0.000473408
1.30525e-06
-0.000417861
-0.000322838
-1.21784e-05
-1.50489e-05
1.88134e-06
)
;

boundaryField
{
    leftWall
    {
        type            calculated;
        value           nonuniform List<scalar> 8(0 -4.33681e-19 0 -4.33681e-19 0 0 0 0);
    }
    rightWall
    {
        type            calculated;
        value           nonuniform 0();
    }
    leftSides_periodic0
    {
        type            cyclic;
        value           nonuniform 0();
    }
    leftSides_periodic1
    {
        type            cyclic;
        value           nonuniform 0();
    }
    rightSides_periodic0
    {
        type            cyclic;
        value           nonuniform 0();
    }
    rightSides_periodic1
    {
        type            cyclic;
        value           nonuniform 0();
    }
    leftInOut_periodic0
    {
        type            cyclic;
        value           nonuniform List<scalar> 
157
(
6.7954e-07
1.447e-06
2.21065e-06
3.01851e-06
3.77767e-06
4.50311e-06
5.1957e-06
5.85467e-06
6.47839e-06
7.06566e-06
7.61627e-06
8.13149e-06
8.6137e-06
9.06573e-06
9.49103e-06
9.893e-06
1.02743e-05
1.06373e-05
1.09843e-05
1.13171e-05
1.16377e-05
1.19473e-05
1.22474e-05
1.25389e-05
1.28226e-05
1.30992e-05
1.33691e-05
1.36325e-05
1.38895e-05
1.414e-05
1.43838e-05
1.46206e-05
1.48499e-05
1.50714e-05
1.52845e-05
1.54883e-05
1.5681e-05
1.58601e-05
1.60239e-05
1.6174e-05
1.63158e-05
1.6452e-05
1.65788e-05
1.66922e-05
1.67906e-05
1.6873e-05
1.6939e-05
1.69884e-05
1.70212e-05
1.70403e-05
1.70509e-05
1.705e-05
1.70116e-05
1.68993e-05
1.67158e-05
1.65453e-05
1.64169e-05
1.62723e-05
1.60912e-05
1.58861e-05
1.56558e-05
1.53994e-05
1.51162e-05
1.48055e-05
1.44663e-05
1.40974e-05
1.36972e-05
1.32637e-05
1.27948e-05
1.22881e-05
1.17412e-05
1.11525e-05
1.05214e-05
9.85002e-06
9.14649e-06
8.45677e-06
7.65493e-06
6.76556e-06
3.73322e-07
5.60791e-07
5.87267e-07
6.18891e-07
6.62785e-07
7.1083e-07
7.59955e-07
8.08946e-07
8.5735e-07
9.05306e-07
9.53591e-07
1.00336e-06
1.05625e-06
1.11393e-06
1.17729e-06
1.24237e-06
1.30792e-06
1.38423e-06
1.46903e-06
1.56119e-06
1.66015e-06
1.7655e-06
1.8769e-06
1.99402e-06
2.11661e-06
2.24457e-06
2.37787e-06
2.51637e-06
2.6598e-06
2.80786e-06
2.96025e-06
3.11668e-06
3.27683e-06
3.44039e-06
3.60702e-06
3.77631e-06
3.94776e-06
4.1207e-06
4.29419e-06
4.46691e-06
4.63725e-06
4.80377e-06
4.96587e-06
5.12447e-06
5.28166e-06
5.43893e-06
5.59451e-06
5.74279e-06
5.87509e-06
5.98257e-06
6.06375e-06
6.12741e-06
6.18616e-06
6.24754e-06
6.31013e-06
6.36734e-06
6.41395e-06
6.44804e-06
6.46965e-06
6.47968e-06
6.48036e-06
6.47509e-06
6.46591e-06
6.45267e-06
6.43474e-06
6.41185e-06
6.38413e-06
6.35156e-06
6.31312e-06
6.26543e-06
6.20068e-06
6.10548e-06
5.96362e-06
5.75976e-06
5.47936e-06
5.10831e-06
4.63321e-06
4.04332e-06
3.33248e-06
)
;
    }
    leftInOut_periodic1
    {
        type            cyclic;
        value           nonuniform List<scalar> 
157
(
-6.7954e-07
-1.447e-06
-2.21065e-06
-3.01851e-06
-3.77767e-06
-4.50311e-06
-5.1957e-06
-5.85467e-06
-6.47839e-06
-7.06566e-06
-7.61627e-06
-8.13149e-06
-8.6137e-06
-9.06573e-06
-9.49103e-06
-9.893e-06
-1.02743e-05
-1.06373e-05
-1.09843e-05
-1.13171e-05
-1.16377e-05
-1.19473e-05
-1.22474e-05
-1.25389e-05
-1.28226e-05
-1.30992e-05
-1.33691e-05
-1.36325e-05
-1.38895e-05
-1.414e-05
-1.43838e-05
-1.46206e-05
-1.48499e-05
-1.50714e-05
-1.52845e-05
-1.54883e-05
-1.5681e-05
-1.58601e-05
-1.60239e-05
-1.6174e-05
-1.63158e-05
-1.6452e-05
-1.65788e-05
-1.66922e-05
-1.67906e-05
-1.6873e-05
-1.6939e-05
-1.69884e-05
-1.70212e-05
-1.70403e-05
-1.70509e-05
-1.705e-05
-1.70116e-05
-1.68993e-05
-1.67158e-05
-1.65453e-05
-1.64169e-05
-1.62723e-05
-1.60912e-05
-1.58861e-05
-1.56558e-05
-1.53994e-05
-1.51162e-05
-1.48055e-05
-1.44663e-05
-1.40974e-05
-1.36972e-05
-1.32637e-05
-1.27948e-05
-1.22881e-05
-1.17412e-05
-1.11525e-05
-1.05214e-05
-9.85002e-06
-9.14649e-06
-8.45677e-06
-7.65493e-06
-6.76556e-06
-3.73322e-07
-5.60791e-07
-5.87267e-07
-6.18891e-07
-6.62785e-07
-7.1083e-07
-7.59955e-07
-8.08946e-07
-8.5735e-07
-9.05306e-07
-9.53591e-07
-1.00336e-06
-1.05625e-06
-1.11393e-06
-1.17729e-06
-1.24237e-06
-1.30792e-06
-1.38423e-06
-1.46903e-06
-1.56119e-06
-1.66015e-06
-1.7655e-06
-1.8769e-06
-1.99402e-06
-2.11661e-06
-2.24457e-06
-2.37787e-06
-2.51637e-06
-2.6598e-06
-2.80786e-06
-2.96025e-06
-3.11668e-06
-3.27683e-06
-3.44039e-06
-3.60702e-06
-3.77631e-06
-3.94776e-06
-4.1207e-06
-4.29419e-06
-4.46691e-06
-4.63725e-06
-4.80377e-06
-4.96587e-06
-5.12447e-06
-5.28166e-06
-5.43893e-06
-5.59451e-06
-5.74279e-06
-5.87509e-06
-5.98257e-06
-6.06375e-06
-6.12741e-06
-6.18616e-06
-6.24754e-06
-6.31013e-06
-6.36734e-06
-6.41395e-06
-6.44804e-06
-6.46965e-06
-6.47968e-06
-6.48036e-06
-6.47509e-06
-6.46591e-06
-6.45267e-06
-6.43474e-06
-6.41185e-06
-6.38413e-06
-6.35156e-06
-6.31312e-06
-6.26543e-06
-6.20068e-06
-6.10548e-06
-5.96362e-06
-5.75976e-06
-5.47936e-06
-5.10831e-06
-4.63321e-06
-4.04332e-06
-3.33248e-06
)
;
    }
    rightInOut_periodic0
    {
        type            cyclic;
        value           nonuniform 0();
    }
    rightInOut_periodic1
    {
        type            cyclic;
        value           nonuniform 0();
    }
    procBoundary0to1
    {
        type            processor;
        value           nonuniform List<scalar> 
11
(
1.91053e-05
-0.00262201
-0.000329282
-3.47805e-06
0.00113788
0.000582049
0.000531323
0.000423713
0.00047278
-0.000433382
-0.000331321
)
;
    }
    procBoundary0to1throughleftInOut_periodic1
    {
        type            processorCyclic;
        value           uniform -5.79194e-06;
    }
    procBoundary0to2
    {
        type            processor;
        value           nonuniform List<scalar> 
316
(
-2.06445e-06
-2.06357e-06
-2.65856e-06
-3.38593e-06
-6.76178e-06
-5.56115e-06
-8.49553e-06
-9.65358e-06
-1.18244e-05
-9.10728e-06
-1.46807e-05
-1.60143e-05
-1.71565e-05
-1.29486e-05
-2.11406e-05
-2.26513e-05
-2.27261e-05
-1.71015e-05
-2.78445e-05
-2.95438e-05
-2.84917e-05
-2.15175e-05
-3.4732e-05
-3.66109e-05
-3.43993e-05
-2.61529e-05
-4.17326e-05
-4.37783e-05
-4.03939e-05
-3.09634e-05
-4.87768e-05
-5.0982e-05
-4.64233e-05
-3.59028e-05
-5.58012e-05
-5.8167e-05
-5.24418e-05
-4.09256e-05
-6.27533e-05
-6.52894e-05
-5.84145e-05
-4.59907e-05
-6.95979e-05
-7.23195e-05
-6.4324e-05
-5.10663e-05
-7.63222e-05
-7.92588e-05
-7.01745e-05
-5.61323e-05
-8.29376e-05
-8.61175e-05
-7.59742e-05
-6.118e-05
-8.94686e-05
-9.2905e-05
-8.17262e-05
-6.62195e-05
-9.59336e-05
-9.96356e-05
-8.74366e-05
-7.12675e-05
-0.000102342
-0.000106317
-9.31196e-05
-7.633e-05
-0.0001087
-0.000112953
-9.87886e-05
-8.14085e-05
-0.000115018
-0.00011955
-0.000104451
-8.65053e-05
-0.000121302
-0.000126113
-0.000110115
-9.16229e-05
-0.000127558
-0.000132648
-0.000115784
-9.67643e-05
-0.000133795
-0.000139159
-0.000121466
-0.000101932
-0.000140018
-0.000145651
-0.000127165
-0.000107128
-0.000146232
-0.000152127
-0.000132885
-0.000112355
-0.000152442
-0.00015859
-0.000138629
-0.000117614
-0.000158653
-0.000165043
-0.0001444
-0.000122905
-0.00016487
-0.000171489
-0.000150203
-0.00012823
-0.000171096
-0.000177931
-0.000156041
-0.000133592
-0.000177333
-0.00018437
-0.000161916
-0.000138993
-0.000183585
-0.000190809
-0.000167833
-0.000144439
-0.00018985
-0.000197247
-0.00017379
-0.000149929
-0.000196126
-0.000203682
-0.000179787
-0.000155464
-0.000202405
-0.000210107
-0.000185825
-0.000161042
-0.000208687
-0.000216513
-0.000191899
-0.000166666
-0.000214978
-0.000222896
-0.000198006
-0.000172342
-0.000221296
-0.000229265
-0.000204146
-0.000178078
-0.000227657
-0.000235648
-0.000210316
-0.000183881
-0.000234065
-0.000242057
-0.000216523
-0.000189751
-0.000240524
-0.00024849
-0.000222773
-0.000195691
-0.000247033
-0.000254947
-0.000229079
-0.000201703
-0.000253592
-0.000261429
-0.000235451
-0.000207792
-0.000260198
-0.000267938
-0.000241894
-0.000213959
-0.00026685
-0.000274473
-0.000248404
-0.000220209
-0.000273553
-0.000281033
-0.000254976
-0.000226544
-0.000280321
-0.000287617
-0.000261616
-0.000232969
-0.000287175
-0.000294223
-0.000268339
-0.000239485
-0.000294142
-0.00030085
-0.000275175
-0.000246095
-0.000301236
-0.000307496
-0.000282158
-0.000252798
-0.000308452
-0.000314162
-0.000289315
-0.000259592
-0.000315759
-0.000320859
-0.000296644
-0.000266477
-0.000323122
-0.000327599
-0.000304108
-0.000273464
-0.000330528
-0.000334383
-0.00031165
-0.000280566
-0.000337995
-0.000341213
-0.000319228
-0.000287787
-0.000345554
-0.000348087
-0.000326848
-0.000295129
-0.000353222
-0.000355007
-0.000334544
-0.000302592
-0.000361006
-0.000361971
-0.000342347
-0.000310178
-0.000368909
-0.000368979
-0.000350267
-0.000317891
-0.000376937
-0.00037603
-0.000358303
-0.000325741
-0.000385091
-0.000383121
-0.000366449
-0.000333738
-0.000393378
-0.000390249
-0.000374693
-0.000341894
-0.000401796
-0.00039741
-0.00038302
-0.000350215
-0.000410344
-0.000404598
-0.000391413
-0.000358705
-0.000419018
-0.000411804
-0.000399862
-0.000367364
-0.000427813
-0.00041902
-0.000408363
-0.000376195
-0.000436727
-0.000426233
-0.000416914
-0.000385198
-0.000445757
-0.00043343
-0.000425512
-0.00039437
-0.000454904
-0.000440622
-0.000434157
-0.000403706
-0.000464164
-0.000447873
-0.000442847
-0.000413197
-0.000473536
-0.000455081
-0.000451586
-0.000422826
-0.000483017
-0.00046182
-0.000460377
-0.00043257
-0.000492605
-0.000467436
-0.000469227
-0.000442398
-0.000502298
-0.000471829
-0.000478144
-0.000452294
-0.000512096
-0.000476264
-0.000487139
-0.000462272
-0.000521998
-0.000481916
-0.000496223
-0.000472369
-0.000532002
-0.000488448
-0.000505407
-0.000482609
-0.000542107
-0.000495418
-0.0005147
-0.000493006
-0.000552309
-0.000502569
-0.000524103
-0.000503569
-0.000562605
-0.000509782
-0.000533605
-0.000514304
-0.000572988
-0.000517039
-0.000543165
-0.000525196
-0.000583447
-0.000524306
)
;
    }
    procBoundary0to2throughleftSides_periodic0
    {
        type            processorCyclic;
        value           nonuniform List<scalar> 
314
(
3.68512e-06
1.09652e-05
1.81534e-05
2.52523e-05
3.22744e-05
3.92109e-05
4.60494e-05
5.27788e-05
5.93869e-05
6.58597e-05
7.21851e-05
7.83569e-05
8.43767e-05
9.02538e-05
9.60073e-05
0.000101657
0.000107216
0.000112696
0.000118107
0.000123459
0.000128764
0.000134032
0.000139271
0.000144491
0.000149702
0.000154914
0.00016014
0.000165393
0.000170685
0.000176024
0.000181416
0.000186869
0.000192389
0.00019798
0.000203648
0.000209397
0.000215233
0.000221158
0.000227176
0.000233291
0.000239506
0.000245822
0.000252245
0.000258777
0.000265425
0.000272194
0.000279088
0.00028611
0.000293257
0.000300532
0.000307957
0.000315601
0.000323564
0.000331853
0.000340283
0.000348653
0.000357029
0.000365579
0.000374438
0.000383567
0.000392713
0.000401712
0.00041063
0.000419592
0.000428646
0.00043778
0.000446981
0.000456245
0.000465568
0.000474944
0.000484367
0.000493827
0.000503316
0.000512821
0.000522329
0.000531826
0.000541292
0.000550704
0.000560049
3.14155e-06
9.2006e-06
1.52288e-05
2.1162e-05
2.6987e-05
3.27338e-05
3.841e-05
4.40155e-05
4.95466e-05
5.49969e-05
6.03591e-05
6.56267e-05
7.0796e-05
7.58693e-05
8.08564e-05
8.5767e-05
9.06095e-05
9.53934e-05
0.000100129
0.000104826
0.000109496
0.000114149
0.000118795
0.000123445
0.000128107
0.000132793
0.00013751
0.000142271
0.000147084
0.000151955
0.00015689
0.000161895
0.000166977
0.000172143
0.000177398
0.000182748
0.000188196
0.000193747
0.000199405
0.000205172
0.000211052
0.000217048
0.000223162
0.000229397
0.000235755