/*--------------------------------*- C++ -*----------------------------------*\
| =========                 |                                                 |
| \\      /  F ield         | OpenFOAM: The Open Source CFD Toolbox           |
|  \\    /   O peration     | Version:  v1906                                 |
|   \\  /    A nd           | Web:      www.OpenFOAM.com                      |
|    \\/     M anipulation  |                                                 |
\*---------------------------------------------------------------------------*/
FoamFile
{
    version     2.0;
    format      ascii;
    class       volScalarField;
    location    "96.8";
    object      T;
}
// * * * * * * * * * * * * * * * * * * * * * * * * * * * * * * * * * * * * * //

dimensions      [0 0 0 1 0 0 0];


internalField   nonuniform List<scalar> 
630
(
371.466
372.001
371.568
371.157
368.357
369.992
368.697
367.48
365.151
367.953
365.807
363.824
361.901
365.888
362.938
360.284
358.75
363.817
360.182
357.021
355.942
361.789
357.696
354.245
353.697
359.889
355.639
352.097
352.053
358.213
354.073
350.552
350.897
356.819
352.934
349.473
350.08
355.709
352.111
348.709
349.487
354.84
351.505
348.15
349.041
354.16
351.044
347.724
348.691
353.619
350.681
347.383
348.407
353.182
350.386
347.097
348.17
352.82
350.138
346.851
347.965
352.515
349.924
346.636
347.786
352.253
349.735
346.444
347.626
352.024
349.568
346.271
347.481
351.822
349.416
346.114
347.349
351.639
349.279
345.969
347.227
351.474
349.153
345.835
347.113
351.323
349.036
345.709
347.007
351.183
348.928
345.591
346.906
351.052
348.826
345.479
346.809
350.93
348.731
345.373
346.717
350.815
348.642
345.273
346.629
350.707
348.557
345.176
346.543
350.603
348.477
345.084
346.46
350.505
348.401
344.995
346.38
350.411
348.328
344.91
346.301
350.321
348.26
344.829
346.224
350.235
348.194
344.75
346.149
350.152
348.132
344.675
346.075
350.072
348.072
344.603
346.003
349.994
348.017
344.533
345.932
349.919
347.964
344.466
345.862
349.845
347.914
344.402
345.793
349.774
347.866
344.34
345.726
349.705
347.822
344.282
345.659
349.638
347.78
344.227
345.593
349.573
347.74
344.176
345.529
349.51
347.703
344.129
345.465
349.448
347.669
344.082
345.402
349.388
347.636
344.037
345.339
349.329
347.605
343.994
345.277
349.272
347.575
343.952
345.216
349.217
347.547
343.912
345.155
349.164
347.519
343.874
345.094
349.111
347.494
343.838
345.033
349.061
347.47
343.803
344.971
349.01
347.449
343.769
344.903
348.961
347.428
343.737
344.827
348.912
347.41
343.706
344.744
348.861
347.392
343.677
344.665
348.806
347.375
343.649
344.599
348.742
347.36
343.622
344.54
348.668
347.346
343.596
344.483
348.59
347.334
343.57
344.427
348.518
347.322
343.546
344.373
348.456
347.312
343.522
344.319
348.4
347.302
343.499
344.267
348.345
347.292
343.476
344.215
348.29
347.282
343.453
344.165
348.235
347.271
343.431
344.116
348.179
347.26
343.408
344.067
348.123
347.249
343.386
344.021
348.066
347.238
343.364
343.975
348.007
347.227
343.342
343.93
347.948
347.216
343.319
343.886
347.884
347.206
343.297
343.843
347.806
347.196
343.274
343.8
347.711
347.186
343.251
343.759
347.613
347.178
343.228
343.718
347.53
347.169
343.204
343.677
347.457
347.162
343.181
343.637
347.386
347.155
343.157
343.596
347.316
347.148
343.132
343.555
347.247
347.142
343.106
343.514
347.179
371.912
371.914
371.576
371.679
369.727
369.728
368.712
369.026
367.513
367.509
365.8
366.34
365.281
365.267
362.863
363.631
363.065
363.044
360.001
360.951
360.944
360.933
357.42
358.429
359.039
359.066
355.32
356.238
357.454
357.546
353.748
354.483
356.214
356.385
352.608
353.148
355.273
355.522
351.772
352.143
354.555
354.879
351.14
351.377
353.996
354.386
350.645
350.775
353.548
353.997
350.241
350.289
353.177
353.68
349.9
349.882
352.862
353.412
349.602
349.529
352.588
353.176
349.338
349.219
352.341
352.966
349.102
348.941
352.116
352.776
348.887
348.692
351.909
352.602
348.692
348.465
351.716
352.442
348.512
348.258
351.536
352.293
348.345
348.068
351.366
352.153
348.19
347.892
351.205
352.023
348.045
347.729
351.053
351.899
347.91
347.577
350.908
351.782
347.782
347.436
350.77
351.672
347.661
347.303
350.638
351.566
347.547
347.178
350.512
351.465
347.438
347.06
350.391
351.368
347.335
346.948
350.275
351.275
347.236
346.842
350.163
351.185
347.142
346.742
350.056
351.099
347.052
346.646
349.952
351.015
346.966
346.555
349.853
350.934
346.884
346.469
349.758
350.855
346.804
346.386
349.666
350.778
346.727
346.306
349.578
350.704
346.653
346.23
349.493
350.63
346.581
346.157
349.411
350.559
346.511
346.087
349.331
350.489
346.444
346.019
349.255
350.42
346.379
345.954
349.182
350.352
346.316
345.891
349.112
350.285
346.256
345.83
349.045
350.218
346.196
345.772
348.982
350.153
346.137
345.716
348.92
350.088
346.076
345.662
348.858
350.023
346.013
345.611
348.795
349.959
345.949
345.563
348.73
349.897
345.887
345.516
348.664
349.835
345.828
345.47
348.6
349.775
345.773
345.424
348.539
349.715
345.719
345.379
348.485
349.655
345.666
345.335
348.434
349.596
345.612
345.29
348.386
349.536
345.558
345.246
348.338
349.476
345.504
345.202
348.291
349.417
345.449
345.157
348.245
349.357
345.393
345.113
348.199
349.296
345.336
345.068
348.155
349.233
345.279
345.023
348.111
349.169
345.221
344.978
348.069
349.104
345.161
344.932
348.027
349.036
345.101
344.885
347.986
348.967
345.04
344.838
347.946
348.895
344.977
344.791
347.907
348.822
344.914
344.742
347.868
348.746
344.85
344.693
347.83
348.667
344.784
344.643
347.793
348.585
344.718
344.592
347.756
348.5
344.652
344.539
347.719
348.411
344.584
344.486
347.681
348.32
344.517
344.433
347.644
348.224
344.449
344.38
347.606
348.123
344.381
344.327
347.567
348.02
344.314
344.275
347.527
347.916
344.247
344.224
347.485
347.812
344.181
344.174
347.44
347.708
344.115
344.125
347.393
347.606
344.051
344.076
)
;

boundaryField
{
    leftWall
    {
        type            fixedValue;
        value           uniform 373;
    }
    rightWall
    {
        type            fixedValue;
        value           nonuniform 0();
    }
    leftSides_periodic0
    {
        type            cyclic;
    }
    leftSides_periodic1
    {
        type            cyclic;
    }
    rightSides_periodic0
    {
        type            cyclic;
    }
    rightSides_periodic1
    {
        type            cyclic;
    }
    leftInOut_periodic0
    {
        type            cyclic;
    }
    leftInOut_periodic1
    {
        type            cyclic;
    }
    rightInOut_periodic0
    {
        type            cyclic;
    }
    rightInOut_periodic1
    {
        type            cyclic;
    }
    procBoundary0to1
    {
        type            processor;
        value           nonuniform List<scalar> 
11
(
347.137
343.08
343.472
347.137
347.113
347.137
343.08
347.342
347.504
343.988
344.029
)
;
    }
    procBoundary0to1throughleftInOut_periodic1
    {
        type            processorCyclic;
        value           uniform 343.08;
    }
    procBoundary0to2
    {
        type            processor;
        value           nonuniform List<scalar> 
316
(
371.589
372.126
371.69
371.389
368.748
370.372
369.049
368.147
365.854
368.604
366.349
364.837
362.922
366.82
363.6
361.49
360.033
365.026
360.873
358.23
357.373
363.247
358.326
355.294
355.141
361.536
356.15
352.902
353.411
359.971
354.439
351.106
352.116
358.613
353.155
349.803
351.143
357.481
352.2
348.855
350.395
356.556
351.478
348.147
349.801
355.802
350.915
347.593
349.307
355.18
350.457
347.142
348.884
354.661
350.075
346.767
348.516
354.217
349.75
346.452
348.193
353.826
349.472
346.184
347.905
353.479
349.231
345.954
347.647
353.167
349.021
345.754
347.414
352.885
348.837
345.58
347.202
352.628
348.674
345.426
347.008
352.393
348.53
345.29
346.831
352.175
348.402
345.168
346.667
351.974
348.287
345.059
346.515
351.787
348.184
344.961
346.375
351.613
348.091
344.872
346.244
351.45
348.008
344.791
346.122
351.296
347.932
344.716
346.008
351.153
347.864
344.648
345.901
351.017
347.803
344.585
345.8
350.889
347.747
344.527
345.706
350.767
347.696
344.472
345.616
350.651
347.651
344.422
345.533
350.541
347.61
344.376
345.454
350.437
347.574
344.333
345.38
350.337
347.541
344.294
345.311
350.242
347.511
344.257
345.247
350.149
347.483
344.221
345.186
350.06
347.458
344.186
345.129
349.974
347.434
344.151
345.075
349.891
347.412
344.118
345.023
349.81
347.392
344.085
344.972
349.731
347.374
344.052
344.923
349.655
347.356
344.02
344.875
349.581
347.341
343.988
344.828
349.509
347.326
343.957
344.782
349.438
347.313
343.926
344.737
349.37
347.3
343.896
344.692
349.302
347.289
343.866
344.649
349.236
347.279
343.836
344.606
349.172
347.269
343.807
344.563
349.108
347.26
343.779
344.521
349.045
347.252
343.751
344.479
348.984
347.244
343.724
344.437
348.923
347.237
343.697
344.395
348.863
347.23
343.67
344.354
348.804
347.224
343.645
344.313
348.746
347.219
343.619
344.272
348.688
347.213
343.594
344.231
348.632
347.208
343.569
344.191
348.576
347.204
343.545
344.152
348.521
347.2
343.521
344.113
348.467
347.197
343.497
344.075
348.414
347.195
343.473
344.037
348.361
347.194
343.449
344
348.31
347.194
343.426
343.964
348.26
347.194
343.403
343.928
348.21
347.196
343.38
343.893
348.161
347.198
343.355
343.858
348.113
347.2
343.323
343.823
348.065
347.203
343.28
343.789
348.018
347.206
343.228
343.754
347.971
347.209
343.183
343.72
347.925
347.212
343.154
343.686
347.879
347.215
343.133
343.652
347.833
347.217
343.113
343.619
347.786
347.22
343.093
343.585
347.739
347.222
343.074
343.552
347.692
347.224
343.054
343.518
347.643
347.226
343.034
)
;
    }
    procBoundary0to2throughleftSides_periodic0
    {
        type            processorCyclic;
        value           nonuniform List<scalar> 
314
(
371.893
369.67
367.42
365.154
362.902
360.727
358.722
356.983
355.558
354.436
353.57
352.902
352.382
351.97
351.635
351.358
351.125
350.929
350.761
350.616
350.491
350.382
350.286
350.201
350.126
350.058
349.997
349.941
349.889
349.84
349.794
349.75
349.709
349.669
349.63
349.592
349.556
349.52
349.485
349.45
349.415
349.381
349.347
349.313
349.279
349.245
349.21
349.175
349.139
349.103
349.066
349.027
348.988
348.947
348.906
348.864
348.821
348.774
348.72
348.658
348.599
348.548
348.503
348.458
348.412
348.365
348.315
348.265
348.212
348.157
348.1
348.041
347.979
347.915
347.848
347.779
347.707
347.633
347.557
371.951
369.846
367.724
365.6
363.5
361.48
359.621
358.003
356.67
355.611
354.782
354.132
353.617
353.199
352.853
352.558
352.306
352.087
351.895
351.726
351.574
351.438
351.315
351.202
351.098
351.001
350.911
350.826
350.745
350.668
350.594
350.523
350.454
350.388
350.323
350.26
350.199
350.14
350.081
350.024
349.968
349.912
349.858
349.804
349.75
349.698
349.645
349.593
349.541
349.489
349.437
349.383
349.328
349.271
349.212
349.15
349.085
349.019
348.953
348.886
348.82
348.754
348.688
348.622
348.554
348.485
348.413
348.338
348.26
348.178
348.092
348.002
347.91
347.814
347.716
347.615
347.512
347.406
347.296
371.515
368.537
365.535
362.542
359.659
357.063
354.933
353.323
352.157
351.315
350.696
350.226
349.858
349.557
349.306
349.091
348.904
348.74
348.594
348.463
348.343
348.233
348.132
348.037
347.948
347.863
347.782
347.704
347.629
347.556
347.486
347.417
347.35
347.285
347.221
347.158
347.096
347.036
346.976
346.917
346.859
346.802
346.746
346.69
346.635
346.58
346.526
346.472
346.418
346.364
346.311
346.257
346.204
346.151
346.098
346.044
345.99
345.934
345.872
345.798
345.714
345.634
345.565
345.504
345.443
345.38
345.315
345.247
345.176
345.103
345.026
344.948
344.866
344.782
344.696
344.608
344.517
344.425
371.498
368.485
365.447
362.423
359.511
356.876
354.688
353.013
351.792
350.911
350.267
349.782
349.406
349.105
348.857
348.646
348.464
348.304
348.162
348.034
347.917
347.811
347.712
347.619
347.531
347.448
347.368
347.292
347.219
347.149
347.081
347.015
346.952
346.89
346.829
346.77
346.712
346.655
346.6
346.545
346.491
346.439
346.387
346.336
346.285
346.235
346.186
346.138
346.09
346.043
345.997
345.952
345.909
345.865
345.822
345.778
345.734
345.689
345.644
345.598
345.551
345.503
345.454
345.404
345.352
345.298
345.242
345.185
345.126
345.065
345.004
344.941
344.878
344.814
344.751
344.688
344.625
344.563
)
;
    }
}


// ************************************************************************* //
