# Wall shear stress
# Time        	patch         	min           	max           
0             	leftWall	(0.000000e+00 0.000000e+00 0.000000e+00)	(0.000000e+00 0.000000e+00 0.000000e+00)
0             	rightWall	(0.000000e+00 0.000000e+00 0.000000e+00)	(0.000000e+00 0.000000e+00 0.000000e+00)
200           	leftWall	(-6.788516e-02 -4.219915e-03 -3.758486e-01)	(6.783533e-02 4.665761e-02 2.658894e-01)
200           	rightWall	(-4.251644e-03 -1.244173e-03 -7.743094e-01)	(4.282137e-03 9.736180e-04 -2.253009e-01)
