-0.0075 	0 	0 	0
-0.0075 	5.5065e-34 	-5.0937e-36 	-6.78361e-33
-0.00745622 	0.000723719 	-6.69465e-06 	-0.0089157
-0.00745622 	0.000723719 	-6.69465e-06 	-0.0089157
-0.00741165 	0.000962876 	-1.21027e-05 	-0.0188912
-0.00741165 	0.000962876 	-1.21027e-05 	-0.0188912
-0.00736628 	0.000874953 	-1.78126e-05 	-0.0291532
-0.00736628 	0.000874953 	-1.78126e-05 	-0.0291532
-0.0073201 	0.000753394 	-2.15676e-05 	-0.0393037
-0.0073201 	0.000753394 	-2.15676e-05 	-0.0393037
-0.00727309 	0.00068025 	-2.408e-05 	-0.0492878
-0.00727309 	0.00068025 	-2.408e-05 	-0.0492878
-0.00722524 	0.000632302 	-2.59452e-05 	-0.059116
-0.00722524 	0.000632302 	-2.59452e-05 	-0.059116
-0.00717653 	0.000599607 	-2.72246e-05 	-0.0687557
-0.00717653 	0.000599607 	-2.72246e-05 	-0.0687557
-0.00712695 	0.000577591 	-2.80565e-05 	-0.0781483
-0.00712695 	0.000577591 	-2.80565e-05 	-0.0781483
-0.00707647 	0.000563956 	-2.81789e-05 	-0.087228
-0.00707647 	0.000563956 	-2.81789e-05 	-0.087228
-0.0070251 	0.000557425 	-2.74318e-05 	-0.0959355
-0.0070251 	0.000557425 	-2.74318e-05 	-0.0959355
-0.0069728 	0.000558116 	-2.60982e-05 	-0.104228
-0.0069728 	0.000558116 	-2.60982e-05 	-0.104228
-0.00691956 	0.000567089 	-2.40977e-05 	-0.112087
-0.00691956 	0.000567089 	-2.40977e-05 	-0.112087
-0.00686537 	0.000584536 	-2.11927e-05 	-0.119522
-0.00686537 	0.000584536 	-2.11927e-05 	-0.119522
-0.00681021 	0.000610194 	-1.70919e-05 	-0.126567
-0.00681021 	0.000610194 	-1.70919e-05 	-0.126567
-0.00675406 	0.000643048 	-1.20004e-05 	-0.133254
-0.00675406 	0.000643048 	-1.20004e-05 	-0.133254
-0.0066969 	0.000680856 	-6.37735e-06 	-0.139607
-0.0066969 	0.000680856 	-6.37735e-06 	-0.139607
-0.00663871 	0.000721901 	-2.38688e-08 	-0.145648
-0.00663871 	0.000721901 	-2.38688e-08 	-0.145648
-0.00657949 	0.000765201 	7.20571e-06 	-0.151395
-0.00657949 	0.000765201 	7.20571e-06 	-0.151395
-0.0065192 	0.000809823 	1.52361e-05 	-0.156864
-0.0065192 	0.000809823 	1.52361e-05 	-0.156864
-0.00645783 	0.000854906 	2.40007e-05 	-0.162072
-0.00645783 	0.000854906 	2.40007e-05 	-0.162072
-0.00639535 	0.000899625 	3.33482e-05 	-0.167032
-0.00639535 	0.000899625 	3.33482e-05 	-0.167032
-0.00633176 	0.000943214 	4.30174e-05 	-0.171761
-0.00633176 	0.000943214 	4.30174e-05 	-0.171761
-0.00626703 	0.000985194 	5.25813e-05 	-0.176272
-0.00626703 	0.000985194 	5.25813e-05 	-0.176272
-0.00620114 	0.00102575 	6.17705e-05 	-0.180574
-0.00620114 	0.00102575 	6.17705e-05 	-0.180574
-0.00613406 	0.00106583 	7.10637e-05 	-0.184672
-0.00613406 	0.00106583 	7.10637e-05 	-0.184672
-0.00606579 	0.00110647 	8.17557e-05 	-0.188573
-0.00606579 	0.00110647 	8.17557e-05 	-0.188573
-0.00599629 	0.00114746 	9.55456e-05 	-0.192288
-0.00599629 	0.00114746 	9.55456e-05 	-0.192288
-0.00592554 	0.00118576 	0.000114359 	-0.195839
-0.00592554 	0.00118576 	0.000114359 	-0.195839
-0.00585352 	0.00121546 	0.000136713 	-0.199259
-0.00585352 	0.00121546 	0.000136713 	-0.199259
-0.00578022 	0.001232 	0.000150381 	-0.202572
-0.00578022 	0.001232 	0.000150381 	-0.202572
-0.00570559 	0.00123836 	0.000147781 	-0.205769
-0.00570559 	0.00123836 	0.000147781 	-0.205769
-0.00562963 	0.00124188 	0.00014304 	-0.208814
-0.00562963 	0.00124188 	0.00014304 	-0.208814
-0.00555231 	0.0012477 	0.000151275 	-0.211688
-0.00555231 	0.0012477 	0.000151275 	-0.211688
-0.0054736 	0.00125873 	0.000171943 	-0.214411
-0.0054736 	0.00125873 	0.000171943 	-0.214411
-0.00539348 	0.00127307 	0.000191672 	-0.217018
-0.00539348 	0.00127307 	0.000191672 	-0.217018
-0.00531193 	0.00128493 	0.000202283 	-0.219533
-0.00531193 	0.00128493 	0.000202283 	-0.219533
-0.00522891 	0.00129176 	0.000211062 	-0.221969
-0.00522891 	0.00129176 	0.000211062 	-0.221969
-0.0051444 	0.00129394 	0.000221818 	-0.224331
-0.0051444 	0.00129394 	0.000221818 	-0.224331
-0.00505838 	0.00129193 	0.00023212 	-0.226623
-0.00505838 	0.00129193 	0.00023212 	-0.226623
-0.00497081 	0.00128611 	0.000241582 	-0.22885
-0.00497081 	0.00128611 	0.000241582 	-0.22885
-0.00488168 	0.00127674 	0.000250478 	-0.23102
-0.00488168 	0.00127674 	0.000250478 	-0.23102
-0.00479094 	0.00126399 	0.000258987 	-0.233137
-0.00479094 	0.00126399 	0.000258987 	-0.233137
-0.00469858 	0.00124795 	0.000267069 	-0.235207
-0.00469858 	0.00124795 	0.000267069 	-0.235207
-0.00460456 	0.00122864 	0.000274553 	-0.237233
-0.00460456 	0.00122864 	0.000274553 	-0.237233
-0.00450886 	0.00120604 	0.000281331 	-0.239218
-0.00450886 	0.00120604 	0.000281331 	-0.239218
-0.00441144 	0.00118013 	0.000287452 	-0.241163
-0.00441144 	0.00118013 	0.000287452 	-0.241163
-0.00431227 	0.00115086 	0.000292909 	-0.243072
-0.00431227 	0.00115086 	0.000292909 	-0.243072
-0.00421133 	0.00111817 	0.000297617 	-0.244945
-0.00421133 	0.00111817 	0.000297617 	-0.244945
-0.00410857 	0.00108202 	0.000301472 	-0.246784
-0.00410857 	0.00108202 	0.000301472 	-0.246784
-0.00400397 	0.00104246 	0.000304436 	-0.248587
-0.00400397 	0.00104246 	0.000304436 	-0.248587
-0.0038975 	0.000999639 	0.000306571 	-0.250355
-0.0038975 	0.000999639 	0.000306571 	-0.250355
-0.00378912 	0.000953771 	0.000307896 	-0.252088
-0.00378912 	0.000953771 	0.000307896 	-0.252088
-0.00367879 	0.00090513 	0.000308397 	-0.253785
-0.00367879 	0.00090513 	0.000308397 	-0.253785
-0.00356649 	0.000854015 	0.000308109 	-0.255443
-0.00356649 	0.000854015 	0.000308109 	-0.255443
-0.00345217 	0.000800762 	0.000307094 	-0.257061
-0.00345217 	0.000800762 	0.000307094 	-0.257061
-0.0033358 	0.000745755 	0.000305394 	-0.258636
-0.0033358 	0.000745755 	0.000305394 	-0.258636
-0.00321735 	0.000689487 	0.000303198 	-0.260167
-0.00321735 	0.000689487 	0.000303198 	-0.260167
-0.00309677 	0.000632575 	0.000300409 	-0.261654
-0.00309677 	0.000632575 	0.000300409 	-0.261654
-0.00297403 	0.000575453 	0.000296294 	-0.263098
-0.00297403 	0.000575453 	0.000296294 	-0.263098
-0.00284909 	0.000518174 	0.00029087 	-0.264502
-0.00284909 	0.000518174 	0.00029087 	-0.264502
-0.0027219 	0.000460685 	0.000284815 	-0.265863
-0.0027219 	0.000460685 	0.000284815 	-0.265863
-0.00259244 	0.000403057 	0.000278098 	-0.267175
-0.00259244 	0.000403057 	0.000278098 	-0.267175
-0.00246065 	0.000345446 	0.000270522 	-0.268434
-0.00246065 	0.000345446 	0.000270522 	-0.268434
-0.00232651 	0.000287964 	0.000262134 	-0.269633
-0.00232651 	0.000287964 	0.000262134 	-0.269633
-0.00218995 	0.000230696 	0.000252977 	-0.270767
-0.00218995 	0.000230696 	0.000252977 	-0.270767
-0.00205095 	0.000173891 	0.000243127 	-0.27183
-0.00205095 	0.000173891 	0.000243127 	-0.27183
-0.00190946 	0.000118047 	0.000232683 	-0.272815
-0.00190946 	0.000118047 	0.000232683 	-0.272815
-0.00176543 	6.38414e-05 	0.000221736 	-0.273716
-0.00176543 	6.38414e-05 	0.000221736 	-0.273716
-0.00161881 	1.19526e-05 	0.000210345 	-0.27453
-0.00161881 	1.19526e-05 	0.000210345 	-0.27453
-0.00146957 	-3.70947e-05 	0.000198627 	-0.275252
-0.00146957 	-3.70947e-05 	0.000198627 	-0.275252
-0.00131765 	-8.29622e-05 	0.000186864 	-0.275879
-0.00131765 	-8.29622e-05 	0.000186864 	-0.275879
-0.001163 	-0.000125492 	0.0001752 	-0.276404
-0.001163 	-0.000125492 	0.0001752 	-0.276404
-0.00100559 	-0.000164765 	0.000163527 	-0.276824
-0.00100559 	-0.000164765 	0.000163527 	-0.276824
-0.000845345 	-0.000201214 	0.000155201 	-0.277131
-0.000845345 	-0.000201214 	0.000155201 	-0.277131
-0.000682232 	-0.000235687 	0.000146983 	-0.277317
-0.000682232 	-0.000235687 	0.000146983 	-0.277317
-0.000516194 	-0.000269622 	0.000136507 	-0.277372
-0.000516194 	-0.000269622 	0.000136507 	-0.277372
-0.000347178 	-0.000304525 	0.000127935 	-0.277286
-0.000347178 	-0.000304525 	0.000127935 	-0.277286
-0.000175132 	-0.000337561 	0.000113083 	-0.277064
-0.000175132 	-0.000337561 	0.000113083 	-0.277064
0 	-0.00036201 	9.90369e-05 	-0.276734
0 	-0.00036201 	9.90369e-05 	-0.276734
0 	-0.00036201 	9.90369e-05 	-0.276734
0 	-0.00036201 	9.90369e-05 	-0.276734
0.000175132 	-0.00037311 	9.0359e-05 	-0.276316
0.000175132 	-0.000618945 	0.0127863 	-0.246916
0.000347178 	-0.000373041 	7.95083e-05 	-0.275803
0.000347178 	-0.000772905 	0.0127195 	-0.24574
0.000516194 	-0.000370988 	7.53728e-05 	-0.275172
0.000516194 	-0.00093499 	0.0125868 	-0.244505
0.000682232 	-0.000372637 	7.46362e-05 	-0.274419
0.000682232 	-0.00109923 	0.0124346 	-0.243185
0.000845345 	-0.000377503 	7.16384e-05 	-0.273554
0.000845345 	-0.00126528 	0.0122778 	-0.2418
0.00100559 	-0.000384499 	6.97927e-05 	-0.272591
0.00100559 	-0.00143275 	0.0121137 	-0.240367
0.001163 	-0.00039286 	6.89642e-05 	-0.271539
0.001163 	-0.00160115 	0.0119464 	-0.238897
0.00131765 	-0.000402031 	6.91883e-05 	-0.270408
0.00131765 	-0.00177034 	0.0117771 	-0.237392
0.00146957 	-0.00041164 	7.05235e-05 	-0.269207
0.00146957 	-0.0019396 	0.0116059 	-0.235854
0.00161881 	-0.000421483 	7.2932e-05 	-0.267942
0.00161881 	-0.00210699 	0.0114338 	-0.234304
0.00176543 	-0.000431479 	7.63443e-05 	-0.266621
0.00176543 	-0.00227069 	0.011262 	-0.232772
0.00190946 	-0.000441628 	8.06612e-05 	-0.265249
0.00190946 	-0.00243095 	0.0110906 	-0.231257
0.00205095 	-0.000451987 	8.57684e-05 	-0.263831
0.00205095 	-0.00259002 	0.0109193 	-0.229707
0.00218995 	-0.000462656 	9.15426e-05 	-0.262373
0.00218995 	-0.00274952 	0.0107482 	-0.228062
0.00232651 	-0.000473765 	9.78495e-05 	-0.260878
0.00232651 	-0.0029083 	0.010578 	-0.226317
0.00246065 	-0.000485465 	0.000104535 	-0.259349
0.00246065 	-0.00306368 	0.010409 	-0.224513
0.00259244 	-0.000497912 	0.000111386 	-0.257791
0.00259244 	-0.00321386 	0.0102408 	-0.222685
0.0027219 	-0.00051127 	0.000118452 	-0.256204
0.0027219 	-0.00335843 	0.010074 	-0.220853
0.00284909 	-0.000525724 	0.000126241 	-0.254591
0.00284909 	-0.00349762 	0.00991305 	-0.219025
0.00297403 	-0.000541515 	0.000134776 	-0.252955
0.00297403 	-0.00363217 	0.00975877 	-0.217216
0.00309677 	-0.000559022 	0.000138004 	-0.251297
0.00309677 	-0.00376428 	0.00956911 	-0.215442
0.00321735 	-0.00057876 	0.000144873 	-0.249621
0.00321735 	-0.0038985 	0.00940921 	-0.213712
0.0033358 	-0.00059734 	0.000177629 	-0.247912
0.0033358 	-0.00401221 	0.00943479 	-0.211921
0.00345217 	-0.00060415 	0.000210107 	-0.246114
0.00345217 	-0.00402838 	0.00945882 	-0.209671
0.00356649 	-0.000592262 	0.000190232 	-0.244137
0.00356649 	-0.00389195 	0.00911809 	-0.206336
0.00367879 	-0.000571584 	0.000121794 	-0.24196
0.00367879 	-0.00366623 	0.00844534 	-0.201787
0.00378912 	-0.00354425 	0.00804287 	-0.19739
0.00378912 	-0.000569876 	9.02983e-05 	-0.239775
0.0038975 	-0.000604658 	0.000141136 	-0.237795
0.0038975 	-0.00365227 	0.00821961 	-0.194613
0.00400397 	-0.000660118 	0.000202292 	-0.235974
0.00400397 	-0.0038872 	0.0084678 	-0.193145
0.00410857 	-0.000712111 	0.000217423 	-0.234156
0.00410857 	-0.00408786 	0.00839824 	-0.191885
0.00421133 	-0.00075222 	0.000199649 	-0.232261
0.00421133 	-0.00419986 	0.00810811 	-0.190281
0.00431227 	-0.000784405 	0.000181727 	-0.230295
0.00431227 	-0.00425181 	0.00782828 	-0.188378
0.00441144 	-0.000813763 	0.000183331 	-0.22828
0.00441144 	-0.00427939 	0.00769153 	-0.186339
0.00450886 	-0.000839724 	0.00019329 	-0.226212
0.00450886 	-0.00428047 	0.00761654 	-0.184157
0.00460456 	-0.000858586 	0.000191731 	-0.224065
0.00460456 	-0.0042327 	0.00746335 	-0.181669
0.00469858 	-0.00086986 	0.000175712 	-0.221819
0.00469858 	-0.00413606 	0.00720909 	-0.178761
0.00479094 	-0.000878588 	0.000159301 	-0.219498
0.00479094 	-0.00402729 	0.00695187 	-0.175612
0.00488168 	-0.000891363 	0.000158415 	-0.217155
0.00488168 	-0.00395102 	0.00680603 	-0.172611
0.00497081 	-0.000909779 	0.000169049 	-0.214814
0.00497081 	-0.00391464 	0.00674761 	-0.16994
0.00505838 	-0.000929754 	0.000174491 	-0.212451
0.00505838 	-0.00388624 	0.00666167 	-0.167453
0.0051444 	-0.000946692 	0.000168872 	-0.210029
0.0051444 	-0.00383274 	0.00650553 	-0.164913
0.00522891 	-0.000958839 	0.000156992 	-0.207524
0.00522891 	-0.00374344 	0.00631104 	-0.162189
0.00531193 	-0.00362635 	0.00611836 	-0.159282
0.00531193 	-0.000967039 	0.000144528 	-0.204932
0.00539348 	-0.000973238 	0.000134286 	-0.202257
0.00539348 	-0.00349469 	0.00594669 	-0.156264
0.0054736 	-0.000979137 	0.000125928 	-0.199501
0.0054736 	-0.00335671 	0.00579025 	-0.153195
0.00555231 	-0.000985563 	0.000118179 	-0.196656
0.00555231 	-0.00321362 	0.00563559 	-0.150093
0.00562963 	-0.000992476 	0.000110246 	-0.19371
0.00562963 	-0.00306295 	0.00547559 	-0.146943
0.00570559 	-0.000999281 	0.000101734 	-0.19065
0.00570559 	-0.00290195 	0.00530986 	-0.143718
0.00578022 	-0.00100528 	9.2454e-05 	-0.187463
0.00578022 	-0.00272906 	0.00513927 	-0.140392
0.00585352 	-0.00101005 	8.25669e-05 	-0.184135
0.00585352 	-0.00254439 	0.0049646 	-0.136947
0.00592554 	-0.00101359 	7.2516e-05 	-0.180655
0.00592554 	-0.00234976 	0.00478724 	-0.133374
0.00599629 	-0.00101613 	6.27653e-05 	-0.177008
0.00599629 	-0.00214797 	0.00460904 	-0.129679
0.00606579 	-0.00194175 	0.00443069 	-0.12587
0.00606579 	-0.00101797 	5.35247e-05 	-0.173179
0.00613406 	-0.00101922 	4.47276e-05 	-0.169147
0.00613406 	-0.00173321 	0.00425067 	-0.121953
0.00620114 	-0.00101981 	3.63022e-05 	-0.164894
0.00620114 	-0.00152415 	0.00406738 	-0.117929
0.00626703 	-0.00101949 	2.83944e-05 	-0.1604
0.00626703 	-0.00131614 	0.00388125 	-0.113793
0.00633176 	-0.00101776 	2.11718e-05 	-0.155644
0.00633176 	-0.00110968 	0.00369349 	-0.10954
0.00639535 	-0.00101388 	1.44791e-05 	-0.150609
0.00639535 	-0.000904205 	0.00350346 	-0.105155
0.00645783 	-0.00100717 	8.08664e-06 	-0.145271
0.00645783 	-0.000700268 	0.00330901 	-0.100617
0.0065192 	-0.000997257 	2.05579e-06 	-0.139614
0.0065192 	-0.000501803 	0.0031098 	-0.0959142
0.00657949 	-0.000984136 	-3.32622e-06 	-0.133622
0.00657949 	-0.000316119 	0.0029089 	-0.091065
0.00663871 	-0.000968182 	-7.90019e-06 	-0.127285
0.00663871 	-0.000151535 	0.00270771 	-0.0861041
0.0066969 	-0.000949789 	-1.15398e-05 	-0.120588
0.0066969 	-1.48965e-05 	0.00250486 	-0.0810805
0.00675406 	-0.000928506 	-1.40014e-05 	-0.11352
0.00675406 	8.87674e-05 	0.00230054 	-0.0760634
0.00681021 	-0.000902295 	-1.53179e-05 	-0.106085
0.00681021 	0.000156098 	0.00209607 	-0.071128
0.00686537 	-0.000867768 	-1.58525e-05 	-0.0983133
0.00686537 	0.000185674 	0.00189283 	-0.0663435
0.00691956 	-0.000821354 	-1.58183e-05 	-0.090267
0.00691956 	0.000178452 	0.00169217 	-0.0617591
0.0069728 	-0.000760284 	-1.5201e-05 	-0.0820339
0.0069728 	0.000138642 	0.00149556 	-0.0573863
0.0070251 	-0.000683085 	-1.41853e-05 	-0.0737237
0.0070251 	7.37495e-05 	0.00130476 	-0.0531881
0.00707647 	-0.00059038 	-1.30171e-05 	-0.0654541
0.00707647 	-6.73164e-06 	0.00112144 	-0.0490843
0.00712695 	-0.000485693 	-1.17841e-05 	-0.0573298
0.00712695 	-9.29977e-05 	0.00094718 	-0.044969
0.00717653 	-0.000375424 	-1.04716e-05 	-0.0494229
0.00717653 	-0.000175721 	0.000783502 	-0.040731
0.00722524 	-0.000268173 	-8.95984e-06 	-0.0417623
0.00722524 	-0.000244956 	0.000630473 	-0.0362616
0.00727309 	-0.000174259 	-7.23862e-06 	-0.034333
0.00727309 	-0.000287074 	0.000489868 	-0.031442
0.0073201 	-0.000106452 	-5.65127e-06 	-0.0270786
0.0073201 	-0.000280134 	0.000369409 	-0.0261099
0.00736628 	-8.23627e-05 	-2.99133e-06 	-0.0199119
0.00736628 	-0.000187529 	0.000230136 	-0.0200238
0.00741165 	-9.54082e-05 	-1.73503e-06 	-0.0128389
0.00741165 	-2.13769e-05 	0.000139203 	-0.0131393
0.00745622 	-8.64008e-05 	-1.02111e-06 	-0.00610376
0.00745622 	8.53808e-05 	6.37637e-05 	-0.00611425
0.0075 	0 	0 	0
0.0075 	0 	0 	0
