/*--------------------------------*- C++ -*----------------------------------*\
| =========                 |                                                 |
| \\      /  F ield         | OpenFOAM: The Open Source CFD Toolbox           |
|  \\    /   O peration     | Version:  v1912                                 |
|   \\  /    A nd           | Website:  www.openfoam.com                      |
|    \\/     M anipulation  |                                                 |
\*---------------------------------------------------------------------------*/
FoamFile
{
    version     2.0;
    format      ascii;
    class       volScalarField;
    location    "199.6";
    object      k;
}
// * * * * * * * * * * * * * * * * * * * * * * * * * * * * * * * * * * * * * //

dimensions      [0 2 -2 0 0 0 0];


internalField   nonuniform List<scalar> 
10077
(
0.000325996
0.000279072
0.000242059
0.00023781
0.000240708
0.000241884
0.000241706
0.000241415
0.00024136
0.000241458
0.000241792
0.000242011
0.000240885
0.000238048
0.000242275
0.000279045
0.000317842
0.000276931
0.000246302
0.00024328
0.000245982
0.000246483
0.000245754
0.000245089
0.000244942
0.000245145
0.000245863
0.000246637
0.000246184
0.000243545
0.000246553
0.000276946
0.000310993
0.000275743
0.000251096
0.000249324
0.000251905
0.000251816
0.000250586
0.000249579
0.000249349
0.000249647
0.000250716
0.000251993
0.000252129
0.000249614
0.000251378
0.000275799
0.000305392
0.00027547
0.0002564
0.000255871
0.000258394
0.000257791
0.000256108
0.00025479
0.000254484
0.000254868
0.000256256
0.000257989
0.000258637
0.000256182
0.000256712
0.000275566
0.000300982
0.000276074
0.000262176
0.000262856
0.000265371
0.000264325
0.000262235
0.000260635
0.000260262
0.000260723
0.000262398
0.000264541
0.000265632
0.000263186
0.000262515
0.000276207
0.000297709
0.000277511
0.000268386
0.000270223
0.000272771
0.000271342
0.000268887
0.000267036
0.000266604
0.000267132
0.000269065
0.000271574
0.000273046
0.000270569
0.00026875
0.00027768
0.00029552
0.000279735
0.000274991
0.00027792
0.000280532
0.000278775
0.000275996
0.00027392
0.000273437
0.000274025
0.000276187
0.00027902
0.00028082
0.000278281
0.000275378
0.000279938
0.000294358
0.0002827
0.000281955
0.000285896
0.000288596
0.000286563
0.000283499
0.000281224
0.000280697
0.000281335
0.0002837
0.00028682
0.000288895
0.000286271
0.000282363
0.000282935
0.000294168
0.000286354
0.000289241
0.000294107
0.000296912
0.000294649
0.000291336
0.000288887
0.000288323
0.000289004
0.000291547
0.000294917
0.000297221
0.000294494
0.000289668
0.000286619
0.000294892
0.000290648
0.000296816
0.000302517
0.000305437
0.000302981
0.000299453
0.000296854
0.000296261
0.000296977
0.000299673
0.000303258
0.000305755
0.000302914
0.00029726
0.000290941
0.000296468
0.000295529
0.000304643
0.000311096
0.000314139
0.000311519
0.000307804
0.000305077
0.000304461
0.000305204
0.000308032
0.000311804
0.000314464
0.000311503
0.000305103
0.000295848
0.000298837
0.000300946
0.000312693
0.000319816
0.000322986
0.000320227
0.000316351
0.000313513
0.00031288
0.000313645
0.000316585
0.00032052
0.000323319
0.000320232
0.000313168
0.000301291
0.000301937
0.000306851
0.000320936
0.000328654
0.000331952
0.000329075
0.000325058
0.000322128
0.000321484
0.000322263
0.000325299
0.000329375
0.000332291
0.000329079
0.000321424
0.000307218
0.000305707
0.000313194
0.000329347
0.000337588
0.000341014
0.000338036
0.000333898
0.00033089
0.00033024
0.000331029
0.000334144
0.000338341
0.000341359
0.00033802
0.000329848
0.000313583
0.000310088
0.000319931
0.000337904
0.000346598
0.00035015
0.000347083
0.000342844
0.000339774
0.000339121
0.000339915
0.000343095
0.000347394
0.0003505
0.000347037
0.000338416
0.000320339
0.000315021
0.00032702
0.000346584
0.000355666
0.00035934
0.000356195
0.000351872
0.000348753
0.000348104
0.000348897
0.000352127
0.000356511
0.000359695
0.000356111
0.000347108
0.000327447
0.000320454
0.000334423
0.000355371
0.000364775
0.000368569
0.000365354
0.000360961
0.000357807
0.000357166
0.000357953
0.00036122
0.000365674
0.000368929
0.000365228
0.000355906
0.000334867
0.000326335
0.000342105
0.000364251
0.000373917
0.000377826
0.000374547
0.000370097
0.000366921
0.000366291
0.000367069
0.00037036
0.000374872
0.00037819
0.000374375
0.000364795
0.000342565
0.000332622
0.000350039
0.000373214
0.000383085
0.000387104
0.000383768
0.000379271
0.000376083
0.000375468
0.000376233
0.000379537
0.000384097
0.000387473
0.000383549
0.000373767
0.000350514
0.000339273
0.000358198
0.000382253
0.000392276
0.000396402
0.000393013
0.000388476
0.000385287
0.00038469
0.000385439
0.000388745
0.000393345
0.000396774
0.000392746
0.000382815
0.000358687
0.000346255
0.000366563
0.000391366
0.000401492
0.000405721
0.000402281
0.000397711
0.000394529
0.000393954
0.000394683
0.000397984
0.000402617
0.000406097
0.000401967
0.000391936
0.000367066
0.000353541
0.000375119
0.000400554
0.000410738
0.000415065
0.000411577
0.000406978
0.000403812
0.000403261
0.000403967
0.000407253
0.000411917
0.000415445
0.000411218
0.000401131
0.000375634
0.000361109
0.000383854
0.000409819
0.000420021
0.000424445
0.000420908
0.000416283
0.00041314
0.000412615
0.000413296
0.000416561
0.000421251
0.000424827
0.000420506
0.000410404
0.000384381
0.000368948
0.000392763
0.000419171
0.000429352
0.000433871
0.000430285
0.000425636
0.000422522
0.000422026
0.000422679
0.000425916
0.000430631
0.000434257
0.000429843
0.000419763
0.000393302
0.000377052
0.000401845
0.000428621
0.000438746
0.000443358
0.000439721
0.000435051
0.00043197
0.000431505
0.000432129
0.000435333
0.000440071
0.000443748
0.000439241
0.00042922
0.000402394
0.000385423
0.000411104
0.000438184
0.00044822
0.000452927
0.000449235
0.000444543
0.000441502
0.00044107
0.000441662
0.000444828
0.000449588
0.000453319
0.00044872
0.00043879
0.000411662
0.000394048
0.000420511
0.000447832
0.000457749
0.000462552
0.000458802
0.000454089
0.000451092
0.000450695
0.000451253
0.000454377
0.000459158
0.000462948
0.000458254
0.000448445
0.000421079
0.000402907
0.000430035
0.000457516
0.000467288
0.000472189
0.000468375
0.000463641
0.000460692
0.000460332
0.000460854
0.000463931
0.000468735
0.000472589
0.000467798
0.000458136
0.000430611
0.000411979
0.000439654
0.000467186
0.000476795
0.000481803
0.000477913
0.000473149
0.000470253
0.000469932
0.000470416
0.000473443
0.000478277
0.000482208
0.000477311
0.000467812
0.000440237
0.000421244
0.000449357
0.000476841
0.000486252
0.000491353
0.000487396
0.000482615
0.00047978
0.000479502
0.000479944
0.000482912
0.000487765
0.000491762
0.000486774
0.000477473
0.000449946
0.000430684
0.000459152
0.000486482
0.000495636
0.000500806
0.000496808
0.000492041
0.000489287
0.000489053
0.000489452
0.000492341
0.000497183
0.00050122
0.000496163
0.000487118
0.000459745
0.000440286
0.000469063
0.00049607
0.00050491
0.000510125
0.000506115
0.000501394
0.000498745
0.000498556
0.000498911
0.000501698
0.000506494
0.000510543
0.000505442
0.000496707
0.000469661
0.000450053
0.000479081
0.000505546
0.000514033
0.000519266
0.00051527
0.000510626
0.0005081
0.000507957
0.000508267
0.000510933
0.000515654
0.00051969
0.000514569
0.000506185
0.00047968
0.000460003
0.000489112
0.000514846
0.000522956
0.000528182
0.000524221
0.000519677
0.000517289
0.00051719
0.000517457
0.000519987
0.00052461
0.000528611
0.000523495
0.000515483
0.000489709
0.000470105
0.000499036
0.000523895
0.000531619
0.000536815
0.000532907
0.000528484
0.000526241
0.000526186
0.000526409
0.000528797
0.000533302
0.00053725
0.000532161
0.000524531
0.000499629
0.000480239
0.000508736
0.00053262
0.000539959
0.000545102
0.000541265
0.000536979
0.000534885
0.000534872
0.000535053
0.000537295
0.000541665
0.000545543
0.000540505
0.000533253
0.000509322
0.000490267
0.000518107
0.000540946
0.00054791
0.000552978
0.000549228
0.000545095
0.000543148
0.000543177
0.000543317
0.000545413
0.000549633
0.000553425
0.000548459
0.000541574
0.000518684
0.00050007
0.000527063
0.000548801
0.000555409
0.000560377
0.000556732
0.000552767
0.000550966
0.000551034
0.000551135
0.000553088
0.000557142
0.00056083
0.00055596
0.000549425
0.00052763
0.000509542
0.000535541
0.000556133
0.000562404
0.000567248
0.000563727
0.000559946
0.000558287
0.000558393
0.000558457
0.00056027
0.000564143
0.000567708
0.000562957
0.00055675
0.000536095
0.00051859
0.000543482
0.000562899
0.000568857
0.000573552
0.000570176
0.000566593
0.000565071
0.000565213
0.000565243
0.00056692
0.000570597
0.000574019
0.000569412
0.000563509
0.000544022
0.00052714
0.000550836
0.000569059
0.000574731
0.000579258
0.000576042
0.00057267
0.00057128
0.000571454
0.000571452
0.000572999
0.000576468
0.000579731
0.000575287
0.000569661
0.000551361
0.000535123
0.000557559
0.000574582
0.000579993
0.000584332
0.000581292
0.00057814
0.000576878
0.000577081
0.00057705
0.000578472
0.000581723
0.000584812
0.000580549
0.000575174
0.000558068
0.000542471
0.000563604
0.000579428
0.000584599
0.000588738
0.000585885
0.000582959
0.000581819
0.00058205
0.000581992
0.000583292
0.00058632
0.000589224
0.000585156
0.000580011
0.000564096
0.000549098
0.000568904
0.000583539
0.000588483
0.000592413
0.000589753
0.000587057
0.000586036
0.000586292
0.00058621
0.000587391
0.000590193
0.000592905
0.000589039
0.000584111
0.000569379
0.000554898
0.000573366
0.000586823
0.000591548
0.000595262
0.0005928
0.000590334
0.000589432
0.00058971
0.000589606
0.00059067
0.000593244
0.000595759
0.000592103
0.000587383
0.000573822
0.000559746
0.000576868
0.000589159
0.00059367
0.000597163
0.000594902
0.000592667
0.000591883
0.000592182
0.000592058
0.000593006
0.00059535
0.000597666
0.000594224
0.000589708
0.000577305
0.000563504
0.000579275
0.000590414
0.000594719
0.000597985
0.000595928
0.000593925
0.000593256
0.000593574
0.000593432
0.000594265
0.00059638
0.000598493
0.000595271
0.000590951
0.000579694
0.000566031
0.000580448
0.000590453
0.000594558
0.000597593
0.000595743
0.000593971
0.000593416
0.00059375
0.000593592
0.000594313
0.000596199
0.000598105
0.000595108
0.000590977
0.000580848
0.000567183
0.000580248
0.000589139
0.000593052
0.000595852
0.000594211
0.000592671
0.000592225
0.000592573
0.000592402
0.000593013
0.00059467
0.000596369
0.0005936
0.000589649
0.000580629
0.000566814
0.000578532
0.000586332
0.000590064
0.000592627
0.000591195
0.000589884
0.000589545
0.000589903
0.000589722
0.000590227
0.000591657
0.000593147
0.000590608
0.000586829
0.000578893
0.000564774
0.000575157
0.000581893
0.000585451
0.000587774
0.000586552
0.000585466
0.000585231
0.000585598
0.000585408
0.00058581
0.000587015
0.000588297
0.000585991
0.000582376
0.000575498
0.000560907
0.000569972
0.000575673
0.000579064
0.000581146
0.000580132
0.000579269
0.000579132
0.000579505
0.000579309
0.000579612
0.000580596
0.000581671
0.000579599
0.000576141
0.000570294
0.00055505
0.000562821
0.000567518
0.000570748
0.000572589
0.00057178
0.000571135
0.000571092
0.000571468
0.000571268
0.000571476
0.000572244
0.000573115
0.000571277
0.00056797
0.000563122
0.000547028
0.000553534
0.000557261
0.000560337
0.000561938
0.00056133
0.000560895
0.000560941
0.000561318
0.000561116
0.000561234
0.000561792
0.000562462
0.000560859
0.000557698
0.000553815
0.000536644
0.000541923
0.000544717
0.000547644
0.000549007
0.000548594
0.000548363
0.000548493
0.000548869
0.000548666
0.000548698
0.000549053
0.00054953
0.000548158
0.000545138
0.000542184
0.00052368
0.000527775
0.000529679
0.000532462
0.000533591
0.000533365
0.000533328
0.000533537
0.000533911
0.000533708
0.00053366
0.00053382
0.00053411
0.000532966
0.000530082
0.000528016
0.00050792
0.000510883
0.000511944
0.000514587
0.000515488
0.00051544
0.000515588
0.000515868
0.000516237
0.000516037
0.000515913
0.000515889
0.000516002
0.000515081
0.00051233
0.000511104
0.000489151
0.000491043
0.000491314
0.000493821
0.000494501
0.000494621
0.00049494
0.000495286
0.000495648
0.000495451
0.000495258
0.000495062
0.000495007
0.000494302
0.000491682
0.000491245
0.000467172
0.000468065
0.000467608
0.000469978
0.000470448
0.000470722
0.000471198
0.000471601
0.000471954
0.000471762
0.000471508
0.000471152
0.000470944
0.000470445
0.000467957
0.000468248
0.000441809
0.000441785
0.000440669
0.000442902
0.000443175
0.000443587
0.000444203
0.000444655
0.000444996
0.000444811
0.000444503
0.000444005
0.000443658
0.000443353
0.000440998
0.000441949
0.000412936
0.000412092
0.000410396
0.00041249
0.00041258
0.000413112
0.000413849
0.000414339
0.000414666
0.000414488
0.000414136
0.000413514
0.000413047
0.000412921
0.000410705
0.000412238
0.000380515
0.000378959
0.000376774
0.000378721
0.000378649
0.00037928
0.000380113
0.000380631
0.000380941
0.000380773
0.000380385
0.000379663
0.000379095
0.000379131
0.000377061
0.000379087
0.000344632
0.000342483
0.000339909
0.0003417
0.000341488
0.000342194
0.000343098
0.000343632
0.000343922
0.000343765
0.000343353
0.000342554
0.000341909
0.000342084
0.000340172
0.000342594
0.000305538
0.000302883
0.000299994
0.000301611
0.000301273
0.000302037
0.000302992
0.000303532
0.000303799
0.000303655
0.000303228
0.000302371
0.000301665
0.000301966
0.000300231
0.000302976
0.000263481
0.000260494
0.00025744
0.000258871
0.000258442
0.000259229
0.000260198
0.000260726
0.000260967
0.000260837
0.00026041
0.000259533
0.000258799
0.000259192
0.000257649
0.00026057
0.000219498
0.000216403
0.000213373
0.000214607
0.000214133
0.000214902
0.000215835
0.00021633
0.00021654
0.000216427
0.000216021
0.000215168
0.000214448
0.000214888
0.000213553
0.000216463
0.000175344
0.000172385
0.000169578
0.000170606
0.000170139
0.000170844
0.000171692
0.000172131
0.000172307
0.000172212
0.000171848
0.000171069
0.000170406
0.000170842
0.000169726
0.00017243
0.000133312
0.000130711
0.000128305
0.000129125
0.000128711
0.000129313
0.000130031
0.000130395
0.000130536
0.000130461
0.000130155
0.000129492
0.000128924
0.000129314
0.000128422
0.000130744
9.58174e-05
9.37337e-05
9.1843e-05
9.24617e-05
9.21312e-05
9.26055e-05
9.31669e-05
9.34482e-05
9.35527e-05
9.34972e-05
9.32598e-05
9.27399e-05
9.22916e-05
9.26029e-05
9.19292e-05
9.37568e-05
6.47705e-05
6.32576e-05
6.19039e-05
6.23411e-05
6.21044e-05
6.24467e-05
6.28493e-05
6.30492e-05
6.31218e-05
6.30833e-05
6.2914e-05
6.25404e-05
6.22164e-05
6.24397e-05
6.19637e-05
6.3273e-05
4.1017e-05
4.00245e-05
3.9144e-05
3.94311e-05
3.9279e-05
3.95043e-05
3.97679e-05
3.98983e-05
3.99451e-05
3.99204e-05
3.98097e-05
3.95649e-05
3.93514e-05
3.94948e-05
3.91826e-05
4.00342e-05
2.42202e-05
2.36321e-05
2.31124e-05
2.32864e-05
2.31986e-05
2.33337e-05
2.3491e-05
2.35689e-05
2.35968e-05
2.35821e-05
2.3516e-05
2.33698e-05
2.32418e-05
2.33244e-05
2.31355e-05
2.3638e-05
1.32142e-05
1.29003e-05
1.26227e-05
1.27192e-05
1.26739e-05
1.27473e-05
1.28325e-05
1.28749e-05
1.28902e-05
1.28821e-05
1.28462e-05
1.27671e-05
1.26975e-05
1.27401e-05
1.26353e-05
1.29036e-05
6.53694e-06
6.38777e-06
6.25528e-06
6.30358e-06
6.28283e-06
6.31855e-06
6.35993e-06
6.38067e-06
6.38827e-06
6.38424e-06
6.36671e-06
6.32834e-06
6.2945e-06
6.31388e-06
6.26158e-06
6.38949e-06
2.82882e-06
2.7676e-06
2.71284e-06
2.73389e-06
2.72576e-06
2.74084e-06
2.75828e-06
2.76711e-06
2.7704e-06
2.76865e-06
2.76121e-06
2.74507e-06
2.73079e-06
2.73834e-06
2.71558e-06
2.76838e-06
1.00141e-06
9.81042e-07
9.62655e-07
9.70143e-07
9.67591e-07
9.72774e-07
9.78757e-07
9.81823e-07
9.82993e-07
9.8237e-07
9.79797e-07
9.74269e-07
9.69363e-07
9.71714e-07
9.63631e-07
9.81334e-07
2.55957e-07
2.51047e-07
2.46584e-07
2.48495e-07
2.47922e-07
2.49214e-07
2.50701e-07
2.5147e-07
2.51769e-07
2.51609e-07
2.50967e-07
2.49595e-07
2.48371e-07
2.48894e-07
2.46834e-07
2.51124e-07
4.90133e-08
4.78913e-08
4.69379e-08
4.72651e-08
4.7134e-08
4.74207e-08
4.77384e-08
4.78904e-08
4.79427e-08
4.79156e-08
4.77864e-08
4.74902e-08
4.72164e-08
4.73371e-08
4.69811e-08
4.79015e-08
1.14722e-07
1.1086e-07
1.07878e-07
1.0845e-07
1.07954e-07
1.08859e-07
1.09815e-07
1.1021e-07
1.10308e-07
1.10263e-07
1.09914e-07
1.09006e-07
1.08132e-07
1.08599e-07
1.07956e-07
1.10857e-07
0.000244286
0.000245726
0.000252632
0.000249948
0.000246336
0.000244732
0.000244415
0.000244642
0.000244677
0.000244702
0.000244512
0.000244832
0.000246408
0.00024999
0.000252628
0.000245691
0.000252338
0.000251889
0.000256082
0.000253476
0.000250278
0.000249235
0.000249181
0.000249581
0.000249633
0.000249647
0.000249289
0.000249349
0.000250363
0.000253524
0.000256075
0.000251849
0.000260696
0.000258562
0.000260347
0.000257791
0.000254977
0.000254449
0.000254638
0.000255198
0.000255266
0.00025527
0.000254757
0.000254576
0.000255073
0.000257843
0.000260337
0.000258517
0.000269316
0.000265688
0.000265353
0.000262833
0.000260373
0.000260316
0.000260726
0.000261432
0.000261514
0.00026151
0.000260855
0.000260454
0.00026048
0.000262889
0.00026534
0.000265638
0.000278164
0.000273215
0.000271031
0.000268543
0.000266408
0.000266778
0.000267387
0.000268226
0.000268319
0.000268309
0.000267525
0.000266926
0.000266525
0.000268602
0.000271015
0.00027316
0.000287211
0.000281097
0.000277316
0.000274863
0.000273028
0.00027378
0.000274568
0.000275526
0.000275629
0.000275614
0.000274714
0.000273938
0.000273153
0.000274926
0.000277297
0.000281037
0.000296435
0.000289295
0.000284145
0.000281739
0.000280178
0.000281272
0.000282218
0.000283283
0.000283393
0.000283375
0.000282371
0.000281439
0.000280311
0.000281804
0.000284124
0.00028923
0.000305819
0.000297775
0.000291463
0.000289118
0.000287807
0.000289202
0.000290285
0.000291445
0.00029156
0.000291541
0.000290445
0.000289377
0.000287947
0.000289185
0.00029144
0.000297705
0.000315345
0.0003065
0.000299216
0.000296945
0.00029586
0.000297517
0.000298718
0.000299962
0.00030008
0.000300061
0.000298884
0.000297698
0.000296006
0.000297015
0.000299191
0.000306426
0.000324997
0.000315441
0.000307351
0.000305167
0.000304284
0.000306168
0.000307471
0.000308789
0.000308909
0.000308892
0.000307643
0.000306356
0.000304436
0.00030524
0.000307325
0.000315362
0.000334759
0.000324573
0.000315822
0.000313737
0.000313038
0.000315118
0.000316509
0.000317894
0.000318013
0.000317999
0.000316686
0.000315312
0.000313194
0.000313813
0.000315795
0.00032449
0.000344621
0.000333874
0.000324588
0.000322616
0.000322083
0.000324335
0.000325802
0.000327246
0.000327363
0.000327354
0.000325983
0.000324534
0.000322245
0.000322694
0.000324561
0.000333788
0.000354574
0.000343329
0.000333616
0.000331769
0.000331389
0.000333788
0.000335321
0.00033682
0.000336933
0.00033693
0.000335507
0.000333993
0.000331555
0.00033185
0.000333589
0.000343239
0.00036461
0.000352921
0.000342878
0.000341164
0.000340925
0.000343453
0.000345043
0.000346591
0.0003467
0.000346704
0.000345232
0.000343663
0.000341097
0.000341248
0.000342851
0.000352828
0.000374724
0.000362639
0.000352347
0.000350773
0.000350666
0.000353306
0.000354944
0.000356539
0.000356641
0.000356654
0.000355138
0.000353521
0.000350843
0.000350861
0.000352319
0.000362543
0.00038491
0.000372469
0.000361999
0.00036057
0.000360587
0.000363327
0.000365006
0.000366643
0.000366738
0.000366761
0.000365203
0.000363547
0.000360768
0.000360662
0.000361972
0.000372371
0.000395162
0.0003824
0.000371815
0.000370534
0.000370666
0.000373497
0.000375208
0.000376886
0.000376972
0.000377005
0.000375409
0.000373721
0.000370852
0.00037063
0.000371789
0.000382299
0.000405476
0.000392421
0.000381776
0.000380647
0.000380883
0.0003838
0.000385536
0.000387252
0.000387327
0.000387373
0.00038574
0.000384027
0.000381074
0.000380747
0.000381751
0.000392318
0.000415848
0.000402523
0.000391868
0.000390893
0.000391225
0.000394219
0.000395977
0.000397728
0.00039779
0.00039785
0.000396184
0.000394451
0.000391421
0.000390997
0.000391843
0.000402419
0.000426277
0.000412699
0.000402076
0.000401258
0.000401678
0.000404744
0.000406518
0.000408302
0.000408351
0.000408426
0.000406727
0.00040498
0.000401878
0.000401367
0.000402053
0.000412594
0.00043676
0.000422943
0.000412391
0.000411733
0.000412232
0.000415363
0.000417149
0.000418967
0.000419001
0.000419092
0.000417362
0.000415603
0.000412437
0.000411845
0.000412369
0.000422836
0.000447309
0.000433251
0.000422805
0.000422309
0.000422883
0.000426071
0.000427866
0.000429715
0.000429733
0.000429842
0.000428081
0.000426315
0.000423093
0.000422427
0.000422785
0.000433144
0.000457981
0.000443624
0.000433316
0.000432985
0.000433628
0.000436867
0.000438666
0.000440547
0.000440547
0.000440676
0.000438885
0.000437115
0.000433844
0.000433108
0.000433299
0.000443516
0.000468828
0.000454064
0.000443924
0.000443762
0.00044447
0.000447752
0.000449552
0.000451465
0.000451445
0.000451595
0.000449774
0.000448004
0.000444691
0.00044389
0.000443909
0.000453957
0.000479828
0.000464609
0.000454632
0.000454643
0.000455414
0.000458732
0.000460528
0.000462474
0.000462432
0.000462605
0.000460753
0.000458988
0.000455641
0.000454777
0.00045462
0.000464501
0.000490934
0.000475305
0.000465449
0.000465639
0.000466471
0.000469815
0.000471603
0.000473582
0.000473517
0.000473715
0.00047183
0.000470076
0.000466704
0.000465779
0.00046544
0.000475194
0.000502059
0.000486104
0.000476345
0.000476716
0.000477609
0.000480973
0.000482753
0.000484777
0.000484685
0.000484911
0.000482984
0.000481239
0.000477848
0.000476863
0.00047634
0.00048599
0.000513101
0.000496908
0.000487289
0.000487838
0.000488791
0.000492172
0.000493947
0.000496024
0.000495902
0.000496159
0.000494182
0.000492443
0.000489036
0.000487992
0.000487287
0.000496795
0.000523964
0.000507614
0.000498237
0.000498966
0.000499976
0.000503366
0.000505124
0.000507247
0.000507096
0.000507384
0.000505363
0.000503643
0.000500229
0.000499128
0.00049824
0.000507502
0.000534558
0.000518119
0.000509096
0.000510016
0.00051108
0.000514464
0.000516194
0.000518349
0.000518169
0.000518489
0.000516438
0.000514748
0.000511342
0.000510187
0.000509106
0.000518011
0.00054479
0.000528324
0.000519746
0.000520865
0.00052198
0.000525345
0.000527039
0.000529218
0.00052901
0.000529361
0.000527289
0.000525637
0.000522253
0.000521047
0.000519763
0.000528222
0.000554557
0.000538165
0.000530108
0.000531423
0.000532583
0.00053591
0.000537566
0.000539757
0.000539523
0.000539902
0.000537822
0.000536211
0.000532866
0.000531618
0.000530136
0.00053807
0.000563822
0.000547607
0.000540107
0.000541609
0.000542805
0.000546085
0.000547704
0.000549899
0.000549642
0.000550047
0.000547966
0.000546395
0.0005431
0.000541817
0.000540146
0.000547521
0.000572558
0.000556609
0.000549669
0.000551344
0.000552571
0.000555797
0.000557384
0.000559577
0.000559299
0.000559727
0.000557651
0.000556115
0.000552879
0.000551566
0.000549721
0.000556533
0.000580736
0.000565119
0.000558724
0.000560557
0.00056181
0.000564977
0.00056654
0.000568724
0.00056843
0.000568877
0.000566813
0.000565305
0.000562131
0.000560795
0.00055879
0.000565053
0.000588318
0.000573083
0.000567211
0.000569185
0.000570459
0.000573566
0.000575109
0.000577279
0.000576972
0.000577435
0.000575388
0.000573903
0.000570794
0.000569439
0.000567291
0.000573027
0.000595259
0.000580448
0.000575072
0.000577174
0.000578467
0.00058151
0.000583041
0.000585189
0.000584873
0.000585348
0.000583326
0.000581857
0.000578816
0.000577444
0.000575169
0.000580403
0.000601521
0.00058717
0.000582268
0.000584484
0.000585793
0.000588771
0.000590295
0.000592412
0.000592091
0.000592573
0.000590584
0.000589127
0.000586156
0.00058477
0.00058238
0.000587137
0.000607078
0.000593224
0.00058877
0.000591089
0.000592413
0.000595323
0.000596845
0.000598924
0.000598601
0.000599086
0.00059714
0.000595689
0.00059279
0.000591393
0.0005889
0.000593202
0.000611921
0.000598605
0.000594578
0.00059699
0.000598326
0.000601169
0.000602693
0.000604721
0.000604402
0.000604886
0.000602992
0.000601543
0.000598718
0.00059731
0.000594725
0.000598594
0.000616059
0.000603319
0.000599703
0.000602199
0.000603548
0.000606321
0.000607849
0.000609819
0.000609507
0.000609985
0.000608153
0.000606704
0.000603953
0.000602536
0.000599868
0.00060332
0.000619497
0.000607366
0.000604151
0.000606726
0.000608088
0.000610791
0.000612325
0.000614228
0.000613927
0.000614395
0.000612632
0.000611182
0.000608507
0.000607079
0.000604334
0.00060738
0.000622218
0.000610727
0.000607911
0.000610559
0.000611939
0.00061457
0.000616108
0.000617937
0.00061765
0.000618106
0.000616418
0.000614968
0.00061237
0.000610928
0.000608111
0.000610753
0.00062417
0.000613346
0.000610935
0.000613654
0.000615057
0.000617612
0.000619151
0.000620903
0.000620631
0.000621072
0.000619465
0.000618018
0.000615501
0.000614039
0.000611153
0.000613384
0.00062527
0.000615136
0.000613142
0.000615929
0.000617362
0.000619836
0.000621373
0.000623042
0.000622787
0.000623212
0.00062169
0.00062025
0.000617818
0.000616329
0.000613379
0.000615188
0.000625417
0.000615997
0.000614428
0.00061728
0.00061875
0.000621139
0.00062267
0.000624251
0.000624015
0.000624422
0.00062299
0.00062156
0.000619218
0.000617696
0.000614683
0.000616063
0.000624503
0.00061582
0.000614681
0.000617596
0.000619108
0.000621409
0.000622928
0.000624418
0.000624203
0.00062459
0.000623251
0.000621836
0.000619588
0.000618027
0.000614955
0.000615899
0.00062242
0.000614493
0.000613786
0.000616759
0.000618318
0.000620528
0.000622031
0.000623426
0.000623233
0.000623599
0.000622357
0.000620962
0.000618809
0.000617205
0.000614078
0.000614586
0.000619052
0.000611897
0.000611619
0.000614648
0.000616257
0.000618374
0.000619857
0.000621154
0.000620984
0.000621327
0.000620184
0.000618813
0.000616759
0.000615108
0.000611929
0.000612003
0.000614279
0.000607905
0.00060805
0.000611131
0.000612793
0.000614815
0.000616273
0.00061747
0.000617324
0.000617643
0.000616603
0.00061526
0.000613305
0.000611605
0.000608378
0.000608025
0.000607966
0.000602379
0.000602938
0.00060607
0.000607786
0.000609712
0.000611141
0.000612236
0.000612115
0.000612409
0.000611472
0.000610162
0.000608307
0.000606557
0.000603283
0.000602512
0.00059997
0.000595171
0.000596134
0.000599313
0.000601084
0.000602913
0.00060431
0.000605301
0.000605205
0.000605474
0.000604641
0.000603367
0.000601613
0.000599811
0.000596495
0.000595318
0.000590137
0.000586121
0.000587473
0.000590698
0.000592523
0.000594256
0.000595615
0.000596503
0.000596431
0.000596675
0.000595947
0.000594713
0.000593059
0.000591207
0.00058785
0.00058628
0.000578299
0.000575055
0.000576781
0.000580048
0.000581926
0.000583563
0.00058488
0.000585665
0.000585617
0.000585835
0.000585211
0.000584022
0.000582467
0.000580566
0.000577173
0.000575226
0.00056427
0.000561781
0.000563863
0.000567169
0.000569096
0.000570638
0.00057191
0.000572592
0.000572567
0.00057276
0.000572239
0.000571097
0.000569641
0.000567694
0.000564268
0.000561963
0.000547831
0.000546076
0.000548492
0.000551832
0.000553802
0.000555252
0.000556474
0.000557055
0.000557052
0.000557221
0.0005568
0.00055571
0.00055435
0.000552363
0.000548909
0.000546269
0.00052877
0.000527719
0.000530443
0.000533809
0.000535816
0.000537173
0.000538342
0.000538825
0.000538843
0.000538989
0.000538664
0.000537629
0.000536363
0.000534344
0.00053087
0.000527922
0.000506874
0.000506492
0.000509492
0.000512873
0.000514906
0.000516173
0.000517285
0.000517674
0.00051771
0.000517834
0.000517602
0.000516625
0.000515451
0.00051341
0.000509927
0.000506702
0.000481944
0.000482186
0.000485427
0.000488807
0.000490851
0.000492031
0.000493082
0.000493383
0.000493434
0.000493539
0.000493392
0.000492477
0.000491391
0.000489342
0.000485867
0.000482403
0.000453809
0.000454621
0.000458059
0.000461419
0.000463455
0.00046455
0.000465538
0.000465756
0.000465821
0.000465907
0.00046584
0.000464986
0.000463986
0.000461948
0.000458501
0.000454843
0.000422352
0.000423672
0.000427254
0.000430563
0.00043257
0.000433583
0.000434504
0.000434649
0.000434724
0.000434794
0.000434796
0.000434007
0.000433088
0.000431083
0.000427693
0.000423895
0.000387542
0.000389296
0.000392961
0.000396185
0.000398138
0.000399069
0.00039992
0.000400001
0.000400083
0.000400138
0.000400199
0.000399477
0.000398639
0.000396689
0.000393392
0.000389518
0.000349471
0.000351577
0.000355255
0.000358354
0.000360229
0.000361077
0.000361854
0.000361879
0.000361964
0.000362007
0.000362118
0.000361465
0.000360707
0.000358837
0.000355673
0.000351796
0.000308288
0.000310691
0.000314325
0.000317266
0.000319044
0.000319802
0.000320498
0.000320471
0.000320559
0.00032059
0.000320744
0.000320165
0.000319494
0.000317723
0.000314724
0.000310902
0.000264445
0.000267023
0.000270508
0.000273235
0.000274881
0.000275546
0.000276157
0.00027609
0.000276178
0.000276199
0.000276382
0.00027588
0.000275296
0.000273657
0.000270879
0.000267223
0.000219099
0.00022169
0.000224896
0.000227344
0.000228818
0.000229387
0.000229909
0.000229817
0.000229899
0.000229912
0.000230108
0.000229684
0.000229188
0.000227722
0.000225231
0.000221872
0.000174072
0.000176499
0.000179301
0.000181405
0.000182669
0.000183141
0.000183569
0.000183469
0.000183541
0.000183549
0.000183738
0.000183394
0.000182985
0.000181729
0.00017959
0.000176657
0.000131667
0.000133768
0.000136072
0.000137782
0.000138807
0.000139181
0.000139517
0.000139422
0.000139482
0.000139486
0.000139653
0.000139386
0.000139063
0.000138045
0.000136307
0.000133898
9.42292e-05
9.58956e-05
9.76563e-05
9.89562e-05
9.97342e-05
0.000100015
0.000100263
0.000100185
0.000100231
0.000100234
0.000100366
0.00010017
9.99282e-05
9.91557e-05
9.78352e-05
9.5995e-05
6.35082e-05
6.47113e-05
6.59535e-05
6.68688e-05
6.74165e-05
6.76141e-05
6.77862e-05
6.77293e-05
6.7762e-05
6.77632e-05
6.78582e-05
6.77232e-05
6.7553e-05
6.70091e-05
6.60795e-05
6.47814e-05
4.01667e-05
4.09544e-05
4.17598e-05
4.23538e-05
4.27095e-05
4.28391e-05
4.29503e-05
4.29137e-05
4.29349e-05
4.29357e-05
4.2997e-05
4.29099e-05
4.27981e-05
4.24448e-05
4.18416e-05
4.1e-05
2.37296e-05
2.41968e-05
2.46756e-05
2.50296e-05
2.5242e-05
2.53209e-05
2.53876e-05
2.53668e-05
2.53794e-05
2.538e-05
2.54155e-05
2.53632e-05
2.52949e-05
2.50839e-05
2.47243e-05
2.42239e-05
1.29719e-05
1.32221e-05
1.34818e-05
1.36747e-05
1.37907e-05
1.38348e-05
1.38717e-05
1.38613e-05
1.38681e-05
1.38685e-05
1.3887e-05
1.38579e-05
1.38195e-05
1.37043e-05
1.35084e-05
1.32369e-05
6.43663e-06
6.55602e-06
6.68276e-06
6.77736e-06
6.8344e-06
6.85676e-06
6.87533e-06
6.87077e-06
6.87406e-06
6.87434e-06
6.88289e-06
6.86817e-06
6.84863e-06
6.79194e-06
6.69579e-06
6.56324e-06
2.79581e-06