0 	0 	0 	0
0 	0 	0 	0
0.00752508 	-0.00106954 	0.00040328 	-0.289881
0.00752508 	-0.00106954 	0.00040328 	-0.289881
0.00757525 	-0.00105475 	0.000422639 	-0.289357
0.00762542 	-0.00103997 	0.000441998 	-0.288833
0.00762542 	-0.00103997 	0.000441998 	-0.288833
0.00767559 	-0.00102508 	0.000461124 	-0.288309
0.00772575 	-0.000998231 	0.000454656 	-0.287684
0.00777592 	-0.000971379 	0.000448188 	-0.28706
0.00782609 	-0.000944526 	0.00044172 	-0.286435
0.00782609 	-0.000944526 	0.00044172 	-0.286435
0.00787625 	-0.000924569 	0.000442603 	-0.285905
0.00792642 	-0.000909612 	0.000448817 	-0.285442
0.00797659 	-0.000894656 	0.000455032 	-0.28498
0.00802676 	-0.000882218 	0.000464454 	-0.284548
0.00802676 	-0.000882218 	0.000464454 	-0.284548
0.00807692 	-0.000879223 	0.000485902 	-0.28423
0.00812709 	-0.000876228 	0.000507349 	-0.283912
0.00812709 	-0.000876228 	0.000507349 	-0.283912
0.00817726 	-0.000873233 	0.000528796 	-0.283595
0.00822742 	-0.000873968 	0.000547754 	-0.283334
0.00822742 	-0.000873968 	0.000547754 	-0.283334
0.00827759 	-0.000875113 	0.000566438 	-0.283079
0.00832776 	-0.000876259 	0.000585122 	-0.282824
0.00832776 	-0.000876259 	0.000585122 	-0.282824
0.00837793 	-0.000876224 	0.000600165 	-0.282577
0.00842809 	-0.000875552 	0.000613243 	-0.282334
0.00842809 	-0.000875552 	0.000613243 	-0.282334
0.00847826 	-0.00087488 	0.000626321 	-0.282092
0.00847826 	-0.00087488 	0.000626321 	-0.282092
0.00852843 	-0.000872143 	0.000639148 	-0.281843
0.00852843 	-0.000872143 	0.000639148 	-0.281843
0.0085786 	-0.000866938 	0.000651676 	-0.281589
0.0085786 	-0.000866938 	0.000651676 	-0.281589
0.00862876 	-0.000861732 	0.000664204 	-0.281334
0.00867893 	-0.000855012 	0.000677131 	-0.281072
0.00867893 	-0.000855012 	0.000677131 	-0.281072
0.0087291 	-0.000845036 	0.000690916 	-0.280796
0.00877926 	-0.00083506 	0.000704701 	-0.280519
0.00877926 	-0.00083506 	0.000704701 	-0.280519
0.00882943 	-0.000824207 	0.000717839 	-0.280236
0.0088796 	-0.000810498 	0.00072887 	-0.27993
0.0088796 	-0.000810498 	0.00072887 	-0.27993
0.00897993 	-0.000782569 	0.000748775 	-0.279312
0.00897993 	-0.000782569 	0.000748775 	-0.279312
0.0090301 	-0.000766391 	0.000749369 	-0.278974
0.00908027 	-0.000750213 	0.000749964 	-0.278636
0.00908027 	-0.000750213 	0.000749964 	-0.278636
0.00913043 	-0.000733749 	0.000750422 	-0.278291
0.0091806 	-0.000716336 	0.000750429 	-0.277927
0.0091806 	-0.000716336 	0.000750429 	-0.277927
0.00923077 	-0.000698924 	0.000750435 	-0.277563
0.00928094 	-0.000681013 	0.000760036 	-0.277184
0.00928094 	-0.000681013 	0.000760036 	-0.277184
0.0093311 	-0.000661987 	0.000791071 	-0.276775
0.00938127 	-0.000642961 	0.000822106 	-0.276365
0.00938127 	-0.000642961 	0.000822106 	-0.276365
0.00943144 	-0.000618626 	0.00086622 	-0.275886
0.00943144 	-0.000618626 	0.00086622 	-0.275886
0.00948161 	-0.000587484 	0.000927105 	-0.275317
0.00948161 	-0.000587484 	0.000927105 	-0.275317
0.00953177 	-0.000556342 	0.00098799 	-0.274749
0.00953177 	-0.000556342 	0.00098799 	-0.274749
0.00958194 	-0.000507436 	0.00101648 	-0.274021
0.00958194 	-0.000507436 	0.00101648 	-0.274021
0.00963211 	-0.000447536 	0.00102492 	-0.273195
0.00963211 	-0.000447536 	0.00102492 	-0.273195
0.00968227 	-0.000387636 	0.00103335 	-0.27237
0.00968227 	-0.000387636 	0.00103335 	-0.27237
0.00973244 	-0.000315353 	0.000998729 	-0.271499
0.00978261 	-0.000240832 	0.000956322 	-0.27062
0.00983278 	-0.000167632 	0.000917936 	-0.269761
0.00988294 	-0.000103683 	0.000907708 	-0.269044
0.00988294 	-0.000103683 	0.000907708 	-0.269044
0.00993311 	-3.97334e-05 	0.00089748 	-0.268326
0.00998328 	1.89039e-05 	0.00090217 	-0.26766
0.00998328 	1.89039e-05 	0.00090217 	-0.26766
0.0100334 	7.10734e-05 	0.000925024 	-0.267056
0.0100334 	7.10734e-05 	0.000925024 	-0.267056
0.0100836 	0.000123243 	0.000947877 	-0.266451
0.0101338 	0.000170854 	0.00096876 	-0.265881
0.0101338 	0.000170854 	0.00096876 	-0.265881
0.0102341 	0.000264238 	0.00100556 	-0.264757
0.0102341 	0.000264238 	0.00100556 	-0.264757
0.0102843 	0.000311326 	0.00100908 	-0.264198
0.0103344 	0.000358414 	0.0010126 	-0.263639
0.0103344 	0.000358414 	0.0010126 	-0.263639
0.0103846 	0.000407296 	0.00101424 	-0.263075
0.0103846 	0.000407296 	0.00101424 	-0.263075
0.0104348 	0.000456916 	0.00101511 	-0.262508
0.0104849 	0.000507111 	0.0010167 	-0.261939
0.0104849 	0.000507111 	0.0010167 	-0.261939
0.0105351 	0.000559371 	0.0010209 	-0.26136
0.0105853 	0.000611631 	0.0010251 	-0.260782
0.0105853 	0.000611631 	0.0010251 	-0.260782
0.0106355 	0.000666164 	0.00102835 	-0.260191
0.0106856 	0.000721371 	0.00103131 	-0.259597
0.0106856 	0.000721371 	0.00103131 	-0.259597
0.0107358 	0.000777698 	0.00103377 	-0.258995
0.0107358 	0.000777698 	0.00103377 	-0.258995
0.010786 	0.00083595 	0.00103537 	-0.25838
0.010786 	0.00083595 	0.00103537 	-0.25838
0.0108361 	0.000894215 	0.00103696 	-0.257765
0.0108361 	0.000894215 	0.00103696 	-0.257765
0.0108863 	0.000954568 	0.00103764 	-0.257128
0.0109365 	0.00101492 	0.00103833 	-0.256492
0.0109365 	0.00101492 	0.00103833 	-0.256492
0.0109866 	0.00107509 	0.00103843 	-0.255839
0.0109866 	0.00107509 	0.00103843 	-0.255839
0.0110368 	0.00113519 	0.00103828 	-0.25518
0.011087 	0.0011939 	0.00103767 	-0.254511
0.011087 	0.0011939 	0.00103767 	-0.254511
0.0111371 	0.00125063 	0.00103641 	-0.253829
0.0111873 	0.00130642 	0.00103494 	-0.253144
0.0111873 	0.00130642 	0.00103494 	-0.253144
0.0112375 	0.00135769 	0.00103249 	-0.25244
0.0112876 	0.00140895 	0.00103003 	-0.251737
0.0112876 	0.00140895 	0.00103003 	-0.251737
0.0113378 	0.00145488 	0.00102665 	-0.251011
0.011388 	0.00150065 	0.00102324 	-0.250285
0.011388 	0.00150065 	0.00102324 	-0.250285
0.0114883 	0.00158464 	0.00101591 	-0.24879
0.0114883 	0.00158464 	0.00101591 	-0.24879
0.0115385 	0.00162446 	0.0010121 	-0.248021
0.0115886 	0.00166347 	0.00100823 	-0.247244
0.0115886 	0.00166347 	0.00100823 	-0.247244
0.0116388 	0.00170147 	0.00100588 	-0.246448
0.011689 	0.0017388 	0.00100455 	-0.24564
0.011689 	0.0017388 	0.00100455 	-0.24564
0.0117391 	0.00177541 	0.00100066 	-0.244811
0.0117893 	0.00181145 	0.000994729 	-0.243967
0.0117893 	0.00181145 	0.000994729 	-0.243967
0.0118395 	0.00184639 	0.000979914 	-0.243101
0.0118896 	0.00188041 	0.000957597 	-0.242218
0.0118896 	0.00188041 	0.000957597 	-0.242218
0.0119398 	0.00191167 	0.000936696 	-0.241317
0.0119398 	0.00191167 	0.000936696 	-0.241317
0.01199 	0.00194082 	0.000916884 	-0.240401
0.01199 	0.00194082 	0.000916884 	-0.240401
0.0120401 	0.00196675 	0.000916443 	-0.239459
0.0120401 	0.00196675 	0.000916443 	-0.239459
0.0120903 	0.00199075 	0.000927703 	-0.238502
0.0120903 	0.00199075 	0.000927703 	-0.238502
0.0121405 	0.00201807 	0.000956266 	-0.237471
0.0121405 	0.00201807 	0.000956266 	-0.237471
0.0121906 	0.00204671 	0.0009917 	-0.236411
0.0121906 	0.00204671 	0.0009917 	-0.236411
0.0122408 	0.00208878 	0.00100706 	-0.235214
0.0122408 	0.00208878 	0.00100706 	-0.235214
0.012291 	0.00213338 	0.00101863 	-0.233991
0.012291 	0.00213338 	0.00101863 	-0.233991
0.0123411 	0.00218399 	0.000983795 	-0.232674
0.0123411 	0.00218399 	0.000983795 	-0.232674
0.0123913 	0.0022321 	0.000945892 	-0.23136
0.0123913 	0.0022321 	0.000945892 	-0.23136
0.0124415 	0.00226965 	0.000895061 	-0.230057
0.0124916 	0.00230104 	0.000852278 	-0.228752
0.0124916 	0.00230104 	0.000852278 	-0.228752
0.012592 	0.00234492 	0.000805459 	-0.226089
0.012592 	0.00234492 	0.000805459 	-0.226089
0.0126421 	0.00236539 	0.000798017 	-0.22471
0.0126923 	0.00239316 	0.000798736 	-0.223245
0.0126923 	0.00239316 	0.000798736 	-0.223245
0.0127425 	0.00242175 	0.000800385 	-0.221763
0.0127425 	0.00242175 	0.000800385 	-0.221763
0.0127926 	0.00245158 	0.000803503 	-0.220242
0.0128428 	0.00247514 	0.000801302 	-0.218705
0.0128428 	0.00247514 	0.000801302 	-0.218705
0.012893 	0.00249478 	0.000795779 	-0.217157
0.0129431 	0.00249835 	0.000774651 	-0.215566
0.0129431 	0.00249835 	0.000774651 	-0.215566
0.0129933 	0.00249604 	0.000751492 	-0.213945
0.0130435 	0.00248487 	0.00072544 	-0.212281
0.0130435 	0.00248487 	0.00072544 	-0.212281
0.0130936 	0.00246612 	0.000704518 	-0.210542
0.0131438 	0.0024438 	0.000685185 	-0.208756
0.0131438 	0.0024438 	0.000685185 	-0.208756
0.013194 	0.00241654 	0.0006671 	-0.206895
0.0132441 	0.00238351 	0.000647022 	-0.204943
0.0132441 	0.00238351 	0.000647022 	-0.204943
0.0132943 	0.00234648 	0.00062619 	-0.202925
0.0133445 	0.00230362 	0.000604963 	-0.200812
0.0133445 	0.00230362 	0.000604963 	-0.200812
0.0133946 	0.00225386 	0.000583831 	-0.198577
0.0134448 	0.00219922 	0.000562566 	-0.196249
0.0134448 	0.00219922 	0.000562566 	-0.196249
0.013495 	0.00213917 	0.000541054 	-0.193816
0.0135452 	0.00207024 	0.000518659 	-0.191192
0.0135452 	0.00207024 	0.000518659 	-0.191192
0.0136455 	0.00191521 	0.000472576 	-0.185522
0.0136455 	0.00191521 	0.000472576 	-0.185522
0.0136957 	0.00182771 	0.000449033 	-0.182422
0.0137458 	0.00173215 	0.000425511 	-0.179082
0.0137458 	0.00173215 	0.000425511 	-0.179082
0.013796 	0.00163056 	0.000402197 	-0.175541
0.0138462 	0.00152297 	0.000379113 	-0.171782
0.0138462 	0.00152297 	0.000379113 	-0.171782
0.0138963 	0.00140951 	0.000356226 	-0.167782
0.0138963 	0.00140951 	0.000356226 	-0.167782
0.0139465 	0.0012892 	0.000333261 	-0.163424
0.0139967 	0.00116441 	0.000310167 	-0.158758
0.0139967 	0.00116441 	0.000310167 	-0.158758
0.0140468 	0.00103572 	0.000287037 	-0.153762
0.0140468 	0.00103572 	0.000287037 	-0.153762
0.014097 	0.000903591 	0.000264017 	-0.148407
0.0141472 	0.000768404 	0.000241333 	-0.142664
0.0141973 	0.000630411 	0.000219327 	-0.136502
0.0141973 	0.000630411 	0.000219327 	-0.136502
0.0142475 	0.000489501 	0.000198194 	-0.129814
0.0142977 	0.000347461 	0.000177507 	-0.122632
0.0143478 	0.000207123 	0.00015705 	-0.114933
0.0143478 	0.000207123 	0.00015705 	-0.114933
0.014398 	7.30821e-05 	0.000137032 	-0.106714
0.014398 	7.30821e-05 	0.000137032 	-0.106714
0.0144482 	-4.83981e-05 	0.000117895 	-0.0980059
0.0144983 	-0.000150275 	9.98604e-05 	-0.0888823
0.0144983 	-0.000150275 	9.98604e-05 	-0.0888823
0.0145485 	-0.000226026 	8.29339e-05 	-0.0794558
0.0145987 	-0.000271095 	6.72127e-05 	-0.0698708
0.0145987 	-0.000271095 	6.72127e-05 	-0.0698708
0.0146488 	-0.000284467 	5.28692e-05 	-0.0602806
0.014699 	-0.00027009 	3.99929e-05 	-0.0508205
0.014699 	-0.00027009 	3.99929e-05 	-0.0508205
0.0147492 	-0.000237988 	2.86417e-05 	-0.0415895
0.0147993 	-0.000206346 	1.90344e-05 	-0.0326517
0.0147993 	-0.000206346 	1.90344e-05 	-0.0326517
0.0148495 	-0.000207027 	1.06936e-05 	-0.0240508
0.0148495 	-0.000207027 	1.06936e-05 	-0.0240508
0.0148997 	-0.000244011 	4.76797e-06 	-0.0158014
0.0148997 	-0.000244011 	4.76797e-06 	-0.0158014
0.0149498 	-0.000212745 	1.63416e-06 	-0.00784122
0.0149498 	-0.000212745 	1.63416e-06 	-0.00784122
0.015 	0 	0 	0
