-0.0075 	373
-0.00715932 	359.143
-0.00676191 	356.977
-0.00629832 	356.123
-0.00575752 	355.605
-0.00512667 	355.205
-0.00439077 	354.853
-0.00353231 	354.519
-0.00253089 	354.182
-0.00136271 	353.826
0 	353.435
0.00136271 	353.01
0.00253089 	352.567
0.00353231 	352.116
0.00439077 	351.642
0.00512667 	351.109
0.00575752 	350.438
0.00629832 	349.447
0.00676191 	347.311
0.00715932 	336.706
0.0075 	313
