-0.0075 	0 	0 	0
-0.00715932 	-0.000148328 	-3.02357e-05 	0.138126
-0.00676191 	-0.000245945 	-9.22953e-05 	0.219449
-0.00629832 	-0.00027191 	-0.000172009 	0.268306
-0.00575752 	-0.000256409 	-0.000255501 	0.300799
-0.00512667 	-0.000226393 	-0.00033405 	0.325078
-0.00439077 	-0.000196388 	-0.000401206 	0.34422
-0.00353231 	-0.000171872 	-0.000456648 	0.35922
-0.00253089 	-0.000152045 	-0.000502854 	0.370194
-0.00136271 	-0.000133953 	-0.000539156 	0.376883
0 	-0.000116818 	-0.000560439 	0.378701
0.00136271 	-0.000102802 	-0.000560835 	0.375136
0.00253089 	-9.44977e-05 	-0.00053928 	0.366494
0.00353231 	-9.42404e-05 	-0.000498822 	0.353427
0.00439077 	-0.000104555 	-0.000436881 	0.335944
0.00512667 	-0.000126465 	-0.000346458 	0.312899
0.00575752 	-0.000155457 	-0.000229715 	0.281565
0.00629832 	-0.000175862 	-0.000106242 	0.236879
0.00676191 	-0.000155625 	-1.60908e-05 	0.166664
0.00715932 	-7.99919e-05 	9.5582e-06 	0.0737336
0.0075 	0 	0 	0
