-0.0075 	0 	0 	0
-0.0075 	1.33961e-34 	4.50095e-36 	-8.0736e-33
-0.00745622 	0.000176065 	5.91559e-06 	-0.0106111
-0.00745622 	0.000176065 	5.91559e-06 	-0.0106111
-0.00741165 	0.000163307 	1.1656e-05 	-0.020372
-0.00741165 	0.000163307 	1.1656e-05 	-0.020372
-0.00736628 	7.63847e-05 	1.75894e-05 	-0.0301696
-0.00736628 	7.63847e-05 	1.75894e-05 	-0.0301696
-0.0073201 	1.29719e-05 	2.15708e-05 	-0.0403905
-0.0073201 	1.29719e-05 	2.15708e-05 	-0.0403905
-0.00727309 	-1.77847e-05 	2.62421e-05 	-0.0508132
-0.00727309 	-1.77847e-05 	2.62421e-05 	-0.0508132
-0.00722524 	-3.25465e-05 	3.11829e-05 	-0.0611877
-0.00722524 	-3.25465e-05 	3.11829e-05 	-0.0611877
-0.00717653 	-3.81166e-05 	3.68625e-05 	-0.0713747
-0.00717653 	-3.81166e-05 	3.68625e-05 	-0.0713747
-0.00712695 	-3.75976e-05 	4.32259e-05 	-0.0812684
-0.00712695 	-3.75976e-05 	4.32259e-05 	-0.0812684
-0.00707647 	-3.27264e-05 	5.01973e-05 	-0.0907866
-0.00707647 	-3.27264e-05 	5.01973e-05 	-0.0907866
-0.0070251 	-2.45475e-05 	5.7792e-05 	-0.0998755
-0.0070251 	-2.45475e-05 	5.7792e-05 	-0.0998755
-0.0069728 	-1.3529e-05 	6.55731e-05 	-0.108517
-0.0069728 	-1.3529e-05 	6.55731e-05 	-0.108517
-0.00691956 	3.34054e-07 	7.36602e-05 	-0.11672
-0.00691956 	3.34054e-07 	7.36602e-05 	-0.11672
-0.00686537 	1.73764e-05 	8.21848e-05 	-0.124497
-0.00686537 	1.73764e-05 	8.21848e-05 	-0.124497
-0.00681021 	3.79011e-05 	9.10876e-05 	-0.131859
-0.00681021 	3.79011e-05 	9.10876e-05 	-0.131859
-0.00675406 	6.18388e-05 	0.000100536 	-0.138829
-0.00675406 	6.18388e-05 	0.000100536 	-0.138829
-0.0066969 	8.86518e-05 	0.000110334 	-0.145435
-0.0066969 	8.86518e-05 	0.000110334 	-0.145435
-0.00663871 	0.000117479 	0.000120388 	-0.151704
-0.00663871 	0.000117479 	0.000120388 	-0.151704
-0.00657949 	0.000147439 	0.0001309 	-0.157657
-0.00657949 	0.000147439 	0.0001309 	-0.157657
-0.0065192 	0.000177661 	0.000142149 	-0.163312
-0.0065192 	0.000177661 	0.000142149 	-0.163312
-0.00645783 	0.000207184 	0.00015412 	-0.168678
-0.00645783 	0.000207184 	0.00015412 	-0.168678
-0.00639535 	0.000235138 	0.000166354 	-0.173753
-0.00639535 	0.000235138 	0.000166354 	-0.173753
-0.00633176 	0.000261149 	0.000178212 	-0.178537
-0.00633176 	0.000261149 	0.000178212 	-0.178537
-0.00626703 	0.000285654 	0.000190276 	-0.18304
-0.00626703 	0.000285654 	0.000190276 	-0.18304
-0.00620114 	0.000310159 	0.000204062 	-0.187272
-0.00620114 	0.000310159 	0.000204062 	-0.187272
-0.00613406 	0.000336778 	0.000218035 	-0.191251
-0.00613406 	0.000336778 	0.000218035 	-0.191251
-0.00606579 	0.000367572 	0.00022982 	-0.195032
-0.00606579 	0.000367572 	0.00022982 	-0.195032
-0.00599629 	0.000404354 	0.000240697 	-0.198728
-0.00599629 	0.000404354 	0.000240697 	-0.198728
-0.00592554 	0.000445049 	0.000253604 	-0.202438
-0.00592554 	0.000445049 	0.000253604 	-0.202438
-0.00585352 	0.000480061 	0.00026997 	-0.206119
-0.00585352 	0.000480061 	0.00026997 	-0.206119
-0.00578022 	0.000500467 	0.000286036 	-0.209578
-0.00578022 	0.000500467 	0.000286036 	-0.209578
-0.00570559 	0.000509964 	0.000298767 	-0.21271
-0.00570559 	0.000509964 	0.000298767 	-0.21271
-0.00562963 	0.000519186 	0.000311044 	-0.215604
-0.00562963 	0.000519186 	0.000311044 	-0.215604
-0.00555231 	0.000532449 	0.000323229 	-0.218378
-0.00555231 	0.000532449 	0.000323229 	-0.218378
-0.0054736 	0.000546956 	0.000335351 	-0.221062
-0.0054736 	0.000546956 	0.000335351 	-0.221062
-0.00539348 	0.000558953 	0.00034676 	-0.223641
-0.00539348 	0.000558953 	0.00034676 	-0.223641
-0.00531193 	0.000569236 	0.000354107 	-0.226155
-0.00531193 	0.000569236 	0.000354107 	-0.226155
-0.00522891 	0.000588036 	0.000364761 	-0.228751
-0.00522891 	0.000588036 	0.000364761 	-0.228751
-0.0051444 	0.00062614 	0.000389344 	-0.231606
-0.0051444 	0.00062614 	0.000389344 	-0.231606
-0.00505838 	0.000672 	0.000418416 	-0.234652
-0.00505838 	0.000672 	0.000418416 	-0.234652
-0.00497081 	0.000690357 	0.000422968 	-0.237387
-0.00497081 	0.000690357 	0.000422968 	-0.237387
-0.00488168 	0.000673658 	0.000405655 	-0.239619
-0.00488168 	0.000673658 	0.000405655 	-0.239619
-0.00479094 	0.00064675 	0.000405266 	-0.241791
-0.00479094 	0.00064675 	0.000405266 	-0.241791
-0.00469858 	0.000622067 	0.000434457 	-0.244149
-0.00469858 	0.000622067 	0.000434457 	-0.244149
-0.00460456 	0.000599955 	0.000466203 	-0.246488
-0.00460456 	0.000599955 	0.000466203 	-0.246488
-0.00450886 	0.000579822 	0.000480302 	-0.248605
-0.00450886 	0.000579822 	0.000480302 	-0.248605
-0.00441144 	0.000562198 	0.000482158 	-0.250515
-0.00441144 	0.000562198 	0.000482158 	-0.250515
-0.00431227 	0.000546069 	0.000483691 	-0.252304
-0.00431227 	0.000546069 	0.000483691 	-0.252304
-0.00421133 	0.000529265 	0.0004918 	-0.254016
-0.00421133 	0.000529265 	0.0004918 	-0.254016
-0.00410857 	0.000511753 	0.000501165 	-0.255667
-0.00410857 	0.000511753 	0.000501165 	-0.255667
-0.00400397 	0.000494827 	0.000509141 	-0.257258
-0.00400397 	0.000494827 	0.000509141 	-0.257258
-0.0038975 	0.000479608 	0.000519359 	-0.258791
-0.0038975 	0.000479608 	0.000519359 	-0.258791
-0.00378912 	0.000466754 	0.000531906 	-0.26027
-0.00378912 	0.000466754 	0.000531906 	-0.26027
-0.00367879 	0.000456161 	0.000547216 	-0.261698
-0.00367879 	0.000456161 	0.000547216 	-0.261698
-0.00356649 	0.000445045 	0.000570281 	-0.26311
-0.00356649 	0.000445045 	0.000570281 	-0.26311
-0.00345217 	0.000424738 	0.00059859 	-0.26466
-0.00345217 	0.000424738 	0.00059859 	-0.26466
-0.0033358 	0.000385642 	0.000609365 	-0.266579
-0.0033358 	0.000385642 	0.000609365 	-0.266579
-0.00321735 	0.000330269 	0.000590827 	-0.268892
-0.00321735 	0.000330269 	0.000590827 	-0.268892
-0.00309677 	0.000283126 	0.00058878 	-0.270977
-0.00309677 	0.000283126 	0.00058878 	-0.270977
-0.00297403 	0.000259524 	0.000623903 	-0.272319
-0.00297403 	0.000259524 	0.000623903 	-0.272319
-0.00284909 	0.000245746 	0.0006543 	-0.273294
-0.00284909 	0.000245746 	0.0006543 	-0.273294
-0.0027219 	0.000227897 	0.000663115 	-0.27437
-0.0027219 	0.000227897 	0.000663115 	-0.27437
-0.00259244 	0.000205094 	0.000670111 	-0.275562
-0.00259244 	0.000205094 	0.000670111 	-0.275562
-0.00246065 	0.00018154 	0.000688481 	-0.276737
-0.00246065 	0.00018154 	0.000688481 	-0.276737
-0.00232651 	0.000159068 	0.000709159 	-0.277855
-0.00232651 	0.000159068 	0.000709159 	-0.277855
-0.00218995 	0.000137657 	0.000726409 	-0.278921
-0.00218995 	0.000137657 	0.000726409 	-0.278921
-0.00205095 	0.000116999 	0.000742401 	-0.279948
-0.00205095 	0.000116999 	0.000742401 	-0.279948
-0.00190946 	9.7301e-05 	0.000758051 	-0.280941
-0.00190946 	9.7301e-05 	0.000758051 	-0.280941
-0.00176543 	7.92191e-05 	0.000773796 	-0.281905
-0.00176543 	7.92191e-05 	0.000773796 	-0.281905
-0.00161881 	6.32496e-05 	0.000789891 	-0.282839
-0.00161881 	6.32496e-05 	0.000789891 	-0.282839
-0.00146957 	4.96819e-05 	0.000806374 	-0.283745
-0.00146957 	4.96819e-05 	0.000806374 	-0.283745
-0.00131765 	3.8749e-05 	0.000822484 	-0.284622
-0.00131765 	3.8749e-05 	0.000822484 	-0.284622
-0.001163 	3.0646e-05 	0.000837535 	-0.28547
-0.001163 	3.0646e-05 	0.000837535 	-0.28547
-0.00100559 	2.54569e-05 	0.000851326 	-0.286286
-0.00100559 	2.54569e-05 	0.000851326 	-0.286286
-0.000845345 	2.31442e-05 	0.000859386 	-0.287067
-0.000845345 	2.31442e-05 	0.000859386 	-0.287067
-0.000682232 	2.36575e-05 	0.000865272 	-0.287809
-0.000682232 	2.36575e-05 	0.000865272 	-0.287809
-0.000516194 	2.71605e-05 	0.000873688 	-0.288507
-0.000516194 	2.71605e-05 	0.000873688 	-0.288507
-0.000347178 	3.40299e-05 	0.000878437 	-0.289154
-0.000347178 	3.40299e-05 	0.000878437 	-0.289154
-0.000175132 	4.40061e-05 	0.000892159 	-0.289715
-0.000175132 	4.40061e-05 	0.000892159 	-0.289715
0 	5.51684e-05 	0.000906886 	-0.290117
0 	5.51684e-05 	0.000906886 	-0.290117
0 	5.51684e-05 	0.000906886 	-0.290117
0 	5.51684e-05 	0.000906886 	-0.290117
0.000175132 	6.53818e-05 	0.000910391 	-0.290309
0.000175132 	0.00231442 	0.00789584 	-0.31353
0.000347178 	7.53625e-05 	0.000916128 	-0.290306
0.000347178 	0.00258302 	0.00790679 	-0.314204
0.000516194 	8.78961e-05 	0.000913131 	-0.290159
0.000516194 	0.00287723 	0.00786155 	-0.314268
0.000682232 	0.000104935 	0.00090351 	-0.289885
0.000682232 	0.00319681 	0.00779682 	-0.313895
0.000845345 	0.000127226 	0.000897216 	-0.289478
0.000845345 	0.00351736 	0.00773275 	-0.313333
0.00100559 	0.000154935 	0.000891967 	-0.288926
0.00100559 	0.00382262 	0.00768038 	-0.31265
0.001163 	0.000184669 	0.000897036 	-0.288275
0.001163 	0.00409157 	0.00768703 	-0.312099
0.00131765 	0.000209797 	0.000902283 	-0.287644
0.00131765 	0.00428127 	0.00767062 	-0.312552
0.00146957 	0.000239055 	0.000878769 	-0.286925
0.00146957 	0.00445195 	0.00741456 	-0.313412
0.00161881 	0.000297166 	0.000863133 	-0.2856
0.00161881 	0.00478268 	0.00718323 	-0.311066
0.00176543 	0.000380947 	0.000897166 	-0.283591
0.00176543 	0.00526772 	0.00732533 	-0.304795
0.00190946 	0.000463938 	0.000917704 	-0.281626
0.00190946 	0.00569675 	0.00746046 	-0.299052
0.00205095 	0.000542003 	0.000900442 	-0.280278
0.00205095 	0.0059404 	0.00733926 	-0.296567
0.00218995 	0.000617284 	0.00091234 	-0.279303
0.00218995 	0.00603923 	0.00720785 	-0.296129
0.00232651 	0.000657889 	0.000942341 	-0.277813
0.00232651 	0.00609735 	0.00715902 	-0.295957
0.00246065 	0.00063263 	0.000927294 	-0.275477
0.00246065 	0.00615863 	0.00711874 	-0.295544
0.00259244 	0.000587587 	0.000901299 	-0.273074
0.00259244 	0.0062212 	0.00706409 	-0.29499
0.0027219 	0.000584928 	0.000905233 	-0.271204
0.0027219 	0.00628145 	0.00700887 	-0.294336
0.00284909 	0.00062291 	0.000914354 	-0.269713
0.00284909 	0.00633662 	0.00695331 	-0.293598
0.00297403 	0.000673545 	0.000915163 	-0.268305
0.00297403 	0.00638564 	0.00689441 	-0.292782
0.00309677 	0.000721328 	0.000912522 	-0.266843
0.00309677 	0.00642842 	0.00682974 	-0.291891
0.00321735 	0.000765349 	0.000910143 	-0.265324
0.00321735 	0.0064652 	0.00676697 	-0.290922
0.0033358 	0.00080698 	0.000907331 	-0.263759
0.0033358 	0.00650245 	0.00671366 	-0.289823
0.00345217 	0.000847243 	0.000903055 	-0.26215
0.00345217 	0.00655733 	0.00665011 	-0.288479
0.00356649 	0.000886901 	0.000897097 	-0.260497
0.00356649 	0.00664105 	0.00654655 	-0.286907
0.00367879 	0.000925961 	0.000889414 	-0.2588
0.00367879 	0.00672429 	0.00641379 	-0.285568
0.00378912 	0.00673988 	0.00631597 	-0.285019
0.00378912 	0.000963639 	0.000880342 	-0.257058
0.0038975 	0.000999106 	0.000870397 	-0.255268
0.0038975 	0.00668684 	0.00625309 	-0.284721
0.00400397 	0.00103239 	0.000859821 	-0.25343
0.00400397 	0.00663065 	0.0061706 	-0.283814
0.00410857 	0.00106441 	0.000845586 	-0.251541
0.00410857 	0.00660678 	0.00603612 	-0.282289
0.00421133 	0.00109648 	0.000835738 	-0.249598
0.00421133 	0.00660923 	0.00593077 	-0.2804
0.00431227 	0.00112653 	0.000839255 	-0.247628
0.00431227 	0.00659687 	0.0059398 	-0.278545
0.00441144 	0.00114722 	0.000834336 	-0.245716
0.00441144 	0.00651164 	0.00589634 	-0.277402
0.00450886 	0.00115641 	0.000796636 	-0.243867
0.00450886 	0.00634507 	0.0056229 	-0.276985
0.00460456 	0.00116987 	0.0007422 	-0.241781
0.00460456 	0.00621383 	0.0052393 	-0.27518
0.00469858 	0.00121153 	0.000720718 	-0.239102
0.00469858 	0.00628502 	0.0050947 	-0.269489
0.00479094 	0.00127575 	0.000732208 	-0.236116
0.00479094 	0.00651181 	0.00518863 	-0.261954
0.00488168 	0.00133483 	0.000734865 	-0.233357
0.00488168 	0.00669492 	0.00522761 	-0.25631
0.00497081 	0.00137549 	0.000708866 	-0.230881
0.00497081 	0.00673907 	0.00506282 	-0.252987
0.00505838 	0.00140264 	0.000670888 	-0.228513
0.00505838 	0.00668148 	0.00480922 	-0.250807
0.0051444 	0.00142716 	0.000648765 	-0.226114
0.0051444 	0.00660319 	0.00466385 	-0.248801
0.00522891 	0.00145278 	0.000631609 	-0.223639
0.00522891 	0.00653262 	0.0045546 	-0.246679
0.00531193 	0.00646478 	0.004412 	-0.244451
0.00531193 	0.00147865 	0.000608877 	-0.221085
0.00539348 	0.00150412 	0.000585268 	-0.218447
0.00539348 	0.00639615 	0.0042685 	-0.242125
0.0054736 	0.00152882 	0.000561057 	-0.215722
0.0054736 	0.00632504 	0.00412524 	-0.239712
0.00555231 	0.00155244 	0.000536169 	-0.212905
0.00555231 	0.00625051 	0.00398057 	-0.237225
0.00562963 	0.0015746 	0.000510404 	-0.20999
0.00562963 	0.00617176 	0.00383299 	-0.234675
0.00570559 	0.00159504 	0.000484018 	-0.206969
0.00570559 	0.00608794 	0.00368351 	-0.232064
0.00578022 	0.00161345 	0.000457384 	-0.203829
0.00578022 	0.0059979 	0.0035335 	-0.229393
0.00585352 	0.00162946 	0.000430741 	-0.200556
0.00585352 	0.00589985 	0.00338221 	-0.226664
0.00592554 	0.00164262 	0.000404134 	-0.197134
0.00592554 	0.00579169 	0.00322901 	-0.223878
0.00599629 	0.00165243 	0.00037732 	-0.193544
0.00599629 	0.00567173 	0.00307375 	-0.221018
0.00606579 	0.00553922 	0.002917 	-0.218055
0.00606579 	0.00165828 	0.000350552 	-0.189763
0.00613406 	0.00165962 	0.000324341 	-0.185763
0.00613406 	0.00539409 	0.00276034 	-0.214954
0.00620114 	0.00165583 	0.000298894 	-0.181516
0.00620114 	0.00523621 	0.00260393 	-0.211678
0.00626703 	0.00164608 	0.000274173 	-0.176995
0.00626703 	0.00506514 	0.00244742 	-0.208182
0.00633176 	0.00162941 	0.000250071 	-0.172172
0.00633176 	0.00488053 	0.0022914 	-0.204411
0.00639535 	0.0016048 	0.000226781 	-0.167014
0.00639535 	0.00468245 	0.00213648 	-0.200302
0.00645783 	0.00157164 	0.000204511 	-0.161492
0.00645783 	0.00447186 	0.0019831 	-0.195775
0.0065192 	0.00153002 	0.000183357 	-0.155583
0.0065192 	0.00425045 	0.00183174 	-0.190742
0.00657949 	0.00148036 	0.000163514 	-0.149262
0.00657949 	0.00402012 	0.00168305 	-0.185112
0.00663871 	0.00142279 	0.00014507 	-0.142508
0.00663871 	0.00378265 	0.00153749 	-0.178803
0.0066969 	0.00135717 	0.000128001 	-0.135299
0.0066969 	0.00353905 	0.00139581 	-0.17175
0.00675406 	0.00128364 	0.000112417 	-0.127619
0.00675406 	0.00328774 	0.00125872 	-0.163921
0.00681021 	0.00120246 	9.83234e-05 	-0.11946
0.00681021 	0.00302454 	0.00112607 	-0.155314
0.00686537 	0.00111393 	8.55355e-05 	-0.110829
0.00686537 	0.00274692 	0.00099719 	-0.145889
0.00691956 	0.00101868 	7.38947e-05 	-0.101748
0.00691956 	0.00245869 	0.000872226 	-0.13552
0.0069728 	0.000918095 	6.33568e-05 	-0.0922836
0.0069728 	0.00217151 	0.000753337 	-0.124103
0.0070251 	0.000814502 	5.38848e-05 	-0.0825479
0.0070251 	0.00190056 	0.000642138 	-0.111657
0.00707647 	0.000710549 	4.52208e-05 	-0.0726967
0.00707647 	0.00165829 	0.000538703 	-0.0983547
0.00712695 	0.000608539 	3.70983e-05 	-0.0629052
0.00712695 	0.00145112 	0.00044336 	-0.0845234
0.00717653 	0.000509993 	2.94204e-05 	-0.0533401
0.00717653 	0.00127743 	0.000356701 	-0.0705953
0.00722524 	0.000415178 	2.21033e-05 	-0.0441382
0.00722524 	0.0011261 	0.000278136 	-0.0570372
0.00727309 	0.000322853 	1.52267e-05 	-0.0354027
0.00727309 	0.000976471 	0.00020832 	-0.0442985
0.0073201 	0.000230093 	9.07134e-06 	-0.0272193
0.0073201 	0.00079764 	0.000150827 	-0.032829
0.00736628 	0.000131838 	3.51042e-06 	-0.0197092
0.00736628 	0.000544392 	8.62583e-05 	-0.0231941
0.00741165 	4.02544e-05 	4.53547e-07 	-0.0129003
0.00741165 	0.000234379 	5.0005e-05 	-0.0154737
0.00745622 	-8.18589e-06 	-5.2962e-07 	-0.00647707
0.00745622 	1.25651e-05 	2.1781e-05 	-0.00832303
0.0075 	0 	0 	0
0.0075 	0 	0 	0
