-0.0075 	0 	0 	0
-0.0075 	-5.92907e-36 	-2.428e-36 	1.85335e-31
-0.00745622 	-4.87036e-07 	-1.99445e-07 	0.0152241
-0.00745622 	-4.87036e-07 	-1.99445e-07 	0.0152241
-0.00741165 	-1.24288e-06 	-6.85584e-07 	0.0296405
-0.00741165 	-1.24288e-06 	-6.85584e-07 	0.0296405
-0.00736628 	-2.03599e-06 	-1.52949e-06 	0.0433522
-0.00736628 	-2.03599e-06 	-1.52949e-06 	0.0433522
-0.0073201 	-2.74237e-06 	-2.73968e-06 	0.0563843
-0.0073201 	-2.74237e-06 	-2.73968e-06 	0.0563843
-0.00727309 	-3.37233e-06 	-4.3452e-06 	0.0687601
-0.00727309 	-3.37233e-06 	-4.3452e-06 	0.0687601
-0.00722524 	-3.94857e-06 	-6.35181e-06 	0.080501
-0.00722524 	-3.94857e-06 	-6.35181e-06 	0.080501
-0.00717653 	-4.47644e-06 	-8.77402e-06 	0.0916175
-0.00717653 	-4.47644e-06 	-8.77402e-06 	0.0916175
-0.00712695 	-4.95776e-06 	-1.16317e-05 	0.102099
-0.00712695 	-4.95776e-06 	-1.16317e-05 	0.102099
-0.00707647 	-5.39327e-06 	-1.49601e-05 	0.111916
-0.00707647 	-5.39327e-06 	-1.49601e-05 	0.111916
-0.0070251 	-5.78292e-06 	-1.88162e-05 	0.121045
-0.0070251 	-5.78292e-06 	-1.88162e-05 	0.121045
-0.0069728 	-6.12624e-06 	-2.32727e-05 	0.129476
-0.0069728 	-6.12624e-06 	-2.32727e-05 	0.129476
-0.00691956 	-6.42301e-06 	-2.84038e-05 	0.137229
-0.00691956 	-6.42301e-06 	-2.84038e-05 	0.137229
-0.00686537 	-6.67361e-06 	-3.42747e-05 	0.144343
-0.00686537 	-6.67361e-06 	-3.42747e-05 	0.144343
-0.00681021 	-6.87965e-06 	-4.09505e-05 	0.150872
-0.00681021 	-6.87965e-06 	-4.09505e-05 	0.150872
-0.00675406 	-7.04359e-06 	-4.85011e-05 	0.156877
-0.00675406 	-7.04359e-06 	-4.85011e-05 	0.156877
-0.0066969 	-7.16797e-06 	-5.69906e-05 	0.162414
-0.0066969 	-7.16797e-06 	-5.69906e-05 	0.162414
-0.00663871 	-7.25533e-06 	-6.6464e-05 	0.167527
-0.00663871 	-7.25533e-06 	-6.6464e-05 	0.167527
-0.00657949 	-7.30821e-06 	-7.69267e-05 	0.172259
-0.00657949 	-7.30821e-06 	-7.69267e-05 	0.172259
-0.0065192 	-7.32925e-06 	-8.83448e-05 	0.176651
-0.0065192 	-7.32925e-06 	-8.83448e-05 	0.176651
-0.00645783 	-7.32122e-06 	-0.000100669 	0.180745
-0.00645783 	-7.32122e-06 	-0.000100669 	0.180745
-0.00639535 	-7.28684e-06 	-0.000113846 	0.184581
-0.00639535 	-7.28684e-06 	-0.000113846 	0.184581
-0.00633176 	-7.22864e-06 	-0.000127823 	0.18819
-0.00633176 	-7.22864e-06 	-0.000127823 	0.18819
-0.00626703 	-7.14886e-06 	-0.000142545 	0.191599
-0.00626703 	-7.14886e-06 	-0.000142545 	0.191599
-0.00620114 	-7.0495e-06 	-0.000157955 	0.194832
-0.00620114 	-7.0495e-06 	-0.000157955 	0.194832
-0.00613406 	-6.93229e-06 	-0.000173994 	0.197908
-0.00613406 	-6.93229e-06 	-0.000173994 	0.197908
-0.00606579 	-6.79862e-06 	-0.0001906 	0.200847
-0.00606579 	-6.79862e-06 	-0.0001906 	0.200847
-0.00599629 	-6.64953e-06 	-0.000207709 	0.203664
-0.00599629 	-6.64953e-06 	-0.000207709 	0.203664
-0.00592554 	-6.48579e-06 	-0.000225251 	0.206376
-0.00592554 	-6.48579e-06 	-0.000225251 	0.206376
-0.00585352 	-6.30822e-06 	-0.000243151 	0.208995
-0.00585352 	-6.30822e-06 	-0.000243151 	0.208995
-0.00578022 	-6.11774e-06 	-0.000261322 	0.211536
-0.00578022 	-6.11774e-06 	-0.000261322 	0.211536
-0.00570559 	-5.91525e-06 	-0.000279664 	0.214008
-0.00570559 	-5.91525e-06 	-0.000279664 	0.214008
-0.00562963 	-5.70142e-06 	-0.000298077 	0.216419
-0.00562963 	-5.70142e-06 	-0.000298077 	0.216419
-0.00555231 	-5.47678e-06 	-0.000316461 	0.218775
-0.00555231 	-5.47678e-06 	-0.000316461 	0.218775
-0.0054736 	-5.24177e-06 	-0.000334712 	0.221083
-0.0054736 	-5.24177e-06 	-0.000334712 	0.221083
-0.00539348 	-4.99674e-06 	-0.000352727 	0.223347
-0.00539348 	-4.99674e-06 	-0.000352727 	0.223347
-0.00531193 	-4.74201e-06 	-0.000370402 	0.225572
-0.00531193 	-4.74201e-06 	-0.000370402 	0.225572
-0.00522891 	-4.47783e-06 	-0.000387632 	0.227758
-0.00522891 	-4.47783e-06 	-0.000387632 	0.227758
-0.0051444 	-4.20441e-06 	-0.000404319 	0.22991
-0.0051444 	-4.20441e-06 	-0.000404319 	0.22991
-0.00505838 	-3.92192e-06 	-0.000420363 	0.232028
-0.00505838 	-3.92192e-06 	-0.000420363 	0.232028
-0.00497081 	-3.6305e-06 	-0.000435674 	0.234113
-0.00497081 	-3.6305e-06 	-0.000435674 	0.234113
-0.00488168 	-3.33021e-06 	-0.000450163 	0.236164
-0.00488168 	-3.33021e-06 	-0.000450163 	0.236164
-0.00479094 	-3.02103e-06 	-0.000463749 	0.238181
-0.00479094 	-3.02103e-06 	-0.000463749 	0.238181
-0.00469858 	-2.70283e-06 	-0.000476353 	0.240163
-0.00469858 	-2.70283e-06 	-0.000476353 	0.240163
-0.00460456 	-2.37527e-06 	-0.000487902 	0.242109
-0.00460456 	-2.37527e-06 	-0.000487902 	0.242109
-0.00450886 	-2.0379e-06 	-0.000498345 	0.244015
-0.00450886 	-2.0379e-06 	-0.000498345 	0.244015
-0.00441144 	-1.69017e-06 	-0.000507663 	0.245882
-0.00441144 	-1.69017e-06 	-0.000507663 	0.245882
-0.00431227 	-1.3316e-06 	-0.000515867 	0.247707
-0.00431227 	-1.3316e-06 	-0.000515867 	0.247707
-0.00421133 	-9.61755e-07 	-0.000523 	0.249488
-0.00421133 	-9.61755e-07 	-0.000523 	0.249488
-0.00410857 	-5.80006e-07 	-0.000529124 	0.251224
-0.00410857 	-5.80006e-07 	-0.000529124 	0.251224
-0.00400397 	-1.85044e-07 	-0.000534321 	0.25291
-0.00400397 	-1.85044e-07 	-0.000534321 	0.25291
-0.0038975 	2.24894e-07 	-0.000538681 	0.254548
-0.0038975 	2.24894e-07 	-0.000538681 	0.254548
-0.00378912 	6.50825e-07 	-0.000542291 	0.25614
-0.00378912 	6.50825e-07 	-0.000542291 	0.25614
-0.00367879 	1.09235e-06 	-0.000545223 	0.257687
-0.00367879 	1.09235e-06 	-0.000545223 	0.257687
-0.00356649 	1.54822e-06 	-0.000547535 	0.25919
-0.00356649 	1.54822e-06 	-0.000547535 	0.25919
-0.00345217 	2.01722e-06 	-0.000549284 	0.260647
-0.00345217 	2.01722e-06 	-0.000549284 	0.260647
-0.0033358 	2.49836e-06 	-0.000550529 	0.262056
-0.0033358 	2.49836e-06 	-0.000550529 	0.262056
-0.00321735 	2.99061e-06 	-0.000551335 	0.263414
-0.00321735 	2.99061e-06 	-0.000551335 	0.263414
-0.00309677 	3.49266e-06 	-0.000551772 	0.264718
-0.00309677 	3.49266e-06 	-0.000551772 	0.264718
-0.00297403 	4.00293e-06 	-0.000551913 	0.265967
-0.00297403 	4.00293e-06 	-0.000551913 	0.265967
-0.00284909 	4.51952e-06 	-0.000551834 	0.267157
-0.00284909 	4.51952e-06 	-0.000551834 	0.267157
-0.0027219 	5.04022e-06 	-0.00055161 	0.268286
-0.0027219 	5.04022e-06 	-0.00055161 	0.268286
-0.00259244 	5.56267e-06 	-0.00055132 	0.269351
-0.00259244 	5.56267e-06 	-0.00055132 	0.269351
-0.00246065 	6.08438e-06 	-0.000551033 	0.270351
-0.00246065 	6.08438e-06 	-0.000551033 	0.270351
-0.00232651 	6.60261e-06 	-0.000550812 	0.271282
-0.00232651 	6.60261e-06 	-0.000550812 	0.271282
-0.00218995 	7.11431e-06 	-0.000550709 	0.272142
-0.00218995 	7.11431e-06 	-0.000550709 	0.272142
-0.00205095 	7.61619e-06 	-0.000550763 	0.27293
-0.00205095 	7.61619e-06 	-0.000550763 	0.27293
-0.00190946 	8.10485e-06 	-0.000551 	0.273645
-0.00190946 	8.10485e-06 	-0.000551 	0.273645
-0.00176543 	8.57642e-06 	-0.000551428 	0.274284
-0.00176543 	8.57642e-06 	-0.000551428 	0.274284
-0.00161881 	9.02623e-06 	-0.00055204 	0.274848
-0.00161881 	9.02623e-06 	-0.00055204 	0.274848
-0.00146957 	9.44874e-06 	-0.000552808 	0.275336
-0.00146957 	9.44874e-06 	-0.000552808 	0.275336
-0.00131765 	9.83789e-06 	-0.000553688 	0.275749
-0.00131765 	9.83789e-06 	-0.000553688 	0.275749
-0.001163 	1.01873e-05 	-0.000554626 	0.276086
-0.001163 	1.01873e-05 	-0.000554626 	0.276086
-0.00100559 	1.04901e-05 	-0.000555566 	0.276348
-0.00100559 	1.04901e-05 	-0.000555566 	0.276348
-0.000845345 	1.07383e-05 	-0.000556417 	0.276533
-0.000845345 	1.07383e-05 	-0.000556417 	0.276533
-0.000682232 	1.0923e-05 	-0.000557144 	0.276641
-0.000682232 	1.0923e-05 	-0.000557144 	0.276641
-0.000516194 	1.10341e-05 	-0.000557722 	0.276669
-0.000516194 	1.10341e-05 	-0.000557722 	0.276669
-0.000347178 	1.1061e-05 	-0.000558052 	0.276617
-0.000347178 	1.1061e-05 	-0.000558052 	0.276617
-0.000175132 	1.09907e-05 	-0.000558172 	0.276482
-0.000175132 	1.09907e-05 	-0.000558172 	0.276482
0 	1.08109e-05 	-0.000557984 	0.276261
0 	1.08109e-05 	-0.000557984 	0.276261
0 	1.08109e-05 	-0.000557984 	0.276261
0 	1.08109e-05 	-0.000557984 	0.276261
0.000175132 	1.0522e-05 	-0.000557359 	0.275956
0.000175132 	1.09672e-05 	-0.000461188 	0.272551
0.000347178 	1.01346e-05 	-0.000556377 	0.275575
0.000347178 	1.22596e-05 	-0.000461958 	0.272238
0.000516194 	9.66538e-06 	-0.000554968 	0.275122
0.000516194 	1.3375e-05 	-0.000462402 	0.271846
0.000682232 	9.13103e-06 	-0.000553162 	0.274601
0.000682232 	1.43299e-05 	-0.000462531 	0.27138
0.000845345 	8.54381e-06 	-0.000551048 	0.274015
0.000845345 	1.51389e-05 	-0.000462307 	0.270844
0.00100559 	7.91525e-06 	-0.000548606 	0.273367
0.00100559 	1.58178e-05 	-0.000461738 	0.270242
0.001163 	7.25588e-06 	-0.000545852 	0.27266
0.001163 	1.63812e-05 	-0.000460836 	0.269577
0.00131765 	6.57497e-06 	-0.000542806 	0.271897
0.00131765 	1.68425e-05 	-0.000459612 	0.268852
0.00146957 	5.88065e-06 	-0.000539481 	0.271078
0.00146957 	1.72139e-05 	-0.000458074 	0.26807
0.00161881 	5.17991e-06 	-0.000535892 	0.270207
0.00161881 	1.75059e-05 	-0.00045623 	0.267233
0.00176543 	4.47868e-06 	-0.000532049 	0.269285
0.00176543 	1.77276e-05 	-0.000454087 	0.266343
0.00190946 	3.78196e-06 	-0.000527961 	0.268313
0.00190946 	1.78871e-05 	-0.000451651 	0.265401
0.00205095 	3.09394e-06 	-0.000523636 	0.267293
0.00205095 	1.79915e-05 	-0.000448927 	0.264409
0.00218995 	2.41812e-06 	-0.000519079 	0.266226
0.00218995 	1.80467e-05 	-0.000445917 	0.263369
0.00232651 	1.75737e-06 	-0.000514292 	0.265112
0.00232651 	1.80582e-05 	-0.000442623 	0.26228
0.00246065 	1.11399e-06 	-0.000509275 	0.263953
0.00246065 	1.80304e-05 	-0.000439044 	0.261145
0.00259244 	4.89818e-07 	-0.000504028 	0.262749
0.00259244 	1.7967e-05 	-0.000435175 	0.259964
0.0027219 	-1.13685e-07 	-0.000498547 	0.2615
0.0027219 	1.78711e-05 	-0.000431013 	0.258738
0.00284909 	-6.9538e-07 	-0.000492827 	0.260207
0.00284909 	1.77454e-05 	-0.000426547 	0.257467
0.00297403 	-1.2544e-06 	-0.000486863 	0.25887
0.00297403 	1.75917e-05 	-0.000421769 	0.256151
0.00309677 	-1.79012e-06 	-0.000480646 	0.257489
0.00309677 	1.74119e-05 	-0.000416665 	0.25479
0.00321735 	-2.30208e-06 	-0.000474168 	0.256064
0.00321735 	1.72073e-05 	-0.000411223 	0.253385
0.0033358 	-2.79003e-06 	-0.00046742 	0.254594
0.0033358 	1.6979e-05 	-0.00040543 	0.251935
0.00345217 	1.6728e-05 	-0.000399277 	0.250439
0.00345217 	-3.25381e-06 	-0.000460396 	0.253078
0.00356649 	-3.69337e-06 	-0.000453088 	0.251516
0.00356649 	1.64554e-05 	-0.000392768 	0.248896
0.00367879 	-4.1087e-06 	-0.000445485 	0.249907
0.00367879 	1.61632e-05 	-0.000385898 	0.247306
0.00378912 	-4.49975e-06 	-0.000437568 	0.24825
0.00378912 	1.58537e-05 	-0.000378653 	0.245669
0.0038975 	-4.86649e-06 	-0.000429314 	0.246543
0.0038975 	1.55285e-05 	-0.000371012 	0.243985
0.00400397 	-5.20891e-06 	-0.000420677 	0.244783
0.00400397 	1.51879e-05 	-0.000362908 	0.242248
0.00410857 	1.48331e-05 	-0.000354233 	0.240445
0.00410857 	-5.52692e-06 	-0.00041159 	0.242963
0.00421133 	-5.8205e-06 	-0.000401977 	0.241078
0.00421133 	1.44645e-05 	-0.000344889 	0.238564
0.00431227 	-6.09031e-06 	-0.000391758 	0.23912
0.00431227 	1.40807e-05 	-0.000334806 	0.236598
0.00441144 	-6.33751e-06 	-0.000380867 	0.237084
0.00441144 	1.36796e-05 	-0.000323946 	0.234545
0.00450886 	-6.56317e-06 	-0.000369275 	0.234962
0.00450886 	1.32588e-05 	-0.000312316 	0.2324
0.00460456 	-6.76799e-06 	-0.000356983 	0.232749
0.00460456 	1.28166e-05 	-0.000299953 	0.230159
0.00469858 	-6.95236e-06 	-0.000344006 	0.230442
0.00469858 	1.23511e-05 	-0.000286903 	0.227819
0.00479094 	-7.1165e-06 	-0.000330368 	0.228034
0.00479094 	1.18609e-05 	-0.000273221 	0.225375
0.00488168 	-7.26062e-06 	-0.000316098 	0.225522
0.00488168 	1.13444e-05 	-0.000258963 	0.222823
0.00497081 	-7.38496e-06 	-0.000301235 	0.222901
0.00497081 	1.08003e-05 	-0.000244193 	0.220159
0.00505838 	-7.48974e-06 	-0.000285831 	0.220167
0.00505838 	1.02272e-05 	-0.000228986 	0.217379
0.0051444 	-7.57521e-06 	-0.000269951 	0.217316
0.0051444 	9.62415e-06 	-0.000213431 	0.21448
0.00522891 	-7.64158e-06 	-0.000253678 	0.214345
0.00522891 	8.99036e-06 	-0.000197632 	0.211459
0.00531193 	-7.68905e-06 	-0.00023711 	0.21125
0.00531193 	8.32544e-06 	-0.000181707 	0.208313
0.00539348 	-7.71777e-06 	-0.00022036 	0.208028
0.00539348 	7.6294e-06 	-0.000165791 	0.205041
0.0054736 	-7.72786e-06 	-0.000203553 	0.204676
0.0054736 	6.90267e-06 	-0.000150026 	0.20164
0.00555231 	-7.71943e-06 	-0.00018682 	0.20119
0.00555231 	6.14599e-06 	-0.000134555 	0.198109
0.00562963 	-7.69254e-06 	-0.000170296 	0.197568
0.00562963 	5.36045e-06 	-0.000119522 	0.194446
0.00570559 	-7.64723e-06 	-0.000154113 	0.193803
0.00570559 	4.54746e-06 	-0.000105058 	0.190646
0.00578022 	-7.58354e-06 	-0.000138395 	0.189892
0.00578022 	3.70873e-06 	-9.12843e-05 	0.186707
0.00585352 	-7.50148e-06 	-0.000123257 	0.185828
0.00585352 	2.84634e-06 	-7.83022e-05 	0.182624
0.00592554 	-7.40106e-06 	-0.000108803 	0.181606
0.00592554 	1.96275e-06 	-6.61951e-05 	0.178391
0.00599629 	-7.28227e-06 	-9.51206e-05 	0.177217
0.00599629 	1.06087e-06 	-5.50258e-05 	0.174002
0.00606579 	-7.14504e-06 	-8.22819e-05 	0.172653
0.00606579 	1.44121e-07 	-4.48368e-05 	0.169447
0.00613406 	-6.98918e-06 	-7.03491e-05 	0.167902
0.00613406 	-7.83592e-07 	-3.56522e-05 	0.164715
0.00620114 	-1.718e-06 	-2.74787e-05 	0.159789
0.00620114 	-6.81452e-06 	-5.93696e-05 	0.162948
0.00626703 	-6.62109e-06 	-4.93797e-05 	0.157773
0.00626703 	-2.65409e-06 	-2.03131e-05 	0.154653
0.00633176 	-3.58539e-06 	-1.41421e-05 	0.14929
0.00633176 	-6.40922e-06 	-4.04076e-05 	0.152361
0.00639535 	-4.50388e-06 	-8.93624e-06 	0.143686
0.00639535 	-6.17944e-06 	-3.24644e-05 	0.146698
0.00645783 	-5.93226e-06 	-2.55405e-05 	0.140766
0.00645783 	-5.40004e-06 	-4.64913e-06 	0.137825
0.0065192 	-5.66837e-06 	-1.96105e-05 	0.13455
0.0065192 	-6.26265e-06 	-1.22207e-06 	0.131689
0.00657949 	-5.38866e-06 	-1.46363e-05 	0.128031
0.00657949 	-7.07858e-06 	1.41259e-06 	0.12526
0.00663871 	-5.09407e-06 	-1.05661e-05 	0.121194
0.00663871 	-7.83245e-06 	3.32959e-06 	0.118522
0.0066969 	-4.78536e-06 	-7.32197e-06 	0.11402
0.0066969 	-8.50716e-06 	4.61364e-06 	0.111453
0.00675406 	-9.0847e-06 	5.35421e-06 	0.104019
0.00675406 	-4.46314e-06 	-4.8115e-06 	0.106477
0.00681021 	-9.54486e-06 	5.64053e-06 	0.096194
0.00681021 	-4.12898e-06 	-2.93513e-06 	0.0985321
0.00686537 	-9.86388e-06 	5.56112e-06 	0.0879941
0.00686537 	-3.7871e-06 	-1.59822e-06 	0.0901954
0.00691956 	-1.00171e-05 	5.20432e-06 	0.0794868
0.00691956 	-3.44359e-06 	-7.16557e-07 	0.0815314
0.0069728 	-9.98347e-06 	4.65818e-06 	0.0707899
0.0069728 	-3.10477e-06 	-1.96692e-07 	0.0726576
0.0070251 	-2.77644e-06 	5.8023e-08 	0.0637419
0.0070251 	-9.75036e-06 	4.00532e-06 	0.0620678
0.00707647 	-2.46293e-06 	1.40026e-07 	0.0549833
0.00707647 	-9.31778e-06 	3.31791e-06 	0.0535127
0.00712695 	-2.16608e-06 	1.28465e-07 	0.0465776
0.00712695 	-8.69908e-06 	2.65254e-06 	0.0453112
0.00717653 	-1.88491e-06 	8.17268e-08 	0.0386792
0.00717653 	-7.91754e-06 	2.04718e-06 	0.0376097
0.00722524 	-1.61585e-06 	3.56359e-08 	0.0313795
0.00722524 	-7.00008e-06 	1.52245e-06 	0.0304946
0.00727309 	-5.97141e-06 	1.08482e-06 	0.0239959
0.00727309 	-1.35266e-06 	6.44202e-09 	0.0247102
0.0073201 	-4.85003e-06 	7.30234e-07 	0.0181056
0.0073201 	-1.08425e-06 	-4.29634e-09 	0.0186624
0.00736628 	-3.64441e-06 	4.58173e-07 	0.012796
0.00736628 	-7.87648e-07 	2.18375e-09 	0.0132071
0.00741165 	-4.59383e-07 	6.26155e-09 	0.00830755
0.00741165 	-2.38594e-06 	2.42224e-07 	0.0080317
0.00745622 	-1.68442e-07 	7.88911e-09 	0.00392449
0.00745622 	-1.15405e-06 	9.35183e-08 	0.00377461
0.0075 	0 	0 	0
0.0075 	0 	0 	0
