-0.0075 	0 	0 	0
-0.0075 	2.77978e-35 	-3.2447e-36 	1.86166e-31
-0.00745622 	2.28341e-06 	-2.66532e-07 	0.0152924
-0.00745622 	2.28341e-06 	-2.66532e-07 	0.0152924
-0.00741165 	3.64728e-06 	-8.22923e-07 	0.0297441
-0.00741165 	3.64728e-06 	-8.22923e-07 	0.0297441
-0.00736628 	4.73946e-06 	-1.75494e-06 	0.0434669
-0.00736628 	4.73946e-06 	-1.75494e-06 	0.0434669
-0.0073201 	5.92608e-06 	-3.06333e-06 	0.0564888
-0.0073201 	5.92608e-06 	-3.06333e-06 	0.0564888
-0.00727309 	7.19038e-06 	-4.78642e-06 	0.0688359
-0.00727309 	7.19038e-06 	-4.78642e-06 	0.0688359
-0.00722524 	8.45541e-06 	-6.93424e-06 	0.0805346
-0.00722524 	8.45541e-06 	-6.93424e-06 	0.0805346
-0.00717653 	9.68888e-06 	-9.5214e-06 	0.0916021
-0.00717653 	9.68888e-06 	-9.5214e-06 	0.0916021
-0.00712695 	1.08708e-05 	-1.25653e-05 	0.102034
-0.00712695 	1.08708e-05 	-1.25653e-05 	0.102034
-0.00707647 	1.19861e-05 	-1.60963e-05 	0.111809
-0.00707647 	1.19861e-05 	-1.60963e-05 	0.111809
-0.0070251 	1.3025e-05 	-2.01653e-05 	0.120901
-0.0070251 	1.3025e-05 	-2.01653e-05 	0.120901
-0.0069728 	1.39848e-05 	-2.48405e-05 	0.129306
-0.0069728 	1.39848e-05 	-2.48405e-05 	0.129306
-0.00691956 	1.48681e-05 	-3.01941e-05 	0.137041
-0.00691956 	1.48681e-05 	-3.01941e-05 	0.137041
-0.00686537 	1.56814e-05 	-3.62906e-05 	0.144142
-0.00686537 	1.56814e-05 	-3.62906e-05 	0.144142
-0.00681021 	1.64327e-05 	-4.31915e-05 	0.150662
-0.00681021 	1.64327e-05 	-4.31915e-05 	0.150662
-0.00675406 	1.71302e-05 	-5.09648e-05 	0.156659
-0.00675406 	1.71302e-05 	-5.09648e-05 	0.156659
-0.0066969 	1.77806e-05 	-5.96764e-05 	0.162188
-0.0066969 	1.77806e-05 	-5.96764e-05 	0.162188
-0.00663871 	1.83894e-05 	-6.93751e-05 	0.167295
-0.00663871 	1.83894e-05 	-6.93751e-05 	0.167295
-0.00657949 	1.89615e-05 	-8.00722e-05 	0.172021
-0.00657949 	1.89615e-05 	-8.00722e-05 	0.172021
-0.0065192 	1.95019e-05 	-9.17382e-05 	0.176409
-0.0065192 	1.95019e-05 	-9.17382e-05 	0.176409
-0.00645783 	2.00155e-05 	-0.000104325 	0.180501
-0.00645783 	2.00155e-05 	-0.000104325 	0.180501
-0.00639535 	2.05066e-05 	-0.000117782 	0.184334
-0.00639535 	2.05066e-05 	-0.000117782 	0.184334
-0.00633176 	2.0978e-05 	-0.000132057 	0.18794
-0.00633176 	2.0978e-05 	-0.000132057 	0.18794
-0.00626703 	2.14323e-05 	-0.000147096 	0.191346
-0.00626703 	2.14323e-05 	-0.000147096 	0.191346
-0.00620114 	2.18715e-05 	-0.000162842 	0.194575
-0.00620114 	2.18715e-05 	-0.000162842 	0.194575
-0.00613406 	2.22975e-05 	-0.000179236 	0.197648
-0.00613406 	2.22975e-05 	-0.000179236 	0.197648
-0.00606579 	2.27124e-05 	-0.000196217 	0.200582
-0.00606579 	2.27124e-05 	-0.000196217 	0.200582
-0.00599629 	2.31183e-05 	-0.000213718 	0.203394
-0.00599629 	2.31183e-05 	-0.000213718 	0.203394
-0.00592554 	2.35174e-05 	-0.00023167 	0.2061
-0.00592554 	2.35174e-05 	-0.00023167 	0.2061
-0.00585352 	2.39113e-05 	-0.00025 	0.208714
-0.00585352 	2.39113e-05 	-0.00025 	0.208714
-0.00578022 	2.43008e-05 	-0.000268617 	0.21125
-0.00578022 	2.43008e-05 	-0.000268617 	0.21125
-0.00570559 	2.46867e-05 	-0.000287422 	0.213716
-0.00570559 	2.46867e-05 	-0.000287422 	0.213716
-0.00562963 	2.50696e-05 	-0.000306315 	0.216121
-0.00562963 	2.50696e-05 	-0.000306315 	0.216121
-0.00555231 	2.54506e-05 	-0.000325193 	0.218473
-0.00555231 	2.54506e-05 	-0.000325193 	0.218473
-0.0054736 	2.58307e-05 	-0.000343952 	0.220776
-0.0054736 	2.58307e-05 	-0.000343952 	0.220776
-0.00539348 	2.62108e-05 	-0.000362486 	0.223036
-0.00539348 	2.62108e-05 	-0.000362486 	0.223036
-0.00531193 	2.65919e-05 	-0.000380688 	0.225256
-0.00531193 	2.65919e-05 	-0.000380688 	0.225256
-0.00522891 	2.69748e-05 	-0.000398452 	0.22744
-0.00522891 	2.69748e-05 	-0.000398452 	0.22744
-0.0051444 	2.73604e-05 	-0.000415673 	0.22959
-0.0051444 	2.73604e-05 	-0.000415673 	0.22959
-0.00505838 	2.77494e-05 	-0.000432249 	0.231707
-0.00505838 	2.77494e-05 	-0.000432249 	0.231707
-0.00497081 	2.81426e-05 	-0.000448082 	0.233792
-0.00497081 	2.81426e-05 	-0.000448082 	0.233792
-0.00488168 	2.85407e-05 	-0.000463079 	0.235845
-0.00488168 	2.85407e-05 	-0.000463079 	0.235845
-0.00479094 	2.89444e-05 	-0.00047715 	0.237865
-0.00479094 	2.89444e-05 	-0.00047715 	0.237865
-0.00469858 	2.93546e-05 	-0.000490207 	0.239852
-0.00469858 	2.93546e-05 	-0.000490207 	0.239852
-0.00460456 	2.97722e-05 	-0.000502171 	0.241803
-0.00460456 	2.97722e-05 	-0.000502171 	0.241803
-0.00450886 	3.01984e-05 	-0.000512986 	0.243717
-0.00450886 	3.01984e-05 	-0.000512986 	0.243717
-0.00441144 	3.06343e-05 	-0.000522629 	0.245593
-0.00441144 	3.06343e-05 	-0.000522629 	0.245593
-0.00431227 	3.10805e-05 	-0.000531109 	0.247427
-0.00431227 	3.10805e-05 	-0.000531109 	0.247427
-0.00421133 	3.15375e-05 	-0.000538466 	0.249219
-0.00421133 	3.15375e-05 	-0.000538466 	0.249219
-0.00410857 	3.20061e-05 	-0.000544759 	0.250966
-0.00410857 	3.20061e-05 	-0.000544759 	0.250966
-0.00400397 	3.24885e-05 	-0.000550066 	0.252665
-0.00400397 	3.24885e-05 	-0.000550066 	0.252665
-0.0038975 	3.29885e-05 	-0.000554479 	0.254315
-0.0038975 	3.29885e-05 	-0.000554479 	0.254315
-0.00378912 	3.35088e-05 	-0.000558085 	0.25592
-0.00378912 	3.35088e-05 	-0.000558085 	0.25592
-0.00367879 	3.40492e-05 	-0.000560955 	0.257481
-0.00367879 	3.40492e-05 	-0.000560955 	0.257481
-0.00356649 	3.46072e-05 	-0.000563149 	0.258999
-0.00356649 	3.46072e-05 	-0.000563149 	0.258999
-0.00345217 	3.51808e-05 	-0.000564726 	0.26047
-0.00345217 	3.51808e-05 	-0.000564726 	0.26047
-0.0033358 	3.57686e-05 	-0.00056575 	0.261894
-0.0033358 	3.57686e-05 	-0.00056575 	0.261894
-0.00321735 	3.63694e-05 	-0.000566287 	0.263266
-0.00321735 	3.63694e-05 	-0.000566287 	0.263266
-0.00309677 	3.69815e-05 	-0.000566414 	0.264584
-0.00309677 	3.69815e-05 	-0.000566414 	0.264584
-0.00297403 	3.7603e-05 	-0.000566208 	0.265847
-0.00297403 	3.7603e-05 	-0.000566208 	0.265847
-0.00284909 	3.82312e-05 	-0.000565752 	0.26705
-0.00284909 	3.82312e-05 	-0.000565752 	0.26705
-0.0027219 	3.88632e-05 	-0.000565128 	0.268192
-0.0027219 	3.88632e-05 	-0.000565128 	0.268192
-0.00259244 	3.94956e-05 	-0.000564418 	0.269269
-0.00259244 	3.94956e-05 	-0.000564418 	0.269269
-0.00246065 	4.0125e-05 	-0.000563698 	0.27028
-0.00246065 	4.0125e-05 	-0.000563698 	0.27028
-0.00232651 	4.07477e-05 	-0.000563036 	0.271221
-0.00232651 	4.07477e-05 	-0.000563036 	0.271221
-0.00218995 	4.13593e-05 	-0.000562487 	0.272091
-0.00218995 	4.13593e-05 	-0.000562487 	0.272091
-0.00205095 	4.19557e-05 	-0.000562095 	0.272888
-0.00205095 	4.19557e-05 	-0.000562095 	0.272888
-0.00190946 	4.25327e-05 	-0.000561887 	0.273609
-0.00190946 	4.25327e-05 	-0.000561887 	0.273609
-0.00176543 	4.3086e-05 	-0.000561874 	0.274255
-0.00176543 	4.3086e-05 	-0.000561874 	0.274255
-0.00161881 	4.36107e-05 	-0.00056205 	0.274825
-0.00161881 	4.36107e-05 	-0.00056205 	0.274825
-0.00146957 	4.41005e-05 	-0.000562387 	0.275318
-0.00146957 	4.41005e-05 	-0.000562387 	0.275318
-0.00131765 	4.45482e-05 	-0.000562841 	0.275734
-0.00131765 	4.45482e-05 	-0.000562841 	0.275734
-0.001163 	4.49458e-05 	-0.000563356 	0.276075
-0.001163 	4.49458e-05 	-0.000563356 	0.276075
-0.00100559 	4.52849e-05 	-0.000563873 	0.27634
-0.00100559 	4.52849e-05 	-0.000563873 	0.27634
-0.000845345 	4.55562e-05 	-0.000564252 	0.276527
-0.000845345 	4.55562e-05 	-0.000564252 	0.276527
-0.000682232 	4.57496e-05 	-0.000564492 	0.276638
-0.000682232 	4.57496e-05 	-0.000564492 	0.276638
-0.000516194 	4.58537e-05 	-0.000564629 	0.276669
-0.000516194 	4.58537e-05 	-0.000564629 	0.276669
-0.000347178 	4.58567e-05 	-0.000564491 	0.27662
-0.000347178 	4.58567e-05 	-0.000564491 	0.27662
-0.000175132 	4.57396e-05 	-0.000564263 	0.276487
-0.000175132 	4.57396e-05 	-0.000564263 	0.276487
0 	4.5482e-05 	-0.000563766 	0.276269
0 	4.5482e-05 	-0.000563766 	0.276269
0 	4.5482e-05 	-0.000563766 	0.276269
0 	4.5482e-05 	-0.000563766 	0.276269
0.000175132 	4.50844e-05 	-0.000562721 	0.275968
0.000175132 	5.07575e-05 	-0.000479977 	0.271984
0.000347178 	4.45597e-05 	-0.000561364 	0.27559
0.000347178 	5.19519e-05 	-0.000480173 	0.271685
0.000516194 	4.39314e-05 	-0.0005595 	0.275141
0.000516194 	5.29539e-05 	-0.000480009 	0.271307
0.000682232 	4.32227e-05 	-0.000557193 	0.274623
0.000682232 	5.37824e-05 	-0.000479538 	0.270854
0.000845345 	4.24461e-05 	-0.000554659 	0.274041
0.000845345 	5.44512e-05 	-0.000478754 	0.270331
0.00100559 	4.16142e-05 	-0.000551815 	0.273397
0.00100559 	5.4977e-05 	-0.000477642 	0.269741
0.001163 	4.07387e-05 	-0.000548683 	0.272693
0.001163 	5.53755e-05 	-0.00047622 	0.269087
0.00131765 	3.98306e-05 	-0.00054528 	0.271933
0.00131765 	5.56606e-05 	-0.000474501 	0.268372
0.00146957 	3.88993e-05 	-0.000541621 	0.271117
0.00146957 	5.5845e-05 	-0.000472491 	0.267599
0.00161881 	3.79534e-05 	-0.00053772 	0.270248
0.00161881 	5.59394e-05 	-0.000470197 	0.26677
0.00176543 	3.69998e-05 	-0.000533587 	0.269328
0.00176543 	5.59533e-05 	-0.000467628 	0.265887
0.00190946 	3.60448e-05 	-0.000529233 	0.268358
0.00190946 	5.58947e-05 	-0.000464791 	0.264952
0.00205095 	3.50933e-05 	-0.000524665 	0.267339
0.00205095 	5.57705e-05 	-0.00046169 	0.263966
0.00218995 	3.41495e-05 	-0.000519886 	0.266272
0.00218995 	5.55869e-05 	-0.000458326 	0.26293
0.00232651 	3.32168e-05 	-0.0005149 	0.265159
0.00232651 	5.53489e-05 	-0.000454701 	0.261846
0.00246065 	3.22979e-05 	-0.000509707 	0.263999
0.00246065 	5.50612e-05 	-0.000450813 	0.260714
0.00259244 	3.1395e-05 	-0.000504306 	0.262795
0.00259244 	5.47276e-05 	-0.000446656 	0.259536
0.0027219 	3.051e-05 	-0.000498692 	0.261545
0.0027219 	5.43514e-05 	-0.000442226 	0.258311
0.00284909 	2.96443e-05 	-0.00049286 	0.260251
0.00284909 	5.39352e-05 	-0.000437512 	0.257041
0.00297403 	2.87989e-05 	-0.000486803 	0.258912
0.00297403 	5.34814e-05 	-0.000432502 	0.255726
0.00309677 	2.79747e-05 	-0.000480512 	0.257528
0.00309677 	5.2992e-05 	-0.000427183 	0.254366
0.00321735 	2.71722e-05 	-0.000473978 	0.2561
0.00321735 	5.24685e-05 	-0.00042154 	0.252959
0.0033358 	2.63918e-05 	-0.000467191 	0.254626
0.0033358 	5.19125e-05 	-0.000415556 	0.251507
0.00345217 	5.13253e-05 	-0.00040922 	0.250009
0.00345217 	2.56336e-05 	-0.000460144 	0.253106
0.00356649 	2.48974e-05 	-0.000452828 	0.25154
0.00356649 	5.07085e-05 	-0.000402531 	0.248462
0.00367879 	2.41833e-05 	-0.000445232 	0.249925
0.00367879 	5.0065e-05 	-0.000395483 	0.246867
0.00378912 	2.3491e-05 	-0.000437334 	0.248262
0.00378912 	4.93984e-05 	-0.000388062 	0.245224
0.0038975 	2.28203e-05 	-0.000429106 	0.246547
0.0038975 	4.87105e-05 	-0.000380243 	0.243532
0.00400397 	2.21706e-05 	-0.000420497 	0.244778
0.00400397 	4.79995e-05 	-0.000371946 	0.241785
0.00410857 	4.72633e-05 	-0.000363051 	0.239968
0.00410857 	2.15412e-05 	-0.000411428 	0.242948
0.00421133 	2.09319e-05 	-0.000401816 	0.241051
0.00421133 	4.6501e-05 	-0.000353459 	0.238071
0.00431227 	2.03413e-05 	-0.000391576 	0.23908
0.00431227 	4.57111e-05 	-0.000343098 	0.236089
0.00441144 	1.97667e-05 	-0.000380646 	0.237028
0.00441144 	4.48916e-05 	-0.000331934 	0.234016
0.00450886 	1.92052e-05 	-0.000369 	0.234889
0.00450886 	4.40403e-05 	-0.000319978 	0.231851
0.00460456 	1.86547e-05 	-0.00035664 	0.232658
0.00460456 	4.31551e-05 	-0.000307269 	0.229588
0.00469858 	1.81137e-05 	-0.000343584 	0.230332
0.00469858 	4.2234e-05 	-0.000293857 	0.227225
0.00479094 	1.7581e-05 	-0.000329852 	0.227904
0.00479094 	4.12751e-05 	-0.000279794 	0.224757
0.00488168 	1.70554e-05 	-0.000315478 	0.225371
0.00488168 	4.02762e-05 	-0.000265139 	0.22218
0.00497081 	1.65356e-05 	-0.000300501 	0.222729
0.00497081 	3.92353e-05 	-0.000249958 	0.21949
0.00505838 	1.60204e-05 	-0.000284977 	0.219973
0.00505838 	3.81505e-05 	-0.000234332 	0.216684
0.0051444 	1.55087e-05 	-0.000268978 	0.217099
0.0051444 	3.70201e-05 	-0.000218354 	0.213758
0.00522891 	1.49995e-05 	-0.000252589 	0.214105
0.00522891 	3.58428e-05 	-0.000202135 	0.21071
0.00531193 	1.44918e-05 	-0.000235914 	0.210987
0.00531193 	3.46176e-05 	-0.000185801 	0.207537
0.00539348 	1.39849e-05 	-0.000219072 	0.207742
0.00539348 	3.33444e-05 	-0.000169492 	0.204237
0.0054736 	1.34781e-05 	-0.000202188 	0.204367
0.0054736 	3.2023e-05 	-0.000153354 	0.200809
0.00555231 	1.29708e-05 	-0.000185398 	0.200858
0.00555231 	3.06539e-05 	-0.000137536 	0.197251
0.00562963 	1.24627e-05 	-0.000168836 	0.197211
0.00562963 	2.92378e-05 	-0.000122181 	0.19356
0.00570559 	1.19534e-05 	-0.000152633 	0.193422
0.00570559 	2.77756e-05 	-0.000107422 	0.189734
0.00578022 	1.14426e-05 	-0.000136915 	0.189486
0.00578022 	2.62685e-05 	-9.33796e-05 	0.185768
0.00585352 	1.09304e-05 	-0.000121793 	0.185398
0.00585352 	2.47179e-05 	-8.01541e-05 	0.181658
0.00592554 	1.04167e-05 	-0.00010737 	0.18115
0.00592554 	2.31257e-05 	-6.78275e-05 	0.177399
0.00599629 	9.90166e-06 	-9.373e-05 	0.176737
0.00599629 	2.14941e-05 	-5.6461e-05 	0.172984
0.00606579 	9.38581e-06 	-8.09458e-05 	0.172148
0.00606579 	1.98257e-05 	-4.60959e-05 	0.168405
0.00613406 	8.86959e-06 	-6.90771e-05 	0.167372
0.00613406 	1.81232e-05 	-3.67549e-05 	0.163648
0.00620114 	1.63891e-05 	-2.8444e-05 	0.158698
0.00620114 	8.35295e-06 	-5.81701e-05 	0.162391
0.00626703 	7.83566e-06 	-4.82626e-05 	0.15719
0.00626703 	1.46277e-05 	-2.11617e-05 	0.153538
0.00633176 	1.2845e-05 	-1.48944e-05 	0.148155
0.00633176 	7.31774e-06 	-3.93826e-05 	0.151755
0.00639535 	1.10492e-05 	-9.60946e-06 	0.142534
0.00639535 	6.79969e-06 	-3.15376e-05 	0.146069
0.00645783 	6.2824e-06 	-2.47156e-05 	0.140118
0.00645783 	9.25021e-06 	-5.25842e-06 	0.13666
0.0065192 	5.76683e-06 	-1.88892e-05 	0.133886
0.0065192 	7.46013e-06 	-1.78074e-06 	0.130516
0.00657949 	5.25426e-06 	-1.40181e-05 	0.127356
0.00657949 	5.69399e-06 	8.93311e-07 	0.124086
0.00663871 	4.74692e-06 	-1.00497e-05 	0.120514
0.00663871 	3.97019e-06 	2.83977e-06 	0.117355
0.0066969 	4.24756e-06 	-6.90295e-06 	0.113339
0.0066969 	2.30852e-06 	4.14699e-06 	0.110299
0.00675406 	7.28712e-07 	4.90723e-06 	0.102884
0.00675406 	3.75733e-06 	-4.48295e-06 	0.105799
0.00681021 	-7.45137e-07 	5.21083e-06 	0.0950902
0.00681021 	3.27547e-06 	-2.69006e-06 	0.097868
0.00686537 	-2.08041e-06 	5.14966e-06 	0.0869405
0.00686537 	2.80145e-06 	-1.42711e-06 	0.0895592
0.00691956 	-3.2384e-06 	4.81402e-06 	0.0785063
0.00691956 	2.33709e-06 	-6.07868e-07 	0.0809412
0.0069728 	-4.17965e-06 	4.29362e-06 	0.0699063
0.0069728 	1.8874e-06 	-1.37563e-07 	0.0721323
0.0070251 	1.45999e-06 	8.11742e-08 	0.0632982
0.0070251 	-4.87074e-06 	3.6724e-06 	0.0613019
0.00707647 	1.06396e-06 	1.3984e-07 	0.0546317
0.00707647 	-5.29154e-06 	3.02269e-06 	0.0528778
0.00712695 	7.08873e-07 	1.16415e-07 	0.0463196
0.00712695 	-5.43939e-06 	2.40119e-06 	0.0448101
0.00717653 	4.0372e-07 	6.76051e-08 	0.0385076
0.00717653 	-5.32799e-06 	1.84516e-06 	0.0372343
0.00722524 	1.56883e-07 	2.73477e-08 	0.0312802
0.00722524 	-4.98154e-06 	1.37349e-06 	0.030229
0.00727309 	-4.42657e-06 	9.89626e-07 	0.0238204
0.00727309 	-2.12489e-08 	9.47097e-09 	0.0246662
0.0073201 	-3.68407e-06 	6.862e-07 	0.0179996
0.0073201 	-1.11223e-07 	1.29544e-08 	0.0186562
0.00736628 	-2.76058e-06 	4.55386e-07 	0.0127404
0.00736628 	-7.02861e-08 	3.03052e-08 	0.0132225
0.00741165 	8.82403e-08 	3.52761e-08 	0.00833066
0.00741165 	-1.72934e-06 	2.60189e-07 	0.00800979
0.00745622 	1.81145e-07 	2.76592e-08 	0.00394266
0.00745622 	-7.7639e-07 	1.12288e-07 	0.00377136
0.0075 	0 	0 	0
0.0075 	0 	0 	0
