/*--------------------------------*- C++ -*----------------------------------*\
| =========                 |                                                 |
| \\      /  F ield         | OpenFOAM: The Open Source CFD Toolbox           |
|  \\    /   O peration     | Version:  v1912                                 |
|   \\  /    A nd           | Website:  www.openfoam.com                      |
|    \\/     M anipulation  |                                                 |
\*---------------------------------------------------------------------------*/
FoamFile
{
    version     2.0;
    format      ascii;
    class       surfaceScalarField;
    location    "196.4";
    object      phi;
}
// * * * * * * * * * * * * * * * * * * * * * * * * * * * * * * * * * * * * * //

dimensions      [1 0 -1 0 0 0 0];
oriented        oriented;


internalField   nonuniform List<scalar> 
28397
(
6.93308e-07
9.61765e-05
7.59628e-08
3.23877e-05
4.74166e-07
4.18313e-05
2.32636e-07
4.10234e-05
-1.10099e-08
0.000139545
3.68165e-05
4.17597e-08
0.000139631
4.43614e-05
5.69955e-09
0.00013967
4.42644e-05
2.28515e-08
0.000139656
4.74393e-05
2.07222e-08
0.000139664
4.63601e-05
3.43801e-08
0.000139677
4.73595e-05
-8.6797e-09
0.000139711
4.41065e-05
3.8655e-08
0.000139683
4.41907e-05
-2.19785e-07
0.0001396
3.66588e-05
-4.64501e-07
0.000139279
4.08261e-05
-7.02657e-08
0.000138747
4.15852e-05
0.000137276
3.2053e-05
9.26388e-08
-6.48655e-05
7.33397e-08
-6.85059e-05
7.20543e-08
-6.97895e-05
2.95955e-08
-7.16229e-05
-7.19697e-09
-7.14648e-05
-5.0776e-08
-7.16103e-05
-5.33133e-08
0.000139013
-6.97502e-05
-7.70253e-08
0.000139004
-6.84628e-05
3.99355e-08
0.000138959
-6.48138e-05
1.03177e-07
0.000138697
-6.16448e-05
-1.5523e-08
0.000138128
-6.73862e-05
0.000137125
-5.99291e-05
-1.77332e-08
-4.78967e-05
-5.48614e-08
-4.96675e-05
-9.53933e-08
-5.07835e-05
-3.84503e-07
-5.11255e-05
-2.38493e-07
-5.04366e-05
0.000136771
-3.6742e-05
-4.16322e-05
7.26023e-07
9.48451e-05
0.000136607
7.74068e-08
3.33146e-05
0.000137242
4.63852e-07
4.12675e-05
0.000138652
2.52148e-07
4.11119e-05
0.000139166
-7.92581e-10
3.69007e-05
0.000139484
4.62233e-08
4.41279e-05
0.000139577
9.13224e-09
4.40775e-05
0.000139625
2.39514e-08
4.72108e-05
0.000139616
1.98464e-08
4.6135e-05
0.000139626
3.16578e-08
4.71333e-05
0.000139637
-1.34997e-08
4.39263e-05
0.000139664
2.81159e-08
4.3962e-05
0.000139627
-2.39143e-07
3.67576e-05
0.000139538
-4.57704e-07
4.09229e-05
0.000139216
-7.24929e-08
4.10248e-05
0.000138691
3.29849e-05
0.000137267
7.50455e-07
9.33903e-05
0.000134208
1.09537e-07
3.41793e-05
0.000134782
4.33647e-07
4.07368e-05
0.000136116
2.62234e-07
4.11197e-05
0.000136612
1.02706e-08
3.6945e-05
0.000136925
4.97632e-08
4.38641e-05
0.000137022
1.16271e-08
4.38531e-05
0.000137077
2.43467e-08
4.69457e-05
0.000137073
1.86723e-08
4.58727e-05
0.000137084
2.89458e-08
4.68697e-05
0.000137093
-1.7881e-08
4.37094e-05
0.000137114
1.55391e-08
4.37037e-05
0.00013707
-2.49207e-07
3.68148e-05
0.000136976
-4.26676e-07
4.0938e-05
0.00013666
-1.05252e-07
4.04988e-05
0.000136155
3.3855e-05
0.000134807
7.68849e-07
9.18296e-05
0.000131815
1.5171e-07
3.49653e-05
0.000132332
4.1702e-07
4.02366e-05
0.00013359
2.70914e-07
4.10642e-05
0.000134066
2.0216e-08
3.69511e-05
0.000134373
5.32297e-08
4.3571e-05
0.000134473
1.33508e-08
4.35942e-05
0.000134534
2.45517e-08
4.66453e-05
0.000134535
1.75699e-08
4.55751e-05
0.000134547
2.64119e-08
4.6571e-05
0.000134554
-2.09564e-08
4.34567e-05
0.00013457
4.33933e-09
4.34177e-05
0.000134519
-2.57851e-07
3.68325e-05
0.000134423
-4.09651e-07
4.08894e-05
0.000134112
-1.47928e-07
4.0004e-05
0.000133627
3.46469e-05
0.000132355
7.75471e-07
9.01937e-05
0.000129429
1.86444e-07
3.56709e-05
0.000129893
4.03955e-07
3.97564e-05
0.000131077
2.78794e-07
4.0952e-05
0.000131531
2.91396e-08
3.69211e-05
0.000131831
5.64399e-08
4.32498e-05
0.000131934
1.49813e-08
4.33026e-05
0.000132
2.47039e-08
4.63119e-05
0.000132005
1.64636e-08
4.52443e-05
0.000132019
2.39162e-08
4.62391e-05
0.000132024
-2.47677e-08
4.31712e-05
0.000132035
-5.63894e-09
4.31041e-05
0.000131978
-2.65722e-07
3.6813e-05
0.00013188
-3.9643e-07
4.07837e-05
0.000131576
-1.83191e-07
3.95297e-05
0.000131112
3.53587e-05
0.000129915
7.72708e-07
8.85077e-05
0.000127053
2.15565e-07
3.62949e-05
0.000127466
3.92587e-07
3.92897e-05
0.000128578
2.85724e-07
4.07877e-05
0.000129011
3.71862e-08
3.68569e-05
0.000129304
5.93737e-08
4.29018e-05
0.000129407
1.64982e-08
4.29803e-05
0.000129479
2.48056e-08
4.59474e-05
0.000129488
1.53579e-08
4.48822e-05
0.000129502
2.14827e-08
4.58761e-05
0.000129505
-2.85456e-08
4.28549e-05
0.000129512
-1.46035e-08
4.27638e-05
0.00012945
-2.72674e-07
3.67582e-05
0.00012935
-3.85033e-07
4.06258e-05
0.000129054
-2.12682e-07
3.90691e-05
0.000128612
3.59892e-05
0.000127487
7.63118e-07
8.67906e-05
0.000124689
2.40632e-07
3.68369e-05
0.000125053
3.82589e-07
3.88317e-05
0.000126096
2.91664e-07
4.05754e-05
0.000126506
4.43608e-08
3.67599e-05
0.000126792
6.20441e-08
4.25281e-05
0.000126897
1.78813e-08
4.26291e-05
0.000126972
2.48502e-08
4.55537e-05
0.000126985
1.4264e-08
4.44907e-05
0.000127
1.91342e-08
4.54838e-05
0.000127001
-3.21314e-08
4.25097e-05
0.000127003
-2.26853e-08
4.23978e-05
0.000126938
-2.78661e-07
3.66698e-05
0.000126837
-3.75066e-07
4.04199e-05
0.000126548
-2.38065e-07
3.86175e-05
0.000126129
3.65379e-05
0.000125073
7.48532e-07
8.5057e-05
0.000122339
2.62531e-07
3.72974e-05
0.000122656
3.73695e-07
3.8379e-05
0.000123632
2.96625e-07
4.03189e-05
0.000124021
5.07778e-08
3.66316e-05
0.000124299
6.44645e-08
4.21299e-05
0.000124403
1.91242e-08
4.22504e-05
0.000124482
2.4838e-08
4.51326e-05
0.000124498
1.31891e-08
4.40718e-05
0.000124514
1.68846e-08
4.50641e-05
0.000124514
-3.54895e-08
4.21371e-05
0.000124513
-2.99874e-08
4.20071e-05
0.000124443
-2.83691e-07
3.65492e-05
0.000124342
-3.66228e-07
4.01696e-05
0.000124061
-2.60223e-07
3.81711e-05
0.000123664
3.70055e-05
0.000122675
7.30361e-07
8.33179e-05
0.000120004
2.81868e-07
3.76776e-05
0.000120276
3.65736e-07
3.79286e-05
0.000121189
3.00635e-07
4.00218e-05
0.000121555
5.65873e-08
3.64731e-05
0.000121825
6.66482e-08
4.17082e-05
0.00012193
2.02245e-08
4.1846e-05
0.000122012
2.4771e-08
4.46856e-05
0.000122031
1.21388e-08
4.36268e-05
0.000122047
1.4744e-08
4.46184e-05
0.000122046
-3.86158e-08
4.17387e-05
0.000122041
-3.6579e-08
4.15929e-05
0.000121968
-2.8779e-07
3.63976e-05
0.000121868
-3.58332e-07
3.98785e-05
0.000121595
-2.79764e-07
3.77271e-05
0.00012122
3.73929e-05
0.000120295
7.09714e-07
8.15818e-05
0.000117685
2.99119e-07
3.79794e-05
0.000117916
3.58617e-07
3.74785e-05
0.000118767
3.03732e-07
3.96871e-05
0.000119112
6.18401e-08
3.62854e-05
0.000119374
6.86073e-08
4.12641e-05
0.000119478
2.10953e-08
4.14174e-05
0.000119563
2.46523e-08
4.42142e-05
0.000119584
1.11176e-08
4.31574e-05
0.000119601
1.27211e-08
4.41484e-05
0.000119599
-4.15149e-08
4.13158e-05
0.000119591
-4.24384e-08
4.1156e-05
0.000119515
-2.90989e-07
3.62162e-05
0.000119415
-3.51273e-07
3.95498e-05
0.00011915
-2.97165e-07
3.72832e-05
0.000118797
3.77019e-05
0.000117933
6.87461e-07
7.98549e-05
0.000115385
3.14663e-07
3.82048e-05
0.000115575
3.52282e-07
3.70266e-05
0.000116368
3.05964e-07
3.93179e-05
0.000116692
6.65766e-08
3.60694e-05
0.000116946
7.03519e-08
4.07987e-05
0.000117049
2.16404e-08
4.09661e-05
0.000117136
2.44852e-08
4.37195e-05
0.00011716
1.01294e-08
4.26651e-05
0.000117178
1.08234e-08
4.36554e-05
0.000117174
-4.41928e-08
4.087e-05
0.000117163
-4.77522e-08
4.06974e-05
0.000117086
-2.93337e-07
3.60061e-05
0.000116987
-3.44988e-07
3.91865e-05
0.00011673
-3.12809e-07
3.68376e-05
0.000116397
3.79346e-05
0.000115592
6.64277e-07
7.81415e-05
0.000113103
3.28774e-07
3.83564e-05
0.000113255
3.46682e-07
3.65717e-05
0.000113993
3.07399e-07
3.89171e-05
0.000114298
7.08294e-08
3.58262e-05
0.000114544
7.18906e-08
4.0313e-05
0.000114646
2.2141e-08
4.04935e-05
0.000114734
2.42745e-08
4.32032e-05
0.00011476
9.17724e-09
4.21511e-05
0.000114778
9.05554e-09
4.31407e-05
0.000114774
-4.66536e-08
4.04024e-05
0.000114761
-5.25586e-08
4.02181e-05
0.000114681
-2.94897e-07
3.57684e-05
0.000114583
-3.39425e-07
3.87913e-05
0.000114334
-3.26972e-07
3.63889e-05
0.000114022
3.80936e-05
0.000113272
6.40679e-07
7.64448e-05
0.000110841
3.4162e-07
3.84372e-05
0.000110958
3.4175e-07
3.61126e-05
0.000111644
3.08104e-07
3.84874e-05
0.00011193
7.46284e-08
3.55568e-05
0.000112168
7.32305e-08
3.9808e-05
0.000112268
2.25648e-08
4.00007e-05
0.000112359
2.40259e-08
4.26665e-05
0.000112386
8.2626e-09
4.16169e-05
0.000112404
7.41121e-09
4.26058e-05
0.0001124
-4.88964e-08
3.99145e-05
0.000112384
-5.68911e-08
3.97191e-05
0.000112303
-2.95738e-07
3.55039e-05
0.000112207
-3.34516e-07
3.83671e-05
0.000111965
-3.39826e-07
3.59358e-05
0.000111672
3.81817e-05
0.000110974
6.17065e-07
7.47669e-05
0.0001086
3.53296e-07
3.84502e-05
0.000108684
3.37395e-07
3.56484e-05
0.000109321
3.0815e-07
3.80312e-05
0.000109589
7.80028e-08
3.52621e-05
0.00010982
7.43764e-08
3.92848e-05
0.000109918
2.29001e-08
3.94892e-05
0.00011001
2.37461e-08
4.21108e-05
0.000110039
7.38564e-09
4.10639e-05
0.000110058
5.88069e-09
4.2052e-05
0.000110052
-5.09269e-08
3.94075e-05
0.000110034
-6.07817e-08
3.92016e-05
0.000109952
-2.95925e-07
3.52139e-05
0.000109858
-3.30172e-07
3.79162e-05
0.000109623
-3.51471e-07
3.54774e-05
0.000109348
3.82019e-05
0.000108699
5.93746e-07
7.31095e-05
0.000106381
3.63868e-07
3.83988e-05
0.000106433
3.33519e-07
3.51783e-05
0.000107026
3.07602e-07
3.75511e-05
0.000107276
8.09829e-08
3.49434e-05
0.000107501
7.53371e-08
3.87445e-05
0.000107597
2.31448e-08
3.89602e-05
0.000107689
2.3442e-08
4.15377e-05
0.00010772
6.54542e-09
4.04934e-05
0.000107738
4.47911e-09
4.14807e-05
0.000107732
-5.27527e-08
3.88827e-05
0.000107713
-6.42622e-08
3.86667e-05
0.000107629
-2.95524e-07
3.48994e-05
0.000107537
-3.26297e-07
3.74411e-05
0.00010731
-3.61981e-07
3.50131e-05
0.000107052
3.81578e-05
0.000106448
5.70954e-07
7.14734e-05
0.000104184
3.73392e-07
3.82866e-05
0.000104208
3.30028e-07
3.47021e-05
0.000104759
3.06521e-07
3.7049e-05
0.000104993
8.35994e-08
3.46018e-05
0.00010521
7.61231e-08
3.81884e-05
0.000105305
2.33017e-08
3.84151e-05
0.000105398
2.31204e-08
4.09483e-05
0.000105429
5.74015e-09
3.9907e-05
0.000105448
3.20149e-09
4.08933e-05
0.000105441
-5.43822e-08
3.83417e-05
0.000105421
-6.73645e-08
3.81154e-05
0.000105336
-2.94596e-07
3.45617e-05
0.000105246
-3.22798e-07
3.69439e-05
0.000105026
-3.71416e-07
3.45424e-05
0.000104785
3.80527e-05
0.000104222
5.48859e-07
6.98592e-05
0.000102009
3.81905e-07
3.81173e-05
0.000102007
3.2684e-07
3.42194e-05
0.000102521
3.04965e-07
3.65273e-05
0.000102739
8.58832e-08
3.42387e-05
0.00010295
7.67458e-08
3.76175e-05
0.000103043
2.33762e-08
3.78554e-05
0.000103136
2.27876e-08
4.03444e-05
0.000103168
4.9675e-09
3.93061e-05
0.000103187
2.04163e-09
4.02912e-05
0.00010318
-5.5825e-08
3.77858e-05
0.000103158
-7.01204e-08
3.75492e-05
0.000103073
-2.93197e-07
3.42021e-05
0.000102985
-3.19595e-07
3.64268e-05
0.000102772
-3.79819e-07
3.4065e-05
0.000102546
3.78904e-05
0.000102021
5.27566e-07
6.82672e-05
9.9859e-05
3.89426e-07
3.78945e-05
9.9833e-05
3.23886e-07
3.37302e-05
0.000100311
3.02987e-07
3.59881e-05
0.000100516
8.78643e-08
3.38555e-05
0.00010072
7.72173e-08
3.70334e-05
0.00010081
2.33753e-08
3.72826e-05
0.000100904
2.24493e-08
3.97272e-05
0.000100937
4.22469e-09
3.86922e-05
0.000100956
9.92339e-10
3.96759e-05
0.000100948
-5.70923e-08
3.72166e-05
0.000100925
-7.25605e-08
3.69694e-05
0.00010084
-2.91379e-07
3.38221e-05
0.000100754
-3.16622e-07
3.58919e-05
0.000100547
-3.87213e-07
3.3581e-05
0.000100336
3.76745e-05
9.98459e-05
5.0714e-07
6.66977e-05
9.77327e-05
3.9597e-07
3.76221e-05
9.7685e-05
3.21114e-07
3.32347e-05
9.81315e-05
3.00633e-07
3.54333e-05
9.83224e-05
8.9571e-08
3.34536e-05
9.85208e-05
7.75515e-08
3.64374e-05
9.86088e-05
2.33071e-08
3.66982e-05
9.87018e-05
2.21107e-08
3.90985e-05
9.87358e-05
3.50856e-09
3.80672e-05
9.87546e-05
4.54003e-11
3.90491e-05
9.87469e-05
-5.81973e-08
3.66355e-05
9.87231e-05
-7.47135e-08
3.63774e-05
9.86381e-05
-2.89189e-07
3.34232e-05
9.85543e-05
-3.1383e-07
3.53413e-05
9.83535e-05
-3.93619e-07
3.30905e-05
9.81553e-05
3.74088e-05
9.76975e-05
4.87614e-07
6.51509e-05
9.56311e-05
4.01568e-07
3.73037e-05
9.55638e-05
3.18505e-07
3.27331e-05
9.59813e-05
2.9797e-07
3.48651e-05
9.61595e-05
9.10454e-08
3.30345e-05
9.6352e-05
7.77649e-08
3.58303e-05
9.64378e-05
2.318e-08
3.61027e-05
9.65304e-05
2.17756e-08
3.84586e-05
9.65649e-05
2.81567e-09
3.74311e-05
9.65837e-05
-8.08236e-10
3.8411e-05
9.65757e-05
-5.91565e-08
3.60432e-05
9.65511e-05
-7.66227e-08
3.5774e-05
9.64664e-05
-2.86691e-07
3.30067e-05
9.63848e-05
-3.11199e-07
3.4777e-05
9.619e-05
-3.99072e-07
3.25937e-05
9.60046e-05
3.7097e-05
9.55759e-05
4.68999e-07
6.36249e-05
9.35544e-05
4.06288e-07
3.69415e-05
9.34697e-05
3.15995e-07
3.22246e-05
9.38608e-05
2.95037e-07
3.42842e-05
9.40271e-05
9.23434e-08
3.25977e-05
9.42138e-05
7.7863e-08
3.52112e-05
9.42973e-05
2.30009e-08
3.54945e-05
9.43895e-05
2.14496e-08
3.78057e-05
9.44244e-05
2.14792e-09
3.67823e-05
9.4443e-05
-1.57483e-09
3.77598e-05
9.44349e-05
-5.99744e-08
3.54379e-05
9.44097e-05
-7.83444e-08
3.51583e-05
9.43253e-05
-2.83928e-07
3.25724e-05
9.42459e-05
-3.08668e-07
3.41997e-05
9.4057e-05
-4.03643e-07
3.20897e-05
9.38836e-05
3.67412e-05
9.34814e-05
4.51286e-07
6.21157e-05
9.15032e-05
4.09975e-07
3.65353e-05
9.14028e-05
3.13188e-07
3.17065e-05
9.17699e-05
2.91966e-07
3.36888e-05
9.1925e-05
9.34735e-08
3.21418e-05
9.21056e-05
7.78193e-08
3.4578e-05
9.21874e-05
2.2791e-08
3.48712e-05
9.2279e-05
2.1143e-08
3.71372e-05
9.23142e-05
1.50794e-09
3.61182e-05
9.23327e-05
-2.26927e-09
3.70931e-05
9.23244e-05
-6.06175e-08
3.48173e-05
9.22986e-05
-7.98862e-08
3.45282e-05
9.22148e-05
-2.81038e-07
3.21186e-05
9.2137e-05
-3.05843e-07
3.36079e-05
9.19543e-05
-4.07177e-07
3.1576e-05
9.17923e-05
3.63413e-05
9.14142e-05
4.34448e-07
6.06184e-05
8.94778e-05
4.1216e-07
3.60852e-05
8.93635e-05
3.09582e-07
3.11756e-05
8.97088e-05
2.88882e-07
3.30765e-05
8.9852e-05
9.44477e-08
3.16652e-05
9.00258e-05
7.76302e-08
3.3929e-05
9.01066e-05
2.25834e-08
3.42309e-05
9.01979e-05
2.08656e-08
3.64514e-05
9.02337e-05
8.82429e-10
3.5437e-05
9.02521e-05
-2.92052e-09
3.64089e-05
9.02436e-05
-6.10782e-08
3.41794e-05
9.02171e-05
-8.12611e-08
3.38822e-05
9.01333e-05
-2.78147e-07
3.16441e-05
9.00566e-05
-3.02225e-07
3.29989e-05
8.98807e-05
-4.09204e-07
3.10495e-05
8.97306e-05
3.58973e-05
8.93745e-05
4.18459e-07
5.9129e-05
8.74785e-05
4.12616e-07
3.55917e-05
8.73519e-05
3.05146e-07
3.06297e-05
8.76763e-05
2.85593e-07
3.24454e-05
8.78067e-05
9.53133e-08
3.11671e-05
8.79736e-05
7.73518e-08
3.32635e-05
8.80534e-05
2.23787e-08
3.35726e-05
8.8145e-05
2.0619e-08
3.57472e-05
8.81815e-05
2.66431e-10
3.47378e-05
8.81998e-05
-3.5377e-09
3.57065e-05
8.81911e-05
-6.14219e-08
3.35235e-05
8.81636e-05
-8.2519e-08
3.32193e-05
8.80795e-05
-2.75055e-07
3.11477e-05
8.80038e-05
-2.97797e-07
3.23709e-05
8.78349e-05
-4.09509e-07
3.05077e-05
8.76976e-05
3.54099e-05
8.73626e-05
4.03286e-07
5.76439e-05
8.55058e-05
4.11804e-07
3.50556e-05
8.53683e-05
3.00415e-07
3.00669e-05
8.56712e-05
2.81929e-07
3.1795e-05
8.57892e-05
9.60686e-08
3.06466e-05
8.59496e-05
7.7042e-08
3.25811e-05
8.60283e-05
2.21443e-08
3.28964e-05
8.61198e-05
2.03933e-08
3.50247e-05
8.61571e-05
-3.41109e-10
3.40206e-05
8.61754e-05
-4.0973e-09
3.49856e-05
8.61665e-05
-6.17173e-08
3.28495e-05
8.6138e-05
-8.36589e-08
3.25394e-05
8.60538e-05
-2.71585e-07
3.06289e-05
8.59792e-05
-2.93089e-07
3.17236e-05
8.58169e-05
-4.08568e-07
2.99489e-05
8.56921e-05
3.48797e-05
8.53787e-05
3.88904e-07
5.61607e-05
8.356e-05
4.10595e-07
3.44776e-05
8.34127e-05
2.96194e-07
2.94864e-05
8.36937e-05
2.77959e-07
3.1126e-05
8.38004e-05
9.66893e-08
3.01035e-05
8.39548e-05
7.67146e-08
3.18818e-05
8.40322e-05
2.18596e-08
3.22025e-05
8.41236e-05
2.01765e-08
3.42842e-05
8.41613e-05
-9.34973e-10
3.32859e-05
8.41794e-05
-4.52407e-09
3.42466e-05
8.41704e-05
-6.19814e-08
3.21577e-05
8.41412e-05
-8.46555e-08
3.18424e-05
8.40572e-05
-2.67804e-07
3.00874e-05
8.39838e-05
-2.88901e-07
3.10574e-05
8.38275e-05
-4.07253e-07
2.93724e-05
8.37141e-05
3.43075e-05
8.34229e-05
3.75269e-07
5.46779e-05
8.16412e-05
4.095e-07
3.38585e-05
8.14855e-05
2.929e-07
2.88877e-05
8.17445e-05
2.73776e-07
3.04396e-05
8.18413e-05
9.71724e-08
2.95377e-05
8.19904e-05
7.6353e-08
3.11659e-05
8.20663e-05
2.15256e-08
3.14914e-05
8.21572e-05
1.99655e-08
3.35262e-05
8.21953e-05
-1.50163e-09
3.25342e-05
8.22131e-05
-4.88322e-09
3.34902e-05
8.22041e-05
-6.21949e-08
3.14486e-05
8.21744e-05
-8.55046e-08
3.11286e-05
8.20908e-05
-2.63803e-07
2.95229e-05
8.20189e-05
-2.85642e-07
3.03737e-05
8.18679e-05
-4.06066e-07
2.87776e-05
8.17645e-05
3.3694e-05
8.14953e-05
3.62305e-07
5.31946e-05
7.97498e-05
4.08414e-07
3.31999e-05
7.95866e-05
2.90385e-07
2.82709e-05
7.98246e-05
2.69443e-07
2.9737e-05
7.99128e-05
9.75259e-08
2.89492e-05
8.00571e-05
7.5936e-08
3.04335e-05
8.01315e-05
2.11517e-08
3.07637e-05
8.02217e-05
1.97641e-08
3.27514e-05
8.02598e-05
-2.05438e-09
3.17662e-05
8.02774e-05
-5.17889e-09
3.27168e-05
8.02684e-05
-6.23332e-08
3.07227e-05
8.02385e-05
-8.62135e-08
3.03981e-05
8.01554e-05
-2.5965e-07
2.89356e-05
8.0085e-05
-2.83157e-07
2.96737e-05
7.99389e-05
-4.04889e-07
2.81644e-05
7.98442e-05
3.30409e-05
7.95962e-05
3.49951e-07
5.17107e-05
7.78858e-05
4.07007e-07
3.25039e-05
7.7716e-05
2.88299e-07
2.76357e-05
7.79347e-05
2.6501e-07
2.90189e-05
7.80153e-05
9.77634e-08
2.83382e-05
7.81553e-05
7.545e-08
2.96847e-05
7.82282e-05
2.07483e-08
3.00196e-05
7.83175e-05
1.95764e-08
3.19603e-05
7.83555e-05
-2.59238e-09
3.09824e-05
7.83729e-05
-5.41692e-09
3.1927e-05
7.83639e-05
-6.23795e-08
2.99804e-05
7.83339e-05
-8.67957e-08
2.96511e-05
7.82516e-05
-2.55396e-07
2.83256e-05
7.81827e-05
-2.81102e-07
2.8958e-05
7.80409e-05
-4.03398e-07
2.75329e-05
7.79539e-05
3.23502e-05
7.77253e-05
3.38185e-07
5.02262e-05
7.60493e-05
4.05092e-07
3.17729e-05
7.58732e-05
2.86344e-07
2.69822e-05
7.6075e-05
2.6051e-07
2.82859e-05
7.61489e-05
9.78999e-08
2.77048e-05
7.62852e-05
7.48905e-08
2.89198e-05
7.63565e-05
2.03237e-08
2.92592e-05
7.64447e-05
1.94052e-08
3.1153e-05
7.64826e-05
-3.11411e-09
3.01831e-05
7.64997e-05
-5.60322e-09
3.1121e-05
7.64907e-05
-6.23279e-08
2.92217e-05
7.64608e-05
-8.72661e-08
2.88878e-05
7.63795e-05
-2.51076e-07
2.76931e-05
7.63121e-05
-2.79182e-07
2.82273e-05
7.61741e-05
-4.01409e-07
2.68828e-05
7.60938e-05
3.16246e-05
7.58822e-05
3.27027e-07
4.87412e-05
7.424e-05
4.027e-07
3.10094e-05
7.40578e-05
2.84337e-07
2.63101e-05
7.42454e-05
2.55966e-07
2.75379e-05
7.43137e-05
9.79477e-08
2.7049e-05
7.44465e-05
7.42607e-08
2.81386e-05
7.45163e-05
1.98841e-08
2.84825e-05
7.46034e-05
1.9252e-08
3.03295e-05
7.46409e-05
-3.61943e-09
2.93684e-05
7.46577e-05
-5.74321e-09
3.02987e-05
7.46489e-05
-6.21815e-08
2.84466e-05
7.46191e-05
-8.76372e-08
2.8108e-05
7.45388e-05
-2.46714e-07
2.70381e-05
7.44729e-05
-2.77219e-07
2.74814e-05
7.43384e-05
-3.98959e-07
2.6214e-05
7.42639e-05
3.08662e-05
7.40666e-05
3.16518e-07
4.72552e-05
7.24573e-05
3.99942e-07
3.02152e-05
7.227e-05
2.82207e-07
2.5619e-05
7.24459e-05
2.51396e-07
2.67746e-05
7.25093e-05
9.79157e-08
2.63706e-05
7.26391e-05
7.35679e-08
2.73408e-05
7.27073e-05
1.94337e-08
2.76891e-05
7.27931e-05
1.91166e-08
2.94895e-05
7.28302e-05
-4.10866e-09
2.85377e-05
7.28467e-05
-5.84179e-09
2.94598e-05
7.2838e-05
-6.19484e-08
2.76547e-05
7.28084e-05
-8.79182e-08
2.73114e-05
7.27293e-05
-2.42327e-07
2.63603e-05
7.26649e-05
-2.75141e-07
2.67201e-05
7.25335e-05
-3.96157e-07
2.55262e-05
7.2464e-05
3.00769e-05
7.22786e-05
3.06656e-07
4.57675e-05
7.0701e-05
3.96873e-07
2.93911e-05
7.051e-05
2.79941e-07
2.49081e-05
7.06762e-05
2.46814e-07
2.59953e-05
7.07353e-05
9.78115e-08
2.5669e-05
7.08624e-05
7.2821e-08
2.65254e-05
7.0929e-05
1.89757e-08
2.68779e-05
7.10135e-05
1.89984e-08
2.8632e-05
7.10501e-05
-4.58222e-09
2.76903e-05
7.10663e-05
-5.90336e-09
2.86033e-05
7.10577e-05
-6.16384e-08
2.68449e-05
7.10285e-05
-8.81172e-08
2.64972e-05
7.09505e-05
-2.3793e-07
2.56592e-05
7.08878e-05
-2.72936e-07
2.59426e-05
7.07591e-05
-3.93057e-07
2.48185e-05
7.06939e-05
2.92577e-05
7.05184e-05
2.97393e-07
4.42765e-05
6.89711e-05
3.93499e-07
2.85376e-05
6.87778e-05
2.77527e-07
2.41757e-05
6.89359e-05
2.42228e-07
2.51982e-05
6.89914e-05
9.76499e-08
2.49428e-05
6.91161e-05
7.20301e-08
2.56912e-05
6.9181e-05
1.85125e-08
2.60475e-05
6.92642e-05
1.88967e-08
2.77553e-05
6.93002e-05
-5.04011e-09
2.68245e-05
6.9316e-05
-5.93121e-09
2.77276e-05
6.93075e-05
-6.12623e-08
2.60158e-05
6.92788e-05
-8.82496e-08
2.56639e-05
6.92021e-05
-2.3353e-07
2.49334e-05
6.9141e-05
-2.70592e-07
2.51473e-05
6.90147e-05
-3.89664e-07
2.40892e-05
6.89533e-05
2.8409e-05
6.8786e-05
2.8866e-07
4.27799e-05
6.72677e-05
3.89788e-07
2.7654e-05
6.70733e-05
2.74911e-07
2.34198e-05
6.72247e-05
2.37649e-07
2.43814e-05
6.72769e-05
9.74506e-08
2.41901e-05
6.73995e-05
7.12028e-08
2.48359e-05
6.74627e-05
1.80464e-08
2.51957e-05
6.75445e-05
1.88105e-08
2.68575e-05
6.75799e-05
-5.48171e-09
2.59383e-05
6.75954e-05
-5.90649e-09
2.68307e-05
6.75871e-05
-6.08282e-08
2.51653e-05
6.75588e-05
-8.83356e-08
2.48096e-05
6.74834e-05
-2.2914e-07
2.41811e-05
6.74239e-05
-2.68054e-07
2.43321e-05
6.72998e-05
-3.85943e-07
2.33362e-05
6.72417e-05
2.753e-05
6.70813e-05
2.80379e-07
4.12749e-05
6.55911e-05
3.85635e-07
2.67391e-05
6.53962e-05
2.71997e-07
2.26376e-05
6.55422e-05
2.3309e-07
2.35419e-05
6.55912e-05
9.72274e-08
2.34087e-05
6.57116e-05
7.03465e-08
2.39574e-05
6.57732e-05
1.75793e-08
2.432e-05
6.58535e-05
1.87394e-08
2.59359e-05
6.58884e-05
-5.90691e-09
2.50291e-05
6.59036e-05
-5.86488e-09
2.59099e-05
6.58954e-05
-6.03442e-08
2.42908e-05
6.58675e-05
-8.83896e-08
2.39318e-05
6.57934e-05
-2.24773e-07
2.33999e-05
6.57354e-05
-2.65227e-07
2.34942e-05
6.56136e-05
-3.8179e-07
2.25568e-05
6.55589e-05
2.66196e-05
6.54041e-05
2.72486e-07
3.97581e-05
6.39411e-05
3.80924e-07
2.57913e-05
6.37462e-05
2.68728e-07
2.18259e-05
6.38878e-05
2.28546e-07
2.26767e-05
6.39331e-05
9.69802e-08
2.25957e-05
6.40514e-05
6.94734e-08
2.30525e-05
6.41115e-05
1.71123e-08
2.34175e-05
6.41904e-05
1.86823e-08
2.49875e-05
6.42248e-05
-6.31679e-09
2.40939e-05
6.42397e-05
-5.83531e-09
2.49623e-05
6.42317e-05
-5.98246e-08
2.33895e-05
6.42041e-05
-8.84125e-08
2.30278e-05
6.41312e-05
-2.20425e-07
2.25872e-05
6.40747e-05
-2.62054e-07
2.26304e-05
6.3955e-05
-3.77092e-07
2.17479e-05
6.39042e-05
2.56762e-05
6.37539e-05
2.64938e-07
3.82257e-05
6.23178e-05
3.75664e-07
2.48085e-05
6.21224e-05
2.65146e-07
2.09813e-05
6.22606e-05
2.24021e-07
2.17823e-05
6.2302e-05
9.66928e-08
2.17483e-05
6.24183e-05
6.85929e-08
2.21184e-05
6.24769e-05
1.6646e-08
2.2485e-05
6.25544e-05
1.86369e-08
2.40092e-05
6.25883e-05
-6.71215e-09
2.31296e-05
6.26029e-05
-5.78469e-09
2.39847e-05
6.2595e-05
-5.92811e-08
2.24581e-05
6.25677e-05
-8.83882e-08
2.20943e-05
6.24961e-05
-2.16096e-07
2.17399e-05
6.24411e-05
-2.58582e-07
2.17374e-05
6.23235e-05
-3.71859e-07
2.0906e-05
6.22767e-05
2.46977e-05
6.213e-05
2.57716e-07
3.66738e-05
6.07206e-05
3.69987e-07
2.37885e-05
6.05244e-05
2.61358e-07
2.01002e-05
6.06597e-05
2.19535e-07
2.08552e-05
6.06975e-05
9.63564e-08
2.08632e-05
6.08119e-05
6.77089e-08
2.11516e-05
6.08689e-05
1.61796e-08
2.15194e-05
6.0945e-05
1.86014e-08
2.29977e-05
6.09784e-05
-7.09333e-09
2.2133e-05
6.09926e-05
-5.70198e-09
2.2974e-05
6.09849e-05
-5.87187e-08
2.14935e-05
6.0958e-05
-8.83081e-08
2.11282e-05
6.08877e-05
-2.11806e-07
2.0855e-05
6.08342e-05
-2.54914e-07
2.08117e-05
6.07184e-05
-3.66224e-07
2.00276e-05
6.06754e-05
2.36818e-05
6.05317e-05
2.50813e-07
3.50985e-05
5.91487e-05
3.64036e-07
2.27286e-05
5.89516e-05
2.57456e-07
1.91793e-05
5.90846e-05
2.15095e-07
1.98922e-05
5.91189e-05
9.59722e-08
1.99374e-05
5.92315e-05
6.68247e-08
2.01491e-05
5.9287e-05
1.57135e-08
2.05172e-05
5.93617e-05
1.85745e-08
2.19498e-05
5.93945e-05
-7.46037e-09
2.11008e-05
5.94084e-05
-5.59313e-09
2.19269e-05
5.94008e-05
-5.81416e-08
2.04924e-05
5.93743e-05
-8.81737e-08
2.01263e-05
5.93053e-05
-2.07563e-07
1.99294e-05
5.92533e-05
-2.51138e-07
1.98501e-05
5.91394e-05
-3.60326e-07
1.91093e-05
5.90999e-05
2.2626e-05
5.89588e-05
2.44213e-07
3.34958e-05
5.76015e-05
3.57865e-07
2.16265e-05
5.74038e-05
2.53459e-07
1.82153e-05
5.75349e-05
2.10701e-07
1.88901e-05
5.75658e-05
9.55422e-08
1.89681e-05
5.76768e-05
6.5944e-08
1.91077e-05
5.77307e-05
1.52483e-08
1.94756e-05
5.7804e-05
1.8555e-08
2.08625e-05
5.78362e-05
-7.81294e-09
2.00299e-05
5.78498e-05
-5.46143e-09
2.08403e-05
5.78423e-05
-5.75542e-08
1.94518e-05
5.78163e-05
-8.79874e-08
1.90855e-05
5.77486e-05
-2.03366e-07
1.89602e-05
5.7698e-05
-2.47274e-07
1.88492e-05
5.75858e-05
-3.54218e-07
1.81479e-05
5.75498e-05
2.15279e-05
5.74108e-05
2.37884e-07
3.18623e-05
5.60787e-05
3.51479e-07
2.04799e-05
5.58804e-05
2.4935e-07
1.72053e-05
5.60099e-05
2.06351e-07
1.78459e-05
5.60377e-05
9.50676e-08
1.79525e-05
5.61471e-05
6.50696e-08
1.80245e-05
5.61994e-05
1.47842e-08
1.83917e-05
5.62713e-05
1.85419e-08
1.9733e-05
5.63029e-05
-8.15083e-09
1.89175e-05
5.63162e-05
-5.30936e-09
1.97114e-05
5.63089e-05
-5.69599e-08
1.83689e-05
5.62833e-05
-8.77508e-08
1.8003e-05
5.62169e-05
-1.99214e-07
1.79447e-05
5.61679e-05
-2.43304e-07
1.78064e-05
5.60572e-05
-3.47902e-07
1.71404e-05
5.60246e-05
2.03853e-05
5.58873e-05
2.31797e-07
3.01947e-05
5.45796e-05
3.44883e-07
1.92869e-05
5.4381e-05
2.45114e-07
1.61467e-05
5.45093e-05
2.02043e-07
1.67571e-05
5.4534e-05
9.45492e-08
1.68882e-05
5.46419e-05
6.42036e-08
1.68972e-05
5.46927e-05
1.4322e-08
1.7263e-05
5.47631e-05
1.8534e-08
1.85587e-05
5.4794e-05
-8.47392e-09
1.77611e-05
5.48071e-05
-5.13893e-09
1.85378e-05
5.47999e-05
-5.63617e-08
1.72412e-05
5.47749e-05
-8.74648e-08
1.68763e-05
5.47097e-05
-1.95104e-07
1.68807e-05
5.46622e-05
-2.39214e-07
1.67188e-05
5.45531e-05
-3.41387e-07
1.60843e-05
5.45236e-05
1.91961e-05
5.43877e-05
2.25927e-07
2.84902e-05
5.31039e-05
3.38086e-07
1.80458e-05
5.29049e-05
2.4074e-07
1.50374e-05
5.30322e-05
1.9777e-07
1.56214e-05
5.30541e-05
9.39873e-08
1.57735e-05
5.31605e-05
6.33479e-08
1.57236e-05
5.32098e-05
1.38619e-08
1.60874e-05
5.32788e-05
1.85303e-08
1.73375e-05
5.3309e-05
-8.78219e-09
1.65585e-05
5.33218e-05
-4.9519e-09
1.73173e-05
5.33147e-05
-5.57622e-08
1.60667e-05
5.32902e-05
-8.71301e-08
1.57033e-05
5.32264e-05
-1.9103e-07
1.57661e-05
5.31803e-05
-2.34992e-07
1.55844e-05
5.30727e-05
-3.34677e-07
1.49775e-05
5.30462e-05
1.79588e-05
5.29114e-05
2.20246e-07
2.67466e-05
5.16508e-05
3.31091e-07
1.67555e-05
5.14515e-05
2.36215e-07
1.38757e-05
5.15781e-05
1.93528e-07
1.4437e-05
5.15972e-05
9.33825e-08
1.46067e-05
5.17023e-05
6.25036e-08
1.45021e-05
5.175e-05
1.34041e-08
1.48634e-05
5.18177e-05
1.85298e-08
1.60679e-05
5.18471e-05
-9.07572e-09
1.53083e-05
5.18597e-05
-4.75006e-09
1.60483e-05
5.18527e-05
-5.51632e-08
1.48436e-05
5.18288e-05
-8.67476e-08
1.44824e-05
5.17662e-05
-1.86987e-07
1.45995e-05
5.17216e-05
-2.30624e-07
1.44014e-05
5.16154e-05
-3.27778e-07
1.38182e-05
5.15918e-05
1.66722e-05
5.14578e-05
2.14725e-07
2.49622e-05
5.02196e-05
3.23903e-07
1.54153e-05
5.002e-05
2.31525e-07
1.26606e-05
5.01462e-05
1.89307e-07
1.32029e-05
5.01626e-05
9.27354e-08
1.33869e-05
5.02664e-05
6.16717e-08
1.32316e-05
5.03125e-05
1.29489e-08
1.35898e-05
5.03788e-05
1.85317e-08
1.47489e-05
5.04076e-05
-9.35466e-09
1.40093e-05
5.04199e-05
-4.53565e-09
1.47299e-05
5.0413e-05
-5.45665e-08
1.35711e-05
5.03897e-05
-8.63183e-08
1.32126e-05
5.03283e-05
-1.82967e-07
1.338e-05
5.02852e-05
-2.26096e-07
1.31686e-05
5.01803e-05
-3.20692e-07
1.26056e-05
5.01595e-05
1.53357e-05
5.00262e-05
2.09336e-07
2.31361e-05
4.88095e-05
3.16525e-07
1.40252e-05
4.86096e-05
2.26654e-07
1.13918e-05
4.87355e-05
1.85097e-07
1.19185e-05
4.87493e-05
9.20467e-08
1.21141e-05
4.88518e-05
6.08526e-08
1.19117e-05
4.88964e-05
1.24965e-08
1.22664e-05
4.89614e-05
1.8535e-08
1.33801e-05
4.89894e-05
-9.61927e-09
1.26611e-05
4.90015e-05
-4.32811e-09
1.33616e-05
4.89946e-05
-5.39732e-08
1.22487e-05
4.8972e-05
-8.58433e-08
1.18934e-05
4.89118e-05
-1.78958e-07
1.21074e-05
4.88701e-05
-2.21393e-07
1.18856e-05
4.87666e-05
-3.13421e-07
1.13393e-05
4.87485e-05
1.39492e-05
4.86157e-05
2.04049e-07
2.1268e-05
4.74194e-05
3.0895e-07
1.25858e-05
4.72192e-05
2.21585e-07
1.00698e-05
4.7345e-05
1.80885e-07
1.05841e-05
4.73563e-05
9.13175e-08
1.07887e-05
4.74575e-05
6.00464e-08
1.0543e-05
4.75007e-05
1.20472e-08
1.08936e-05
4.75644e-05
1.85388e-08
1.19619e-05
4.75915e-05
-9.86987e-09
1.12642e-05
4.76034e-05
-4.11185e-09
1.19439e-05
4.75966e-05
-5.33845e-08
1.0877e-05
4.75746e-05
-8.53242e-08
1.05254e-05
4.75156e-05
-1.74948e-07
1.07824e-05
4.74753e-05
-2.16495e-07
1.05525e-05
4.73731e-05
-3.05959e-07
1.00198e-05
4.73576e-05
1.25135e-05
4.72251e-05
1.98833e-07
1.93587e-05
4.60482e-05
3.01174e-07
1.10989e-05
4.58476e-05
2.16297e-07
8.69605e-06
4.59734e-05
1.76655e-07
9.20095e-06
4.59823e-05
9.05491e-08
9.41224e-06
4.60823e-05
5.92531e-08
9.12665e-06
4.61239e-05
1.16014e-08
9.47264e-06
4.61864e-05
1.85422e-08
1.04956e-05
4.62126e-05
-1.01069e-08
9.81992e-06
4.62243e-05
-3.8882e-09
1.04783e-05
4.62176e-05
-5.2801e-08
9.45712e-06
4.61964e-05
-8.47628e-08
9.10984e-06
4.61385e-05
-1.70921e-07
9.40629e-06
4.60996e-05
-2.11384e-07
9.17078e-06
4.59986e-05
-2.98299e-07
8.64846e-06
4.59856e-05
1.10301e-05
4.58533e-05
1.93657e-07
1.74101e-05
4.46944e-05
2.93187e-07
9.56703e-06
4.44934e-05
2.10771e-07
7.273e-06
4.46192e-05
1.72389e-07
7.77124e-06
4.46257e-05
8.9743e-08
7.98728e-06
4.47246e-05
5.84721e-08
7.6652e-06
4.47647e-05
1.11597e-08
8.0061e-06
4.4826e-05
1.85444e-08
8.98377e-06
4.48513e-05
-1.03307e-08
8.33065e-06
4.48629e-05
-3.65867e-09
8.967e-06
4.48561e-05
-5.22231e-08
7.99169e-06
4.48357e-05
-8.41611e-08
7.64921e-06
4.47789e-05
-1.66859e-07
7.98177e-06
4.47414e-05
-2.06039e-07
7.74254e-06
4.46416e-05
-2.90431e-07
7.22789e-06
4.46311e-05
9.50174e-06
4.44989e-05
1.88486e-07
1.54254e-05
4.33564e-05
2.84975e-07
7.99404e-06
4.31548e-05
2.04981e-07
5.80454e-06
4.32808e-05
1.68066e-07
6.29856e-06
4.3285e-05
8.89011e-08
6.51766e-06
4.33827e-05
5.77027e-08
6.16234e-06
4.34214e-05
1.07228e-08
6.49767e-06
4.34814e-05
1.85444e-08
7.43003e-06
4.35059e-05
-1.05419e-08
6.80011e-06
4.35173e-05
-3.42502e-09
7.41385e-06
4.35105e-05