0 	0 	0 	0
5.01672e-05 	-2.4236e-05 	-4.73627e-06 	0.0204045
0.000100334 	-4.84721e-05 	-9.47255e-06 	0.040809
0.000150502 	-7.27081e-05 	-1.42088e-05 	0.0612135
0.000200669 	-9.69441e-05 	-1.89451e-05 	0.081618
0.000250836 	-0.00012118 	-2.36814e-05 	0.102022
0.000301003 	-0.000145416 	-2.84176e-05 	0.122427
0.000351171 	-0.000167337 	-3.38844e-05 	0.140709
0.000401338 	-0.000180505 	-4.21134e-05 	0.150964
0.000451505 	-0.000193673 	-5.03424e-05 	0.161219
0.000501672 	-0.000206841 	-5.85715e-05 	0.171474
0.000551839 	-0.000220009 	-6.68005e-05 	0.181728
0.000602007 	-0.000233177 	-7.50295e-05 	0.191983
0.000652174 	-0.000246345 	-8.32586e-05 	0.202238
0.000702341 	-0.000259512 	-9.14876e-05 	0.212493
0.000752508 	-0.000269736 	-9.99317e-05 	0.221327
0.000802676 	-0.000272659 	-0.000108909 	0.226637
0.000852843 	-0.000275581 	-0.000117886 	0.231947
0.00090301 	-0.000278504 	-0.000126864 	0.237257
0.000953177 	-0.000281427 	-0.000135841 	0.242568
0.00100334 	-0.00028435 	-0.000144818 	0.247878
0.00105351 	-0.000287273 	-0.000153795 	0.253188
0.00110368 	-0.000290196 	-0.000162773 	0.258498
0.00115385 	-0.000293118 	-0.00017175 	0.263808
0.00120401 	-0.000295832 	-0.00018068 	0.269013
0.00125418 	-0.000294239 	-0.000188649 	0.272048
0.00130435 	-0.000292647 	-0.000196619 	0.275082
0.00135452 	-0.000291054 	-0.000204588 	0.278117
0.00140468 	-0.000289462 	-0.000212557 	0.281152
0.00145485 	-0.00028787 	-0.000220526 	0.284187
0.00150502 	-0.000286277 	-0.000228495 	0.287221
0.00155518 	-0.000284685 	-0.000236464 	0.290256
0.00160535 	-0.000283092 	-0.000244433 	0.293291
0.00165552 	-0.0002815 	-0.000252402 	0.296326
0.00170569 	-0.000279908 	-0.000260371 	0.299361
0.00175585 	-0.000278055 	-0.000267909 	0.302105
0.00180602 	-0.000275485 	-0.00027426 	0.30405
0.00185619 	-0.000272916 	-0.000280611 	0.305996
0.00190635 	-0.000270346 	-0.000286962 	0.307941
0.00195652 	-0.000267777 	-0.000293313 	0.309886
0.00200669 	-0.000265207 	-0.000299664 	0.311832
0.00205686 	-0.000262638 	-0.000306015 	0.313777
0.00210702 	-0.000260068 	-0.000312366 	0.315722
0.00215719 	-0.000257498 	-0.000318717 	0.317668
0.00220736 	-0.000254929 	-0.000325068 	0.319613
0.00225753 	-0.000252359 	-0.000331419 	0.321559
0.00230769 	-0.00024979 	-0.00033777 	0.323504
0.00235786 	-0.00024722 	-0.000344121 	0.325449
0.00240803 	-0.000244926 	-0.000349256 	0.326958
0.00245819 	-0.000242754 	-0.000353848 	0.328271
0.00250836 	-0.000240583 	-0.000358441 	0.329585
0.00255853 	-0.000238411 	-0.000363033 	0.330899
0.0026087 	-0.000236239 	-0.000367626 	0.332212
0.00265886 	-0.000234068 	-0.000372219 	0.333526
0.00270903 	-0.000231896 	-0.000376811 	0.334839
0.0027592 	-0.000229724 	-0.000381404 	0.336153
0.00280936 	-0.000227552 	-0.000385996 	0.337467
0.00285953 	-0.000225381 	-0.000390589 	0.33878
0.0029097 	-0.000223209 	-0.000395181 	0.340094
0.00295987 	-0.000221037 	-0.000399774 	0.341407
0.00301003 	-0.000218866 	-0.000404367 	0.342721
0.0030602 	-0.000216694 	-0.000408959 	0.344035
0.00311037 	-0.000214537 	-0.000413521 	0.345338
0.00316054 	-0.000213038 	-0.000416738 	0.346219
0.0032107 	-0.000211538 	-0.000419955 	0.347099
0.00326087 	-0.000210038 	-0.000423172 	0.347979
0.00331104 	-0.000208539 	-0.000426389 	0.34886
0.0033612 	-0.000207039 	-0.000429606 	0.34974
0.00341137 	-0.000205539 	-0.000432823 	0.35062
0.00346154 	-0.00020404 	-0.00043604 	0.351501
0.00351171 	-0.00020254 	-0.000439257 	0.352381
0.00356187 	-0.00020104 	-0.000442474 	0.353261
0.00361204 	-0.000199541 	-0.000445691 	0.354142
0.00366221 	-0.000198041 	-0.000448908 	0.355022
0.00371237 	-0.000196541 	-0.000452125 	0.355902
0.00376254 	-0.000195041 	-0.000455342 	0.356783
0.00381271 	-0.000193542 	-0.000458559 	0.357663
0.00386288 	-0.000192042 	-0.000461776 	0.358543
0.00391304 	-0.000190542 	-0.000464993 	0.359423
0.00396321 	-0.000189043 	-0.00046821 	0.360304
0.00401338 	-0.000187972 	-0.000470578 	0.360883
0.00406355 	-0.000186943 	-0.000472863 	0.361433
0.00411371 	-0.000185914 	-0.000475147 	0.361982
0.00416388 	-0.000184886 	-0.000477432 	0.362532
0.00421405 	-0.000183857 	-0.000479717 	0.363082
0.00426421 	-0.000182828 	-0.000482001 	0.363631
0.00431438 	-0.000181799 	-0.000484286 	0.364181
0.00436455 	-0.00018077 	-0.000486571 	0.364731
0.00441472 	-0.000179742 	-0.000488855 	0.36528
0.00446488 	-0.000178713 	-0.00049114 	0.36583
0.00451505 	-0.000177684 	-0.000493425 	0.36638
0.00456522 	-0.000176655 	-0.00049571 	0.36693
0.00461538 	-0.000175626 	-0.000497994 	0.367479
0.00466555 	-0.000174598 	-0.000500279 	0.368029
0.00471572 	-0.000173569 	-0.000502564 	0.368579
0.00476589 	-0.00017254 	-0.000504848 	0.369128
0.00481605 	-0.000171511 	-0.000507133 	0.369678
0.00486622 	-0.000170483 	-0.000509418 	0.370228
0.00491639 	-0.000169454 	-0.000511703 	0.370777
0.00496656 	-0.000168425 	-0.000513987 	0.371327
0.00501672 	-0.000167611 	-0.000515542 	0.371625
0.00506689 	-0.000166808 	-0.000517057 	0.37191
0.00511706 	-0.000166005 	-0.000518573 	0.372195
0.00516722 	-0.000165202 	-0.000520088 	0.37248
0.00521739 	-0.000164399 	-0.000521604 	0.372765
0.00526756 	-0.000163596 	-0.000523119 	0.37305
0.00531773 	-0.000162794 	-0.000524635 	0.373335
0.00536789 	-0.000161991 	-0.00052615 	0.37362
0.00541806 	-0.000161188 	-0.000527666 	0.373905
0.00546823 	-0.000160385 	-0.000529181 	0.37419
0.00551839 	-0.000159582 	-0.000530697 	0.374475
0.00556856 	-0.000158779 	-0.000532212 	0.37476
0.00561873 	-0.000157977 	-0.000533728 	0.375045
0.0056689 	-0.000157174 	-0.000535243 	0.37533
0.00571906 	-0.000156371 	-0.000536759 	0.375615
0.00576923 	-0.000155568 	-0.000538274 	0.3759
0.0058194 	-0.000154765 	-0.00053979 	0.376185
0.00586957 	-0.000153962 	-0.000541305 	0.37647
0.00591973 	-0.00015316 	-0.000542821 	0.376755
0.0059699 	-0.000152357 	-0.000544336 	0.37704
0.00602007 	-0.000151554 	-0.000545852 	0.377325
0.00607023 	-0.000150751 	-0.000547367 	0.37761
0.0061204 	-0.000149948 	-0.000548882 	0.377895
0.00617057 	-0.000149245 	-0.00054987 	0.378033
0.00622074 	-0.000148591 	-0.00055059 	0.378097
0.0062709 	-0.000147938 	-0.00055131 	0.378161
0.00632107 	-0.000147284 	-0.00055203 	0.378225
0.00637124 	-0.000146631 	-0.00055275 	0.378289
0.0064214 	-0.000145977 	-0.00055347 	0.378353
0.00647157 	-0.000145324 	-0.00055419 	0.378417
0.00652174 	-0.00014467 	-0.00055491 	0.378482
0.00657191 	-0.000144017 	-0.00055563 	0.378546
0.00662207 	-0.000143364 	-0.00055635 	0.37861
0.00667224 	-0.00014271 	-0.00055707 	0.378674
0.00672241 	-0.000142057 	-0.00055779 	0.378738
0.00677258 	-0.000141403 	-0.00055851 	0.378802
0.00682274 	-0.00014075 	-0.00055923 	0.378866
0.00687291 	-0.000140096 	-0.00055995 	0.37893
0.00692308 	-0.000139443 	-0.00056067 	0.378994
0.00697324 	-0.00013879 	-0.00056139 	0.379058
0.00702341 	-0.000138136 	-0.00056211 	0.379122
0.00707358 	-0.000137483 	-0.00056283 	0.379186
0.00712375 	-0.000136829 	-0.00056355 	0.37925
0.00717391 	-0.000136176 	-0.00056427 	0.379314
0.00722408 	-0.000135522 	-0.00056499 	0.379378
0.00727425 	-0.000134869 	-0.00056571 	0.379442
0.00732441 	-0.000134216 	-0.00056643 	0.379506
0.00737458 	-0.000133562 	-0.00056715 	0.37957
0.00742475 	-0.000132909 	-0.00056787 	0.379634
0.00747492 	-0.000132255 	-0.00056859 	0.379698
0.00752508 	-0.00013166 	-0.000568913 	0.379663
0.00757525 	-0.000131124 	-0.000568838 	0.379528
0.00762542 	-0.000130588 	-0.000568763 	0.379393
0.00767559 	-0.000130051 	-0.000568688 	0.379259
0.00772575 	-0.000129515 	-0.000568613 	0.379124
0.00777592 	-0.000128979 	-0.000568538 	0.378989
0.00782609 	-0.000128442 	-0.000568463 	0.378854
0.00787625 	-0.000127906 	-0.000568388 	0.378719
0.00792642 	-0.000127369 	-0.000568313 	0.378584
0.00797659 	-0.000126833 	-0.000568238 	0.378449
0.00802676 	-0.000126297 	-0.000568163 	0.378315
0.00807692 	-0.00012576 	-0.000568088 	0.37818
0.00812709 	-0.000125224 	-0.000568013 	0.378045
0.00817726 	-0.000124688 	-0.000567938 	0.37791
0.00822742 	-0.000124151 	-0.000567863 	0.377775
0.00827759 	-0.000123615 	-0.000567788 	0.37764
0.00832776 	-0.000123079 	-0.000567713 	0.377505
0.00837793 	-0.000122542 	-0.000567638 	0.37737
0.00842809 	-0.000122006 	-0.000567563 	0.377236
0.00847826 	-0.000121469 	-0.000567488 	0.377101
0.00852843 	-0.000120933 	-0.000567413 	0.376966
0.0085786 	-0.000120397 	-0.000567338 	0.376831
0.00862876 	-0.00011986 	-0.000567263 	0.376696
0.00867893 	-0.000119324 	-0.000567188 	0.376561
0.0087291 	-0.000118788 	-0.000567113 	0.376426
0.00877926 	-0.000118251 	-0.000567038 	0.376292
0.00882943 	-0.000117715 	-0.000566963 	0.376157
0.0088796 	-0.000117235 	-0.000566559 	0.375941
0.00892977 	-0.000116865 	-0.000565508 	0.375564
0.00897993 	-0.000116495 	-0.000564457 	0.375188
0.0090301 	-0.000116126 	-0.000563406 	0.374811
0.00908027 	-0.000115756 	-0.000562355 	0.374435
0.00913043 	-0.000115386 	-0.000561304 	0.374058
0.0091806 	-0.000115017 	-0.000560252 	0.373682
0.00923077 	-0.000114647 	-0.000559201 	0.373306
0.00928094 	-0.000114277 	-0.00055815 	0.372929
0.0093311 	-0.000113908 	-0.000557099 	0.372553
0.00938127 	-0.000113538 	-0.000556048 	0.372176
0.00943144 	-0.000113168 	-0.000554997 	0.3718
0.00948161 	-0.000112799 	-0.000553946 	0.371423
0.00953177 	-0.000112429 	-0.000552894 	0.371047
0.00958194 	-0.000112059 	-0.000551843 	0.37067
0.00963211 	-0.00011169 	-0.000550792 	0.370294
0.00968227 	-0.00011132 	-0.000549741 	0.369918
0.00973244 	-0.00011095 	-0.00054869 	0.369541
0.00978261 	-0.000110581 	-0.000547639 	0.369165
0.00983278 	-0.000110211 	-0.000546588 	0.368788
0.00988294 	-0.000109841 	-0.000545537 	0.368412
0.00993311 	-0.000109472 	-0.000544485 	0.368035
0.00998328 	-0.000109102 	-0.000543434 	0.367659
0.0100334 	-0.000108751 	-0.000542327 	0.367268
0.0100836 	-0.000108751 	-0.000540161 	0.366606
0.0101338 	-0.000108751 	-0.000537995 	0.365944
0.0101839 	-0.000108751 	-0.000535829 	0.365282
0.0102341 	-0.000108751 	-0.000533664 	0.364619
0.0102843 	-0.000108751 	-0.000531498 	0.363957
0.0103344 	-0.00010875 	-0.000529332 	0.363295
0.0103846 	-0.00010875 	-0.000527167 	0.362633
0.0104348 	-0.00010875 	-0.000525001 	0.361971
0.0104849 	-0.00010875 	-0.000522835 	0.361309
0.0105351 	-0.00010875 	-0.00052067 	0.360647
0.0105853 	-0.00010875 	-0.000518504 	0.359984
0.0106355 	-0.00010875 	-0.000516338 	0.359322
0.0106856 	-0.00010875 	-0.000514173 	0.35866
0.0107358 	-0.00010875 	-0.000512007 	0.357998
0.010786 	-0.000108749 	-0.000509841 	0.357336
0.0108361 	-0.000108749 	-0.000507676 	0.356674
0.0108863 	-0.000108749 	-0.00050551 	0.356012
0.0109365 	-0.000108749 	-0.000503344 	0.355349
0.0109866 	-0.000108749 	-0.000501179 	0.354687
0.0110368 	-0.000108809 	-0.000498872 	0.353992
0.011087 	-0.00010948 	-0.000495123 	0.35296
0.0111371 	-0.000110151 	-0.000491375 	0.351928
0.0111873 	-0.000110822 	-0.000487627 	0.350896
0.0112375 	-0.000111493 	-0.000483879 	0.349864
0.0112876 	-0.000112164 	-0.000480131 	0.348831
0.0113378 	-0.000112835 	-0.000476383 	0.347799
0.011388 	-0.000113507 	-0.000472635 	0.346767
0.0114381 	-0.000114178 	-0.000468887 	0.345735
0.0114883 	-0.000114849 	-0.000465139 	0.344703
0.0115385 	-0.00011552 	-0.000461391 	0.343671
0.0115886 	-0.000116191 	-0.000457643 	0.342639
0.0116388 	-0.000116862 	-0.000453895 	0.341606
0.011689 	-0.000117533 	-0.000450146 	0.340574
0.0117391 	-0.000118204 	-0.000446398 	0.339542
0.0117893 	-0.000118875 	-0.00044265 	0.33851
0.0118395 	-0.000119546 	-0.000438902 	0.337478
0.0118896 	-0.000120217 	-0.000435154 	0.336446
0.0119398 	-0.000121841 	-0.000428948 	0.334873
0.01199 	-0.000123487 	-0.000422684 	0.333287
0.0120401 	-0.000125133 	-0.000416421 	0.331701
0.0120903 	-0.000126779 	-0.000410157 	0.330115
0.0121405 	-0.000128425 	-0.000403894 	0.328529
0.0121906 	-0.000130071 	-0.000397631 	0.326944
0.0122408 	-0.000131717 	-0.000391367 	0.325358
0.012291 	-0.000133363 	-0.000385104 	0.323772
0.0123411 	-0.000135009 	-0.00037884 	0.322186
0.0123913 	-0.000136655 	-0.000372577 	0.3206
0.0124415 	-0.000138301 	-0.000366314 	0.319015
0.0124916 	-0.000139947 	-0.00036005 	0.317429
0.0125418 	-0.000141593 	-0.000353787 	0.315843
0.012592 	-0.000143239 	-0.000347523 	0.314257
0.0126421 	-0.000145157 	-0.000340309 	0.312385
0.0126923 	-0.000147687 	-0.000330961 	0.30987
0.0127425 	-0.000150216 	-0.000321614 	0.307355
0.0127926 	-0.000152745 	-0.000312266 	0.30484
0.0128428 	-0.000155275 	-0.000302919 	0.302325
0.012893 	-0.000157804 	-0.000293571 	0.29981
0.0129431 	-0.000160333 	-0.000284223 	0.297295
0.0129933 	-0.000162863 	-0.000274876 	0.29478
0.0130435 	-0.000165392 	-0.000265528 	0.292265
0.0130936 	-0.000167921 	-0.00025618 	0.28975
0.0131438 	-0.000170451 	-0.000246833 	0.287235
0.013194 	-0.00017298 	-0.000237485 	0.28472
0.0132441 	-0.000175509 	-0.000228137 	0.282206
0.0132943 	-0.000177681 	-0.000217239 	0.278468
0.0133445 	-0.000179723 	-0.000205776 	0.274285
0.0133946 	-0.000181765 	-0.000194313 	0.270102
0.0134448 	-0.000183806 	-0.00018285 	0.26592
0.013495 	-0.000185848 	-0.000171387 	0.261737
0.0135452 	-0.00018789 	-0.000159924 	0.257554
0.0135953 	-0.000189931 	-0.000148462 	0.253372
0.0136455 	-0.000191973 	-0.000136999 	0.249189
0.0136957 	-0.000194015 	-0.000125536 	0.245006
0.0137458 	-0.000196057 	-0.000114073 	0.240824
0.013796 	-0.000198098 	-0.00010261 	0.236641
0.0138462 	-0.000195793 	-9.28837e-05 	0.229179
0.0138963 	-0.000193275 	-8.32417e-05 	0.221557
0.0139465 	-0.000190758 	-7.35996e-05 	0.213935
0.0139967 	-0.00018824 	-6.39576e-05 	0.206313
0.0140468 	-0.000185723 	-5.43155e-05 	0.198691
0.014097 	-0.000183205 	-4.46735e-05 	0.191069
0.0141472 	-0.000180687 	-3.50314e-05 	0.183447
0.0141973 	-0.00017817 	-2.53894e-05 	0.175825
0.0142475 	-0.000175652 	-1.57473e-05 	0.168203
0.0142977 	-0.000167316 	-1.0848e-05 	0.157699
0.0143478 	-0.000156632 	-7.86145e-06 	0.146034
0.014398 	-0.000145948 	-4.87492e-06 	0.134368
0.0144482 	-0.000135264 	-1.88839e-06 	0.122702
0.0144983 	-0.00012458 	1.09814e-06 	0.111037
0.0145485 	-0.000113896 	4.08467e-06 	0.0993712
0.0145987 	-0.000103212 	7.0712e-06 	0.0877057
0.0146488 	-9.25285e-05 	1.00577e-05 	0.0760401
0.014699 	-7.97785e-05 	9.43827e-06 	0.0650289
0.0147492 	-6.64821e-05 	7.86522e-06 	0.0541907
0.0147993 	-5.31857e-05 	6.29218e-06 	0.0433526
0.0148495 	-3.98893e-05 	4.71913e-06 	0.0325144
0.0148997 	-2.65928e-05 	3.14609e-06 	0.0216763
0.0149498 	-1.32964e-05 	1.57304e-06 	0.0108381
0.015 	0 	0 	0
