/*--------------------------------*- C++ -*----------------------------------*\
| =========                 |                                                 |
| \\      /  F ield         | OpenFOAM: The Open Source CFD Toolbox           |
|  \\    /   O peration     | Version:  v1906                                 |
|   \\  /    A nd           | Web:      www.OpenFOAM.com                      |
|    \\/     M anipulation  |                                                 |
\*---------------------------------------------------------------------------*/
FoamFile
{
    version     2.0;
    format      ascii;
    class       surfaceScalarField;
    location    "98.4";
    object      phi;
}
// * * * * * * * * * * * * * * * * * * * * * * * * * * * * * * * * * * * * * //

dimensions      [1 0 -1 0 0 0 0];
oriented        oriented;


internalField   nonuniform List<scalar> 
1417
(
2.77316e-06
-4.56667e-06
-3.75674e-06
-1.23953e-06
5.40264e-06
-3.55164e-06
1.27803e-06
-1.29288e-06
-4.47647e-06
5.10939e-06
-3.96452e-06
3.71569e-06
-9.35268e-06
-1.00625e-05
-1.84383e-06
1.35294e-05
-8.89013e-06
2.06696e-06
-2.38105e-06
-1.18935e-05
1.26181e-05
-1.01104e-05
3.29732e-06
-1.22936e-05
-1.59339e-05
-2.30983e-06
2.27571e-05
-1.41447e-05
2.747e-06
-3.48459e-06
-1.89342e-05
2.09216e-05
-1.61121e-05
2.85829e-06
-1.34742e-05
-2.19833e-05
-2.80572e-06
3.30895e-05
-1.9685e-05
3.42225e-06
-4.67793e-06
-2.62073e-05
2.99546e-05
-2.23502e-05
2.49282e-06
-1.30232e-05
-2.82562e-05
-3.21522e-06
4.44122e-05
-2.5426e-05
3.97262e-06
-5.76203e-06
-3.37058e-05
3.95507e-05
-2.87351e-05
2.12064e-06
-1.10433e-05
-3.4599e-05
-3.6205e-06
5.66248e-05
-3.12902e-05
4.48412e-06
-6.79854e-06
-4.12673e-05
4.95868e-05
-3.51821e-05
1.71588e-06
-7.62133e-06
-4.09488e-05
-4.0462e-06
6.96382e-05
-3.72356e-05
4.98193e-06
-7.92084e-06
-4.88098e-05
5.99713e-05
-4.16507e-05
1.27283e-06
-2.82665e-06
-4.72692e-05
-4.49572e-06
8.3372e-05
-4.32246e-05
5.46966e-06
-9.26439e-06
-5.62779e-05
7.0634e-05
-4.81122e-05
7.93528e-07
3.28825e-06
-5.35325e-05
-4.96518e-06
9.77516e-05
-4.92201e-05
5.94427e-06
-1.09439e-05
-6.36288e-05
8.15179e-05
-5.45428e-05
2.83903e-07
1.06801e-05
-5.97151e-05
-5.44921e-06
0.000112708
-5.51882e-05
6.40196e-06
-1.30488e-05
-7.08318e-05
9.25777e-05
-6.09212e-05
-2.46985e-07
1.9303e-05
-6.57991e-05
-5.94401e-06
0.000128182
-6.11009e-05
6.83917e-06
-1.56412e-05
-7.78712e-05
0.000103782
-6.72302e-05
-7.83619e-07
2.90933e-05
-7.1775e-05
-6.44568e-06
0.000144134
-6.69405e-05
7.21786e-06
-1.87373e-05
-8.47552e-05
0.000115085
-7.34604e-05
-1.30904e-06
3.99604e-05
-7.76472e-05
-6.95105e-06
0.000160546
-7.27029e-05
7.56875e-06
-2.23642e-05
-9.15062e-05
0.000126479
-7.96177e-05
-1.81897e-06
5.18193e-05
-8.34261e-05
-7.44544e-06
0.000177396
-7.84043e-05
7.91347e-06
-2.65389e-05
-9.81413e-05
0.000137974
-8.5711e-05
-2.31875e-06
6.46019e-05
-8.91184e-05
-7.88456e-06
0.000194622
-8.40591e-05
8.24586e-06
-3.12283e-05
-0.000104671
0.000149576
-9.17462e-05
-2.81236e-06
7.82419e-05
-9.47283e-05
-8.34533e-06
0.000212228
-8.96685e-05
8.56393e-06
-3.6479e-05
-0.000111102
0.000161279
-9.77316e-05
-3.30015e-06
9.26711e-05
-0.000100257
-8.81948e-06
0.000230199
-9.52344e-05
8.86515e-06
-4.23291e-05
-0.000117444
0.000173067
-0.000103672
-3.78079e-06
0.000107818
-0.000105706
-9.30058e-06
0.000248517
-0.00010076
9.14761e-06
-4.88097e-05
-0.000123704
0.000184925
-0.000109571
-4.25294e-06
0.000123611
-0.000111081
-9.78411e-06
0.000267159
-0.00010625
9.4097e-06
-5.59492e-05
-0.000129886
0.000196833
-0.000115433
-4.71463e-06
0.000139976
-0.000116391
-1.02665e-05
0.000286102
-0.00011171
9.64973e-06
-6.37747e-05
-0.000135996
0.000208771
-0.000121264
-5.16275e-06
0.00015684
-0.000121649
-1.07445e-05
0.000305322
-0.000117143
9.86581e-06
-7.23093e-05
-0.000142038
0.000220717
-0.000127069
-5.59431e-06
0.000174124
-0.000126871
-1.12162e-05
0.000324801
-0.000122559
1.00565e-05
-8.15697e-05
-0.000148026
0.000232655
-0.000132855
-6.01074e-06
0.000191757
-0.000132069
-1.16823e-05
0.00034452
-0.000127962
1.02225e-05
-9.15666e-05
-0.000153981
0.000244564
-0.000138629
-6.42375e-06
0.000209703
-0.000137248
-1.21477e-05
0.000364458
-0.000133353
1.03683e-05
-0.000102312
-0.000159932
0.000256417
-0.000144391
-6.85163e-06
0.000227979
-0.000142399
-1.26201e-05
0.000384578
-0.000138723
1.05019e-05
-0.000113825
-0.000165907
0.000268172
-0.000150128
-7.31255e-06
0.000246662
-0.000147515
-1.31049e-05
0.000404834
-0.000144054
1.06309e-05
-0.000126138
-0.000171917
0.000279769
-0.000155821
-7.80649e-06
0.00026584
-0.00015261
-1.35986e-05
0.000425172
-0.000149333
1.07494e-05
-0.000139269
-0.000177936
0.000291151
-0.000161459
-8.30975e-06
0.000285536
-0.000157709
-1.40897e-05
0.000445561
-0.000154565
1.08382e-05
-0.000153206
-0.000183914
0.000302294
-0.000167065
-8.79376e-06
0.000305649
-0.000162837
-1.45661e-05
0.000465991
-0.000159779
1.08602e-05
-0.000167879
-0.000189812
0.000313222
-0.000172713
-9.23859e-06
0.000325963
-0.000168007
-1.50214e-05
0.000486469
-0.000165001
1.07774e-05
-0.000183163
-0.000195642
0.000324016
-0.000178501
-9.63567e-06
0.000346226
-0.00017323
-1.54565e-05
0.000507003
-0.000170246
1.05849e-05
-0.000198937
-0.000201462
0.000334788
-0.000184515
-9.98617e-06
0.000366279
-0.000178511
-1.5872e-05
0.000527603
-0.000175527
1.02985e-05
-0.000215115
-0.000207324
0.000345556
-0.000190732
-1.02939e-05
0.000386171
-0.000183856
-1.6261e-05
0.000548267
-0.000180853
9.98421e-06
-0.000231691
-0.000213245
0.000356152
-0.00019695
-1.05604e-05
0.000406034
-0.00018927
-1.66201e-05
0.000568991
-0.000186229
9.73442e-06
-0.000248724
-0.000219218
0.00036636
-0.00020298
-1.07842e-05
0.000425853
-0.00019476
-1.69508e-05
0.000589767
-0.00019166
9.57111e-06
-0.000266249
-0.000225249
0.000376133
-0.000208852
-1.0966e-05
0.00044545
-0.000200339
-1.72547e-05
0.000610587
-0.000197152
9.44346e-06
-0.000284211
-0.000231344
0.000385568
-0.000214708
-1.10933e-05
0.000464657
-0.000206082
-1.75367e-05
0.000631453
-0.000202711
9.28788e-06
-0.000302503
-0.00023751
0.000394762
-0.000220639
-1.10394e-05
0.000483265
-0.000212151
-1.77686e-05
0.000652454
-0.000208354
9.08235e-06
-0.000320995
-0.000243753
0.000403832
-0.000226644
-1.05705e-05
0.000500851
-0.000218738
-1.78052e-05
0.000673773
-0.000214194
8.8433e-06
-0.000339444
-0.000250075
0.00041291
-0.000232701
-9.67656e-06
0.000517138
-0.000225653
-1.75549e-05
0.000695597
-0.000220487
8.56417e-06
-0.000357542
-0.000256469
0.000421837
-0.00023881
-8.51107e-06
0.000532111
-0.000232217
-1.70208e-05
0.000718009
-0.000227511
8.21094e-06
-0.000375009
-0.000262922
0.000430229
-0.000244972
-7.34607e-06
0.000545863
-0.000238456
-1.61993e-05
0.000740599
-0.000234912
7.82266e-06
-0.000391696
-0.000269426
0.00043803
-0.00025119
-7.02326e-06
0.000559191
-0.000244747
-1.55923e-05
0.000762413
-0.00024158
7.40464e-06
-0.000408003
-0.000275977
0.000445365
-0.000257466
-7.16777e-06
0.000572488
-0.000251226
-1.54519e-05
0.000783451
-0.000247688
6.95032e-06
-0.000424449
-0.000282729
0.000452296
-0.000263802
-7.18848e-06
0.000585561
-0.000257828
-1.5602e-05
0.000804276
-0.000253847
6.51749e-06
-0.000441177
-0.000290073
0.00045887
-0.000270197
-6.95065e-06
0.000598048
-0.000264509
-1.58619e-05
0.000825326
-0.000260249
6.153e-06
-0.00045807
-0.000298466
0.000465171
-0.000276655
-6.58781e-06
0.000609659
-0.00027127
-1.60198e-05
0.000846643
-0.000266812
5.64203e-06
-0.000474823
-0.000307638
0.00047106
-0.000283174
-6.18838e-06
0.000620207
-0.000278118
-1.58447e-05
0.00086794
-0.000273484
4.88035e-06
-0.000491118
-0.000315757
0.000476278
-0.000289754
-5.74914e-06
0.000629621
-0.000285059
-1.55423e-05
0.000889139
-0.000280272
4.13935e-06
-0.000506994
-0.000322979
0.000480814
-0.000296397
-5.26352e-06
0.000637906
-0.000292096
-1.5281e-05
0.000910324
-0.000287185
3.45957e-06
-0.000522673
-0.000330174
0.000484673
-0.000303104
-4.72575e-06
0.000645037
-0.000299231
-1.5038e-05
0.000931557
-0.000294229
2.77273e-06
-0.000538368
-0.000337604
0.000487804
-0.000309876
-4.13368e-06
0.000650943
-0.00030646
-1.47526e-05
0.000952833
-0.000301409
2.08645e-06
-0.000554087
-0.000345137
0.000490213
-0.000316718
-3.4874e-06
0.000655515
-0.000313858
-1.4419e-05
0.000974159
-0.000308731
1.40398e-06
-0.000569558
-0.000352717
0.000491975
-0.000323635
-2.64364e-06
0.000658428
-0.000321648
-1.40418e-05
0.000995722
-0.000316198
7.07842e-07
-0.000584529
-0.000360501
0.000493294
-0.000330629
-1.44686e-06
0.000659183
-0.000330074
-1.36902e-05
0.00101797
-0.000323815
1.25314e-08
-0.000598904
-0.000368925
0.000494424
-0.000337707
-3.13908e-07
0.000657838
-0.000338854
-1.34247e-05
0.00104101
-0.000331584
-6.7806e-07
-0.000612651
-0.000378484
0.000495165
-0.00034487
3.9966e-07
0.000654901
-0.000347014
-1.30802e-05
0.00106437
-0.000339508
-1.46645e-06
-0.000625716
-0.000388989
0.000495071
-0.000352124
1.18583e-06
0.000650179
-0.000354859
-1.24777e-05
0.00108789
-0.000347585
-2.35376e-06
-0.00063827
-0.000398817
0.000494171
-0.000359473
2.22154e-06
0.00064325
-0.000363033
-1.17802e-05
0.00111175
-0.000355816
-3.2157e-06
-0.000650864
-0.000407824
0.000492685
-0.000366923
3.55477e-06
0.000633609
-0.000372048
-1.11131e-05
0.00113622
-0.000364199
-4.02795e-06
-0.000663965
-0.000416666
0.000490971
-0.000374478
5.58656e-06
0.000620399
-0.000382549
-1.04702e-05
0.00116182
-0.000372734
-4.83488e-06
-0.000677309
-0.000425616
0.000489508
-0.000382144
7.64254e-06
0.000603928
-0.000394821
-9.63886e-06
0.00118803
-0.000381422
-5.65584e-06
-0.000690019
-0.000434667
0.000487995
-0.000389925
8.30469e-06
0.000586153
-0.000405289
-8.64293e-06
0.00121291
-0.000390264
-6.46845e-06
-0.000701549
-0.000443812
0.000485321
-0.000397827
8.82331e-06
0.000567497
-0.000414326
-7.55477e-06
0.00123622
-0.000399263
-7.29717e-06
-0.000711616
-0.000453059
0.000481624
-0.000405851
9.79179e-06
0.000547581
-0.000423577
-6.38616e-06
0.0012587
-0.000408422
-8.13201e-06
-0.000720041
-0.000462395
0.000477412
-0.000414002
1.09748e-05
0.000526089
-0.000433331
-5.148e-06
0.00128082
-0.00041774
-8.96656e-06
-0.000726734
-0.000471808
0.000472901
-0.00042228
1.20298e-05
0.000502991
-0.000443226
-3.81012e-06
0.00130249
-0.00042721
-9.79947e-06
-0.000731571
-0.000481279
0.000468118
-0.000430685
1.30556e-05
0.000478147
-0.000453136
-2.18945e-06
0.00132343
-0.000436821
-1.06286e-05
-0.000734261
-0.00049079
0.000463094
-0.000439216
1.41029e-05
0.0004514
-0.000463082
-6.35456e-07
0.00134368
-0.000446559
-1.14496e-05
-0.000735018
-0.000500325
0.000457842
-0.000447867
1.51402e-05
0.000422638
-0.000473063
8.98146e-07
0.00136318
-0.000456404
-1.22587e-05
-0.000734239
-0.000509881
0.000452352
-0.000456631
1.61433e-05
0.000391797
-0.000483077
2.41846e-06
0.00138179
-0.000466302
-1.30483e-05
-0.000732285
-0.000519484
0.000446591
-0.000465495
1.73235e-05
0.00035872
-0.000493121
4.1715e-06
0.00139919
-0.000476511
-1.38078e-05
-0.000728847
-0.000529191
0.000440417
-0.000474442
1.92496e-05
0.000322649
-0.000503199
6.48979e-06
0.00141545
-0.000487939
-1.45243e-05
-0.000723025
-0.000539053
0.000433743
-0.000483449
2.26347e-05
0.00028204
-0.000513307
9.83607e-06
0.00143129
-0.000501872
-1.51871e-05
-0.000713539
-0.000549091
0.000426568
-0.000492476
2.7771e-05
0.000235115
-0.000523438
1.5131e-05
0.00144636
-0.000519077
-1.57826e-05
-0.000698315
-0.000559304
0.000418822
-0.000501461
3.04193e-05
0.000184389
-0.00053358
1.9249e-05
0.00145797
-0.00053197
-1.62899e-05
-0.000678468
-0.000569691
0.000410393
-0.000510318
3.14119e-05
0.00013151
-0.000543719
2.18731e-05
0.00146619
-0.000542294
-1.67508e-05
-0.000655408
-0.000580246
0.000401432
-0.00051925
3.22417e-05
7.65073e-05
-0.000553835
2.40211e-05
0.00147208
-0.000552674
-1.71336e-05
-0.000629531
-0.000590958
0.000393083
-0.000528922
3.32141e-05
-0.000563832
2.62347e-05
-0.000563442
-1.71417e-05
-0.000601743
-0.000538969
3.81529e-07
-7.65748e-08
-7.84454e-07
4.43524e-08
4.25534e-07
-1.31069e-06
-3.62595e-07
2.52422e-07
1.03341e-06
-1.4072e-06
1.21984e-06
6.6667e-07
-2.78415e-06
1.92386e-07
-3.74487e-08
3.63753e-06
-1.72934e-06
3.52722e-06
7.01897e-07
-3.62854e-06
1.86793e-06
-2.87764e-07
7.43979e-06
-2.04767e-06
6.68753e-06
6.88021e-07
-4.08044e-06
4.30499e-06
-5.27329e-07
1.21693e-05
-2.38968e-06
1.0449e-05
6.5256e-07
-4.45836e-06
7.19733e-06
-7.59698e-07
1.76863e-05
-2.72172e-06
1.46554e-05
5.97127e-07
-4.88542e-06
1.03931e-05
-9.85486e-07
2.38972e-05
-3.01957e-06
1.91823e-05
5.21851e-07
-5.38867e-06
1.3806e-05
-1.20424e-06
3.07213e-05
-3.32651e-06
2.39784e-05
4.26679e-07
-5.99987e-06
1.73815e-05
-1.41283e-06
3.80738e-05
-3.62866e-06
2.89981e-05
3.11742e-07
-6.71585e-06
2.10818e-05
-1.61258e-06
4.58689e-05
-3.91895e-06
3.41973e-05
1.77424e-07
-7.51884e-06
2.48775e-05
-1.80322e-06
5.40217e-05
-4.19396e-06
3.95331e-05
2.50219e-08
-8.39029e-06
2.87433e-05
-1.98357e-06
6.24506e-05
-4.45263e-06
4.4963e-05
-1.44305e-07
-9.32487e-06
3.2652e-05
-2.15186e-06
7.1071e-05
-4.69543e-06
5.0441e-05
-3.30288e-07
-1.03337e-05
3.65666e-05
-2.30597e-06
7.97912e-05
-4.9225e-06
5.59146e-05
-5.32264e-07
-1.14277e-05
4.04507e-05
-2.44482e-06
8.85222e-05
-5.1323e-06
6.13285e-05
-7.49937e-07
-1.26059e-05
4.42778e-05
-2.56829e-06
9.72063e-05
-5.32275e-06
6.66311e-05
-9.83268e-07
-1.38608e-05
4.8003e-05
-2.67612e-06
0.000105777
-5.49243e-06
7.17734e-05
-1.23227e-06
-1.51818e-05
5.16027e-05
-2.76761e-06
0.000114173
-5.64042e-06
7.67099e-05
-1.49676e-06
-1.65554e-05
5.50566e-05
-2.84187e-06
0.000122338
-5.76601e-06
8.13995e-05
-1.77352e-06
-1.79689e-05
5.83494e-05
-2.89794e-06
0.000130222
-5.86885e-06
8.58073e-05
-2.06486e-06
-1.94074e-05
6.14647e-05
-2.93486e-06
0.000137776
-5.94928e-06
8.99041e-05
-2.37035e-06
-2.086e-05
6.43859e-05
-2.95151e-06
0.000144963
-6.00842e-06
9.3668e-05
-2.68884e-06
-2.23237e-05
6.70901e-05
-2.94706e-06
0.000151764
-6.04788e-06
9.70848e-05
-3.01938e-06
-2.38081e-05
6.95423e-05
-2.92157e-06
0.000158139
-6.06937e-06
0.000100153
-3.3609e-06
-2.53399e-05
7.17516e-05
-2.8757e-06
0.000164078
-6.07405e-06
0.000102891
-3.71224e-06
-2.69546e-05
7.3738e-05
-2.81007e-06
0.000169595
-6.06238e-06
0.000105346
-4.07192e-06
-2.86787e-05
7.55425e-05
-2.7253e-06
0.000174705
-6.03493e-06
0.00010759
-4.43804e-06
-3.05017e-05
7.72152e-05
-2.62225e-06
0.000179412
-5.99264e-06
0.000109693
-4.80823e-06
-3.23517e-05
7.87825e-05
-2.50206e-06
0.000183713
-5.93666e-06
0.000111707
-5.17959e-06
-3.41089e-05
8.02034e-05
-2.36612e-06
0.000187602
-5.86842e-06
0.000113663
-5.54891e-06
-3.56605e-05
8.13455e-05
-2.2159e-06
0.000191077
-5.78974e-06
0.00011558
-5.91395e-06
-3.6946e-05
8.19838e-05
-2.05194e-06
0.000194134
-5.70258e-06
0.000117473
-6.27383e-06
-3.79535e-05
8.19239e-05
-1.87405e-06
0.000196774
-5.60779e-06
0.000119355
-6.62832e-06
-3.86808e-05
8.12544e-05
-1.68317e-06
0.000199001
-5.50564e-06
0.000121241
-6.97748e-06
-3.9116e-05
8.04133e-05
-1.4806e-06
0.000200818
-5.39688e-06
0.000123148
-7.32176e-06
-3.92474e-05
7.98713e-05
-1.26713e-06
0.000202225
-5.28254e-06
0.000125091
-7.6625e-06
-3.90667e-05
7.97226e-05
-1.04365e-06
0.000203154
-5.16379e-06
0.000127082
-8.00103e-06
-3.85682e-05
7.97408e-05
-8.10864e-07
0.000203376
-5.0418e-06
0.000129121
-8.337e-06
-3.77488e-05
7.97191e-05
-5.68907e-07
0.000202447
-4.91794e-06
0.000131099
-8.66895e-06
-3.6606e-05
7.9576e-05
-3.17857e-07
0.000200104
-4.79408e-06
0.000132653
-8.9957e-06
-3.51293e-05
7.92958e-05
-5.53999e-08
0.000196941
-4.67129e-06
0.00013315
-9.31651e-06
-3.32936e-05
7.88799e-05
1.93722e-07
0.000193983
-4.54668e-06
0.000132287
-9.63057e-06
-3.10583e-05
7.83251e-05
4.46337e-07
0.000192228
-4.41485e-06
0.000130898
-9.9369e-06
-2.83726e-05
7.76248e-05
7.11362e-07
0.000191901
-4.27442e-06
0.000129655
-1.02347e-05
-2.53383e-05
7.67692e-05
9.88758e-07
0.000192256
-4.1257e-06
0.000128625
-1.05231e-05
-2.24508e-05
7.57458e-05
1.27783e-06
0.000192709
-3.96931e-06
0.000127682
-1.08017e-05
-2.06607e-05
7.45402e-05
1.57747e-06
0.000192963
-3.80671e-06
0.000126786
-1.10703e-05
-2.06417e-05
7.31368e-05
1.88577e-06
0.000192914
-3.64047e-06
0.000125949
-1.13286e-05
-2.12237e-05
7.1519e-05
2.16321e-06
0.000192596
-3.47277e-06
0.000125143
-1.15764e-05
-2.13824e-05
6.96695e-05
2.45363e-06
0.000191992
-3.30531e-06
0.000124377
-1.18131e-05
-2.09609e-05
6.75696e-05
2.75631e-06
0.000191078
-3.1394e-06
0.000123658
-1.20388e-05
-2.00641e-05
6.51983e-05
3.06417e-06
0.000189839
-2.97596e-06
0.000122982
-1.22536e-05
-1.86654e-05
6.25313e-05
3.37278e-06
0.000188187
-2.81556e-06
0.000122339
-1.24579e-05
-1.66858e-05
5.9541e-05
3.67863e-06
0.000185805
-2.65838e-06
0.000121713
-1.26523e-05
-1.42043e-05
5.6198e-05
3.9788e-06
0.000182129
-2.50417e-06
0.000121082
-1.2838e-05
-1.17366e-05
5.24733e-05
4.27101e-06
0.00017688
-2.35233e-06
0.000120425
-1.30166e-05
-1.02886e-05
4.83387e-05
4.5541e-06
0.00017077
-2.20217e-06
0.000119717
-1.31905e-05
-1.06637e-05
4.37665e-05
4.82653e-06
0.000164211
-2.05304e-06
0.000118938
-1.33628e-05
-1.20185e-05
3.87293e-05
5.08591e-06
0.000156982
-1.90358e-06
0.000118071
-1.35373e-05
-1.33514e-05
3.3202e-05
5.32923e-06
0.000148361
-1.75179e-06
0.000117096
-1.3718e-05
-1.43101e-05
2.71626e-05
5.55314e-06
0.00013689
-1.59529e-06
0.000115997
-1.39093e-05
-1.48229e-05
2.05926e-05
5.75578e-06
0.000120716
-1.43146e-06
0.000114754
-1.41162e-05
-1.48168e-05
1.34769e-05
5.94046e-06
0.000102052
-1.25769e-06
0.000113343
-1.43441e-05
-1.42132e-05
5.80083e-06
6.11087e-06
8.41199e-05
-1.07214e-06
0.000111735
-1.45985e-05
-1.29335e-05
-2.45035e-06
6.27225e-06
6.92912e-05
-8.74349e-07
0.000109893
-1.48853e-05
-1.08825e-05
-1.12959e-05
6.43511e-06
5.62899e-05
-6.65498e-07
0.00010779
-1.52102e-05
-7.9451e-06
-2.07665e-05
6.60224e-06
4.35027e-05
-4.4894e-07
0.000105402
-1.55799e-05
-3.98499e-06
-3.08973e-05
6.76682e-06
2.9888e-05
-2.31082e-07
0.00010271
-1.60012e-05
1.15346e-06
-4.17207e-05
6.91631e-06
1.49633e-05
-2.10297e-08
9.96946e-05
-1.64817e-05
7.63898e-06
-5.32666e-05
7.03316e-06
-1.37855e-06
1.63887e-07
9.63419e-05
-1.70296e-05
1.56312e-05
-6.55653e-05
7.09405e-06
-1.91713e-05
3.00322e-07
9.26715e-05
-1.76546e-05
2.52401e-05
-7.86529e-05
7.06893e-06
-3.84211e-05
3.56788e-07
8.84261e-05
-1.83674e-05
3.64733e-05
-9.25746e-05
6.918e-06
-5.9103e-05
2.91022e-07
8.24181e-05
-1.91794e-05
4.92291e-05
-0.000107468
6.60212e-06
-8.11633e-05
6.07987e-08
7.20628e-05
-2.01024e-05
6.33348e-05
-0.000124058
6.13115e-06
-0.000104564
-3.28439e-07
5.38791e-05
-2.11473e-05
7.86165e-05
-0.000144092
5.60183e-06
-0.000129372
-7.53533e-07
3.24534e-05
-2.23242e-05
9.50203e-05
-0.0001706
5.05597e-06
-0.000155726
-1.16255e-06
1.23166e-05
-2.36488e-05
0.000112553
-0.000206467
4.49782e-06
-0.000183785
-1.54275e-06
-3.50552e-06
-2.51354e-05
0.00013124
-0.000247415
3.88092e-06
-0.000213537
-1.92361e-06
-1.65789e-05
-2.67488e-05
3.10681e-06
)
;

boundaryField
{
    leftWall
    {
        type            calculated;
        value           uniform 0;
    }
    rightWall
    {
        type            calculated;
        value           nonuniform 0();
    }
    leftSides_periodic0
    {
        type            cyclic;
        value           nonuniform 0();
    }
    leftSides_periodic1
    {
        type            cyclic;
        value           nonuniform 0();
    }
    rightSides_periodic0
    {
        type            cyclic;
        value           nonuniform 0();
    }
    rightSides_periodic1
    {
        type            cyclic;
        value           nonuniform 0();
    }
    leftInOut_periodic0
    {
        type            cyclic;
        value           nonuniform List<scalar> 
158
(
-2.67521e-06
-3.52231e-06
-3.03276e-06
-2.50492e-06
-2.03919e-06
-1.57192e-06
-1.08759e-06
-5.86835e-07
-7.46409e-08
4.42403e-07
9.54314e-07
1.44516e-06
1.90365e-06
2.33208e-06
2.73642e-06
3.1181e-06
3.47626e-06
3.81018e-06
4.119e-06
4.40121e-06
4.65412e-06
4.87507e-06
5.06572e-06
5.23807e-06
5.41416e-06
5.61162e-06
5.82361e-06
6.0058e-06
6.08062e-06
5.96641e-06
5.64009e-06
5.19365e-06
4.84337e-06
4.72461e-06
4.74404e-06
4.7397e-06
4.6306e-06
4.34864e-06
3.89292e-06
3.54765e-06
3.50555e-06
3.47584e-06
3.28639e-06
2.9933e-06
2.67142e-06
2.33504e-06
1.98876e-06
1.63697e-06
1.28192e-06
9.24188e-07
5.63512e-07
2.00646e-07
-1.57696e-07
-6.34988e-07
-1.31349e-06
-1.77205e-06
-1.87932e-06
-2.11884e-06
-2.55202e-06
-3.29376e-06
-4.50706e-06
-5.42936e-06
-5.22989e-06
-5.18214e-06
-5.64883e-06
-6.336e-06
-7.0625e-06
-7.83447e-06
-8.64889e-06
-9.50417e-06
-1.03986e-05
-1.1232e-05
-1.20584e-05
-1.29693e-05
-1.39216e-05
-1.48684e-05
-1.58484e-05
-1.69751e-05
-1.8108e-05
-2.7611e-07
-2.91758e-07
-2.43675e-07
-1.9727e-07
-1.46276e-07
-1.03998e-07
-7.64421e-08
-6.64671e-08
-7.56636e-08
-1.05106e-07
-1.55664e-07
-2.28143e-07
-3.23277e-07
-4.4247e-07
-5.86806e-07
-7.34148e-07
-9.01741e-07
-1.08911e-06
-1.29544e-06
-1.51948e-06
-1.7596e-06
-2.00654e-06
-2.24455e-06
-2.50671e-06
-2.78354e-06
-3.06993e-06
-3.36208e-06
-3.65661e-06
-3.9499e-06
-4.23876e-06
-4.52118e-06
-4.79574e-06
-5.06143e-06
-5.318e-06
-5.56546e-06
-5.80423e-06
-6.0353e-06
-6.25891e-06
-6.47402e-06
-6.67925e-06
-6.87356e-06
-7.05594e-06
-7.22487e-06
-7.37847e-06
-7.51517e-06
-7.63453e-06
-7.73619e-06
-7.81952e-06
-7.88401e-06
-7.92959e-06
-7.95668e-06
-7.96627e-06
-7.95997e-06
-7.94014e-06
-7.9098e-06
-7.87233e-06
-7.83134e-06
-7.79183e-06
-7.76045e-06
-7.74545e-06
-7.75587e-06
-7.80043e-06
-7.88523e-06
-8.01557e-06
-8.19159e-06
-8.40622e-06
-8.6596e-06
-8.95906e-06
-9.31342e-06
-9.73162e-06
-1.02229e-05
-1.07968e-05
-1.14636e-05
-1.22343e-05
-1.31215e-05
-1.41415e-05
-1.53192e-05
-1.66796e-05
-1.82124e-05
)
;
    }
    leftInOut_periodic1
    {
        type            cyclic;
        value           nonuniform List<scalar> 
158
(
2.67521e-06
3.52231e-06
3.03276e-06
2.50492e-06
2.03919e-06
1.57192e-06
1.08759e-06
5.86835e-07
7.46409e-08
-4.42403e-07
-9.54314e-07
-1.44516e-06
-1.90365e-06
-2.33208e-06
-2.73642e-06
-3.1181e-06
-3.47626e-06
-3.81018e-06
-4.119e-06
-4.40121e-06
-4.65412e-06
-4.87507e-06
-5.06572e-06
-5.23807e-06
-5.41416e-06
-5.61162e-06
-5.82361e-06
-6.0058e-06
-6.08062e-06
-5.96641e-06
-5.64009e-06
-5.19365e-06
-4.84337e-06
-4.72461e-06
-4.74404e-06
-4.7397e-06
-4.6306e-06
-4.34864e-06
-3.89292e-06
-3.54765e-06
-3.50555e-06
-3.47584e-06
-3.28639e-06
-2.9933e-06
-2.67142e-06
-2.33504e-06
-1.98876e-06
-1.63697e-06
-1.28192e-06
-9.24188e-07
-5.63512e-07
-2.00646e-07
1.57696e-07
6.34988e-07
1.31349e-06
1.77205e-06
1.87932e-06
2.11884e-06
2.55202e-06
3.29376e-06
4.50706e-06
5.42936e-06
5.22989e-06
5.18214e-06
5.64883e-06
6.336e-06
7.0625e-06
7.83447e-06
8.64889e-06
9.50417e-06
1.03986e-05
1.1232e-05
1.20584e-05
1.29693e-05
1.39216e-05
1.48684e-05
1.58484e-05
1.69751e-05
1.8108e-05
2.7611e-07
2.91758e-07
2.43675e-07
1.9727e-07
1.46276e-07
1.03998e-07
7.64421e-08
6.64671e-08
7.56636e-08
1.05106e-07
1.55664e-07
2.28143e-07
3.23277e-07
4.4247e-07
5.86806e-07
7.34148e-07
9.01741e-07
1.08911e-06
1.29544e-06
1.51948e-06
1.7596e-06
2.00654e-06
2.24455e-06
2.50671e-06
2.78354e-06
3.06993e-06
3.36208e-06
3.65661e-06
3.9499e-06
4.23876e-06
4.52118e-06
4.79574e-06
5.06143e-06
5.318e-06
5.56546e-06
5.80423e-06
6.0353e-06
6.25891e-06
6.47402e-06
6.67925e-06
6.87356e-06
7.05594e-06
7.22487e-06
7.37847e-06
7.51517e-06
7.63453e-06
7.73619e-06
7.81952e-06
7.88401e-06
7.92959e-06
7.95668e-06
7.96627e-06
7.95997e-06
7.94014e-06
7.9098e-06
7.87233e-06
7.83134e-06
7.79183e-06
7.76045e-06
7.74545e-06
7.75587e-06
7.80043e-06
7.88523e-06
8.01557e-06
8.19159e-06
8.40622e-06
8.6596e-06
8.95906e-06
9.31342e-06
9.73162e-06
1.02229e-05
1.07968e-05
1.14636e-05
1.22343e-05
1.31215e-05
1.41415e-05
1.53192e-05
1.66796e-05
1.82124e-05
)
;
    }
    rightInOut_periodic0
    {
        type            cyclic;
        value           nonuniform 0();
    }
    rightInOut_periodic1
    {
        type            cyclic;
        value           nonuniform 0();
    }
    procBoundary2to0
    {
        type            processor;
        value           nonuniform List<scalar> 
316
(
2.88513e-06
2.15812e-06
3.25401e-06
2.80243e-06
7.64411e-06
6.30974e-06
9.07633e-06
8.16937e-06
1.26073e-05
1.04984e-05
1.49893e-05
1.35488e-05
1.7895e-05
1.49764e-05
2.11829e-05
1.91878e-05
2.33979e-05
1.97551e-05
2.76118e-05
2.50805e-05
2.90736e-05
2.47471e-05
3.42058e-05
3.11249e-05
3.48792e-05
2.99024e-05
4.09053e-05
3.72604e-05
4.0768e-05
3.51755e-05
4.76511e-05
4.3439e-05
4.66949e-05
4.05211e-05
5.43879e-05
4.96215e-05
5.26194e-05
4.58964e-05
6.107e-05
5.57746e-05
5.85101e-05
5.12651e-05
6.7666e-05
6.18736e-05
6.43466e-05
5.66015e-05
7.41695e-05
6.79033e-05
7.01242e-05
6.18932e-05
8.05891e-05
7.38675e-05
7.58466e-05
6.71448e-05
8.69305e-05
7.97764e-05
8.15193e-05
7.2365e-05
9.32013e-05
8.56366e-05
8.71473e-05
7.75643e-05
9.94137e-05
9.14608e-05
9.2733e-05
8.27527e-05
0.000105579
9.72603e-05
9.82794e-05
8.79344e-05
0.000111704
0.000103041
0.00010379
9.31131e-05
0.0001178
0.000108808
0.000109271
9.82932e-05
0.000123872
0.000114569
0.000114733
0.000103479
0.000129928
0.000120329
0.000120189
0.000108677
0.000135978
0.000126096
0.000125646
0.000113891
0.000142037
0.000131877
0.0001311
0.000119119
0.000148126
0.00013767
0.000136523
0.000124351
0.000154268
0.000143466
0.000141888
0.00012957
0.000160468
0.000149247
0.000147192
0.000134761
0.000166697
0.000155001
0.00015246
0.000139926
0.0001729
0.000160748
0.000157731
0.000145089
0.000179027
0.000166556
0.000163032
0.000150276
0.000185091
0.000172514
0.000168377
0.000155504
0.000191157
0.000178697
0.000173772
0.000160786
0.000197299
0.00018509
0.000179236
0.000166129
0.000203544
0.000191517
0.000184825
0.000171539
0.000209868
0.000197789
0.000190599
0.000177023
0.000216225
0.000203902
0.000196569
0.000182591
0.000222582
0.000209975
0.00020271
0.000188252
0.000228953
0.000216105
0.000209063
0.000194031
0.000235371
0.00022231
0.000215802
0.000200043
0.000241855
0.000228576
0.000222795
0.000206495
0.000248426
0.000234901
0.000229414
0.000213624
0.000255136
0.000241287
0.000235648
0.000221213
0.000262068
0.000247736
0.000241856
0.000228305
0.00026926
0.000254249
0.000248224
0.000234876
0.000276744
0.000260827
0.000254749
0.000241392
0.000284662
0.000267467
0.000261442
0.000248077
0.000293338
0.000274168
0.000268369
0.000254897
0.00030272
0.000280932
0.000275526
0.000261814
0.000311312
0.000287772
0.000282805
0.000268839
0.000319158
0.000294711
0.000290123
0.000275988
0.000327096
0.000301769
0.000297505
0.00028328
0.000335473
0.000308943
0.00030499
0.000290724
0.000344003
0.000316182
0.000312689
0.000298309
0.000352352
0.000323419
0.000320838
0.000306006
0.000360716
0.000330636
0.000329655
0.000313781
0.000369591
0.000337884
0.000338943
0.000321635
0.000379457
0.000345202
0.0003478
0.0003296
0.000390398
0.000352609
0.000356364
0.000337699
0.000401221
0.000360114
0.000365234
0.000345936
0.000411839
0.00036772
0.000374913
0.000354376
0.000422666
0.00037543
0.000385938
0.000363166
0.000433313
0.000383249
0.000398592
0.000372477
0.000443385
0.000391181
0.000409663
0.000382316
0.000453163
0.00039923
0.000419036
0.000392313
0.000462865
0.000407399
0.000428148
0.000402098
0.000472564
0.000415696
0.00043762
0.000411724
0.000482318
0.000424125
0.000447341
0.000421364
0.000492101
0.000432693
0.000457196
0.000431116
0.000501912
0.000441407
0.000467183
0.000441027
0.000511884
0.000450279
0.000477282
0.00045112
0.000522243
0.000459326
0.000487475
0.000461378
0.000532977
0.000468565
0.000497741
0.000472166
0.000543711
0.000477998
0.000508059
0.000484346
0.000554222
0.000487614
0.000518408
0.000498898
0.000564603
0.000497391
0.000528764
0.000516764
0.000574967
0.000507302
0.000539107
0.000531482
0.000585355
0.000517282
0.000549422
0.000543531
0.000595772
0.000527261
0.000559702
0.000554967
0.000606195
0.000537066
0.000569902
0.000566504
0.000616567
0.00054585
)
;
    }
    procBoundary2to0throughleftSides_periodic1
    {
        type            processorCyclic;
        value           nonuniform List<scalar> 
314
(
-4.33392e-06
-1.17053e-05
-1.87261e-05
-2.56716e-05
-3.25775e-05
-3.94301e-05
-4.62173e-05
-5.29181e-05
-5.95062e-05
-6.59576e-05
-7.22571e-05
-7.8401e-05
-8.43924e-05
-9.02371e-05
-9.59478e-05
-0.000101539
-0.000107018
-0.000112394
-0.000117676
-0.000122876
-0.000128012
-0.000133101
-0.000138161
-0.000143205
-0.000148247
-0.000153297
-0.000158367
-0.000163466
-0.000168605
-0.000173792
-0.000179036
-0.000184343
-0.000189719
-0.00019517
-0.000200705
-0.000206329
-0.000212052
-0.000217874
-0.00022377
-0.000229731
-0.000235935
-0.000242814
-0.000250731
-0.000259059
-0.000266759
-0.000273948
-0.000280914
-0.000287854
-0.000294869
-0.000301957
-0.000309114
-0.000316337
-0.000323624
-0.000330971
-0.000338373
-0.000345836
-0.000353374
-0.000361001
-0.00036873
-0.00037658
-0.000384463
-0.000392276
-0.000400518
-0.000410583
-0.00042327
-0.000435224
-0.000445749
-0.000455291
-0.000464426
-0.000473521
-0.00048263
-0.000491761
-0.000500916
-0.000510095
-0.000519296
-0.000528514
-0.000537733
-0.000546937
-0.000556148
-2.43101e-06
-8.40958e-06
-1.47673e-05
-2.10971e-05
-2.73419e-05
-3.35556e-05
-3.97516e-05
-4.59208e-05
-5.20441e-05
-5.80984e-05
-6.4061e-05
-6.99147e-05
-7.565e-05
-8.12727e-05
-8.67956e-05
-9.22259e-05
-9.75692e-05
-0.000102832
-0.000108024
-0.000113154
-0.000118233
-0.000123272
-0.000128284
-0.000133278
-0.000138268
-0.000143262
-0.00014827
-0.000153301
-0.000158361
-0.000163457
-0.000168591
-0.00017377
-0.000179001
-0.000184293
-0.000189652
-0.00019508
-0.000200582
-0.000206162
-0.000211822
-0.000217564
-0.00022339
-0.000229308
-0.000235328
-0.000241457
-0.000247699
-0.000254055
-0.000260527
-0.000267116
-0.000273825
-0.000280654
-0.000287607
-0.000294685
-0.000301891
-0.000309226
-0.000316692
-0.000324293
-0.000332033
-0.000339916
-0.000347947
-0.000356131
-0.000364474
-0.000372978
-0.000381641
-0.000390458
-0.000399421
-0.000408523
-0.000417758
-0.000427118
-0.000436593
-0.000446168
-0.000455823
-0.000465537
-0.000475287
-0.000484955
-0.00049441
-0.000504161
-0.000515906
-0.000530771
-0.00054452
-4.38157e-06
-1.25104e-05
-2.05465e-05
-2.85235e-05
-3.64058e-05
-4.41956e-05
-5.18854e-05
-5.94585e-05
-6.6892e-05
-7.41625e-05
-8.12532e-05
-8.8158e-05
-9.4885e-05
-0.000101457
-0.000107891
-0.000114199
-0.000120391
-0.000126477
-0.000132464
-0.000138356
-0.000144156
-0.000149869
-0.000155507
-0.000161086
-0.000166628
-0.000172153