/*--------------------------------*- C++ -*----------------------------------*\
| =========                 |                                                 |
| \\      /  F ield         | OpenFOAM: The Open Source CFD Toolbox           |
|  \\    /   O peration     | Version:  v1906                                 |
|   \\  /    A nd           | Web:      www.OpenFOAM.com                      |
|    \\/     M anipulation  |                                                 |
\*---------------------------------------------------------------------------*/
FoamFile
{
    version     2.0;
    format      ascii;
    class       volScalarField;
    location    "98.4";
    object      T;
}
// * * * * * * * * * * * * * * * * * * * * * * * * * * * * * * * * * * * * * //

dimensions      [0 0 0 1 0 0 0];


internalField   nonuniform List<scalar> 
634
(
371.651
372.108
371.632
371.487
368.943
370.309
368.881
368.447
366.198
368.472
366.077
365.367
363.429
366.59
363.227
362.268
360.689
364.672
360.396
359.221
358.108
362.757
357.755
356.381
355.852
360.93
355.506
353.932
354.029
359.292
353.742
351.978
352.629
357.912
352.413
350.494
351.574
356.796
351.414
349.382
350.773
355.906
350.647
348.54
350.153
355.193
350.037
347.888
349.658
354.611
349.53
347.364
349.25
354.123
349.099
346.928
348.907
353.7
348.727
346.558
348.614
353.331
348.402
346.24
348.361
353.003
348.115
345.964
348.141
352.712
347.861
345.722
347.948
352.45
347.633
345.507
347.777
352.212
347.429
345.316
347.624
351.997
347.246
345.145
347.487
351.799
347.08
344.99
347.361
351.617
346.929
344.85
347.247
351.449
346.791
344.721
347.143
351.294
346.662
344.605
347.049
351.152
346.543
344.5
346.963
351.025
346.432
344.407
346.884
350.91
346.331
344.323
346.81
350.805
346.244
344.247
346.74
350.707
346.168
344.172
346.674
350.617
346.102
344.094
346.61
350.531
346.042
344.012
346.548
350.45
345.988
343.933
346.487
350.374
345.938
343.864
346.428
350.301
345.892
343.806
346.368
350.231
345.851
343.756
346.308
350.164
345.814
343.709
346.244
350.098
345.781
343.665
346.166
350.033
345.751
343.622
346.07
349.962
345.726
343.582
345.982
349.87
345.705
343.544
345.911
349.754
345.687
343.508
345.849
349.657
345.672
343.474
345.788
349.589
345.659
343.441
345.727
349.531
345.647
343.41
345.666
349.474
345.635
343.38
345.606
349.419
345.622
343.352
345.545
349.364
345.617
343.325
345.484
349.31
345.617
343.3
345.424
349.257
345.621
343.275
345.363
349.204
345.627
343.253
345.302
349.152
345.637
343.231
345.239
349.101
345.648
343.21
345.174
349.05
345.663
343.191
345.095
348.999
345.681
343.172
344.997
348.949
345.709
343.155
344.913
348.899
345.755
343.139
344.844
348.849
345.797
343.123
344.778
348.8
345.832
343.109
344.709
348.752
345.868
343.096
344.609
348.704
345.906
343.084
344.442
348.657
345.947
343.072
344.301
348.611
345.989
343.062
344.214
348.565
346.034
343.053
344.142
348.519
346.081
343.044
344.07
348.472
346.131
343.036
343.998
348.426
346.185
343.03
343.926
348.38
346.241
343.023
343.856
348.334
346.299
343.018
343.786
348.287
346.357
343.013
343.717
348.24
346.415
343.008
343.649
348.191
346.471
343.004
343.583
348.137
346.525
342.999
343.517
348.051
346.575
342.995
343.453
347.894
346.625
342.991
343.389
347.782
346.673
342.986
343.328
347.715
346.72
342.981
343.266
347.66
346.768
342.976
343.205
347.604
346.816
342.968
371.847
371.892
371.619
371.647
369.534
369.66
368.826
368.935
367.206
367.382
365.953
366.206
364.885
365.064
363.015
363.493
362.615
362.75
360.106
360.852
360.471
360.545
357.428
358.382
358.547
358.599
355.193
356.203
356.925
357.018
353.481
354.408
355.634
355.808
352.227
353.009
354.644
354.903
351.313
351.954
353.897
354.224
350.633
351.163
353.332
353.703
350.113
350.564
352.898
353.294
349.703
350.1
352.558
352.96
349.37
349.733
352.284
352.68
349.091
349.432
352.057
352.441
348.854
349.179
351.866
352.235
348.651
348.962
351.702
352.053
348.475
348.772
351.559
351.893
348.321
348.605
351.431
351.749
348.185
348.455
351.317
351.618
348.066
348.32
351.212
351.499
347.959
348.197
351.114
351.39
347.863
348.083
351.023
351.289
347.776
347.977
350.936
351.194
347.697
347.878
350.852
351.105
347.623
347.784
350.77
351.02
347.555
347.695
350.691
350.939
347.491
347.61
350.613
350.862
347.43
347.529
350.536
350.788
347.373
347.452
350.46
350.717
347.318
347.377
350.384
350.648
347.265
347.304
350.309
350.581
347.214
347.232
350.233
350.516
347.165
347.161
350.158
350.452
347.117
347.091
350.082
350.389
347.07
347.021
350.006
350.327
347.024
346.953
349.93
350.265
346.978
346.886
349.853
350.205
346.933
346.82
349.775
350.145
346.889
346.755
349.696
350.087
346.844
346.691
349.615
350.028
346.8
346.627
349.533
349.97
346.755
346.564
349.451
349.912
346.71
346.502
349.37
349.853
346.665
346.44
349.291
349.794
346.619
346.379
349.213
349.735
346.573
346.318
349.137
349.675
346.526
346.257
349.062
349.615
346.478
346.198
348.988
349.555
346.429
346.138
348.916
349.494
346.379
346.079
348.845
349.433
346.328
346.02
348.776
349.372
346.275
345.962
348.707
349.31
346.221
345.903
348.64
349.248
346.165
345.845
348.574
349.186
346.107
345.787
348.509
349.123
346.048
345.728
348.444
349.059
345.988
345.67
348.379
348.995
345.926
345.61
348.316
348.93
345.862
345.551
348.254
348.864
345.797
345.49
348.192
348.797
345.73
345.429
348.129
348.729
345.662
345.366
348.063
348.66
345.592
345.302
347.995
348.59
345.521
345.237
347.929
348.518
345.447
345.171
347.865
348.443
345.373
345.104
347.804
348.367
345.296
345.034
347.746
348.287
345.219
344.964
347.69
348.204
345.14
344.892
347.637
348.118
345.06
344.819
347.585
348.027
344.978
344.745
347.535
347.932
344.896
344.669
347.486
347.832
344.812
344.593
347.438
347.728
344.728
344.515
347.391
347.618
344.643
344.436
347.343
347.501
344.556
344.355
347.295
347.38
344.469
344.271
347.245
347.258
344.381
344.182
347.194
347.138
)
;

boundaryField
{
    leftWall
    {
        type            fixedValue;
        value           uniform 373;
    }
    rightWall
    {
        type            fixedValue;
        value           nonuniform 0();
    }
    leftSides_periodic0
    {
        type            cyclic;
    }
    leftSides_periodic1
    {
        type            cyclic;
    }
    rightSides_periodic0
    {
        type            cyclic;
    }
    rightSides_periodic1
    {
        type            cyclic;
    }
    leftInOut_periodic0
    {
        type            cyclic;
    }
    leftInOut_periodic1
    {
        type            cyclic;
    }
    rightInOut_periodic0
    {
        type            cyclic;
    }
    rightInOut_periodic1
    {
        type            cyclic;
    }
    procBoundary2to0
    {
        type            processor;
        value           nonuniform List<scalar> 
316
(
371.962
371.934
371.682
371.817
369.87
369.795
369.048
369.44
367.733
367.634
366.413
367.026
365.551
365.463
363.8
364.581
363.347
363.318
361.259
362.133
361.196
361.282
358.906
359.765
359.222
359.47
356.89
357.611
357.543
357.978
355.298
355.793
356.203
356.818
354.101
354.352
355.164
355.939
353.21
353.244
354.362
355.269
352.535
352.394
353.731
354.746
352.006
351.731
353.221
354.327
351.577
351.201
352.798
353.981
351.216
350.767
352.434
353.688
350.905
350.401
352.116
353.431
350.63
350.083
351.833
353.202
350.381
349.802
351.58
352.994
350.155
349.55
351.353
352.804
349.946
349.322
351.146
352.629
349.753
349.115
350.957
352.468
349.571
348.925
350.783
352.317
349.401
348.75
350.622
352.176
349.239
348.588
350.472
352.043
349.086
348.437
350.334
351.918
348.939
348.296
350.209
351.8
348.799
348.164
350.096
351.688
348.665
348.04
349.994
351.581
348.537
347.922
349.898
351.48
348.417
347.811
349.809
351.382
348.301
347.705
349.724
351.289
348.189
347.603
349.644
351.199
348.079
347.506
349.568
351.111
347.969
347.414
349.493
351.026
347.862
347.327
349.416
350.943
347.761
347.245
349.338
350.862
347.669
347.167
349.265
350.782
347.584
347.092
349.202
350.702
347.503
347.019
349.147
350.623
347.425
346.949
349.097
350.543
347.348
346.88
349.051
350.463
347.268
346.813
349.01
350.382
347.182
346.748
348.972
350.303
347.087
346.685
348.936
350.226
346.994
346.623
348.899
350.151
346.912
346.563
348.862
350.077
346.842
346.504
348.821
350.005
346.776
346.447
348.777
349.934
346.712
346.391
348.733
349.865
346.643
346.333
348.693
349.795
346.566
346.274
348.654
349.726
346.479
346.213
348.615
349.655
346.394
346.152
348.575
349.584
346.323
346.095
348.533
349.515
346.262
346.044
348.489
349.448
346.206
345.996
348.443
349.385
346.149
345.947
348.397
349.323
346.09
345.897
348.35
349.261
346.021
345.846
348.301
349.199
345.933
345.793
348.251
349.133
345.827
345.739
348.198
349.059
345.733
345.683
348.142
348.968
345.666
345.624
348.089
348.858
345.611
345.563
348.041
348.747
345.558
345.499
347.996
348.653
345.505
345.433
347.949
348.572
345.452
345.363
347.899
348.494
345.397
345.29
347.845
348.414
345.342
345.214
347.789
348.33
345.281
345.134
347.731
348.242
345.206
345.05
347.671
348.149
345.11
344.962
347.61
348.051
345.019
344.872
347.547
347.945
344.945
344.779
347.483
347.832
344.877
344.684
347.417
347.712
344.808
344.587
347.35
347.589
344.737
344.491
347.281
347.464
344.663
344.397
347.209
347.334
344.585
344.308
347.136
347.2
344.504
344.223
)
;
    }
    procBoundary2to0throughleftSides_periodic1
    {
        type            processorCyclic;
        value           nonuniform List<scalar> 
314
(
371.492
368.43
365.274
362.09
359.048
356.408
354.361
352.886
351.84
351.08
350.502
350.041
349.658
349.33
349.043
348.786
348.553
348.34
348.144
347.961
347.79
347.629
347.477
347.333
347.195
347.064
346.939
346.819
346.704
346.593
346.485
346.381
346.28
346.182
346.086
345.993
345.902
345.814
345.728
345.643
345.549
345.425
345.262
345.105
345
344.923
344.853
344.787
344.724
344.664
344.607
344.551
344.496
344.443
344.391
344.34
344.29
344.241
344.193
344.145
344.098
344.053
344
343.917
343.802
343.727
343.68
343.641
343.604
343.568
343.532
343.497
343.462
343.427
343.392
343.357
343.323
343.288
343.254
371.869
369.598
367.302
365.005
362.754
360.641
358.784
357.264
356.086
355.195
354.518
353.993
353.575
353.232
352.942
352.692
352.472
352.275
352.098
351.937
351.789
351.651
351.523
351.403
351.289
351.182
351.079
350.98
350.886
350.795
350.706
350.621
350.537
350.456
350.377
350.3
350.224
350.15
350.077
350.006
349.935
349.867
349.799
349.732
349.665
349.6
349.536
349.473
349.411
349.35
349.29
349.232
349.174
349.117
349.062
349.007
348.954
348.901
348.849
348.797
348.746
348.696
348.646
348.597
348.55
348.503
348.457
348.413
348.369
348.327
348.285
348.243
348.203
348.162
348.122
348.078
348.012
347.915
347.847
371.235
367.711
364.197
360.773
357.597
354.888
352.798
351.305
350.271
349.549
349.028
348.637
348.332
348.084
347.878
347.704
347.553
347.422
347.306
347.204
347.112
347.03
346.956
346.89
346.828
346.772
346.719
346.67
346.625
346.583
346.543
346.506
346.472
346.44
346.41
346.382
346.357
346.334
346.312
346.293
346.275
346.258
346.244
346.231
346.219
346.21
346.202
346.196
346.191
346.188
346.186
346.186
346.188
346.192
346.197
346.204
346.213
346.224
346.236
346.249
346.265
346.283
346.304
346.327
346.352
346.379
346.408
346.438
346.47
346.502
346.535
346.569
346.604
346.641
346.679
346.717
346.756
346.794
371.265
367.798
364.335
360.943
357.749
354.94
352.676
350.978
349.747
348.851
348.183
347.667
347.253
346.908
346.611
346.352
346.123
345.918
345.734
345.565
345.411
345.268
345.136
345.012
344.897
344.789
344.687
344.593
344.504
344.419
344.338
344.259
344.178
344.089
343.997
343.916
343.85
343.792
343.737
343.685
343.635
343.588
343.543
343.5
343.459
343.42
343.384
343.35
343.317
343.287
343.259
343.233
343.208
343.186
343.165
343.145
343.127
343.11
343.094
343.079
343.065
343.051
343.038
343.026
343.013
343.001
342.99
342.979
342.968
342.957
342.947
342.938
342.929
342.92
342.911
342.899
342.885
342.879
)
;
    }
    procBoundary2to1throughleftSides_periodic1
    {
        type            processorCyclic;
        value           nonuniform List<scalar> 2(346.833 342.877);
    }
    procBoundary2to1throughrightSides_periodic1
    {
        type            processorCyclic;
        value           nonuniform List<scalar> 2(343.221 347.799);
    }
    procBoundary2to3
    {
        type            processor;
        value           nonuniform List<scalar> 
11
(
343.145
347.549
346.863
342.956
344.292
344.087
343.145
347.549
347.142
344.292
347.022
)
;
    }
    procBoundary2to3throughrightInOut_periodic1
    {
        type            processorCyclic;
        value           uniform 344.087;
    }
}


// ************************************************************************* //
