/*--------------------------------*- C++ -*----------------------------------*\
| =========                 |                                                 |
| \\      /  F ield         | OpenFOAM: The Open Source CFD Toolbox           |
|  \\    /   O peration     | Version:  v1906                                 |
|   \\  /    A nd           | Web:      www.OpenFOAM.com                      |
|    \\/     M anipulation  |                                                 |
\*---------------------------------------------------------------------------*/
FoamFile
{
    version     2.0;
    format      ascii;
    class       volVectorField;
    location    "98.4";
    object      UMean;
}
// * * * * * * * * * * * * * * * * * * * * * * * * * * * * * * * * * * * * * //

dimensions      [0 1 -1 0 0 0 0];


internalField   nonuniform List<vector> 
634
(
(5.63839e-05 -1.53857e-06 -0.00523366)
(-1.62421e-05 1.0998e-06 -0.00519093)
(-4.21894e-05 -1.54594e-06 -0.00571073)
(9.38087e-06 9.19286e-07 -0.00533234)
(0.000145414 2.22102e-06 -0.0158018)
(-5.4856e-05 7.61913e-06 -0.0156986)
(-0.000103532 2.09125e-06 -0.0171793)
(3.42866e-05 6.41432e-06 -0.0160772)
(0.000209119 5.10365e-06 -0.0265157)
(-0.000101763 1.95176e-05 -0.0263858)
(-0.00014001 4.28477e-06 -0.0287421)
(6.73273e-05 1.64126e-05 -0.0269507)
(0.00026039 1.34917e-05 -0.0373261)
(-0.000152619 3.52868e-05 -0.0371988)
(-0.000164457 1.17933e-05 -0.0403441)
(0.000104236 2.94759e-05 -0.037904)
(0.000306161 2.34343e-05 -0.0481596)
(-0.000204486 5.3983e-05 -0.0480537)
(-0.000183855 2.02878e-05 -0.0519056)
(0.000142156 4.48495e-05 -0.0488549)
(0.000346167 3.57004e-05 -0.0589228)
(-0.000256923 7.53596e-05 -0.0588528)
(-0.000198019 3.06874e-05 -0.0633288)
(0.000180724 6.22737e-05 -0.0597054)
(0.000380237 4.98762e-05 -0.0695187)
(-0.000309322 9.9121e-05 -0.0694965)
(-0.000206895 4.25405e-05 -0.0745161)
(0.000219429 8.15055e-05 -0.0703605)
(0.00040836 6.57368e-05 -0.0798525)
(-0.000360942 0.0001249 -0.0798895)
(-0.000210603 5.56243e-05 -0.0853759)
(0.000257658 0.000102203 -0.0807336)
(0.000430582 8.3019e-05 -0.0898387)
(-0.000410968 0.000152492 -0.0899467)
(-0.000209344 6.96512e-05 -0.0958274)
(0.000294747 0.000124223 -0.09075)
(0.000446949 0.000101458 -0.0994106)
(-0.000458669 0.00018169 -0.0996021)
(-0.00020324 8.4394e-05 -0.105809)
(0.000330092 0.00014749 -0.100352)
(0.00045781 0.000120968 -0.108528)
(-0.000503239 0.000212076 -0.108816)
(-0.000192666 9.98748e-05 -0.115288)
(0.000363248 0.000171656 -0.109505)
(0.000464298 0.000141552 -0.117178)
(-0.000543885 0.000243275 -0.117577)
(-0.000178789 0.000116006 -0.124255)
(0.000393802 0.000196294 -0.118199)
(0.000468014 0.000163014 -0.12537)
(-0.00058021 0.000275344 -0.125896)
(-0.000163297 0.000132529 -0.132729)
(0.000421407 0.000221453 -0.126445)
(0.000470379 0.0001851 -0.133125)
(-0.000612054 0.000308498 -0.133793)
(-0.000147684 0.000149315 -0.140738)
(0.000445748 0.000247481 -0.134261)
(0.000472268 0.000207667 -0.140467)
(-0.000639473 0.000342571 -0.141289)
(-0.000132783 0.00016632 -0.148306)
(0.000466393 0.000274288 -0.14167)
(0.000473951 0.000230774 -0.147416)
(-0.000662705 0.000377188 -0.148401)
(-0.000118864 0.000183607 -0.155454)
(0.000483155 0.000301426 -0.148687)
(0.00047571 0.000254424 -0.153986)
(-0.00068198 0.000412196 -0.155145)
(-0.000106175 0.000201052 -0.1622)
(0.000496094 0.000328719 -0.155329)
(0.000477989 0.000278369 -0.16019)
(-0.00069745 0.000447508 -0.161534)
(-9.50777e-05 0.000218411 -0.168561)
(0.000505228 0.000356147 -0.161609)
(0.000481181 0.000302528 -0.166038)
(-0.000709068 0.000482871 -0.167581)
(-8.58958e-05 0.000235643 -0.174553)
(0.000510524 0.000383514 -0.167539)
(0.000485766 0.000326601 -0.171546)
(-0.000716651 0.000518293 -0.1733)
(-7.87934e-05 0.000252977 -0.180198)
(0.000511995 0.000410576 -0.173135)
(0.000491962 0.000349842 -0.176734)
(-0.000719793 0.000554034 -0.178705)
(-7.39938e-05 0.0002701 -0.185516)
(0.000509947 0.000437461 -0.178414)
(0.00049993 0.000372908 -0.181627)
(-0.000717957 0.000589649 -0.183814)
(-7.18829e-05 0.000286538 -0.190525)
(0.00050468 0.000464173 -0.183396)
(0.000509391 0.000396856 -0.186256)
(-0.000710709 0.000624372 -0.18865)
(-7.24436e-05 0.000302167 -0.195244)
(0.000496155 0.000490191 -0.188099)
(0.000518352 0.000421461 -0.190647)
(-0.000698561 0.000657804 -0.19323)
(-7.48692e-05 0.000317804 -0.199692)
(0.000483795 0.00051483 -0.192534)
(0.000524195 0.00044452 -0.194812)
(-0.000683519 0.000691604 -0.197559)
(-7.84961e-05 0.000333273 -0.203884)
(0.000466636 0.000538881 -0.196706)
(0.000527259 0.000464532 -0.198758)
(-0.000667165 0.000726985 -0.201643)
(-8.3347e-05 0.000347641 -0.207832)
(0.000445379 0.000564072 -0.200634)
(0.000532775 0.000482876 -0.202492)
(-0.000649293 0.000760708 -0.205506)
(-8.81595e-05 0.000361517 -0.211563)
(0.000422824 0.000589475 -0.20436)
(0.000544852 0.000501991 -0.206045)
(-0.0006277 0.000791347 -0.209185)
(-9.08419e-05 0.000375624 -0.215125)
(0.000401751 0.000611456 -0.207928)
(0.000562555 0.000525418 -0.209444)
(-0.000601986 0.000819889 -0.212711)
(-8.88949e-05 0.000389656 -0.218565)
(0.000383273 0.000628913 -0.211353)
(0.000581274 0.000548597 -0.212674)
(-0.000575979 0.000850869 -0.216083)
(-8.36563e-05 0.000400968 -0.221901)
(0.000365198 0.000646406 -0.214602)
(0.000596524 0.000565985 -0.215718)
(-0.00055471 0.000884667 -0.219282)
(-7.94116e-05 0.000410273 -0.225112)
(0.0003445 0.000666962 -0.217662)
(0.000604783 0.000576577 -0.218623)
(-0.00053834 0.000914667 -0.222328)
(-7.69878e-05 0.000419475 -0.228149)
(0.000321013 0.000690676 -0.220557)
(0.000607864 0.000587106 -0.221476)
(-0.000521938 0.000940349 -0.225239)
(-7.79854e-05 0.000429568 -0.231034)
(0.00029054 0.00070877 -0.223339)
(0.000608339 0.000607141 -0.224303)
(-0.000501919 0.000964886 -0.228038)
(-7.97084e-05 0.000439431 -0.23384)
(0.000252811 0.000722984 -0.226022)
(0.00060804 0.000628964 -0.227053)
(-0.000479528 0.000992777 -0.230724)
(-7.70307e-05 0.0004493 -0.236581)
(0.000215514 0.000738195 -0.228576)
(0.000611506 0.000642739 -0.229644)
(-0.000454577 0.00101788 -0.233297)
(-6.87445e-05 0.000458359 -0.239209)
(0.000181397 0.000752215 -0.230997)
(0.000620351 0.000647288 -0.232075)
(-0.000428142 0.0010408 -0.235744)
(-6.60768e-05 0.000467611 -0.24168)
(0.000149782 0.000766407 -0.233331)
(0.000633366 0.000654916 -0.234403)
(-0.00039812 0.00106744 -0.238043)
(-6.76498e-05 0.000470018 -0.24399)
(0.000117776 0.000778731 -0.235626)
(0.000643892 0.000669567 -0.236664)
(-0.00036275 0.00109356 -0.240254)
(-7.05412e-05 0.00046841 -0.24618)
(8.49101e-05 0.00079545 -0.237776)
(0.000649198 0.000681399 -0.238833)
(-0.000320953 0.00111689 -0.242421)
(-6.96244e-05 0.000474185 -0.2483)
(4.76138e-05 0.000808559 -0.239776)
(0.000658663 0.000688132 -0.240888)
(-0.000273559 0.00113549 -0.244532)
(-6.47977e-05 0.000486681 -0.250355)
(9.35165e-06 0.000813973 -0.24166)
(0.000676378 0.000689994 -0.24284)
(-0.000229539 0.00115426 -0.246548)
(-5.90546e-05 0.000493159 -0.252322)
(-2.39902e-05 0.000824578 -0.243432)
(0.000694279 0.000697194 -0.244729)
(-0.00019036 0.00117515 -0.248452)
(-5.39455e-05 0.000492004 -0.254183)
(-5.28128e-05 0.000840441 -0.245136)
(0.000706268 0.000703128 -0.246565)
(-0.0001581 0.0011936 -0.250271)
(-5.68428e-05 0.000490792 -0.255941)
(-8.12828e-05 0.000853638 -0.246832)
(0.000712898 0.000706241 -0.248334)
(-0.000126391 0.00121335 -0.251982)
(-6.29084e-05 0.000499035 -0.257644)
(-0.000107912 0.000854181 -0.248562)
(0.000717959 0.000713763 -0.250029)
(-9.33232e-05 0.00123365 -0.253598)
(-6.84115e-05 0.000506241 -0.25929)
(-0.000128221 0.000855163 -0.250227)
(0.000730335 0.000715805 -0.251602)
(-5.89864e-05 0.0012547 -0.255174)
(-7.26849e-05 0.00050444 -0.260859)
(-0.00015178 0.000866563 -0.251733)
(0.000744192 0.000718801 -0.253107)
(-2.67275e-05 0.00127096 -0.256763)
(-7.63773e-05 0.00050398 -0.262398)
(-0.000178968 0.000879429 -0.253139)
(0.000750719 0.000719081 -0.254622)
(7.2173e-07 0.0012845 -0.258357)
(-7.91577e-05 0.000508534 -0.263902)
(-0.000204834 0.000889415 -0.254517)
(0.000746216 0.000714135 -0.256194)
(2.34099e-05 0.00130091 -0.259833)
(-8.1957e-05 0.000512404 -0.265373)
(-0.000225182 0.00089205 -0.255918)
(0.000745128 0.000719611 -0.257763)
(4.5771e-05 0.00132032 -0.261206)
(-8.56065e-05 0.000516147 -0.266801)
(-0.000241022 0.000891006 -0.25735)
(0.000750588 0.000725811 -0.259248)
(7.18364e-05 0.00134109 -0.262556)
(-8.6437e-05 0.000520967 -0.268198)
(-0.000257509 0.000897961 -0.258728)
(0.000760371 0.000726505 -0.26067)
(0.000104009 0.00135698 -0.263917)
(-8.61268e-05 0.000520245 -0.269536)
(-0.000273616 0.00091251 -0.260029)
(0.000771458 0.000716187 -0.262056)
(0.000141201 0.00137007 -0.265252)
(-8.67371e-05 0.000515567 -0.270792)
(-0.000287587 0.000922187 -0.261302)
(0.000786831 0.000713003 -0.263414)
(0.000177127 0.00138326 -0.266554)
(-8.64192e-05 0.000513126 -0.271998)
(-0.000298963 0.000917601 -0.262574)
(0.000803289 0.000721732 -0.264792)
(0.00020538 0.00139543 -0.267849)
(-8.07056e-05 0.000527451 -0.273257)
(-0.000308996 0.000912537 -0.263814)
(0.000817663 0.000724167 -0.266158)
(0.000219637 0.00141578 -0.269103)
(-7.24301e-05 0.00054603 -0.274544)
(-0.000312057 0.000919288 -0.264967)
(0.000828214 0.000717865 -0.267447)
(0.000224946 0.00143652 -0.270376)
(-7.15047e-05 0.000537204 -0.275656)
(-0.0003124 0.000935107 -0.266046)
(0.000834322 0.000717386 -0.268689)
(0.0002358 0.0014503 -0.271592)
(-7.67503e-05 0.000528583 -0.276705)
(-0.000315718 0.000940261 -0.267094)
(0.000837823 0.00071366 -0.269842)
(0.000253158 0.00145937 -0.272734)
(-8.29967e-05 0.000536666 -0.277824)
(-0.000324217 0.000939448 -0.268148)
(0.000839447 0.000705296 -0.270935)
(0.000271223 0.00147567 -0.273792)
(-7.83219e-05 0.000544487 -0.278934)
(-0.000333403 0.000946137 -0.269146)
(0.00084481 0.000706636 -0.271981)
(0.00028714 0.00149804 -0.274833)
(-7.54184e-05 0.000545077 -0.279922)
(-0.0003444 0.000949308 -0.270063)
(0.000854835 0.00070025 -0.272965)
(0.000301456 0.00151458 -0.275884)
(-7.8683e-05 0.000548674 -0.280788)
(-0.000351167 0.000952202 -0.270963)
(0.000867344 0.00069446 -0.273978)
(0.000315599 0.00152847 -0.276881)
(-8.1628e-05 0.00055457 -0.28159)
(-0.000344264 0.000957419 -0.271818)
(0.00087889 0.000704352 -0.27507)
(0.000327005 0.00154304 -0.27787)
(-7.59817e-05 0.000556303 -0.282335)
(-0.000333061 0.000959105 -0.272605)
(0.000887429 0.00070004 -0.27603)
(0.000332868 0.00155927 -0.278832)
(-6.14416e-05 0.000556875 -0.283059)
(-0.0003313 0.000957557 -0.273262)
(0.000888786 0.000693023 -0.276906)
(0.000336193 0.00157923 -0.279809)
(-3.99419e-05 0.000556755 -0.283796)
(-0.000333914 0.000961776 -0.273772)
(0.000882829 0.000691399 -0.27777)
(0.000346252 0.00159413 -0.280712)
(-2.58408e-05 0.000564685 -0.284459)
(-0.000335884 0.000973113 -0.274207)
(0.000874356 0.000680711 -0.278603)
(0.000362037 0.00160753 -0.281589)
(-1.76159e-05 0.000570775 -0.285005)
(-0.000332795 0.000972012 -0.274681)
(0.000868513 0.000676734 -0.279415)
(0.000380234 0.0016244 -0.282491)
(-1.09833e-05 0.000568386 -0.285419)
(-0.000328262 0.00096365 -0.275102)
(0.000865439 0.000681684 -0.280125)
(0.000396626 0.00163438 -0.283231)
(9.64273e-07 0.000572265 -0.285794)
(-0.000323165 0.000961755 -0.275375)
(0.000865513 0.000679746 -0.28066)
(0.000407287 0.00165665 -0.28373)
(2.63353e-05 0.000582277 -0.286161)
(-0.000323289 0.000962937 -0.275498)
(0.000860119 0.000666933 -0.281042)
(0.000420322 0.0016722 -0.284153)
(5.57246e-05 0.000587149 -0.286411)
(-0.000318775 0.000968313 -0.275524)
(0.000847072 0.000660947 -0.281333)
(0.000443123 0.00168038 -0.284554)
(8.11948e-05 0.000576442 -0.286498)
(-0.000310333 0.000964207 -0.275455)
(0.000828802 0.000656868 -0.281584)
(0.000469128 0.00168755 -0.28489)
(0.000100798 0.000578965 -0.286534)
(-0.000302518 0.000957055 -0.275348)
(0.000808256 0.000650727 -0.281749)
(0.00048683 0.00170397 -0.285083)
(0.000121349 0.000592436 -0.286523)
(-0.000300451 0.000953562 -0.275165)
(0.000780947 0.000641 -0.281796)
(0.000499209 0.00171972 -0.285148)
(0.000144031 0.000597044 -0.286365)
(-0.000297591 0.000948713 -0.274857)
(0.0007466 0.000634444 -0.281685)
(0.000510067 0.00171929 -0.285087)
(0.000170329 0.000600079 -0.286008)
(-0.000290174 0.000932503 -0.274345)
(0.000709917 0.000640847 -0.281433)
(0.000520974 0.00171035 -0.284832)
(0.000194081 0.000617927 -0.285416)
(-0.000281305 0.000921926 -0.2735)
(0.000217853 -2.73016e-07 -0.00746966)
(-4.66935e-05 1.50133e-07 -0.0074152)
(-0.000196032 -4.27215e-07 -0.00759653)
(4.13069e-05 -6.04922e-07 -0.00769727)
(0.000575651 4.20722e-06 -0.0216143)
(-0.000137575 6.87226e-06 -0.0213867)
(-0.000510069 3.89576e-06 -0.0219721)
(0.000121619 2.88427e-06 -0.0221796)
(0.000845084 9.60329e-06 -0.0351307)
(-0.00022712 1.58765e-05 -0.0346755)
(-0.00073558 7.53813e-06 -0.0356938)
(0.000200647 4.49756e-06 -0.0359274)
(0.00106274 1.82083e-05 -0.0480137)
(-0.000313519 2.96693e-05 -0.0473363)
(-0.000909653 1.46326e-05 -0.0487734)
(0.000276465 9.03073e-06 -0.048986)
(0.00125396 2.75679e-05 -0.0602822)
(-0.000395717 4.47639e-05 -0.0594011)
(-0.00105795 2.13821e-05 -0.061226)
(0.000347941 1.25388e-05 -0.0613838)
(0.00141984 3.78587e-05 -0.0719517)
(-0.000473287 6.15741e-05 -0.0708852)
(-0.00118188 2.85323e-05 -0.0730707)
(0.000414597 1.59539e-05 -0.0731408)
(0.00156157 4.87773e-05 -0.0830359)
(-0.000545744 7.96308e-05 -0.0818003)
(-0.00128292 3.57214e-05 -0.0843231)
(0.00047594 1.89563e-05 -0.0842781)
(0.00168034 6.00092e-05 -0.0935429)
(-0.000612561 9.85372e-05 -0.0921514)
(-0.00136243 4.26975e-05 -0.0949919)
(0.000531492 2.13443e-05 -0.0948125)
(0.00177733 7.13322e-05 -0.103473)
(-0.00067322 0.000117952 -0.101935)
(-0.00142172 4.92524e-05 -0.105075)
(0.000580813 2.30457e-05 -0.104751)
(0.00185392 8.25395e-05 -0.112821)
(-0.000727249 0.000137679 -0.111144)
(-0.00146233 5.52371e-05 -0.114565)
(0.000623525 2.40963e-05 -0.114096)
(0.00191192 9.34423e-05 -0.121587)
(-0.000774263 0.000157485 -0.119774)
(-0.00148623 6.05128e-05 -0.123456)
(0.000659307 2.43042e-05 -0.122847)
(0.00195364 0.000103988 -0.129779)
(-0.000814083 0.000176944 -0.127834)
(-0.00149574 6.50373e-05 -0.131756)
(0.000688026 2.34017e-05 -0.131018)
(0.00198136 0.000114051 -0.13742)
(-0.000846897 0.000195706 -0.135344)
(-0.00149316 6.87252e-05 -0.139487)
(0.000709894 2.13719e-05 -0.138633)
(0.0019969 0.000123448 -0.144547)
(-0.000873173 0.0002137 -0.142338)
(-0.00148044 7.1474e-05 -0.146691)
(0.000725363 1.84043e-05 -0.145725)
(0.00200157 0.000132051 -0.151197)
(-0.00089352 0.000230947 -0.148853)
(-0.00145929 7.32036e-05 -0.153408)
(0.000735001 1.45947e-05 -0.152332)
(0.0019965 0.000139793 -0.157401)
(-0.000908548 0.000247302 -0.154918)
(-0.00143122 7.38638e-05 -0.159671)
(0.000739341 9.78575e-06 -0.158486)
(0.00198291 0.000146654 -0.163185)
(-0.000918738 0.000262504 -0.160559)
(-0.00139764 7.34911e-05 -0.16551)
(0.000738804 3.84215e-06 -0.164215)
(0.00196195 0.00015259 -0.168574)
(-0.000924507 0.000276458 -0.165803)
(-0.00135973 7.21023e-05 -0.17095)
(0.00073381 -3.18521e-06 -0.169545)
(0.00193469 0.000157538 -0.173589)
(-0.000926283 0.000289155 -0.170675)
(-0.00131841 6.96596e-05 -0.176016)
(0.000724853 -1.12109e-05 -0.174503)
(0.00190217 0.000161429 -0.178254)
(-0.000924458 0.000300542 -0.175204)
(-0.00127442 6.60923e-05 -0.180732)
(0.000712496 -2.02263e-05 -0.179116)
(0.00186543 0.000164202 -0.182596)
(-0.000919362 0.00031052 -0.179416)
(-0.00122832 6.13139e-05 -0.185122)
(0.00069729 -3.02964e-05 -0.183412)
(0.00182555 0.000165818 -0.186643)
(-0.000911249 0.000319028 -0.183343)
(-0.00118059 5.53444e-05 -0.189214)
(0.000679679 -4.14296e-05 -0.187419)
(0.00178355 0.000166393 -0.19042)
(-0.000900325 0.000326097 -0.187011)
(-0.00113172 4.8341e-05 -0.193035)
(0.000659956 -5.35362e-05 -0.191164)
(0.00174035 0.000166025 -0.193955)
(-0.000886801 0.000331809 -0.19045)
(-0.00108221 4.04741e-05 -0.196617)
(0.000638292 -6.64552e-05 -0.194675)
(0.00169662 0.00016474 -0.197277)
(-0.000870936 0.000336142 -0.193686)
(-0.00103253 3.18562e-05 -0.199986)
(0.000614854 -8.01553e-05 -0.197978)
(0.00165267 0.000162553 -0.200414)
(-0.000852991 0.000339033 -0.196743)
(-0.000983098 2.25065e-05 -0.203169)
(0.000589817 -9.46517e-05 -0.201097)
(0.00160847 0.000159457 -0.203388)
(-0.000833221 0.000340679 -0.199643)
(-0.000934198 1.24615e-05 -0.206186)
(0.000563349 -0.000109765 -0.204055)
(0.00156395 0.000155481 -0.206219)
(-0.000811939 0.00034126 -0.202407)
(-0.000885997 1.78537e-06 -0.209057)
(0.0005357 -0.000125413 -0.206875)
(0.00151912 0.000150649 -0.208923)
(-0.000789465 0.000340773 -0.205051)
(-0.000838628 -9.52671e-06 -0.211798)
(0.000507151 -0.000141716 -0.209571)
(0.00147409 0.000144993 -0.211515)
(-0.000766073 0.000339078 -0.207586)
(-0.00079217 -2.14553e-05 -0.214421)
(0.000477964 -0.000158594 -0.21215)
(0.00142902 0.000138605 -0.214007)
(-0.000741916 0.000336414 -0.210018)
(-0.000746597 -3.39884e-05 -0.216939)
(0.000448263 -0.000175748 -0.214623)
(0.00138403 0.000131574 -0.216408)
(-0.000717162 0.000332948 -0.212358)
(-0.000701835 -4.70298e-05 -0.219364)
(0.000418175 -0.000193233 -0.217001)
(0.00133913 0.000123871 -0.218728)
(-0.000692054 0.000328724 -0.214615)
(-0.000657768 -6.06286e-05 -0.221705)
(0.000388036 -0.000210631 -0.219297)
(0.00129427 0.000115438 -0.220976)
(-0.000666824 0.000323685 -0.216801)
(-0.000614331 -7.45446e-05 -0.223971)
(0.000358248 -0.000228595 -0.221519)
(0.00124945 0.000106224 -0.223159)
(-0.000641684 0.000317888 -0.218922)
(-0.000571656 -8.8701e-05 -0.226169)
(0.00032894 -0.000246957 -0.223675)
(0.00120474 9.62399e-05 -0.225285)
(-0.000616827 0.000311599 -0.220988)
(-0.000529936 -0.000103448 -0.228309)
(0.000299989 -0.000264594 -0.225769)
(0.00116022 8.58927e-05 -0.227361)
(-0.000592348 0.000304768 -0.223003)
(-0.000489117 -0.000118499 -0.230403)
(0.000271315 -0.000281849 -0.227805)
(0.00111584 7.55432e-05 -0.229391)
(-0.000568377 0.000297214 -0.224972)
(-0.000448942 -0.000133555 -0.232458)
(0.000243224 -0.00029864 -0.229791)
(0.00107182 6.46913e-05 -0.231385)
(-0.000545111 0.000289435 -0.226902)
(-0.000409022 -0.000148144 -0.234469)
(0.000216098 -0.000315322 -0.231739)
(0.00102905 5.33093e-05 -0.233352)
(-0.000522655 0.000281776 -0.228804)
(-0.000369769 -0.000162314 -0.236435)
(0.000190305 -0.000333607 -0.233661)
(0.000988224 4.22427e-05 -0.235298)
(-0.000500944 0.000273682 -0.230685)
(-0.000331777 -0.000176047 -0.238362)
(0.000165613 -0.00035107 -0.235553)
(0.000949008 3.26722e-05 -0.23721)
(-0.000479708 0.000264534 -0.232536)
(-0.000294989 -0.000190053 -0.240254)
(0.000140836 -0.000365251 -0.237399)
(0.000910393 2.3402e-05 -0.239091)
(-0.000459168 0.0002549 -0.234361)
(-0.000259228 -0.000203717 -0.242117)
(0.000115606 -0.000378829 -0.239203)
(0.000872423 1.28605e-05 -0.240947)
(-0.000440056 0.00024567 -0.236158)
(-0.000224898 -0.000216387 -0.243952)
(8.96942e-05 -0.000394277 -0.240987)
(0.00083621 3.49119e-06 -0.242779)
(-0.000422135 0.000237554 -0.237926)
(-0.000193006 -0.000227899 -0.245763)
(6.41174e-05 -0.000410889 -0.242747)
(0.000802361 -4.45333e-06 -0.244587)
(-0.000405229 0.000230504 -0.23967)
(-0.000163333 -0.000238391 -0.247545)
(4.08099e-05 -0.000422573 -0.244452)
(0.000770382 -1.19024e-05 -0.246372)
(-0.000389385 0.000223685 -0.241393)
(-0.000133589 -0.000248776 -0.249293)
(1.99316e-05 -0.000431647 -0.246112)
(0.000739643 -1.91446e-05 -0.248139)
(-0.000374506 0.00021647 -0.243098)
(-0.000103397 -0.000258477 -0.251011)
(1.11876e-06 -0.000443039 -0.247749)
(0.00070913 -2.55741e-05 -0.249871)
(-0.000360401 0.00020794 -0.244786)
(-7.44571e-05 -0.00026715 -0.252704)
(-1.67639e-05 -0.000457258 -0.249364)
(0.000679349 -2.92085e-05 -0.251574)
(-0.000346894 0.000200079 -0.246452)
(-4.84095e-05 -0.000274531 -0.254378)
(-3.51003e-05 -0.000469446 -0.250942)
(0.00065059 -3.40939e-05 -0.253247)
(-0.000334262 0.000193779 -0.248093)
(-2.54412e-05 -0.000282384 -0.256036)
(-5.37257e-05 -0.000476423 -0.25248)
(0.000621976 -4.04782e-05 -0.254884)
(-0.000322772 0.000190875 -0.249712)
(-3.99886e-06 -0.000290361 -0.25767)
(-7.16442e-05 -0.000481007 -0.253995)
(0.000595047 -4.71847e-05 -0.256498)
(-0.000312355 0.000189226 -0.251321)
(1.53938e-05 -0.000296538 -0.259281)
(-8.73769e-05 -0.000486009 -0.255493)
(0.000570665 -5.11689e-05 -0.258081)
(-0.000302185 0.000182823 -0.25294)
(3.02815e-05 -0.000299475 -0.260864)
(-0.000100081 -0.000494596 -0.256988)
(0.000548974 -5.09661e-05 -0.259631)
(-0.000290704 0.000172384 -0.254577)
(4.06237e-05 -0.000300602 -0.262417)
(-0.000114078 -0.000502758 -0.258466)
(0.000526895 -5.52213e-05 -0.261123)
(-0.000278022 0.000164216 -0.256203)
(5.22861e-05 -0.000307031 -0.263922)
(-0.000132645 -0.000509596 -0.259918)
(0.000505033 -5.93386e-05 -0.262567)
(-0.00026824 0.000161758 -0.257794)
(6.43105e-05 -0.000313537 -0.265394)
(-0.000153475 -0.000518726 -0.261365)
(0.000487048 -6.01271e-05 -0.263994)
(-0.000262568 0.000160091 -0.259337)
(7.4836e-05 -0.000313605 -0.266851)
(-0.000171411 -0.000526081 -0.262783)
(0.000472564 -6.0906e-05 -0.26542)
(-0.000259143 0.000156165 -0.260847)
(8.32022e-05 -0.000312004 -0.268255)
(-0.000184003 -0.00052629 -0.264145)
(0.000464022 -6.93602e-05 -0.266847)
(-0.000256108 0.000155947 -0.262336)
(8.88959e-05 -0.000313951 -0.269589)
(-0.000191567 -0.000527046 -0.265425)
(0.000457261 -7.3546e-05 -0.268235)
(-0.00025421 0.000158387 -0.263815)
(9.27811e-05 -0.000319909 -0.27087)
(-0.0001956 -0.000535119 -0.266639)
(0.000450509 -7.0054e-05 -0.269566)
(-0.000252524 0.00015329 -0.265303)
(9.77228e-05 -0.000321398 -0.272124)
(-0.000198592 -0.000538374 -0.267762)
(0.000443762 -6.63362e-05 -0.270854)
(-0.000249476 0.0001432 -0.266783)
(9.79352e-05 -0.000318582 -0.273357)
(-0.00020392 -0.000538996 -0.268813)
(0.000440474 -6.79397e-05 -0.272107)
(-0.000242621 0.000139391 -0.268203)
(9.28579e-05 -0.000321559 -0.274572)
(-0.000213375 -0.000543403 -0.269806)
(0.000441524 -7.29984e-05 -0.273331)
(-0.00023292 0.000147268 -0.269561)
(8.55158e-05 -0.000326623 -0.275759)
(-0.000224159 -0.000549202 -0.270729)
(0.000443176 -7.50315e-05 -0.274485)
(-0.00022773 0.000154332 -0.270876)
(8.22264e-05 -0.000321386 -0.276867)
(-0.000233914 -0.000551579 -0.271588)
(0.000437847 -7.39709e-05 -0.275555)
(-0.000228767 0.000154387 -0.272156)
(8.42471e-05 -0.000314335 -0.27787)
(-0.000244693 -0.000552897 -0.272369)
(0.000426966 -7.23618e-05 -0.27657)
(-0.000231115 0.000150121 -0.273402)
(8.47657e-05 -0.000317549 -0.278788)
(-0.000256705 -0.000560707 -0.273064)
(0.000417919 -7.63522e-05 -0.277521)
(-0.000230887 0.000146833 -0.27456)
(7.7323e-05 -0.000325145 -0.279645)
(-0.000268488 -0.000561805 -0.273641)
(0.00041709 -7.73772e-05 -0.278406)
(-0.000226709 0.000147771 -0.275564)
(6.01238e-05 -0.000321236 -0.280461)
(-0.000280431 -0.000559628 -0.274111)
(0.000417479 -7.35849e-05 -0.279188)
(-0.000219991 0.000150207 -0.276451)
(4.33033e-05 -0.000314613 -0.281195)
(-0.000292963 -0.000563939 -0.274493)
(0.000413776 -7.30795e-05 -0.279857)
(-0.000211181 0.000149234 -0.277261)
(3.42026e-05 -0.000316474 -0.281804)
(-0.000306275 -0.000572234 -0.274786)
(0.000402779 -7.8851e-05 -0.280409)
(-0.00020048 0.000145918 -0.27798)
(2.64522e-05 -0.000317141 -0.282311)
(-0.000320149 -0.000573646 -0.27495)
(0.000389204 -8.25682e-05 -0.280862)
(-0.000189053 0.000147034 -0.27857)
(2.49425e-05 -0.000315428 -0.282714)
(-0.000335538 -0.00057053 -0.274986)
(0.000371464 -8.23382e-05 -0.281213)
(-0.000177206 0.000145158 -0.279027)
(2.83226e-05 -0.000312045 -0.283007)
(-0.000350912 -0.000573198 -0.274907)
(0.000350081 -8.52208e-05 -0.281434)
(-0.000165121 0.00014228 -0.27938)
(3.29068e-05 -0.000310094 -0.283177)
(-0.0003647 -0.000581164 -0.274715)
(0.000326149 -8.99686e-05 -0.281529)
(-0.000151601 0.000146134 -0.279627)
(3.8243e-05 -0.000312019 -0.283214)
(-0.000377733 -0.000581114 -0.274367)
(0.000301028 -9.10354e-05 -0.281514)
(-0.000137133 0.000144737 -0.279756)
(4.31015e-05 -0.000309908 -0.283118)
(-0.000391115 -0.000580103 -0.273807)
(0.000277386 -9.33759e-05 -0.281357)
(-0.000122826 0.000139824 -0.279761)
(4.50767e-05 -0.000305025 -0.282873)
(-0.000410414 -0.000587621 -0.27298)
(0.000257755 -9.73141e-05 -0.281007)
(-0.000109927 0.000136277 -0.279614)
)
;

boundaryField
{
    leftWall
    {
        type            calculated;
        value           uniform (0 0 0);
    }
    rightWall
    {
        type            calculated;
        value           nonuniform 0();
    }
    leftSides_periodic0
    {
        type            cyclic;
    }
    leftSides_periodic1
    {
        type            cyclic;
    }
    rightSides_periodic0
    {
        type            cyclic;
    }
    rightSides_periodic1
    {
        type            cyclic;
    }
    leftInOut_periodic0
    {
        type            cyclic;
    }
    leftInOut_periodic1
    {
        type            cyclic;
    }
    rightInOut_periodic0
    {
        type            cyclic;
    }
    rightInOut_periodic1
    {
        type            cyclic;
    }
    procBoundary2to0
    {
        type            processor;
        value           nonuniform List<vector> 
316
(
(0.000104229 -6.45709e-07 -0.00467846)
(1.14722e-05 -4.25649e-07 -0.00401772)
(-9.34512e-05 -5.01307e-07 -0.00482147)
(-1.88626e-05 -6.09601e-07 -0.00451124)
(0.000289246 -2.63771e-06 -0.0141384)
(2.60542e-05 -2.38827e-06 -0.0122974)
(-0.000257342 -2.66255e-06 -0.0145589)
(-4.75756e-05 -3.57483e-06 -0.0137134)
(0.00044436 -8.07212e-06 -0.0237277)
(3.2577e-05 -6.69795e-06 -0.0208325)
(-0.000391517 -7.48205e-06 -0.0244214)
(-6.77898e-05 -9.95179e-06 -0.0231078)
(0.000578275 -1.40662e-05 -0.0334112)
(3.61955e-05 -1.20189e-05 -0.0295472)
(-0.000504601 -1.35234e-05 -0.0343647)
(-8.4752e-05 -1.81136e-05 -0.032616)
(0.000697838 -2.18483e-05 -0.0431278)
(3.93131e-05 -1.86979e-05 -0.0383683)
(-0.000603339 -2.10654e-05 -0.0443239)
(-0.000100999 -2.83002e-05 -0.0421602)
(0.000803218 -3.03399e-05 -0.0528011)
(4.13854e-05 -2.59246e-05 -0.0472237)
(-0.000687814 -2.93521e-05 -0.0542171)
(-0.000116124 -3.96437e-05 -0.0516646)
(0.000894663 -3.9216e-05 -0.0623522)
(4.18759e-05 -3.33197e-05 -0.0560357)
(-0.000758251 -3.8005e-05 -0.0639623)
(-0.000129686 -5.17184e-05 -0.0610532)
(0.000972505 -4.81619e-05 -0.0717005)
(4.03622e-05 -4.06129e-05 -0.0647215)
(-0.000815033 -4.67545e-05 -0.0734777)
(-0.000141287 -6.42106e-05 -0.07025)
(0.00103725 -5.69507e-05 -0.0807647)
(3.65724e-05 -4.76029e-05 -0.0731967)
(-0.000858749 -5.54072e-05 -0.0826832)
(-0.000150608 -7.68844e-05 -0.0791802)
(0.00108963 -6.53499e-05 -0.0894718)
(3.0402e-05 -5.41139e-05 -0.0813828)
(-0.00089022 -6.37399e-05 -0.0915076)
(-0.000157443 -8.95413e-05 -0.0877752)
(0.00113054 -7.32429e-05 -0.0977706)
(2.18952e-05 -6.00376e-05 -0.0892205)
(-0.000910561 -7.1621e-05 -0.0999014)
(-0.000161672 -0.000101985 -0.0959845)
(0.00116117 -8.06266e-05 -0.10564)
(1.10959e-05 -6.52892e-05 -0.0966784)
(-0.000921217 -7.91007e-05 -0.107845)
(-0.000163224 -0.000114016 -0.103783)
(0.00118299 -8.74574e-05 -0.113086)
(-1.98997e-06 -6.97108e-05 -0.103753)
(-0.000923726 -8.61589e-05 -0.115348)
(-0.000162207 -0.000125505 -0.111175)
(0.00119745 -9.35049e-05 -0.120129)
(-1.71678e-05 -7.31529e-05 -0.110465)
(-0.000919607 -9.25956e-05 -0.12244)
(-0.000158954 -0.000136378 -0.118184)
(0.00120588 -9.85428e-05 -0.126799)
(-3.39935e-05 -7.5548e-05 -0.116843)
(-0.000910211 -9.81822e-05 -0.129155)
(-0.000153864 -0.000146548 -0.124842)
(0.00120924 -0.000102514 -0.133126)
(-5.19767e-05 -7.68932e-05 -0.12292)
(-0.000896366 -0.000102865 -0.13553)
(-0.000147187 -0.000155887 -0.131178)
(0.00120827 -0.000105433 -0.139137)
(-7.08193e-05 -7.71251e-05 -0.128724)
(-0.000878603 -0.000106689 -0.14159)
(-0.000138955 -0.000164267 -0.137218)
(0.00120362 -0.000107272 -0.144859)
(-9.0441e-05 -7.61204e-05 -0.134276)
(-0.000857443 -0.000109619 -0.147363)
(-0.000129167 -0.00017161 -0.142983)
(0.00119587 -0.000107963 -0.150311)
(-0.000110805 -7.38024e-05 -0.139598)
(-0.000833392 -0.000111588 -0.152869)
(-0.00011792 -0.000177883 -0.148492)
(0.00118548 -0.000107496 -0.155512)
(-0.000131809 -7.0149e-05 -0.144708)
(-0.000806916 -0.000112572 -0.158128)
(-0.000105359 -0.000183041 -0.153764)
(0.00117287 -0.000105878 -0.160478)
(-0.000153296 -6.51678e-05 -0.14962)
(-0.000778392 -0.000112593 -0.163158)
(-9.1678e-05 -0.000187029 -0.158813)
(0.00115837 -0.000102987 -0.165223)
(-0.000175092 -5.8867e-05 -0.154347)
(-0.000748156 -0.000111686 -0.167975)
(-7.71629e-05 -0.000189911 -0.163654)
(0.00114226 -9.89419e-05 -0.169764)
(-0.000197077 -5.12994e-05 -0.158901)
(-0.0007165 -0.000109873 -0.172591)
(-6.21527e-05 -0.000191686 -0.168296)
(0.00112494 -9.38008e-05 -0.174118)
(-0.000219176 -4.24886e-05 -0.163288)
(-0.00068363 -0.000107158 -0.177019)
(-4.69497e-05 -0.000192395 -0.172748)
(0.00110691 -8.74507e-05 -0.178303)
(-0.000241269 -3.26002e-05 -0.16752)
(-0.000649808 -0.000103639 -0.181268)
(-3.17188e-05 -0.000192258 -0.177022)
(0.00108859 -8.00867e-05 -0.182334)
(-0.000263199 -2.16974e-05 -0.171605)
(-0.000615362 -9.94603e-05 -0.185351)
(-1.64529e-05 -0.000191204 -0.181129)
(0.00106981 -7.19182e-05 -0.186218)
(-0.000284859 -9.8242e-06 -0.175556)
(-0.000580672 -9.4606e-05 -0.189282)
(-9.88622e-07 -0.000189183 -0.185083)
(0.00104984 -6.27524e-05 -0.189962)
(-0.000306096 2.93099e-06 -0.179384)
(-0.000545921 -8.88992e-05 -0.193077)
(1.48329e-05 -0.00018624 -0.188895)
(0.00102824 -5.25374e-05 -0.193575)
(-0.000326662 1.66875e-05 -0.183097)
(-0.000510709 -8.25467e-05 -0.196743)
(3.0885e-05 -0.000182613 -0.192568)
(0.00100511 -4.14792e-05 -0.197068)
(-0.000346377 3.15416e-05 -0.186699)
(-0.000474722 -7.61225e-05 -0.200289)
(4.67967e-05 -0.000178431 -0.196106)
(0.000980312 -2.94401e-05 -0.200445)
(-0.000365357 4.71815e-05 -0.19019)
(-0.000437555 -6.95332e-05 -0.203727)
(6.19163e-05 -0.000173146 -0.199514)
(0.000953639 -1.65799e-05 -0.203707)
(-0.000384086 6.30119e-05 -0.193568)
(-0.000398369 -6.18535e-05 -0.20707)
(7.52517e-05 -0.000166854 -0.202799)
(0.000925304 -3.34541e-06 -0.206867)
(-0.000402858 7.85491e-05 -0.196842)
(-0.000356848 -5.27679e-05 -0.210329)
(8.58614e-05 -0.000160712 -0.205967)
(0.000895974 9.97842e-06 -0.209954)
(-0.000421662 9.45357e-05 -0.200025)
(-0.000313599 -4.32795e-05 -0.213506)
(9.40367e-05 -0.000155275 -0.20903)
(0.000868571 2.45345e-05 -0.212957)
(-0.000440186 0.00011212 -0.203128)