0 	0 	0 	0
0 	7.9817e-36 	-3.15814e-36 	1.85294e-31
5.01672e-05 	6.29967e-07 	-3.37716e-07 	0.0172845
5.01672e-05 	6.29967e-07 	-3.37716e-07 	0.0172845
0.000100334 	3.71723e-07 	-1.04763e-06 	0.0332468
0.000150502 	-2.19497e-08 	-2.1841e-06 	0.0480628
0.000150502 	-2.19497e-08 	-2.1841e-06 	0.0480628
0.000200669 	-2.81169e-07 	-3.73442e-06 	0.0618223
0.000200669 	-2.81169e-07 	-3.73442e-06 	0.0618223
0.000250836 	-4.56511e-07 	-5.70562e-06 	0.0746022
0.000301003 	-6.03432e-07 	-8.08592e-06 	0.086466
0.000301003 	-6.03432e-07 	-8.08592e-06 	0.086466
0.000351171 	-7.4017e-07 	-1.08703e-05 	0.097455
0.000401338 	-8.73295e-07 	-1.40626e-05 	0.107589
0.000451505 	-1.00376e-06 	-1.76828e-05 	0.116881
0.000451505 	-1.00376e-06 	-1.76828e-05 	0.116881
0.000501672 	-1.12906e-06 	-2.17641e-05 	0.125358
0.000551839 	-1.24517e-06 	-2.63419e-05 	0.133065
0.000551839 	-1.24517e-06 	-2.63419e-05 	0.133065
0.000602007 	-1.34807e-06 	-3.14446e-05 	0.140064
0.000602007 	-1.34807e-06 	-3.14446e-05 	0.140064
0.000652174 	-1.43486e-06 	-3.70935e-05 	0.146424
0.000652174 	-1.43486e-06 	-3.70935e-05 	0.146424
0.000702341 	-1.50408e-06 	-4.33075e-05 	0.15222
0.000702341 	-1.50408e-06 	-4.33075e-05 	0.15222
0.000752508 	-1.5554e-06 	-5.01019e-05 	0.157521
0.000802676 	-1.58906e-06 	-5.74914e-05 	0.162381
0.000852843 	-1.60337e-06 	-6.55704e-05 	0.166795
0.000852843 	-1.60337e-06 	-6.55704e-05 	0.166795
0.00090301 	-1.60217e-06 	-7.42134e-05 	0.170872
0.00090301 	-1.60217e-06 	-7.42134e-05 	0.170872
0.000953177 	-1.5866e-06 	-8.33712e-05 	0.174651
0.00100334 	-1.55782e-06 	-9.29929e-05 	0.178169
0.00100334 	-1.55782e-06 	-9.29929e-05 	0.178169
0.00105351 	-1.517e-06 	-0.00010303 	0.181456
0.00105351 	-1.517e-06 	-0.00010303 	0.181456
0.00110368 	-1.46502e-06 	-0.000113446 	0.184537
0.00115385 	-1.40059e-06 	-0.000124281 	0.18739
0.00120401 	-1.32811e-06 	-0.000135387 	0.190091
0.00120401 	-1.32811e-06 	-0.000135387 	0.190091
0.00130435 	-1.16258e-06 	-0.000158277 	0.195103
0.00130435 	-1.16258e-06 	-0.000158277 	0.195103
0.00135452 	-1.06944e-06 	-0.000170048 	0.197405
0.00135452 	-1.06944e-06 	-0.000170048 	0.197405
0.00140468 	-9.70766e-07 	-0.000181969 	0.199598
0.00145485 	-8.67772e-07 	-0.00019399 	0.201707
0.00145485 	-8.67772e-07 	-0.00019399 	0.201707
0.00150502 	-7.60769e-07 	-0.000206093 	0.203739
0.00150502 	-7.60769e-07 	-0.000206093 	0.203739
0.00155518 	-6.47975e-07 	-0.000218273 	0.205663
0.00155518 	-6.47975e-07 	-0.000218273 	0.205663
0.00160535 	-5.32067e-07 	-0.000230466 	0.207527
0.00160535 	-5.32067e-07 	-0.000230466 	0.207527
0.00165552 	-4.13494e-07 	-0.000242659 	0.209339
0.00165552 	-4.13494e-07 	-0.000242659 	0.209339
0.00170569 	-2.91641e-07 	-0.000254814 	0.211079
0.00170569 	-2.91641e-07 	-0.000254814 	0.211079
0.00175585 	-1.67548e-07 	-0.000266887 	0.212764
0.00175585 	-1.67548e-07 	-0.000266887 	0.212764
0.00180602 	-4.19985e-08 	-0.000278888 	0.214411
0.00180602 	-4.19985e-08 	-0.000278888 	0.214411
0.00185619 	8.54782e-08 	-0.000290752 	0.216005
0.00185619 	8.54782e-08 	-0.000290752 	0.216005
0.00190635 	2.14454e-07 	-0.000302445 	0.217553
0.00190635 	2.14454e-07 	-0.000302445 	0.217553
0.00195652 	3.44335e-07 	-0.000314016 	0.219073
0.00195652 	3.44335e-07 	-0.000314016 	0.219073
0.00200669 	4.7568e-07 	-0.000325342 	0.220545
0.00200669 	4.7568e-07 	-0.000325342 	0.220545
0.00205686 	6.07964e-07 	-0.000336451 	0.221984
0.00210702 	7.40868e-07 	-0.000347416 	0.223402
0.00210702 	7.40868e-07 	-0.000347416 	0.223402
0.00215719 	8.7513e-07 	-0.000357974 	0.224771
0.00220736 	1.00988e-06 	-0.000368356 	0.226121
0.00225753 	1.14539e-06 	-0.000378454 	0.227443
0.00225753 	1.14539e-06 	-0.000378454 	0.227443
0.00230769 	1.28178e-06 	-0.000388183 	0.228732
0.00230769 	1.28178e-06 	-0.000388183 	0.228732
0.00235786 	1.41853e-06 	-0.000397751 	0.230008
0.00235786 	1.41853e-06 	-0.000397751 	0.230008
0.00240803 	1.55639e-06 	-0.000406798 	0.231242
0.00240803 	1.55639e-06 	-0.000406798 	0.231242
0.00245819 	1.69463e-06 	-0.000415652 	0.232464
0.00245819 	1.69463e-06 	-0.000415652 	0.232464
0.00250836 	1.83365e-06 	-0.000424118 	0.233658
0.00250836 	1.83365e-06 	-0.000424118 	0.233658
0.00255853 	1.97339e-06 	-0.000432227 	0.234828
0.0026087 	2.11363e-06 	-0.000440083 	0.235982
0.0026087 	2.11363e-06 	-0.000440083 	0.235982
0.00265886 	2.25498e-06 	-0.000447426 	0.237103
0.00270903 	2.39658e-06 	-0.000454647 	0.238218
0.00270903 	2.39658e-06 	-0.000454647 	0.238218
0.0027592 	2.5398e-06 	-0.000461213 	0.239293
0.00280936 	2.68334e-06 	-0.000467672 	0.240362
0.00280936 	2.68334e-06 	-0.000467672 	0.240362
0.00285953 	2.82855e-06 	-0.000473567 	0.241398
0.00285953 	2.82855e-06 	-0.000473567 	0.241398
0.0029097 	2.97445e-06 	-0.00047927 	0.242424
0.0029097 	2.97445e-06 	-0.00047927 	0.242424
0.00295987 	3.12211e-06 	-0.000484491 	0.243421
0.00295987 	3.12211e-06 	-0.000484491 	0.243421
0.00301003 	3.27083e-06 	-0.000489462 	0.244404
0.0030602 	3.42133e-06 	-0.000494021 	0.245363
0.00311037 	3.57318e-06 	-0.000498306 	0.246306
0.00311037 	3.57318e-06 	-0.000498306 	0.246306
0.00316054 	3.72679e-06 	-0.000502234 	0.247226
0.00316054 	3.72679e-06 	-0.000502234 	0.247226
0.00326087 	4.03877e-06 	-0.000509231 	0.249012
0.00326087 	4.03877e-06 	-0.000509231 	0.249012
0.00331104 	4.19727e-06 	-0.000512332 	0.249877
0.0033612 	4.35779e-06 	-0.000515135 	0.250721
0.0033612 	4.35779e-06 	-0.000515135 	0.250721
0.00341137 	4.5202e-06 	-0.000517749 	0.25155
0.00341137 	4.5202e-06 	-0.000517749 	0.25155
0.00346154 	4.68545e-06 	-0.000520075 	0.252355
0.00346154 	4.68545e-06 	-0.000520075 	0.252355
0.00351171 	4.85267e-06 	-0.000522272 	0.253149
0.00356187 	5.02421e-06 	-0.000524181 	0.253917
0.00356187 	5.02421e-06 	-0.000524181 	0.253917
0.00361204 	5.1971e-06 	-0.000526022 	0.254679
0.00366221 	5.37576e-06 	-0.000527569 	0.255412
0.00366221 	5.37576e-06 	-0.000527569 	0.255412
0.00371237 	5.55462e-06 	-0.000529107 	0.256144
0.00371237 	5.55462e-06 	-0.000529107 	0.256144
0.00376254 	5.73995e-06 	-0.000530337 	0.256844
0.00376254 	5.73995e-06 	-0.000530337 	0.256844
0.00381271 	5.92528e-06 	-0.000531567 	0.257544
0.00381271 	5.92528e-06 	-0.000531567 	0.257544
0.00386288 	6.1152e-06 	-0.000532563 	0.258217
0.00391304 	6.30607e-06 	-0.000533512 	0.258885
0.00391304 	6.30607e-06 	-0.000533512 	0.258885
0.00396321 	6.49968e-06 	-0.000534314 	0.259534
0.00401338 	6.69519e-06 	-0.000535016 	0.26017
0.00401338 	6.69519e-06 	-0.000535016 	0.26017
0.00406355 	6.89202e-06 	-0.000535651 	0.260795
0.00406355 	6.89202e-06 	-0.000535651 	0.260795
0.00411371 	7.0917e-06 	-0.00053614 	0.261399
0.00411371 	7.0917e-06 	-0.00053614 	0.261399
0.00421405 	7.49482e-06 	-0.000536941 	0.262574
0.00421405 	7.49482e-06 	-0.000536941 	0.262574
0.00426421 	7.69827e-06 	-0.000537251 	0.263145
0.00426421 	7.69827e-06 	-0.000537251 	0.263145
0.00431438 	7.90375e-06 	-0.000537472 	0.263696
0.00431438 	7.90375e-06 	-0.000537472 	0.263696
0.00436455 	8.11043e-06 	-0.000537639 	0.264235
0.00436455 	8.11043e-06 	-0.000537639 	0.264235
0.00441472 	8.31769e-06 	-0.000537782 	0.264767
0.00441472 	8.31769e-06 	-0.000537782 	0.264767
0.00446488 	8.52694e-06 	-0.000537841 	0.265273
0.00446488 	8.52694e-06 	-0.000537841 	0.265273
0.00451505 	8.73618e-06 	-0.0005379 	0.26578
0.00451505 	8.73618e-06 	-0.0005379 	0.26578
0.00456522 	8.94682e-06 	-0.000537901 	0.266262
0.00456522 	8.94682e-06 	-0.000537901 	0.266262
0.00461538 	9.15784e-06 	-0.000537886 	0.266736
0.00461538 	9.15784e-06 	-0.000537886 	0.266736
0.00466555 	9.36911e-06 	-0.000537859 	0.267201
0.00471572 	9.581e-06 	-0.000537802 	0.267643
0.00476589 	9.79288e-06 	-0.000537745 	0.268085
0.00476589 	9.79288e-06 	-0.000537745 	0.268085
0.00486622 	1.02165e-05 	-0.000537609 	0.268912
0.00486622 	1.02165e-05 	-0.000537609 	0.268912
0.00491639 	1.04281e-05 	-0.000537543 	0.269316
0.00496656 	1.06387e-05 	-0.000537488 	0.269693
0.00496656 	1.06387e-05 	-0.000537488 	0.269693
0.00501672 	1.08494e-05 	-0.000537434 	0.270071
0.00506689 	1.10589e-05 	-0.0005374 	0.270431
0.00511706 	1.12673e-05 	-0.000537382 	0.270776
0.00511706 	1.12673e-05 	-0.000537382 	0.270776
0.00521739 	1.16813e-05 	-0.000537395 	0.271439
0.00521739 	1.16813e-05 	-0.000537395 	0.271439
0.00526756 	1.18864e-05 	-0.000537433 	0.271752
0.00526756 	1.18864e-05 	-0.000537433 	0.271752
0.00531773 	1.20907e-05 	-0.00053748 	0.272061
0.00536789 	1.22912e-05 	-0.000537583 	0.272343
0.00536789 	1.22912e-05 	-0.000537583 	0.272343
0.00541806 	1.24917e-05 	-0.000537687 	0.272625
0.00546823 	1.269e-05 	-0.000537818 	0.272895
0.00551839 	1.28847e-05 	-0.000537994 	0.273146
0.00551839 	1.28847e-05 	-0.000537994 	0.273146
0.00556856 	1.30794e-05 	-0.00053817 	0.273398
0.00556856 	1.30794e-05 	-0.00053817 	0.273398
0.0056689 	1.34579e-05 	-0.000538634 	0.273852
0.0056689 	1.34579e-05 	-0.000538634 	0.273852
0.00571906 	1.36456e-05 	-0.000538883 	0.274073
0.00576923 	1.38273e-05 	-0.000539177 	0.274273
0.00576923 	1.38273e-05 	-0.000539177 	0.274273
0.0058194 	1.40065e-05 	-0.000539492 	0.274465
0.0058194 	1.40065e-05 	-0.000539492 	0.274465
0.00591973 	1.43568e-05 	-0.000540163 	0.274825
0.00591973 	1.43568e-05 	-0.000540163 	0.274825
0.0059699 	1.45255e-05 	-0.000540533 	0.274988
0.0059699 	1.45255e-05 	-0.000540533 	0.274988
0.00602007 	1.46942e-05 	-0.000540902 	0.275151
0.00607023 	1.4853e-05 	-0.000541301 	0.275292
0.0061204 	1.50092e-05 	-0.000541707 	0.275427
0.0061204 	1.50092e-05 	-0.000541707 	0.275427
0.00617057 	1.51654e-05 	-0.000542114 	0.275562
0.00622074 	1.53104e-05 	-0.000542535 	0.275677
0.00622074 	1.53104e-05 	-0.000542535 	0.275677
0.0062709 	1.5452e-05 	-0.000542961 	0.275786
0.00632107 	1.55935e-05 	-0.000543386 	0.275894
0.00632107 	1.55935e-05 	-0.000543386 	0.275894
0.00637124 	1.57236e-05 	-0.000543812 	0.275985
0.00637124 	1.57236e-05 	-0.000543812 	0.275985
0.0064214 	1.58484e-05 	-0.000544238 	0.276068
0.0064214 	1.58484e-05 	-0.000544238 	0.276068
0.00647157 	1.59731e-05 	-0.000544663 	0.276151
0.00647157 	1.59731e-05 	-0.000544663 	0.276151
0.00652174 	1.60874e-05 	-0.000545067 	0.27622
0.00657191 	1.61928e-05 	-0.000545453 	0.276277
0.00657191 	1.61928e-05 	-0.000545453 	0.276277
0.00662207 	1.62983e-05 	-0.000545839 	0.276335
0.00667224 	1.63961e-05 	-0.000546211 	0.276384
0.00672241 	1.64798e-05 	-0.000546557 	0.276417
0.00672241 	1.64798e-05 	-0.000546557 	0.276417
0.00677258 	1.65635e-05 	-0.000546903 	0.27645
0.00682274 	1.66448e-05 	-0.000547246 	0.27648
0.00682274 	1.66448e-05 	-0.000547246 	0.27648
0.00687291 	1.6704e-05 	-0.000547562 	0.276489
0.00687291 	1.6704e-05 	-0.000547562 	0.276489
0.00692308 	1.67633e-05 	-0.000547877 	0.276498
0.00697324 	1.68225e-05 	-0.000548193 	0.276507
0.00702341 	1.68604e-05 	-0.000548448 	0.276497
0.00707358 	1.68926e-05 	-0.000548687 	0.276481
0.00707358 	1.68926e-05 	-0.000548687 	0.276481
0.00717391 	1.69439e-05 	-0.000549152 	0.276441
0.00717391 	1.69439e-05 	-0.000549152 	0.276441
0.00722408 	1.6945e-05 	-0.000549362 	0.276401
0.00722408 	1.6945e-05 	-0.000549362 	0.276401
0.00727425 	1.6946e-05 	-0.000549572 	0.276362
0.00727425 	1.6946e-05 	-0.000549572 	0.276362
0.00732441 	1.6947e-05 	-0.000549781 	0.276323
0.00732441 	1.6947e-05 	-0.000549781 	0.276323
0.00737458 	1.69126e-05 	-0.000549914 	0.27626
0.00737458 	1.69126e-05 	-0.000549914 	0.27626
0.00742475 	1.68778e-05 	-0.000550045 	0.276197
0.00747492 	1.6843e-05 	-0.000550177 	0.276134
0.00752508 	1.679e-05 	-0.000550233 	0.276058
0.00752508 	1.679e-05 	-0.000550233 	0.276058
0.00757525 	1.67186e-05 	-0.000550213 	0.275971
0.00762542 	1.66473e-05 	-0.000550193 	0.275884
0.00767559 	1.65756e-05 	-0.000550173 	0.275797
0.00767559 	1.65756e-05 	-0.000550173 	0.275797
0.00772575 	1.64692e-05 	-0.000550055 	0.275686
0.00777592 	1.63628e-05 	-0.000549936 	0.275575
0.00777592 	1.63628e-05 	-0.000549936 	0.275575
0.00782609 	1.62564e-05 	-0.000549818 	0.275464
0.00787625 	1.61328e-05 	-0.000549609 	0.275339
0.00787625 	1.61328e-05 	-0.000549609 	0.275339
0.00792642 	1.59966e-05 	-0.000549333 	0.275205
0.00797659 	1.58604e-05 	-0.000549058 	0.275071
0.00802676 	1.57191e-05 	-0.000548751 	0.274931
0.00802676 	1.57191e-05 	-0.000548751 	0.274931
0.00807692 	1.55584e-05 	-0.000548328 	0.274774
0.00807692 	1.55584e-05 	-0.000548328 	0.274774
0.00812709 	1.53977e-05 	-0.000547905 	0.274617
0.00817726 	1.5237e-05 	-0.000547482 	0.27446
0.00817726 	1.5237e-05 	-0.000547482 	0.27446
0.00822742 	1.50568e-05 	-0.000546974 	0.274282
0.00827759 	1.48744e-05 	-0.000546458 	0.274103
0.00827759 	1.48744e-05 	-0.000546458 	0.274103
0.00832776 	1.4692e-05 	-0.000545941 	0.273923
0.00832776 	1.4692e-05 	-0.000545941 	0.273923
0.00837793 	1.44974e-05 	-0.000545347 	0.273729
0.00842809 	1.42961e-05 	-0.00054471 	0.273527
0.00842809 	1.42961e-05 	-0.00054471 	0.273527
0.00847826 	1.40949e-05 	-0.000544073 	0.273324
0.00847826 	1.40949e-05 	-0.000544073 	0.273324
0.0085786 	1.36694e-05 	-0.000542628 	0.272888
0.0085786 	1.36694e-05 	-0.000542628 	0.272888
0.00862876 	1.34523e-05 	-0.000541874 	0.272663
0.00867893 	1.3231e-05 	-0.000541082 	0.272431
0.0087291 	1.30008e-05 	-0.000540212 	0.272185
0.00877926 	1.27705e-05 	-0.000539341 	0.271938
0.00882943 	1.25377e-05 	-0.000538444 	0.271686
0.0088796 	1.22968e-05 	-0.000537458 	0.271416
0.0088796 	1.22968e-05 	-0.000537458 	0.271416
0.00892977 	1.20559e-05 	-0.000536472 	0.271147
0.00892977 	1.20559e-05 	-0.000536472 	0.271147
0.00897993 	1.18132e-05 	-0.000535462 	0.270873
0.00897993 	1.18132e-05 	-0.000535462 	0.270873
0.0090301 	1.15638e-05 	-0.000534361 	0.270582
0.00908027 	1.13145e-05 	-0.00053326 	0.27029
0.00908027 	1.13145e-05 	-0.00053326 	0.27029
0.00913043 	1.10636e-05 	-0.000532132 	0.269993
0.0091806 	1.08078e-05 	-0.000530916 	0.269679
0.0091806 	1.08078e-05 	-0.000530916 	0.269679
0.00923077 	1.0552e-05 	-0.0005297 	0.269364
0.00928094 	1.02947e-05 	-0.000528449 	0.269043
0.00928094 	1.02947e-05 	-0.000528449 	0.269043
0.0093311 	1.00341e-05 	-0.000527118 	0.268706
0.00938127 	9.77357e-06 	-0.000525786 	0.268369
0.00938127 	9.77357e-06 	-0.000525786 	0.268369
0.00943144 	9.51158e-06 	-0.000524404 	0.268022
0.00943144 	9.51158e-06 	-0.000524404 	0.268022
0.00948161 	9.24775e-06 	-0.000522957 	0.267661
0.00948161 	9.24775e-06 	-0.000522957 	0.267661
0.00953177 	8.98393e-06 	-0.000521509 	0.267301
0.00953177 	8.98393e-06 	-0.000521509 	0.267301
0.00958194 	8.71887e-06 	-0.000519989 	0.266927
0.00958194 	8.71887e-06 	-0.000519989 	0.266927
0.00963211 	8.45305e-06 	-0.000518424 	0.266543
0.00968227 	8.18723e-06 	-0.000516858 	0.266159
0.00968227 	8.18723e-06 	-0.000516858 	0.266159
0.00973244 	7.92063e-06 	-0.000515191 	0.265756
0.00978261 	7.65389e-06 	-0.000513505 	0.265348
0.00978261 	7.65389e-06 	-0.000513505 	0.265348
0.00983278 	7.38714e-06 	-0.000511804 	0.264938
0.00983278 	7.38714e-06 	-0.000511804 	0.264938
0.00988294 	7.12039e-06 	-0.000509995 	0.264506
0.00993311 	6.85364e-06 	-0.000508186 	0.264074
0.00993311 	6.85364e-06 	-0.000508186 	0.264074
0.00998328 	6.58724e-06 	-0.000506319 	0.263632
0.0100334 	6.32126e-06 	-0.000504383 	0.263175
0.0100836 	6.05528e-06 	-0.000502447 	0.262719
0.0100836 	6.05528e-06 	-0.000502447 	0.262719
0.0101338 	5.79049e-06 	-0.000500401 	0.262241
0.0101839 	5.52595e-06 	-0.000498333 	0.261759
0.0101839 	5.52595e-06 	-0.000498333 	0.261759
0.0102341 	5.2619e-06 	-0.000496231 	0.261271
0.0102341 	5.2619e-06 	-0.000496231 	0.261271
0.0102843 	4.99939e-06 	-0.000494025 	0.260763
0.0103344 	4.73687e-06 	-0.00049182 	0.260255
0.0103344 	4.73687e-06 	-0.00049182 	0.260255
0.0103846 	4.47616e-06 	-0.000489512 	0.259729
0.0103846 	4.47616e-06 	-0.000489512 	0.259729
0.0104348 	4.21619e-06 	-0.000487162 	0.259194
0.0104348 	4.21619e-06 	-0.000487162 	0.259194
0.0104849 	3.95687e-06 	-0.000484779 	0.258653
0.0104849 	3.95687e-06 	-0.000484779 	0.258653
0.0105351 	3.69991e-06 	-0.000482279 	0.258091
0.0105853 	3.44295e-06 	-0.000479778 	0.257529
0.0105853 	3.44295e-06 	-0.000479778 	0.257529
0.0106856 	2.93504e-06 	-0.000474496 	0.256354
0.0106856 	2.93504e-06 	-0.000474496 	0.256354
0.0107358 	2.68285e-06 	-0.000471776 	0.255752
0.010786 	2.43303e-06 	-0.00046895 	0.255132
0.010786 	2.43303e-06 	-0.00046895 	0.255132
0.0108361 	2.18323e-06 	-0.000466123 	0.254512
0.0108863 	1.93741e-06 	-0.000463123 	0.253861
0.0108863 	1.93741e-06 	-0.000463123 	0.253861
0.0109365 	1.6916e-06 	-0.000460122 	0.25321
0.0109365 	1.6916e-06 	-0.000460122 	0.25321
0.0109866 	1.4487e-06 	-0.000456997 	0.252537
0.0110368 	1.20714e-06 	-0.000453814 	0.251854
0.0110368 	1.20714e-06 	-0.000453814 	0.251854
0.011087 	9.67411e-07 	-0.000450553 	0.251158
0.011087 	9.67411e-07 	-0.000450553 	0.251158
0.0111371 	7.30341e-07 	-0.000447178 	0.250441
0.0111873 	4.94081e-07 	-0.000443767 	0.249719
0.0111873 	4.94081e-07 	-0.000443767 	0.249719
0.0112375 	2.61788e-07 	-0.000440185 	0.248968
0.0112876 	2.94954e-08 	-0.000436603 	0.248218
0.0112876 	2.94954e-08 	-0.000436603 	0.248218
0.0113378 	-1.97874e-07 	-0.000432804 	0.247431
0.0113378 	-1.97874e-07 	-0.000432804 	0.247431
0.011388 	-4.25092e-07 	-0.000428998 	0.246644
0.0114381 	-6.48068e-07 	-0.00042499 	0.245825
0.0114381 	-6.48068e-07 	-0.00042499 	0.245825
0.0114883 	-8.70048e-07 	-0.000420935 	0.244998
0.0115385 	-1.08827e-06 	-0.000416681 	0.244142
0.0115385 	-1.08827e-06 	-0.000416681 	0.244142
0.0115886 	-1.30477e-06 	-0.000412337 	0.243273
0.0116388 	-1.51771e-06 	-0.000407793 	0.242375
0.0116388 	-1.51771e-06 	-0.000407793 	0.242375
0.011689 	-1.72828e-06 	-0.000403115 	0.241458
0.0117391 	-1.93545e-06 	-0.000398224 	0.240512
0.0117893 	-2.13988e-06 	-0.000393162 	0.239543
0.0118395 	-2.3412e-06 	-0.000387865 	0.238543
0.0118395 	-2.3412e-06 	-0.000387865 	0.238543
0.0118896 	-2.53989e-06 	-0.000382371 	0.237517
0.0119398 	-2.73572e-06 	-0.000376616 	0.236455
0.0119398 	-2.73572e-06 	-0.000376616 	0.236455
0.01199 	-2.92935e-06 	-0.00037066 	0.235367
0.0120401 	-3.12019e-06 	-0.000364406 	0.234236
0.0120401 	-3.12019e-06 	-0.000364406 	0.234236
0.0120903 	-3.30933e-06 	-0.000357973 	0.233081
0.0120903 	-3.30933e-06 	-0.000357973 	0.233081
0.0121906 	-3.68028e-06 	-0.000344277 	0.230647
0.0121906 	-3.68028e-06 	-0.000344277 	0.230647
0.0122408 	-3.86155e-06 	-0.000336953 	0.229356
0.012291 	-4.04214e-06 	-0.000329551 	0.228053
0.012291 	-4.04214e-06 	-0.000329551 	0.228053
0.0123411 	-4.2184e-06 	-0.000321666 	0.226668
0.0123913 	-4.39382e-06 	-0.00031369 	0.225267
0.0123913 	-4.39382e-06 	-0.00031369 	0.225267
0.0124415 	-4.56567e-06 	-0.000305329 	0.223797
0.0124415 	-4.56567e-06 	-0.000305329 	0.223797
0.0124916 	-4.73565e-06 	-0.000296776 	0.222288
0.0124916 	-4.73565e-06 	-0.000296776 	0.222288
0.0125418 	-4.903e-06 	-0.000287952 	0.220726
0.012592 	-5.06723e-06 	-0.000278836 	0.2191
0.0126421 	-5.22993e-06 	-0.000269576 	0.217442
0.0126421 	-5.22993e-06 	-0.000269576 	0.217442
0.0126923 	-5.38798e-06 	-0.000259931 	0.215687
0.0127425 	-5.54441e-06 	-0.000250173 	0.213899
0.0127425 	-5.54441e-06 	-0.000250173 	0.213899
0.0127926 	-5.69706e-06 	-0.000240156 	0.212033
0.0128428 	-5.84628e-06 	-0.000229958 	0.210098
0.0128428 	-5.84628e-06 	-0.000229958 	0.210098
0.0129431 	-6.13441e-06 	-0.000209114 	0.206028
0.0129431 	-6.13441e-06 	-0.000209114 	0.206028
0.0129933 	-6.27277e-06 	-0.000198522 	0.203885
0.0130435 	-6.40706e-06 	-0.000187842 	0.201667
0.0130435 	-6.40706e-06 	-0.000187842 	0.201667
0.0131438 	-6.65981e-06 	-0.000166385 	0.196959
0.0131438 	-6.65981e-06 	-0.000166385 	0.196959
0.013194 	-6.77847e-06 	-0.000155677 	0.194477
0.0132441 	-6.89011e-06 	-0.000145062 	0.191885
0.0132441 	-6.89011e-06 	-0.000145062 	0.191885
0.0132943 	-6.99677e-06 	-0.000134532 	0.189217
0.0133445 	-7.09612e-06 	-0.000124152 	0.18644
0.0133445 	-7.09612e-06 	-0.000124152 	0.18644
0.0133946 	-7.18617e-06 	-0.00011401 	0.183531
0.0133946 	-7.18617e-06 	-0.00011401 	0.183531
0.0134448 	-7.26931e-06 	-0.000104061 	0.180528
0.0134448 	-7.26931e-06 	-0.000104061 	0.180528
0.013495 	-7.34467e-06 	-9.43397e-05 	0.17742
0.0135452 	-7.40616e-06 	-8.50446e-05 	0.174134
0.0135452 	-7.40616e-06 	-8.50446e-05 	0.174134
0.0135953 	-7.45782e-06 	-7.6057e-05 	0.170728
0.0135953 	-7.45782e-06 	-7.6057e-05 	0.170728
0.0136455 	-7.49875e-06 	-6.7404e-05 	0.167192
0.0136455 	-7.49875e-06 	-6.7404e-05 	0.167192
0.0136957 	-7.52577e-06 	-5.9184e-05 	0.16349
0.0136957 	-7.52577e-06 	-5.9184e-05 	0.16349
0.0137458 	-7.53515e-06 	-5.15087e-05 	0.15958
0.013796 	-7.52996e-06 	-4.42805e-05 	0.155498
0.013796 	-7.52996e-06 	-4.42805e-05 	0.155498
0.0138462 	-7.50894e-06 	-3.75303e-05 	0.151229
0.0138462 	-7.50894e-06 	-3.75303e-05 	0.151229
0.0138963 	-7.47069e-06 	-3.12892e-05 	0.146759
0.0139465 	-7.40713e-06 	-2.5749e-05 	0.141999
0.0139465 	-7.40713e-06 	-2.5749e-05 	0.141999
0.0139967 	-7.32165e-06 	-2.07675e-05 	0.136992
0.0139967 	-7.32165e-06 	-2.07675e-05 	0.136992
0.0140468 	-7.21276e-06 	-1.63443e-05 	0.131723
0.0140468 	-7.21276e-06 	-1.63443e-05 	0.131723
0.014097 	-7.07812e-06 	-1.24881e-05 	0.126173
0.0141472 	-6.91492e-06 	-9.19944e-06 	0.120316
0.0141472 	-6.91492e-06 	-9.19944e-06 	0.120316
0.0141973 	-6.71971e-06 	-6.46424e-06 	0.114127
0.0142475 	-6.48269e-06 	-4.32613e-06 	0.107507
0.0142977 	-6.20702e-06 	-2.65319e-06 	0.100469
0.0142977 	-6.20702e-06 	-2.65319e-06 	0.100469
0.0143478 	-5.89322e-06 	-1.40037e-06 	0.093004
0.014398 	-5.54348e-06 	-5.2697e-07 	0.0851284
0.014398 	-5.54348e-06 	-5.2697e-07 	0.0851284
0.0144482 	-5.16168e-06 	1.86699e-08 	0.0769002
0.0144983 	-4.75343e-06 	3.00307e-07 	0.0684236
0.0144983 	-4.75343e-06 	3.00307e-07 	0.0684236
0.0145485 	-4.326e-06 	3.89411e-07 	0.0598495
0.0145485 	-4.326e-06 	3.89411e-07 	0.0598495
0.0145987 	-3.887e-06 	3.58414e-07 	0.0513603
0.0146488 	-3.44229e-06 	2.71946e-07 	0.0431394
0.014699 	-2.99355e-06 	1.78555e-07 	0.0353377
0.014699 	-2.99355e-06 	1.78555e-07 	0.0353377
0.0147492 	-2.53577e-06 	1.06914e-07 	0.0280526
0.0147993 	-2.05247e-06 	6.60955e-08 	0.0213298
0.0147993 	-2.05247e-06 	6.60955e-08 	0.0213298
0.0148495 	-1.50358e-06 	5.36426e-08 	0.0151795
0.0148495 	-1.50358e-06 	5.36426e-08 	0.0151795
0.0148997 	-8.66619e-07 	4.50905e-08 	0.00959264
0.0148997 	-8.66619e-07 	4.50905e-08 	0.00959264
0.0149498 	-2.77901e-07 	2.95001e-08 	0.00454807
0.0149498 	-2.77901e-07 	2.95001e-08 	0.00454807
0.015 	0 	0 	0
0.015 	0 	0 	0
