-0.0075 	0 	0 	0
-0.0075 	1.49675e-34 	-3.16415e-36 	-6.36912e-33
-0.00745622 	0.000196718 	-4.15864e-06 	-0.00837094
-0.00745622 	0.000196718 	-4.15864e-06 	-0.00837094
-0.00741165 	0.000292364 	-6.86027e-06 	-0.0177923
-0.00741165 	0.000292364 	-6.86027e-06 	-0.0177923
-0.00736628 	0.000324707 	-7.88763e-06 	-0.02748
-0.00736628 	0.000324707 	-7.88763e-06 	-0.02748
-0.0073201 	0.00035533 	-5.70101e-06 	-0.037093
-0.0073201 	0.00035533 	-5.70101e-06 	-0.037093
-0.00727309 	0.000398275 	-2.4362e-06 	-0.0466008
-0.00727309 	0.000398275 	-2.4362e-06 	-0.0466008
-0.00722524 	0.000446543 	2.30602e-06 	-0.0560109
-0.00722524 	0.000446543 	2.30602e-06 	-0.0560109
-0.00717653 	0.000497436 	8.32026e-06 	-0.0652846
-0.00717653 	0.000497436 	8.32026e-06 	-0.0652846
-0.00712695 	0.000550019 	1.55027e-05 	-0.0743568
-0.00712695 	0.000550019 	1.55027e-05 	-0.0743568
-0.00707647 	0.000604066 	2.39719e-05 	-0.0831571
-0.00707647 	0.000604066 	2.39719e-05 	-0.0831571
-0.0070251 	0.000659649 	3.37048e-05 	-0.0916257
-0.0070251 	0.000659649 	3.37048e-05 	-0.0916257
-0.0069728 	0.000717028 	4.4738e-05 	-0.0997223
-0.0069728 	0.000717028 	4.4738e-05 	-0.0997223
-0.00691956 	0.000776547 	5.7437e-05 	-0.107427
-0.00691956 	0.000776547 	5.7437e-05 	-0.107427
-0.00686537 	0.000838811 	7.1647e-05 	-0.114742
-0.00686537 	0.000838811 	7.1647e-05 	-0.114742
-0.00681021 	0.000904503 	8.71978e-05 	-0.121683
-0.00681021 	0.000904503 	8.71978e-05 	-0.121683
-0.00675406 	0.000973545 	0.000104044 	-0.128272
-0.00675406 	0.000973545 	0.000104044 	-0.128272
-0.0066969 	0.00104523 	0.000122101 	-0.134534
-0.0066969 	0.00104523 	0.000122101 	-0.134534
-0.00663871 	0.00111886 	0.000141603 	-0.140492
-0.00663871 	0.00111886 	0.000141603 	-0.140492
-0.00657949 	0.00119384 	0.000162632 	-0.146164
-0.00657949 	0.00119384 	0.000162632 	-0.146164
-0.0065192 	0.00126969 	0.000185065 	-0.151563
-0.0065192 	0.00126969 	0.000185065 	-0.151563
-0.00645783 	0.00134614 	0.000208683 	-0.156704
-0.00645783 	0.00134614 	0.000208683 	-0.156704
-0.00639535 	0.00142295 	0.000233217 	-0.161598
-0.00639535 	0.00142295 	0.000233217 	-0.161598
-0.00633176 	0.00149949 	0.000258885 	-0.166265
-0.00633176 	0.00149949 	0.000258885 	-0.166265
-0.00626703 	0.00157434 	0.000286155 	-0.170719
-0.00626703 	0.00157434 	0.000286155 	-0.170719
-0.00620114 	0.00164589 	0.000314686 	-0.17496
-0.00620114 	0.00164589 	0.000314686 	-0.17496
-0.00613406 	0.00171388 	0.000344165 	-0.178964
-0.00613406 	0.00171388 	0.000344165 	-0.178964
-0.00606579 	0.00177943 	0.000374324 	-0.182722
-0.00606579 	0.00177943 	0.000374324 	-0.182722
-0.00599629 	0.00184481 	0.000403041 	-0.186258
-0.00599629 	0.00184481 	0.000403041 	-0.186258
-0.00592554 	0.00191306 	0.000430327 	-0.189614
-0.00592554 	0.00191306 	0.000430327 	-0.189614
-0.00585352 	0.0019854 	0.000460766 	-0.192842
-0.00585352 	0.0019854 	0.000460766 	-0.192842
-0.00578022 	0.00205962 	0.000497241 	-0.196022
-0.00578022 	0.00205962 	0.000497241 	-0.196022
-0.00570559 	0.00212862 	0.000538086 	-0.199248
-0.00570559 	0.00212862 	0.000538086 	-0.199248
-0.00562963 	0.00217932 	0.000576653 	-0.202566
-0.00562963 	0.00217932 	0.000576653 	-0.202566
-0.00555231 	0.00220415 	0.000607177 	-0.20587
-0.00555231 	0.00220415 	0.000607177 	-0.20587
-0.0054736 	0.00221247 	0.000631686 	-0.20892
-0.0054736 	0.00221247 	0.000631686 	-0.20892
-0.00539348 	0.00221991 	0.000648582 	-0.211637
-0.00539348 	0.00221991 	0.000648582 	-0.211637
-0.00531193 	0.00223702 	0.000664702 	-0.214303
-0.00531193 	0.00223702 	0.000664702 	-0.214303
-0.00522891 	0.00226359 	0.000702255 	-0.217273
-0.00522891 	0.00226359 	0.000702255 	-0.217273
-0.0051444 	0.00229085 	0.000756317 	-0.220429
-0.0051444 	0.00229085 	0.000756317 	-0.220429
-0.00505838 	0.00231024 	0.00080728 	-0.223439
-0.00505838 	0.00231024 	0.00080728 	-0.223439
-0.00497081 	0.00231741 	0.000846334 	-0.226245
-0.00497081 	0.00231741 	0.000846334 	-0.226245
-0.00488168 	0.00231985 	0.000873881 	-0.228835
-0.00488168 	0.00231985 	0.000873881 	-0.228835
-0.00479094 	0.0023252 	0.00089869 	-0.231159
-0.00479094 	0.0023252 	0.00089869 	-0.231159
-0.00469858 	0.00232769 	0.000924839 	-0.233274
-0.00469858 	0.00232769 	0.000924839 	-0.233274
-0.00460456 	0.00232055 	0.000957099 	-0.235312
-0.00460456 	0.00232055 	0.000957099 	-0.235312
-0.00450886 	0.0023032 	0.000993657 	-0.237343
-0.00450886 	0.0023032 	0.000993657 	-0.237343
-0.00441144 	0.00227659 	0.00102571 	-0.239362
-0.00441144 	0.00227659 	0.00102571 	-0.239362
-0.00431227 	0.00224138 	0.00105498 	-0.241348
-0.00431227 	0.00224138 	0.00105498 	-0.241348
-0.00421133 	0.00219809 	0.00108653 	-0.243294
-0.00421133 	0.00219809 	0.00108653 	-0.243294
-0.00410857 	0.00214726 	0.00111866 	-0.245198
-0.00410857 	0.00214726 	0.00111866 	-0.245198
-0.00400397 	0.00208966 	0.00114947 	-0.247055
-0.00400397 	0.00208966 	0.00114947 	-0.247055
-0.0038975 	0.00202607 	0.00117944 	-0.248869
-0.0038975 	0.00202607 	0.00117944 	-0.248869
-0.00378912 	0.00195718 	0.00120893 	-0.250641
-0.00378912 	0.00195718 	0.00120893 	-0.250641
-0.00367879 	0.00188371 	0.0012376 	-0.252377
-0.00367879 	0.00188371 	0.0012376 	-0.252377
-0.00356649 	0.00180666 	0.00126467 	-0.254082
-0.00356649 	0.00180666 	0.00126467 	-0.254082
-0.00345217 	0.00172712 	0.00129677 	-0.255753
-0.00345217 	0.00172712 	0.00129677 	-0.255753
-0.0033358 	0.0016463 	0.00133925 	-0.25734
-0.0033358 	0.0016463 	0.00133925 	-0.25734
-0.00321735 	0.00156395 	0.00137587 	-0.258728
-0.00321735 	0.00156395 	0.00137587 	-0.258728
-0.00309677 	0.00146496 	0.00137136 	-0.259915
-0.00309677 	0.00146496 	0.00137136 	-0.259915
-0.00297403 	0.00131016 	0.00133044 	-0.261366
-0.00297403 	0.00131016 	0.00133044 	-0.261366
-0.00284909 	0.00108416 	0.00135191 	-0.263772
-0.00284909 	0.00108416 	0.00135191 	-0.263772
-0.0027219 	0.000864045 	0.00143268 	-0.266617
-0.0027219 	0.000864045 	0.00143268 	-0.266617
-0.00259244 	0.000709297 	0.00147315 	-0.268849
-0.00259244 	0.000709297 	0.00147315 	-0.268849
-0.00246065 	0.000586516 	0.0014734 	-0.270411
-0.00246065 	0.000586516 	0.0014734 	-0.270411
-0.00232651 	0.000453655 	0.00148411 	-0.271925
-0.00232651 	0.000453655 	0.00148411 	-0.271925
-0.00218995 	0.000280931 	0.00150001 	-0.274236
-0.00218995 	0.000280931 	0.00150001 	-0.274236
-0.00205095 	8.18883e-05 	0.00149505 	-0.277099
-0.00205095 	8.18883e-05 	0.00149505 	-0.277099
-0.00190946 	-9.81388e-05 	0.0014956 	-0.279458
-0.00190946 	-9.81388e-05 	0.0014956 	-0.279458
-0.00176543 	-0.000237486 	0.00150874 	-0.280995
-0.00176543 	-0.000237486 	0.00150874 	-0.280995
-0.00161881 	-0.000339593 	0.0015161 	-0.281996
-0.00161881 	-0.000339593 	0.0015161 	-0.281996
-0.00146957 	-0.000428799 	0.00151292 	-0.282798
-0.00146957 	-0.000428799 	0.00151292 	-0.282798
-0.00131765 	-0.000535644 	0.0014989 	-0.283587
-0.00131765 	-0.000535644 	0.0014989 	-0.283587
-0.001163 	-0.000668519 	0.0014796 	-0.284381
-0.001163 	-0.000668519 	0.0014796 	-0.284381
-0.00100559 	-0.000818805 	0.00146279 	-0.285133
-0.00100559 	-0.000818805 	0.00146279 	-0.285133
-0.000845345 	-0.0009795 	0.00145038 	-0.285812
-0.000845345 	-0.0009795 	0.00145038 	-0.285812
-0.000682232 	-0.00114594 	0.00143524 	-0.286401
-0.000682232 	-0.00114594 	0.00143524 	-0.286401
-0.000516194 	-0.0013143 	0.00141315 	-0.286884
-0.000516194 	-0.0013143 	0.00141315 	-0.286884
-0.000347178 	-0.00148126 	0.00138922 	-0.287244
-0.000347178 	-0.00148126 	0.00138922 	-0.287244
-0.000175132 	-0.00164414 	0.0013525 	-0.28749
-0.000175132 	-0.00164414 	0.0013525 	-0.28749
0 	-0.00179968 	0.00131152 	-0.287652
0 	-0.00179968 	0.00131152 	-0.287652
0 	-0.00179968 	0.00131152 	-0.287652
0 	-0.00179968 	0.00131152 	-0.287652
0.000175132 	-0.00194375 	0.00127765 	-0.287749
0.000175132 	0.00520061 	0.00147177 	-0.326223
0.000347178 	-0.00207371 	0.00124141 	-0.287759
0.000347178 	0.00490294 	0.00148858 	-0.327009
0.000516194 	-0.00218921 	0.00121226 	-0.287643
0.000516194 	0.00458878 	0.00151812 	-0.327688
0.000682232 	-0.00229073 	0.00118784 	-0.287386
0.000682232 	0.00425601 	0.00155262 	-0.32819
0.000845345 	-0.00237904 	0.0011604 	-0.286994
0.000845345 	0.00390068 	0.00158506 	-0.328514
0.00100559 	-0.00245511 	0.00113387 	-0.286473
0.00100559 	0.00351953 	0.00161675 	-0.328651
0.001163 	-0.00252118 	0.00110692 	-0.28583
0.001163 	0.00311701 	0.00164123 	-0.328663
0.00131765 	-0.00258126 	0.00108096 	-0.285079
0.00131765 	0.00271288 	0.0016572 	-0.328813
0.00146957 	-0.00263711 	0.00105983 	-0.28425
0.00146957 	0.00233883 	0.00169484 	-0.329425
0.00161881 	-0.00268398 	0.00103598 	-0.283307
0.00161881 	0.0020011 	0.00172308 	-0.330113
0.00176543 	-0.00271492 	0.00100565 	-0.282049
0.00176543 	0.0015905 	0.00169475 	-0.328939
0.00190946 	-0.00273585 	0.000987828 	-0.28024
0.00190946 	0.00100035 	0.00173985 	-0.325014
0.00205095 	-0.00276148 	0.000974961 	-0.278046
0.00205095 	0.000277715 	0.00182798 	-0.320857
0.00218995 	-0.0027843 	0.000945519 	-0.276057
0.00218995 	-0.000392807 	0.00178769 	-0.319489
0.00232651 	-0.00279165 	0.000918727 	-0.274519
0.00232651 	-0.000915626 	0.00174252 	-0.320383
0.00246065 	-0.00278787 	0.000906021 	-0.273189
0.00246065 	-0.00137895 	0.00178889 	-0.321119
0.00259244 	-0.00277697 	0.000895311 	-0.271875
0.00259244 	-0.00184053 	0.00184616 	-0.321067
0.0027219 	-0.00276284 	0.000878004 	-0.270493
0.0027219 	-0.00230842 	0.00184788 	-0.320372
0.00284909 	-0.00275154 	0.000858689 	-0.268875
0.00284909 	-0.00280603 	0.00182927 	-0.318196
0.00297403 	-0.00275103 	0.000856815 	-0.266854
0.00297403 	-0.00337493 	0.00192311 	-0.313553
0.00309677 	-0.00276506 	0.000863319 	-0.264625
0.00309677 	-0.00400665 	0.00207201 	-0.307901
0.00321735 	-0.00277142 	0.000843165 	-0.26278
0.00321735 	-0.00451326 	0.00206814 	-0.305489
0.0033358 	-0.00275186 	0.00081073 	-0.261454
0.0033358 	-0.00476598 	0.00197933 	-0.307094
0.00345217 	-0.00271413 	0.000801667 	-0.260168
0.00345217 	-0.0049445 	0.00195135 	-0.308833
0.00356649 	-0.00265725 	0.000801278 	-0.258573
0.00356649 	-0.00522008 	0.00196257 	-0.308643
0.00367879 	-0.00256968 	0.000780247 	-0.256581
0.00367879 	-0.00554824 	0.00197436 	-0.307333
0.00378912 	-0.00584364 	0.00197004 	-0.305898
0.00378912 	-0.00245714 	0.00073999 	-0.254325
0.0038975 	-0.00236919 	0.000715982 	-0.252223
0.0038975 	-0.00609186 	0.00195894 	-0.304518
0.00400397 	-0.00234209 	0.000719146 	-0.250507
0.00400397 	-0.00631645 	0.00194494 	-0.303043
0.00410857 	-0.00234708 	0.000718988 	-0.248924
0.00410857 	-0.00653385 	0.00192676 	-0.30137
0.00421133 	-0.0023459 	0.000701807 	-0.247223
0.00421133 	-0.00673844 	0.0019022 	-0.299537
0.00431227 	-0.00232951 	0.000678092 	-0.24538
0.00431227 	-0.00690671 	0.00187532 	-0.297725
0.00441144 	-0.00230621 	0.000658763 	-0.243463
0.00441144 	-0.00702239 	0.00185391 	-0.29614
0.00450886 	-0.00228333 	0.000642387 	-0.241512
0.00450886 	-0.00709863 	0.00183411 	-0.294774
0.00460456 	-0.00226258 	0.000627053 	-0.239533
0.00460456 	-0.00718209 	0.00179788 	-0.293272
0.00469858 	-0.00224062 	0.000615401 	-0.237508
0.00469858 	-0.00729839 	0.00174179 	-0.291405
0.00479094 	-0.0022089 	0.000600553 	-0.235392
0.00479094 	-0.00741668 	0.00168442 	-0.289382
0.00488168 	-0.00216084 	0.00057669 	-0.233117
0.00488168 	-0.0075021 	0.00163334 	-0.28742
0.00497081 	-0.00210103 	0.000546901 	-0.230679
0.00497081 	-0.0075483 	0.00158283 	-0.285533
0.00505838 	-0.00205012 	0.000521603 	-0.228213
0.00505838 	-0.00756565 	0.00152752 	-0.283639
0.0051444 	-0.00202614 	0.000508583 	-0.225848
0.0051444 	-0.00756456 	0.00146734 	-0.281679
0.00522891 	-0.00202324 	0.000497834 	-0.22355
0.00522891 	-0.00755056 	0.00140456 	-0.279635
0.00531193 	-0.00752595 	0.00133997 	-0.277508
0.00531193 	-0.00202488 	0.000479796 	-0.221212
0.00539348 	-0.00202249 	0.000456991 	-0.218773
0.00539348 	-0.00749103 	0.00127399 	-0.275304
0.0054736 	-0.0020167 	0.000433859 	-0.216225
0.0054736 	-0.00744518 	0.00120685 	-0.273027
0.00555231 	-0.00201128 	0.000412348 	-0.213577
0.00555231 	-0.00738821 	0.00113831 	-0.270678
0.00562963 	-0.0020086 	0.000391817 	-0.210831
0.00562963 	-0.00732087 	0.0010689 	-0.268251
0.00570559 	-0.00200898 	0.000371017 	-0.207976
0.00570559 	-0.00724411 	0.000999284 	-0.265727
0.00578022 	-0.00201197 	0.000349864 	-0.205
0.00578022 	-0.00715838 	0.00092988 	-0.26308
0.00585352 	-0.00201694 	0.000328751 	-0.201888
0.00585352 	-0.0070637 	0.000860869 	-0.260288
0.00592554 	-0.00202315 	0.000307785 	-0.198626
0.00592554 	-0.00695981 	0.000792064 	-0.257327
0.00599629 	-0.00202978 	0.000287045 	-0.195194
0.00599629 	-0.00684672 	0.00072371 	-0.254171
0.00606579 	-0.00672504 	0.000655891 	-0.250783
0.00606579 	-0.00203601 	0.000266544 	-0.19157
0.00613406 	-0.00204111 	0.00024632 	-0.187727
0.00613406 	-0.00659622 	0.000589022 	-0.247119
0.00620114 	-0.00204423 	0.000226546 	-0.183628
0.00620114 	-0.00646171 	0.000524212 	-0.243113
0.00626703 	-0.00204417 	0.000207309 	-0.179239
0.00626703 	-0.00632156 	0.000462104 	-0.238695
0.00633176 	-0.00203944 	0.000188583 	-0.174528
0.00633176 	-0.00617421 	0.000402481 	-0.233815
0.00639535 	-0.00202858 	0.000170372 	-0.16947
0.00639535 	-0.00601749 	0.000344816 	-0.228454
0.00645783 	-0.0020102 	0.000152742 	-0.164043
0.00645783 	-0.00584997 	0.000289426 	-0.222597
0.0065192 	-0.001983 	0.00013584 	-0.158223
0.0065192 	-0.00567157 	0.000237326 	-0.216208
0.00657949 	-0.00194571 	0.000119787 	-0.151987
0.00657949 	-0.00548293 	0.00018893 	-0.209244
0.00663871 	-0.00189698 	0.000104582 	-0.145312
0.00663871 	-0.00528496 	0.000143988 	-0.201655
0.0066969 	-0.00183554 	9.02255e-05 	-0.138174
0.0066969 	-0.00507854 	0.000102816 	-0.193384
0.00675406 	-0.00176047 	7.67389e-05 	-0.130549
0.00675406 	-0.00486239 	6.61416e-05 	-0.184358
0.00681021 	-0.00167135 	6.41237e-05 	-0.122424
0.00681021 	-0.00463221 	3.40381e-05 	-0.174501
0.00686537 	-0.0015685 	5.24947e-05 	-0.113817
0.00686537 	-0.00438175 	6.41493e-06 	-0.163776
0.00691956 	-0.00145291 	4.19327e-05 	-0.10478
0.00691956 	-0.00410403 	-1.67397e-05 	-0.152193
0.0069728 	-0.00132642 	3.24742e-05 	-0.0953971
0.0069728 	-0.00379429 	-3.52105e-05 	-0.139825
0.0070251 	-0.00119185 	2.42805e-05 	-0.0857935
0.0070251 	-0.00345184 	-4.86591e-05 	-0.12683
0.00707647 	-0.00105288 	1.74425e-05 	-0.0761212
0.00707647 	-0.0030806 	-5.73478e-05 	-0.113458
0.00712695 	-0.000913471 	1.20168e-05 	-0.0665382
0.00712695 	-0.00268974 	-6.15866e-05 	-0.100006
0.00717653 	-0.000777129 	8.02937e-06 	-0.0571769
0.00717653 	-0.00229326 	-6.158e-05 	-0.0867357
0.00722524 	-0.000646294 	5.41126e-06 	-0.0481178
0.00722524 	-0.00190842 	-5.73122e-05 	-0.0737952
0.00727309 	-0.000522044 	4.05069e-06 	-0.0393755
0.00727309 	-0.00155435 	-4.92439e-05 	-0.0611648
0.0073201 	-0.000404202 	3.35895e-06 	-0.0308964
0.0073201 	-0.00125254 	-4.03276e-05 	-0.0486363
0.00736628 	-0.00029156 	4.06479e-06 	-0.0225723
0.00736628 	-0.00102974 	-2.13582e-05 	-0.0358077
0.00741165 	-0.000184258 	2.86184e-06 	-0.0144212
0.00741165 	-0.000835276 	-1.40228e-05 	-0.0226415
0.00745622 	-8.59273e-05 	1.36272e-06 	-0.00677656
0.00745622 	-0.000513405 	-7.33137e-06 	-0.0102231
0.0075 	0 	0 	0
0.0075 	0 	0 	0
