-0.0075 	373
-0.00715932 	360.792
-0.00676191 	358.887
-0.00629832 	358.125
-0.00575752 	357.656
-0.00512667 	357.287
-0.00439077 	356.957
-0.00353231 	356.637
-0.00253089 	356.31
-0.00136271 	355.959
0 	355.57
0.00136271 	355.146
0.00253089 	354.702
0.00353231 	354.245
0.00439077 	353.762
0.00512667 	353.214
0.00575752 	352.52
0.00629832 	351.493
0.00676191 	349.282
0.00715932 	338.143
0.0075 	313
