-0.0075 	0 	0 	0
-0.0075 	8.45765e-35 	2.3614e-36 	-7.77721e-33
-0.00745622 	0.000111159 	3.10359e-06 	-0.0102216
-0.00745622 	0.000111159 	3.10359e-06 	-0.0102216
-0.00741165 	-8.12054e-05 	4.45157e-06 	-0.0201177
-0.00741165 	-8.12054e-05 	4.45157e-06 	-0.0201177
-0.00736628 	-0.000408071 	4.39864e-06 	-0.0300218
-0.00736628 	-0.000408071 	4.39864e-06 	-0.0300218
-0.0073201 	-0.000711136 	2.9827e-06 	-0.0400486
-0.0073201 	-0.000711136 	2.9827e-06 	-0.0400486
-0.00727309 	-0.000976299 	5.01804e-07 	-0.0500871
-0.00727309 	-0.000976299 	5.01804e-07 	-0.0500871
-0.00722524 	-0.00122643 	-2.61762e-06 	-0.0600065
-0.00722524 	-0.00122643 	-2.61762e-06 	-0.0600065
-0.00717653 	-0.0014645 	-6.34291e-06 	-0.0697142
-0.00717653 	-0.0014645 	-6.34291e-06 	-0.0697142
-0.00712695 	-0.00168744 	-1.06431e-05 	-0.0791293
-0.00712695 	-0.00168744 	-1.06431e-05 	-0.0791293
-0.00707647 	-0.00189113 	-1.5517e-05 	-0.0881791
-0.00707647 	-0.00189113 	-1.5517e-05 	-0.0881791
-0.0070251 	-0.00207205 	-2.0855e-05 	-0.0968066
-0.0070251 	-0.00207205 	-2.0855e-05 	-0.0968066
-0.0069728 	-0.0022276 	-2.62806e-05 	-0.104981
-0.0069728 	-0.0022276 	-2.62806e-05 	-0.104981
-0.00691956 	-0.00235685 	-3.14602e-05 	-0.112701
-0.00691956 	-0.00235685 	-3.14602e-05 	-0.112701
-0.00686537 	-0.00246146 	-3.64111e-05 	-0.11999
-0.00686537 	-0.00246146 	-3.64111e-05 	-0.11999
-0.00681021 	-0.0025453 	-4.1107e-05 	-0.126881
-0.00681021 	-0.0025453 	-4.1107e-05 	-0.126881
-0.00675406 	-0.00261316 	-4.53348e-05 	-0.133409
-0.00675406 	-0.00261316 	-4.53348e-05 	-0.133409
-0.0066969 	-0.00266906 	-4.88993e-05 	-0.139603
-0.0066969 	-0.00266906 	-4.88993e-05 	-0.139603
-0.00663871 	-0.0027155 	-5.1754e-05 	-0.145485
-0.00663871 	-0.0027155 	-5.1754e-05 	-0.145485
-0.00657949 	-0.00275434 	-5.3981e-05 	-0.151078
-0.00657949 	-0.00275434 	-5.3981e-05 	-0.151078
-0.0065192 	-0.00278815 	-5.57797e-05 	-0.156399
-0.0065192 	-0.00278815 	-5.57797e-05 	-0.156399
-0.00645783 	-0.00282124 	-5.72584e-05 	-0.161463
-0.00645783 	-0.00282124 	-5.72584e-05 	-0.161463
-0.00639535 	-0.00285935 	-5.80836e-05 	-0.166273
-0.00639535 	-0.00285935 	-5.80836e-05 	-0.166273
-0.00633176 	-0.0029071 	-5.77259e-05 	-0.170831
-0.00633176 	-0.0029071 	-5.77259e-05 	-0.170831
-0.00626703 	-0.00296509 	-5.6015e-05 	-0.175147
-0.00626703 	-0.00296509 	-5.6015e-05 	-0.175147
-0.00620114 	-0.00302987 	-5.32006e-05 	-0.179246
-0.00620114 	-0.00302987 	-5.32006e-05 	-0.179246
-0.00613406 	-0.00309694 	-4.98222e-05 	-0.183149
-0.00613406 	-0.00309694 	-4.98222e-05 	-0.183149
-0.00606579 	-0.00316339 	-4.67885e-05 	-0.186869
-0.00606579 	-0.00316339 	-4.67885e-05 	-0.186869
-0.00599629 	-0.00322812 	-4.52825e-05 	-0.190405
-0.00599629 	-0.00322812 	-4.52825e-05 	-0.190405
-0.00592554 	-0.00328998 	-4.51304e-05 	-0.19376
-0.00592554 	-0.00328998 	-4.51304e-05 	-0.19376
-0.00585352 	-0.00334706 	-4.41725e-05 	-0.196954
-0.00585352 	-0.00334706 	-4.41725e-05 	-0.196954
-0.00578022 	-0.00339745 	-4.1129e-05 	-0.200014
-0.00578022 	-0.00339745 	-4.1129e-05 	-0.200014
-0.00570559 	-0.00343981 	-3.67056e-05 	-0.202962
-0.00570559 	-0.00343981 	-3.67056e-05 	-0.202962
-0.00562963 	-0.00347367 	-3.24068e-05 	-0.205804
-0.00562963 	-0.00347367 	-3.24068e-05 	-0.205804
-0.00555231 	-0.0034995 	-2.85315e-05 	-0.208537
-0.00555231 	-0.0034995 	-2.85315e-05 	-0.208537
-0.0054736 	-0.00351834 	-2.37258e-05 	-0.211153
-0.0054736 	-0.00351834 	-2.37258e-05 	-0.211153
-0.00539348 	-0.00353083 	-1.79316e-05 	-0.213658
-0.00539348 	-0.00353083 	-1.79316e-05 	-0.213658
-0.00531193 	-0.00353646 	-1.62916e-05 	-0.216064
-0.00531193 	-0.00353646 	-1.62916e-05 	-0.216064
-0.00522891 	-0.00353366 	-9.03067e-06 	-0.218391
-0.00522891 	-0.00353366 	-9.03067e-06 	-0.218391
-0.0051444 	-0.00350017 	1.7503e-05 	-0.220688
-0.0051444 	-0.00350017 	1.7503e-05 	-0.220688
-0.00505838 	-0.0033845 	3.41945e-05 	-0.223082
-0.00505838 	-0.0033845 	3.41945e-05 	-0.223082
-0.00497081 	-0.00314766 	8.95891e-06 	-0.225768
-0.00497081 	-0.00314766 	8.95891e-06 	-0.225768
-0.00488168 	-0.00280996 	-3.24328e-05 	-0.228816
-0.00488168 	-0.00280996 	-3.24328e-05 	-0.228816
-0.00479094 	-0.00251751 	-1.09483e-05 	-0.231803
-0.00479094 	-0.00251751 	-1.09483e-05 	-0.231803
-0.00469858 	-0.0023774 	6.14143e-05 	-0.234326
-0.00469858 	-0.0023774 	6.14143e-05 	-0.234326
-0.00460456 	-0.0023251 	0.000101462 	-0.236494
-0.00460456 	-0.0023251 	0.000101462 	-0.236494
-0.00450886 	-0.0022845 	0.000100451 	-0.238507
-0.00450886 	-0.0022845 	0.000100451 	-0.238507
-0.00441144 	-0.00224268 	9.33512e-05 	-0.24044
-0.00441144 	-0.00224268 	9.33512e-05 	-0.24044
-0.00431227 	-0.00221383 	0.000104111 	-0.242303
-0.00431227 	-0.00221383 	0.000104111 	-0.242303
-0.00421133 	-0.00220023 	0.000121501 	-0.24411
-0.00421133 	-0.00220023 	0.000121501 	-0.24411
-0.00410857 	-0.00219715 	0.000135937 	-0.245872
-0.00410857 	-0.00219715 	0.000135937 	-0.245872
-0.00400397 	-0.00220216 	0.000150569 	-0.247589
-0.00400397 	-0.00220216 	0.000150569 	-0.247589
-0.0038975 	-0.00221326 	0.000165477 	-0.249262
-0.0038975 	-0.00221326 	0.000165477 	-0.249262
-0.00378912 	-0.00222859 	0.000181551 	-0.250893
-0.00378912 	-0.00222859 	0.000181551 	-0.250893
-0.00367879 	-0.00224746 	0.00019964 	-0.252485
-0.00367879 	-0.00224746 	0.00019964 	-0.252485
-0.00356649 	-0.00227093 	0.000218948 	-0.254033
-0.00356649 	-0.00227093 	0.000218948 	-0.254033
-0.00345217 	-0.00229727 	0.000237475 	-0.255561
-0.00345217 	-0.00229727 	0.000237475 	-0.255561
-0.0033358 	-0.00231598 	0.000255248 	-0.257166
-0.0033358 	-0.00231598 	0.000255248 	-0.257166
-0.00321735 	-0.00231172 	0.000276343 	-0.258937
-0.00321735 	-0.00231172 	0.000276343 	-0.258937
-0.00309677 	-0.0022871 	0.000301808 	-0.260756
-0.00309677 	-0.0022871 	0.000301808 	-0.260756
-0.00297403 	-0.00226123 	0.000327155 	-0.262432
-0.00297403 	-0.00226123 	0.000327155 	-0.262432
-0.00284909 	-0.00224449 	0.000349731 	-0.263942
-0.00284909 	-0.00224449 	0.000349731 	-0.263942
-0.0027219 	-0.0022361 	0.000371116 	-0.265353
-0.0027219 	-0.0022361 	0.000371116 	-0.265353
-0.00259244 	-0.0022328 	0.000395279 	-0.266714
-0.00259244 	-0.0022328 	0.000395279 	-0.266714
-0.00246065 	-0.00223346 	0.000423327 	-0.268032
-0.00246065 	-0.00223346 	0.000423327 	-0.268032
-0.00232651 	-0.00223138 	0.000434991 	-0.269331
-0.00232651 	-0.00223138 	0.000434991 	-0.269331
-0.00218995 	-0.00221304 	0.000427254 	-0.270744
-0.00218995 	-0.00221304 	0.000427254 	-0.270744
-0.00205095 	-0.00217193 	0.000477267 	-0.272467
-0.00205095 	-0.00217193 	0.000477267 	-0.272467
-0.00190946 	-0.0021018 	0.000604374 	-0.274558
-0.00190946 	-0.0021018 	0.000604374 	-0.274558
-0.00176543 	-0.00202442 	0.000653263 	-0.276477
-0.00176543 	-0.00202442 	0.000653263 	-0.276477
-0.00161881 	-0.00197479 	0.000610147 	-0.27781
-0.00161881 	-0.00197479 	0.000610147 	-0.27781
-0.00146957 	-0.00194525 	0.000618041 	-0.278883
-0.00146957 	-0.00194525 	0.000618041 	-0.278883
-0.00131765 	-0.00191145 	0.00068178 	-0.279988
-0.00131765 	-0.00191145 	0.00068178 	-0.279988
-0.001163 	-0.00186521 	0.000742392 	-0.281138
-0.001163 	-0.00186521 	0.000742392 	-0.281138
-0.00100559 	-0.00181025 	0.000790518 	-0.282256
-0.00100559 	-0.00181025 	0.000790518 	-0.282256
-0.000845345 	-0.00174842 	0.000836442 	-0.283308
-0.000845345 	-0.00174842 	0.000836442 	-0.283308
-0.000682232 	-0.00167925 	0.000884215 	-0.284281
-0.000682232 	-0.00167925 	0.000884215 	-0.284281
-0.000516194 	-0.00160172 	0.000936925 	-0.285168
-0.000516194 	-0.00160172 	0.000936925 	-0.285168
-0.000347178 	-0.0015148 	0.00099055 	-0.285959
-0.000347178 	-0.0015148 	0.00099055 	-0.285959
-0.000175132 	-0.00142104 	0.00104599 	-0.286638
-0.000175132 	-0.00142104 	0.00104599 	-0.286638
0 	-0.00131063 	0.00112042 	-0.287237
0 	-0.00131063 	0.00112042 	-0.287237
0 	-0.00131063 	0.00112042 	-0.287237
0 	-0.00131063 	0.00112042 	-0.287237
0.000175132 	-0.00114604 	0.00121753 	-0.287945
0.000175132 	0.0040065 	0.0151251 	-0.249635
0.000347178 	-0.000885254 	0.00124262 	-0.289074
0.000347178 	0.00522052 	0.0150934 	-0.256136
0.000516194 	-0.000480398 	0.00117555 	-0.29087
0.000516194 	0.00742636 	0.0143925 	-0.268091
0.000682232 	-7.1755e-05 	0.00123179 	-0.292381
0.000682232 	0.00962598 	0.0145426 	-0.278916
0.000845345 	0.000180422 	0.00139675 	-0.292776
0.000845345 	0.0107138 	0.0154 	-0.283082
0.00100559 	0.000346234 	0.0014803 	-0.292609
0.00100559 	0.0111631 	0.0156804 	-0.284381
0.001163 	0.000505974 	0.00150201 	-0.292317
0.001163 	0.0114971 	0.0155345 	-0.285495
0.00131765 	0.000676584 	0.00152546 	-0.291954
0.00131765 	0.011815 	0.0154022 	-0.286557
0.00146957 	0.00085221 	0.00156041 	-0.291466
0.00146957 	0.0120722 	0.0153621 	-0.287291
0.00161881 	0.00103155 	0.00158218 	-0.29085
0.00161881 	0.0122668 	0.0153314 	-0.287756
0.00176543 	0.00121668 	0.00159497 	-0.290152
0.00176543 	0.0124217 	0.0152821 	-0.288103
0.00190946 	0.00143247 	0.00165428 	-0.28932
0.00190946 	0.0125471 	0.0152185 	-0.288407
0.00205095 	0.00175522 	0.0017651 	-0.287979
0.00205095 	0.0126484 	0.0151601 	-0.288704
0.00218995 	0.00225151 	0.00179018 	-0.285639
0.00218995 	0.0127367 	0.0150991 	-0.28898
0.00232651 	0.00277658 	0.00171599 	-0.282951
0.00232651 	0.0128348 	0.0149814 	-0.289197
0.00246065 	0.00316461 	0.00168866 	-0.280885
0.00246065 	0.0129881 	0.0147416 	-0.289453
0.00259244 	0.00343308 	0.00171675 	-0.279398
0.00259244 	0.0132686 	0.0144503 	-0.290205
0.0027219 	0.00362433 	0.00173406 	-0.278183
0.0027219 	0.0136618 	0.0143155 	-0.291697
0.00284909 	0.00377028 	0.00172876 	-0.27703
0.00284909 	0.0139866 	0.0142536 	-0.293107
0.00297403 	0.0038913 	0.00171686 	-0.27585
0.00297403 	0.0141548 	0.0140794 	-0.29382
0.00309677 	0.00399867 	0.00170559 	-0.27463
0.00309677 	0.0142352 	0.0138197 	-0.294098
0.00321735 	0.00410309 	0.00169326 	-0.273367
0.00321735 	0.0142865 	0.0135462 	-0.294182
0.0033358 	0.00421231 	0.00167778 	-0.272059
0.0033358 	0.0143427 	0.0133136 	-0.294184
0.00345217 	0.004329 	0.0016568 	-0.270697
0.00345217 	0.014408 	0.013062 	-0.294099
0.00356649 	0.0044539 	0.00164347 	-0.269273
0.00356649 	0.0144863 	0.0128433 	-0.293855
0.00367879 	0.00458123 	0.00165611 	-0.267795
0.00367879 	0.0145417 	0.0128064 	-0.293501
0.00378912 	0.0145062 	0.0127704 	-0.293365
0.00378912 	0.00470111 	0.00166588 	-0.266303
0.0038975 	0.00483298 	0.00160367 	-0.264758
0.0038975 	0.0145117 	0.012265 	-0.293331
0.00400397 	0.00503903 	0.0014672 	-0.262882
0.00400397 	0.0149944 	0.0112599 	-0.291473
0.00410857 	0.00534858 	0.0014231 	-0.26036
0.00410857 	0.0161768 	0.0108868 	-0.285404
0.00421133 	0.00567019 	0.00149925 	-0.257622
0.00421133 	0.0174503 	0.0113201 	-0.277889
0.00431227 	0.00592232 	0.00153446 	-0.255265
0.00431227 	0.0182754 	0.0114625 	-0.272956
0.00441144 	0.00609811 	0.00148892 	-0.253243
0.00441144 	0.0186027 	0.0110806 	-0.270388
0.00450886 	0.0062093 	0.00142816 	-0.251343
0.00450886 	0.0185043 	0.0106619 	-0.268855
0.00460456 	0.0062938 	0.00140194 	-0.249429
0.00460456 	0.0182336 	0.0105056 	-0.267474
0.00469858 	0.00637106 	0.00137817 	-0.247471
0.00469858 	0.0179272 	0.0103182 	-0.266036
0.00479094 	0.00644654 	0.00132546 	-0.245454
0.00479094 	0.0176532 	0.00985492 	-0.264556
0.00488168 	0.00652825 	0.00126352 	-0.243317
0.00488168 	0.0175187 	0.00933104 	-0.262813
0.00497081 	0.00661431 	0.00122482 	-0.241026
0.00497081 	0.0175258 	0.00908055 	-0.260614
0.00505838 	0.00669269 	0.00120875 	-0.23865
0.00505838 	0.017537 	0.00904014 	-0.258185
0.0051444 	0.00674789 	0.00118406 	-0.236264
0.0051444 	0.0173984 	0.00890541 	-0.255872
0.00522891 	0.00676809 	0.00113698 	-0.233863
0.00522891 	0.0170301 	0.00856405 	-0.253732
0.00531193 	0.0164745 	0.00817235 	-0.251649
0.00531193 	0.00675593 	0.00108466 	-0.231409
0.00539348 	0.00672204 	0.00104188 	-0.228874
0.00539348 	0.0158323 	0.00788867 	-0.249549
0.0054736 	0.00666969 	0.00100031 	-0.226248
0.0054736 	0.0151374 	0.00762724 	-0.2474
0.00555231 	0.00659748 	0.000954112 	-0.223524
0.00555231 	0.0143805 	0.00732616 	-0.24515
0.00562963 	0.00650562 	0.000906138 	-0.220689
0.00562963 	0.0135628 	0.0070173 	-0.242722
0.00570559 	0.00639575 	0.000858085 	-0.217721
0.00570559 	0.0126961 	0.00671184 	-0.240047
0.00578022 	0.00626974 	0.000811201 	-0.214605
0.00578022 	0.0117953 	0.00641744 	-0.23711
0.00585352 	0.00612843 	0.00076562 	-0.211329
0.00585352 	0.0108686 	0.00613272 	-0.233941
0.00592554 	0.00597142 	0.000720722 	-0.20788
0.00592554 	0.00991486 	0.00585076 	-0.230588
0.00599629 	0.00579768 	0.000675624 	-0.204241
0.00599629 	0.00892867 	0.00556606 	-0.22708
0.00606579 	0.00790737 	0.00527787 	-0.223411
0.00606579 	0.00560637 	0.00062999 	-0.200393
0.00613406 	0.00539719 	0.000584351 	-0.196316
0.00613406 	0.00685412 	0.00498913 	-0.219548
0.00620114 	0.00517064 	0.000539472 	-0.191989
0.00620114 	0.00577626 	0.00470323 	-0.215443
0.00626703 	0.00492787 	0.00049604 	-0.18739
0.00626703 	0.00468236 	0.00442148 	-0.211056
0.00633176 	0.00467052 	0.000454191 	-0.182489
0.00633176 	0.00358056 	0.00414406 	-0.206348
0.00639535 	0.00440054 	0.000413563 	-0.177259
0.00639535 	0.00247803 	0.00387055 	-0.201287
0.00645783 	0.00411984 	0.000374293 	-0.171666
0.00645783 	0.00138196 	0.0036006 	-0.195836
0.0065192 	0.00383034 	0.000336675 	-0.165678
0.0065192 	0.000300803 	0.00333457 	-0.189954
0.00657949 	0.00353406 	0.000300779 	-0.159263
0.00657949 	-0.000755084 	0.00307293 	-0.183596
0.00663871 	0.00323317 	0.000266778 	-0.152387
0.00663871 	-0.00177353 	0.00281634 	-0.176713
0.0066969 	0.00292972 	0.000234744 	-0.145023
0.0066969 	-0.0027413 	0.00256565 	-0.169255
0.00675406 	0.00262472 	0.000204537 	-0.137144
0.00675406 	-0.00364536 	0.00232074 	-0.161189
0.00681021 	0.00231807 	0.000176304 	-0.128726
0.00681021 	-0.00446987 	0.00208069 	-0.152483
0.00686537 	0.0020104 	0.000150289 	-0.119749
0.00686537 	-0.00518951 	0.00184508 	-0.143056
0.00691956 	0.00170509 	0.000126627 	-0.11022
0.00691956 	-0.00576727 	0.0016157 	-0.132806
0.0069728 	0.00141009 	0.000105374 	-0.100199
0.0069728 	-0.00615717 	0.00139651 	-0.121699
0.0070251 	0.0011366 	8.63223e-05 	-0.0898125
0.0070251 	-0.0063157 	0.0011902 	-0.109809
0.00707647 	0.00089489 	6.94146e-05 	-0.0792408
0.00707647 	-0.00621958 	0.000998108 	-0.0973201
0.00712695 	0.000691721 	5.45684e-05 	-0.0686973
0.00712695 	-0.00587596 	0.000821939 	-0.0845149
0.00717653 	0.000528617 	4.15289e-05 	-0.0583864
0.00717653 	-0.00532441 	0.000662735 	-0.0717199
0.00722524 	0.000400469 	3.01503e-05 	-0.048468
0.00722524 	-0.00463335 	0.00051857 	-0.0592381
0.00727309 	0.000295129 	2.04049e-05 	-0.0390433
0.00727309 	-0.00389521 	0.000390849 	-0.0473092
0.0073201 	0.000192689 	1.23835e-05 	-0.0301695
0.0073201 	-0.00323074 	0.000288032 	-0.0361286
0.00736628 	6.24256e-05 	5.79668e-06 	-0.021892
0.00736628 	-0.00281122 	0.000163465 	-0.0259138
0.00741165 	-7.49462e-05 	1.90927e-06 	-0.0142085
0.00741165 	-0.002497 	0.00010051 	-0.016767
0.00745622 	-0.000113517 	1.06561e-07 	-0.00698359
0.00745622 	-0.00165655 	4.60679e-05 	-0.0083308
0.0075 	0 	0 	0
0.0075 	0 	0 	0
