0 	0 	0 	0
0 	0 	0 	0
0.00752508 	-0.000632349 	0.00344201 	-0.289449
0.00752508 	-0.000632349 	0.00344201 	-0.289449
0.00757525 	-0.00061224 	0.00346583 	-0.289542
0.00762542 	-0.00059213 	0.00348965 	-0.289635
0.00762542 	-0.00059213 	0.00348965 	-0.289635
0.00767559 	-0.000571997 	0.00351338 	-0.289727
0.00772575 	-0.000549238 	0.00352713 	-0.289783
0.00777592 	-0.000526479 	0.00354089 	-0.289838
0.00782609 	-0.000503721 	0.00355464 	-0.289893
0.00782609 	-0.000503721 	0.00355464 	-0.289893
0.00787625 	-0.000478969 	0.00355291 	-0.289896
0.00792642 	-0.000452771 	0.00353995 	-0.289863
0.00797659 	-0.000426573 	0.00352699 	-0.289829
0.00802676 	-0.000399075 	0.00351816 	-0.289751
0.00802676 	-0.000399075 	0.00351816 	-0.289751
0.00807692 	-0.000366706 	0.00352479 	-0.289508
0.00812709 	-0.000334337 	0.00353142 	-0.289265
0.00812709 	-0.000334337 	0.00353142 	-0.289265
0.00817726 	-0.000301968 	0.00353805 	-0.289022
0.00822742 	-0.000262368 	0.00357757 	-0.288683
0.00822742 	-0.000262368 	0.00357757 	-0.288683
0.00827759 	-0.000221973 	0.00362071 	-0.288334
0.00832776 	-0.000181578 	0.00366385 	-0.287985
0.00832776 	-0.000181578 	0.00366385 	-0.287985
0.00837793 	-0.000137426 	0.00369169 	-0.28769
0.00842809 	-9.12457e-05 	0.00371128 	-0.287425
0.00842809 	-9.12457e-05 	0.00371128 	-0.287425
0.00847826 	-4.50654e-05 	0.00373087 	-0.28716
0.00847826 	-4.50654e-05 	0.00373087 	-0.28716
0.00852843 	2.43599e-06 	0.00373837 	-0.286926
0.00852843 	2.43599e-06 	0.00373837 	-0.286926
0.0085786 	5.15179e-05 	0.00373143 	-0.286728
0.0085786 	5.15179e-05 	0.00373143 	-0.286728
0.00862876 	0.0001006 	0.00372448 	-0.28653
0.00867893 	0.000150295 	0.00371994 	-0.286335
0.00867893 	0.000150295 	0.00371994 	-0.286335
0.0087291 	0.000201311 	0.00372058 	-0.286147
0.00877926 	0.000252326 	0.00372123 	-0.285958
0.00877926 	0.000252326 	0.00372123 	-0.285958
0.00882943 	0.000303737 	0.00372487 	-0.285764
0.0088796 	0.000356434 	0.00373828 	-0.285551
0.0088796 	0.000356434 	0.00373828 	-0.285551
0.00897993 	0.000461963 	0.00376316 	-0.285121
0.00897993 	0.000461963 	0.00376316 	-0.285121
0.0090301 	0.000515309 	0.00376722 	-0.284884
0.00908027 	0.000568655 	0.00377128 	-0.284648
0.00908027 	0.000568655 	0.00377128 	-0.284648
0.00913043 	0.000621969 	0.00376773 	-0.284399
0.0091806 	0.000675179 	0.00373897 	-0.284109
0.0091806 	0.000675179 	0.00373897 	-0.284109
0.00923077 	0.000728389 	0.0037102 	-0.283819
0.00928094 	0.000782121 	0.00367632 	-0.283472
0.00928094 	0.000782121 	0.00367632 	-0.283472
0.0093311 	0.000837019 	0.003631 	-0.283
0.00938127 	0.000891918 	0.00358567 	-0.282527
0.00938127 	0.000891918 	0.00358567 	-0.282527
0.00943144 	0.00094963 	0.00356069 	-0.281944
0.00943144 	0.00094963 	0.00356069 	-0.281944
0.00948161 	0.00101095 	0.00356181 	-0.281218
0.00948161 	0.00101095 	0.00356181 	-0.281218
0.00953177 	0.00107227 	0.00356292 	-0.280492
0.00953177 	0.00107227 	0.00356292 	-0.280492
0.00958194 	0.00113837 	0.00358368 	-0.279746
0.00958194 	0.00113837 	0.00358368 	-0.279746
0.00963211 	0.00120742 	0.00361661 	-0.278988
0.00963211 	0.00120742 	0.00361661 	-0.278988
0.00968227 	0.00127648 	0.00364954 	-0.27823
0.00968227 	0.00127648 	0.00364954 	-0.27823
0.00973244 	0.00134805 	0.00365664 	-0.277603
0.00978261 	0.00142007 	0.00365908 	-0.276999
0.00983278 	0.00149166 	0.00365766 	-0.276407
0.00988294 	0.00156015 	0.00362921 	-0.275898
0.00988294 	0.00156015 	0.00362921 	-0.275898
0.00993311 	0.00162865 	0.00360075 	-0.275389
0.00998328 	0.00169367 	0.00356878 	-0.274888
0.00998328 	0.00169367 	0.00356878 	-0.274888
0.0100334 	0.00175447 	0.00353252 	-0.274398
0.0100334 	0.00175447 	0.00353252 	-0.274398
0.0100836 	0.00181527 	0.00349626 	-0.273908
0.0101338 	0.00186925 	0.00347135 	-0.273401
0.0101338 	0.00186925 	0.00347135 	-0.273401
0.0102341 	0.0019727 	0.00342935 	-0.272377
0.0102341 	0.0019727 	0.00342935 	-0.272377
0.0102843 	0.00201866 	0.00341914 	-0.271851
0.0103344 	0.00206462 	0.00340893 	-0.271324
0.0103344 	0.00206462 	0.00340893 	-0.271324
0.0103846 	0.00210453 	0.00340081 	-0.270788
0.0103846 	0.00210453 	0.00340081 	-0.270788
0.0104348 	0.00214194 	0.00339354 	-0.270247
0.0104849 	0.00217298 	0.00338398 	-0.269684
0.0104849 	0.00217298 	0.00338398 	-0.269684
0.0105351 	0.00218107 	0.00336617 	-0.269039
0.0105853 	0.00218916 	0.00334836 	-0.268395
0.0105853 	0.00218916 	0.00334836 	-0.268395
0.0106355 	0.00215137 	0.00329045 	-0.26754
0.0106856 	0.00209997 	0.00322064 	-0.266622
0.0106856 	0.00209997 	0.00322064 	-0.266622
0.0107358 	0.0020386 	0.00314846 	-0.265623
0.0107358 	0.0020386 	0.00314846 	-0.265623
0.010786 	0.00196009 	0.00307221 	-0.264483
0.010786 	0.00196009 	0.00307221 	-0.264483
0.0108361 	0.00188178 	0.0029964 	-0.263344
0.0108361 	0.00188178 	0.0029964 	-0.263344
0.0108863 	0.00183552 	0.00298968 	-0.262231
0.0109365 	0.00178926 	0.00298296 	-0.261117
0.0109365 	0.00178926 	0.00298296 	-0.261117
0.0109866 	0.00177138 	0.00299257 	-0.260107
0.0109866 	0.00177138 	0.00299257 	-0.260107
0.0110368 	0.00176645 	0.00300962 	-0.259144
0.011087 	0.00177046 	0.00301305 	-0.258233
0.011087 	0.00177046 	0.00301305 	-0.258233
0.0111371 	0.00178745 	0.00299672 	-0.257394
0.0111873 	0.00180435 	0.00297459 	-0.256563
0.0111873 	0.00180435 	0.00297459 	-0.256563
0.0112375 	0.00182079 	0.00292406 	-0.255764
0.0112876 	0.00183724 	0.00287354 	-0.254966
0.0112876 	0.00183724 	0.00287354 	-0.254966
0.0113378 	0.00184598 	0.00282933 	-0.254158
0.011388 	0.00185449 	0.00278532 	-0.253349
0.011388 	0.00185449 	0.00278532 	-0.253349
0.0114883 	0.00185592 	0.00273554 	-0.251685
0.0114883 	0.00185592 	0.00273554 	-0.251685
0.0115385 	0.00185042 	0.00269886 	-0.25083
0.0115886 	0.00184246 	0.00265591 	-0.249966
0.0115886 	0.00184246 	0.00265591 	-0.249966
0.0116388 	0.00183361 	0.00259748 	-0.249076
0.011689 	0.00182416 	0.00252882 	-0.24817
0.011689 	0.00182416 	0.00252882 	-0.24817
0.0117391 	0.00181441 	0.00246657 	-0.24722
0.0117893 	0.00180442 	0.00240949 	-0.246233
0.0117893 	0.00180442 	0.00240949 	-0.246233
0.0118395 	0.00178263 	0.00237275 	-0.245168
0.0118896 	0.00175087 	0.0023532 	-0.244038
0.0118896 	0.00175087 	0.0023532 	-0.244038
0.0119398 	0.00169164 	0.00233979 	-0.242813
0.0119398 	0.00169164 	0.00233979 	-0.242813
0.01199 	0.00161128 	0.00233109 	-0.241516
0.01199 	0.00161128 	0.00233109 	-0.241516
0.0120401 	0.00151196 	0.0023027 	-0.240186
0.0120401 	0.00151196 	0.0023027 	-0.240186
0.0120903 	0.00140119 	0.00226243 	-0.238836
0.0120903 	0.00140119 	0.00226243 	-0.238836
0.0121405 	0.00130226 	0.00220987 	-0.237538
0.0121405 	0.00130226 	0.00220987 	-0.237538
0.0121906 	0.00120802 	0.00215244 	-0.236262
0.0121906 	0.00120802 	0.00215244 	-0.236262
0.0122408 	0.00114869 	0.00210453 	-0.235041
0.0122408 	0.00114869 	0.00210453 	-0.235041
0.012291 	0.00109594 	0.00205842 	-0.23383
0.012291 	0.00109594 	0.00205842 	-0.23383
0.0123411 	0.00108026 	0.00202103 	-0.232626
0.0123411 	0.00108026 	0.00202103 	-0.232626
0.0123913 	0.00106777 	0.00198311 	-0.231415
0.0123913 	0.00106777 	0.00198311 	-0.231415
0.0124415 	0.00106865 	0.00194293 	-0.230176
0.0124916 	0.00107179 	0.00190018 	-0.228914
0.0124916 	0.00107179 	0.00190018 	-0.228914
0.012592 	0.00108829 	0.00180586 	-0.22628
0.012592 	0.00108829 	0.00180586 	-0.22628
0.0126421 	0.00110039 	0.00175718 	-0.224918
0.0126923 	0.00111973 	0.0017125 	-0.223488
0.0126923 	0.00111973 	0.0017125 	-0.223488
0.0127425 	0.00114172 	0.00166888 	-0.222036
0.0127425 	0.00114172 	0.00166888 	-0.222036
0.0127926 	0.00116996 	0.00162763 	-0.22053
0.0128428 	0.00120359 	0.00158576 	-0.218979
0.0128428 	0.00120359 	0.00158576 	-0.218979
0.012893 	0.00124059 	0.00154351 	-0.2174
0.0129431 	0.00128615 	0.00149889 	-0.215743
0.0129431 	0.00128615 	0.00149889 	-0.215743
0.0129933 	0.00133518 	0.00145363 	-0.214052
0.0130435 	0.00138947 	0.00140741 	-0.212308
0.0130435 	0.00138947 	0.00140741 	-0.212308
0.0130936 	0.00145118 	0.00136056 	-0.210484
0.0131438 	0.00151726 	0.00131352 	-0.208613
0.0131438 	0.00151726 	0.00131352 	-0.208613
0.013194 	0.00159039 	0.00126633 	-0.206666
0.0132441 	0.00167179 	0.00121945 	-0.204628
0.0132441 	0.00167179 	0.00121945 	-0.204628
0.0132943 	0.00175885 	0.00117283 	-0.202527
0.0133445 	0.00185397 	0.00112662 	-0.200334
0.0133445 	0.00185397 	0.00112662 	-0.200334
0.0133946 	0.00195794 	0.00108058 	-0.198026
0.0134448 	0.00206745 	0.0010344 	-0.195633
0.0134448 	0.00206745 	0.0010344 	-0.195633
0.013495 	0.00218271 	0.000987937 	-0.193145
0.0135452 	0.00230497 	0.000940752 	-0.190486
0.0135452 	0.00230497 	0.000940752 	-0.190486
0.0136455 	0.00255857 	0.000846167 	-0.184792
0.0136455 	0.00255857 	0.000846167 	-0.184792
0.0136957 	0.002689 	0.000799226 	-0.181704
0.0137458 	0.00282003 	0.00075277 	-0.17839
0.0137458 	0.00282003 	0.00075277 	-0.17839
0.013796 	0.00295025 	0.000706588 	-0.174886
0.0138462 	0.00307879 	0.000660681 	-0.171174
0.0138462 	0.00307879 	0.000660681 	-0.171174
0.0138963 	0.00320468 	0.00061508 	-0.167235
0.0138963 	0.00320468 	0.00061508 	-0.167235
0.0139465 	0.00332508 	0.000570165 	-0.162963
0.0139967 	0.0034394 	0.00052593 	-0.158403
0.0139967 	0.0034394 	0.00052593 	-0.158403
0.0140468 	0.00354608 	0.000482419 	-0.153534
0.0140468 	0.00354608 	0.000482419 	-0.153534
0.014097 	0.00364304 	0.000439725 	-0.148328
0.0141472 	0.0037278 	0.000397967 	-0.142749
0.0141973 	0.00379754 	0.00035728 	-0.136762
0.0141973 	0.00379754 	0.00035728 	-0.136762
0.0142475 	0.0038467 	0.000318057 	-0.130249
0.0142977 	0.00387507 	0.000280535 	-0.123237
0.0143478 	0.00387815 	0.00024504 	-0.115699
0.0143478 	0.00387815 	0.00024504 	-0.115699
0.014398 	0.00384847 	0.000211671 	-0.107624
0.014398 	0.00384847 	0.000211671 	-0.107624
0.0144482 	0.00377577 	0.000180418 	-0.0990317
0.0144983 	0.00364874 	0.000151353 	-0.0899828
0.0144983 	0.00364874 	0.000151353 	-0.0899828
0.0145485 	0.00345836 	0.000124681 	-0.0805834
0.0145987 	0.00320133 	0.000100603 	-0.070976
0.0145987 	0.00320133 	0.000100603 	-0.070976
0.0146488 	0.00288241 	7.919e-05 	-0.0613184
0.014699 	0.00251523 	6.03718e-05 	-0.0517544
0.014699 	0.00251523 	6.03718e-05 	-0.0517544
0.0147492 	0.00212234 	4.40385e-05 	-0.0423918
0.0147993 	0.00173683 	3.03829e-05 	-0.0333007
0.0147993 	0.00173683 	3.03829e-05 	-0.0333007
0.0148495 	0.00141008 	1.81358e-05 	-0.0245436
0.0148495 	0.00141008 	1.81358e-05 	-0.0245436
0.0148997 	0.00113825 	9.05403e-06 	-0.0161616
0.0148997 	0.00113825 	9.05403e-06 	-0.0161616
0.0149498 	0.00073021 	3.59216e-06 	-0.00804706
0.0149498 	0.00073021 	3.59216e-06 	-0.00804706
0.015 	0 	0 	0
