-0.0075 	373
-0.00715932 	354.493
-0.00676191 	351.495
-0.00629832 	350.347
-0.00575752 	349.673
-0.00512667 	349.166
-0.00439077 	348.734
-0.00353231 	348.341
-0.00253089 	347.964
-0.00136271 	347.581
0 	347.173
0.00136271 	346.741
0.00253089 	346.301
0.00353231 	345.868
0.00439077 	345.426
0.00512667 	344.941
0.00575752 	344.341
0.00629832 	343.456
0.00676191 	341.538
0.00715932 	332.472
0.0075 	313
