-0.0075 	0 	0 	0
-0.0075 	-7.92797e-36 	-1.75922e-36 	1.85794e-31
-0.00745622 	-6.51233e-07 	-1.44509e-07 	0.0152618
-0.00745622 	-6.51233e-07 	-1.44509e-07 	0.0152618
-0.00741165 	-9.15504e-07 	-6.2003e-07 	0.0297101
-0.00741165 	-9.15504e-07 	-6.2003e-07 	0.0297101
-0.00736628 	-1.1066e-06 	-1.47154e-06 	0.0434427
-0.00736628 	-1.1066e-06 	-1.47154e-06 	0.0434427
-0.0073201 	-1.35534e-06 	-2.73459e-06 	0.0564842
-0.0073201 	-1.35534e-06 	-2.73459e-06 	0.0564842
-0.00727309 	-1.63306e-06 	-4.40086e-06 	0.0688604
-0.00727309 	-1.63306e-06 	-4.40086e-06 	0.0688604
-0.00722524 	-1.90074e-06 	-6.4833e-06 	0.0805955
-0.00722524 	-1.90074e-06 	-6.4833e-06 	0.0805955
-0.00717653 	-2.14416e-06 	-8.99057e-06 	0.0917024
-0.00717653 	-2.14416e-06 	-8.99057e-06 	0.0917024
-0.00712695 	-2.35863e-06 	-1.19395e-05 	0.102173
-0.00712695 	-2.35863e-06 	-1.19395e-05 	0.102173
-0.00707647 	-2.54283e-06 	-1.53626e-05 	0.11198
-0.00707647 	-2.54283e-06 	-1.53626e-05 	0.11198
-0.0070251 	-2.69632e-06 	-1.93127e-05 	0.121099
-0.0070251 	-2.69632e-06 	-1.93127e-05 	0.121099
-0.0069728 	-2.81881e-06 	-2.38588e-05 	0.129523
-0.0069728 	-2.81881e-06 	-2.38588e-05 	0.129523
-0.00691956 	-2.91013e-06 	-2.90727e-05 	0.13727
-0.00691956 	-2.91013e-06 	-2.90727e-05 	0.13727
-0.00686537 	-2.97034e-06 	-3.5019e-05 	0.144379
-0.00686537 	-2.97034e-06 	-3.5019e-05 	0.144379
-0.00681021 	-2.99989e-06 	-4.17593e-05 	0.150904
-0.00681021 	-2.99989e-06 	-4.17593e-05 	0.150904
-0.00675406 	-2.99958e-06 	-4.93609e-05 	0.156904
-0.00675406 	-2.99958e-06 	-4.93609e-05 	0.156904
-0.0066969 	-2.9702e-06 	-5.7886e-05 	0.162435
-0.0066969 	-2.9702e-06 	-5.7886e-05 	0.162435
-0.00663871 	-2.91275e-06 	-6.7378e-05 	0.167543
-0.00663871 	-2.91275e-06 	-6.7378e-05 	0.167543
-0.00657949 	-2.82886e-06 	-7.78433e-05 	0.17227
-0.00657949 	-2.82886e-06 	-7.78433e-05 	0.17227
-0.0065192 	-2.7205e-06 	-8.92495e-05 	0.176657
-0.0065192 	-2.7205e-06 	-8.92495e-05 	0.176657
-0.00645783 	-2.58964e-06 	-0.000101548 	0.180748
-0.00645783 	-2.58964e-06 	-0.000101548 	0.180748
-0.00639535 	-2.438e-06 	-0.000114688 	0.184581
-0.00639535 	-2.438e-06 	-0.000114688 	0.184581
-0.00633176 	-2.26713e-06 	-0.000128617 	0.188186
-0.00633176 	-2.26713e-06 	-0.000128617 	0.188186
-0.00626703 	-2.07848e-06 	-0.00014328 	0.191592
-0.00626703 	-2.07848e-06 	-0.00014328 	0.191592
-0.00620114 	-1.87344e-06 	-0.000158621 	0.194822
-0.00620114 	-1.87344e-06 	-0.000158621 	0.194822
-0.00613406 	-1.65329e-06 	-0.00017458 	0.197895
-0.00613406 	-1.65329e-06 	-0.00017458 	0.197895
-0.00606579 	-1.41926e-06 	-0.000191097 	0.20083
-0.00606579 	-1.41926e-06 	-0.000191097 	0.20083
-0.00599629 	-1.1726e-06 	-0.000208107 	0.203644
-0.00599629 	-1.1726e-06 	-0.000208107 	0.203644
-0.00592554 	-9.14405e-07 	-0.000225539 	0.206352
-0.00592554 	-9.14405e-07 	-0.000225539 	0.206352
-0.00585352 	-6.45431e-07 	-0.000243321 	0.208968
-0.00585352 	-6.45431e-07 	-0.000243321 	0.208968
-0.00578022 	-3.66108e-07 	-0.000261365 	0.211505
-0.00578022 	-3.66108e-07 	-0.000261365 	0.211505
-0.00570559 	-7.67696e-08 	-0.000279573 	0.213974
-0.00570559 	-7.67696e-08 	-0.000279573 	0.213974
-0.00562963 	2.22229e-07 	-0.000297843 	0.216381
-0.00562963 	2.22229e-07 	-0.000297843 	0.216381
-0.00555231 	5.30534e-07 	-0.000316077 	0.218735
-0.00555231 	5.30534e-07 	-0.000316077 	0.218735
-0.0054736 	8.47846e-07 	-0.00033417 	0.22104
-0.0054736 	8.47846e-07 	-0.00033417 	0.22104
-0.00539348 	1.17393e-06 	-0.000352019 	0.223302
-0.00539348 	1.17393e-06 	-0.000352019 	0.223302
-0.00531193 	1.5086e-06 	-0.00036952 	0.225525
-0.00531193 	1.5086e-06 	-0.00036952 	0.225525
-0.00522891 	1.85174e-06 	-0.000386569 	0.22771
-0.00522891 	1.85174e-06 	-0.000386569 	0.22771
-0.0051444 	2.20332e-06 	-0.000403064 	0.229861
-0.0051444 	2.20332e-06 	-0.000403064 	0.229861
-0.00505838 	2.56334e-06 	-0.000418909 	0.231978
-0.00505838 	2.56334e-06 	-0.000418909 	0.231978
-0.00497081 	2.9319e-06 	-0.000434011 	0.234063
-0.00497081 	2.9319e-06 	-0.000434011 	0.234063
-0.00488168 	3.30918e-06 	-0.000448281 	0.236115
-0.00488168 	3.30918e-06 	-0.000448281 	0.236115
-0.00479094 	3.69542e-06 	-0.000461637 	0.238133
-0.00479094 	3.69542e-06 	-0.000461637 	0.238133
-0.00469858 	4.09088e-06 	-0.000474 	0.240116
-0.00469858 	4.09088e-06 	-0.000474 	0.240116
-0.00460456 	4.49591e-06 	-0.000485299 	0.242064
-0.00460456 	4.49591e-06 	-0.000485299 	0.242064
-0.00450886 	4.911e-06 	-0.000495482 	0.243973
-0.00450886 	4.911e-06 	-0.000495482 	0.243973
-0.00441144 	5.33676e-06 	-0.00050453 	0.245843
-0.00441144 	5.33676e-06 	-0.00050453 	0.245843
-0.00431227 	5.77402e-06 	-0.000512454 	0.247671
-0.00431227 	5.77402e-06 	-0.000512454 	0.247671
-0.00421133 	6.22382e-06 	-0.000519299 	0.249456
-0.00421133 	6.22382e-06 	-0.000519299 	0.249456
-0.00410857 	6.68708e-06 	-0.000525128 	0.251195
-0.00410857 	6.68708e-06 	-0.000525128 	0.251195
-0.00400397 	7.16414e-06 	-0.000530025 	0.252886
-0.00400397 	7.16414e-06 	-0.000530025 	0.252886
-0.0038975 	7.65472e-06 	-0.000534082 	0.254529
-0.0038975 	7.65472e-06 	-0.000534082 	0.254529
-0.00378912 	8.15866e-06 	-0.000537385 	0.256125
-0.00378912 	8.15866e-06 	-0.000537385 	0.256125
-0.00367879 	8.67658e-06 	-0.000540008 	0.257678
-0.00367879 	8.67658e-06 	-0.000540008 	0.257678
-0.00356649 	9.20925e-06 	-0.000542013 	0.259186
-0.00356649 	9.20925e-06 	-0.000542013 	0.259186
-0.00345217 	9.75669e-06 	-0.000543458 	0.260649
-0.00345217 	9.75669e-06 	-0.000543458 	0.260649
-0.0033358 	1.03181e-05 	-0.000544407 	0.262063
-0.0033358 	1.03181e-05 	-0.000544407 	0.262063
-0.00321735 	1.08923e-05 	-0.000544926 	0.263426
-0.00321735 	1.08923e-05 	-0.000544926 	0.263426
-0.00309677 	1.14777e-05 	-0.000545089 	0.264735
-0.00309677 	1.14777e-05 	-0.000545089 	0.264735
-0.00297403 	1.20726e-05 	-0.000544972 	0.265989
-0.00297403 	1.20726e-05 	-0.000544972 	0.265989
-0.00284909 	1.2675e-05 	-0.000544658 	0.267183
-0.00284909 	1.2675e-05 	-0.000544658 	0.267183
-0.0027219 	1.32824e-05 	-0.000544226 	0.268317
-0.0027219 	1.32824e-05 	-0.000544226 	0.268317
-0.00259244 	1.38924e-05 	-0.000543756 	0.269387
-0.00259244 	1.38924e-05 	-0.000543756 	0.269387
-0.00246065 	1.45021e-05 	-0.000543321 	0.27039
-0.00246065 	1.45021e-05 	-0.000543321 	0.27039
-0.00232651 	1.51084e-05 	-0.000542988 	0.271325
-0.00232651 	1.51084e-05 	-0.000542988 	0.271325
-0.00218995 	1.57077e-05 	-0.000542812 	0.272188
-0.00218995 	1.57077e-05 	-0.000542812 	0.272188
-0.00205095 	1.62965e-05 	-0.000542835 	0.27298
-0.00205095 	1.62965e-05 	-0.000542835 	0.27298
-0.00190946 	1.68702e-05 	-0.000543084 	0.273696
-0.00190946 	1.68702e-05 	-0.000543084 	0.273696
-0.00176543 	1.7424e-05 	-0.000543569 	0.274338
-0.00176543 	1.7424e-05 	-0.000543569 	0.274338
-0.00161881 	1.7952e-05 	-0.000544282 	0.274904
-0.00161881 	1.7952e-05 	-0.000544282 	0.274904
-0.00146957 	1.84475e-05 	-0.000545194 	0.275394
-0.00146957 	1.84475e-05 	-0.000545194 	0.275394
-0.00131765 	1.89035e-05 	-0.000546259 	0.275808
-0.00131765 	1.89035e-05 	-0.000546259 	0.275808
-0.001163 	1.93127e-05 	-0.000547419 	0.276146
-0.001163 	1.93127e-05 	-0.000547419 	0.276146
-0.00100559 	1.96664e-05 	-0.000548611 	0.276409
-0.00100559 	1.96664e-05 	-0.000548611 	0.276409
-0.000845345 	1.99545e-05 	-0.0005498 	0.276596
-0.000845345 	1.99545e-05 	-0.0005498 	0.276596
-0.000682232 	2.01646e-05 	-0.000550898 	0.276705
-0.000682232 	2.01646e-05 	-0.000550898 	0.276705
-0.000516194 	2.02829e-05 	-0.000551809 	0.276735
-0.000516194 	2.02829e-05 	-0.000551809 	0.276735
-0.000347178 	2.0294e-05 	-0.000552522 	0.276685
-0.000347178 	2.0294e-05 	-0.000552522 	0.276685
-0.000175132 	2.0185e-05 	-0.00055289 	0.276551
-0.000175132 	2.0185e-05 	-0.00055289 	0.276551
0 	1.99478e-05 	-0.000552903 	0.276332
0 	1.99478e-05 	-0.000552903 	0.276332
0 	1.99478e-05 	-0.000552903 	0.276332
0 	1.99478e-05 	-0.000552903 	0.276332
0.000175132 	1.95819e-05 	-0.000552604 	0.27603
0.000175132 	2.45695e-05 	-0.000457679 	0.272465
0.000347178 	1.90996e-05 	-0.000551881 	0.275651
0.000347178 	2.563e-05 	-0.000458992 	0.272159
0.000516194 	1.85162e-05 	-0.000550812 	0.2752
0.000516194 	2.65063e-05 	-0.000460089 	0.271775
0.000682232 	1.78459e-05 	-0.000549399 	0.274681
0.000682232 	2.72134e-05 	-0.000460931 	0.271315
0.000845345 	1.7106e-05 	-0.000547579 	0.274098
0.000845345 	2.77696e-05 	-0.000461283 	0.270786
0.00100559 	1.63114e-05 	-0.000545406 	0.273452
0.00100559 	2.81917e-05 	-0.000461256 	0.270191
0.001163 	1.54754e-05 	-0.000542899 	0.272748
0.001163 	2.84959e-05 	-0.000460858 	0.269532
0.00131765 	1.46093e-05 	-0.000540073 	0.271987
0.00131765 	2.86968e-05 	-0.000460098 	0.268813
0.00146957 	1.37227e-05 	-0.000536946 	0.271171
0.00146957 	2.8807e-05 	-0.000458988 	0.268036
0.00161881 	1.28239e-05 	-0.000533532 	0.270302
0.00161881 	2.88378e-05 	-0.000457537 	0.267204
0.00176543 	1.19198e-05 	-0.000529845 	0.269381
0.00176543 	2.8799e-05 	-0.000455754 	0.266318
0.00190946 	1.10163e-05 	-0.000525895 	0.268411
0.00190946 	2.86988e-05 	-0.000453647 	0.26538
0.00205095 	1.01181e-05 	-0.000521691 	0.267393
0.00205095 	2.85446e-05 	-0.000451223 	0.264392
0.00218995 	9.2291e-06 	-0.00051724 	0.266328
0.00218995 	2.83428e-05 	-0.000448486 	0.263355
0.00232651 	8.35254e-06 	-0.000512545 	0.265215
0.00232651 	2.80986e-05 	-0.000445439 	0.26227
0.00246065 	7.491e-06 	-0.000507608 	0.264058
0.00246065 	2.78166e-05 	-0.000442081 	0.261138
0.00259244 	6.64654e-06 	-0.000502429 	0.262855
0.00259244 	2.75006e-05 	-0.000438411 	0.25996
0.0027219 	5.82078e-06 	-0.000497006 	0.261607
0.0027219 	2.71536e-05 	-0.000434426 	0.258736
0.00284909 	5.015e-06 	-0.000491337 	0.260315
0.00284909 	2.67781e-05 	-0.000430118 	0.257468
0.00297403 	4.23019e-06 	-0.000485415 	0.258979
0.00297403 	2.63763e-05 	-0.000425478 	0.256154
0.00309677 	3.46711e-06 	-0.000479236 	0.257598
0.00309677 	2.59498e-05 	-0.000420497 	0.254795
0.00321735 	2.7263e-06 	-0.000472791 	0.256173
0.00321735 	2.54998e-05 	-0.000415161 	0.253392
0.0033358 	2.00812e-06 	-0.000466073 	0.254703
0.0033358 	2.50274e-05 	-0.000409461 	0.251942
0.00345217 	2.45333e-05 	-0.00040339 	0.250447
0.00345217 	1.31284e-06 	-0.000459077 	0.253187
0.00356649 	6.40644e-07 	-0.000451795 	0.251624
0.00356649 	2.40182e-05 	-0.000396946 	0.248904
0.00367879 	-8.32793e-09 	-0.000444213 	0.250015
0.00367879 	2.34841e-05 	-0.000390119 	0.247314
0.00378912 	-6.33981e-07 	-0.000436311 	0.248356
0.00378912 	2.29341e-05 	-0.000382891 	0.245677
0.0038975 	-1.23628e-06 	-0.000428064 	0.246648
0.0038975 	2.23706e-05 	-0.000375232 	0.243993
0.00400397 	-1.81551e-06 	-0.000419426 	0.244885
0.00400397 	2.1794e-05 	-0.000367084 	0.242254
0.00410857 	2.12024e-05 	-0.000358339 	0.240446
0.00410857 	-2.37255e-06 	-0.00041033 	0.243063
0.00421133 	-2.90881e-06 	-0.000400697 	0.241174
0.00421133 	2.05927e-05 	-0.000348897 	0.23856
0.00431227 	-3.42596e-06 	-0.000390447 	0.239213
0.00431227 	1.99619e-05 	-0.000338686 	0.236589
0.00441144 	-3.92524e-06 	-0.000379515 	0.237172
0.00441144 	1.93071e-05 	-0.000327673 	0.23453
0.00450886 	-4.40707e-06 	-0.000367876 	0.235046
0.00450886 	1.86256e-05 	-0.000315868 	0.232378
0.00460456 	-4.87161e-06 	-0.000355529 	0.232829
0.00460456 	1.79148e-05 	-0.000303314 	0.230131
0.00469858 	-5.3191e-06 	-0.000342494 	0.230516
0.00469858 	1.71724e-05 	-0.000290063 	0.227784
0.00479094 	-5.74983e-06 	-0.000328795 	0.228103
0.00479094 	1.63962e-05 	-0.00027617 	0.225332
0.00488168 	-6.16404e-06 	-0.000314463 	0.225585
0.00488168 	1.5584e-05 	-0.000261694 	0.222773
0.00497081 	-6.56189e-06 	-0.000299539 	0.222958
0.00497081 	1.47339e-05 	-0.000246703 	0.220101
0.00505838 	-6.94341e-06 	-0.000284076 	0.220218
0.00505838 	1.38439e-05 	-0.000231274 	0.217313
0.0051444 	-7.30851e-06 	-0.000268141 	0.217362
0.0051444 	1.29126e-05 	-0.000215496 	0.214406
0.00522891 	-7.65697e-06 	-0.00025182 	0.214384
0.00522891 	1.1939e-05 	-0.000199477 	0.211377
0.00531193 	-7.98841e-06 	-0.000235212 	0.211283
0.00531193 	1.09227e-05 	-0.00018334 	0.208223
0.00539348 	-8.30232e-06 	-0.000218432 	0.208056
0.00539348 	9.86379e-06 	-0.000167221 	0.204943
0.0054736 	-8.59805e-06 	-0.000201606 	0.204698
0.0054736 	8.76323e-06 	-0.000151263 	0.201534
0.00555231 	-8.87484e-06 	-0.000184867 	0.201207
0.00555231 	7.62235e-06 	-0.000135614 	0.197996
0.00562963 	-9.13177e-06 	-0.000168349 	0.197578
0.00562963 	6.4431e-06 	-0.000120417 	0.194325
0.00570559 	-9.36778e-06 	-0.000152184 	0.193808
0.00570559 	5.22797e-06 	-0.000105805 	0.190518
0.00578022 	-9.58167e-06 	-0.000136497 	0.189891
0.00578022 	3.97998e-06 	-9.18974e-05 	0.186572
0.00585352 	-9.7721e-06 	-0.000121401 	0.185822
0.00585352 	2.70276e-06 	-7.87975e-05 	0.182482
0.00592554 	-9.93758e-06 	-0.000106999 	0.181594
0.00592554 	1.40055e-06 	-6.65878e-05 	0.178242
0.00599629 	-1.00765e-05 	-9.3377e-05 	0.1772
0.00599629 	7.83069e-08 	-5.533e-05 	0.173846
0.00606579 	-1.01872e-05 	-8.06078e-05 	0.17263
0.00606579 	-1.25834e-06 	-4.50665e-05 	0.169285
0.00613406 	-1.0268e-05 	-6.87521e-05 	0.167872
0.00613406 	-2.60312e-06 	-3.58206e-05 	0.164547
0.00620114 	-3.9492e-06 	-2.75988e-05 	0.159615
0.00620114 	-1.03169e-05 	-5.78568e-05 	0.162912
0.00626703 	-1.03317e-05 	-4.79576e-05 	0.157731
0.00626703 	-5.28829e-06 	-2.03971e-05 	0.154472
0.00633176 	-6.60975e-06 	-1.42013e-05 	0.149105
0.00633176 	-1.03098e-05 	-3.90819e-05 	0.152313
0.00639535 	-7.90077e-06 	-8.98035e-06 	0.143497
0.00639535 	-1.02484e-05 	-3.12391e-05 	0.146644
0.00645783 	-1.0145e-05 	-2.44182e-05 	0.140708
0.00645783 	-9.14656e-06 	-4.68642e-06 	0.137632
0.0065192 	-9.99698e-06 	-1.85926e-05 	0.134487
0.0065192 	-1.03301e-05 	-1.25935e-06 	0.131493
0.00657949 	-9.80159e-06 	-1.37227e-05 	0.127965
0.00657949 	-1.14319e-05 	1.37016e-06 	0.125064
0.00663871 	-9.55659e-06 	-9.75542e-06 	0.121125
0.00663871 	-1.24302e-05 	3.27841e-06 	0.118327
0.0066969 	-9.26023e-06 	-6.61111e-06 	0.11395
0.0066969 	-1.3301e-05 	4.55197e-06 	0.111261
0.00675406 	-1.40193e-05 	5.28251e-06 	0.10383
0.00675406 	-8.91007e-06 	-4.19561e-06 	0.106406
0.00681021 	-1.45568e-05 	5.56224e-06 	0.0960103
0.00681021 	-8.50281e-06 	-2.40727e-06 	0.0984617
0.00686537 	-1.48811e-05 	5.48249e-06 	0.0878204
0.00686537 	-8.03657e-06 	-1.14921e-06 	0.0901291
0.00691956 	-1.49599e-05 	5.13234e-06 	0.0793284
0.00691956 	-7.5126e-06 	-3.35854e-07 	0.0814732
0.0069728 	-1.47684e-05 	4.59894e-06 	0.070652
0.0069728 	-6.93565e-06 	1.2598e-07 	0.0726117
0.0070251 	-6.31375e-06 	3.3185e-07 	0.0637119
0.0070251 	-1.42952e-05 	3.96322e-06 	0.0619551
0.00707647 	-5.65748e-06 	3.72354e-07 	0.0549711
0.00707647 	-1.35473e-05 	3.29476e-06 	0.0534278
0.00712695 	-4.97885e-06 	3.23758e-07 	0.046583
0.00712695 	-1.25502e-05 	2.64666e-06 	0.0452541
0.00717653 	-4.28993e-06 	2.41412e-07 	0.0386998
0.00717653 	-1.13427e-05 	2.05342e-06 	0.0375778
0.00722524 	-3.60214e-06 	1.5817e-07 	0.0314113
0.00722524 	-9.96887e-06 	1.53214e-06 	0.0304834
0.00727309 	-8.47123e-06 	1.08779e-06 	0.0240001
0.00727309 	-2.92715e-06 	8.89715e-08 	0.0247484
0.0073201 	-6.88934e-06 	7.20538e-07 	0.0181194
0.0073201 	-2.28036e-06 	3.90205e-08 	0.018702
0.00736628 	-5.26333e-06 	4.24366e-07 	0.0128133
0.00736628 	-1.68857e-06 	2.7462e-09 	0.0132428
0.00741165 	-1.15949e-06 	-1.0004e-08 	0.00833388
0.00741165 	-3.60133e-06 	2.07312e-07 	0.00804619
0.00745622 	-6.2691e-07 	-1.04133e-08 	0.00393798
0.00745622 	-1.85282e-06 	6.78616e-08 	0.00378232
0.0075 	0 	0 	0
0.0075 	0 	0 	0
