-0.0075 	373
-0.00715932 	353.822
-0.00676191 	350.679
-0.00629832 	349.478
-0.00575752 	348.773
-0.00512667 	348.242
-0.00439077 	347.791
-0.00353231 	347.382
-0.00253089 	346.992
-0.00136271 	346.599
0 	346.185
0.00136271 	345.749
0.00253089 	345.311
0.00353231 	344.883
0.00439077 	344.449
0.00512667 	343.974
0.00575752 	343.388
0.00629832 	342.523
0.00676191 	340.642
0.00715932 	331.803
0.0075 	313
