/*--------------------------------*- C++ -*----------------------------------*\
| =========                 |                                                 |
| \\      /  F ield         | OpenFOAM: The Open Source CFD Toolbox           |
|  \\    /   O peration     | Version:  v1912                                 |
|   \\  /    A nd           | Website:  www.openfoam.com                      |
|    \\/     M anipulation  |                                                 |
\*---------------------------------------------------------------------------*/
FoamFile
{
    version     2.0;
    format      ascii;
    class       volScalarField;
    location    "9.6";
    object      nut;
}
// * * * * * * * * * * * * * * * * * * * * * * * * * * * * * * * * * * * * * //

dimensions      [0 2 -1 0 0 0 0];


internalField   nonuniform List<scalar> 
34128
(
1.77195e-12
1.68402e-12
1.67423e-12
1.69601e-12
1.6577e-12
1.6397e-12
1.6812e-12
1.70687e-12
1.70518e-12
1.70022e-12
1.67873e-12
1.64115e-12
2.11067e-12
2.03055e-12
2.00494e-12
1.99681e-12
1.92791e-12
1.91514e-12
1.99472e-12
2.04455e-12
2.05501e-12
2.05433e-12
2.02089e-12
1.96649e-12
1.04263e-11
1.04033e-11
1.00628e-11
9.5064e-12
8.82129e-12
8.89419e-12
9.74043e-12
1.02717e-11
1.05096e-11
1.05888e-11
1.03065e-11
9.88912e-12
6.69523e-11
6.73344e-11
6.48381e-11
6.05571e-11
5.57585e-11
5.64565e-11
6.24738e-11
6.62079e-11
6.7962e-11
6.86211e-11
6.66731e-11
6.37762e-11
2.85912e-10
2.88234e-10
2.77237e-10
2.58262e-10
2.37708e-10
2.41105e-10
2.67158e-10
2.83057e-10
2.90651e-10
2.93841e-10
2.85559e-10
2.72924e-10
8.93067e-10
9.02213e-10
8.67383e-10
8.06946e-10
7.43406e-10
7.55133e-10
8.36455e-10
8.85034e-10
9.08683e-10
9.19947e-10
8.94706e-10
8.54789e-10
2.22886e-09
2.257e-09
2.16987e-09
2.01725e-09
1.86139e-09
1.89325e-09
2.09434e-09
2.21138e-09
2.26976e-09
2.30153e-09
2.24117e-09
2.14121e-09
4.6898e-09
4.76121e-09
4.57994e-09
4.25779e-09
3.93759e-09
4.00934e-09
4.4248e-09
4.65914e-09
4.77958e-09
4.85468e-09
4.73552e-09
4.52664e-09
8.61347e-09
8.76738e-09
8.44321e-09
7.85594e-09
7.28553e-09
7.42393e-09
8.16602e-09
8.56914e-09
8.78365e-09
8.93688e-09
8.73664e-09
8.36e-09
1.41592e-08
1.44471e-08
1.39368e-08
1.29898e-08
1.20861e-08
1.23207e-08
1.34957e-08
1.41058e-08
1.44433e-08
1.47197e-08
1.4427e-08
1.38261e-08
2.12468e-08
2.17237e-08
2.10026e-08
1.96253e-08
1.83266e-08
1.86835e-08
2.03668e-08
2.11937e-08
2.16712e-08
2.21216e-08
2.17431e-08
2.08771e-08
2.95754e-08
3.02893e-08
2.93592e-08
2.75228e-08
2.58018e-08
2.62992e-08
2.85183e-08
2.95351e-08
3.01512e-08
3.08262e-08
3.03894e-08
2.92416e-08
3.77084e-08
3.86346e-08
3.77308e-08
3.57777e-08
3.3816e-08
3.43425e-08
3.67994e-08
3.77803e-08
3.83973e-08
3.92352e-08
3.88644e-08
3.7682e-08
4.51266e-08
4.6251e-08
4.52487e-08
4.30275e-08
4.08006e-08
4.14474e-08
4.42487e-08
4.52331e-08
4.58903e-08
4.69744e-08
4.66372e-08
4.52532e-08
5.26283e-08
5.396e-08
5.28748e-08
5.04106e-08
4.7957e-08
4.87368e-08
5.18456e-08
5.27757e-08
5.34499e-08
5.48132e-08
5.45419e-08
5.29532e-08
6.01105e-08
6.16585e-08
6.05089e-08
5.78336e-08
5.51998e-08
5.61216e-08
5.94909e-08
6.03073e-08
6.09732e-08
6.26442e-08
6.24729e-08
6.06825e-08
6.74765e-08
6.925e-08
6.80554e-08
6.52055e-08
6.24433e-08
6.35125e-08
6.70872e-08
6.77313e-08
6.83636e-08
7.03658e-08
7.03294e-08
6.83453e-08
7.46467e-08
7.66561e-08
7.5436e-08
7.24504e-08
6.96149e-08
7.08323e-08
7.4552e-08
7.49679e-08
7.55411e-08
7.78934e-08
7.80281e-08
7.58627e-08
8.15622e-08
8.38208e-08
8.25938e-08
7.95112e-08
7.66585e-08
7.80212e-08
8.1822e-08
8.19571e-08
8.24468e-08
8.51649e-08
8.55084e-08
8.31768e-08
8.81924e-08
9.07185e-08
8.95019e-08
8.63562e-08
8.35403e-08
8.50428e-08
8.88604e-08
8.86654e-08
8.9049e-08
9.21491e-08
9.27417e-08
9.02595e-08
9.45439e-08
9.73657e-08
9.61744e-08
9.29889e-08
9.02589e-08
9.18952e-08
9.56674e-08
9.50953e-08
9.5354e-08
9.88574e-08
9.97447e-08
9.71254e-08
1.00669e-07
1.03828e-07
1.02676e-07
9.9459e-08
9.68567e-08
9.86229e-08
1.02289e-07
1.01293e-07
1.01412e-07
1.0535e-07
1.06587e-07
1.03842e-07
1.06658e-07
1.10211e-07
1.09118e-07
1.05864e-07
1.03425e-07
1.05319e-07
1.08817e-07
1.07348e-07
1.07315e-07
1.11727e-07
1.1338e-07
1.10523e-07
1.1262e-07
1.16639e-07
1.15632e-07
1.12337e-07
1.10092e-07
1.12111e-07
1.15366e-07
1.13374e-07
1.13173e-07
1.18098e-07
1.20245e-07
1.17306e-07
1.18642e-07
1.23203e-07
1.22333e-07
1.19009e-07
1.16997e-07
1.19125e-07
1.22038e-07
1.19472e-07
1.19084e-07
1.24538e-07
1.27266e-07
1.24306e-07
1.24744e-07
1.29918e-07
1.29271e-07
1.25972e-07
1.24245e-07
1.2644e-07
1.28878e-07
1.25697e-07
1.25087e-07
1.31033e-07
1.34428e-07
1.31562e-07
1.30841e-07
1.36671e-07
1.36377e-07
1.33225e-07
1.3186e-07
1.34039e-07
1.35826e-07
1.32008e-07
1.31125e-07
1.37443e-07
1.41567e-07
1.3899e-07
1.367e-07
1.43157e-07
1.43393e-07
1.40624e-07
1.39732e-07
1.41755e-07
1.42674e-07
1.38234e-07
1.3701e-07
1.4343e-07
1.4826e-07
1.46285e-07
1.41873e-07
1.48784e-07
1.49752e-07
1.47731e-07
1.47505e-07
1.4916e-07
1.48975e-07
1.44011e-07
1.42352e-07
1.48383e-07
1.53746e-07
1.52788e-07
1.45728e-07
1.52794e-07
1.54655e-07
1.53849e-07
1.54486e-07
1.55544e-07
1.54043e-07
1.48752e-07
1.46554e-07
1.51598e-07
1.57184e-07
1.57626e-07
1.47809e-07
1.54749e-07
1.57445e-07
1.58253e-07
1.59946e-07
1.60162e-07
1.57219e-07
1.5185e-07
1.49057e-07
1.52955e-07
1.58428e-07
1.60139e-07
1.48527e-07
1.55224e-07
1.5845e-07
1.60535e-07
1.63405e-07
1.626e-07
1.58562e-07
1.53301e-07
1.5009e-07
1.52901e-07
1.58106e-07
1.60817e-07
1.47932e-07
1.54263e-07
1.57894e-07
1.60924e-07
1.6446e-07
1.63068e-07
1.58349e-07
1.53323e-07
1.49779e-07
1.51448e-07
1.56242e-07
1.59862e-07
1.4609e-07
1.51946e-07
1.55849e-07
1.59682e-07
1.63719e-07
1.6186e-07
1.56663e-07
1.51984e-07
1.48185e-07
1.48699e-07
1.52962e-07
1.57354e-07
1.43149e-07
1.48448e-07
1.52462e-07
1.56921e-07
1.6133e-07
1.59097e-07
1.53626e-07
1.49377e-07
1.45427e-07
1.44862e-07
1.48522e-07
1.53462e-07
1.39338e-07
1.44039e-07
1.47983e-07
1.52822e-07
1.5745e-07
1.54957e-07
1.49439e-07
1.45697e-07
1.41703e-07
1.40244e-07
1.43295e-07
1.48475e-07
1.34974e-07
1.39079e-07
1.42766e-07
1.47673e-07
1.52325e-07
1.49714e-07
1.44385e-07
1.41212e-07
1.37287e-07
1.35228e-07
1.37745e-07
1.42786e-07
1.30427e-07
1.34011e-07
1.37254e-07
1.41869e-07
1.46313e-07
1.4374e-07
1.3885e-07
1.3625e-07
1.32521e-07
1.30255e-07
1.32395e-07
1.36879e-07
1.26107e-07
1.29301e-07
1.31949e-07
1.35897e-07
1.39873e-07
1.37488e-07
1.33263e-07
1.31192e-07
1.27805e-07
1.25805e-07
1.27797e-07
1.31293e-07
1.22449e-07
1.25421e-07
1.27388e-07
1.30319e-07
1.33549e-07
1.31471e-07
1.28078e-07
1.26458e-07
1.23579e-07
1.22378e-07
1.24511e-07
1.26608e-07
1.19907e-07
1.22853e-07
1.24131e-07
1.25741e-07
1.27941e-07
1.26244e-07
1.23768e-07
1.22502e-07
1.20323e-07
1.20501e-07
1.23108e-07
1.23398e-07
1.1896e-07
1.22103e-07
1.22783e-07
1.2281e-07
1.23693e-07
1.22384e-07
1.20822e-07
1.19803e-07
1.1856e-07
1.20753e-07
1.24213e-07
1.22258e-07
1.20152e-07
1.23747e-07
1.24005e-07
1.22226e-07
1.21487e-07
1.20504e-07
1.19766e-07
1.18888e-07
1.18883e-07
1.23831e-07
1.28587e-07
1.2385e-07
1.24163e-07
1.28509e-07
1.28597e-07
1.24793e-07
1.22079e-07
1.21287e-07
1.21207e-07
1.20376e-07
1.2202e-07
1.30674e-07
1.3729e-07
1.29001e-07
1.31918e-07
1.3741e-07
1.37662e-07
1.31538e-07
1.2638e-07
1.25568e-07
1.25918e-07
1.25058e-07
1.28951e-07
1.42671e-07
1.51945e-07
1.38877e-07
1.44798e-07
1.52e-07
1.52873e-07
1.4393e-07
1.35615e-07
1.34483e-07
1.34981e-07
1.34048e-07
1.41122e-07
1.62023e-07
1.75166e-07
1.55288e-07
1.64961e-07
1.74727e-07
1.76898e-07
1.64234e-07
1.51618e-07
1.49714e-07
1.50025e-07
1.49023e-07
1.6082e-07
1.92302e-07
2.11183e-07
1.81157e-07
1.95762e-07
2.09402e-07
2.13958e-07
1.96034e-07
1.77305e-07
1.73922e-07
1.73602e-07
1.72623e-07
1.91703e-07
2.38689e-07
2.65471e-07
2.21135e-07
2.40286e-07
2.59019e-07
2.68231e-07
2.44962e-07
2.17349e-07
2.11264e-07
2.09487e-07
2.08776e-07
2.37749e-07
3.0037e-07
3.32062e-07
2.79588e-07
2.92017e-07
3.10504e-07
3.41158e-07
3.1693e-07
2.76529e-07
2.65984e-07
2.6136e-07
2.61379e-07
2.97747e-07
3.62937e-07
4.01757e-07
3.43601e-07
3.50898e-07
3.73648e-07
4.1454e-07
4.07753e-07
3.63217e-07
3.41779e-07
3.18989e-07
3.15549e-07
3.60644e-07
4.39803e-07
4.8486e-07
4.16069e-07
4.23461e-07
4.50004e-07
5.024e-07
5.00379e-07
4.51044e-07
4.1609e-07
3.86289e-07
3.82533e-07
4.38658e-07
5.29898e-07
5.81185e-07
5.01932e-07
5.08714e-07
5.38799e-07
6.04375e-07
6.0888e-07
5.51864e-07
5.05186e-07
4.6781e-07
4.63953e-07
5.30589e-07
6.33732e-07
6.91337e-07
6.01206e-07
6.07066e-07
6.40719e-07
7.20947e-07
7.33241e-07
6.6857e-07
6.08156e-07
5.62538e-07
5.58931e-07
6.3673e-07
7.51499e-07
8.15173e-07
7.14459e-07
7.19219e-07
7.56196e-07
8.51824e-07
8.72582e-07
8.00654e-07
7.25137e-07
6.70996e-07
6.681e-07
7.57223e-07
8.82447e-07
9.51578e-07
8.41477e-07
8.45174e-07
8.84904e-07
9.95656e-07
1.02478e-06
9.4637e-07
8.55517e-07
7.93284e-07
7.91576e-07
8.91222e-07
1.0248e-06
1.09845e-06
9.8109e-07
9.84048e-07
1.02563e-06
1.15e-06
1.18654e-06
1.10268e-06
9.9762e-07
9.28511e-07
9.28455e-07
1.0368e-06
1.17584e-06
1.25284e-06
1.13115e-06
1.13401e-06
1.17623e-06
1.3115e-06
1.35365e-06
1.26551e-06
1.14865e-06
1.07471e-06
1.07672e-06
1.19107e-06
1.33218e-06
1.41121e-06
1.28865e-06
1.29236e-06
1.33381e-06
1.4763e-06
1.52145e-06
1.43009e-06
1.305e-06
1.22889e-06
1.23335e-06
1.35041e-06
1.49001e-06
1.5698e-06
1.45e-06
1.4557e-06
1.49489e-06
1.64029e-06
1.68539e-06
1.59154e-06
1.46254e-06
1.38736e-06
1.39456e-06
1.51086e-06
1.64452e-06
1.72494e-06
1.61137e-06
1.62028e-06
1.65579e-06
1.79958e-06
1.84145e-06
1.74553e-06
1.61716e-06
1.54604e-06
1.55627e-06
1.6685e-06
1.7929e-06
1.87334e-06
1.769e-06
1.78227e-06
1.81289e-06
1.95079e-06
1.98644e-06
1.88868e-06
1.7651e-06
1.70092e-06
1.71442e-06
1.81978e-06
1.93263e-06
2.01146e-06
1.91953e-06
1.93811e-06
1.96292e-06
2.0913e-06
2.11822e-06
2.0187e-06
1.90334e-06
1.84851e-06
1.86544e-06
1.96174e-06
2.06167e-06
2.13816e-06
2.0602e-06
2.08476e-06
2.10319e-06
2.2192e-06
2.2356e-06
2.13438e-06
2.02977e-06
1.98605e-06
2.00643e-06
2.09221e-06
2.17875e-06
2.25227e-06
2.18897e-06
2.21983e-06
2.23172e-06
2.33339e-06
2.33829e-06
2.2355e-06
2.14339e-06
2.11163e-06
2.13531e-06
2.20976e-06
2.28295e-06
2.35312e-06
2.30449e-06
2.34169e-06
2.34721e-06
2.43357e-06
2.4267e-06
2.3226e-06
2.24407e-06
2.22423e-06
2.25085e-06
2.31354e-06
2.37404e-06
2.44059e-06
2.40602e-06
2.44944e-06
2.44906e-06
2.52003e-06
2.50174e-06
2.39677e-06
2.33197e-06
2.32355e-06
2.35257e-06
2.40328e-06
2.45226e-06
2.51504e-06
2.4936e-06
2.54282e-06
2.53725e-06
2.59345e-06
2.56464e-06
2.45948e-06
2.40779e-06
2.40994e-06
2.44063e-06
2.47986e-06
2.51827e-06
2.57732e-06
2.5686e-06
2.62211e-06
2.61223e-06
2.65483e-06
2.61675e-06
2.51231e-06
2.47255e-06
2.48413e-06
2.51566e-06
2.54427e-06
2.57306e-06
2.62851e-06
2.63078e-06
2.68804e-06
2.67482e-06
2.70529e-06
2.65945e-06
2.55677e-06
2.5275e-06
2.54716e-06
2.57865e-06
2.59761e-06
2.61782e-06
2.66978e-06
2.68156e-06
2.74162e-06
2.72604e-06
2.74604e-06
2.69401e-06
2.59426e-06
2.5739e-06
2.60015e-06
2.63079e-06
2.64123e-06
2.65381e-06
2.70243e-06
2.72211e-06
2.78404e-06
2.76706e-06
2.77827e-06
2.72157e-06
2.62596e-06
2.61293e-06
2.6443e-06
2.67337e-06
2.67657e-06
2.68229e-06
2.72778e-06
2.75384e-06
2.81658e-06
2.79908e-06
2.80312e-06
2.74309e-06
2.65281e-06
2.64569e-06
2.68071e-06
2.70766e-06
2.70482e-06
2.70448e-06
2.74708e-06
2.77812e-06
2.84053e-06
2.82326e-06
2.82159e-06
2.75936e-06
2.67542e-06
2.67307e-06
2.71039e-06
2.73485e-06
2.72708e-06
2.72147e-06
2.76147e-06
2.79621e-06
2.8571e-06
2.84067e-06
2.83451e-06
2.77096e-06
2.69416e-06
2.69574e-06
2.7342e-06
2.75591e-06
2.7443e-06
2.73424e-06
2.77194e-06
2.80927e-06
2.86742e-06
2.85228e-06
2.84246e-06
2.77832e-06
2.70915e-06
2.71416e-06
2.7528e-06
2.77183e-06
2.75726e-06
2.74357e-06
2.77931e-06
2.81827e-06
2.87247e-06
2.85888e-06
2.84586e-06
2.78166e-06
2.72028e-06
2.72851e-06
2.76661e-06
2.78326e-06
2.76654e-06
2.75001e-06
2.78419e-06
2.82396e-06
2.87314e-06
2.86116e-06
2.84471e-06
2.78101e-06
2.72724e-06
2.73877e-06
2.77583e-06
2.79061e-06
2.77253e-06
2.75401e-06
2.78696e-06
2.82689e-06
2.86986e-06
2.85939e-06
2.83953e-06
2.77616e-06
2.72955e-06
2.74465e-06
2.78022e-06
2.79394e-06
2.77538e-06
2.75566e-06
2.78774e-06
2.82734e-06
1.919e-12
1.83315e-12
1.81074e-12
1.80828e-12
1.74708e-12
1.73504e-12
1.80313e-12
1.84357e-12
1.85646e-12
1.86616e-12
1.83322e-12
1.76876e-12
2.18055e-12
2.10759e-12
2.06993e-12
2.03999e-12
1.95843e-12
1.95937e-12
2.05721e-12
2.09783e-12
2.11807e-12
2.15605e-12
2.12219e-12
2.02984e-12
9.20775e-12
9.28977e-12
8.93441e-12
8.37562e-12
7.84605e-12
8.08422e-12
8.81946e-12
8.90694e-12
9.08034e-12
9.66586e-12
9.57897e-12
8.88679e-12
5.71557e-11
5.82945e-11
5.57687e-11
5.16168e-11
4.80956e-11
4.99623e-11
5.49959e-11
5.53913e-11
5.65885e-11
6.087e-11
6.04309e-11
5.5684e-11
2.42682e-10
2.48246e-10
2.3722e-10
2.18971e-10
2.04089e-10
2.12458e-10
2.34028e-10
2.35416e-10
2.4052e-10
2.59264e-10
2.57624e-10
2.37188e-10
7.55983e-10
7.75059e-10
7.4042e-10
6.82752e-10
6.37285e-10
6.64224e-10
7.30892e-10
7.34115e-10
7.49778e-10
8.09093e-10
8.04901e-10
7.41308e-10
1.88177e-09
1.9338e-09
1.84795e-09
1.70374e-09
1.5938e-09
1.66249e-09
1.82534e-09
1.82973e-09
1.86761e-09
2.01697e-09
2.00967e-09
1.85303e-09
3.94791e-09
4.06684e-09
3.89007e-09
3.58933e-09
3.36733e-09
3.51364e-09
3.84513e-09
3.84473e-09
3.92072e-09
4.23646e-09
4.22949e-09
3.90762e-09
7.22845e-09
7.46319e-09
7.15049e-09
6.60971e-09
6.22214e-09
6.49125e-09
7.07331e-09
7.0517e-09
7.18203e-09
7.76206e-09
7.76724e-09
7.19618e-09
1.18459e-08
1.22548e-08
1.17675e-08
1.09083e-08
1.03082e-08
1.07464e-08
1.16509e-08
1.15769e-08
1.1772e-08
1.27218e-08
1.27628e-08
1.1865e-08
1.77238e-08
1.8365e-08
1.76819e-08
1.64517e-08
1.56106e-08
1.62552e-08
1.75256e-08
1.73518e-08
1.76106e-08
1.90252e-08
1.91387e-08
1.78604e-08
2.46058e-08
2.55261e-08
2.46506e-08
2.30364e-08
2.19522e-08
2.2824e-08
2.4464e-08
2.41305e-08
2.44366e-08
2.63856e-08
2.66179e-08
2.49409e-08
3.11504e-08
3.22748e-08
3.14436e-08
2.97776e-08
2.86212e-08
2.96131e-08
3.13635e-08
3.07256e-08
3.09218e-08
3.3206e-08
3.36322e-08
3.18639e-08
3.72599e-08
3.86106e-08
3.76963e-08
3.58183e-08
3.45405e-08
3.57031e-08
3.76601e-08
3.67928e-08
3.69513e-08
3.96598e-08
4.02525e-08
3.82334e-08
4.34446e-08
4.50304e-08
4.40507e-08
4.19855e-08
4.06166e-08
4.19418e-08
4.40665e-08
4.29455e-08
4.30459e-08
4.61728e-08
4.69598e-08
4.47133e-08
4.96179e-08
5.14465e-08
5.04237e-08
4.82022e-08
4.67757e-08
4.82478e-08
5.04933e-08
4.91005e-08
4.91215e-08
5.26475e-08
5.36565e-08
5.12174e-08
5.57003e-08
5.77781e-08
5.67384e-08
5.43953e-08
5.29458e-08
5.45415e-08
5.68546e-08
5.51798e-08
5.51004e-08
5.89941e-08
6.02516e-08
5.7665e-08
6.16254e-08
6.39583e-08
6.29316e-08
6.05043e-08
5.90657e-08
6.0755e-08
6.30779e-08
6.11183e-08
6.09184e-08
6.51381e-08
6.66691e-08
6.3989e-08
6.73443e-08
6.99382e-08
6.8958e-08
6.64843e-08
6.50884e-08
6.68357e-08
6.91073e-08
6.68666e-08
6.65278e-08
7.1024e-08
7.28518e-08
7.01402e-08
7.28306e-08
7.56932e-08
7.47959e-08
7.23119e-08
7.09869e-08
7.27526e-08
7.49099e-08
7.23969e-08
7.19028e-08
7.66225e-08
7.87707e-08
7.60946e-08
7.80884e-08
8.12326e-08
8.04566e-08
7.79945e-08
7.67639e-08
7.85057e-08
8.04841e-08
7.77101e-08
7.70463e-08
8.19385e-08
8.44342e-08
8.18629e-08
8.31582e-08
8.66048e-08
8.59912e-08
8.35798e-08
8.2462e-08
8.41352e-08
8.58664e-08
8.2842e-08
8.19962e-08
8.70151e-08
8.98935e-08
8.74972e-08
8.81118e-08
9.18903e-08
9.14871e-08
8.91571e-08
8.81672e-08
8.97211e-08
9.11284e-08
8.78614e-08
8.6823e-08
9.19248e-08
9.52328e-08
9.30869e-08
9.30331e-08
9.71768e-08
9.7048e-08
9.48427e-08
9.39979e-08
9.5368e-08
9.63583e-08
9.2856e-08
9.16144e-08
9.67459e-08
1.00539e-07
9.87364e-08
9.79874e-08
1.02523e-07
1.02759e-07
1.00749e-07
1.00076e-07
1.01175e-07
1.01631e-07
9.79046e-08
9.645e-08
1.0153e-07
1.05857e-07
1.04528e-07
1.02987e-07
1.07919e-07
1.08639e-07
1.0694e-07
1.06485e-07
1.07197e-07
1.06972e-07
1.03045e-07
1.01368e-07
1.06267e-07
1.11155e-07
1.10477e-07
1.07964e-07
1.13258e-07
1.14601e-07
1.1339e-07
1.13228e-07
1.13412e-07
1.12329e-07
1.08243e-07
1.06334e-07
1.10866e-07
1.16288e-07
1.16479e-07
1.12745e-07
1.18305e-07
1.2041e-07
1.19918e-07
1.20159e-07
1.19667e-07
1.17539e-07
1.13366e-07
1.1122e-07
1.15128e-07
1.20954e-07
1.22256e-07
1.17026e-07
1.22663e-07
1.25604e-07
1.26113e-07
1.26854e-07
1.25577e-07
1.22292e-07
1.18156e-07
1.15765e-07
1.18722e-07
1.24659e-07
1.27273e-07
1.20381e-07
1.25842e-07
1.29565e-07
1.31307e-07
1.32676e-07
1.30549e-07
1.26116e-07
1.22201e-07
1.19559e-07
1.21218e-07
1.26903e-07
1.30868e-07
1.22504e-07
1.27686e-07
1.31832e-07
1.34869e-07
1.36977e-07
1.34003e-07
1.28564e-07
1.25059e-07
1.22178e-07
1.22547e-07
1.27854e-07
1.32673e-07
1.23668e-07
1.28513e-07
1.32844e-07
1.36616e-07
1.39398e-07
1.35767e-07
1.29836e-07
1.26712e-07
1.23684e-07
1.22976e-07
1.27787e-07
1.33256e-07
1.23885e-07
1.28321e-07
1.32669e-07
1.36889e-07
1.4001e-07
1.36144e-07
1.30026e-07
1.2729e-07
1.24173e-07
1.22511e-07
1.26738e-07
1.32653e-07
1.23206e-07
1.27187e-07
1.31374e-07
1.35815e-07
1.39149e-07
1.35256e-07
1.29188e-07
1.26852e-07
1.23691e-07
1.2123e-07
1.2484e-07
1.3095e-07
1.21756e-07
1.25274e-07
1.29123e-07
1.33527e-07
1.3694e-07
1.33217e-07
1.27438e-07
1.25505e-07
1.22329e-07
1.19292e-07
1.22321e-07
1.28335e-07
1.19738e-07
1.22828e-07
1.26181e-07
1.30262e-07
1.33585e-07
1.30222e-07
1.24965e-07
1.23395e-07
1.20252e-07
1.16928e-07
1.19489e-07
1.25094e-07
1.1741e-07
1.20155e-07
1.22904e-07
1.26381e-07
1.29412e-07
1.26559e-07
1.22028e-07
1.20732e-07
1.17697e-07
1.14435e-07
1.16715e-07
1.21602e-07
1.15089e-07
1.17589e-07
1.19716e-07
1.22358e-07
1.24869e-07
1.22608e-07
1.1891e-07
1.17796e-07
1.14976e-07
1.12165e-07
1.14415e-07
1.1829e-07
1.13138e-07
1.15503e-07
1.17095e-07
1.18758e-07
1.20511e-07
1.18822e-07
1.15943e-07
1.14922e-07
1.12459e-07
1.10519e-07
1.13036e-07
1.15623e-07
1.11954e-07
1.14303e-07
1.15553e-07
1.16212e-07
1.16971e-07
1.1571e-07
1.135e-07
1.12487e-07
1.10574e-07
1.09947e-07
1.13069e-07
1.14083e-07
1.11977e-07
1.14434e-07
1.15645e-07
1.15403e-07
1.1494e-07
1.13823e-07
1.11988e-07
1.10909e-07
1.09808e-07
1.1097e-07
1.15068e-07
1.14195e-07
1.13716e-07
1.16404e-07
1.17981e-07
1.17084e-07
1.15172e-07
1.13764e-07
1.11862e-07
1.10659e-07
1.10726e-07
1.1422e-07
1.19718e-07
1.16558e-07
1.17789e-07
1.20847e-07
1.23324e-07
1.22148e-07
1.18521e-07
1.16218e-07
1.13658e-07
1.12297e-07
1.14016e-07
1.20539e-07
1.27951e-07
1.21917e-07
1.25017e-07
1.28619e-07
1.32725e-07
1.31784e-07
1.26062e-07
1.22035e-07
1.18055e-07
1.16531e-07
1.20597e-07
1.31146e-07
1.41165e-07
1.31303e-07
1.36588e-07
1.40966e-07
1.47781e-07
1.47812e-07
1.39337e-07
1.32388e-07
1.25971e-07
1.24328e-07
1.31798e-07
1.47947e-07
1.61588e-07
1.46292e-07
1.54332e-07
1.59816e-07
1.71056e-07
1.73269e-07
1.60834e-07
1.4907e-07
1.38757e-07
1.37119e-07
1.49719e-07
1.74081e-07
1.92876e-07
1.69435e-07
1.81132e-07
1.88152e-07
2.06636e-07
2.13308e-07
1.94814e-07
1.75004e-07
1.58498e-07
1.57149e-07
1.77818e-07
2.14284e-07
2.39922e-07
2.04844e-07
2.20477e-07
2.28934e-07
2.58312e-07
2.73766e-07
2.47812e-07
2.14673e-07
1.88298e-07
1.8784e-07
2.20641e-07
2.64718e-07
2.94578e-07
2.561e-07
2.69398e-07
2.79429e-07
3.29838e-07
3.64674e-07
3.28481e-07
2.72676e-07
2.3062e-07
2.32025e-07
2.74526e-07
3.18275e-07
3.5565e-07
3.14044e-07
3.23415e-07
3.35351e-07
4.01896e-07
4.54553e-07
4.25649e-07
3.41814e-07
2.82613e-07
2.81942e-07
3.3246e-07
3.86214e-07
4.30251e-07
3.79723e-07
3.91567e-07
4.05009e-07
4.88279e-07
5.54823e-07
5.24028e-07
4.17249e-07
3.40834e-07
3.41076e-07
4.05494e-07
4.67286e-07
5.17475e-07
4.58693e-07
4.7296e-07
4.8743e-07
5.88619e-07
6.6926e-07
6.37062e-07
5.06784e-07
4.13716e-07
4.15123e-07
4.92078e-07
5.61564e-07
6.18109e-07
5.50368e-07
5.67613e-07
5.82878e-07
7.03764e-07
7.97962e-07
7.64577e-07
6.09672e-07
5.0006e-07
5.02789e-07
5.92366e-07
6.69719e-07
7.32568e-07
6.55551e-07
6.766e-07
6.92294e-07
8.3382e-07
9.40001e-07
9.05682e-07
7.26399e-07
5.99856e-07
6.04372e-07
7.0684e-07
7.91533e-07
8.60349e-07
7.74494e-07
8.00385e-07
8.1597e-07
9.77793e-07
1.09329e-06
1.0583e-06
8.56684e-07
7.13775e-07
7.20469e-07
8.34993e-07
9.25736e-07
9.99932e-07
9.06561e-07
9.38515e-07
9.53307e-07
1.13351e-06
1.25463e-06
1.21923e-06
9.99069e-07
8.41644e-07
8.50729e-07
9.75205e-07
1.07003e-06
1.14882e-06
1.05015e-06
1.08949e-06
1.10272e-06
1.29777e-06
1.42005e-06
1.3844e-06
1.15098e-06
9.82212e-07
9.93677e-07
1.12482e-06
1.22127e-06
1.30373e-06
1.20272e-06
1.25077e-06
1.26165e-06
1.46665e-06
1.58519e-06
1.54928e-06
1.30905e-06
1.13312e-06
1.14674e-06
1.2804e-06
1.37585e-06
1.46095e-06
1.36104e-06
1.41894e-06
1.42676e-06
1.63565e-06
1.74581e-06
1.7096e-06
1.46925e-06
1.29103e-06
1.30643e-06
1.4381e-06
1.53019e-06
1.61669e-06
1.52142e-06
1.59e-06
1.59422e-06
1.80037e-06
1.89819e-06
1.86175e-06
1.62741e-06
1.452e-06
1.46875e-06
1.59409e-06
1.68201e-06
1.76747e-06
1.68009e-06
1.75973e-06
1.76003e-06
1.95692e-06
2.0394e-06
2.00284e-06
1.77964e-06
1.61186e-06
1.62956e-06
1.74485e-06
1.8277e-06
1.91041e-06
1.83346e-06
1.92409e-06
1.92041e-06
2.10221e-06
2.16739e-06
2.13075e-06
1.92273e-06
1.76667e-06
1.78502e-06
1.88742e-06
1.96474e-06
2.04388e-06
1.97844e-06
2.07953e-06
2.07202e-06
2.2341e-06
2.28106e-06
2.24432e-06
2.0543e-06
1.91307e-06
1.93186e-06
2.01953e-06
2.08974e-06
2.16513e-06
2.11256e-06
2.22321e-06
2.21224e-06
2.35151e-06
2.38008e-06
2.34325e-06
2.17286e-06
2.0485e-06
2.06758e-06
2.13958e-06
2.20152e-06
2.27324e-06
2.23409e-06
2.3531e-06
2.33921e-06
2.45414e-06
2.4648e-06
2.42793e-06
2.27748e-06
2.17129e-06
2.19051e-06
2.24667e-06
2.29969e-06
2.36813e-06
2.34202e-06
2.46803e-06
2.45177e-06
2.54238e-06
2.53607e-06
2.49929e-06
2.36796e-06
2.28062e-06
2.29973e-06
2.34073e-06
2.38427e-06
2.44973e-06
2.43606e-06
2.56758e-06
2.54955e-06
2.61699e-06
2.59506e-06
2.55858e-06
2.44518e-06
2.37639e-06
2.39502e-06
2.42228e-06
2.45581e-06
2.5174e-06
2.51609e-06
2.65198e-06
2.63285e-06
2.67904e-06
2.64311e-06
2.60717e-06
2.51042e-06
2.45907e-06
2.47669e-06
2.49162e-06
2.51523e-06
2.57284e-06
2.58162e-06
2.72198e-06
2.70245e-06
2.72984e-06
2.68161e-06
2.6465e-06
2.56509e-06
2.52948e-06
2.54549e-06
2.54987e-06
2.56368e-06
2.61736e-06
2.63562e-06
2.77868e-06
2.75937e-06
2.77077e-06
2.71195e-06
2.67792e-06
2.61062e-06
2.58867e-06
2.60246e-06
2.59763e-06
2.60248e-06
2.65235e-06
2.67964e-06
2.82344e-06
2.80485e-06
2.80318e-06
2.73538e-06
2.70265e-06
2.64831e-06
2.63777e-06
2.64879e-06
2.63626e-06
2.63299e-06
2.67921e-06
2.71327e-06
2.85766e-06
2.84023e-06
2.82838e-06
2.75305e-06
2.72176e-06
2.67929e-06
2.67791e-06
2.68577e-06
2.66688e-06
2.65654e-06
2.69935e-06
2.73849e-06
2.88279e-06
2.86686e-06
2.84752e-06
2.76592e-06
2.73617e-06
2.70453e-06
2.71019e-06
2.71467e-06
2.69072e-06
2.67439e-06
2.71407e-06
2.75683e-06
2.90024e-06
2.88605e-06
2.86161e-06
2.77481e-06
2.74659e-06
2.72482e-06
2.73557e-06
2.73675e-06
2.70887e-06
2.6877e-06
2.72462e-06
2.76965e-06
2.91129e-06
2.89898e-06
2.87148e-06
2.78032e-06
2.75349e-06
2.74075e-06
2.75487e-06
2.75307e-06
2.72228e-06
2.69744e-06
2.73203e-06
2.77817e-06
2.91709e-06
2.9067e-06
2.8778e-06
2.78295e-06
2.75719e-06
2.75265e-06
2.76868e-06
2.76412e-06
2.73175e-06
2.7044e-06
2.73721e-06
2.78343e-06
2.91862e-06
2.91013e-06
2.88115e-06
2.78292e-06
2.75787e-06
2.76059e-06
2.7774e-06
2.77058e-06
2.73789e-06
2.70916e-06
2.74083e-06
2.78631e-06
2.91653e-06
2.90984e-06
2.88165e-06
2.78041e-06
2.75554e-06
2.76444e-06
2.78118e-06
2.77298e-06
2.74113e-06
2.71217e-06
2.7434e-06
2.78748e-06
2.91143e-06
2.90638e-06
2.87861e-06
2.77542e-06
2.7501e-06
2.76384e-06
2.78004e-06
2.77166e-06
2.74172e-06
2.71362e-06
2.74515e-06
2.78733e-06
1.93913e-12
1.85668e-12
1.83034e-12
1.82333e-12
1.76547e-12
1.75865e-12
1.82423e-12
1.85532e-12
1.86941e-12
1.89388e-12
1.86713e-12
1.7947e-12
2.2097e-12
2.14102e-12
2.10009e-12
2.06588e-12
1.98892e-12
1.99162e-12
2.0839e-12
2.12033e-12
2.14101e-12
2.18577e-12
2.15978e-12
2.06627e-12
9.4268e-12
9.53341e-12
9.18413e-12
8.62195e-12
8.12343e-12
8.30285e-12
8.97199e-12
9.14348e-12
9.30408e-12
9.76022e-12
9.71984e-12
9.14772e-12
5.86438e-11
5.99457e-11
5.74996e-11
5.33525e-11
5.00274e-11
5.14179e-11
5.59789e-11
5.70651e-11
5.81613e-11
6.13822e-11
6.12492e-11
5.74491e-11
2.4903e-10
2.55292e-10
2.44709e-10
2.26527e-10
2.12399e-10
2.18585e-10
2.38111e-10
2.42664e-10
2.47324e-10
2.61241e-10
2.60893e-10
2.44718e-10
7.75619e-10
7.96854e-10
7.63961e-10
7.06662e-10
6.63195e-10
6.82868e-10
7.43161e-10
7.56885e-10
7.71141e-10
8.14574e-10
8.14307e-10
7.64581e-10
1.93016e-09
1.98742e-09
1.90699e-09
1.76419e-09
1.65818e-09
1.70749e-09
1.85456e-09
1.88685e-09
1.92118e-09
2.02872e-09
2.03078e-09
1.91019e-09
4.04838e-09
4.17777e-09
4.01485e-09
3.71826e-09
3.50199e-09
3.60469e-09
3.90346e-09
3.9657e-09
4.0341e-09
4.25691e-09
4.26836e-09
4.02544e-09
7.41064e-09
7.66319e-09
7.38074e-09
6.84985e-09
6.46771e-09
6.65136e-09
7.17469e-09
7.27578e-09
7.39205e-09
7.79185e-09
7.82805e-09
7.40739e-09
1.21424e-08
1.25775e-08
1.21482e-08
1.13089e-08
1.07087e-08
1.09977e-08
1.18086e-08
1.19494e-08
1.21215e-08
1.27588e-08
1.28456e-08
1.22031e-08
1.81663e-08
1.88405e-08
1.82576e-08
1.70618e-08
1.62064e-08
1.6615e-08
1.77498e-08
1.79193e-08
1.81444e-08
1.90659e-08
1.9238e-08
1.83542e-08
2.52216e-08
2.61771e-08
2.546e-08
2.3899e-08
2.27741e-08
2.3302e-08
2.47606e-08
2.49356e-08
2.51985e-08
2.64286e-08
2.67233e-08
2.56101e-08
3.19994e-08
3.31498e-08
3.24825e-08
3.08622e-08
2.96272e-08
3.01906e-08
3.17664e-08
3.18087e-08
3.19859e-08
3.33758e-08
3.37959e-08
3.26834e-08
3.83074e-08
3.96763e-08
3.89705e-08
3.71466e-08
3.57378e-08
3.63681e-08
3.81377e-08
3.81282e-08
3.82804e-08
3.989e-08
4.04391e-08
3.92062e-08
4.47055e-08
4.62959e-08
4.55732e-08
4.35714e-08
4.20055e-08
4.26879e-08
4.46202e-08
4.45484e-08
4.46622e-08
4.6478e-08
4.71705e-08
4.58391e-08
5.11062e-08
5.29186e-08
5.22024e-08
5.0055e-08
4.83531e-08
4.90689e-08
5.1126e-08
5.09818e-08
5.1044e-08
5.30471e-08
5.38963e-08
5.24929e-08
5.7428e-08
5.94606e-08
5.87747e-08
5.65185e-08
5.47052e-08
5.54325e-08
5.75718e-08
5.73455e-08
5.73437e-08
5.95122e-08
6.05302e-08
5.90834e-08
6.36026e-08
6.5852e-08
6.52205e-08
6.28951e-08
6.09977e-08
6.1713e-08
6.38878e-08
6.35688e-08
6.34918e-08
6.58034e-08
6.70014e-08
6.55411e-08
6.95786e-08
7.20404e-08
7.14873e-08
6.91337e-08
6.71819e-08
6.78611e-08
7.00218e-08
6.95972e-08
6.94353e-08
7.18694e-08
7.32592e-08
7.1815e-08
7.53271e-08
7.79982e-08
7.75473e-08
7.52052e-08
7.32305e-08
7.38503e-08
7.5944e-08
7.53976e-08
7.51432e-08
7.76842e-08
7.92805e-08
7.78809e-08
8.08502e-08
8.37305e-08
8.34064e-08
8.11134e-08
7.91482e-08
7.96855e-08
8.16548e-08
8.09666e-08
8.0615e-08
8.32547e-08
8.50795e-08
8.37506e-08
8.61852e-08
8.92793e-08
8.91104e-08
8.6904e-08
8.4982e-08
8.54122e-08
8.71908e-08
8.63361e-08
8.58869e-08
8.8625e-08
9.07109e-08
8.94788e-08
9.1401e-08
9.47167e-08
9.47402e-08
9.26648e-08
9.08241e-08
9.11161e-08
9.26212e-08
9.15725e-08
9.103e-08
9.3871e-08
9.62596e-08
9.51566e-08
9.65794e-08
1.00123e-07
1.00388e-07
9.85084e-08
9.67968e-08
9.69078e-08
9.80325e-08
9.67604e-08
9.61344e-08
9.90787e-08
1.01815e-07
1.00887e-07
1.01783e-07
1.0555e-07
1.06121e-07
1.04538e-07
1.03021e-07
1.0289e-07
1.03499e-07
1.01976e-07
1.01281e-07
1.04311e-07
1.07431e-07
1.06745e-07
1.07022e-07
1.10988e-07
1.11944e-07
1.10804e-07
1.09572e-07
1.09117e-07
1.09051e-07
1.07252e-07
1.06505e-07
1.09571e-07
1.13089e-07
1.12736e-07
1.1222e-07
1.16333e-07
1.1776e-07
1.17246e-07
1.16437e-07
1.15558e-07
1.14638e-07
1.12551e-07
1.11769e-07
1.14771e-07
1.18662e-07
1.18766e-07
1.17197e-07
1.21366e-07
1.23338e-07
1.23645e-07
1.23419e-07
1.22051e-07
1.20109e-07
1.17735e-07
1.16928e-07
1.19703e-07
1.23875e-07
1.2458e-07
1.21637e-07
1.25721e-07
1.2825e-07
1.29518e-07
1.30039e-07
1.28222e-07
1.2517e-07
1.22539e-07
1.21697e-07
1.23995e-07
1.28258e-07
1.29697e-07
1.25101e-07
1.28931e-07
1.31919e-07
1.34186e-07
1.35606e-07
1.33482e-07
1.29365e-07
1.26551e-07
1.25626e-07
1.27154e-07
1.31263e-07
1.33491e-07
1.27259e-07
1.30801e-07
1.33964e-07
1.37064e-07
1.39468e-07
1.37237e-07
1.32209e-07
1.29321e-07
1.28256e-07
1.28985e-07
1.32859e-07
1.35568e-07
1.28377e-07
1.31612e-07
1.34805e-07
1.38334e-07
1.41396e-07
1.3928e-07
1.33791e-07
1.30864e-07
1.29663e-07
1.29816e-07
1.33388e-07
1.36421e-07
1.28471e-07
1.31365e-07
1.34485e-07
1.3826e-07
1.41769e-07
1.39904e-07
1.3424e-07
1.31295e-07
1.29968e-07
1.29631e-07
1.32849e-07
1.36096e-07
1.276e-07
1.3013e-07
1.33079e-07
1.3693e-07
1.40756e-07
1.39241e-07
1.33601e-07
1.30673e-07
1.29231e-07
1.28489e-07
1.31343e-07
1.34672e-07
1.25895e-07
1.28057e-07
1.30757e-07
1.34503e-07
1.38493e-07
1.37408e-07
1.31967e-07
1.29091e-07
1.27564e-07
1.26544e-07
1.29075e-07
1.32317e-07
1.23564e-07
1.25375e-07
1.27782e-07
1.31255e-07
1.35223e-07
1.34601e-07
1.2951e-07
1.26708e-07
1.25151e-07
1.24035e-07
1.2634e-07
1.29297e-07
1.20892e-07
1.22406e-07
1.24494e-07
1.27568e-07
1.31311e-07
1.31113e-07
1.26467e-07
1.23747e-07
1.2225e-07
1.21275e-07
1.2351e-07
1.25964e-07
1.18225e-07
1.19506e-07
1.213e-07
1.23917e-07
1.2723e-07
1.27326e-07
1.23136e-07
1.20507e-07
1.19193e-07
1.18638e-07
1.21009e-07
1.22737e-07
1.15942e-07
1.17066e-07
1.18648e-07
1.20839e-07
1.23533e-07
1.23692e-07
1.19859e-07
1.17328e-07
1.16371e-07
1.16552e-07
1.19304e-07
1.20084e-07
1.14459e-07
1.15508e-07
1.17017e-07
1.18913e-07
1.20827e-07
1.20715e-07
1.17019e-07
1.14589e-07
1.14229e-07
1.15492e-07
1.18898e-07
1.18512e-07
1.14227e-07
1.15288e-07
1.16927e-07
1.18749e-07
1.19756e-07
1.1894e-07
1.15033e-07
1.12708e-07
1.13268e-07
1.15997e-07
1.20359e-07
1.18567e-07
1.15773e-07
1.16924e-07
1.18987e-07
1.21013e-07
1.21009e-07
1.18961e-07
1.14367e-07
1.12155e-07
1.14068e-07
1.18712e-07
1.2437e-07
1.20863e-07
1.1973e-07
1.21057e-07
1.23906e-07
1.26495e-07
1.2537e-07
1.21456e-07
1.15558e-07
1.13485e-07
1.17332e-07
1.24472e-07
1.31838e-07
1.2616e-07
1.26936e-07
1.28542e-07
1.32638e-07
1.36253e-07
1.33846e-07
1.27264e-07
1.19281e-07
1.17395e-07
1.23992e-07
1.34465e-07
1.4409e-07
1.35501e-07
1.38586e-07
1.4061e-07
1.46585e-07
1.51849e-07
1.47883e-07
1.37544e-07
1.26433e-07
1.24833e-07
1.35391e-07
1.50519e-07
1.63188e-07
1.50448e-07
1.56481e-07
1.59133e-07
1.67906e-07
1.75665e-07
1.69699e-07
1.54019e-07
1.38316e-07
1.3719e-07
1.53611e-07
1.75603e-07
1.92457e-07
1.73438e-07
1.83394e-07
1.87007e-07
1.9991e-07