
400
(
1
0.0869061
0.0923423
1
0.026887
0.0328852
0.0319769
0.0411898
0.0407704
0.0520487
0.0492043
0.0621312
0.0568637
0.0711141
0.063604
0.0788948
0.0693364
0.085406
0.074025
0.090625
0.0776959
0.094594
0.080432
0.0974226
0.0823536
0.0992657
0.0835976
0.100296
0.0842991
0.100684
0.084579
0.100578
0.0845385
0.100094
0.0842547
0.0993227
0.0837861
0.0983326
0.0831781
0.0971753
0.0824654
0.0958902
0.0816746
0.0945073
0.0808264
0.0930498
0.0799362
0.0915353
0.0790161
0.0899777
0.0780749
0.0883881
0.0771184
0.0867747
0.0761503
0.0851444
0.0751726
0.0835025
0.0741868
0.0818538
0.0731944
0.0802027
0.0721962
0.0785534
0.0711933
0.0769101
0.0701869
0.0752772
0.0691786
0.0736596
0.0681698
0.0720614
0.0671615
0.070486
0.0661552
0.0689366
0.0651542
0.0674178
0.0641635
0.0659358
0.0631884
0.0644971
0.0622304
0.0631057
0.0612882
0.0617637
0.0603621
0.0604752
0.059454
0.0592449
0.058566
0.0580745
0.0577008
0.0569616
0.0568625
0.0559011
0.0560551
0.0548848
0.0552808
0.0539047
0.0545376
0.0529578
0.0538154
0.0520441
0.0530939
0.0511578
0.0523563
0.0502901
0.0516147
0.0494515
0.0509062
0.0486718
0.0502436
0.0479615
0.0496009
0.047307
0.0489418
0.0466983
0.0482487
0.0461322
0.0475493
0.0456064
0.0468964
0.0451209
0.0463118
0.0446759
0.0457827
0.0442716
0.0452984
0.0439079
0.0448635
0.043584
0.0444881
0.0432988
0.044183
0.0430501
0.0439599
0.0428348
0.0438309
0.0426482
0.0438076
0.0424842
0.0438986
0.0423372
0.0441066
0.0422054
0.044427
0.0420919
0.0448501
0.0420033
0.0453647
0.041948
0.0459594
0.0419373
0.0466224
0.0419829
0.0473377
0.0420938
0.0480826
0.0422759
0.0897837
1
0.0358225
0.0462586
0.0582216
0.0689117
0.0781741
0.0859783
0.0923062
0.097182
0.100695
0.102993
0.104271
0.104741
0.10459
0.103967
0.102989
0.101745
0.100305
0.0987194
0.0970274
0.0952596
0.0934397
0.0915866
0.0897151
0.0878371
0.0859617
0.0840963
0.0822469
0.0804188
0.0786172
0.0768485
0.0751205
0.0734414
0.0718173
0.0702496
0.068737
0.0672808
0.0658826
0.0645421
0.0632583
0.062031
0.0608624
0.0597552
0.0587113
0.0577293
0.0568032
0.0559232
0.0550769
0.0542542
0.053454
0.0526864
0.0519651
0.0512965
0.0506769
0.0500985
0.0495562
0.0490476
0.0485721
0.0481298
0.0477227
0.047354
0.0470268
0.0467435
0.046506
0.0463141
0.0461635
0.0460607
0.0460359
0.0461084
0.0462222
0.046254
0.0461521
0.0459793
0.0458083
0.0456785
0.0456068
0.0456012
0.0456721
0.0458369
0.0843475
1
0.0298244
0.0370457
0.0469433
0.0559848
0.0639236
0.0706875
0.0762366
0.080582
0.0837969
0.0860021
0.0873589
0.0880432
0.0882048
0.0879677
0.0874331
0.0866774
0.0857588
0.0847222
0.0836026
0.0824269
0.0812163
0.0799875
0.0787535
0.0775239
0.0763054
0.0751022
0.073917
0.0727519
0.0716089
0.0704913
0.0694037
0.068351
0.0673363
0.0663579
0.0654124
0.0644993
0.0636189
0.0627698
0.0619496
0.0611557
0.0603869
0.0596421
0.0589204
0.0582208
0.0575424
0.0568846
0.0562472
0.0556303
0.0550338
0.0544577
0.0539012
0.0533627
0.0528401
0.052333
0.0518383
0.0513416
0.0508156
0.0502464
0.0496656
0.0491295
0.0486628
0.0482547
0.0478966
0.0475936
0.0473528
0.0471935
0.047161
0.0472912
0.0475456
0.0478155
0.0480534
0.0483143
0.0486551
0.0490951
0.0496289
0.0502407
0.050916
0.0516436
0.0869061
1
0.026887
0.0319769
0.0407704
0.0492043
0.0568637
0.063604
0.0693364
0.074025
0.0776959
0.080432
0.0823536
0.0835976
0.0842991
0.084579
0.0845385
0.0842547
0.0837861
0.0831781
0.0824654
0.0816746
0.0808264
0.0799362
0.0790161
0.0780749
0.0771184
0.0761503
0.0751726
0.0741868
0.0731944
0.0721962
0.0711933
0.0701869
0.0691786
0.0681698
0.0671615
0.0661552
0.0651542
0.0641635
0.0631884
0.0622304
0.0612882
0.0603621
0.059454
0.058566
0.0577008
0.0568625
0.0560551
0.0552808
0.0545376
0.0538154
0.0530939
0.0523563
0.0516147
0.0509062
0.0502436
0.0496009
0.0489418
0.0482487
0.0475493
0.0468964
0.0463118
0.0457827
0.0452984
0.0448635
0.0444881
0.044183
0.0439599
0.0438309
0.0438076
0.0438986
0.0441066
0.044427
0.0448501
0.0453647
0.0459594
0.0466224
0.0473377
0.0480826
)
