/*--------------------------------*- C++ -*----------------------------------*\
| =========                 |                                                 |
| \\      /  F ield         | OpenFOAM: The Open Source CFD Toolbox           |
|  \\    /   O peration     | Version:  v1912                                 |
|   \\  /    A nd           | Website:  www.openfoam.com                      |
|    \\/     M anipulation  |                                                 |
\*---------------------------------------------------------------------------*/
FoamFile
{
    version     2.0;
    format      ascii;
    class       volScalarField;
    location    "7.6";
    object      T;
}
// * * * * * * * * * * * * * * * * * * * * * * * * * * * * * * * * * * * * * //

dimensions      [0 0 0 1 0 0 0];


internalField   nonuniform List<scalar> 
34128
(
372.135
372.151
372.158
372.149
372.128
372.124
372.138
372.146
372.141
372.129
372.127
372.132
370.396
370.443
370.462
370.435
370.373
370.362
370.404
370.428
370.411
370.376
370.371
370.387
368.634
368.711
368.738
368.69
368.587
368.571
368.642
368.682
368.651
368.593
368.587
368.616
366.85
366.955
366.984
366.912
366.772
366.753
366.853
366.907
366.861
366.78
366.776
366.82
365.049
365.177
365.199
365.099
364.927
364.908
365.037
365.105
365.041
364.937
364.94
365.003
363.237
363.384
363.388
363.257
363.06
363.046
363.2
363.28
363.196
363.069
363.086
363.17
361.427
361.587
361.563
361.399
361.185
361.18
361.357
361.447
361.341
361.191
361.226
361.335
359.642
359.805
359.745
359.547
359.326
359.335
359.531
359.629
359.498
359.326
359.384
359.521
357.908
358.067
357.964
357.734
357.517
357.544
357.753
357.856
357.699
357.505
357.589
357.757
356.255
356.4
356.25
355.992
355.789
355.84
356.057
356.161
355.979
355.762
355.874
356.072
354.705
354.829
354.632
354.353
354.171
354.25
354.471
354.571
354.363
354.126
354.264
354.492
353.274
353.37
353.13
352.836
352.68
352.79
353.011
353.103
352.871
352.616
352.777
353.03
351.963
352.026
351.746
351.444
351.319
351.46
351.679
351.756
351.503
351.237
351.416
351.687
350.761
350.788
350.475
350.172
350.076
350.248
350.462
350.52
350.25
349.979
350.171
350.45
349.657
349.649
349.313
349.016
348.947
349.145
349.352
349.389
349.108
348.842
349.037
349.315
348.653
348.612
348.263
347.979
347.934
348.15
348.348
348.363
348.078
347.825
348.018
348.285
347.747
347.678
347.328
347.062
347.037
347.262
347.449
347.442
347.162
346.93
347.112
347.36
346.938
346.847
346.506
346.263
346.252
346.477
346.652
346.625
346.358
346.154
346.32
346.541
346.223
346.118
345.796
345.579
345.578
345.793
345.953
345.912
345.664
345.49
345.637
345.826
345.599
345.487
345.192
345.003
345.007
345.205
345.348
345.297
345.074
344.933
345.058
345.214
345.06
344.949
344.687
344.527
344.533
344.708
344.834
344.777
344.582
344.473
344.576
344.7
344.603
344.499
344.274
344.142
344.148
344.296
344.404
344.346
344.181
344.101
344.183
344.277
344.222
344.13
343.943
343.836
343.841
343.961
344.051
343.996
343.861
343.806
343.869
343.938
343.91
343.833
343.683
343.599
343.603
343.696
343.769
343.72
343.612
343.577
343.624
343.672
343.662
343.6
343.484
343.42
343.422
343.492
343.549
343.507
343.425
343.405
343.438
343.47
343.469
343.422
343.335
343.288
343.288
343.339
343.383
343.348
343.287
343.277
343.3
343.32
343.324
343.29
343.227
343.193
343.192
343.227
343.26
343.233
343.189
343.186
343.202
343.213
343.218
343.194
343.151
343.126
343.125
343.149
343.172
343.153
343.122
343.123
343.133
343.139
343.143
343.127
343.098
343.081
343.08
343.095
343.112
343.098
343.078
343.08
343.086
343.089
343.092
343.082
343.062
343.051
343.05
343.059
343.071
343.062
343.049
343.051
343.055
343.056
343.058
343.052
343.039
343.032
343.031
343.037
343.045
343.04
343.031
343.033
343.036
343.035
343.037
343.033
343.024
343.019
343.019
343.022
343.028
343.025
343.02
343.022
343.023
343.022
343.024
343.021
343.015
343.012
343.011
343.014
343.018
343.017
343.014
343.014
343.016
343.015
343.016
343.013
343.009
343.007
343.007
343.009
343.012
343.012
343.01
343.01
343.011
343.01
343.011
343.009
343.005
343.004
343.004
343.006
343.008
343.009
343.007
343.007
343.008
343.007
343.008
343.006
343.003
343.002
343.003
343.004
343.006
343.007
343.006
343.005
343.006
343.005
343.006
343.004
343.002
343.001
343.002
343.003
343.004
343.005
343.004
343.003
343.004
343.004
343.005
343.003
343.001
343.001
343.001
343.002
343.003
343.004
343.003
343.002
343.003
343.002
343.004
343.002
343.001
343
343.001
343.001
343.002
343.003
343.002
343.001
343.002
343.002
343.003
343.001
343
343
343
343.001
343.002
343.002
343.001
343.001
343.001
343.001
343.002
343.001
343
343
343
343
343.001
343.002
343.001
343
343
343
343.001
343
343
343
343
343
343.001
343.001
343
343
343
343
343
343
343
343
343
343
343
343.001
343
343
342.999
343
343
343
343
343
343
343
343
343
343
342.999
342.999
343
343
343
343
343
343
343
343
343
343
342.999
342.999
343
343
343
343
343
343
343
343
343
343
342.999
342.999
343
343
343
343
343
343
343
343
343
343
342.999
342.999
343
343
343
343
343
343
343
343
343
343
343
342.999
343
343
343
343
343
343
343
343
343
343
343
342.999
343
343
343
343
343
343
343
343
343
343
343
343
343
343
343
343
343
343
343
343
343
343
343
343
343
343
343
343
343
343
343
343
343
343
343
343
343
343
343
343
343
343
343
343
343
343
343
343
343
343
343
343
343
343
343
343
343
343
343
343
343
343
343
343
343
343
343
343
343
343
343
343
343
343
343
343
343
343
343
343
343
343
343
343
343
343
343
343
343
343
343
343
343
343
343
343
343
343
343
343
343
343
343
343
343
343
343
343
343
343
343
343
343
343
343
343
343
343
343
343
343
343
343
343
343
343
343
343
343
343
343
343
343
343
343
343
343
343
343
343
343
343
343
343
343
343
343
343
343.001
343.001
343.001
343.001
343
343
343
343
343
343
343
343.001
343.001
343.001
343.001
343.001
343.001
343
343
343
343
343
343.001
343.001
343.001
343.001
343.001
343.001
343.001
343.001
343
343
343
343.001
343.001
343.001
343.001
343.001
343.001
343.001
343.001
343.001
343.001
343
343.001
343.001
343.001
343.001
343.001
343.001
343.001
343.001
343.001
343.001
343.001
343.001
343.001
343.001
343.001
343.001
343.001
343.001
343.001
343.001
343.001
343.001
343.001
343.001
343.001
343.001
343.001
343.001
343.001
343.001
343.001
343.001
343.001
343.001
343.001
343.001
343.001
343.001
343.001
343.001
343.001
343.001
343.001
343.001
343.001
343.001
343.001
343.001
343.001
343.001
343.001
343.001
343.001
343.001
343.001
343.001
343.001
343.001
343.001
343.001
343.001
343.001
343.001
343.001
343.001
343.001
343.001
343.001
343.001
343.001
343.001
343.001
343.001
343.001
343.001
343.001
343.001
343.001
343.001
343.001
343.001
343.001
343.001
343.001
343.001
343.001
343.001
343.001
343.001
343.001
343.001
343.001
343.001
343.001
343.001
343.001
343.001
343.001
343.001
343.001
343.001
343.001
343.001
343.001
343.001
343.001
343.001
343.001
343.001
343.001
343.001
343.001
343.001
343.001
343.001
343.001
343.001
343.001
343.001
343.001
343.001
343.001
343.001
343.001
343.001
343.001
343.001
343.001
343.001
343.001
343.001
343.001
343.001
343.001
343.001
343.001
343.001
343.001
343.001
343.001
343.001
343.001
343.001
343.001
343.001
343.001
343.001
343.001
343.001
343.001
343.001
343.001
343.001
343.001
343.001
343.001
343.001
343.001
343.001
343.001
343.001
343.001
343.001
343.001
343.001
343.001
343.001
343.001
343.001
372.127
372.142
372.146
372.134
372.114
372.112
372.126
372.135
372.128
372.116
372.116
372.123
370.372
370.417
370.425
370.391
370.332
370.324
370.368
370.393
370.373
370.338
370.338
370.358
368.594
368.668
368.676
368.616
368.519
368.509
368.583
368.623
368.589
368.53
368.532
368.568
366.796
366.895
366.896
366.807
366.677
366.667
366.769
366.825
366.775
366.691
366.7
366.754
364.982
365.101
365.085
364.964
364.807
364.801
364.931
365.001
364.931
364.823
364.843
364.919
363.159
363.292
363.249
363.094
362.917
362.919
363.074
363.157
363.064
362.932
362.969
363.07
361.339
361.478
361.399
361.207
361.021
361.037
361.213
361.306
361.188
361.03
361.089
361.219
359.543
359.679
359.555
359.328
359.142
359.178
359.371
359.47
359.324
359.141
359.227
359.387
357.797
357.919
357.744
357.487
357.311
357.374
357.579
357.68
357.503
357.294
357.409
357.602
356.127
356.226
356
355.716
355.561
355.655
355.868
355.965
355.758
355.524
355.668
355.892
354.557
354.626
354.35
354.048
353.918
354.048
354.265
354.352
354.114
353.86
354.029
354.28
353.104
353.136
352.815
352.503
352.402
352.569
352.787
352.857
352.593
352.324
352.513
352.784
351.769
351.761
351.404
351.088
351.017
351.218
351.434
351.483
351.197
350.923
351.125
351.404
350.542
350.496
350.111
349.8
349.755
349.985
350.199
350.223
349.921
349.651
349.858
350.135
349.42
349.337
348.937
348.639
348.615
348.865
349.074
349.072
348.765
348.51
348.712
348.975
348.401
348.288
347.887
347.607
347.601
347.859
348.059
348.034
347.729
347.499
347.689
347.929
347.486
347.351
346.961
346.706
346.71
346.965
347.154
347.108
346.817
346.618
346.79
346.999
346.673
346.525
346.159
345.932
345.942
346.182
346.357
346.295
346.025
345.862
346.012
346.186
345.958
345.808
345.475
345.279
345.29
345.507
345.665
345.593
345.35
345.225
345.35
345.488
345.339
345.195
344.903
344.738
344.748
344.934
345.074
344.998
344.786
344.697
344.798
344.902
344.81
344.68
344.434
344.298
344.306
344.459
344.579
344.504
344.325
344.268
344.347
344.42
344.369
344.258
344.057
343.949
343.953
344.074
344.173
344.104
343.959
343.928
343.986
344.034
344.007
343.918
343.762
343.678
343.678
343.769
343.849
343.789
343.674
343.663
343.705
343.733
343.72
343.652
343.535
343.472
343.47
343.534
343.598
343.548
343.461
343.463
343.491
343.506
343.499
343.449
343.366
343.32
343.316
343.36
343.408
343.37
343.306
343.315
343.334
343.339
343.334
343.301
343.243
343.211
343.207
343.235
343.27
343.243
343.198
343.209
343.221
343.221
343.216
343.195
343.157
343.135
343.131
343.148
343.174
343.155
343.125
343.136
343.143
343.14
343.135
343.123
343.099
343.084
343.081
343.09
343.108
343.097
343.077
343.087
343.091
343.087
343.082
343.075
343.06
343.051
343.048
343.054
343.066
343.06
343.048
343.055
343.058
343.053
343.049
343.046
343.036
343.03
343.029
343.031
343.04
343.037
343.03
343.035
343.037
343.033
343.03
343.027
343.021
343.017
343.017
343.019
343.024
343.023
343.02
343.023
343.024
343.021
343.019
343.017
343.012
343.01
343.01
343.011
343.015
343.015
343.014
343.015
343.016
343.014
343.012
343.011
343.007
343.005
343.006
343.008
343.01
343.011
343.01
343.011
343.011
343.009
343.009
343.008
343.004
343.003
343.004
343.005
343.007
343.008
343.008
343.008
343.008
343.007
343.007
343.006
343.003
343.002
343.002
343.004
343.006
343.006
343.006
343.006
343.006
343.005
343.006
343.005
343.002
343.001
343.002
343.003
343.005
343.005
343.005
343.004
343.005
343.004
343.005
343.004
343.001
343.001
343.001
343.002
343.004
343.004
343.004
343.003
343.003
343.003
343.004
343.003
343.001
343
343.001
343.002
343.003
343.003
343.003
343.002
343.002
343.002
343.003
343.002
343.001
343
343
343.001
343.002
343.002
343.002
343.001
343.001
343.001
343.002
343.001
343
343
343
343.001
343.001
343.002
343.001
343.001
343
343.001
343.001
343.001
343
343
343
343
343.001
343.001
343.001
343
343
343
343
343
343
343
343
343
343
343.001
343
343
343
343
343
343
343
343
343
343
343
343
343
343
342.999
343
342.999
343
343
343
343
343
343
343
343
342.999
342.999
343
342.999
343
343
343
343
343
343
343
343
342.999
342.999
343
342.999
343
343
343
343
343
343
343
343
342.999
342.999
343
342.999
343
343
343
343
343
343
343
343
342.999
342.999
343
343
343
343
343
343
343
343
343
343
343
342.999
343
343
343
343
343
343
343
343
343
343
343
342.999
343
343
343
343
343
343
343
343
343
343
343
343
343
343
343
343
343
343
343
343
343
343
343
343
343
343
343
343
343
343
343
343
343
343
343
343
343
343
343
343
343
343
343
343
343
343
343
343
343
343
343
343
343
343
343
343
343
343
343
343
343
343
343
343
343
343
343
343
343
343
343
343
343
343
343
343
343
343
343
343
343
343
343
343
343
343
343
343
343
343
343
343
343
343
343
343
343
343
343
343
343
343
343
343
343
343
343
343
343
343
343
343
343
343
343
343
343
343
343
343
343
343
343
343
343
343
343
343
343
343
343
343
343
343
343
343
343
343
343
343
343
343
343
343
343
343
343
343
343
343
343
343
343
343
343
343
343
343
343
343.001
343
343
343
343
343
343
343
343
343
343
343.001
343.001
343.001
343
343
343
343
343
343
343
343
343.001
343.001
343.001
343.001
343.001
343
343.001
343.001
343
343
343
343
343.001
343.001
343.001
343.001
343.001
343.001
343.001
343.001
343.001
343
343
343
343.001
343.001
343.001
343.001
343.001
343.001
343.001
343.001
343.001
343.001
343
343.001
343.001
343.001
343.001
343.001
343.001
343.001
343.001
343.001
343.001
343.001
343.001
343.001
343.001
343.001
343.001
343.001
343.001
343.001
343.001
343.001
343.001
343.001
343.001
343.001
343.001
343.001
343.001
343.001
343.001
343.001
343.001
343.001
343.001
343.001
343.001
343.001
343.001
343.001
343.001
343.001
343.001
343.001
343.001
343.001
343.001
343.001
343.001
343.001
343.001
343.001
343.001
343.001
343.001
343.001
343.001
343.001
343.001
343.001
343.001
343.001
343.001
343.001
343.001
343.001
343.001
343.001
343.001
343.001
343.001
343.001
343.001
343.001
343.001
343.001
343.001
343.001
343.001
343.001
343.001
343.001
343.001
343.001
343.001
343.001
343.001
343.001
343.001
343.001
343.001
343.001
343.001
343.001
343.001
343.001
343.001
343.001
343.001
343.001
343.001
343.001
343.001
343.001
343.001
343.001
343.001
343.001
343.001
343.001
343.001
343.001
343.001
343.001
343.001
343.001
343.001
343.001
343.001
343.001
343.001
343.001
343.001
343.001
343.001
343.001
343.001
343.001
343.001
343.001
343.001
343.001
343.001
343.001
343.001
343.001
343.001
343.001
343.001
343.001
343.001
343.001
343.001
343.001
343.001
343.001
372.124
372.139
372.141
372.13
372.111
372.108
372.122
372.131
372.125
372.113
372.113
372.12
370.364
370.408
370.413
370.378
370.321
370.314
370.357
370.382
370.363
370.328
370.328
370.349
368.58
368.651
368.655
368.594
368.501
368.492
368.564
368.606
368.572
368.512
368.516
368.553
366.776
366.871
366.865
366.776
366.652
366.644
366.744
366.802
366.751
366.666
366.677
366.733
364.956
365.069
365.045
364.924
364.776
364.772
364.899
364.972
364.901
364.79
364.814
364.891
363.126
363.251
363.199
363.045
362.879
362.885
363.037
363.122
363.027
362.891
362.932
363.035
361.301
361.429
361.34
361.15
360.976
360.999
361.173
361.267
361.145
360.982
361.046
361.178
359.5
359.622
359.487
359.265
359.093
359.138
359.329
359.428
359.277
359.088
359.178
359.34
357.75
357.856
357.672
357.42
357.259
357.332
357.537
357.635
357.453
357.239
357.357
357.55
356.079
356.161
355.925
355.649
355.507
355.613
355.826
355.918
355.705
355.469
355.615
355.835
354.51
354.56
354.277
353.984
353.866
354.006
354.223
354.304
354.063
353.81
353.978
354.221
353.058
353.072
352.748
352.446
352.354
352.527
352.745
352.808
352.543
352.281
352.465
352.723
351.725
351.702
351.344
351.041
350.973
351.176
351.393
351.435
351.151
350.888
351.082
351.345
350.501
350.441
350.06
349.763
349.718
349.944
350.158
350.175
349.88
349.626
349.822
350.079
349.38
349.288
348.897
348.613
348.587
348.826
349.033
349.027
348.728
348.494
348.684
348.925
348.362
348.245
347.858
347.592
347.581
347.822
348.02
347.992
347.699
347.491
347.669
347.887
347.446
347.313
346.942
346.701
346.698
346.932
347.117
347.071
346.792
346.617
346.777
346.967
346.633
346.493
346.148
345.934
345.937
346.154
346.324
346.264
346.006
345.866
346.006
346.164
345.918
345.78
345.472
345.286
345.291
345.485
345.637
345.569
345.338
345.233
345.35
345.477
345.301
345.172
344.905
344.749
344.753
344.919
345.052
344.983
344.781
344.708
344.803
344.9
344.777
344.663
344.439
344.31
344.313
344.45
344.564
344.498
344.328
344.281
344.356
344.427
344.342
344.245
344.064
343.961
343.962
344.07
344.166
344.106
343.967
343.941
343.999
344.047
343.989
343.911
343.769
343.688
343.687
343.77
343.848
343.798
343.688
343.676
343.719
343.75
343.71
343.65
343.542
343.481
343.479
343.54
343.602
343.563
343.478
343.476
343.506
343.525
343.498
343.453
343.372
343.328
343.325
343.369
343.417
343.387
343.324
343.327
343.349
343.358
343.34
343.307
343.25
343.217
343.215
343.245
343.281
343.261
343.215
343.22
343.235
343.239
343.227
343.204
343.163
343.141
343.139
343.159
343.185
343.172
343.141
343.145
343.155
343.156
343.149
343.133
343.104
343.089
343.088
343.101
343.119
343.111
343.091
343.095
343.101
343.101
343.096
343.086
343.065
343.055
343.055
343.064
343.076
343.071
343.058
343.061
343.065
343.064
343.062
343.055
343.041
343.034
343.034
343.04
343.048
343.045
343.038
343.039
343.042
343.041
343.04
343.035
343.025
343.02
343.021
343.026
343.031
343.029
343.025
343.026
343.028
343.027
343.026
343.023
343.016
343.012
343.013
343.017
343.02
343.019
343.017
343.017
343.018
343.018
343.018
343.016
343.01
343.008
343.009
343.011
343.014
343.013
343.012
343.012
343.013
343.012
343.013
343.011
343.007
343.005
343.006
343.008
343.01
343.01
343.009
343.008
343.009
343.009
343.009
343.008
343.004
343.003
343.004
343.006
343.007
343.007
343.007
343.006
343.007
343.007
343.007
343.006
343.003
343.002
343.003
343.004
343.005
343.006
343.005
343.004
343.005
343.005
343.005
343.004
343.002
343.001
343.002
343.003
343.004
343.004
343.004
343.003
343.003
343.004
343.003
343.003
343.001
343.001
343.001
343.002
343.003
343.003
343.003
343.002
343.002
343.003
343.002
343.002
343.001
343.001
343.001
343.002
343.002
343.002
343.002
343.001
343.001
343.002
343.001
343.001
343
343
343
343.001
343.001
343.001
343.001
343.001
343.001
343.001
343
343
343
343
343
343.001
343.001
343.001
343.001
343
343
343.001
343
343
343
343
343
343
343
343
343
343
343
343
342.999
343
343
343
343
343
343
343
343
343
343
343
342.999
343
343
343
343
343
343
343
343
343
342.999
343
342.999
343
343
343
343
343
343
343
343
342.999
342.999
343
342.999
343
343
343
343
343
343
343
343
342.999
342.999
343
343
343
343
343
343
343
343
343
343
343
342.999
343
343
343
343
343
343
343
343
343
343
343
342.999
343
343
343
343
343
343
343
343
343
343
343
343
343
343
343
343
343
343
343
343
343
343
343
343
343
343
343
343
343
343
343
343
343
343
343
343
343
343
343
343
343
343
343
343
343
343
343
343
343
343
343
343
343
343
343
343
343
343
343
343
343
343
343
343
343
343
343
343
343
343
343
343
343
343
343
343
343
343
343
343
343
343
343
343
343
343
343
343
343
343
343
343
343
343
343
343
343
343
343
343
343
343
343
343
343
343
343
343
343
343
343
343
343
343
343
343
343
343
343
343
343
343
343
343
343
343
343
343
343
343
343
343
343
343
343
343
343
343
343
343
343
343
343
343
343
343
343
343
343
343
343
343
343
343
343
343
343
343
343
343.001
343
343
343
343
343
343
343
343
343
343
343
343.001
343.001
343
343
343
343
343
343
343
343
343
343.001
343.001
343.001
343
343
343
343
343
343
343
343
343.001
343.001
343.001
343.001
343.001
343
343
343
343
343
343
343
343.001
343.001
343.001
343.001
343.001
343.001
343.001
343.001
343.001
343.001
343
343.001
343.001
343.001
343.001
343.001
343.001
343.001
343.001
343.001
343.001
343.001
343.001
343.001
343.001
343.001
343.001
343.001
343.001
343.001
343.001
343.001
343.001
343.001
343.001
343.001
343.001
343.001
343.001
343.001
343.001
343.001
343.001
343.001
343.001
343.001
343.001
343.001
343.001
343.001
343.001
343.001
343.001
343.001
343.001
343.001
343.001
343.001
343.001
343.001
343.001
343.001
343.001
343.001
343.001
343.001
343.001
343.001
343.001
343.001
343.001
343.001
343.001
343.001
343.001
343.001
343.001
343.001
343.001
343.001
343.001
343.001
343.001
343.001
343.001
343.001
343.001
343.001
343.001
343.001
343.001
343.001
343.001
343.001
343.001
343.001
343.001
343.001
343.001
343.001
343.001
343.001
343.001
343.001
343.001
343.001
343.001
343.001
343.001
343.001
343.001
343.001
343.001
343.001
343.001
343.001
343.001
343.001
343.001
343.001
343.001
343.001
343.001
343.001
343.001
343.001
343.001
343.001
343.001
343.001
343.001
343.001
343.001
343.001
343.001
343.001
343.001
343.001
343.001
343.001
343.001
343.001
343.001
343.001
343.001
343.001
343.001
343.001
343.001
343.001
343.001
343.001
343.001
343.001
343.001
343.001
343.001
343.001
343.001
343.001
343.001
343.001
343.001
343.001
343.001
343.001
343.001
343.001
372.116
372.13
372.129
372.115
372.097
372.096
372.111
372.12
372.113
372.1
372.102
372.11
370.34
370.381
370.375
370.333
370.28
370.278
370.322
370.348
370.326
370.289
370.295
370.321
368.541
368.607
368.59
368.518
368.434
368.433
368.506
368.549
368.51
368.448
368.461
368.506
366.723
366.809
366.774
366.67
366.559
366.562
366.663
366.722
366.664
366.576
366.6
366.667
364.891
364.991
364.928
364.788
364.658
364.67
364.797
364.87
364.79
364.675
364.715
364.808
363.051
363.157
363.056
362.88
362.738
362.765
362.916
363
362.895
362.752
362.814
362.935
361.217
361.318
361.171
360.958
360.815
360.864
361.034
361.126
360.992
360.82
360.908
361.06
359.407
359.493
359.293
359.046
358.912
358.989
359.175
359.27
359.103
358.903
359.02
359.203
357.644
357.707
357.45
357.174
357.057
357.169
357.367
357.458
357.257
357.031
357.176
357.391
355.957
355.986
355.674
355.376
355.283
355.434
355.64
355.719
355.485
355.237
355.408
355.649
354.366
354.356
353.995
353.684
353.618
353.808
354.019
354.08
353.815
353.552
353.744
354.003
352.889
352.836
352.436
352.12
352.081
352.308
352.52
352.557
352.267
351.999
352.203
352.471
351.528
351.434
351.005
350.693
350.678
350.934
351.146
351.155
350.846
350.585
350.794
351.058
350.276
350.145
349.702
349.401
349.405
349.681
349.89
349.871
349.553
349.31
349.513
349.762
349.131
348.971
348.528
348.246
348.263
348.546
348.75
348.704
348.386
348.173
348.363
348.586
348.095
347.915
347.488
347.231
347.255
347.531
347.726
347.658
347.352
347.175
347.346
347.535
347.168
346.979
346.581
346.354
346.379
346.637
346.819
346.736
346.45
346.313
346.461
346.613
346.349
346.163
345.805
345.609
345.633
345.862
346.028
345.936
345.678
345.583
345.705
345.819
345.637
345.464
345.153
344.989
345.008
345.203
345.351
345.257
345.032
344.975
345.071
345.15
345.029
344.876
344.617
344.483
344.496
344.654
344.782
344.694
344.505
344.478
344.552
344.6
344.522
344.393
344.184
344.079
344.087
344.208
344.316
344.238
344.085
344.082
344.135
344.159
344.109
344.005
343.845
343.764
343.767
343.856
343.944
343.88
343.76
343.773
343.81
343.816
343.782
343.704
343.585
343.526
343.526
343.587
343.656
343.607
343.516
343.538
343.562
343.557
343.533
343.477
343.392
343.35
343.348
343.388
343.44
343.406
343.34
343.364
343.379
343.368
343.35
343.311
343.253
343.225
343.223
343.246
343.284
343.262
343.217
343.239
343.249
343.235
343.221
343.196
343.158
343.139
343.137
343.15
343.177
343.164
343.134
343.153
343.159
343.146
343.133
343.118
343.094
343.083
343.082
343.088
343.105
343.099
343.081
343.096
343.099
343.088
343.077
343.069
343.054
343.048
343.047
343.05
343.061
343.059
343.048
343.059
343.061
343.052
343.044
343.039
343.03
343.027
343.027
343.028
343.034
343.034
343.029
343.036
343.037
343.031
343.024
343.022
343.017
343.014
343.015
343.016
343.019
343.02
343.018
343.022
343.023
343.019
343.014
343.013
343.009
343.008
343.009
343.009
343.012
343.013
343.012
343.015
343.015
343.012
343.009
343.008
343.005
343.004
343.006
343.007
343.008
343.009
343.01
343.01
343.011
343.009
343.007
343.006
343.003
343.002
343.004
343.005
343.006
343.007
343.008
343.008
343.008
343.007
343.006
343.005
343.002
343.001
343.003
343.005
343.005
343.006
343.007
343.006
343.006
343.006
343.005
343.004
343.001
343.001
343.002
343.004
343.004
343.005
343.006
343.005
343.005
343.005
343.004
343.003
343.001
343
343.002
343.004
343.004
343.004
343.005
343.004
343.004
343.005
343.003
343.002
343
343
343.001
343.003
343.003
343.003
343.004
343.003
343.003
343.004
343.002
343.001
343
343
343.001
343.003
343.002
343.002
343.003
343.002
343.002
343.003
343.001
343.001
343
343
343
343.002
343.002
343.001
343.002
343.001
343.001
343.002
343.001
343
343
343
343
343.002
343.001
343.001
343.001
343
343
343.001
343
343
343
343
343
343.001
343.001
343
343
343
343
343.001
343
343
343
343
343
343.001
343
343
343
343
343
343
343
343
343
343
343
343
343
343
343
342.999
342.999
343
343
343
343
343
343
343
343
343
343
342.999
342.999
343
343
343
343
343
343
343
343
343
343
342.999
342.999
342.999
343
343
343
343
343
343
343
343
343
342.999
342.999
342.999
343
343
343
343
343
343
343
343
343
342.999
342.999
342.999
343
343
343
343
343
343
343
343
343
343
342.999
343
343
343
343
343
343
343
343
343
343
343
343
343
343
343
343
343
343
343
343
343
343
343
343
343
343
343
343
343
343
343
343
343
343
343
343
343
343
343
343
343
343
343
343
343
343
343
343
343
343
343
343
343
343
343
343
343
343
343
343
343
343
343
343
343
343
343
343
343
343
343
343
343
343
343
343
343
343
343
343
343
343
343
343
343
343
343
343
343
343
343
343
343
343
343
343
343
343
343
343
343
343
343
343
343
343
343
343
343
343
343
343
343
343
343
343
343
343
343
343
343
343
343
343
343
343
343
343
343
343
343
343
343
343
343
343
343
343
343
343
343
343
343
343
343
343
343
343
343
343
343
343
343
343
343
343
343
343
343
343
343
343
343
343
343
343
343
343
343
343
343
343
343
343
343
343
343
343
343
343
343
343
343
343.001
343
343
343
343
343
343
343
343
343
343
343
343.001
343.001
343
343
343
343
343
343
343
343
343
343.001
343.001
343.001
343
343
343
343
343
343
343
343
343.001
343.001
343.001
343.001
343
343
343
343
343
343
343
343.001
343.001
343.001
343.001
343.001
343.001
343
343.001
343.001
343.001
343.001
343.001
343.001
343.001
343.001
343.001
343.001
343.001
343.001
343.001
343.001
343.001
343.001
343.001
343.001
343.001
343.001
343.001
343.001
343.001
343.001
343.001
343.001
343.001
343.001
343.001
343.001
343.001
343.001
343.001
343.001
343.001
343.001
343.001
343.001
343.001
343.001
343.001
343.001
343.001
343.001
343.001
343.001
343.001
343.001
343.001
343.001
343.001
343.001
343.001
343.001
343.001
343.001
343.001
343.001
343.001
343.001
343.001
343.001
343.001
343.001
343.001
343.001
343.001
343.001
343.001
343.001
343.001
343.001
343.001
343.001
343.001
343.001
343.001
343.001
343.001
343.001
343.001
343.001
343.001
343.001
343.001
343.001
343.001
343.001
343.001
343.001
343.001
343.001
343.001
343.001
343.001
343.001
343.001
343.001
343.001
343.001
343.001
343.001
343.001
343.001
343.001
343.001
343.001
343.001
343.001
343.001
343.001
343.001
343.001
343.001
343.001
343.001
343.001
343.001
343.001
343.001
343.001
343.001
343.001
343.001
343.001
343.001
343.001
343.001
343.001
343.001
343.001
343.001
343.001
343.001
343.001
343.001
343.001
343.001
372.111
372.124
372.12
372.106
372.09
372.09
372.103
372.112
372.105
372.093
372.095
372.104
370.324
370.361
370.349
370.307
370.259
370.258
370.299
370.326
370.305
370.267
370.275
370.302
368.514
368.572
368.547
368.475
368.399
368.4
368.469
368.512
368.474
368.41
368.427
368.474
366.684
366.759
366.713
366.608
366.509
366.517
366.612
366.672
366.614
366.522
366.551
366.621
364.838
364.924
364.848
364.709
364.594
364.614
364.734
364.807
364.726
364.606
364.652
364.747
362.985
363.072
362.957
362.784
362.662
362.699
362.842
362.927
362.818
362.668
362.735
362.859
361.137
361.217
361.054
360.847
360.726
360.789
360.953
361.043
360.903
360.723
360.816
360.97
359.315
359.376
359.161
358.923
358.813
358.908
359.09
359.179
359.005
358.797
358.916
359.099
357.544
357.578
357.308
357.044
356.952
357.084
357.279
357.362
357.153
356.921
357.066
357.275
355.851
355.85
355.529
355.247
355.176
355.346
355.552
355.62
355.379
355.129
355.296
355.525
354.259
354.219
353.854
353.561
353.513
353.719
353.931
353.979
353.709
353.453
353.635
353.875
352.783
352.704
352.305
352.011
351.984
352.219
352.433
352.456
352.165
351.913
352.103
352.343
351.424
351.309
350.89
350.601
350.591
350.846
351.06
351.056
350.753
350.517
350.706
350.936
350.175
350.03
349.604
349.329
349.332
349.595
349.805
349.776
349.469
349.26
349.441
349.65
349.034
348.867
348.449
348.194
348.205
348.465
348.666
348.616
348.315
348.14
348.307
348.489
348.001
347.823
347.428
347.197
347.212
347.457
347.647
347.58
347.294
347.158
347.305
347.456
347.077
346.9
346.539
346.336
346.352
346.571
346.746
346.67
346.407
346.309
346.436
346.554
346.264
346.097
345.778
345.604
345.618
345.808
345.965
345.886
345.651
345.589
345.694
345.781
345.56
345.41
345.139
344.993
345.004
345.162
345.3
345.224
345.021
344.989
345.072
345.133
344.964
344.835
344.611
344.493
344.502
344.627
344.745
344.679
344.508
344.497
344.563
344.602
344.471
344.365
344.186
344.093
344.099
344.195
344.294
344.24
344.101
344.104
344.154
344.176
344.074
343.991
343.851
343.78
343.784
343.856
343.936
343.896
343.786
343.796
343.834
343.845
343.765
343.701
343.594
343.541
343.545
343.598
343.66
343.634
343.549
343.561
343.59
343.593
343.532
343.483
343.403
343.365
343.369
343.407
343.454
343.439
343.376
343.386
343.408
343.407
343.361
343.325
343.266
343.239
343.244
343.27
343.305
343.298
343.252
343.259
343.276
343.274
343.241
343.214
343.171
343.153
343.157
343.176
343.2
343.198
343.167
343.171
343.183
343.181
343.159
343.139
343.108
343.095
343.1
343.113
343.13
343.13
343.109
343.11
343.12
343.118
343.104
343.09
343.067
343.059
343.063
343.073
343.083
343.084
343.071
343.071
343.078
343.077
343.069
343.058
343.042
343.036
343.04
343.047
343.053
343.055
343.046
343.046
343.05
343.05
343.046
343.038
343.026
343.022
343.026
343.031
343.035
343.036
343.031
343.03
343.033
343.033
343.031
343.026
343.017
343.013
343.017
343.022
343.023
343.024
343.021
343.02
343.022
343.023
343.022
343.018
343.011
343.008
343.011
343.016
343.016
343.016
343.015
343.014
343.015
343.016
343.016
343.013
343.007
343.005
343.008
343.012
343.012
343.012
343.012
343.01
343.011
343.012
343.011
343.009
343.005
343.003
343.006
343.009
343.009
343.008
343.009
343.007
343.008
343.009
343.008
343.007
343.003
343.002
343.004
343.007
343.007
343.006
343.007
343.005
343.006
343.007
343.006
343.005
343.002
343.001
343.003
343.006
343.005
343.005
343.005
343.004
343.004
343.005
343.004
343.003
343.001
343.001
343.002
343.005
343.004
343.003