/*--------------------------------*- C++ -*----------------------------------*\
| =========                 |                                                 |
| \\      /  F ield         | OpenFOAM: The Open Source CFD Toolbox           |
|  \\    /   O peration     | Version:  v1912                                 |
|   \\  /    A nd           | Website:  www.openfoam.com                      |
|    \\/     M anipulation  |                                                 |
\*---------------------------------------------------------------------------*/
FoamFile
{
    version     2.0;
    format      ascii;
    class       volVectorField;
    location    "7.6";
    object      wallShearStress;
}
// * * * * * * * * * * * * * * * * * * * * * * * * * * * * * * * * * * * * * //

dimensions      [1 -1 -2 0 0 0 0];


internalField   uniform (0 0 0);

boundaryField
{
    leftWall
    {
        type            calculated;
        value           nonuniform List<vector> 
216
(
(8.95614e-05 -1.99434e-05 0.116094)
(0.000215264 -1.92475e-05 0.120293)
(0.000317252 -2.05992e-05 0.121119)
(0.000402604 -2.25081e-05 0.124972)
(0.000503199 -2.41593e-05 0.12674)
(0.00057759 -2.68297e-05 0.130439)
(0.000643273 -2.77118e-05 0.132909)
(0.000710997 -2.9543e-05 0.136523)
(0.000742361 -2.98532e-05 0.139519)
(0.000744792 -3.22058e-05 0.143158)
(0.000677163 -3.4036e-05 0.146707)
(0.000551536 -3.72916e-05 0.150636)
(0.000400508 -3.8369e-05 0.154931)
(0.00022488 -3.90679e-05 0.159411)
(0.000102051 -3.78004e-05 0.164544)
(-3.81132e-05 -3.78993e-05 0.169628)
(-0.000121762 -3.93055e-05 0.175497)
(-0.000245195 -4.38471e-05 0.181151)
(0.000269613 -1.89618e-05 0.116054)
(0.000338104 -1.80282e-05 0.120365)
(0.000448747 -1.8927e-05 0.121237)
(0.000527289 -2.05962e-05 0.125329)
(0.000675344 -2.16764e-05 0.1272)
(0.000794802 -2.40544e-05 0.131326)
(0.000888141 -2.45418e-05 0.134059)
(0.000960456 -2.57905e-05 0.138304)
(0.000962837 -2.54941e-05 0.141737)
(0.000954133 -2.66657e-05 0.146135)
(0.000880081 -2.74499e-05 0.150195)
(0.000767875 -2.98e-05 0.154872)
(0.000565762 -3.08316e-05 0.159629)
(0.000289983 -3.25898e-05 0.164763)
(-1.54944e-05 -3.27185e-05 0.170309)
(-0.000296681 -3.48583e-05 0.176019)
(-0.000468711 -3.69662e-05 0.182368)
(-0.000562312 -4.16164e-05 0.188696)
(0.000320363 -1.68313e-05 0.11918)
(0.00031204 -1.57005e-05 0.12366)
(0.000361152 -1.55724e-05 0.124568)
(0.000382903 -1.60139e-05 0.128933)
(0.000456157 -1.52465e-05 0.130859)
(0.000526904 -1.60352e-05 0.135458)
(0.000549003 -1.56039e-05 0.138392)
(0.000562623 -1.67808e-05 0.143405)
(0.000496006 -1.71706e-05 0.147321)
(0.000440928 -1.89988e-05 0.152818)
(0.00032378 -1.9927e-05 0.157634)
(0.000195551 -2.19517e-05 0.163535)
(-4.41004e-05 -2.2945e-05 0.168986)
(-0.000318667 -2.60252e-05 0.174992)
(-0.000641571 -2.87377e-05 0.180733)
(-0.00086688 -3.37893e-05 0.186656)
(-0.000988329 -3.75242e-05 0.192616)
(-0.000985525 -4.19567e-05 0.198544)
(0.00023511 -1.57683e-05 0.122226)
(0.000148507 -1.51121e-05 0.126813)
(8.80126e-05 -1.47783e-05 0.127683)
(-2.36626e-06 -1.50201e-05 0.132108)
(-0.000113646 -1.37094e-05 0.133934)
(-0.000205898 -1.40183e-05 0.138562)
(-0.000371565 -1.35325e-05 0.141363)
(-0.000505937 -1.5149e-05 0.146438)
(-0.000699802 -1.63962e-05 0.150285)
(-0.000836905 -1.91846e-05 0.155938)
(-0.00100429 -2.08156e-05 0.160782)
(-0.00111474 -2.33583e-05 0.166859)
(-0.00126781 -2.51637e-05 0.172261)
(-0.00132803 -2.89266e-05 0.1782)
(-0.0013554 -3.2837e-05 0.183545)
(-0.00121964 -3.80837e-05 0.18895)
(-0.0010265 -4.15428e-05 0.194101)
(-0.000773559 -4.48689e-05 0.199123)
(0.000127448 -1.60835e-05 0.123205)
(1.6487e-05 -1.63518e-05 0.127743)
(-0.000101619 -1.69872e-05 0.128589)
(-0.000244313 -1.88123e-05 0.132877)
(-0.000464098 -1.91661e-05 0.134601)
(-0.000645076 -2.0906e-05 0.138887)
(-0.000902965 -2.18561e-05 0.141354)
(-0.00108777 -2.41499e-05 0.145732)
(-0.00130534 -2.56644e-05 0.148846)
(-0.00143764 -2.78925e-05 0.153325)
(-0.00158639 -2.89132e-05 0.156981)
(-0.00164917 -3.05221e-05 0.161532)
(-0.001686 -3.2002e-05 0.165629)
(-0.00156046 -3.49195e-05 0.170241)
(-0.0013221 -3.79324e-05 0.174805)
(-0.000932526 -4.12181e-05 0.179631)
(-0.000541977 -4.28721e-05 0.184837)
(-0.000183809 -4.45073e-05 0.190082)
(5.8029e-05 -1.6635e-05 0.121133)
(-5.15855e-05 -1.73772e-05 0.125586)
(-0.000134553 -1.9126e-05 0.126457)
(-0.000234295 -2.19966e-05 0.130646)
(-0.000398084 -2.39533e-05 0.132382)
(-0.00051681 -2.66584e-05 0.136448)
(-0.000688244 -2.8254e-05 0.13879)
(-0.000793301 -3.00365e-05 0.142681)
(-0.000917744 -3.06812e-05 0.145388)
(-0.000991157 -3.16043e-05 0.148995)
(-0.00109196 -3.19673e-05 0.151928)
(-0.00116335 -3.30514e-05 0.15534)
(-0.00121541 -3.37884e-05 0.158711)
(-0.00116062 -3.51241e-05 0.162406)
(-0.00100432 -3.55795e-05 0.166775)
(-0.000753357 -3.68337e-05 0.171364)
(-0.000518063 -3.7636e-05 0.177154)
(-0.000328966 -4.02512e-05 0.182916)
(4.40165e-05 -1.74165e-05 0.119095)
(-7.64975e-05 -1.80212e-05 0.123562)
(-0.000118794 -1.91807e-05 0.124295)
(-0.000185205 -2.13898e-05 0.128472)
(-0.000264947 -2.30688e-05 0.130001)
(-0.000325055 -2.5121e-05 0.134037)
(-0.000404345 -2.62714e-05 0.136199)
(-0.000460892 -2.76113e-05 0.140106)
(-0.000516157 -2.79004e-05 0.142789)
(-0.000559744 -2.90287e-05 0.146558)
(-0.000608601 -2.96909e-05 0.14972)
(-0.000674826 -3.18285e-05 0.153474)
(-0.000757883 -3.29671e-05 0.157315)
(-0.000829187 -3.48414e-05 0.161457)
(-0.000875937 -3.48856e-05 0.16638)
(-0.000863256 -3.61063e-05 0.171326)
(-0.000848449 -3.66856e-05 0.177519)
(-0.000820267 -3.95134e-05 0.183353)
(8.52206e-05 -1.73718e-05 0.120209)
(-2.29982e-06 -1.79708e-05 0.124744)
(-3.53887e-05 -1.87684e-05 0.125257)
(-8.2125e-05 -2.06696e-05 0.129426)
(-0.000118261 -2.20385e-05 0.13058)
(-0.000176156 -2.3839e-05 0.134558)
(-0.000241353 -2.47751e-05 0.136287)
(-0.000336838 -2.62086e-05 0.140183)
(-0.000423501 -2.65141e-05 0.142523)
(-0.000520391 -2.79645e-05 0.146453)
(-0.000588725 -2.87281e-05 0.149471)
(-0.000667612 -3.13228e-05 0.153565)
(-0.000753378 -3.3321e-05 0.157385)
(-0.000855805 -3.65229e-05 0.161884)
(-0.000967797 -3.80468e-05 0.166713)
(-0.00103385 -4.00877e-05 0.171849)
(-0.00107617 -4.08826e-05 0.177745)
(-0.00106213 -4.36292e-05 0.183508)
(6.02383e-05 -1.70264e-05 0.123479)
(3.43783e-05 -1.76533e-05 0.127974)
(3.61823e-05 -1.85006e-05 0.128514)
(4.41922e-05 -2.0416e-05 0.132628)
(7.62129e-05 -2.14729e-05 0.13379)
(6.99513e-05 -2.33745e-05 0.137716)
(6.08735e-05 -2.45773e-05 0.139358)
(-6.00608e-06 -2.68471e-05 0.143183)
(-6.97948e-05 -2.81263e-05 0.145301)
(-0.000171064 -3.02238e-05 0.149122)
(-0.000237935 -3.10301e-05 0.15176)
(-0.000332931 -3.2654e-05 0.155682)
(-0.000411743 -3.36449e-05 0.158919)
(-0.000535306 -3.57584e-05 0.163131)
(-0.000678662 -3.7262e-05 0.167157)
(-0.000827252 -3.96247e-05 0.171934)
(-0.000949589 -4.14104e-05 0.176992)
(-0.000983104 -4.54613e-05 0.182609)
(5.01542e-05 -1.76838e-05 0.12494)
(5.90117e-05 -1.82418e-05 0.129237)
(7.88217e-05 -1.85819e-05 0.129827)
(0.000115128 -1.99585e-05 0.133764)
(0.000157311 -1.98758e-05 0.135028)
(0.000192016 -2.11838e-05 0.138844)
(0.000217549 -2.18063e-05 0.140661)
(0.000227565 -2.41435e-05 0.144487)
(0.000230432 -2.56857e-05 0.146874)
(0.000202147 -2.82305e-05 0.150855)
(0.000165317 -2.91342e-05 0.153861)
(7.18395e-05 -3.05128e-05 0.158102)
(-3.92449e-05 -3.06848e-05 0.161748)
(-0.000202249 -3.21e-05 0.166321)
(-0.00039689 -3.30793e-05 0.170621)
(-0.000602569 -3.5765e-05 0.175614)
(-0.000807979 -3.78869e-05 0.180693)
(-0.000914225 -4.16918e-05 0.186405)
(0.000159012 -1.8651e-05 0.123259)
(0.000224643 -1.89612e-05 0.127708)
(0.000222942 -1.91201e-05 0.128252)
(0.000258232 -2.01741e-05 0.132307)
(0.000240593 -1.97185e-05 0.133534)
(0.00023791 -2.05223e-05 0.137422)
(0.000215223 -2.06243e-05 0.139292)
(0.000203358 -2.20747e-05 0.143204)
(0.000178964 -2.27925e-05 0.145787)
(0.000131113 -2.45146e-05 0.149935)
(3.88251e-05 -2.50183e-05 0.153303)
(-0.00010642 -2.67032e-05 0.157849)
(-0.000295241 -2.72039e-05 0.162059)
(-0.000488433 -2.9497e-05 0.167115)
(-0.000697369 -3.12204e-05 0.17219)
(-0.000859362 -3.49212e-05 0.177763)
(-0.00103509 -3.79858e-05 0.183619)
(-0.00113221 -4.21168e-05 0.189672)
(0.000182537 -1.8153e-05 0.12099)
(0.000282497 -1.80384e-05 0.125762)
(0.000305818 -1.9247e-05 0.126403)
(0.000341098 -2.06773e-05 0.130797)
(0.000324611 -2.12317e-05 0.132214)
(0.000281759 -2.24402e-05 0.136406)
(0.000245527 -2.2724e-05 0.138492)
(0.000179552 -2.38299e-05 0.142606)
(0.000119792 -2.3944e-05 0.145312)
(5.29373e-06 -2.49532e-05 0.149465)
(-0.000152378 -2.51695e-05 0.152764)
(-0.000372648 -2.68151e-05 0.157112)
(-0.000633174 -2.81433e-05 0.161142)
(-0.000879951 -3.13112e-05 0.165982)
(-0.00110698 -3.432e-05 0.171037)
(-0.00123116 -3.9233e-05 0.176603)
(-0.00129961 -4.37875e-05 0.182713)
(-0.00124733 -4.93881e-05 0.188786)
)
;
    }
    rightWall
    {
        type            calculated;
        value           nonuniform List<vector> 
216
(
(0.000201865 -7.7728e-07 0.355628)
(0.000529831 -1.41551e-06 0.356847)
(0.000479129 4.50463e-07 0.357165)
(0.000688154 1.24288e-06 0.358187)
(0.000614216 3.0862e-06 0.358701)
(0.000670704 3.9857e-06 0.35963)
(0.000548253 6.34313e-06 0.360056)
(0.000422302 6.7232e-06 0.361012)
(0.00024262 8.74291e-06 0.361338)
(1.49807e-05 7.61451e-06 0.362551)
(-0.000197884 7.51734e-06 0.363026)
(-0.00045057 5.40797e-06 0.364658)
(-0.000687993 5.80602e-06 0.365648)
(-0.000921764 7.42749e-06 0.367881)
(-0.00108481 1.19808e-05 0.369966)
(-0.0011806 1.70428e-05 0.373039)
(-0.00110477 2.15407e-05 0.376498)
(-0.000955397 2.47306e-05 0.380061)
(-0.00018459 1.09376e-07 0.35288)
(4.35537e-05 -1.846e-06 0.354958)
(0.000100625 8.91276e-07 0.355498)
(0.000328694 1.36722e-06 0.357379)
(0.000369165 3.72932e-06 0.358337)
(0.000511999 4.61945e-06 0.35993)
(0.000533841 7.07151e-06 0.360909)
(0.000498469 7.88613e-06 0.362088)
(0.000410291 1.00369e-05 0.362794)
(0.00016949 1.00519e-05 0.363551)
(-9.37139e-05 1.11357e-05 0.363985)
(-0.000473605 1.11303e-05 0.36441)
(-0.000761121 1.35486e-05 0.364896)
(-0.00102602 1.66713e-05 0.365335)
(-0.00104776 2.22289e-05 0.366618)
(-0.00103758 2.71394e-05 0.367734)
(-0.000796312 3.09405e-05 0.370563)
(-0.000598466 3.19046e-05 0.372711)
(-0.000634338 2.06408e-06 0.351101)
(-0.000580727 2.47481e-08 0.352936)
(-0.000399628 2.54889e-06 0.353339)
(-0.000193256 2.65554e-06 0.355182)
(-3.06339e-06 5.12866e-06 0.356012)
(0.000236825 5.98961e-06 0.357843)
(0.000470008 7.98984e-06 0.358838)
(0.000628487 9.50265e-06 0.36034)
(0.000804551 1.16812e-05 0.3612)
(0.000778089 1.38615e-05 0.362107)
(0.000784765 1.65697e-05 0.362793)
(0.000580547 1.90607e-05 0.363091)
(0.000538092 2.15438e-05 0.363831)
(0.000362801 2.27951e-05 0.363782)
(0.00047577 2.36983e-05 0.365018)
(0.000402943 2.35645e-05 0.3652)
(0.000533127 2.37231e-05 0.367613)
(0.000348668 2.37495e-05 0.368853)
(-0.000692217 5.33533e-06 0.349809)
(-0.000695965 4.97194e-06 0.35061)
(-0.000507888 5.85253e-06 0.35084)
(-0.000309625 5.87749e-06 0.35179)
(-0.000113829 7.18187e-06 0.352371)
(0.000160936 7.22652e-06 0.353695)
(0.000431006 7.77186e-06 0.354625)
(0.000685049 8.58438e-06 0.356156)
(0.000988787 9.61362e-06 0.357441)
(0.00111205 1.20274e-05 0.358975)
(0.00132277 1.40327e-05 0.360716)
(0.00127284 1.68149e-05 0.362167)
(0.00137451 1.76412e-05 0.364358)
(0.0011968 1.78381e-05 0.365672)
(0.00121489 1.54161e-05 0.36816)
(0.000907254 1.28468e-05 0.369408)
(0.000774892 1.0214e-05 0.372296)
(0.000317438 1.14313e-05 0.374021)
(-0.00036816 7.49712e-06 0.348932)
(-0.000315233 8.00883e-06 0.349468)
(-0.00020873 7.19627e-06 0.349768)
(-1.34334e-05 6.70358e-06 0.35029)
(7.37673e-05 6.61356e-06 0.350973)
(0.000305352 5.81676e-06 0.351777)
(0.000438333 5.61843e-06 0.352912)
(0.000645631 6.0461e-06 0.354143)
(0.000863095 6.86752e-06 0.355907)
(0.001001 9.591e-06 0.357645)
(0.00120819 1.14578e-05 0.360185)
(0.00122435 1.45527e-05 0.362343)
(0.00131152 1.53236e-05 0.365454)
(0.00115704 1.63902e-05 0.367709)
(0.00103324 1.46397e-05 0.370901)
(0.000612335 1.35305e-05 0.372969)
(0.000222356 1.12613e-05 0.375993)
(-0.000359748 1.2562e-05 0.378078)
(-9.02064e-05 6.61938e-06 0.348438)
(-3.00247e-05 6.79709e-06 0.349611)
(-1.06285e-05 5.40642e-06 0.350039)
(0.000113802 4.56891e-06 0.350982)
(9.3657e-05 3.77109e-06 0.351889)
(0.000224062 2.51655e-06 0.352805)
(0.000206366 1.9816e-06 0.354244)
(0.000339926 1.84319e-06 0.355429)
(0.000435466 2.16799e-06 0.357549)
(0.000602574 3.87152e-06 0.359244)
(0.000784273 4.91609e-06 0.362133)
(0.00092425 7.18871e-06 0.364316)
(0.00105312 8.20045e-06 0.367784)
(0.00106966 1.02457e-05 0.370165)
(0.000983023 1.13753e-05 0.373801)
(0.000718473 1.42927e-05 0.376047)
(0.000337719 1.69953e-05 0.379496)
(-0.000119593 2.15593e-05 0.381513)
(-8.59015e-05 5.81894e-06 0.348755)
(-6.16071e-05 5.44443e-06 0.350493)
(-9.8621e-05 4.08751e-06 0.350799)
(-7.00725e-05 3.18459e-06 0.352165)
(-0.000150582 2.59645e-06 0.352903)
(-0.000142624 1.87905e-06 0.354049)
(-0.000262517 2.06965e-06 0.355352)
(-0.000238248 2.31981e-06 0.356557)
(-0.000267576 2.55975e-06 0.358555)
(-0.00018149 2.93722e-06 0.360044)
(-0.000120788 2.50381e-06 0.362744)
(-3.86567e-05 2.42388e-06 0.364564)
(1.17045e-05 2.17555e-06 0.367868)
(5.2848e-05 3.11149e-06 0.369933)
(3.21553e-05 5.6127e-06 0.373708)
(3.13146e-05 1.04231e-05 0.375888)
(-3.10777e-05 1.62602e-05 0.379979)
(-1.88142e-05 2.24708e-05 0.382114)
(-0.000126033 8.02763e-06 0.348849)
(-0.00011018 7.46485e-06 0.35057)
(-0.000169397 6.24092e-06 0.350701)
(-0.000211121 5.65791e-06 0.352021)
(-0.000296995 5.55671e-06 0.352489)
(-0.000359463 5.91683e-06 0.353575)
(-0.000472727 7.1054e-06 0.354608)
(-0.000489101 8.28488e-06 0.355641)
(-0.000545836 8.86732e-06 0.357349)
(-0.000525515 9.23202e-06 0.358451)
(-0.000557123 8.76492e-06 0.360716)
(-0.000581232 8.86263e-06 0.361921)
(-0.000613829 9.49588e-06 0.364597)
(-0.000624622 1.13018e-05 0.365933)
(-0.000580778 1.4709e-05 0.36903)
(-0.000443185 1.87022e-05 0.370585)
(-0.00027477 2.28816e-05 0.37423)
(-1.72968e-05 2.59429e-05 0.376065)
(9.87158e-05 1.00216e-05 0.347762)
(0.000144843 1.00973e-05 0.348963)
(5.04293e-05 9.42206e-06 0.349018)
(-2.32113e-05 9.70432e-06 0.349909)
(-0.000117871 1.02901e-05 0.350231)
(-0.000200794 1.11903e-05 0.35104)
(-0.000271944 1.25827e-05 0.351889)
(-0.000284373 1.3522e-05 0.352727)
(-0.000339044 1.39257e-05 0.354245)
(-0.000337832 1.42536e-05 0.355191)
(-0.000407947 1.42765e-05 0.357316)
(-0.000418486 1.52731e-05 0.358458)
(-0.00041952 1.62743e-05 0.361081)
(-0.000320994 1.83285e-05 0.362512)
(-0.000136113 2.0541e-05 0.365591)
(0.000153703 2.34024e-05 0.36739)
(0.000433266 2.58847e-05 0.370976)
(0.000705128 2.82177e-05 0.373176)
(0.000458861 6.88791e-06 0.348235)
(0.000603482 7.34473e-06 0.349046)
(0.000516519 8.46269e-06 0.349207)
(0.000499142 9.78152e-06 0.349874)
(0.000424842 1.17667e-05 0.350293)
(0.000348106 1.26797e-05 0.351051)
(0.000282846 1.39812e-05 0.351794)
(0.00021163 1.39585e-05 0.352666)
(9.33113e-05 1.4286e-05 0.353805)
(3.63803e-06 1.43171e-05 0.354783)
(-0.000153107 1.51782e-05 0.356396)
(-0.000201541 1.6456e-05 0.357609)
(-0.000275085 1.78473e-05 0.359838)
(-0.000175024 1.94909e-05 0.36154)
(-4.99552e-05 2.04851e-05 0.364552)
(0.000282641 2.21508e-05 0.366978)
(0.000574366 2.36431e-05 0.370861)
(0.000972849 2.71011e-05 0.374014)
(0.000496543 2.27289e-06 0.350925)
(0.00066293 2.06469e-06 0.351812)
(0.000640965 4.30987e-06 0.352226)
(0.000710031 5.90996e-06 0.353105)
(0.000717366 8.84075e-06 0.353843)
(0.00072962 1.02597e-05 0.354915)
(0.000699093 1.19574e-05 0.35571)
(0.000656916 1.23908e-05 0.356926)
(0.00054327 1.34497e-05 0.357651)
(0.000460845 1.41888e-05 0.358903)
(0.000335097 1.6219e-05 0.359681)
(0.000301261 1.78695e-05 0.361032)
(0.000231493 2.0145e-05 0.362224)
(0.00028116 2.11682e-05 0.363928)
(0.000280077 2.15393e-05 0.365974)
(0.000459725 2.07446e-05 0.368354)
(0.000580202 1.9742e-05 0.371618)
(0.000949082 2.00087e-05 0.374866)
(0.000333483 2.036e-06 0.352059)
(0.00044293 1.33308e-06 0.353217)
(0.000472394 3.16353e-06 0.35366)
(0.000600282 4.00347e-06 0.354796)
(0.000672352 6.22468e-06 0.355561)
(0.000820263 7.16948e-06 0.356862)
(0.000822335 8.61596e-06 0.357619)
(0.000909377 9.17547e-06 0.359088)
(0.000841328 1.04918e-05 0.35971)
(0.000880781 1.15303e-05 0.361323)
(0.000856285 1.35662e-05 0.361963)
(0.000901737 1.50968e-05 0.363772)
(0.000913266 1.71994e-05 0.364757)
(0.000895734 1.80231e-05 0.366827)
(0.000818381 1.86954e-05 0.368529)
(0.000707245 1.77238e-05 0.370943)
(0.000569904 1.63466e-05 0.373739)
(0.000548645 1.38816e-05 0.376631)
)
;
    }
    leftSides_periodic0
    {
        type            cyclic;
    }
    leftSides_periodic1
    {
        type            cyclic;
    }
    rightSides_periodic0
    {
        type            cyclic;
    }
    rightSides_periodic1
    {
        type            cyclic;
    }
    leftInOut_periodic0
    {
        type            calculated;
        value           uniform (0 0 0);
    }
    leftInOut_periodic1
    {
        type            calculated;
        value           nonuniform 0();
    }
    rightInOut_periodic0
    {
        type            calculated;
        value           uniform (0 0 0);
    }
    rightInOut_periodic1
    {
        type            calculated;
        value           nonuniform 0();
    }
    procBoundary0to1
    {
        type            processor;
        value           uniform (0 0 0);
    }
    procBoundary0to2throughleftSides_periodic1
    {
        type            processorCyclic;
        value           uniform (0 0 0);
    }
    procBoundary0to2throughrightSides_periodic1
    {
        type            processorCyclic;
        value           uniform (0 0 0);
    }
    procBoundary0to3
    {
        type            processor;
        value           uniform (0 0 0);
    }
}


// ************************************************************************* //
