0 	373
5.01672e-05 	369.384
0.000100334 	365.818
0.000150502 	362.346
0.000200669 	359.087
0.000250836 	356.204
0.000301003 	353.835
0.000351171 	352.02
0.000401338 	350.692
0.000451505 	349.736
0.000501672 	349.041
0.000551839 	348.522
0.000602007 	348.123
0.000652174 	347.805
0.000702341 	347.545
0.000752508 	347.325
0.000802676 	347.136
0.000852843 	346.974
0.00090301 	346.829
0.000953177 	346.699
0.00100334 	346.581
0.00105351 	346.473
0.00110368 	346.374
0.00115385 	346.284
0.00120401 	346.201
0.00125418 	346.122
0.00130435 	346.048
0.00135452 	345.98
0.00140468 	345.915
0.00145485 	345.854
0.00150502 	345.796
0.00155518 	345.741
0.00160535 	345.69
0.00165552 	345.641
0.00170569 	345.596
0.00175585 	345.554
0.00180602 	345.514
0.00185619 	345.476
0.00190635 	345.441
0.00195652 	345.407
0.00200669 	345.375
0.00205686 	345.345
0.00210702 	345.315
0.00215719 	345.288
0.00220736 	345.262
0.00225753 	345.236
0.00230769 	345.213
0.00235786 	345.189
0.00240803 	345.168
0.00245819 	345.147
0.00250836 	345.126
0.00255853 	345.104
0.0026087 	345.082
0.00265886 	345.058
0.00270903 	345.033
0.0027592 	345.01
0.00280936 	344.988
0.00285953 	344.97
0.0029097 	344.954
0.00295987 	344.941
0.00301003 	344.929
0.0030602 	344.919
0.00311037 	344.909
0.00316054 	344.901
0.0032107 	344.893
0.00326087 	344.886
0.00331104 	344.879
0.0033612 	344.872
0.00341137 	344.866
0.00346154 	344.861
0.00351171 	344.856
0.00356187 	344.852
0.00361204 	344.847
0.00366221 	344.844
0.00371237 	344.841
0.00376254 	344.84
0.00381271 	344.838
0.00386288 	344.838
0.00391304 	344.839
0.00396321 	344.839
0.00401338 	344.839
0.00406355 	344.84
0.00411371 	344.84
0.00416388 	344.84
0.00421405 	344.841
0.00426421 	344.841
0.00431438 	344.842
0.00436455 	344.843
0.00441472 	344.844
0.00446488 	344.846
0.00451505 	344.847
0.00456522 	344.849
0.00461538 	344.851
0.00466555 	344.853
0.00471572 	344.855
0.00476589 	344.857
0.00481605 	344.859
0.00486622 	344.861
0.00491639 	344.863
0.00496656 	344.865
0.00501672 	344.867
0.00506689 	344.869
0.00511706 	344.871
0.00516722 	344.872
0.00521739 	344.873
0.00526756 	344.874
0.00531773 	344.873
0.00536789 	344.869
0.00541806 	344.865
0.00546823 	344.861
0.00551839 	344.855
0.00556856 	344.85
0.00561873 	344.846
0.0056689 	344.844
0.00571906 	344.842
0.00576923 	344.842
0.0058194 	344.843
0.00586957 	344.844
0.00591973 	344.845
0.0059699 	344.847
0.00602007 	344.849
0.00607023 	344.851
0.0061204 	344.854
0.00617057 	344.856
0.00622074 	344.857
0.0062709 	344.859
0.00632107 	344.861
0.00637124 	344.863
0.0064214 	344.865
0.00647157 	344.866
0.00652174 	344.868
0.00657191 	344.869
0.00662207 	344.871
0.00667224 	344.872
0.00672241 	344.874
0.00677258 	344.875
0.00682274 	344.877
0.00687291 	344.879
0.00692308 	344.881
0.00697324 	344.883
0.00702341 	344.885
0.00707358 	344.886
0.00712375 	344.888
0.00717391 	344.889
0.00722408 	344.889
0.00727425 	344.889
0.00732441 	344.89
0.00737458 	344.889
0.00742475 	344.887
0.00747492 	344.886
0.00752508 	344.885
0.00757525 	344.883
0.00762542 	344.881
0.00767559 	344.88
0.00772575 	344.877
0.00777592 	344.875
0.00782609 	344.873
0.00787625 	344.87
0.00792642 	344.868
0.00797659 	344.865
0.00802676 	344.862
0.00807692 	344.859
0.00812709 	344.855
0.00817726 	344.852
0.00822742 	344.849
0.00827759 	344.845
0.00832776 	344.841
0.00837793 	344.837
0.00842809 	344.833
0.00847826 	344.829
0.00852843 	344.824
0.0085786 	344.819
0.00862876 	344.815
0.00867893 	344.81
0.0087291 	344.805
0.00877926 	344.8
0.00882943 	344.794
0.0088796 	344.789
0.00892977 	344.783
0.00897993 	344.777
0.0090301 	344.771
0.00908027 	344.765
0.00913043 	344.759
0.0091806 	344.753
0.00923077 	344.746
0.00928094 	344.739
0.0093311 	344.732
0.00938127 	344.726
0.00943144 	344.718
0.00948161 	344.711
0.00953177 	344.703
0.00958194 	344.696
0.00963211 	344.688
0.00968227 	344.68
0.00973244 	344.672
0.00978261 	344.663
0.00983278 	344.655
0.00988294 	344.646
0.00993311 	344.637
0.00998328 	344.628
0.0100334 	344.619
0.0100836 	344.609
0.0101338 	344.6
0.0101839 	344.59
0.0102341 	344.58
0.0102843 	344.57
0.0103344 	344.56
0.0103846 	344.549
0.0104348 	344.539
0.0104849 	344.528
0.0105351 	344.517
0.0105853 	344.506
0.0106355 	344.495
0.0106856 	344.483
0.0107358 	344.472
0.010786 	344.46
0.0108361 	344.448
0.0108863 	344.436
0.0109365 	344.424
0.0109866 	344.411
0.0110368 	344.399
0.011087 	344.386
0.0111371 	344.372
0.0111873 	344.359
0.0112375 	344.345
0.0112876 	344.331
0.0113378 	344.317
0.011388 	344.302
0.0114381 	344.287
0.0114883 	344.272
0.0115385 	344.257
0.0115886 	344.241
0.0116388 	344.225
0.011689 	344.208
0.0117391 	344.192
0.0117893 	344.175
0.0118395 	344.157
0.0118896 	344.139
0.0119398 	344.121
0.01199 	344.102
0.0120401 	344.083
0.0120903 	344.064
0.0121405 	344.044
0.0121906 	344.023
0.0122408 	344.002
0.012291 	343.98
0.0123411 	343.958
0.0123913 	343.935
0.0124415 	343.912
0.0124916 	343.887
0.0125418 	343.862
0.012592 	343.837
0.0126421 	343.81
0.0126923 	343.783
0.0127425 	343.754
0.0127926 	343.725
0.0128428 	343.694
0.012893 	343.663
0.0129431 	343.629
0.0129933 	343.595
0.0130435 	343.558
0.0130936 	343.519
0.0131438 	343.479
0.013194 	343.435
0.0132441 	343.389
0.0132943 	343.341
0.0133445 	343.29
0.0133946 	343.235
0.0134448 	343.178
0.013495 	343.119
0.0135452 	343.054
0.0135953 	342.986
0.0136455 	342.914
0.0136957 	342.835
0.0137458 	342.749
0.013796 	342.656
0.0138462 	342.555
0.0138963 	342.446
0.0139465 	342.321
0.0139967 	342.183
0.0140468 	342.03
0.014097 	341.857
0.0141472 	341.66
0.0141973 	341.432
0.0142475 	341.158
0.0142977 	340.827
0.0143478 	340.415
0.014398 	339.885
0.0144482 	339.182
0.0144983 	338.228
0.0145485 	336.933
0.0145987 	335.215
0.0146488 	333.049
0.014699 	330.505
0.0147492 	327.714
0.0147993 	324.801
0.0148495 	321.85
0.0148997 	318.894
0.0149498 	315.947
0.015 	313
