0 	0 	0 	0
5.01672e-05 	-2.17751e-05 	-4.44287e-06 	0.0203383
0.000100334 	-4.35501e-05 	-8.88574e-06 	0.0406766
0.000150502 	-6.53252e-05 	-1.33286e-05 	0.0610149
0.000200669 	-8.71002e-05 	-1.77715e-05 	0.0813531
0.000250836 	-0.000108875 	-2.22144e-05 	0.101691
0.000301003 	-0.00013065 	-2.66572e-05 	0.12203
0.000351171 	-0.000150444 	-3.18065e-05 	0.140262
0.000401338 	-0.000162744 	-3.96271e-05 	0.150528
0.000451505 	-0.000175044 	-4.74477e-05 	0.160794
0.000501672 	-0.000187344 	-5.52683e-05 	0.17106
0.000551839 	-0.000199645 	-6.30889e-05 	0.181326
0.000602007 	-0.000211945 	-7.09095e-05 	0.191593
0.000652174 	-0.000224245 	-7.87301e-05 	0.201859
0.000702341 	-0.000236545 	-8.65507e-05 	0.212125
0.000752508 	-0.000246117 	-9.45994e-05 	0.22096
0.000802676 	-0.000248924 	-0.000103214 	0.226247
0.000852843 	-0.000251731 	-0.000111828 	0.231533
0.00090301 	-0.000254538 	-0.000120442 	0.236819
0.000953177 	-0.000257345 	-0.000129057 	0.242106
0.00100334 	-0.000260151 	-0.000137671 	0.247392
0.00105351 	-0.000262958 	-0.000146285 	0.252678
0.00110368 	-0.000265765 	-0.0001549 	0.257965
0.00115385 	-0.000268572 	-0.000163514 	0.263251
0.00120401 	-0.000271182 	-0.000172087 	0.268432
0.00125418 	-0.000269748 	-0.000179825 	0.271446
0.00130435 	-0.000268314 	-0.000187563 	0.274459
0.00135452 	-0.000266881 	-0.0001953 	0.277473
0.00140468 	-0.000265447 	-0.000203038 	0.280487
0.00145485 	-0.000264013 	-0.000210775 	0.2835
0.00150502 	-0.000262579 	-0.000218513 	0.286514
0.00155518 	-0.000261145 	-0.000226251 	0.289528
0.00160535 	-0.000259711 	-0.000233988 	0.292542
0.00165552 	-0.000258278 	-0.000241726 	0.295555
0.00170569 	-0.000256844 	-0.000249463 	0.298569
0.00175585 	-0.000255157 	-0.000256802 	0.301294
0.00180602 	-0.000252776 	-0.000263045 	0.303224
0.00185619 	-0.000250394 	-0.000269288 	0.305154
0.00190635 	-0.000248012 	-0.000275531 	0.307085
0.00195652 	-0.00024563 	-0.000281773 	0.309015
0.00200669 	-0.000243249 	-0.000288016 	0.310945
0.00205686 	-0.000240867 	-0.000294259 	0.312876
0.00210702 	-0.000238485 	-0.000300502 	0.314806
0.00215719 	-0.000236103 	-0.000306744 	0.316736
0.00220736 	-0.000233722 	-0.000312987 	0.318666
0.00225753 	-0.00023134 	-0.00031923 	0.320597
0.00230769 	-0.000228958 	-0.000325473 	0.322527
0.00235786 	-0.000226576 	-0.000331715 	0.324457
0.00240803 	-0.00022443 	-0.000336806 	0.325955
0.00245819 	-0.000222388 	-0.000341384 	0.327259
0.00250836 	-0.000220346 	-0.000345961 	0.328564
0.00255853 	-0.000218305 	-0.000350539 	0.329869
0.0026087 	-0.000216263 	-0.000355116 	0.331173
0.00265886 	-0.000214222 	-0.000359694 	0.332478
0.00270903 	-0.00021218 	-0.000364271 	0.333783
0.0027592 	-0.000210138 	-0.000368849 	0.335087
0.00280936 	-0.000208097 	-0.000373426 	0.336392
0.00285953 	-0.000206055 	-0.000378004 	0.337696
0.0029097 	-0.000204013 	-0.000382581 	0.339001
0.00295987 	-0.000201972 	-0.000387159 	0.340306
0.00301003 	-0.00019993 	-0.000391736 	0.34161
0.0030602 	-0.000197888 	-0.000396314 	0.342915
0.00311037 	-0.00019586 	-0.000400861 	0.34421
0.00316054 	-0.00019443 	-0.000404102 	0.345086
0.0032107 	-0.000192999 	-0.000407343 	0.345963
0.00326087 	-0.000191569 	-0.000410584 	0.346839
0.00331104 	-0.000190139 	-0.000413824 	0.347716
0.0033612 	-0.000188708 	-0.000417065 	0.348592
0.00341137 	-0.000187278 	-0.000420306 	0.349469
0.00346154 	-0.000185847 	-0.000423547 	0.350345
0.00351171 	-0.000184417 	-0.000426787 	0.351222
0.00356187 	-0.000182986 	-0.000430028 	0.352099
0.00361204 	-0.000181556 	-0.000433269 	0.352975
0.00366221 	-0.000180125 	-0.00043651 	0.353852
0.00371237 	-0.000178695 	-0.00043975 	0.354728
0.00376254 	-0.000177264 	-0.000442991 	0.355605
0.00381271 	-0.000175834 	-0.000446232 	0.356481
0.00386288 	-0.000174403 	-0.000449473 	0.357358
0.00391304 	-0.000172973 	-0.000452713 	0.358234
0.00396321 	-0.000171542 	-0.000455954 	0.359111
0.00401338 	-0.000170511 	-0.000458353 	0.35969
0.00406355 	-0.000169519 	-0.000460669 	0.360239
0.00411371 	-0.000168527 	-0.000462984 	0.360789
0.00416388 	-0.000167535 	-0.0004653 	0.361339
0.00421405 	-0.000166543 	-0.000467616 	0.361889
0.00426421 	-0.000165551 	-0.000469932 	0.362439
0.00431438 	-0.000164559 	-0.000472248 	0.362988
0.00436455 	-0.000163567 	-0.000474564 	0.363538
0.00441472 	-0.000162576 	-0.00047688 	0.364088
0.00446488 	-0.000161584 	-0.000479196 	0.364638
0.00451505 	-0.000160592 	-0.000481512 	0.365187
0.00456522 	-0.0001596 	-0.000483828 	0.365737
0.00461538 	-0.000158608 	-0.000486144 	0.366287
0.00466555 	-0.000157616 	-0.000488459 	0.366837
0.00471572 	-0.000156624 	-0.000490775 	0.367387
0.00476589 	-0.000155632 	-0.000493091 	0.367936
0.00481605 	-0.00015464 	-0.000495407 	0.368486
0.00486622 	-0.000153648 	-0.000497723 	0.369036
0.00491639 	-0.000152656 	-0.000500039 	0.369586
0.00496656 	-0.000151664 	-0.000502355 	0.370136
0.00501672 	-0.000150877 	-0.000503954 	0.370436
0.00506689 	-0.000150101 	-0.000505515 	0.370724
0.00511706 	-0.000149325 	-0.000507075 	0.371011
0.00516722 	-0.000148549 	-0.000508636 	0.371298
0.00521739 	-0.000147773 	-0.000510196 	0.371585
0.00526756 	-0.000146997 	-0.000511757 	0.371873
0.00531773 	-0.000146221 	-0.000513318 	0.37216
0.00536789 	-0.000145445 	-0.000514878 	0.372447
0.00541806 	-0.000144669 	-0.000516439 	0.372735
0.00546823 	-0.000143893 	-0.000517999 	0.373022
0.00551839 	-0.000143117 	-0.00051956 	0.373309
0.00556856 	-0.000142341 	-0.000521121 	0.373597
0.00561873 	-0.000141565 	-0.000522681 	0.373884
0.0056689 	-0.000140789 	-0.000524242 	0.374171
0.00571906 	-0.000140013 	-0.000525802 	0.374459
0.00576923 	-0.000139237 	-0.000527363 	0.374746
0.0058194 	-0.000138461 	-0.000528924 	0.375033
0.00586957 	-0.000137685 	-0.000530484 	0.375321
0.00591973 	-0.000136909 	-0.000532045 	0.375608
0.0059699 	-0.000136133 	-0.000533606 	0.375895
0.00602007 	-0.000135357 	-0.000535166 	0.376182
0.00607023 	-0.000134581 	-0.000536727 	0.37647
0.0061204 	-0.000133805 	-0.000538287 	0.376757
0.00617057 	-0.000133126 	-0.000539334 	0.376898
0.00622074 	-0.000132496 	-0.00054012 	0.376965
0.0062709 	-0.000131866 	-0.000540905 	0.377032
0.00632107 	-0.000131236 	-0.000541691 	0.377099
0.00637124 	-0.000130606 	-0.000542477 	0.377166
0.0064214 	-0.000129976 	-0.000543263 	0.377233
0.00647157 	-0.000129346 	-0.000544049 	0.3773
0.00652174 	-0.000128716 	-0.000544834 	0.377368
0.00657191 	-0.000128087 	-0.00054562 	0.377435
0.00662207 	-0.000127457 	-0.000546406 	0.377502
0.00667224 	-0.000126827 	-0.000547192 	0.377569
0.00672241 	-0.000126197 	-0.000547977 	0.377636
0.00677258 	-0.000125567 	-0.000548763 	0.377703
0.00682274 	-0.000124937 	-0.000549549 	0.37777
0.00687291 	-0.000124307 	-0.000550335 	0.377837
0.00692308 	-0.000123677 	-0.00055112 	0.377904
0.00697324 	-0.000123047 	-0.000551906 	0.377971
0.00702341 	-0.000122417 	-0.000552692 	0.378038
0.00707358 	-0.000121787 	-0.000553478 	0.378105
0.00712375 	-0.000121157 	-0.000554263 	0.378172
0.00717391 	-0.000120527 	-0.000555049 	0.378239
0.00722408 	-0.000119897 	-0.000555835 	0.378306
0.00727425 	-0.000119267 	-0.000556621 	0.378373
0.00732441 	-0.000118637 	-0.000557407 	0.37844
0.00737458 	-0.000118007 	-0.000558192 	0.378507
0.00742475 	-0.000117377 	-0.000558978 	0.378574
0.00747492 	-0.000116747 	-0.000559764 	0.378641
0.00752508 	-0.000116174 	-0.000560165 	0.378609
0.00757525 	-0.000115659 	-0.000560183 	0.378478
0.00762542 	-0.000115144 	-0.0005602 	0.378347
0.00767559 	-0.000114629 	-0.000560218 	0.378216
0.00772575 	-0.000114113 	-0.000560235 	0.378085
0.00777592 	-0.000113598 	-0.000560253 	0.377953
0.00782609 	-0.000113083 	-0.00056027 	0.377822
0.00787625 	-0.000112568 	-0.000560288 	0.377691
0.00792642 	-0.000112052 	-0.000560305 	0.37756
0.00797659 	-0.000111537 	-0.000560323 	0.377429
0.00802676 	-0.000111022 	-0.00056034 	0.377298
0.00807692 	-0.000110507 	-0.000560358 	0.377167
0.00812709 	-0.000109991 	-0.000560375 	0.377036
0.00817726 	-0.000109476 	-0.000560393 	0.376904
0.00822742 	-0.000108961 	-0.00056041 	0.376773
0.00827759 	-0.000108446 	-0.000560428 	0.376642
0.00832776 	-0.00010793 	-0.000560445 	0.376511
0.00837793 	-0.000107415 	-0.000560463 	0.37638
0.00842809 	-0.0001069 	-0.00056048 	0.376249
0.00847826 	-0.000106385 	-0.000560498 	0.376118
0.00852843 	-0.000105869 	-0.000560515 	0.375986
0.0085786 	-0.000105354 	-0.000560533 	0.375855
0.00862876 	-0.000104839 	-0.00056055 	0.375724
0.00867893 	-0.000104324 	-0.000560568 	0.375593
0.0087291 	-0.000103808 	-0.000560585 	0.375462
0.00877926 	-0.000103293 	-0.000560603 	0.375331
0.00882943 	-0.000102778 	-0.00056062 	0.3752
0.0088796 	-0.000102316 	-0.000560322 	0.374988
0.00892977 	-0.00010196 	-0.0005594 	0.374617
0.00897993 	-0.000101604 	-0.000558478 	0.374246
0.0090301 	-0.000101248 	-0.000557556 	0.373875
0.00908027 	-0.000100892 	-0.000556635 	0.373504
0.00913043 	-0.000100536 	-0.000555713 	0.373133
0.0091806 	-0.00010018 	-0.000554791 	0.372762
0.00923077 	-9.98235e-05 	-0.000553869 	0.372391
0.00928094 	-9.94674e-05 	-0.000552947 	0.37202
0.0093311 	-9.91114e-05 	-0.000552026 	0.371649
0.00938127 	-9.87553e-05 	-0.000551104 	0.371278
0.00943144 	-9.83992e-05 	-0.000550182 	0.370907
0.00948161 	-9.80431e-05 	-0.00054926 	0.370536
0.00953177 	-9.7687e-05 	-0.000548338 	0.370165
0.00958194 	-9.73309e-05 	-0.000547417 	0.369794
0.00963211 	-9.69748e-05 	-0.000546495 	0.369424
0.00968227 	-9.66188e-05 	-0.000545573 	0.369053
0.00973244 	-9.62627e-05 	-0.000544651 	0.368682
0.00978261 	-9.59066e-05 	-0.00054373 	0.368311
0.00983278 	-9.55505e-05 	-0.000542808 	0.36794
0.00988294 	-9.51944e-05 	-0.000541886 	0.367569
0.00993311 	-9.48383e-05 	-0.000540964 	0.367198
0.00998328 	-9.44822e-05 	-0.000540042 	0.366827
0.0100334 	-9.41436e-05 	-0.000539065 	0.366442
0.0100836 	-9.41305e-05 	-0.000537042 	0.365787
0.0101338 	-9.41174e-05 	-0.000535019 	0.365133
0.0101839 	-9.41044e-05 	-0.000532997 	0.364478
0.0102341 	-9.40913e-05 	-0.000530974 	0.363824
0.0102843 	-9.40782e-05 	-0.000528952 	0.36317
0.0103344 	-9.40651e-05 	-0.000526929 	0.362515
0.0103846 	-9.40521e-05 	-0.000524906 	0.361861
0.0104348 	-9.4039e-05 	-0.000522884 	0.361206
0.0104849 	-9.40259e-05 	-0.000520861 	0.360552
0.0105351 	-9.40128e-05 	-0.000518838 	0.359898
0.0105853 	-9.39998e-05 	-0.000516816 	0.359243
0.0106355 	-9.39867e-05 	-0.000514793 	0.358589
0.0106856 	-9.39736e-05 	-0.000512771 	0.357934
0.0107358 	-9.39605e-05 	-0.000510748 	0.35728
0.010786 	-9.39475e-05 	-0.000508725 	0.356625
0.0108361 	-9.39344e-05 	-0.000506703 	0.355971
0.0108863 	-9.39213e-05 	-0.00050468 	0.355317
0.0109365 	-9.39082e-05 	-0.000502657 	0.354662
0.0109866 	-9.38951e-05 	-0.000500635 	0.354008
0.0110368 	-9.39369e-05 	-0.00049847 	0.353321
0.011087 	-9.4538e-05 	-0.000494854 	0.352299
0.0111371 	-9.51391e-05 	-0.000491238 	0.351278
0.0111873 	-9.57402e-05 	-0.000487623 	0.350257
0.0112375 	-9.63413e-05 	-0.000484007 	0.349235
0.0112876 	-9.69424e-05 	-0.000480391 	0.348214
0.0113378 	-9.75435e-05 	-0.000476775 	0.347192
0.011388 	-9.81446e-05 	-0.00047316 	0.346171
0.0114381 	-9.87457e-05 	-0.000469544 	0.34515
0.0114883 	-9.93468e-05 	-0.000465928 	0.344128
0.0115385 	-9.99479e-05 	-0.000462312 	0.343107
0.0115886 	-0.000100549 	-0.000458697 	0.342085
0.0116388 	-0.00010115 	-0.000455081 	0.341064
0.011689 	-0.000101751 	-0.000451465 	0.340043
0.0117391 	-0.000102352 	-0.000447849 	0.339021
0.0117893 	-0.000102953 	-0.000444234 	0.338
0.0118395 	-0.000103554 	-0.000440618 	0.336979
0.0118896 	-0.000104156 	-0.000437002 	0.335957
0.0119398 	-0.000105625 	-0.000430899 	0.334399
0.01199 	-0.000107115 	-0.000424739 	0.332829
0.0120401 	-0.000108605 	-0.000418578 	0.331258
0.0120903 	-0.000110094 	-0.000412418 	0.329688
0.0121405 	-0.000111584 	-0.000406258 	0.328117
0.0121906 	-0.000113074 	-0.000400097 	0.326547
0.0122408 	-0.000114563 	-0.000393937 	0.324976
0.012291 	-0.000116053 	-0.000387776 	0.323406
0.0123411 	-0.000117543 	-0.000381616 	0.321835
0.0123913 	-0.000119033 	-0.000375456 	0.320265
0.0124415 	-0.000120522 	-0.000369295 	0.318694
0.0124916 	-0.000122012 	-0.000363135 	0.317124
0.0125418 	-0.000123502 	-0.000356974 	0.315553
0.012592 	-0.000124991 	-0.000350814 	0.313983
0.0126421 	-0.000126731 	-0.000343692 	0.312129
0.0126923 	-0.000129031 	-0.000334411 	0.309637
0.0127425 	-0.00013133 	-0.000325131 	0.307146
0.0127926 	-0.00013363 	-0.000315851 	0.304655
0.0128428 	-0.00013593 	-0.00030657 	0.302164
0.012893 	-0.000138229 	-0.00029729 	0.299673
0.0129431 	-0.000140529 	-0.00028801 	0.297182
0.0129933 	-0.000142829 	-0.000278729 	0.294691
0.0130435 	-0.000145129 	-0.000269449 	0.2922
0.0130936 	-0.000147428 	-0.000260169 	0.289709
0.0131438 	-0.000149728 	-0.000250888 	0.287218
0.013194 	-0.000152028 	-0.000241608 	0.284726
0.0132441 	-0.000154327 	-0.000232328 	0.282235
0.0132943 	-0.000156326 	-0.000221455 	0.278532
0.0133445 	-0.000158214 	-0.000210003 	0.274388
0.0133946 	-0.000160103 	-0.000198551 	0.270243
0.0134448 	-0.000161992 	-0.000187099 	0.266099
0.013495 	-0.000163881 	-0.000175647 	0.261955
0.0135452 	-0.00016577 	-0.000164195 	0.257811
0.0135953 	-0.000167658 	-0.000152743 	0.253666
0.0136455 	-0.000169547 	-0.000141291 	0.249522
0.0136957 	-0.000171436 	-0.000129839 	0.245378
0.0137458 	-0.000173325 	-0.000118387 	0.241234
0.013796 	-0.000175213 	-0.000106936 	0.237089
0.0138462 	-0.000173219 	-9.70964e-05 	0.229652
0.0138963 	-0.000171036 	-8.73358e-05 	0.222053
0.0139465 	-0.000168853 	-7.75752e-05 	0.214455
0.0139967 	-0.00016667 	-6.78146e-05 	0.206857
0.0140468 	-0.000164486 	-5.8054e-05 	0.199259
0.014097 	-0.000162303 	-4.82934e-05 	0.191661
0.0141472 	-0.00016012 	-3.85328e-05 	0.184063
0.0141973 	-0.000157937 	-2.87722e-05 	0.176465
0.0142475 	-0.000155754 	-1.90116e-05 	0.168867
0.0142977 	-0.000148342 	-1.38918e-05 	0.158322
0.0143478 	-0.000138823 	-1.06437e-05 	0.146588
0.014398 	-0.000129303 	-7.39549e-06 	0.134855
0.0144482 	-0.000119783 	-4.14733e-06 	0.123122
0.0144983 	-0.000110264 	-8.99172e-07 	0.111389
0.0145485 	-0.000100744 	2.34899e-06 	0.0996553
0.0145987 	-9.12246e-05 	5.59715e-06 	0.087922
0.0146488 	-8.17049e-05 	8.84531e-06 	0.0761887
0.014699 	-7.04306e-05 	8.41539e-06 	0.0651477
0.0147492 	-5.86921e-05 	7.01282e-06 	0.0542897
0.0147993 	-4.69537e-05 	5.61026e-06 	0.0434318
0.0148495 	-3.52153e-05 	4.20769e-06 	0.0325738
0.0148997 	-2.34769e-05 	2.80513e-06 	0.0217159
0.0149498 	-1.17384e-05 	1.40256e-06 	0.0108579
0.015 	0 	0 	0
