0 	0 	0 	0
0 	1.1387e-34 	-2.92422e-36 	1.84982e-31
5.01672e-05 	1.06344e-05 	-3.27079e-07 	0.0172498
5.01672e-05 	1.06344e-05 	-3.27079e-07 	0.0172498
0.000100334 	2.05971e-05 	-1.12542e-06 	0.0331297
0.000150502 	3.01209e-05 	-2.45796e-06 	0.0478171
0.000150502 	3.01209e-05 	-2.45796e-06 	0.0478171
0.000200669 	3.92468e-05 	-4.32447e-06 	0.0614077
0.000200669 	3.92468e-05 	-4.32447e-06 	0.0614077
0.000250836 	4.79324e-05 	-6.71292e-06 	0.0739911
0.000301003 	5.61451e-05 	-9.60689e-06 	0.0856478
0.000301003 	5.61451e-05 	-9.60689e-06 	0.0856478
0.000351171 	6.38618e-05 	-1.29931e-05 	0.096437
0.000401338 	7.10572e-05 	-1.68675e-05 	0.106393
0.000451505 	7.77095e-05 	-2.12412e-05 	0.115537
0.000451505 	7.77095e-05 	-2.12412e-05 	0.115537
0.000501672 	8.38106e-05 	-2.61396e-05 	0.123896
0.000551839 	8.93717e-05 	-3.15926e-05 	0.131513
0.000551839 	8.93717e-05 	-3.15926e-05 	0.131513
0.000602007 	9.44204e-05 	-3.76235e-05 	0.138444
0.000602007 	9.44204e-05 	-3.76235e-05 	0.138444
0.000652174 	9.89952e-05 	-4.42456e-05 	0.144753
0.000652174 	9.89952e-05 	-4.42456e-05 	0.144753
0.000702341 	0.00010314 	-5.14657e-05 	0.150509
0.000702341 	0.00010314 	-5.14657e-05 	0.150509
0.000752508 	0.0001069 	-5.92905e-05 	0.155775
0.000802676 	0.000110314 	-6.773e-05 	0.160607
0.000852843 	0.000113373 	-7.68803e-05 	0.164999
0.000852843 	0.000113373 	-7.68803e-05 	0.164999
0.00090301 	0.000116159 	-8.66179e-05 	0.169058
0.00090301 	0.000116159 	-8.66179e-05 	0.169058
0.000953177 	0.000118703 	-9.68952e-05 	0.172824
0.00100334 	0.000121033 	-0.000107661 	0.176332
0.00100334 	0.000121033 	-0.000107661 	0.176332
0.00105351 	0.000123172 	-0.000118866 	0.179612
0.00105351 	0.000123172 	-0.000118866 	0.179612
0.00110368 	0.000125139 	-0.000130471 	0.182687
0.00115385 	0.000126911 	-0.000142521 	0.185535
0.00120401 	0.000128553 	-0.000154859 	0.188232
0.00120401 	0.000128553 	-0.000154859 	0.188232
0.00130435 	0.000131498 	-0.000180257 	0.193236
0.00130435 	0.000131498 	-0.000180257 	0.193236
0.00135452 	0.000132792 	-0.000193303 	0.195534
0.00135452 	0.000132792 	-0.000193303 	0.195534
0.00140468 	0.00013399 	-0.000206509 	0.197724
0.00145485 	0.000135114 	-0.000219821 	0.199829
0.00145485 	0.000135114 	-0.000219821 	0.199829
0.00150502 	0.000136169 	-0.000233221 	0.201858
0.00150502 	0.000136169 	-0.000233221 	0.201858
0.00155518 	0.000137128 	-0.000246703 	0.20378
0.00155518 	0.000137128 	-0.000246703 	0.20378
0.00160535 	0.000138032 	-0.000260199 	0.205642
0.00160535 	0.000138032 	-0.000260199 	0.205642
0.00165552 	0.000138888 	-0.000273695 	0.207451
0.00165552 	0.000138888 	-0.000273695 	0.207451
0.00170569 	0.000139679 	-0.000287152 	0.20919
0.00170569 	0.000139679 	-0.000287152 	0.20919
0.00175585 	0.000140419 	-0.000300523 	0.210874
0.00175585 	0.000140419 	-0.000300523 	0.210874
0.00180602 	0.000141124 	-0.000313817 	0.21252
0.00180602 	0.000141124 	-0.000313817 	0.21252
0.00185619 	0.00014178 	-0.000326969 	0.214113
0.00185619 	0.00014178 	-0.000326969 	0.214113
0.00190635 	0.000142395 	-0.000339939 	0.215661
0.00190635 	0.000142395 	-0.000339939 	0.215661
0.00195652 	0.000142984 	-0.000352783 	0.217181
0.00195652 	0.000142984 	-0.000352783 	0.217181
0.00200669 	0.000143529 	-0.000365367 	0.218654
0.00200669 	0.000143529 	-0.000365367 	0.218654
0.00205686 	0.000144046 	-0.000377723 	0.220095
0.00210702 	0.000144544 	-0.000389927 	0.221515
0.00210702 	0.000144544 	-0.000389927 	0.221515
0.00215719 	0.000144999 	-0.000401702 	0.222886
0.00220736 	0.000145438 	-0.000413289 	0.224239
0.00225753 	0.000145854 	-0.000424577 	0.225565
0.00225753 	0.000145854 	-0.000424577 	0.225565
0.00230769 	0.000146242 	-0.000435473 	0.226858
0.00230769 	0.000146242 	-0.000435473 	0.226858
0.00235786 	0.00014662 	-0.000446197 	0.228138
0.00235786 	0.00014662 	-0.000446197 	0.228138
0.00240803 	0.000146965 	-0.000456367 	0.229379
0.00240803 	0.000146965 	-0.000456367 	0.229379
0.00245819 	0.0001473 	-0.000466331 	0.230607
0.00245819 	0.0001473 	-0.000466331 	0.230607
0.00250836 	0.000147615 	-0.000475881 	0.231807
0.00250836 	0.000147615 	-0.000475881 	0.231807
0.00255853 	0.000147912 	-0.000485048 	0.232985
0.0026087 	0.000148198 	-0.000493945 	0.234147
0.0026087 	0.000148198 	-0.000493945 	0.234147
0.00265886 	0.000148462 	-0.000502292 	0.235279
0.00270903 	0.000148721 	-0.000510508 	0.236402
0.00270903 	0.000148721 	-0.000510508 	0.236402
0.0027592 	0.000148955 	-0.000518021 	0.237488
0.00280936 	0.000149185 	-0.000525419 	0.238569
0.00280936 	0.000149185 	-0.000525419 	0.238569
0.00285953 	0.000149396 	-0.000532208 	0.239617
0.00285953 	0.000149396 	-0.000532208 	0.239617
0.0029097 	0.0001496 	-0.000538788 	0.240655
0.0029097 	0.0001496 	-0.000538788 	0.240655
0.00295987 	0.000149789 	-0.000544841 	0.241665
0.00295987 	0.000149789 	-0.000544841 	0.241665
0.00301003 	0.00014997 	-0.000550618 	0.242662
0.0030602 	0.000150138 	-0.000555938 	0.243636
0.00311037 	0.000150298 	-0.000560948 	0.244593
0.00311037 	0.000150298 	-0.000560948 	0.244593
0.00316054 	0.000150447 	-0.000565554 	0.245529
0.00316054 	0.000150447 	-0.000565554 	0.245529
0.00326087 	0.000150718 	-0.000573782 	0.247346
0.00326087 	0.000150718 	-0.000573782 	0.247346
0.00331104 	0.000150841 	-0.000577433 	0.248227
0.0033612 	0.000150954 	-0.000580738 	0.249088
0.0033612 	0.000150954 	-0.000580738 	0.249088
0.00341137 	0.00015106 	-0.000583819 	0.249933
0.00341137 	0.00015106 	-0.000583819 	0.249933
0.00346154 	0.000151156 	-0.000586559 	0.250756
0.00346154 	0.000151156 	-0.000586559 	0.250756
0.00351171 	0.000151247 	-0.000589143 	0.251566
0.00356187 	0.000151328 	-0.000591385 	0.25235
0.00356187 	0.000151328 	-0.000591385 	0.25235
0.00361204 	0.000151406 	-0.000593545 	0.253127
0.00366221 	0.000151472 	-0.000595354 	0.253874
0.00366221 	0.000151472 	-0.000595354 	0.253874
0.00371237 	0.000151538 	-0.000597152 	0.254621
0.00371237 	0.000151538 	-0.000597152 	0.254621
0.00376254 	0.00015159 	-0.000598582 	0.255334
0.00376254 	0.00015159 	-0.000598582 	0.255334
0.00381271 	0.000151643 	-0.000600012 	0.256048
0.00381271 	0.000151643 	-0.000600012 	0.256048
0.00386288 	0.000151684 	-0.000601165 	0.256734
0.00391304 	0.000151723 	-0.000602261 	0.257415
0.00391304 	0.000151723 	-0.000602261 	0.257415
0.00396321 	0.000151753 	-0.000603181 	0.258077
0.00401338 	0.000151777 	-0.000603981 	0.258726
0.00401338 	0.000151777 	-0.000603981 	0.258726
0.00406355 	0.000151798 	-0.000604699 	0.259364
0.00406355 	0.000151798 	-0.000604699 	0.259364
0.00411371 	0.000151808 	-0.000605239 	0.259981
0.00411371 	0.000151808 	-0.000605239 	0.259981
0.00421405 	0.000151813 	-0.000606101 	0.261181
0.00421405 	0.000151813 	-0.000606101 	0.261181
0.00426421 	0.000151809 	-0.00060642 	0.261764
0.00426421 	0.000151809 	-0.00060642 	0.261764
0.00431438 	0.000151795 	-0.000606626 	0.262327
0.00431438 	0.000151795 	-0.000606626 	0.262327
0.00436455 	0.000151775 	-0.000606764 	0.262878
0.00436455 	0.000151775 	-0.000606764 	0.262878
0.00441472 	0.000151752 	-0.00060687 	0.263421
0.00441472 	0.000151752 	-0.00060687 	0.263421
0.00446488 	0.000151717 	-0.000606867 	0.263939
0.00446488 	0.000151717 	-0.000606867 	0.263939
0.00451505 	0.000151681 	-0.000606863 	0.264457
0.00451505 	0.000151681 	-0.000606863 	0.264457
0.00456522 	0.000151633 	-0.000606779 	0.264949
0.00456522 	0.000151633 	-0.000606779 	0.264949
0.00461538 	0.000151582 	-0.000606672 	0.265434
0.00461538 	0.000151582 	-0.000606672 	0.265434
0.00466555 	0.000151526 	-0.000606546 	0.26591
0.00471572 	0.000151458 	-0.000606373 	0.266362
0.00476589 	0.00015139 	-0.0006062 	0.266814
0.00476589 	0.00015139 	-0.0006062 	0.266814
0.00486622 	0.000151224 	-0.000605798 	0.26766
0.00486622 	0.000151224 	-0.000605798 	0.26766
0.00491639 	0.000151136 	-0.000605594 	0.268073
0.00496656 	0.000151034 	-0.000605388 	0.268459
0.00496656 	0.000151034 	-0.000605388 	0.268459
0.00501672 	0.000150931 	-0.000605182 	0.268845
0.00506689 	0.000150819 	-0.00060499 	0.269213
0.00511706 	0.000150699 	-0.000604809 	0.269566
0.00511706 	0.000150699 	-0.000604809 	0.269566
0.00521739 	0.000150443 	-0.000604486 	0.270243
0.00521739 	0.000150443 	-0.000604486 	0.270243
0.00526756 	0.000150305 	-0.00060435 	0.270564
0.00526756 	0.000150305 	-0.00060435 	0.270564
0.00531773 	0.000150164 	-0.000604223 	0.27088
0.00536789 	0.000150008 	-0.000604145 	0.271168
0.00536789 	0.000150008 	-0.000604145 	0.271168
0.00541806 	0.000149852 	-0.000604068 	0.271456
0.00546823 	0.000149689 	-0.000604016 	0.271732
0.00551839 	0.000149515 	-0.000604005 	0.271989
0.00551839 	0.000149515 	-0.000604005 	0.271989
0.00556856 	0.000149341 	-0.000603994 	0.272245
0.00556856 	0.000149341 	-0.000603994 	0.272245
0.0056689 	0.000148965 	-0.000604078 	0.27271
0.0056689 	0.000148965 	-0.000604078 	0.27271
0.00571906 	0.000148773 	-0.000604134 	0.272936
0.00576923 	0.000148569 	-0.000604234 	0.27314
0.00576923 	0.000148569 	-0.000604234 	0.27314
0.0058194 	0.000148359 	-0.000604353 	0.273336
0.0058194 	0.000148359 	-0.000604353 	0.273336
0.00591973 	0.000147925 	-0.00060463 	0.273704
0.00591973 	0.000147925 	-0.00060463 	0.273704
0.0059699 	0.000147697 	-0.0006048 	0.27387
0.0059699 	0.000147697 	-0.0006048 	0.27387
0.00602007 	0.000147468 	-0.000604969 	0.274036
0.00607023 	0.000147225 	-0.000605165 	0.27418
0.0061204 	0.000146977 	-0.000605367 	0.274317
0.0061204 	0.000146977 	-0.000605367 	0.274317
0.00617057 	0.000146729 	-0.00060557 	0.274455
0.00622074 	0.000146466 	-0.000605783 	0.274572
0.00622074 	0.000146466 	-0.000605783 	0.274572
0.0062709 	0.000146199 	-0.000605998 	0.274683
0.00632107 	0.000145931 	-0.000606214 	0.274794
0.00632107 	0.000145931 	-0.000606214 	0.274794
0.00637124 	0.000145649 	-0.000606425 	0.274886
0.00637124 	0.000145649 	-0.000606425 	0.274886
0.0064214 	0.00014536 	-0.000606634 	0.274971
0.0064214 	0.00014536 	-0.000606634 	0.274971
0.00647157 	0.000145071 	-0.000606842 	0.275055
0.00647157 	0.000145071 	-0.000606842 	0.275055
0.00652174 	0.00014477 	-0.000607032 	0.275125
0.00657191 	0.000144458 	-0.000607206 	0.275184
0.00657191 	0.000144458 	-0.000607206 	0.275184
0.00662207 	0.000144147 	-0.00060738 	0.275243
0.00667224 	0.000143827 	-0.000607538 	0.275292
0.00672241 	0.000143491 	-0.000607665 	0.275326
0.00672241 	0.000143491 	-0.000607665 	0.275326
0.00677258 	0.000143155 	-0.000607792 	0.27536
0.00682274 	0.000142817 	-0.000607914 	0.275391
0.00682274 	0.000142817 	-0.000607914 	0.275391
0.00687291 	0.000142455 	-0.000607985 	0.2754
0.00687291 	0.000142455 	-0.000607985 	0.2754
0.00692308 	0.000142094 	-0.000608056 	0.275409
0.00697324 	0.000141732 	-0.000608128 	0.275417
0.00702341 	0.000141349 	-0.000608135 	0.275407
0.00707358 	0.00014096 	-0.000608125 	0.275392
0.00707358 	0.00014096 	-0.000608125 	0.275392
0.00717391 	0.000140169 	-0.000608073 	0.27535
0.00717391 	0.000140169 	-0.000608073 	0.27535
0.00722408 	0.00013975 	-0.000607988 	0.275311
0.00722408 	0.00013975 	-0.000607988 	0.275311
0.00727425 	0.000139331 	-0.000607904 	0.275271
0.00727425 	0.000139331 	-0.000607904 	0.275271
0.00732441 	0.000138912 	-0.000607819 	0.275231
0.00732441 	0.000138912 	-0.000607819 	0.275231
0.00737458 	0.000138463 	-0.000607638 	0.275167
0.00737458 	0.000138463 	-0.000607638 	0.275167
0.00742475 	0.000138014 	-0.000607456 	0.275103
0.00747492 	0.000137565 	-0.000607274 	0.27504
0.00752508 	0.000137101 	-0.000607028 	0.274964
0.00752508 	0.000137101 	-0.000607028 	0.274964
0.00757525 	0.000136621 	-0.000606719 	0.274876
0.00762542 	0.00013614 	-0.000606409 	0.274788
0.00767559 	0.00013566 	-0.000606099 	0.274699
0.00767559 	0.00013566 	-0.000606099 	0.274699
0.00772575 	0.000135148 	-0.000605675 	0.274587
0.00777592 	0.000134635 	-0.000605252 	0.274475
0.00777592 	0.000134635 	-0.000605252 	0.274475
0.00782609 	0.000134123 	-0.000604828 	0.274362
0.00787625 	0.000133595 	-0.000604327 	0.274237
0.00787625 	0.000133595 	-0.000604327 	0.274237
0.00792642 	0.000133057 	-0.000603771 	0.274101
0.00797659 	0.000132518 	-0.000603214 	0.273965
0.00802676 	0.000131974 	-0.00060263 	0.273824
0.00802676 	0.000131974 	-0.00060263 	0.273824
0.00807692 	0.000131412 	-0.000601944 	0.273665
0.00807692 	0.000131412 	-0.000601944 	0.273665
0.00812709 	0.000130851 	-0.000601258 	0.273506
0.00817726 	0.000130289 	-0.000600571 	0.273347
0.00817726 	0.000130289 	-0.000600571 	0.273347
0.00822742 	0.00012971 	-0.000599786 	0.273167
0.00827759 	0.000129128 	-0.000598989 	0.272985
0.00827759 	0.000129128 	-0.000598989 	0.272985
0.00832776 	0.000128547 	-0.000598192 	0.272803
0.00832776 	0.000128547 	-0.000598192 	0.272803
0.00837793 	0.000127954 	-0.000597319 	0.272606
0.00842809 	0.000127356 	-0.000596405 	0.272401
0.00842809 	0.000127356 	-0.000596405 	0.272401
0.00847826 	0.000126758 	-0.000595491 	0.272196
0.00847826 	0.000126758 	-0.000595491 	0.272196
0.0085786 	0.000125541 	-0.000593494 	0.271753
0.0085786 	0.000125541 	-0.000593494 	0.271753
0.00862876 	0.000124929 	-0.000592465 	0.271525
0.00867893 	0.000124313 	-0.000591399 	0.27129
0.0087291 	0.000123689 	-0.000590256 	0.27104
0.00877926 	0.000123065 	-0.000589113 	0.270789
0.00882943 	0.000122439 	-0.000587944 	0.270533
0.0088796 	0.000121806 	-0.000586689 	0.27026
0.0088796 	0.000121806 	-0.000586689 	0.27026
0.00892977 	0.000121173 	-0.000585434 	0.269987
0.00892977 	0.000121173 	-0.000585434 	0.269987
0.00897993 	0.000120539 	-0.000584156 	0.269709
0.00897993 	0.000120539 	-0.000584156 	0.269709
0.0090301 	0.000119899 	-0.00058279 	0.269413
0.00908027 	0.000119259 	-0.000581425 	0.269117
0.00908027 	0.000119259 	-0.000581425 	0.269117
0.00913043 	0.000118618 	-0.000580033 	0.268815
0.0091806 	0.000117973 	-0.000578557 	0.268496
0.0091806 	0.000117973 	-0.000578557 	0.268496
0.00923077 	0.000117328 	-0.000577081 	0.268177
0.00928094 	0.000116682 	-0.000575571 	0.267851
0.00928094 	0.000116682 	-0.000575571 	0.267851
0.0093311 	0.000116034 	-0.000573984 	0.267509
0.00938127 	0.000115386 	-0.000572397 	0.267166
0.00938127 	0.000115386 	-0.000572397 	0.267166
0.00943144 	0.000114737 	-0.000570761 	0.266814
0.00943144 	0.000114737 	-0.000570761 	0.266814
0.00948161 	0.000114086 	-0.000569062 	0.266448
0.00948161 	0.000114086 	-0.000569062 	0.266448
0.00953177 	0.000113436 	-0.000567364 	0.266082
0.00953177 	0.000113436 	-0.000567364 	0.266082
0.00958194 	0.000112786 	-0.000565595 	0.265702
0.00958194 	0.000112786 	-0.000565595 	0.265702
0.00963211 	0.000112135 	-0.000563783 	0.265312
0.00968227 	0.000111484 	-0.000561971 	0.264923
0.00968227 	0.000111484 	-0.000561971 	0.264923
0.00973244 	0.000110834 	-0.000560061 	0.264513
0.00978261 	0.000110184 	-0.000558133 	0.264099
0.00978261 	0.000110184 	-0.000558133 	0.264099
0.00983278 	0.000109534 	-0.00055619 	0.263682
0.00983278 	0.000109534 	-0.00055619 	0.263682
0.00988294 	0.000108885 	-0.000554143 	0.263244
0.00993311 	0.000108236 	-0.000552096 	0.262806
0.00993311 	0.000108236 	-0.000552096 	0.262806
0.00998328 	0.000107589 	-0.000549993 	0.262356
0.0100334 	0.000106943 	-0.000547822 	0.261893
0.0100836 	0.000106297 	-0.000545651 	0.261429
0.0100836 	0.000106297 	-0.000545651 	0.261429
0.0101338 	0.000105653 	-0.000543374 	0.260945
0.0101839 	0.000105011 	-0.000541075 	0.260456
0.0101839 	0.000105011 	-0.000541075 	0.260456
0.0102341 	0.000104369 	-0.000538743 	0.25996
0.0102341 	0.000104369 	-0.000538743 	0.25996
0.0102843 	0.00010373 	-0.000536309 	0.259445
0.0103344 	0.000103092 	-0.000533875 	0.258929
0.0103344 	0.000103092 	-0.000533875 	0.258929
0.0103846 	0.000102456 	-0.000531341 	0.258394
0.0103846 	0.000102456 	-0.000531341 	0.258394
0.0104348 	0.000101822 	-0.000528766 	0.257852
0.0104348 	0.000101822 	-0.000528766 	0.257852
0.0104849 	0.00010119 	-0.000526159 	0.257303
0.0104849 	0.00010119 	-0.000526159 	0.257303
0.0105351 	0.000100561 	-0.000523434 	0.256733
0.0105853 	9.99322e-05 	-0.00052071 	0.256162
0.0105853 	9.99322e-05 	-0.00052071 	0.256162
0.0106856 	9.8685e-05 	-0.000514983 	0.25497
0.0106856 	9.8685e-05 	-0.000514983 	0.25497
0.0107358 	9.80643e-05 	-0.000512041 	0.254359
0.010786 	9.74474e-05 	-0.000508994 	0.25373
0.010786 	9.74474e-05 	-0.000508994 	0.25373
0.0108361 	9.68306e-05 	-0.000505946 	0.2531
0.0108863 	9.62202e-05 	-0.000502726 	0.25244
0.0108863 	9.62202e-05 	-0.000502726 	0.25244
0.0109365 	9.56098e-05 	-0.000499506 	0.251779
0.0109365 	9.56098e-05 	-0.000499506 	0.251779
0.0109866 	9.50039e-05 	-0.00049616 	0.251097
0.0110368 	9.44002e-05 	-0.000492756 	0.250404
0.0110368 	9.44002e-05 	-0.000492756 	0.250404
0.011087 	9.37993e-05 	-0.000489271 	0.249697
0.011087 	9.37993e-05 	-0.000489271 	0.249697
0.0111371 	9.32025e-05 	-0.000485668 	0.24897
0.0111873 	9.26068e-05 	-0.000482029 	0.248237
0.0111873 	9.26068e-05 	-0.000482029 	0.248237
0.0112375 	9.2017e-05 	-0.000478212 	0.247475
0.0112876 	9.14273e-05 	-0.000474394 	0.246713
0.0112876 	9.14273e-05 	-0.000474394 	0.246713
0.0113378 	9.08438e-05 	-0.000470339 	0.245915
0.0113378 	9.08438e-05 	-0.000470339 	0.245915
0.011388 	9.02605e-05 	-0.000466277 	0.245115
0.0114381 	8.96814e-05 	-0.000461983 	0.244281
0.0114381 	8.96814e-05 	-0.000461983 	0.244281
0.0114883 	8.91033e-05 	-0.000457635 	0.24344
0.0115385 	8.8528e-05 	-0.000453054 	0.242567
0.0115385 	8.8528e-05 	-0.000453054 	0.242567
0.0115886 	8.79538e-05 	-0.000448368 	0.24168
0.0116388 	8.73813e-05 	-0.000443444 	0.240763
0.0116388 	8.73813e-05 	-0.000443444 	0.240763
0.011689 	8.68097e-05 	-0.000438364 	0.239826
0.0117391 	8.62386e-05 	-0.000433037 	0.238859
0.0117893 	8.56677e-05 	-0.00042751 	0.237867
0.0118395 	8.50964e-05 	-0.00042172 	0.236843
0.0118395 	8.50964e-05 	-0.00042172 	0.236843
0.0118896 	8.45245e-05 	-0.000415709 	0.235792
0.0119398 	8.39511e-05 	-0.000409411 	0.234705
0.0119398 	8.39511e-05 	-0.000409411 	0.234705
0.01199 	8.33767e-05 	-0.000402893 	0.233589
0.0120401 	8.27998e-05 	-0.000396052 	0.232431
0.0120401 	8.27998e-05 	-0.000396052 	0.232431
0.0120903 	8.22215e-05 	-0.000389016 	0.231246
0.0120903 	8.22215e-05 	-0.000389016 	0.231246
0.0121906 	8.10555e-05 	-0.000374046 	0.228752
0.0121906 	8.10555e-05 	-0.000374046 	0.228752
0.0122408 	8.04659e-05 	-0.000366044 	0.227428
0.012291 	7.98751e-05 	-0.000357958 	0.226093
0.012291 	7.98751e-05 	-0.000357958 	0.226093
0.0123411 	7.92756e-05 	-0.000349348 	0.224674
0.0123913 	7.8674e-05 	-0.00034064 	0.223238
0.0123913 	7.8674e-05 	-0.00034064 	0.223238
0.0124415 	7.80637e-05 	-0.000331517 	0.221731
0.0124415 	7.80637e-05 	-0.000331517 	0.221731
0.0124916 	7.7448e-05 	-0.000322189 	0.220186
0.0124916 	7.7448e-05 	-0.000322189 	0.220186
0.0125418 	7.68247e-05 	-0.000312573 	0.218586
0.012592 	7.61912e-05 	-0.000302647 	0.216921
0.0126421 	7.55526e-05 	-0.000292569 	0.215223
0.0126421 	7.55526e-05 	-0.000292569 	0.215223
0.0126923 	7.4897e-05 	-0.000282092 	0.213427
0.0127425 	7.42351e-05 	-0.000271497 	0.211596
0.0127425 	7.42351e-05 	-0.000271497 	0.211596
0.0127926 	7.35584e-05 	-0.000260639 	0.209687
0.0128428 	7.28673e-05 	-0.000249599 	0.207708
0.0128428 	7.28673e-05 	-0.000249599 	0.207708
0.0129431 	7.14413e-05 	-0.000227082 	0.203547
0.0129431 	7.14413e-05 	-0.000227082 	0.203547
0.0129933 	7.07034e-05 	-0.000215664 	0.201357
0.0130435 	6.99476e-05 	-0.000204169 	0.199092
0.0130435 	6.99476e-05 	-0.000204169 	0.199092
0.0131438 	6.83653e-05 	-0.000181126 	0.194286
0.0131438 	6.83653e-05 	-0.000181126 	0.194286
0.013194 	6.75394e-05 	-0.000169651 	0.191754
0.0132441 	6.66821e-05 	-0.00015829 	0.189112
0.0132441 	6.66821e-05 	-0.00015829 	0.189112
0.0132943 	6.58024e-05 	-0.000147031 	0.186394
0.0133445 	6.48899e-05 	-0.000135944 	0.183566
0.0133445 	6.48899e-05 	-0.000135944 	0.183566
0.0133946 	6.39362e-05 	-0.000125122 	0.180607
0.0133946 	6.39362e-05 	-0.000125122 	0.180607
0.0134448 	6.29521e-05 	-0.000114513 	0.177554
0.0134448 	6.29521e-05 	-0.000114513 	0.177554
0.013495 	6.19338e-05 	-0.00010415 	0.174397
0.0135452 	6.08558e-05 	-9.42491e-05 	0.171062
0.0135452 	6.08558e-05 	-9.42491e-05 	0.171062
0.0135953 	5.97361e-05 	-8.46777e-05 	0.167607
0.0135953 	5.97361e-05 	-8.46777e-05 	0.167607
0.0136455 	5.85711e-05 	-7.54639e-05 	0.164022
0.0136455 	5.85711e-05 	-7.54639e-05 	0.164022
0.0136957 	5.73472e-05 	-6.67107e-05 	0.160271
0.0136957 	5.73472e-05 	-6.67107e-05 	0.160271
0.0137458 	5.60482e-05 	-5.85378e-05 	0.156314
0.013796 	5.46868e-05 	-5.08393e-05 	0.152187
0.013796 	5.46868e-05 	-5.08393e-05 	0.152187
0.0138462 	5.32578e-05 	-4.36449e-05 	0.147879
0.0138462 	5.32578e-05 	-4.36449e-05 	0.147879
0.0138963 	5.17552e-05 	-3.69842e-05 	0.143374
0.0139465 	5.0146e-05 	-3.10529e-05 	0.138588
0.0139465 	5.0146e-05 	-3.10529e-05 	0.138588
0.0139967 	4.84456e-05 	-2.56993e-05 	0.133563
0.0139967 	4.84456e-05 	-2.56993e-05 	0.133563
0.0140468 	4.6649e-05 	-2.0921e-05 	0.128288
0.0140468 	4.6649e-05 	-2.0921e-05 	0.128288
0.014097 	4.47482e-05 	-1.67249e-05 	0.122743
0.0141472 	4.27348e-05 	-1.3109e-05 	0.116906
0.0141472 	4.27348e-05 	-1.3109e-05 	0.116906
0.0141973 	4.05986e-05 	-1.00548e-05 	0.110749
0.0142475 	3.83022e-05 	-7.59948e-06 	0.104176
0.0142977 	3.5855e-05 	-5.60697e-06 	0.0972122
0.0142977 	3.5855e-05 	-5.60697e-06 	0.0972122
0.0143478 	3.32558e-05 	-4.02972e-06 	0.0898582
0.014398 	3.05127e-05 	-2.82624e-06 	0.0821422
0.014398 	3.05127e-05 	-2.82624e-06 	0.0821422
0.0144482 	2.76477e-05 	-1.9475e-06 	0.0741288
0.0144983 	2.46978e-05 	-1.33588e-06 	0.0659237
0.0144983 	2.46978e-05 	-1.33588e-06 	0.0659237
0.0145485 	2.17142e-05 	-9.28726e-07 	0.0576701
0.0145485 	2.17142e-05 	-9.28726e-07 	0.0576701
0.0145987 	1.87558e-05 	-6.64343e-07 	0.049533
0.0146488 	1.58798e-05 	-4.89213e-07 	0.0416715
0.014699 	1.31307e-05 	-3.63403e-07 	0.0342115
0.014699 	1.31307e-05 	-3.63403e-07 	0.0342115
0.0147492 	1.05362e-05 	-2.62257e-07 	0.0272317
0.0147993 	8.11086e-06 	-1.73577e-07 	0.0207675
0.0147993 	8.11086e-06 	-1.73577e-07 	0.0207675
0.0148495 	5.86748e-06 	-9.82753e-08 	0.0148259
0.0148495 	5.86748e-06 	-9.82753e-08 	0.0148259
0.0148997 	3.81062e-06 	-3.7991e-08 	0.00939855
0.0148997 	3.81062e-06 	-3.7991e-08 	0.00939855
0.0149498 	1.88979e-06 	-1.60441e-09 	0.00446924
0.0149498 	1.88979e-06 	-1.60441e-09 	0.00446924
0.015 	0 	0 	0
0.015 	0 	0 	0
