-0.0075 	0 	0 	0
-0.0075 	2.96788e-36 	-2.54032e-36 	1.85785e-31
-0.00745622 	2.43792e-07 	-2.08671e-07 	0.0152611
-0.00745622 	2.43792e-07 	-2.08671e-07 	0.0152611
-0.00741165 	1.33915e-07 	-7.08628e-07 	0.0297002
-0.00741165 	1.33915e-07 	-7.08628e-07 	0.0297002
-0.00736628 	-6.69909e-08 	-1.57179e-06 	0.0434218
-0.00736628 	-6.69909e-08 	-1.57179e-06 	0.0434218
-0.0073201 	-2.33925e-07 	-2.80617e-06 	0.0564549
-0.0073201 	-2.33925e-07 	-2.80617e-06 	0.0564549
-0.00727309 	-3.81394e-07 	-4.43823e-06 	0.0688252
-0.00727309 	-3.81394e-07 	-4.43823e-06 	0.0688252
-0.00722524 	-5.33895e-07 	-6.47265e-06 	0.0805558
-0.00722524 	-5.33895e-07 	-6.47265e-06 	0.0805558
-0.00717653 	-6.97188e-07 	-8.92209e-06 	0.0916594
-0.00717653 	-6.97188e-07 	-8.92209e-06 	0.0916594
-0.00712695 	-8.72447e-07 	-1.1805e-05 	0.102127
-0.00712695 	-8.72447e-07 	-1.1805e-05 	0.102127
-0.00707647 	-1.05838e-06 	-1.51557e-05 	0.111933
-0.00707647 	-1.05838e-06 	-1.51557e-05 	0.111933
-0.0070251 	-1.25118e-06 	-1.90301e-05 	0.121052
-0.0070251 	-1.25118e-06 	-1.90301e-05 	0.121052
-0.0069728 	-1.44509e-06 	-2.35007e-05 	0.129477
-0.0069728 	-1.44509e-06 	-2.35007e-05 	0.129477
-0.00691956 	-1.6337e-06 	-2.86423e-05 	0.137226
-0.00691956 	-1.6337e-06 	-2.86423e-05 	0.137226
-0.00686537 	-1.8111e-06 	-3.45216e-05 	0.144337
-0.00686537 	-1.8111e-06 	-3.45216e-05 	0.144337
-0.00681021 	-1.97279e-06 	-4.12038e-05 	0.150864
-0.00681021 	-1.97279e-06 	-4.12038e-05 	0.150864
-0.00675406 	-2.11579e-06 	-4.876e-05 	0.156867
-0.00675406 	-2.11579e-06 	-4.876e-05 	0.156867
-0.0066969 	-2.23825e-06 	-5.72558e-05 	0.162402
-0.0066969 	-2.23825e-06 	-5.72558e-05 	0.162402
-0.00663871 	-2.33925e-06 	-6.67379e-05 	0.167513
-0.00663871 	-2.33925e-06 	-6.67379e-05 	0.167513
-0.00657949 	-2.41855e-06 	-7.72141e-05 	0.172243
-0.00657949 	-2.41855e-06 	-7.72141e-05 	0.172243
-0.0065192 	-2.47638e-06 	-8.86509e-05 	0.176634
-0.0065192 	-2.47638e-06 	-8.86509e-05 	0.176634
-0.00645783 	-2.51337e-06 	-0.000100998 	0.180727
-0.00645783 	-2.51337e-06 	-0.000100998 	0.180727
-0.00639535 	-2.53044e-06 	-0.000114204 	0.184561
-0.00639535 	-2.53044e-06 	-0.000114204 	0.184561
-0.00633176 	-2.52874e-06 	-0.000128212 	0.188168
-0.00633176 	-2.52874e-06 	-0.000128212 	0.188168
-0.00626703 	-2.50952e-06 	-0.000142971 	0.191575
-0.00626703 	-2.50952e-06 	-0.000142971 	0.191575
-0.00620114 	-2.47398e-06 	-0.000158422 	0.194806
-0.00620114 	-2.47398e-06 	-0.000158422 	0.194806
-0.00613406 	-2.42321e-06 	-0.000174506 	0.19788
-0.00613406 	-2.42321e-06 	-0.000174506 	0.19788
-0.00606579 	-2.3581e-06 	-0.000191162 	0.200817
-0.00606579 	-2.3581e-06 	-0.000191162 	0.200817
-0.00599629 	-2.2793e-06 	-0.000208325 	0.203631
-0.00599629 	-2.2793e-06 	-0.000208325 	0.203631
-0.00592554 	-2.18735e-06 	-0.000225925 	0.206339
-0.00592554 	-2.18735e-06 	-0.000225925 	0.206339
-0.00585352 	-2.08294e-06 	-0.000243888 	0.208956
-0.00585352 	-2.08294e-06 	-0.000243888 	0.208956
-0.00578022 	-1.96686e-06 	-0.000262126 	0.211494
-0.00578022 	-1.96686e-06 	-0.000262126 	0.211494
-0.00570559 	-1.83979e-06 	-0.000280541 	0.213963
-0.00570559 	-1.83979e-06 	-0.000280541 	0.213963
-0.00562963 	-1.70216e-06 	-0.000299032 	0.216371
-0.00562963 	-1.70216e-06 	-0.000299032 	0.216371
-0.00555231 	-1.55423e-06 	-0.000317499 	0.218724
-0.00555231 	-1.55423e-06 	-0.000317499 	0.218724
-0.0054736 	-1.39614e-06 	-0.000335839 	0.22103
-0.0054736 	-1.39614e-06 	-0.000335839 	0.22103
-0.00539348 	-1.22793e-06 	-0.000353948 	0.223292
-0.00539348 	-1.22793e-06 	-0.000353948 	0.223292
-0.00531193 	-1.04959e-06 	-0.000371721 	0.225513
-0.00531193 	-1.04959e-06 	-0.000371721 	0.225513
-0.00522891 	-8.61042e-07 	-0.000389056 	0.227698
-0.00522891 	-8.61042e-07 	-0.000389056 	0.227698
-0.0051444 	-6.62134e-07 	-0.00040585 	0.229849
-0.0051444 	-6.62134e-07 	-0.00040585 	0.229849
-0.00505838 	-4.52669e-07 	-0.000422004 	0.231965
-0.00505838 	-4.52669e-07 	-0.000422004 	0.231965
-0.00497081 	-2.32395e-07 	-0.000437427 	0.234049
-0.00497081 	-2.32395e-07 	-0.000437427 	0.234049
-0.00488168 	-9.92982e-10 	-0.000452029 	0.236101
-0.00488168 	-9.92982e-10 	-0.000452029 	0.236101
-0.00479094 	2.41945e-07 	-0.000465727 	0.238118
-0.00479094 	2.41945e-07 	-0.000465727 	0.238118
-0.00469858 	4.96954e-07 	-0.000478439 	0.240101
-0.00469858 	4.96954e-07 	-0.000478439 	0.240101
-0.00460456 	7.64726e-07 	-0.000490091 	0.242048
-0.00460456 	7.64726e-07 	-0.000490091 	0.242048
-0.00450886 	1.04609e-06 	-0.000500629 	0.243956
-0.00450886 	1.04609e-06 	-0.000500629 	0.243956
-0.00441144 	1.34192e-06 	-0.000510033 	0.245825
-0.00441144 	1.34192e-06 	-0.000510033 	0.245825
-0.00431227 	1.65306e-06 	-0.000518311 	0.247653
-0.00431227 	1.65306e-06 	-0.000518311 	0.247653
-0.00421133 	1.98024e-06 	-0.000525507 	0.249437
-0.00421133 	1.98024e-06 	-0.000525507 	0.249437
-0.00410857 	2.32446e-06 	-0.000531683 	0.251174
-0.00410857 	2.32446e-06 	-0.000531683 	0.251174
-0.00400397 	2.68736e-06 	-0.000536919 	0.252864
-0.00400397 	2.68736e-06 	-0.000536919 	0.252864
-0.0038975 	3.07109e-06 	-0.000541308 	0.254505
-0.0038975 	3.07109e-06 	-0.000541308 	0.254505
-0.00378912 	3.47717e-06 	-0.000544933 	0.256101
-0.00378912 	3.47717e-06 	-0.000544933 	0.256101
-0.00367879 	3.90576e-06 	-0.000547865 	0.257652
-0.00367879 	3.90576e-06 	-0.000547865 	0.257652
-0.00356649 	4.35608e-06 	-0.000550162 	0.25916
-0.00356649 	4.35608e-06 	-0.000550162 	0.25916
-0.00345217 	4.82733e-06 	-0.000551882 	0.260621
-0.00345217 	4.82733e-06 	-0.000551882 	0.260621
-0.0033358 	5.3189e-06 	-0.000553084 	0.262034
-0.0033358 	5.3189e-06 	-0.000553084 	0.262034
-0.00321735 	5.83006e-06 	-0.000553835 	0.263396
-0.00321735 	5.83006e-06 	-0.000553835 	0.263396
-0.00309677 	6.35977e-06 	-0.000554205 	0.264704
-0.00309677 	6.35977e-06 	-0.000554205 	0.264704
-0.00297403 	6.90669e-06 	-0.00055427 	0.265956
-0.00297403 	6.90669e-06 	-0.00055427 	0.265956
-0.00284909 	7.46913e-06 	-0.000554107 	0.267149
-0.00284909 	7.46913e-06 	-0.000554107 	0.267149
-0.0027219 	8.04501e-06 	-0.000553796 	0.268281
-0.0027219 	8.04501e-06 	-0.000553796 	0.268281
-0.00259244 	8.63209e-06 	-0.000553416 	0.269349
-0.00259244 	8.63209e-06 	-0.000553416 	0.269349
-0.00246065 	9.22792e-06 	-0.000553038 	0.270351
-0.00246065 	9.22792e-06 	-0.000553038 	0.270351
-0.00232651 	9.82974e-06 	-0.000552726 	0.271283
-0.00232651 	9.82974e-06 	-0.000552726 	0.271283
-0.00218995 	1.04344e-05 	-0.000552533 	0.272145
-0.00218995 	1.04344e-05 	-0.000552533 	0.272145
-0.00205095 	1.10384e-05 	-0.000552499 	0.272934
-0.00205095 	1.10384e-05 	-0.000552499 	0.272934
-0.00190946 	1.16381e-05 	-0.00055265 	0.273648
-0.00190946 	1.16381e-05 	-0.00055265 	0.273648
-0.00176543 	1.22294e-05 	-0.000552993 	0.274288
-0.00176543 	1.22294e-05 	-0.000552993 	0.274288
-0.00161881 	1.28074e-05 	-0.000553519 	0.274851
-0.00161881 	1.28074e-05 	-0.000553519 	0.274851
-0.00146957 	1.33661e-05 	-0.000554201 	0.275339
-0.00146957 	1.33661e-05 	-0.000554201 	0.275339
-0.00131765 	1.38988e-05 	-0.000554991 	0.275751
-0.00131765 	1.38988e-05 	-0.000554991 	0.275751
-0.001163 	1.43985e-05 	-0.000555834 	0.276088
-0.001163 	1.43985e-05 	-0.000555834 	0.276088
-0.00100559 	1.48571e-05 	-0.000556672 	0.276349
-0.00100559 	1.48571e-05 	-0.000556672 	0.276349
-0.000845345 	1.52652e-05 	-0.00055741 	0.276533
-0.000845345 	1.52652e-05 	-0.00055741 	0.276533
-0.000682232 	1.56122e-05 	-0.000558012 	0.276641
-0.000682232 	1.56122e-05 	-0.000558012 	0.276641
-0.000516194 	1.58857e-05 	-0.000558459 	0.27667
-0.000516194 	1.58857e-05 	-0.000558459 	0.27667
-0.000347178 	1.60731e-05 	-0.000558647 	0.276619
-0.000347178 	1.60731e-05 	-0.000558647 	0.276619
-0.000175132 	1.61593e-05 	-0.000558617 	0.276484
-0.000175132 	1.61593e-05 	-0.000558617 	0.276484
0 	1.61292e-05 	-0.000558265 	0.276264
0 	1.61292e-05 	-0.000558265 	0.276264
0 	1.61292e-05 	-0.000558265 	0.276264
0 	1.61292e-05 	-0.000558265 	0.276264
0.000175132 	1.59795e-05 	-0.000557459 	0.275961
0.000175132 	1.92011e-05 	-0.000453204 	0.27236
0.000347178 	1.57194e-05 	-0.000556293 	0.275582
0.000347178 	2.05806e-05 	-0.000453821 	0.272054
0.000516194 	1.53659e-05 	-0.000554689 	0.27513
0.000516194 	2.17841e-05 	-0.000454075 	0.271671
0.000682232 	1.49368e-05 	-0.000552681 	0.274612
0.000682232 	2.28278e-05 	-0.000453993 	0.271213
0.000845345 	1.44453e-05 	-0.00055037 	0.274028
0.000845345 	2.37266e-05 	-0.000453608 	0.270685
0.00100559 	1.39044e-05 	-0.000547733 	0.273384
0.00100559 	2.44967e-05 	-0.000452908 	0.270092
0.001163 	1.33254e-05 	-0.000544789 	0.27268
0.001163 	2.51529e-05 	-0.000451897 	0.269435
0.00131765 	1.27184e-05 	-0.000541556 	0.271919
0.00131765 	2.5709e-05 	-0.000450582 	0.268718
0.00146957 	1.20922e-05 	-0.000538049 	0.271104
0.00146957 	2.61767e-05 	-0.000448974 	0.267944
0.00161881 	1.14541e-05 	-0.000534282 	0.270236
0.00161881 	2.65666e-05 	-0.00044708 	0.267114
0.00176543 	1.08103e-05 	-0.000530267 	0.269316
0.00176543 	2.68874e-05 	-0.000444908 	0.266231
0.00190946 	1.01661e-05 	-0.000526014 	0.268347
0.00190946 	2.71468e-05 	-0.000442464 	0.265297
0.00205095 	9.52549e-06 	-0.000521529 	0.26733
0.00205095 	2.7351e-05 	-0.000439752 	0.264311
0.00218995 	8.89193e-06 	-0.000516817 	0.266266
0.00218995 	2.75056e-05 	-0.000436774 	0.263277
0.00232651 	8.26809e-06 	-0.000511883 	0.265155
0.00232651 	2.76148e-05 	-0.000433529 	0.262195
0.00246065 	7.65605e-06 	-0.000506727 	0.263998
0.00246065 	2.76824e-05 	-0.000430017 	0.261066
0.00259244 	7.05745e-06 	-0.000501347 	0.262796
0.00259244 	2.77111e-05 	-0.000426232 	0.25989
0.0027219 	6.47348e-06 	-0.000495741 	0.261549
0.0027219 	2.77032e-05 	-0.000422167 	0.258669
0.00284909 	5.90507e-06 	-0.000489905 	0.260258
0.00284909 	2.76602e-05 	-0.000417813 	0.257402
0.00297403 	5.35288e-06 	-0.000483832 	0.258923
0.00297403 	2.75833e-05 	-0.00041316 	0.256091
0.00309677 	4.8174e-06 	-0.000477514 	0.257543
0.00309677 	2.74733e-05 	-0.000408194 	0.254735
0.00321735 	4.29896e-06 	-0.000470945 	0.256119
0.00321735 	2.73306e-05 	-0.000402901 	0.253333
0.0033358 	3.79774e-06 	-0.000464114 	0.25465
0.0033358 	2.71555e-05 	-0.000397265 	0.251886
0.00345217 	2.6948e-05 	-0.000391277 	0.250393
0.00345217 	3.31379e-06 	-0.000457014 	0.253135
0.00356649 	2.84706e-06 	-0.00044964 	0.251573
0.00356649 	2.67083e-05 	-0.000384939 	0.248853
0.00367879 	2.39748e-06 	-0.000441978 	0.249964
0.00367879 	2.64377e-05 	-0.000378246 	0.247265
0.00378912 	1.96502e-06 	-0.00043401 	0.248307
0.00378912 	2.61383e-05 	-0.000371185 	0.24563
0.0038975 	1.54967e-06 	-0.000425711 	0.246599
0.0038975 	2.58111e-05 	-0.000363733 	0.243947
0.00400397 	1.15126e-06 	-0.000417039 	0.244838
0.00400397 	2.54557e-05 	-0.000355825 	0.242212
0.00410857 	2.5071e-05 	-0.000347354 	0.24041
0.00410857 	7.69579e-07 	-0.000407926 	0.243018
0.00421133 	4.04395e-07 	-0.000398295 	0.241131
0.00421133 	2.46558e-05 	-0.000338215 	0.238529
0.00431227 	5.48994e-08 	-0.000388059 	0.239172
0.00431227 	2.42073e-05 	-0.000328338 	0.236563
0.00441144 	-2.80262e-07 	-0.000377154 	0.237133
0.00441144 	2.37225e-05 	-0.000317678 	0.234507
0.00450886 	-6.02474e-07 	-0.000365549 	0.235007
0.00450886 	2.31981e-05 	-0.000306242 	0.232359
0.00460456 	-9.12813e-07 	-0.000353241 	0.232791
0.00460456 	2.26309e-05 	-0.000294065 	0.230115
0.00469858 	-1.21203e-06 	-0.000340249 	0.230479
0.00469858 	2.20184e-05 	-0.000281195 	0.22777
0.00479094 	-1.50071e-06 	-0.000326595 	0.228068
0.00479094 	2.1358e-05 	-0.000267685 	0.225322
0.00488168 	-1.77942e-06 	-0.000312312 	0.225551
0.00488168 	2.06473e-05 	-0.000253593 	0.222765
0.00497081 	-2.04869e-06 	-0.000297438 	0.222926
0.00497081 	1.9884e-05 	-0.000238984 	0.220096
0.00505838 	-2.30897e-06 	-0.000282028 	0.220187
0.00505838 	1.90664e-05 	-0.000223935 	0.217311
0.0051444 	-2.56066e-06 	-0.00026615 	0.217332
0.0051444 	1.8193e-05 	-0.000208536 	0.214407
0.00522891 	-2.80402e-06 	-0.000249888 	0.214356
0.00522891 	1.72627e-05 	-0.000192892 	0.211381
0.00531193 	-3.03918e-06 	-0.000233343 	0.211257
0.00531193 	1.62757e-05 	-0.000177126 	0.20823
0.00539348 	-3.26612e-06 	-0.000216629 	0.208031
0.00539348 	1.52323e-05 	-0.000161373 	0.204953
0.0054736 	-3.48472e-06 	-0.000199874 	0.204676
0.0054736 	1.41339e-05 	-0.000145777 	0.201548
0.00555231 	-3.69469e-06 	-0.000183208 	0.201186
0.00555231 	1.29824e-05 	-0.000130483 	0.198012
0.00562963 	-3.89565e-06 	-0.000166766 	0.197559
0.00562963 	1.17803e-05 	-0.000115632 	0.194344
0.00570559 	-4.08709e-06 	-0.00015068 	0.193791
0.00570559 	1.05307e-05 	-0.000101358 	0.19054
0.00578022 	-4.26835e-06 	-0.000135072 	0.189876
0.00578022 	9.23717e-06 	-8.77778e-05 	0.186596
0.00585352 	-4.43871e-06 	-0.000120057 	0.185808
0.00585352 	7.90395e-06 	-7.49937e-05 	0.182508
0.00592554 	-4.59727e-06 	-0.000105736 	0.181582
0.00592554 	6.53582e-06 	-6.30874e-05 	0.17827
0.00599629 	-4.74302e-06 	-9.21949e-05 	0.177189
0.00599629 	5.13828e-06 	-5.21203e-05 	0.173875
0.00606579 	-4.87475e-06 	-7.95054e-05 	0.17262
0.00606579 	3.7175e-06 	-4.21339e-05 	0.169314
0.00613406 	-4.99112e-06 	-6.77276e-05 	0.167864
0.00613406 	2.28013e-06 	-3.31508e-05 	0.164576
0.00620114 	8.33258e-07 	-2.51769e-05 	0.159644
0.00620114 	-5.09077e-06 	-5.69076e-05 	0.162904
0.00626703 	-5.17238e-06 	-4.70811e-05 	0.157723
0.00626703 	-6.14693e-07 	-1.82086e-05 	0.154501
0.00633176 	-2.05313e-06 	-1.22315e-05 	0.149132
0.00633176 	-5.23453e-06 	-3.82753e-05 	0.152306
0.00639535 	-3.46938e-06 	-7.21437e-06 	0.143523
0.00639535 	-5.27559e-06 	-3.04991e-05 	0.146637
0.00645783 	-5.29367e-06 	-2.37413e-05 	0.140701
0.00645783 	-4.84883e-06 	-3.10944e-06 	0.137657
0.0065192 	-5.28675e-06 	-1.79752e-05 	0.13448
0.0065192 	-6.17475e-06 	1.43142e-07 	0.131516
0.00657949 	-5.2527e-06 	-1.31613e-05 	0.127958
0.00657949 	-7.42794e-06 	2.61222e-06 	0.125085
0.00663871 	-5.18906e-06 	-9.24688e-06 	0.121118
0.00663871 	-8.5866e-06 	4.37356e-06 	0.118346
0.0066969 	-5.093e-06 	-6.15287e-06 	0.113943
0.0066969 	-9.62716e-06 	5.51287e-06 	0.111278
0.00675406 	-1.05255e-05 	6.12018e-06 	0.103846
0.00675406 	-4.96166e-06 	-3.78614e-06 	0.106399
0.00681021 	-1.12548e-05 	6.28509e-06 	0.096025
0.00681021 	-4.79303e-06 	-2.04686e-06 	0.0984555
0.00686537 	-1.17836e-05 	6.097e-06 	0.0878341
0.00686537 	-4.58688e-06 	-8.39317e-07 	0.0901236
0.00691956 	-1.20801e-05 	5.64476e-06 	0.0793413
0.00691956 	-4.34459e-06 	-7.76366e-08 	0.0814687
0.0069728 	-1.21185e-05 	5.01611e-06 	0.0706642
0.0069728 	-4.06865e-06 	3.327e-07 	0.0726084
0.0070251 	-3.76304e-06 	4.89032e-07 	0.0637097
0.0070251 	-1.18849e-05 	4.29278e-06 	0.0619666
0.00707647 	-3.43306e-06 	4.84e-07 	0.0549698
0.00707647 	-1.13832e-05 	3.5456e-06 	0.0534383
0.00712695 	-3.0845e-06 	3.96598e-07 	0.0465822
0.00712695 	-1.06349e-05 	2.82973e-06 	0.0452632
0.00717653 	-2.72258e-06 	2.84841e-07 	0.0386988
0.00717653 	-9.67436e-06 	2.1818e-06 	0.037585
0.00722524 	-2.35095e-06 	1.83988e-07 	0.0314096
0.00722524 	-8.54046e-06 	1.62139e-06 	0.0304883
0.00727309 	-7.26914e-06 	1.15406e-06 	0.0240025
0.00727309 	-1.97048e-06 	1.09542e-07 	0.0247458
0.0073201 	-5.88875e-06 	7.75567e-07 	0.0181199
0.0073201 	-1.57645e-06 	6.25668e-08 	0.0186988
0.00736628 	-4.41636e-06 	4.8379e-07 	0.0128136
0.00736628 	-1.1511e-06 	4.09091e-08 	0.0132404
0.00741165 	-6.9368e-07 	2.52037e-08 	0.00833407
0.00741165 	-2.88996e-06 	2.54779e-07 	0.00804841
0.00745622 	-2.77275e-07 	1.44019e-08 	0.00393988
0.00745622 	-1.39577e-06 	9.88746e-08 	0.00378535
0.0075 	0 	0 	0
0.0075 	0 	0 	0
