/*--------------------------------*- C++ -*----------------------------------*\
| =========                 |                                                 |
| \\      /  F ield         | OpenFOAM: The Open Source CFD Toolbox           |
|  \\    /   O peration     | Version:  v1906                                 |
|   \\  /    A nd           | Web:      www.OpenFOAM.com                      |
|    \\/     M anipulation  |                                                 |
\*---------------------------------------------------------------------------*/
FoamFile
{
    version     2.0;
    format      ascii;
    class       volScalarField;
    location    "0";
    object      epsilon;
}
// * * * * * * * * * * * * * * * * * * * * * * * * * * * * * * * * * * * * * //

dimensions      [0 2 -3 0 0 0 0];


internalField   uniform 4e-06;

boundaryField
{
    leftWall
    {
        type            epsilonWallFunction;
        value           nonuniform 0();
    }
    rightWall
    {
        type            epsilonWallFunction;
        value           uniform 4e-06;
    }
    leftSides_periodic0
    {
        type            cyclic;
    }
    leftSides_periodic1
    {
        type            cyclic;
    }
    rightSides_periodic0
    {
        type            cyclic;
    }
    rightSides_periodic1
    {
        type            cyclic;
    }
    leftInOut_periodic0
    {
        type            cyclic;
    }
    leftInOut_periodic1
    {
        type            cyclic;
    }
    rightInOut_periodic0
    {
        type            cyclic;
    }
    rightInOut_periodic1
    {
        type            cyclic;
    }
    procBoundary1to0
    {
        type            processor;
        value           uniform 4e-06;
    }
    procBoundary1to0throughleftInOut_periodic0
    {
        type            processorCyclic;
        value           uniform 4e-06;
    }
    procBoundary1to2throughleftSides_periodic0
    {
        type            processorCyclic;
        value           uniform 4e-06;
    }
    procBoundary1to2throughrightSides_periodic0
    {
        type            processorCyclic;
        value           uniform 4e-06;
    }
    procBoundary1to3
    {
        type            processor;
        value           uniform 4e-06;
    }
    procBoundary1to3throughrightSides_periodic0
    {
        type            processorCyclic;
        value           uniform 4e-06;
    }
}


// ************************************************************************* //
