0 	0 	0 	0
5.01672e-05 	0.000490475 	-3.28097e-06 	0.0155026
0.000100334 	0.00111116 	-4.75489e-06 	0.0308536
0.000150502 	0.00172909 	-5.08142e-06 	0.0450374
0.000200669 	0.00224778 	-4.22438e-06 	0.0578594
0.000250836 	0.00266631 	-2.81715e-06 	0.0695784
0.000301003 	0.00300163 	-1.26553e-06 	0.0803879
0.000351171 	0.00326377 	2.93023e-07 	0.0903891
0.000401338 	0.0034609 	1.7522e-06 	0.0996447
0.000451505 	0.00360082 	3.09281e-06 	0.108197
0.000501672 	0.00369091 	4.34421e-06 	0.116082
0.000551839 	0.0037381 	5.3851e-06 	0.123338
0.000602007 	0.00374939 	5.98076e-06 	0.130013
0.000652174 	0.00373218 	5.98196e-06 	0.13616
0.000702341 	0.0036937 	5.39882e-06 	0.141833
0.000752508 	0.00364047 	4.34293e-06 	0.147078
0.000802676 	0.00357781 	2.91793e-06 	0.151937
0.000852843 	0.00350917 	1.02143e-06 	0.1564
0.00090301 	0.00343817 	-1.30447e-06 	0.160562
0.000953177 	0.00336649 	-4.02256e-06 	0.164455
0.00100334 	0.00329539 	-7.08844e-06 	0.168108
0.00105351 	0.00322578 	-1.04498e-05 	0.171547
0.00110368 	0.0031584 	-1.40518e-05 	0.174788
0.00115385 	0.00309476 	-1.78732e-05 	0.177807
0.00120401 	0.00303432 	-2.18047e-05 	0.180676
0.00125418 	0.00297714 	-2.58095e-05 	0.183411
0.00130435 	0.00292319 	-2.98583e-05 	0.186024
0.00135452 	0.00287351 	-3.3924e-05 	0.188493
0.00140468 	0.00282746 	-3.79695e-05 	0.190851
0.00145485 	0.00278431 	-4.20466e-05 	0.193122
0.00150502 	0.00274389 	-4.61684e-05 	0.195313
0.00155518 	0.00270734 	-4.99641e-05 	0.197391
0.00160535 	0.00267356 	-5.29512e-05 	0.199404
0.00165552 	0.00264275 	-5.52976e-05 	0.201357
0.00170569 	0.00261763 	-5.70248e-05 	0.203227
0.00175585 	0.00259863 	-5.9802e-05 	0.205027
0.00180602 	0.00258323 	-6.36139e-05 	0.206781
0.00185619 	0.00257186 	-6.94975e-05 	0.208473
0.00190635 	0.00255844 	-7.48152e-05 	0.210129
0.00195652 	0.00254275 	-7.90371e-05 	0.211764
0.00200669 	0.00252022 	-7.9175e-05 	0.213368
0.00205686 	0.00249449 	-7.76061e-05 	0.21494
0.00210702 	0.00246672 	-7.49494e-05 	0.21649
0.00215719 	0.00244032 	-7.38938e-05 	0.217968
0.00220736 	0.00241573 	-7.38453e-05 	0.219418
0.00225753 	0.00239406 	-7.54094e-05 	0.220823
0.00230769 	0.00237536 	-7.50053e-05 	0.222184
0.00235786 	0.00235815 	-7.36143e-05 	0.223526
0.00240803 	0.00234899 	-6.67689e-05 	0.224801
0.00245819 	0.00234666 	-6.09031e-05 	0.226043
0.00250836 	0.00235813 	-5.70231e-05 	0.227219
0.00255853 	0.00238378 	-6.1251e-05 	0.228336
0.0026087 	0.00241949 	-7.12346e-05 	0.229411
0.00265886 	0.00245646 	-8.71847e-05 	0.230473
0.00270903 	0.00249374 	-0.000104552 	0.231532
0.0027592 	0.00249818 	-0.000104042 	0.232699
0.00280936 	0.00249649 	-9.98961e-05 	0.233878
0.00285953 	0.00246234 	-7.64758e-05 	0.235128
0.0029097 	0.00242387 	-5.31539e-05 	0.23636
0.00295987 	0.0023745 	-3.008e-05 	0.237549
0.00301003 	0.00232688 	-1.30898e-05 	0.238696
0.0030602 	0.00228216 	-6.1712e-06 	0.239775
0.00311037 	0.00224023 	-3.80815e-06 	0.240824
0.00316054 	0.00220194 	-7.36988e-06 	0.241834
0.0032107 	0.00216454 	-1.08939e-05 	0.242824
0.00326087 	0.00212818 	-1.43732e-05 	0.243792
0.00331104 	0.00209518 	-1.52786e-05 	0.244733
0.0033612 	0.00206634 	-1.29842e-05 	0.245642
0.00341137 	0.00204544 	-6.03005e-06 	0.246515
0.00346154 	0.00203656 	7.98593e-06 	0.247334
0.00351171 	0.00203725 	2.38176e-05 	0.248114
0.00356187 	0.00205901 	4.36426e-05 	0.248808
0.00361204 	0.00208718 	6.13218e-05 	0.249474
0.00366221 	0.00214266 	6.9865e-05 	0.250017
0.00371237 	0.00219887 	7.76709e-05 	0.250557
0.00376254 	0.00227904 	6.14467e-05 	0.251011
0.00381271 	0.0023592 	4.52225e-05 	0.251465
0.00386288 	0.00242613 	2.13873e-05 	0.252082
0.00391304 	0.00249035 	-4.00022e-06 	0.252733
0.00396321 	0.00251929 	-2.6436e-06 	0.25368
0.00401338 	0.0025239 	1.71444e-05 	0.254831
0.00406355 	0.00251584 	4.70841e-05 	0.25602
0.00411371 	0.00247998 	9.92783e-05 	0.257293
0.00416388 	0.00244412 	0.000151473 	0.258567
0.00421405 	0.00241027 	0.000177501 	0.259496
0.00426421 	0.00237643 	0.000203363 	0.260423
0.00431438 	0.00235812 	0.00021271 	0.261163
0.00436455 	0.00234884 	0.00021246 	0.261794
0.00441472 	0.0023447 	0.000212778 	0.262391
0.00446488 	0.00235789 	0.000215008 	0.262873
0.00451505 	0.00237109 	0.000217238 	0.263355
0.00456522 	0.00238633 	0.0002289 	0.263807
0.00461538 	0.00240215 	0.000243188 	0.264251
0.00466555 	0.00241635 	0.000258012 	0.264693
0.00471572 	0.00242664 	0.000274137 	0.265128
0.00476589 	0.00243693 	0.000290263 	0.265564
0.00481605 	0.00244288 	0.000305541 	0.265993
0.00486622 	0.00244745 	0.000320547 	0.26642
0.00491639 	0.00245122 	0.000335617 	0.266846
0.00496656 	0.00245128 	0.000350988 	0.267267
0.00501672 	0.00245134 	0.000366359 	0.267688
0.00506689 	0.00245121 	0.000381159 	0.268102
0.00511706 	0.0024509 	0.00039549 	0.268508
0.00516722 	0.0024506 	0.00040982 	0.268915
0.00521739 	0.00245418 	0.000422548 	0.269289
0.00526756 	0.00245831 	0.000435047 	0.269658
0.00531773 	0.00246356 	0.000447499 	0.270019
0.00536789 	0.00247497 	0.000459696 	0.27033
0.00541806 	0.00248638 	0.000471892 	0.270641
0.00546823 	0.00250093 	0.000484394 	0.270929
0.00551839 	0.00252057 	0.000497391 	0.27118
0.00556856 	0.00254021 	0.000510387 	0.27143
0.00561873 	0.0025641 	0.000523985 	0.271651
0.0056689 	0.00259131 	0.000538053 	0.271848
0.00571906 	0.00261852 	0.000552121 	0.272046
0.00576923 	0.00264957 	0.000567121 	0.272211
0.0058194 	0.00268235 	0.000582538 	0.272362
0.00586957 	0.00271512 	0.000597956 	0.272512
0.00591973 	0.00274852 	0.000614644 	0.27261
0.0059699 	0.0027821 	0.000631716 	0.272692
0.00602007 	0.00281568 	0.000648788 	0.272774
0.00607023 	0.00284555 	0.00066341 	0.272765
0.0061204 	0.00287445 	0.000677394 	0.272731
0.00617057 	0.00290334 	0.000691378 	0.272698
0.00622074 	0.00293435 	0.000694064 	0.272585
0.0062709 	0.00296601 	0.000693281 	0.272447
0.00632107 	0.00299766 	0.000692499 	0.27231
0.00637124 	0.00304862 	0.000686889 	0.272223
0.0064214 	0.00310856 	0.000679035 	0.27216
0.00647157 	0.0031685 	0.00067118 	0.272096
0.00652174 	0.00326157 	0.000671255 	0.272243
0.00657191 	0.00338235 	0.000677959 	0.272566
0.00662207 	0.00350313 	0.000684663 	0.272888
0.00667224 	0.00363852 	0.000696718 	0.273329
0.00672241 	0.00380099 	0.000718688 	0.273988
0.00677258 	0.00396346 	0.000740657 	0.274646
0.00682274 	0.00412302 	0.000762968 	0.275292
0.00687291 	0.00425614 	0.000788377 	0.275822
0.00692308 	0.00438926 	0.000813787 	0.276352
0.00697324 	0.00452238 	0.000839196 	0.276881
0.00702341 	0.00461708 	0.000856235 	0.277157
0.00707358 	0.00470153 	0.000871042 	0.277365
0.00712375 	0.00478599 	0.000885848 	0.277573
0.00717391 	0.00485907 	0.000896687 	0.277684
0.00722408 	0.00491649 	0.000902057 	0.277658
0.00727425 	0.0049739 	0.000907426 	0.277633
0.00732441 	0.00503132 	0.000912795 	0.277608
0.00737458 	0.00507745 	0.000922581 	0.277425
0.00742475 	0.00512347 	0.000932407 	0.27724
0.00747492 	0.00516949 	0.000942232 	0.277056
0.00752508 	0.00521857 	0.000953523 	0.276807
0.00757525 	0.00527069 	0.000966277 	0.276496
0.00762542 	0.00532281 	0.000979032 	0.276184
0.00767559 	0.00537503 	0.000991755 	0.275872
0.00772575 	0.00543816 	0.00100106 	0.275432
0.00777592 	0.00550129 	0.00101036 	0.274993
0.00782609 	0.00556443 	0.00101966 	0.274554
0.00787625 	0.00562952 	0.00102723 	0.274065
0.00792642 	0.00569603 	0.00103353 	0.273539
0.00797659 	0.00576254 	0.00103984 	0.273013
0.00802676 	0.00582719 	0.00104605 	0.272494
0.00807692 	0.00588484 	0.00105193 	0.272002
0.00812709 	0.0059425 	0.0010578 	0.271509
0.00817726 	0.00600016 	0.00106367 	0.271017
0.00822742 	0.00603867 	0.00106859 	0.270701
0.00827759 	0.00607508 	0.00107339 	0.270404
0.00832776 	0.00611149 	0.0010782 	0.270108
0.00837793 	0.00613415 	0.00108071 	0.269931
0.00842809 	0.00614938 	0.00108198 	0.26982
0.00847826 	0.00616462 	0.00108325 	0.269709
0.00852843 	0.00617492 	0.00108306 	0.269603
0.0085786 	0.00617931 	0.00108111 	0.269502
0.00862876 	0.00618371 	0.00107917 	0.269401
0.00867893 	0.00618659 	0.00107666 	0.26927
0.0087291 	0.00618622 	0.00107294 	0.269073
0.00877926 	0.00618586 	0.00106922 	0.268877
0.00882943 	0.00618434 	0.00106566 	0.268659
0.0088796 	0.00617908 	0.0010626 	0.268372
0.00892977 	0.00617382 	0.00105954 	0.268085
0.00897993 	0.00616579 	0.00105733 	0.267787
0.0090301 	0.00614713 	0.00105834 	0.267447
0.00908027 	0.00612847 	0.00105935 	0.267106
0.00913043 	0.00610198 	0.00106095 	0.266747
0.0091806 	0.00604956 	0.0010645 	0.266329
0.00923077 	0.00599714 	0.00106804 	0.265911
0.00928094 	0.00592882 	0.00106942 	0.265445
0.0093311 	0.005825 	0.00106594 	0.26487
0.00938127 	0.00572117 	0.00106245 	0.264294
0.00943144 	0.00559151 	0.00105463 	0.263625
0.00948161 	0.00542871 	0.00104124 	0.262837
0.00953177 	0.00526591 	0.00102786 	0.262048
0.00958194 	0.00509328 	0.00101468 	0.261219
0.00963211 	0.00491457 	0.00100163 	0.260364
0.00968227 	0.00473586 	0.000988587 	0.25951
0.00973244 	0.00461443 	0.000981992 	0.258832
0.00978261 	0.00450336 	0.000976562 	0.258187
0.00983278 	0.00440251 	0.000971736 	0.257571
0.00988294 	0.00437324 	0.000971139 	0.257166
0.00993311 	0.00434397 	0.000970542 	0.256761
0.00998328 	0.00432814 	0.000968396 	0.256383
0.0100334 	0.00432868 	0.000964364 	0.256039
0.0100836 	0.00432922 	0.000960333 	0.255694
0.0101338 	0.00431829 	0.000951147 	0.255293
0.0101839 	0.00430491 	0.000940861 	0.254881
0.0102341 	0.00428506 	0.000930288 	0.254447
0.0102843 	0.00424511 	0.000918825 	0.253946
0.0103344 	0.00420515 	0.000907362 	0.253445
0.0103846 	0.00415475 	0.000897443 	0.252903
0.0104348 	0.00410005 	0.000888161 	0.252344
0.0104849 	0.00404529 	0.000879332 	0.251779
0.0105351 	0.00399036 	0.000872128 	0.251195
0.0105853 	0.00393543 	0.000864925 	0.250611
0.0106355 	0.00388584 	0.000858429 	0.250021
0.0106856 	0.00383784 	0.000852144 	0.249429
0.0107358 	0.0037923 	0.000845621 	0.248833
0.010786 	0.00375101 	0.000838691 	0.24823
0.0108361 	0.00370969 	0.000831752 	0.247626
0.0108863 	0.00366435 	0.000823405 	0.246951
0.0109365 	0.00361901 	0.000815058 	0.246275
0.0109866 	0.00356061 	0.00080698 	0.245468
0.0110368 	0.00349626 	0.000799024 	0.244601
0.011087 	0.00342217 	0.000792203 	0.24361
0.0111371 	0.00333393 	0.000787032 	0.242439
0.0111873 	0.00324434 	0.000781972 	0.241235
0.0112375 	0.0031481 	0.000777457 	0.23987
0.0112876 	0.00305187 	0.000772943 	0.238505
0.0113378 	0.00298863 	0.000764009 	0.237386
0.011388 	0.00292641 	0.000754939 	0.236275
0.0114381 	0.00290184 	0.000743183 	0.235483
0.0114883 	0.0028861 	0.000730795 	0.234766
0.0115385 	0.00287556 	0.000719289 	0.234095
0.0115886 	0.00286737 	0.000708183 	0.233444
0.0116388 	0.00284608 	0.000698148 	0.232706
0.011689 	0.00281615 	0.000688819 	0.231911
0.0117391 	0.00277394 	0.000679887 	0.231031
0.0117893 	0.00272185 	0.000671275 	0.230082
0.0118395 	0.00266478 	0.000662568 	0.229084
0.0118896 	0.00260349 	0.000653782 	0.228043
0.0119398 	0.00254232 	0.000645016 	0.226972
0.01199 	0.00248124 	0.000636266 	0.225878
0.0120401 	0.00242048 	0.00062792 	0.224752
0.0120903 	0.0023599 	0.000619818 	0.223607
0.0121405 	0.00229776 	0.00061215 	0.222419
0.0121906 	0.00223499 	0.000604654 	0.221213
0.0122408 	0.00216885 	0.000597329 	0.219954
0.012291 	0.00210207 	0.000590036 	0.218683
0.0123411 	0.00203096 	0.000582618 	0.217345
0.0123913 	0.00195915 	0.000575147 	0.215994
0.0124415 	0.00188435 	0.00056745 	0.214586
0.0124916 	0.0018083 	0.000559608 	0.213149
0.0125418 	0.00173048 	0.00055156 	0.211669
0.012592 	0.00165089 	0.000543221 	0.210139
0.0126421 	0.00157042 	0.000534739 	0.208584
0.0126923 	0.00148752 	0.000525844 	0.206952
0.0127425 	0.00140375 	0.000516821 	0.205293
0.0127926 	0.00131798 	0.000507509 	0.203573
0.0128428 	0.00123024 	0.000497527 	0.201797
0.012893 	0.00114127 	0.000487127 	0.199986
0.0129431 	0.00104888 	0.000475492 	0.19808
0.0129933 	0.000955142 	0.000463965 	0.196131
0.0130435 	0.000859374 	0.000452623 	0.194119
0.0130936 	0.000761047 	0.000442471 	0.192013
0.0131438 	0.000661304 	0.00043296 	0.189852
0.013194 	0.000559356 	0.000424434 	0.1876
0.0132441 	0.00045482 	0.000415756 	0.185244
0.0132943 	0.000348335 	0.000406485 	0.182814
0.0133445 	0.00023886 	0.000395812 	0.180277
0.0133946 	0.000124609 	0.000383969 	0.177605
0.0134448 	6.28434e-06 	0.000371659 	0.17483
0.013495 	-0.000116888 	0.000359016 	0.171939
0.0135452 	-0.000248098 	0.000345801 	0.168836
0.0135953 	-0.000382936 	0.000332249 	0.165589
0.0136455 	-0.000520352 	0.000318404 	0.16219
0.0136957 	-0.000658415 	0.000304325 	0.158607
0.0137458 	-0.000791573 	0.000289879 	0.154812
0.013796 	-0.000917951 	0.000274917 	0.150847
0.0138462 	-0.00103588 	0.000259337 	0.146696
0.0138963 	-0.00114375 	0.000243067 	0.142345
0.0139465 	-0.00123659 	0.000226104 	0.137698
0.0139967 	-0.00131675 	0.000208865 	0.132803
0.0140468 	-0.00138378 	0.000191388 	0.127646
0.014097 	-0.00143706 	0.000173658 	0.122208
0.0141472 	-0.00147614 	0.000155654 	0.116469
0.0141973 	-0.00150057 	0.000137431 	0.110407
0.0142475 	-0.00150681 	0.000119076 	0.103948
0.0142977 	-0.00149545 	0.000100917 	0.0971537
0.0143478 	-0.00146557 	8.36129e-05 	0.0900461
0.014398 	-0.00141825 	6.78063e-05 	0.0826569
0.0144482 	-0.00135659 	5.37784e-05 	0.0750328
0.0144983 	-0.00128449 	4.1373e-05 	0.0672442
0.0145485 	-0.00120503 	3.0309e-05 	0.0593905
0.0145987 	-0.00111891 	2.05429e-05 	0.0515931
0.0146488 	-0.00102293 	1.21972e-05 	0.0439814
0.014699 	-0.000909475 	5.41995e-06 	0.0366686
0.0147492 	-0.000765821 	4.29223e-07 	0.02972
0.0147993 	-0.000571414 	-2.77094e-06 	0.0231243
0.0148495 	-0.000290415 	-3.6378e-06 	0.0167644
0.0148997 	4.87758e-05 	-2.89188e-06 	0.0105365
0.0149498 	0.000216698 	-1.99615e-06 	0.00474192
0.015 	0 	0 	0
