-0.0075 	0 	0 	0
-0.0075 	-3.21633e-36 	-2.50835e-36 	1.86119e-31
-0.00745622 	-2.64202e-07 	-2.06045e-07 	0.0152885
-0.00745622 	-2.64202e-07 	-2.06045e-07 	0.0152885
-0.00741165 	-8.21042e-07 	-7.1025e-07 	0.0297534
-0.00741165 	-8.21042e-07 	-7.1025e-07 	0.0297534
-0.00736628 	-1.42698e-06 	-1.58422e-06 	0.0434947
-0.00736628 	-1.42698e-06 	-1.58422e-06 	0.0434947
-0.0073201 	-1.94909e-06 	-2.83627e-06 	0.0565417
-0.0073201 	-1.94909e-06 	-2.83627e-06 	0.0565417
-0.00727309 	-2.39301e-06 	-4.49324e-06 	0.0689208
-0.00727309 	-2.39301e-06 	-4.49324e-06 	0.0689208
-0.00722524 	-2.77907e-06 	-6.56074e-06 	0.0806558
-0.00722524 	-2.77907e-06 	-6.56074e-06 	0.0806558
-0.00717653 	-3.11174e-06 	-9.0534e-06 	0.0917603
-0.00717653 	-3.11174e-06 	-9.0534e-06 	0.0917603
-0.00712695 	-3.39355e-06 	-1.19901e-05 	0.102227
-0.00712695 	-3.39355e-06 	-1.19901e-05 	0.102227
-0.00707647 	-3.62708e-06 	-1.54037e-05 	0.112029
-0.00707647 	-3.62708e-06 	-1.54037e-05 	0.112029
-0.0070251 	-3.81462e-06 	-1.93479e-05 	0.121143
-0.0070251 	-3.81462e-06 	-1.93479e-05 	0.121143
-0.0069728 	-3.95795e-06 	-2.38922e-05 	0.129563
-0.0069728 	-3.95795e-06 	-2.38922e-05 	0.129563
-0.00691956 	-4.05861e-06 	-2.91093e-05 	0.137305
-0.00691956 	-4.05861e-06 	-2.91093e-05 	0.137305
-0.00686537 	-4.11821e-06 	-3.50642e-05 	0.14441
-0.00686537 	-4.11821e-06 	-3.50642e-05 	0.14441
-0.00681021 	-4.13894e-06 	-4.18185e-05 	0.15093
-0.00681021 	-4.13894e-06 	-4.18185e-05 	0.15093
-0.00675406 	-4.12342e-06 	-4.94408e-05 	0.156926
-0.00675406 	-4.12342e-06 	-4.94408e-05 	0.156926
-0.0066969 	-4.0743e-06 	-5.7994e-05 	0.162452
-0.0066969 	-4.0743e-06 	-5.7994e-05 	0.162452
-0.00663871 	-3.99418e-06 	-6.75223e-05 	0.167555
-0.00663871 	-3.99418e-06 	-6.75223e-05 	0.167555
-0.00657949 	-3.88567e-06 	-7.80337e-05 	0.172278
-0.00657949 	-3.88567e-06 	-7.80337e-05 	0.172278
-0.0065192 	-3.75128e-06 	-8.94962e-05 	0.176661
-0.0065192 	-3.75128e-06 	-8.94962e-05 	0.176661
-0.00645783 	-3.59339e-06 	-0.000101862 	0.180748
-0.00645783 	-3.59339e-06 	-0.000101862 	0.180748
-0.00639535 	-3.41421e-06 	-0.000115082 	0.184578
-0.00639535 	-3.41421e-06 	-0.000115082 	0.184578
-0.00633176 	-3.21583e-06 	-0.000129102 	0.18818
-0.00633176 	-3.21583e-06 	-0.000129102 	0.18818
-0.00626703 	-3.00017e-06 	-0.00014387 	0.191583
-0.00626703 	-3.00017e-06 	-0.00014387 	0.191583
-0.00620114 	-2.76891e-06 	-0.000159328 	0.19481
-0.00620114 	-2.76891e-06 	-0.000159328 	0.19481
-0.00613406 	-2.52351e-06 	-0.000175418 	0.197881
-0.00613406 	-2.52351e-06 	-0.000175418 	0.197881
-0.00606579 	-2.26516e-06 	-0.00019208 	0.200813
-0.00606579 	-2.26516e-06 	-0.00019208 	0.200813
-0.00599629 	-1.99468e-06 	-0.000209248 	0.203624
-0.00599629 	-1.99468e-06 	-0.000209248 	0.203624
-0.00592554 	-1.71264e-06 	-0.000226853 	0.206329
-0.00592554 	-1.71264e-06 	-0.000226853 	0.206329
-0.00585352 	-1.41959e-06 	-0.000244824 	0.208943
-0.00585352 	-1.41959e-06 	-0.000244824 	0.208943
-0.00578022 	-1.11635e-06 	-0.000263072 	0.211478
-0.00578022 	-1.11635e-06 	-0.000263072 	0.211478
-0.00570559 	-8.03734e-07 	-0.0002815 	0.213944
-0.00570559 	-8.03734e-07 	-0.0002815 	0.213944
-0.00562963 	-4.82385e-07 	-0.000300004 	0.21635
-0.00562963 	-4.82385e-07 	-0.000300004 	0.21635
-0.00555231 	-1.5278e-07 	-0.000318484 	0.218703
-0.00555231 	-1.5278e-07 	-0.000318484 	0.218703
-0.0054736 	1.84696e-07 	-0.000336835 	0.221007
-0.0054736 	1.84696e-07 	-0.000336835 	0.221007
-0.00539348 	5.29719e-07 	-0.000354954 	0.223268
-0.00539348 	5.29719e-07 	-0.000354954 	0.223268
-0.00531193 	8.82013e-07 	-0.000372734 	0.22549
-0.00531193 	8.82013e-07 	-0.000372734 	0.22549
-0.00522891 	1.24135e-06 	-0.000390071 	0.227675
-0.00522891 	1.24135e-06 	-0.000390071 	0.227675
-0.0051444 	1.60755e-06 	-0.000406861 	0.229826
-0.0051444 	1.60755e-06 	-0.000406861 	0.229826
-0.00505838 	1.98045e-06 	-0.000423006 	0.231944
-0.00505838 	1.98045e-06 	-0.000423006 	0.231944
-0.00497081 	2.35998e-06 	-0.00043841 	0.23403
-0.00497081 	2.35998e-06 	-0.00043841 	0.23403
-0.00488168 	2.74608e-06 	-0.000452983 	0.236083
-0.00488168 	2.74608e-06 	-0.000452983 	0.236083
-0.00479094 	3.1388e-06 	-0.00046664 	0.238102
-0.00479094 	3.1388e-06 	-0.00046664 	0.238102
-0.00469858 	3.53833e-06 	-0.000479298 	0.240088
-0.00469858 	3.53833e-06 	-0.000479298 	0.240088
-0.00460456 	3.945e-06 	-0.000490883 	0.242037
-0.00460456 	3.945e-06 	-0.000490883 	0.242037
-0.00450886 	4.35931e-06 	-0.000501344 	0.24395
-0.00450886 	4.35931e-06 	-0.000501344 	0.24395
-0.00441144 	4.78182e-06 	-0.000510656 	0.245822
-0.00441144 	4.78182e-06 	-0.000510656 	0.245822
-0.00431227 	5.21305e-06 	-0.000518833 	0.247655
-0.00431227 	5.21305e-06 	-0.000518833 	0.247655
-0.00421133 	5.65342e-06 	-0.000525913 	0.249444
-0.00421133 	5.65342e-06 	-0.000525913 	0.249444
-0.00410857 	6.10347e-06 	-0.000531958 	0.251188
-0.00410857 	6.10347e-06 	-0.000531958 	0.251188
-0.00400397 	6.56438e-06 	-0.000537046 	0.252884
-0.00400397 	6.56438e-06 	-0.000537046 	0.252884
-0.0038975 	7.03782e-06 	-0.000541268 	0.254533
-0.0038975 	7.03782e-06 	-0.000541268 	0.254533
-0.00378912 	7.52486e-06 	-0.000544713 	0.256135
-0.00378912 	7.52486e-06 	-0.000544713 	0.256135
-0.00367879 	8.02509e-06 	-0.000547455 	0.257693
-0.00367879 	8.02509e-06 	-0.000547455 	0.257693
-0.00356649 	8.53709e-06 	-0.000549555 	0.259208
-0.00356649 	8.53709e-06 	-0.000549555 	0.259208
-0.00345217 	9.0594e-06 	-0.000551071 	0.260677
-0.00345217 	9.0594e-06 	-0.000551071 	0.260677
-0.0033358 	9.59075e-06 	-0.000552066 	0.262097
-0.0033358 	9.59075e-06 	-0.000552066 	0.262097
-0.00321735 	1.01298e-05 	-0.000552608 	0.263467
-0.00321735 	1.01298e-05 	-0.000552608 	0.263467
-0.00309677 	1.0675e-05 	-0.000552769 	0.264784
-0.00309677 	1.0675e-05 	-0.000552769 	0.264784
-0.00297403 	1.12242e-05 	-0.000552629 	0.266044
-0.00297403 	1.12242e-05 	-0.000552629 	0.266044
-0.00284909 	1.17754e-05 	-0.000552268 	0.267247
-0.00284909 	1.17754e-05 	-0.000552268 	0.267247
-0.0027219 	1.23257e-05 	-0.000551771 	0.268387
-0.0027219 	1.23257e-05 	-0.000551771 	0.268387
-0.00259244 	1.28724e-05 	-0.000551216 	0.269464
-0.00259244 	1.28724e-05 	-0.000551216 	0.269464
-0.00246065 	1.34127e-05 	-0.000550679 	0.270474
-0.00246065 	1.34127e-05 	-0.000550679 	0.270474
-0.00232651 	1.39433e-05 	-0.000550227 	0.271415
-0.00232651 	1.39433e-05 	-0.000550227 	0.271415
-0.00218995 	1.4461e-05 	-0.000549917 	0.272285
-0.00218995 	1.4461e-05 	-0.000549917 	0.272285
-0.00205095 	1.49623e-05 	-0.000549792 	0.273082
-0.00205095 	1.49623e-05 	-0.000549792 	0.273082
-0.00190946 	1.54435e-05 	-0.000549882 	0.273805
-0.00190946 	1.54435e-05 	-0.000549882 	0.273805
-0.00176543 	1.59008e-05 	-0.000550199 	0.274452
-0.00176543 	1.59008e-05 	-0.000550199 	0.274452
-0.00161881 	1.63292e-05 	-0.000550736 	0.275022
-0.00161881 	1.63292e-05 	-0.000550736 	0.275022
-0.00146957 	1.67231e-05 	-0.000551468 	0.275516
-0.00146957 	1.67231e-05 	-0.000551468 	0.275516
-0.00131765 	1.70757e-05 	-0.00055235 	0.275935
-0.00131765 	1.70757e-05 	-0.00055235 	0.275935
-0.001163 	1.73798e-05 	-0.00055333 	0.276277
-0.001163 	1.73798e-05 	-0.00055333 	0.276277
-0.00100559 	1.76275e-05 	-0.000554347 	0.276543
-0.00100559 	1.76275e-05 	-0.000554347 	0.276543
-0.000845345 	1.78098e-05 	-0.000555307 	0.276732
-0.000845345 	1.78098e-05 	-0.000555307 	0.276732
-0.000682232 	1.79163e-05 	-0.000556177 	0.276844
-0.000682232 	1.79163e-05 	-0.000556177 	0.276844
-0.000516194 	1.79352e-05 	-0.000556933 	0.276876
-0.000516194 	1.79352e-05 	-0.000556933 	0.276876
-0.000347178 	1.78544e-05 	-0.000557463 	0.276827
-0.000347178 	1.78544e-05 	-0.000557463 	0.276827
-0.000175132 	1.76593e-05 	-0.000557807 	0.276694
-0.000175132 	1.76593e-05 	-0.000557807 	0.276694
0 	1.73373e-05 	-0.000557854 	0.276474
0 	1.73373e-05 	-0.000557854 	0.276474
0 	1.73373e-05 	-0.000557854 	0.276474
0 	1.73373e-05 	-0.000557854 	0.276474
0.000175132 	1.68903e-05 	-0.000557459 	0.276171
0.000175132 	2.02621e-05 	-0.000473883 	0.272565
0.000347178 	1.63317e-05 	-0.000556715 	0.275791
0.000347178 	2.13571e-05 	-0.000475358 	0.272257
0.000516194 	1.56804e-05 	-0.000555534 	0.275337
0.000516194 	2.22774e-05 	-0.000476309 	0.271869
0.000682232 	1.49547e-05 	-0.000553937 	0.274816
0.000682232 	2.30405e-05 	-0.000476746 	0.271407
0.000845345 	1.41688e-05 	-0.00055202 	0.27423
0.000845345 	2.36619e-05 	-0.000476922 	0.270873
0.00100559 	1.33359e-05 	-0.000549759 	0.273581
0.00100559 	2.41578e-05 	-0.000476717 	0.270273
0.001163 	1.24679e-05 	-0.000547172 	0.272873
0.001163 	2.45432e-05 	-0.000476132 	0.26961
0.00131765 	1.15756e-05 	-0.00054428 	0.272108
0.00131765 	2.48317e-05 	-0.000475174 	0.268885
0.00146957 	1.0668e-05 	-0.000541097 	0.271288
0.00146957 	2.50351e-05 	-0.000473852 	0.268103
0.00161881 	9.75311e-06 	-0.000537636 	0.270415
0.00161881 	2.51637e-05 	-0.000472178 	0.267265
0.00176543 	8.83764e-06 	-0.00053391 	0.269491
0.00176543 	2.52265e-05 	-0.00047016 	0.266374
0.00190946 	7.9272e-06 	-0.000529928 	0.268517
0.00190946 	2.5231e-05 	-0.000467807 	0.265431
0.00205095 	7.02645e-06 	-0.000525698 	0.267494
0.00205095 	2.51839e-05 	-0.000465126 	0.264437
0.00218995 	6.13919e-06 	-0.000521226 	0.266424
0.00218995 	2.50908e-05 	-0.000462122 	0.263394
0.00232651 	5.2685e-06 	-0.000516516 	0.265308
0.00232651 	2.49565e-05 	-0.000458798 	0.262304
0.00246065 	4.4169e-06 	-0.000511569 	0.264146
0.00246065 	2.47849e-05 	-0.000455158 	0.261166
0.00259244 	3.58645e-06 	-0.000506384 	0.262939
0.00259244 	2.45794e-05 	-0.000451201 	0.259982
0.0027219 	2.77884e-06 	-0.00050096 	0.261687
0.0027219 	2.43425e-05 	-0.000446924 	0.258753
0.00284909 	1.99543e-06 	-0.000495293 	0.260391
0.00284909 	2.40762e-05 	-0.000442322 	0.257478
0.00297403 	1.23726e-06 	-0.000489377 	0.259051
0.00297403 	2.37822e-05 	-0.000437385 	0.256159
0.00309677 	5.0508e-07 	-0.000483204 	0.257666
0.00309677 	2.34616e-05 	-0.000432104 	0.254795
0.00321735 	-2.00532e-07 	-0.000476767 	0.256237
0.00321735 	2.31153e-05 	-0.000426467 	0.253386
0.0033358 	-8.79205e-07 	-0.000470057 	0.254763
0.0033358 	2.27439e-05 	-0.000420464 	0.251931
0.00345217 	2.2348e-05 	-0.000414088 	0.250431
0.00345217 	-1.53071e-06 	-0.000463069 	0.253243
0.00356649 	-2.15491e-06 	-0.000455794 	0.251676
0.00356649 	2.19287e-05 	-0.000407338 	0.248882
0.00367879 	-2.75165e-06 	-0.000448217 	0.250063
0.00367879 	2.14881e-05 	-0.000400205 	0.247287
0.00378912 	-3.32077e-06 	-0.00044032 	0.248401
0.00378912 	2.10293e-05 	-0.000392674 	0.245645
0.0038975 	-3.86219e-06 	-0.000432074 	0.246688
0.0038975 	2.05536e-05 	-0.000384714 	0.243955
0.00400397 	-4.37611e-06 	-0.00042343 	0.244921
0.00400397 	2.00604e-05 	-0.000376254 	0.24221
0.00410857 	1.95487e-05 	-0.00036719 	0.240395
0.00410857 	-4.86263e-06 	-0.000414318 	0.243094
0.00421133 	-5.32204e-06 	-0.000404661 	0.241201
0.00421133 	1.90174e-05 	-0.000357427 	0.238503
0.00431227 	-5.7554e-06 	-0.00039438 	0.239235
0.00431227 	1.84647e-05 	-0.000346903 	0.236526
0.00441144 	-6.16416e-06 	-0.000383415 	0.237189
0.00441144 	1.78882e-05 	-0.000335585 	0.234461
0.00450886 	-6.54954e-06 	-0.000371742 	0.235058
0.00450886 	1.72854e-05 	-0.000323488 	0.232305
0.00460456 	-6.91225e-06 	-0.000359363 	0.232836
0.00460456 	1.66543e-05 	-0.000310653 	0.230052
0.00469858 	-7.25263e-06 	-0.000346294 	0.230519
0.00469858 	1.59931e-05 	-0.000297128 	0.2277
0.00479094 	-7.57083e-06 	-0.000332559 	0.228101
0.00479094 	1.53001e-05 	-0.000282967 	0.225244
0.00488168 	-7.86698e-06 	-0.000318187 	0.225578
0.00488168 	1.45738e-05 	-0.000268228 	0.222679
0.00497081 	-8.14117e-06 	-0.000303218 	0.222947
0.00497081 	1.38129e-05 	-0.000252979 	0.220002
0.00505838 	-8.39346e-06 	-0.000287705 	0.220202
0.00505838 	1.30162e-05 	-0.000237295 	0.217209
0.0051444 	-8.62385e-06 	-0.000271716 	0.21734
0.0051444 	1.21832e-05 	-0.000221267 	0.214297
0.00522891 	-8.83227e-06 	-0.000255334 	0.214358
0.00522891 	1.13134e-05 	-0.000205002 	0.211263
0.00531193 	-9.01856e-06 	-0.000238659 	0.211252
0.00531193 	1.04072e-05 	-0.000188623 	0.208104
0.00539348 	-9.18248e-06 	-0.000221806 	0.20802
0.00539348 	9.46548e-06 	-0.000172266 	0.20482
0.0054736 	-9.32375e-06 	-0.000204901 	0.204657
0.0054736 	8.48959e-06 	-0.000156073 	0.201407
0.00555231 	-9.44196e-06 	-0.000188076 	0.201161
0.00555231 	7.48134e-06 	-0.000140193 	0.197864
0.00562963 	-9.53668e-06 	-0.000171465 	0.197528
0.00562963 	6.44292e-06 	-0.000124768 	0.194188
0.00570559 	-9.6074e-06 	-0.000155201 	0.193753
0.00570559 	5.37697e-06 	-0.00010993 	0.190378
0.00578022 	-9.65355e-06 	-0.000139408 	0.189831
0.00578022 	4.28646e-06 	-9.58001e-05 	0.186428
0.00585352 	-9.6745e-06 	-0.000124201 	0.185758
0.00585352 	3.17482e-06 	-8.24798e-05 	0.182334
0.00592554 	-9.66959e-06 	-0.000109681 	0.181526
0.00592554 	2.04592e-06 	-7.00522e-05 	0.178092
0.00599629 	-9.63808e-06 	-9.59369e-05 	0.177127
0.00599629 	9.0414e-07 	-5.85793e-05 	0.173693
0.00606579 	-9.57911e-06 	-8.30408e-05 	0.172554
0.00606579 	-2.45571e-07 	-4.81037e-05 	0.16913
0.00613406 	-9.49173e-06 	-7.10542e-05 	0.167793
0.00613406 	-1.39782e-06 	-3.86488e-05 	0.16439
0.00620114 	-2.5468e-06 	-3.0221e-05 	0.159456
0.00620114 	-9.375e-06 	-6.00245e-05 	0.162829
0.00626703 	-9.22809e-06 	-4.99888e-05 	0.157645
0.00626703 	-3.68573e-06 	-2.28177e-05 	0.154312
0.00633176 	-4.80619e-06 	-1.64253e-05 	0.148944
0.00633176 	-9.05041e-06 	-4.09755e-05 	0.152225
0.00639535 	-5.89807e-06 	-1.1013e-05 	0.143336
0.00639535 	-8.84145e-06 	-3.29945e-05 	0.146554
0.00645783 	-8.6007e-06 	-2.60356e-05 	0.140616
0.00645783 	-6.94971e-06 	-6.53311e-06 	0.137472
0.0065192 	-8.32784e-06 	-2.00729e-05 	0.134395
0.0065192 	-7.94774e-06 	-2.92612e-06 	0.131335
0.00657949 	-8.02277e-06 	-1.50676e-05 	0.127872
0.00657949 	-8.87678e-06 	-1.23418e-07 	0.124908
0.00663871 	-7.68548e-06 	-1.09677e-05 	0.121033
0.00663871 	-9.71932e-06 	1.95067e-06 	0.118174
0.0066969 	-7.31584e-06 	-7.69445e-06 	0.113859
0.0066969 	-1.04562e-05 	3.38202e-06 	0.111112
0.00675406 	-1.10677e-05 	4.26162e-06 	0.103685
0.00675406 	-6.91354e-06 	-5.15423e-06 	0.106316
0.00681021 	-1.15317e-05 	4.67994e-06 	0.0958706
0.00681021 	-6.47934e-06 	-3.24689e-06 	0.0983753
0.00686537 	-1.18231e-05 	4.72603e-06 	0.0876881
0.00686537 	-6.01721e-06 	-1.87748e-06 	0.0900469
0.00691956 	-1.1917e-05 	4.48857e-06 	0.0792059
0.00691956 	-5.53398e-06 	-9.61528e-07 	0.0813974
0.0069728 	-1.17934e-05 	4.05525e-06 	0.070542
0.0069728 	-5.03789e-06 	-4.06059e-07 	0.0725444
0.0070251 	-4.53801e-06 	-1.15397e-07 	0.0636548
0.0070251 	-1.14428e-05 	3.50781e-06 	0.0618598
0.00707647 	-4.04296e-06 	1.70527e-09 	0.0549254
0.00707647 	-1.08698e-05 	2.91749e-06 	0.0533484
0.00712695 	-3.55929e-06 	2.29458e-08 	0.0465485
0.00712695 	-1.00935e-05 	2.3398e-06 	0.0451907
0.00717653 	-3.09018e-06 	5.29815e-09 	0.0386754
0.00717653 	-9.14251e-06 	1.81169e-06 	0.0375291
0.00722524 	-2.63513e-06 	-1.64432e-08 	0.0313952
0.00722524 	-8.04859e-06 	1.35319e-06 	0.0304472
0.00727309 	-6.83998e-06 	9.70898e-07 	0.0239742
0.00727309 	-2.18974e-06 	-2.6414e-08 	0.0247384
0.0073201 	-5.53794e-06 	6.60676e-07 	0.0181019
0.0073201 	-1.74388e-06 	-2.27564e-08 	0.0186967
0.00736628 	-4.1535e-06 	4.1885e-07 	0.0128037
0.00736628 	-1.27519e-06 	-6.59891e-09 	0.0132416
0.00741165 	-7.79888e-07 	3.49823e-09 	0.00833646
0.00741165 	-2.72065e-06 	2.2664e-07 	0.00804386
0.00745622 	-3.26124e-07 	7.78471e-09 	0.00394127
0.00745622 	-1.31946e-06 	8.95652e-08 	0.00378335
0.0075 	0 	0 	0
0.0075 	0 	0 	0
