/*--------------------------------*- C++ -*----------------------------------*\
| =========                 |                                                 |
| \\      /  F ield         | OpenFOAM: The Open Source CFD Toolbox           |
|  \\    /   O peration     | Version:  v1912                                 |
|   \\  /    A nd           | Website:  www.openfoam.com                      |
|    \\/     M anipulation  |                                                 |
\*---------------------------------------------------------------------------*/
FoamFile
{
    version     2.0;
    format      ascii;
    class       volVectorField;
    location    "197.6";
    object      wallShearStress;
}
// * * * * * * * * * * * * * * * * * * * * * * * * * * * * * * * * * * * * * //

dimensions      [1 -1 -2 0 0 0 0];


internalField   uniform (0 0 0);

boundaryField
{
    leftWall
    {
        type            calculated;
        value           nonuniform 0();
    }
    rightWall
    {
        type            calculated;
        value           nonuniform List<vector> 
128
(
(-1.37181e-05 0.000862204 -0.773734)
(-3.62901e-05 0.000708488 -0.331508)
(3.17956e-05 0.000123333 -0.27752)
(1.34876e-05 6.37268e-05 -0.241275)
(5.21288e-05 6.71625e-06 -0.237086)
(1.47655e-05 1.17677e-05 -0.230437)
(2.18693e-05 -7.93102e-06 -0.233256)
(-4.81983e-07 6.73504e-06 -0.228807)
(-0.00150731 0.00091831 -0.763759)
(0.000897588 0.000660654 -0.329416)
(-0.00126353 0.000134893 -0.275841)
(0.000679467 5.36046e-05 -0.242362)
(-0.000927558 1.1394e-05 -0.234383)
(0.00065872 7.09572e-06 -0.232134)
(-0.00092717 -4.2072e-06 -0.230034)
(0.000715866 2.47797e-06 -0.231055)
(0.000188766 0.000891593 -0.766319)
(-0.0013143 0.000708457 -0.332413)
(-0.000657264 0.000131594 -0.271952)
(0.000101594 6.23258e-05 -0.244221)
(-0.000641081 1.63695e-05 -0.231053)
(0.000455604 6.37523e-06 -0.233867)
(-0.000546161 2.20621e-06 -0.226997)
(0.000455629 3.44045e-07 -0.232781)
(-0.00260975 0.000929284 -0.764157)
(0.000968717 0.000678137 -0.332253)
(-0.000635802 0.00013589 -0.273477)
(0.000574035 5.81432e-05 -0.245573)
(-0.000334548 1.4898e-05 -0.232025)
(0.000520244 4.52741e-06 -0.235404)
(-0.0002982 8.88821e-08 -0.227752)
(0.000459332 -4.89402e-07 -0.234344)
(-0.000314818 0.000964843 -0.766183)
(-0.000690896 0.000686405 -0.333347)
(-0.000220081 0.000140364 -0.272784)
(-1.88878e-05 6.34691e-05 -0.24617)
(-0.000181271 1.59956e-05 -0.231405)
(0.000219372 6.55043e-06 -0.235937)
(-0.000130244 1.38424e-06 -0.227238)
(0.000202237 6.4131e-07 -0.234955)
(-0.000313836 0.000924636 -0.766444)
(0.000664476 0.000673998 -0.333854)
(0.000265386 0.000135455 -0.274365)
(0.000444694 5.80399e-05 -0.246808)
(0.000209 1.36838e-05 -0.232643)
(0.000296664 4.71627e-06 -0.236516)
(0.000174318 -6.14367e-07 -0.22825)
(0.000182399 -1.54458e-07 -0.235429)
(-0.000218303 0.000917882 -0.76814)
(-0.000592977 0.000682117 -0.33474)
(5.8644e-05 0.000131352 -0.275126)
(-0.000123051 6.11274e-05 -0.247468)
(4.49774e-05 1.2854e-05 -0.233559)
(2.4798e-05 6.50763e-06 -0.237031)
(9.2715e-05 -9.46842e-07 -0.229217)
(2.13246e-05 1.28732e-06 -0.235796)
(-0.000509176 0.000932562 -0.768118)
(1.19021e-05 0.000683288 -0.334225)
(3.44604e-05 0.000134317 -0.27533)
(2.88019e-05 6.05294e-05 -0.246982)
(3.56474e-05 1.27e-05 -0.23377)
(2.12395e-05 5.52748e-06 -0.23669)
(5.22897e-05 -1.85901e-06 -0.229517)
(1.26735e-05 2.5713e-07 -0.23559)
(1.33889e-05 0.000931305 -0.768684)
(2.88273e-05 0.000684133 -0.334604)
(-8.65384e-06 0.000133451 -0.275533)
(-1.7669e-05 6.28429e-05 -0.247284)
(-4.59489e-05 1.3298e-05 -0.233933)
(-3.79341e-05 7.35461e-06 -0.236849)
(-3.58016e-05 -1.052e-06 -0.229652)
(-2.27089e-05 1.73076e-06 -0.23566)
(0.000534743 0.000932051 -0.768159)
(3.41456e-05 0.000682886 -0.334314)
(-5.51982e-05 0.000134248 -0.275434)
(-6.54916e-05 6.0785e-05 -0.24708)
(-0.000118909 1.32034e-05 -0.233848)
(-8.86741e-05 5.87534e-06 -0.236744)
(-0.000115523 -1.57678e-06 -0.229562)
(-5.1627e-05 4.11453e-07 -0.235631)
(0.000224927 0.000917422 -0.768223)
(0.000620916 0.00068163 -0.334905)
(-8.95136e-05 0.000131345 -0.275307)
(8.52881e-05 6.15648e-05 -0.247641)
(-0.00011428 1.36499e-05 -0.233697)
(-7.40261e-05 7.17926e-06 -0.237133)
(-0.000139394 -4.77828e-07 -0.229301)
(-4.8912e-05 1.53588e-06 -0.235881)
(0.000310137 0.000924042 -0.76655)
(-0.000659841 0.000673348 -0.334083)
(-0.0003008 0.000135645 -0.274615)
(-0.000473456 5.88005e-05 -0.24704)
(-0.000258301 1.45278e-05 -0.232829)
(-0.000316193 5.4791e-06 -0.236662)
(-0.000194953 -1.13941e-07 -0.228378)
(-0.000195454 1.57014e-07 -0.235565)
(0.000290197 0.000964192 -0.766292)
(0.000669812 0.00068588 -0.333615)
(0.000179357 0.000140918 -0.273056)
(2.19697e-06 6.44063e-05 -0.246436)
(0.000152198 1.69586e-05 -0.231608)
(-0.000216759 6.98528e-06 -0.23611)
(0.000127921 1.76004e-06 -0.227399)
(-0.000203494 9.18134e-07 -0.235135)
(0.00257495 0.00092901 -0.764226)
(-0.00100041 0.000677914 -0.33251)
(0.000609529 0.000136885 -0.273701)
(-0.000573238 5.90353e-05 -0.245828)
(0.000340462 1.59995e-05 -0.23218)
(-0.000501279 4.61974e-06 -0.235573)
(0.000306835 2.26697e-07 -0.227884)
(-0.000452254 -2.57546e-07 -0.234539)
(-0.000225173 0.000891541 -0.766336)
(0.00126763 0.000708319 -0.332626)
(0.000660011 0.000132679 -0.272085)
(-8.65994e-05 6.29972e-05 -0.244435)
(0.000688588 1.71843e-05 -0.231134)
(-0.000428677 6.22954e-06 -0.234025)
(0.000563763 2.28213e-06 -0.22707)
(-0.000446975 3.77353e-07 -0.232969)
(0.00146482 0.000918551 -0.763727)
(-0.000963501 0.000660367 -0.329533)
(0.00129962 0.000135722 -0.275873)
(-0.000658039 5.40671e-05 -0.242479)
(0.00100918 1.16971e-05 -0.23438)
(-0.000633433 7.0573e-06 -0.232225)
(0.000956817 -4.23841e-06 -0.230029)
(-0.000714204 2.51462e-06 -0.231169)
)
;
    }
    leftSides_periodic0
    {
        type            cyclic;
    }
    leftSides_periodic1
    {
        type            cyclic;
    }
    rightSides_periodic0
    {
        type            cyclic;
    }
    rightSides_periodic1
    {
        type            cyclic;
    }
    leftInOut_periodic0
    {
        type            cyclic;
    }
    leftInOut_periodic1
    {
        type            cyclic;
    }
    rightInOut_periodic0
    {
        type            cyclic;
    }
    rightInOut_periodic1
    {
        type            cyclic;
    }
    procBoundary1to0
    {
        type            processor;
        value           uniform (0 0 0);
    }
    procBoundary1to0throughleftInOut_periodic0
    {
        type            processorCyclic;
        value           uniform (0 0 0);
    }
    procBoundary1to2throughleftSides_periodic0
    {
        type            processorCyclic;
        value           uniform (0 0 0);
    }
    procBoundary1to2throughrightSides_periodic0
    {
        type            processorCyclic;
        value           uniform (0 0 0);
    }
    procBoundary1to3
    {
        type            processor;
        value           uniform (0 0 0);
    }
    procBoundary1to3throughrightSides_periodic0
    {
        type            processorCyclic;
        value           uniform (0 0 0);
    }
}


// ************************************************************************* //
