0 	0 	0 	0
0 	0 	0 	0
0.00752508 	0.00073937 	-4.97326e-05 	-0.287862
0.00752508 	0.00073937 	-4.97326e-05 	-0.287862
0.00757525 	0.000728581 	-6.22807e-05 	-0.287718
0.00762542 	0.000717792 	-7.48288e-05 	-0.287573
0.00762542 	0.000717792 	-7.48288e-05 	-0.287573
0.00767559 	0.000707003 	-8.73791e-05 	-0.287429
0.00772575 	0.000696215 	-0.000100166 	-0.287222
0.00777592 	0.000685428 	-0.000112953 	-0.287016
0.00782609 	0.00067464 	-0.00012574 	-0.286809
0.00782609 	0.00067464 	-0.00012574 	-0.286809
0.00787625 	0.00066372 	-0.000136831 	-0.286568
0.00792642 	0.000652705 	-0.000146691 	-0.2863
0.00797659 	0.00064169 	-0.000156552 	-0.286033
0.00802676 	0.000630606 	-0.000165831 	-0.285755
0.00802676 	0.000630606 	-0.000165831 	-0.285755
0.00807692 	0.000619266 	-0.000172934 	-0.285435
0.00812709 	0.000607927 	-0.000180036 	-0.285114
0.00812709 	0.000607927 	-0.000180036 	-0.285114
0.00817726 	0.000596587 	-0.000187138 	-0.284794
0.00822742 	0.000584944 	-0.000194034 	-0.284435
0.00822742 	0.000584944 	-0.000194034 	-0.284435
0.00827759 	0.000573268 	-0.000200908 	-0.284071
0.00832776 	0.000561592 	-0.000207781 	-0.283708
0.00832776 	0.000561592 	-0.000207781 	-0.283708
0.00837793 	0.000549801 	-0.000214135 	-0.283324
0.00842809 	0.000537947 	-0.000220207 	-0.28293
0.00842809 	0.000537947 	-0.000220207 	-0.28293
0.00847826 	0.000526093 	-0.000226279 	-0.282536
0.00847826 	0.000526093 	-0.000226279 	-0.282536
0.00852843 	0.000514107 	-0.000231874 	-0.282136
0.00852843 	0.000514107 	-0.000231874 	-0.282136
0.0085786 	0.000501964 	-0.0002369 	-0.281729
0.0085786 	0.000501964 	-0.0002369 	-0.281729
0.00862876 	0.000489822 	-0.000241925 	-0.281322
0.00867893 	0.000477464 	-0.000246292 	-0.280913
0.00867893 	0.000477464 	-0.000246292 	-0.280913
0.0087291 	0.000464641 	-0.000249244 	-0.280503
0.00877926 	0.000451819 	-0.000252196 	-0.280092
0.00877926 	0.000451819 	-0.000252196 	-0.280092
0.00882943 	0.000438793 	-0.000254816 	-0.27968
0.0088796 	0.000425107 	-0.000256349 	-0.279265
0.0088796 	0.000425107 	-0.000256349 	-0.279265
0.00897993 	0.000397555 	-0.000259272 	-0.278431
0.00897993 	0.000397555 	-0.000259272 	-0.278431
0.0090301 	0.000383007 	-0.000260106 	-0.278004
0.00908027 	0.000368459 	-0.00026094 	-0.277577
0.00908027 	0.000368459 	-0.00026094 	-0.277577
0.00913043 	0.00035372 	-0.000261591 	-0.277145
0.0091806 	0.000338348 	-0.00026164 	-0.276699
0.0091806 	0.000338348 	-0.00026164 	-0.276699
0.00923077 	0.000322975 	-0.000261688 	-0.276253
0.00928094 	0.000307384 	-0.000261501 	-0.2758
0.00928094 	0.000307384 	-0.000261501 	-0.2758
0.0093311 	0.000291302 	-0.00026079 	-0.275332
0.00938127 	0.000275221 	-0.000260079 	-0.274863
0.00938127 	0.000275221 	-0.000260079 	-0.274863
0.00943144 	0.000258909 	-0.000259059 	-0.274381
0.00943144 	0.000258909 	-0.000259059 	-0.274381
0.00948161 	0.000242301 	-0.000257643 	-0.273882
0.00948161 	0.000242301 	-0.000257643 	-0.273882
0.00953177 	0.000225692 	-0.000256226 	-0.273384
0.00953177 	0.000225692 	-0.000256226 	-0.273384
0.00958194 	0.000208847 	-0.000254275 	-0.272862
0.00958194 	0.000208847 	-0.000254275 	-0.272862
0.00963211 	0.000191854 	-0.000251993 	-0.272325
0.00963211 	0.000191854 	-0.000251993 	-0.272325
0.00968227 	0.000174861 	-0.000249711 	-0.271788
0.00968227 	0.000174861 	-0.000249711 	-0.271788
0.00973244 	0.0001576 	-0.000246575 	-0.271216
0.00978261 	0.000140291 	-0.000243285 	-0.270637
0.00983278 	0.000122947 	-0.000239981 	-0.270054
0.00988294 	0.000105358 	-0.000236574 	-0.269442
0.00988294 	0.000105358 	-0.000236574 	-0.269442
0.00993311 	8.77694e-05 	-0.000233167 	-0.26883
0.00998328 	7.00046e-05 	-0.000229726 	-0.268212
0.00998328 	7.00046e-05 	-0.000229726 	-0.268212
0.0100334 	5.20253e-05 	-0.000226244 	-0.267584
0.0100334 	5.20253e-05 	-0.000226244 	-0.267584
0.0100836 	3.40461e-05 	-0.000222761 	-0.266957
0.0101338 	1.59335e-05 	-0.00021791 	-0.266321
0.0101338 	1.59335e-05 	-0.00021791 	-0.266321
0.0102341 	-1.99686e-05 	-0.000207801 	-0.265035
0.0102341 	-1.99686e-05 	-0.000207801 	-0.265035
0.0102843 	-3.65492e-05 	-0.000203393 	-0.264356
0.0103344 	-5.31298e-05 	-0.000198984 	-0.263677
0.0103344 	-5.31298e-05 	-0.000198984 	-0.263677
0.0103846 	-6.7111e-05 	-0.000197888 	-0.262917
0.0103846 	-6.7111e-05 	-0.000197888 	-0.262917
0.0104348 	-8.00214e-05 	-0.000198155 	-0.262123
0.0104849 	-9.21605e-05 	-0.000198927 	-0.261294
0.0104849 	-9.21605e-05 	-0.000198927 	-0.261294
0.0105351 	-0.000101528 	-0.000201509 	-0.260339
0.0105853 	-0.000110895 	-0.000204092 	-0.259384
0.0105853 	-0.000110895 	-0.000204092 	-0.259384
0.0106355 	-0.000121459 	-0.000201588 	-0.258414
0.0106856 	-0.000132378 	-0.000197574 	-0.257439
0.0106856 	-0.000132378 	-0.000197574 	-0.257439
0.0107358 	-0.000145501 	-0.000190903 	-0.256516
0.0107358 	-0.000145501 	-0.000190903 	-0.256516
0.010786 	-0.000162417 	-0.000179659 	-0.255682
0.010786 	-0.000162417 	-0.000179659 	-0.255682
0.0108361 	-0.000179357 	-0.000168429 	-0.25485
0.0108361 	-0.000179357 	-0.000168429 	-0.25485
0.0108863 	-0.000200127 	-0.000159225 	-0.254112
0.0109365 	-0.000220898 	-0.000150022 	-0.253374
0.0109365 	-0.000220898 	-0.000150022 	-0.253374
0.0109866 	-0.000241775 	-0.000144054 	-0.252631
0.0109866 	-0.000241775 	-0.000144054 	-0.252631
0.0110368 	-0.000262701 	-0.000139562 	-0.251887
0.011087 	-0.000283023 	-0.000135488 	-0.251123
0.011087 	-0.000283023 	-0.000135488 	-0.251123
0.0111371 	-0.000302466 	-0.000132021 	-0.250332
0.0111873 	-0.000321696 	-0.000128238 	-0.249534
0.0111873 	-0.000321696 	-0.000128238 	-0.249534
0.0112375 	-0.000339875 	-0.000122903 	-0.2487
0.0112876 	-0.000358055 	-0.000117568 	-0.247866
0.0112876 	-0.000358055 	-0.000117568 	-0.247866
0.0113378 	-0.000375653 	-0.000110801 	-0.246998
0.011388 	-0.000393233 	-0.00010399 	-0.24613
0.011388 	-0.000393233 	-0.00010399 	-0.24613
0.0114883 	-0.000426864 	-9.04144e-05 	-0.244324
0.0114883 	-0.000426864 	-9.04144e-05 	-0.244324
0.0115385 	-0.000442391 	-8.41506e-05 	-0.243382
0.0115886 	-0.000457368 	-7.81242e-05 	-0.242424
0.0115886 	-0.000457368 	-7.81242e-05 	-0.242424
0.0116388 	-0.000471064 	-7.26368e-05 	-0.241429
0.011689 	-0.000483915 	-6.75051e-05 	-0.240409
0.011689 	-0.000483915 	-6.75051e-05 	-0.240409
0.0117391 	-0.00049608 	-6.25163e-05 	-0.239358
0.0117893 	-0.000507691 	-5.76423e-05 	-0.238283
0.0117893 	-0.000507691 	-5.76423e-05 	-0.238283
0.0118395 	-0.000519394 	-5.2361e-05 	-0.237192
0.0118896 	-0.000531174 	-4.67355e-05 	-0.236087
0.0118896 	-0.000531174 	-4.67355e-05 	-0.236087
0.0119398 	-0.000543337 	-4.07774e-05 	-0.234974
0.0119398 	-0.000543337 	-4.07774e-05 	-0.234974
0.01199 	-0.000555794 	-3.45636e-05 	-0.233854
0.01199 	-0.000555794 	-3.45636e-05 	-0.233854
0.0120401 	-0.000568262 	-2.87777e-05 	-0.23272
0.0120401 	-0.000568262 	-2.87777e-05 	-0.23272
0.0120903 	-0.000580736 	-2.32504e-05 	-0.231579
0.0120903 	-0.000580736 	-2.32504e-05 	-0.231579
0.0121405 	-0.000592615 	-1.85639e-05 	-0.230411
0.0121405 	-0.000592615 	-1.85639e-05 	-0.230411
0.0121906 	-0.000604257 	-1.42114e-05 	-0.229232
0.0121906 	-0.000604257 	-1.42114e-05 	-0.229232
0.0122408 	-0.000614922 	-1.04685e-05 	-0.228015
0.0122408 	-0.000614922 	-1.04685e-05 	-0.228015
0.012291 	-0.000625403 	-6.84051e-06 	-0.226789
0.012291 	-0.000625403 	-6.84051e-06 	-0.226789
0.0123411 	-0.000634872 	-3.41555e-06 	-0.225512
0.0123411 	-0.000634872 	-3.41555e-06 	-0.225512
0.0123913 	-0.000644197 	1.29982e-08 	-0.224225
0.0123913 	-0.000644197 	1.29982e-08 	-0.224225
0.0124415 	-0.000652922 	3.45668e-06 	-0.222894
0.0124916 	-0.000661383 	6.86325e-06 	-0.221541
0.0124916 	-0.000661383 	6.86325e-06 	-0.221541
0.012592 	-0.000677066 	1.33885e-05 	-0.218728
0.012592 	-0.000677066 	1.33885e-05 	-0.218728
0.0126421 	-0.000684415 	1.6469e-05 	-0.217282
0.0126923 	-0.000690838 	1.92116e-05 	-0.215774
0.0126923 	-0.000690838 	1.92116e-05 	-0.215774
0.0127425 	-0.000696897 	2.18329e-05 	-0.214245
0.0127425 	-0.000696897 	2.18329e-05 	-0.214245
0.0127926 	-0.000702091 	2.41697e-05 	-0.212664
0.0128428 	-0.000706492 	2.6229e-05 	-0.211036
0.0128428 	-0.000706492 	2.6229e-05 	-0.211036
0.012893 	-0.000710397 	2.8115e-05 	-0.20938
0.0129431 	-0.000713021 	2.95366e-05 	-0.207641
0.0129431 	-0.000713021 	2.95366e-05 	-0.207641
0.0129933 	-0.000715139 	3.07828e-05 	-0.205865
0.0130435 	-0.000716496 	3.1765e-05 	-0.204034
0.0130435 	-0.000716496 	3.1765e-05 	-0.204034
0.0130936 	-0.000716841 	3.24322e-05 	-0.20212
0.0131438 	-0.000716618 	3.29393e-05 	-0.200157
0.0131438 	-0.000716618 	3.29393e-05 	-0.200157
0.013194 	-0.000715505 	3.32105e-05 	-0.198116
0.0132441 	-0.000713405 	3.32569e-05 	-0.195981
0.0132441 	-0.000713405 	3.32569e-05 	-0.195981
0.0132943 	-0.000710633 	3.31588e-05 	-0.193781
0.0133445 	-0.000706902 	3.28643e-05 	-0.191484
0.0133445 	-0.000706902 	3.28643e-05 	-0.191484
0.0133946 	-0.000702029 	3.23365e-05 	-0.189066
0.0134448 	-0.000696331 	3.16325e-05 	-0.186557
0.0134448 	-0.000696331 	3.16325e-05 	-0.186557
0.013495 	-0.000689713 	3.07286e-05 	-0.183945
0.0135452 	-0.000681493 	2.95256e-05 	-0.181147
0.0135452 	-0.000681493 	2.95256e-05 	-0.181147
0.0136455 	-0.000661632 	2.67222e-05 	-0.175144
0.0136455 	-0.000661632 	2.67222e-05 	-0.175144
0.0136957 	-0.000649574 	2.51446e-05 	-0.171884
0.0137458 	-0.000635625 	2.34549e-05 	-0.168389
0.0137458 	-0.000635625 	2.34549e-05 	-0.168389
0.013796 	-0.000620162 	2.16766e-05 	-0.164702
0.0138462 	-0.000603118 	1.9814e-05 	-0.160806
0.0138462 	-0.000603118 	1.9814e-05 	-0.160806
0.0138963 	-0.000584429 	1.78763e-05 	-0.156686
0.0138963 	-0.000584429 	1.78763e-05 	-0.156686
0.0139465 	-0.000563538 	1.588e-05 	-0.152241
0.0139967 	-0.000540881 	1.38656e-05 	-0.147518
0.0139967 	-0.000540881 	1.38656e-05 	-0.147518
0.0140468 	-0.000516414 	1.18343e-05 	-0.142502
0.0140468 	-0.000516414 	1.18343e-05 	-0.142502
0.014097 	-0.000490097 	9.7736e-06 	-0.137167
0.0141472 	-0.000461969 	7.67309e-06 	-0.131489
0.0141973 	-0.000432224 	5.5615e-06 	-0.125443
0.0141973 	-0.000432224 	5.5615e-06 	-0.125443
0.0142475 	-0.000401074 	3.52697e-06 	-0.118946
0.0142977 	-0.000368993 	1.56027e-06 	-0.11204
0.0143478 	-0.000336043 	-3.54419e-07 	-0.104727
0.0143478 	-0.000336043 	-3.54419e-07 	-0.104727
0.014398 	-0.000302295 	-2.18972e-06 	-0.097028
0.014398 	-0.000302295 	-2.18972e-06 	-0.097028
0.0144482 	-0.000267937 	-3.86967e-06 	-0.0889935
0.0144983 	-0.000233281 	-5.28305e-06 	-0.0807021
0.0144983 	-0.000233281 	-5.28305e-06 	-0.0807021
0.0145485 	-0.000198723 	-6.30806e-06 	-0.0722557
0.0145987 	-0.000164724 	-6.82225e-06 	-0.0637652
0.0145987 	-0.000164724 	-6.82225e-06 	-0.0637652
0.0146488 	-0.000131815 	-6.71087e-06 	-0.05533
0.014699 	-0.000100587 	-5.89843e-06 	-0.047018
0.014699 	-0.000100587 	-5.89843e-06 	-0.047018
0.0147492 	-7.17591e-05 	-4.41178e-06 	-0.0388539
0.0147993 	-4.64209e-05 	-2.53465e-06 	-0.0308152
0.0147993 	-4.64209e-05 	-2.53465e-06 	-0.0308152
0.0148495 	-2.65612e-05 	-1.9615e-07 	-0.0228379
0.0148495 	-2.65612e-05 	-1.9615e-07 	-0.0228379
0.0148997 	-1.46471e-05 	1.09791e-06 	-0.0148999
0.0148997 	-1.46471e-05 	1.09791e-06 	-0.0148999
0.0149498 	-8.95807e-06 	9.15655e-07 	-0.00718531
0.0149498 	-8.95807e-06 	9.15655e-07 	-0.00718531
0.015 	0 	0 	0
