0 	0 	0 	0
5.01672e-05 	-0.000291446 	-2.85539e-06 	0.0169011
0.000100334 	-0.000550297 	-6.99247e-06 	0.0326838
0.000150502 	-0.000787574 	-1.29495e-05 	0.0472485
0.000200669 	-0.00102226 	-2.06096e-05 	0.0606383
0.000250836 	-0.00125679 	-3.03127e-05 	0.072984
0.000301003 	-0.00148813 	-4.20589e-05 	0.0843954
0.000351171 	-0.00171346 	-5.57844e-05 	0.0949494
0.000401338 	-0.00192991 	-7.13242e-05 	0.104698
0.000451505 	-0.00213458 	-8.84788e-05 	0.113681
0.000501672 	-0.00232484 	-0.000107117 	0.121936
0.000551839 	-0.00249865 	-0.000127168 	0.12951
0.000602007 	-0.00265485 	-0.00014852 	0.13646
0.000652174 	-0.00279324 	-0.000171007 	0.142847
0.000702341 	-0.00291427 	-0.000194475 	0.148729
0.000752508 	-0.00301865 	-0.000218821 	0.154158
0.000802676 	-0.00310696 	-0.00024397 	0.159177
0.000852843 	-0.00317774 	-0.000269899 	0.163775
0.00090301 	-0.00323456 	-0.000296379 	0.16805
0.000953177 	-0.00327861 	-0.000323317 	0.172036
0.00100334 	-0.00331106 	-0.000350596 	0.175763
0.00105351 	-0.00333302 	-0.000378097 	0.179257
0.00110368 	-0.00334531 	-0.000405715 	0.182537
0.00115385 	-0.00334664 	-0.000433387 	0.185575
0.00120401 	-0.00334053 	-0.000461055 	0.188451
0.00125418 	-0.00332764 	-0.00048868 	0.191179
0.00130435 	-0.00330853 	-0.000516224 	0.193773
0.00135452 	-0.00328203 	-0.00054357 	0.196206
0.00140468 	-0.00324978 	-0.000570671 	0.198515
0.00145485 	-0.0032131 	-0.000597497 	0.200725
0.00150502 	-0.00317234 	-0.000624014 	0.202846
0.00155518 	-0.00312576 	-0.000649902 	0.204836
0.00160535 	-0.00307591 	-0.000675448 	0.206752
0.00165552 	-0.00302317 	-0.00070069 	0.208601
0.00170569 	-0.00296663 	-0.000725519 	0.210359
0.00175585 	-0.00290733 	-0.000749931 	0.212046
0.00180602 	-0.00284624 	-0.000774001 	0.213684
0.00185619 	-0.00278278 	-0.000797472 	0.215252
0.00190635 	-0.00271746 	-0.000820242 	0.216758
0.00195652 	-0.00265098 	-0.000842569 	0.218225
0.00200669 	-0.00258256 	-0.000864109 	0.219628
0.00205686 	-0.00251273 	-0.000885083 	0.220987
0.00210702 	-0.00244198 	-0.000905683 	0.222318
0.00215719 	-0.00236901 	-0.000925349 	0.223585
0.00220736 	-0.00229532 	-0.000944664 	0.22483
0.00225753 	-0.00222045 	-0.000963419 	0.226039
0.00230769 	-0.00214476 	-0.000981494 	0.227207
0.00235786 	-0.00206878 	-0.000999277 	0.228359
0.00240803 	-0.00199288 	-0.00101618 	0.229456
0.00245819 	-0.00191746 	-0.00103278 	0.230535
0.00250836 	-0.00184302 	-0.00104877 	0.231575
0.00255853 	-0.00177011 	-0.00106415 	0.23258
0.0026087 	-0.00169827 	-0.00107908 	0.233561
0.00265886 	-0.00162887 	-0.00109302 	0.234496
0.00270903 	-0.00156004 	-0.00110672 	0.23542
0.0027592 	-0.00149377 	-0.00111919 	0.236294
0.00280936 	-0.00142779 	-0.00113149 	0.237161
0.00285953 	-0.00136331 	-0.00114291 	0.237991
0.0029097 	-0.0012992 	-0.00115407 	0.23881
0.00295987 	-0.001236 	-0.00116463 	0.239601
0.00301003 	-0.00117334 	-0.00117487 	0.240379
0.0030602 	-0.00111157 	-0.00118457 	0.241135
0.00311037 	-0.00105069 	-0.00119387 	0.241875
0.00316054 	-0.000990956 	-0.00120264 	0.242596
0.0032107 	-0.000932443 	-0.00121094 	0.243302
0.00326087 	-0.000875374 	-0.00121869 	0.24399
0.00331104 	-0.000819678 	-0.00122603 	0.244664
0.0033612 	-0.000765689 	-0.00123285 	0.245321
0.00341137 	-0.000713075 	-0.00123943 	0.245966
0.00346154 	-0.000662544 	-0.00124565 	0.246593
0.00351171 	-0.00061334 	-0.00125172 	0.247211
0.00356187 	-0.000567054 	-0.00125744 	0.247808
0.00361204 	-0.000521676 	-0.00126295 	0.2484
0.00366221 	-0.000480163 	-0.00126758 	0.248969
0.00371237 	-0.00043873 	-0.00127216 	0.249537
0.00376254 	-0.00039989 	-0.00127499 	0.250093
0.00381271 	-0.000361051 	-0.00127782 	0.250649
0.00386288 	-0.000319466 	-0.00127924 	0.251222
0.00391304 	-0.000277321 	-0.00128038 	0.2518
0.00396321 	-0.000230353 	-0.00128145 	0.252406
0.00401338 	-0.000180061 	-0.00128248 	0.253032
0.00406355 	-0.000129587 	-0.00128387 	0.253661
0.00411371 	-7.87116e-05 	-0.00128606 	0.254297
0.00416388 	-2.78365e-05 	-0.00128824 	0.254933
0.00421405 	7.21532e-06 	-0.00129009 	0.255491
0.00426421 	4.21662e-05 	-0.00129194 	0.256049
0.00431438 	6.30808e-05 	-0.00129227 	0.256539
0.00436455 	7.58384e-05 	-0.00129171 	0.256988
0.00441472 	8.46057e-05 	-0.00129063 	0.25742
0.00446488 	7.99318e-05 	-0.00128776 	0.257792
0.00451505 	7.5258e-05 	-0.00128489 	0.258164
0.00456522 	6.10262e-05 	-0.00128143 	0.2585
0.00461538 	4.41342e-05 	-0.00127781 	0.258826
0.00466555 	2.45378e-05 	-0.00127417 	0.259142
0.00471572 	-1.62316e-06 	-0.00127052 	0.259436
0.00476589 	-2.77841e-05 	-0.00126687 	0.25973
0.00481605 	-6.0371e-05 	-0.00126284 	0.260002
0.00486622 	-9.50252e-05 	-0.0012587 	0.260267
0.00491639 	-0.00013111 	-0.00125443 	0.260527
0.00496656 	-0.000173897 	-0.00124957 	0.260764
0.00501672 	-0.000216684 	-0.00124471 	0.261001
0.00506689 	-0.000263186 	-0.0012395 	0.261221
0.00511706 	-0.000312738 	-0.00123399 	0.261429
0.00516722 	-0.000362291 	-0.00122849 	0.261637
0.00521739 	-0.000415716 	-0.00122246 	0.26182
0.00526756 	-0.000469695 	-0.00121635 	0.261999
0.00531773 	-0.000524014 	-0.00121015 	0.262173
0.00536789 	-0.000580219 	-0.00120348 	0.262323
0.00541806 	-0.000636423 	-0.0011968 	0.262474
0.00546823 	-0.000693021 	-0.00118994 	0.262613
0.00551839 	-0.000750254 	-0.00118279 	0.262736
0.00556856 	-0.000807487 	-0.00117563 	0.262858
0.00561873 	-0.000865054 	-0.00116828 	0.262965
0.0056689 	-0.000922881 	-0.00116077 	0.263061
0.00571906 	-0.000980708 	-0.00115327 	0.263156
0.00576923 	-0.00103884 	-0.00114558 	0.263233
0.0058194 	-0.00109712 	-0.00113781 	0.263302
0.00586957 	-0.0011554 	-0.00113004 	0.263371
0.00591973 	-0.00121397 	-0.00112211 	0.26342
0.0059699 	-0.00127263 	-0.00111412 	0.263463
0.00602007 	-0.00133129 	-0.00110613 	0.263506
0.00607023 	-0.00139021 	-0.00109801 	0.26353
0.0061204 	-0.00144921 	-0.00108985 	0.263548
0.00617057 	-0.00150821 	-0.0010817 	0.263567
0.00622074 	-0.00156742 	-0.00107346 	0.263567
0.0062709 	-0.00162669 	-0.00106519 	0.263561
0.00632107 	-0.00168597 	-0.00105693 	0.263555
0.00637124 	-0.00174538 	-0.00104863 	0.263533
0.0064214 	-0.00180485 	-0.00104033 	0.263503
0.00647157 	-0.00186432 	-0.00103203 	0.263473
0.00652174 	-0.00192378 	-0.00102374 	0.263431
0.00657191 	-0.00198325 	-0.00101548 	0.263378
0.00662207 	-0.00204271 	-0.00100721 	0.263324
0.00667224 	-0.00210205 	-0.000998977 	0.263263
0.00672241 	-0.00216113 	-0.000990804 	0.263186
0.00677258 	-0.00222021 	-0.000982631 	0.26311
0.00682274 	-0.00227918 	-0.000974471 	0.263031
0.00687291 	-0.00233724 	-0.000966427 	0.26293
0.00692308 	-0.0023953 	-0.000958384 	0.26283
0.00697324 	-0.00245336 	-0.000950341 	0.26273
0.00702341 	-0.00250999 	-0.000942627 	0.262611
0.00707358 	-0.00256624 	-0.000935 	0.262486
0.00712375 	-0.00262249 	-0.000927373 	0.262362
0.00717391 	-0.00267782 	-0.000919985 	0.262228
0.00722408 	-0.00273186 	-0.000912928 	0.262079
0.00727425 	-0.0027859 	-0.000905871 	0.261931
0.00732441 	-0.00283994 	-0.000898814 	0.261783
0.00737458 	-0.00289155 	-0.0008918 	0.261612
0.00742475 	-0.00294313 	-0.000884787 	0.261441
0.00747492 	-0.00299472 	-0.000877773 	0.26127
0.00752508 	-0.00304501 	-0.000870562 	0.261087
0.00757525 	-0.00309401 	-0.000863152 	0.260892
0.00762542 	-0.00314302 	-0.000855742 	0.260697
0.00767559 	-0.00319198 	-0.000848333 	0.260502
0.00772575 	-0.00323696 	-0.000841024 	0.260285
0.00777592 	-0.00328193 	-0.000833716 	0.260068
0.00782609 	-0.0033269 	-0.000826408 	0.25985
0.00787625 	-0.00336774 	-0.00081958 	0.259625
0.00792642 	-0.00340557 	-0.000813101 	0.259394
0.00797659 	-0.00344341 	-0.000806623 	0.259162
0.00802676 	-0.00347936 	-0.000800298 	0.258929
0.00807692 	-0.00350822 	-0.00079455 	0.25869
0.00812709 	-0.00353708 	-0.000788803 	0.258451
0.00817726 	-0.00356595 	-0.000783056 	0.258212
0.00822742 	-0.00358683 	-0.000777733 	0.257964
0.00827759 	-0.00360683 	-0.000772457 	0.257715
0.00832776 	-0.00362683 	-0.000767181 	0.257467
0.00837793 	-0.00364154 	-0.000762221 	0.257208
0.00842809 	-0.00365339 	-0.000757431 	0.256945
0.00847826 	-0.00366525 	-0.000752641 	0.256682
0.00852843 	-0.00367365 	-0.000748034 	0.25641
0.0085786 	-0.0036779 	-0.000743645 	0.256129
0.00862876 	-0.00368216 	-0.000739256 	0.255849
0.00867893 	-0.00368409 	-0.000734978 	0.255562
0.0087291 	-0.00368102 	-0.000730938 	0.255263
0.00877926 	-0.00367795 	-0.000726899 	0.254964
0.00882943 	-0.00367319 	-0.000722939 	0.25466
0.0088796 	-0.0036629 	-0.000719239 	0.254341
0.00892977 	-0.00365261 	-0.00071554 	0.254022
0.00897993 	-0.00364087 	-0.000711891 	0.253698
0.0090301 	-0.00362357 	-0.000708436 	0.253358
0.00908027 	-0.00360627 	-0.00070498 	0.253018
0.00913043 	-0.00358747 	-0.000701562 	0.252672
0.0091806 	-0.00356373 	-0.00069827 	0.252308
0.00923077 	-0.00353998 	-0.000694978 	0.251945
0.00928094 	-0.00351454 	-0.000691727 	0.251574
0.0093311 	-0.00348532 	-0.000688568 	0.251187
0.00938127 	-0.00345609 	-0.000685409 	0.2508
0.00943144 	-0.00342499 	-0.000682288 	0.250402
0.00948161 	-0.00339149 	-0.000679216 	0.249991
0.00953177 	-0.00335799 	-0.000676143 	0.24958
0.00958194 	-0.0033226 	-0.000673099 	0.249154
0.00963211 	-0.00328605 	-0.000670074 	0.24872
0.00968227 	-0.00324951 	-0.000667048 	0.248286
0.00973244 	-0.00321133 	-0.000664031 	0.247832
0.00978261 	-0.00317287 	-0.000661016 	0.247376
0.00983278 	-0.00313428 	-0.000657996 	0.246916
0.00988294 	-0.00309484 	-0.000654944 	0.246438
0.00993311 	-0.00305541 	-0.000651892 	0.24596
0.00998328 	-0.00301588 	-0.000648808 	0.245472
0.0100334 	-0.00297624 	-0.000645686 	0.244973
0.0100836 	-0.00293659 	-0.000642563 	0.244473
0.0101338 	-0.00289726 	-0.000639358 	0.243957
0.0101839 	-0.00285799 	-0.000636134 	0.243437
0.0102341 	-0.00281891 	-0.000632875 	0.242912
0.0102843 	-0.00278045 	-0.000629501 	0.242372
0.0103344 	-0.00274198 	-0.000626128 	0.241832
0.0103846 	-0.00270423 	-0.000622586 	0.241277
0.0104348 	-0.00266678 	-0.000618974 	0.240716
0.0104849 	-0.00262951 	-0.000615292 	0.240151
0.0105351 	-0.00259288 	-0.000611359 	0.239569
0.0105853 	-0.00255624 	-0.000607426 	0.238987
0.0106355 	-0.00251963 	-0.000603276 	0.238387
0.0106856 	-0.00248302 	-0.00059906 	0.237782
0.0107358 	-0.00244588 	-0.0005948 	0.237168
0.010786 	-0.00240784 	-0.00059046 	0.236536
0.0108361 	-0.00236979 	-0.000586121 	0.235905
0.0108863 	-0.00232849 	-0.00058182 	0.235242
0.0109365 	-0.0022872 	-0.000577518 	0.234579
0.0109866 	-0.00224252 	-0.000573275 	0.233891
0.0110368 	-0.00219629 	-0.000569059 	0.233191
0.011087 	-0.00214769 	-0.000564851 	0.232474
0.0111371 	-0.00209563 	-0.000560656 	0.231732
0.0111873 	-0.00204267 	-0.000556435 	0.230983
0.0112375 	-0.0019853 	-0.000552095 	0.230197
0.0112876 	-0.00192794 	-0.000547755 	0.229412
0.0113378 	-0.00186762 	-0.000542972 	0.228585
0.011388 	-0.00180722 	-0.000538177 	0.227757
0.0114381 	-0.00174727 	-0.000532811 	0.226897
0.0114883 	-0.00168742 	-0.000527311 	0.22603
0.0115385 	-0.00163043 	-0.000521328 	0.225138
0.0115886 	-0.00157472 	-0.000515125 	0.224235
0.0116388 	-0.00152271 	-0.000508639 	0.223313
0.011689 	-0.00147315 	-0.000501965 	0.222378
0.0117391 	-0.00142689 	-0.00049525 	0.221424
0.0117893 	-0.00138329 	-0.000488503 	0.220455
0.0118395 	-0.00134214 	-0.00048189 	0.219466
0.0118896 	-0.00130307 	-0.000475391 	0.21846
0.0119398 	-0.00126567 	-0.000469044 	0.217428
0.01199 	-0.00122955 	-0.000462812 	0.216377
0.0120401 	-0.00119458 	-0.000456619 	0.215294
0.0120903 	-0.0011603 	-0.00045045 	0.214192
0.0121405 	-0.00112689 	-0.000444149 	0.213049
0.0121906 	-0.00109382 	-0.000437794 	0.211889
0.0122408 	-0.00106156 	-0.000431065 	0.210676
0.012291 	-0.00102945 	-0.000424264 	0.209453
0.0123411 	-0.000998184 	-0.000416875 	0.208161
0.0123913 	-0.000967048 	-0.000409385 	0.206855
0.0124415 	-0.000936476 	-0.000401466 	0.205487
0.0124916 	-0.000906123 	-0.000393373 	0.204086
0.0125418 	-0.000876081 	-0.000385033 	0.202638
0.012592 	-0.000846298 	-0.000376453 	0.201132
0.0126421 	-0.000816644 	-0.000367755 	0.199597
0.0126923 	-0.000787266 	-0.000358734 	0.197976
0.0127425 	-0.00075796 	-0.000349607 	0.196325
0.0127926 	-0.000728816 	-0.000340231 	0.194603
0.0128428 	-0.000699774 	-0.000330638 	0.192819
0.012893 	-0.000670796 	-0.000320908 	0.190995
0.0129431 	-0.000641979 	-0.000310815 	0.189063
0.0129933 	-0.00061326 	-0.000300576 	0.187084
0.0130435 	-0.000584692 	-0.00029012 	0.185034
0.0130936 	-0.000556441 	-0.000279398 	0.182879
0.0131438 	-0.000528417 	-0.000268547 	0.180662
0.013194 	-0.000500794 	-0.000257512 	0.178344
0.0132441 	-0.000473793 	-0.000246317 	0.175909
0.0132943 	-0.000447306 	-0.000235018 	0.173392
0.0133445 	-0.000421657 	-0.000223577 	0.170756
0.0133946 	-0.000397264 	-0.000211969 	0.167972
0.0134448 	-0.000373835 	-0.000200275 	0.16508
0.013495 	-0.000351507 	-0.000188502 	0.162066
0.0135452 	-0.000331086 	-0.000176798 	0.158846
0.0135953 	-0.000312007 	-0.000165243 	0.155488
0.0136455 	-0.00029441 	-0.00015386 	0.151986
0.0136957 	-0.000278778 	-0.000142706 	0.148303
0.0137458 	-0.000265704 	-0.000131822 	0.144402
0.013796 	-0.000254734 	-0.000121182 	0.140326
0.0138462 	-0.000246009 	-0.000110825 	0.136065
0.0138963 	-0.000239672 	-0.000100801 	0.131608
0.0139465 	-0.000236608 	-9.12802e-05 	0.126875
0.0139967 	-0.000235998 	-8.21903e-05 	0.121917
0.0140468 	-0.000237586 	-7.3578e-05 	0.116725
0.014097 	-0.000241131 	-6.55078e-05 	0.111287
0.0141472 	-0.000246311 	-5.80418e-05 	0.105587
0.0141973 	-0.000252683 	-5.12152e-05 	0.0996063
0.0142475 	-0.00025947 	-4.507e-05 	0.0932917
0.0142977 	-0.000265652 	-3.9425e-05 	0.0866959
0.0143478 	-0.0002703 	-3.428e-05 	0.0798389
0.014398 	-0.000272584 	-2.96573e-05 	0.0727603
0.0144482 	-0.000272127 	-2.55313e-05 	0.0655262
0.0144983 	-0.000269185 	-2.18264e-05 	0.0582275
0.0145485 	-0.000264667 	-1.84559e-05 	0.0509732
0.0145987 	-0.000259784 	-1.53426e-05 	0.0438788
0.0146488 	-0.000255146 	-1.24131e-05 	0.0370504
0.014699 	-0.000249485 	-9.61085e-06 	0.0305701
0.0147492 	-0.000238255 	-6.92565e-06 	0.0244876
0.0147993 	-0.000211539 	-4.42715e-06 	0.0188202
0.0148495 	-0.000149267 	-2.18665e-06 	0.013556
0.0148997 	-4.51783e-05 	-6.26371e-07 	0.00866238
0.0149498 	3.45062e-05 	5.31365e-08 	0.00412831
0.015 	0 	0 	0
