0 	0 	0 	0
0 	0 	0 	0
0.00752508 	0.00338594 	-0.000425018 	-0.279148
0.00752508 	0.00338594 	-0.000425018 	-0.279148
0.00757525 	0.00341424 	-0.000463936 	-0.278865
0.00762542 	0.00344253 	-0.000502853 	-0.278582
0.00762542 	0.00344253 	-0.000502853 	-0.278582
0.00767559 	0.00347082 	-0.000541944 	-0.278298
0.00772575 	0.0034986 	-0.00060006 	-0.277976
0.00777592 	0.00352638 	-0.000658176 	-0.277655
0.00782609 	0.00355416 	-0.000716291 	-0.277333
0.00782609 	0.00355416 	-0.000716291 	-0.277333
0.00787625 	0.00358548 	-0.000708347 	-0.276884
0.00792642 	0.00361936 	-0.000652483 	-0.276344
0.00797659 	0.00365324 	-0.00059662 	-0.275805
0.00802676 	0.00368704 	-0.000546541 	-0.275252
0.00802676 	0.00368704 	-0.000546541 	-0.275252
0.00807692 	0.00372049 	-0.000518153 	-0.274653
0.00812709 	0.00375395 	-0.000489765 	-0.274053
0.00812709 	0.00375395 	-0.000489765 	-0.274053
0.00817726 	0.0037874 	-0.000461377 	-0.273454
0.00822742 	0.00381798 	-0.00047942 	-0.273072
0.00822742 	0.00381798 	-0.00047942 	-0.273072
0.00827759 	0.00384824 	-0.000502574 	-0.272713
0.00832776 	0.0038785 	-0.000525728 	-0.272355
0.00832776 	0.0038785 	-0.000525728 	-0.272355
0.00837793 	0.00390556 	-0.000543437 	-0.272144
0.00842809 	0.0039309 	-0.000558209 	-0.272013
0.00842809 	0.0039309 	-0.000558209 	-0.272013
0.00847826 	0.00395624 	-0.00057298 	-0.271882
0.00847826 	0.00395624 	-0.00057298 	-0.271882
0.00852843 	0.00397748 	-0.000605488 	-0.271787
0.00852843 	0.00397748 	-0.000605488 	-0.271787
0.0085786 	0.00399382 	-0.000659214 	-0.271737
0.0085786 	0.00399382 	-0.000659214 	-0.271737
0.00862876 	0.00401016 	-0.00071294 	-0.271686
0.00867893 	0.00402879 	-0.000744876 	-0.271591
0.00867893 	0.00402879 	-0.000744876 	-0.271591
0.0087291 	0.00405236 	-0.00072997 	-0.271404
0.00877926 	0.00407592 	-0.000715064 	-0.271217
0.00877926 	0.00407592 	-0.000715064 	-0.271217
0.00882943 	0.00410105 	-0.000702724 	-0.270965
0.0088796 	0.00413128 	-0.000698738 	-0.270502
0.0088796 	0.00413128 	-0.000698738 	-0.270502
0.00897993 	0.00418585 	-0.000709874 	-0.269571
0.00897993 	0.00418585 	-0.000709874 	-0.269571
0.0090301 	0.00418759 	-0.000798353 	-0.269091
0.00908027 	0.00418933 	-0.000886831 	-0.268611
0.00908027 	0.00418933 	-0.000886831 	-0.268611
0.00913043 	0.00418146 	-0.000952712 	-0.26819
0.0091806 	0.00414171 	-0.000943667 	-0.267965
0.0091806 	0.00414171 	-0.000943667 	-0.267965
0.00923077 	0.00410196 	-0.000934622 	-0.26774
0.00928094 	0.00405743 	-0.000902304 	-0.267528
0.00928094 	0.00405743 	-0.000902304 	-0.267528
0.0093311 	0.00400219 	-0.000817988 	-0.267346
0.00938127 	0.00394696 	-0.000733672 	-0.267163
0.00938127 	0.00394696 	-0.000733672 	-0.267163
0.00943144 	0.00389242 	-0.000674402 	-0.26691
0.00943144 	0.00389242 	-0.000674402 	-0.26691
0.00948161 	0.00383876 	-0.000647249 	-0.266568
0.00948161 	0.00383876 	-0.000647249 	-0.266568
0.00953177 	0.0037851 	-0.000620095 	-0.266226
0.00953177 	0.0037851 	-0.000620095 	-0.266226
0.00958194 	0.00372747 	-0.000604878 	-0.265858
0.00958194 	0.00372747 	-0.000604878 	-0.265858
0.00963211 	0.00366738 	-0.000597048 	-0.265475
0.00963211 	0.00366738 	-0.000597048 	-0.265475
0.00968227 	0.00360729 	-0.000589219 	-0.265092
0.00968227 	0.00360729 	-0.000589219 	-0.265092
0.00973244 	0.00353534 	-0.00058079 	-0.264756
0.00978261 	0.00346126 	-0.000572253 	-0.264428
0.00983278 	0.00338642 	-0.000565781 	-0.264102
0.00988294 	0.00330633 	-0.000573769 	-0.263787
0.00988294 	0.00330633 	-0.000573769 	-0.263787
0.00993311 	0.00322625 	-0.000581756 	-0.263472
0.00998328 	0.00314861 	-0.000585394 	-0.26314
0.00998328 	0.00314861 	-0.000585394 	-0.26314
0.0100334 	0.00307395 	-0.000583735 	-0.262787
0.0100334 	0.00307395 	-0.000583735 	-0.262787
0.0100836 	0.00299929 	-0.000582077 	-0.262433
0.0101338 	0.00292791 	-0.000570147 	-0.262055
0.0101338 	0.00292791 	-0.000570147 	-0.262055
0.0102341 	0.00278585 	-0.000542336 	-0.261284
0.0102341 	0.00278585 	-0.000542336 	-0.261284
0.0102843 	0.00271231 	-0.000530006 	-0.260882
0.0103344 	0.00263877 	-0.000517675 	-0.26048
0.0103344 	0.00263877 	-0.000517675 	-0.26048
0.0103846 	0.00256122 	-0.000505263 	-0.260062
0.0103846 	0.00256122 	-0.000505263 	-0.260062
0.0104348 	0.00248203 	-0.000492817 	-0.259638
0.0104849 	0.00240148 	-0.000480181 	-0.259209
0.0104849 	0.00240148 	-0.000480181 	-0.259209
0.0105351 	0.00231604 	-0.00046686 	-0.258762
0.0105853 	0.0022306 	-0.000453539 	-0.258315
0.0105853 	0.0022306 	-0.000453539 	-0.258315
0.0106355 	0.00214056 	-0.000439543 	-0.257848
0.0106856 	0.00204915 	-0.000425347 	-0.257376
0.0106856 	0.00204915 	-0.000425347 	-0.257376
0.0107358 	0.00195572 	-0.000411203 	-0.256894
0.0107358 	0.00195572 	-0.000411203 	-0.256894
0.010786 	0.00185879 	-0.000397147 	-0.256396
0.010786 	0.00185879 	-0.000397147 	-0.256396
0.0108361 	0.00176184 	-0.000383096 	-0.255897
0.0108361 	0.00176184 	-0.000383096 	-0.255897
0.0108863 	0.00166032 	-0.000369782 	-0.25537
0.0109365 	0.00155881 	-0.000356468 	-0.254843
0.0109365 	0.00155881 	-0.000356468 	-0.254843
0.0109866 	0.00145489 	-0.000341885 	-0.254294
0.0109866 	0.00145489 	-0.000341885 	-0.254294
0.0110368 	0.00134989 	-0.000326724 	-0.253736
0.011087 	0.00124361 	-0.000310124 	-0.253162
0.011087 	0.00124361 	-0.000310124 	-0.253162
0.0111371 	0.0011355 	-0.000291435 	-0.252569
0.0111873 	0.00102695 	-0.000272665 	-0.251968
0.0111873 	0.00102695 	-0.000272665 	-0.251968
0.0112375 	0.000916249 	-0.000253497 	-0.251334
0.0112876 	0.000805552 	-0.000234329 	-0.2507
0.0112876 	0.000805552 	-0.000234329 	-0.2507
0.0113378 	0.00069344 	-0.000220375 	-0.250019
0.011388 	0.000581284 	-0.00020658 	-0.249337
0.011388 	0.000581284 	-0.00020658 	-0.249337
0.0114883 	0.000354642 	-0.000190771 	-0.247876
0.0114883 	0.000354642 	-0.000190771 	-0.247876
0.0115385 	0.000239863 	-0.000182539 	-0.247105
0.0115886 	0.000124477 	-0.000173877 	-0.246317
0.0115886 	0.000124477 	-0.000173877 	-0.246317
0.0116388 	7.56822e-06 	-0.000161775 	-0.245502
0.011689 	-0.000110344 	-0.000147403 	-0.244669
0.011689 	-0.000110344 	-0.000147403 	-0.244669
0.0117391 	-0.000229173 	-0.00013187 	-0.243813
0.0117893 	-0.000348738 	-0.000115403 	-0.242939
0.0117893 	-0.000348738 	-0.000115403 	-0.242939
0.0118395 	-0.000467407 	-9.99212e-05 	-0.242046
0.0118896 	-0.000585317 	-8.52719e-05 	-0.241138
0.0118896 	-0.000585317 	-8.52719e-05 	-0.241138
0.0119398 	-0.000700489 	-7.28688e-05 	-0.240214
0.0119398 	-0.000700489 	-7.28688e-05 	-0.240214
0.01199 	-0.000813553 	-6.21926e-05 	-0.239278
0.01199 	-0.000813553 	-6.21926e-05 	-0.239278
0.0120401 	-0.000923053 	-5.32314e-05 	-0.238327
0.0120401 	-0.000923053 	-5.32314e-05 	-0.238327
0.0120903 	-0.0010304 	-4.5306e-05 	-0.237366
0.0120903 	-0.0010304 	-4.5306e-05 	-0.237366
0.0121405 	-0.001135 	-3.79418e-05 	-0.236385
0.0121405 	-0.001135 	-3.79418e-05 	-0.236385
0.0121906 	-0.0012385 	-3.08004e-05 	-0.235397
0.0121906 	-0.0012385 	-3.08004e-05 	-0.235397
0.0122408 	-0.00134159 	-2.40231e-05 	-0.234377
0.0122408 	-0.00134159 	-2.40231e-05 	-0.234377
0.012291 	-0.0014446 	-1.73145e-05 	-0.233351
0.012291 	-0.0014446 	-1.73145e-05 	-0.233351
0.0123411 	-0.0015493 	-1.10652e-05 	-0.232281
0.0123411 	-0.0015493 	-1.10652e-05 	-0.232281
0.0123913 	-0.00165455 	-4.92088e-06 	-0.2312
0.0123913 	-0.00165455 	-4.92088e-06 	-0.2312
0.0124415 	-0.00176208 	7.81371e-07 	-0.230076
0.0124916 	-0.0018714 	6.26113e-06 	-0.228927
0.0124916 	-0.0018714 	6.26113e-06 	-0.228927
0.012592 	-0.00209866 	1.63999e-05 	-0.226512
0.012592 	-0.00209866 	1.63999e-05 	-0.226512
0.0126421 	-0.00221581 	2.12766e-05 	-0.225258
0.0126923 	-0.00233692 	2.60016e-05 	-0.223934
0.0126923 	-0.00233692 	2.60016e-05 	-0.223934
0.0127425 	-0.00245854 	3.03574e-05 	-0.222584
0.0127425 	-0.00245854 	3.03574e-05 	-0.222584
0.0127926 	-0.00258101 	3.37365e-05 	-0.221176
0.0128428 	-0.00270229 	3.6015e-05 	-0.219715
0.0128428 	-0.00270229 	3.6015e-05 	-0.219715
0.012893 	-0.00282283 	3.76063e-05 	-0.218222
0.0129431 	-0.0029394 	3.8871e-05 	-0.216638
0.0129431 	-0.0029394 	3.8871e-05 	-0.216638
0.0129933 	-0.00305404 	4.01612e-05 	-0.215015
0.0130435 	-0.00316575 	4.14962e-05 	-0.21333
0.0130435 	-0.00316575 	4.14962e-05 	-0.21333
0.0130936 	-0.00327347 	4.28358e-05 	-0.211552
0.0131438 	-0.00337904 	4.4008e-05 	-0.209718
0.0131438 	-0.00337904 	4.4008e-05 	-0.209718
0.013194 	-0.00348127 	4.47527e-05 	-0.207794
0.0132441 	-0.00358013 	4.46805e-05 	-0.205765
0.0132441 	-0.00358013 	4.46805e-05 	-0.205765
0.0132943 	-0.00367691 	4.43664e-05 	-0.203663
0.0133445 	-0.00377093 	4.40633e-05 	-0.201458
0.0133445 	-0.00377093 	4.40633e-05 	-0.201458
0.0133946 	-0.00386198 	4.35059e-05 	-0.199123
0.0134448 	-0.00395023 	4.3378e-05 	-0.196691
0.0134448 	-0.00395023 	4.3378e-05 	-0.196691
0.013495 	-0.004035 	4.40284e-05 	-0.194149
0.0135452 	-0.00410855 	4.53403e-05 	-0.191396
0.0135452 	-0.00410855 	4.53403e-05 	-0.191396
0.0136455 	-0.00421941 	3.92167e-05 	-0.185385
0.0136455 	-0.00421941 	3.92167e-05 	-0.185385
0.0136957 	-0.00425032 	3.09717e-05 	-0.182054
0.0137458 	-0.00426192 	2.24692e-05 	-0.178447
0.0137458 	-0.00426192 	2.24692e-05 	-0.178447
0.013796 	-0.00426083 	1.70658e-05 	-0.174635
0.0138462 	-0.00424724 	1.558e-05 	-0.170611
0.0138462 	-0.00424724 	1.558e-05 	-0.170611
0.0138963 	-0.00422095 	1.80887e-05 	-0.166365
0.0138963 	-0.00422095 	1.80887e-05 	-0.166365
0.0139465 	-0.0041746 	1.84214e-05 	-0.161782
0.0139967 	-0.00410987 	1.55103e-05 	-0.156895
0.0139967 	-0.00410987 	1.55103e-05 	-0.156895
0.0140468 	-0.00402615 	1.10208e-05 	-0.151686
0.0140468 	-0.00402615 	1.10208e-05 	-0.151686
0.014097 	-0.00392287 	6.17173e-06 	-0.146129
0.0141472 	-0.00379978 	1.84025e-06 	-0.140199
0.0141973 	-0.00365644 	-1.36011e-06 	-0.133867
0.0141973 	-0.00365644 	-1.36011e-06 	-0.133867
0.0142475 	-0.00348769 	-3.39549e-06 	-0.127026
0.0142977 	-0.00329537 	-5.0539e-06 	-0.119717
0.0143478 	-0.00307985 	-7.09531e-06 	-0.111939
0.0143478 	-0.00307985 	-7.09531e-06 	-0.111939
0.014398 	-0.00284382 	-9.51687e-06 	-0.103719
0.014398 	-0.00284382 	-9.51687e-06 	-0.103719
0.0144482 	-0.00259305 	-1.17496e-05 	-0.0951152
0.0144983 	-0.00233646 	-1.3543e-05 	-0.086222
0.0144983 	-0.00233646 	-1.3543e-05 	-0.086222
0.0145485 	-0.00208513 	-1.49136e-05 	-0.077165
0.0145987 	-0.00184977 	-1.55651e-05 	-0.0680858
0.0145987 	-0.00184977 	-1.55651e-05 	-0.0680858
0.0146488 	-0.00163708 	-1.50351e-05 	-0.0591114
0.014699 	-0.00144658 	-1.30858e-05 	-0.0503198
0.014699 	-0.00144658 	-1.30858e-05 	-0.0503198
0.0147492 	-0.00126976 	-9.87307e-06 	-0.0417157
0.0147993 	-0.00109081 	-6.19092e-06 	-0.0332221
0.0147993 	-0.00109081 	-6.19092e-06 	-0.0332221
0.0148495 	-0.00088641 	-1.3176e-06 	-0.0246573
0.0148495 	-0.00088641 	-1.3176e-06 	-0.0246573
0.0148997 	-0.000631932 	1.12158e-06 	-0.0159251
0.0148997 	-0.000631932 	1.12158e-06 	-0.0159251
0.0149498 	-0.000325673 	1.07428e-06 	-0.00748543
0.0149498 	-0.000325673 	1.07428e-06 	-0.00748543
0.015 	0 	0 	0
