0 	0 	0 	0
0 	0 	0 	0
0.00752508 	0.000641326 	0.00059772 	-0.284761
0.00752508 	0.000641326 	0.00059772 	-0.284761
0.00757525 	0.000643008 	0.000594665 	-0.284644
0.00762542 	0.000644691 	0.00059161 	-0.284527
0.00762542 	0.000644691 	0.00059161 	-0.284527
0.00767559 	0.000646405 	0.000588552 	-0.28441
0.00772575 	0.000651616 	0.000585146 	-0.284251
0.00777592 	0.000656827 	0.00058174 	-0.284093
0.00782609 	0.000662038 	0.000578334 	-0.283934
0.00782609 	0.000662038 	0.000578334 	-0.283934
0.00787625 	0.000669034 	0.000576041 	-0.28375
0.00792642 	0.000677323 	0.000574555 	-0.283547
0.00797659 	0.000685612 	0.000573069 	-0.283344
0.00802676 	0.000694583 	0.000571797 	-0.283131
0.00802676 	0.000694583 	0.000571797 	-0.283131
0.00807692 	0.000706112 	0.000571323 	-0.282885
0.00812709 	0.00071764 	0.000570848 	-0.282639
0.00812709 	0.00071764 	0.000570848 	-0.282639
0.00817726 	0.000729168 	0.000570374 	-0.282392
0.00822742 	0.000744427 	0.000571593 	-0.282102
0.00822742 	0.000744427 	0.000571593 	-0.282102
0.00827759 	0.000760097 	0.000572997 	-0.281806
0.00832776 	0.000775767 	0.000574402 	-0.28151
0.00832776 	0.000775767 	0.000574402 	-0.28151
0.00837793 	0.000795761 	0.000578567 	-0.281154
0.00842809 	0.000818088 	0.000584222 	-0.280766
0.00842809 	0.000818088 	0.000584222 	-0.280766
0.00847826 	0.000840415 	0.000589877 	-0.280377
0.00847826 	0.000840415 	0.000589877 	-0.280377
0.00852843 	0.000868103 	0.000592542 	-0.279911
0.00852843 	0.000868103 	0.000592542 	-0.279911
0.0085786 	0.000902203 	0.00059163 	-0.279353
0.0085786 	0.000902203 	0.00059163 	-0.279353
0.00862876 	0.000936304 	0.000590719 	-0.278795
0.00867893 	0.000975432 	0.00058503 	-0.278172
0.00867893 	0.000975432 	0.00058503 	-0.278172
0.0087291 	0.00102536 	0.000569071 	-0.277412
0.00877926 	0.0010753 	0.000553113 	-0.276652
0.00877926 	0.0010753 	0.000553113 	-0.276652
0.00882943 	0.00112365 	0.000537036 	-0.275904
0.0088796 	0.00116686 	0.000520574 	-0.275192
0.0088796 	0.00116686 	0.000520574 	-0.275192
0.00897993 	0.00124785 	0.000490149 	-0.273816
0.00897993 	0.00124785 	0.000490149 	-0.273816
0.0090301 	0.00126481 	0.000485784 	-0.273335
0.00908027 	0.00128177 	0.000481419 	-0.272854
0.00908027 	0.00128177 	0.000481419 	-0.272854
0.00913043 	0.00129526 	0.000481134 	-0.27239
0.0091806 	0.00129724 	0.000494377 	-0.27198
0.0091806 	0.00129724 	0.000494377 	-0.27198
0.00923077 	0.00129922 	0.000507619 	-0.271571
0.00928094 	0.00129943 	0.00052905 	-0.271129
0.00928094 	0.00129943 	0.00052905 	-0.271129
0.0093311 	0.00129565 	0.000568773 	-0.270615
0.00938127 	0.00129187 	0.000608496 	-0.270101
0.00938127 	0.00129187 	0.000608496 	-0.270101
0.00943144 	0.00128717 	0.000644927 	-0.269488
0.00943144 	0.00128717 	0.000644927 	-0.269488
0.00948161 	0.00128128 	0.000677136 	-0.268748
0.00948161 	0.00128128 	0.000677136 	-0.268748
0.00953177 	0.0012754 	0.000709345 	-0.268009
0.00953177 	0.0012754 	0.000709345 	-0.268009
0.00958194 	0.00126943 	0.000710191 	-0.267135
0.00958194 	0.00126943 	0.000710191 	-0.267135
0.00963211 	0.00126342 	0.000691624 	-0.266178
0.00963211 	0.00126342 	0.000691624 	-0.266178
0.00968227 	0.0012574 	0.000673058 	-0.265221
0.00968227 	0.0012574 	0.000673058 	-0.265221
0.00973244 	0.00125484 	0.000631075 	-0.264297
0.00978261 	0.0012529 	0.000584861 	-0.263378
0.00983278 	0.00125161 	0.000541293 	-0.262488
0.00988294 	0.00125486 	0.000516255 	-0.261804
0.00988294 	0.00125486 	0.000516255 	-0.261804
0.00993311 	0.00125811 	0.000491218 	-0.261119
0.00998328 	0.00126123 	0.000482349 	-0.260493
0.00998328 	0.00126123 	0.000482349 	-0.260493
0.0100334 	0.00126417 	0.000493164 	-0.259937
0.0100334 	0.00126417 	0.000493164 	-0.259937
0.0100836 	0.00126711 	0.00050398 	-0.259382
0.0101338 	0.00126857 	0.000524064 	-0.258825
0.0101338 	0.00126857 	0.000524064 	-0.258825
0.0102341 	0.001271 	0.00056461 	-0.257701
0.0102341 	0.001271 	0.00056461 	-0.257701
0.0102843 	0.00127275 	0.000571958 	-0.257105
0.0103344 	0.00127449 	0.000579306 	-0.256509
0.0103344 	0.00127449 	0.000579306 	-0.256509
0.0103846 	0.00127762 	0.000581633 	-0.25589
0.0103846 	0.00127762 	0.000581633 	-0.25589
0.0104348 	0.00128132 	0.000581891 	-0.255261
0.0104849 	0.00128564 	0.000582865 	-0.254624
0.0104849 	0.00128564 	0.000582865 	-0.254624
0.0105351 	0.00129221 	0.000586414 	-0.253958
0.0105853 	0.00129878 	0.000589963 	-0.253291
0.0105853 	0.00129878 	0.000589963 	-0.253291
0.0106355 	0.00131026 	0.000593963 	-0.252569
0.0106856 	0.00132319 	0.000598098 	-0.251829
0.0106856 	0.00132319 	0.000598098 	-0.251829
0.0107358 	0.00134111 	0.000601519 	-0.251032
0.0107358 	0.00134111 	0.000601519 	-0.251032
0.010786 	0.00136761 	0.000603715 	-0.250138
0.010786 	0.00136761 	0.000603715 	-0.250138
0.0108361 	0.00139426 	0.000605871 	-0.249242
0.0108361 	0.00139426 	0.000605871 	-0.249242
0.0108863 	0.00144481 	0.000601738 	-0.248098
0.0109365 	0.00149535 	0.000597606 	-0.246954
0.0109365 	0.00149535 	0.000597606 	-0.246954
0.0109866 	0.00155876 	0.000591645 	-0.245692
0.0109866 	0.00155876 	0.000591645 	-0.245692
0.0110368 	0.00162805 	0.00058485 	-0.244377
0.011087 	0.00169085 	0.000581789 	-0.243115
0.011087 	0.00169085 	0.000581789 	-0.243115
0.0111371 	0.00174422 	0.000584147 	-0.241932
0.0111873 	0.00179154 	0.000587031 	-0.24079
0.0111873 	0.00179154 	0.000587031 	-0.24079
0.0112375 	0.00180922 	0.000592492 	-0.23985
0.0112876 	0.00182689 	0.000597953 	-0.23891
0.0112876 	0.00182689 	0.000597953 	-0.23891
0.0113378 	0.0018247 	0.000597979 	-0.238047
0.011388 	0.00182189 	0.000597838 	-0.237186
0.011388 	0.00182189 	0.000597838 	-0.237186
0.0114883 	0.00180926 	0.000590757 	-0.235394
0.0114883 	0.00180926 	0.000590757 	-0.235394
0.0115385 	0.00180266 	0.000585361 	-0.234463
0.0115886 	0.0017961 	0.000579282 	-0.233517
0.0115886 	0.0017961 	0.000579282 	-0.233517
0.0116388 	0.00178826 	0.00057431 	-0.232556
0.011689 	0.00177957 	0.000570068 	-0.231585
0.011689 	0.00177957 	0.000570068 	-0.231585
0.0117391 	0.00176925 	0.000566145 	-0.230599
0.0117893 	0.00175762 	0.000562479 	-0.229603
0.0117893 	0.00175762 	0.000562479 	-0.229603
0.0118395 	0.00174487 	0.000558153 	-0.22859
0.0118896 	0.00173118 	0.00055327 	-0.227562
0.0118896 	0.00173118 	0.00055327 	-0.227562
0.0119398 	0.00171686 	0.000548179 	-0.226513
0.0119398 	0.00171686 	0.000548179 	-0.226513
0.01199 	0.00170206 	0.000542928 	-0.225449
0.01199 	0.00170206 	0.000542928 	-0.225449
0.0120401 	0.00168697 	0.000537199 	-0.224362
0.0120401 	0.00168697 	0.000537199 	-0.224362
0.0120903 	0.00167172 	0.000531181 	-0.22326
0.0120903 	0.00167172 	0.000531181 	-0.22326
0.0121405 	0.00165622 	0.000524424 	-0.22213
0.0121405 	0.00165622 	0.000524424 	-0.22213
0.0121906 	0.00164062 	0.000517373 	-0.220988
0.0121906 	0.00164062 	0.000517373 	-0.220988
0.0122408 	0.00162448 	0.000509705 	-0.219812
0.0122408 	0.00162448 	0.000509705 	-0.219812
0.012291 	0.00160823 	0.000501919 	-0.21863
0.012291 	0.00160823 	0.000501919 	-0.21863
0.0123411 	0.00159103 	0.000493686 	-0.217404
0.0123411 	0.00159103 	0.000493686 	-0.217404
0.0123913 	0.00157361 	0.00048537 	-0.216169
0.0123913 	0.00157361 	0.00048537 	-0.216169
0.0124415 	0.00155528 	0.000476707 	-0.214898
0.0124916 	0.00153646 	0.000467965 	-0.213606
0.0124916 	0.00153646 	0.000467965 	-0.213606
0.012592 	0.00149652 	0.000450367 	-0.21093
0.012592 	0.00149652 	0.000450367 	-0.21093
0.0126421 	0.00147568 	0.000441679 	-0.209556
0.0126923 	0.00145345 	0.000433233 	-0.208125
0.0126923 	0.00145345 	0.000433233 	-0.208125
0.0127425 	0.00143072 	0.000424778 	-0.206674
0.0127425 	0.00143072 	0.000424778 	-0.206674
0.0127926 	0.00140682 	0.000416269 	-0.205176
0.0128428 	0.00138184 	0.000407477 	-0.203636
0.0128428 	0.00138184 	0.000407477 	-0.203636
0.012893 	0.00135618 	0.000398509 	-0.20207
0.0129431 	0.00132863 	0.00038895 	-0.200432
0.0129431 	0.00132863 	0.00038895 	-0.200432
0.0129933 	0.00130024 	0.00037916 	-0.198761
0.0130435 	0.00127059 	0.000369022 	-0.197043
0.0130435 	0.00127059 	0.000369022 	-0.197043
0.0130936 	0.00123906 	0.000358488 	-0.195254
0.0131438 	0.00120644 	0.000347743 	-0.193423
0.0131438 	0.00120644 	0.000347743 	-0.193423
0.013194 	0.00117204 	0.000336675 	-0.191525
0.0132441 	0.00113556 	0.000325071 	-0.189548
0.0132441 	0.00113556 	0.000325071 	-0.189548
0.0132943 	0.00109756 	0.000313105 	-0.187516
0.0133445 	0.00105731 	0.000300629 	-0.185401
0.0133445 	0.00105731 	0.000300629 	-0.185401
0.0133946 	0.00101413 	0.000287871 	-0.183183
0.0134448 	0.000968878 	0.000275203 	-0.180887
0.0134448 	0.000968878 	0.000275203 	-0.180887
0.013495 	0.00092133 	0.000262775 	-0.178504
0.0135452 	0.000870223 	0.000251287 	-0.175963
0.0135452 	0.000870223 	0.000251287 	-0.175963
0.0136455 	0.000761579 	0.000228128 	-0.170535
0.0136455 	0.000761579 	0.000228128 	-0.170535
0.0136957 	0.000703843 	0.000215702 	-0.167598
0.0137458 	0.000644276 	0.000202474 	-0.164448
0.0137458 	0.000644276 	0.000202474 	-0.164448
0.013796 	0.000584177 	0.000188968 	-0.161112
0.0138462 	0.000524071 	0.000175533 	-0.157572
0.0138462 	0.000524071 	0.000175533 	-0.157572
0.0138963 	0.000464529 	0.000162611 	-0.153805
0.0138963 	0.000464529 	0.000162611 	-0.153805
0.0139465 	0.000405969 	0.000150355 	-0.149705
0.0139967 	0.000347686 	0.000138195 	-0.145322
0.0139967 	0.000347686 	0.000138195 	-0.145322
0.0140468 	0.000289186 	0.000126212 	-0.140639
0.0140468 	0.000289186 	0.000126212 	-0.140639
0.014097 	0.000230008 	0.000114639 	-0.135634
0.0141472 	0.000169768 	0.000103737 	-0.130281
0.0141973 	0.000108287 	9.35087e-05 	-0.124549
0.0141973 	0.000108287 	9.35087e-05 	-0.124549
0.0142475 	4.63203e-05 	8.34808e-05 	-0.118337
0.0142977 	-1.31785e-05 	7.3219e-05 	-0.111688
0.0143478 	-6.61571e-05 	6.28927e-05 	-0.104597
0.0143478 	-6.61571e-05 	6.28927e-05 	-0.104597
0.014398 	-0.000107907 	5.29852e-05 	-0.0970785
0.014398 	-0.000107907 	5.29852e-05 	-0.0970785
0.0144482 	-0.000133759 	4.37599e-05 	-0.0891725
0.0144983 	-0.000139949 	3.52686e-05 	-0.080952
0.0144983 	-0.000139949 	3.52686e-05 	-0.080952
0.0145485 	-0.000124692 	2.76231e-05 	-0.0725177
0.0145987 	-8.93109e-05 	2.10061e-05 	-0.0639872
0.0145987 	-8.93109e-05 	2.10061e-05 	-0.0639872
0.0146488 	-3.90515e-05 	1.54981e-05 	-0.0554749
0.014699 	1.65463e-05 	1.10801e-05 	-0.0470727
0.014699 	1.65463e-05 	1.10801e-05 	-0.0470727
0.0147492 	6.2849e-05 	7.67148e-06 	-0.0388383
0.0147993 	7.69968e-05 	5.1533e-06 	-0.0307966
0.0147993 	7.69968e-05 	5.1533e-06 	-0.0307966
0.0148495 	2.00084e-05 	3.55726e-06 	-0.0229288
0.0148495 	2.00084e-05 	3.55726e-06 	-0.0229288
0.0148997 	-0.000112297 	2.19997e-06 	-0.0151736
0.0148997 	-0.000112297 	2.19997e-06 	-0.0151736
0.0149498 	-0.000178124 	1.07799e-06 	-0.00752445
0.0149498 	-0.000178124 	1.07799e-06 	-0.00752445
0.015 	0 	0 	0
