/*--------------------------------*- C++ -*----------------------------------*\
| =========                 |                                                 |
| \\      /  F ield         | OpenFOAM: The Open Source CFD Toolbox           |
|  \\    /   O peration     | Version:  v1912                                 |
|   \\  /    A nd           | Website:  www.openfoam.com                      |
|    \\/     M anipulation  |                                                 |
\*---------------------------------------------------------------------------*/
FoamFile
{
    version     2.0;
    format      ascii;
    class       volScalarField;
    location    "8";
    object      alphat;
}
// * * * * * * * * * * * * * * * * * * * * * * * * * * * * * * * * * * * * * //

dimensions      [1 -1 -1 0 0 0 0];


internalField   nonuniform List<scalar> 
34128
(
1.8595e-09
1.84007e-09
1.85896e-09
1.90079e-09
1.95828e-09
2.04105e-09
2.1081e-09
2.06188e-09
1.98708e-09
1.97587e-09
1.98826e-09
1.96846e-09
2.18759e-09
2.17091e-09
2.21176e-09
2.28029e-09
2.33778e-09
2.40055e-09
2.46121e-09
2.4199e-09
2.34559e-09
2.33319e-09
2.34875e-09
2.33571e-09
1.03691e-08
1.03841e-08
1.08597e-08
1.14742e-08
1.15903e-08
1.13622e-08
1.13729e-08
1.13769e-08
1.12365e-08
1.11921e-08
1.12782e-08
1.13712e-08
6.61957e-08
6.64242e-08
6.98204e-08
7.40867e-08
7.45868e-08
7.24135e-08
7.20991e-08
7.24063e-08
7.18361e-08
7.15943e-08
7.21425e-08
7.29378e-08
2.83401e-07
2.84546e-07
2.99236e-07
3.17485e-07
3.19238e-07
3.0927e-07
3.07531e-07
3.09153e-07
3.07194e-07
3.06314e-07
3.08604e-07
3.1214e-07
8.89566e-07
8.93678e-07
9.39546e-07
9.95861e-07
1.00008e-06
9.67313e-07
9.60849e-07
9.66705e-07
9.62002e-07
9.59813e-07
9.66852e-07
9.78121e-07
2.23534e-06
2.24731e-06
2.36108e-06
2.49877e-06
2.50535e-06
2.41889e-06
2.39958e-06
2.41645e-06
2.40887e-06
2.40501e-06
2.42245e-06
2.45118e-06
4.7446e-06
4.77422e-06
5.0108e-06
5.29222e-06
5.29608e-06
5.10277e-06
5.05402e-06
5.09489e-06
5.0889e-06
5.08447e-06
5.12125e-06
5.18312e-06
8.80493e-06
8.86872e-06
9.29553e-06
9.79307e-06
9.77946e-06
9.40199e-06
9.29575e-06
9.38115e-06
9.38959e-06
9.38836e-06
9.45666e-06
9.57287e-06
1.46426e-05
1.47642e-05
1.5449e-05
1.6229e-05
1.61705e-05
1.55133e-05
1.53103e-05
1.54672e-05
1.55128e-05
1.55219e-05
1.56361e-05
1.58306e-05
2.22446e-05
2.24529e-05
2.34497e-05
2.45554e-05
2.44125e-05
2.33753e-05
2.30297e-05
2.32876e-05
2.34005e-05
2.34301e-05
2.36047e-05
2.38999e-05
3.13592e-05
3.16846e-05
3.30221e-05
3.44619e-05
3.41877e-05
3.26818e-05
3.21489e-05
3.25346e-05
3.27473e-05
3.28091e-05
3.30567e-05
3.34687e-05
4.10043e-05
4.14794e-05
4.30309e-05
4.46057e-05
4.41169e-05
4.21183e-05
4.13307e-05
4.18501e-05
4.22038e-05
4.22761e-05
4.25514e-05
4.3049e-05
4.95126e-05
5.01143e-05
5.18959e-05
5.36402e-05
5.29835e-05
5.05757e-05
4.96137e-05
5.02394e-05
5.07012e-05
5.08216e-05
5.11504e-05
5.17314e-05
5.82457e-05
5.89823e-05
6.09691e-05
6.28382e-05
6.19897e-05
5.91686e-05
5.80291e-05
5.87613e-05
5.93437e-05
5.95278e-05
5.9914e-05
6.05797e-05
6.70985e-05
6.79746e-05
7.01349e-05
7.20779e-05
7.10143e-05
6.77804e-05
6.64611e-05
6.72989e-05
6.80144e-05
6.82787e-05
6.87274e-05
6.94802e-05
7.59658e-05
7.69813e-05
7.92775e-05
8.12398e-05
7.99394e-05
7.62984e-05
7.4798e-05
7.57395e-05
7.66003e-05
7.69618e-05
7.74796e-05
7.83233e-05
8.47584e-05
8.59086e-05
8.82978e-05
9.02228e-05
8.8666e-05
8.46276e-05
8.29454e-05
8.39879e-05
8.50062e-05
8.54827e-05
8.60779e-05
8.70178e-05
9.34075e-05
9.46836e-05
9.71196e-05
9.89497e-05
9.71187e-05
9.26945e-05
9.08303e-05
9.19708e-05
9.31597e-05
9.37702e-05
9.44533e-05
9.5496e-05
0.000101874
0.000103265
0.000105699
0.000107377
0.000105253
0.000100455
9.84072e-05
9.96436e-05
0.000101018
0.000101785
0.000102569
0.000103724
0.00011016
0.000111655
0.000114038
0.000115506
0.00011307
0.000107902
0.000105669
0.000107001
0.000108582
0.000109532
0.000110436
0.000111716
0.000118325
0.000119919
0.000122202
0.0001234
0.000120623
0.00011508
0.000112654
0.000114086
0.000115902
0.000117071
0.000118121
0.000119548
0.000126491
0.000128182
0.000130312
0.000131177
0.00012802
0.000122081
0.000119448
0.000120992
0.000123083
0.000124515
0.000125744
0.000127352
0.000134819
0.000136614
0.000138527
0.000138988
0.000135398
0.000129025
0.000126168
0.00012784
0.000130261
0.000132004
0.000133453
0.000135294
0.000143476
0.000145377
0.000146991
0.000146969
0.000142884
0.000136031
0.000132926
0.00013475
0.000137566
0.000139668
0.000141374
0.000143514
0.000152572
0.000154564
0.000155775
0.000155182
0.000150542
0.000143163
0.000139785
0.000141794
0.000145073
0.000147568
0.000149561
0.000152076
0.000162095
0.000164141
0.000164821
0.000163559
0.000158319
0.000150393
0.000146724
0.000148947
0.00015275
0.000155645
0.000157934
0.000160901
0.00017182
0.000173854
0.000173852
0.000171833
0.000165991
0.000157552
0.000153588
0.00015605
0.000160411
0.000163656
0.0001662
0.000169678
0.000181178
0.000183061
0.000182216
0.000179384
0.000173053
0.000164277
0.000160049
0.00016274
0.000167615
0.000171057
0.000173724
0.000177698
0.000189247
0.000190776
0.000188945
0.000185294
0.000178711
0.000169948
0.000165555
0.000168403
0.00017364
0.000177024
0.000179601
0.000183978
0.00019509
0.000196059
0.000193158
0.000188748
0.000182203
0.000173872
0.000169459
0.000172352
0.000177732
0.00018079
0.000183068
0.000187702
0.000198198
0.000198511
0.000194814
0.000189955
0.000183614
0.000175851
0.000171535
0.000174369
0.000179708
0.000182431
0.000184431
0.000189139
0.000198803
0.00019863
0.000194398
0.000189252
0.000183244
0.000176154
0.000172009
0.000174723
0.000179907
0.00018228
0.000183973
0.00018865
0.000197299
0.000196668
0.000192035
0.000186737
0.000181187
0.000174894
0.000170992
0.000173532
0.000178457
0.000180431
0.000181781
0.000186326
0.000193828
0.000192767
0.000187879
0.000182568
0.000177584
0.000172187
0.000168598
0.000170915
0.000175483
0.00017703
0.000178024
0.000182344
0.000188613
0.000187175
0.000182199
0.000177026
0.00017268
0.000168226
0.000165008
0.000167062
0.000171195
0.000172322
0.000172985
0.000177006
0.000182006
0.000180274
0.000175388
0.000170509
0.000166826
0.000163293
0.000160487
0.000162258
0.000165904
0.000166663
0.000167065
0.000170742
0.000174489
0.000172574
0.000167951
0.000163529
0.000160473
0.000157754
0.00015538
0.000156873
0.000160017
0.000160501
0.000160757
0.000164089
0.000166649
0.000164687
0.000160484
0.000156677
0.000154148
0.000152045
0.000150103
0.000151356
0.000154021
0.000154355
0.000154624
0.000157656
0.000159152
0.00015729
0.000153664
0.000150597
0.000148433
0.000146661
0.000145129
0.000146216
0.000148461
0.000148795
0.000149263
0.000152091
0.000152705
0.000151096
0.000148181
0.000145965
0.000143947
0.000142137
0.000140975
0.000142013
0.000143929
0.000144418
0.000145298
0.00014806
0.000148039
0.000146835
0.000144738
0.000143487
0.000141346
0.000139051
0.000138209
0.000139354
0.000141057
0.000141847
0.000143376
0.000146254
0.000145931
0.000145314
0.000144085
0.000143955
0.000141345
0.000138042
0.000137463
0.000138917
0.000140539
0.000141767
0.000144209
0.000147426
0.000147273
0.000147399
0.000147082
0.000148285
0.000144798
0.000139852
0.000139484
0.000141505
0.000143195
0.000144988
0.000148656
0.000152488
0.000153126
0.000154171
0.000154851
0.000157707
0.000152826
0.000145428
0.000145226
0.000148154
0.000150081
0.000152577
0.00015788
0.00016269
0.000164952
0.000167171
0.000169016
0.00017404
0.000167042
0.000156083
0.000156028
0.000160337
0.000162709
0.000166078
0.000173609
0.000179915
0.000185012
0.000188803
0.000192119
0.00020015
0.000189943
0.000173796
0.000173906
0.000180317
0.000183418
0.0001879
0.000198577
0.000207153
0.000216956
0.000222958
0.000228249
0.000240579
0.000225485
0.000201677
0.000202043
0.000211712
0.00021598
0.000221911
0.000237102
0.00024911
0.000266556
0.000275743
0.000283507
0.000301194
0.000279318
0.00024448
0.000245267
0.000259957
0.000265983
0.000273458
0.000294133
0.000310865
0.00033936
0.000353123
0.000364291
0.000389801
0.000357919
0.000306817
0.00030836
0.000330042
0.000334062
0.00034269
0.000367999
0.000385316
0.000424823
0.0004382
0.000451202
0.000483004
0.000444867
0.00037735
0.000374117
0.000398343
0.000403108
0.00041364
0.000444895
0.00046565
0.00051942
0.000535542
0.000551171
0.00058939
0.000543172
0.000459065
0.000455009
0.000484943
0.000490162
0.000502223
0.000538839
0.000562452
0.0006325
0.000651207
0.000669364
0.000714212
0.000659524
0.000559084
0.000553872
0.000588876
0.00059408
0.000607212
0.000648745
0.00067488
0.00076432
0.000785924
0.000806725
0.000858431
0.000794681
0.000676882
0.000670104
0.000710188
0.000715097
0.000728958
0.000775302
0.000803613
0.000915534
0.000940369
0.000963837
0.00102213
0.000949218
0.000813576
0.00080482
0.00084992
0.000854219
0.000868301
0.000918943
0.000948747
0.00108558
0.00111394
0.00113999
0.00120404
0.0011225
0.000969648
0.000958454
0.00100815
0.00101147
0.00102509
0.00107905
0.00110933
0.00127242
0.00130454
0.00133297
0.00140143
0.00131247
0.00114434
0.00113032
0.00118369
0.00118561
0.00119795
0.00125383
0.00128327
0.00147259
0.00150859
0.00153909
0.00161019
0.00151569
0.00133547
0.00131847
0.00137401
0.00137407
0.00138424
0.00144028
0.00146743
0.00168145
0.00172122
0.00175348
0.00182526
0.0017276
0.00153949
0.00151957
0.00157536
0.00157311
0.00158021
0.0016345
0.00165784
0.00189357
0.00193692
0.00197055
0.00204108
0.00194288
0.00175174
0.00172913
0.00178308
0.00177809
0.00178134
0.00183194
0.00185011
0.00210334
0.00214995
0.00218458
0.00225215
0.00215609
0.00196692
0.001942
0.00199207
0.00198395
0.00198273
0.00202792
0.00203982
0.00230547
0.00235485
0.00239026
0.00245351
0.00236205
0.00217959
0.00215283
0.00219728
0.0021857
0.00217959
0.00221801
0.00222287
0.00249527
0.00254699
0.00258305
0.00264111
0.00255634
0.00238466
0.00235664
0.00239409
0.00237881
0.00236765
0.00239837
0.00239581
0.00266917
0.00272295
0.00275945
0.002812
0.00273552
0.00257782
0.00254912
0.00257866
0.00255953
0.0025434
0.00256596
0.00255598
0.00282487
0.00288039
0.00291729
0.00296436
0.00289719
0.00275575
0.00272695
0.0027481
0.00272509
0.00270429
0.00271864
0.00270157
0.00296131
0.00301809
0.0030555
0.00309744
0.00304008
0.00291622
0.00288783
0.00290055
0.0028737
0.0028487
0.00285519
0.00283163
0.00307845
0.00313594
0.0031741
0.00321132
0.00316383
0.00305804
0.0030305
0.00303509
0.00300456
0.00297592
0.00297518
0.00294592
0.00317702
0.00323472
0.00327365
0.00330682
0.00326889
0.00318094
0.00315463
0.00315167
0.00311769
0.00308601
0.00307887
0.00304479
0.00325817
0.00331585
0.00335538
0.00338546
0.00335643
0.0032854
0.00326063
0.00325093
0.00321373
0.00317961
0.00316702
0.00312908
0.0033237
0.00338114
0.00342107
0.00344873
0.00342802
0.00337247
0.00334953
0.00333403
0.00329381
0.00325783
0.00324078
0.00319989
0.00337559
0.00343245
0.00347269
0.00349842
0.00348525
0.00344357
0.00342271
0.00340252
0.00335925
0.00332202
0.00330151
0.00325852
0.00341574
0.00347167
0.00351188
0.00353633
0.00352991
0.00350062
0.00348184
0.00345774
0.00341171
0.0033737
0.0033507
0.00330636
0.00344596
0.0035009
0.00354083
0.00356407
0.00356358
0.00354533
0.00352861
0.00350102
0.00345371
0.00341438
0.00338983
0.00334477
0.00346789
0.0035219
0.0035614
0.00358361
0.00358823
0.00357922
0.00356444
0.00353475
0.00348783
0.00344543
0.00342031
0.0033751
0.00348298
0.00353611
0.00357511
0.0035964
0.00360553
0.00360414
0.00359145
0.00356072
0.00351428
0.00346881
0.00344339
0.00339845
0.00349243
0.00354469
0.0035831
0.00360355
0.00361675
0.00362179
0.00361126
0.00358012
0.00353376
0.00348667
0.00346004
0.00341627
0.00349718
0.00354849
0.00358596
0.00360591
0.00362285
0.00363345
0.00362508
0.00359401
0.00354787
0.00350171
0.00347165
0.00342974
0.00349798
0.00354798
0.00358412
0.00360376
0.00362448
0.00364
0.00363381
0.00360312
0.00355744
0.00351197
0.00347969
0.00343984
0.00349506
0.00354342
0.00357777
0.00359721
0.00362194
0.003642
0.00363796
0.0036079
0.00356287
0.00351724
0.00348599
0.00344764
1.97779e-09
1.96215e-09
1.99314e-09
2.0449e-09
2.10284e-09
2.18187e-09
2.25433e-09
2.21005e-09
2.134e-09
2.1279e-09
2.14556e-09
2.12377e-09
2.24248e-09
2.23693e-09
2.28485e-09
2.3493e-09
2.39729e-09
2.45192e-09
2.51716e-09
2.48069e-09
2.41044e-09
2.4092e-09
2.432e-09
2.41179e-09
9.35939e-09
9.52697e-09
9.92672e-09
1.02843e-08
1.02047e-08
9.88221e-09
9.8874e-09
9.95199e-09
9.9147e-09
1.00026e-08
1.01403e-08
1.01271e-08
5.80926e-08
5.94109e-08
6.2168e-08
6.44895e-08
6.35575e-08
6.07204e-08
6.03342e-08
6.10674e-08
6.12615e-08
6.19741e-08
6.28852e-08
6.29217e-08
2.47629e-07
2.53425e-07
2.65213e-07
2.74973e-07
2.70565e-07
2.57804e-07
2.55741e-07
2.59146e-07
2.60496e-07
2.63787e-07
2.67703e-07
2.68014e-07
7.7598e-07
7.94344e-07
8.3072e-07
8.60338e-07
8.45529e-07
8.04423e-07
7.96995e-07
8.08176e-07
8.13727e-07
8.24702e-07
8.37023e-07
8.38442e-07
1.94694e-06
1.99346e-06
2.08236e-06
2.15317e-06
2.11323e-06
2.00743e-06
1.98607e-06
2.01541e-06
2.03289e-06
2.062e-06
2.09304e-06
2.09792e-06
4.12525e-06
4.22472e-06
4.40627e-06
4.54673e-06
4.45546e-06
4.22567e-06
4.17395e-06
4.23895e-06
4.2839e-06
4.34858e-06
4.41452e-06
4.428e-06
7.64053e-06
7.82618e-06
8.14681e-06
8.38571e-06
8.20376e-06
7.76879e-06
7.66067e-06
7.78602e-06
7.88363e-06
8.00797e-06
8.13012e-06
8.16115e-06
1.268e-05
1.29895e-05
1.34916e-05
1.38483e-05
1.35253e-05
1.27916e-05
1.25928e-05
1.28076e-05
1.29915e-05
1.32035e-05
1.34054e-05
1.34666e-05
1.9224e-05
1.96928e-05
2.04039e-05
2.08797e-05
2.03607e-05
1.92382e-05
1.89108e-05
1.92438e-05
1.95512e-05
1.98788e-05
2.01825e-05
2.02881e-05
2.70489e-05
2.77039e-05
2.86295e-05
2.9203e-05
2.84365e-05
2.6855e-05
2.63646e-05
2.68381e-05
2.73042e-05
2.77716e-05
2.81934e-05
2.83572e-05
3.51532e-05
3.59825e-05
3.69981e-05
3.7494e-05
3.64492e-05
3.44638e-05
3.37934e-05
3.43961e-05
3.50193e-05
3.55588e-05
3.60142e-05
3.62195e-05
4.24389e-05
4.34118e-05
4.45386e-05
4.50226e-05
4.37432e-05
4.13946e-05
4.05873e-05
4.12954e-05
4.20639e-05
4.27354e-05
4.3283e-05
4.35511e-05
4.9923e-05
5.10271e-05
5.22351e-05
5.26755e-05
5.11531e-05
4.84501e-05
4.75061e-05
4.83152e-05
4.92369e-05
5.00543e-05
5.07023e-05
5.10488e-05
5.75123e-05
5.87294e-05
5.99829e-05
6.03469e-05
5.85762e-05
5.55338e-05
5.44548e-05
5.53594e-05
5.64409e-05
5.74157e-05
5.81722e-05
5.86158e-05
6.5116e-05
6.64224e-05
6.76808e-05
6.7936e-05
6.59155e-05
6.25539e-05
6.13435e-05
6.23376e-05
6.35843e-05
6.47253e-05
6.55981e-05
6.61604e-05
7.26566e-05
7.40248e-05
7.52437e-05
7.53586e-05
7.30897e-05
6.94329e-05
6.80961e-05
6.91742e-05
7.05907e-05
7.19041e-05
7.29004e-05
7.36054e-05
8.00747e-05
8.14751e-05
8.26072e-05
8.25514e-05
8.0037e-05
7.6111e-05
7.46542e-05
7.58119e-05
7.74031e-05
7.88919e-05
8.00186e-05
8.08934e-05
8.73363e-05
8.874e-05
8.97359e-05
8.94802e-05
8.67223e-05
8.25515e-05
8.09823e-05
8.22176e-05
8.39902e-05
8.56551e-05
8.69188e-05
8.79949e-05
9.44455e-05
9.58264e-05
9.66347e-05
9.61512e-05
9.31472e-05
8.87504e-05
8.70758e-05
8.83912e-05
9.0356e-05
9.21958e-05
9.36045e-05
9.49213e-05
0.000101456
0.000102792
0.000103358
0.00010262
9.9359e-05
9.47437e-05
9.29697e-05
9.43739e-05
9.65485e-05
9.85609e-05
0.000100125
0.000101733
0.000108472
0.000109745
0.000110008
0.000108986
0.000105449
0.000100609
9.87385e-05
0.000100249
0.000102659
0.00010484
0.000106574
0.000108535
0.000115628
0.000116821
0.000116711
0.000115375
0.000111532
0.000106449
0.000104484
0.000106127
0.000108805
0.000111146
0.000113063
0.000115452
0.000123051
0.000124142
0.000123576
0.000121893
0.000117713
0.000112366
0.000110308
0.000112119
0.000115099
0.000117578
0.000119684
0.000122584
0.000130804
0.000131768
0.000130651
0.000128587
0.000124041
0.000118421
0.000116276
0.000118297
0.000121607
0.000124172
0.000126454
0.000129957
0.000138843
0.000139646
0.00013787
0.000135391
0.000130468
0.000124597
0.000122381
0.000124655
0.000128308
0.000130863
0.000133275
0.000137459
0.000146946
0.000147525
0.000144979
0.000142061
0.000136805
0.000130765
0.000128514
0.000131074
0.000135051
0.000137441
0.000139887
0.00014477
0.000154564
0.000154798
0.000151441
0.000148086
0.00014264
0.000136636
0.000134424
0.000137272
0.000141478
0.000143485
0.000145788
0.000151273
0.00016087
0.000160627
0.000156494
0.000152737
0.000147349
0.00014174
0.000139688
0.000142766
0.000147019
0.000148372
0.000150299
0.000156171
0.000165107
0.000164289
0.0001595
0.000155417
0.000150355
0.000145541
0.000143792
0.000146995
0.000151069
0.000151536
0.000152908
0.000158895
0.00016712
0.000165906
0.000160792
0.000156546
0.000151845
0.000147811
0.000146413
0.000149637
0.000153423
0.000153198
0.000154107
0.000160049
0.000167352
0.000165844
0.000160576
0.000156262
0.000151994
0.000148725
0.000147643
0.000150822
0.000154327
0.000153518
0.000153968
0.000159732
0.000165937
0.000164199
0.000158929
0.000154642
0.000150875
0.000148404
0.000147651
0.000150728
0.00015391
0.000152567
0.00015257
0.000158035
0.000163025
0.00016113
0.000156013
0.000151855
0.000148629
0.000146955
0.000146538
0.000149465
0.000152285
0.000150486
0.000150093
0.00015517
0.000158881
0.000156923
0.000152109
0.000148191
0.0001455
0.000144553
0.000144464
0.000147203
0.000149647
0.000147512
0.000146828
0.000151472
0.0001539
0.000151986
0.000147611
0.000144054
0.000141839
0.000141462
0.000141673
0.000144207
0.000146287
0.000143975
0.000143161
0.000147386
0.000148594
0.00014684
0.000143015
0.000139949
0.000138093
0.000138033
0.000138492
0.000140831
0.000142589
0.000140285
0.000139552
0.000143438
0.000143562
0.000142086
0.000138885
0.000136453
0.000134782
0.000134695
0.000135329
0.000137514
0.000139013
0.000136912
0.000136519
0.000140205
0.000139463
0.000138376
0.000135814
0.0001342
0.00013249
0.000131945
0.000132663
0.000134768
0.000136086
0.000134371
0.00013462
0.000138299
0.000137
0.000136401
0.000134451
0.000133879
0.000131859
0.000130344
0.000131042
0.000133172
0.000134389
0.000133228
0.000134456
0.00013837
0.000136925
0.000136903
0.000135519
0.000136264
0.000133616
0.000130529
0.000131092
0.000133384
0.000134574
0.000134118
0.000136707
0.000141145
0.000140083
0.000140707
0.000139879
0.000142288
0.000138634
0.000133255
0.000133561
0.00013618
0.000137404
0.000137797
0.000142205
0.000147526
0.000147523
0.000148909
0.000148655
0.00015324
0.000148071
0.00013948
0.000139393
0.000142545
0.000143846
0.000145239
0.000152076
0.000158759
0.000160769
0.000163098
0.000163478
0.000171081
0.000163638
0.000150536
0.000149899
0.000153853
0.000155252
0.000157835
0.000168001
0.000176752
0.000182213
0.000185786
0.000186936
0.00019901
0.000188084
0.000168439
0.000167048
0.000172193
0.000173689
0.00017773
0.000192658
0.000204604
0.00021581
0.000221126
0.00022329
0.000242291
0.000225954
0.000196443
0.000194015
0.000200969
0.000202523
0.000208394
0.000230384
0.000247333
0.000267837
0.000275457
0.000278549
0.000306289
0.000282695
0.000239687
0.000235893
0.000245545
0.000246986
0.000254967
0.000285783
0.000309324
0.000344419
0.000355188
0.000359679
0.000393882
0.000363992
0.000303031
0.000297269
0.000306183
0.000306133
0.000318744
0.00035684
0.0003771
0.000423197
0.000435204
0.000443896
0.000482579
0.00044471
0.000371206
0.00035857
0.000367799
0.000367352
0.00038382
0.000432647
0.000457376
0.000518336
0.000533766
0.000544422
0.000589397
0.000544028
0.000454028
0.000436761
0.000447502
0.000446346
0.000466609
0.000525825
0.000553963
0.000630566
0.000650079
0.000663022
0.000714107
0.000660715
0.000555511
0.000533163
0.000544631
0.000542466
0.000566012
0.000635019
0.000665988
0.000760313
0.000785051
0.000800859
0.000857926
0.000795903
0.000674881
0.000646849
0.000658687
0.000655223
0.000681882
0.000761078
0.000794415
0.000908277
0.000939376
0.000958634
0.00102108
0.000950357
0.00081353
0.000779292
0.000791146
0.000786021
0.000815444
0.000904682
0.000939556
0.00107398
0.00111243
0.00113565
0.00120239
0.00112358
0.000972109
0.000931438
0.000942722
0.000935515
0.000967056
0.00106541
0.00110061
0.00125557
0.00130204
0.0013296
0.00139915
0.00131359
0.00114991
0.00110306
0.00111288
0.00110313
0.00113585
0.00124155
0.00127556
0.00144987
0.00150455
0.00153662
0.00160726
0.00151695
0.00134465
0.00129232
0.00129965
0.00128692
0.00131962
0.00143013
0.00146127
0.00165246
0.00171509
0.00175164
0.00182163
0.00172904
0.00155256
0.0014956
0.00149965
0.00148354
0.0015149
0.00162715
0.0016537
0.0018581
0.00192817
0.00196885
0.00203666
0.00194448
0.00176866
0.00170812
0.00170836
0.00168858
0.00171727
0.00182791
0.00184834
0.00206139
0.00213796
0.00218239
0.00224686
0.00215772
0.00198729
0.00192442
0.00192056
0.00189695
0.00192177
0.00202753
0.0020406
0.00225721
0.0023391
0.00238687
0.00244729
0.00236351
0.00220269
0.00213885
0.00213083
0.00210337
0.00212334
0.00222134
0.00222624
0.00244122
0.00252721
0.00257783
0.00263392
0.00255739
0.00240952
0.00234611
0.00233405
0.00230287
0.00231734
0.00240529
0.00240164
0.00261046
0.00269908
0.00275206
0.00280381
0.00273587
0.0026033
0.00254161
0.0025258
0.00249119
0.0024998
0.00257616
0.00256401
0.0027631
0.00285259
0.00290769
0.00295516
0.0028966
0.00278063
0.00272177
0.00270262
0.00266495
0.00266771
0.00273168
0.00271147
0.00289821
0.00298692
0.00304368
0.00308719
0.00303832
0.00293932
0.00288415
0.00286212
0.00282187
0.00281902
0.00287055
0.00284302
0.00301569
0.00310237
0.00315999
0.00320004
0.00316077
0.00307828
0.00302741
0.00300297
0.00296068
0.0029527
0.00299232
0.00295844
0.00311607
0.0031999
0.00325729
0.0032947
0.00326445
0.00319744
0.00315119
0.00312484
0.00308103
0.00306856
0.00309726
0.00305817
0.00320043
0.0032809
0.00333727
0.00337251
0.00335047
0.00329755
0.00325602
0.00322815
0.00318342
0.00316715
0.00318623
0.00314312
0.00327038
0.00334704
0.00340196
0.00343486
0.0034202
0.00337999
0.00334304
0.00331402
0.00326895
0.00324957
0.00326046
0.00321458
0.00332723
0.00340009
0.00345338
0.00348394
0.0034753
0.00344652
0.00341388
0.00338396
0.00333923
0.00331728
0.00332141
0.00327398
0.00337253
0.00344203
0.00349356
0.00352187
0.0035181
0.0034991
0.00347044
0.00343985
0.00339614
0.00337194
0.00337066
0.00332284
0.00340778
0.00347477
0.00352487
0.00355075
0.00355081
0.00353933
0.00351471
0.00348419
0.00344125
0.00341527
0.00340979
0.0033626
0.00343449
0.00349956
0.00354858
0.00357251
0.00357567
0.00356957
0.00354883
0.00351964
0.00347532
0.00344896
0.00344032
0.00339462
0.00345406
0.00351756
0.0035656
0.00358802
0.00359394
0.00359226
0.00357521
0.00354718
0.00349932
0.0034746
0.00346363
0.00342006
0.00346772
0.00352977
0.00357659
0.00359804
0.00360664
0.00360894
0.00359499
0.00356754
0.0035172
0.00349272
0.00348093
0.00344
0.00347653
0.00353697
0.00358215
0.00360309
0.00361459
0.00362057
0.00360935
0.00358232
0.00353131
0.00350358
0.00349329
0.00345487
0.0034813
0.00353985
0.00358313
0.0036035
0.0036184
0.00362796
0.00361929
0.00359261
0.00354156
0.00350716
0.00350076
0.00346515
0.00348255
0.00353899
0.00358003
0.00359975
0.0036185
0.00363167
0.00362548
0.00359922
0.00354884
0.00350896
0.00350308
0.00347123
0.00348056
0.00353464
0.0035731
0.00359207
0.00361503
0.00363201
0.00362831
0.00360266
0.00355353
0.00351017
0.00349973
0.00347314
2.0048e-09
1.99275e-09
2.02178e-09
2.07018e-09
2.12563e-09
2.20141e-09
2.2716e-09
2.22664e-09
2.15485e-09
2.15577e-09
2.17671e-09
2.15238e-09
2.28183e-09
2.2752e-09
2.31871e-09
2.38197e-09
2.43128e-09
2.48556e-09
2.54761e-09
2.5073e-09
2.44132e-09
2.44929e-09
2.47839e-09
2.46095e-09
9.65861e-09
9.74082e-09
1.0088e-08
1.04825e-08
1.04731e-08
1.02005e-08
1.01827e-08
1.01834e-08
1.01552e-08
1.03002e-08
1.05043e-08
1.0592e-08
6.01323e-08
6.08e-08
6.31841e-08
6.58071e-08
6.54062e-08
6.29489e-08
6.2406e-08
6.26776e-08
6.29118e-08
6.39933e-08
6.53711e-08
6.61726e-08
2.56345e-07
2.59283e-07
2.69476e-07
2.80628e-07
2.78542e-07
2.67414e-07
2.64683e-07
2.66116e-07
2.67602e-07
2.72395e-07
2.78299e-07
2.81991e-07
8.02969e-07
8.12277e-07
8.43742e-07
8.78029e-07
8.70527e-07
8.34468e-07
8.24988e-07
8.30116e-07
8.3597e-07
8.51284e-07
8.69687e-07
8.81901e-07
2.01344e-06
2.03706e-06
2.11399e-06
2.19734e-06
2.17573e-06
2.08236e-06
2.05604e-06
2.07066e-06
2.0885e-06
2.12729e-06
2.17302e-06
2.20536e-06
4.26296e-06
4.31363e-06
4.47084e-06
4.6397e-06
4.58721e-06
4.38324e-06
4.32162e-06
4.35665e-06
4.40128e-06
4.48339e-06
4.57889e-06
4.65111e-06
7.88892e-06
7.9839e-06
8.26177e-06
8.5568e-06
8.44638e-06
8.05841e-06
7.93336e-06
8.00581e-06
8.10053e-06
8.25065e-06
8.42397e-06
8.56435e-06
1.30804e-05
1.32395e-05
1.36752e-05
1.41309e-05
1.3926e-05
1.32691e-05
1.30452e-05
1.31769e-05
1.33516e-05
1.35946e-05
1.38748e-05
1.41174e-05
1.98128e-05
2.00547e-05
2.0673e-05
2.13081e-05
2.09668e-05
1.9959e-05
1.9599e-05
1.98135e-05
2.00995e-05
2.04549e-05
2.08663e-05
2.12461e-05
2.78516e-05
2.81908e-05
2.8998e-05
2.98087e-05
2.92899e-05
2.78676e-05
2.73405e-05
2.76582e-05
2.80824e-05
2.85602e-05
2.91172e-05
2.96645e-05
3.61388e-05
3.65665e-05
3.74592e-05
3.8264e-05
3.75392e-05
3.57829e-05
3.50918e-05
3.55002e-05
3.60469e-05
3.65696e-05
3.71673e-05
3.78368e-05
4.36002e-05
4.40995e-05
4.5101e-05
4.59807e-05
4.50827e-05
4.30041e-05
4.21842e-05
4.26742e-05
4.33343e-05
4.39443e-05
4.4641e-05
4.54638e-05
5.12552e-05
5.18192e-05
5.2908e-05
5.38421e-05
5.2761e-05
5.03651e-05
4.94202e-05
4.99937e-05
5.07695e-05
5.14627e-05
5.22576e-05
5.32491e-05
5.9007e-05
5.96268e-05
6.07768e-05
6.17419e-05
6.04694e-05
5.77657e-05
5.67013e-05
5.73608e-05
5.82529e-05
5.90219e-05
5.99126e-05
6.10873e-05
6.67615e-05
6.74263e-05
6.86078e-05
6.95784e-05
6.81081e-05
6.51102e-05
6.39333e-05
6.46817e-05
6.56903e-05
6.65247e-05
6.75071e-05
6.88784e-05
7.44382e-05
7.51373e-05
7.63174e-05
7.72664e-05
7.55929e-05
7.23172e-05
7.1036e-05
7.18773e-05
7.30021e-05
7.38897e-05
7.49581e-05
7.65374e-05
8.19758e-05
8.26991e-05
8.38428e-05
8.4741e-05
8.28596e-05
7.93235e-05
7.79473e-05
7.88867e-05
8.01282e-05
8.10553e-05
8.22033e-05
8.40002e-05
8.93395e-05
9.0079e-05
9.11501e-05
9.19668e-05
8.98712e-05
8.60907e-05
8.46288e-05
8.56735e-05
8.70341e-05
8.79872e-05
8.92089e-05
9.12331e-05
9.65341e-05
9.72849e-05
9.82452e-05
9.89487e-05
9.66293e-05
9.26147e-05
9.1075e-05
9.22355e-05
9.37216e-05
9.46883e-05
9.59801e-05
9.82463e-05
0.000103615
0.000104376
0.000105184
0.000105742
0.000103183
9.89341e-05
9.73216e-05
9.86133e-05
0.000100238
0.000101207
0.000102569
0.000105101
0.00011069
0.000111462
0.000112069
0.000112447
0.000109624
0.00010513
0.000103446
0.000104891
0.000106673
0.000107632
0.00010907
0.000111903
0.000117897
0.000118681
0.000119026
0.000119188
0.000116072
0.000111309
0.000109551
0.000111178
0.000113145
0.000114077
0.000115593
0.000118771
0.000125366
0.000126152
0.00012616
0.000126069
0.000122629
0.000117575
0.000115739
0.000117583
0.00011976
0.000120633
0.000122222
0.000125795
0.000133157
0.000133923
0.000133507
0.000133119
0.000129335
0.000123983
0.00012207
0.000124165
0.000126574
0.000127338
0.000128977
0.000132976
0.000141207
0.00014192
0.00014099
0.000140255
0.000136127
0.000130505
0.000128521
0.0001309
0.00013355
0.000134128
0.000135761
0.000140196
0.00014927
0.000149873
0.000148366
0.000147222
0.000142795
0.000136999
0.000134967
0.000137643
0.000140517
0.000140801
0.000142332
0.000147151
0.000156795
0.000157215
0.000155116
0.000153498
0.0001489
0.00014315
0.000141125
0.000144067
0.000147098
0.000146954
0.000148224
0.000153277
0.000162977
0.00016313
0.000160486
0.000158343
0.000153786
0.000148437
0.000146518
0.000149634
0.000152698
0.000151982
0.000152794
0.00015784
0.000167087
0.000166909
0.000163819
0.000161154
0.00015686
0.000152283
0.000150582
0.000153742
0.000156691
0.000155309
0.000155534
0.000160375
0.000169083
0.000168676
0.000165351
0.000162366
0.000158372
0.000154501
0.00015304
0.000156149
0.000158941
0.000157091
0.00015687
0.000161456
0.000169366
0.000168774
0.000165325
0.000162117
0.000158488
0.00015531
0.000154077
0.00015709
0.000159711
0.000157504
0.000156879
0.000161137
0.000168055
0.000167303
0.000163827
0.00016049
0.000157284
0.000154819
0.000153825
0.00015669
0.000159109
0.000156619
0.00015564
0.000159515
0.000165305
0.000164426
0.000161019
0.000157668
0.000154917
0.000153147
0.000152399
0.000155068
0.000157257
0.000154578
0.000153329
0.000156803
0.000161387
0.000160423
0.000157176
0.000153954
0.000151652
0.000150492
0.000149984
0.000152424
0.000154367
0.000151614
0.000150229
0.000153328
0.000156689
0.000155697
0.000152687
0.000149759
0.000147858
0.000147144
0.000146854
0.000149052
0.000150747
0.000148054
0.000146719
0.000149517
0.000151708
0.000150748
0.000148037
0.000145592
0.000143995
0.000143481
0.000143369
0.000145334
0.000146794
0.000144314
0.000143259
0.000145871
0.000147018
0.000146153
0.000143784
0.000142026
0.000140594
0.000139958
0.000139965
0.000141733
0.000142981
0.000140873
0.000140372
0.000142944
0.000143243
0.000142536
0.000140544
0.000139685
0.000138239
0.000137092
0.000137143
0.000138771
0.000139838
0.00013827
0.000138627
0.000141329
0.000141049
0.000140563
0.000138981
0.000139244
0.000137569
0.00013546
0.000135466
0.00013703
0.000137951
0.000137094
0.000138653
0.00014167
0.00014115
0.00014095
0.000139821
0.000141455
0.000139294
0.000135712
0.000135571
0.00013716
0.00013797
0.000138006
0.000141164
0.000144701
0.000144363
0.000144528
0.000143912
0.000147236
0.000144272
0.000138609
0.000138206
0.000139923
0.000140654
0.000141787
0.000147042
0.000151345
0.000151716
0.000152344
0.000152348
0.000157799
0.000153626
0.000145109
0.000144315
0.000146279
0.000146957
0.000149446
0.000157474
0.000162873
0.000164649
0.000165883
0.000166684
0.000174909
0.000168949
0.000156529
0.00015519
0.000157552
0.000158197
0.000162403
0.000174199
0.000181186
0.000185345
0.000187406
0.000189302
0.000201293
0.000192661
0.000174824
0.000172745
0.000175711
0.00017634
0.000182806
0.00019988
0.000209234
0.000217238
0.000220491
0.000223978
0.000241223
0.000228514
0.000203043
0.000199966
0.000203853
0.000204486
0.000214031
0.000238654
0.0002516
0.000265748
0.000270813
0.000276759
0.00030113
0.000282204
0.000245881
0.000241485
0.000246812
0.00024754
0.00026128
0.000295816
0.000313284
0.000336667
0.000344458
0.000354133
0.000388369
0.000360004
0.000307951
0.000301721
0.000309209
0.000310179
0.000329714
0.000376262
0.000390583
0.000430457
0.000442191
0.000450734
0.000486843
0.00045156
0.000380621
0.000365215
0.000371298
0.000372094
0.000397445
0.000455948
0.000472026
0.000523829
0.0005394
0.000550308
0.000592379