/*--------------------------------*- C++ -*----------------------------------*\
| =========                 |                                                 |
| \\      /  F ield         | OpenFOAM: The Open Source CFD Toolbox           |
|  \\    /   O peration     | Version:  v1912                                 |
|   \\  /    A nd           | Website:  www.openfoam.com                      |
|    \\/     M anipulation  |                                                 |
\*---------------------------------------------------------------------------*/
FoamFile
{
    version     2.0;
    format      ascii;
    class       volScalarField;
    location    "8";
    object      omega;
}
// * * * * * * * * * * * * * * * * * * * * * * * * * * * * * * * * * * * * * //

dimensions      [0 0 -1 0 0 0 0];


internalField   nonuniform List<scalar> 
34128
(
156508
156508
156508
156508
156508
156508
156508
156508
156508
156508
156508
156508
25805.1
25805.8
25805.7
25805.9
25806.3
25806.9
25807.8
25807.1
25805
25804.6
25806.5
25806.2
8855.14
8855.57
8855.52
8855.7
8856.27
8857.13
8858.04
8857.3
8855.48
8855.11
8856.56
8856.25
4228.29
4228.51
4228.59
4228.95
4229.69
4230.75
4231.78
4231.02
4229.3
4228.97
4230.09
4229.76
2439.17
2439.21
2439.48
2440.1
2441.04
2442.38
2443.62
2442.77
2441
2440.7
2441.61
2441.24
1592.16
1592.04
1592.54
1593.47
1594.64
1596.23
1597.71
1596.77
1594.89
1594.62
1595.4
1595
1137.06
1136.82
1137.58
1138.84
1140.2
1141.98
1143.67
1142.67
1140.69
1140.46
1141.17
1140.76
871.058
870.742
871.762
873.344
874.845
876.699
878.546
877.529
875.498
875.332
876.026
875.626
705.986
705.634
706.907
708.779
710.34
712.147
714.066
713.09
711.084
711.005
711.716
711.365
598.667
598.326
599.828
601.939
603.484
605.124
607.023
606.142
604.238
604.269
605.035
604.76
526.053
525.765
527.463
529.755
531.21
532.58
534.373
533.63
531.902
532.063
532.917
532.733
475.041
474.843
476.703
479.109
480.412
481.43
483.045
482.47
480.978
481.294
482.261
482.171
437.832
437.757
439.74
442.191
443.291
443.897
445.279
444.894
443.68
444.178
445.28
445.273
409.611
409.684
411.752
414.177
415.033
415.191
416.304
416.117
415.211
415.911
417.169
417.224
387.324
387.562
389.678
392.002
392.588
392.282
393.11
393.122
392.538
393.455
394.877
394.981
368.997
369.414
371.532
373.693
373.989
373.226
373.77
373.975
373.715
374.857
376.438
376.587
353.343
353.941
356.015
357.959
357.958
356.76
357.032
357.415
357.476
358.85
360.574
360.771
339.505
340.284
342.265
343.948
343.648
342.052
342.068
342.611
342.986
344.592
346.44
346.699
326.906
327.861
329.699
331.089
330.497
328.541
328.322
329.007
329.689
331.518
333.47
333.8
315.147
316.264
317.916
318.992
318.12
315.846
315.414
316.228
317.204
319.233
321.267
321.677
303.947
305.2
306.628
307.384
306.248
303.702
303.079
304.01
305.263
307.444
309.536
310.058
293.099
294.451
295.625
296.069
294.686
291.915
291.122
292.161
293.67
295.934
298.043
298.739
282.442
283.854
284.739
284.89
283.286
280.338
279.399
280.538
282.281
284.555
286.641
287.538
271.849
273.273
273.823
273.718
271.93
268.857
267.792
269.026
270.979
273.191
275.211
276.272
261.214
262.594
262.77
262.44
260.518
257.375
256.212
257.533
259.646
261.742
263.655
264.847
250.441
251.684
251.503
250.939
248.962
245.807
244.579
245.973
248.188
250.129
251.89
253.174
239.418
240.47
239.952
239.145
237.159
234.079
232.815
234.267
236.529
238.258
239.819
241.174
228.032
228.893
228.033
226.984
225.032
222.117
220.844
222.334
224.595
226.035
227.342
228.765
216.237
216.888
215.643
214.342
212.474
209.845
208.575
210.08
212.293
213.358
214.349
215.83
203.948
204.341
202.656
201.075
199.348
197.124
195.899
197.383
199.5
200.098
200.703
202.226
191.021
191.108
188.944
187.064
185.532
183.821
182.677
184.108
186.078
186.138
186.302
187.84
177.38
177.179
174.919
173.068
171.689
170.256
169.194
170.52
172.305
172.109
172.071
173.491
164.16
163.898
161.719
159.929
158.689
157.462
156.462
157.68
159.298
158.949
158.745
160.033
151.779
151.457
149.349
147.599
146.515
145.521
144.587
145.689
147.142
146.64
146.259
147.403
140.116
139.716
137.661
135.93
135.027
134.316
133.456
134.427
135.71
135.045
134.469
135.455
129.026
128.531
126.518
124.793
124.099
123.72
122.943
123.768
124.87
124.04
123.256
124.067
118.398
117.797
115.824
114.101
113.639
113.632
112.947
113.608
114.525
113.535
112.542
113.162
108.161
107.452
105.518
103.808
103.595
103.986
103.4
103.881
104.611
103.479
102.284
102.704
98.2848
97.4724
95.5744
93.9
93.9432
94.7447
94.2606
94.5509
95.0974
93.848
92.4733
92.6881
88.769
87.8632
86.0289
84.3901
84.6886
85.8946
85.512
85.6062
85.9793
84.6507
83.1198
83.1343
79.6345
78.6477
76.9181
75.307
75.8536
77.4407
77.1563
77.056
77.2715
75.9062
74.2501
74.0773
70.91
69.8509
68.2846
66.6808
67.4709
69.402
69.2096
68.9237
69.002
67.6403
65.8984
65.559
62.6312
61.5713
60.1773
58.5934
59.5722
61.8062
61.697
61.2415
61.2066
59.8836
58.1014
57.6213
54.9001
53.8702
52.635
51.0876
52.1928
54.6854
54.6488
54.0459
53.9239
52.6705
50.8936
50.2948
47.7804
46.7962
45.698
44.2078
45.3914
48.0721
48.0967
47.3729
47.1913
46.0323
44.304
43.621
41.2923
40.3743
39.4077
38.0044
39.2198
41.9951
42.0706
41.2521
41.0417
39.9946
38.3539
37.6406
35.4587
34.6253
33.7847
32.4699
33.6886
36.4698
36.5949
35.7124
35.4997
34.5743
33.0529
32.3459
30.286
29.5417
28.8066
27.5504
28.7658
31.5054
31.677
30.7676
30.5661
29.7592
28.3531
27.6637
25.6916
25.0384
24.4005
23.2293
24.406
27.033
27.2315
26.3342
26.1581
25.463
24.1706
23.5242
21.6294
21.0676
20.5286
19.4893
20.576
23.0159
23.2137
22.3792
22.2302
21.6506
20.5145
19.9394
18.1625
17.6833
17.2325
16.3299
17.3097
19.5256
19.7111
18.96
18.8395
18.3658
17.3871
16.8874
15.2431
14.8352
14.4604
13.6909
14.5577
16.5273
16.7002
16.0402
15.9478
15.568
14.7403
14.3165
12.813
12.4657
12.1555
11.5103
12.2648
13.9826
14.1459
13.5786
13.5114
13.2125
12.5238
12.1733
10.8117
10.5148
10.2585
9.72559
10.3737
11.8482
12.0035
11.5256
11.4798
11.2488
10.6844
10.4014
9.1782
8.92298
8.71104
8.27665
8.82741
10.0763
10.2242
9.82903
9.8007
9.62569
9.16947
8.94675
7.85485
7.63388
7.45796
7.10777
7.57193
8.61842
8.75925
8.43785
8.42325
8.29359
7.92974
7.75913
6.78908
6.59612
6.44907
6.16922
6.55809
7.4278
7.56111
7.30405
7.30004
7.20665
6.92021
6.79355
5.9342
5.76427
5.64013
5.41794
5.74249
6.46101
6.5856
6.38413
6.38822
6.32354
6.10103
6.01067
5.25016
5.09946
4.99325
4.81756
5.08786
5.67918
5.79436
5.63994
5.65024
5.60809
5.43777
5.3769
4.70361
4.56881
4.47669
4.33804
4.56299
5.04859
5.15425
5.03883
5.05395
5.02941
4.90131
4.86406
4.26711
4.14554
4.06441
3.95499
4.14219
4.54065
4.63714
4.55348
4.57244
4.56162
4.46745
4.44892
3.91848
3.80808
3.73539
3.64885
3.8047
4.13163
4.21954
4.16142
4.18354
4.18341
4.11637
4.11256
3.64027
3.53917
3.47287
3.4041
3.53386
3.80215
3.88218
3.84444
3.86924
3.87745
3.83201
3.83969
3.41845
3.32493
3.26363
3.20844
3.31641
3.53657
3.60942
3.58788
3.61503
3.62973
3.60147
3.61803
3.24175
3.15453
3.09703
3.05215
3.14188
3.32236
3.38872
3.38003
3.40929
3.42904
3.41438
3.43776
3.1012
3.01944
2.96468
2.92754
3.00192
3.14953
3.21004
3.21155
3.24274
3.2664
3.26247
3.291
2.98967
2.9128
2.85988
2.82856
2.88992
3.01013
3.06539
3.07499
3.10796
3.13463
3.13911
3.17145
2.90154
2.82909
2.77752
2.75039
2.80062
2.89785
2.94838
2.96439
2.99901
3.028
3.03898
3.07406
2.83247
2.76389
2.71341
2.68899
2.72969
2.80765
2.85391
2.875
2.91116
2.94192
2.95783
2.99476
2.77876
2.71364
2.66412
2.64141
2.67368
2.73551
2.77789
2.80295
2.84064
2.87271
2.89224
2.93029
2.73745
2.67557
2.62683
2.60514
2.62997
2.67824
2.71704
2.74512
2.78451
2.81743
2.83945
2.87803
2.70624
2.64747
2.5996
2.57821
2.59636
2.63304
2.66876
2.69931
2.74028
2.77373
2.79726
2.8359
2.68333
2.62739
2.58041
2.55911
2.57125
2.5979
2.63095
2.66381
2.70532
2.73976
2.76392
2.80221
2.66729
2.61385
2.56776
2.54632
2.55301
2.57133
2.60216
2.63647
2.67736
2.71413
2.73807
2.77563
2.65701
2.60579
2.56057
2.53882
2.54045
2.55185
2.58068
2.61587
2.65617
2.69521
2.71866
2.75518
2.65166
2.60243
2.5581
2.53593
2.53275
2.5383
2.56537
2.60114
2.64124
2.68139
2.70501
2.73978
2.65063
2.60328
2.56003
2.53719
2.52941
2.52989
2.55546
2.5916
2.63141
2.67076
2.69622
2.72862
2.6535
2.60811
2.56621
2.54256
2.53013
2.52616
2.55041
2.58677
2.62615
2.66494
2.69131
2.72111
2.66022
2.61687
2.57664
2.55213
2.53489
2.5269
2.54999
2.58639
2.62522
2.6642
2.68909
2.71657
156508
156508
156508
156508
156508
156508
156508
156508
156508
156508
156508
156508
25807
25807.8
25807.8
25807.7
25808.2
25809.2
25810.2
25809.4
25807.1
25806.5
25808.2
25807.6
8857.14
8857.72
8857.8
8857.86
8858.45
8859.52
8860.62
8859.82
8857.77
8857.29
8858.6
8858.08
4230.46
4230.81
4231.05
4231.36
4232.09
4233.27
4234.45
4233.65
4231.78
4231.42
4232.46
4231.96
2441.67
2441.85
2442.31
2442.93
2443.84
2445.19
2446.52
2445.67
2443.83
2443.58
2444.49
2443.98
1595.07
1595.14
1595.85
1596.81
1597.9
1599.38
1600.89
1599.98
1598.12
1598.01
1598.88
1598.35
1140.4
1140.4
1141.37
1142.67
1143.9
1145.43
1147.08
1146.12
1144.28
1144.34
1145.25
1144.71
874.785
874.759
875.986
877.605
878.908
880.365
882.057
881.112
879.36
879.628
880.619
880.11
710.029
710.024
711.476
713.362
714.657
715.915
717.554
716.678
715.095
715.593
716.716
716.271
602.948
603.006
604.638
606.727
607.937
608.876
610.372
609.62
608.278
609.02
610.309
609.963
530.494
530.649
532.409
534.633
535.688
536.21
537.49
536.907
535.859
536.85
538.329
538.11
479.57
479.85
481.685
483.972
484.812
484.852
485.863
485.482
484.764
485.995
487.68
487.61
442.386
442.812
444.665
446.944
447.524
447.048
447.76
447.598
447.231
448.684
450.574
450.672
414.135
414.721
416.534
418.743
419.029
418.029
418.433
418.494
418.49
420.147
422.22
422.504
391.776
392.527
394.242
396.325
396.297
394.791
394.892
395.167
395.529
397.374
399.604
400.079
373.347
374.257
375.827
377.735
377.384
375.406
375.221
375.693
376.42
378.431
380.792
381.455
357.564
358.62
360.002
361.697
361.027
358.618
358.171
358.828
359.906
362.053
364.517
365.367
343.574
344.749
345.913
347.37
346.392
343.602
342.926
343.752
345.156
347.401
349.937
350.97
330.798
332.055
332.978
334.187
332.923
329.805
328.937
329.917
331.614
333.906
336.48
337.705
318.836
320.131
320.793
321.757
320.239
316.851
315.826
316.946
318.895
321.181
323.753
325.183
307.399
308.693
309.075
309.802
308.07
304.473
303.327
304.573
306.727
308.964
311.488
313.108
296.272
297.524
297.612
298.112
296.218
292.477
291.244
292.605
294.909
297.062
299.507
301.255
285.286
286.456
286.251
286.531
284.529
280.716
279.429
280.89
283.283
285.312
287.638
289.472
274.302
275.357
274.879
274.935
272.875
269.072
267.763
269.311
271.722
273.587
275.748
277.669
263.198
264.116
263.391
263.22
261.148
257.447
256.146
257.765
260.143
261.784
263.73
265.721
251.871
252.666
251.68
251.307
249.245
245.754
244.492
246.164
248.469
249.76
251.428
253.524
240.247
240.91
239.645
239.087
237.086
233.909
232.724
234.426
236.603
237.43
238.745
240.91
228.276
228.745
227.146
226.411
224.555
221.811
220.746
222.448
224.447
224.71
225.588
227.754
215.821
215.996
214.079
213.165
211.543
209.36
208.478
210.152
211.904
211.503
211.85
213.948
202.725
202.536
200.304
199.196
197.905
196.467
195.823
197.441
198.865
197.679
197.391
199.351
188.841
188.236
185.711
184.396
183.518
183.004
182.657
184.174
185.194
183.136
182.188
183.915
174.403
173.715
171.3
169.939
169.229
169.122
168.965
170.335
171.06
168.802
167.623
169.11
160.741
160.036
157.767
156.361
155.796
155.939
155.839
157.06
157.652
155.376
154.009
155.254
147.919
147.179
145.048
143.583
143.189
143.624
143.581
144.648
145.119
142.82
141.244
142.23
135.795
135
133.006
131.464
131.273
132.068
132.102
133.001
133.345
131.004
129.196
129.901
124.237
123.379
121.526
119.894
119.933
121.145
121.271
121.993
122.203
119.816
117.761
118.172
113.158
112.239
110.541
108.807
109.09
110.754
110.985
111.521
111.602
109.18
106.878
106.99
102.516
101.547
100.03
98.1773
98.7078
100.833
101.174
101.521
101.483
99.0544
96.519
96.3401
92.3054
91.3052
90.0032
88.0113
88.7786
91.3477
91.7979
91.96
91.8226
89.4228
86.6816
86.233
82.549
81.5459
80.4533
78.3404
79.3192
82.2922
82.8452
82.8331
82.6205
80.2799
77.3813
76.6962
73.2944
72.3247
71.4036
69.2144
70.3622
73.6783
74.3227
74.1543
73.8941
71.6388
68.6438
67.7657
64.6108
63.7183
62.8919
60.7004
61.951
65.5311
66.2519
65.9511
65.6718
63.5265
60.499
59.4793
56.5707
55.7209
54.9594
52.8129
54.1426
57.8835
58.663
58.2589
57.9871
55.9747
52.976
51.8725
49.1589
48.3553
47.6612
45.6067
46.9958
50.7719
51.5907
51.1168
50.8735
49.0116
46.1006
44.9814
42.3853
41.6459
41.0391
39.1197
40.5291
44.2325
45.0706
44.5646
44.3608
42.6618
39.8932
38.812
36.3035
35.6323
35.1111
33.3576
34.7461
38.2994
39.136
38.6409
38.4729
36.945
34.3686
33.3471
30.9386
30.3238
29.8673
28.2639
29.6167
33.0042
33.812
33.3642
33.2235
31.863
29.4694
28.504
26.2013
25.634
25.2312
23.781
25.0747
28.2637
29.0191
28.6339
28.5208
27.3178
25.0934
24.1973
22.0293
21.5082
21.161
19.9208
21.1064
24.0024
24.6982
24.3774
24.2853
23.2449
21.2644
20.4731
18.4836
18.0039
17.7036
16.6631
17.7267
20.2939
20.946
20.6727
20.6051
19.7188
17.9868
17.3038
15.5078
15.0662
14.805
13.9473
14.8835
17.1073
17.7183
17.4903
17.446
16.7021
15.2126
14.643
13.0367
12.6313
12.4029
11.7072
12.5182
14.411
14.9758
14.7929
14.7688
14.1526
12.8904
12.4296
11.0044
10.6339
10.4333
9.87681
10.57
12.1593
12.6726
12.5326
12.5249
12.0204
10.9648
10.6023
9.34697
9.01005
8.83297
8.39311
8.97907
10.2988
10.7581
10.657
10.6623
10.2534
9.3809
9.10361
8.00439
7.69951
7.54253
7.19804
7.68896
8.77523
9.18084
9.11391
9.12892
8.80047
8.0869
7.88138
6.92245
6.64774
6.50801
6.2399
6.64848
7.53655
7.89038
7.85308
7.87541
7.61354
7.03537
6.88883
6.05347
5.80702
5.68201
5.47402
5.81251
6.53515
6.84125
6.82848
6.85619
6.64879
6.18418
6.08516
5.35727
5.13661
5.02415
4.86274
5.14239
5.72878
5.99324
5.999
6.03068
5.86741
5.49686
5.43553
4.80041
4.60244
4.50083
4.37505
4.60575
5.08101
5.30998
5.32906
5.3637
5.23595
4.94254
4.91077
4.35526
4.17725
4.08465
3.98581
4.17604
4.56122
4.76015
4.78853
4.82542
4.7262
4.49564
4.4868
3.99951
3.8389
3.75364
3.67494
3.83177
4.14418
4.31766
4.35244
4.39112
4.31481
4.1352
4.14404
3.71517
3.56957
3.49032
3.42652
3.55578
3.80939
3.96122
4.00039
4.04057
3.98272
3.84432
3.86669
3.48746
3.35514
3.28077
3.22798
3.33441
3.54042
3.67376
3.71591
3.75743
3.71456
3.60941
3.64205
3.30476
3.1846
3.11397
3.06944
3.15685
3.32416
3.44166
3.48583
3.5286
3.49797
3.41961
3.45995
3.15804
3.04909
2.98155
2.94312
3.01455
3.15024
3.25406
3.29962
3.34361
3.32308
3.26625
3.31226
3.04029
2.94152
2.87689
2.84283
2.90071
3.01041
3.10238
3.14892
3.1941
3.18199
3.1424
3.19242
2.94597
2.85632
2.79477
2.76352
2.80993
2.89812
2.97977
3.02702
3.07337
3.06837
3.0425
3.09516
2.87066
2.78912
2.73066
2.70128
2.73791
2.80813
2.88078
2.9286
2.97606
2.97711
2.96208
3.0162
2.81068
2.73651
2.68095
2.65318
2.6813
2.73627
2.80106
2.84937
2.89779
2.9041
2.89754
2.95209
2.76344
2.69574
2.64281
2.61637
2.6374
2.67913
2.7371
2.78589
2.83502
2.84601
2.846
2.90002
2.72677
2.66449
2.61401
2.58861
2.60356
2.63406
2.68607
2.73532
2.78483
2.80016
2.80512
2.85776
2.69893
2.64088
2.59239
2.56802
2.57773
2.59916
2.64572
2.695
2.74516
2.76438
2.77301
2.82349
2.67848
2.62374
2.57685
2.55307
2.55811
2.57244
2.61412
2.66258
2.71505
2.73692
2.74818
2.79584
2.66426
2.61215
2.56668
2.54313
2.54377
2.55205
2.58943
2.63727
2.69353
2.7164
2.72944
2.77372
2.65533
2.60539
2.56142
2.53768
2.53406
2.53699
2.5709
2.61858
2.67758
2.70237
2.71587
2.75626
2.651
2.60297
2.56068
2.53644
2.52848
2.52671
2.5578
2.60544
2.66556
2.6947
2.70674
2.74318
2.65076
2.60446
2.56395
2.53928
2.52673
2.52079
2.54957
2.59715
2.65765
2.69351
2.70212
2.7342
2.65438
2.6096
2.57098
2.54596
2.52866
2.51899
2.54582
2.5932
2.65333
2.69472
2.70235
2.72911
2.66178
2.61832
2.58169
2.55645
2.53429
2.52118
2.54634
2.59326
2.65235
2.69751
2.70798
2.72801
156508
156508
156508
156508
156508
156508
156508
156508
156508
156508
156508
156508
25807.7
25808.5
25808.5
25808.3
25808.8
25809.9
25811
25810.2
25807.9
25807.4
25809
25808.4
8857.75
8858.33
8858.42
8858.41
8858.97
8860.09
8861.23
8860.42
8858.42
8858.03
8859.32
8858.73
4231.02
4231.39
4231.63
4231.87
4232.57
4233.76
4234.96
4234.15
4232.34
4232.08
4233.13
4232.57
2442.25
2442.47
2442.9
2443.46
2444.33
2445.64
2446.97
2446.11
2444.35
2444.23
2445.18
2444.63
1595.7
1595.81
1596.47
1597.38
1598.42
1599.83
1601.3
1600.38
1598.62
1598.68
1599.62
1599.08
1141.09
1141.13
1142.03
1143.29
1144.46
1145.87
1147.45
1146.49
1144.77
1145.02
1146.04
1145.53
875.534
875.547
876.666
878.258
879.493
880.795
882.398
881.451
879.834
880.3
881.43
881.007
710.821
710.845
712.155
714.038
715.259
716.324
717.862
716.992
715.542
716.233
717.515
717.216
603.768
603.839
605.297
607.411
608.542
609.258
610.647
609.911
608.693
609.606
611.063
610.923
531.326
531.474
533.033
535.308
536.28
536.561
537.733
537.176
536.241
537.365
539.01
539.054
480.402
480.653
482.262
484.626
485.382
485.172
486.078
485.732
485.113
486.437
488.271
488.51
443.208
443.58
445.189
447.569
448.067
447.336
447.952
447.835
447.55
449.062
451.073
451.507
414.939
415.444
417.005
419.331
419.542
418.29
418.608
418.725
418.779
420.469
422.638
423.256
392.554
393.194
394.665
396.873
396.781
395.029
395.059
395.406
395.793
397.657
399.957
400.737
374.092
374.861
376.203
378.239
377.843
375.628
375.393
375.957
376.662
378.678
381.101
382.013
358.269
359.155
360.333
362.155
361.463
358.837
358.367
359.131
360.128
362.264
364.784
365.826
344.232
345.213
346.202
347.778
346.808
343.829
343.16
344.103
345.358
347.571
350.159
351.347
331.403
332.454
333.224
334.541
333.32
330.05
329.217
330.319
331.796
334.019
336.645
338.022
319.379
320.472
320.993
322.053
320.613
317.118
316.155
317.397
319.058
321.219
323.832
325.46
307.874
308.979
309.223
310.038
308.415
304.761
303.701
305.064
306.872
308.903
311.455
313.33
296.672
297.757
297.706
298.291
296.523
292.78
291.653
293.118
295.032
296.872
299.315
301.372
285.609
286.631
286.277
286.655
284.781
281.021
279.856
281.404
283.359
284.971
287.253
289.436
274.552
275.473
274.804
275.005
273.062
269.36
268.185
269.796
271.738
273.071
275.135
277.397
263.393
264.133
263.162
263.193
261.258
257.697
256.539
258.187
260.071
261.065
262.844
265.133
251.971
252.488
251.266
251.11
249.236
245.939
244.826
246.485
248.272
248.899
250.328
252.526
240.167
240.465
239.03
238.671
236.931
234.004
232.962
234.606
236.266
236.483
237.494
239.53
227.914
227.975
226.403
225.803
224.248
221.826
220.89
222.484
223.966
223.73
224.247
226.042
215.144
214.966
213.273
212.384
211.071
209.308
208.528
210.015
211.276
210.538
210.479
211.943
201.75
201.305
199.5
198.266
197.257
196.319
195.743
197.077
198.077
196.778
196.051
197.097
187.604
186.872
184.972
183.354
182.693
182.723
182.39
183.53
184.239
182.34
180.941
181.603
173.099
172.313
170.551
168.866
168.359
168.781
168.585
169.546
170.089
168.069
166.443
166.888
159.424
158.632
157.019
155.282
154.906
155.587
155.457
156.285
156.736
154.7
152.896
153.136
146.602
145.8
144.324
142.509
142.282
143.252
143.186
143.885
144.256
142.2
140.2
140.223
134.492
133.674
132.324
130.411
130.354
131.66
131.671
132.236
132.527
130.44
128.222
128.019
122.968
122.132
120.901
118.879
119.009
120.69
120.789
121.216
121.428
119.302
116.858
116.431
111.949
111.098
109.977
107.85
108.179
110.251
110.446
110.734
110.87
108.706
106.045
105.406
101.396
100.534
99.5107
97.2986
97.8297
100.285
100.581
100.734
100.8
98.6059
95.7515
94.926
91.3021
90.4352
89.4948
87.2273
87.9557
90.7666
91.1627
91.1895
91.1928
88.9845
85.973
84.9967
81.6845
80.8178
79.9467
77.659
78.5728
81.693
82.1848
82.0996
82.0487
79.847
76.7231
75.6385
72.5751
71.712
70.9007
68.6234
69.7071
73.0791
73.6575
73.4786
73.3824
71.2133
68.0271
66.8798
64.0103
63.1545
62.3973
60.1432
61.3814
64.9513
65.6037
65.3519
65.2195
63.111
59.9152
58.7505
56.0244
55.1881
54.4719
52.2799
53.6312
57.3421
58.0533
57.7502
57.5905
55.5699
52.4177
51.2768
48.6441
47.8479
47.1934
45.1126
46.5301
50.2855
51.0383
50.7044
50.5268
48.6183
45.5604
44.4777
41.8914
41.1615
40.6044
38.678
40.1142
43.8122
44.5889
44.242
44.0569
42.2794
39.3607
38.3642
35.8486
35.1826
34.7091
32.9474
34.3671
37.9463
38.73
38.384
38.203
36.5678
33.8234
32.937
30.5307
29.9103
29.4925
27.8891
29.2693
32.6978
33.4748
33.1398
32.9743
31.4829
28.9109
28.1211
25.8415
25.2626
24.8975
23.4788
24.7844
27.9883
28.747
28.4306
28.2882
26.9396
24.5483
23.8527
21.7205
21.1811
20.8642
19.6547
20.8518
23.7564
24.4856
24.1974
24.0818
22.8848
20.736
20.1655
18.2257
17.7238
17.4473
16.4381
17.51
20.0715
20.7677
20.5163
20.4273
19.38
17.4837
17.037
15.2977
14.8326
14.5891
13.7611
14.7029
16.9112
17.566
17.3564
17.2911
16.3857
14.7393
14.4049
12.8674
12.4387
12.2232
11.5545
12.369
14.2438
14.8458
14.6795
14.6342
13.859
12.4498
12.2063
10.8697
10.4771
10.2856
9.75279
10.4478
12.0197
12.5623
12.4375
12.4084
11.7495
10.5585
10.3904
9.24111
8.88397
8.71312
8.29328
8.87988
10.184
10.6654
10.578
10.5617
10.0049
9.0094
8.90267
7.92226
7.59927
7.44627
7.11828
7.60903
8.68167
9.10359
9.0486
9.04207
8.57359
7.74966
7.6916
6.85956
6.56883
6.43138
6.17658
6.58446
7.4609
7.82585
7.79944
7.80027
7.40714
6.73094
6.71054
6.00545
5.74536
5.62146
5.424
5.76147
6.47433
6.78824
6.78461
6.79088
6.46151
5.91044
5.91856
5.32097
5.08878
4.97657
4.82339
5.10186
5.68008
5.95055
5.96325
5.97352
5.6978
5.25134
5.2807
4.77338
4.56553
4.46362
4.3442
4.57367
5.04216
5.27596
5.3
5.31326
5.08252
4.72268
4.76762
4.33545
4.14908
4.05569
3.96171
4.15074
4.53031
4.73304
4.76496
4.78054
4.58749
4.29893
4.35512
3.98565
3.81768
3.73122
3.65619
3.81189
4.11965
4.29605
4.33335
4.35087
4.18946
3.95931
4.0235
3.7059
3.55377
3.47313
3.41199
3.54025
3.78998
3.94401
3.98497
4.00424
3.86952
3.68709
3.75687
3.48146
3.3436
3.26777
3.21679
3.32236
3.52513
3.66009
3.70351
3.7245
3.61243
3.46895
3.54245
3.30103
3.17657
3.10415
3.06089
3.1476
3.3122
3.43085
3.4759
3.49869
3.40602
3.29429
3.37007
3.1559
3.04369
2.97426
2.93666
3.00755
3.14097
3.24558
3.29175
3.31648
3.24058
3.1547
3.23156
3.03923
2.93799
2.87166
2.83806
2.89551
3.00333
3.0958
3.14274
3.1696
3.10838
3.04346
3.12041
2.94566
2.85411
2.79132
2.76009
2.80615
2.89281
2.97475
3.02227
3.05149
3.00326
2.9552
3.0314
2.8708
2.78785
2.72853
2.69886
2.73519
2.80428
2.87704
2.92504
2.95688
2.92023
2.88559
2.96032
2.81141
2.73592
2.67975
2.6517
2.67944
2.73358
2.79837
2.84682
2.88154
2.85527
2.83113
2.90376
2.76474
2.69566
2.6423
2.61561
2.63636
2.67735
2.73527
2.78422
2.82207
2.80508
2.78906
2.85895
2.72864
2.66487
2.61408
2.58841
2.60316
2.6329
2.68496
2.73454
2.77568
2.76694
2.7571
2.82361
2.7013
2.64207
2.59349
2.56845
2.57786
2.5986
2.6452
2.69568
2.74002
2.73866
2.73344
2.79593
2.6813
2.62595
2.57945
2.55465
2.55901
2.57243
2.61426
2.66615
2.7132
2.71844
2.71662
2.77441
2.66744
2.61546
2.57099
2.54618
2.54567
2.55268
2.59084
2.64462
2.69382
2.70485
2.70545
2.75793
2.65882
2.60975
2.5673
2.54234
2.5371
2.53843
2.57364
2.62905
2.68105
2.69674
2.69898
2.74559
2.65471
2.60813
2.5677
2.54259
2.53271
2.52898
2.56175
2.61843
2.67396
2.69339
2.69652
2.73677
2.65459
2.61011
2.57175
2.5465
2.53208
2.5238
2.55453
2.61205
2.671
2.69455
2.69756
2.73108
2.65808
2.61547
2.5792
2.55381
2.53495
2.52256
2.55154
2.60962
2.67154
2.70026
2.70192
2.72834
2.66497
2.62414
2.59001
2.56449
2.54122
2.52507
2.55252
2.61105
2.67507
2.70968
2.70961
2.72856
156508
156508
156508
156508
156508
156508
156508
156508
156508
156508
156508
156508
25809.7
25810.6
25810.8
25810.4
25810.9
25812.2
25813.7
25812.7
25810.2
25809.6
25811
25810.1
8859.83
8860.53
8860.75
8860.63
8861.21
8862.52
8863.86
8862.97
8860.79
8860.37
8861.55
8860.75
4233.25
4233.74
4234.12
4234.33
4235.02
4236.3
4237.63
4236.78
4234.86
4234.62
4235.64
4234.94
2444.81
2445.17
2445.76
2446.35
2447.18
2448.45
2449.86
2448.99
2447.19
2447.17
2448.16
2447.52
1598.71
1598.99
1599.81
1600.8
1601.75
1602.98
1604.47
1603.56
1601.85
1602.08
1603.17
1602.59
1144.56
1144.81
1145.86
1147.23
1148.25
1149.34
1150.85
1149.95
1148.36
1148.87
1150.13
1149.64
879.425
879.69
880.931
882.651
883.675
884.49
885.942
885.094
883.69
884.509
885.982
885.622
715.072
715.386
716.766
718.773
719.718
720.148
721.442
720.709
719.562
720.684
722.408
722.223
608.3
608.691
610.144
612.363
613.156
613.106
614.157
613.594
612.765
614.173
616.163
616.188
536.059
536.545
538.005
540.355
540.934
540.338
541.083
540.732
540.264
541.931
544.184
544.445
485.258
485.851
487.252
489.653
489.97
488.795
489.199
489.085
489
490.892
493.396
493.906
448.117
448.819
450.099
452.475
452.497
450.743
450.796
450.929
451.231
453.308
456.036
456.806
419.839
420.646
421.749
424.034
423.742
421.435
421.152
421.528
422.203
424.415
427.334
428.373
397.395
398.292
399.168
401.311
400.702
397.889
397.303
397.906
398.925
401.211
404.285
405.608
378.833
379.797
380.405
382.371
381.453
378.197
377.35
378.158
379.481
381.794
384.956
386.588
362.875
363.875
364.181
365.954
364.747
361.119
360.058
361.047
362.628
364.923
368.121
370.058
348.669
349.668
349.65
351.229
349.761
345.835
344.607
345.755
347.545
349.777
352.962
355.179
335.635
336.592
336.247
337.635
335.941
331.794
330.444
331.727
333.673
335.812
338.933
341.368
323.368
324.24
323.582
324.782
322.903
318.613
317.182
318.58
320.622
322.64
325.661
328.218
311.573
312.319
311.377
312.391
310.372
306.017
304.544
306.038
308.117
309.979
312.857
315.484
300.024
300.615
299.426
300.251
298.14
293.805
292.325
293.897
295.954
297.619
300.307
302.99
288.542
288.963
287.574
288.192
286.043
281.819
280.366
281.997
284
285.406
287.848
290.559
276.971
277.22
275.698
276.072
273.943
269.935
268.543
270.209
272.128
273.216
275.354
278.057
265.177
265.303
263.698
263.809
261.724
258.048
256.754
258.427
260.235
260.96
262.731
265.35
253.117
253.141
251.452
251.312
249.325
246.068
244.913
246.543
248.201
248.5
249.808
252.26
240.739
240.623
238.848
238.437
236.617
233.914
232.922
234.481
235.934
235.734
236.477
238.681
227.891
227.582
225.78
225.06
223.49
221.487
220.706
222.164
223.356
222.584
222.652
224.517
214.411
213.888
212.107
211.055
209.834
208.704
208.177
209.504
210.38
208.958
208.224
209.652
200.158
199.394
197.68
196.265
195.504
195.468
195.256
196.402
196.9
194.729
193.063
193.965
185.018
184.002
182.434
180.741
180.396
181.649
181.813
182.73
182.791
179.797
177.415
177.953
170.092
169.107
167.691
165.861
165.656
167.377
167.794
168.484
168.306
165.196
162.579
162.867
156.063
155.119
153.839
151.882
151.806
153.783
154.261
154.818
154.581
151.514
148.705
148.754
142.864
141.945
140.795
138.707
138.798
141.07
141.606
142.037
141.753
138.716
135.689
135.491
130.361
129.452
128.433
126.212
126.507
129.137
129.751
130.052
129.713
126.682
123.409
122.963
118.452
117.543
116.652
114.31
114.836
117.865
118.579
118.748
118.347
115.307
111.781
111.097
107.081
106.166
105.4
102.955
103.726
107.164
107.993
108.032
107.572
104.523
100.756
99.8556
96.23
95.3077
94.6593
92.1388
93.1555
96.9822
97.9324
97.8494
97.3376
94.2949
90.3179
89.2348
85.9118
84.9836
84.4432
81.8835
83.1288
87.2967
88.3662
88.1757
87.6256
84.6108
80.4716
79.2479
76.1582
75.2277
74.7857
72.2303
73.6732
78.1093
79.2888
79.0093
78.4376
75.478
71.2366
69.9198
67.0109
66.0842
65.733
63.2375
64.8321
69.4383
70.7121
70.365
69.7898
66.9141
62.6387
61.2789
58.5153
57.5989
57.338
54.9804
56.6659
61.3126
62.6599
62.2679
61.707
58.9427
54.705
53.3518
50.7198
49.8172
49.657
47.4871
49.2193
53.766
55.1618
54.7477
54.2169
51.5886
47.4601
46.1602
43.6938
42.7952
42.6948
40.7431
42.4783
46.8326
48.2498
47.835
47.3467
44.8749
40.9283
39.7186
37.497
36.5773
36.4702
34.7559
36.4542
40.5435
41.9546
41.5583
41.1207
38.8211
35.1222
34.0309
32.0694
31.1197
30.9746
29.4744
31.1164
34.9182
36.3003
35.9393
35.5561
33.4272
29.9446
28.9846
27.2826
26.3179
26.1281
24.8208
26.3688
29.8661
31.2062
30.8929
30.562
28.5909
25.2993
24.4952
23.0597
22.1108
21.8939
20.8008
22.2074
25.3068
26.5808
26.3282
26.0458
24.2497
21.2784
20.6345
19.4511
18.5398
18.3022
17.3986
18.6499
21.3476
22.5241
22.337
22.0985
20.4861
17.8563
17.3518
16.4013
15.5446
15.2952
14.5563
15.6487
17.9706
19.0184
18.8938
18.6933
17.2653
14.9783
14.5911
13.8495
13.0592
12.8074
12.2089
13.1469
15.1247
16.0323
15.964
15.7956
14.5457
12.5875
12.2998
11.7332
11.0162
10.7703
10.2891
11.0828
12.7466
13.5219
13.5001
13.3592
12.2762
10.6223
10.4234
9.9921
9.35088
9.11684
8.73192
9.39519
10.7783
11.4351
11.4489
11.3317
10.4016
9.02182
8.8954
8.56946
8.0026
7.78443
7.4772
8.02582
9.16401
9.7175
9.75637
9.65979
8.86695
7.72849
7.65877
7.41377
6.91695
6.71635
6.47103
6.92121
7.85025
8.31629
8.37062
8.29188
7.62034
6.6896
6.66317
6.47947
6.04622
5.8631
5.66666
6.03396
6.78771
7.18275
7.24315
7.17974
6.6139
5.85857
5.86454
5.72788
5.34956
5.1827
5.02462
5.32319
5.93222
6.26878
6.33018
6.27985
5.80502
5.19546
5.22528
5.12373
4.79293
4.64038
4.51228
4.75454
5.24543
5.5324
5.59326
5.55408
5.15678
4.66695
4.71402
4.63749
4.34879
4.20791
4.10322
4.2997
4.69487
4.93983
4.99951
4.96987
4.6381
4.24576
4.30511
4.24518
3.99343
3.86266
3.77627
3.93572
4.25369
4.46337
4.52142
4.50002
4.22334
3.90986
3.97788
3.92698
3.70819
3.58671
3.51466
3.64422
3.90004
4.08011
4.13638
4.12217
3.89166
3.6417
3.71587
3.66817
3.47865
3.36601
3.30515
3.4106
3.61635
3.77156
3.82606
3.81826
3.62635
3.42744
3.50602
3.45777
3.29342
3.18974
3.13729
3.22329
3.38861
3.52289
3.57578
3.57376
3.41408
3.2563
3.338
3.28687
3.14331
3.04967
3.00286
3.07314
3.20572
3.32228
3.37379
3.37708
3.24434
3.11985
3.20353
3.14823
3.02198
2.93811
2.89532
2.95288
3.05885
3.16035
3.21076
3.219
3.10897
3.01141
3.09597
3.03603
2.92424
2.84898
2.80955
2.85676
2.941
3.02963
3.07926
3.09215
3.00147
2.92561
3.01005
2.94558
2.84588
2.77736
2.74168
2.78015
2.84656
2.92418
2.97336
2.99064
2.91667
2.85808
2.94156
2.87317
2.78351
2.72034
2.68833
2.71934
2.77108
2.83926
2.88834
2.90977
2.85038
2.80484
2.88716
2.81559
2.73435
2.6755
2.64589
2.67097
2.71096
2.77106
2.82036
2.84573
2.79923
2.76352
2.84417
2.7702
2.69614
2.64087
2.61291
2.63213
2.66333
2.71652
2.76637
2.79546
2.76046
2.7326
2.8104
2.73483
2.66723
2.61488
2.58795
2.6018
2.62579
2.67318
2.72385
2.75652
2.73177
2.71039
2.78414
2.70775
2.64592
2.59635
2.56995
2.57877
2.59587