/*--------------------------------*- C++ -*----------------------------------*\
| =========                 |                                                 |
| \\      /  F ield         | OpenFOAM: The Open Source CFD Toolbox           |
|  \\    /   O peration     | Version:  v1912                                 |
|   \\  /    A nd           | Website:  www.openfoam.com                      |
|    \\/     M anipulation  |                                                 |
\*---------------------------------------------------------------------------*/
FoamFile
{
    version     2.0;
    format      ascii;
    class       volScalarField;
    location    "8";
    object      T;
}
// * * * * * * * * * * * * * * * * * * * * * * * * * * * * * * * * * * * * * //

dimensions      [0 0 0 1 0 0 0];


internalField   nonuniform List<scalar> 
34128
(
372.142
372.139
372.14
372.14
372.138
372.134
372.13
372.134
372.144
372.146
372.137
372.138
370.417
370.407
370.41
370.409
370.403
370.392
370.379
370.39
370.421
370.427
370.399
370.404
368.666
368.648
368.652
368.652
368.64
368.621
368.598
368.618
368.67
368.681
368.636
368.645
366.889
366.865
366.868
366.869
366.852
366.82
366.786
366.815
366.891
366.906
366.845
366.861
365.09
365.058
365.059
365.061
365.038
364.992
364.943
364.983
365.083
365.104
365.03
365.054
363.273
363.235
363.232
363.236
363.206
363.141
363.075
363.127
363.253
363.277
363.194
363.23
361.451
361.407
361.399
361.406
361.369
361.283
361.197
361.263
361.412
361.439
361.352
361.402
359.644
359.596
359.583
359.596
359.552
359.441
359.333
359.414
359.585
359.611
359.524
359.592
357.881
357.83
357.812
357.834
357.783
357.646
357.515
357.612
357.799
357.821
357.74
357.826
356.192
356.139
356.118
356.151
356.096
355.932
355.776
355.889
356.088
356.102
356.031
356.135
354.602
354.548
354.528
354.573
354.515
354.324
354.146
354.274
354.478
354.481
354.423
354.543
353.129
353.075
353.058
353.116
353.054
352.84
352.64
352.782
352.988
352.979
352.935
353.065
351.778
351.727
351.712
351.78
351.715
351.48
351.264
351.417
351.62
351.599
351.568
351.702
350.54
350.493
350.481
350.552
350.485
350.236
350.006
350.167
350.366
350.333
350.314
350.444
349.409
349.368
349.357
349.427
349.357
349.101
348.865
349.03
349.221
349.179
349.168
349.289
348.386
348.353
348.342
348.405
348.333
348.078
347.843
348.006
348.187
348.141
348.134
348.24
347.472
347.447
347.436
347.486
347.414
347.166
346.939
347.096
347.266
347.217
347.212
347.301
346.664
346.649
346.636
346.671
346.598
346.366
346.152
346.3
346.456
346.408
346.402
346.473
345.96
345.954
345.939
345.957
345.886
345.674
345.479
345.613
345.755
345.711
345.702
345.755
345.354
345.358
345.34
345.342
345.273
345.086
344.914
345.032
345.158
345.119
345.106
345.145
344.842
344.852
344.833
344.82
344.756
344.596
344.449
344.549
344.659
344.625
344.61
344.635
344.417
344.43
344.411
344.387
344.328
344.197
344.074
344.156
344.25
344.222
344.204
344.22
344.069
344.083
344.065
344.034
343.982
343.878
343.78
343.844
343.921
343.899
343.88
343.89
343.791
343.804
343.788
343.754
343.71
343.63
343.553
343.602
343.664
343.647
343.628
343.634
343.573
343.584
343.57
343.537
343.501
343.442
343.384
343.42
343.467
343.455
343.437
343.441
343.407
343.414
343.402
343.373
343.345
343.304
343.261
343.286
343.321
343.312
343.297
343.299
343.283
343.287
343.277
343.253
343.232
343.205
343.174
343.19
343.216
343.209
343.197
343.198
343.193
343.194
343.187
343.167
343.152
343.135
343.114
343.124
343.142
343.137
343.127
343.128
343.129
343.129
343.123
343.108
343.098
343.088
343.074
343.08
343.091
343.088
343.081
343.081
343.085
343.083
343.079
343.069
343.063
343.057
343.048
343.051
343.058
343.056
343.051
343.051
343.055
343.053
343.05
343.043
343.04
343.037
343.031
343.032
343.037
343.035
343.032
343.031
343.036
343.034
343.032
343.027
343.025
343.025
343.02
343.021
343.023
343.022
343.02
343.019
343.023
343.021
343.02
343.017
343.016
343.017
343.014
343.014
343.015
343.014
343.013
343.011
343.015
343.013
343.013
343.011
343.011
343.012
343.01
343.01
343.01
343.01
343.008
343.007
343.009
343.009
343.009
343.007
343.007
343.009
343.008
343.007
343.007
343.007
343.005
343.004
343.006
343.006
343.006
343.005
343.005
343.007
343.006
343.005
343.005
343.005
343.004
343.002
343.004
343.004
343.004
343.003
343.003
343.005
343.005
343.004
343.004
343.003
343.002
343.001
343.002
343.002
343.003
343.002
343.002
343.004
343.004
343.003
343.003
343.002
343.002
343
343.001
343.001
343.002
343.001
343.001
343.003
343.003
343.002
343.002
343.002
343.001
343
343.001
343.001
343.001
343
343.001
343.002
343.002
343.002
343.001
343.001
343
343
343
343
343.001
343
343
343.001
343.001
343.001
343.001
343
343
343
343
343
343
343
343
343.001
343.001
343.001
343
343
343
343
343
343
343
343
343
343
343
343
343
343
343
343
343
343
343
343
342.999
343
343
343
343
343
343
343
343
343
343
343
342.999
343
343
343
343
343
343
343
343
343
343
343
343
343
343
343
343
343
343
343
343
343
343
343
343
343
343
343
343
343
343
343
343
343
343
343
343
343
343
343
343
343
343
343
343
343
343
343
343
343
343
343
343
343
343
343
343
343
343
343
343
343
343
343
343
343
343
343
343
343
343
343
343
343
343
343
343
343
343
343
343
343
343
343
343
343
343
343
343
343
343
343
343
343
343
343
343
343
343
343
343
343
343
343
343
343
343
343
343
343
343
343
343
343
343
343
343
343
343
343
343
343
343
343
343
343
343
343
343
343
343
343
343
343
343
343
343
343
343
343
343
343
343
343
343
343
343
343
343
343
343
343
343
343
343
343
343
343
343
343
343
343
343
343
343
343
343
343
343
343
343
343
343
343
343
343
343
343
343
343
343
343
343
343
343
343
343
343
343
343
343
343
343
343
343
343
343
343
343
343
343
343
343
343.001
343
343
343
343
343
343
343
343
343
343.001
343.001
343.001
343
343
343
343.001
343
343
343.001
343.001
343.001
343.001
343.001
343.001
343.001
343
343.001
343.001
343.001
343.001
343.001
343.001
343.001
343.001
343.001
343.001
343.001
343.001
343.001
343.001
343.001
343.001
343.001
343.001
343.001
343.001
343.001
343.001
343.001
343.001
343.001
343.001
343.001
343.001
343.001
343.001
343.001
343.001
343.001
343.001
343.001
343.001
343.001
343.001
343.001
343.001
343.001
343.001
343.001
343.001
343.001
343.001
343.001
343.001
343.001
343.001
343.001
343.001
343.001
343.001
343.001
343.001
343.001
343.001
343.001
343.001
343.001
343.001
343.001
343.001
343.001
343.001
343.001
343.001
343.001
343.001
343.001
343.001
343.001
343.001
343.001
343.001
343.001
343.001
343.001
343.001
343.001
343.001
343.001
343.001
343.001
343.001
343.001
343.001
343.001
343.001
343.001
343.001
343.001
343.001
343.001
343.001
343.001
343.001
343.001
343.001
343.001
343.001
343.001
343.001
343.001
343.001
343.001
343.001
343.001
343.001
343.001
343.001
343.001
343.001
343.001
343.001
343.001
343.001
343.001
343.001
343.001
343.001
343.001
343.001
343.001
343.001
343.001
343.001
343.001
343.001
343.001
343.001
343.001
343.001
343.001
343.001
343.001
343.001
343.001
343.001
343.001
343.001
343.001
343.001
343.001
343.001
343.001
343.001
343.001
343.001
343.001
343.001
343.001
343.001
343.001
343.001
343.001
343.001
343.001
343.001
343.001
343.001
343.001
343.001
343.001
343.001
343.001
343.001
343.001
343.001
343.001
343.001
343.001
343.001
343.001
343.001
343.001
343.001
343.001
343.001
343.001
343.001
343.001
343.001
343.001
343.001
372.133
372.128
372.129
372.129
372.127
372.122
372.117
372.121
372.133
372.136
372.127
372.13
370.388
370.375
370.375
370.377
370.371
370.356
370.34
370.353
370.387
370.396
370.37
370.379
368.617
368.595
368.595
368.599
368.588
368.561
368.533
368.555
368.614
368.627
368.586
368.602
366.821
366.791
366.789
366.796
366.779
366.738
366.695
366.728
366.811
366.829
366.775
366.801
365.003
364.965
364.959
364.969
364.947
364.888
364.828
364.872
364.981
365.003
364.938
364.977
363.168
363.123
363.113
363.127
363.098
363.019
362.937
362.996
363.129
363.152
363.08
363.135
361.329
361.278
361.261
361.282
361.247
361.143
361.038
361.112
361.268
361.288
361.215
361.288
359.505
359.449
359.427
359.456
359.415
359.284
359.152
359.244
359.419
359.433
359.362
359.455
357.722
357.664
357.638
357.676
357.63
357.47
357.31
357.421
357.61
357.613
357.55
357.662
356.011
355.951
355.923
355.973
355.921
355.732
355.545
355.675
355.872
355.862
355.809
355.936
354.397
354.337
354.311
354.37
354.313
354.097
353.885
354.032
354.234
354.208
354.167
354.304
352.899
352.843
352.818
352.884
352.822
352.583
352.35
352.513
352.714
352.673
352.643
352.782
351.525
351.474
351.451
351.518
351.45
351.194
350.946
351.12
351.319
351.265
351.243
351.376
350.268
350.224
350.202
350.262
350.189
349.924
349.667
349.848
350.042
349.978
349.961
350.082
349.124
349.09
349.068
349.115
349.037
348.772
348.515
348.696
348.883
348.813
348.797
348.901
348.096
348.074
348.049
348.079
347.998
347.741
347.492
347.668
347.845
347.773
347.756
347.839
347.184
347.173
347.147
347.155
347.071
346.832
346.598
346.763
346.928
346.859
346.837
346.901
346.386
346.385
346.357
346.344
346.259
346.043
345.831
345.981
346.132
346.068
346.041
346.086
345.697
345.705
345.675
345.642
345.56
345.372
345.186
345.317
345.452
345.395
345.362
345.393
345.113
345.125
345.095
345.047
344.968
344.812
344.654
344.764
344.882
344.833
344.796
344.816
344.625
344.639
344.609
344.551
344.48
344.355
344.226
344.315
344.414
344.373
344.334
344.347
344.225
344.237
344.21
344.148
344.086
343.992
343.889
343.957
344.038
344.005
343.967
343.975
343.905
343.912
343.888
343.828
343.776
343.709
343.63
343.68
343.743
343.718
343.682
343.687
343.653
343.655
343.635
343.581
343.54
343.496
343.437
343.471
343.519
343.499
343.467
343.472
343.461
343.458
343.441
343.396
343.365
343.339
343.296
343.318
343.352
343.338
343.311
343.315
343.318
343.31
343.297
343.261
343.24
343.226
343.197
343.209
343.233
343.223
343.202
343.204
343.214
343.204
343.193
343.167
343.154
343.148
343.128
343.135
343.15
343.143
343.127
343.129
343.14
343.13
343.122
343.104
343.096
343.096
343.082
343.085
343.094
343.09
343.079
343.08
343.09
343.081
343.075
343.063
343.059
343.061
343.053
343.053
343.058
343.055
343.048
343.048
343.057
343.049
343.045
343.037
343.036
343.039
343.034
343.033
343.036
343.034
343.029
343.028
343.035
343.029
343.027
343.022
343.022
343.026
343.022
343.021
343.022
343.022
343.018
343.016
343.022
343.018
343.017
343.013
343.014
343.017
343.015
343.014
343.014
343.014
343.012
343.009
343.013
343.011
343.011
343.008
343.009
343.012
343.011
343.01
343.01
343.01
343.008
343.005
343.008
343.007
343.008
343.005
343.007
343.009
343.009
343.007
343.007
343.007
343.006
343.003
343.005
343.005
343.006
343.004
343.005
343.007
343.007
343.006
343.005
343.006
343.004
343.002
343.003
343.003
343.004
343.002
343.003
343.006
343.005
343.005
343.004
343.004
343.003
343.001
343.002
343.002
343.003
343.001
343.002
343.005
343.004
343.003
343.003
343.003
343.002
343
343.001
343.001
343.002
343.001
343.001
343.003
343.003
343.003
343.002
343.002
343.001
343
343
343.001
343.001
343
343
343.002
343.002
343.002
343.002
343.002
343.001
343
343
343
343.001
343
343
343.001
343.002
343.001
343.001
343.001
343
343
343
343
343
343
343
343.001
343.001
343.001
343.001
343
343
343
343
343
343
342.999
342.999
343
343
343
343
343
343
343
343
343
343
342.999
342.999
343
343
343
343
343
343
343
343
343
343
343
342.999
343
343
343
343
343
343
343
343
343
343
343
343
343
343
343
343
343
343
343
343
343
343
343
343
342.999
343
343
343
343
343
343
343
343
343
343
343
343
343
343
343
343
343
343
343
343
343
343
343
343
343
343
343
343
343
343
343
343
343
343
343
343
343
343
343
343
343
343
343
343
343
343
343
343
343
343
343
343
343
343
343
343
343
343
343
343
343
343
343
343
343
343
343
343
343
343
343
343
343
343
343
343
343
343
343
343
343
343
343
343
343
343
343
343
343
343
343
343
343
343
343
343
343
343
343
343
343
343
343
343
343
343
343
343
343
343
343
343
343
343
343
343
343
343
343
343
343
343
343
343
343
343
343
343
343
343
343
343
343
343
343
343
343
343
343
343
343
343
343
343
343
343
343
343
343
343
343
343
343
343
343
343
343
343
343
343
343
343
343
343
343
343
343
343
343
343
343
343
343
343
343
343
343
343
343
343
343
343
343
343
343
343
343
343
343
343
343
343
343
343
343
343
343
343
343
343
343
343.001
343
343
343
343
343
343
343
343
343
343
343.001
343.001
343.001
343
343
343
343
343
343.001
343.001
343.001
343.001
343.001
343.001
343.001
343.001
343.001
343.001
343
343.001
343.001
343.001
343.001
343.001
343.001
343.001
343.001
343.001
343.001
343.001
343.001
343.001
343.001
343.001
343.001
343.001
343.001
343.001
343.001
343.001
343.001
343.001
343.001
343.001
343.001
343.001
343.001
343.001
343.001
343.001
343.001
343.001
343.001
343.001
343.001
343.001
343.001
343.001
343.001
343.001
343.001
343.001
343.001
343.001
343.001
343.001
343.001
343.001
343.001
343.001
343.001
343.001
343.001
343.001
343.001
343.001
343.001
343.001
343.001
343.001
343.001
343.001
343.001
343.001
343.001
343.001
343.001
343.001
343.001
343.001
343.001
343.001
343.001
343.001
343.001
343.001
343.001
343.001
343.001
343.001
343.001
343.001
343.001
343.001
343.001
343.001
343.001
343.001
343.001
343.001
343.001
343.001
343.001
343.001
343.001
343.001
343.001
343.001
343.001
343.001
343.001
343.001
343.001
343.001
343.001
343.001
343.001
343.001
343.001
343.001
343.001
343.001
343.001
343.001
343.001
343.001
343.001
343.001
343.001
343.001
343.001
343.001
343.001
343.001
343.001
343.001
343.001
343.001
343.001
343.001
343.001
343.001
343.001
343.001
343.001
343.001
343.001
343.001
343.001
343.001
343.001
343.001
343.001
343.001
343.001
343.001
343.001
343.001
343.001
343.001
343.001
343.001
343.001
343.001
343.001
343.001
343.001
343.001
343.001
343.001
343.001
343.001
343.001
343.001
343.001
343.001
343.001
343.001
343.001
343.001
372.129
372.125
372.125
372.126
372.124
372.119
372.114
372.118
372.129
372.131
372.123
372.126
370.377
370.365
370.365
370.368
370.362
370.346
370.329
370.342
370.376
370.383
370.358
370.369
368.599
368.578
368.578
368.584
368.573
368.545
368.515
368.537
368.595
368.606
368.566
368.585
366.796
366.767
366.765
366.774
366.758
366.715
366.669
366.703
366.785
366.799
366.746
366.775
364.97
364.933
364.928
364.942
364.92
364.859
364.795
364.841
364.947
364.963
364.899
364.941
363.127
363.083
363.074
363.093
363.065
362.982
362.897
362.958
363.088
363.102
363.032
363.09
361.28
361.231
361.217
361.242
361.207
361.1
360.991
361.069
361.22
361.23
361.157
361.232
359.45
359.396
359.379
359.411
359.369
359.235
359.1
359.196
359.365
359.367
359.295
359.388
357.665
357.608
357.587
357.626
357.578
357.417
357.255
357.37
357.552
357.543
357.477
357.585
355.953
355.895
355.872
355.919
355.865
355.677
355.489
355.623
355.814
355.791
355.733
355.852
354.341
354.284
354.262
354.314
354.253
354.041
353.83
353.981
354.177
354.139
354.091
354.216
352.848
352.795
352.773
352.827
352.761
352.529
352.299
352.464
352.661
352.611
352.571
352.696
351.48
351.432
351.411
351.461
351.389
351.144
350.901
351.076
351.271
351.21
351.176
351.295
350.229
350.189
350.168
350.208
350.13
349.879
349.631
349.81
350
349.932
349.901
350.009
349.092
349.062
349.039
349.065
348.982
348.735
348.489
348.666
348.849
348.777
348.746
348.839
348.071
348.05
348.026
348.034
347.948
347.712
347.476
347.646
347.819
347.747
347.714
347.79
347.165
347.153
347.128
347.116
347.03
346.812
346.593
346.75
346.911
346.842
346.806
346.866
346.373
346.367
346.341
346.312
346.227
346.034
345.836
345.977
346.123
346.059
346.019
346.065
345.689
345.687
345.661
345.618
345.537
345.372
345.199
345.32
345.45
345.393
345.35
345.385
345.109
345.108
345.083
345.03
344.955
344.821
344.674
344.774
344.886
344.837
344.793
344.818
344.624
344.622
344.598
344.541
344.476
344.371
344.249
344.329
344.422
344.382
344.339
344.357
344.227
344.222
344.2
344.144
344.089
344.011
343.914
343.975
344.05
344.017
343.977
343.99
343.909
343.9
343.881
343.828
343.785
343.73
343.655
343.699
343.757
343.731
343.696
343.706
343.659
343.647
343.63
343.585
343.552
343.516
343.459
343.489
343.534
343.514
343.484
343.491
343.467
343.454
343.439
343.402
343.379
343.357
343.315
343.335
343.367
343.352
343.329
343.333
343.323
343.311
343.298
343.27
343.254
343.241
343.211
343.224
343.247
343.236
343.218
343.22
343.218
343.208
343.198
343.176
343.166
343.16
343.139
343.147
343.162
343.155
343.142
343.143
343.144
343.136
343.129
343.113
343.107
343.104
343.09
343.095
343.105
343.1
343.091
343.09
343.093
343.088
343.083
343.072
343.068
343.067
343.058
343.061
343.067
343.064
343.058
343.056
343.059
343.056
343.053
343.045
343.043
343.043
343.037
343.039
343.043
343.041
343.036
343.034
343.037
343.036
343.034
343.028
343.027
343.028
343.024
343.025
343.028
343.026
343.023
343.021
343.023
343.023
343.022
343.018
343.018
343.019
343.017
343.017
343.018
343.017
343.015
343.012
343.014
343.015
343.015
343.012
343.012
343.013
343.012
343.012
343.013
343.012
343.01
343.007
343.009
343.01
343.01
343.008
343.008
343.009
343.009
343.009
343.009
343.008
343.007
343.005
343.006
343.007
343.007
343.005
343.005
343.007
343.007
343.006
343.007
343.006
343.004
343.003
343.004
343.005
343.005
343.003
343.004
343.005
343.005
343.005
343.005
343.004
343.003
343.002
343.003
343.003
343.003
343.002
343.002
343.004
343.004
343.004
343.004
343.003
343.002
343.001
343.002
343.002
343.002
343.001
343.001
343.003
343.003
343.003
343.003
343.002
343.001
343
343.001
343.001
343.001
343
343.001
343.002
343.002
343.002
343.002
343.001
343
343
343.001
343.001
343
343
343
343.001
343.001
343.001
343.001
343.001
343
343
343
343
343
343
343
343
343.001
343.001
343.001
343
343
343
343
343
343
343
343
343
343
343
343
343
343
343
343
343
343
343
343
343
343
343
343
343
343
343
343
343
343
343
343
343
343
343
343
343
343
343
343
343
343
343
343
343
343
343
343
343
343
343
343
343
343
343
343
343
343
343
343
343
343
343
343
343
343
343
343
343
343
343
343
343
343
343
343
343
343
343
343
343
343
343
343
343
343
343
343
343
343
343
343
343
343
343
343
343
343
343
343
343
343
343
343
343
343
343
343
343
343
343
343
343
343
343
343
343
343
343
343
343
343
343
343
343
343
343
343
343
343
343
343
343
343
343
343
343
343
343
343
343
343
343
343
343
343
343
343
343
343
343
343
343
343
343
343
343
343
343
343
343
343
343
343
343
343
343
343
343
343
343
343
343
343
343
343
343
343
343
343
343
343
343
343
343
343
343
343
343
343
343
343
343
343
343
343
343
343
343
343
343
343
343
343
343
343
343
343
343
343
343
343
343
343
343
343
343
343
343
343
343
343
343
343
343
343
343
343
343
343
343
343
343
343
343
343
343
343
343
343
343
343
343
343
343
343
343
343
343
343
343
343
343
343
343
343
343
343.001
343.001
343
343
343
343
343
343
343
343
343
343.001
343.001
343.001
343
343
343
343
343
343
343.001
343.001
343.001
343.001
343.001
343.001
343.001
343
343
343
343
343.001
343.001
343.001
343.001
343.001
343.001
343.001
343.001
343
343
343.001
343.001
343.001
343.001
343.001
343.001
343.001
343.001
343.001
343.001
343.001
343.001
343.001
343.001
343.001
343.001
343.001
343.001
343.001
343.001
343.001
343.001
343.001
343.001
343.001
343.001
343.001
343.001
343.001
343.001
343.001
343.001
343.001
343.001
343.001
343.001
343.001
343.001
343.001
343.001
343.001
343.001
343.001
343.001
343.001
343.001
343.001
343.001
343.001
343.001
343.001
343.001
343.001
343.001
343.001
343.001
343.001
343.001
343.001
343.001
343.001
343.001
343.001
343.001
343.001
343.001
343.001
343.001
343.001
343.001
343.001
343.001
343.001
343.001
343.001
343.001
343.001
343.001
343.001
343.001
343.001
343.001
343.001
343.001
343.001
343.001
343.001
343.001
343.001
343.001
343.001
343.001
343.001
343.001
343.001
343.001
343.001
343.001
343.001
343.001
343.001
343.001
343.001
343.001
343.001
343.001
343.001
343.001
343.001
343.001
343.001
343.001
343.001
343.001
343.001
343.001
343.001
343.001
343.001
343.001
343.001
343.001
343.001
343.001
343.001
343.001
343.001
343.001
343.001
343.001
343.001
343.001
343.001
343.001
343.001
343.001
343.001
343.001
343.001
343.001
343.001
343.001
343.001
343.001
343.001
343.001
343.001
343.001
343.001
343.001
343.001
343.001
343.001
343.001
343.001
343.001
343.001
343.001
343.001
343.001
343.001
372.119
372.114
372.114
372.116
372.114
372.107
372.101
372.105
372.118
372.12
372.113
372.117
370.347
370.332
370.331
370.337
370.33
370.311
370.29
370.304
370.342
370.35
370.328
370.342
368.549
368.525
368.522
368.532
368.52
368.486
368.449
368.475
368.538
368.549
368.514
368.539
366.726
366.693
366.687
366.702
366.685
366.633
366.578
366.616
366.704
366.719
366.672
366.711
364.881
364.84
364.83
364.851
364.828
364.754
364.678
364.731
364.844
364.858
364.803
364.858
363.021
362.973
362.957
362.984
362.956
362.858
362.758
362.826
362.963
362.973
362.913
362.986
361.157
361.104
361.083
361.117
361.082
360.958
360.83
360.917
361.074
361.075
361.015
361.108
359.311
359.252
359.227
359.268
359.227
359.075
358.917
359.025
359.198
359.186
359.129
359.24
357.507
357.445
357.416
357.464
357.417
357.237
357.049
357.179
357.363
357.335
357.283
357.409
355.774
355.712
355.681
355.733
355.68
355.474
355.258
355.408
355.599
355.553
355.509
355.643
354.139
354.079
354.048
354.101
354.041
353.812
353.572
353.74
353.935
353.872
353.834
353.969
352.621
352.567
352.536
352.585
352.517
352.271
352.013
352.196
352.39
352.313
352.281
352.409
351.229
351.182
351.152
351.189
351.113
350.858
350.59
350.781
350.974
350.886
350.855
350.969
349.958
349.922
349.89
349.908
349.825
349.571
349.301
349.495
349.683
349.588
349.554
349.651
348.808
348.783
348.749
348.745
348.655
348.411
348.15
348.339
348.519
348.423
348.383
348.459
347.782
347.766
347.731
347.702
347.608
347.384
347.139
347.316
347.486
347.393
347.345
347.401
346.878
346.871
346.834
346.781
346.687
346.489
346.267
346.427
346.583
346.496
346.441
346.48
346.095
346.093
346.055
345.982
345.89
345.724
345.531
345.669
345.809
345.731
345.669
345.694
345.426
345.426
345.389
345.302
345.216
345.084
344.921
345.035
345.157
345.089
345.024
345.039
344.866
344.864
344.829
344.735
344.658
344.56
344.427
344.518
344.619
344.562
344.497
344.505
344.405
344.4
344.367
344.274
344.209
344.142
344.037
344.105
344.187
344.139
344.077
344.082
344.034
344.024
343.995
343.908
343.856
343.815
343.736
343.784
343.847
343.809
343.753
343.755
343.742
343.728
343.702
343.626
343.587
343.567
343.509
343.541
343.588
343.557
343.51
343.511
343.518
343.501
343.48
343.417
343.39
343.384
343.344
343.364
343.396
343.372
343.334
343.335
343.351
343.333
343.316
343.268
343.25
343.253
343.226
343.237
343.259
343.241
343.211
343.212
343.23
343.214
343.2
343.165
343.154
343.162
343.145
343.151
343.164
343.15
343.129
343.129
343.146
343.132
343.122
343.097
343.092
343.101
343.091
343.093
343.101
343.091
343.076
343.075
343.09
343.078
343.072
343.055
343.053
343.062
343.056
343.057
343.061
343.054
343.043
343.042
343.053
343.045
343.041
343.031
343.03
343.038
343.035
343.035
343.036
343.032
343.025
343.023
343.031
343.025
343.023
343.017
343.018
343.024
343.022
343.022
343.022
343.019
343.014
343.012
343.018
343.014
343.013
343.009
343.011
343.016
343.015
343.014
343.014
343.012
343.009
343.007
343.01
343.008
343.008
343.006
343.007
343.011
343.011
343.01
343.01
343.008
343.006
343.004
343.006
343.005
343.005
343.004
343.005
343.008
343.008
343.008
343.007
343.006
343.004
343.002
343.004
343.004
343.004
343.003
343.004
343.007
343.007
343.006
343.006
343.005
343.003
343.001
343.003
343.003
343.003
343.002
343.003
343.006
343.006
343.005
343.005
343.004
343.003
343.001
343.002
343.002
343.002
343.001
343.002
343.004
343.005
343.004
343.004
343.004
343.002
343.001
343.001
343.001
343.001
343
343.001
343.003
343.004
343.003
343.003
343.003
343.001
343
343.001
343.001
343.001
343
343.001
343.002
343.003
343.002
343.002
343.002
343.001
343
343
343
343
343
343
343.002
343.002
343.002
343.002
343.001
343
343
343
343
343
342.999
343
343.001
343.001
343.001
343.001
343.001
343
343
343
343
343
342.999
342.999
343
343.001
343.001
343.001
343
343
343
342.999
342.999
343
342.999
342.999
343
343
343
343
343
343
343
342.999
342.999
343
342.999
342.999
343
343
343
343
343
343
343
342.999
342.999
343
343
342.999
342.999
343
343
343
343
343
343
343
343
343
343
342.999
342.999
343
343
343
343
343
343
343
343
343
343
343
342.999
343
343
343
343
343
343
343
343
343
343
343
342.999
343
343
343
343
343
343
343
343
343
343
343
343
343
343
343
343
343
343
343
343
343
343
343
343
343
343
343
343
343
343
343
343
343
343
343
343
343
343
343
343
343
343
343
343
343
343
343
343
343
343
343
343
343
343
343
343
343
343
343
343
343
343
343
343
343
343
343
343
343
343
343
343
343
343
343
343
343
343
343
343
343
343
343
343
343
343
343
343
343
343
343
343
343
343
343
343
343
343
343
343
343
343
343
343
343
343
343
343
343
343
343
343
343
343
343
343
343
343
343
343
343
343
343
343
343
343
343
343
343
343
343
343
343
343
343
343
343
343
343
343
343
343
343
343
343
343
343
343
343
343
343
343
343
343
343
343
343
343
343
343
343
343
343
343
343
343
343
343
343
343
343
343
343
343
343
343
343
343
343
343
343
343
343
343
343
343
343
343
343
343
343
343
343
343
343
343
343
343
343
343
343
343
343
343
343
343
343
343
343
343
343
343
343.001
343.001
343
343
343
343
343
343
343.001
343
343
343.001
343.001
343.001
343.001
343
343
343
343
343
343.001
343.001
343.001
343.001
343.001
343.001
343.001
343
343
343
343
343.001
343.001
343.001
343.001
343.001
343.001
343.001
343.001
343.001
343.001
343.001
343.001
343.001
343.001
343.001
343.001
343.001
343.001
343.001
343.001
343.001
343.001
343.001
343.001
343.001
343.001
343.001
343.001
343.001
343.001
343.001
343.001
343.001
343.001
343.001
343.001
343.001
343.001
343.001
343.001
343.001
343.001
343.001
343.001
343.001
343.001
343.001
343.001
343.001
343.001
343.001
343.001
343.001
343.001
343.001
343.001
343.001
343.001
343.001
343.001
343.001
343.001
343.001
343.001
343.001
343.001
343.001
343.001
343.001
343.001
343.001
343.001
343.001
343.001
343.001
343.001
343.001
343.001
343.001
343.001
343.001
343.001
343.001
343.001
343.001
343.001
343.001
343.001
343.001
343.001
343.001
343.001
343.001
343.001
343.001
343.001
343.001
343.001
343.001
343.001
343.001
343.001
343.001
343.001
343.001
343.001
343.001
343.001
343.001
343.001
343.001
343.001
343.001
343.001
343.001
343.001
343.001
343.001
343.001
343.001
343.001
343.001
343.001
343.001
343.001
343.001
343.001
343.001
343.001
343.001
343.001
343.001
343.001
343.001
343.001
343.001
343.001
343.001
343.001
343.001
343.001
343.001
343.001
343.001
343.001
343.001
343.001
372.112
372.108
372.107
372.109
372.107
372.1
372.093
372.098
372.11
372.112
372.105
372.11
370.326
370.312
370.311
370.318
370.311
370.29
370.267
370.282
370.319
370.324
370.303
370.32
368.513
368.49
368.487
368.5
368.489
368.451
368.411
368.438
368.499
368.506
368.472
368.501
366.674
366.644
366.638
366.657
366.64
366.584
366.525
366.565
366.649
366.657
366.612
366.656
364.814
364.775
364.766
364.791
364.77
364.692
364.61
364.666
364.774
364.777
364.725
364.784
362.938
362.892
362.88
362.911
362.884
362.783
362.676
362.749
362.878
362.874
362.816
362.892
361.06
361.007
360.992
361.03
360.997
360.87
360.736
360.829
360.976
360.96
360.9
360.992
359.202
359.144
359.125
359.169
359.129
358.977
358.813
358.928
359.089
359.058
358.998
359.104
357.39
357.33
357.309
357.355
357.308
357.131
356.94
357.076
357.248
357.199
357.142
357.256
355.654
355.595
355.573
355.618
355.563
355.364
355.147
355.303
355.483
355.417
355.362
355.479
354.023
353.966
353.944
353.983
353.919
353.702
353.466
353.638
353.823
353.742
353.688
353.8
352.513
352.464
352.44
352.467
352.394
352.166
351.917
352.101
352.287
352.195
352.141
352.244
351.132
351.091
351.066
351.075
350.992
350.762
350.508
350.697
350.882
350.783
350.725
350.815
349.875
349.843
349.816
349.801
349.711
349.488
349.239
349.425
349.606
349.503
349.439
349.514
348.738
348.716
348.687
348.647
348.552
348.345
348.108
348.286
348.458
348.356
348.285
348.345
347.725
347.709
347.679
347.616
347.519
347.336
347.118
347.281
347.44
347.344
347.266
347.313
346.834
346.821
346.791
346.709
346.614
346.461
346.267
346.409
346.554
346.464
346.382
346.418
346.062
346.048
346.018
345.924
345.836
345.715
345.548
345.667
345.794
345.713
345.63
345.657
345.404
345.386
345.358
345.259
345.181
345.092
344.952
345.048
345.155
345.084
345.004
345.025
344.852
344.829
344.803
344.707
344.641
344.582
344.468
344.542
344.63
344.568
344.494
344.51
344.398
344.369
344.346
344.259
344.208
344.173
344.083
344.138
344.206
344.154
344.088
344.101
344.032
344
343.98
343.905
343.868
343.851
343.783
343.822
343.873
343.83
343.775
343.784
343.744
343.711
343.694
343.634
343.609
343.604
343.553
343.58
343.618
343.583
343.538
343.545
343.522
343.492
343.478
343.432
343.416
343.419
343.383
343.401
343.427
343.399
343.365
343.369
343.357
343.332
343.321
343.288
343.279
343.284
343.259
343.271
343.289
343.267
343.243
343.244
343.237
343.218
343.21
343.187
343.183
343.189
343.171
343.18
343.192
343.175
343.158
343.158
343.154
343.141
343.135
343.12
343.118
343.123
343.111
343.117
343.125
343.113
343.102
343.1
343.098
343.09
343.086
343.076
343.075
343.079
343.071
343.076
343.081
343.073
343.065
343.063
343.061
343.057
343.055
343.049
343.048
343.05
343.046
343.049
343.053
343.047
343.042
343.039
343.038
343.037
343.036
343.031
343.031
343.033
343.03
343.032
343.034
343.031
343.027
343.024
343.024
343.024
343.024
343.021
343.021
343.022
343.02
343.021
343.023
343.021
343.018
343.016
343.015
343.017
343.016
343.014
343.014
343.015
343.014
343.015
343.016
343.015
343.012
343.01
343.01
343.012
343.011
343.009
343.009
343.011
343.01
343.011
343.012
343.011
343.008
343.007
343.007
343.008
343.008
343.006
343.006
343.008
343.008
343.008
343.009
343.008
343.006
343.005
343.005
343.006
343.005
343.004
343.004
343.006
343.006
343.006
343.007
343.006
343.004
343.003
343.003
343.004
343.004
343.002
343.003
343.004
343.005
343.005
343.005
343.004
343.002
343.002
343.002
343.002
343.002
343.001
343.002
343.003
343.004
343.003
343.004
343.003
343.001
343.001
343.001
343.001
343.001
343
343.001
343.002