/*--------------------------------*- C++ -*----------------------------------*\
| =========                 |                                                 |
| \\      /  F ield         | OpenFOAM: The Open Source CFD Toolbox           |
|  \\    /   O peration     | Version:  v1912                                 |
|   \\  /    A nd           | Website:  www.openfoam.com                      |
|    \\/     M anipulation  |                                                 |
\*---------------------------------------------------------------------------*/
FoamFile
{
    version     2.0;
    format      ascii;
    class       volSymmTensorField;
    location    "8";
    object      UPrime2Mean;
}
// * * * * * * * * * * * * * * * * * * * * * * * * * * * * * * * * * * * * * //

dimensions      [0 2 -2 0 0 0 0];


internalField   nonuniform List<symmTensor> 
34128
(
(1.8724e-11 -1.25426e-14 -2.62745e-10 1.1913e-12 -3.0267e-09 1.12761e-05)
(1.40717e-11 -8.77738e-15 -2.31573e-11 1.19131e-12 -3.02804e-09 1.12831e-05)
(1.48309e-11 1.31451e-14 6.99992e-11 1.19138e-12 -3.028e-09 1.13078e-05)
(2.07397e-11 6.30217e-14 -2.47163e-10 1.1913e-12 -3.02722e-09 1.13206e-05)
(2.44699e-11 1.00586e-13 -5.08641e-10 1.19173e-12 -3.02787e-09 1.13075e-05)
(2.15373e-11 1.11543e-13 -4.65594e-10 1.19186e-12 -3.0287e-09 1.12838e-05)
(1.9909e-11 9.00219e-14 4.06645e-12 1.19213e-12 -3.02944e-09 1.1273e-05)
(1.7975e-11 6.82006e-14 4.07365e-10 1.19183e-12 -3.02858e-09 1.12926e-05)
(1.79035e-11 7.93876e-14 3.0528e-10 1.19152e-12 -3.02798e-09 1.13192e-05)
(1.90042e-11 1.25388e-13 -8.51893e-11 1.19159e-12 -3.02775e-09 1.13077e-05)
(2.10256e-11 1.0837e-13 -1.07028e-11 1.19193e-12 -3.02756e-09 1.12691e-05)
(2.84483e-11 3.56218e-14 4.58611e-10 1.19315e-12 -3.02896e-09 1.12616e-05)
(1.64199e-10 -5.87883e-13 -1.89624e-09 5.8357e-12 -1.20577e-08 4.45565e-05)
(1.24036e-10 -3.26087e-13 -8.36508e-11 5.81908e-12 -1.20779e-08 4.46057e-05)
(1.30692e-10 2.00704e-13 5.85006e-10 5.82195e-12 -1.203e-08 4.47938e-05)
(1.81571e-10 7.19504e-13 -1.85387e-09 5.82996e-12 -1.19904e-08 4.48923e-05)
(2.13127e-10 1.28968e-12 -3.93841e-09 5.83714e-12 -1.20206e-08 4.47934e-05)
(1.87217e-10 1.599e-12 -3.66559e-09 5.83613e-12 -1.20868e-08 4.46112e-05)
(1.73203e-10 1.9778e-12 -1.92039e-10 5.83577e-12 -1.21184e-08 4.45286e-05)
(1.56751e-10 2.26113e-12 2.7985e-09 5.83876e-12 -1.20761e-08 4.46788e-05)
(1.56382e-10 2.40309e-12 1.96847e-09 5.83764e-12 -1.20232e-08 4.48794e-05)
(1.66698e-10 2.78043e-12 -9.48192e-10 5.84878e-12 -1.2038e-08 4.47915e-05)
(1.84043e-10 2.70844e-12 -4.66026e-10 5.86669e-12 -1.20929e-08 4.45e-05)
(2.48388e-10 1.99499e-12 2.96757e-09 5.87653e-12 -1.21041e-08 4.44424e-05)
(4.5106e-10 -2.33696e-12 -4.90544e-09 4.66535e-12 -1.02967e-08 8.6176e-05)
(3.4233e-10 -1.33944e-12 -1.47319e-10 4.54063e-12 -1.0366e-08 8.62935e-05)
(3.60629e-10 4.50683e-13 1.72643e-09 4.60417e-12 -1.01187e-08 8.67627e-05)
(4.97695e-10 1.3615e-12 -4.12146e-09 4.69023e-12 -9.93266e-09 8.70102e-05)
(5.81383e-10 3.01304e-12 -9.13112e-09 4.68753e-12 -1.00767e-08 8.67648e-05)
(5.10039e-10 4.15405e-12 -8.2628e-09 4.60738e-12 -1.03946e-08 8.63104e-05)
(4.7234e-10 6.65934e-12 4.76488e-10 4.55731e-12 -1.05418e-08 8.61064e-05)
(4.28471e-10 8.77642e-12 7.99201e-09 4.61275e-12 -1.03384e-08 8.64833e-05)
(4.28197e-10 9.05113e-12 6.0271e-09 4.66533e-12 -1.00789e-08 8.69816e-05)
(4.57789e-10 9.57392e-12 -1.08991e-09 4.70832e-12 -1.01564e-08 8.67652e-05)
(5.04455e-10 9.75399e-12 -2.77002e-11 4.75239e-12 -1.04474e-08 8.60449e-05)
(6.79476e-10 8.24375e-12 8.22017e-09 4.81039e-12 -1.05018e-08 8.59041e-05)
(8.76912e-10 -6.02144e-12 -8.82292e-09 8.91676e-12 -7.41557e-09 0.00012924)
(6.68788e-10 -3.42313e-12 -9.21274e-11 8.44237e-12 -7.5844e-09 0.000129443)
(7.04335e-10 1.06379e-12 3.44397e-09 8.74363e-12 -6.91954e-09 0.000130275)
(9.64922e-10 2.65533e-12 -6.67854e-09 9.09669e-12 -6.4296e-09 0.000130716)
(1.12148e-09 6.62434e-12 -1.52813e-08 9.03375e-12 -6.8053e-09 0.000130281)
(9.82864e-10 9.56948e-12 -1.34701e-08 8.65531e-12 -7.64239e-09 0.000129476)
(9.11333e-10 1.68852e-11 2.14416e-09 8.42072e-12 -8.02218e-09 0.000129118)
(8.28816e-10 2.32735e-11 1.55255e-08 8.66759e-12 -7.48331e-09 0.000129788)
(8.29935e-10 2.38191e-11 1.22161e-08 8.93521e-12 -6.7962e-09 0.000130668)
(8.89675e-10 2.45172e-11 -2.2261e-10 9.06733e-12 -6.99543e-09 0.000130289)
(9.78437e-10 2.53319e-11 1.48151e-09 9.14825e-12 -7.76731e-09 0.000129022)
(1.31516e-09 2.22286e-11 1.57076e-08 9.34881e-12 -7.90991e-09 0.000128778)
(1.43961e-09 -1.19798e-11 -1.31725e-08 1.61687e-11 1.03036e-08 0.000170221)
(1.10355e-09 -6.68007e-12 2.00873e-10 1.49101e-11 9.98796e-09 0.00017052)
(1.16172e-09 2.08607e-12 5.6189e-09 1.5866e-11 1.13554e-08 0.000171767)
(1.57895e-09 3.92539e-12 -9.38331e-09 1.68731e-11 1.23456e-08 0.000172427)
(1.82539e-09 1.13524e-11 -2.19274e-08 1.65845e-11 1.15849e-08 0.000171777)
(1.59853e-09 1.72826e-11 -1.88798e-08 1.53936e-11 9.89259e-09 0.000170573)
(1.48431e-09 3.34828e-11 4.62245e-09 1.46637e-11 9.13516e-09 0.000170041)
(1.35374e-09 4.79871e-11 2.4669e-08 1.54114e-11 1.02337e-08 0.000171045)
(1.35863e-09 4.88003e-11 1.99324e-08 1.62855e-11 1.16339e-08 0.000172356)
(1.46014e-09 4.9012e-11 1.45516e-09 1.65668e-11 1.12379e-08 0.000171793)
(1.60265e-09 5.12368e-11 3.77948e-09 1.65732e-11 9.66472e-09 0.000169913)
(2.14933e-09 4.63806e-11 2.46493e-08 1.70673e-11 9.3845e-09 0.000169555)
(2.13666e-09 -2.04582e-11 -1.75492e-08 3.48389e-11 3.53793e-08 0.00020717)
(1.64653e-09 -1.1129e-11 8.39841e-10 3.21129e-11 3.48679e-08 0.000207574)
(1.73229e-09 3.9419e-12 8.1359e-09 3.44247e-11 3.7248e-08 0.00020926)
(2.33478e-09 5.7944e-12 -1.21711e-08 3.67058e-11 3.89479e-08 0.000210148)
(2.68431e-09 1.82987e-11 -2.87529e-08 3.59165e-11 3.76353e-08 0.000209268)
(2.34935e-09 2.86584e-11 -2.4227e-08 3.30786e-11 3.47291e-08 0.000207645)
(2.18498e-09 5.85609e-11 7.6666e-09 3.13546e-11 3.34435e-08 0.000206934)
(1.99899e-09 8.57667e-11 3.47274e-08 3.31146e-11 3.53438e-08 0.000208288)
(2.01121e-09 8.69351e-11 2.85811e-08 3.52504e-11 3.77621e-08 0.000210047)
(2.16679e-09 8.60747e-11 3.66934e-09 3.57936e-11 3.70947e-08 0.000209295)
(2.37379e-09 9.04925e-11 6.53206e-09 3.55446e-11 3.43842e-08 0.000206775)
(3.17574e-09 8.31174e-11 3.43209e-08 3.65578e-11 3.39181e-08 0.000206302)
(2.9648e-09 -3.14653e-11 -2.16184e-08 6.96603e-11 6.96671e-08 0.000239057)
(2.29702e-09 -1.66071e-11 1.92664e-09 6.44981e-11 6.89221e-08 0.000239571)
(2.41479e-09 7.03175e-12 1.09073e-08 6.92496e-11 7.26464e-08 0.0002417)
(3.22639e-09 8.46353e-12 -1.50049e-08 7.37199e-11 7.52689e-08 0.000242813)
(3.68829e-09 2.77856e-11 -3.55337e-08 7.19921e-11 7.32245e-08 0.000241698)
(3.22681e-09 4.41484e-11 -2.93452e-08 6.62417e-11 6.87349e-08 0.000239658)
(3.00641e-09 9.33932e-11 1.10136e-08 6.27769e-11 6.67697e-08 0.000238772)
(2.75982e-09 1.38706e-10 4.5067e-08 6.63279e-11 6.97242e-08 0.000240472)
(2.78423e-09 1.403e-10 3.75953e-08 7.07396e-11 7.34783e-08 0.000242672)
(3.00681e-09 1.37509e-10 6.10048e-09 7.17033e-11 7.24638e-08 0.000241734)
(3.28831e-09 1.44965e-10 9.37263e-09 7.08769e-11 6.82648e-08 0.000238585)
(4.38764e-09 1.3409e-10 4.40524e-08 7.26996e-11 6.75681e-08 0.000238002)
(3.91984e-09 -4.49071e-11 -2.51335e-08 1.27224e-10 1.12314e-07 0.000265442)
(3.05351e-09 -2.28332e-11 3.53875e-09 1.18337e-10 1.11313e-07 0.00026607)
(3.20695e-09 1.18825e-11 1.38744e-08 1.27065e-10 1.1672e-07 0.000268627)
(4.24658e-09 1.23734e-11 -1.78474e-08 1.34979e-10 1.2047e-07 0.00026995)
(4.82628e-09 4.03427e-11 -4.21005e-08 1.3169e-10 1.17509e-07 0.000268604)
(4.22153e-09 6.436e-11 -3.4124e-08 1.21266e-10 1.11075e-07 0.000266169)
(3.94088e-09 1.392e-10 1.44315e-08 1.15035e-10 1.08286e-07 0.000265118)
(3.63096e-09 2.08611e-10 5.51698e-08 1.21469e-10 1.12544e-07 0.000267146)
(3.67374e-09 2.10726e-10 4.64982e-08 1.29592e-10 1.17947e-07 0.00026976)
(3.97678e-09 2.04956e-10 8.46303e-09 1.31204e-10 1.16514e-07 0.000268648)
(4.34238e-09 2.16226e-10 1.19798e-08 1.29324e-10 1.10479e-07 0.000264907)
(5.77774e-09 2.00438e-10 5.3286e-08 1.32304e-10 1.09513e-07 0.000264223)
(4.99681e-09 -6.06088e-11 -2.79412e-08 2.14684e-10 1.62481e-07 0.000286273)
(3.91381e-09 -2.93943e-11 5.71643e-09 2.00439e-10 1.61218e-07 0.000287017)
(4.1057e-09 1.91334e-11 1.70029e-08 2.15199e-10 1.68647e-07 0.000289976)
(5.38727e-09 1.80899e-11 -2.06478e-08 2.28198e-10 1.73714e-07 0.000291486)
(6.08643e-09 5.65039e-11 -4.83127e-08 2.22516e-10 1.69652e-07 0.00028992)
(5.3236e-09 8.98412e-11 -3.84804e-08 2.05096e-10 1.60934e-07 0.000287122)
(4.98022e-09 1.96973e-10 1.77514e-08 1.94772e-10 1.57188e-07 0.000285923)
(4.60674e-09 2.96863e-10 6.46674e-08 2.05532e-10 1.62988e-07 0.000288248)
(4.67544e-09 2.99647e-10 5.49433e-08 2.19283e-10 1.70338e-07 0.000291236)
(5.07292e-09 2.89651e-10 1.05592e-08 2.21863e-10 1.68419e-07 0.000289966)
(5.53203e-09 3.05343e-10 1.41314e-08 2.18275e-10 1.6022e-07 0.00028569)
(7.33849e-09 2.82724e-10 6.16156e-08 2.22804e-10 1.58953e-07 0.000284918)
(6.19046e-09 -7.83531e-11 -2.9972e-08 3.39578e-10 2.19156e-07 0.000301739)
(4.87543e-09 -3.57468e-11 8.45905e-09 3.17979e-10 2.17646e-07 0.000302597)
(5.10749e-09 2.95537e-11 2.02763e-08 3.4141e-10 2.27427e-07 0.000305925)
(6.63995e-09 2.63354e-11 -2.33379e-08 3.61557e-10 2.33983e-07 0.000307595)
(7.45669e-09 7.68441e-11 -5.40449e-08 3.5243e-10 2.28636e-07 0.000305823)
(6.52307e-09 1.21129e-10 -4.23421e-08 3.25078e-10 2.17326e-07 0.000302703)
(6.11622e-09 2.67505e-10 2.08784e-08 3.09015e-10 2.12506e-07 0.000301376)
(5.68152e-09 4.04439e-10 7.33445e-08 3.25927e-10 2.20066e-07 0.000303961)
(5.78509e-09 4.0814e-10 6.27244e-08 3.47755e-10 2.29638e-07 0.000307276)
(6.29141e-09 3.92489e-10 1.22987e-08 3.51736e-10 2.27176e-07 0.000305868)
(6.85357e-09 4.12947e-10 1.57236e-08 3.45598e-10 2.16511e-07 0.000301124)
(9.0627e-09 3.81004e-10 6.87935e-08 3.5209e-10 2.14919e-07 0.000300277)
(7.49578e-09 -9.78912e-11 -3.12228e-08 5.09802e-10 2.8137e-07 0.00031216)
(5.93603e-09 -4.12065e-11 1.17296e-08 4.78482e-10 2.7964e-07 0.000313131)
(6.20888e-09 4.40483e-11 2.36882e-08 5.1386e-10 2.92094e-07 0.000316787)
(7.99639e-09 3.79662e-11 -2.58363e-08 5.43677e-10 3.00288e-07 0.000318588)
(8.92566e-09 1.01959e-10 -5.9181e-08 5.29817e-10 2.93483e-07 0.000316627)
(7.81068e-09 1.58739e-10 -4.56397e-08 4.88946e-10 2.79306e-07 0.000313232)
(7.34122e-09 3.51395e-10 2.37858e-08 4.6517e-10 2.7331e-07 0.000311796)
(6.85015e-09 5.31936e-10 8.11158e-08 4.90456e-10 2.82827e-07 0.000314603)
(6.999e-09 5.36969e-10 6.97566e-08 5.23386e-10 2.94869e-07 0.000318193)
(7.62897e-09 5.14059e-10 1.36877e-08 5.29347e-10 2.91817e-07 0.00031667)
(8.30402e-09 5.39277e-10 1.67576e-08 5.19611e-10 2.7842e-07 0.000311531)
(1.09442e-08 4.94905e-10 7.4707e-08 5.28491e-10 2.76487e-07 0.000310624)
(8.90865e-09 -1.18932e-10 -3.17358e-08 7.33482e-10 3.48118e-07 0.000317917)
(7.09403e-09 -4.49373e-11 1.54642e-08 6.89702e-10 3.46206e-07 0.000318996)
(7.40705e-09 6.3658e-11 2.72357e-08 7.40994e-10 3.61638e-07 0.00032294)
(9.44926e-09 5.39538e-11 -2.80554e-08 7.83485e-10 3.71599e-07 0.000324844)
(1.04832e-08 1.32468e-10 -6.36138e-08 7.63362e-10 3.63173e-07 0.000322712)
(9.17843e-09 2.03176e-10 -4.83057e-08 7.04707e-10 3.45894e-07 0.000319086)
(8.64861e-09 4.49037e-10 2.64957e-08 6.70914e-10 3.38633e-07 0.000317563)
(8.10845e-09 6.79579e-10 8.7987e-08 7.07194e-10 3.5028e-07 0.000320552)
(8.3145e-09 6.86603e-10 7.60417e-08 7.5485e-10 3.6501e-07 0.000324367)
(9.0833e-09 6.54673e-10 1.47983e-08 7.63549e-10 3.61332e-07 0.00032275)
(9.88161e-09 6.8423e-10 1.73075e-08 7.48966e-10 3.44982e-07 0.000317291)
(1.29787e-08 6.2367e-10 7.93383e-08 7.60657e-10 3.427e-07 0.000316336)
(1.04266e-08 -1.41266e-10 -3.15683e-08 1.01929e-09 4.18446e-07 0.000319395)
(8.34925e-09 -4.60448e-11 1.95909e-08 9.59927e-10 4.16393e-07 0.000320574)
(8.70057e-09 8.96009e-11 3.09123e-08 1.03183e-09 4.35089e-07 0.000324764)
(1.09929e-08 7.55102e-11 -2.99206e-08 1.09052e-09 4.46923e-07 0.000326744)
(1.21215e-08 1.69052e-10 -6.72528e-08 1.06237e-09 4.36725e-07 0.000324461)
(1.06203e-08 2.54938e-10 -5.0281e-08 9.80956e-10 4.16154e-07 0.000320649)
(1.00335e-08 5.60757e-10 2.90454e-08 9.34508e-10 4.07555e-07 0.000319057)
(9.45375e-09 8.47526e-10 9.39908e-08 9.84797e-10 4.21477e-07 0.000322191)
(9.73055e-09 8.57549e-10 8.16049e-08 1.05144e-09 4.39078e-07 0.000326182)
(1.06538e-08 8.14695e-10 1.5709e-08 1.06385e-09 4.34754e-07 0.000324492)
(1.15864e-08 8.47722e-10 1.74566e-08 1.04297e-09 4.15279e-07 0.000318785)
(1.51642e-08 7.66691e-10 8.26865e-08 1.05786e-09 4.12648e-07 0.000317796)
(1.20493e-08 -1.64452e-10 -3.07852e-08 1.37582e-09 4.91333e-07 0.000316955)
(9.70353e-09 -4.33006e-11 2.40297e-08 1.29744e-09 4.89183e-07 0.000318223)
(1.00899e-08 1.23223e-10 3.47076e-08 1.3955e-09 5.11408e-07 0.000322619)
(1.26241e-08 1.03699e-10 -3.1359e-08 1.4744e-09 5.25199e-07 0.000324648)
(1.38351e-08 2.12296e-10 -7.00174e-08 1.43615e-09 5.13094e-07 0.000322233)
(1.21329e-08 3.1447e-10 -5.15162e-08 1.32632e-09 4.8908e-07 0.000318279)
(1.1493e-08 6.86567e-10 3.14755e-08 1.26425e-09 4.79082e-07 0.000316637)
(1.08853e-08 1.0353e-09 9.91777e-08 1.33191e-09 4.95399e-07 0.00031988)
(1.12483e-08 1.04972e-09 8.64924e-08 1.42246e-09 5.16021e-07 0.000324001)
(1.23422e-08 9.93864e-10 1.65108e-08 1.43982e-09 5.11041e-07 0.000322259)
(1.34209e-08 1.02897e-09 1.73076e-08 1.41096e-09 4.88323e-07 0.000316375)
(1.75024e-08 9.22395e-10 8.47926e-08 1.42943e-09 4.85355e-07 0.000315362)
(1.37776e-08 -1.87894e-10 -2.9473e-08 1.81103e-09 5.65573e-07 0.000310979)
(1.11598e-08 -3.53572e-11 2.86854e-08 1.70987e-09 5.63366e-07 0.000312326)
(1.15766e-08 1.65957e-10 3.8615e-08 1.84042e-09 5.8935e-07 0.000316885)
(1.43404e-08 1.3969e-10 -3.22814e-08 1.94401e-09 6.05153e-07 0.000318938)
(1.56204e-08 2.62827e-10 -7.18281e-08 1.89336e-09 5.91028e-07 0.000316413)
(1.37139e-08 3.82145e-10 -5.19624e-08 1.74881e-09 5.63473e-07 0.000312359)
(1.30253e-08 8.26147e-10 3.38509e-08 1.66784e-09 5.52033e-07 0.000310684)
(1.24033e-08 1.24209e-09 1.03643e-07 1.75652e-09 5.70829e-07 0.000314003)
(1.28698e-08 1.26281e-09 9.07985e-08 1.87649e-09 5.94577e-07 0.00031821)
(1.41512e-08 1.19179e-09 1.73354e-08 1.90035e-09 5.88953e-07 0.000316436)
(1.53888e-08 1.22706e-09 1.70115e-08 1.86177e-09 5.62941e-07 0.000310441)
(1.99964e-08 1.0892e-09 8.57737e-08 1.8842e-09 5.5966e-07 0.000309417)
(1.56128e-08 -2.10935e-10 -2.77241e-08 2.33288e-09 6.40009e-07 0.000301882)
(1.27216e-08 -2.0771e-11 3.34679e-08 2.2049e-09 6.37775e-07 0.000303293)
(1.31626e-08 2.19359e-10 4.26302e-08 2.37511e-09 6.67709e-07 0.000307975)
(1.61402e-08 1.84722e-10 -3.26042e-08 2.5083e-09 6.85555e-07 0.00031003)
(1.74743e-08 3.21287e-10 -7.26204e-08 2.44263e-09 6.69322e-07 0.000307415)
(1.5362e-08 4.583e-10 -5.15793e-08 2.25651e-09 6.38175e-07 0.000303302)
(1.46287e-08 9.79012e-10 3.62406e-08 2.15304e-09 6.25266e-07 0.000301609)
(1.40082e-08 1.46681e-09 1.07485e-07 2.2666e-09 6.46591e-07 0.000304974)
(1.45979e-08 1.49631e-09 9.46198e-08 2.42209e-09 6.7353e-07 0.000309227)
(1.60839e-08 1.40789e-09 1.83033e-08 2.4544e-09 6.67289e-07 0.000307439)
(1.74944e-08 1.44098e-09 1.67066e-08 2.40428e-09 6.37998e-07 0.000301395)
(2.26502e-08 1.26534e-09 8.57474e-08 2.43108e-09 6.34439e-07 0.000300371)
(1.75571e-08 -2.32782e-10 -2.56176e-08 2.94911e-09 7.13453e-07 0.000290072)
(1.43936e-08 2.01909e-12 3.83025e-08 2.79003e-09 7.11206e-07 0.000291532)
(1.48508e-08 2.8504e-10 4.67477e-08 3.00795e-09 7.4524e-07 0.000296297)
(1.80229e-08 2.39994e-10 -3.22591e-08 3.17601e-09 7.65132e-07 0.000298334)
(1.93954e-08 3.88283e-10 -7.23531e-08 3.09239e-09 7.46729e-07 0.000295651)
(1.70773e-08 5.43191e-10 -5.03461e-08 2.85735e-09 7.11991e-07 0.000291515)
(1.63028e-08 1.14445e-09 3.86903e-08 2.72747e-09 6.97602e-07 0.000289821)
(1.57012e-08 1.70812e-09 1.10769e-07 2.86988e-09 7.21472e-07 0.000293203)
(1.64358e-08 1.74945e-09 9.80283e-08 3.06759e-09 7.51621e-07 0.000297466)
(1.81445e-08 1.64138e-09 1.95001e-08 3.11075e-09 7.4481e-07 0.000295681)
(1.97428e-08 1.6695e-09 1.64938e-08 3.04731e-09 7.12322e-07 0.000289645)
(2.54693e-08 1.4488e-09 8.48138e-08 3.07891e-09 7.08536e-07 0.000288631)
(1.96138e-08 -2.5253e-10 -2.3218e-08 3.6672e-09 7.84667e-07 0.00027595)
(1.61815e-08 3.46398e-11 4.31297e-08 3.47251e-09 7.82409e-07 0.000277443)
(1.66454e-08 3.64651e-10 5.09596e-08 3.74708e-09 8.20641e-07 0.000282254)
(1.99891e-08 3.06702e-10 -3.11929e-08 3.95555e-09 8.42554e-07 0.000284256)
(2.13838e-08 4.64403e-10 -7.10079e-08 3.85077e-09 8.21952e-07 0.000281526)
(1.88611e-08 6.37e-10 -4.82627e-08 3.55902e-09 7.83673e-07 0.000277401)
(1.80477e-08 1.32153e-09 4.1221e-08 3.3985e-09 7.67812e-07 0.000275719)
(1.74842e-08 1.96443e-09 1.13532e-07 3.57376e-09 7.94205e-07 0.000279092)
(1.8388e-08 2.02128e-09 1.01069e-07 3.82091e-09 8.27538e-07 0.000283332)
(2.03377e-08 1.89126e-09 2.09774e-08 3.87784e-09 8.20221e-07 0.000281566)
(2.214e-08 1.91129e-09 1.64389e-08 3.79948e-09 7.84685e-07 0.00027559)
(2.84604e-08 1.63739e-09 8.30569e-08 3.8364e-09 7.80741e-07 0.000274596)
(2.17868e-08 -2.69183e-10 -2.05721e-08 4.49432e-09 8.52377e-07 0.000259912)
(1.80921e-08 7.87399e-11 4.79059e-08 4.25934e-09 8.50092e-07 0.000261421)
(1.85511e-08 4.59856e-10 5.52542e-08 4.60035e-09 8.92567e-07 0.000266243)
(2.20403e-08 3.86044e-10 -2.93729e-08 4.85502e-09 9.16446e-07 0.000268192)
(2.34406e-08 5.50216e-10 -6.85923e-08 4.72552e-09 8.93647e-07 0.000265437)
(2.07159e-08 7.39824e-10 -4.5353e-08 4.36894e-09 8.51931e-07 0.000261357)
(1.98641e-08 1.50911e-09 4.38254e-08 4.17323e-09 8.34626e-07 0.0002597)
(1.93593e-08 2.23388e-09 1.15775e-07 4.38526e-09 8.6348e-07 0.000263041)
(2.0459e-08 2.31057e-09 1.03757e-07 4.68962e-09 8.99925e-07 0.000267226)
(2.26687e-08 2.15632e-09 2.27478e-08 4.76384e-09 8.92183e-07 0.000265493)
(2.46924e-08 2.16487e-09 1.65689e-08 4.66921e-09 8.53813e-07 0.000259624)
(3.16307e-08 1.8287e-09 8.05405e-08 4.71213e-09 8.498e-07 0.000258662)
(2.40799e-08 -2.81668e-10 -1.77095e-08 5.43738e-09 9.15284e-07 0.000242346)
(2.01322e-08 1.35954e-10 5.26008e-08 5.15725e-09 9.12941e-07 0.000243855)
(2.05728e-08 5.72296e-10 5.96127e-08 5.57536e-09 9.59643e-07 0.000248653)
(2.41782e-08 4.79212e-10 -2.6789e-08 5.88214e-09 9.854e-07 0.000250536)
(2.55679e-08 6.46259e-10 -6.51412e-08 5.72408e-09 9.60442e-07 0.000247776)
(2.2645e-08 8.51667e-10 -4.16668e-08 5.29425e-09 9.15448e-07 0.000243772)
(2.1753e-08 1.70586e-09 4.64665e-08 5.05847e-09 8.96748e-07 0.000242152)
(2.13286e-08 2.51438e-09 1.17466e-07 5.31103e-09 9.2796e-07 0.000245437)
(2.26533e-08 2.61586e-09 1.06072e-07 5.68086e-09 9.67394e-07 0.000249539)
(2.51429e-08 2.43514e-09 2.47844e-08 5.77659e-09 9.59326e-07 0.000247853)
(2.74064e-08 2.42864e-09 1.68723e-08 5.66472e-09 9.18402e-07 0.000242135)
(3.49878e-08 2.02013e-09 7.73078e-08 5.71452e-09 9.14429e-07 0.000241215)
(2.64968e-08 -2.88837e-10 -1.46458e-08 6.50298e-09 9.72086e-07 0.000223635)
(2.23088e-08 2.07869e-10 5.7194e-08 6.17264e-09 9.69638e-07 0.000225127)
(2.27156e-08 7.03554e-10 6.40072e-08 6.67933e-09 1.02049e-06 0.000229866)
(2.6405e-08 5.87386e-10 -2.34567e-08 7.04423e-09 1.048e-06 0.000231669)
(2.77684e-08 7.53021e-10 -6.07186e-08 6.85346e-09 1.02096e-06 0.000228926)
(2.46519e-08 9.72442e-10 -3.72806e-08 6.34176e-09 9.72901e-07 0.000225029)
(2.3715e-08 1.91025e-09 4.90797e-08 6.06067e-09 9.52878e-07 0.000223457)
(2.33937e-08 2.80358e-09 1.18544e-07 6.35725e-09 9.86301e-07 0.000226664)
(2.49747e-08 2.9354e-09 1.07966e-07 6.8013e-09 1.02855e-06 0.000230656)
(2.77649e-08 2.72603e-09 2.70234e-08 6.92352e-09 1.02027e-06 0.000229029)
(3.02879e-08 2.70081e-09 1.73021e-08 6.79396e-09 9.7713e-07 0.000223503)
(3.85383e-08 2.2088e-09 7.33843e-08 6.85183e-09 9.73332e-07 0.000222635)
(2.90399e-08 -2.89475e-10 -1.1388e-08 7.69727e-09 1.0215e-06 0.000204151)
(2.46281e-08 2.95986e-10 6.16691e-08 7.31151e-09 1.01888e-06 0.000205612)
(2.49839e-08 8.55106e-10 6.83982e-08 7.91901e-09 1.07373e-06 0.000210259)
(2.8722e-08 7.11722e-10 -1.94176e-08 8.34808e-09 1.10284e-06 0.000211971)
(3.00444e-08 8.70932e-10 -5.54162e-08 8.12019e-09 1.07383e-06 0.000209265)
(2.67401e-08 1.10196e-09 -3.22965e-08 7.51782e-09 1.02298e-06 0.000205503)
(2.57502e-08 2.12054e-09 5.1578e-08 7.18585e-09 1.00173e-06 0.000203991)
(2.55549e-08 3.09882e-09 1.18927e-07 7.52953e-09 1.03718e-06 0.000207098)
(2.74259e-08 3.26712e-09 1.09366e-07 8.05705e-09 1.08202e-06 0.000210952)
(3.0538e-08 3.02701e-09 2.93693e-08 8.21158e-09 1.07365e-06 0.000209397)
(3.33412e-08 2.97941e-09 1.77826e-08 8.06448e-09 1.02869e-06 0.000204099)
(4.22873e-08 2.3915e-09 6.87835e-08 8.13202e-09 1.02522e-06 0.000203295)
(3.17099e-08 -2.82283e-10 -7.9408e-09 9.02589e-09 1.06228e-06 0.000184262)
(2.70948e-08 4.01683e-10 6.60078e-08 8.57927e-09 1.05943e-06 0.000185676)
(2.73805e-08 1.02826e-09 7.2733e-08 9.30055e-09 1.11806e-06 0.000190199)
(3.11297e-08 8.53335e-10 -1.47389e-08 9.7998e-09 1.14858e-06 0.000191807)
(3.23977e-08 1.00033e-09 -4.93528e-08 9.53019e-09 1.11775e-06 0.000189161)
(2.8912e-08 1.23993e-09 -2.68399e-08 8.82819e-09 1.06444e-06 0.00018556)
(2.78574e-08 2.33481e-09 5.38586e-08 8.43943e-09 1.04208e-06 0.000184118)
(2.7811e-08 3.39714e-09 1.18527e-07 8.83279e-09 1.07931e-06 0.000187105)
(3.00071e-08 3.60856e-09 1.10181e-07 9.45352e-09 1.12648e-06 0.000190796)
(3.34631e-08 3.33578e-09 3.17026e-08 9.64711e-09 1.11814e-06 0.000189322)
(3.65682e-08 3.26217e-09 1.82172e-08 9.4833e-09 1.0718e-06 0.000184288)
(4.62368e-08 2.56461e-09 6.3514e-08 9.5627e-09 1.06886e-06 0.000183559)
(3.45043e-08 -2.65865e-10 -4.31411e-09 1.04938e-08 1.09328e-06 0.000164319)
(2.97109e-08 5.26175e-10 7.01841e-08 9.98066e-09 1.09012e-06 0.000165673)
(2.99062e-08 1.22412e-09 7.6945e-08 1.08293e-08 1.15225e-06 0.000170041)
(3.36264e-08 1.01326e-09 -9.51215e-09 1.14047e-08 1.18394e-06 0.000171536)
(3.48283e-08 1.14146e-09 -4.26712e-08 1.10886e-08 1.15149e-06 0.000168968)
(3.11687e-08 1.38597e-09 -2.10548e-08 1.02779e-08 1.0961e-06 0.000165556)
(3.00333e-08 2.55096e-09 5.58113e-08 9.8261e-09 1.07278e-06 0.000164194)
(3.01579e-08 3.69523e-09 1.17254e-07 1.02711e-08 1.11151e-06 0.000167039)
(3.27153e-08 3.95687e-09 1.10315e-07 1.09953e-08 1.16069e-06 0.000170544)
(3.65383e-08 3.64971e-09 3.38884e-08 1.12356e-08 1.15253e-06 0.00016916)
(3.99676e-08 3.54654e-09 1.84979e-08 1.10567e-08 1.10528e-06 0.000164422)
(5.03849e-08 2.72406e-09 5.75867e-08 1.11509e-08 1.10307e-06 0.000163779)
(3.74171e-08 -2.38702e-10 -5.28437e-10 1.2105e-08 1.11349e-06 0.00014466)
(3.2475e-08 6.70458e-10 7.41596e-08 1.15195e-08 1.10994e-06 0.000145943)
(3.25583e-08 1.44346e-09 8.09535e-08 1.25095e-08 1.17521e-06 0.000150127)
(3.62079e-08 1.19244e-09 -3.85123e-09 1.31669e-08 1.2078e-06 0.000151498)
(3.73339e-08 1.2944e-09 -3.55349e-08 1.27996e-08 1.17396e-06 0.000149028)
(3.35086e-08 1.53959e-09 -1.50996e-08 1.1871e-08 1.11693e-06 0.000145828)
(3.22723e-08 2.76671e-09 5.73269e-08 1.13496e-08 1.09281e-06 0.000144554)
(3.25883e-08 3.98947e-09 1.15036e-07 1.18474e-08 1.13271e-06 0.000147238)
(3.55436e-08 4.30875e-09 1.09675e-07 1.26857e-08 1.18356e-06 0.000150533)
(3.9757e-08 3.96579e-09 3.57859e-08 1.29817e-08 1.17571e-06 0.000149249)
(4.3533e-08 3.82965e-09 1.85137e-08 1.27901e-08 1.12807e-06 0.000144835)
(5.47235e-08 2.86522e-09 5.10209e-08 1.29029e-08 1.12682e-06 0.000144287)
(4.04375e-08 -1.99117e-10 3.38082e-09 1.38626e-08 1.12204e-06 0.000125598)
(3.5381e-08 8.35264e-10 7.78809e-08 1.31984e-08 1.11802e-06 0.0001268)
(3.53304e-08 1.68673e-09 8.46647e-08 1.43442e-08 1.18601e-06 0.000130772)
(3.88663e-08 1.39166e-09 2.1103e-09 1.50894e-08 1.2192e-06 0.000132012)
(3.99091e-08 1.45909e-09 -2.81239e-08 1.46661e-08 1.18423e-06 0.000129658)
(3.5927e-08 1.70019e-09 -9.14089e-09 1.36105e-08 1.12604e-06 0.000126692)
(3.45656e-08 2.97966e-09 5.83051e-08 1.30126e-08 1.10131e-06 0.000125514)
(3.5091e-08 4.2759e-09 1.1182e-07 1.35635e-08 1.14204e-06 0.000128019)
(3.84796e-08 4.66047e-09 1.08179e-07 1.45271e-08 1.19414e-06 0.000131084)
(4.31074e-08 4.28066e-09 3.72565e-08 1.48885e-08 1.18675e-06 0.000129905)
(4.72525e-08 4.10825e-09 1.81584e-08 1.46877e-08 1.13923e-06 0.00012584)
(5.92376e-08 2.98295e-09 4.38482e-08 1.48242e-08 1.13919e-06 0.000125395)
(4.35494e-08 -1.45253e-10 7.36162e-09 1.57683e-08 1.11826e-06 0.000107417)
(3.8417e-08 1.02099e-09 8.12789e-08 1.50188e-08 1.11369e-06 0.000108531)
(3.82112e-08 1.95391e-09 8.79743e-08 1.6335e-08 1.18392e-06 0.000112266)
(4.15896e-08 1.6115e-09 8.22214e-09 1.71737e-08 1.21738e-06 0.000113367)
(4.25442e-08 1.63522e-09 -2.06296e-08 1.66897e-08 1.18158e-06 0.000111145)
(3.84153e-08 1.8671e-09 -3.34809e-09 1.54979e-08 1.12277e-06 0.000108431)
(3.6901e-08 3.18729e-09 5.86598e-08 1.48162e-08 1.09763e-06 0.000107356)
(3.765e-08 4.55032e-09 1.07583e-07 1.54196e-08 1.13878e-06 0.000109665)
(4.15054e-08 5.00783e-09 1.05762e-07 1.65201e-08 1.19172e-06 0.000112482)
(4.65717e-08 4.59063e-09 3.8171e-08 1.69579e-08 1.1849e-06 0.000111415)
(5.11074e-08 4.37875e-09 1.73366e-08 1.67521e-08 1.13805e-06 0.000107719)
(6.3904e-08 3.07149e-09 3.61141e-08 1.69188e-08 1.13948e-06 0.000107384)
(4.67306e-08 -7.50487e-11 1.13462e-08 1.78221e-08 1.10169e-06 9.03629e-05)
(4.15652e-08 1.22766e-09 8.42702e-08 1.69803e-08 1.0965e-06 9.13816e-05)
(4.11844e-08 2.2445e-09 9.07702e-08 1.84816e-08 1.16842e-06 9.48587e-05)
(4.43616e-08 1.8523e-09 1.43199e-08 1.94191e-08 1.20179e-06 9.58162e-05)
(4.52252e-08 1.82228e-09 -1.3251e-08 1.88703e-08 1.16548e-06 9.37396e-05)
(4.09602e-08 2.03948e-09 2.11102e-09 1.75329e-08 1.10661e-06 9.12925e-05)
(3.92624e-08 3.38704e-09 5.83223e-08 1.676e-08 1.08129e-06 9.03247e-05)
(4.02445e-08 4.80827e-09 1.02333e-07 1.7414e-08 1.12245e-06 9.2425e-05)
(4.45963e-08 5.34619e-09 1.02378e-07 1.86635e-08 1.17577e-06 9.49791e-05)
(5.0125e-08 4.89161e-09 3.8412e-08 1.91899e-08 1.16965e-06 9.40275e-05)
(5.50715e-08 4.63719e-09 1.59651e-08 1.89843e-08 1.124e-06 9.07153e-05)
(6.86901e-08 3.12451e-09 2.78727e-08 1.91897e-08 1.12717e-06 9.04939e-05)
(4.99533e-08 1.3773e-11 1.52552e-08 2.00225e-08 1.07207e-06 7.46354e-05)
(4.4801e-08 1.45484e-09 8.67603e-08 1.90807e-08 1.0662e-06 7.55559e-05)
(4.4228e-08 2.55742e-09 9.29351e-08 2.07814e-08 1.13922e-06 7.87568e-05)
(4.7161e-08 2.11407e-09 2.02265e-08 2.18231e-08 1.17211e-06 7.95675e-05)
(4.79331e-08 2.0194e-09 -6.19028e-09 2.12054e-08 1.13565e-06 7.76486e-05)
(4.35436e-08 2.21636e-09 7.07363e-09 1.97134e-08 1.07732e-06 7.54779e-05)
(4.16297e-08 3.57627e-09 5.72388e-08 1.88415e-08 1.05204e-06 7.46209e-05)
(4.28489e-08 5.04513e-09 9.60988e-08 1.95429e-08 1.09277e-06 7.65018e-05)
(4.77215e-08 5.67043e-09 9.79928e-08 2.09537e-08 1.14599e-06 7.87827e-05)
(5.37357e-08 5.17915e-09 3.78698e-08 2.15821e-08 1.14068e-06 7.79488e-05)
(5.91107e-08 4.87922e-09 1.39681e-08 2.1383e-08 1.09675e-06 7.50291e-05)
(7.3554e-08 3.13513e-09 1.91709e-08 2.16376e-08 1.10194e-06 7.49231e-05)
(5.31839e-08 1.23671e-10 1.89998e-08 2.23652e-08 1.02935e-06 6.0387e-05)
(4.80935e-08 1.70158e-09 8.86478e-08 2.13153e-08 1.02275e-06 6.12079e-05)
(4.73152e-08 2.89099e-09 9.43497e-08 2.32292e-08 1.09621e-06 6.41188e-05)
(4.99624e-08 2.39649e-09 2.57542e-08 2.438e-08 1.12821e-06 6.47815e-05)
(5.0644e-08 2.22538e-09 3.49911e-10 2.36901e-08 1.09197e-06 6.30294e-05)
(4.61425e-08 2.39653e-09 1.13837e-08 2.20345e-08 1.0348e-06 6.11403e-05)
(4.39795e-08 3.75235e-09 5.53663e-08 2.10557e-08 1.00982e-06 6.03956e-05)
(4.5433e-08 5.25623e-09 8.89201e-08 2.17999e-08 1.04966e-06 6.20499e-05)
(5.08436e-08 5.975e-09 9.25723e-08 2.33846e-08 1.10229e-06 6.40515e-05)
(5.73655e-08 5.44847e-09 3.64337e-08 2.41294e-08 1.09788e-06 6.33355e-05)
(6.31838e-08 5.10012e-09 1.12684e-08 2.39443e-08 1.05617e-06 6.08114e-05)
(7.84443e-08 3.09603e-09 1.00348e-08 2.42612e-08 1.06365e-06 6.08201e-05)
(5.63835e-08 2.57413e-10 2.24753e-08 2.4844e-08 9.73648e-07 4.77215e-05)
(5.14053e-08 1.96638e-09 8.98266e-08 2.36773e-08 9.66303e-07 4.84436e-05)
(5.04142e-08 3.24292e-09 9.4897e-08 2.5817e-08 1.03951e-06 5.10551e-05)
(5.27365e-08 2.69894e-09 3.07111e-08 2.70814e-08 1.07017e-06 5.15703e-05)
(5.3329e-08 2.4386e-09 6.17047e-09 2.63168e-08 1.03455e-06 4.9991e-05)
(4.8729e-08 2.57835e-09 1.48986e-08 2.4489e-08 9.79186e-07 4.83845e-05)
(4.62849e-08 3.91253e-09 5.26769e-08 2.33951e-08 9.54754e-07 4.77518e-05)
(4.79622e-08 5.43683e-09 8.08513e-08 2.41757e-08 9.93236e-07 4.91757e-05)
(5.39196e-08 6.25397e-09 8.60887e-08 2.59472e-08 1.04476e-06 5.0896e-05)
(6.09693e-08 5.69443e-09 3.39995e-08 2.68242e-08 1.04131e-06 5.02966e-05)
(6.72419e-08 5.29466e-09 7.79496e-09 2.66617e-08 1.00232e-06 4.81656e-05)
(8.3301e-08 2.99902e-09 4.90516e-10 2.70572e-08 1.01237e-06 4.82858e-05)
(5.95076e-08 4.1816e-10 2.55478e-08 2.74485e-08 9.05308e-07 3.6701e-05)
(5.4692e-08 2.24748e-09 9.0175e-08 2.61554e-08 8.97223e-07 3.73272e-05)
(5.3488e-08 3.61057e-09 9.44624e-08 2.85322e-08 9.69416e-07 3.9634e-05)
(5.54493e-08 3.02027e-09 3.49173e-08 2.99146e-08 9.98296e-07 4.00041e-05)
(5.5954e-08 2.65685e-09 1.10883e-08 2.90736e-08 9.63693e-07 3.86008e-05)
(5.12695e-08 2.75983e-09 1.74979e-08 2.70655e-08 9.10785e-07 3.72731e-05)
(4.8515e-08 4.05398e-09 4.91734e-08 2.58476e-08 8.87171e-07 3.67505e-05)
(5.03976e-08 5.58178e-09 7.19903e-08 2.66569e-08 9.23821e-07 3.79437e-05)
(5.69003e-08 6.50025e-09 7.85632e-08 2.86281e-08 9.73723e-07 3.93853e-05)
(6.44952e-08 5.91062e-09 3.05176e-08 2.96538e-08 9.71274e-07 3.88997e-05)
(7.12282e-08 5.45617e-09 3.52896e-09 2.95243e-08 9.35469e-07 3.71533e-05)
(8.8054e-08 2.83471e-09 -9.38016e-09 3.00183e-08 9.48334e-07 3.7379e-05)
(6.25054e-08 6.08742e-10 2.80643e-08 3.0163e-08 8.24947e-07 2.73502e-05)
(5.79018e-08 2.54201e-09 8.95605e-08 2.87337e-08 8.16161e-07 2.7885e-05)
(5.64938e-08 3.99007e-09 9.29467e-08 3.13566e-08 8.86553e-07 2.98862e-05)
(5.8062e-08 3.35876e-09 3.82212e-08 3.28604e-08 9.13173e-07 3.01162e-05)
(5.84789e-08 2.87751e-09 1.49473e-08 3.19421e-08 8.79988e-07 2.88895e-05)
(5.37247e-08 2.93869e-09 1.90898e-08 2.97462e-08 8.30205e-07 2.78321e-05)
(5.06349e-08 4.17407e-09 4.48959e-08 2.83958e-08 8.07686e-07 2.74158e-05)
(5.26959e-08 5.68634e-09 6.24889e-08 2.92237e-08 8.4203e-07 2.83821e-05)
(5.97302e-08 6.70673e-09 7.00839e-08 3.14074e-08 8.89777e-07 2.95524e-05)
(6.78833e-08 6.09086e-09 2.60087e-08 3.25993e-08 8.88351e-07 2.91762e-05)