-0.0075 	0 	0 	0
-0.0075 	-1.52483e-35 	3.36903e-36 	-7.76218e-33
-0.00745622 	-2.00408e-05 	4.42791e-06 	-0.0102018
-0.00745622 	-2.00408e-05 	4.42791e-06 	-0.0102018
-0.00741165 	-0.000125299 	8.68671e-06 	-0.0195571
-0.00741165 	-0.000125299 	8.68671e-06 	-0.0195571
-0.00736628 	-0.000252136 	1.33447e-05 	-0.0288437
-0.00736628 	-0.000252136 	1.33447e-05 	-0.0288437
-0.0073201 	-0.000360268 	1.74224e-05 	-0.0384848
-0.0073201 	-0.000360268 	1.74224e-05 	-0.0384848
-0.00727309 	-0.000452732 	2.23696e-05 	-0.0483586
-0.00727309 	-0.000452732 	2.23696e-05 	-0.0483586
-0.00722524 	-0.00054053 	2.81564e-05 	-0.058245
-0.00722524 	-0.00054053 	2.81564e-05 	-0.058245
-0.00717653 	-0.000628236 	3.50142e-05 	-0.0680005
-0.00717653 	-0.000628236 	3.50142e-05 	-0.0680005
-0.00712695 	-0.000717816 	4.29336e-05 	-0.0775139
-0.00712695 	-0.000717816 	4.29336e-05 	-0.0775139
-0.00707647 	-0.000809936 	5.18218e-05 	-0.0866962
-0.00707647 	-0.000809936 	5.18218e-05 	-0.0866962
-0.0070251 	-0.000904384 	6.16932e-05 	-0.0954832
-0.0070251 	-0.000904384 	6.16932e-05 	-0.0954832
-0.0069728 	-0.0010007 	7.24489e-05 	-0.103844
-0.0069728 	-0.0010007 	7.24489e-05 	-0.103844
-0.00691956 	-0.00109879 	8.41619e-05 	-0.111775
-0.00691956 	-0.00109879 	8.41619e-05 	-0.111775
-0.00686537 	-0.00119862 	9.68804e-05 	-0.119294
-0.00686537 	-0.00119862 	9.68804e-05 	-0.119294
-0.00681021 	-0.00129992 	0.000110559 	-0.126424
-0.00681021 	-0.00129992 	0.000110559 	-0.126424
-0.00675406 	-0.00140221 	0.000125223 	-0.133194
-0.00675406 	-0.00140221 	0.000125223 	-0.133194
-0.0066969 	-0.00150503 	0.00014082 	-0.139629
-0.0066969 	-0.00150503 	0.00014082 	-0.139629
-0.00663871 	-0.0016079 	0.000157338 	-0.145752
-0.00663871 	-0.0016079 	0.000157338 	-0.145752
-0.00657949 	-0.0017103 	0.000174859 	-0.151582
-0.00657949 	-0.0017103 	0.000174859 	-0.151582
-0.0065192 	-0.00181192 	0.000193464 	-0.157139
-0.0065192 	-0.00181192 	0.000193464 	-0.157139
-0.00645783 	-0.00191283 	0.000213096 	-0.162436
-0.00645783 	-0.00191283 	0.000213096 	-0.162436
-0.00639535 	-0.00201321 	0.00023342 	-0.167474
-0.00639535 	-0.00201321 	0.00023342 	-0.167474
-0.00633176 	-0.00211289 	0.000254048 	-0.172249
-0.00633176 	-0.00211289 	0.000254048 	-0.172249
-0.00626703 	-0.0022112 	0.000275026 	-0.176759
-0.00626703 	-0.0022112 	0.000275026 	-0.176759
-0.00620114 	-0.00230733 	0.000296761 	-0.181007
-0.00620114 	-0.00230733 	0.000296761 	-0.181007
-0.00613406 	-0.0024004 	0.000319524 	-0.185004
-0.00613406 	-0.0024004 	0.000319524 	-0.185004
-0.00606579 	-0.00248972 	0.000343011 	-0.188775
-0.00606579 	-0.00248972 	0.000343011 	-0.188775
-0.00599629 	-0.00257492 	0.000366554 	-0.192358
-0.00599629 	-0.00257492 	0.000366554 	-0.192358
-0.00592554 	-0.00265609 	0.000390497 	-0.19579
-0.00592554 	-0.00265609 	0.000390497 	-0.19579
-0.00585352 	-0.0027338 	0.000413603 	-0.199092
-0.00585352 	-0.0027338 	0.000413603 	-0.199092
-0.00578022 	-0.00280638 	0.000433858 	-0.202318
-0.00578022 	-0.00280638 	0.000433858 	-0.202318
-0.00570559 	-0.0028674 	0.000455048 	-0.205593
-0.00570559 	-0.0028674 	0.000455048 	-0.205593
-0.00562963 	-0.00291234 	0.000482434 	-0.209071
-0.00562963 	-0.00291234 	0.000482434 	-0.209071
-0.00555231 	-0.00294807 	0.00051415 	-0.212741
-0.00555231 	-0.00294807 	0.00051415 	-0.212741
-0.0054736 	-0.00299286 	0.000539988 	-0.216199
-0.0054736 	-0.00299286 	0.000539988 	-0.216199
-0.00539348 	-0.00305329 	0.000558332 	-0.219126
-0.00539348 	-0.00305329 	0.000558332 	-0.219126
-0.00531193 	-0.00311508 	0.000579026 	-0.221678
-0.00531193 	-0.00311508 	0.000579026 	-0.221678
-0.00522891 	-0.00316592 	0.000605535 	-0.22409
-0.00522891 	-0.00316592 	0.000605535 	-0.22409
-0.0051444 	-0.00320487 	0.000633649 	-0.226429
-0.0051444 	-0.00320487 	0.000633649 	-0.226429
-0.00505838 	-0.00323563 	0.000659534 	-0.228674
-0.00505838 	-0.00323563 	0.000659534 	-0.228674
-0.00497081 	-0.00326042 	0.000683912 	-0.230816
-0.00497081 	-0.00326042 	0.000683912 	-0.230816
-0.00488168 	-0.00327958 	0.000707785 	-0.232863
-0.00488168 	-0.00327958 	0.000707785 	-0.232863
-0.00479094 	-0.00329325 	0.000730048 	-0.234839
-0.00479094 	-0.00329325 	0.000730048 	-0.234839
-0.00469858 	-0.00330225 	0.000751222 	-0.236778
-0.00469858 	-0.00330225 	0.000751222 	-0.236778
-0.00460456 	-0.00330703 	0.000773621 	-0.238693
-0.00460456 	-0.00330703 	0.000773621 	-0.238693
-0.00450886 	-0.00330662 	0.000797197 	-0.24056
-0.00450886 	-0.00330662 	0.000797197 	-0.24056
-0.00441144 	-0.00329998 	0.000819686 	-0.24234
-0.00441144 	-0.00329998 	0.000819686 	-0.24234
-0.00431227 	-0.00328746 	0.000840736 	-0.244029
-0.00431227 	-0.00328746 	0.000840736 	-0.244029
-0.00421133 	-0.00326997 	0.00086205 	-0.245642
-0.00421133 	-0.00326997 	0.00086205 	-0.245642
-0.00410857 	-0.00324751 	0.000884173 	-0.247186
-0.00410857 	-0.00324751 	0.000884173 	-0.247186
-0.00400397 	-0.00321904 	0.000905304 	-0.248661
-0.00400397 	-0.00321904 	0.000905304 	-0.248661
-0.0038975 	-0.00318416 	0.00092335 	-0.250101
-0.0038975 	-0.00318416 	0.00092335 	-0.250101
-0.00378912 	-0.00314496 	0.000939647 	-0.251588
-0.00378912 	-0.00314496 	0.000939647 	-0.251588
-0.00367879 	-0.00310523 	0.00095911 	-0.253189
-0.00367879 	-0.00310523 	0.00095911 	-0.253189
-0.00356649 	-0.00306568 	0.000983203 	-0.254833
-0.00356649 	-0.00306568 	0.000983203 	-0.254833
-0.00345217 	-0.00302258 	0.00100674 	-0.256356
-0.00345217 	-0.00302258 	0.00100674 	-0.256356
-0.0033358 	-0.00297272 	0.0010255 	-0.257702
-0.0033358 	-0.00297272 	0.0010255 	-0.257702
-0.00321735 	-0.00291599 	0.00104127 	-0.258918
-0.00321735 	-0.00291599 	0.00104127 	-0.258918
-0.00309677 	-0.00285386 	0.00105907 	-0.260051
-0.00309677 	-0.00285386 	0.00105907 	-0.260051
-0.00297403 	-0.00278719 	0.00108106 	-0.261118
-0.00297403 	-0.00278719 	0.00108106 	-0.261118
-0.00284909 	-0.00271523 	0.00110482 	-0.262115
-0.00284909 	-0.00271523 	0.00110482 	-0.262115
-0.0027219 	-0.00263592 	0.00112529 	-0.26304
-0.0027219 	-0.00263592 	0.00112529 	-0.26304
-0.00259244 	-0.00255122 	0.00113965 	-0.263926
-0.00259244 	-0.00255122 	0.00113965 	-0.263926
-0.00246065 	-0.00246614 	0.00115004 	-0.264812
-0.00246065 	-0.00246614 	0.00115004 	-0.264812
-0.00232651 	-0.00238202 	0.00115889 	-0.265692
-0.00232651 	-0.00238202 	0.00115889 	-0.265692
-0.00218995 	-0.00229542 	0.00116264 	-0.266565
-0.00218995 	-0.00229542 	0.00116264 	-0.266565
-0.00205095 	-0.00219201 	0.00116373 	-0.267645
-0.00205095 	-0.00219201 	0.00116373 	-0.267645
-0.00190946 	-0.00204335 	0.00118008 	-0.269424
-0.00190946 	-0.00204335 	0.00118008 	-0.269424
-0.00176543 	-0.00181639 	0.00121242 	-0.272359
-0.00176543 	-0.00181639 	0.00121242 	-0.272359
-0.00161881 	-0.00154928 	0.00121192 	-0.276045
-0.00161881 	-0.00154928 	0.00121192 	-0.276045
-0.00146957 	-0.00134586 	0.00119974 	-0.278695
-0.00146957 	-0.00134586 	0.00119974 	-0.278695
-0.00131765 	-0.00122159 	0.00123217 	-0.279577
-0.00131765 	-0.00122159 	0.00123217 	-0.279577
-0.001163 	-0.00111215 	0.0012716 	-0.279813
-0.001163 	-0.00111215 	0.0012716 	-0.279813
-0.00100559 	-0.00098764 	0.0012875 	-0.280097
-0.00100559 	-0.00098764 	0.0012875 	-0.280097
-0.000845345 	-0.00085831 	0.00129279 	-0.280421
-0.000845345 	-0.00085831 	0.00129279 	-0.280421
-0.000682232 	-0.000736819 	0.00129812 	-0.280694
-0.000682232 	-0.000736819 	0.00129812 	-0.280694
-0.000516194 	-0.000623187 	0.00130401 	-0.280916
-0.000516194 	-0.000623187 	0.00130401 	-0.280916
-0.000347178 	-0.000512895 	0.00130806 	-0.281092
-0.000347178 	-0.000512895 	0.00130806 	-0.281092
-0.000175132 	-0.000403702 	0.00131636 	-0.281205
-0.000175132 	-0.000403702 	0.00131636 	-0.281205
0 	-0.0002973 	0.00132534 	-0.281213
0 	-0.0002973 	0.00132534 	-0.281213
0 	-0.0002973 	0.00132534 	-0.281213
0 	-0.0002973 	0.00132534 	-0.281213
0.000175132 	-0.000197971 	0.00133064 	-0.28109
0.000175132 	0.00603631 	0.00843487 	-0.274684
0.000347178 	-0.000106997 	0.00133742 	-0.28087
0.000347178 	0.00637066 	0.0085131 	-0.278201
0.000516194 	-1.94581e-05 	0.0013369 	-0.280626
0.000516194 	0.00669169 	0.00853278 	-0.281004
0.000682232 	6.92789e-05 	0.00133079 	-0.280404
0.000682232 	0.00701866 	0.00852167 	-0.283271
0.000845345 	0.000159103 	0.00132639 	-0.28019
0.000845345 	0.00734377 	0.00851352 	-0.285281
0.00100559 	0.000248756 	0.00132117 	-0.279956
0.00100559 	0.00765094 	0.00850297 	-0.287238
0.001163 	0.000338015 	0.00131432 	-0.279691
0.001163 	0.00793501 	0.0084805 	-0.28917
0.00131765 	0.000426503 	0.00130596 	-0.279387
0.00131765 	0.00819458 	0.00844617 	-0.291045
0.00146957 	0.000513544 	0.00129637 	-0.279036
0.00146957 	0.00842715 	0.0084019 	-0.292843
0.00161881 	0.000598385 	0.00128632 	-0.278629
0.00161881 	0.00862977 	0.00834829 	-0.294559
0.00176543 	0.000679942 	0.00127367 	-0.278154
0.00176543 	0.0088005 	0.0082851 	-0.296197
0.00190946 	0.000759078 	0.00125163 	-0.277632
0.00190946 	0.00893833 	0.00821158 	-0.297761
0.00205095 	0.000841895 	0.00122494 	-0.277163
0.00205095 	0.00904173 	0.00812694 	-0.299244
0.00218995 	0.000938539 	0.00121998 	-0.276798
0.00218995 	0.00910792 	0.00803007 	-0.300622
0.00232651 	0.00105087 	0.0012455 	-0.276226
0.00232651 	0.00913444 	0.00792004 	-0.301867
0.00246065 	0.00114852 	0.00123366 	-0.274806
0.00246065 	0.00912205 	0.00779783 	-0.302956
0.00259244 	0.0012012 	0.0011707 	-0.272846
0.00259244 	0.00907381 	0.00766734 	-0.303876
0.0027219 	0.00122957 	0.00112706 	-0.27121
0.0027219 	0.00899019 	0.00753218 	-0.304611
0.00284909 	0.00126767 	0.00111524 	-0.270016
0.00284909 	0.00886769 	0.00739337 	-0.305146
0.00297403 	0.00131372 	0.00110408 	-0.269018
0.00297403 	0.00870215 	0.00724798 	-0.305468
0.00309677 	0.00135176 	0.00107864 	-0.267975
0.00309677 	0.00849254 	0.00710313 	-0.305571
0.00321735 	0.0013786 	0.00104754 	-0.266813
0.00321735 	0.00824525 	0.00695553 	-0.305399
0.0033358 	0.0013965 	0.00102232 	-0.265523
0.0033358 	0.00797539 	0.00682487 	-0.304814
0.00345217 	0.00140635 	0.00101188 	-0.264105
0.00345217 	0.00768362 	0.00674183 	-0.304024
0.00356649 	0.00140919 	0.00100365 	-0.262615
0.00356649 	0.00733241 	0.0066153 	-0.304116
0.00367879 	0.00140358 	0.000966797 	-0.261061
0.00367879 	0.00684957 	0.00632118 	-0.305515
0.00378912 	0.00618136 	0.00591973 	-0.304998
0.00378912 	0.00137831 	0.000903661 	-0.259156
0.0038975 	0.00133249 	0.000876838 	-0.256565
0.0038975 	0.0053919 	0.00579572 	-0.298863
0.00400397 	0.00129407 	0.000886734 	-0.253768
0.00400397 	0.00469954 	0.00591156 	-0.290574
0.00410857 	0.00127535 	0.00087898 	-0.251396
0.00410857 	0.00418602 	0.00588826 	-0.285063
0.00421133 	0.00126129 	0.000844793 	-0.249384
0.00421133 	0.00373207 	0.00567901 	-0.282312
0.00431227 	0.0012458 	0.000804397 	-0.247508
0.00431227 	0.0032813 	0.00542717 	-0.280819
0.00441144 	0.00123043 	0.000777004 	-0.245613
0.00441144 	0.00283473 	0.00527205 	-0.279455
0.00450886 	0.00121557 	0.000752369 	-0.243662
0.00450886 	0.00239051 	0.00514487 	-0.277932
0.00460456 	0.00120116 	0.000723826 	-0.241658
0.00460456 	0.00194813 	0.00499284 	-0.276303
0.00469858 	0.00118723 	0.00069554 	-0.2396
0.00469858 	0.00150916 	0.00484309 	-0.274601
0.00479094 	0.00117392 	0.000667609 	-0.237487
0.00479094 	0.00107533 	0.00469645 	-0.272841
0.00488168 	0.00116163 	0.000639749 	-0.235317
0.00488168 	0.0006474 	0.00454991 	-0.271017
0.00497081 	0.00115096 	0.000611835 	-0.233086
0.00497081 	0.000225296 	0.0044021 	-0.269111
0.00505838 	0.00114196 	0.000584304 	-0.230791
0.00505838 	-0.000191185 	0.00425362 	-0.267108
0.0051444 	0.00113383 	0.000557734 	-0.228425
0.0051444 	-0.000601714 	0.00410473 	-0.265002
0.00522891 	0.00112619 	0.000531745 	-0.225981
0.00522891 	-0.0010052 	0.00395563 	-0.262792
0.00531193 	-0.00139973 	0.00380658 	-0.260485
0.00531193 	0.0011196 	0.000505434 	-0.223457
0.00539348 	0.00111479 	0.000479103 	-0.220845
0.00539348 	-0.00178272 	0.00365839 	-0.258083
0.0054736 	0.00111142 	0.000453261 	-0.218138
0.0054736 	-0.00215231 	0.00351138 	-0.255584
0.00555231 	0.00110786 	0.000427971 	-0.215326
0.00555231 	-0.00250823 	0.00336545 	-0.252979
0.00562963 	0.0011029 	0.000403388 	-0.2124
0.00562963 	-0.00285023 	0.00322064 	-0.250262
0.00570559 	0.00109639 	0.000379163 	-0.209353
0.00570559 	-0.00317711 	0.00307621 	-0.247434
0.00578022 	0.00108835 	0.000355041 	-0.206175
0.00578022 	-0.00348746 	0.00293189 	-0.244497
0.00585352 	0.0010787 	0.000330963 	-0.202855
0.00585352 	-0.00377988 	0.00278767 	-0.241442
0.00592554 	0.00106734 	0.000306947 	-0.199375
0.00592554 	-0.00405291 	0.00264389 	-0.238253
0.00599629 	0.0010542 	0.000283472 	-0.195714
0.00599629 	-0.0043052 	0.00250181 	-0.234911
0.00606579 	-0.00453549 	0.00236159 	-0.231394
0.00606579 	0.00103924 	0.000260772 	-0.191848
0.00613406 	0.00102241 	0.000238816 	-0.187755
0.00613406 	-0.0047425 	0.00222331 	-0.227676
0.00620114 	0.00100362 	0.000217664 	-0.183411
0.00620114 	-0.00492474 	0.00208749 	-0.223727
0.00626703 	0.000982612 	0.000197454 	-0.178794
0.00626703 	-0.00508069 	0.00195403 	-0.219506
0.00633176 	0.000958855 	0.000178257 	-0.173875
0.00633176 	-0.00520884 	0.0018226 	-0.21496
0.00639535 	0.000931656 	0.000160028 	-0.168621
0.00639535 	-0.00530763 	0.00169343 	-0.210016
0.00645783 	0.000900531 	0.000142788 	-0.163003
0.00645783 	-0.00537528 	0.00156737 	-0.204593
0.0065192 	0.000865376 	0.000126699 	-0.156996
0.0065192 	-0.0054095 	0.00144526 	-0.19862
0.00657949 	0.000826305 	0.00011191 	-0.150582
0.00657949 	-0.00540748 	0.00132725 	-0.192047
0.00663871 	0.000783491 	9.84697e-05 	-0.143746
0.00663871 	-0.00536601 	0.00121285 	-0.184841
0.0066969 	0.000737153 	8.63226e-05 	-0.136472
0.0066969 	-0.00528168 	0.00110212 	-0.176974
0.00675406 	0.000687696 	7.53102e-05 	-0.128742
0.00675406 	-0.00515074 	0.000995458 	-0.168424
0.00681021 	0.000635747 	6.53958e-05 	-0.120549
0.00681021 	-0.00496967 	0.000892628 	-0.159168
0.00686537 	0.000581709 	5.65676e-05 	-0.111904
0.00686537 	-0.004736 	0.000792698 	-0.149138
0.00691956 	0.000525437 	4.87581e-05 	-0.102826
0.00691956 	-0.00444857 	0.000695501 	-0.138224
0.0069728 	0.000466388 	4.19447e-05 	-0.0933662
0.0069728 	-0.00411003 	0.000602848 	-0.126366
0.0070251 	0.000404106 	3.58822e-05 	-0.0836246
0.0070251 	-0.00372826 	0.000515855 	-0.113629
0.00707647 	0.000339012 	3.03048e-05 	-0.0737469
0.00707647 	-0.00331454 	0.000434598 	-0.100213
0.00712695 	0.000272801 	2.50893e-05 	-0.0639071
0.00712695 	-0.00288182 	0.000359449 	-0.0864443
0.00717653 	0.000208314 	2.00853e-05 	-0.0542788
0.00717653 	-0.00244256 	0.000290704 	-0.072711
0.00722524 	0.000149303 	1.51995e-05 	-0.0450081
0.00722524 	-0.00200587 	0.000227793 	-0.0593963
0.00727309 	0.000100372 	1.05231e-05 	-0.0362015
0.00727309 	-0.0015758 	0.000171482 	-0.0468394
0.0073201 	6.75567e-05 	6.24748e-06 	-0.02794
0.0073201 	-0.00115083 	0.000125132 	-0.0353675
0.00736628 	5.99005e-05 	2.47304e-06 	-0.0203129
0.00736628 	-0.000723513 	7.12019e-05 	-0.0253947
0.00741165 	6.98513e-05 	2.91672e-07 	-0.0133119
0.00741165 	-0.000336427 	4.17962e-05 	-0.0169346
0.00745622 	5.88904e-05 	-4.55616e-07 	-0.00666225
0.00745622 	-8.99116e-05 	1.84089e-05 	-0.00890108
0.0075 	0 	0 	0
0.0075 	0 	0 	0
