0 	373
0 	373
5.01672e-05 	369.579
5.01672e-05 	369.579
0.000100334 	366.204
0.000150502 	362.913
0.000150502 	362.913
0.000200669 	359.847
0.000200669 	359.847
0.000250836 	357.208
0.000301003 	355.152
0.000301003 	355.152
0.000351171 	353.675
0.000401338 	352.657
0.000451505 	351.952
0.000451505 	351.952
0.000501672 	351.451
0.000551839 	351.08
0.000551839 	351.08
0.000602007 	350.796
0.000602007 	350.796
0.000652174 	350.57
0.000652174 	350.57
0.000702341 	350.385
0.000702341 	350.385
0.000752508 	350.229
0.000802676 	350.096
0.000852843 	349.983
0.000852843 	349.983
0.00090301 	349.882
0.00090301 	349.882
0.000953177 	349.791
0.00100334 	349.709
0.00100334 	349.709
0.00105351 	349.634
0.00105351 	349.634
0.00110368 	349.564
0.00115385 	349.5
0.00120401 	349.441
0.00120401 	349.441
0.00130435 	349.33
0.00130435 	349.33
0.00135452 	349.279
0.00135452 	349.279
0.00140468 	349.231
0.00145485 	349.184
0.00145485 	349.184
0.00150502 	349.139
0.00150502 	349.139
0.00155518 	349.095
0.00155518 	349.095
0.00160535 	349.053
0.00160535 	349.053
0.00165552 	349.011
0.00165552 	349.011
0.00170569 	348.971
0.00170569 	348.971
0.00175585 	348.932
0.00175585 	348.932
0.00180602 	348.893
0.00180602 	348.893
0.00185619 	348.855
0.00185619 	348.855
0.00190635 	348.817
0.00190635 	348.817
0.00195652 	348.78
0.00195652 	348.78
0.00200669 	348.744
0.00200669 	348.744
0.00205686 	348.707
0.00210702 	348.672
0.00210702 	348.672
0.00215719 	348.636
0.00220736 	348.601
0.00225753 	348.567
0.00225753 	348.567
0.00230769 	348.533
0.00230769 	348.533
0.00235786 	348.499
0.00235786 	348.499
0.00240803 	348.465
0.00240803 	348.465
0.00245819 	348.432
0.00245819 	348.432
0.00250836 	348.399
0.00250836 	348.399
0.00255853 	348.366
0.0026087 	348.334
0.0026087 	348.334
0.00265886 	348.302
0.00270903 	348.27
0.00270903 	348.27
0.0027592 	348.238
0.00280936 	348.207
0.00280936 	348.207
0.00285953 	348.177
0.00285953 	348.177
0.0029097 	348.146
0.0029097 	348.146
0.00295987 	348.116
0.00295987 	348.116
0.00301003 	348.086
0.0030602 	348.057
0.00311037 	348.028
0.00311037 	348.028
0.00316054 	347.999
0.00316054 	347.999
0.00326087 	347.943
0.00326087 	347.943
0.00331104 	347.915
0.0033612 	347.888
0.0033612 	347.888
0.00341137 	347.861
0.00341137 	347.861
0.00346154 	347.834
0.00346154 	347.834
0.00351171 	347.808
0.00356187 	347.782
0.00356187 	347.782
0.00361204 	347.756
0.00366221 	347.731
0.00366221 	347.731
0.00371237 	347.705
0.00371237 	347.705
0.00376254 	347.68
0.00376254 	347.68
0.00381271 	347.655
0.00381271 	347.655
0.00386288 	347.631
0.00391304 	347.606
0.00391304 	347.606
0.00396321 	347.582
0.00401338 	347.558
0.00401338 	347.558
0.00406355 	347.534
0.00406355 	347.534
0.00411371 	347.511
0.00411371 	347.511
0.00421405 	347.464
0.00421405 	347.464
0.00426421 	347.44
0.00426421 	347.44
0.00431438 	347.417
0.00431438 	347.417
0.00436455 	347.395
0.00436455 	347.395
0.00441472 	347.372
0.00441472 	347.372
0.00446488 	347.35
0.00446488 	347.35
0.00451505 	347.327
0.00451505 	347.327
0.00456522 	347.305
0.00456522 	347.305
0.00461538 	347.283
0.00461538 	347.283
0.00466555 	347.261
0.00471572 	347.24
0.00476589 	347.218
0.00476589 	347.218
0.00486622 	347.176
0.00486622 	347.176
0.00491639 	347.154
0.00496656 	347.134
0.00496656 	347.134
0.00501672 	347.113
0.00506689 	347.092
0.00511706 	347.072
0.00511706 	347.072
0.00521739 	347.032
0.00521739 	347.032
0.00526756 	347.012
0.00526756 	347.012
0.00531773 	346.992
0.00536789 	346.973
0.00536789 	346.973
0.00541806 	346.953
0.00546823 	346.934
0.00551839 	346.915
0.00551839 	346.915
0.00556856 	346.896
0.00556856 	346.896
0.0056689 	346.859
0.0056689 	346.859
0.00571906 	346.84
0.00576923 	346.822
0.00576923 	346.822
0.0058194 	346.804
0.0058194 	346.804
0.00591973 	346.768
0.00591973 	346.768
0.0059699 	346.751
0.0059699 	346.751
0.00602007 	346.733
0.00607023 	346.715
0.0061204 	346.698
0.0061204 	346.698
0.00617057 	346.681
0.00622074 	346.664
0.00622074 	346.664
0.0062709 	346.647
0.00632107 	346.63
0.00632107 	346.63
0.00637124 	346.613
0.00637124 	346.613
0.0064214 	346.596
0.0064214 	346.596
0.00647157 	346.58
0.00647157 	346.58
0.00652174 	346.563
0.00657191 	346.546
0.00657191 	346.546
0.00662207 	346.53
0.00667224 	346.514
0.00672241 	346.497
0.00672241 	346.497
0.00677258 	346.481
0.00682274 	346.465
0.00682274 	346.465
0.00687291 	346.449
0.00687291 	346.449
0.00692308 	346.433
0.00697324 	346.417
0.00702341 	346.401
0.00707358 	346.385
0.00707358 	346.385
0.00717391 	346.353
0.00717391 	346.353
0.00722408 	346.337
0.00722408 	346.337
0.00727425 	346.321
0.00727425 	346.321
0.00732441 	346.305
0.00732441 	346.305
0.00737458 	346.29
0.00737458 	346.29
0.00742475 	346.274
0.00747492 	346.258
0.00752508 	346.242
0.00752508 	346.242
0.00757525 	346.227
0.00762542 	346.211
0.00767559 	346.196
0.00767559 	346.196
0.00772575 	346.18
0.00777592 	346.164
0.00777592 	346.164
0.00782609 	346.149
0.00787625 	346.133
0.00787625 	346.133
0.00792642 	346.117
0.00797659 	346.102
0.00802676 	346.086
0.00802676 	346.086
0.00807692 	346.07
0.00807692 	346.07
0.00812709 	346.055
0.00817726 	346.039
0.00817726 	346.039
0.00822742 	346.023
0.00827759 	346.007
0.00827759 	346.007
0.00832776 	345.992
0.00832776 	345.992
0.00837793 	345.976
0.00842809 	345.96
0.00842809 	345.96
0.00847826 	345.945
0.00847826 	345.945
0.0085786 	345.913
0.0085786 	345.913
0.00862876 	345.897
0.00867893 	345.881
0.0087291 	345.865
0.00877926 	345.85
0.00882943 	345.834
0.0088796 	345.818
0.0088796 	345.818
0.00892977 	345.802
0.00892977 	345.802
0.00897993 	345.786
0.00897993 	345.786
0.0090301 	345.77
0.00908027 	345.754
0.00908027 	345.754
0.00913043 	345.738
0.0091806 	345.722
0.0091806 	345.722
0.00923077 	345.705
0.00928094 	345.689
0.00928094 	345.689
0.0093311 	345.673
0.00938127 	345.657
0.00938127 	345.657
0.00943144 	345.64
0.00943144 	345.64
0.00948161 	345.624
0.00948161 	345.624
0.00953177 	345.608
0.00953177 	345.608
0.00958194 	345.591
0.00958194 	345.591
0.00963211 	345.575
0.00968227 	345.558
0.00968227 	345.558
0.00973244 	345.541
0.00978261 	345.525
0.00978261 	345.525
0.00983278 	345.508
0.00983278 	345.508
0.00988294 	345.491
0.00993311 	345.474
0.00993311 	345.474
0.00998328 	345.457
0.0100334 	345.44
0.0100836 	345.423
0.0100836 	345.423
0.0101338 	345.406
0.0101839 	345.389
0.0101839 	345.389
0.0102341 	345.372
0.0102341 	345.372
0.0102843 	345.354
0.0103344 	345.337
0.0103344 	345.337
0.0103846 	345.319
0.0103846 	345.319
0.0104348 	345.301
0.0104348 	345.301
0.0104849 	345.284
0.0104849 	345.284
0.0105351 	345.266
0.0105853 	345.248
0.0105853 	345.248
0.0106856 	345.212
0.0106856 	345.212
0.0107358 	345.193
0.010786 	345.175
0.010786 	345.175
0.0108361 	345.156
0.0108863 	345.138
0.0108863 	345.138
0.0109365 	345.119
0.0109365 	345.119
0.0109866 	345.1
0.0110368 	345.081
0.0110368 	345.081
0.011087 	345.061
0.011087 	345.061
0.0111371 	345.042
0.0111873 	345.022
0.0111873 	345.022
0.0112375 	345.002
0.0112876 	344.983
0.0112876 	344.983
0.0113378 	344.962
0.0113378 	344.962
0.011388 	344.942
0.0114381 	344.921
0.0114381 	344.921
0.0114883 	344.9
0.0115385 	344.879
0.0115385 	344.879
0.0115886 	344.858
0.0116388 	344.836
0.0116388 	344.836
0.011689 	344.814
0.0117391 	344.791
0.0117893 	344.768
0.0118395 	344.745
0.0118395 	344.745
0.0118896 	344.721
0.0119398 	344.696
0.0119398 	344.696
0.01199 	344.671
0.0120401 	344.646
0.0120401 	344.646
0.0120903 	344.62
0.0120903 	344.62
0.0121906 	344.565
0.0121906 	344.565
0.0122408 	344.537
0.012291 	344.508
0.012291 	344.508
0.0123411 	344.477
0.0123913 	344.447
0.0123913 	344.447
0.0124415 	344.415
0.0124415 	344.415
0.0124916 	344.382
0.0124916 	344.382
0.0125418 	344.348
0.012592 	344.313
0.0126421 	344.278
0.0126421 	344.278
0.0126923 	344.24
0.0127425 	344.202
0.0127425 	344.202
0.0127926 	344.161
0.0128428 	344.12
0.0128428 	344.12
0.0129431 	344.032
0.0129431 	344.032
0.0129933 	343.986
0.0130435 	343.938
0.0130435 	343.938
0.0131438 	343.836
0.0131438 	343.836
0.013194 	343.782
0.0132441 	343.724
0.0132441 	343.724
0.0132943 	343.665
0.0133445 	343.603
0.0133445 	343.603
0.0133946 	343.537
0.0133946 	343.537
0.0134448 	343.469
0.0134448 	343.469
0.013495 	343.398
0.0135452 	343.321
0.0135452 	343.321
0.0135953 	343.24
0.0135953 	343.24
0.0136455 	343.155
0.0136455 	343.155
0.0136957 	343.064
0.0136957 	343.064
0.0137458 	342.966
0.013796 	342.862
0.013796 	342.862
0.0138462 	342.749
0.0138462 	342.749
0.0138963 	342.628
0.0139465 	342.494
0.0139465 	342.494
0.0139967 	342.347
0.0139967 	342.347
0.0140468 	342.185
0.0140468 	342.185
0.014097 	342.005
0.0141472 	341.803
0.0141472 	341.803
0.0141973 	341.573
0.0142475 	341.298
0.0142977 	340.965
0.0142977 	340.965
0.0143478 	340.548
0.014398 	340.008
0.014398 	340.008
0.0144482 	339.29
0.0144983 	338.311
0.0144983 	338.311
0.0145485 	336.974
0.0145485 	336.974
0.0145987 	335.2
0.0146488 	332.979
0.014699 	330.395
0.014699 	330.395
0.0147492 	327.591
0.0147993 	324.688
0.0147993 	324.688
0.0148495 	321.759
0.0148495 	321.759
0.0148997 	318.832
0.0148997 	318.832
0.0149498 	315.916
0.0149498 	315.916
0.015 	313
0.015 	313
