0 	0 	0 	0
0 	0 	0 	0
0.00752508 	0.00167018 	8.91371e-06 	-0.265918
0.00752508 	0.00167018 	8.91371e-06 	-0.265918
0.00757525 	0.00169634 	5.71697e-06 	-0.265706
0.00762542 	0.0017225 	2.52024e-06 	-0.265494
0.00762542 	0.0017225 	2.52024e-06 	-0.265494
0.00767559 	0.00174857 	-6.43831e-07 	-0.265285
0.00772575 	0.00176448 	-2.27978e-07 	-0.265442
0.00777592 	0.00178039 	1.87874e-07 	-0.265598
0.00782609 	0.00179629 	6.03726e-07 	-0.265755
0.00782609 	0.00179629 	6.03726e-07 	-0.265755
0.00787625 	0.00181229 	-2.53922e-05 	-0.266034
0.00792642 	0.00182835 	-7.05466e-05 	-0.266401
0.00797659 	0.00184442 	-0.000115701 	-0.266768
0.00802676 	0.00186916 	-0.000174859 	-0.267248
0.00802676 	0.00186916 	-0.000174859 	-0.267248
0.00807692 	0.00192647 	-0.00028653 	-0.268148
0.00812709 	0.00198377 	-0.0003982 	-0.269048
0.00812709 	0.00198377 	-0.0003982 	-0.269048
0.00817726 	0.00204108 	-0.000509871 	-0.269949
0.00822742 	0.0021242 	-0.000508532 	-0.27115
0.00822742 	0.0021242 	-0.000508532 	-0.27115
0.00827759 	0.00221016 	-0.000494753 	-0.272384
0.00832776 	0.00229613 	-0.000480974 	-0.273619
0.00832776 	0.00229613 	-0.000480974 	-0.273619
0.00837793 	0.00236892 	-0.000428576 	-0.274589
0.00842809 	0.00243462 	-0.000355332 	-0.275417
0.00842809 	0.00243462 	-0.000355332 	-0.275417
0.00847826 	0.00250031 	-0.000282088 	-0.276245
0.00847826 	0.00250031 	-0.000282088 	-0.276245
0.00852843 	0.0025533 	-0.000262382 	-0.276858
0.00852843 	0.0025533 	-0.000262382 	-0.276858
0.0085786 	0.0025911 	-0.000306718 	-0.277213
0.0085786 	0.0025911 	-0.000306718 	-0.277213
0.00862876 	0.00262891 	-0.000351054 	-0.277568
0.00867893 	0.0026623 	-0.00039443 	-0.277882
0.00867893 	0.0026623 	-0.00039443 	-0.277882
0.0087291 	0.00268624 	-0.00043574 	-0.278108
0.00877926 	0.00271017 	-0.000477049 	-0.278335
0.00877926 	0.00271017 	-0.000477049 	-0.278335
0.00882943 	0.00273267 	-0.000505287 	-0.278527
0.0088796 	0.00275048 	-0.000490947 	-0.278611
0.0088796 	0.00275048 	-0.000490947 	-0.278611
0.00897993 	0.00278675 	-0.000469501 	-0.278743
0.00897993 	0.00278675 	-0.000469501 	-0.278743
0.0090301 	0.00280766 	-0.000490168 	-0.278657
0.00908027 	0.00282857 	-0.000510834 	-0.27857
0.00908027 	0.00282857 	-0.000510834 	-0.27857
0.00913043 	0.00285268 	-0.000535282 	-0.278481
0.0091806 	0.0028874 	-0.000572265 	-0.278383
0.0091806 	0.0028874 	-0.000572265 	-0.278383
0.00923077 	0.00292212 	-0.000609248 	-0.278285
0.00928094 	0.00296127 	-0.000632761 	-0.278223
0.00928094 	0.00296127 	-0.000632761 	-0.278223
0.0093311 	0.00301031 	-0.00062618 	-0.27824
0.00938127 	0.00305935 	-0.000619599 	-0.278257
0.00938127 	0.00305935 	-0.000619599 	-0.278257
0.00943144 	0.00310751 	-0.000603316 	-0.278265
0.00943144 	0.00310751 	-0.000603316 	-0.278265
0.00948161 	0.00315453 	-0.000574593 	-0.278262
0.00948161 	0.00315453 	-0.000574593 	-0.278262
0.00953177 	0.00320156 	-0.00054587 	-0.278258
0.00953177 	0.00320156 	-0.00054587 	-0.278258
0.00958194 	0.00324098 	-0.000533169 	-0.278147
0.00958194 	0.00324098 	-0.000533169 	-0.278147
0.00963211 	0.0032757 	-0.000530385 	-0.27797
0.00963211 	0.0032757 	-0.000530385 	-0.27797
0.00968227 	0.00331043 	-0.000527601 	-0.277792
0.00968227 	0.00331043 	-0.000527601 	-0.277792
0.00973244 	0.00333804 	-0.000534676 	-0.277505
0.00978261 	0.00336437 	-0.000543533 	-0.277198
0.00983278 	0.00339016 	-0.000552071 	-0.276888
0.00988294 	0.00341214 	-0.000558382 	-0.276559
0.00988294 	0.00341214 	-0.000558382 	-0.276559
0.00993311 	0.00343412 	-0.000564694 	-0.276229
0.00998328 	0.00345507 	-0.000585731 	-0.27589
0.00998328 	0.00345507 	-0.000585731 	-0.27589
0.0100334 	0.00347475 	-0.000624697 	-0.275538
0.0100334 	0.00347475 	-0.000624697 	-0.275538
0.0100836 	0.00349444 	-0.000663664 	-0.275187
0.0101338 	0.00351477 	-0.000670447 	-0.274724
0.0101338 	0.00351477 	-0.000670447 	-0.274724
0.0102341 	0.00355572 	-0.000643859 	-0.273694
0.0102341 	0.00355572 	-0.000643859 	-0.273694
0.0102843 	0.00357632 	-0.000535273 	-0.272965
0.0103344 	0.00359692 	-0.000426687 	-0.272236
0.0103344 	0.00359692 	-0.000426687 	-0.272236
0.0103846 	0.00361194 	-0.00036381 	-0.271351
0.0103846 	0.00361194 	-0.00036381 	-0.271351
0.0104348 	0.00362466 	-0.000319764 	-0.270402
0.0104849 	0.00363357 	-0.000308393 	-0.269442
0.0104849 	0.00363357 	-0.000308393 	-0.269442
0.0105351 	0.00362879 	-0.000414428 	-0.268445
0.0105853 	0.003624 	-0.000520463 	-0.267447
0.0105853 	0.003624 	-0.000520463 	-0.267447
0.0106355 	0.00361301 	-0.000624061 	-0.266532
0.0106856 	0.00360016 	-0.000726937 	-0.265641
0.0106856 	0.00360016 	-0.000726937 	-0.265641
0.0107358 	0.00359295 	-0.000778623 	-0.264837
0.0107358 	0.00359295 	-0.000778623 	-0.264837
0.010786 	0.00359544 	-0.000742221 	-0.264183
0.010786 	0.00359544 	-0.000742221 	-0.264183
0.0108361 	0.00359802 	-0.000705257 	-0.263529
0.0108361 	0.00359802 	-0.000705257 	-0.263529
0.0108863 	0.00361479 	-0.000580185 	-0.263033
0.0109365 	0.00363156 	-0.000455112 	-0.262537
0.0109365 	0.00363156 	-0.000455112 	-0.262537
0.0109866 	0.00364525 	-0.000396072 	-0.261987
0.0109866 	0.00364525 	-0.000396072 	-0.261987
0.0110368 	0.00365754 	-0.000367152 	-0.261412
0.011087 	0.00366575 	-0.000373957 	-0.260791
0.011087 	0.00366575 	-0.000373957 	-0.260791
0.0111371 	0.00366803 	-0.000432597 	-0.260104
0.0111873 	0.00366955 	-0.000482394 	-0.259409
0.0111873 	0.00366955 	-0.000482394 	-0.259409
0.0112375 	0.0036673 	-0.000488828 	-0.258672
0.0112876 	0.00366505 	-0.000495262 	-0.257936
0.0112876 	0.00366505 	-0.000495262 	-0.257936
0.0113378 	0.00365743 	-0.000428681 	-0.257153
0.011388 	0.00364964 	-0.000359859 	-0.256368
0.011388 	0.00364964 	-0.000359859 	-0.256368
0.0114883 	0.00360204 	-0.000287131 	-0.254523
0.0114883 	0.00360204 	-0.000287131 	-0.254523
0.0115385 	0.00355831 	-0.000349104 	-0.253356
0.0115886 	0.0035063 	-0.000454238 	-0.252083
0.0115886 	0.0035063 	-0.000454238 	-0.252083
0.0116388 	0.00344507 	-0.000568857 	-0.250532
0.011689 	0.00337776 	-0.000689736 	-0.248796
0.011689 	0.00337776 	-0.000689736 	-0.248796
0.0117391 	0.00332848 	-0.000704107 	-0.246968
0.0117893 	0.00329369 	-0.000632807 	-0.245067
0.0117893 	0.00329369 	-0.000632807 	-0.245067
0.0118395 	0.00329112 	-0.000486515 	-0.243261
0.0118896 	0.00331577 	-0.000276865 	-0.241534
0.0118896 	0.00331577 	-0.000276865 	-0.241534
0.0119398 	0.00335079 	-0.000144822 	-0.240045
0.0119398 	0.00335079 	-0.000144822 	-0.240045
0.01199 	0.00339379 	-7.24501e-05 	-0.238739
0.01199 	0.00339379 	-7.24501e-05 	-0.238739
0.0120401 	0.00342168 	-0.000124825 	-0.237702
0.0120401 	0.00342168 	-0.000124825 	-0.237702
0.0120903 	0.00344044 	-0.000252553 	-0.23683
0.0120903 	0.00344044 	-0.000252553 	-0.23683
0.0121405 	0.00344172 	-0.000370013 	-0.235978
0.0121405 	0.00344172 	-0.000370013 	-0.235978
0.0121906 	0.00343605 	-0.000483395 	-0.235136
0.0121906 	0.00343605 	-0.000483395 	-0.235136
0.0122408 	0.00342386 	-0.000475181 	-0.234156
0.0122408 	0.00342386 	-0.000475181 	-0.234156
0.012291 	0.00341046 	-0.000444067 	-0.233149
0.012291 	0.00341046 	-0.000444067 	-0.233149
0.0123411 	0.00339702 	-0.000373206 	-0.232019
0.0123411 	0.00339702 	-0.000373206 	-0.232019
0.0123913 	0.00338409 	-0.000313625 	-0.23088
0.0123913 	0.00338409 	-0.000313625 	-0.23088
0.0124415 	0.0033733 	-0.000301529 	-0.229698
0.0124916 	0.00336363 	-0.00029654 	-0.228499
0.0124916 	0.00336363 	-0.00029654 	-0.228499
0.012592 	0.0033476 	-0.000300085 	-0.226024
0.012592 	0.0033476 	-0.000300085 	-0.226024
0.0126421 	0.00333976 	-0.000295398 	-0.224754
0.0126923 	0.00333042 	-0.000290611 	-0.223427
0.0126923 	0.00333042 	-0.000290611 	-0.223427
0.0127425 	0.00332042 	-0.000285516 	-0.222078
0.0127425 	0.00332042 	-0.000285516 	-0.222078
0.0127926 	0.00330886 	-0.000279598 	-0.220678
0.0128428 	0.0032959 	-0.000273282 	-0.219228
0.0128428 	0.0032959 	-0.000273282 	-0.219228
0.012893 	0.00328209 	-0.000266718 	-0.217747
0.0129431 	0.00326605 	-0.000259848 	-0.216177
0.0129431 	0.00326605 	-0.000259848 	-0.216177
0.0129933 	0.00324914 	-0.000252961 	-0.214568
0.0130435 	0.0032309 	-0.000246053 	-0.212899
0.0130435 	0.0032309 	-0.000246053 	-0.212899
0.0130936 	0.00321083 	-0.000239279 	-0.211141
0.0131438 	0.00318968 	-0.000232617 	-0.209331
0.0131438 	0.00318968 	-0.000232617 	-0.209331
0.013194 	0.00316682 	-0.000226165 	-0.207437
0.0132441 	0.00314195 	-0.000219946 	-0.205444
0.0132441 	0.00314195 	-0.000219946 	-0.205444
0.0132943 	0.00311563 	-0.000213896 	-0.203379
0.0133445 	0.00308716 	-0.000208101 	-0.20121
0.0133445 	0.00308716 	-0.000208101 	-0.20121
0.0133946 	0.00305576 	-0.000202654 	-0.198907
0.0134448 	0.00302215 	-0.000197403 	-0.196505
0.0134448 	0.00302215 	-0.000197403 	-0.196505
0.013495 	0.00298601 	-0.000192343 	-0.19399
0.0135452 	0.00294538 	-0.000187316 	-0.191282
0.0135452 	0.00294538 	-0.000187316 	-0.191282
0.0136455 	0.00285397 	-0.00017704 	-0.185447
0.0136455 	0.00285397 	-0.00017704 	-0.185447
0.0136957 	0.00280135 	-0.000171753 	-0.182265
0.0137458 	0.00274125 	-0.000166341 	-0.178833
0.0137458 	0.00274125 	-0.000166341 	-0.178833
0.013796 	0.0026741 	-0.000160789 	-0.175187
0.0138462 	0.00259876 	-0.000155219 	-0.171305
0.0138462 	0.00259876 	-0.000155219 	-0.171305
0.0138963 	0.00251396 	-0.000149833 	-0.167164
0.0138963 	0.00251396 	-0.000149833 	-0.167164
0.0139465 	0.00241456 	-0.000144843 	-0.162638
0.0139967 	0.00230253 	-0.000139364 	-0.157778
0.0139967 	0.00230253 	-0.000139364 	-0.157778
0.0140468 	0.00217764 	-0.000133122 	-0.152561
0.0140468 	0.00217764 	-0.000133122 	-0.152561
0.014097 	0.00203995 	-0.000126039 	-0.146961
0.0141472 	0.00189034 	-0.000118412 	-0.140956
0.0141973 	0.00173084 	-0.0001112 	-0.13453
0.0141973 	0.00173084 	-0.0001112 	-0.13453
0.0142475 	0.00156419 	-0.000105622 	-0.12761
0.0142977 	0.00139525 	-0.000100019 	-0.120256
0.0143478 	0.00122707 	-9.34332e-05 	-0.11247
0.0143478 	0.00122707 	-9.34332e-05 	-0.11247
0.014398 	0.00106274 	-8.5595e-05 	-0.10427
0.014398 	0.00106274 	-8.5595e-05 	-0.10427
0.0144482 	0.000905607 	-7.67482e-05 	-0.0957033
0.0144983 	0.00075922 	-6.75297e-05 	-0.086852
0.0144983 	0.00075922 	-6.75297e-05 	-0.086852
0.0145485 	0.000626674 	-5.83058e-05 	-0.0778278
0.0145987 	0.00050979 	-4.91207e-05 	-0.0687575
0.0145987 	0.00050979 	-4.91207e-05 	-0.0687575
0.0146488 	0.000408462 	-4.02379e-05 	-0.0597618
0.014699 	0.000319979 	-3.17706e-05 	-0.0509261
0.014699 	0.000319979 	-3.17706e-05 	-0.0509261
0.0147492 	0.000238059 	-2.35175e-05 	-0.0422721
0.0147993 	0.000151227 	-1.57678e-05 	-0.0337376
0.0147993 	0.000151227 	-1.57678e-05 	-0.0337376
0.0148495 	3.96866e-05 	-7.78104e-06 	-0.0251595
0.0148495 	3.96866e-05 	-7.78104e-06 	-0.0251595
0.0148997 	-8.77106e-05 	-2.43619e-06 	-0.0164188
0.0148997 	-8.77106e-05 	-2.43619e-06 	-0.0164188
0.0149498 	-0.000131745 	-7.71945e-07 	-0.00782434
0.0149498 	-0.000131745 	-7.71945e-07 	-0.00782434
0.015 	0 	0 	0
