0 	0 	0 	0
0 	0 	0 	0
0.00752508 	0.000322991 	-4.03046e-05 	-0.285654
0.00752508 	0.000322991 	-4.03046e-05 	-0.285654
0.00757525 	0.000308154 	-5.1446e-05 	-0.285431
0.00762542 	0.000293316 	-6.25874e-05 	-0.285209
0.00762542 	0.000293316 	-6.25874e-05 	-0.285209
0.00767559 	0.000278462 	-7.37302e-05 	-0.284986
0.00772575 	0.000261804 	-8.50248e-05 	-0.284735
0.00777592 	0.000245146 	-9.63194e-05 	-0.284484
0.00782609 	0.000228487 	-0.000107614 	-0.284233
0.00782609 	0.000228487 	-0.000107614 	-0.284233
0.00787625 	0.000210718 	-0.000117791 	-0.283962
0.00792642 	0.000192142 	-0.000127157 	-0.283677
0.00797659 	0.000173566 	-0.000136523 	-0.283392
0.00802676 	0.00015462 	-0.000145484 	-0.283099
0.00802676 	0.00015462 	-0.000145484 	-0.283099
0.00807692 	0.000134283 	-0.000152924 	-0.282776
0.00812709 	0.000113946 	-0.000160364 	-0.282454
0.00812709 	0.000113946 	-0.000160364 	-0.282454
0.00817726 	9.3609e-05 	-0.000167805 	-0.282131
0.00822742 	7.15756e-05 	-0.000177882 	-0.281769
0.00822742 	7.15756e-05 	-0.000177882 	-0.281769
0.00827759 	4.93555e-05 	-0.000188249 	-0.281403
0.00832776 	2.71354e-05 	-0.000198616 	-0.281037
0.00832776 	2.71354e-05 	-0.000198616 	-0.281037
0.00837793 	2.7467e-06 	-0.000208299 	-0.280635
0.00842809 	-2.28125e-05 	-0.000217612 	-0.280213
0.00842809 	-2.28125e-05 	-0.000217612 	-0.280213
0.00847826 	-4.83717e-05 	-0.000226926 	-0.279791
0.00847826 	-4.83717e-05 	-0.000226926 	-0.279791
0.00852843 	-7.54125e-05 	-0.000230006 	-0.27934
0.00852843 	-7.54125e-05 	-0.000230006 	-0.27934
0.0085786 	-0.000104226 	-0.000225629 	-0.278854
0.0085786 	-0.000104226 	-0.000225629 	-0.278854
0.00862876 	-0.000133039 	-0.000221252 	-0.278368
0.00867893 	-0.000161467 	-0.000215716 	-0.277867
0.00867893 	-0.000161467 	-0.000215716 	-0.277867
0.0087291 	-0.000189067 	-0.000207686 	-0.277335
0.00877926 	-0.000216667 	-0.000199657 	-0.276803
0.00877926 	-0.000216667 	-0.000199657 	-0.276803
0.00882943 	-0.00024238 	-0.000195684 	-0.276274
0.0088796 	-0.000261949 	-0.000204924 	-0.275757
0.0088796 	-0.000261949 	-0.000204924 	-0.275757
0.00897993 	-0.000299126 	-0.000224233 	-0.274733
0.00897993 	-0.000299126 	-0.000224233 	-0.274733
0.0090301 	-0.000309205 	-0.000237486 	-0.274264
0.00908027 	-0.000319284 	-0.000250739 	-0.273794
0.00908027 	-0.000319284 	-0.000250739 	-0.273794
0.00913043 	-0.000328273 	-0.000260973 	-0.273331
0.0091806 	-0.00033365 	-0.000261193 	-0.272887
0.0091806 	-0.00033365 	-0.000261193 	-0.272887
0.00923077 	-0.000339027 	-0.000261413 	-0.272443
0.00928094 	-0.000343814 	-0.000260324 	-0.272003
0.00928094 	-0.000343814 	-0.000260324 	-0.272003
0.0093311 	-0.000347281 	-0.000256308 	-0.271571
0.00938127 	-0.000350749 	-0.000252293 	-0.271139
0.00938127 	-0.000350749 	-0.000252293 	-0.271139
0.00943144 	-0.000352951 	-0.000249571 	-0.270713
0.00943144 	-0.000352951 	-0.000249571 	-0.270713
0.00948161 	-0.000353531 	-0.000248509 	-0.270293
0.00948161 	-0.000353531 	-0.000248509 	-0.270293
0.00953177 	-0.000354111 	-0.000247447 	-0.269873
0.00953177 	-0.000354111 	-0.000247447 	-0.269873
0.00958194 	-0.000351992 	-0.000246537 	-0.269459
0.00958194 	-0.000351992 	-0.000246537 	-0.269459
0.00963211 	-0.000348202 	-0.00024572 	-0.269047
0.00963211 	-0.000348202 	-0.00024572 	-0.269047
0.00968227 	-0.000344412 	-0.000244903 	-0.268635
0.00968227 	-0.000344412 	-0.000244903 	-0.268635
0.00973244 	-0.000336451 	-0.000242871 	-0.268223
0.00978261 	-0.000327735 	-0.00024062 	-0.267812
0.00983278 	-0.000318452 	-0.000238258 	-0.267399
0.00988294 	-0.000305197 	-0.000235125 	-0.26698
0.00988294 	-0.000305197 	-0.000235125 	-0.26698
0.00993311 	-0.000291941 	-0.000231992 	-0.266561
0.00998328 	-0.000277177 	-0.000228618 	-0.266136
0.00998328 	-0.000277177 	-0.000228618 	-0.266136
0.0100334 	-0.000260576 	-0.000224952 	-0.265706
0.0100334 	-0.000260576 	-0.000224952 	-0.265706
0.0100836 	-0.000243975 	-0.000221285 	-0.265276
0.0101338 	-0.000225928 	-0.000217505 	-0.264834
0.0101338 	-0.000225928 	-0.000217505 	-0.264834
0.0102341 	-0.000189398 	-0.000209884 	-0.263942
0.0102341 	-0.000189398 	-0.000209884 	-0.263942
0.0102843 	-0.000171791 	-0.00020603 	-0.263482
0.0103344 	-0.000154184 	-0.000202176 	-0.263022
0.0103344 	-0.000154184 	-0.000202176 	-0.263022
0.0103846 	-0.000139552 	-0.000198347 	-0.262548
0.0103846 	-0.000139552 	-0.000198347 	-0.262548
0.0104348 	-0.000126145 	-0.000194528 	-0.262068
0.0104849 	-0.000114268 	-0.000190712 	-0.261583
0.0104849 	-0.000114268 	-0.000190712 	-0.261583
0.0105351 	-0.000107884 	-0.000186908 	-0.26108
0.0105853 	-0.0001015 	-0.000183104 	-0.260577
0.0105853 	-0.0001015 	-0.000183104 	-0.260577
0.0106355 	-0.000101146 	-0.000178779 	-0.260052
0.0106856 	-0.000102581 	-0.000174299 	-0.25952
0.0106856 	-0.000102581 	-0.000174299 	-0.25952
0.0107358 	-0.000106493 	-0.000169122 	-0.258976
0.0107358 	-0.000106493 	-0.000169122 	-0.258976
0.010786 	-0.000114666 	-0.000162746 	-0.25841
0.010786 	-0.000114666 	-0.000162746 	-0.25841
0.0108361 	-0.000122873 	-0.000156379 	-0.257844
0.0108361 	-0.000122873 	-0.000156379 	-0.257844
0.0108863 	-0.000136443 	-0.000151498 	-0.257238
0.0109365 	-0.000150013 	-0.000146616 	-0.256631
0.0109365 	-0.000150013 	-0.000146616 	-0.256631
0.0109866 	-0.000167399 	-0.000139976 	-0.255993
0.0109866 	-0.000167399 	-0.000139976 	-0.255993
0.0110368 	-0.000186526 	-0.000132533 	-0.25534
0.011087 	-0.000205115 	-0.000118298 	-0.254658
0.011087 	-0.000205115 	-0.000118298 	-0.254658
0.0111371 	-0.000222922 	-9.42079e-05 	-0.253932
0.0111873 	-0.000237451 	-7.10752e-05 	-0.253183
0.0111873 	-0.000237451 	-7.10752e-05 	-0.253183
0.0112375 	-0.0002359 	-5.26389e-05 	-0.25232
0.0112876 	-0.000234349 	-3.42026e-05 	-0.251457
0.0112876 	-0.000234349 	-3.42026e-05 	-0.251457
0.0113378 	-0.000210248 	-5.34114e-05 	-0.250414
0.011388 	-0.000185456 	-7.37751e-05 	-0.249365
0.011388 	-0.000185456 	-7.37751e-05 	-0.249365
0.0114883 	-0.000130538 	-0.000133741 	-0.247048
0.0114883 	-0.000130538 	-0.000133741 	-0.247048
0.0115385 	-0.000121702 	-0.000130936 	-0.245928
0.0115886 	-0.00012146 	-0.000112764 	-0.244829
0.0115886 	-0.00012146 	-0.000112764 	-0.244829
0.0116388 	-0.000143621 	-7.57241e-05 	-0.243823
0.011689 	-0.000180564 	-2.62344e-05 	-0.242877
0.011689 	-0.000180564 	-2.62344e-05 	-0.242877
0.0117391 	-0.000224499 	7.10852e-06 	-0.241962
0.0117893 	-0.000274059 	2.74636e-05 	-0.241072
0.0117893 	-0.000274059 	2.74636e-05 	-0.241072
0.0118395 	-0.000317803 	3.27109e-05 	-0.240172
0.0118896 	-0.000356635 	2.51941e-05 	-0.239263
0.0118896 	-0.000356635 	2.51941e-05 	-0.239263
0.0119398 	-0.000387988 	1.84456e-05 	-0.238336
0.0119398 	-0.000387988 	1.84456e-05 	-0.238336
0.01199 	-0.000413591 	1.22878e-05 	-0.237397
0.01199 	-0.000413591 	1.22878e-05 	-0.237397
0.0120401 	-0.000434825 	1.3016e-05 	-0.236441
0.0120401 	-0.000434825 	1.3016e-05 	-0.236441
0.0120903 	-0.000453421 	1.79037e-05 	-0.235476
0.0120903 	-0.000453421 	1.79037e-05 	-0.235476
0.0121405 	-0.000469002 	2.43039e-05 	-0.23449
0.0121405 	-0.000469002 	2.43039e-05 	-0.23449
0.0121906 	-0.000483385 	3.13048e-05 	-0.233495
0.0121906 	-0.000483385 	3.13048e-05 	-0.233495
0.0122408 	-0.000494898 	3.67381e-05 	-0.23247
0.0122408 	-0.000494898 	3.67381e-05 	-0.23247
0.012291 	-0.00050587 	4.18763e-05 	-0.231439
0.012291 	-0.00050587 	4.18763e-05 	-0.231439
0.0123411 	-0.000514587 	4.68657e-05 	-0.230364
0.0123411 	-0.000514587 	4.68657e-05 	-0.230364
0.0123913 	-0.000523029 	5.17845e-05 	-0.229279
0.0123913 	-0.000523029 	5.17845e-05 	-0.229279
0.0124415 	-0.000530306 	5.64066e-05 	-0.228154
0.0124916 	-0.000537229 	6.08181e-05 	-0.227005
0.0124916 	-0.000537229 	6.08181e-05 	-0.227005
0.012592 	-0.000549829 	6.85815e-05 	-0.224603
0.012592 	-0.000549829 	6.85815e-05 	-0.224603
0.0126421 	-0.000555878 	7.2e-05 	-0.223361
0.0126923 	-0.000561859 	7.47867e-05 	-0.222057
0.0126923 	-0.000561859 	7.47867e-05 	-0.222057
0.0127425 	-0.000567848 	7.74209e-05 	-0.220731
0.0127425 	-0.000567848 	7.74209e-05 	-0.220731
0.0127926 	-0.000573869 	7.97245e-05 	-0.219352
0.0128428 	-0.000579916 	8.17802e-05 	-0.217925
0.0128428 	-0.000579916 	8.17802e-05 	-0.217925
0.012893 	-0.00058598 	8.36811e-05 	-0.216467
0.0129431 	-0.00059208 	8.50959e-05 	-0.214924
0.0129431 	-0.00059208 	8.50959e-05 	-0.214924
0.0129933 	-0.000598208 	8.63104e-05 	-0.213343
0.0130435 	-0.000604379 	8.72233e-05 	-0.211705
0.0130435 	-0.000604379 	8.72233e-05 	-0.211705
0.0130936 	-0.000610635 	8.77512e-05 	-0.209981
0.0131438 	-0.000616933 	8.8054e-05 	-0.208208
0.0131438 	-0.000616933 	8.8054e-05 	-0.208208
0.013194 	-0.000623295 	8.79944e-05 	-0.206355
0.0132441 	-0.000629696 	8.74844e-05 	-0.204406
0.0132441 	-0.000629696 	8.74844e-05 	-0.204406
0.0132943 	-0.00063612 	8.66674e-05 	-0.202389
0.0133445 	-0.000642575 	8.54123e-05 	-0.200274
0.0133445 	-0.000642575 	8.54123e-05 	-0.200274
0.0133946 	-0.000649014 	8.37089e-05 	-0.198031
0.0134448 	-0.000655329 	8.16794e-05 	-0.195692
0.0134448 	-0.000655329 	8.16794e-05 	-0.195692
0.013495 	-0.00066145 	7.92852e-05 	-0.193242
0.0135452 	-0.000666589 	7.67885e-05 	-0.190595
0.0135452 	-0.000666589 	7.67885e-05 	-0.190595
0.0136455 	-0.00067138 	7.23551e-05 	-0.184859
0.0136455 	-0.00067138 	7.23551e-05 	-0.184859
0.0136957 	-0.000668258 	6.99241e-05 	-0.18171
0.0137458 	-0.000657077 	6.66592e-05 	-0.178296
0.0137458 	-0.000657077 	6.66592e-05 	-0.178296
0.013796 	-0.000638407 	6.27821e-05 	-0.174656
0.0138462 	-0.000611721 	5.85485e-05 	-0.170766
0.0138462 	-0.000611721 	5.85485e-05 	-0.170766
0.0138963 	-0.000576767 	5.43766e-05 	-0.166604
0.0138963 	-0.000576767 	5.43766e-05 	-0.166604
0.0139465 	-0.00053248 	5.12102e-05 	-0.162046
0.0139967 	-0.000482494 	4.83127e-05 	-0.15716
0.0139967 	-0.000482494 	4.83127e-05 	-0.15716
0.0140468 	-0.000427537 	4.5277e-05 	-0.151933
0.0140468 	-0.000427537 	4.5277e-05 	-0.151933
0.014097 	-0.000367999 	4.18945e-05 	-0.146346
0.0141472 	-0.000304076 	3.81798e-05 	-0.140376
0.0141973 	-0.000235807 	3.43959e-05 	-0.134001
0.0141973 	-0.000235807 	3.43959e-05 	-0.134001
0.0142475 	-0.000162542 	3.10607e-05 	-0.127123
0.0142977 	-8.53131e-05 	2.80172e-05 	-0.119785
0.0143478 	-5.78896e-06 	2.4818e-05 	-0.11198
0.0143478 	-5.78896e-06 	2.4818e-05 	-0.11198
0.014398 	7.23922e-05 	2.1242e-05 	-0.103719
0.014398 	7.23922e-05 	2.1242e-05 	-0.103719
0.0144482 	0.000143768 	1.75475e-05 	-0.095045
0.0144983 	0.000202016 	1.40733e-05 	-0.0860392
0.0144983 	0.000202016 	1.40733e-05 	-0.0860392
0.0145485 	0.00024149 	1.09001e-05 	-0.0768185
0.0145987 	0.00025888 	8.0583e-06 	-0.0675239
0.0145987 	0.00025888 	8.0583e-06 	-0.0675239
0.0146488 	0.000254806 	5.73288e-06 	-0.058298
0.014699 	0.000235317 	4.06082e-06 	-0.0492555
0.014699 	0.000235317 	4.06082e-06 	-0.0492555
0.0147492 	0.000213121 	3.02095e-06 	-0.040462
0.0147993 	0.000209408 	2.4664e-06 	-0.0319241
0.0147993 	0.000209408 	2.4664e-06 	-0.0319241
0.0148495 	0.000258773 	2.44056e-06 	-0.0235915
0.0148495 	0.000258773 	2.44056e-06 	-0.0235915
0.0148997 	0.000348409 	2.01553e-06 	-0.0154175
0.0148997 	0.000348409 	2.01553e-06 	-0.0154175
0.0149498 	0.000314884 	1.15366e-06 	-0.00749337
0.0149498 	0.000314884 	1.15366e-06 	-0.00749337
0.015 	0 	0 	0
