-0.0075 	0 	0 	0
-0.0075 	-1.87521e-34 	-1.50351e-37 	-7.24146e-33
-0.00745622 	-0.000246458 	-1.97606e-07 	-0.00951745
-0.00745622 	-0.000246458 	-1.97606e-07 	-0.00951745
-0.00741165 	-0.000480878 	5.96988e-07 	-0.0192601
-0.00741165 	-0.000480878 	5.96988e-07 	-0.0192601
-0.00736628 	-0.000704844 	2.45634e-06 	-0.0291932
-0.00736628 	-0.000704844 	2.45634e-06 	-0.0291932
-0.0073201 	-0.000915422 	5.35671e-06 	-0.0392445
-0.0073201 	-0.000915422 	5.35671e-06 	-0.0392445
-0.00727309 	-0.00111178 	8.93398e-06 	-0.0493131
-0.00727309 	-0.00111178 	8.93398e-06 	-0.0493131
-0.00722524 	-0.00129392 	1.3194e-05 	-0.0593024
-0.00722524 	-0.00129392 	1.3194e-05 	-0.0593024
-0.00717653 	-0.00146135 	1.80387e-05 	-0.0691205
-0.00717653 	-0.00146135 	1.80387e-05 	-0.0691205
-0.00712695 	-0.00161337 	2.34197e-05 	-0.0786769
-0.00712695 	-0.00161337 	2.34197e-05 	-0.0786769
-0.00707647 	-0.00174919 	2.9329e-05 	-0.0878894
-0.00707647 	-0.00174919 	2.9329e-05 	-0.0878894
-0.0070251 	-0.00186832 	3.58214e-05 	-0.0966937
-0.0070251 	-0.00186832 	3.58214e-05 	-0.0966937
-0.0069728 	-0.00197069 	4.293e-05 	-0.105051
-0.0069728 	-0.00197069 	4.293e-05 	-0.105051
-0.00691956 	-0.00205676 	5.06174e-05 	-0.112954
-0.00691956 	-0.00205676 	5.06174e-05 	-0.112954
-0.00686537 	-0.00212739 	5.89038e-05 	-0.120422
-0.00686537 	-0.00212739 	5.89038e-05 	-0.120422
-0.00681021 	-0.00218364 	6.77575e-05 	-0.127495
-0.00681021 	-0.00218364 	6.77575e-05 	-0.127495
-0.00675406 	-0.00222655 	7.71639e-05 	-0.134204
-0.00675406 	-0.00222655 	7.71639e-05 	-0.134204
-0.0066969 	-0.0022572 	8.71015e-05 	-0.140575
-0.0066969 	-0.0022572 	8.71015e-05 	-0.140575
-0.00663871 	-0.00227659 	9.74661e-05 	-0.146631
-0.00663871 	-0.00227659 	9.74661e-05 	-0.146631
-0.00657949 	-0.00228573 	0.000108202 	-0.152391
-0.00657949 	-0.00228573 	0.000108202 	-0.152391
-0.0065192 	-0.00228557 	0.00011925 	-0.157873
-0.0065192 	-0.00228557 	0.00011925 	-0.157873
-0.00645783 	-0.00227703 	0.000130535 	-0.163093
-0.00645783 	-0.00227703 	0.000130535 	-0.163093
-0.00639535 	-0.00226105 	0.000141996 	-0.168065
-0.00639535 	-0.00226105 	0.000141996 	-0.168065
-0.00633176 	-0.00223849 	0.000153573 	-0.172799
-0.00633176 	-0.00223849 	0.000153573 	-0.172799
-0.00626703 	-0.00221016 	0.000165179 	-0.177306
-0.00626703 	-0.00221016 	0.000165179 	-0.177306
-0.00620114 	-0.00217677 	0.000176702 	-0.181598
-0.00620114 	-0.00217677 	0.000176702 	-0.181598
-0.00613406 	-0.00213892 	0.00018806 	-0.185694
-0.00613406 	-0.00213892 	0.00018806 	-0.185694
-0.00606579 	-0.00209715 	0.000199181 	-0.18961
-0.00606579 	-0.00209715 	0.000199181 	-0.18961
-0.00599629 	-0.002052 	0.000209999 	-0.193364
-0.00599629 	-0.002052 	0.000209999 	-0.193364
-0.00592554 	-0.00200397 	0.000220442 	-0.196969
-0.00592554 	-0.00200397 	0.000220442 	-0.196969
-0.00585352 	-0.00195347 	0.000230511 	-0.200435
-0.00585352 	-0.00195347 	0.000230511 	-0.200435
-0.00578022 	-0.00190086 	0.000240336 	-0.203769
-0.00578022 	-0.00190086 	0.000240336 	-0.203769
-0.00570559 	-0.00184635 	0.000249808 	-0.206973
-0.00570559 	-0.00184635 	0.000249808 	-0.206973
-0.00562963 	-0.00178988 	0.000258458 	-0.210055
-0.00562963 	-0.00178988 	0.000258458 	-0.210055
-0.00555231 	-0.00173134 	0.000265916 	-0.213049
-0.00555231 	-0.00173134 	0.000265916 	-0.213049
-0.0054736 	-0.00167121 	0.000272171 	-0.216021
-0.0054736 	-0.00167121 	0.000272171 	-0.216021
-0.00539348 	-0.00161071 	0.000278371 	-0.219021
-0.00539348 	-0.00161071 	0.000278371 	-0.219021
-0.00531193 	-0.00155059 	0.000285452 	-0.222005
-0.00531193 	-0.00155059 	0.000285452 	-0.222005
-0.00522891 	-0.00149008 	0.000292478 	-0.224854
-0.00522891 	-0.00149008 	0.000292478 	-0.224854
-0.0051444 	-0.00142797 	0.000298726 	-0.227511
-0.0051444 	-0.00142797 	0.000298726 	-0.227511
-0.00505838 	-0.00136417 	0.000303837 	-0.230011
-0.00505838 	-0.00136417 	0.000303837 	-0.230011
-0.00497081 	-0.0012996 	0.000307949 	-0.232409
-0.00497081 	-0.0012996 	0.000307949 	-0.232409
-0.00488168 	-0.00123512 	0.000311792 	-0.234731
-0.00488168 	-0.00123512 	0.000311792 	-0.234731
-0.00479094 	-0.00117096 	0.000315013 	-0.236977
-0.00479094 	-0.00117096 	0.000315013 	-0.236977
-0.00469858 	-0.00110718 	0.000317302 	-0.239142
-0.00469858 	-0.00110718 	0.000317302 	-0.239142
-0.00460456 	-0.00104399 	0.000318885 	-0.24122
-0.00460456 	-0.00104399 	0.000318885 	-0.24122
-0.00450886 	-0.000981472 	0.000319809 	-0.24322
-0.00450886 	-0.000981472 	0.000319809 	-0.24322
-0.00441144 	-0.00091954 	0.00032013 	-0.245151
-0.00441144 	-0.00091954 	0.00032013 	-0.245151
-0.00431227 	-0.000858216 	0.00031995 	-0.247025
-0.00431227 	-0.000858216 	0.00031995 	-0.247025
-0.00421133 	-0.000797634 	0.000319253 	-0.248848
-0.00421133 	-0.000797634 	0.000319253 	-0.248848
-0.00410857 	-0.000737978 	0.000317996 	-0.250625
-0.00410857 	-0.000737978 	0.000317996 	-0.250625
-0.00400397 	-0.000679516 	0.000316462 	-0.252371
-0.00400397 	-0.000679516 	0.000316462 	-0.252371
-0.0038975 	-0.00062245 	0.000315075 	-0.254109
-0.0038975 	-0.00062245 	0.000315075 	-0.254109
-0.00378912 	-0.000566643 	0.000313921 	-0.255872
-0.00378912 	-0.000566643 	0.000313921 	-0.255872
-0.00367879 	-0.000511468 	0.000312638 	-0.257681
-0.00367879 	-0.000511468 	0.000312638 	-0.257681
-0.00356649 	-0.000455958 	0.000310736 	-0.259518
-0.00356649 	-0.000455958 	0.000310736 	-0.259518
-0.00345217 	-0.000399333 	0.000307952 	-0.261326
-0.00345217 	-0.000399333 	0.000307952 	-0.261326
-0.0033358 	-0.000341548 	0.000304841 	-0.263046
-0.0033358 	-0.000341548 	0.000304841 	-0.263046
-0.00321735 	-0.000283013 	0.000302159 	-0.264656
-0.00321735 	-0.000283013 	0.000302159 	-0.264656
-0.00309677 	-0.000224325 	0.00029946 	-0.266177
-0.00309677 	-0.000224325 	0.00029946 	-0.266177
-0.00297403 	-0.000168627 	0.000295916 	-0.267672
-0.00297403 	-0.000168627 	0.000295916 	-0.267672
-0.00284909 	-0.00012454 	0.000291641 	-0.269265
-0.00284909 	-0.00012454 	0.000291641 	-0.269265
-0.0027219 	-0.000102892 	0.000288885 	-0.271086
-0.0027219 	-0.000102892 	0.000288885 	-0.271086
-0.00259244 	-0.000101423 	0.000290102 	-0.273098
-0.00259244 	-0.000101423 	0.000290102 	-0.273098
-0.00246065 	-0.000100085 	0.000294722 	-0.275062
-0.00246065 	-0.000100085 	0.000294722 	-0.275062
-0.00232651 	-8.38511e-05 	0.000300217 	-0.276785
-0.00232651 	-8.38511e-05 	0.000300217 	-0.276785
-0.00218995 	-5.4551e-05 	0.000305049 	-0.278294
-0.00218995 	-5.4551e-05 	0.000305049 	-0.278294
-0.00205095 	-1.97971e-05 	0.000309944 	-0.279706
-0.00205095 	-1.97971e-05 	0.000309944 	-0.279706
-0.00190946 	1.38353e-05 	0.000316574 	-0.281101
-0.00190946 	1.38353e-05 	0.000316574 	-0.281101
-0.00176543 	4.16848e-05 	0.000325423 	-0.282506
-0.00176543 	4.16848e-05 	0.000325423 	-0.282506
-0.00161881 	6.14603e-05 	0.000335884 	-0.283891
-0.00161881 	6.14603e-05 	0.000335884 	-0.283891
-0.00146957 	7.29183e-05 	0.000348321 	-0.285187
-0.00146957 	7.29183e-05 	0.000348321 	-0.285187
-0.00131765 	7.74145e-05 	0.00036286 	-0.286317
-0.00131765 	7.74145e-05 	0.00036286 	-0.286317
-0.001163 	7.56885e-05 	0.00037843 	-0.287263
-0.001163 	7.56885e-05 	0.00037843 	-0.287263
-0.00100559 	6.73749e-05 	0.000395323 	-0.288051
-0.00100559 	6.73749e-05 	0.000395323 	-0.288051
-0.000845345 	5.34461e-05 	0.000415247 	-0.288694
-0.000845345 	5.34461e-05 	0.000415247 	-0.288694
-0.000682232 	3.57297e-05 	0.000436546 	-0.289188
-0.000682232 	3.57297e-05 	0.000436546 	-0.289188
-0.000516194 	1.56012e-05 	0.000457671 	-0.289518
-0.000516194 	1.56012e-05 	0.000457671 	-0.289518
-0.000347178 	-5.80147e-06 	0.000480614 	-0.289669
-0.000347178 	-5.80147e-06 	0.000480614 	-0.289669
-0.000175132 	-2.7802e-05 	0.000501229 	-0.289626
-0.000175132 	-2.7802e-05 	0.000501229 	-0.289626
0 	-5.03038e-05 	0.000520964 	-0.289373
0 	-5.03038e-05 	0.000520964 	-0.289373
0 	-5.03038e-05 	0.000520964 	-0.289373
0 	-5.03038e-05 	0.000520964 	-0.289373
0.000175132 	-7.4442e-05 	0.000543235 	-0.288897
0.000175132 	0.00126525 	0.00455731 	-0.315209
0.000347178 	-0.000104157 	0.000563855 	-0.288196
0.000347178 	0.000791448 	0.00465153 	-0.313165
0.000516194 	-0.000138204 	0.000585492 	-0.287312
0.000516194 	0.000273111 	0.00474161 	-0.310745
0.000682232 	-0.000162662 	0.000606423 	-0.286336
0.000682232 	-0.000209943 	0.0048196 	-0.308591
0.000845345 	-0.000164894 	0.000623362 	-0.285291
0.000845345 	-0.000616973 	0.00488234 	-0.30703
0.00100559 	-0.000140318 	0.000638606 	-0.284091
0.00100559 	-0.000980978 	0.00493894 	-0.305812
0.001163 	-9.57928e-05 	0.000651761 	-0.282714
0.001163 	-0.00131912 	0.0049891 	-0.304737
0.00131765 	-5.83932e-05 	0.000662698 	-0.281282
0.00131765 	-0.00162664 	0.00502695 	-0.303774
0.00146957 	-5.16984e-05 	0.00067223 	-0.279912
0.00146957 	-0.00191232 	0.00505063 	-0.302826
0.00161881 	-7.35447e-05 	0.000680542 	-0.278602
0.00161881 	-0.00219573 	0.0050616 	-0.301718
0.00176543 	-0.000109455 	0.000687582 	-0.277285
0.00176543 	-0.00248105 	0.00506311 	-0.300348
0.00190946 	-0.000148901 	0.000693625 	-0.275908
0.00190946 	-0.00275615 	0.00505814 	-0.298713
0.00205095 	-0.000187825 	0.000699165 	-0.274453
0.00205095 	-0.00300618 	0.00504882 	-0.296841
0.00218995 	-0.000225197 	0.000704392 	-0.272915
0.00218995 	-0.00322076 	0.00503484 	-0.294751
0.00232651 	-0.000260359 	0.000708919 	-0.271288
0.00232651 	-0.00339538 	0.00501422 	-0.292401
0.00246065 	-0.00029326 	0.000712968 	-0.269543
0.00246065 	-0.00353349 	0.0049896 	-0.289592
0.00259244 	-0.000325293 	0.000717202 	-0.267611
0.00259244 	-0.00364838 	0.00496469 	-0.285854
0.0027219 	-0.000357323 	0.000721396 	-0.265393
0.0027219 	-0.00375041 	0.00493911 	-0.280533
0.00284909 	-0.000387253 	0.000724281 	-0.262856
0.00284909 	-0.00383092 	0.00490954 	-0.273419
0.00297403 	-0.000411746 	0.000724777 	-0.26008
0.00297403 	-0.00387321 	0.00487338 	-0.265049
0.00309677 	-0.000428732 	0.000723039 	-0.257209
0.00309677 	-0.00386858 	0.00483259 	-0.256365
0.00321735 	-0.000437481 	0.000719549 	-0.254396
0.00321735 	-0.00381581 	0.00478838 	-0.248431
0.0033358 	-0.000438536 	0.000714255 	-0.25177
0.0033358 	-0.00371956 	0.00473803 	-0.242138
0.00345217 	-0.000434032 	0.000707227 	-0.24937
0.00345217 	-0.00359162 	0.00468034 	-0.237721
0.00356649 	-0.000426975 	0.000699178 	-0.247136
0.00356649 	-0.00344636 	0.0046175 	-0.234668
0.00367879 	-0.00041974 	0.000690805 	-0.244981
0.00367879 	-0.00329293 	0.00455244 	-0.232251
0.00378912 	-0.00313353 	0.00448665 	-0.229994
0.00378912 	-0.000413382 	0.000682263 	-0.242852
0.0038975 	-0.000407832 	0.000673283 	-0.240731
0.0038975 	-0.00296674 	0.00441818 	-0.227723
0.00400397 	-0.000402495 	0.000663565 	-0.238615
0.00400397 	-0.00279167 	0.00434427 	-0.225426
0.00410857 	-0.000396794 	0.000653116 	-0.236505
0.00410857 	-0.00260943 	0.0042665 	-0.223158
0.00421133 	-0.000390353 	0.000642103 	-0.234394
0.00421133 	-0.0024217 	0.00418808 	-0.220978
0.00431227 	-0.000382974 	0.000630618 	-0.232275
0.00431227 	-0.00222917 	0.00410817 	-0.218917
0.00441144 	-0.000374579 	0.000618634 	-0.230138
0.00441144 	-0.00202936 	0.00402239 	-0.21697
0.00450886 	-0.000365132 	0.000606097 	-0.227974
0.00450886 	-0.00181708 	0.00392881 	-0.215094
0.00460456 	-0.000354596 	0.000592966 	-0.225777
0.00460456 	-0.00158859 	0.00382985 	-0.21324
0.00469858 	-0.000342947 	0.00057917 	-0.223541
0.00469858 	-0.00134376 	0.00372823 	-0.21137
0.00479094 	-0.000330179 	0.000564666 	-0.221265
0.00479094 	-0.00108527 	0.00362531 	-0.209471
0.00488168 	-0.000316292 	0.000549456 	-0.218944
0.00488168 	-0.000816808 	0.00352137 	-0.207543
0.00497081 	-0.000301291 	0.000533579 	-0.216576
0.00497081 	-0.000541588 	0.00341566 	-0.2056
0.00505838 	-0.000285196 	0.000517087 	-0.214158
0.00505838 	-0.000261826 	0.0033073 	-0.20365
0.0051444 	-0.00026805 	0.000500035 	-0.211686
0.0051444 	2.09897e-05 	0.00319609 	-0.201702
0.00522891 	-0.000249913 	0.00048246 	-0.209156
0.00522891 	0.000305712 	0.00308237 	-0.199755
0.00531193 	0.0005913 	0.00296656 	-0.197801
0.00531193 	-0.000230854 	0.000464367 	-0.206561
0.00539348 	-0.000210947 	0.000445756 	-0.203898
0.00539348 	0.000876731 	0.00284907 	-0.195831
0.0054736 	-0.000190246 	0.000426629 	-0.201158
0.0054736 	0.00116113 	0.00273012 	-0.193832
0.00555231 	-0.000168791 	0.00040702 	-0.198337
0.00555231 	0.00144369 	0.00260986 	-0.191794
0.00562963 	-0.000146661 	0.000387007 	-0.195426
0.00562963 	0.00172337 	0.00248852 	-0.189711
0.00570559 	-0.000123971 	0.000366682 	-0.192418
0.00570559 	0.00199888 	0.00236639 	-0.187581
0.00578022 	-0.000100851 	0.000346142 	-0.189303
0.00578022 	0.00226881 	0.00224381 	-0.185398
0.00585352 	-7.74468e-05 	0.000325486 	-0.18607
0.00585352 	0.00253163 	0.00212109 	-0.183154
0.00592554 	-5.39104e-05 	0.000304821 	-0.182706
0.00592554 	0.00278569 	0.00199862 	-0.180839
0.00599629 	-3.03821e-05 	0.000284241 	-0.179191
0.00599629 	0.00302935 	0.00187687 	-0.178436
0.00606579 	0.00326101 	0.00175608 	-0.175925
0.00606579 	-6.97143e-06 	0.000263826 	-0.175503
0.00613406 	1.62262e-05 	0.000243652 	-0.171619
0.00613406 	0.00347886 	0.00163643 	-0.173284
0.00620114 	3.9075e-05 	0.000223814 	-0.167518
0.00620114 	0.00368082 	0.00151822 	-0.170484
0.00626703 	6.13698e-05 	0.000204437 	-0.163179
0.00626703 	0.00386449 	0.00140201 	-0.167486
0.00633176 	8.28429e-05 	0.000185631 	-0.158578
0.00633176 	0.00402703 	0.00128835 	-0.164246
0.00639535 	0.000103159 	0.00016749 	-0.153693
0.00639535 	0.00416514 	0.00117746 	-0.160716
0.00645783 	0.000121926 	0.000150104 	-0.148497
0.00645783 	0.00427497 	0.00106976 	-0.15684
0.0065192 	0.000138742 	0.000133549 	-0.142966
0.0065192 	0.0043526 	0.000966026 	-0.152567
0.00657949 	0.000153155 	0.000117889 	-0.137074
0.00657949 	0.00439442 	0.000866575 	-0.147844
0.00663871 	0.000164541 	0.000103174 	-0.130794
0.00663871 	0.00439647 	0.000771303 	-0.142625
0.0066969 	0.00017213 	8.9429e-05 	-0.124103
0.0066969 	0.00435433 	0.00068026 	-0.136865
0.00675406 	0.000175235 	7.66787e-05 	-0.116983
0.00675406 	0.0042637 	0.000594008 	-0.13052
0.00681021 	0.00017349 	6.49242e-05 	-0.109426
0.00681021 	0.00412098 	0.000513163 	-0.123552
0.00686537 	0.000166898 	5.41609e-05 	-0.101449
0.00686537 	0.00392454 	0.000437812 	-0.115948
0.00691956 	0.000155794 	4.44226e-05 	-0.0931073
0.00691956 	0.0036759 	0.000368157 	-0.107734
0.0069728 	0.000140848 	3.57292e-05 	-0.0844932
0.0069728 	0.00338025 	0.000304535 	-0.0989829
0.0070251 	0.000123062 	2.80757e-05 	-0.0757318
0.0070251 	0.0030467 	0.000247103 	-0.089821
0.00707647 	0.000103655 	2.14503e-05 	-0.0669653
0.00707647 	0.00268759 	0.000195982 	-0.0804144
0.00712695 	8.38939e-05 	1.58422e-05 	-0.0583302
0.00712695 	0.0023169 	0.000151268 	-0.0709398
0.00717653 	6.49174e-05 	1.12521e-05 	-0.0499341
0.00717653 	0.00194807 	0.000113048 	-0.0615461
0.00722524 	4.76459e-05 	7.66581e-06 	-0.0418433
0.00722524 	0.00159221 	8.129e-05 	-0.0523207
0.00727309 	3.28033e-05 	5.01705e-06 	-0.0340836
0.00727309 	0.00125738 	5.57382e-05 	-0.0432743
0.0073201 	2.10245e-05 	3.15463e-06 	-0.0266511
0.0073201 	0.00094897 	3.58767e-05 	-0.0343339
0.00736628 	1.30431e-05 	2.09398e-06 	-0.0195292
0.00736628 	0.000670826 	2.14084e-05 	-0.0253317
0.00741165 	8.4512e-06 	1.16251e-06 	-0.0127123
0.00741165 	0.000424115 	1.05269e-05 	-0.0162752
0.00745622 	4.68623e-06 	4.74291e-07 	-0.00620931
0.00745622 	0.000203518 	3.72361e-06 	-0.00765646
0.0075 	0 	0 	0
0.0075 	0 	0 	0
