0 	0 	0 	0
0 	0 	0 	0
0.00752508 	-0.000878894 	0.00158139 	-0.281419
0.00752508 	-0.000878894 	0.00158139 	-0.281419
0.00757525 	-0.000880403 	0.00158621 	-0.281321
0.00762542 	-0.000881911 	0.00159104 	-0.281222
0.00762542 	-0.000881911 	0.00159104 	-0.281222
0.00767559 	-0.000883434 	0.00159588 	-0.281124
0.00772575 	-0.000886559 	0.00160132 	-0.280977
0.00777592 	-0.000889685 	0.00160676 	-0.28083
0.00782609 	-0.00089281 	0.0016122 	-0.280684
0.00782609 	-0.00089281 	0.0016122 	-0.280684
0.00787625 	-0.000896774 	0.00161671 	-0.28051
0.00792642 	-0.000901347 	0.00162056 	-0.280318
0.00797659 	-0.00090592 	0.0016244 	-0.280126
0.00802676 	-0.000910756 	0.00162807 	-0.279923
0.00802676 	-0.000910756 	0.00162807 	-0.279923
0.00807692 	-0.000916582 	0.00163109 	-0.279685
0.00812709 	-0.000922408 	0.00163411 	-0.279446
0.00812709 	-0.000922408 	0.00163411 	-0.279446
0.00817726 	-0.000928234 	0.00163713 	-0.279208
0.00822742 	-0.000935102 	0.0016411 	-0.278925
0.00822742 	-0.000935102 	0.0016411 	-0.278925
0.00827759 	-0.000942084 	0.00164516 	-0.278637
0.00832776 	-0.000949067 	0.00164923 	-0.27835
0.00832776 	-0.000949067 	0.00164923 	-0.27835
0.00837793 	-0.000956732 	0.00165261 	-0.278027
0.00842809 	-0.000964766 	0.00165563 	-0.277686
0.00842809 	-0.000964766 	0.00165563 	-0.277686
0.00847826 	-0.0009728 	0.00165864 	-0.277345
0.00847826 	-0.0009728 	0.00165864 	-0.277345
0.00852843 	-0.000980998 	0.00166107 	-0.276979
0.00852843 	-0.000980998 	0.00166107 	-0.276979
0.0085786 	-0.000989393 	0.00166281 	-0.276584
0.0085786 	-0.000989393 	0.00166281 	-0.276584
0.00862876 	-0.000997787 	0.00166455 	-0.276189
0.00867893 	-0.00100561 	0.00166581 	-0.275779
0.00867893 	-0.00100561 	0.00166581 	-0.275779
0.0087291 	-0.0010122 	0.00166602 	-0.275337
0.00877926 	-0.00101879 	0.00166623 	-0.274895
0.00877926 	-0.00101879 	0.00166623 	-0.274895
0.00882943 	-0.00102444 	0.00166636 	-0.274438
0.0088796 	-0.00102701 	0.00166623 	-0.273935
0.0088796 	-0.00102701 	0.00166623 	-0.273935
0.00897993 	-0.00103149 	0.00166694 	-0.272907
0.00897993 	-0.00103149 	0.00166694 	-0.272907
0.0090301 	-0.00103087 	0.00167144 	-0.272301
0.00908027 	-0.00103024 	0.00167594 	-0.271695
0.00908027 	-0.00103024 	0.00167594 	-0.271695
0.00913043 	-0.00102947 	0.00168121 	-0.271062
0.0091806 	-0.00102822 	0.00168904 	-0.27034
0.0091806 	-0.00102822 	0.00168904 	-0.27034
0.00923077 	-0.00102697 	0.00169686 	-0.269619
0.00928094 	-0.00102626 	0.00170383 	-0.268882
0.00928094 	-0.00102626 	0.00170383 	-0.268882
0.0093311 	-0.00102676 	0.00170888 	-0.268111
0.00938127 	-0.00102726 	0.00171393 	-0.26734
0.00938127 	-0.00102726 	0.00171393 	-0.26734
0.00943144 	-0.00102928 	0.0017176 	-0.266592
0.00943144 	-0.00102928 	0.0017176 	-0.266592
0.00948161 	-0.00103323 	0.00171951 	-0.265874
0.00948161 	-0.00103323 	0.00171951 	-0.265874
0.00953177 	-0.00103718 	0.00172141 	-0.265156
0.00953177 	-0.00103718 	0.00172141 	-0.265156
0.00958194 	-0.00104229 	0.00172176 	-0.264501
0.00958194 	-0.00104229 	0.00172176 	-0.264501
0.00963211 	-0.00104812 	0.00172115 	-0.263886
0.00963211 	-0.00104812 	0.00172115 	-0.263886
0.00968227 	-0.00105395 	0.00172054 	-0.263271
0.00968227 	-0.00105395 	0.00172054 	-0.263271
0.00973244 	-0.00105839 	0.00171894 	-0.262713
0.00978261 	-0.00106259 	0.00171717 	-0.262164
0.00983278 	-0.00106637 	0.00171561 	-0.261616
0.00988294 	-0.00106719 	0.00171555 	-0.261072
0.00988294 	-0.00106719 	0.00171555 	-0.261072
0.00993311 	-0.00106801 	0.00171548 	-0.260528
0.00998328 	-0.0010673 	0.00171602 	-0.25997
0.00998328 	-0.0010673 	0.00171602 	-0.25997
0.0100334 	-0.00106475 	0.00171729 	-0.259396
0.0100334 	-0.00106475 	0.00171729 	-0.259396
0.0100836 	-0.00106221 	0.00171856 	-0.258822
0.0101338 	-0.00105738 	0.00171913 	-0.258215
0.0101338 	-0.00105738 	0.00171913 	-0.258215
0.0102341 	-0.00104616 	0.00171963 	-0.256975
0.0102341 	-0.00104616 	0.00171963 	-0.256975
0.0102843 	-0.00103837 	0.00171869 	-0.256321
0.0103344 	-0.00103059 	0.00171775 	-0.255667
0.0103344 	-0.00103059 	0.00171775 	-0.255667
0.0103846 	-0.0010207 	0.00171642 	-0.254995
0.0103846 	-0.0010207 	0.00171642 	-0.254995
0.0104348 	-0.00100994 	0.00171494 	-0.254317
0.0104849 	-0.000998412 	0.00171339 	-0.253636
0.0104849 	-0.000998412 	0.00171339 	-0.253636
0.0105351 	-0.00098415 	0.00171157 	-0.252944
0.0105853 	-0.000969887 	0.00170976 	-0.252253
0.0105853 	-0.000969887 	0.00170976 	-0.252253
0.0106355 	-0.000953277 	0.00170737 	-0.251538
0.0106856 	-0.000935971 	0.00170482 	-0.250817
0.0106856 	-0.000935971 	0.00170482 	-0.250817
0.0107358 	-0.000917957 	0.00170158 	-0.250077
0.0107358 	-0.000917957 	0.00170158 	-0.250077
0.010786 	-0.000898726 	0.00169714 	-0.249307
0.010786 	-0.000898726 	0.00169714 	-0.249307
0.0108361 	-0.000879485 	0.00169269 	-0.248536
0.0108361 	-0.000879485 	0.00169269 	-0.248536
0.0108863 	-0.000858776 	0.00168558 	-0.247723
0.0109365 	-0.000838067 	0.00167846 	-0.246909
0.0109365 	-0.000838067 	0.00167846 	-0.246909
0.0109866 	-0.000815709 	0.00167039 	-0.246082
0.0109866 	-0.000815709 	0.00167039 	-0.246082
0.0110368 	-0.0007926 	0.00166188 	-0.245249
0.011087 	-0.000767895 	0.00165363 	-0.244412
0.011087 	-0.000767895 	0.00165363 	-0.244412
0.0111371 	-0.000740877 	0.00164577 	-0.243571
0.0111873 	-0.000713079 	0.00163799 	-0.24273
0.0111873 	-0.000713079 	0.00163799 	-0.24273
0.0112375 	-0.000681464 	0.00163064 	-0.241883
0.0112876 	-0.000649848 	0.00162329 	-0.241036
0.0112876 	-0.000649848 	0.00162329 	-0.241036
0.0113378 	-0.00061423 	0.00161454 	-0.240183
0.011388 	-0.000578489 	0.00160575 	-0.239329
0.011388 	-0.000578489 	0.00160575 	-0.239329
0.0114883 	-0.000500585 	0.00158417 	-0.237597
0.0114883 	-0.000500585 	0.00158417 	-0.237597
0.0115385 	-0.000458929 	0.0015724 	-0.236712
0.0115886 	-0.000416197 	0.00156027 	-0.235819
0.0115886 	-0.000416197 	0.00156027 	-0.235819
0.0116388 	-0.000371399 	0.00154785 	-0.234907
0.011689 	-0.000325238 	0.00153525 	-0.233982
0.011689 	-0.000325238 	0.00153525 	-0.233982
0.0117391 	-0.00027721 	0.00152207 	-0.233038
0.0117893 	-0.000227682 	0.00150843 	-0.232078
0.0117893 	-0.000227682 	0.00150843 	-0.232078
0.0118395 	-0.000176305 	0.00149399 	-0.2311
0.0118896 	-0.000123367 	0.00147888 	-0.230106
0.0118896 	-0.000123367 	0.00147888 	-0.230106
0.0119398 	-6.83942e-05 	0.00146299 	-0.229089
0.0119398 	-6.83942e-05 	0.00146299 	-0.229089
0.01199 	-1.18575e-05 	0.0014465 	-0.228054
0.01199 	-1.18575e-05 	0.0014465 	-0.228054
0.0120401 	4.7099e-05 	0.00142937 	-0.22699
0.0120401 	4.7099e-05 	0.00142937 	-0.22699
0.0120903 	0.000107517 	0.00141185 	-0.225908
0.0120903 	0.000107517 	0.00141185 	-0.225908
0.0121405 	0.000170871 	0.00139383 	-0.224792
0.0121405 	0.000170871 	0.00139383 	-0.224792
0.0121906 	0.00023539 	0.00137561 	-0.223661
0.0121906 	0.00023539 	0.00137561 	-0.223661
0.0122408 	0.000303347 	0.00135659 	-0.222495
0.0122408 	0.000303347 	0.00135659 	-0.222495
0.012291 	0.000371953 	0.00133743 	-0.221322
0.012291 	0.000371953 	0.00133743 	-0.221322
0.0123411 	0.000444395 	0.00131677 	-0.220112
0.0123411 	0.000444395 	0.00131677 	-0.220112
0.0123913 	0.000517515 	0.00129579 	-0.218896
0.0123913 	0.000517515 	0.00129579 	-0.218896
0.0124415 	0.000593491 	0.00127342 	-0.217652
0.0124916 	0.000670842 	0.00125042 	-0.216392
0.0124916 	0.000670842 	0.00125042 	-0.216392
0.012592 	0.000831547 	0.00120208 	-0.213793
0.012592 	0.000831547 	0.00120208 	-0.213793
0.0126421 	0.000914013 	0.00117728 	-0.212462
0.0126923 	0.000999375 	0.00115192 	-0.21108
0.0126923 	0.000999375 	0.00115192 	-0.21108
0.0127425 	0.00108564 	0.00112634 	-0.209681
0.0127425 	0.00108564 	0.00112634 	-0.209681
0.0127926 	0.00117397 	0.00110023 	-0.208238
0.0128428 	0.00126387 	0.00107358 	-0.206757
0.0128428 	0.00126387 	0.00107358 	-0.206757
0.012893 	0.00135476 	0.00104661 	-0.205251
0.0129431 	0.00144787 	0.00101881 	-0.203676
0.0129431 	0.00144787 	0.00101881 	-0.203676
0.0129933 	0.00154173 	0.000990672 	-0.20207
0.0130435 	0.00163672 	0.000962033 	-0.200418
0.0130435 	0.00163672 	0.000962033 	-0.200418
0.0130936 	0.00173288 	0.000932723 	-0.198697
0.0131438 	0.00182953 	0.000903056 	-0.196935
0.0131438 	0.00182953 	0.000903056 	-0.196935
0.013194 	0.00192682 	0.000872849 	-0.195108
0.0132441 	0.0020243 	0.000842135 	-0.193203
0.0132441 	0.0020243 	0.000842135 	-0.193203
0.0132943 	0.00212173 	0.000811121 	-0.191244
0.0133445 	0.00221882 	0.00077973 	-0.189203
0.0133445 	0.00221882 	0.00077973 	-0.189203
0.0133946 	0.00231485 	0.000748027 	-0.18706
0.0134448 	0.00240976 	0.000716139 	-0.184841
0.0134448 	0.00240976 	0.000716139 	-0.184841
0.013495 	0.00250323 	0.000684063 	-0.182535
0.0135452 	0.00259329 	0.000651684 	-0.180076
0.0135452 	0.00259329 	0.000651684 	-0.180076
0.0136455 	0.00276435 	0.000586383 	-0.174821
0.0136455 	0.00276435 	0.000586383 	-0.174821
0.0136957 	0.00284358 	0.000553483 	-0.171978
0.0137458 	0.00291617 	0.000520533 	-0.168926
0.0137458 	0.00291617 	0.000520533 	-0.168926
0.013796 	0.00298265 	0.000487679 	-0.165694
0.0138462 	0.00304204 	0.00045503 	-0.16226
0.0138462 	0.00304204 	0.00045503 	-0.16226
0.0138963 	0.00309322 	0.000422716 	-0.1586
0.0138963 	0.00309322 	0.000422716 	-0.1586
0.0139465 	0.00313142 	0.000391024 	-0.154598
0.0139967 	0.00315763 	0.000359843 	-0.150298
0.0139967 	0.00315763 	0.000359843 	-0.150298
0.0140468 	0.00317031 	0.00032919 	-0.145681
0.0140468 	0.00317031 	0.00032919 	-0.145681
0.014097 	0.00316742 	0.000299135 	-0.140721
0.0141472 	0.00314658 	0.000269805 	-0.135389
0.0141973 	0.00310512 	0.00024138 	-0.129654
0.0141973 	0.00310512 	0.00024138 	-0.129654
0.0142475 	0.00303638 	0.000214213 	-0.12341
0.0142977 	0.00294203 	0.000188287 	-0.116692
0.0143478 	0.00282144 	0.000163768 	-0.10948
0.0143478 	0.00282144 	0.000163768 	-0.10948
0.014398 	0.00267482 	0.000140779 	-0.101775
0.014398 	0.00267482 	0.000140779 	-0.101775
0.0144482 	0.00250359 	0.000119391 	-0.0936045
0.0144983 	0.0023105 	9.96663e-05 	-0.0850298
0.0144983 	0.0023105 	9.96663e-05 	-0.0850298
0.0145485 	0.00209938 	8.16386e-05 	-0.0761492
0.0145987 	0.00187466 	6.52904e-05 	-0.0670894
0.0145987 	0.00187466 	6.52904e-05 	-0.0670894
0.0146488 	0.00164067 	5.05989e-05 	-0.057989
0.014699 	0.00140091 	3.75684e-05 	-0.0489745
0.014699 	0.00140091 	3.75684e-05 	-0.0489745
0.0147492 	0.00115777 	2.62304e-05 	-0.040141
0.0147993 	0.000912283 	1.67355e-05 	-0.0315463
0.0147993 	0.000912283 	1.67355e-05 	-0.0315463
0.0148495 	0.000663732 	8.91804e-06 	-0.0232261
0.0148495 	0.000663732 	8.91804e-06 	-0.0232261
0.0148997 	0.000416145 	3.57462e-06 	-0.0152128
0.0148997 	0.000416145 	3.57462e-06 	-0.0152128
0.0149498 	0.000189124 	8.80896e-07 	-0.00750236
0.0149498 	0.000189124 	8.80896e-07 	-0.00750236
0.015 	0 	0 	0
