-0.0075 	0 	0 	0
-0.0075 	-1.09465e-35 	-1.46452e-36 	1.84778e-31
-0.00745622 	-8.99184e-07 	-1.20301e-07 	0.0151784
-0.00745622 	-8.99184e-07 	-1.20301e-07 	0.0151784
-0.00741165 	-1.17083e-06 	-5.58858e-07 	0.0295696
-0.00741165 	-1.17083e-06 	-5.58858e-07 	0.0295696
-0.00736628 	-1.3108e-06 	-1.3543e-06 	0.0432643
-0.00736628 	-1.3108e-06 	-1.3543e-06 	0.0432643
-0.0073201 	-1.54481e-06 	-2.55017e-06 	0.0562854
-0.0073201 	-1.54481e-06 	-2.55017e-06 	0.0562854
-0.00727309 	-1.84482e-06 	-4.13042e-06 	0.0686574
-0.00727309 	-1.84482e-06 	-4.13042e-06 	0.0686574
-0.00722524 	-2.15788e-06 	-6.10974e-06 	0.0804011
-0.00722524 	-2.15788e-06 	-6.10974e-06 	0.0804011
-0.00717653 	-2.46507e-06 	-8.49554e-06 	0.0915253
-0.00717653 	-2.46507e-06 	-8.49554e-06 	0.0915253
-0.00712695 	-2.75889e-06 	-1.13062e-05 	0.102017
-0.00712695 	-2.75889e-06 	-1.13062e-05 	0.102017
-0.00707647 	-3.03529e-06 	-1.45772e-05 	0.111846
-0.00707647 	-3.03529e-06 	-1.45772e-05 	0.111846
-0.0070251 	-3.29107e-06 	-1.83652e-05 	0.120986
-0.0070251 	-3.29107e-06 	-1.83652e-05 	0.120986
-0.0069728 	-3.52347e-06 	-2.27423e-05 	0.129428
-0.0069728 	-3.52347e-06 	-2.27423e-05 	0.129428
-0.00691956 	-3.73029e-06 	-2.77822e-05 	0.137192
-0.00691956 	-3.73029e-06 	-2.77822e-05 	0.137192
-0.00686537 	-3.91004e-06 	-3.3551e-05 	0.144315
-0.00686537 	-3.91004e-06 	-3.3551e-05 	0.144315
-0.00681021 	-4.06195e-06 	-4.01165e-05 	0.150854
-0.00681021 	-4.06195e-06 	-4.01165e-05 	0.150854
-0.00675406 	-4.18575e-06 	-4.75494e-05 	0.156871
-0.00675406 	-4.18575e-06 	-4.75494e-05 	0.156871
-0.0066969 	-4.28131e-06 	-5.59138e-05 	0.162418
-0.0066969 	-4.28131e-06 	-5.59138e-05 	0.162418
-0.00663871 	-4.34884e-06 	-6.52536e-05 	0.167542
-0.00663871 	-4.34884e-06 	-6.52536e-05 	0.167542
-0.00657949 	-4.3895e-06 	-7.55716e-05 	0.172285
-0.00657949 	-4.3895e-06 	-7.55716e-05 	0.172285
-0.0065192 	-4.40517e-06 	-8.6834e-05 	0.176687
-0.0065192 	-4.40517e-06 	-8.6834e-05 	0.176687
-0.00645783 	-4.39793e-06 	-9.89909e-05 	0.180789
-0.00645783 	-4.39793e-06 	-9.89909e-05 	0.180789
-0.00639535 	-4.36969e-06 	-0.000111989 	0.184632
-0.00639535 	-4.36969e-06 	-0.000111989 	0.184632
-0.00633176 	-4.32203e-06 	-0.000125777 	0.188248
-0.00633176 	-4.32203e-06 	-0.000125777 	0.188248
-0.00626703 	-4.25634e-06 	-0.000140298 	0.191664
-0.00626703 	-4.25634e-06 	-0.000140298 	0.191664
-0.00620114 	-4.17405e-06 	-0.000155498 	0.194903
-0.00620114 	-4.17405e-06 	-0.000155498 	0.194903
-0.00613406 	-4.07654e-06 	-0.000171317 	0.197985
-0.00613406 	-4.07654e-06 	-0.000171317 	0.197985
-0.00606579 	-3.96533e-06 	-0.000187694 	0.20093
-0.00606579 	-3.96533e-06 	-0.000187694 	0.20093
-0.00599629 	-3.84196e-06 	-0.000204563 	0.203753
-0.00599629 	-3.84196e-06 	-0.000204563 	0.203753
-0.00592554 	-3.70768e-06 	-0.000221857 	0.20647
-0.00592554 	-3.70768e-06 	-0.000221857 	0.20647
-0.00585352 	-3.56319e-06 	-0.000239497 	0.209096
-0.00585352 	-3.56319e-06 	-0.000239497 	0.209096
-0.00578022 	-3.40884e-06 	-0.000257393 	0.211642
-0.00578022 	-3.40884e-06 	-0.000257393 	0.211642
-0.00570559 	-3.24492e-06 	-0.00027545 	0.214119
-0.00570559 	-3.24492e-06 	-0.00027545 	0.214119
-0.00562963 	-3.07173e-06 	-0.000293569 	0.216534
-0.00562963 	-3.07173e-06 	-0.000293569 	0.216534
-0.00555231 	-2.88954e-06 	-0.000311653 	0.218894
-0.00555231 	-2.88954e-06 	-0.000311653 	0.218894
-0.0054736 	-2.69853e-06 	-0.000329599 	0.221204
-0.0054736 	-2.69853e-06 	-0.000329599 	0.221204
-0.00539348 	-2.49879e-06 	-0.000347306 	0.22347
-0.00539348 	-2.49879e-06 	-0.000347306 	0.22347
-0.00531193 	-2.29035e-06 	-0.000364672 	0.225695
-0.00531193 	-2.29035e-06 	-0.000364672 	0.225695
-0.00522891 	-2.07315e-06 	-0.000381595 	0.227882
-0.00522891 	-2.07315e-06 	-0.000381595 	0.227882
-0.0051444 	-1.84704e-06 	-0.000397978 	0.230034
-0.0051444 	-1.84704e-06 	-0.000397978 	0.230034
-0.00505838 	-1.61178e-06 	-0.000413728 	0.23215
-0.00505838 	-1.61178e-06 	-0.000413728 	0.23215
-0.00497081 	-1.36702e-06 	-0.000428754 	0.234233
-0.00497081 	-1.36702e-06 	-0.000428754 	0.234233
-0.00488168 	-1.11233e-06 	-0.000442976 	0.236281
-0.00488168 	-1.11233e-06 	-0.000442976 	0.236281
-0.00479094 	-8.47207e-07 	-0.000456313 	0.238294
-0.00479094 	-8.47207e-07 	-0.000456313 	0.238294
-0.00469858 	-5.7111e-07 	-0.000468692 	0.240272
-0.00469858 	-5.7111e-07 	-0.000468692 	0.240272
-0.00460456 	-2.83448e-07 	-0.000480044 	0.242211
-0.00460456 	-2.83448e-07 	-0.000480044 	0.242211
-0.00450886 	1.64986e-08 	-0.000490318 	0.244111
-0.00450886 	1.64986e-08 	-0.000490318 	0.244111
-0.00441144 	3.29672e-07 	-0.000499493 	0.245971
-0.00441144 	3.29672e-07 	-0.000499493 	0.245971
-0.00431227 	6.57298e-07 	-0.000507582 	0.247787
-0.00431227 	6.57298e-07 	-0.000507582 	0.247787
-0.00421133 	1.00084e-06 	-0.00051463 	0.249558
-0.00421133 	1.00084e-06 	-0.00051463 	0.249558
-0.00410857 	1.36145e-06 	-0.000520706 	0.251281
-0.00410857 	1.36145e-06 	-0.000520706 	0.251281
-0.00400397 	1.73917e-06 	-0.000525896 	0.252956
-0.00400397 	1.73917e-06 	-0.000525896 	0.252956
-0.0038975 	2.13324e-06 	-0.00053029 	0.25458
-0.0038975 	2.13324e-06 	-0.00053029 	0.25458
-0.00378912 	2.54352e-06 	-0.000533971 	0.256159
-0.00378912 	2.54352e-06 	-0.000533971 	0.256159
-0.00367879 	2.9713e-06 	-0.000537008 	0.257693
-0.00367879 	2.9713e-06 	-0.000537008 	0.257693
-0.00356649 	3.41827e-06 	-0.000539458 	0.259182
-0.00356649 	3.41827e-06 	-0.000539458 	0.259182
-0.00345217 	3.88515e-06 	-0.000541375 	0.260624
-0.00345217 	3.88515e-06 	-0.000541375 	0.260624
-0.0033358 	4.37158e-06 	-0.000542816 	0.262018
-0.0033358 	4.37158e-06 	-0.000542816 	0.262018
-0.00321735 	4.87677e-06 	-0.000543845 	0.26336
-0.00321735 	4.87677e-06 	-0.000543845 	0.26336
-0.00309677 	5.3997e-06 	-0.000544527 	0.264649
-0.00309677 	5.3997e-06 	-0.000544527 	0.264649
-0.00297403 	5.9391e-06 	-0.000544933 	0.265882
-0.00297403 	5.9391e-06 	-0.000544933 	0.265882
-0.00284909 	6.49337e-06 	-0.000545135 	0.267057
-0.00284909 	6.49337e-06 	-0.000545135 	0.267057
-0.0027219 	7.06061e-06 	-0.000545205 	0.268171
-0.0027219 	7.06061e-06 	-0.000545205 	0.268171
-0.00259244 	7.63869e-06 	-0.000545214 	0.269221
-0.00259244 	7.63869e-06 	-0.000545214 	0.269221
-0.00246065 	8.2252e-06 	-0.000545229 	0.270206
-0.00246065 	8.2252e-06 	-0.000545229 	0.270206
-0.00232651 	8.81734e-06 	-0.000545308 	0.271123
-0.00232651 	8.81734e-06 	-0.000545308 	0.271123
-0.00218995 	9.41189e-06 	-0.0005455 	0.271971
-0.00218995 	9.41189e-06 	-0.0005455 	0.271971
-0.00205095 	1.00051e-05 	-0.000545841 	0.272747
-0.00205095 	1.00051e-05 	-0.000545841 	0.272747
-0.00190946 	1.05923e-05 	-0.000546353 	0.27345
-0.00190946 	1.05923e-05 	-0.000546353 	0.27345
-0.00176543 	1.1168e-05 	-0.000547042 	0.274078
-0.00176543 	1.1168e-05 	-0.000547042 	0.274078
-0.00161881 	1.17262e-05 	-0.000547897 	0.274633
-0.00161881 	1.17262e-05 	-0.000547897 	0.274633
-0.00146957 	1.226e-05 	-0.000548887 	0.275113
-0.00146957 	1.226e-05 	-0.000548887 	0.275113
-0.00131765 	1.27628e-05 	-0.000549969 	0.275519
-0.00131765 	1.27628e-05 	-0.000549969 	0.275519
-0.001163 	1.3227e-05 	-0.000551091 	0.27585
-0.001163 	1.3227e-05 	-0.000551091 	0.27585
-0.00100559 	1.3644e-05 	-0.000552194 	0.276107
-0.00100559 	1.3644e-05 	-0.000552194 	0.276107
-0.000845345 	1.40034e-05 	-0.000553264 	0.276288
-0.000845345 	1.40034e-05 	-0.000553264 	0.276288
-0.000682232 	1.42927e-05 	-0.00055421 	0.276393
-0.000682232 	1.42927e-05 	-0.00055421 	0.276393
-0.000516194 	1.44978e-05 	-0.000554921 	0.27642
-0.000516194 	1.44978e-05 	-0.000554921 	0.27642
-0.000347178 	1.46035e-05 	-0.000555412 	0.276366
-0.000347178 	1.46035e-05 	-0.000555412 	0.276366
-0.000175132 	1.45985e-05 	-0.000555495 	0.276231
-0.000175132 	1.45985e-05 	-0.000555495 	0.276231
0 	1.44775e-05 	-0.000555195 	0.276012
0 	1.44775e-05 	-0.000555195 	0.276012
0 	1.44775e-05 	-0.000555195 	0.276012
0 	1.44775e-05 	-0.000555195 	0.276012
0.000175132 	1.4239e-05 	-0.000554621 	0.27571
0.000175132 	1.72978e-05 	-0.000454848 	0.272439
0.000347178 	1.38927e-05 	-0.000553628 	0.275333
0.000347178 	1.84584e-05 	-0.000455807 	0.272129
0.000516194 	1.34503e-05 	-0.000552346 	0.274885
0.000516194 	1.94353e-05 	-0.000456493 	0.271741
0.000682232 	1.29241e-05 	-0.000550763 	0.27437
0.000682232 	2.02435e-05 	-0.000456853 	0.271281
0.000845345 	1.23313e-05 	-0.000548779 	0.273791
0.000845345 	2.09021e-05 	-0.000456854 	0.270751
0.00100559 	1.16871e-05 	-0.00054647 	0.273151
0.00100559 	2.14286e-05 	-0.000456527 	0.270157
0.001163 	1.10046e-05 	-0.000543853 	0.272452
0.001163 	2.1839e-05 	-0.000455875 	0.2695
0.00131765 	1.02949e-05 	-0.000540942 	0.271696
0.00131765 	2.21483e-05 	-0.000454906 	0.268784
0.00146957 	9.56749e-06 	-0.000537755 	0.270887
0.00146957 	2.23695e-05 	-0.000453629 	0.268012
0.00161881 	8.83048e-06 	-0.000534305 	0.270024
0.00161881 	2.25139e-05 	-0.000452053 	0.267184
0.00176543 	8.09059e-06 	-0.000530602 	0.269111
0.00176543 	2.2591e-05 	-0.000450184 	0.266304
0.00190946 	7.35338e-06 	-0.000526654 	0.268148
0.00190946 	2.26092e-05 	-0.000448028 	0.265372
0.00205095 	6.62342e-06 	-0.000522468 	0.267137
0.00205095 	2.25754e-05 	-0.000445588 	0.26439
0.00218995 	5.90438e-06 	-0.000518048 	0.266079
0.00218995 	2.24955e-05 	-0.000442865 	0.263361
0.00232651 	5.19919e-06 	-0.000513395 	0.264975
0.00232651 	2.23743e-05 	-0.00043986 	0.262283
0.00246065 	4.5102e-06 	-0.000508511 	0.263825
0.00246065 	2.22159e-05 	-0.000436569 	0.261159
0.00259244 	3.8393e-06 	-0.000503393 	0.262631
0.00259244 	2.20233e-05 	-0.000432989 	0.259989
0.0027219 	3.18795e-06 	-0.000498037 	0.261391
0.0027219 	2.1799e-05 	-0.000429113 	0.258773
0.00284909 	2.55727e-06 	-0.00049244 	0.260108
0.00284909 	2.1545e-05 	-0.000424932 	0.257513
0.00297403 	1.94803e-06 	-0.000486593 	0.25878
0.00297403 	2.12628e-05 	-0.000420435 	0.256208
0.00309677 	1.36079e-06 	-0.000480489 	0.257408
0.00309677 	2.09534e-05 	-0.000415609 	0.254859
0.00321735 	7.95895e-07 	-0.00047412 	0.255992
0.00321735 	2.06176e-05 	-0.000410437 	0.253464
0.0033358 	2.53572e-07 	-0.000467476 	0.25453
0.0033358 	2.02558e-05 	-0.000404906 	0.252025
0.00345217 	1.98684e-05 	-0.000399008 	0.250539
0.00345217 	-2.66037e-07 	-0.00046055 	0.253023
0.00356649 	-7.62838e-07 	-0.000453335 	0.25147
0.00356649 	1.94557e-05 	-0.000392748 	0.249006
0.00367879 	-1.2368e-06 	-0.000445818 	0.249869
0.00367879 	1.90185e-05 	-0.000386123 	0.247425
0.00378912 	-1.68799e-06 	-0.000437979 	0.24822
0.00378912 	1.85585e-05 	-0.000379117 	0.245798
0.0038975 	-2.11647e-06 	-0.000429794 	0.246521
0.0038975 	1.80778e-05 	-0.000371708 	0.244124
0.00400397 	-2.52238e-06 	-0.000421221 	0.244768
0.00400397 	1.75775e-05 	-0.000363835 	0.242396
0.00410857 	1.70571e-05 	-0.000355394 	0.240603
0.00410857 	-2.9064e-06 	-0.000412197 	0.242957
0.00421133 	-3.2699e-06 	-0.000402645 	0.24108
0.00421133 	1.65143e-05 	-0.000346275 	0.238732
0.00431227 	-3.61445e-06 	-0.000392481 	0.239131
0.00431227 	1.59459e-05 	-0.000336396 	0.236777
0.00441144 	-3.94101e-06 	-0.000381636 	0.237103
0.00441144 	1.53491e-05 	-0.000325714 	0.234733
0.00450886 	-4.24955e-06 	-0.000370078 	0.23499
0.00450886 	1.47215e-05 	-0.000314231 	0.232596
0.00460456 	-4.53982e-06 	-0.000357805 	0.232785
0.00460456 	1.40608e-05 	-0.000301989 	0.230364
0.00469858 	-4.81187e-06 	-0.000344836 	0.230485
0.00469858 	1.33654e-05 	-0.00028904 	0.228031
0.00479094 	-5.06604e-06 	-0.000331197 	0.228085
0.00479094 	1.26338e-05 	-0.000275443 	0.225595
0.00488168 	-5.3027e-06 	-0.00031692 	0.22558
0.00488168 	1.18645e-05 	-0.000261257 	0.22305
0.00497081 	-5.5222e-06 	-0.000302042 	0.222966
0.00497081 	1.10564e-05 	-0.000246549 	0.220392
0.00505838 	-5.72482e-06 	-0.000286617 	0.220239
0.00505838 	1.0209e-05 	-0.000231392 	0.217619
0.0051444 	-5.91077e-06 	-0.00027071 	0.217394
0.0051444 	9.32172e-06 	-0.000215875 	0.214726
0.00522891 	-6.08021e-06 	-0.000254402 	0.214428
0.00522891 	8.39497e-06 	-0.0002001 	0.21171
0.00531193 	-6.23324e-06 	-0.000237792 	0.211339
0.00531193 	7.42957e-06 	-0.000184185 	0.208569
0.00539348 	-6.36987e-06 	-0.000220994 	0.208122
0.00539348 	6.42702e-06 	-0.000168263 	0.205301
0.0054736 	-6.49008e-06 	-0.000204131 	0.204775
0.0054736 	5.38942e-06 	-0.000152477 	0.201904
0.00555231 	-6.59377e-06 	-0.000187338 	0.201294
0.00555231 	4.31941e-06 	-0.000136971 	0.198376
0.00562963 	-6.6808e-06 	-0.000170748 	0.197675
0.00562963 	3.22015e-06 	-0.000121888 	0.194715
0.00570559 	-6.75095e-06 	-0.000154496 	0.193915
0.00570559 	2.09527e-06 	-0.000107363 	0.190918
0.00578022 	-6.80392e-06 	-0.000138707 	0.190007
0.00578022 	9.48886e-07 	-9.35172e-05 	0.18698
0.00585352 	-6.83937e-06 	-0.000123499 	0.185947
0.00585352 	-2.14382e-07 	-8.04544e-05 	0.182898
0.00592554 	-6.85689e-06 	-0.000108975 	0.181728
0.00592554 	-1.38941e-06 	-6.82599e-05 	0.178666
0.00599629 	-6.85604e-06 	-9.5225e-05 	0.177342
0.00599629 	-2.57051e-06 	-5.69976e-05 	0.174277
0.00606579 	-6.83646e-06 	-8.23226e-05 	0.17278
0.00606579 	-3.75148e-06 	-4.67116e-05 	0.169722
0.00613406 	-6.79792e-06 	-7.03308e-05 	0.168032
0.00613406 	-4.9256e-06 	-3.74274e-05 	0.164989
0.00620114 	-6.0858e-06 	-2.91527e-05 	0.160063
0.00620114 	-6.74e-06 	-5.9298e-05 	0.16308
0.00626703 	-6.66188e-06 	-4.92602e-05 	0.157908
0.00626703 	-7.22404e-06 	-2.18842e-05 	0.154926
0.00633176 	-8.33039e-06 	-1.56088e-05 	0.149562
0.00633176 	-6.56257e-06 	-4.02458e-05 	0.152498
0.00639535 	-9.39316e-06 	-1.02984e-05 	0.143956
0.00639535 	-6.4413e-06 	-3.22669e-05 	0.146836
0.00645783 	-6.29754e-06 	-2.53144e-05 	0.140905
0.00645783 	-1.03993e-05 	-5.9074e-06 	0.138091
0.0065192 	-6.13081e-06 	-1.93635e-05 	0.134689
0.0065192 	-1.13342e-05 	-2.3776e-06 	0.13195
0.00657949 	-5.94069e-06 	-1.43753e-05 	0.128169
0.00657949 	-1.21815e-05 	3.5891e-07 	0.125516
0.00663871 	-5.72734e-06 	-1.02979e-05 	0.12133
0.00663871 	-1.29237e-05 	2.37644e-06 	0.118772
0.0066969 	-5.49178e-06 	-7.0527e-06 	0.114154
0.0066969 	-1.35419e-05 	3.75994e-06 	0.111697
0.00675406 	-1.40162e-05 	4.59897e-06 	0.104256
0.00675406 	-5.23437e-06 	-4.54679e-06 	0.106609
0.00681021 	-1.43244e-05 	4.98354e-06 	0.0964217
0.00681021 	-4.9539e-06 	-2.67896e-06 	0.0986601
0.00686537 	-1.44415e-05 	5.00326e-06 	0.088209
0.00686537 	-4.64903e-06 	-1.35248e-06 	0.0903163
0.00691956 	-1.43432e-05 	4.74461e-06 	0.0796841
0.00691956 	-4.31973e-06 	-4.82576e-07 	0.0816414
0.0069728 	-1.40126e-05 	4.293e-06 	0.0709643
0.0069728 	-3.96751e-06 	2.40617e-08 	0.0727523
0.0070251 	-3.59484e-06 	2.63871e-07 	0.0638176
0.0070251 	-1.34444e-05 	3.72833e-06 	0.0622149
0.00707647 	-3.20485e-06 	3.28577e-07 	0.0550378
0.00707647 	-1.26484e-05 	3.11908e-06 	0.0536298
0.00712695 	-2.80163e-06 	2.96066e-07 	0.046611
0.00712695 	-1.16493e-05 	2.51807e-06 	0.0453984
0.00717653 	-2.39072e-06 	2.2341e-07 	0.038694
0.00717653 	-1.04821e-05 	1.96006e-06 	0.0376698
0.00722524 	-1.97979e-06 	1.44999e-07 	0.0313799
0.00722524 	-9.18466e-06 	1.46337e-06 	0.0305322
0.00727309 	-7.79382e-06 	1.03557e-06 	0.0240166
0.00727309 	-1.58034e-06 	7.71704e-08 	0.024701
0.0073201 	-6.3449e-06 	6.7908e-07 	0.0181147
0.0073201 	-1.21208e-06 	2.64305e-08 	0.0186484
0.00736628 	-4.87744e-06 	3.87647e-07 	0.0127974
0.00736628 	-9.12951e-07 	-1.10546e-08 	0.0131916
0.00741165 	-6.8946e-07 	-2.20477e-08 	0.00829264
0.00741165 	-3.38522e-06 	1.82448e-07 	0.00802764
0.00745622 	-4.32831e-07 	-1.82309e-08 	0.00391332
0.00745622 	-1.77615e-06 	5.22996e-08 	0.00376855
0.0075 	0 	0 	0
0.0075 	0 	0 	0
