-0.0075 	0 	0 	0
-0.00745622 	-0.000542729 	1.80382e-06 	-0.00930614
-0.00741165 	-0.00107233 	5.33616e-06 	-0.0185442
-0.00736628 	-0.00158931 	1.04623e-05 	-0.0278959
-0.0073201 	-0.00208421 	1.66414e-05 	-0.0374072
-0.00727309 	-0.00255207 	2.52407e-05 	-0.0470063
-0.00722524 	-0.0029909 	3.55938e-05 	-0.056585
-0.00717653 	-0.00339911 	4.7844e-05 	-0.0660437
-0.00712695 	-0.00377567 	6.19301e-05 	-0.0752913
-0.00707647 	-0.00412009 	7.78024e-05 	-0.0842458
-0.0070251 	-0.00443248 	9.54638e-05 	-0.0928419
-0.0069728 	-0.00471392 	0.000114711 	-0.10104
-0.00691956 	-0.00496668 	0.000135406 	-0.10883
-0.00686537 	-0.00519365 	0.000157518 	-0.116228
-0.00681021 	-0.00539742 	0.000181154 	-0.12326
-0.00675406 	-0.0055802 	0.000206399 	-0.129959
-0.0066969 	-0.00574377 	0.000233028 	-0.136352
-0.00663871 	-0.00588955 	0.00026087 	-0.142455
-0.00657949 	-0.00601887 	0.000289907 	-0.148286
-0.0065192 	-0.00613297 	0.000320076 	-0.153858
-0.00645783 	-0.00623298 	0.00035131 	-0.159187
-0.00639535 	-0.00631991 	0.00038354 	-0.164285
-0.00633176 	-0.00639465 	0.000416687 	-0.169165
-0.00626703 	-0.00645803 	0.000450676 	-0.173837
-0.00620114 	-0.00651078 	0.000485436 	-0.17831
-0.00613406 	-0.00655354 	0.000520896 	-0.182595
-0.00606579 	-0.00658689 	0.000556935 	-0.186698
-0.00599629 	-0.00661144 	0.000593418 	-0.190627
-0.00592554 	-0.00662783 	0.000630309 	-0.194392
-0.00585352 	-0.00663686 	0.000667638 	-0.197997
-0.00578022 	-0.00663948 	0.000705392 	-0.201448
-0.00570559 	-0.00663658 	0.000743653 	-0.204743
-0.00562963 	-0.00662869 	0.00078252 	-0.207885
-0.00555231 	-0.00661576 	0.000821563 	-0.210881
-0.0054736 	-0.00659743 	0.000860124 	-0.213744
-0.00539348 	-0.00657331 	0.000898293 	-0.216491
-0.00531193 	-0.00654333 	0.000936723 	-0.219133
-0.00522891 	-0.00650782 	0.000975635 	-0.221674
-0.0051444 	-0.00646703 	0.00101475 	-0.224119
-0.00505838 	-0.00642107 	0.00105392 	-0.22647
-0.00497081 	-0.00637007 	0.00109321 	-0.22873
-0.00488168 	-0.00631441 	0.00113264 	-0.230899
-0.00479094 	-0.00625453 	0.00117216 	-0.232981
-0.00469858 	-0.00619088 	0.00121171 	-0.234984
-0.00460456 	-0.00612365 	0.00125125 	-0.236917
-0.00450886 	-0.00605257 	0.00129086 	-0.238793
-0.00441144 	-0.005977 	0.0013306 	-0.240623
-0.00431227 	-0.00589634 	0.00137046 	-0.242411
-0.00421133 	-0.00581057 	0.00141041 	-0.244149
-0.00410857 	-0.00572054 	0.00145043 	-0.245821
-0.00400397 	-0.00562749 	0.0014905 	-0.247417
-0.0038975 	-0.00553233 	0.00153064 	-0.248942
-0.00378912 	-0.00543504 	0.00157089 	-0.250411
-0.00367879 	-0.00533513 	0.00161141 	-0.251834
-0.00356649 	-0.00523215 	0.00165235 	-0.253219
-0.00345217 	-0.00512596 	0.00169365 	-0.254567
-0.0033358 	-0.00501647 	0.00173505 	-0.255878
-0.00321735 	-0.00490349 	0.00177638 	-0.257158
-0.00309677 	-0.00478668 	0.0018177 	-0.25841
-0.00297403 	-0.0046656 	0.00185923 	-0.259638
-0.00284909 	-0.00453982 	0.00190129 	-0.260843
-0.0027219 	-0.00440895 	0.00194413 	-0.262024
-0.00259244 	-0.00427264 	0.00198769 	-0.26318
-0.00246065 	-0.00413056 	0.0020317 	-0.264308
-0.00232651 	-0.00398239 	0.00207599 	-0.265407
-0.00218995 	-0.00382789 	0.00212053 	-0.266475
-0.00205095 	-0.00366703 	0.00216532 	-0.267509
-0.00190946 	-0.0035001 	0.0022106 	-0.268507
-0.00176543 	-0.00332716 	0.00225689 	-0.269464
-0.00161881 	-0.00314741 	0.00230462 	-0.270372
-0.00146957 	-0.00295921 	0.00235355 	-0.271226
-0.00131765 	-0.00276048 	0.0024023 	-0.272019
-0.001163 	-0.00254844 	0.0024492 	-0.272754
-0.00100559 	-0.00231998 	0.0024938 	-0.273439
-0.000845345 	-0.00207291 	0.0025352 	-0.274084
-0.000682232 	-0.00180603 	0.00257524 	-0.274692
-0.000516194 	-0.00151863 	0.00261569 	-0.275264
-0.000347178 	-0.0012105 	0.0026548 	-0.275798
-0.000175132 	-0.000882603 	0.00269728 	-0.276292
0 	-0.000536605 	0.00273841 	-0.276735
0.000175132 	-0.000177131 	0.00277068 	-0.277114
0.000347178 	0.000188407 	0.0027979 	-0.277427
0.000516194 	0.00055621 	0.00281766 	-0.277678
0.000682232 	0.000925135 	0.00283084 	-0.277871
0.000845345 	0.00129326 	0.00284006 	-0.278005
0.00100559 	0.00165862 	0.00284335 	-0.278078
0.001163 	0.00201942 	0.0028408 	-0.278089
0.00131765 	0.00237389 	0.00283268 	-0.278038
0.00146957 	0.00272038 	0.00281926 	-0.277926
0.00161881 	0.00305725 	0.00280061 	-0.277751
0.00176543 	0.00338302 	0.00277659 	-0.277516
0.00190946 	0.00369632 	0.00274725 	-0.277221
0.00205095 	0.00399592 	0.00271289 	-0.276867
0.00218995 	0.00428075 	0.00267393 	-0.276456
0.00232651 	0.00454989 	0.00263084 	-0.275988
0.00246065 	0.00480261 	0.00258407 	-0.275463
0.00259244 	0.0050384 	0.00253398 	-0.274881
0.0027219 	0.00525685 	0.00248088 	-0.27424
0.00284909 	0.00545731 	0.00242518 	-0.273542
0.00297403 	0.00563889 	0.00236731 	-0.272786
0.00309677 	0.00580165 	0.0023077 	-0.27197
0.00321735 	0.00594732 	0.00224648 	-0.271094
0.0033358 	0.00607878 	0.00218349 	-0.270157
0.00345217 	0.00619809 	0.00211873 	-0.269159
0.00356649 	0.00630527 	0.00205249 	-0.268097
0.00367879 	0.00639892 	0.00198519 	-0.266972
0.00378912 	0.00647764 	0.00191709 	-0.265785
0.0038975 	0.0065411 	0.00184838 	-0.264536
0.00400397 	0.00658987 	0.00177937 	-0.263224
0.00410857 	0.00662469 	0.00171047 	-0.261849
0.00421133 	0.00664636 	0.00164198 	-0.26041
0.00431227 	0.00665559 	0.00157414 	-0.258902
0.00441144 	0.00665312 	0.0015071 	-0.257323
0.00450886 	0.00663967 	0.00144096 	-0.255669
0.00460456 	0.00661603 	0.00137569 	-0.253938
0.00469858 	0.00658298 	0.00131116 	-0.252128
0.00479094 	0.00654132 	0.0012472 	-0.250238
0.00488168 	0.00649189 	0.00118392 	-0.248268
0.00497081 	0.00643553 	0.00112159 	-0.246215
0.00505838 	0.00637305 	0.00106053 	-0.244077
0.0051444 	0.00630522 	0.00100094 	-0.241849
0.00522891 	0.00623278 	0.000942939 	-0.239529
0.00531193 	0.00615643 	0.000886564 	-0.23711
0.00539348 	0.00607687 	0.000831864 	-0.234588
0.0054736 	0.00599474 	0.000778893 	-0.231953
0.00555231 	0.00591059 	0.000727847 	-0.229197
0.00562963 	0.00582491 	0.000678297 	-0.226308
0.00570559 	0.00573807 	0.000629893 	-0.223271
0.00578022 	0.00564963 	0.000583414 	-0.220077
0.00585352 	0.00555839 	0.000538768 	-0.216716
0.00592554 	0.00546359 	0.000495523 	-0.213176
0.00599629 	0.00536559 	0.000453833 	-0.209436
0.00606579 	0.00526557 	0.000414103 	-0.205477
0.00613406 	0.00516451 	0.000377221 	-0.201276
0.00620114 	0.00506188 	0.000342869 	-0.196811
0.00626703 	0.00495628 	0.000309767 	-0.192057
0.00633176 	0.00484649 	0.000277457 	-0.186991
0.00639535 	0.00473143 	0.000246516 	-0.18159
0.00645783 	0.00460994 	0.000217567 	-0.175826
0.0065192 	0.00448052 	0.000190546 	-0.169672
0.00657949 	0.00434114 	0.000165251 	-0.1631
0.00663871 	0.00418923 	0.000141844 	-0.156081
0.0066969 	0.00402078 	0.000120615 	-0.148586
0.00675406 	0.00382998 	0.000101174 	-0.140583
0.00681021 	0.00361195 	8.28356e-05 	-0.132036
0.00686537 	0.00336492 	6.59985e-05 	-0.122927
0.00691956 	0.00309204 	5.19236e-05 	-0.113267
0.0069728 	0.00280151 	4.11321e-05 	-0.103106
0.0070251 	0.00250348 	3.26077e-05 	-0.092546
0.00707647 	0.00220785 	2.51282e-05 	-0.0817537
0.00712695 	0.00192205 	1.83782e-05 	-0.0709435
0.00717653 	0.00164722 	1.21479e-05 	-0.0603415
0.00722524 	0.0013756 	6.33721e-06 	-0.0501389
0.00727309 	0.00108965 	1.17064e-06 	-0.0404559
0.0073201 	0.000760036 	-2.99874e-06 	-0.0313392
0.00736628 	0.000338523 	-4.67522e-06 	-0.0227839
0.00741165 	-9.36491e-05 	-4.42465e-06 	-0.0147581
0.00745622 	-0.000252693 	-3.07401e-06 	-0.00720475
0.0075 	0 	0 	0
