
400
(
(0 0 0)
(3.59787e-20 1.69842e-21 -1.96664e-18)
(0.000232466 1.09739e-05 -0.0127068)
(0.000316609 -0.000364666 -0.0172954)
(0.000503256 -3.68142e-06 -0.0254835)
(0.000998686 0.00044329 -0.0389328)
(0.000792749 -3.97697e-05 -0.0379025)
(0.00187355 -0.000467181 -0.0592416)
(0.00106716 -9.85687e-06 -0.0497627)
(0.00270538 0.000225433 -0.0776637)
(0.001318 -5.57774e-05 -0.0611062)
(0.00343084 -0.000194395 -0.0944763)
(0.00154848 -6.31174e-05 -0.0719829)
(0.00408921 -9.57069e-05 -0.109947)
(0.00175996 -8.5914e-05 -0.0824018)
(0.00468769 -0.000168202 -0.124201)
(0.00195332 -0.000109025 -0.0923522)
(0.00523041 -0.000216597 -0.137344)
(0.00212918 -0.000133961 -0.101811)
(0.00571944 -0.000277177 -0.149441)
(0.00228818 -0.000159828 -0.110753)
(0.0061563 -0.000339964 -0.160534)
(0.00243107 -0.000186697 -0.119166)
(0.00654269 -0.000407566 -0.170668)
(0.00255886 -0.000214344 -0.127056)
(0.00688097 -0.000478974 -0.179901)
(0.00267282 -0.000242576 -0.134454)
(0.00717443 -0.000554077 -0.188332)
(0.00277452 -0.000271186 -0.141406)
(0.0074269 -0.000632456 -0.196067)
(0.00286571 -0.0003 -0.147954)
(0.00764331 -0.000713634 -0.203181)
(0.0029479 -0.000328949 -0.154136)
(0.00782789 -0.000797351 -0.209741)
(0.00302226 -0.000357967 -0.159987)
(0.00798408 -0.000883455 -0.215804)
(0.00308966 -0.000386935 -0.16554)
(0.00811496 -0.000971787 -0.221417)
(0.00315078 -0.000415739 -0.170819)
(0.00822327 -0.00106194 -0.226622)
(0.0032063 -0.000444287 -0.175848)
(0.00831163 -0.00115354 -0.231467)
(0.00325682 -0.000472512 -0.180649)
(0.00838228 -0.00124637 -0.235992)
(0.00330284 -0.000500362 -0.185239)
(0.008437 -0.00134016 -0.240231)
(0.00334479 -0.000527799 -0.189635)
(0.00847746 -0.00143466 -0.244219)
(0.00338301 -0.000554794 -0.193851)
(0.0085051 -0.00152965 -0.247985)
(0.00341776 -0.000581331 -0.197899)
(0.00852093 -0.00162492 -0.251553)
(0.0034493 -0.000607404 -0.20179)
(0.00852598 -0.00172029 -0.254947)
(0.00347784 -0.000633024 -0.205534)
(0.00852117 -0.00181558 -0.258184)
(0.00350351 -0.000658213 -0.209138)
(0.00850707 -0.00191069 -0.261277)
(0.00352639 -0.000682995 -0.21261)
(0.00848418 -0.00200547 -0.264242)
(0.00354652 -0.00070741 -0.215955)
(0.00845298 -0.00209984 -0.267084)
(0.00356392 -0.000731504 -0.219175)
(0.00841372 -0.00219374 -0.269813)
(0.00357858 -0.000755333 -0.222276)
(0.00836685 -0.00228709 -0.272436)
(0.00359046 -0.000778968 -0.225258)
(0.00831235 -0.00237984 -0.274958)
(0.00359953 -0.000802487 -0.228126)
(0.00825066 -0.00247194 -0.277382)
(0.00360571 -0.000825967 -0.230882)
(0.00818167 -0.0025634 -0.279713)
(0.00360896 -0.000849488 -0.23353)
(0.00810572 -0.00265421 -0.281956)
(0.00360923 -0.000873139 -0.236073)
(0.00802296 -0.00274444 -0.284116)
(0.00360649 -0.000896955 -0.23851)
(0.00793376 -0.00283418 -0.286189)
(0.00360071 -0.000920954 -0.24084)
(0.00783874 -0.00292323 -0.28816)
(0.00359171 -0.000945119 -0.243056)
(0.00773832 -0.00301169 -0.290004)
(0.00357916 -0.000969476 -0.245159)
(0.0076326 -0.00309932 -0.291703)
(0.00356282 -0.00099419 -0.247155)
(0.00752087 -0.00318676 -0.293284)
(0.00354284 -0.00101926 -0.249049)
(0.00740346 -0.00327477 -0.294775)
(0.00351955 -0.00104458 -0.250843)
(0.00728084 -0.0033625 -0.296191)
(0.00349325 -0.00107036 -0.252544)
(0.0071527 -0.00345009 -0.297538)
(0.00346401 -0.00109686 -0.254159)
(0.00701928 -0.00353797 -0.298811)
(0.00343126 -0.00112399 -0.255704)
(0.00688075 -0.00362614 -0.300004)
(0.00339378 -0.00115154 -0.257192)
(0.00673795 -0.00371525 -0.301097)
(0.00335012 -0.0011792 -0.258632)
(0.00659094 -0.0038057 -0.302072)
(0.00329958 -0.00120665 -0.260024)
(0.00643955 -0.00389622 -0.302913)
(0.00324275 -0.00123391 -0.261365)
(0.0062833 -0.00398543 -0.303654)
(0.00318095 -0.00126137 -0.262671)
(0.00612091 -0.00407353 -0.30441)
(0.00311558 -0.00129012 -0.263957)
(0.00594992 -0.00416209 -0.305332)
(0.0030481 -0.00132018 -0.265202)
(0.00577059 -0.00425626 -0.306439)
(0.00298095 -0.00135029 -0.266339)
(0.00558806 -0.0043496 -0.307467)
(0.00291496 -0.00138063 -0.267338)
(0.00541675 -0.00444008 -0.308126)
(0.00284661 -0.00141118 -0.268228)
(0.00525119 -0.00453341 -0.308479)
(0.0027734 -0.0014418 -0.26904)
(0.00507432 -0.0046248 -0.308663)
(0.00269645 -0.00147333 -0.269789)
(0.00488976 -0.0047191 -0.308741)
(0.00261681 -0.00150554 -0.270478)
(0.00470284 -0.00481784 -0.308729)
(0.00253483 -0.00153797 -0.271103)
(0.00451219 -0.00491697 -0.308627)
(0.00245089 -0.00157061 -0.271662)
(0.00431732 -0.00501765 -0.308445)
(0.00236517 -0.00160325 -0.272153)
(0.00411786 -0.00511905 -0.308183)
(0.00227768 -0.00163581 -0.272578)
(0.00391378 -0.00522082 -0.307847)
(0.00218843 -0.00166825 -0.272934)
(0.0037052 -0.00532277 -0.307434)
(0.00209744 -0.00170052 -0.273222)
(0.00349211 -0.0054248 -0.306951)
(0.0020047 -0.00173243 -0.27344)
(0.00327439 -0.00552678 -0.306395)
(0.00191006 -0.00176393 -0.273586)
(0.00305173 -0.00562862 -0.305775)
(0.00181311 -0.00179541 -0.273662)
(0.00282357 -0.00572999 -0.305093)
(0.00171305 -0.00182748 -0.273672)
(0.00258929 -0.00583011 -0.304352)
(0.00160859 -0.00186054 -0.273624)
(0.00234848 -0.00592774 -0.303552)
(0.00149823 -0.00189452 -0.273531)
(0.00210177 -0.00602211 -0.302687)
(0.00138053 -0.00192808 -0.273405)
(0.00185058 -0.0061129 -0.301745)
(0.00125419 -0.00196094 -0.273247)
(0.00159632 -0.00619513 -0.300711)
(0.00111827 -0.00199266 -0.273057)
(0.00133953 -0.00627203 -0.299579)
(0.000972539 -0.0020218 -0.27282)
(0.00108286 -0.00634727 -0.29833)
(0.000816686 -0.00204951 -0.27251)
(0.000830521 -0.00641549 -0.296907)
(0.000649831 -0.00207224 -0.272115)
(0.000582384 -0.00648129 -0.295252)
(0.000471424 -0.00209034 -0.27167)
(0.000335999 -0.00653611 -0.293444)
(0 0 0)
(0.000382924 1.78446e-06 -0.0109398)
(0.000753479 2.20242e-06 -0.021788)
(0.0011119 1.80715e-06 -0.03269)
(0.00144935 6.1955e-07 -0.0436426)
(0.0017615 -1.51857e-06 -0.0545547)
(0.00204725 -4.03309e-06 -0.065315)
(0.00230605 -6.83057e-06 -0.0758259)
(0.00253789 -9.8399e-06 -0.0860035)
(0.00274342 -1.30647e-05 -0.0957768)
(0.00292383 -1.64009e-05 -0.105094)
(0.00308082 -1.98811e-05 -0.113938)
(0.00321692 -2.35525e-05 -0.12232)
(0.00333486 -2.73935e-05 -0.130268)
(0.00343696 -3.13283e-05 -0.137809)
(0.00352525 -3.52685e-05 -0.144968)
(0.00360141 -3.92748e-05 -0.15177)
(0.00366681 -4.33652e-05 -0.15824)
(0.00372247 -4.75252e-05 -0.1644)
(0.00376926 -5.18271e-05 -0.170269)
(0.00380798 -5.63373e-05 -0.175864)
(0.00383933 -6.1121e-05 -0.1812)
(0.00386393 -6.62517e-05 -0.186291)
(0.00388231 -7.17909e-05 -0.191149)
(0.00389494 -7.7809e-05 -0.195786)
(0.00390221 -8.43974e-05 -0.20021)
(0.00390447 -9.16413e-05 -0.204432)
(0.0039021 -9.96016e-05 -0.208462)
(0.00389542 -0.0001083 -0.212308)
(0.00388466 -0.000117731 -0.215976)
(0.00387002 -0.000127878 -0.219472)
(0.00385167 -0.000138801 -0.222797)
(0.00382996 -0.000151152 -0.225951)
(0.0038057 -0.000165619 -0.228934)
(0.00377979 -0.000181238 -0.23175)
(0.00375246 -0.000196554 -0.234413)
(0.00372335 -0.000211908 -0.236936)
(0.00369207 -0.000228456 -0.239327)
(0.00365785 -0.000246556 -0.241593)
(0.00361992 -0.000266287 -0.243743)
(0.00357788 -0.000287861 -0.245787)
(0.00353153 -0.000310955 -0.24773)
(0.00348105 -0.000334811 -0.249574)
(0.00342687 -0.000359149 -0.251319)
(0.00336943 -0.000384251 -0.252966)
(0.00330907 -0.000410354 -0.254519)
(0.00324584 -0.000437497 -0.25599)
(0.00317916 -0.000465422 -0.257393)
(0.003108 -0.000493773 -0.258746)
(0.00303129 -0.0005224 -0.260058)
(0.00294869 -0.000551396 -0.261327)
(0.00286099 -0.000580977 -0.262534)
(0.00276972 -0.000611197 -0.263659)
(0.00267618 -0.000642035 -0.264694)
(0.00258075 -0.000673475 -0.265647)
(0.00248294 -0.000705394 -0.266533)
(0.00238208 -0.000737566 -0.267362)
(0.00227781 -0.000769666 -0.268135)
(0.00217017 -0.000801338 -0.268851)
(0.0020594 -0.000832317 -0.269507)
(0.00194598 -0.000862532 -0.270096)
(0.00183051 -0.000892136 -0.270613)
(0.00171362 -0.000921302 -0.271051)
(0.00159573 -0.000949428 -0.271406)
(0.00147714 -0.000978437 -0.271676)
(0.00135861 -0.00101577 -0.271863)
(0.00124044 -0.00105783 -0.271981)
(0.00112126 -0.00108101 -0.272033)
(0.00100242 -0.00107545 -0.271943)
(0.000893163 -0.0010703 -0.271551)
(0.000804486 -0.00108637 -0.270747)
(0.000732475 -0.00114068 -0.269712)
(0.000652591 -0.00121887 -0.268817)
(0.000547441 -0.00125623 -0.268193)
(0.000422967 -0.00125927 -0.267723)
(0.000288932 -0.00127389 -0.267299)
(0.000147697 -0.00129775 -0.266866)
(-1.7917e-06 -0.00132197 -0.266406)
(-0.000159462 -0.00134265 -0.265907)
(-0.000324552 -0.00136063 -0.26535)
(0 0 0)
(0.000302678 1.93081e-06 -0.0138314)
(0.000616632 5.09105e-06 -0.0267268)
(0.00092743 9.63534e-06 -0.0392685)
(0.00121913 1.49309e-05 -0.0516336)
(0.00148705 2.01513e-05 -0.0637367)
(0.00173069 2.5189e-05 -0.0754648)
(0.00194935 2.97422e-05 -0.0867449)
(0.00214272 3.35982e-05 -0.0975231)
(0.0023111 3.66248e-05 -0.107756)
(0.00245537 3.88391e-05 -0.117416)
(0.00257691 4.0137e-05 -0.126504)
(0.00267793 4.03655e-05 -0.135046)
(0.00276087 3.94065e-05 -0.143075)
(0.0028277 3.72298e-05 -0.150624)
(0.00288001 3.38691e-05 -0.157723)
(0.00291914 2.9244e-05 -0.164401)
(0.00294629 2.33145e-05 -0.170681)
(0.00296249 1.60759e-05 -0.176588)
(0.00296871 7.46854e-06 -0.182145)
(0.00296582 -2.54775e-06 -0.187373)
(0.00295453 -1.40009e-05 -0.192293)
(0.00293551 -2.69156e-05 -0.196926)
(0.00290937 -4.12945e-05 -0.201291)
(0.0028767 -5.71322e-05 -0.205406)
(0.00283805 -7.44335e-05 -0.209288)
(0.00279396 -9.3194e-05 -0.212955)
(0.00274494 -0.000113378 -0.216425)
(0.0026914 -0.000134912 -0.219711)
(0.00263367 -0.0001577 -0.222828)
(0.00257201 -0.00018163 -0.225784)
(0.00250668 -0.000206645 -0.228585)
(0.00243815 -0.000233273 -0.231234)
(0.00236731 -0.000262072 -0.233735)
(0.00229518 -0.000291943 -0.236096)
(0.00222209 -0.000321311 -0.238332)
(0.00214784 -0.0003504 -0.240459)
(0.00207219 -0.000380263 -0.242485)
(0.00199453 -0.000411179 -0.244416)
(0.00191432 -0.000443172 -0.246262)
(0.00183136 -0.000476443 -0.248033)
(0.00174572 -0.000510702 -0.249735)
(0.00165768 -0.000545236 -0.251372)
(0.00156765 -0.000579779 -0.252948)
(0.00147584 -0.000614606 -0.254464)
(0.00138235 -0.00064982 -0.255924)
(0.00128726 -0.000685312 -0.257329)
(0.00119066 -0.000721006 -0.25868)
(0.00109258 -0.000756848 -0.259979)
(0.000993045 -0.000792823 -0.261226)
(0.000892053 -0.000828931 -0.26242)
(0.000789559 -0.000865135 -0.263562)
(0.000685519 -0.000901362 -0.264653)
(0.00057991 -0.000937478 -0.265696)
(0.000472694 -0.000973324 -0.266691)
(0.000364051 -0.0010089 -0.267641)
(0.000254818 -0.00104417 -0.268557)
(0.00014581 -0.00107873 -0.269468)
(3.65725e-05 -0.00111226 -0.270404)
(-7.42375e-05 -0.00114514 -0.27135)
(-0.000187307 -0.001178 -0.272221)
(-0.00030172 -0.00121081 -0.272937)
(-0.000415896 -0.00124275 -0.2735)
(-0.000529192 -0.00127283 -0.273962)
(-0.000641795 -0.00130345 -0.274351)
(-0.000753646 -0.00134236 -0.274665)
(-0.000865031 -0.0013859 -0.274911)
(-0.000977527 -0.00141062 -0.275089)
(-0.00108975 -0.00140658 -0.275123)
(-0.00119212 -0.00140192 -0.274849)
(-0.00127263 -0.00141593 -0.274145)
(-0.00133325 -0.00146453 -0.273173)
(-0.00139586 -0.00153328 -0.272274)
(-0.00147535 -0.00155848 -0.27156)
(-0.00156375 -0.00154698 -0.270905)
(-0.00164962 -0.00154648 -0.270203)
(-0.0017291 -0.00155622 -0.269405)
(-0.00180199 -0.00156588 -0.268502)
(-0.00186762 -0.00157513 -0.267495)
(-0.00192554 -0.00158301 -0.266376)
(0 0 0)
(0.000152219 1.11202e-05 -0.0155985)
(0.000366409 -7.928e-07 -0.0304222)
(0.000608283 -3.19415e-05 -0.044481)
(0.000836939 4.45445e-06 -0.0577537)
(0.00104355 -3.41076e-05 -0.0702882)
(0.00123192 -3.38954e-05 -0.0821327)
(0.00140326 -4.93412e-05 -0.0933208)
(0.00155814 -6.5587e-05 -0.103872)
(0.00169686 -8.42717e-05 -0.11379)
(0.00181972 -0.000104588 -0.123075)
(0.00192716 -0.000126679 -0.131732)
(0.00201988 -0.000150426 -0.139781)
(0.00209883 -0.000175776 -0.147261)
(0.00216525 -0.000202628 -0.154221)
(0.00222047 -0.000230862 -0.160708)
(0.00226563 -0.00026043 -0.166766)
(0.00230174 -0.000291288 -0.172429)
(0.00232967 -0.000323334 -0.177729)
(0.00235023 -0.000356443 -0.182695)
(0.00236414 -0.000390497 -0.187357)
(0.00237202 -0.000425392 -0.191742)
(0.00237442 -0.000461026 -0.195874)
(0.00237185 -0.000497302 -0.199777)
(0.00236477 -0.000534117 -0.203471)
(0.0023536 -0.000571367 -0.206977)
(0.00233879 -0.000608957 -0.210313)
(0.00232067 -0.000646801 -0.213496)
(0.00229949 -0.000684824 -0.216542)
(0.0022754 -0.000722965 -0.219462)
(0.00224851 -0.000761162 -0.222267)
(0.00221894 -0.000799348 -0.224963)
(0.00218677 -0.000837455 -0.227559)
(0.00215208 -0.00087542 -0.23006)
(0.00211492 -0.000913191 -0.232472)
(0.00207535 -0.000950723 -0.234801)
(0.00203345 -0.00098798 -0.237053)
(0.00198935 -0.00102495 -0.23923)
(0.00194318 -0.00106158 -0.241334)
(0.0018951 -0.00109784 -0.243359)
(0.0018452 -0.0011337 -0.245302)
(0.00179335 -0.00116922 -0.247163)
(0.00173945 -0.00120461 -0.248952)
(0.00168362 -0.00123989 -0.250677)
(0.00162595 -0.00127493 -0.252341)
(0.00156652 -0.00130983 -0.253948)
(0.00150544 -0.00134467 -0.255498)
(0.00144275 -0.00137957 -0.256991)
(0.00137835 -0.00141461 -0.258426)
(0.00131187 -0.00144963 -0.2598)
(0.00124294 -0.00148418 -0.261116)
(0.00117131 -0.00151807 -0.262393)
(0.00109675 -0.00155153 -0.263665)
(0.00101931 -0.00158556 -0.264959)
(0.00094004 -0.00162003 -0.266246)
(0.000862058 -0.00165379 -0.267447)
(0.000787699 -0.00168724 -0.268534)
(0.000714601 -0.00172025 -0.269561)
(0.000639809 -0.00175272 -0.270593)
(0.000562809 -0.00178615 -0.271633)
(0.000483518 -0.00182101 -0.272603)
(0.000402599 -0.00185664 -0.273426)
(0.000321375 -0.00189206 -0.274111)
(0.000240241 -0.00192665 -0.27471)
(0.000158739 -0.00196082 -0.275253)
(7.617e-05 -0.00199484 -0.275737)
(-8.02749e-06 -0.00202859 -0.276152)
(-9.40862e-05 -0.00206204 -0.276496)
(-0.000182111 -0.00209506 -0.276767)
(-0.000272166 -0.00212703 -0.27696)
(-0.000364069 -0.00215704 -0.27707)
(-0.000457131 -0.00218439 -0.277085)
(-0.000550226 -0.00220893 -0.276989)
(-0.00064226 -0.00223034 -0.276772)
(-0.000732521 -0.00224865 -0.27643)
(-0.000820279 -0.00226525 -0.275961)
(-0.000904254 -0.00228028 -0.275358)
(-0.000983517 -0.00229342 -0.274605)
(-0.00105832 -0.00230471 -0.273702)
(-0.00112956 -0.00231272 -0.272696)
)
