-0.0075 	0 	0 	0
-0.0075 	1.04285e-35 	-2.05558e-36 	-6.66389e-33
-0.00745622 	1.37061e-05 	-2.70165e-06 	-0.00875836
-0.00745622 	1.37061e-05 	-2.70165e-06 	-0.00875836
-0.00741165 	9.11903e-06 	-4.26562e-06 	-0.0185368
-0.00741165 	9.11903e-06 	-4.26562e-06 	-0.0185368
-0.00736628 	-1.22423e-05 	-4.1475e-06 	-0.0287895
-0.00736628 	-1.22423e-05 	-4.1475e-06 	-0.0287895
-0.0073201 	-4.26543e-05 	-1.36571e-06 	-0.0390773
-0.0073201 	-4.26543e-05 	-1.36571e-06 	-0.0390773
-0.00727309 	-8.07674e-05 	2.10152e-06 	-0.0493039
-0.00727309 	-8.07674e-05 	2.10152e-06 	-0.0493039
-0.00722524 	-0.000128289 	6.96558e-06 	-0.0594491
-0.00722524 	-0.000128289 	6.96558e-06 	-0.0594491
-0.00717653 	-0.000186041 	1.29994e-05 	-0.069445
-0.00717653 	-0.000186041 	1.29994e-05 	-0.069445
-0.00712695 	-0.000254227 	2.02246e-05 	-0.0792088
-0.00712695 	-0.000254227 	2.02246e-05 	-0.0792088
-0.00707647 	-0.0003325 	2.86879e-05 	-0.08866
-0.00707647 	-0.0003325 	2.86879e-05 	-0.08866
-0.0070251 	-0.000419989 	3.83639e-05 	-0.0977323
-0.0070251 	-0.000419989 	3.83639e-05 	-0.0977323
-0.0069728 	-0.000515423 	4.92756e-05 	-0.10638
-0.0069728 	-0.000515423 	4.92756e-05 	-0.10638
-0.00691956 	-0.000617516 	6.13499e-05 	-0.114592
-0.00691956 	-0.000617516 	6.13499e-05 	-0.114592
-0.00686537 	-0.000725149 	7.44932e-05 	-0.122387
-0.00686537 	-0.000725149 	7.44932e-05 	-0.122387
-0.00681021 	-0.000837131 	8.86823e-05 	-0.129803
-0.00681021 	-0.000837131 	8.86823e-05 	-0.129803
-0.00675406 	-0.00095221 	0.000103917 	-0.136868
-0.00675406 	-0.00095221 	0.000103917 	-0.136868
-0.0066969 	-0.00106924 	0.000120219 	-0.143604
-0.0066969 	-0.00106924 	0.000120219 	-0.143604
-0.00663871 	-0.0011872 	0.000137556 	-0.150026
-0.00663871 	-0.0011872 	0.000137556 	-0.150026
-0.00657949 	-0.00130513 	0.000155836 	-0.156152
-0.00657949 	-0.00130513 	0.000155836 	-0.156152
-0.0065192 	-0.00142221 	0.000174963 	-0.161998
-0.0065192 	-0.00142221 	0.000174963 	-0.161998
-0.00645783 	-0.0015377 	0.000194881 	-0.16758
-0.00645783 	-0.0015377 	0.000194881 	-0.16758
-0.00639535 	-0.00165095 	0.000215531 	-0.172911
-0.00639535 	-0.00165095 	0.000215531 	-0.172911
-0.00633176 	-0.00176142 	0.000236854 	-0.178006
-0.00633176 	-0.00176142 	0.000236854 	-0.178006
-0.00626703 	-0.00186862 	0.000258783 	-0.182877
-0.00626703 	-0.00186862 	0.000258783 	-0.182877
-0.00620114 	-0.00197217 	0.000281241 	-0.187534
-0.00620114 	-0.00197217 	0.000281241 	-0.187534
-0.00613406 	-0.00207174 	0.000304171 	-0.191988
-0.00613406 	-0.00207174 	0.000304171 	-0.191988
-0.00606579 	-0.0021671 	0.000327538 	-0.196248
-0.00606579 	-0.0021671 	0.000327538 	-0.196248
-0.00599629 	-0.00225802 	0.000351281 	-0.200318
-0.00599629 	-0.00225802 	0.000351281 	-0.200318
-0.00592554 	-0.00234438 	0.000375301 	-0.204209
-0.00592554 	-0.00234438 	0.000375301 	-0.204209
-0.00585352 	-0.00242603 	0.000399516 	-0.207934
-0.00585352 	-0.00242603 	0.000399516 	-0.207934
-0.00578022 	-0.00250274 	0.000423951 	-0.211512
-0.00578022 	-0.00250274 	0.000423951 	-0.211512
-0.00570559 	-0.00257419 	0.000448811 	-0.214965
-0.00570559 	-0.00257419 	0.000448811 	-0.214965
-0.00562963 	-0.00264019 	0.000474232 	-0.218294
-0.00562963 	-0.00264019 	0.000474232 	-0.218294
-0.00555231 	-0.00270095 	0.000500041 	-0.221482
-0.00555231 	-0.00270095 	0.000500041 	-0.221482
-0.0054736 	-0.00275718 	0.000526021 	-0.224504
-0.0054736 	-0.00275718 	0.000526021 	-0.224504
-0.00539348 	-0.00280945 	0.000552132 	-0.227351
-0.00539348 	-0.00280945 	0.000552132 	-0.227351
-0.00531193 	-0.00285766 	0.000578135 	-0.230026
-0.00531193 	-0.00285766 	0.000578135 	-0.230026
-0.00522891 	-0.00290115 	0.000603132 	-0.232536
-0.00522891 	-0.00290115 	0.000603132 	-0.232536
-0.0051444 	-0.00293867 	0.000626208 	-0.234935
-0.0051444 	-0.00293867 	0.000626208 	-0.234935
-0.00505838 	-0.00296864 	0.000648341 	-0.23733
-0.00505838 	-0.00296864 	0.000648341 	-0.23733
-0.00497081 	-0.00299042 	0.000672433 	-0.239796
-0.00497081 	-0.00299042 	0.000672433 	-0.239796
-0.00488168 	-0.00300526 	0.000699295 	-0.242251
-0.00488168 	-0.00300526 	0.000699295 	-0.242251
-0.00479094 	-0.00301455 	0.000726198 	-0.24455
-0.00479094 	-0.00301455 	0.000726198 	-0.24455
-0.00469858 	-0.00301771 	0.000751305 	-0.246662
-0.00469858 	-0.00301771 	0.000751305 	-0.246662
-0.00460456 	-0.00301327 	0.000776179 	-0.248662
-0.00460456 	-0.00301327 	0.000776179 	-0.248662
-0.00450886 	-0.00300101 	0.000802671 	-0.25063
-0.00450886 	-0.00300101 	0.000802671 	-0.25063
-0.00441144 	-0.00298242 	0.000829953 	-0.252584
-0.00441144 	-0.00298242 	0.000829953 	-0.252584
-0.00431227 	-0.0029593 	0.000855734 	-0.254466
-0.00431227 	-0.0029593 	0.000855734 	-0.254466
-0.00421133 	-0.00293168 	0.000879727 	-0.256217
-0.00421133 	-0.00293168 	0.000879727 	-0.256217
-0.00410857 	-0.00289775 	0.00090407 	-0.25784
-0.00410857 	-0.00289775 	0.00090407 	-0.25784
-0.00400397 	-0.0028561 	0.000929344 	-0.259384
-0.00400397 	-0.0028561 	0.000929344 	-0.259384
-0.0038975 	-0.00280583 	0.000954063 	-0.260888
-0.0038975 	-0.00280583 	0.000954063 	-0.260888
-0.00378912 	-0.00274425 	0.000978216 	-0.262407
-0.00378912 	-0.00274425 	0.000978216 	-0.262407
-0.00367879 	-0.00266764 	0.00100341 	-0.264041
-0.00367879 	-0.00266764 	0.00100341 	-0.264041
-0.00356649 	-0.00257456 	0.00102923 	-0.26586
-0.00356649 	-0.00257456 	0.00102923 	-0.26586
-0.00345217 	-0.00247194 	0.00105147 	-0.267704
-0.00345217 	-0.00247194 	0.00105147 	-0.267704
-0.0033358 	-0.00237189 	0.00106832 	-0.269293
-0.0033358 	-0.00237189 	0.00106832 	-0.269293
-0.00321735 	-0.00227736 	0.00108337 	-0.270566
-0.00321735 	-0.00227736 	0.00108337 	-0.270566
-0.00309677 	-0.00218135 	0.00109965 	-0.271677
-0.00309677 	-0.00218135 	0.00109965 	-0.271677
-0.00297403 	-0.00207731 	0.00111683 	-0.27276
-0.00297403 	-0.00207731 	0.00111683 	-0.27276
-0.00284909 	-0.00196413 	0.001133 	-0.273835
-0.00284909 	-0.00196413 	0.001133 	-0.273835
-0.0027219 	-0.0018436 	0.00114728 	-0.274882
-0.0027219 	-0.0018436 	0.00114728 	-0.274882
-0.00259244 	-0.00171678 	0.00115996 	-0.275893
-0.00259244 	-0.00171678 	0.00115996 	-0.275893
-0.00246065 	-0.00158382 	0.00117108 	-0.276874
-0.00246065 	-0.00158382 	0.00117108 	-0.276874
-0.00232651 	-0.00144479 	0.00118047 	-0.277828
-0.00232651 	-0.00144479 	0.00118047 	-0.277828
-0.00218995 	-0.00129975 	0.00118798 	-0.278759
-0.00218995 	-0.00129975 	0.00118798 	-0.278759
-0.00205095 	-0.00114873 	0.00119329 	-0.279667
-0.00205095 	-0.00114873 	0.00119329 	-0.279667
-0.00190946 	-0.000991661 	0.00119596 	-0.280554
-0.00190946 	-0.000991661 	0.00119596 	-0.280554
-0.00176543 	-0.000828211 	0.00119545 	-0.281422
-0.00176543 	-0.000828211 	0.00119545 	-0.281422
-0.00161881 	-0.000657362 	0.00119126 	-0.282275
-0.00161881 	-0.000657362 	0.00119126 	-0.282275
-0.00146957 	-0.000477489 	0.00118343 	-0.283121
-0.00146957 	-0.000477489 	0.00118343 	-0.283121
-0.00131765 	-0.000287077 	0.00117199 	-0.283968
-0.00131765 	-0.000287077 	0.00117199 	-0.283968
-0.001163 	-8.64469e-05 	0.00115593 	-0.284809
-0.001163 	-8.64469e-05 	0.00115593 	-0.284809
-0.00100559 	0.000121351 	0.00113459 	-0.285614
-0.00100559 	0.000121351 	0.00113459 	-0.285614
-0.000845345 	0.000333345 	0.00111156 	-0.286343
-0.000845345 	0.000333345 	0.00111156 	-0.286343
-0.000682232 	0.000548341 	0.00108394 	-0.286962
-0.000682232 	0.000548341 	0.00108394 	-0.286962
-0.000516194 	0.000765084 	0.00104779 	-0.287433
-0.000516194 	0.000765084 	0.00104779 	-0.287433
-0.000347178 	0.000981132 	0.00100865 	-0.287718
-0.000347178 	0.000981132 	0.00100865 	-0.287718
-0.000175132 	0.001193 	0.000956195 	-0.287797
-0.000175132 	0.001193 	0.000956195 	-0.287797
0 	0.0013964 	0.000897906 	-0.287679
0 	0.0013964 	0.000897906 	-0.287679
0 	0.0013964 	0.000897906 	-0.287679
0 	0.0013964 	0.000897906 	-0.287679
0.000175132 	0.00158696 	0.000847005 	-0.287392
0.000175132 	0.00409328 	0.00439212 	-0.268629
0.000347178 	0.00176229 	0.000794079 	-0.286966
0.000347178 	0.00427702 	0.00435895 	-0.270185
0.000516194 	0.00192336 	0.000749498 	-0.286428
0.000516194 	0.00443395 	0.00433413 	-0.271906
0.000682232 	0.00207241 	0.000712205 	-0.285808
0.000682232 	0.00456843 	0.00431433 	-0.273725
0.000845345 	0.00221068 	0.000673925 	-0.285137
0.000845345 	0.00468235 	0.00428929 	-0.275618
0.00100559 	0.00233824 	0.000638211 	-0.28444
0.00100559 	0.00477725 	0.00426208 	-0.277563
0.001163 	0.00245458 	0.000604629 	-0.28373
0.001163 	0.00485448 	0.00423298 	-0.279536
0.00131765 	0.00255815 	0.000576209 	-0.282998
0.00131765 	0.00491529 	0.00420145 	-0.281512
0.00146957 	0.0026472 	0.000553897 	-0.28222
0.00146957 	0.0049618 	0.00416758 	-0.283467
0.00161881 	0.00272248 	0.000533149 	-0.281394
0.00161881 	0.00499665 	0.00413039 	-0.285383
0.00176543 	0.00278726 	0.000511514 	-0.280541
0.00176543 	0.00502057 	0.00408751 	-0.287257
0.00190946 	0.00284466 	0.000491804 	-0.279682
0.00190946 	0.00503111 	0.00403631 	-0.289089
0.00205095 	0.00289592 	0.000475559 	-0.278818
0.00205095 	0.00502341 	0.00397616 	-0.290865
0.00218995 	0.00294061 	0.000462264 	-0.277934
0.00218995 	0.00499234 	0.00391012 	-0.292545
0.00232651 	0.00297695 	0.00045118 	-0.277032
0.00232651 	0.00493586 	0.003843 	-0.294087
0.00246065 	0.00300282 	0.000438589 	-0.27612
0.00246065 	0.00485749 	0.00377712 	-0.295488
0.00259244 	0.00301889 	0.000419426 	-0.275151
0.00259244 	0.00476484 	0.00370934 	-0.296794
0.0027219 	0.00303146 	0.000397749 	-0.273983
0.0027219 	0.00466369 	0.00363422 	-0.298071
0.00284909 	0.00304736 	0.000387022 	-0.272532
0.00284909 	0.00455404 	0.00354946 	-0.29936
0.00297403 	0.00306291 	0.000386852 	-0.270968
0.00297403 	0.00443028 	0.00345867 	-0.300618
0.00309677 	0.00306857 	0.000383468 	-0.269514
0.00309677 	0.00428451 	0.00336906 	-0.301706
0.00321735 	0.00306085 	0.000372354 	-0.268182
0.00321735 	0.00411399 	0.00328356 	-0.302488
0.0033358 	0.00304258 	0.000359465 	-0.266882
0.0033358 	0.003925 	0.00319853 	-0.302952
0.00345217 	0.00301798 	0.000350171 	-0.265543
0.00345217 	0.0037268 	0.00310965 	-0.303177
0.00356649 	0.00298913 	0.000343116 	-0.264139
0.00356649 	0.00352464 	0.00301579 	-0.303241
0.00367879 	0.00295654 	0.000335849 	-0.262669
0.00367879 	0.00331918 	0.00291903 	-0.303171
0.00378912 	0.00310909 	0.00282241 	-0.302965
0.00378912 	0.00292046 	0.00032832 	-0.261132
0.0038975 	0.00288132 	0.000320661 	-0.259526
0.0038975 	0.00289344 	0.00272725 	-0.302616
0.00400397 	0.00283976 	0.000312873 	-0.257854
0.00400397 	0.0026726 	0.00263297 	-0.30212
0.00410857 	0.00279633 	0.00030511 	-0.256122
0.00410857 	0.00244765 	0.00253888 	-0.301479
0.00421133 	0.00275141 	0.000297537 	-0.254334
0.00421133 	0.00221934 	0.00244491 	-0.300689
0.00431227 	0.00270524 	0.00029021 	-0.252491
0.00431227 	0.00198802 	0.00235144 	-0.29975
0.00441144 	0.002658 	0.000283158 	-0.250591
0.00441144 	0.0017539 	0.00225897 	-0.298662
0.00450886 	0.00261 	0.000276098 	-0.248624
0.00450886 	0.00151725 	0.00216749 	-0.297426
0.00460456 	0.00256163 	0.000268476 	-0.246578
0.00460456 	0.00127845 	0.00207718 	-0.296044
0.00469858 	0.00251309 	0.000260133 	-0.244443
0.00469858 	0.00103804 	0.00198905 	-0.294513
0.00479094 	0.00246435 	0.000251526 	-0.24222
0.00479094 	0.000797096 	0.0019039 	-0.292839
0.00488168 	0.00241532 	0.000243031 	-0.239921
0.00488168 	0.000557538 	0.00182012 	-0.291034
0.00497081 	0.00236614 	0.000234538 	-0.237553
0.00497081 	0.000321855 	0.00173479 	-0.289114
0.00505838 	0.00231709 	0.000225982 	-0.23511
0.00505838 	9.13971e-05 	0.0016488 	-0.287067
0.0051444 	0.00226827 	0.000217413 	-0.232579
0.0051444 	-0.00013592 	0.00156568 	-0.284835
0.00522891 	0.00221952 	0.000208625 	-0.229945
0.00522891 	-0.000364836 	0.00148691 	-0.282339
0.00531193 	-0.000598323 	0.00141019 	-0.279569
0.00531193 	0.00217088 	0.000199146 	-0.227206
0.00539348 	0.00212264 	0.000188726 	-0.22437
0.00539348 	-0.000834746 	0.00133168 	-0.27659
0.0054736 	0.00207517 	0.000177753 	-0.221443
0.0054736 	-0.00106927 	0.00125138 	-0.27348
0.00555231 	0.00202871 	0.000166806 	-0.218417
0.00555231 	-0.00129702 	0.0011723 	-0.270273
0.00562963 	0.00198331 	0.000156118 	-0.21528
0.00562963 	-0.00151495 	0.00109637 	-0.266953
0.00570559 	0.0019389 	0.00014563 	-0.212011
0.00570559 	-0.00172196 	0.00102379 	-0.263487
0.00578022 	0.00189536 	0.000135281 	-0.208596
0.00578022 	-0.00191797 	0.000953742 	-0.259847
0.00585352 	0.00185254 	0.000125016 	-0.205021
0.00585352 	-0.0021031 	0.00088545 	-0.256015
0.00592554 	0.00181028 	0.000114729 	-0.201271
0.00592554 	-0.00227719 	0.000818609 	-0.251979
0.00599629 	0.00176841 	0.000104395 	-0.197332
0.00599629 	-0.00243952 	0.00075328 	-0.247728
0.00606579 	-0.00258888 	0.000689678 	-0.243248
0.00606579 	0.00172678 	9.41191e-05 	-0.193185
0.00613406 	0.00168518 	8.41261e-05 	-0.188807
0.00613406 	-0.00272386 	0.000627992 	-0.238526
0.00620114 	0.00164326 	7.45901e-05 	-0.184176
0.00620114 	-0.00284297 	0.000568429 	-0.233542
0.00626703 	0.00160055 	6.55745e-05 	-0.179272
0.00626703 	-0.00294479 	0.000511224 	-0.228267
0.00633176 	0.00155649 	5.70933e-05 	-0.174075
0.00633176 	-0.00302797 	0.000456541 	-0.222666
0.00639535 	0.00151051 	4.91488e-05 	-0.168563
0.00639535 	-0.00309113 	0.000404494 	-0.216699
0.00645783 	0.001462 	4.17823e-05 	-0.162715
0.00645783 	-0.00313284 	0.000355113 	-0.210324
0.0065192 	0.00141041 	3.49965e-05 	-0.156512
0.0065192 	-0.0031516 	0.0003084 	-0.203505
0.00657949 	0.0013552 	2.88072e-05 	-0.149932
0.00657949 	-0.00314593 	0.000264685 	-0.196198
0.00663871 	0.00129593 	2.33003e-05 	-0.142956
0.00663871 	-0.00311437 	0.000223967 	-0.18836
0.0066969 	0.00123209 	1.84298e-05 	-0.135561
0.0066969 	-0.00305549 	0.000185964 	-0.179952
0.00675406 	0.00116304 	1.42063e-05 	-0.127726
0.00675406 	-0.00296809 	0.000151371 	-0.170933
0.00681021 	0.0010884 	1.05159e-05 	-0.119438
0.00681021 	-0.00285138 	0.000120103 	-0.161234
0.00686537 	0.00100855 	7.23221e-06 	-0.110705
0.00686537 	-0.00270487 	9.20522e-05 	-0.150766
0.00691956 	0.000924433 	4.46187e-06 	-0.101575
0.00691956 	-0.00252917 	6.74165e-05 	-0.139496
0.0069728 	0.00083742 	2.11408e-06 	-0.0921428
0.0069728 	-0.00232706 	4.5543e-05 	-0.127481
0.0070251 	0.000749191 	2.13978e-07 	-0.0825441
0.0070251 	-0.00210358 	2.69853e-05 	-0.114878
0.00707647 	0.00066146 	-1.16231e-06 	-0.0729424
0.00707647 	-0.00186588 	1.19842e-05 	-0.101949
0.00712695 	0.000575642 	-2.02735e-06 	-0.0635005
0.00712695 	-0.00162227 	4.04835e-07 	-0.0890246
0.00717653 	0.000492669 	-2.33798e-06 	-0.0543474
0.00717653 	-0.00138042 	-7.40646e-06 	-0.0764118
0.00722524 	0.000413011 	-2.10388e-06 	-0.0455564
0.00722524 	-0.00114553 	-1.14535e-05 	-0.0642971
0.00727309 	0.000336801 	-1.41149e-06 	-0.037141
0.00727309 	-0.000919493 	-1.22062e-05 	-0.0526979
0.0073201 	0.000263881 	-5.59588e-07 	-0.0290655
0.0073201 	-0.000700854 	-1.12655e-05 	-0.041464
0.00736628 	0.00019373 	9.38267e-07 	-0.0212559
0.00736628 	-0.000485006 	-4.51551e-06 	-0.0302874
0.00741165 	0.000125631 	1.13405e-06 	-0.0137032
0.00741165 	-0.00027975 	-3.07296e-06 	-0.0191245
0.00745622 	6.02587e-05 	6.66629e-07 	-0.00657048
0.00745622 	-0.000113069 	-1.86197e-06 	-0.00872027
0.0075 	0 	0 	0
0.0075 	0 	0 	0
