0 	0 	0 	0
0 	-4.2205e-36 	-2.47332e-36 	1.85734e-31
5.01672e-05 	-4.42555e-07 	-2.73647e-07 	0.0173256
5.01672e-05 	-4.42555e-07 	-2.73647e-07 	0.0173256
0.000100334 	-1.20744e-06 	-9.20013e-07 	0.0333239
0.000150502 	-1.97283e-06 	-1.98756e-06 	0.0481659
0.000150502 	-1.97283e-06 	-1.98756e-06 	0.0481659
0.000200669 	-2.62636e-06 	-3.47032e-06 	0.0619393
0.000200669 	-2.62636e-06 	-3.47032e-06 	0.0619393
0.000250836 	-3.1918e-06 	-5.36838e-06 	0.0747232
0.000301003 	-3.69071e-06 	-7.66773e-06 	0.0865836
0.000301003 	-3.69071e-06 	-7.66773e-06 	0.0865836
0.000351171 	-4.13006e-06 	-1.03641e-05 	0.097565
0.000401338 	-4.51425e-06 	-1.3465e-05 	0.107689
0.000451505 	-4.84663e-06 	-1.69948e-05 	0.116972
0.000451505 	-4.84663e-06 	-1.69948e-05 	0.116972
0.000501672 	-5.12978e-06 	-2.09906e-05 	0.12544
0.000551839 	-5.36598e-06 	-2.54912e-05 	0.133138
0.000551839 	-5.36598e-06 	-2.54912e-05 	0.133138
0.000602007 	-5.55762e-06 	-3.05267e-05 	0.140129
0.000602007 	-5.55762e-06 	-3.05267e-05 	0.140129
0.000652174 	-5.70751e-06 	-3.61185e-05 	0.146482
0.000652174 	-5.70751e-06 	-3.61185e-05 	0.146482
0.000702341 	-5.81897e-06 	-4.22835e-05 	0.15227
0.000702341 	-5.81897e-06 	-4.22835e-05 	0.15227
0.000752508 	-5.8955e-06 	-4.90362e-05 	0.157562
0.000802676 	-5.94012e-06 	-5.63897e-05 	0.162415
0.000852843 	-5.95167e-06 	-6.44382e-05 	0.16682
0.000852843 	-5.95167e-06 	-6.44382e-05 	0.16682
0.00090301 	-5.93793e-06 	-7.30562e-05 	0.170889
0.00090301 	-5.93793e-06 	-7.30562e-05 	0.170889
0.000953177 	-5.90162e-06 	-8.21937e-05 	0.17466
0.00100334 	-5.84527e-06 	-9.17992e-05 	0.178171
0.00100334 	-5.84527e-06 	-9.17992e-05 	0.178171
0.00105351 	-5.77112e-06 	-0.000101824 	0.181453
0.00105351 	-5.77112e-06 	-0.000101824 	0.181453
0.00110368 	-5.68081e-06 	-0.00011223 	0.184528
0.00115385 	-5.57265e-06 	-0.000123059 	0.187375
0.00120401 	-5.45286e-06 	-0.000134162 	0.190072
0.00120401 	-5.45286e-06 	-0.000134162 	0.190072
0.00130435 	-5.18338e-06 	-0.000157049 	0.195074
0.00130435 	-5.18338e-06 	-0.000157049 	0.195074
0.00135452 	-5.03343e-06 	-0.000168821 	0.197372
0.00135452 	-5.03343e-06 	-0.000168821 	0.197372
0.00140468 	-4.87547e-06 	-0.000180744 	0.199561
0.00145485 	-4.71135e-06 	-0.000192768 	0.201665
0.00145485 	-4.71135e-06 	-0.000192768 	0.201665
0.00150502 	-4.54159e-06 	-0.000204877 	0.203693
0.00150502 	-4.54159e-06 	-0.000204877 	0.203693
0.00155518 	-4.36374e-06 	-0.000217065 	0.205612
0.00155518 	-4.36374e-06 	-0.000217065 	0.205612
0.00160535 	-4.18132e-06 	-0.000229269 	0.207472
0.00160535 	-4.18132e-06 	-0.000229269 	0.207472
0.00165552 	-3.99489e-06 	-0.000241476 	0.209279
0.00165552 	-3.99489e-06 	-0.000241476 	0.209279
0.00170569 	-3.80318e-06 	-0.000253652 	0.211015
0.00170569 	-3.80318e-06 	-0.000253652 	0.211015
0.00175585 	-3.60754e-06 	-0.000265751 	0.212696
0.00175585 	-3.60754e-06 	-0.000265751 	0.212696
0.00180602 	-3.40927e-06 	-0.00027778 	0.21434
0.00180602 	-3.40927e-06 	-0.00027778 	0.21434
0.00185619 	-3.20739e-06 	-0.000289676 	0.21593
0.00185619 	-3.20739e-06 	-0.000289676 	0.21593
0.00190635 	-3.00259e-06 	-0.000301405 	0.217476
0.00190635 	-3.00259e-06 	-0.000301405 	0.217476
0.00195652 	-2.79603e-06 	-0.000313015 	0.218994
0.00195652 	-2.79603e-06 	-0.000313015 	0.218994
0.00200669 	-2.58657e-06 	-0.000324382 	0.220464
0.00200669 	-2.58657e-06 	-0.000324382 	0.220464
0.00205686 	-2.37527e-06 	-0.000335535 	0.221902
0.00210702 	-2.16275e-06 	-0.000346546 	0.223318
0.00210702 	-2.16275e-06 	-0.000346546 	0.223318
0.00215719 	-1.94765e-06 	-0.000357154 	0.224686
0.00220736 	-1.7317e-06 	-0.000367587 	0.226036
0.00225753 	-1.51439e-06 	-0.000377738 	0.227358
0.00225753 	-1.51439e-06 	-0.000377738 	0.227358
0.00230769 	-1.29572e-06 	-0.000387523 	0.228647
0.00230769 	-1.29572e-06 	-0.000387523 	0.228647
0.00235786 	-1.07648e-06 	-0.000397147 	0.229922
0.00235786 	-1.07648e-06 	-0.000397147 	0.229922
0.00240803 	-8.55755e-07 	-0.000406252 	0.231158
0.00240803 	-8.55755e-07 	-0.000406252 	0.231158
0.00245819 	-6.34615e-07 	-0.000415165 	0.23238
0.00245819 	-6.34615e-07 	-0.000415165 	0.23238
0.00250836 	-4.12628e-07 	-0.000423691 	0.233575
0.00250836 	-4.12628e-07 	-0.000423691 	0.233575
0.00255853 	-1.90041e-07 	-0.000431861 	0.234746
0.0026087 	3.29718e-08 	-0.000439778 	0.235901
0.0026087 	3.29718e-08 	-0.000439778 	0.235901
0.00265886 	2.56667e-07 	-0.000447183 	0.237025
0.00270903 	4.80524e-07 	-0.000454466 	0.238141
0.00270903 	4.80524e-07 	-0.000454466 	0.238141
0.0027592 	7.05125e-07 	-0.000461096 	0.239218
0.00280936 	9.29843e-07 	-0.000467619 	0.24029
0.00280936 	9.29843e-07 	-0.000467619 	0.24029
0.00285953 	1.15519e-06 	-0.000473578 	0.241328
0.00285953 	1.15519e-06 	-0.000473578 	0.241328
0.0029097 	1.38076e-06 	-0.000479344 	0.242356
0.0029097 	1.38076e-06 	-0.000479344 	0.242356
0.00295987 	1.60693e-06 	-0.000484626 	0.243357
0.00295987 	1.60693e-06 	-0.000484626 	0.243357
0.00301003 	1.83345e-06 	-0.000489657 	0.244343
0.0030602 	2.06055e-06 	-0.000494273 	0.245305
0.00311037 	2.28807e-06 	-0.00049861 	0.246251
0.00311037 	2.28807e-06 	-0.00049861 	0.246251
0.00316054 	2.51616e-06 	-0.000502585 	0.247176
0.00316054 	2.51616e-06 	-0.000502585 	0.247176
0.00326087 	2.9738e-06 	-0.000509662 	0.24897
0.00326087 	2.9738e-06 	-0.000509662 	0.24897
0.00331104 	3.20337e-06 	-0.000512794 	0.249839
0.0033612 	3.43354e-06 	-0.000515622 	0.250688
0.0033612 	3.43354e-06 	-0.000515622 	0.250688
0.00341137 	3.66429e-06 	-0.000518256 	0.251521
0.00341137 	3.66429e-06 	-0.000518256 	0.251521
0.00346154 	3.89594e-06 	-0.000520595 	0.252332
0.00346154 	3.89594e-06 	-0.000520595 	0.252332
0.00351171 	4.12826e-06 	-0.0005228 	0.253131
0.00356187 	4.36207e-06 	-0.000524711 	0.253904
0.00356187 	4.36207e-06 	-0.000524711 	0.253904
0.00361204 	4.59637e-06 	-0.000526552 	0.254671
0.00366221 	4.8327e-06 	-0.000528091 	0.255409
0.00366221 	4.8327e-06 	-0.000528091 	0.255409
0.00371237 	5.0691e-06 	-0.00052962 	0.256146
0.00371237 	5.0691e-06 	-0.00052962 	0.256146
0.00376254 	5.30759e-06 	-0.000530834 	0.25685
0.00376254 	5.30759e-06 	-0.000530834 	0.25685
0.00381271 	5.54609e-06 	-0.000532048 	0.257555
0.00381271 	5.54609e-06 	-0.000532048 	0.257555
0.00386288 	5.78567e-06 	-0.000533025 	0.258234
0.00391304 	6.02549e-06 	-0.000533952 	0.258907
0.00391304 	6.02549e-06 	-0.000533952 	0.258907
0.00396321 	6.26559e-06 	-0.000534731 	0.259561
0.00401338 	6.5059e-06 	-0.000535408 	0.260201
0.00401338 	6.5059e-06 	-0.000535408 	0.260201
0.00406355 	6.74616e-06 	-0.000536017 	0.260832
0.00406355 	6.74616e-06 	-0.000536017 	0.260832
0.00411371 	6.98631e-06 	-0.000536477 	0.261441
0.00411371 	6.98631e-06 	-0.000536477 	0.261441
0.00421405 	7.46582e-06 	-0.000537218 	0.262626
0.00421405 	7.46582e-06 	-0.000537218 	0.262626
0.00426421 	7.70517e-06 	-0.000537498 	0.263203
0.00426421 	7.70517e-06 	-0.000537498 	0.263203
0.00431438 	7.94355e-06 	-0.000537687 	0.263759
0.00431438 	7.94355e-06 	-0.000537687 	0.263759
0.00436455 	8.18137e-06 	-0.000537823 	0.264303
0.00436455 	8.18137e-06 	-0.000537823 	0.264303
0.00441472 	8.41864e-06 	-0.000537935 	0.264839
0.00441472 	8.41864e-06 	-0.000537935 	0.264839
0.00446488 	8.6541e-06 	-0.000537963 	0.265351
0.00446488 	8.6541e-06 	-0.000537963 	0.265351
0.00451505 	8.88956e-06 	-0.000537991 	0.265863
0.00451505 	8.88956e-06 	-0.000537991 	0.265863
0.00456522 	9.12245e-06 	-0.000537963 	0.266349
0.00456522 	9.12245e-06 	-0.000537963 	0.266349
0.00461538 	9.35462e-06 	-0.000537919 	0.266828
0.00461538 	9.35462e-06 	-0.000537919 	0.266828
0.00466555 	9.58555e-06 	-0.000537864 	0.267298
0.00471572 	9.81345e-06 	-0.000537783 	0.267744
0.00476589 	1.00413e-05 	-0.000537701 	0.268191
0.00476589 	1.00413e-05 	-0.000537701 	0.268191
0.00486622 	1.04878e-05 	-0.000537528 	0.269027
0.00486622 	1.04878e-05 	-0.000537528 	0.269027
0.00491639 	1.07093e-05 	-0.000537445 	0.269435
0.00496656 	1.09256e-05 	-0.000537379 	0.269817
0.00496656 	1.09256e-05 	-0.000537379 	0.269817
0.00501672 	1.11419e-05 	-0.000537313 	0.270198
0.00506689 	1.13542e-05 	-0.000537273 	0.270562
0.00511706 	1.15631e-05 	-0.000537253 	0.270912
0.00511706 	1.15631e-05 	-0.000537253 	0.270912
0.00521739 	1.19736e-05 	-0.000537269 	0.271582
0.00521739 	1.19736e-05 	-0.000537269 	0.271582
0.00526756 	1.2174e-05 	-0.000537313 	0.271899
0.00526756 	1.2174e-05 	-0.000537313 	0.271899
0.00531773 	1.2373e-05 	-0.000537368 	0.272211
0.00536789 	1.25639e-05 	-0.000537489 	0.272497
0.00536789 	1.25639e-05 	-0.000537489 	0.272497
0.00541806 	1.27548e-05 	-0.00053761 	0.272782
0.00546823 	1.29416e-05 	-0.000537763 	0.273055
0.00551839 	1.31217e-05 	-0.000537968 	0.273309
0.00551839 	1.31217e-05 	-0.000537968 	0.273309
0.00556856 	1.33019e-05 	-0.000538172 	0.273563
0.00556856 	1.33019e-05 	-0.000538172 	0.273563
0.0056689 	1.36438e-05 	-0.000538714 	0.274024
0.0056689 	1.36438e-05 	-0.000538714 	0.274024
0.00571906 	1.38121e-05 	-0.000539003 	0.274247
0.00576923 	1.39713e-05 	-0.000539346 	0.27445
0.00576923 	1.39713e-05 	-0.000539346 	0.27445
0.0058194 	1.41263e-05 	-0.000539714 	0.274644
0.0058194 	1.41263e-05 	-0.000539714 	0.274644
0.00591973 	1.4425e-05 	-0.000540501 	0.275009
0.00591973 	1.4425e-05 	-0.000540501 	0.275009
0.0059699 	1.45651e-05 	-0.000540936 	0.275174
0.0059699 	1.45651e-05 	-0.000540936 	0.275174
0.00602007 	1.47052e-05 	-0.00054137 	0.275338
0.00607023 	1.48321e-05 	-0.000541845 	0.275481
0.0061204 	1.49556e-05 	-0.000542329 	0.275618
0.0061204 	1.49556e-05 	-0.000542329 	0.275618
0.00617057 	1.5079e-05 	-0.000542813 	0.275755
0.00622074 	1.51883e-05 	-0.000543321 	0.275872
0.00622074 	1.51883e-05 	-0.000543321 	0.275872
0.0062709 	1.52933e-05 	-0.000543835 	0.275982
0.00632107 	1.53982e-05 	-0.000544349 	0.276092
0.00632107 	1.53982e-05 	-0.000544349 	0.276092
0.00637124 	1.54893e-05 	-0.000544871 	0.276184
0.00637124 	1.54893e-05 	-0.000544871 	0.276184
0.0064214 	1.55739e-05 	-0.000545395 	0.276268
0.0064214 	1.55739e-05 	-0.000545395 	0.276268
0.00647157 	1.56585e-05 	-0.00054592 	0.276352
0.00647157 	1.56585e-05 	-0.00054592 	0.276352
0.00652174 	1.57308e-05 	-0.000546433 	0.276422
0.00657191 	1.57929e-05 	-0.000546938 	0.276481
0.00657191 	1.57929e-05 	-0.000546938 	0.276481
0.00662207 	1.5855e-05 	-0.000547443 	0.27654
0.00667224 	1.59084e-05 	-0.000547937 	0.27659
0.00672241 	1.59458e-05 	-0.000548411 	0.276624
0.00672241 	1.59458e-05 	-0.000548411 	0.276624
0.00677258 	1.59831e-05 	-0.000548885 	0.276658
0.00682274 	1.60177e-05 	-0.000549356 	0.276689
0.00682274 	1.60177e-05 	-0.000549356 	0.276689
0.00687291 	1.60277e-05 	-0.000549793 	0.276698
0.00687291 	1.60277e-05 	-0.000549793 	0.276698
0.00692308 	1.60377e-05 	-0.000550231 	0.276708
0.00697324 	1.60477e-05 	-0.000550668 	0.276717
0.00702341 	1.60342e-05 	-0.000551052 	0.276708
0.00707358 	1.60145e-05 	-0.000551421 	0.276693
0.00707358 	1.60145e-05 	-0.000551421 	0.276693
0.00717391 	1.5961e-05 	-0.000552136 	0.276653
0.00717391 	1.5961e-05 	-0.000552136 	0.276653
0.00722408 	1.59083e-05 	-0.000552449 	0.276614
0.00722408 	1.59083e-05 	-0.000552449 	0.276614
0.00727425 	1.58556e-05 	-0.000552763 	0.276575
0.00727425 	1.58556e-05 	-0.000552763 	0.276575
0.00732441 	1.58028e-05 	-0.000553076 	0.276536
0.00732441 	1.58028e-05 	-0.000553076 	0.276536
0.00737458 	1.57149e-05 	-0.000553303 	0.276473
0.00737458 	1.57149e-05 	-0.000553303 	0.276473
0.00742475 	1.56267e-05 	-0.000553529 	0.27641
0.00747492 	1.55384e-05 	-0.000553755 	0.276347
0.00752508 	1.54322e-05 	-0.000553917 	0.276273
0.00752508 	1.54322e-05 	-0.000553917 	0.276273
0.00757525 	1.53079e-05 	-0.000554015 	0.276186
0.00762542 	1.51837e-05 	-0.000554114 	0.276099
0.00767559 	1.50591e-05 	-0.000554211 	0.276011
0.00767559 	1.50591e-05 	-0.000554211 	0.276011
0.00772575 	1.49e-05 	-0.000554202 	0.2759
0.00777592 	1.47408e-05 	-0.000554192 	0.275789
0.00777592 	1.47408e-05 	-0.000554192 	0.275789
0.00782609 	1.45817e-05 	-0.000554182 	0.275678
0.00787625 	1.44049e-05 	-0.000554091 	0.275553
0.00787625 	1.44049e-05 	-0.000554091 	0.275553
0.00792642 	1.42152e-05 	-0.000553941 	0.275419
0.00797659 	1.40256e-05 	-0.000553792 	0.275284
0.00802676 	1.38305e-05 	-0.000553613 	0.275145
0.00802676 	1.38305e-05 	-0.000553613 	0.275145
0.00807692 	1.36148e-05 	-0.000553326 	0.274988
0.00807692 	1.36148e-05 	-0.000553326 	0.274988
0.00812709 	1.33991e-05 	-0.000553038 	0.27483
0.00817726 	1.31834e-05 	-0.000552751 	0.274673
0.00817726 	1.31834e-05 	-0.000552751 	0.274673
0.00822742 	1.29472e-05 	-0.000552361 	0.274495
0.00827759 	1.27088e-05 	-0.000551959 	0.274314
0.00827759 	1.27088e-05 	-0.000551959 	0.274314
0.00832776 	1.24703e-05 	-0.000551557 	0.274134
0.00832776 	1.24703e-05 	-0.000551557 	0.274134
0.00837793 	1.22191e-05 	-0.000551074 	0.273939
0.00842809 	1.19611e-05 	-0.000550546 	0.273737
0.00842809 	1.19611e-05 	-0.000550546 	0.273737
0.00847826 	1.17031e-05 	-0.000550018 	0.273534
0.00847826 	1.17031e-05 	-0.000550018 	0.273534
0.0085786 	1.11631e-05 	-0.00054878 	0.273095
0.0085786 	1.11631e-05 	-0.00054878 	0.273095
0.00862876 	1.08886e-05 	-0.000548127 	0.27287
0.00867893 	1.06098e-05 	-0.000547434 	0.272638
0.0087291 	1.03217e-05 	-0.000546656 	0.27239
0.00877926 	1.00336e-05 	-0.000545879 	0.272142
0.00882943 	9.74285e-06 	-0.000545072 	0.271889
0.0088796 	9.44368e-06 	-0.00054417 	0.271619
0.0088796 	9.44368e-06 	-0.00054417 	0.271619
0.00892977 	9.14452e-06 	-0.000543268 	0.271349
0.00892977 	9.14452e-06 	-0.000543268 	0.271349
0.00897993 	8.84356e-06 	-0.00054234 	0.271074
0.00897993 	8.84356e-06 	-0.00054234 	0.271074
0.0090301 	8.5357e-06 	-0.000541314 	0.270781
0.00908027 	8.22784e-06 	-0.000540288 	0.270488
0.00908027 	8.22784e-06 	-0.000540288 	0.270488
0.00913043 	7.91846e-06 	-0.000539234 	0.27019
0.0091806 	7.60401e-06 	-0.000538084 	0.269874
0.0091806 	7.60401e-06 	-0.000538084 	0.269874
0.00923077 	7.28957e-06 	-0.000536934 	0.269559
0.00928094 	6.97366e-06 	-0.000535746 	0.269236
0.00928094 	6.97366e-06 	-0.000535746 	0.269236
0.0093311 	6.65449e-06 	-0.000534472 	0.268898
0.00938127 	6.33532e-06 	-0.000533199 	0.268559
0.00938127 	6.33532e-06 	-0.000533199 	0.268559
0.00943144 	6.0148e-06 	-0.00053187 	0.268211
0.00943144 	6.0148e-06 	-0.00053187 	0.268211
0.00948161 	5.69255e-06 	-0.000530471 	0.267849
0.00948161 	5.69255e-06 	-0.000530471 	0.267849
0.00953177 	5.3703e-06 	-0.000529072 	0.267487
0.00953177 	5.3703e-06 	-0.000529072 	0.267487
0.00958194 	5.04704e-06 	-0.000527595 	0.267111
0.00958194 	5.04704e-06 	-0.000527595 	0.267111
0.00963211 	4.72315e-06 	-0.00052607 	0.266726
0.00968227 	4.39927e-06 	-0.000524545 	0.266341
0.00968227 	4.39927e-06 	-0.000524545 	0.266341
0.00973244 	4.07508e-06 	-0.00052291 	0.265936
0.00978261 	3.75084e-06 	-0.000521256 	0.265527
0.00978261 	3.75084e-06 	-0.000521256 	0.265527
0.00983278 	3.4267e-06 	-0.000519585 	0.265115
0.00983278 	3.4267e-06 	-0.000519585 	0.265115
0.00988294 	3.10325e-06 	-0.000517799 	0.264681
0.00993311 	2.77981e-06 	-0.000516014 	0.264248
0.00993311 	2.77981e-06 	-0.000516014 	0.264248
0.00998328 	2.45719e-06 	-0.000514167 	0.263803
0.0100334 	2.13558e-06 	-0.000512246 	0.263345
0.0100836 	1.81397e-06 	-0.000510324 	0.262886
0.0100836 	1.81397e-06 	-0.000510324 	0.262886
0.0101338 	1.49463e-06 	-0.000508288 	0.262407
0.0101839 	1.17577e-06 	-0.000506227 	0.261923
0.0101839 	1.17577e-06 	-0.000506227 	0.261923
0.0102341 	8.57789e-07 	-0.000504131 	0.261433
0.0102341 	8.57789e-07 	-0.000504131 	0.261433
0.0102843 	5.4251e-07 	-0.000501926 	0.260923
0.0103344 	2.27232e-07 	-0.00049972 	0.260414
0.0103344 	2.27232e-07 	-0.00049972 	0.260414
0.0103846 	-8.49927e-08 	-0.000497407 	0.259885
0.0103846 	-8.49927e-08 	-0.000497407 	0.259885
0.0104348 	-3.95959e-07 	-0.000495051 	0.259348
0.0104348 	-3.95959e-07 	-0.000495051 	0.259348
0.0104849 	-7.05841e-07 	-0.00049266 	0.258805
0.0104849 	-7.05841e-07 	-0.00049266 	0.258805
0.0105351 	-1.01183e-06 	-0.000490145 	0.258241
0.0105853 	-1.31782e-06 	-0.000487631 	0.257677
0.0105853 	-1.31782e-06 	-0.000487631 	0.257677
0.0106856 	-1.91993e-06 	-0.000482311 	0.256497
0.0106856 	-1.91993e-06 	-0.000482311 	0.256497
0.0107358 	-2.21811e-06 	-0.000479568 	0.255893
0.010786 	-2.51242e-06 	-0.000476717 	0.255271
0.010786 	-2.51242e-06 	-0.000476717 	0.255271
0.0108361 	-2.80668e-06 	-0.000473865 	0.254648
0.0108863 	-3.09438e-06 	-0.000470834 	0.253994
0.0108863 	-3.09438e-06 	-0.000470834 	0.253994
0.0109365 	-3.38208e-06 	-0.000467804 	0.253341
0.0109365 	-3.38208e-06 	-0.000467804 	0.253341
0.0109866 	-3.66492e-06 	-0.000464644 	0.252665
0.0110368 	-3.94554e-06 	-0.000461426 	0.25198
0.0110368 	-3.94554e-06 	-0.000461426 	0.25198
0.011087 	-4.22307e-06 	-0.000458127 	0.251281
0.011087 	-4.22307e-06 	-0.000458127 	0.251281
0.0111371 	-4.49612e-06 	-0.000454709 	0.250562
0.0111873 	-4.76779e-06 	-0.000451255 	0.249838
0.0111873 	-4.76779e-06 	-0.000451255 	0.249838
0.0112375 	-5.03272e-06 	-0.000447623 	0.249084
0.0112876 	-5.29766e-06 	-0.00044399 	0.248331
0.0112876 	-5.29766e-06 	-0.00044399 	0.248331
0.0113378 	-5.55423e-06 	-0.000440131 	0.247541
0.0113378 	-5.55423e-06 	-0.000440131 	0.247541
0.011388 	-5.81054e-06 	-0.000436265 	0.246751
0.0114381 	-6.05959e-06 	-0.000432188 	0.245929
0.0114381 	-6.05959e-06 	-0.000432188 	0.245929
0.0114883 	-6.30692e-06 	-0.00042806 	0.245099
0.0115385 	-6.54784e-06 	-0.000423726 	0.244239
0.0115385 	-6.54784e-06 	-0.000423726 	0.244239
0.0115886 	-6.78584e-06 	-0.000419298 	0.243366
0.0116388 	-7.01801e-06 	-0.000414662 	0.242464
0.0116388 	-7.01801e-06 	-0.000414662 	0.242464
0.011689 	-7.24633e-06 	-0.000409889 	0.241543
0.0117391 	-7.46926e-06 	-0.000404896 	0.240593
0.0117893 	-7.68786e-06 	-0.000399727 	0.239619
0.0118395 	-7.9013e-06 	-0.00039432 	0.238615
0.0118395 	-7.9013e-06 	-0.00039432 	0.238615
0.0118896 	-8.11039e-06 	-0.000388711 	0.237584
0.0119398 	-8.31418e-06 	-0.000382838 	0.236518
0.0119398 	-8.31418e-06 	-0.000382838 	0.236518
0.01199 	-8.5139e-06 	-0.000376762 	0.235425
0.0120401 	-8.70774e-06 	-0.000370386 	0.23429
0.0120401 	-8.70774e-06 	-0.000370386 	0.23429
0.0120903 	-8.89803e-06 	-0.000363829 	0.23313
0.0120903 	-8.89803e-06 	-0.000363829 	0.23313
0.0121906 	-9.26196e-06 	-0.000349879 	0.230686
0.0121906 	-9.26196e-06 	-0.000349879 	0.230686
0.0122408 	-9.43404e-06 	-0.000342425 	0.22939
0.012291 	-9.60451e-06 	-0.000334892 	0.228081
0.012291 	-9.60451e-06 	-0.000334892 	0.228081
0.0123411 	-9.76447e-06 	-0.000326873 	0.226692
0.0123913 	-9.92233e-06 	-0.000318763 	0.225286
0.0123913 	-9.92233e-06 	-0.000318763 	0.225286
0.0124415 	-1.00713e-05 	-0.000310265 	0.22381
0.0124415 	-1.00713e-05 	-0.000310265 	0.22381
0.0124916 	-1.02156e-05 	-0.000301575 	0.222296
0.0124916 	-1.02156e-05 	-0.000301575 	0.222296
0.0125418 	-1.03531e-05 	-0.000292614 	0.220729
0.012592 	-1.04827e-05 	-0.000283359 	0.219097
0.0126421 	-1.06083e-05 	-0.000273959 	0.217433
0.0126421 	-1.06083e-05 	-0.000273959 	0.217433
0.0126923 	-1.0722e-05 	-0.000264176 	0.215673
0.0127425 	-1.08317e-05 	-0.000254279 	0.213879
0.0127425 	-1.08317e-05 	-0.000254279 	0.213879
0.0127926 	-1.09317e-05 	-0.000244125 	0.212008
0.0128428 	-1.10233e-05 	-0.00023379 	0.210067
0.0128428 	-1.10233e-05 	-0.00023379 	0.210067
0.0129431 	-1.11817e-05 	-0.000212678 	0.205986
0.0129431 	-1.11817e-05 	-0.000212678 	0.205986
0.0129933 	-1.12476e-05 	-0.000201956 	0.203837
0.0130435 	-1.13042e-05 	-0.000191148 	0.201614
0.0130435 	-1.13042e-05 	-0.000191148 	0.201614
0.0131438 	-1.13835e-05 	-0.000169443 	0.196895
0.0131438 	-1.13835e-05 	-0.000169443 	0.196895
0.013194 	-1.14072e-05 	-0.000158616 	0.194408
0.0132441 	-1.14171e-05 	-0.000147885 	0.19181
0.0132441 	-1.14171e-05 	-0.000147885 	0.19181
0.0132943 	-1.14176e-05 	-0.000137242 	0.189137
0.0133445 	-1.14046e-05 	-0.000126752 	0.186355
0.0133445 	-1.14046e-05 	-0.000126752 	0.186355
0.0133946 	-1.13751e-05 	-0.000116504 	0.183442
0.0133946 	-1.13751e-05 	-0.000116504 	0.183442
0.0134448 	-1.1334e-05 	-0.000106453 	0.180434
0.0134448 	-1.1334e-05 	-0.000106453 	0.180434
0.013495 	-1.12798e-05 	-9.66304e-05 	0.177321
0.0135452 	-1.12038e-05 	-8.72388e-05 	0.174031
0.0135452 	-1.12038e-05 	-8.72388e-05 	0.174031
0.0135953 	-1.11132e-05 	-7.81569e-05 	0.17062
0.0135953 	-1.11132e-05 	-7.81569e-05 	0.17062
0.0136455 	-1.1007e-05 	-6.94117e-05 	0.16708
0.0136455 	-1.1007e-05 	-6.94117e-05 	0.16708
0.0136957 	-1.08811e-05 	-6.11018e-05 	0.163374
0.0136957 	-1.08811e-05 	-6.11018e-05 	0.163374
0.0137458 	-1.07312e-05 	-5.33389e-05 	0.15946
0.013796 	-1.05621e-05 	-4.60244e-05 	0.155374
0.013796 	-1.05621e-05 	-4.60244e-05 	0.155374
0.0138462 	-1.03725e-05 	-3.91887e-05 	0.151101
0.0138462 	-1.03725e-05 	-3.91887e-05 	0.151101
0.0138963 	-1.01612e-05 	-3.28625e-05 	0.146628
0.0139465 	-9.91942e-06 	-2.72366e-05 	0.141865
0.0139465 	-9.91942e-06 	-2.72366e-05 	0.141865
0.0139967 	-9.65261e-06 	-2.21684e-05 	0.136856
0.0139967 	-9.65261e-06 	-2.21684e-05 	0.136856
0.0140468 	-9.36e-06 	-1.76568e-05 	0.131587
0.0140468 	-9.36e-06 	-1.76568e-05 	0.131587
0.014097 	-9.0402e-06 	-1.371e-05 	0.126035
0.0141472 	-8.6917e-06 	-1.0328e-05 	0.120178
0.0141472 	-8.6917e-06 	-1.0328e-05 	0.120178
0.0141973 	-8.31283e-06 	-7.49627e-06 	0.11399
0.0142475 	-7.89642e-06 	-5.2573e-06 	0.10737
0.0142977 	-7.44644e-06 	-3.47939e-06 	0.100335
0.0142977 	-7.44644e-06 	-3.47939e-06 	0.100335
0.0143478 	-6.96437e-06 	-2.11843e-06 	0.0928741
0.014398 	-6.45371e-06 	-1.13533e-06 	0.085007
0.014398 	-6.45371e-06 	-1.13533e-06 	0.085007
0.0144482 	-5.91995e-06 	-4.81136e-07 	0.0767916
0.0144983 	-5.37039e-06 	-9.56871e-08 	0.0683323
0.0144983 	-5.37039e-06 	-9.56871e-08 	0.0683323
0.0145485 	-4.81361e-06 	8.85927e-08 	0.0597792
0.0145485 	-4.81361e-06 	8.85927e-08 	0.0597792
0.0145987 	-4.25815e-06 	1.40387e-07 	0.051313
0.0146488 	-3.71064e-06 	1.21078e-07 	0.0431148
0.014699 	-3.17417e-06 	7.73231e-08 	0.035333
0.014699 	-3.17417e-06 	7.73231e-08 	0.035333
0.0147492 	-2.64713e-06 	3.80196e-08 	0.028063
0.0147993 	-2.12098e-06 	1.51648e-08 	0.0213492
0.0147993 	-2.12098e-06 	1.51648e-08 	0.0213492
0.0148495 	-1.57321e-06 	1.08137e-08 	0.0152016
0.0148495 	-1.57321e-06 	1.08137e-08 	0.0152016
0.0148997 	-9.86035e-07 	1.19736e-08 	0.00961105
0.0148997 	-9.86035e-07 	1.19736e-08 	0.00961105
0.0149498 	-4.20097e-07 	1.06518e-08 	0.00455809
0.0149498 	-4.20097e-07 	1.06518e-08 	0.00455809
0.015 	0 	0 	0
0.015 	0 	0 	0
