-0.0075 	373
-0.00715932 	356.123
-0.00676191 	353.443
-0.00629832 	352.41
-0.00575752 	351.798
-0.00512667 	351.335
-0.00439077 	350.938
-0.00353231 	350.572
-0.00253089 	350.215
-0.00136271 	349.847
0 	349.449
0.00136271 	349.02
0.00253089 	348.579
0.00353231 	348.138
0.00439077 	347.683
0.00512667 	347.178
0.00575752 	346.549
0.00629832 	345.624
0.00676191 	343.63
0.00715932 	334.03
0.0075 	313
