/*--------------------------------*- C++ -*----------------------------------*\
| =========                 |                                                 |
| \\      /  F ield         | OpenFOAM: The Open Source CFD Toolbox           |
|  \\    /   O peration     | Version:  v1906                                 |
|   \\  /    A nd           | Web:      www.OpenFOAM.com                      |
|    \\/     M anipulation  |                                                 |
\*---------------------------------------------------------------------------*/
FoamFile
{
    version     2.0;
    format      ascii;
    class       volScalarField;
    location    "96.4";
    object      nut;
}
// * * * * * * * * * * * * * * * * * * * * * * * * * * * * * * * * * * * * * //

dimensions      [0 2 -1 0 0 0 0];


internalField   nonuniform List<scalar> 
630
(
1.12982e-05
1.35569e-05
8.48257e-06
6.23608e-06
1.11989e-05
1.42989e-05
8.38543e-06
9.23431e-06
1.10978e-05
1.43256e-05
8.26645e-06
9.73804e-06
1.1016e-05
1.43317e-05
8.12628e-06
9.67453e-06
1.09545e-05
1.43148e-05
7.96486e-06
9.598e-06
1.09106e-05
1.42741e-05
7.78555e-06
9.51252e-06
1.08836e-05
1.42092e-05
7.59281e-06
9.42251e-06
1.08774e-05
1.41188e-05
7.39309e-06
9.33215e-06
1.08961e-05
1.40039e-05
7.19318e-06
9.24459e-06
6.21711e-06
1.38641e-05
7.00254e-06
9.16115e-06
5.78603e-06
1.37003e-05
6.84545e-06
9.08235e-06
7.97096e-06
1.35147e-05
6.735e-06
9.00968e-06
1.11321e-05
1.33122e-05
6.66208e-06
8.43457e-06
1.11342e-05
1.30944e-05
6.62347e-06
5.77442e-06
1.11161e-05
1.28677e-05
6.61689e-06
5.67411e-06
1.10764e-05
1.26362e-05
6.64131e-06
7.30468e-06
1.10137e-05
1.23996e-05
5.75141e-06
8.72789e-06
1.0928e-05
1.21578e-05
4.10206e-06
8.65252e-06
1.08202e-05
1.1911e-05
4.27061e-06
8.56581e-06
1.06917e-05
1.16604e-05
5.7074e-06
8.46745e-06
1.05464e-05
1.1407e-05
7.0936e-06
8.35755e-06
1.03886e-05
1.11523e-05
7.14004e-06
8.23675e-06
1.02293e-05
1.09008e-05
7.17507e-06
8.10569e-06
1.00655e-05
1.06596e-05
7.19757e-06
7.96506e-06
9.89534e-06
1.04303e-05
7.20658e-06
7.82205e-06
9.71809e-06
1.02097e-05
7.20156e-06
7.67161e-06
9.535e-06
9.99513e-06
7.18186e-06
5.94863e-06
9.33853e-06
9.78869e-06
7.1471e-06
4.96554e-06
7.19749e-06
9.59599e-06
7.10023e-06
5.16021e-06
5.6532e-06
9.41435e-06
6.70496e-06
6.03922e-06
5.57177e-06
9.12623e-06
5.0803e-06
6.79446e-06
6.55329e-06
6.20148e-06
4.4041e-06
6.7764e-06
7.67904e-06
4.88102e-06
4.73437e-06
6.61114e-06
8.19961e-06
5.03181e-06
5.64791e-06
6.44119e-06
8.10719e-06
6.15792e-06
6.41483e-06
6.2665e-06
7.91389e-06
7.39308e-06
6.61778e-06
6.08569e-06
7.67664e-06
7.98946e-06
6.50141e-06
5.89858e-06
7.43104e-06
8.0046e-06
6.36895e-06
5.70681e-06
7.18879e-06
7.79704e-06
6.22166e-06
5.51165e-06
6.94992e-06
7.54896e-06
6.0447e-06
5.31399e-06
6.71377e-06
7.28466e-06
5.85968e-06
5.11435e-06
6.48314e-06
7.00757e-06
5.66668e-06
4.91291e-06
6.25915e-06
6.71987e-06
5.46731e-06
4.70967e-06
6.03584e-06
6.42641e-06
5.26359e-06
4.50455e-06
5.80815e-06
6.1323e-06
5.05757e-06
4.29745e-06
5.57401e-06
5.84029e-06
4.84804e-06
4.08829e-06
5.32904e-06
5.55048e-06
4.6304e-06
3.87706e-06
5.06509e-06
5.26225e-06
4.40337e-06
3.66374e-06
4.79279e-06
4.9756e-06
4.16983e-06
3.44844e-06
4.51518e-06
4.69099e-06
3.93251e-06
3.23147e-06
4.23332e-06
4.40861e-06
3.6926e-06
3.01319e-06
3.94829e-06
4.12827e-06
3.45026e-06
2.79411e-06
3.66125e-06
3.84956e-06
3.20522e-06
2.57485e-06
3.37346e-06
3.57229e-06
2.95753e-06
2.35621e-06
3.08622e-06
3.29667e-06
2.70767e-06
2.13907e-06
2.80097e-06
3.02323e-06
2.45845e-06
1.92399e-06
2.51826e-06
2.75255e-06
2.21382e-06
1.71165e-06
2.24043e-06
2.48407e-06
1.97612e-06
1.50409e-06
1.97143e-06
2.22112e-06
1.74695e-06
1.30325e-06
1.71172e-06
1.96599e-06
1.52752e-06
1.11099e-06
1.46122e-06
1.72027e-06
1.31873e-06
9.29197e-07
1.22345e-06
1.48537e-06
1.12161e-06
7.59668e-07
1.00072e-06
1.26262e-06
9.29724e-07
6.04021e-07
7.95089e-07
1.05337e-06
7.46045e-07
4.64415e-07
6.09219e-07
8.49598e-07
5.77885e-07
3.43072e-07
4.46491e-07
6.53212e-07
4.28195e-07
2.41692e-07
3.10055e-07
4.7772e-07
3.00373e-07
1.61064e-07
2.01914e-07
3.27818e-07
1.9713e-07
1.00678e-07
1.22049e-07
2.07807e-07
1.19509e-07
5.85418e-08
6.78562e-08
1.19648e-07
6.60991e-08
3.14083e-08
3.44337e-08
6.15528e-08
3.29692e-08
1.5409e-08
1.58172e-08
2.7869e-08
1.4652e-08
6.8295e-09
6.4842e-09
1.09223e-08
5.70308e-09
2.68231e-09
2.30324e-09
3.60747e-09
1.88712e-09
9.03555e-10
6.67978e-10
9.54007e-10
5.0262e-10
2.46777e-10
1.41246e-10
1.8302e-10
9.74518e-11
4.95139e-11
1.79318e-11
2.1263e-11
1.15786e-11
6.27253e-12
1.54012e-12
1.66291e-12
1.07306e-12
7.53238e-13
7.55977e-13
9.35493e-13
7.03894e-13
5.27425e-13
8.65568e-06
8.64748e-06
4.38327e-06
5.33243e-06
8.81324e-06
8.66552e-06
4.21318e-06
5.39841e-06
8.95482e-06
8.67408e-06
4.03171e-06
5.46849e-06
9.07512e-06
8.67333e-06
3.84813e-06
5.54117e-06
9.16904e-06
8.66847e-06
3.67219e-06
5.61597e-06
9.23237e-06
8.66364e-06
3.51414e-06
5.69238e-06
9.26235e-06
8.6599e-06
3.38372e-06
5.76941e-06
9.26145e-06
8.65542e-06
3.28928e-06
5.84544e-06
9.23179e-06
8.64603e-06
3.23738e-06
5.91842e-06
9.17564e-06
8.6254e-06
3.23164e-06
5.98607e-06
9.09552e-06
8.59431e-06
3.26816e-06
6.04642e-06
8.99424e-06
8.5575e-06
3.33473e-06
6.09724e-06
8.87481e-06
8.51854e-06
3.41838e-06
6.13735e-06
8.74037e-06
8.48006e-06
3.50958e-06
6.16581e-06
8.59414e-06
8.44363e-06
3.60252e-06
6.18238e-06
8.43932e-06
8.40884e-06
3.69414e-06
6.18699e-06
8.27893e-06
8.37386e-06
3.7833e-06
6.17976e-06
8.11579e-06
8.33664e-06
3.87008e-06
6.16122e-06
7.96354e-06
8.29543e-06
3.95501e-06
6.13162e-06
7.82695e-06
8.2489e-06
4.03848e-06
6.09137e-06
7.70547e-06
8.19606e-06
4.11951e-06
6.04089e-06
7.59448e-06
8.13627e-06
4.1911e-06
5.98068e-06
7.49004e-06
8.06913e-06
4.25511e-06
5.91163e-06
7.38876e-06
7.99451e-06
4.31271e-06
5.83495e-06
7.29015e-06
7.90553e-06
4.36433e-06
5.75197e-06
7.19462e-06
7.80105e-06
4.41016e-06
5.66401e-06
7.10092e-06
7.68197e-06
4.45133e-06
5.5723e-06
6.78096e-06
7.51459e-06
4.36345e-06
5.4782e-06
6.27033e-06
7.17432e-06
3.28156e-06
5.382e-06
5.82317e-06
6.77655e-06
2.7867e-06
5.28393e-06
5.64819e-06
6.40351e-06
2.97861e-06
5.18477e-06
5.74764e-06
6.0947e-06
3.65346e-06
5.08475e-06
5.96898e-06
5.84916e-06
4.34373e-06
4.95418e-06
6.12844e-06
5.64833e-06
4.59743e-06
4.68556e-06
6.1561e-06
5.47283e-06
4.55376e-06
4.39473e-06
6.09427e-06
5.30953e-06
4.49616e-06
4.16446e-06
5.97963e-06
5.15237e-06
4.42497e-06
4.02822e-06
5.81742e-06
4.99996e-06
4.31181e-06
3.95089e-06
5.61169e-06
4.85292e-06
3.77144e-06
3.88655e-06
5.37421e-06
4.71098e-06
3.27088e-06
3.80588e-06
5.12396e-06
4.57124e-06
3.05388e-06
3.69954e-06
4.87888e-06
4.42887e-06
3.13191e-06
3.57378e-06
4.64854e-06
4.2799e-06
3.34448e-06
3.44015e-06
4.43364e-06
4.12296e-06
3.47754e-06
3.30736e-06
4.22989e-06
3.95866e-06
3.4721e-06
3.17866e-06
4.03203e-06
3.7883e-06
3.35876e-06
3.05313e-06
3.83618e-06
3.61327e-06
3.16938e-06
2.92804e-06
3.64076e-06
3.43483e-06
2.95434e-06
2.80066e-06
3.44643e-06
3.25403e-06
2.7513e-06
2.66904e-06
3.25505e-06
3.0717e-06
2.57692e-06
2.53168e-06
3.06764e-06
2.88839e-06
2.42688e-06
2.38776e-06
2.8834e-06
2.70439e-06
2.28319e-06
2.23663e-06
2.70004e-06
2.51924e-06
2.12523e-06
2.07208e-06
2.51428e-06
2.32954e-06
1.95715e-06
1.90578e-06
2.32006e-06
2.13843e-06
1.78822e-06
1.74353e-06
2.12515e-06
1.95099e-06
1.62361e-06
1.58526e-06
1.93291e-06
1.7675e-06
1.46489e-06
1.43029e-06
1.74445e-06
1.58784e-06
1.31143e-06
1.27857e-06
1.56032e-06
1.41228e-06
1.16227e-06
1.13059e-06
1.38108e-06
1.24142e-06
1.01725e-06
9.87045e-07
1.20751e-06
1.07525e-06
8.77074e-07
8.48767e-07
1.04068e-06
9.0723e-07
7.30095e-07
7.16525e-07
8.81737e-07
7.29613e-07
5.80985e-07
5.90672e-07
7.21794e-07
5.65809e-07
4.43417e-07
4.60049e-07
5.60302e-07
4.19998e-07
3.21577e-07
3.3882e-07
4.15172e-07
2.95967e-07
2.1939e-07
2.3547e-07
2.90665e-07
1.9632e-07
1.39358e-07
1.52701e-07
1.90119e-07
1.21604e-07
8.16429e-08
9.13791e-08
1.14855e-07
6.98633e-08
4.37626e-08
4.99495e-08
6.34074e-08
3.70117e-08
2.13051e-08
2.47108e-08
3.16761e-08
1.79622e-08
9.32816e-09
1.09476e-08
1.4164e-08
7.90124e-09
3.60987e-09
4.27065e-09
5.57377e-09
3.09035e-09
1.19594e-09
1.42253e-09
1.8722e-09
1.03901e-09
3.20289e-10
3.82534e-10
5.07622e-10
2.83145e-10
6.24465e-11
7.48827e-11
1.00211e-10
5.62685e-11
7.25475e-12
8.76912e-12
1.18629e-11
6.66158e-12
4.0236e-13
5.26835e-13
7.58967e-13
3.61738e-13
1.15547e-13
1.81885e-13
3.01494e-13
8.87496e-14
)
;

boundaryField
{
    leftWall
    {
        type            nutUWallFunction;
        Cmu             0.09;
        kappa           0.41;
        E               9.8;
        value           nonuniform 0();
    }
    rightWall
    {
        type            nutUWallFunction;
        Cmu             0.09;
        kappa           0.41;
        E               9.8;
        value           uniform 0;
    }
    leftSides_periodic0
    {
        type            cyclic;
    }
    leftSides_periodic1
    {
        type            cyclic;
    }
    rightSides_periodic0
    {
        type            cyclic;
    }
    rightSides_periodic1
    {
        type            cyclic;
    }
    leftInOut_periodic0
    {
        type            cyclic;
    }
    leftInOut_periodic1
    {
        type            cyclic;
    }
    rightInOut_periodic0
    {
        type            cyclic;
    }
    rightInOut_periodic1
    {
        type            cyclic;
    }
    procBoundary3to1
    {
        type            processor;
        value           nonuniform List<scalar> 
316
(
4.85697e-06
1.67346e-06
8.09786e-06
5.25781e-06
4.87581e-06
1.55276e-06
8.24492e-06
5.84384e-06
4.93488e-06
1.49503e-06
8.37706e-06
7.14168e-06
5.03414e-06
1.5122e-06
8.48929e-06
7.17606e-06
5.16967e-06
1.59737e-06
8.5785e-06
7.19187e-06
5.33356e-06
1.7357e-06
8.64484e-06
7.19665e-06
5.51806e-06
1.91138e-06
8.69703e-06
7.19326e-06
5.71388e-06
2.11118e-06
8.74237e-06
7.18448e-06
5.91544e-06
2.32499e-06
8.78e-06
7.17236e-06
6.11692e-06
2.54565e-06
8.81035e-06
7.15814e-06
6.31187e-06
2.76722e-06
8.83301e-06
6.69885e-06
6.49766e-06
2.98572e-06
8.84732e-06
5.67776e-06
6.67289e-06
3.19717e-06
8.14878e-06
5.05182e-06
6.8341e-06
3.39974e-06
7.24415e-06
5.16028e-06
6.97565e-06
3.5921e-06
7.07026e-06
5.99889e-06
7.09509e-06
3.77336e-06
7.66634e-06
7.02777e-06
7.1924e-06
3.94419e-06
8.57677e-06
7.00386e-06
7.26971e-06
4.10462e-06
8.76132e-06
6.96948e-06
7.33028e-06
4.25429e-06
8.71322e-06
6.92407e-06
7.37337e-06
4.39305e-06
8.65571e-06
6.8676e-06
7.3991e-06
4.52037e-06
8.58722e-06
6.80054e-06
7.40795e-06
4.63528e-06
8.50688e-06
6.72358e-06
7.40052e-06
4.73832e-06
8.41461e-06
6.6375e-06
7.37735e-06
4.82852e-06
8.31104e-06
6.54318e-06
7.33905e-06
4.90478e-06
8.19738e-06
6.44159e-06
7.28631e-06
4.96582e-06
8.07533e-06
6.33359e-06
7.2199e-06
5.0103e-06
7.94698e-06
6.2201e-06
7.14063e-06
5.03725e-06
7.81468e-06
6.10218e-06
7.04953e-06
5.04802e-06
7.6782e-06
5.98056e-06
6.94806e-06
5.04456e-06
7.53894e-06
5.85535e-06
6.83757e-06
5.02705e-06
7.40024e-06
5.72544e-06
6.71828e-06
4.99584e-06
7.26646e-06
5.59092e-06
6.5894e-06
4.95173e-06
7.13664e-06
5.44856e-06
6.45033e-06
4.89599e-06
7.00786e-06
5.29547e-06
6.30122e-06
4.83011e-06
6.87637e-06
5.13329e-06
6.14212e-06
4.75429e-06
6.73456e-06
4.96351e-06
5.9708e-06
4.66876e-06
6.58072e-06
4.78742e-06
5.78376e-06
4.57399e-06
6.41439e-06
4.60619e-06
5.58251e-06
4.47054e-06
6.2361e-06
4.42086e-06
5.36945e-06
4.35903e-06
6.04653e-06
4.23238e-06
5.14672e-06
4.23695e-06
5.84647e-06
4.04158e-06
4.91629e-06
4.10421e-06
5.63682e-06
3.84918e-06
4.67999e-06
3.96216e-06
5.41856e-06
3.65584e-06
4.4396e-06
3.81206e-06
5.19272e-06
3.46216e-06
4.19682e-06
3.65504e-06
4.96039e-06
3.26872e-06
3.95321e-06
3.49218e-06
4.72271e-06
3.0761e-06
3.71017e-06
3.32447e-06
4.48081e-06
2.88486e-06
3.46884e-06
3.15283e-06
4.23586e-06
2.69555e-06
3.23017e-06
2.97813e-06
3.98902e-06
2.5087e-06
2.99499e-06
2.80119e-06
3.74142e-06
2.32481e-06
2.76409e-06
2.6228e-06
3.49409e-06
2.14437e-06
2.53821e-06
2.44356e-06
3.24793e-06
1.96781e-06
2.31803e-06
2.26399e-06
2.98798e-06
1.78934e-06
2.10421e-06
2.07477e-06
2.71582e-06
1.60535e-06
1.89738e-06
1.87487e-06
2.44494e-06
1.42853e-06
1.6981e-06
1.68213e-06
2.18537e-06
1.26251e-06
1.49532e-06
1.50037e-06
1.94329e-06
1.10805e-06
1.30326e-06
1.32995e-06
1.71812e-06
9.6493e-07
1.12444e-06
1.17004e-06
1.50804e-06
8.3281e-07
9.59835e-07
1.0198e-06
1.31192e-06
7.11342e-07
8.09876e-07
8.78732e-07
1.12917e-06
6.00153e-07
6.74393e-07
7.47001e-07
9.59457e-07
4.98429e-07
5.52759e-07
6.24713e-07
8.02314e-07
3.99564e-07
4.37382e-07
5.03246e-07
6.56853e-07
3.07148e-07
3.30973e-07
3.86764e-07
5.13083e-07
2.26875e-07
2.39389e-07
2.83644e-07
3.80416e-07
1.5983e-07
1.63888e-07
1.96456e-07
2.67108e-07
1.06529e-07
1.05076e-07
1.26996e-07
1.75436e-07
6.66323e-08
6.24166e-08
7.56501e-08
1.06329e-07
3.88075e-08
3.40012e-08
4.0983e-08
5.86351e-08
2.08856e-08
1.68172e-08
1.99165e-08
2.90048e-08
1.02974e-08
7.46355e-09
8.548e-09
1.2673e-08
4.59465e-09
2.91898e-09
3.17415e-09
4.79564e-09
1.81924e-09
9.75284e-10
9.89387e-10
1.52624e-09
6.18431e-10
2.63564e-10
2.46615e-10
3.89256e-10
1.70651e-10
5.22991e-11
4.51948e-11
7.30459e-11
3.47522e-11
6.61447e-12
5.38839e-12
8.80702e-12
4.65755e-12
8.70236e-13
7.74886e-13
1.08853e-12
8.01043e-13
6.42267e-13
7.70751e-13
9.36037e-13
6.60268e-13
)
;
    }
    procBoundary3to1throughrightSides_periodic1
    {
        type            processorCyclic;
        value           nonuniform List<scalar> 
314
(
1.32794e-05
1.33312e-05
1.33742e-05
1.3407e-05
1.34333e-05
1.34529e-05
1.34652e-05
1.34628e-05
1.34391e-05
1.33936e-05
1.33248e-05
1.32295e-05
1.31084e-05
1.29684e-05
1.28119e-05
1.26383e-05
1.24444e-05
1.22263e-05
1.19869e-05
1.17283e-05
1.14528e-05
1.11635e-05
1.08631e-05
1.05542e-05
1.02393e-05
9.92069e-06
9.60051e-06
9.28083e-06
8.96358e-06
8.65072e-06
8.34429e-06
8.04569e-06
7.74819e-06
7.44914e-06
7.15024e-06
6.85211e-06
6.55519e-06
6.26092e-06
5.97062e-06
5.68532e-06
5.4058e-06
5.0699e-06
4.40675e-06
3.75624e-06
3.39657e-06
3.38319e-06
3.52426e-06
3.55195e-06
3.36135e-06
3.06952e-06
2.79107e-06
2.53308e-06
2.27671e-06
2.03625e-06
1.82127e-06
1.62716e-06
1.44847e-06
1.28122e-06
1.12318e-06
9.73429e-07
8.31702e-07
6.97824e-07
5.72016e-07
4.43086e-07
3.23363e-07
2.22915e-07
1.43803e-07
8.61066e-08
4.75629e-08
2.41173e-08
1.1148e-08
4.62839e-09
1.67302e-09
4.95493e-10
1.07405e-10
1.40961e-11
1.29946e-12
6.49317e-13
6.68613e-06
9.2882e-06
1.3157e-05
1.32402e-05
1.33281e-05
1.34177e-05
1.3504e-05
1.35807e-05
1.36418e-05
1.36824e-05
1.36992e-05
1.36907e-05
1.36576e-05
1.35996e-05
1.35192e-05
1.34188e-05
1.33011e-05
1.31684e-05
1.30223e-05
1.2864e-05
1.26949e-05
1.25132e-05
1.23198e-05
1.21155e-05
1.19006e-05
1.16757e-05
1.1441e-05
1.11963e-05
1.09427e-05
1.0682e-05
1.04139e-05
9.60822e-06
8.74898e-06
8.11445e-06
7.71252e-06
7.51112e-06
7.47096e-06
7.50568e-06
7.51723e-06
7.42489e-06
7.20055e-06
6.87748e-06
6.50807e-06
6.12862e-06
5.75804e-06
5.40518e-06
5.07221e-06
4.75707e-06
4.456e-06
4.16536e-06
3.88247e-06
3.60588e-06
3.33522e-06
3.07066e-06
2.81236e-06
2.56012e-06
2.3122e-06
2.06907e-06
1.83496e-06
1.61053e-06
1.39617e-06
1.1924e-06
9.99681e-07
8.17317e-07
6.3598e-07
4.623e-07
3.14304e-07
1.96727e-07
1.11561e-07
5.65228e-08
2.52845e-08
9.84525e-09
3.25062e-09
8.63951e-10
1.6715e-10
1.94241e-11
1.24379e-12
5.13012e-13
8.82295e-06
8.71523e-06
8.60337e-06
8.49135e-06
8.38282e-06
8.28207e-06
8.19282e-06
8.11459e-06
8.04695e-06
7.98924e-06
7.94043e-06
7.89937e-06
7.86539e-06
7.83721e-06
7.81152e-06
7.78611e-06
7.75983e-06
7.73091e-06
7.69277e-06
7.64578e-06
7.59134e-06
7.53074e-06
7.46573e-06
7.39812e-06
7.32945e-06
7.26032e-06
7.18964e-06
7.12044e-06
4.84199e-06
3.31673e-06
3.11628e-06
4.40835e-06
6.74398e-06
6.70218e-06
6.63365e-06
6.53678e-06
6.40907e-06
6.25553e-06
6.07956e-06
5.88372e-06
5.67116e-06
5.44643e-06
5.2134e-06
4.9752e-06
4.73437e-06
4.47465e-06
4.13128e-06
3.71242e-06
3.28419e-06
2.97266e-06
2.8094e-06
2.71985e-06
2.61416e-06
2.44709e-06
2.23079e-06
2.00089e-06
1.78997e-06
1.60078e-06
1.42662e-06
1.26203e-06
1.10475e-06
9.54253e-07
8.10736e-07
6.74206e-07
5.45315e-07
4.08848e-07
2.87301e-07
1.88284e-07
1.13829e-07
6.29478e-08
3.16578e-08
1.43988e-08
5.85234e-09
2.06534e-09
5.95628e-10
1.24866e-10
1.55151e-11
1.21724e-12
5.72152e-13
6.29296e-06
9.17347e-06
9.24583e-06
9.30704e-06
9.35582e-06
9.3829e-06
9.38587e-06
9.36744e-06
9.33311e-06
9.29018e-06
9.24026e-06
9.18208e-06
9.11653e-06
9.04354e-06
8.95871e-06
8.86276e-06
8.75593e-06
8.63841e-06
8.51075e-06
8.37363e-06
8.22784e-06
8.07429e-06
7.91394e-06
7.74781e-06
7.57733e-06
7.40423e-06
7.2299e-06
7.05535e-06
6.88111e-06
6.70483e-06
6.52432e-06
6.33957e-06
6.14897e-06
5.95182e-06
5.74944e-06
5.54305e-06
5.33379e-06
5.0168e-06
4.55623e-06
4.28989e-06
4.23452e-06
4.21167e-06
4.0538e-06
3.85062e-06
3.57975e-06
3.31194e-06
3.06302e-06
2.83712e-06
2.63059e-06
2.43677e-06
2.24637e-06
2.05969e-06
1.88263e-06
1.71511e-06
1.55597e-06
1.4043e-06
1.25954e-06
1.12137e-06
9.89712e-07
8.64618e-07
7.46128e-07
6.34172e-07
5.28123e-07
4.14774e-07
3.10883e-07
2.21562e-07
1.48862e-07
9.35012e-08
5.44786e-08
2.92288e-08
1.43175e-08
6.32335e-09
2.46725e-09
8.22752e-10
2.21909e-10
4.39331e-11
5.37724e-12
4.7256e-13
2.91143e-13
)
;
    }
    procBoundary3to2
    {
        type            processor;
        value           nonuniform List<scalar> 
11
(
1.13948e-05
6.81971e-06
8.56749e-06
6.15884e-06
8.48752e-06
8.62238e-06
4.5426e-06
5.28409e-06
4.5426e-06
5.28409e-06
5.28409e-06
)
;
    }
    procBoundary3to2throughrightInOut_periodic0
    {
        type            processorCyclic;
        value           uniform 4.5426e-06;
    }
}


// ************************************************************************* //
