/*--------------------------------*- C++ -*----------------------------------*\
| =========                 |                                                 |
| \\      /  F ield         | OpenFOAM: The Open Source CFD Toolbox           |
|  \\    /   O peration     | Version:  v1906                                 |
|   \\  /    A nd           | Web:      www.OpenFOAM.com                      |
|    \\/     M anipulation  |                                                 |
\*---------------------------------------------------------------------------*/
FoamFile
{
    version     2.0;
    format      ascii;
    class       volScalarField;
    location    "96.4";
    object      omega;
}
// * * * * * * * * * * * * * * * * * * * * * * * * * * * * * * * * * * * * * //

dimensions      [0 0 -1 0 0 0 0];


internalField   nonuniform List<scalar> 
630
(
26.8879
42.2244
25.9767
33.3638
27.8421
40.6651
25.7849
33.2589
28.9427
39.3755
25.7351
33.2788
30.1245
38.1892
25.8437
33.5239
31.3767
37.0841
26.1349
34.0045
32.6916
36.0785
26.6282
34.7061
34.046
35.1944
27.3452
35.6099
35.4042
34.4517
28.3053
36.6936
36.9044
33.8626
29.5291
37.9292
38.7085
33.4406
31.0239
39.2818
40.1346
33.1955
32.6982
40.7138
40.7612
33.1331
34.4712
42.1942
41.2247
33.2529
36.3736
43.8289
41.8081
33.5618
38.3892
45.5446
42.5699
34.0536
40.4746
46.6489
43.5086
34.7266
42.5758
47.2175
44.6174
35.5903
44.8802
47.7509
45.8907
36.6531
47.3556
48.4629
47.3191
37.9236
49.2381
49.3981
48.8926
39.4076
50.4559
50.5519
50.5977
41.1111
51.5439
51.9165
52.4252
43.0394
52.7912
53.4861
54.3425
45.1807
54.2613
55.2509
56.3806
47.5031
55.9511
57.1984
58.5564
49.9916
57.8522
59.2824
60.8785
52.6543
59.9575
61.5953
63.3611
55.4961
62.2539
64.23
66.167
58.4838
64.726
66.7947
69.5134
61.552
67.3563
68.7084
73.0753
64.7371
70.3142
70.1558
75.9185
68.3902
73.7121
71.5882
77.8532
72.8836
76.9154
73.238
79.5127
77.7706
79.179
75.1096
81.3189
81.5883
80.8188
77.1523
83.3884
84.0721
82.4189
79.3564
85.7467
86.1979
84.2224
81.7411
88.3635
88.522
86.3005
84.3187
91.1865
91.1962
88.6644
87.0786
94.2088
94.2454
91.304
90.0134
97.4383
97.6834
94.2454
93.1204
100.886
101.484
97.5097
96.4024
104.552
105.645
101.1
99.8699
108.44
110.192
105.023
103.54
112.569
115.164
109.293
107.435
116.977
120.591
113.931
111.586
121.707
126.502
118.965
116.029
126.844
132.934
124.441
120.809
132.483
139.931
130.412
125.983
138.698
147.55
136.94
131.615
145.566
155.857
144.096
137.781
153.174
164.93
151.967
144.569
161.631
174.866
160.658
152.083
171.06
185.782
170.285
160.443
181.612
197.817
180.99
169.787
193.463
211.17
192.937
180.278
206.822
226.042
206.313
192.154
221.934
242.665
221.328
205.728
239.098
261.32
238.29
221.249
258.67
282.347
257.573
239.032
281.092
306.158
279.581
259.483
306.92
333.267
304.822
283.142
336.878
364.347
333.971
310.775
371.954
400.345
367.966
343.511
413.653
442.54
408.148
382.937
464.138
492.787
456.558
431.31
526.508
553.894
516.273
492.033
605.409
630.265
591.96
570.353
708.067
728.822
691.109
674.453
845.798
860.969
826.091
817.229
1036.33
1046.48
1017.53
1019.35
1307.69
1320.04
1300.35
1315.08
1706.43
1743.84
1735.77
1764.37
2317.81
2434.41
2439.15
2480.22
3322.1
3631.41
3649.11
3696.91
5167.72
5895.64
5926.62
5962.58
9193.22
10783.1
10829.8
10788.1
20435.4
23791
23860.5
23451.2
65831.4
73227.6
73326
70658.9
439448
439448
439448
439448
24.1266
26.9865
22.9163
36.0272
24.4358
27.4299
23.1248
35.5614
24.8143
27.9472
23.4758
35.036
25.2629
28.5264
23.9638
34.491
25.786
29.1412
24.5868
33.9651
26.3896
29.7699
25.3403
33.4936
27.0797
30.4041
26.2144
33.1076
27.851
31.0499
27.1903
32.8322
28.7024
31.7265
28.24
32.6859
29.6355
32.4671
29.3345
32.6799
30.6539
33.2829
30.4461
32.8187
31.7632
34.1716
31.5598
33.1049
32.9712
35.1343
32.6868
33.534
34.2876
36.1746
33.8528
34.1011
35.7244
37.2961
35.084
34.7986
37.2955
38.5
36.4053
35.6201
39.0161
39.7855
37.838
36.5607
40.9036
41.1516
39.3984
37.6155
42.9151
42.5988
41.0981
38.7842
45.0267
44.1283
42.944
40.068
47.2255
45.7427
44.9508
41.471
49.522
47.4457
47.198
42.9995
51.9254
49.2422
49.6701
44.6595
54.4444
51.1387
52.352
46.4571
57.0623
53.1896
55.2241
48.3979
59.75
55.4214
58.2608
50.489
62.4932
57.8526
61.4338
52.739
65.3054
60.5138
64.9064
55.1556
68.2119
63.4489
68.8556
57.7595
71.1423
66.6667
72.8228
60.5733
73.9126
70.1302
75.9864
63.6151
76.4098
73.7933
78.3661
66.9144
78.7111
77.6081
80.6435
70.4997
80.993
81.5467
83.2778
74.3996
83.4104
85.5952
86.3917
78.6502
86.0544
89.7508
90.0018
83.2266
88.995
94.0166
94.1026
88.0405
92.311
98.4119
98.7815
93.0222
96.0619
102.98
104.16
98.1569
100.275
107.744
110.032
103.482
104.965
112.708
115.755
109.065
110.132
117.88
120.883
114.966
115.766
123.278
125.633
121.224
121.859
128.923
130.567
127.861
128.413
134.836
136.09
134.888
135.44
141.04
142.305
142.32
142.963
147.563
149.252
150.185
151.012
154.434
156.964
158.529
159.621
161.69
165.379
167.419
168.828
169.375
174.428
176.941
178.681
177.544
184.092
187.195
189.249
186.263
194.446
198.295
200.629
195.616
205.628
210.379
212.953
205.709
217.785
223.522
226.382
216.667
231.024
237.845
241.093
228.581
245.439
253.511
257.284
241.54
261.163
270.733
275.122
255.795
278.416
289.79
294.829
271.684
297.537
311.057
316.773
289.665
319.027
335.042
341.475
310.372
343.613
362.446
369.655
334.696
372.367
394.256
402.341
363.898
406.896
431.921
441.035
399.686
449.562
477.613
488.009
444.477
503.855
534.541
546.594
501.966
575.135
607.669
621.792
577.843
671.849
705.063
721.622
680.897
807.366
839.858
859.129
824.741
1003.04
1033.48
1055.68
1030.79
1293.95
1321.49
1346.94
1334.06
1741
1765.6
1794.86
1795.6
2458.94
2481.35
2515.52
2530.81
3686.44
3708.14
3749.19
3779.97
5985.33
6008.39
6059.75
6107.92
10915.7
10942.7
11010.5
11079.9
23982.3
24016.6
24110.9
24208.2
73486.5
73530.8
73656.7
73783
439448
439448
439448
439448
)
;

boundaryField
{
    leftWall
    {
        Cmu             0.09;
        kappa           0.41;
        E               9.8;
        beta1           0.075;
        blended         true;
        type            omegaWallFunction;
        value           nonuniform 0();
    }
    rightWall
    {
        Cmu             0.09;
        kappa           0.41;
        E               9.8;
        beta1           0.075;
        blended         true;
        type            omegaWallFunction;
        value           nonuniform List<scalar> 8(439448 439448 439448 439448 439448 439448 439448 439448);
    }
    leftSides_periodic0
    {
        type            cyclic;
    }
    leftSides_periodic1
    {
        type            cyclic;
    }
    rightSides_periodic0
    {
        type            cyclic;
    }
    rightSides_periodic1
    {
        type            cyclic;
    }
    leftInOut_periodic0
    {
        type            cyclic;
    }
    leftInOut_periodic1
    {
        type            cyclic;
    }
    rightInOut_periodic0
    {
        type            cyclic;
    }
    rightInOut_periodic1
    {
        type            cyclic;
    }
    procBoundary3to1
    {
        type            processor;
        value           nonuniform List<scalar> 
316
(
26.6507
34.3114
26.7918
35.2657
27.7278
33.2457
26.9337
35.7557
28.9432
32.2091
27.2681
35.9666
30.2531
31.2896
27.7965
36.1706
31.615
30.5415
28.5179
36.4935
32.9959
29.9831
29.4214
36.974
34.3581
29.6146
30.4555
37.613
35.6796
29.4292
31.579
38.4028
36.9282
29.4229
32.7925
39.3312
38.0914
29.5908
34.0876
40.3839
39.1632
29.9377
35.4586
41.5407
40.1302
30.4603
36.8964
42.7996
41.0119
31.1457
38.4022
44.088
41.8508
31.975
39.9908
45.1514
42.6977
32.9491
41.6366
45.8184
43.5805
34.0613
43.2389
46.256
44.5095
35.2892
44.6738
46.6579
45.4798
36.6164
45.954
47.1188
46.4778
38.0315
47.1701
47.6691
47.5136
39.5234
48.3669
48.3112
48.5917
41.0867
49.5772
49.0442
49.7141
42.7219
50.825
49.8649
50.8817
44.4186
52.1251
50.7666
52.0945
46.1825
53.49
51.7402
53.351
48.0232
54.9284
52.7743
54.6484
49.9546
56.4455
53.8566
55.9823
51.9936
58.0431
54.9731
57.3469
54.153
59.7194
56.1076
58.7328
56.4107
61.493
57.2506
60.125
58.7386
63.3732
58.4057
61.5104
61.138
65.3509
59.5951
62.893
63.6064
67.3928
60.832
64.2931
66.1324
69.4932
62.1686
65.7348
68.7021
71.6597
63.6615
67.2361
71.3141
73.9148
65.3207
68.8162
74.0003
76.3351
67.1586
70.5234
76.7981
78.9492
69.1908
72.4306
79.7403
81.7795
71.4358
74.5618
82.8547
84.8426
73.9148
76.9322
86.1651
88.1591
76.6515
79.563
89.7607
91.7531
79.6719
82.4811
93.6968
95.6533
83.0046
85.7181
98.0038
99.8928
86.682
89.3122
102.717
104.51
90.7412
93.3085
107.879
109.548
95.225
97.7603
113.535
115.059
100.182
102.729
119.742
121.1
105.67
108.283
126.562
127.737
111.751
114.498
134.066
135.049
118.499
121.461
142.338
143.124
125.997
129.269
151.475
152.069
134.34
138.036
161.6
162.008
143.633
147.897
172.86
173.124
153.998
159.007
185.413
185.644
165.584
171.55
199.415
199.778
178.546
185.743
215.015
215.735
193.028
201.842
232.355
233.701
209.253
220.138
251.601
253.887
227.545
240.958
272.981
276.554
248.149
264.672
296.814
302.049
271.391
291.727
323.548
330.837
297.736
322.711
353.826
363.563
327.862
358.468
388.549
401.151
362.798
400.216
429.156
444.972
404.06
449.895
477.883
497.137
453.879
510.536
538.121
560.831
515.684
586.973
615.197
641.104
594.843
687.039
717.983
746.428
699.743
823.467
861.496
891.326
843.529
1017.04
1071.59
1100.99
1047.12
1302.37
1393.8
1419.69
1345.02
1739.77
1911.18
1927.81
1797.48
2442.37
2782.85
2778.09
2518.01
3644.03
4332.24
4279.84
3741.88
5891.56
7274.46
7118.44
6019.01
10692.6
13424
13044.9
10863.2
23317.4
28622.2
27745.3
23554.7
70458.3
81024.5
78795.6
70777.6
439448
439448
439448
439448
)
;
    }
    procBoundary3to1throughrightSides_periodic1
    {
        type            processorCyclic;
        value           nonuniform List<scalar> 
314
(
27.4013
28.1709
28.9499
29.7292
30.4909
31.2269
31.9329
32.6228
33.3121
34.0044
34.7076
35.4363
36.1965
36.9779
37.7809
38.6148
39.4975
40.452
41.4813
42.5914
43.7883
45.0757
46.4587
47.9436
49.5375
51.2489
53.087
55.0621
57.1856
59.4693
61.9223
64.552
67.4289
70.6031
74.0933
77.9315
82.1565
86.7989
91.8919
97.4764
103.609
110.361
117.766
125.826
134.333
142.728
150.786
158.888
167.614
177.438
188.591
201.154
215.243
230.943
248.259
267.189
287.789
310.213
334.748
361.85
392.196
426.781
467.101
515.389
574.947
650.839
750.933
887.263
1078.02
1351.18
1752.78
2367.64
3375.98
5225.46
9245.19
20412.6
65299.5
439448
42.6975
41.475
40.2113
39.0075
37.9042
36.91
36.0441
35.3282
34.7786
34.4054
34.2129
34.2007
34.3634
34.7
35.2034
35.8669
36.6844
37.6501
38.7608
40.0135
41.4055
42.9437
44.6276
46.4583
48.4372
50.5662
52.8494
55.3016
57.9289
60.7285
63.7211
66.9564
70.4958
74.3408
78.4184
82.6402
86.927
91.2493
95.6477
100.219
105.087
110.373
116.182
122.595
129.666
137.43
145.914
155.145
165.161
176.011
187.763
200.501
214.333
229.398
245.857
263.898
283.76
305.736
330.19
357.593
388.586
424.074
465.367
514.407
574.21
649.34
746.951
879.226
1067.3
1347.63
1784.17
2495.29
3723.02
6031.61
10981.2
24069.5
73576.3
439448
26.8682
26.9763
27.2523
27.6949
28.2971
29.0432
29.9148
30.9062
32.0101
33.218
34.5213
35.9106
37.3709
38.8924
40.4812
42.1415
43.8768
45.7011
47.6623
49.7734
52.0461
54.4955
57.1332
59.9707
63.0246
66.3321
69.9873
74.0498
78.37
83.14
87.6404
88.7762
88.0782
87.4433
87.2966
87.6702
88.6014
90.0768
92.1224
94.7741
98.0615
101.993
106.585
111.867
117.884
124.702
132.408
141.064
150.73
161.325
172.505
184.06
196.116
209.037
223.273
239.146
256.777
276.2
297.499
320.892
346.772
375.753
408.748
447.113
492.94
549.39
621.194
715.87
845.283
1027.75
1291.69
1683.01
2284.64
3272.94
5092.58
9090.76
20399.8
66691.8
439448
35.2156
35.4489
35.6859
36.0203
36.4625
36.9898
37.5875
38.2402
38.9248
39.6096
40.2847
40.953
41.6086
42.2518
42.9069
43.58
44.2818
45.025
45.8197
46.6748
47.5981
48.5961
49.6743
50.8372
52.086
53.4181
54.8316
56.3249
57.8996
59.5827
61.4077
63.3956
65.5888
68.0252
70.7205
73.6919
76.9611
80.5451
84.4772
88.7383
93.2235
97.9114
102.913
108.391
114.476
121.258
128.794
137.113
146.233
156.175
166.977
178.691
191.37
205.069
219.862
235.863
253.156
271.818
292.123
314.45
339.341
367.586
400.338
439.326
487.043
547.188
625.586
731.4
879.092
1091.91
1408.72
1898.2
2690.52
4052.44
6592.45
11934.2
25614.2
75634.3
439448
)
;
    }
    procBoundary3to2
    {
        type            processor;
        value           nonuniform List<scalar> 
11
(
26.0918
44.0165
26.2643
33.1481
23.8958
26.6285
22.8156
36.3466
22.8156
36.3466
36.3466
)
;
    }
    procBoundary3to2throughrightInOut_periodic0
    {
        type            processorCyclic;
        value           uniform 22.8156;
    }
}


// ************************************************************************* //
