/*--------------------------------*- C++ -*----------------------------------*\
| =========                 |                                                 |
| \\      /  F ield         | OpenFOAM: The Open Source CFD Toolbox           |
|  \\    /   O peration     | Version:  v1906                                 |
|   \\  /    A nd           | Web:      www.OpenFOAM.com                      |
|    \\/     M anipulation  |                                                 |
\*---------------------------------------------------------------------------*/
FoamFile
{
    version     2.0;
    format      ascii;
    class       volScalarField;
    location    "96.4";
    object      omega;
}
// * * * * * * * * * * * * * * * * * * * * * * * * * * * * * * * * * * * * * //

dimensions      [0 0 -1 0 0 0 0];


internalField   nonuniform List<scalar> 
630
(
156509
156509
156509
156509
27204.5
24346
25063.9
25020.9
9339.59
8236.23
8593.34
8560.68
4503.98
4013.02
4213.87
4224.26
2643.06
2383.42
2515.64
2554.42
1763.58
1593.49
1695.49
1748.22
1287.05
1153.68
1241.65
1298.54
1001.03
885.451
965.589
1020.86
814.588
710.561
784.879
835.337
684.497
590.157
659.086
703.128
588.605
503.236
566.811
603.826
514.831
437.939
496.119
526.069
456.19
387.218
440.047
463.201
408.391
346.731
394.352
411.081
368.595
313.691
356.242
367.026
334.878
286.242
323.827
329.277
305.915
263.102
295.844
296.656
280.754
243.348
271.407
268.326
258.694
226.299
249.879
243.662
239.21
211.444
230.787
222.158
221.893
198.389
213.77
203.402
206.423
186.816
198.547
187.037
192.462
176.476
184.898
172.742
179.811
167.171
172.648
160.238
168.314
158.743
161.655
149.149
157.853
151.064
151.712
139.237
148.329
144.029
142.636
130.348
139.655
137.552
134.338
122.349
131.748
131.557
126.737
115.127
124.528
125.98
119.765
108.576
117.888
120.764
113.356
102.603
111.766
115.857
107.455
97.1289
106.108
111.222
102.002
92.0872
100.874
106.85
96.9525
87.4248
96.0273
102.764
92.2676
83.1027
91.5342
98.9364
87.9144
79.0954
87.3637
95.3572
83.8646
75.389
83.4886
92.0153
80.094
71.9739
79.8875
88.9
76.5827
68.8403
76.5418
86.0065
73.3136
65.9757
73.4354
83.3004
70.2715
63.3664
70.5548
80.6998
67.4429
60.9976
67.8891
78.1483
64.8155
58.8546
65.4292
75.6923
62.3779
56.9221
63.1619
73.3773
60.1195
55.1845
61.0736
71.2121
58.0277
53.6264
59.1513
69.2152
56.0863
52.2345
57.3772
67.3967
54.2792
51.0014
55.7361
65.7633
52.5919
49.9275
54.231
64.325
51.0094
49.0563
52.8457
63.1094
49.5154
48.3755
51.5694
62.1252
48.0913
47.8689
50.3987
61.2978
46.7205
47.5177
49.2724
60.3584
45.3945
47.3221
47.9119
58.7871
44.11
47.2147
45.9813
56.79
42.8657
47.0877
43.9172
54.9049
41.6586
46.3495
41.9216
53.2161
40.4863
44.0542
39.9148
51.7344
39.3492
41.4541
38.0156
50.4496
38.2475
39.1903
36.2089
49.3477
37.1843
37.0911
34.4886
48.426
36.1775
35.1749
32.886
47.6888
35.2385
33.406
31.4212
47.145
34.3752
31.7721
30.1064
46.81
33.5906
30.4006
28.9453
46.7083
32.8817
29.3749
27.9317
46.8674
32.2414
28.6654
27.063
47.335
31.6584
28.238
26.3322
47.9998
31.1166
28.0776
25.7342
47.719
30.5993
28.1297
25.2664
46.3324
30.0958
28.3904
24.9272
45.0042
29.6016
28.8222
24.715
43.9295
29.1164
29.393
24.6282
43.1255
28.642
30.0677
24.663
42.5813
28.183
30.8225
24.8241
42.2796
27.7538
31.6586
25.1102
42.2106
27.3779
32.5875
25.5192
42.3682
27.0848
33.5803
26.0478
42.763
156508
156508
156509
156509
26924.9
26938
27004.4
27032.5
9129.45
9139.57
9203.47
9224.37
4338.31
4345.25
4410.97
4423.22
2499.67
2504.72
2575.74
2581.13
1632.37
1636.63
1712.49
1713.2
1165.74
1169.55
1247.94
1245.61
890.436
893.705
971.88
967.67
716.015
718.534
794.096
788.869
598.683
600.305
671.602
665.944
515.479
516.183
582.356
576.614
453.671
453.526
514.357
508.721
405.892
404.985
460.752
455.271
367.731
366.171
417.278
412.019
336.409
334.293
381.112
376.197
310.053
307.472
350.397
345.881
287.383
284.434
323.871
319.754
267.537
264.309
300.644
296.886
249.913
246.481
280.067
276.596
234.081
230.5
261.65
258.378
219.727
216.034
245.018
241.844
206.612
202.831
229.873
226.693
194.554
190.696
215.979
212.688
183.399
179.492
203.142
199.64
173.031
169.13
191.199
187.57
163.358
159.574
180.103
176.425
154.313
150.828
169.818
166.137
145.846
142.908
160.245
156.682
137.915
135.798
151.307
148.041
130.482
129.408
142.939
140.152
123.559
123.569
135.092
132.877
117.105
118.05
127.722
126.012
111.088
112.613
120.792
119.317
105.48
107.12
114.267
112.584
100.254
101.605
108.115
105.722
95.3925
96.283
102.306
98.865
90.8769
91.344
96.8118
92.3572
86.6939
86.8385
91.6703
86.4679
82.832
82.731
86.8975
81.2305
79.281
78.9806
82.4739
76.5602
76.031
75.5555
78.3839
72.3626
73.0714
72.4257
74.6146
68.5876
70.3898
69.5652
71.1558
65.2135
67.9694
66.9533
67.9979
62.2155
65.7856
64.5763
65.1272
59.5369
63.8003
62.4318
62.5248
57.0542
61.9569
60.5216
60.1714
54.5567
60.1763
58.8312
58.0448
52.0242
58.3591
57.3063
56.116
49.5622
56.3907
55.846
54.3479
47.2438
54.2426
54.3606
52.6573
45.0491
51.9744
52.8647
50.9748
42.9452
49.6899
51.4445
49.2708
40.9868
47.4945
50.1581
47.5475
39.1649
45.433
49.0219
45.8426
37.4497
43.4797
48.0358
44.204
35.8335
41.6104
47.1973
42.6391
34.3157
39.8259
46.5038
41.1452
32.8918
38.1264
45.9438
39.7358
31.5587
36.5135
45.4859
38.4257
30.3133
34.9893
45.0681
37.2242
29.1599
33.5617
44.5973
36.1335
28.1483
32.2401
43.9626
35.1441
27.3158
31.0271
43.1029
34.247
26.6596
29.9216
42.0519
33.4464
26.1756
28.9194
40.8813
32.7393
25.8598
28.013
39.671
32.1166
25.7112
27.2003
38.5056
31.5643
25.7308
26.4803
37.4888
31.0638
25.9198
25.8538
36.7173
30.594
26.2615
25.3236
36.2292
30.1329
26.7424
24.8952
35.9956
29.6616
27.3594
24.5767
35.9493
29.1698
28.1041
24.3782
36.0172
28.6633
28.9742
24.3135
36.1287
28.1605
29.9562
24.3982
36.2061
27.6911
31.0141
24.6538
36.1618
27.2876
32.1171
25.1025
35.8836
26.9858
33.2404
25.7668
35.2584
26.8192
34.3399
)
;

boundaryField
{
    leftWall
    {
        Cmu             0.09;
        kappa           0.41;
        E               9.8;
        beta1           0.075;
        blended         true;
        type            omegaWallFunction;
        value           nonuniform List<scalar> 8(156509 156508 156509 156508 156509 156509 156509 156509);
    }
    rightWall
    {
        Cmu             0.09;
        kappa           0.41;
        E               9.8;
        beta1           0.075;
        blended         true;
        type            omegaWallFunction;
        value           nonuniform 0();
    }
    leftSides_periodic0
    {
        type            cyclic;
    }
    leftSides_periodic1
    {
        type            cyclic;
    }
    rightSides_periodic0
    {
        type            cyclic;
    }
    rightSides_periodic1
    {
        type            cyclic;
    }
    leftInOut_periodic0
    {
        type            cyclic;
    }
    leftInOut_periodic1
    {
        type            cyclic;
    }
    rightInOut_periodic0
    {
        type            cyclic;
    }
    rightInOut_periodic1
    {
        type            cyclic;
    }
    procBoundary0to1
    {
        type            processor;
        value           nonuniform List<scalar> 
11
(
26.9068
34.5923
26.6801
26.9068
43.1644
26.9068
34.5923
26.6507
34.3114
26.7918
35.2657
)
;
    }
    procBoundary0to1throughleftInOut_periodic1
    {
        type            processorCyclic;
        value           uniform 34.5923;
    }
    procBoundary0to2
    {
        type            processor;
        value           nonuniform List<scalar> 
316
(
156509
156508
156509
156509
27010.4
26880.4
26977
27008.5
9204.94
9099.52
9176.57
9212.93
4415.43
4323.15
4390.08
4431.67
2585.76
2494.98
2561.52
2607.95
1728.05
1634.78
1704.84
1754.07
1268.06
1173.29
1246.73
1296.46
995.28
901.942
976.845
1025.13
819.575
730.678
804.757
850.29
698.16
615.862
687.225
729.29
609.207
534.6
602.026
640.382
540.847
474.195
537.116
571.581
486.127
427.376
485.451
515.9
440.804
389.684
442.726
469.097
402.262
358.284
406.302
428.572
368.823
331.354
374.519
392.755
339.365
307.711
346.294
360.625
313.117
286.566
320.898
331.495
289.522
267.373
297.827
304.891
268.168
249.891
276.716
280.474
248.735
233.902
257.292
257.992
230.968
219.184
239.355
237.252
214.656
205.551
222.737
218.095
199.612
192.852
207.289
200.377
185.675
180.962
192.876
183.934
172.723
169.813
179.38
168.58
160.681
159.416
166.689
154.3
149.534
149.832
154.749
141.316
139.315
141.087
143.548
129.672
130.045
133.094
133.118
119.168
121.696
125.687
123.524
109.695
114.183
118.744
114.822
101.232
107.408
112.271
107.007
93.7217
101.281
106.338
99.994
87.0018
95.7272
100.955
93.6784
80.9466
90.6937
96.0648
87.9908
75.4923
86.1387
91.589
82.8867
70.5157
82.0257
87.4695
78.2479
65.9176
78.3229
83.6683
73.9943
61.6658
75.0022
80.1548
70.1068
57.7055
72.0389
76.904
66.5675
53.9926
69.4113
73.8957
63.3592
50.6258
67.1005
71.1155
60.465
47.6996
65.0904
68.5543
57.8675
45.1735
63.37
66.208
55.5483
42.9854
61.9332
64.0597
53.4881
41.0753
60.7642
62.084
51.6654
39.3867
59.778
60.2703
50.0567
37.8686
58.6155
58.6147
48.6396
36.4779
56.642
57.1152
47.3841
35.1816
54.0572
55.7721
46.2545
33.9592
51.7022
54.5876
45.0436
32.8023
49.6413
53.5652
43.4584
31.7112
47.698
52.7109
41.6826
30.6915
45.8244
52.0326
40.0383
29.7492
44.0223
51.5407
38.5084
28.8889
42.2963
51.2473
37.07
28.1135
40.6475
51.1679
35.7376
27.4247
39.0752
51.3216
34.5198
26.824
37.578
51.7482
33.4234
26.313
36.1546
52.4179
32.4547
25.8934
34.8001
53.1734
31.6225
25.5651
33.5091
53.0518
30.9411
25.3281
32.2813
51.5868
30.417
25.1838
31.1201
49.9384
30.0346
25.1362
30.0327
48.5692
29.7779
25.1808
29.0286
47.3598
29.6282
25.3206
28.113
46.2464
29.5614
25.5546
27.2911
45.2434
29.5458
25.8799
26.5684
44.3724
29.5379
26.292
25.9502
43.6538
29.4825
26.7896
25.4424
43.1069
29.3186
27.3721
25.063
42.7516
29.0011
28.0343
24.822
42.6114
28.5597
28.7674
24.7305
42.7176
28.0528
29.5586
24.7988
43.112
27.5336
30.3933
25.042
43.7646
27.0434
31.2513
25.4695
44.51
26.612
32.2008
26.0918
44.0165
26.2643
33.1481
)
;
    }
    procBoundary0to2throughleftSides_periodic0
    {
        type            processorCyclic;
        value           nonuniform List<scalar> 
314
(
156509
25866.1
8917.94
4295.57
2508.78
1660.6
1200.32
925.274
747.927
626.034
537.523
470.177
416.922
373.508
337.275
306.47
279.874
256.631
236.135
217.934
201.683
187.103
174.061
162.357
151.819
142.302
133.683
125.856
118.728
112.221
106.265
100.799
95.7723
91.1393
86.8608
82.9025
79.2345
75.8306
72.6678
69.7258
66.987
64.436
62.0595
59.8462
57.7864
55.8724
54.0978
52.4573
50.9465
49.5593
48.2848
47.1059
45.9974
44.8849
43.7411
42.5483
41.3077
40.0309
38.7297
37.4169
36.1051
34.8091
33.5362
32.2947
31.0915
29.9358
28.8429
27.821
26.8812
26.0324
25.2822
24.6379
24.0904
23.641
23.2888
23.0309
22.8626
22.7768
22.7649
156509
26241.5
9061.88
4347.38
2528.07
1669.29
1205.8
929.759
751.793
629.101
539.594
471.087
416.589
371.887
334.301
302.107
274.197
249.845
228.563
209.842
193.32
178.74
165.85
154.422
144.266
135.228
127.172
119.981
113.554
107.803
102.654
98.0426
93.9048
90.1566
86.709
83.5287
80.5875
77.8605
75.3249
72.9597
70.7462
68.6681
66.7136
64.8765
63.1497
61.5216
59.9834
58.5294
57.1533
55.8482
54.6053
53.4132
52.2576
51.1223
49.9969
48.8866
47.8089
46.7804
45.8143
44.9212
44.1099
43.3881
42.7612
42.2286
41.782
41.4058
41.0773
40.7659
40.4314
40.0289
39.5488
39.0268
38.5016
38.0052
37.5635
37.1952
36.9084
36.6965
36.5299
156509
26956.4
9207.1
4440.44
2616.32
1756.17
1290.13
1010.07
826.996
698.639
603.342
529.354
469.928
420.854
379.407
343.82
312.891
285.768
261.825
240.583
221.67
204.783
189.675
176.14
163.999
153.097
143.295
134.453
126.442
119.152
112.489
106.372
100.746
95.5593
90.7668
86.3276
82.2071
78.3758
74.8068
71.4733
68.3522
65.4234
62.6689
60.0736
57.6247
55.3109
53.1235
51.0554
49.1011
47.2567
45.5173
43.8755
42.3245
40.8575
39.4666
38.1449
36.8873
35.6906
34.5535
33.4774
32.4624
31.4971
30.5759
29.6939
28.847
28.0316
27.2558
26.5344
25.8787
25.2994
24.8055
24.4019
24.0899
23.8657
23.7235
23.6583
23.6655
23.7447
156509
28152.1
9700.64
4612.25
2664.32
1759.35
1278.89
995.921
814.192
688.511
596.003
524.391
466.634
418.524
377.443
341.71
310.202
282.158
257.044
234.478
214.189
195.993
179.76
165.362
152.632
141.371
131.343
122.339
114.2
106.829
100.144
94.0716
88.5466
83.5141
78.9264
74.7428
70.929
67.4533
64.2839
61.3932
58.7573
56.3551
54.1686
52.1834
50.3883
48.7746
47.335
46.0632
44.9524
43.9512
43.0448
42.2143
41.4358
40.68
39.9111
39.0887
38.1705
37.1308
35.9909
34.7904
33.5639
32.3443
31.1619
30.0457
29.0234
28.118
27.3447
26.7121
26.2233
25.8765
25.6601
25.5554
25.5432
25.6048
25.7245
25.8906
26.0968
26.3383
)
;
    }
}


// ************************************************************************* //
