/*--------------------------------*- C++ -*----------------------------------*\
| =========                 |                                                 |
| \\      /  F ield         | OpenFOAM: The Open Source CFD Toolbox           |
|  \\    /   O peration     | Version:  v1906                                 |
|   \\  /    A nd           | Web:      www.OpenFOAM.com                      |
|    \\/     M anipulation  |                                                 |
\*---------------------------------------------------------------------------*/
FoamFile
{
    version     2.0;
    format      ascii;
    class       volScalarField;
    location    "96.4";
    object      p;
}
// * * * * * * * * * * * * * * * * * * * * * * * * * * * * * * * * * * * * * //

dimensions      [1 -1 -2 0 0 0 0];


internalField   nonuniform List<scalar> 
630
(
100000
100140
99991.9
100126
100000
100140
99991.9
100126
100000
100140
99991.9
100126
99999.9
100140
99991.9
100126
99999.9
100140
99991.9
100126
99999.9
100140
99991.9
100126
99999.9
100140
99992
100126
99999.9
100140
99992
100126
99999.9
100140
99992.1
100126
99999.9
100140
99992.1
100126
99999.9
100140
99992.2
100126
100000
100140
99992.3
100126
100000
100140
99992.4
100126
100000
100139
99992.5
100126
100000
100139
99992.7
100125
100000
100139
99992.8
100125
100001
100139
99993
100125
100001
100139
99993.2
100125
100001
100138
99993.4
100125
100001
100138
99993.7
100124
100001
100138
99993.9
100124
100002
100137
99994.2
100124
100002
100137
99994.6
100123
100002
100137
99994.9
100123
100003
100136
99995.3
100123
100003
100136
99995.7
100122
100003
100135
99996.1
100122
100004
100135
99996.6
100121
100004
100134
99997.1
100121
100005
100133
99997.6
100120
100006
100133
99998.2
100120
100006
100132
99998.8
100119
100007
100131
99999.4
100118
100007
100131
100000
100118
100008
100130
100001
100117
100009
100129
100001
100116
100010
100128
100002
100115
100010
100127
100003
100115
100011
100126
100004
100114
100012
100125
100005
100113
100013
100124
100005
100112
100014
100123
100006
100111
100015
100122
100007
100111
100016
100121
100008
100110
100017
100120
100009
100109
100018
100119
100010
100108
100019
100117
100011
100107
100020
100116
100012
100106
100021
100115
100013
100105
100022
100114
100014
100104
100023
100112
100015
100104
100024
100111
100016
100103
100025
100110
100017
100102
100026
100109
100018
100101
100027
100108
100019
100100
100027
100107
100020
100100
100028
100106
100021
100099
100029
100104
100022
100099
100030
100103
100023
100099
100031
100101
100024
100098
100033
100100
100025
100097
100034
100098
100026
100097
100035
100097
100027
100096
100036
100095
100028
100095
100038
100094
100029
100095
100039
100092
100031
100094
100040
100091
100032
100093
100042
100089
100033
100093
100043
100089
100034
100092
100045
100088
100035
100091
100046
100087
100035
100091
100048
100085
100036
100090
100049
100084
100037
100089
100051
100082
100038
100088
100053
100080
100039
100088
100054
100078
100040
100087
100056
100077
100041
100086
100058
100075
100042
100086
100060
100073
99637
99630.3
99637.3
99633.5
99637
99630.3
99637.3
99633.5
99637
99630.3
99637.3
99633.5
99637
99630.3
99637.3
99633.5
99637
99630.3
99637.3
99633.5
99637
99630.3
99637.3
99633.5
99637
99630.3
99637.2
99633.5
99637
99630.3
99637.2
99633.5
99637
99630.3
99637.2
99633.5
99637
99630.3
99637.2
99633.5
99637
99630.3
99637.2
99633.5
99637
99630.3
99637.2
99633.5
99636.9
99630.3
99637.2
99633.5
99636.9
99630.3
99637.2
99633.6
99636.9
99630.3
99637.2
99633.6
99636.9
99630.3
99637.2
99633.6
99636.9
99630.3
99637.2
99633.6
99636.9
99630.3
99637.1
99633.6
99636.8
99630.4
99637.1
99633.6
99636.8
99630.4
99637.1
99633.6
99636.8
99630.4
99637.1
99633.6
99636.8
99630.4
99637
99633.6
99636.7
99630.4
99637
99633.6
99636.7
99630.4
99637
99633.6
99636.7
99630.4
99636.9
99633.6
99636.6
99630.4
99636.9
99633.6
99636.6
99630.4
99636.9
99633.6
99636.5
99630.5
99636.8
99633.6
99636.5
99630.5
99636.8
99633.6
99636.4
99630.5
99636.7
99633.7
99636.4
99630.5
99636.7
99633.7
99636.3
99630.5
99636.6
99633.7
99636.3
99630.5
99636.6
99633.7
99636.2
99630.5
99636.5
99633.7
99636.2
99630.6
99636.5
99633.7
99636.1
99630.6
99636.4
99633.7
99636.1
99630.6
99636.3
99633.7
99636
99630.6
99636.3
99633.7
99635.9
99630.6
99636.2
99633.7
99635.9
99630.6
99636.1
99633.7
99635.8
99630.7
99636.1
99633.7
99635.7
99630.7
99636
99633.8
99635.6
99630.7
99635.9
99633.8
99635.6
99630.7
99635.9
99633.8
99635.5
99630.7
99635.8
99633.8
99635.4
99630.7
99635.7
99633.8
99635.3
99630.8
99635.6
99633.8
99635.3
99630.8
99635.5
99633.8
99635.2
99630.8
99635.4
99633.8
99635.1
99630.8
99635.4
99633.8
99635.1
99630.8
99635.3
99633.8
99635
99630.8
99635.2
99633.8
99634.9
99630.8
99635.1
99633.8
99634.9
99630.8
99635.1
99633.8
99634.8
99630.8
99635
99633.7
99634.7
99630.8
99634.9
99633.7
99634.6
99630.8
99634.8
99633.7
99634.5
99630.8
99634.7
99633.7
99634.4
99630.8
99634.7
99633.7
99634.4
99630.8
99634.6
99633.7
99634.3
99630.8
99634.5
99633.6
99634.2
99630.8
99634.4
99633.6
99634.1
99630.8
99634.3
99633.6
99634
99630.8
99634.3
99633.6
99633.9
99630.8
99634.2
99633.5
99633.8
99630.8
99634.1
99633.5
99633.7
99630.8
99634
99633.5
99633.7
99630.8
99634
99633.4
99633.6
99630.8
99633.9
99633.4
99633.5
99630.7
99633.8
99633.4
99633.4
99630.7
99633.8
99633.3
99633.3
99630.7
99633.7
99633.3
99633.2
99630.7
99633.6
99633.2
99633.1
99630.6
99633.5
99633.2
99633
99630.6
99633.5
99633.2
99632.9
99630.6
99633.4
99633.1
99632.8
99630.5
99633.3
99633.1
99632.7
99630.5
99633.3
99633
99632.7
99630.5
99633.2
99633
)
;

boundaryField
{
    leftWall
    {
        type            calculated;
        value           nonuniform List<scalar> 8(100000 99637 100140 99630.3 99991.9 99637.3 100126 99633.5);
    }
    rightWall
    {
        type            calculated;
        value           nonuniform 0();
    }
    leftSides_periodic0
    {
        type            cyclic;
    }
    leftSides_periodic1
    {
        type            cyclic;
    }
    rightSides_periodic0
    {
        type            cyclic;
    }
    rightSides_periodic1
    {
        type            cyclic;
    }
    leftInOut_periodic0
    {
        type            cyclic;
    }
    leftInOut_periodic1
    {
        type            cyclic;
    }
    rightInOut_periodic0
    {
        type            cyclic;
    }
    rightInOut_periodic1
    {
        type            cyclic;
    }
    procBoundary0to1
    {
        type            processor;
        value           nonuniform List<scalar> 
11
(
100043
100085
100062
100043
100072
100043
100085
99632.6
99630.5
99633.2
99633
)
;
    }
    procBoundary0to1throughleftInOut_periodic1
    {
        type            processorCyclic;
        value           uniform 100085;
    }
    procBoundary0to2
    {
        type            processor;
        value           nonuniform List<scalar> 
316
(
99378.7
99407.3
99379.4
99394.1
99378.7
99407.3
99379.4
99394.1
99378.7
99407.3
99379.4
99394.1
99378.7
99407.3
99379.4
99394.1
99378.7
99407.3
99379.4
99394.1
99378.7
99407.3
99379.4
99394.1
99378.7
99407.3
99379.4
99394.1
99378.7
99407.3
99379.4
99394.1
99378.7
99407.3
99379.4
99394.1
99378.7
99407.3
99379.4
99394.1
99378.8
99407.3
99379.4
99394.1
99378.8
99407.3
99379.4
99394.1
99378.8
99407.2
99379.4
99394
99378.8
99407.2
99379.4
99394
99378.8
99407.2
99379.4
99394
99378.9
99407.2
99379.4
99394
99378.9
99407.2
99379.5
99394
99378.9
99407.1
99379.5
99394
99379
99407.1
99379.5
99393.9
99379
99407.1
99379.5
99393.9
99379.1
99407
99379.5
99393.9
99379.1
99407
99379.5
99393.9
99379.2
99406.9
99379.5
99393.9
99379.2
99406.9
99379.6
99393.8
99379.3
99406.8
99379.6
99393.8
99379.3
99406.8
99379.6
99393.8
99379.4
99406.7
99379.6
99393.7
99379.5
99406.7
99379.7
99393.7
99379.6
99406.6
99379.7
99393.7
99379.7
99406.5
99379.7
99393.6
99379.8
99406.4
99379.7
99393.6
99379.9
99406.3
99379.8
99393.6
99380
99406.2
99379.8
99393.5
99380.1
99406.1
99379.9
99393.5
99380.3
99406
99379.9
99393.4
99380.4
99405.9
99379.9
99393.4
99380.6
99405.8
99380
99393.4
99380.7
99405.7
99380
99393.3
99380.9
99405.5
99380.1
99393.3
99381
99405.4
99380.1
99393.2
99381.2
99405.2
99380.2
99393.2
99381.4
99405
99380.2
99393.2
99381.6
99404.8
99380.3
99393.1
99381.8
99404.7
99380.3
99393.1
99381.9
99404.5
99380.4
99393
99382.1
99404.3
99380.4
99393
99382.4
99404
99380.5
99392.9
99382.5
99403.8
99380.6
99392.9
99382.7
99403.6
99380.6
99392.8
99382.8
99403.3
99380.7
99392.8
99383
99403.1
99380.7
99392.7
99383.2
99402.8
99380.8
99392.6
99383.4
99402.5
99380.8
99392.6
99383.6
99402.2
99380.9
99392.5
99383.8
99401.9
99381
99392.4
99384.1
99401.6
99381
99392.3
99384.3
99401.3
99381.1
99392.2
99384.6
99400.9
99381.2
99392.2
99384.8
99400.6
99381.3
99392.1
99385
99400.2
99381.3
99391.9
99385.3
99399.9
99381.4
99391.8
99385.5
99399.6
99381.5
99391.7
99385.8
99399.4
99381.6
99391.6
99386.1
99399.2
99381.6
99391.5
99386.3
99399
99381.7
99391.3
99386.6
99398.6
99381.8
99391.2
99386.8
99398.2
99381.9
99391.1
99387.1
99397.7
99382
99390.9
99387.4
99397.3
99382
99390.8
99387.7
99396.8
99382.1
99390.6
99387.9
99396.4
99382.2
99390.5
99388.2
99395.9
99382.3
99390.3
99388.5
99395.4
99382.3
99390.2
99388.8
99394.9
99382.4
99390
99389
99394.4
99382.5
99389.9
99389.3
99393.9
99382.5
99389.7
99389.6
99393.5
99382.6
99389.6
99389.9
99393.2
99382.7
99389.5
99390.2
99393
99382.8
99389.4
)
;
    }
    procBoundary0to2throughleftSides_periodic0
    {
        type            processorCyclic;
        value           nonuniform List<scalar> 
314
(
99225.4
99225.4
99225.4
99225.4
99225.4
99225.4
99225.4
99225.4
99225.4
99225.4
99225.4
99225.4
99225.4
99225.4
99225.5
99225.5
99225.5
99225.5
99225.5
99225.6
99225.6
99225.6
99225.7
99225.7
99225.7
99225.8
99225.8
99225.8
99225.9
99225.9
99226
99226.1
99226.1
99226.2
99226.2
99226.3
99226.4
99226.4
99226.5
99226.6
99226.7
99226.7
99226.8
99226.9
99227
99227
99227.1
99227.2
99227.3
99227.4
99227.4
99227.5
99227.6
99227.7
99227.8
99227.9
99227.9
99228
99228.1
99228.2
99228.2
99228.3
99228.4
99228.5
99228.5
99228.6
99228.7
99228.8
99228.8
99228.9
99229
99229
99229.1
99229.2
99229.2
99229.3
99229.3
99229.4
99229.5
99227.7
99227.7
99227.7
99227.7
99227.7
99227.7
99227.7
99227.7
99227.7
99227.7
99227.7
99227.7
99227.7
99227.7
99227.7
99227.7
99227.6
99227.6
99227.6
99227.6
99227.6
99227.6
99227.6
99227.5
99227.5
99227.5
99227.5
99227.4
99227.4
99227.4
99227.4
99227.3
99227.3
99227.3
99227.2
99227.2
99227.1
99227.1
99227.1
99227
99227
99226.9
99226.9
99226.8
99226.8
99226.7
99226.7
99226.6
99226.6
99226.5
99226.5
99226.4
99226.4
99226.4
99226.3
99226.3
99226.2
99226.2
99226.2
99226.1
99226.1
99226.1
99226
99226
99226
99226
99226
99225.9
99225.9
99225.9
99225.9
99225.9
99225.9
99225.9
99225.9
99225.9
99225.9
99225.9
99225.9
99212.5
99212.5
99212.5
99212.5
99212.5
99212.5
99212.5
99212.5
99212.5
99212.5
99212.5
99212.6
99212.6
99212.6
99212.6
99212.7
99212.7
99212.7
99212.8
99212.8
99212.9
99213
99213
99213.1
99213.2
99213.3
99213.4
99213.5
99213.6
99213.7
99213.8
99213.9
99214.1
99214.2
99214.3
99214.5
99214.7
99214.8
99215
99215.2
99215.4
99215.6
99215.8
99216
99216.2
99216.4
99216.6
99216.8
99217
99217.2
99217.4
99217.7
99217.9
99218.1
99218.3
99218.5
99218.8
99219
99219.2
99219.4
99219.6
99219.8
99220
99220.2
99220.4
99220.6
99220.8
99220.9
99221.1
99221.3
99221.5
99221.6
99221.8
99222
99222.1
99222.3
99222.4
99222.6
99230.7
99230.7
99230.7
99230.7
99230.7
99230.7
99230.7
99230.7
99230.7
99230.7
99230.7
99230.7
99230.7
99230.6
99230.6
99230.6
99230.6
99230.6
99230.5
99230.5
99230.5
99230.4
99230.4
99230.3
99230.3
99230.2
99230.2
99230.1
99230
99230
99229.9
99229.8
99229.7
99229.6
99229.5
99229.4
99229.3
99229.2
99229.1
99229
99228.8
99228.7
99228.6
99228.5
99228.3
99228.2
99228.1
99227.9
99227.8
99227.7
99227.5
99227.4
99227.3
99227.2
99227.1
99226.9
99226.8
99226.7
99226.6
99226.5
99226.4
99226.3
99226.2
99226.1
99226
99225.9
99225.8
99225.7
99225.6
99225.5
99225.4
99225.4
99225.3
99225.2
99225.1
99225.1
99225
99224.9
)
;
    }
}


// ************************************************************************* //
