/*--------------------------------*- C++ -*----------------------------------*\
| =========                 |                                                 |
| \\      /  F ield         | OpenFOAM: The Open Source CFD Toolbox           |
|  \\    /   O peration     | Version:  v1912                                 |
|   \\  /    A nd           | Website:  www.openfoam.com                      |
|    \\/     M anipulation  |                                                 |
\*---------------------------------------------------------------------------*/
FoamFile
{
    version     2.0;
    format      ascii;
    class       volScalarField;
    location    "8.4";
    object      heatTransferCoeff(T);
}
// * * * * * * * * * * * * * * * * * * * * * * * * * * * * * * * * * * * * * //

dimensions      [1 0 -3 -1 0 0 0];


internalField   uniform 0;

boundaryField
{
    leftWall
    {
        type            calculated;
        value           nonuniform List<scalar> 
216
(
-221.526
-225.89
-233.76
-238.838
-248.171
-254.865
-266.849
-276.732
-292.843
-306.992
-327.568
-346.667
-374.95
-407.917
-463.67
-552.697
-819.772
-2783.44
-221.794
-226.573
-234.797
-240.442
-250.16
-257.157
-268.923
-278.105
-292.864
-305.574
-325.123
-344.368
-373.507
-407.479
-463.574
-552.15
-818.466
-2784
-221.576
-226.704
-235.25
-241.41
-251.542
-259.008
-270.945
-280.155
-294.613
-307.011
-326.115
-344.872
-373.27
-406.578
-461.135
-545.684
-811.184
-2787.5
-221.504
-226.013
-234.04
-239.846
-249.814
-257.414
-269.58
-279.149
-293.742
-306.196
-325.235
-344.359
-373.462
-407.308
-461.61
-546.788
-813.455
-2792.24
-221.417
-225.677
-233.48
-238.961
-248.638
-255.973
-268.036
-277.73
-292.748
-305.966
-325.996
-346.075
-375.576
-408.84
-461.979
-547.281
-815.341
-2791.95
-222.835
-227.275
-235.117
-240.306
-249.476
-256.023
-267.343
-276.474
-291.479
-305.145
-325.961
-346.705
-376.846
-410.919
-465.101
-550.558
-817.604
-2782.48
-222.943
-227.781
-236.05
-241.666
-251.154
-257.853
-269.159
-278.12
-292.878
-306.126
-326.249
-345.879
-375.071
-409.617
-466.609
-554.798
-820.206
-2777.62
-220.435
-225.613
-234.46
-240.767
-251.191
-258.858
-271.26
-281.124
-296.658
-310.189
-330.224
-349.173
-377.371
-410.21
-464.662
-550.954
-820.772
-2794.04
-220.114
-225
-233.533
-239.312
-249.363
-256.707
-269.25
-279.45
-295.605
-309.36
-329.311
-347.841
-376.054
-408.881
-462.758
-547.719
-817.204
-2806.16
-217.973
-222.364
-230.483
-235.99
-245.919
-253.308
-266.03
-276.501
-292.883
-306.659
-326.286
-344.304
-372.355
-406.209
-462.037
-547.317
-811.714
-2780.56
-217.655
-221.723
-229.662
-235.231
-245.338
-253.083
-266.06
-276.754
-293.097
-307.094
-327.389
-346.924
-376.278
-410.165
-464.138
-547.935
-814.957
-2786.88
-223.511
-226.965
-234.211
-238.83
-248.036
-254.917
-267.264
-277.676
-294.2
-309.08
-330.81
-352.087
-382.25
-414.994
-465.237
-545.101
-812.087
-2786
)
;
    }
    rightWall
    {
        type            calculated;
        value           nonuniform List<scalar> 
216
(
-207.39
-211.084
-216.125
-220.595
-226.963
-232.671
-240.909
-248.506
-259.324
-269.649
-284.151
-299.094
-320.836
-346.44
-389.526
-459.791
-701.871
-2826.84
-206.604
-210.295
-215.434
-219.857
-226.244
-231.834
-240.012
-247.511
-258.33
-268.761
-283.583
-298.929
-320.917
-346.51
-388.615
-457.724
-700.527
-2828.12
-206.357
-210.116
-215.394
-219.93
-226.485
-232.189
-240.507
-248.046
-258.885
-269.21
-283.887
-298.954
-320.791
-346.838
-391.009
-462.732
-703.022
-2834.41
-207.027
-211.024
-216.517
-221.308
-228.071
-233.949
-242.335
-249.787
-260.428
-270.476
-284.862
-299.733
-321.619
-347.665
-391.816
-463.198
-703.243
-2837.59
-207.63
-211.562
-216.829
-221.49
-228.007
-233.78
-242.015
-249.479
-260.135
-270.293
-284.759
-299.804
-321.802
-347.838
-391.931
-463.145
-702.268
-2828.75
-207.402
-211.2
-216.253
-220.756
-227.063
-232.712
-240.821
-248.279
-258.963
-269.248
-283.845
-299.042
-321.218
-347.604
-392.109
-463.123
-701.101
-2826.84
-206.677
-210.656
-215.916
-220.645
-227.177
-233.01
-241.257
-248.768
-259.452
-269.658
-284.096
-298.971
-320.71
-346.626
-391.095
-463.372
-704.164
-2827.31
-206.945
-211.105
-216.565
-221.419
-228.042
-233.85
-241.999
-249.303
-259.725
-269.617
-283.763
-298.406
-319.879
-345.069
-388.362
-460.722
-705.439
-2827.68
-206.74
-210.63
-215.849
-220.474
-226.903
-232.562
-240.576
-247.787
-258.095
-267.908
-282.081
-296.978
-318.882
-344.39
-387.519
-459.522
-704.809
-2827.46
-205.806
-209.627
-214.768
-219.352
-225.759
-231.515
-239.69
-247.229
-257.946
-268.336
-283.146
-298.762
-321.355
-347.811
-391.866
-463.202
-705.44
-2827.12
-206.825
-211.038
-216.603
-221.56
-228.281
-234.227
-242.459
-249.945
-260.52
-270.788
-285.459
-301.037
-323.638
-350.356
-394.456
-464.442
-704.62
-2836.24
-209.487
-213.619
-219.149
-223.986
-230.659
-236.403
-244.457
-251.501
-261.544
-270.992
-284.841
-299.669
-322.101
-349.132
-394.06
-464.881
-704.061
-2842.12
)
;
    }
    leftSides_periodic0
    {
        type            cyclic;
    }
    leftSides_periodic1
    {
        type            cyclic;
    }
    rightSides_periodic0
    {
        type            cyclic;
    }
    rightSides_periodic1
    {
        type            cyclic;
    }
    leftInOut_periodic0
    {
        type            calculated;
        value           nonuniform 0();
    }
    leftInOut_periodic1
    {
        type            calculated;
        value           uniform 0;
    }
    rightInOut_periodic0
    {
        type            calculated;
        value           nonuniform 0();
    }
    rightInOut_periodic1
    {
        type            calculated;
        value           uniform 0;
    }
    procBoundary4to1
    {
        type            processor;
        value           uniform 0;
    }
    procBoundary4to3
    {
        type            processor;
        value           uniform 0;
    }
    procBoundary4to5
    {
        type            processor;
        value           uniform 0;
    }
}


// ************************************************************************* //
