/*--------------------------------*- C++ -*----------------------------------*\
| =========                 |                                                 |
| \\      /  F ield         | OpenFOAM: The Open Source CFD Toolbox           |
|  \\    /   O peration     | Version:  v1912                                 |
|   \\  /    A nd           | Website:  www.openfoam.com                      |
|    \\/     M anipulation  |                                                 |
\*---------------------------------------------------------------------------*/
FoamFile
{
    version     2.0;
    format      ascii;
    class       volScalarField;
    location    "8.4";
    object      k;
}
// * * * * * * * * * * * * * * * * * * * * * * * * * * * * * * * * * * * * * //

dimensions      [0 2 -2 0 0 0 0];


internalField   nonuniform List<scalar> 
34128
(
6.68219e-07
6.74331e-07
6.86851e-07
6.88404e-07
6.745e-07
6.58674e-07
6.66074e-07
6.86683e-07
6.84568e-07
6.64009e-07
6.54934e-07
6.58818e-07
1.08504e-07
1.09252e-07
1.1132e-07
1.11629e-07
1.09422e-07
1.06768e-07
1.0796e-07
1.11641e-07
1.11559e-07
1.08201e-07
1.06503e-07
1.07103e-07
6.65661e-08
6.54537e-08
6.69168e-08
6.74187e-08
6.64037e-08
6.42282e-08
6.48979e-08
6.93575e-08
7.09893e-08
6.88761e-08
6.64099e-08
6.64074e-08
1.33618e-07
1.28804e-07
1.32017e-07
1.33474e-07
1.3203e-07
1.26806e-07
1.2804e-07
1.40597e-07
1.46612e-07
1.42366e-07
1.35114e-07
1.34401e-07
3.03246e-07
2.90962e-07
2.98259e-07
3.01636e-07
2.98803e-07
2.86666e-07
2.89372e-07
3.1962e-07
3.34631e-07
3.25215e-07
3.07678e-07
3.05578e-07
6.01617e-07
5.76463e-07
5.90582e-07
5.96962e-07
5.91942e-07
5.68202e-07
5.7339e-07
6.3385e-07
6.6419e-07
6.46144e-07
6.11101e-07
6.06652e-07
1.05269e-06
1.00797e-06
1.0317e-06
1.04202e-06
1.03443e-06
9.94183e-07
1.00286e-06
1.10779e-06
1.16095e-06
1.13077e-06
1.06993e-06
1.06223e-06
1.66727e-06
1.59574e-06
1.63135e-06
1.64602e-06
1.63623e-06
1.57549e-06
1.58845e-06
1.75163e-06
1.83517e-06
1.7899e-06
1.69516e-06
1.68391e-06
2.4375e-06
2.33255e-06
2.3813e-06
2.39982e-06
2.38925e-06
2.30608e-06
2.32377e-06
2.55579e-06
2.67581e-06
2.61355e-06
2.47857e-06
2.46465e-06
3.33637e-06
3.19354e-06
3.25549e-06
3.27623e-06
3.26719e-06
3.16243e-06
3.18494e-06
3.49098e-06
3.65049e-06
3.57062e-06
3.3923e-06
3.37811e-06
4.32176e-06
4.14014e-06
4.21434e-06
4.23462e-06
4.22989e-06
4.10701e-06
4.13409e-06
4.51284e-06
4.71059e-06
4.61364e-06
4.39323e-06
4.38253e-06
5.34282e-06
5.12591e-06
5.21081e-06
5.22743e-06
5.22959e-06
5.09383e-06
5.12494e-06
5.56862e-06
5.79879e-06
5.68633e-06
5.42981e-06
5.42712e-06
6.34961e-06
6.10233e-06
6.19603e-06
6.20592e-06
6.2168e-06
6.07391e-06
6.10814e-06
6.60672e-06
6.86221e-06
6.73575e-06
6.45102e-06
6.46089e-06
7.32126e-06
7.05046e-06
7.15056e-06
7.15025e-06
7.17159e-06
7.02598e-06
7.06224e-06
7.60535e-06
7.87763e-06
7.73907e-06
7.43624e-06
7.46319e-06
8.24021e-06
7.95411e-06
8.0581e-06
8.04481e-06
8.07784e-06
7.93293e-06
7.96969e-06
8.54584e-06
8.8258e-06
8.67752e-06
8.36844e-06
8.41663e-06
9.09226e-06
8.79978e-06
8.90495e-06
8.87681e-06
8.92218e-06
8.78031e-06
8.81558e-06
9.41263e-06
9.69132e-06
9.53632e-06
9.23389e-06
9.30701e-06
9.866e-06
9.57624e-06
9.67963e-06
9.63571e-06
9.69358e-06
9.55604e-06
9.58739e-06
1.01929e-05
1.04622e-05
1.03041e-05
1.00216e-05
1.01226e-05
1.05525e-05
1.02742e-05
1.03727e-05
1.0313e-05
1.0383e-05
1.02502e-05
1.02749e-05
1.08764e-05
1.11292e-05
1.09723e-05
1.07228e-05
1.08539e-05
1.1145e-05
1.08863e-05
1.09767e-05
1.0902e-05
1.09832e-05
1.08549e-05
1.087e-05
1.14555e-05
1.16861e-05
1.1535e-05
1.13307e-05
1.14929e-05
1.16387e-05
1.1407e-05
1.14863e-05
1.13981e-05
1.14892e-05
1.13644e-05
1.13669e-05
1.19252e-05
1.2129e-05
1.19886e-05
1.18405e-05
1.20337e-05
1.20311e-05
1.18329e-05
1.18982e-05
1.17988e-05
1.18978e-05
1.17747e-05
1.17618e-05
1.22828e-05
1.2457e-05
1.23324e-05
1.22496e-05
1.24723e-05
1.23213e-05
1.21619e-05
1.22109e-05
1.21032e-05
1.22074e-05
1.20837e-05
1.20533e-05
1.25284e-05
1.26719e-05
1.25676e-05
1.25569e-05
1.28063e-05
1.25103e-05
1.23939e-05
1.24247e-05
1.23121e-05
1.24184e-05
1.22915e-05
1.22418e-05
1.26647e-05
1.27782e-05
1.26982e-05
1.2763e-05
1.3035e-05
1.26012e-05
1.25298e-05
1.25418e-05
1.24274e-05
1.25324e-05
1.23997e-05
1.23299e-05
1.26964e-05
1.27824e-05
1.27297e-05
1.287e-05
1.31595e-05
1.25988e-05
1.25727e-05
1.25658e-05
1.24526e-05
1.25528e-05
1.24119e-05
1.23223e-05
1.26307e-05
1.2693e-05
1.26695e-05
1.28815e-05
1.31824e-05
1.25097e-05
1.25268e-05
1.25023e-05
1.23926e-05
1.24844e-05
1.23337e-05
1.22252e-05
1.24767e-05
1.252e-05
1.25261e-05
1.28029e-05
1.31088e-05
1.2342e-05
1.23986e-05
1.23582e-05
1.22537e-05
1.23341e-05
1.21725e-05
1.20472e-05
1.22449e-05
1.22742e-05
1.23095e-05
1.26416e-05
1.29459e-05
1.21049e-05
1.21958e-05
1.2142e-05
1.20436e-05
1.21101e-05
1.19377e-05
1.17981e-05
1.19467e-05
1.19671e-05
1.20299e-05
1.24061e-05
1.27032e-05
1.18081e-05
1.19275e-05
1.18628e-05
1.17708e-05
1.18219e-05
1.16396e-05
1.14886e-05
1.15935e-05
1.16097e-05
1.16974e-05
1.21061e-05
1.2391e-05
1.14607e-05
1.16025e-05
1.15297e-05
1.14439e-05
1.14791e-05
1.12892e-05
1.11296e-05
1.11957e-05
1.1212e-05
1.13219e-05
1.17511e-05
1.20201e-05
1.10702e-05
1.1229e-05
1.11509e-05
1.1071e-05
1.10905e-05
1.08958e-05
1.073e-05
1.07624e-05
1.07827e-05
1.09113e-05
1.13494e-05
1.15996e-05
1.0643e-05
1.08137e-05
1.07329e-05
1.06588e-05
1.06635e-05
1.04675e-05
1.0298e-05
1.03018e-05
1.03294e-05
1.04728e-05
1.09082e-05
1.11374e-05
1.01888e-05
1.03648e-05
1.02831e-05
1.02127e-05
1.02053e-05
1.00112e-05
9.84048e-06
9.82527e-06
9.86174e-06
1.00139e-05
1.04363e-05
1.06454e-05
9.72586e-06
9.90105e-06
9.81889e-06
9.74934e-06
9.73379e-06
9.54404e-06
9.37416e-06
9.35048e-06
9.39675e-06
9.55089e-06
9.9529e-06
1.01444e-05
9.27536e-06
9.44472e-06
9.36132e-06
9.28969e-06
9.27027e-06
9.08633e-06
8.9187e-06
8.89726e-06
8.95364e-06
9.10288e-06
9.48021e-06
9.6578e-06
8.8587e-06
9.01861e-06
8.93218e-06
8.8556e-06
8.83649e-06
8.65883e-06
8.49404e-06
8.48502e-06
8.55162e-06
8.68978e-06
9.04087e-06
9.20893e-06
8.49609e-06
8.6445e-06
8.55266e-06
8.46843e-06
8.45323e-06
8.28124e-06
8.1191e-06
8.13165e-06
8.20871e-06
8.33081e-06
8.65636e-06
8.81934e-06
8.20604e-06
8.34261e-06
8.2427e-06
8.14833e-06
8.13965e-06
7.97182e-06
7.8114e-06
7.85314e-06
7.94119e-06
8.04388e-06
8.3465e-06
8.50865e-06
8.004e-06
8.1304e-06
8.01949e-06
7.91335e-06
7.91297e-06
7.74716e-06
7.58684e-06
7.66258e-06
7.76199e-06
7.84429e-06
8.12896e-06
8.2942e-06
7.89927e-06
8.01909e-06
7.89651e-06
7.77719e-06
7.78381e-06
7.61772e-06
7.45529e-06
7.56542e-06
7.67587e-06
7.74072e-06
8.01368e-06
8.18519e-06
7.86757e-06
7.98933e-06
7.86891e-06
7.73367e-06
7.74425e-06
7.57423e-06
7.40868e-06
7.55322e-06
7.67044e-06
7.72986e-06
7.9889e-06
8.14367e-06
7.85302e-06
7.97948e-06
7.88491e-06
7.75801e-06
7.7553e-06
7.59642e-06
7.43582e-06
7.56866e-06
7.68674e-06
7.75699e-06
7.99037e-06
8.1178e-06
7.84862e-06
7.97985e-06
7.91107e-06
7.79556e-06
7.77418e-06
7.63073e-06
7.48072e-06
7.593e-06
7.71223e-06
7.79276e-06
8.00331e-06
8.10576e-06
7.85445e-06
7.99073e-06
7.94785e-06
7.84229e-06
7.80058e-06
7.67116e-06
7.53137e-06
7.62637e-06
7.74652e-06
7.83734e-06
8.02831e-06
8.10788e-06
7.86828e-06
8.00966e-06
7.9933e-06
7.89694e-06
7.83387e-06
7.71766e-06
7.58787e-06
7.66682e-06
7.78708e-06
7.88843e-06
8.0629e-06
8.12185e-06
7.88692e-06
8.03307e-06
8.04377e-06
7.95627e-06
7.87173e-06
7.76826e-06
7.64832e-06
7.71137e-06
7.83054e-06
7.94235e-06
8.10324e-06
8.14424e-06
7.90729e-06
8.05747e-06
8.09518e-06
8.01646e-06
7.91139e-06
7.82028e-06
7.71005e-06
7.75708e-06
7.87365e-06
7.99528e-06
8.14547e-06
8.17169e-06
7.92692e-06
8.08011e-06
8.144e-06
8.0741e-06
7.9504e-06
7.87122e-06
7.7704e-06
7.80151e-06
7.91387e-06
8.04407e-06
8.1864e-06
8.20144e-06
7.94417e-06
8.09925e-06
8.18766e-06
8.12661e-06
7.98703e-06
7.91921e-06
7.82731e-06
7.84302e-06
7.94959e-06
8.08661e-06
8.22377e-06
8.23144e-06
7.95811e-06
8.11404e-06
8.22455e-06
8.17237e-06
8.02028e-06
7.9631e-06
7.87944e-06
7.88065e-06
7.98e-06
8.12169e-06
8.25606e-06
8.26023e-06
7.96834e-06
8.12423e-06
8.25389e-06
8.21044e-06
8.04964e-06
8.0024e-06
7.92614e-06
7.91395e-06
8.00498e-06
8.14876e-06
8.28229e-06
8.2868e-06
7.97487e-06
8.12988e-06
8.27496e-06
8.24026e-06
8.07496e-06
8.03702e-06
7.96729e-06
7.94291e-06
8.02482e-06
8.16752e-06
8.30147e-06
8.3102e-06
7.97786e-06
8.13088e-06
8.2868e-06
8.26115e-06
8.09616e-06
8.06707e-06
8.00312e-06
7.96775e-06
8.03993e-06
8.17757e-06
8.31257e-06
8.32919e-06
7.97745e-06
8.12703e-06
8.28859e-06
8.27257e-06
8.11311e-06
8.09268e-06
8.0341e-06
7.98881e-06
8.05053e-06
8.1787e-06
8.31484e-06
8.34289e-06
7.97377e-06
8.11836e-06
8.28032e-06
8.27452e-06
8.12576e-06
8.11384e-06
8.06062e-06
8.00631e-06
8.05679e-06
8.17118e-06
8.30827e-06
8.35094e-06
7.96707e-06
8.1053e-06
8.26274e-06
8.2674e-06
8.13424e-06
8.13053e-06
8.08279e-06
8.02038e-06
8.05889e-06
8.15586e-06
8.29328e-06
8.35294e-06
7.95781e-06
8.0886e-06
8.23765e-06
8.2524e-06
8.13886e-06
8.14304e-06
8.10064e-06
8.03111e-06
8.0571e-06
8.13423e-06
8.27122e-06
8.34867e-06
7.94664e-06
8.06919e-06
8.20726e-06
8.2313e-06
8.14022e-06
8.15191e-06
8.11444e-06
8.03854e-06
8.05182e-06
8.10835e-06
8.24389e-06
8.33853e-06
7.93421e-06
8.04807e-06
8.17373e-06
8.20591e-06
8.13891e-06
8.15763e-06
8.12467e-06
8.04276e-06
8.04354e-06
8.08029e-06
8.21316e-06
8.32325e-06
7.92117e-06
8.02612e-06
8.1389e-06
8.1779e-06
8.13554e-06
8.16062e-06
8.13161e-06
8.04404e-06
8.03287e-06
8.05165e-06
8.18073e-06
8.30363e-06
7.90809e-06
8.00408e-06
8.10423e-06
8.14859e-06
8.13058e-06
8.16125e-06
8.13561e-06
8.04268e-06
8.02042e-06
8.02305e-06
8.14804e-06
8.28049e-06
7.89544e-06
7.98259e-06
8.07079e-06
8.11902e-06
8.12427e-06
8.15975e-06
8.13695e-06
8.03896e-06
8.00678e-06
7.99503e-06
8.11618e-06
8.2546e-06
7.88361e-06
7.96215e-06
8.03924e-06
8.08993e-06
8.11667e-06
8.15614e-06
8.13574e-06
8.03317e-06
7.99241e-06
7.96832e-06
8.08591e-06
8.22673e-06
7.87288e-06
7.94307e-06
8.00955e-06
8.06182e-06
8.10767e-06
8.15026e-06
8.13195e-06
8.02554e-06
7.97759e-06
7.94344e-06
8.0577e-06
8.19769e-06
7.86345e-06
7.92556e-06
7.98179e-06
8.03501e-06
8.09712e-06
8.14183e-06
8.12541e-06
8.01623e-06
7.96255e-06
7.92081e-06
8.0314e-06
8.16826e-06
7.85545e-06
7.90974e-06
7.95629e-06
8.00974e-06
8.08484e-06
8.13053e-06
8.1159e-06
8.00535e-06
7.94757e-06
7.90074e-06
8.00714e-06
8.13921e-06
7.84892e-06
7.89566e-06
7.93332e-06
7.98576e-06
8.07072e-06
8.11612e-06
8.10319e-06
7.99303e-06
7.93295e-06
7.88356e-06
7.98535e-06
8.11123e-06
7.84379e-06
7.88337e-06
7.91304e-06
7.96313e-06
8.05479e-06
8.09853e-06
8.08712e-06
7.9794e-06
7.91893e-06
7.86954e-06
7.96639e-06
8.08491e-06
7.83995e-06
7.87281e-06
7.89551e-06
7.94212e-06
8.0372e-06
8.07796e-06
8.06773e-06
7.96453e-06
7.90582e-06
7.85891e-06
7.9505e-06
8.06072e-06
7.83717e-06
7.86386e-06
7.88072e-06
7.92298e-06
8.01827e-06
8.055e-06
8.04537e-06
7.94852e-06
7.89395e-06
7.85182e-06
7.93785e-06
8.03897e-06
7.83522e-06
7.85631e-06
7.86852e-06
7.90588e-06
7.99816e-06
8.03053e-06
8.02074e-06
7.9316e-06
7.88371e-06
7.84835e-06
7.92846e-06
8.01973e-06
7.8338e-06
7.84988e-06
7.85869e-06
7.89099e-06
7.97738e-06
8.00522e-06
7.99488e-06
7.91416e-06
7.87548e-06
7.8485e-06
7.92227e-06
8.00295e-06
7.83265e-06
7.8443e-06
7.85091e-06
7.87844e-06
7.95677e-06
7.97963e-06
7.96824e-06
7.89667e-06
7.86963e-06
7.85219e-06
7.91911e-06
7.98856e-06
7.83156e-06
7.83927e-06
7.84482e-06
7.86831e-06
7.93731e-06
7.95484e-06
7.94166e-06
7.87971e-06
7.86652e-06
7.85926e-06
7.91878e-06
7.9765e-06
7.8304e-06
7.83459e-06
7.84005e-06
7.86062e-06
7.91998e-06
7.93232e-06
7.91641e-06
7.86398e-06
7.86645e-06
7.86952e-06
7.92104e-06
7.96694e-06
7.82919e-06
7.83015e-06
7.83627e-06
7.8554e-06
7.90574e-06
7.9135e-06
7.89387e-06
7.85023e-06
7.86968e-06
7.88266e-06
7.92568e-06
7.96018e-06
7.8281e-06
7.82596e-06
7.83322e-06
7.85262e-06
7.89541e-06
7.89968e-06
7.87539e-06
7.83924e-06
7.8764e-06
7.89834e-06
7.93255e-06
7.95665e-06
7.82749e-06
7.82221e-06
7.83075e-06
7.85229e-06
7.88966e-06
7.89192e-06
7.86217e-06
7.83176e-06
7.88666e-06
7.91615e-06
7.9416e-06
7.95686e-06
7.82789e-06
7.81921e-06
7.82884e-06
7.85444e-06
7.88894e-06
7.89095e-06
7.85525e-06
7.82848e-06
7.9004e-06
7.93562e-06
7.95293e-06
7.96153e-06
7.17131e-07
7.18835e-07
7.31202e-07
7.30441e-07
7.16599e-07
7.00002e-07
7.07148e-07
7.33589e-07
7.36266e-07
7.16463e-07
7.04316e-07
7.07572e-07
1.13759e-07
1.13898e-07
1.15757e-07
1.1546e-07
1.13273e-07
1.10705e-07
1.1188e-07
1.16253e-07
1.16802e-07
1.13659e-07
1.11632e-07
1.12185e-07
5.28679e-08
5.19568e-08
5.21097e-08
5.08169e-08
4.99277e-08
4.91518e-08
4.9946e-08
5.32464e-08
5.43929e-08
5.29971e-08
5.13627e-08
5.17296e-08
7.67824e-08
7.30544e-08
7.15992e-08
6.71261e-08
6.61997e-08
6.6059e-08
6.7747e-08
7.54263e-08
7.92599e-08
7.74434e-08
7.33756e-08
7.41614e-08
1.58514e-07
1.4903e-07
1.44741e-07
1.33662e-07
1.32222e-07
1.32815e-07
1.36627e-07
1.54324e-07
1.63653e-07
1.60116e-07
1.50654e-07
1.52589e-07
3.05974e-07
2.86716e-07
2.77564e-07
2.55191e-07
2.53154e-07
2.55233e-07
2.62644e-07
2.97145e-07
3.15404e-07
3.08791e-07
2.90479e-07
2.94793e-07
5.28731e-07
4.94993e-07
4.78267e-07
4.38954e-07
4.36792e-07
4.41894e-07
4.54515e-07
5.13e-07
5.43651e-07
5.32509e-07
5.01938e-07
5.1063e-07
8.30138e-07
7.77249e-07
7.49745e-07
6.87447e-07
6.86401e-07
6.9703e-07
7.16393e-07
8.05092e-07
8.50735e-07
8.33619e-07
7.88283e-07
8.04337e-07
1.20427e-06
1.12857e-06
1.08694e-06
9.95952e-07
9.98099e-07
1.01774e-06
1.04506e-06
1.16781e-06
1.22924e-06
1.20481e-06
1.144e-06
1.17141e-06
1.63593e-06
1.53575e-06
1.477e-06
1.35272e-06
1.36082e-06
1.39363e-06
1.42965e-06
1.58687e-06
1.66231e-06
1.62936e-06
1.55486e-06
1.59841e-06
2.10299e-06
1.97938e-06
1.90132e-06
1.74096e-06
1.75812e-06
1.80833e-06
1.85319e-06
2.04151e-06
2.12645e-06
2.08392e-06
2.00025e-06
2.06498e-06
2.57979e-06
2.43667e-06
2.3383e-06
2.14135e-06
2.17061e-06
2.24186e-06
2.29505e-06
2.50768e-06
2.59521e-06
2.54226e-06
2.45639e-06
2.54704e-06
3.04332e-06
2.88558e-06
2.76655e-06
2.53446e-06
2.57908e-06
2.67397e-06
2.73431e-06
2.96342e-06
3.04572e-06
2.98127e-06
2.90159e-06
3.02278e-06
3.48362e-06
3.31704e-06
3.17743e-06
2.91296e-06
2.976e-06
3.09629e-06
3.16223e-06
3.3992e-06
3.46831e-06
3.39142e-06
3.32697e-06
3.48285e-06
3.89269e-06
3.72342e-06
3.56364e-06
3.27076e-06
3.35494e-06
3.50145e-06
3.57111e-06
3.80705e-06
3.85552e-06
3.76556e-06
3.72539e-06
3.91934e-06
4.26424e-06
4.09841e-06
3.91912e-06
3.60283e-06
3.71043e-06
3.88303e-06
3.95428e-06
4.18045e-06
4.2019e-06
4.09863e-06
4.09118e-06
4.32557e-06
4.59341e-06
4.43681e-06
4.2389e-06
3.90508e-06
4.03773e-06
4.23543e-06
4.30601e-06
4.51417e-06
4.50372e-06
4.38735e-06
4.41986e-06
4.69581e-06
4.8766e-06
4.73446e-06
4.51908e-06
4.17424e-06
4.33285e-06
4.55377e-06
4.62144e-06
4.80421e-06
4.75871e-06
4.62993e-06
4.70796e-06
5.02514e-06
5.11144e-06
4.98825e-06
4.75689e-06
4.40797e-06
4.59253e-06
4.83396e-06
4.89663e-06
5.04785e-06
4.96611e-06
4.82601e-06
4.95299e-06
5.30947e-06
5.29696e-06
5.19622e-06
4.95078e-06
4.60489e-06
4.81435e-06
5.07292e-06
5.12885e-06
5.24389e-06
5.12668e-06
4.97667e-06
5.15355e-06
5.54573e-06
5.43373e-06
5.35771e-06
5.10066e-06
4.76466e-06
4.99702e-06
5.26892e-06
5.31677e-06
5.39278e-06
5.24272e-06
5.08451e-06
5.30946e-06
5.73207e-06
5.52388e-06
5.47356e-06
5.20794e-06
4.88817e-06
5.14054e-06
5.4216e-06
5.46055e-06
5.4966e-06
5.31811e-06
5.15343e-06
5.42195e-06
5.86814e-06
5.57104e-06
5.54618e-06
5.27543e-06
4.97748e-06
5.2462e-06
5.53206e-06
5.56182e-06
5.55897e-06
5.35794e-06
5.18853e-06
5.49367e-06
5.95534e-06
5.58032e-06
5.57944e-06
5.30736e-06
5.03581e-06
5.31669e-06
5.60295e-06
5.6237e-06
5.58495e-06
5.36833e-06
5.1959e-06
5.52864e-06
5.99696e-06
5.55814e-06
5.5787e-06
5.30924e-06
5.06747e-06
5.35603e-06
5.63844e-06
5.65079e-06
5.58086e-06
5.35619e-06
5.18236e-06
5.53225e-06
5.99819e-06
5.51212e-06
5.55077e-06
5.28779e-06
5.07783e-06
5.36963e-06
5.64424e-06
5.64909e-06
5.55407e-06
5.32899e-06
5.15526e-06
5.51119e-06
5.96616e-06
5.45083e-06
5.50371e-06
5.25075e-06
5.07325e-06
5.36417e-06
5.62742e-06
5.62578e-06
5.51269e-06
5.29447e-06
5.12227e-06
5.47335e-06
5.9097e-06
5.3834e-06
5.44656e-06
5.20658e-06
5.06092e-06
5.34727e-06
5.59611e-06
5.58893e-06
5.46521e-06
5.26035e-06
5.09113e-06
5.42755e-06
5.8389e-06
5.31909e-06
5.38883e-06
5.1641e-06
5.04852e-06
5.32721e-06
5.55905e-06
5.54709e-06
5.42e-06
5.23397e-06
5.06929e-06
5.38304e-06
5.76446e-06
5.26679e-06
5.33999e-06
5.13196e-06
5.0439e-06
5.31233e-06
5.52506e-06
5.5088e-06
5.38492e-06
5.22191e-06
5.0636e-06
5.34896e-06
5.69691e-06
5.23452e-06
5.30888e-06
5.11827e-06
5.05463e-06
5.31062e-06
5.50263e-06
5.48222e-06
5.36686e-06
5.22972e-06
5.07999e-06
5.33384e-06
5.64601e-06
5.22899e-06
5.30318e-06
5.13008e-06
5.08765e-06
5.32929e-06
5.49947e-06
5.47475e-06
5.37147e-06
5.26173e-06
5.12314e-06
5.34501e-06
5.62017e-06
5.24012e-06
5.31268e-06
5.15536e-06
5.13003e-06
5.35652e-06
5.50395e-06
5.47471e-06
5.38848e-06
5.30629e-06
5.17953e-06
5.37163e-06
5.61101e-06
5.26713e-06
5.33692e-06
5.19215e-06
5.17958e-06
5.39103e-06
5.51511e-06
5.48099e-06
5.41711e-06
5.36162e-06
5.24609e-06
5.41288e-06
5.61944e-06
5.3134e-06
5.37982e-06
5.24328e-06
5.23933e-06
5.43648e-06
5.53704e-06
5.49761e-06
5.46096e-06
5.43062e-06
5.32497e-06
5.47239e-06
5.65013e-06
5.38334e-06
5.44638e-06
5.31325e-06
5.31438e-06
5.49827e-06
5.57561e-06
5.53048e-06
5.52502e-06
5.51782e-06
5.42033e-06
5.55499e-06
5.70827e-06
5.48047e-06
5.54067e-06
5.40639e-06
5.41004e-06
5.58161e-06
5.63655e-06
5.5855e-06
5.61376e-06
5.62747e-06
5.5364e-06
5.66475e-06
5.79767e-06
5.60802e-06
5.66604e-06
5.52734e-06
5.53069e-06
5.69042e-06
5.72426e-06
5.66731e-06
5.73067e-06
5.76274e-06
5.67632e-06
5.80383e-06
5.91986e-06
5.77108e-06
5.82806e-06
5.68322e-06
5.68403e-06
5.83024e-06
5.8458e-06
5.78381e-06
5.88222e-06
5.93059e-06
5.84697e-06
5.97723e-06
6.07868e-06
5.97278e-06
6.02999e-06
5.87949e-06
5.87629e-06
6.00638e-06
6.00719e-06
5.94177e-06
6.07303e-06
6.13596e-06
6.05355e-06
6.1874e-06
6.27703e-06
6.19496e-06
6.25813e-06
6.12237e-06
6.1132e-06
6.2253e-06
6.21462e-06
6.14745e-06
6.2861e-06
6.35844e-06
6.29671e-06
6.42042e-06
6.48332e-06
6.40982e-06
6.47901e-06
6.36649e-06
6.35778e-06
6.44123e-06
6.42687e-06
6.36268e-06
6.49177e-06
6.5718e-06
6.53059e-06
6.64182e-06
6.68232e-06
6.61751e-06
6.69303e-06
6.60305e-06
6.59166e-06
6.64509e-06
6.62863e-06
6.56949e-06
6.6911e-06
6.77698e-06
6.75304e-06
6.85277e-06
6.87507e-06
6.81593e-06
6.89834e-06
6.83141e-06
6.81536e-06
6.83805e-06
6.82117e-06
6.76894e-06
6.88278e-06
6.97236e-06
6.96339e-06
7.05241e-06
7.06024e-06
7.00188e-06
7.09162e-06
7.04875e-06
7.02704e-06
7.01928e-06
7.00354e-06
6.95964e-06
7.06409e-06
7.15496e-06
7.15908e-06
7.23838e-06
7.23538e-06
7.17224e-06
7.2695e-06
7.25136e-06
7.22379e-06
7.18704e-06
7.17376e-06
7.13905e-06
7.23213e-06
7.32181e-06
7.33712e-06
7.40805e-06
7.39795e-06
7.3248e-06
7.4296e-06
7.43578e-06
7.40271e-06
7.33964e-06
7.32979e-06
7.30457e-06
7.38465e-06
7.4707e-06
7.49506e-06
7.5594e-06
7.54602e-06
7.45853e-06
7.5706e-06
7.59938e-06
7.56169e-06
7.476e-06
7.47017e-06
7.45427e-06
7.52043e-06
7.60058e-06
7.63157e-06
7.69139e-06
7.67849e-06
7.57351e-06
7.692e-06
7.74071e-06
7.69974e-06
7.59585e-06
7.59432e-06
7.58717e-06
7.63921e-06
7.71141e-06
7.74651e-06
7.80398e-06
7.7951e-06
7.67057e-06
7.79402e-06
7.85939e-06
7.81693e-06
7.69971e-06
7.70247e-06
7.70316e-06
7.74141e-06
7.80396e-06
7.84079e-06
7.89785e-06
7.8962e-06
7.75091e-06
7.8784e-06
7.95825e-06
7.91407e-06
7.78859e-06
7.79545e-06
7.8028e-06
7.82788e-06
7.87946e-06
7.91626e-06
7.97591e-06
7.9837e-06
7.81619e-06
7.94799e-06
8.04055e-06
7.99478e-06
7.86383e-06
7.87446e-06
7.88701e-06
7.89959e-06
7.94052e-06
7.97617e-06
8.04123e-06
8.06069e-06
7.86887e-06
8.00403e-06
8.10602e-06
8.06186e-06
7.92694e-06
7.94089e-06
7.95694e-06
7.95843e-06
7.98957e-06
8.02255e-06
8.09387e-06
8.12821e-06
7.91067e-06
8.04637e-06
8.15349e-06
8.11437e-06
7.97988e-06
7.99674e-06
8.01507e-06
8.00641e-06
8.02734e-06
8.05524e-06
8.13298e-06
8.18493e-06
7.94217e-06
8.07568e-06
8.18352e-06
8.15202e-06
8.02449e-06
8.04405e-06
8.06355e-06
8.04442e-06
8.05452e-06
8.075e-06
8.15898e-06
8.23001e-06
7.96439e-06
8.09339e-06
8.19811e-06
8.17591e-06
8.06139e-06
8.08364e-06
8.10286e-06
8.073e-06
8.07217e-06
8.08353e-06
8.17343e-06
8.26365e-06
7.97874e-06
8.10137e-06
8.1999e-06
8.18788e-06
8.09086e-06
8.11576e-06
8.13361e-06
8.09292e-06
8.08155e-06
8.08305e-06
8.17833e-06
8.28679e-06
7.98675e-06
8.10161e-06
8.19162e-06
8.19008e-06
8.11373e-06
8.14108e-06
8.15658e-06
8.10505e-06
8.08399e-06
8.07579e-06
8.17567e-06
8.30063e-06
7.98992e-06
8.09603e-06
8.17585e-06
8.18453e-06
8.13105e-06
8.16052e-06
8.17257e-06
8.11031e-06
8.08078e-06
8.06378e-06
8.16725e-06
8.30629e-06
7.98955e-06
8.0863e-06
8.15485e-06
8.17305e-06
8.14378e-06
8.17499e-06
8.1824e-06
8.10964e-06
8.07312e-06
8.04873e-06
8.15457e-06
8.30482e-06
7.98672e-06
8.0738e-06
8.13055e-06
8.15715e-06
8.1527e-06
8.18527e-06
8.18686e-06
8.1039e-06
8.06211e-06
8.03204e-06
8.13884e-06
8.29714e-06
7.98229e-06
8.05958e-06
8.10454e-06
8.13809e-06
8.15832e-06
8.19188e-06
8.18668e-06
8.09393e-06
8.0487e-06
8.01473e-06
8.12106e-06
8.2841e-06
7.97689e-06
8.04444e-06
8.0781e-06
8.11689e-06
8.16092e-06
8.19515e-06
8.18246e-06
8.08049e-06
8.03366e-06
7.99739e-06
8.10201e-06
8.26663e-06
7.97108e-06
8.02896e-06
8.05225e-06
8.09437e-06
8.16052e-06
8.19515e-06
8.17465e-06
8.06432e-06
8.01765e-06
7.98037e-06
8.08236e-06
8.24568e-06
7.96536e-06
8.01354e-06
8.02761e-06
8.07124e-06
8.15696e-06
8.19174e-06
8.16357e-06
8.0461e-06
8.0012e-06
7.96387e-06
8.06269e-06
8.22228e-06
7.96015e-06
7.99835e-06
8.00406e-06
8.04803e-06
8.14999e-06
8.18468e-06
8.14945e-06
8.02649e-06
7.98472e-06
7.94801e-06
8.04346e-06
8.19751e-06
7.95569e-06
7.98376e-06
7.98163e-06
8.02519e-06
8.13936e-06
8.1737e-06
8.13249e-06
8.00609e-06
7.96849e-06
7.93316e-06
8.02495e-06
8.17234e-06
7.95211e-06
7.97022e-06
7.96075e-06
8.00291e-06
8.12501e-06
8.15868e-06
8.11292e-06
7.98525e-06
7.95262e-06
7.91982e-06
8.00728e-06
8.1476e-06
7.94939e-06
7.958e-06
7.94187e-06
7.981e-06
8.10715e-06
8.13974e-06
8.09108e-06
7.96421e-06
7.93734e-06
7.90843e-06
7.99097e-06
8.12388e-06
7.9474e-06
7.94721e-06
7.92528e-06
7.9597e-06
8.08628e-06
8.11741e-06
8.06749e-06
7.94336e-06
7.92308e-06
7.89938e-06
7.97655e-06
8.10154e-06
7.94595e-06
7.93783e-06
7.91112e-06
7.93953e-06
8.06323e-06
8.09256e-06
8.04285e-06
7.92321e-06
7.91029e-06
7.89297e-06
7.96442e-06
8.08074e-06
7.94478e-06
7.92972e-06
7.89937e-06
7.92097e-06
8.03894e-06
8.06643e-06
8.01793e-06
7.90423e-06
7.89938e-06
7.88941e-06
7.95481e-06
8.06154e-06
7.94363e-06
7.92269e-06
7.88989e-06
7.90439e-06
8.01415e-06
8.04024e-06
7.99304e-06
7.88686e-06
7.89074e-06
7.88887e-06
7.94784e-06
8.04384e-06
7.94227e-06
7.9165e-06
7.88248e-06
7.89008e-06
7.98955e-06
8.01451e-06
7.96887e-06
7.87156e-06
7.88472e-06
7.89139e-06
7.94347e-06
8.02746e-06
7.94059e-06
7.91098e-06
7.87687e-06
7.87833e-06
7.96631e-06
7.99013e-06
7.94645e-06
7.85881e-06
7.88165e-06
7.89695e-06
7.9416e-06
8.01232e-06
7.93859e-06
7.90598e-06
7.87279e-06
7.86937e-06
7.94572e-06
7.96849e-06
7.92687e-06
7.84909e-06
7.88181e-06
7.9054e-06
7.94204e-06
7.99849e-06
7.93649e-06
7.90151e-06
7.87e-06
7.86341e-06
7.92897e-06
7.95103e-06
7.91119e-06
7.84287e-06
7.88542e-06
7.91652e-06
7.94458e-06
7.98619e-06
7.93468e-06
7.89769e-06
7.86836e-06
7.86068e-06
7.91714e-06
7.93895e-06
7.90036e-06
7.84059e-06
7.89264e-06
7.93e-06
7.94906e-06
7.9759e-06
7.93381e-06
7.89478e-06
7.8678e-06
7.86142e-06
7.9111e-06
7.93319e-06
7.89515e-06
7.84262e-06
7.90352e-06
7.94543e-06
7.95539e-06
7.96837e-06
7.7648e-07
7.71875e-07
7.82943e-07
7.79058e-07
7.68234e-07
7.54574e-07
7.63252e-07
7.9555e-07
7.99973e-07
7.78499e-07
7.63224e-07
7.67078e-07
1.2511e-07
1.24224e-07
1.26043e-07
1.25446e-07
1.23876e-07
1.21751e-07
1.23137e-07
1.28459e-07
1.2917e-07
1.25611e-07
1.23115e-07
1.23895e-07
7.03283e-08
6.88599e-08
7.00242e-08
6.98558e-08
7.01291e-08
6.94028e-08
7.00741e-08
7.38608e-08
7.42676e-08
7.17599e-08
7.0205e-08
7.15394e-08
1.30416e-07
1.25974e-07
1.28304e-07
1.28287e-07
1.30898e-07
1.30378e-07
1.31381e-07
1.39766e-07
1.40506e-07
1.35057e-07
1.32051e-07
1.36092e-07
2.89852e-07
2.79109e-07
2.84177e-07
2.84298e-07
2.91394e-07
2.90727e-07
2.9268e-07
3.1181e-07
3.13326e-07
3.01013e-07
2.94709e-07
3.04627e-07
5.7059e-07
5.49238e-07
5.5868e-07
5.58983e-07
5.73917e-07
5.73029e-07
5.7641e-07
6.1354e-07
6.16146e-07
5.9231e-07
5.81117e-07
6.01438e-07
9.92827e-07
9.56098e-07
9.71347e-07
9.71866e-07
9.99045e-07
9.98252e-07
1.00327e-06
1.06584e-06
1.06947e-06
1.02912e-06
1.0123e-06
1.04893e-06
1.56396e-06
1.50761e-06
1.52957e-06
1.53029e-06
1.5748e-06
1.57497e-06
1.58138e-06
1.67547e-06
1.67931e-06
1.6178e-06
1.59626e-06
1.6562e-06
2.27402e-06
2.19556e-06
2.22448e-06
2.22538e-06
2.29229e-06
2.29473e-06
2.30181e-06
2.43066e-06
2.43275e-06
2.34649e-06
2.32333e-06
2.41402e-06
3.09617e-06
2.99595e-06
3.03157e-06
3.03273e-06
3.12616e-06
3.13216e-06
3.13873e-06
3.30204e-06
3.29923e-06
3.18611e-06
3.16675e-06
3.29503e-06
3.99115e-06
3.87291e-06
3.91474e-06
3.91658e-06
4.03886e-06
4.04895e-06
4.05346e-06
4.24751e-06
4.2359e-06
4.09553e-06
4.0872e-06
4.25822e-06
4.91343e-06
4.78391e-06
4.83151e-06
4.83509e-06
4.98612e-06
4.99935e-06
5.00005e-06
5.21854e-06
5.1943e-06
5.02812e-06
5.0389e-06
5.25507e-06
5.82136e-06
5.68696e-06
5.73812e-06
5.74466e-06
5.92265e-06
5.93717e-06
5.93219e-06
6.16999e-06
6.1306e-06
5.94066e-06
5.97923e-06
6.24251e-06
6.69742e-06
6.56482e-06
6.61707e-06
6.62727e-06
6.83017e-06
6.84304e-06
6.83041e-06
7.08257e-06
7.02681e-06
6.81606e-06
6.89052e-06
7.20135e-06
7.52681e-06
7.40236e-06
7.45301e-06
7.46783e-06
7.69259e-06
7.7001e-06
7.67781e-06
7.93977e-06
7.86809e-06
7.64034e-06
7.75755e-06
8.11477e-06
8.29711e-06
8.18647e-06
8.2327e-06
8.25326e-06
8.49596e-06
8.494e-06
8.4601e-06
8.72776e-06
8.64225e-06
8.4022e-06
8.56723e-06
8.96802e-06
8.99791e-06
8.90582e-06
8.94485e-06
8.9723e-06
9.2283e-06
9.21271e-06
9.16541e-06
9.43507e-06
9.33936e-06
9.09243e-06
9.30823e-06
9.74815e-06
9.62055e-06
9.55082e-06
9.58007e-06
9.61552e-06
9.87963e-06
9.84647e-06
9.78427e-06
1.00526e-05
9.95149e-06
9.70362e-06
9.97096e-06
1.0444e-05
1.01581e-05
1.01136e-05
1.01311e-05
1.01755e-05
1.04422e-05
1.03879e-05
1.03097e-05
1.05738e-05
1.04729e-05
1.02302e-05
1.05475e-05
1.10462e-05
1.06056e-05
1.0588e-05
1.05926e-05
1.06469e-05
1.09102e-05
1.0832e-05
1.07372e-05
1.09944e-05
1.09e-05
1.06686e-05
1.10318e-05
1.15474e-05
1.09603e-05
1.09705e-05
1.09617e-05
1.10265e-05
1.12806e-05
1.11761e-05
1.10646e-05
1.1313e-05
1.12315e-05
1.1017e-05
1.14202e-05
1.19428e-05
1.12217e-05
1.12594e-05
1.12376e-05
1.13132e-05
1.15523e-05
1.14204e-05
1.12928e-05
1.15307e-05
1.14682e-05
1.12758e-05
1.17111e-05
1.22304e-05
1.13914e-05
1.14554e-05
1.14218e-05
1.15079e-05
1.17269e-05
1.15674e-05
1.14246e-05
1.16511e-05
1.1613e-05
1.14471e-05
1.19053e-05
1.24111e-05
1.14735e-05
1.15613e-05
1.15177e-05
1.16134e-05
1.18082e-05
1.16219e-05
1.14656e-05
1.16804e-05
1.16707e-05
1.15348e-05
1.2006e-05
1.24886e-05
1.14734e-05
1.15822e-05
1.15306e-05
1.16345e-05
1.18021e-05
1.1591e-05
1.14232e-05
1.16263e-05
1.16477e-05
1.15442e-05
1.20182e-05
1.24695e-05
1.13987e-05
1.15248e-05
1.14677e-05
1.15777e-05
1.17164e-05
1.14834e-05
1.13063e-05
1.14983e-05
1.1552e-05
1.14817e-05
1.19494e-05
1.23629e-05
1.1258e-05
1.13977e-05
1.13372e-05
1.14509e-05
1.15603e-05
1.13093e-05
1.11254e-05
1.13068e-05
1.13923e-05
1.13551e-05
1.18084e-05
1.21799e-05
1.10607e-05
1.12103e-05
1.11483e-05
1.12631e-05
1.13442e-05
1.10795e-05
1.08911e-05
1.10625e-05
1.11778e-05
1.11724e-05
1.16053e-05
1.19324e-05
1.08158e-05
1.09721e-05
1.09102e-05
1.10236e-05
1.10781e-05
1.08043e-05
1.06138e-05
1.07753e-05
1.09175e-05
1.09419e-05
1.13498e-05
1.16321e-05
1.05317e-05
1.06918e-05
1.06311e-05
1.07411e-05
1.07713e-05
1.04932e-05
1.03027e-05
1.04542e-05
1.06197e-05
1.0671e-05
1.10512e-05
1.12888e-05
1.02149e-05
1.03766e-05
1.03181e-05
1.04228e-05
1.04311e-05
1.01534e-05
9.96515e-06
1.01064e-05
1.02913e-05
1.03662e-05
1.07165e-05
1.09105e-05
9.87159e-06
1.00323e-05
9.97667e-06
1.00746e-05
1.00637e-05
9.79099e-06
9.60737e-06
9.73892e-06
9.93887e-06
1.00331e-05
1.03518e-05
1.05043e-05
9.51346e-06
9.6698e-06
9.61537e-06
9.70495e-06
9.6798e-06
9.41636e-06
9.23931e-06
9.36503e-06
9.57519e-06
9.68132e-06
9.96974e-06
1.00855e-05
9.15916e-06
9.3078e-06
9.25127e-06
9.33102e-06
9.29725e-06
9.04659e-06
8.87775e-06
9.00332e-06
9.21937e-06
9.32894e-06
9.58968e-06
9.67476e-06
8.82898e-06
8.96706e-06
8.90404e-06
8.97267e-06
8.93583e-06
8.70066e-06
8.5414e-06
8.67355e-06
8.89194e-06
8.99643e-06
9.23303e-06
9.29365e-06
8.54274e-06
8.66808e-06
8.59355e-06
8.64995e-06
8.61494e-06
8.39716e-06
8.24869e-06
8.39455e-06
8.61245e-06
8.70414e-06
8.92051e-06
8.96238e-06
8.31851e-06
8.42967e-06
8.33866e-06
8.38182e-06
8.35249e-06
8.15327e-06
8.01667e-06
8.183e-06
8.39811e-06
8.47069e-06
8.67102e-06
8.69903e-06
8.16832e-06
8.26485e-06
8.15382e-06
8.18424e-06
8.16362e-06
7.9831e-06
7.85888e-06
8.04918e-06
8.25984e-06
8.31047e-06
8.49961e-06
8.51649e-06
8.09848e-06
8.18228e-06
8.05041e-06
8.06807e-06
8.05521e-06
7.89121e-06
7.77822e-06
7.99539e-06
8.2008e-06
8.22839e-06
8.41052e-06
8.42186e-06
8.06383e-06
8.1478e-06
8.02811e-06
8.03501e-06
8.01725e-06
7.87365e-06
7.77652e-06
7.97803e-06
8.17194e-06
8.20287e-06
8.35713e-06
8.34959e-06
8.04195e-06
8.12671e-06
8.02684e-06
8.02639e-06
7.99422e-06
7.87362e-06
7.79508e-06
7.97459e-06
8.15437e-06
8.18654e-06
8.31356e-06
8.29258e-06
8.03271e-06
8.11946e-06
8.03676e-06
8.02591e-06
7.9785e-06
7.88035e-06
7.82174e-06
7.98388e-06
8.14724e-06
8.17752e-06
8.28184e-06
8.25278e-06
8.03349e-06
8.12418e-06
8.05789e-06
8.03428e-06
7.97091e-06
7.8938e-06
7.85557e-06
8.00238e-06
8.14747e-06
8.17473e-06
8.26125e-06
8.22891e-06
8.04056e-06
8.13728e-06
8.08767e-06
8.04982e-06
7.97023e-06
7.91206e-06
7.89373e-06
8.02581e-06
8.15135e-06
8.17564e-06
8.24939e-06
8.21816e-06
8.05035e-06
8.15494e-06
8.12245e-06
8.06989e-06
7.9744e-06
7.93264e-06
7.93285e-06
8.05026e-06
8.15573e-06
8.17755e-06
8.24349e-06
8.21726e-06
8.06017e-06
8.17387e-06
8.15868e-06
8.09186e-06
7.98143e-06
7.95333e-06
7.97005e-06
8.07289e-06
8.15847e-06
8.1784e-06
8.24112e-06
8.22325e-06
8.06832e-06
8.19172e-06