/*--------------------------------*- C++ -*----------------------------------*\
| =========                 |                                                 |
| \\      /  F ield         | OpenFOAM: The Open Source CFD Toolbox           |
|  \\    /   O peration     | Version:  v1912                                 |
|   \\  /    A nd           | Website:  www.openfoam.com                      |
|    \\/     M anipulation  |                                                 |
\*---------------------------------------------------------------------------*/
FoamFile
{
    version     2.0;
    format      ascii;
    class       volScalarField;
    location    "8.4";
    object      nut;
}
// * * * * * * * * * * * * * * * * * * * * * * * * * * * * * * * * * * * * * //

dimensions      [0 2 -1 0 0 0 0];


internalField   nonuniform List<scalar> 
34128
(
4.26954e-12
4.30859e-12
4.38859e-12
4.39851e-12
4.30967e-12
4.20855e-12
4.25583e-12
4.38752e-12
4.374e-12
4.24264e-12
4.18465e-12
4.20947e-12
4.19447e-12
4.22335e-12
4.3033e-12
4.31524e-12
4.22998e-12
4.12714e-12
4.17319e-12
4.31592e-12
4.31281e-12
4.18338e-12
4.1178e-12
4.14002e-12
7.46834e-12
7.34335e-12
7.50733e-12
7.56371e-12
7.45025e-12
7.20554e-12
7.28042e-12
7.78195e-12
7.96516e-12
7.72989e-12
7.45372e-12
7.44953e-12
3.11818e-11
3.00574e-11
3.08034e-11
3.11441e-11
3.08128e-11
2.95929e-11
2.98778e-11
3.28093e-11
3.42125e-11
3.32378e-11
3.15522e-11
3.13609e-11
1.21331e-10
1.16419e-10
1.193e-10
1.20657e-10
1.19574e-10
1.14743e-10
1.15796e-10
1.27847e-10
1.33832e-10
1.30181e-10
1.23232e-10
1.22272e-10
3.63042e-10
3.47941e-10
3.56238e-10
3.60133e-10
3.57375e-10
3.43268e-10
3.46237e-10
3.82229e-10
4.00348e-10
3.90017e-10
3.69289e-10
3.66226e-10
8.72562e-10
8.36063e-10
8.54918e-10
8.63713e-10
8.5836e-10
8.25978e-10
8.32566e-10
9.1715e-10
9.60238e-10
9.37124e-10
8.88452e-10
8.81244e-10
1.76752e-09
1.69412e-09
1.72978e-09
1.74631e-09
1.73824e-09
1.67666e-09
1.68874e-09
1.85392e-09
1.93906e-09
1.89599e-09
1.80096e-09
1.78768e-09
3.12867e-09
3.0014e-09
3.05997e-09
3.08656e-09
3.07739e-09
2.97663e-09
2.99573e-09
3.27423e-09
3.41926e-09
3.34953e-09
3.18929e-09
3.16949e-09
4.97382e-09
4.77864e-09
4.86513e-09
4.90299e-09
4.8958e-09
4.74937e-09
4.77641e-09
5.19406e-09
5.41298e-09
5.31155e-09
5.07141e-09
5.04718e-09
7.25564e-09
6.98554e-09
7.10362e-09
7.15244e-09
7.15083e-09
6.95673e-09
6.99201e-09
7.56253e-09
7.86177e-09
7.72573e-09
7.39872e-09
7.37471e-09
9.82254e-09
9.53142e-09
9.68741e-09
9.74566e-09
9.75228e-09
9.51208e-09
9.55549e-09
1.02249e-08
1.0561e-08
1.04056e-08
1.00325e-08
1.00127e-08
1.21349e-08
1.18024e-08
1.2002e-08
1.20885e-08
1.2085e-08
1.18147e-08
1.18604e-08
1.26196e-08
1.30099e-08
1.28282e-08
1.23966e-08
1.23793e-08
1.45555e-08
1.41863e-08
1.44234e-08
1.45212e-08
1.45146e-08
1.42027e-08
1.42536e-08
1.51191e-08
1.55608e-08
1.53549e-08
1.48699e-08
1.48576e-08
1.7055e-08
1.66546e-08
1.69293e-08
1.7035e-08
1.7023e-08
1.66707e-08
1.67263e-08
1.76914e-08
1.81801e-08
1.79527e-08
1.74208e-08
1.74163e-08
1.96079e-08
1.91829e-08
1.94952e-08
1.96044e-08
1.95836e-08
1.91921e-08
1.92524e-08
2.03092e-08
2.08389e-08
2.05925e-08
2.00212e-08
2.00278e-08
2.21957e-08
2.17531e-08
2.21034e-08
2.22107e-08
2.21767e-08
2.17467e-08
2.18119e-08
2.29525e-08
2.3516e-08
2.32525e-08
2.26506e-08
2.26717e-08
2.48084e-08
2.43552e-08
2.47439e-08
2.48437e-08
2.4791e-08
2.43219e-08
2.43924e-08
2.56101e-08
2.61993e-08
2.59194e-08
2.52971e-08
2.53368e-08
2.74465e-08
2.69883e-08
2.74156e-08
2.75013e-08
2.74245e-08
2.69144e-08
2.69903e-08
2.82809e-08
2.88871e-08
2.85903e-08
2.79592e-08
2.80226e-08
3.01222e-08
2.96624e-08
3.01277e-08
3.0191e-08
3.00853e-08
2.95311e-08
2.9612e-08
3.09741e-08
3.15886e-08
3.12731e-08
3.06471e-08
3.07409e-08
3.28591e-08
3.23991e-08
3.28993e-08
3.29307e-08
3.27925e-08
3.21899e-08
3.22746e-08
3.37099e-08
3.43239e-08
3.39871e-08
3.33832e-08
3.35169e-08
3.569e-08
3.52297e-08
3.57592e-08
3.57466e-08
3.55746e-08
3.49189e-08
3.50044e-08
3.65165e-08
3.71219e-08
3.6761e-08
3.6199e-08
3.63859e-08
3.8653e-08
3.8191e-08
3.87411e-08
3.86704e-08
3.84654e-08
3.77515e-08
3.78329e-08
3.9427e-08
4.00164e-08
3.96284e-08
3.91307e-08
3.93875e-08
4.17866e-08
4.13207e-08
4.188e-08
4.1735e-08
4.14995e-08
4.07209e-08
4.07915e-08
4.24755e-08
4.30424e-08
4.26233e-08
4.22145e-08
4.25598e-08
4.51295e-08
4.46547e-08
4.52099e-08
4.49717e-08
4.47087e-08
4.38563e-08
4.39085e-08
4.56969e-08
4.62363e-08
4.57795e-08
4.54838e-08
4.59379e-08
4.87243e-08
4.82311e-08
4.87661e-08
4.84119e-08
4.81243e-08
4.71851e-08
4.72113e-08
4.91316e-08
4.96406e-08
4.91333e-08
4.89736e-08
4.95582e-08
5.26278e-08
5.20987e-08
5.25926e-08
5.20924e-08
5.17841e-08
5.07402e-08
5.07341e-08
5.28335e-08
5.3312e-08
5.27318e-08
5.27283e-08
5.34702e-08
5.69232e-08
5.63303e-08
5.6753e-08
5.60661e-08
5.57444e-08
5.45722e-08
5.45285e-08
5.6882e-08
5.73319e-08
5.66431e-08
5.68156e-08
5.77525e-08
6.17336e-08
6.10379e-08
6.13444e-08
6.04136e-08
6.00936e-08
5.87633e-08
5.86762e-08
6.13935e-08
6.1819e-08
6.09684e-08
6.13418e-08
6.25296e-08
6.72358e-08
6.63892e-08
6.65107e-08
6.52581e-08
6.49687e-08
6.34445e-08
6.33048e-08
6.65374e-08
6.69445e-08
6.58584e-08
6.64696e-08
6.79919e-08
7.36693e-08
7.26249e-08
7.24614e-08
7.07861e-08
7.05768e-08
6.88182e-08
6.86061e-08
7.25247e-08
7.29256e-08
7.15241e-08
7.24377e-08
7.44066e-08
8.13049e-08
8.00337e-08
7.94501e-08
7.72371e-08
7.71632e-08
7.51168e-08
7.47936e-08
7.95955e-08
8.00174e-08
7.82073e-08
7.95199e-08
8.20643e-08
9.04953e-08
8.89621e-08
8.777e-08
8.48693e-08
8.50025e-08
8.25922e-08
8.21059e-08
8.80807e-08
8.85694e-08
8.62183e-08
8.80498e-08
9.13379e-08
1.01804e-07
9.9965e-08
9.79048e-08
9.41107e-08
9.45375e-08
9.16507e-08
9.0932e-08
9.8499e-08
9.91293e-08
9.60508e-08
9.85589e-08
1.02811e-07
1.16093e-07
1.13894e-07
1.10591e-07
1.05613e-07
1.06436e-07
1.02901e-07
1.01857e-07
1.11634e-07
1.12531e-07
1.08454e-07
1.11858e-07
1.17375e-07
1.3468e-07
1.32067e-07
1.26962e-07
1.20371e-07
1.21709e-07
1.17255e-07
1.15755e-07
1.28673e-07
1.30054e-07
1.24578e-07
1.292e-07
1.36398e-07
1.59632e-07
1.56573e-07
1.48813e-07
1.39942e-07
1.41916e-07
1.36106e-07
1.33952e-07
1.51436e-07
1.53689e-07
1.4623e-07
1.52558e-07
1.62024e-07
1.94154e-07
1.90752e-07
1.78944e-07
1.66774e-07
1.69547e-07
1.61652e-07
1.58535e-07
1.82746e-07
1.86515e-07
1.76255e-07
1.85169e-07
1.97741e-07
2.37e-07
2.35138e-07
2.14952e-07
2.01685e-07
2.08383e-07
1.97276e-07
1.92638e-07
2.23092e-07
2.27049e-07
2.14913e-07
2.31854e-07
2.4894e-07
2.82641e-07
2.80986e-07
2.53921e-07
2.37224e-07
2.51348e-07
2.38229e-07
2.28827e-07
2.64729e-07
2.70924e-07
2.55229e-07
2.76943e-07
3.04193e-07
3.42534e-07
3.41741e-07
3.05975e-07
2.84804e-07
3.03708e-07
2.86075e-07
2.73138e-07
3.19862e-07
3.28901e-07
3.09146e-07
3.37159e-07
3.7081e-07
4.16574e-07
4.17312e-07
3.71748e-07
3.46339e-07
3.70681e-07
3.47697e-07
3.30583e-07
3.88756e-07
4.01274e-07
3.77364e-07
4.12526e-07
4.53051e-07
5.06757e-07
5.0974e-07
4.52448e-07
4.22603e-07
4.53363e-07
4.23736e-07
4.01847e-07
4.73173e-07
4.90077e-07
4.61387e-07
5.04975e-07
5.53159e-07
6.15144e-07
6.21218e-07
5.50285e-07
5.15877e-07
5.54167e-07
5.16201e-07
4.88895e-07
5.75481e-07
5.97568e-07
5.63591e-07
6.16689e-07
6.7299e-07
7.43118e-07
7.5342e-07
6.66868e-07
6.28195e-07
6.75013e-07
6.2705e-07
5.94077e-07
6.97427e-07
7.2519e-07
6.85668e-07
7.48889e-07
8.1321e-07
8.91067e-07
9.08112e-07
8.02729e-07
7.60627e-07
8.16707e-07
7.57464e-07
7.19137e-07
8.39596e-07
8.73051e-07
8.28084e-07
9.01333e-07
9.72832e-07
1.0582e-06
1.08351e-06
9.56942e-07
9.12831e-07
9.78501e-07
9.0747e-07
8.64656e-07
1.00092e-06
1.03951e-06
9.8965e-07
1.07196e-06
1.14917e-06
1.24284e-06
1.27195e-06
1.12698e-06
1.08274e-06
1.15785e-06
1.0756e-06
1.02953e-06
1.17842e-06
1.22105e-06
1.16736e-06
1.25687e-06
1.3393e-06
1.43905e-06
1.46631e-06
1.30911e-06
1.26656e-06
1.35042e-06
1.25859e-06
1.21067e-06
1.36733e-06
1.41254e-06
1.3566e-06
1.45067e-06
1.53808e-06
1.6389e-06
1.65994e-06
1.49762e-06
1.45913e-06
1.55042e-06
1.45144e-06
1.40313e-06
1.56163e-06
1.60781e-06
1.55178e-06
1.64711e-06
1.73508e-06
1.83502e-06
1.848e-06
1.68726e-06
1.65463e-06
1.75114e-06
1.64793e-06
1.60063e-06
1.75481e-06
1.80059e-06
1.74706e-06
1.83995e-06
1.92332e-06
2.0213e-06
2.02753e-06
1.87367e-06
1.84709e-06
1.94603e-06
1.84163e-06
1.79642e-06
1.94066e-06
1.98536e-06
1.93688e-06
2.02299e-06
2.09835e-06
2.19392e-06
2.19478e-06
2.05045e-06
2.03e-06
2.12943e-06
2.0267e-06
1.98418e-06
2.11409e-06
2.15771e-06
2.11555e-06
2.19049e-06
2.25485e-06
2.34997e-06
2.34529e-06
1.99251e-06
2.04294e-06
2.29654e-06
2.19835e-06
2.1589e-06
2.27148e-06
2.31412e-06
2.27774e-06
2.06329e-06
2.21284e-06
2.48678e-06
2.47637e-06
1.94058e-06
1.96073e-06
2.4437e-06
2.35267e-06
2.31684e-06
2.41058e-06
2.45226e-06
2.33703e-06
1.97308e-06
2.03576e-06
2.60306e-06
2.5875e-06
1.9508e-06
1.92873e-06
2.56972e-06
2.48696e-06
2.45529e-06
2.5304e-06
2.57091e-06
2.33432e-06
1.94726e-06
1.90983e-06
2.69927e-06
2.6543e-06
2.00677e-06
1.93898e-06
2.49024e-06
2.55798e-06
2.5227e-06
2.63112e-06
2.66999e-06
2.39004e-06
1.96897e-06
1.83752e-06
2.77717e-06
2.71059e-06
2.09609e-06
1.97868e-06
2.41689e-06
2.47021e-06
2.45911e-06
2.70855e-06
2.74873e-06
2.50599e-06
2.02673e-06
1.80183e-06
2.8389e-06
2.78735e-06
2.21282e-06
2.04079e-06
2.37503e-06
2.40385e-06
2.40914e-06
2.66243e-06
2.75088e-06
2.66635e-06
2.11479e-06
1.79118e-06
2.88712e-06
2.86231e-06
2.35309e-06
2.12181e-06
2.34877e-06
2.35723e-06
2.3771e-06
2.63281e-06
2.76914e-06
2.83588e-06
2.22977e-06
1.79994e-06
2.92442e-06
2.89891e-06
2.51333e-06
2.22019e-06
2.33238e-06
2.31953e-06
2.35334e-06
2.62408e-06
2.80679e-06
2.89423e-06
2.36821e-06
1.82605e-06
2.95189e-06
2.92644e-06
2.69099e-06
2.33542e-06
2.32547e-06
2.2887e-06
2.33516e-06
2.63161e-06
2.86092e-06
2.92493e-06
2.52638e-06
1.86918e-06
2.97251e-06
2.94811e-06
2.87098e-06
2.46728e-06
2.32994e-06
2.2659e-06
2.3236e-06
2.65199e-06
2.9254e-06
2.9488e-06
2.69973e-06
1.92954e-06
2.98808e-06
2.96549e-06
2.95136e-06
2.61518e-06
2.34863e-06
2.25374e-06
2.3205e-06
2.68463e-06
2.97677e-06
2.96795e-06
2.86768e-06
2.00676e-06
2.99975e-06
2.97977e-06
2.97128e-06
2.78176e-06
2.38501e-06
2.25584e-06
2.3279e-06
2.73137e-06
2.99076e-06
2.98176e-06
2.92993e-06
2.09851e-06
3.00842e-06
2.99181e-06
2.98786e-06
2.95827e-06
2.4432e-06
2.27671e-06
2.34845e-06
2.79523e-06
3.00189e-06
2.99107e-06
2.93801e-06
2.20121e-06
3.01482e-06
3.00217e-06
3.0023e-06
3.01482e-06
2.52667e-06
2.32165e-06
2.3859e-06
2.87933e-06
3.01028e-06
2.997e-06
2.94445e-06
2.31061e-06
3.01948e-06
3.01118e-06
3.01492e-06
3.02731e-06
2.63962e-06
2.397e-06
2.44565e-06
2.98204e-06
3.01641e-06
3.00025e-06
2.94766e-06
2.42171e-06
3.02282e-06
3.01906e-06
3.02594e-06
3.03817e-06
2.78731e-06
2.5104e-06
2.53448e-06
3.00667e-06
3.02058e-06
3.00119e-06
2.94932e-06
2.53017e-06
3.02513e-06
3.02595e-06
3.03554e-06
3.04751e-06
2.95953e-06
2.671e-06
2.66089e-06
3.01389e-06
3.02295e-06
3.00071e-06
2.94971e-06
2.63207e-06
3.02664e-06
3.03199e-06
3.04382e-06
3.05542e-06
3.06137e-06
2.87622e-06
2.83608e-06
3.02032e-06
3.02373e-06
2.99891e-06
2.94895e-06
2.72415e-06
3.02755e-06
3.03725e-06
3.05107e-06
3.06198e-06
3.06775e-06
3.06819e-06
3.04447e-06
3.026e-06
3.02303e-06
2.99583e-06
2.94721e-06
2.80765e-06
3.02802e-06
3.04182e-06
3.05715e-06
3.06727e-06
3.07305e-06
3.07429e-06
3.05352e-06
3.03099e-06
3.02095e-06
2.99182e-06
2.94466e-06
2.88218e-06
3.02821e-06
3.04577e-06
3.0619e-06
3.07157e-06
3.07712e-06
3.07962e-06
3.06188e-06
3.03495e-06
3.01754e-06
2.98703e-06
2.94142e-06
2.90391e-06
3.02828e-06
3.04915e-06
3.06538e-06
3.07506e-06
3.0799e-06
3.08403e-06
3.06954e-06
3.03767e-06
3.01285e-06
2.98152e-06
2.93761e-06
2.893e-06
3.02835e-06
3.052e-06
3.06767e-06
3.07778e-06
3.0815e-06
3.0875e-06
3.07523e-06
3.03886e-06
3.00694e-06
2.97535e-06
2.93345e-06
2.88118e-06
3.02851e-06
3.05433e-06
3.06893e-06
3.07945e-06
3.08208e-06
3.08997e-06
3.0768e-06
3.03832e-06
2.99997e-06
2.9686e-06
2.92923e-06
2.86879e-06
3.02879e-06
3.05613e-06
3.06954e-06
3.07985e-06
3.08165e-06
3.0914e-06
3.07643e-06
3.03565e-06
2.99185e-06
2.96139e-06
2.9253e-06
2.85604e-06
3.02911e-06
3.05733e-06
3.06969e-06
3.0788e-06
3.07996e-06
3.09171e-06
3.07547e-06
3.02946e-06
2.98229e-06
2.95373e-06
2.92198e-06
2.84307e-06
4.58206e-12
4.59294e-12
4.67197e-12
4.6671e-12
4.57866e-12
4.47261e-12
4.51827e-12
4.68721e-12
4.70432e-12
4.57779e-12
4.50018e-12
4.52098e-12
4.39991e-12
4.40565e-12
4.47772e-12
4.46657e-12
4.38206e-12
4.28241e-12
4.3277e-12
4.4968e-12
4.51766e-12
4.3965e-12
4.31867e-12
4.33913e-12
6.06193e-12
5.97856e-12
6.00509e-12
5.86626e-12
5.7637e-12
5.6712e-12
5.7602e-12
6.12353e-12
6.23269e-12
6.0716e-12
5.90428e-12
5.94222e-12
1.81785e-11
1.73391e-11
1.70093e-11
1.59675e-11
1.57499e-11
1.57113e-11
1.61058e-11
1.78932e-11
1.87529e-11
1.83267e-11
1.74104e-11
1.75821e-11
6.39982e-11
6.02855e-11
5.85756e-11
5.41518e-11
5.35897e-11
5.38283e-11
5.53453e-11
6.23823e-11
6.60112e-11
6.46271e-11
6.09569e-11
6.16813e-11
1.85465e-10
1.74098e-10
1.68538e-10
1.5512e-10
1.53979e-10
1.55299e-10
1.59705e-10
1.802e-10
1.90899e-10
1.87124e-10
1.76478e-10
1.7891e-10
4.38473e-10
4.11306e-10
3.97265e-10
3.65054e-10
3.63542e-10
3.68064e-10
3.78267e-10
4.25354e-10
4.49858e-10
4.41438e-10
4.17303e-10
4.24027e-10
8.77606e-10
8.23803e-10
7.94239e-10
7.29343e-10
7.28796e-10
7.40835e-10
7.60686e-10
8.50577e-10
8.96745e-10
8.80785e-10
8.35689e-10
8.515e-10
1.53732e-09
1.44557e-09
1.39164e-09
1.27769e-09
1.28101e-09
1.30758e-09
1.34131e-09
1.48946e-09
1.56392e-09
1.53718e-09
1.46487e-09
1.49722e-09
2.42072e-09
2.28223e-09
2.19466e-09
2.01526e-09
2.027e-09
2.07746e-09
2.129e-09
2.34596e-09
2.45119e-09
2.41025e-09
2.30841e-09
2.36714e-09
3.49993e-09
3.31096e-09
3.18168e-09
2.92303e-09
2.94888e-09
3.03377e-09
3.10623e-09
3.39495e-09
3.52748e-09
3.46876e-09
3.34055e-09
3.43699e-09
4.67682e-09
4.46396e-09
4.29862e-09
3.96143e-09
3.99685e-09
4.12296e-09
4.218e-09
4.5474e-09
4.689e-09
4.61753e-09
4.47684e-09
4.60874e-09
5.74424e-09
5.50137e-09
5.29891e-09
4.88946e-09
4.94523e-09
5.11309e-09
5.22686e-09
5.59741e-09
5.73951e-09
5.64755e-09
5.50506e-09
5.68414e-09
6.85032e-09
6.58244e-09
6.34165e-09
5.85998e-09
5.94254e-09
6.15857e-09
6.29026e-09
6.69065e-09
6.82074e-09
6.70487e-09
6.57269e-09
6.80823e-09
7.97957e-09
7.69296e-09
7.41332e-09
6.86129e-09
6.97751e-09
7.24788e-09
7.39617e-09
7.81286e-09
7.91683e-09
7.77322e-09
7.66509e-09
7.96653e-09
9.11919e-09
8.82122e-09
8.50284e-09
7.88401e-09
8.04099e-09
8.3712e-09
8.5343e-09
8.9525e-09
9.0152e-09
8.83953e-09
8.77038e-09
9.14697e-09
1.02604e-08
9.95906e-09
9.60242e-09
8.92193e-09
9.12687e-09
9.52137e-09
9.69707e-09
1.01017e-08
1.01079e-08
9.89527e-09
9.88063e-09
1.03412e-08
1.13991e-08
1.11025e-08
1.07081e-08
9.97237e-09
1.02325e-08
1.06944e-08
1.08802e-08
1.12572e-08
1.11925e-08
1.09372e-08
1.09926e-08
1.15455e-08
1.25367e-08
1.22523e-08
1.18202e-08
1.10366e-08
1.13591e-08
1.18903e-08
1.20836e-08
1.24204e-08
1.22724e-08
1.19683e-08
1.21082e-08
1.27613e-08
1.36808e-08
1.34146e-08
1.29442e-08
1.21203e-08
1.25124e-08
1.3114e-08
1.33121e-08
1.3599e-08
1.33573e-08
1.29976e-08
1.3235e-08
1.39959e-08
1.48454e-08
1.46016e-08
1.40912e-08
1.32344e-08
1.3704e-08
1.43766e-08
1.45767e-08
1.48069e-08
1.44639e-08
1.40413e-08
1.43867e-08
1.52631e-08
1.60501e-08
1.58317e-08
1.52785e-08
1.43957e-08
1.49512e-08
1.56954e-08
1.58944e-08
1.60644e-08
1.5615e-08
1.51214e-08
1.55832e-08
1.65823e-08
1.73198e-08
1.71281e-08
1.65285e-08
1.56263e-08
1.62765e-08
1.70923e-08
1.72872e-08
1.73974e-08
1.68392e-08
1.62654e-08
1.68493e-08
1.79779e-08
1.86843e-08
1.85191e-08
1.78686e-08
1.6953e-08
1.77072e-08
1.85937e-08
1.87813e-08
1.88372e-08
1.81711e-08
1.75063e-08
1.82147e-08
1.94783e-08
2.01806e-08
2.00393e-08
1.93326e-08
1.84086e-08
1.92766e-08
2.02315e-08
2.04087e-08
2.04236e-08
1.96534e-08
1.8884e-08
1.97155e-08
2.11192e-08
2.18587e-08
2.17349e-08
2.09648e-08
2.0035e-08
2.10279e-08
2.20469e-08
2.22112e-08
2.22089e-08
2.13416e-08
2.04497e-08
2.13994e-08
2.2949e-08
2.37888e-08
2.36714e-08
2.28268e-08
2.18896e-08
2.30214e-08
2.40983e-08
2.42469e-08
2.42662e-08
2.33113e-08
2.22723e-08
2.33337e-08
2.50395e-08
2.60718e-08
2.59448e-08
2.50063e-08
2.40538e-08
2.53437e-08
2.64704e-08
2.65995e-08
2.66988e-08
2.5668e-08
2.44476e-08
2.56162e-08
2.74973e-08
2.88523e-08
2.86943e-08
2.76294e-08
2.66447e-08
2.81209e-08
2.92864e-08
2.93902e-08
2.96529e-08
2.85594e-08
2.71104e-08
2.83892e-08
3.04791e-08
3.23352e-08
3.21197e-08
3.08757e-08
2.98304e-08
3.15329e-08
3.27229e-08
3.27919e-08
3.33334e-08
3.21918e-08
3.04495e-08
3.18567e-08
3.42083e-08
3.68076e-08
3.65035e-08
3.49978e-08
3.38496e-08
3.58335e-08
3.70286e-08
3.70474e-08
3.80252e-08
3.68528e-08
3.47294e-08
3.63067e-08
3.89981e-08
4.26719e-08
4.22432e-08
4.03499e-08
3.90381e-08
4.13769e-08
4.25501e-08
4.24956e-08
4.41248e-08
4.29436e-08
4.03197e-08
4.21437e-08
4.52854e-08
5.03532e-08
4.97503e-08
4.72683e-08
4.57009e-08
4.8496e-08
4.96068e-08
4.94476e-08
5.20506e-08
5.08909e-08
4.75846e-08
4.97847e-08
5.3546e-08
6.05509e-08
5.97041e-08
5.63151e-08
5.43537e-08
5.77425e-08
5.87311e-08
5.84257e-08
6.24917e-08
6.14e-08
5.71308e-08
5.99139e-08
6.45512e-08
7.4379e-08
7.31856e-08
6.83765e-08
6.58046e-08
6.99743e-08
7.07525e-08
7.02483e-08
7.65427e-08
7.55967e-08
6.99191e-08
7.36096e-08
7.9523e-08
9.36031e-08
9.19163e-08
8.48377e-08
8.13198e-08
8.65271e-08
8.69621e-08
8.61967e-08
9.59438e-08
9.52884e-08
8.74765e-08
9.25883e-08
1.00421e-07
1.19186e-07
1.172e-07
1.06545e-07
1.02837e-07
1.09446e-07
1.09311e-07
1.08208e-07
1.22606e-07
1.23044e-07
1.12158e-07
1.19498e-07
1.303e-07
1.48634e-07
1.45827e-07
1.3135e-07
1.27634e-07
1.37362e-07
1.34937e-07
1.32679e-07
1.5218e-07
1.53453e-07
1.39965e-07
1.49819e-07
1.65675e-07
1.88068e-07
1.84332e-07
1.64319e-07
1.59605e-07
1.7201e-07
1.67701e-07
1.64366e-07
1.91523e-07
1.93977e-07
1.76278e-07
1.90042e-07
2.09978e-07
2.40925e-07
2.36122e-07
2.08362e-07
2.0243e-07
2.18341e-07
2.11374e-07
2.06531e-07
2.43945e-07
2.48049e-07
2.24805e-07
2.44065e-07
2.69296e-07
3.10471e-07
3.04665e-07
2.67216e-07
2.59865e-07
2.80387e-07
2.69714e-07
2.6276e-07
3.12535e-07
3.1872e-07
2.89378e-07
3.15477e-07
3.46044e-07
3.99441e-07
3.92539e-07
3.42955e-07
3.34584e-07
3.60509e-07
3.45118e-07
3.35395e-07
3.9961e-07
4.08498e-07
3.72081e-07
4.06874e-07
4.4294e-07
5.11378e-07
5.03243e-07
4.38559e-07
4.29506e-07
4.6203e-07
4.40527e-07
4.27065e-07
5.08318e-07
5.2056e-07
4.76215e-07
5.21831e-07
5.62918e-07
6.48795e-07
6.38975e-07
5.56818e-07
5.47907e-07
5.88225e-07
5.59232e-07
5.40803e-07
6.40803e-07
6.56977e-07
6.04419e-07
6.62813e-07
7.07508e-07
8.12165e-07
7.98896e-07
6.99091e-07
6.91799e-07
7.40911e-07
7.03365e-07
6.78512e-07
7.97398e-07
8.17893e-07
7.57612e-07
8.30098e-07
8.75941e-07
9.99065e-07
9.76628e-07
8.64489e-07
8.61051e-07
9.19467e-07
8.72981e-07
8.40188e-07
9.76061e-07
1.00097e-06
9.3421e-07
1.02085e-06
1.06471e-06
1.20369e-06
1.16538e-06
1.04939e-06
1.05277e-06
1.1202e-06
1.06536e-06
1.02341e-06
1.17232e-06
1.20131e-06
1.12982e-06
1.22878e-06
1.26578e-06
1.41636e-06
1.36295e-06
1.24754e-06
1.26105e-06
1.33649e-06
1.27493e-06
1.22336e-06
1.37981e-06
1.41203e-06
1.33762e-06
1.44481e-06
1.4675e-06
1.62951e-06
1.5642e-06
1.45053e-06
1.47721e-06
1.55971e-06
1.49405e-06
1.4334e-06
1.59121e-06
1.6252e-06
1.54941e-06
1.6588e-06
1.65983e-06
1.83723e-06
1.76279e-06
1.65072e-06
1.69179e-06
1.78052e-06
1.71432e-06
1.64608e-06
1.79933e-06
1.83291e-06
1.75694e-06
1.86134e-06
1.84046e-06
2.03375e-06
1.86892e-06
1.67752e-06
1.89615e-06
1.99054e-06
1.92722e-06
1.854e-06
1.99738e-06
2.02817e-06
1.94787e-06
1.86544e-06
1.9065e-06
2.20005e-06
1.80562e-06
1.57296e-06
1.85859e-06
2.18321e-06
2.12557e-06
2.05037e-06
2.17923e-06
2.05648e-06
1.87982e-06
1.74393e-06
1.7738e-06
2.18574e-06
1.76136e-06
1.50647e-06
1.7571e-06
2.35403e-06
2.30414e-06
2.22794e-06
2.19808e-06
2.03377e-06
1.8256e-06
1.65771e-06
1.65388e-06
2.18864e-06
1.74852e-06
1.48663e-06
1.70036e-06
2.45063e-06
2.39172e-06
2.19847e-06
2.17471e-06
2.03123e-06
1.81075e-06
1.62001e-06
1.57487e-06
2.22626e-06
1.76372e-06
1.50446e-06
1.68178e-06
2.37461e-06
2.34251e-06
2.16621e-06
2.16092e-06
2.04544e-06
1.83164e-06
1.61956e-06
1.53411e-06
2.29225e-06
1.80565e-06
1.55087e-06
1.69068e-06
2.32776e-06
2.30735e-06
2.14488e-06
2.1583e-06
2.06809e-06
1.88221e-06
1.64364e-06
1.51973e-06
2.3793e-06
1.87276e-06
1.62054e-06
1.71956e-06
2.31041e-06
2.29243e-06
2.12932e-06
2.16569e-06
2.097e-06
1.9545e-06
1.68482e-06
1.52165e-06
2.48058e-06
1.96296e-06
1.71123e-06
1.76392e-06
2.30384e-06
2.28719e-06
2.12176e-06
2.18416e-06
2.13516e-06
2.04221e-06
1.73984e-06
1.53487e-06
2.58898e-06
2.07374e-06
1.82253e-06
1.82151e-06
2.29651e-06
2.28241e-06
2.12368e-06
2.21539e-06
2.1859e-06
2.14308e-06
1.80782e-06
1.55801e-06
2.69869e-06
2.2021e-06
1.95499e-06
1.89171e-06
2.28465e-06
2.27442e-06
2.13444e-06
2.2604e-06
2.25015e-06
2.25814e-06
1.88939e-06
1.59166e-06
2.80546e-06
2.34431e-06
2.10929e-06
1.97501e-06
2.2696e-06
2.26368e-06
2.15298e-06
2.31963e-06
2.32681e-06
2.3872e-06
1.9861e-06
1.63752e-06
2.90455e-06
2.49644e-06
2.28536e-06
2.07257e-06
2.25389e-06
2.25143e-06
2.17804e-06
2.39393e-06
2.41465e-06
2.52492e-06
2.09971e-06
1.69794e-06
2.99168e-06
2.65519e-06
2.48294e-06
2.18611e-06
2.23953e-06
2.23925e-06
2.2088e-06
2.48434e-06
2.51331e-06
2.66442e-06
2.23186e-06
1.77544e-06
3.01018e-06
2.81823e-06
2.70234e-06
2.31776e-06
2.22914e-06
2.22949e-06
2.24554e-06
2.59145e-06
2.62266e-06
2.80262e-06
2.38435e-06
1.87217e-06
3.01691e-06
2.97335e-06
2.92411e-06
2.46975e-06
2.22677e-06
2.22556e-06
2.28995e-06
2.71519e-06
2.7414e-06
2.93486e-06
2.55653e-06
1.98903e-06
3.02142e-06
3.00987e-06
3.00504e-06
2.64411e-06
2.2379e-06
2.2321e-06
2.34509e-06
2.85459e-06
2.86699e-06
3.01676e-06
2.74144e-06
2.12441e-06
3.0243e-06
3.01953e-06
3.01907e-06
2.84149e-06
2.26894e-06
2.25477e-06
2.41526e-06
3.00269e-06
2.99202e-06
3.01918e-06
2.92088e-06
2.27324e-06
3.02597e-06
3.02816e-06
3.03142e-06
3.03781e-06
2.32609e-06
2.29991e-06
2.50518e-06
3.05512e-06
3.05133e-06
3.02041e-06
2.96763e-06
2.42688e-06
3.02674e-06
3.03598e-06
3.04226e-06
3.04764e-06
2.41438e-06
2.37392e-06
2.61922e-06
3.06025e-06
3.05208e-06
3.02037e-06
2.97198e-06
2.57576e-06
3.02683e-06
3.04312e-06
3.05173e-06
3.05624e-06
2.53901e-06
2.48255e-06
2.76297e-06
3.06371e-06
3.05163e-06
3.01903e-06
2.97438e-06
2.71167e-06
3.02643e-06
3.04964e-06
3.05991e-06
3.06365e-06
2.70328e-06
2.6312e-06
2.94063e-06
3.06555e-06
3.04998e-06
3.01639e-06
2.975e-06
2.82904e-06
3.02574e-06
3.05555e-06
3.06684e-06
3.06988e-06
2.89692e-06
2.82445e-06
3.08295e-06
3.06573e-06
3.04715e-06
3.01249e-06
2.974e-06
2.92882e-06
3.02498e-06
3.06087e-06
3.07259e-06
3.07492e-06
3.07896e-06
3.04055e-06
3.08668e-06
3.06418e-06
3.04316e-06
3.00741e-06
2.97148e-06
2.9595e-06
3.0244e-06
3.0656e-06
3.07722e-06
3.07878e-06
3.08359e-06
3.10121e-06
3.08921e-06
3.06129e-06
3.03802e-06
3.00125e-06
2.9676e-06
2.95164e-06
3.02422e-06
3.06976e-06
3.0808e-06
3.08151e-06
3.0869e-06
3.1043e-06
3.09034e-06
3.05725e-06
3.03184e-06
2.99413e-06
2.96259e-06
2.94154e-06
3.02463e-06
3.07337e-06
3.08342e-06
3.08318e-06
3.08876e-06
3.10631e-06
3.09091e-06
3.05239e-06
3.02459e-06
2.98616e-06
2.95684e-06
2.9299e-06
3.02574e-06
3.07642e-06
3.08518e-06
3.08383e-06
3.08913e-06
3.10728e-06
3.09113e-06
3.04697e-06
3.01607e-06
2.97756e-06
2.95139e-06
2.91755e-06
3.02755e-06
3.0789e-06
3.08613e-06
3.08342e-06
3.08802e-06
3.1072e-06
3.09082e-06
3.04107e-06
3.0062e-06
2.96838e-06
2.94583e-06
2.90518e-06
3.02991e-06
3.08072e-06
3.08638e-06
3.08187e-06
3.08545e-06
3.10603e-06
3.0897e-06
3.03467e-06
2.99498e-06
2.95875e-06
2.94016e-06
2.89321e-06
4.96127e-12
4.93184e-12
5.00256e-12
4.97773e-12
4.90857e-12
4.8213e-12
4.87674e-12
5.08311e-12
5.11137e-12
4.97417e-12
4.87656e-12
4.90119e-12
4.83382e-12
4.7994e-12
4.86955e-12
4.84674e-12
4.7862e-12
4.70381e-12
4.75719e-12
4.96308e-12
4.99071e-12
4.85382e-12
4.75755e-12
4.78686e-12
7.8793e-12
7.71409e-12
7.84389e-12
7.82606e-12
7.85735e-12
7.7751e-12
7.84944e-12
8.27413e-12
8.32033e-12
8.04193e-12
7.86861e-12
8.01493e-12
3.03473e-11
2.93113e-11
2.98482e-11
2.98517e-11
3.04648e-11
3.03408e-11
3.05673e-11
3.2514e-11
3.26889e-11
3.14402e-11
3.0749e-11
3.16695e-11
1.15383e-10
1.11113e-10
1.13095e-10
1.13196e-10
1.16054e-10
1.15789e-10
1.1652e-10
1.24053e-10
1.24662e-10
1.19886e-10
1.17435e-10
1.21278e-10
3.41559e-10
3.28911e-10
3.34431e-10
3.34874e-10
3.43936e-10
3.43457e-10
3.45272e-10
3.66926e-10
3.68468e-10
3.54766e-10
3.48335e-10
3.60071e-10
8.1365e-10
7.84319e-10
7.9654e-10
7.97958e-10
8.2045e-10
8.2003e-10
8.23472e-10
8.72369e-10
8.75213e-10
8.44e-10
8.3101e-10
8.59602e-10
1.63411e-09
1.57794e-09
1.60075e-09
1.60447e-09
1.65088e-09
1.65152e-09
1.65662e-09
1.748e-09
1.7517e-09
1.69214e-09
1.67107e-09
1.72964e-09
2.8698e-09
2.7777e-09
2.81541e-09
2.82357e-09
2.90635e-09
2.90973e-09
2.91568e-09
3.06276e-09
3.06481e-09
2.96561e-09
2.93801e-09
3.0424e-09
4.53161e-09
4.39875e-09
4.45606e-09
4.47192e-09
4.60274e-09
4.6104e-09
4.61551e-09
4.82617e-09
4.82188e-09
4.67318e-09
4.64401e-09
4.81004e-09
6.57544e-09
6.40325e-09
6.48554e-09
6.51342e-09
6.70054e-09
6.71244e-09
6.7144e-09
6.98996e-09
6.97287e-09
6.76756e-09
6.74482e-09
6.98514e-09
8.8388e-09
8.67214e-09
8.81831e-09
8.87243e-09
9.10266e-09
9.1023e-09
9.09811e-09
9.3912e-09
9.35388e-09
9.10858e-09
9.08197e-09
9.35646e-09
1.09221e-08
1.07378e-08
1.09209e-08
1.10133e-08
1.1267e-08
1.12581e-08
1.12469e-08
1.15837e-08
1.15325e-08
1.12419e-08
1.12257e-08
1.15572e-08
1.31103e-08
1.29125e-08
1.31333e-08
1.32495e-08
1.35399e-08
1.35196e-08
1.34988e-08
1.3876e-08
1.38095e-08
1.34754e-08
1.34755e-08
1.38654e-08
1.53798e-08
1.51741e-08
1.54326e-08
1.55716e-08
1.58963e-08
1.58605e-08
1.58275e-08
1.62417e-08
1.61586e-08
1.57833e-08
1.58069e-08
1.62553e-08
1.77126e-08
1.75053e-08
1.78002e-08
1.79602e-08
1.83161e-08
1.82594e-08
1.82108e-08
1.86597e-08
1.85596e-08
1.8146e-08
1.82014e-08
1.87078e-08
2.00991e-08
1.98965e-08
2.02249e-08
2.0403e-08
2.07865e-08
2.07014e-08
2.06337e-08
2.11177e-08
2.10016e-08
2.05526e-08
2.06492e-08
2.12126e-08
2.25393e-08
2.23466e-08
2.27031e-08
2.28951e-08
2.33029e-08
2.31802e-08
2.30889e-08
2.3612e-08
2.34836e-08
2.30021e-08
2.31503e-08
2.37703e-08
2.50427e-08
2.48637e-08
2.52403e-08
2.54402e-08
2.58701e-08
2.5699e-08
2.55788e-08
2.61496e-08
2.60152e-08
2.55038e-08
2.57146e-08
2.63922e-08
2.7629e-08
2.74661e-08
2.78511e-08
2.8052e-08
2.85026e-08
2.82712e-08
2.81156e-08
2.87475e-08
2.86162e-08
2.80768e-08
2.83623e-08
2.91009e-08
3.0328e-08
3.01823e-08
3.05602e-08
3.07539e-08
3.12256e-08
3.09205e-08
3.07215e-08
3.14325e-08
3.13156e-08
3.07492e-08
3.11245e-08
3.19305e-08
3.31774e-08
3.30496e-08
3.3401e-08
3.35783e-08
3.40732e-08
3.36797e-08
3.34277e-08
3.42406e-08
3.41506e-08
3.35571e-08
3.40409e-08
3.49242e-08
3.62221e-08
3.6112e-08
3.64133e-08
3.65642e-08
3.70861e-08
3.65879e-08
3.62718e-08
3.72148e-08
3.71654e-08
3.65429e-08
3.7158e-08
3.8131e-08
3.95138e-08
3.94192e-08
3.96419e-08
3.97552e-08
4.031e-08
3.96891e-08
3.92966e-08
4.04058e-08
4.04121e-08
3.97546e-08
4.05273e-08
4.16054e-08
4.31152e-08
4.30298e-08
4.31386e-08
4.32008e-08
4.37972e-08
4.30342e-08
4.25518e-08
4.38752e-08
4.39542e-08
4.32487e-08
4.42095e-08
4.54137e-08
4.71078e-08
4.70189e-08
4.69679e-08
4.69619e-08
4.7614e-08
4.66879e-08
4.61009e-08
4.77038e-08
4.78749e-08
4.70969e-08
4.82829e-08
4.96442e-08
5.16039e-08
5.14899e-08
5.1217e-08
5.11208e-08
5.18512e-08
5.07395e-08
5.00309e-08
5.20033e-08
5.22883e-08
5.13964e-08
5.2856e-08
5.44217e-08
5.67593e-08
5.65879e-08
5.60076e-08
5.57939e-08
5.66369e-08
5.53153e-08
5.44646e-08
5.6928e-08
5.7353e-08
5.62831e-08
5.80818e-08
5.99219e-08
6.27857e-08
6.25123e-08
6.15079e-08
6.11443e-08
6.21477e-08
6.05894e-08
5.95718e-08
6.26874e-08
6.32852e-08
6.19444e-08
6.41695e-08
6.6382e-08
6.99626e-08
6.95283e-08
6.7944e-08
6.73933e-08
6.86193e-08
6.6795e-08
6.55808e-08
6.95571e-08
7.03717e-08
6.86311e-08
7.13951e-08
7.41071e-08
7.86464e-08
7.79748e-08
7.56089e-08
7.48304e-08
7.6348e-08
7.4224e-08
7.27801e-08
7.78848e-08
7.89797e-08
7.66679e-08
8.01026e-08
8.34655e-08
8.92904e-08
8.82735e-08
8.48645e-08
8.38091e-08
8.56874e-08
8.32276e-08
8.15233e-08
8.81228e-08
8.95821e-08
8.64601e-08
9.07113e-08
9.49169e-08
1.02576e-07
1.01039e-07
9.62112e-08
9.48054e-08
9.71404e-08
9.43065e-08
9.23157e-08
1.00965e-07
1.02895e-07
9.85822e-08
1.03841e-07
1.09177e-07
1.1959e-07
1.17264e-07
1.1046e-07
1.08583e-07
1.11498e-07
1.08247e-07
1.05957e-07
1.17507e-07
1.2005e-07
1.13949e-07
1.20471e-07
1.27368e-07
1.42034e-07
1.38511e-07
1.28883e-07
1.26323e-07
1.29967e-07
1.26245e-07
1.23679e-07
1.39458e-07
1.42805e-07
1.33976e-07
1.42105e-07
1.51233e-07
1.72653e-07
1.67322e-07
1.53527e-07
1.49889e-07
1.544e-07
1.50139e-07
1.47399e-07
1.69556e-07
1.73943e-07
1.60857e-07
1.71086e-07
1.83568e-07
2.15362e-07
2.075e-07
1.875e-07
1.82196e-07
1.87749e-07
1.82844e-07
1.80184e-07
2.11935e-07
2.17576e-07
1.97951e-07
2.11186e-07
2.28775e-07
2.56655e-07
2.46775e-07
2.23178e-07
2.22778e-07
2.34322e-07
2.28638e-07
2.25551e-07
2.57608e-07
2.65532e-07
2.46277e-07
2.67862e-07
2.79477e-07
3.11072e-07
2.98085e-07
2.66415e-07
2.66287e-07
2.83645e-07
2.78937e-07
2.7188e-07
3.14209e-07
3.2455e-07
2.9861e-07
3.26827e-07
3.3962e-07
3.79862e-07
3.63484e-07
3.23317e-07
3.24109e-07
3.45877e-07
3.40988e-07
3.33193e-07
3.86247e-07
3.99568e-07
3.66774e-07
4.00978e-07
4.15117e-07
4.6434e-07
4.43744e-07
3.94124e-07
3.9673e-07
4.23208e-07
4.18373e-07
4.10305e-07
4.75736e-07
4.92729e-07
4.517e-07
4.92199e-07
5.07367e-07
5.66662e-07
5.41024e-07
4.80847e-07
4.86186e-07
5.17746e-07
5.13139e-07
5.05596e-07
5.85297e-07
6.06702e-07
5.56039e-07
6.02717e-07
6.18284e-07
6.88285e-07
6.56863e-07
5.85609e-07
5.94892e-07
6.31567e-07
6.2736e-07
6.21577e-07
7.16711e-07
7.43242e-07
6.81935e-07
7.33825e-07
7.48456e-07
8.29608e-07
7.91803e-07
7.09741e-07
7.24493e-07
7.6583e-07
7.62201e-07
7.59848e-07
8.70346e-07
9.02573e-07
8.3031e-07
8.85391e-07
8.96716e-07
9.89817e-07
9.45248e-07
8.53343e-07
8.75435e-07
9.20364e-07
9.17519e-07
9.20552e-07
1.04469e-06
1.08289e-06
1.00034e-06
1.05555e-06
1.05991e-06
1.16709e-06
1.11548e-06
1.01496e-06
1.04683e-06
1.09343e-06
1.09162e-06
1.10192e-06
1.23615e-06
1.28021e-06
1.18916e-06
1.24051e-06
1.23303e-06
1.35936e-06
1.29919e-06
1.19153e-06
1.23702e-06