/*--------------------------------*- C++ -*----------------------------------*\
| =========                 |                                                 |
| \\      /  F ield         | OpenFOAM: The Open Source CFD Toolbox           |
|  \\    /   O peration     | Version:  v1912                                 |
|   \\  /    A nd           | Website:  www.openfoam.com                      |
|    \\/     M anipulation  |                                                 |
\*---------------------------------------------------------------------------*/
FoamFile
{
    version     2.0;
    format      ascii;
    class       surfaceScalarField;
    location    "8.4";
    object      phi;
}
// * * * * * * * * * * * * * * * * * * * * * * * * * * * * * * * * * * * * * //

dimensions      [1 0 -1 0 0 0 0];
oriented        oriented;


internalField   nonuniform List<scalar> 
97428
(
1.74412e-09
7.78889e-09
-2.51614e-07
1.61811e-09
8.07138e-09
-2.52261e-07
8.31317e-10
8.69047e-09
-2.54484e-07
-4.30102e-10
8.89914e-09
-2.54527e-07
-1.31616e-09
8.58181e-09
-2.52048e-07
-2.34197e-09
8.59869e-09
-2.49115e-07
-3.37076e-09
8.63707e-09
-2.50449e-07
-2.51053e-09
7.88066e-09
-2.54759e-07
-5.79043e-10
7.71865e-09
-2.54856e-07
6.75063e-10
8.50991e-09
-2.51195e-07
1.44154e-09
8.30473e-09
-2.4921e-07
7.61444e-09
-2.49879e-07
5.11879e-09
3.09348e-08
-7.79258e-07
4.65005e-09
3.2024e-08
-7.81106e-07
2.45564e-09
3.41922e-08
-7.87787e-07
-1.21908e-09
3.50808e-08
-7.87877e-07
-3.86618e-09
3.39476e-08
-7.80426e-07
-6.99871e-09
3.41073e-08
-7.71472e-07
-1.00893e-08
3.42031e-08
-7.75484e-07
-7.53232e-09
3.1175e-08
-7.88754e-07
-1.75459e-09
3.05158e-08
-7.89148e-07
2.16436e-09
3.35527e-08
-7.78247e-07
4.14045e-09
3.32572e-08
-7.72233e-07
3.05964e-08
-7.73924e-07
8.50819e-09
6.93614e-08
-1.33916e-06
7.64079e-09
7.17297e-08
-1.34194e-06
4.0834e-09
7.61874e-08
-1.35311e-06
-2.0323e-09
7.82499e-08
-1.35315e-06
-6.48426e-09
7.5918e-08
-1.3407e-06
-1.17309e-08
7.64206e-08
-1.32549e-06
-1.68376e-08
7.65344e-08
-1.33223e-06
-1.25236e-08
6.96514e-08
-1.35514e-06
-2.86282e-09
6.81474e-08
-1.35609e-06
3.76586e-09
7.49196e-08
-1.33793e-06
6.72143e-09
7.49839e-08
-1.32766e-06
6.91496e-08
-1.33003e-06
1.19222e-08
1.22817e-07
-1.9294e-06
1.06379e-08
1.26862e-07
-1.93267e-06
5.71035e-09
1.3421e-07
-1.94826e-06
-2.95051e-09
1.37954e-07
-1.94812e-06
-9.26068e-09
1.34148e-07
-1.93074e-06
-1.65431e-08
1.35261e-07
-1.90906e-06
-2.35198e-08
1.35277e-07
-1.91855e-06
-1.73401e-08
1.22855e-07
-1.95192e-06
-3.79937e-09
1.2017e-07
-1.95381e-06
5.46819e-09
1.32273e-07
-1.92848e-06
9.22131e-09
1.33366e-07
-1.91365e-06
1.23251e-07
-1.91631e-06
1.53596e-08
1.90873e-07
-2.54772e-06
1.36675e-08
1.96908e-07
-2.55082e-06
7.34028e-09
2.07624e-07
-2.57068e-06
-4.02848e-09
2.13574e-07
-2.5702e-06
-1.22513e-08
2.0812e-07
-2.54809e-06
-2.14189e-08
2.10192e-07
-2.51981e-06
-3.00285e-08
2.09894e-07
-2.53202e-06
-2.1843e-08
1.90117e-07
-2.5767e-06
-4.49348e-09
1.85959e-07
-2.58003e-06
7.26365e-09
2.05095e-07
-2.5477e-06
1.16552e-08
2.08053e-07
-2.52798e-06
1.92668e-07
-2.53057e-06
1.88123e-08
2.72936e-07
-3.19158e-06
1.67532e-08
2.8119e-07
-3.19368e-06
8.98217e-09
2.95636e-07
-3.21752e-06
-5.29967e-09
3.0433e-07
-3.21653e-06
-1.54787e-08
2.9715e-07
-3.19002e-06
-2.63157e-08
3.00636e-07
-3.15513e-06
-3.62499e-08
2.997e-07
-3.16995e-06
-2.5905e-08
2.70582e-07
-3.22675e-06
-4.89671e-09
2.64722e-07
-3.23214e-06
9.1165e-09
2.92684e-07
-3.19309e-06
1.40103e-08
2.98466e-07
-3.16815e-06
2.76956e-07
-3.1704e-06
2.22611e-08
3.68268e-07
-3.85829e-06
1.99123e-08
3.78891e-07
-3.85841e-06
1.06472e-08
3.97341e-07
-3.8858e-06
-6.7771e-09
4.09316e-07
-3.88409e-06
-1.89334e-08
4.00412e-07
-3.85368e-06
-3.11682e-08
4.05905e-07
-3.81232e-06
-4.20673e-08
4.03902e-07
-3.82959e-06
-2.94114e-08
3.63252e-07
-3.89917e-06
-4.97947e-09
3.55529e-07
-3.90727e-06
1.09697e-08
3.94182e-07
-3.86189e-06
1.62554e-08
4.03819e-07
-3.83144e-06
3.75477e-07
-3.83323e-06
2.56786e-08
4.76017e-07
-4.54516e-06
2.31576e-08
4.89108e-07
-4.5422e-06
1.23493e-08
5.11774e-07
-4.57254e-06
-8.45245e-09
5.27554e-07
-4.56989e-06
-2.25737e-08
5.16981e-07
-4.53621e-06
-3.58905e-08
5.25239e-07
-4.48877e-06
-4.73663e-08
5.21655e-07
-4.50826e-06
-3.22646e-08
4.67053e-07
-4.59104e-06
-4.73201e-09
4.57355e-07
-4.60252e-06
1.27481e-08
5.08598e-07
-4.55125e-06
1.83459e-08
5.23154e-07
-4.51507e-06
4.87418e-07
-4.51648e-06
2.90322e-08
5.95248e-07
-5.24963e-06
2.65002e-08
6.10905e-07
-5.24245e-06
1.41062e-08
6.37988e-07
-5.27506e-06
-1.02963e-08
6.58065e-07
-5.27111e-06
-2.6328e-08
6.45893e-07
-5.23497e-06
-4.03813e-08
6.57844e-07
-5.18207e-06
-5.2041e-08
6.52112e-07
-5.20352e-06
-3.43896e-08
5.80899e-07
-5.29968e-06
-4.16424e-09
5.69127e-07
-5.31512e-06
1.43631e-08
6.34862e-07
-5.25841e-06
2.02304e-08
6.55398e-07
-5.21637e-06
6.11827e-07
-5.21773e-06
3.22878e-08
7.24983e-07
-5.96949e-06
2.99519e-08
7.43367e-07
-5.95697e-06
1.59408e-08
7.75113e-07
-5.99106e-06
-1.22591e-08
7.99945e-07
-5.98538e-06
-3.00987e-08
7.86211e-07
-5.94767e-06
-4.45288e-08
8.0294e-07
-5.89018e-06
-5.59991e-08
7.94466e-07
-5.91334e-06
-3.57368e-08
7.03753e-07
-6.02279e-06
-3.30456e-09
6.89776e-07
-6.0426e-06
1.57189e-08
7.71873e-07
-5.98088e-06
2.18579e-08
7.99425e-07
-5.93296e-06
7.47665e-07
-5.93482e-06
3.54127e-08
8.64228e-07
-6.70289e-06
3.35283e-08
8.85639e-07
-6.6841e-06
1.78817e-08
9.22409e-07
-6.71884e-06
-1.42736e-08
9.52438e-07
-6.71086e-06
-3.37664e-08
9.37091e-07
-6.67255e-06
-4.82156e-08
9.59788e-07
-6.61152e-06
-5.91662e-08
9.47981e-07
-6.63617e-06
-3.62842e-08
8.34675e-07
-6.75857e-06
-2.19766e-09
8.18283e-07
-6.78295e-06
1.67184e-08
9.18554e-07
-6.71655e-06
2.31843e-08
9.54126e-07
-6.6629e-06
8.93856e-07
-6.66601e-06
3.83782e-08
1.01201e-06
-7.44846e-06
3.725e-08
1.03695e-06
-7.42268e-06
1.99637e-08
1.07928e-06
-7.45726e-06
-1.62562e-08
1.11496e-06
-7.44632e-06
-3.71945e-08
1.09782e-06
-7.40839e-06
-5.13235e-08
1.12771e-06
-7.345e-06
-6.14883e-08
1.112e-06
-7.37094e-06
-3.60376e-08
9.72843e-07
-7.50579e-06
-9.02068e-10
9.53723e-07
-7.53464e-06
1.72694e-08
1.0739e-06
-7.46379e-06
2.41783e-08
1.11846e-06
-7.40476e-06
1.04935e-06
-7.41e-06
4.11619e-08
1.16739e-06
-8.20531e-06
4.11445e-08
1.19658e-06
-8.17214e-06
2.22281e-08
1.24525e-06
-8.20579e-06
-1.81102e-08
1.28712e-06
-8.19118e-06
-4.0235e-08
1.2678e-06
-8.15459e-06
-5.37385e-08
1.3061e-06
-8.08998e-06
-6.29349e-08
1.28595e-06
-8.11707e-06
-3.50309e-08
1.11755e-06
-8.26373e-06
5.08726e-10
1.09529e-06
-8.29668e-06
1.72904e-08
1.237e-06
-8.22153e-06
2.4827e-08
1.29149e-06
-8.15767e-06
1.21314e-06
-8.16605e-06
4.37487e-08
1.32948e-06
-8.97284e-06
4.52451e-08
1.36388e-06
-8.9322e-06
2.47216e-08
1.41992e-06
-8.9642e-06
-1.97266e-08
1.46864e-06
-8.94522e-06
-4.27313e-08
1.44657e-06
-8.91089e-06
-5.53548e-08
1.49438e-06
-8.84616e-06
-6.35e-08
1.4693e-06
-8.87421e-06
-3.33255e-08
1.26819e-06
-9.03196e-06
1.98042e-09
1.24228e-06
-9.0684e-06
1.67166e-08
1.40711e-06
-8.98899e-06
2.51403e-08
1.47239e-06
-8.92113e-06
1.38431e-06
-8.9337e-06
4.61317e-08
1.49746e-06
-9.75051e-06
4.95892e-08
1.5382e-06
-9.70266e-06
2.7494e-08
1.60296e-06
-9.73235e-06
-2.09871e-08
1.65934e-06
-9.70838e-06
-4.45242e-08
1.63369e-06
-9.67717e-06
-5.60801e-08
1.69202e-06
-9.61324e-06
-6.32055e-08
1.66156e-06
-9.64206e-06
-3.10112e-08
1.42423e-06
-9.8101e-06
3.41272e-09
1.39416e-06
-9.84923e-06
1.55058e-08
1.58357e-06
-9.76557e-06
2.51549e-08
1.66043e-06
-9.69482e-06
1.56202e-06
-9.71265e-06
4.83137e-08
1.67058e-06
-1.05379e-05
5.42171e-08
1.71888e-06
-1.04833e-05
3.05967e-08
1.79399e-06
-1.05101e-05
-2.17681e-08
1.85902e-06
-1.04806e-05
-4.54593e-08
1.82876e-06
-1.04533e-05
-5.5843e-08
1.89845e-06
-1.0391e-05
-6.21044e-08
1.86227e-06
-1.04203e-05
-2.82048e-08
1.58523e-06
-1.05978e-05
4.73405e-09
1.55051e-06
-1.06387e-05
1.36463e-08
1.76589e-06
-1.05508e-05
2.49389e-08
1.85496e-06
-1.04785e-05
1.74548e-06
-1.05027e-05
5.03085e-08
1.84809e-06
-1.13345e-05
5.91688e-08
1.90516e-06
-1.12739e-05
3.40784e-08
1.99256e-06
-1.1297e-05
-2.19461e-08
2.06742e-06
-1.12618e-05
-4.53958e-08
2.03126e-06
-1.12392e-05
-5.46007e-08
2.1131e-06
-1.11789e-05
-6.02835e-08
2.07094e-06
-1.12085e-05
-2.50491e-08
1.7507e-06
-1.13945e-05
5.87239e-09
1.71094e-06
-1.14363e-05
1.11634e-08
1.95362e-06
-1.13442e-05
2.45933e-08
2.05528e-06
-1.1272e-05
1.93388e-06
-1.13034e-05
5.21409e-08
2.02918e-06
-1.21395e-05
6.44804e-08
2.09618e-06
-1.20739e-05
3.79817e-08
2.1981e-06
-1.20927e-05
-2.14047e-08
2.28412e-06
-1.20515e-05
-4.42176e-08
2.24054e-06
-1.20344e-05
-5.23467e-08
2.33526e-06
-1.19765e-05
-5.78639e-08
2.28703e-06
-1.20059e-05
-2.17083e-08
1.92014e-06
-1.21994e-05
6.76697e-09
1.87505e-06
-1.22413e-05
8.12675e-09
2.1463e-06
-1.21452e-05
2.42534e-08
2.26061e-06
-1.20747e-05
2.12632e-06
-1.21144e-05
5.38467e-08
2.21296e-06
-1.29522e-05
7.0179e-08
2.29088e-06
-1.28824e-05
4.23367e-08
2.40986e-06
-1.28962e-05
-2.0044e-08
2.50848e-06
-1.28491e-05
-4.18445e-08
2.45576e-06
-1.2838e-05
-4.91175e-08
2.56411e-06
-1.27829e-05
-5.49997e-08
2.50991e-06
-1.28115e-05
-1.83619e-08
2.09292e-06
-1.30115e-05
7.37504e-09
2.04231e-06
-1.30528e-05
4.6554e-09
2.34337e-06
-1.2953e-05
2.40862e-08
2.46996e-06
-1.2886e-05
2.32173e-06
-1.29347e-05
5.5471e-08
2.39832e-06
-1.37709e-05
7.62776e-08
2.48797e-06
-1.36981e-05
4.71564e-08
2.6269e-06
-1.37063e-05
-1.77897e-08
2.73967e-06
-1.36534e-05
-3.82443e-08
2.67584e-06
-1.36489e-05
-4.49981e-08
2.79865e-06
-1.35967e-05
-5.18731e-08
2.73879e-06
-1.36241e-05
-1.51954e-08
2.26828e-06
-1.38293e-05
7.67853e-09
2.21203e-06
-1.38693e-05
9.22747e-10
2.54405e-06
-1.37664e-05
2.4285e-08
2.68212e-06
-1.37046e-05
2.51882e-06
-1.37631e-05
5.70649e-08
2.58395e-06
-1.45942e-05
8.27684e-08
2.68594e-06
-1.45195e-05
5.24303e-08
2.84806e-06
-1.45213e-05
-1.46029e-08
2.97656e-06
-1.4463e-05
-3.3442e-08
2.89948e-06
-1.44655e-05
-4.01236e-08
3.03768e-06
-1.44163e-05
-4.86859e-08
2.97272e-06
-1.44419e-05
-1.2388e-08
2.44529e-06
-1.46509e-05
7.68974e-09
2.38326e-06
-1.46893e-05
-2.82097e-09
2.7473e-06
-1.45838e-05
2.50591e-08
2.89561e-06
-1.4529e-05
2.71608e-06
-1.45976e-05
5.86815e-08
2.76832e-06
-1.54197e-05
8.96179e-08
2.88304e-06
-1.53444e-05
5.81198e-08
3.07199e-06
-1.53394e-05
-1.04878e-08
3.2178e-06
-1.52762e-05
-2.75265e-08
3.12515e-06
-1.5286e-05
-3.46769e-08
3.27978e-06
-1.52397e-05
-4.56484e-08
3.21057e-06
-1.52631e-05
-1.00993e-08
2.6228e-06
-1.54743e-05
7.45498e-09
2.55479e-06
-1.55107e-05
-6.43305e-09
2.95189e-06
-1.54035e-05
2.66206e-08
3.10859e-06
-1.53572e-05
2.91174e-06
-1.54362e-05
6.03692e-08
2.94967e-06
-1.62452e-05
9.67611e-08
3.07731e-06
-1.61706e-05
6.41546e-08
3.2971e-06
-1.61583e-05
-5.49777e-09
3.46179e-06
-1.6091e-05
-2.06519e-08
3.35109e-06
-1.61082e-05
-2.8882e-08
3.52331e-06
-1.60648e-05
-4.29646e-08
3.45095e-06
-1.60853e-05
-8.45665e-09
2.79946e-06
-1.6297e-05
7.05521e-09
2.72514e-06
-1.63313e-05
-9.50696e-09
3.15618e-06
-1.62234e-05
2.91677e-08
3.31906e-06
-1.61868e-05
3.10389e-06
-1.62762e-05
6.21654e-08
3.12608e-06
-1.7068e-05
1.04098e-07
3.26661e-06
-1.69955e-05
7.04317e-08
3.52164e-06
-1.69757e-05
2.64024e-10
3.7067e-06
-1.69051e-05
-1.30336e-08
3.57538e-06
-1.69296e-05
-2.2992e-08
3.76644e-06
-1.68889e-05
-4.08178e-08
3.69228e-06
-1.6906e-05
-7.54314e-09
2.97374e-06
-1.71164e-05
6.60239e-09
2.89259e-06
-1.71487e-05
-1.1774e-08
3.35831e-06
-1.70411e-05
3.28667e-08
3.52481e-06
-1.70154e-05
3.29045e-06
-1.71146e-05
6.40894e-08
3.2955e-06
-1.78853e-05
1.11494e-07
3.44868e-06
-1.78162e-05
7.68162e-08
3.74369e-06
-1.7789e-05
6.64407e-09
3.9505e-06
-1.77163e-05
-4.93756e-09
3.79594e-06
-1.77476e-05
-1.72737e-08
4.00713e-06
-1.77093e-05
-3.93555e-08
3.93274e-06
-1.77227e-05
-7.39037e-09
3.14391e-06
-1.793e-05
6.23191e-09
3.05521e-06
-1.79602e-05
-1.29454e-08
3.55614e-06
-1.78543e-05
3.7834e-08
3.72347e-06
-1.78401e-05
3.46933e-06
-1.79483e-05
6.61359e-08
3.45584e-06
-1.86944e-05
1.18778e-07
3.62123e-06
-1.86299e-05
8.31448e-08
3.96121e-06
-1.85956e-05
1.34492e-08
4.19096e-06
-1.8522e-05
3.33516e-09
4.01059e-06
-1.85595e-05
-1.19894e-08
4.24324e-06
-1.85235e-05
-3.8677e-08
4.17031e-06
-1.85329e-05
-7.97519e-09
3.3081e-06
-1.8735e-05
6.09155e-09
3.21086e-06
-1.87635e-05
-1.27633e-08
3.74739e-06
-1.86604e-05
4.41207e-08
3.9126e-06
-1.8658e-05
3.63845e-06
-1.87743e-05
6.82703e-08
3.60503e-06
-1.94926e-05
1.25749e-07
3.78195e-06
-1.94339e-05
8.92324e-08
4.1721e-06
-1.93931e-05
2.04568e-08
4.42577e-06
-1.93197e-05
1.14648e-08
4.21711e-06
-1.93627e-05
-7.37717e-09
4.47248e-06
-1.93286e-05
-3.88245e-08
4.40282e-06
-1.93339e-05
-9.22166e-09
3.46433e-06
-1.9529e-05
6.32772e-09
3.35731e-06
-1.95562e-05
-1.10238e-08
3.9296e-06
-1.94572e-05
5.17011e-08
4.0898e-06
-1.94663e-05
3.7959e-06
-1.95892e-05
7.04259e-08
3.74107e-06
-2.02774e-05
1.32178e-07
3.92865e-06
-2.02253e-05
9.488e-08
4.37421e-06
-2.01789e-05
2.74262e-08
4.6525e-06
-2.01071e-05
1.91447e-08
4.41332e-06
-2.01546e-05
-3.63287e-09
4.69256e-06
-2.01222e-05
-3.9778e-08
4.62792e-06
-2.01233e-05
-1.1008e-08
3.61057e-06
-2.03095e-05
7.07043e-09
3.49224e-06
-2.03359e-05
-7.59739e-09
4.10027e-06
-2.02423e-05
6.04661e-08
4.25272e-06
-2.02623e-05
3.93996e-06
-2.03902e-05
7.25034e-08
3.86214e-06
-2.10465e-05
1.37824e-07
4.05934e-06
-2.10019e-05
9.98844e-08
4.56543e-06
-2.0951e-05
3.41162e-08
4.86872e-06
-2.0882e-05
2.6093e-08
4.59711e-06
-2.09327e-05
-8.94603e-10
4.90121e-06
-2.09018e-05
-4.14557e-08
4.84323e-06
-2.08989e-05
-1.31772e-08
3.74475e-06
-2.10745e-05
8.41871e-09
3.61333e-06
-2.11006e-05
-2.43971e-09
4.25686e-06
-2.10135e-05
7.02222e-08
4.39926e-06
-2.10435e-05
4.06925e-06
-2.11746e-05
7.43737e-08
3.96662e-06
-2.1798e-05
1.42436e-07
4.17225e-06
-2.17612e-05
1.04048e-07
4.74373e-06
-2.17073e-05
4.03001e-08
5.07206e-06
-2.16422e-05
3.20774e-08
4.76653e-06
-2.1695e-05
7.6859e-10
5.0962e-06
-2.16655e-05
-4.37183e-08
5.0463e-06
-2.16589e-05
-1.55511e-08
3.86489e-06
-2.18221e-05
1.04279e-08
3.71837e-06
-2.18484e-05
4.41149e-09
4.3969e-06
-2.17691e-05
8.06973e-08
4.52759e-06
-2.18076e-05
4.18279e-06
-2.19402e-05
7.58832e-08
4.05325e-06
-2.25303e-05
1.45768e-07
4.26598e-06
-2.25017e-05
1.07187e-07
4.90719e-06
-2.24463e-05
4.57803e-08
5.26022e-06
-2.23862e-05
3.69301e-08
4.91983e-06
-2.24398e-05
1.36245e-09
5.27549e-06
-2.24116e-05
-4.63778e-08
5.23475e-06
-2.24016e-05
-1.79444e-08
3.96914e-06
-2.25511e-05
1.31001e-08
3.80532e-06
-2.25781e-05
1.26766e-08
4.51821e-06
-2.25074e-05
9.15504e-08
4.63615e-06
-2.25527e-05
4.28003e-06
-2.2685e-05
7.68614e-08
4.12109e-06
-2.32424e-05
1.4759e-07
4.33951e-06
-2.32219e-05
1.09143e-07
5.05409e-06
-2.31666e-05
5.03989e-08
5.4311e-06
-2.31123e-05
4.05578e-08
5.05553e-06
-2.31658e-05
9.67263e-10
5.4372e-06
-2.31389e-05
-4.92104e-08
5.4063e-06
-2.3126e-05
-2.01802e-08
4.05585e-06
-2.32605e-05
1.63799e-08
3.87242e-06
-2.32884e-05
2.22173e-08
4.61878e-06
-2.32272e-05
1.02389e-07
4.72394e-06
-2.32776e-05
4.36092e-06
-2.3408e-05
7.71312e-08
4.16966e-06
-2.39336e-05
1.47698e-07
4.39228e-06
-2.3921e-05
1.09788e-07
5.18291e-06
-2.38676e-05
5.4046e-08
5.58281e-06
-2.38198e-05
4.29452e-08
5.17248e-06
-2.3872e-05
-2.6844e-10
5.57973e-06
-2.38465e-05
-5.19706e-08
5.55889e-06
-2.38312e-05
-2.21014e-08
4.12368e-06
-2.39497e-05
2.01539e-08
3.91831e-06
-2.39787e-05
3.265e-08
4.69697e-06
-2.39277e-05
1.12787e-07
4.79044e-06
-2.39813e-05
4.4259e-06
-2.41084e-05
7.65195e-08
4.19891e-06
-2.4604e-05
1.45925e-07
4.4242e-06
-2.45989e-05
1.09026e-07
5.29241e-06
-2.45489e-05
5.66621e-08
5.71375e-06
-2.45081e-05
4.41506e-08
5.26985e-06
-2.45582e-05
-2.1397e-09
5.70179e-06
-2.45343e-05
-5.4407e-08
5.6907e-06
-2.4517e-05
-2.35823e-08
4.17163e-06
-2.46187e-05
2.42556e-08
3.94208e-06
-2.4649e-05
4.35518e-08
4.75163e-06
-2.46084e-05
1.22306e-07
4.83563e-06
-2.46636e-05
4.47586e-06
-2.47865e-05
7.4869e-08
4.20925e-06
-2.5254e-05
1.42147e-07
4.43566e-06
-2.52558e-05
1.06802e-07
5.38162e-06
-2.52107e-05
5.82368e-08
5.82264e-06
-2.51771e-05
4.42969e-08
5.34719e-06
-2.52247e-05
-4.40104e-09
5.80239e-06
-2.52024e-05
-5.62784e-08
5.80023e-06
-2.51836e-05
-2.45338e-08
4.19911e-06
-2.52682e-05
2.84745e-08
3.94335e-06
-2.52995e-05
5.44526e-08
4.78212e-06
-2.52695e-05
1.30521e-07
4.86002e-06
-2.53249e-05
4.5121e-06
-2.54428e-05
7.20501e-08
4.20153e-06
-2.58845e-05
1.36298e-07
4.42746e-06
-2.58926e-05
1.03101e-07
5.44987e-06
-2.58536e-05
5.88043e-08
5.90855e-06
-2.58273e-05
4.35563e-08
5.40438e-06
-2.5872e-05
-6.78461e-09
5.88093e-06
-2.58515e-05
-5.73679e-08
5.88636e-06
-2.58316e-05
-2.49074e-08
4.20599e-06
-2.58989e-05
3.25681e-08
3.92234e-06
-2.59311e-05
6.48566e-08
4.78842e-06
-2.59115e-05
1.37036e-07
4.86459e-06
-2.59659e-05
4.5362e-06
-2.60786e-05
6.79725e-08
4.17705e-06
-2.64972e-05
1.28369e-07
4.40088e-06
-2.65107e-05
9.79485e-08
5.49684e-06
-2.64786e-05
5.84349e-08
5.97094e-06
-2.64596e-05
4.21328e-08
5.44167e-06
-2.65013e-05
-9.02138e-09
5.93714e-06
-2.64828e-05
-5.74958e-08
5.94839e-06
-2.64622e-05
-2.46948e-08
4.19258e-06
-2.65123e-05
3.62766e-08
3.87985e-06
-2.65451e-05
7.42673e-08
4.77107e-06
-2.65356e-05
1.4151e-07
4.85076e-06
-2.65881e-05
4.54993e-06
-2.66955e-05
6.25972e-08
4.13763e-06
-2.7094e-05
1.1843e-07
4.3577e-06
-2.7112e-05
9.14143e-08
5.5227e-06
-2.70874e-05
5.72274e-08
6.00977e-06
-2.70753e-05
4.02438e-08
5.45972e-06
-2.71143e-05
-1.08686e-08
5.97126e-06
-2.7098e-05
-5.65326e-08
5.98619e-06
-2.70768e-05
-2.39255e-08
4.15988e-06
-2.71103e-05
3.93389e-08
3.81749e-06
-2.71433e-05
8.22126e-08
4.7314e-06
-2.71432e-05
1.43677e-07
4.82047e-06
-2.71934e-05
4.55529e-06
-2.72959e-05
5.59447e-08
4.08552e-06
-2.76772e-05
1.06621e-07
4.30014e-06
-2.76988e-05
8.36071e-08
5.52799e-06
-2.76818e-05
5.52995e-08
6.02551e-06
-2.76763e-05
3.81028e-08
5.45965e-06
-2.77131e-05
-1.2104e-08
5.98406e-06
-2.7699e-05
-5.44066e-08
6.0003e-06
-2.76775e-05
-2.26603e-08
4.10948e-06
-2.76953e-05
4.1513e-08
3.73745e-06
-2.77279e-05
8.8274e-08
4.67138e-06
-2.77365e-05
1.43369e-07
4.77606e-06
-2.7784e-05
4.55446e-06
-2.78823e-05
4.80739e-08
4.02297e-06
-2.82496e-05
9.31214e-08
4.23041e-06
-2.82739e-05
7.46529e-08
5.51341e-06
-2.82643e-05
5.27713e-08
6.01881e-06
-2.82649e-05
3.58987e-08
5.44273e-06
-2.83001e-05
-1.25731e-08
5.97658e-06
-2.82882e-05
-5.11054e-08
5.99163e-06
-2.82665e-05
-2.09932e-08
4.04324e-06
-2.82697e-05
4.25966e-08
3.64224e-06
-2.83016e-05
9.2131e-08
4.59326e-06
-2.83179e-05
1.40523e-07
4.71987e-06
-2.83628e-05
4.54937e-06
-2.84576e-05
3.90956e-08
3.95218e-06
-2.88138e-05
7.81685e-08
4.15067e-06
-2.884e-05
6.47125e-08
5.47984e-06
-2.88372e-05
4.97606e-08
5.99061e-06
-2.88434e-05
3.37816e-08
5.41025e-06
-2.88778e-05
-1.21818e-08
5.94996e-06
-2.8868e-05
-4.66793e-08
5.96135e-06
-2.88462e-05
-1.90189e-08
3.96311e-06
-2.88362e-05
4.24263e-08
3.53458e-06
-2.88669e-05
9.35484e-08
4.49965e-06
-2.88898e-05
1.35154e-07
4.65415e-06
-2.89326e-05
4.54163e-06
-2.90248e-05
2.91851e-08
3.87536e-06
-2.93726e-05
6.20746e-08
4.0631e-06
-2.93998e-05
5.39895e-08
5.42843e-06
-2.94029e-05
4.63867e-08
5.94217e-06
-2.94143e-05
3.18648e-08
5.36367e-06
-2.94488e-05
-1.08947e-08
5.90554e-06
-2.9441e-05
-4.12272e-08
5.91091e-06
-2.9419e-05
-1.68602e-08
3.87129e-06
-2.93973e-05
4.08875e-08
3.41748e-06
-2.94265e-05
9.23878e-08
4.3934e-06
-2.94548e-05
1.27379e-07
4.58113e-06
-2.9496e-05
4.53252e-06
-2.95867e-05
1.85454e-08
3.79459e-06
-2.99286e-05
4.51717e-08
3.96973e-06
-2.99561e-05
4.26957e-08
5.36051e-06
-2.9964e-05
4.27564e-08
5.87498e-06
-2.99801e-05
3.02181e-08
5.30448e-06
-3.00156e-05
-8.65444e-09
5.84475e-06
-3.00097e-05
-3.48955e-08
5.8421e-06
-2.99874e-05
-1.46206e-08
3.77004e-06
-2.99556e-05
3.7926e-08
3.29395e-06
-2.9983e-05
8.86225e-08
4.27749e-06
-3.00157e-05
1.17399e-07
4.50285e-06
-3.00559e-05
4.52303e-06
-3.01459e-05
7.39484e-09
3.71175e-06
-3.04843e-05
2.77932e-08
3.87242e-06
-3.05115e-05
3.1041e-08
5.27751e-06
-3.05231e-05
3.89585e-08
5.79069e-06
-3.05434e-05
2.88671e-08
5.23421e-06
-3.05809e-05
-5.80479e-09
5.76935e-06
-3.05767e-05
-2.78334e-08
5.7566e-06
-3.05539e-05
-1.24073e-08
3.66161e-06
-3.05136e-05
3.3544e-08
3.16696e-06
-3.05389e-05
8.23256e-08
4.15482e-06
-3.05749e-05
1.05469e-07
4.42107e-06
-3.06148e-05
4.51373e-06
-3.0705e-05
-4.05171e-09
3.6284e-06
-3.1042e-05
1.02514e-08
3.77274e-06
-3.10683e-05
1.92218e-08
5.18088e-06
-3.10824e-05
3.50629e-08
5.691e-06
-3.11067e-05
2.78017e-08
5.15426e-06
-3.1147e-05
-2.20183e-09
5.68079e-06
-3.11441e-05
-2.02409e-08
5.6564e-06
-3.11208e-05
-1.0311e-08
3.54809e-06
-3.10734e-05
2.77916e-08
3.03923e-06
-3.10965e-05
7.365e-08
4.02812e-06
-3.11348e-05
9.18722e-08
4.33722e-06
-3.11749e-05
4.50488e-06
-3.1266e-05
-1.55945e-08
3.54584e-06
-3.16036e-05
-7.18409e-09
3.67197e-06
-3.16286e-05
7.40637e-09
5.07203e-06
-3.1644e-05
3.11184e-08
5.57759e-06
-3.16719e-05
2.69839e-08
5.06594e-06
-3.17158e-05
1.93302e-09
5.58053e-06
-3.17141e-05
-1.23134e-08
5.54335e-06
-3.16902e-05
-8.40685e-09
3.43134e-06
-3.16369e-05
2.07522e-08
2.91319e-06
-3.16577e-05
6.27998e-08
3.89981e-06
-3.16976e-05
7.68852e-08
4.25239e-06
-3.17384e-05
4.49641e-06
-3.18308e-05
-2.70659e-08
3.46498e-06
-3.21707e-05
-2.42988e-08
3.57108e-06
-3.2194e-05
-4.21666e-09
4.95223e-06
-3.22099e-05
2.71512e-08
5.45206e-06
-3.22412e-05
2.6357e-08
4.97037e-06
-3.22891e-05
6.45561e-09
5.46989e-06
-3.22885e-05
-4.1974e-09
5.41914e-06
-3.22638e-05
-6.77365e-09
3.31297e-06
-3.22058e-05
1.25255e-08
2.79086e-06
-3.22243e-05
4.99971e-08
3.772e-06
-3.2265e-05
6.0751e-08
4.16733e-06
-3.23069e-05
4.48799e-06
-3.24009e-05
-3.83327e-08
3.38647e-06
-3.27446e-05
-4.09422e-08
3.47073e-06
-3.27659e-05
-1.5743e-08
4.82276e-06
-3.27814e-05
2.31639e-08
5.31571e-06
-3.2816e-05
2.58542e-08
4.8685e-06
-3.28685e-05
1.12318e-08
5.34996e-06
-3.28686e-05
4.07303e-09
5.28515e-06
-3.28432e-05
-5.4328e-09
3.1944e-06
-3.27813e-05
3.20997e-09
2.67394e-06
-3.27974e-05
3.54513e-08
3.64644e-06
-3.28385e-05
4.36631e-08
4.0825e-06
-3.28816e-05
4.47907e-06
-3.29776e-05
-4.92966e-08
3.31067e-06
-3.33264e-05
-5.70207e-08
3.37133e-06
-3.33453e-05
-2.69524e-08
4.68461e-06
-3.33598e-05
1.91383e-08
5.16981e-06
-3.33975e-05
2.54043e-08
4.76107e-06
-3.34551e-05
1.61429e-08
5.22168e-06
-3.34559e-05
1.22279e-08
5.14267e-06
-3.34296e-05
-4.44255e-09
3.0766e-06
-3.33644e-05
-7.11034e-09
2.56378e-06
-3.33783e-05
1.93361e-08
3.52451e-06
-3.34192e-05
2.57612e-08
3.99805e-06
-3.34636e-05
4.4689e-06
-3.35616e-05
-5.9883e-08
3.23772e-06
-3.39167e-05
-7.24764e-08
3.27311e-06
-3.3933e-05
-3.78865e-08
4.53869e-06
-3.39459e-05
1.50389e-08
5.01539e-06
-3.39868e-05
2.49356e-08
4.64864e-06
-3.40497e-05
2.10881e-08
5.08574e-06
-3.4051e-05
2.02365e-08
4.99272e-06
-3.40239e-05
-3.81314e-09
2.96035e-06
-3.39559e-05
-1.83771e-08
2.46147e-06
-3.39675e-05
1.77588e-09
3.40732e-06
-3.40079e-05
7.12831e-09
3.91394e-06
-3.40536e-05
4.45661e-06
-3.41538e-05
-7.0025e-08
3.16759e-06
-3.45163e-05
-8.72562e-08
3.1761e-06
-3.45296e-05
-4.85387e-08
4.38553e-06
-3.45404e-05
1.08224e-08
4.85331e-06
-3.45847e-05
2.43788e-08
4.53161e-06
-3.4653e-05
2.59818e-08
4.94268e-06
-3.46549e-05
2.80296e-08
4.8361e-06
-3.4627e-05
-3.5488e-09
2.8462e-06
-3.45564e-05
-3.05541e-08
2.36793e-06
-3.45659e-05
-1.71582e-08
3.2957e-06
-3.46053e-05
-1.22103e-08
3.82971e-06
-3.4652e-05
4.44109e-06
-3.47544e-05
-7.96426e-08
3.10008e-06
-3.51255e-05
-1.01275e-07
3.07991e-06
-3.51352e-05
-5.88709e-08
4.2251e-06
-3.51431e-05
6.4557e-09
4.68402e-06
-3.51913e-05
2.36698e-08
4.41023e-06
-3.52656e-05
3.07495e-08
4.79288e-06
-3.5268e-05
3.55422e-08
4.67343e-06
-3.52394e-05
-3.77962e-09
2.7347e-06
-3.51665e-05
-4.36278e-08
2.28367e-06
-3.51736e-05
-3.74287e-08
3.18998e-06
-3.52115e-05
-3.22255e-08
3.7445e-06
-3.52589e-05
4.42076e-06
-3.53636e-05
-8.86246e-08
3.0347e-06
-3.57447e-05
-1.144e-07
2.98386e-06
-3.57501e-05
-6.87857e-08
4.05739e-06
-3.57546e-05
1.93993e-09
4.50779e-06
-3.58068e-05
2.27549e-08
4.28468e-06
-3.58879e-05
3.53243e-08
4.63657e-06
-3.58907e-05
4.27049e-08
4.50525e-06
-3.58616e-05
-4.55602e-09
2.62618e-06
-3.57863e-05
-5.75655e-08
2.20886e-06
-3.57908e-05
-5.89052e-08
3.09019e-06
-3.58269e-05
-5.27854e-08
3.65755e-06
-3.58745e-05
4.39404e-06
-3.59813e-05
-9.6813e-08
2.97071e-06
-3.63741e-05
-1.26527e-07
2.88744e-06
-3.63747e-05
-7.83029e-08
3.88301e-06
-3.63754e-05
-2.76682e-09
4.32526e-06
-3.64316e-05
2.16013e-08
4.15505e-06
-3.65202e-05
3.96468e-08
4.47379e-06
-3.65234e-05
4.94358e-08
4.33187e-06
-3.64938e-05
-5.86004e-09
2.5207e-06
-3.64162e-05
-7.2281e-08
2.14354e-06
-3.6418e-05
-8.1643e-08
2.99682e-06
-3.64519e-05
-7.41043e-08
3.56862e-06
-3.64993e-05
4.35956e-06
-3.66078e-05
-1.04006e-07
2.90736e-06
-3.70143e-05
-1.37385e-07
2.79025e-06
-3.70097e-05
-8.73681e-08
3.7031e-06
-3.70061e-05
-7.72046e-09
4.1374e-06
-3.70661e-05
2.01799e-08
4.02146e-06
-3.71625e-05
4.36713e-08
4.30461e-06
-3.71662e-05
5.56486e-08
4.15338e-06
-3.71361e-05
-7.76632e-09
2.41821e-06
-3.70562e-05
-8.77457e-08
2.08769e-06
-3.70556e-05
-1.05635e-07
2.91053e-06
-3.70872e-05
-9.63665e-08
3.4776e-06
-3.71336e-05
4.31592e-06
-3.72432e-05
-1.09989e-07
2.84395e-06
-3.76656e-05
-1.46574e-07
2.69185e-06
-3.76557e-05
-9.56955e-08
3.51894e-06
-3.76476e-05
-1.3004e-08
3.9455e-06
-3.7711e-05
1.84432e-08
3.88399e-06
-3.78152e-05
4.7365e-08
4.12921e-06
-3.78194e-05
6.12676e-08
3.96987e-06
-3.77888e-05
-1.03158e-08
2.31866e-06
-3.77068e-05
-1.03895e-07
2.04119e-06
-3.77038e-05
-1.30441e-07
2.83152e-06
-3.77331e-05
-1.19063e-07
3.38404e-06
-3.7778e-05
4.26187e-06
-3.78878e-05
-1.14565e-07
2.77979e-06
-3.83286e-05
-1.53798e-07
2.59171e-06
-3.83131e-05
-1.03e-07
3.3317e-06
-3.83007e-05
-1.85842e-08
3.75089e-06
-3.83669e-05
1.63092e-08
3.74286e-06
-3.84785e-05
5.0683e-08
3.94778e-06
-3.84832e-05
6.62346e-08
3.78151e-06
-3.84522e-05
-1.35648e-08
2.222e-06
-3.83682e-05
-1.20456e-07
2.00373e-06
-3.83632e-05
-1.55467e-07
2.75945e-06
-3.83903e-05
-1.41539e-07
3.28721e-06
-3.84334e-05
4.19616e-06
-3.85424e-05
-1.1757e-07
2.71404e-06
-3.90036e-05
-1.58878e-07
2.4893e-06
-3.89825e-05
-1.0908e-07
3.1424e-06
-3.8966e-05
-2.43387e-08
3.55481e-06
-3.90345e-05
1.37354e-08
3.59838e-06
-3.91527e-05
5.35209e-08
3.76055e-06
-3.91579e-05
7.0451e-08
3.58865e-06
-3.91265e-05
-1.74873e-08
2.12811e-06
-3.90408e-05
-1.37094e-07
1.97473e-06
-3.90341e-05
-1.80116e-07
2.6935e-06
-3.90593e-05
-1.63272e-07
3.1862e-06
-3.91001e-05
4.11754e-06
-3.92074e-05
-1.18864e-07
2.64584e-06
-3.96911e-05
-1.61716e-07
2.3841e-06
-3.96644e-05
-1.13806e-07
2.95195e-06
-3.96443e-05
-3.00899e-08
3.3583e-06
-3.97142e-05
1.07749e-08
3.4508e-06
-3.98382e-05
5.57485e-08
3.56778e-06
-3.98437e-05
7.37267e-08
3.39181e-06
-3.9812e-05
-2.21587e-08
2.03692e-06
-3.9725e-05
-1.53576e-07
1.95331e-06
-3.97168e-05
-2.03908e-07
2.63237e-06
-3.97408e-05
-1.83873e-07
3.08007e-06
-3.97789e-05
4.02482e-06
-3.98832e-05
-1.18337e-07
2.57433e-06
-4.03913e-05
-1.6229e-07
2.27569e-06
-4.03593e-05
-1.17105e-07
2.76114e-06
-4.03359e-05
-3.56793e-08
3.16224e-06
-4.04065e-05
7.49417e-09
3.30028e-06
-4.05351e-05
5.72643e-08
3.36976e-06
-4.05409e-05
7.5857e-08
3.19165e-06
-4.05089e-05
-2.76574e-08
1.94834e-06
-4.04209e-05
-1.69769e-07
1.93833e-06
-4.04117e-05
-2.26509e-07
2.57448e-06
-4.0435e-05
-2.03058e-07
2.96777e-06
-4.047e-05
3.91696e-06
-4.05706e-05
-1.15899e-07
2.49869e-06
-4.11046e-05
-1.60631e-07
2.16377e-06
-4.10675e-05
-1.1894e-07
2.5707e-06
-4.10414e-05
-4.09499e-08
2.96736e-06
-4.11118e-05
3.95554e-09
3.14689e-06
-4.12436e-05
5.79587e-08
3.16677e-06
-4.12496e-05
7.6676e-08
2.98883e-06
-4.12176e-05
-3.40484e-08
1.86227e-06
-4.11291e-05
-1.85658e-07
1.92857e-06
-4.11192e-05
-2.47786e-07
2.51812e-06
-4.11422e-05
-2.20626e-07
2.84816e-06
-4.1174e-05
3.79309e-06
-4.12698e-05
-1.11483e-07
2.41814e-06
-4.18313e-05
-1.5682e-07
2.04829e-06
-4.17895e-05
-1.19293e-07
2.38123e-06
-4.17611e-05
-4.5728e-08
2.7742e-06
-4.18304e-05
2.35138e-10
2.99072e-06
-4.1964e-05
5.77108e-08
2.95922e-06
-4.197e-05
7.60007e-08
2.78403e-06
-4.19383e-05
-4.13578e-08
1.7785e-06
-4.18498e-05
-2.01214e-07
1.9227e-06
-4.18397e-05
-2.67644e-07
2.46159e-06
-4.18626e-05
-2.36433e-07
2.72007e-06
-4.18914e-05
3.6525e-06
-4.19816e-05
-1.05041e-07
2.33194e-06
-4.25716e-05
-1.50977e-07
1.92946e-06
-4.25256e-05
-1.18141e-07
2.19323e-06
-4.24954e-05
-4.982e-08
2.58315e-06
-4.25628e-05
-3.57531e-09
2.8319e-06
-4.26965e-05
5.64044e-08
2.74764e-06
-4.27025e-05
7.3636e-08
2.57795e-06
-4.26713e-05
-4.96569e-08
1.69674e-06
-4.25835e-05
-2.16347e-07
1.91916e-06
-4.25736e-05
-2.85961e-07
2.40336e-06
-4.25966e-05
-2.50379e-07
2.58239e-06
-4.26225e-05
3.49469e-06
-4.27065e-05
-9.65215e-08
2.23942e-06
-4.33258e-05
-1.43134e-07
1.80751e-06
-4.32762e-05
-1.15384e-07
2.00719e-06
-4.32444e-05
-5.30186e-08
2.39452e-06
-4.33092e-05
-7.33302e-09
2.67051e-06
-4.34414e-05
5.39376e-08
2.53278e-06
-4.34472e-05
6.93936e-08
2.37139e-06
-4.34169e-05
-5.90282e-08
1.61659e-06
-4.33305e-05
-2.31015e-07
1.91626e-06
-4.33211e-05
-3.02686e-07
2.34193e-06
-4.33445e-05
-2.62386e-07
2.43409e-06
-4.33678e-05
3.31937e-06
-4.34451e-05
-8.5862e-08
2.13998e-06
-4.40944e-05
-1.33233e-07
1.68265e-06
-4.40416e-05
-1.10922e-07
1.82368e-06
-4.40085e-05
-5.51184e-08
2.20856e-06
-4.40702e-05
-1.08899e-08
2.50668e-06
-4.41989e-05
5.02255e-08
2.31557e-06
-4.42044e-05
6.31039e-08
2.16527e-06
-4.41753e-05
-6.9547e-08
1.5376e-06
-4.40913e-05
-2.45179e-07
1.91222e-06
-4.40826e-05
-3.17816e-07
2.27582e-06
-4.41064e-05
-2.72439e-07
2.27434e-06
-4.41275e-05
3.12645e-06
-4.41981e-05
-7.29957e-08
2.03316e-06
-4.48776e-05
-1.21248e-07
1.55506e-06
-4.4822e-05
-1.04757e-07
1.64322e-06
-4.47877e-05
-5.59138e-08
2.02549e-06
-4.48459e-05
-1.40834e-08
2.34051e-06
-4.49694e-05
4.52047e-08
2.09717e-06
-4.49744e-05
5.46361e-08
1.96061e-06
-4.4947e-05
-8.12431e-08
1.45927e-06
-4.48662e-05
-2.58766e-07
1.90529e-06
-4.48585e-05
-3.31263e-07
2.20346e-06
-4.48827e-05
-2.80527e-07
2.10263e-06
-4.49021e-05
2.91605e-06
-4.49661e-05
-5.78692e-08
1.91856e-06
-4.56758e-05
-1.07166e-07
1.42493e-06
-4.56178e-05
-9.6829e-08
1.46611e-06
-4.55824e-05
-5.51705e-08
1.8455e-06
-4.56367e-05
-1.67557e-08
2.17222e-06
-4.57536e-05
3.88434e-08
1.87888e-06
-4.57579e-05
4.39139e-08
1.75848e-06
-4.57323e-05
-9.41052e-08
1.38104e-06
-4.56555e-05
-2.71684e-07
1.89367e-06
-4.56491e-05
-3.4288e-07
2.12321e-06
-4.56737e-05
-2.86633e-07
1.9186e-06
-4.56919e-05
2.68857e-06
-4.57495e-05
-4.04679e-08
1.79595e-06
-4.64895e-05
-9.09971e-08
1.29253e-06
-4.64294e-05
-8.70085e-08