/*--------------------------------*- C++ -*----------------------------------*\
| =========                 |                                                 |
| \\      /  F ield         | OpenFOAM: The Open Source CFD Toolbox           |
|  \\    /   O peration     | Version:  v1912                                 |
|   \\  /    A nd           | Website:  www.openfoam.com                      |
|    \\/     M anipulation  |                                                 |
\*---------------------------------------------------------------------------*/
FoamFile
{
    version     2.0;
    format      ascii;
    class       volSymmTensorField;
    location    "8.4";
    object      UPrime2Mean;
}
// * * * * * * * * * * * * * * * * * * * * * * * * * * * * * * * * * * * * * //

dimensions      [0 2 -2 0 0 0 0];


internalField   nonuniform List<symmTensor> 
34128
(
(1.17624e-10 2.58573e-12 4.31518e-10 1.95136e-10 1.54552e-08 9.46521e-06)
(1.00572e-10 2.28697e-12 6.6639e-10 1.95156e-10 1.54681e-08 9.47112e-06)
(1.10981e-10 1.67509e-12 8.88719e-10 1.95173e-10 1.54797e-08 9.48612e-06)
(1.26894e-10 -6.31496e-13 8.38545e-11 1.95175e-10 1.54845e-08 9.48929e-06)
(1.58015e-10 -1.60152e-12 -1.53426e-10 1.95171e-10 1.54752e-08 9.47994e-06)
(1.25839e-10 -2.70921e-12 -3.52122e-10 1.95154e-10 1.54593e-08 9.46813e-06)
(1.11839e-10 -2.7025e-12 9.07389e-11 1.95151e-10 1.54508e-08 9.46059e-06)
(1.09758e-10 -2.63394e-12 3.81916e-10 1.95152e-10 1.54677e-08 9.47815e-06)
(1.17162e-10 -3.84993e-12 -2.44333e-10 1.95164e-10 1.54932e-08 9.49811e-06)
(1.33318e-10 -6.01199e-12 -1.05182e-09 1.95153e-10 1.54832e-08 9.49078e-06)
(1.4673e-10 -6.15175e-12 -1.22104e-09 1.95122e-10 1.54455e-08 9.46268e-06)
(1.63107e-10 -4.09569e-12 -6.14111e-10 1.95069e-10 1.54456e-08 9.45392e-06)
(9.97169e-10 -8.57011e-12 1.51449e-09 4.32435e-10 -6.45862e-08 3.32141e-05)
(8.57453e-10 -9.3986e-12 3.24227e-09 4.32205e-10 -6.4592e-08 3.32556e-05)
(9.3913e-10 -4.66607e-12 4.22063e-09 4.32036e-10 -6.45561e-08 3.33633e-05)
(1.07901e-09 3.8976e-12 -1.22134e-09 4.32065e-10 -6.45048e-08 3.33849e-05)
(1.34108e-09 7.25347e-12 -3.35569e-09 4.3218e-10 -6.45075e-08 3.33161e-05)
(1.06912e-09 1.23414e-11 -4.34314e-09 4.32251e-10 -6.45663e-08 3.32328e-05)
(9.47857e-10 1.48725e-11 -1.0078e-09 4.32289e-10 -6.45757e-08 3.31806e-05)
(9.2996e-10 1.67663e-11 1.12869e-09 4.3231e-10 -6.45165e-08 3.3306e-05)
(9.92087e-10 1.88686e-11 -3.22923e-09 4.32152e-10 -6.44908e-08 3.34437e-05)
(1.12951e-09 2.62074e-11 -8.7816e-09 4.32263e-10 -6.45277e-08 3.33927e-05)
(1.24328e-09 2.73765e-11 -1.02423e-08 4.32714e-10 -6.45533e-08 3.31983e-05)
(1.38287e-09 1.73017e-11 -6.1155e-09 4.33003e-10 -6.45911e-08 3.31369e-05)
(2.66683e-09 2.47959e-12 2.03221e-09 2.13962e-10 6.7066e-08 5.98151e-05)
(2.30516e-09 -1.11743e-12 6.68637e-09 2.13738e-10 6.71991e-08 5.99148e-05)
(2.50899e-09 9.17519e-12 8.99068e-09 2.14375e-10 6.7668e-08 6.0173e-05)
(2.89077e-09 -9.38369e-14 -3.21433e-09 2.15034e-10 6.78904e-08 6.02213e-05)
(3.58749e-09 -1.23772e-12 -8.03559e-09 2.1474e-10 6.76468e-08 6.00532e-05)
(2.8618e-09 1.12917e-13 -9.33581e-09 2.14062e-10 6.72026e-08 5.98588e-05)
(2.53393e-09 6.79591e-12 -9.06702e-10 2.13642e-10 6.69868e-08 5.97385e-05)
(2.4865e-09 1.3496e-11 4.46945e-09 2.1448e-10 6.7507e-08 6.00364e-05)
(2.65038e-09 1.08209e-12 -5.35536e-09 2.15145e-10 6.80271e-08 6.03578e-05)
(3.01696e-09 -1.23087e-11 -1.81068e-08 2.14774e-10 6.7761e-08 6.02417e-05)
(3.3207e-09 -1.25224e-11 -2.17276e-08 2.13862e-10 6.70265e-08 5.97898e-05)
(3.69613e-09 -1.18769e-11 -1.25427e-08 2.134e-10 6.66846e-08 5.96481e-05)
(5.04993e-09 -2.10391e-11 2.53063e-09 1.11062e-10 -4.42211e-08 8.46809e-05)
(4.38829e-09 -2.78909e-11 1.09518e-08 1.09074e-10 -4.40438e-08 8.48547e-05)
(4.74731e-09 4.60472e-12 1.46981e-08 1.09636e-10 -4.30442e-08 8.5297e-05)
(5.48201e-09 1.05594e-11 -5.84239e-09 1.116e-10 -4.25212e-08 8.53712e-05)
(6.79269e-09 1.69296e-11 -1.36455e-08 1.11601e-10 -4.30278e-08 8.50767e-05)
(5.42179e-09 3.48223e-11 -1.4485e-08 1.10223e-10 -4.39473e-08 8.47543e-05)
(4.79701e-09 5.27449e-11 2.64246e-10 1.09502e-10 -4.43587e-08 8.45566e-05)
(4.7092e-09 6.82654e-11 9.63476e-09 1.11756e-10 -4.32402e-08 8.50593e-05)
(5.01535e-09 5.13211e-11 -6.38552e-09 1.12295e-10 -4.22778e-08 8.55948e-05)
(5.7064e-09 4.64508e-11 -2.774e-08 1.12186e-10 -4.28106e-08 8.54071e-05)
(6.27934e-09 4.68491e-11 -3.42541e-08 1.13059e-10 -4.41285e-08 8.46553e-05)
(6.99448e-09 1.81302e-11 -1.9543e-08 1.13464e-10 -4.48321e-08 8.44228e-05)
(8.07439e-09 -2.63078e-11 3.29301e-09 6.61363e-11 4.40943e-08 0.000106012)
(7.0542e-09 -3.61207e-11 1.5784e-08 6.20301e-11 4.44921e-08 0.000106272)
(7.58628e-09 2.75924e-11 2.06713e-08 6.55969e-11 4.65985e-08 0.000106913)
(8.77791e-09 1.64691e-11 -9.41688e-09 7.13655e-11 4.75968e-08 0.000107005)
(1.08585e-08 2.16685e-11 -2.01336e-08 7.01717e-11 4.64699e-08 0.000106567)
(8.6717e-09 5.04451e-11 -1.95869e-08 6.53716e-11 4.46286e-08 0.000106116)
(7.67002e-09 8.72268e-11 1.91018e-09 6.2762e-11 4.37649e-08 0.000105842)
(7.53417e-09 1.20752e-10 1.54754e-08 6.96552e-11 4.60731e-08 0.000106556)
(8.01743e-09 7.69485e-11 -6.82774e-09 7.30532e-11 4.81181e-08 0.000107311)
(9.11584e-09 4.49836e-11 -3.74775e-08 7.17119e-11 4.70859e-08 0.000107055)
(1.00265e-08 4.20167e-11 -4.74341e-08 7.01245e-11 4.42979e-08 0.000105997)
(1.11775e-08 4.27864e-12 -2.73885e-08 6.91224e-11 4.29235e-08 0.000105675)
(1.16726e-08 -4.65429e-11 4.559e-09 1.46975e-10 6.91658e-08 0.000123172)
(1.02524e-08 -5.60673e-11 2.09913e-08 1.38442e-10 6.9829e-08 0.000123525)
(1.09633e-08 5.47237e-11 2.64348e-08 1.47059e-10 7.34021e-08 0.000124365)
(1.27095e-08 2.9112e-11 -1.4116e-08 1.59519e-10 7.50064e-08 0.000124462)
(1.56936e-08 3.55423e-11 -2.74133e-08 1.56442e-10 7.30196e-08 0.000123871)
(1.25389e-08 8.82813e-11 -2.44736e-08 1.45933e-10 7.00379e-08 0.000123304)
(1.10915e-08 1.51779e-10 3.6882e-09 1.40354e-10 6.8631e-08 0.00012296)
(1.09031e-08 2.10196e-10 2.12967e-08 1.55364e-10 7.24768e-08 0.000123876)
(1.15934e-08 1.35124e-10 -6.97903e-09 1.63069e-10 7.58433e-08 0.000124835)
(1.31704e-08 7.51834e-11 -4.70697e-08 1.60341e-10 7.42273e-08 0.000124522)
(1.44768e-08 6.49739e-11 -6.08123e-08 1.56479e-10 6.96842e-08 0.000123175)
(1.61524e-08 -5.23485e-13 -3.61266e-08 1.53742e-10 6.75132e-08 0.000122776)
(1.57823e-08 -7.11523e-11 6.38481e-09 2.89463e-10 1.12468e-07 0.000136089)
(1.39351e-08 -7.4952e-11 2.63208e-08 2.74297e-10 1.13516e-07 0.00013654)
(1.48214e-08 9.85539e-11 3.16297e-08 2.92424e-10 1.19025e-07 0.000137567)
(1.72146e-08 4.52383e-11 -1.99876e-08 3.15829e-10 1.21341e-07 0.000137656)
(2.1215e-08 5.16122e-11 -3.53621e-08 3.08829e-10 1.18148e-07 0.000136909)
(1.69571e-08 1.38561e-10 -2.90206e-08 2.88968e-10 1.13792e-07 0.000136242)
(1.50063e-08 2.3571e-10 5.44898e-09 2.78604e-10 1.11722e-07 0.00013584)
(1.47635e-08 3.26775e-10 2.67486e-08 3.06994e-10 1.17506e-07 0.000136938)
(1.56871e-08 2.10528e-10 -7.03013e-09 3.22145e-10 1.22514e-07 0.000138077)
(1.78033e-08 1.08317e-10 -5.62933e-08 3.17367e-10 1.2021e-07 0.000137717)
(1.95536e-08 8.30456e-11 -7.39591e-08 3.091e-10 1.13479e-07 0.000136117)
(2.18355e-08 -2.05598e-11 -4.57141e-08 3.02667e-10 1.10345e-07 0.000135658)
(2.03489e-08 -9.99933e-11 8.65689e-09 5.10522e-10 1.64464e-07 0.000144974)
(1.80589e-08 -9.03167e-11 3.14795e-08 4.86129e-10 1.66027e-07 0.000145522)
(1.91104e-08 1.6212e-10 3.60321e-08 5.20174e-10 1.7392e-07 0.000146721)
(2.22394e-08 6.47654e-11 -2.69062e-08 5.5982e-10 1.77017e-07 0.000146788)
(2.73507e-08 6.9791e-11 -4.37745e-08 5.45664e-10 1.7224e-07 0.000145887)
(2.18684e-08 2.03995e-10 -3.30967e-08 5.12091e-10 1.66324e-07 0.000145141)
(1.93668e-08 3.40412e-10 7.22578e-09 4.94773e-10 1.635e-07 0.000144692)
(1.90704e-08 4.71374e-10 3.17732e-08 5.43227e-10 1.71591e-07 0.000145948)
(2.02511e-08 3.04929e-10 -7.05186e-09 5.69724e-10 1.78511e-07 0.000147238)
(2.29584e-08 1.45176e-10 -6.49055e-08 5.6256e-10 1.75476e-07 0.000146844)
(2.51914e-08 9.32953e-11 -8.64399e-08 5.47486e-10 1.66242e-07 0.000145033)
(2.81544e-08 -6.3446e-11 -5.59979e-08 5.34621e-10 1.62079e-07 0.000144533)
(2.53278e-08 -1.30818e-10 1.11564e-08 8.32625e-10 2.25197e-07 0.000150168)
(2.25876e-08 -9.83034e-11 3.61937e-08 7.96313e-10 2.27437e-07 0.000150811)
(2.37894e-08 2.49259e-10 3.95661e-08 8.55168e-10 2.38154e-07 0.000152161)
(2.7741e-08 8.68008e-11 -3.45828e-08 9.17323e-10 2.42073e-07 0.000152194)
(3.40426e-08 8.90702e-11 -5.2362e-08 8.91041e-10 2.35299e-07 0.000151147)
(2.72258e-08 2.85674e-10 -3.65512e-08 8.38818e-10 2.2768e-07 0.00015034)
(2.41352e-08 4.65146e-10 9.17064e-09 8.12018e-10 2.24042e-07 0.000149859)
(2.3788e-08 6.4246e-10 3.64952e-08 8.88675e-10 2.34775e-07 0.000151249)
(2.52486e-08 4.1716e-10 -7.0272e-09 9.31275e-10 2.4384e-07 0.000152658)
(2.85924e-08 1.82471e-10 -7.26614e-08 9.2191e-10 2.40055e-07 0.000152239)
(3.13381e-08 8.82971e-11 -9.78534e-08 8.97177e-10 2.28079e-07 0.000150264)
(3.50504e-08 -1.40616e-10 -6.67575e-08 8.74195e-10 2.22874e-07 0.000149742)
(3.06864e-08 -1.61141e-10 1.36386e-08 1.27376e-09 2.91395e-07 0.00015206)
(2.74941e-08 -9.59371e-11 4.0267e-08 1.22293e-09 2.94471e-07 0.00015279)
(2.88282e-08 3.6286e-10 4.22943e-08 1.3181e-09 3.08433e-07 0.00015427)
(3.36888e-08 1.1063e-10 -4.26168e-08 1.40982e-09 3.13192e-07 0.000154263)
(4.12488e-08 1.09193e-10 -6.07884e-08 1.36432e-09 3.03989e-07 0.000153081)
(3.29956e-08 3.85455e-10 -3.92241e-08 1.28832e-09 2.94573e-07 0.000152229)
(2.92847e-08 6.09507e-10 1.14716e-08 1.24931e-09 2.90088e-07 0.000151727)
(2.8891e-08 8.38215e-10 4.10975e-08 1.36357e-09 3.03764e-07 0.00015323)
(3.06555e-08 5.46039e-10 -6.89982e-09 1.4276e-09 3.15145e-07 0.000154729)
(3.46768e-08 2.18195e-10 -7.93513e-08 1.41713e-09 3.10624e-07 0.000154292)
(3.79576e-08 6.20066e-11 -1.07888e-07 1.37999e-09 2.95775e-07 0.000152198)
(4.24806e-08 -2.63671e-10 -7.77725e-08 1.34251e-09 2.89572e-07 0.000151672)
(3.64053e-08 -1.87535e-10 1.5905e-08 1.85263e-09 3.61972e-07 0.000151041)
(3.27618e-08 -8.03645e-11 4.36162e-08 1.785e-09 3.66022e-07 0.000151847)
(3.42085e-08 5.05624e-10 4.43861e-08 1.93088e-09 3.83633e-07 0.000153437)
(4.00656e-08 1.3582e-10 -5.05698e-08 2.0599e-09 3.89229e-07 0.000153388)
(4.89448e-08 1.30208e-10 -6.87158e-08 1.98545e-09 3.77163e-07 0.000152084)
(3.91582e-08 5.04863e-10 -4.09676e-08 1.88065e-09 3.65898e-07 0.000151201)
(3.48001e-08 7.72685e-10 1.42792e-08 1.82653e-09 3.60553e-07 0.000150687)
(3.4366e-08 1.0561e-09 4.57184e-08 1.989e-09 3.77444e-07 0.000152286)
(3.64611e-08 6.89164e-10 -6.62102e-09 2.08026e-09 3.91259e-07 0.00015385)
(4.11993e-08 2.49223e-10 -8.48384e-08 2.07094e-09 3.8604e-07 0.000153399)
(4.50294e-08 7.80678e-12 -1.1637e-07 2.01891e-09 3.68292e-07 0.000151227)
(5.0418e-08 -4.44716e-10 -8.88885e-08 1.96211e-09 3.61192e-07 0.000150711)
(4.24778e-08 -2.06306e-10 1.78567e-08 2.58682e-09 4.35062e-07 0.000147485)
(3.83854e-08 -4.93437e-11 4.62737e-08 2.50047e-09 4.40202e-07 0.000148355)
(3.99242e-08 6.79691e-10 4.60704e-08 2.7145e-09 4.61835e-07 0.000150039)
(4.68672e-08 1.62743e-10 -5.8036e-08 2.8891e-09 4.68256e-07 0.000149946)
(5.71225e-08 1.52918e-10 -7.58479e-08 2.77302e-09 4.52902e-07 0.000148534)
(4.57074e-08 6.45516e-10 -4.16634e-08 2.63476e-09 4.3978e-07 0.000147634)
(4.06773e-08 9.53918e-10 1.76585e-08 2.56261e-09 4.3359e-07 0.000147116)
(4.02106e-08 1.29313e-09 5.03865e-08 2.78492e-09 4.53927e-07 0.000148795)
(4.26677e-08 8.43345e-10 -6.18813e-09 2.90945e-09 4.70233e-07 0.000150402)
(4.81631e-08 2.72402e-10 -8.90843e-08 2.90494e-09 4.64381e-07 0.000149941)
(5.25486e-08 -8.01026e-11 -1.23279e-07 2.83625e-09 4.43813e-07 0.000147728)
(5.88514e-08 -6.95153e-10 -1.00064e-07 2.7552e-09 4.35975e-07 0.000147234)
(4.89095e-08 -2.13548e-10 1.95091e-08 3.49396e-09 5.08859e-07 0.000141747)
(4.43695e-08 -1.02626e-12 4.83691e-08 3.38739e-09 5.15178e-07 0.000142669)
(4.59802e-08 8.87014e-10 4.75756e-08 3.69018e-09 5.41172e-07 0.00014443)
(5.41015e-08 1.92749e-10 -6.4696e-08 3.91921e-09 5.48392e-07 0.000144295)
(6.5789e-08 1.78908e-10 -8.19584e-08 3.74548e-09 5.29345e-07 0.000142789)
(5.26495e-08 8.09121e-10 -4.12455e-08 3.56975e-09 5.14412e-07 0.000141883)
(4.69227e-08 1.15253e-09 2.15625e-08 3.47665e-09 5.07415e-07 0.00014137)
(4.64331e-08 1.54595e-09 5.49937e-08 3.77135e-09 5.31384e-07 0.000143115)
(4.92906e-08 1.00466e-09 -5.66499e-09 3.93532e-09 5.50173e-07 0.000144744)
(5.55866e-08 2.8447e-10 -9.21588e-08 3.94083e-09 5.43773e-07 0.000144276)
(6.05243e-08 -2.06562e-10 -1.28745e-07 3.85469e-09 5.20569e-07 0.000142057)
(6.77834e-08 -1.02522e-09 -1.11362e-07 3.74485e-09 5.12207e-07 0.000141594)
(5.57137e-08 -2.05188e-10 2.09699e-08 4.59177e-09 5.81441e-07 0.00013417)
(5.07264e-08 6.63271e-11 5.00841e-08 4.46377e-09 5.88993e-07 0.000135131)
(5.23895e-08 1.12947e-09 4.91034e-08 4.87933e-09 6.19645e-07 0.000136954)
(6.17848e-08 2.2839e-10 -7.03082e-08 5.17225e-09 6.27628e-07 0.00013678)
(7.49609e-08 2.10649e-10 -8.68854e-08 4.92129e-09 6.04516e-07 0.000135194)
(5.99991e-08 9.97427e-10 -3.97059e-08 4.70487e-09 5.87879e-07 0.000134296)
(5.35491e-08 1.36787e-09 2.58514e-08 4.58802e-09 5.80136e-07 0.000133793)
(5.30493e-08 1.81082e-09 5.93279e-08 4.96848e-09 6.07862e-07 0.00013559)
(5.6354e-08 1.16852e-09 -5.166e-09 5.17802e-09 6.29058e-07 0.000137221)
(6.34985e-08 2.8216e-10 -9.42073e-08 5.20045e-09 6.2222e-07 0.000136751)
(6.89743e-08 -3.75408e-10 -1.32989e-07 5.09727e-09 5.96662e-07 0.000134557)
(7.72259e-08 -1.44363e-09 -1.22889e-07 4.9549e-09 5.88053e-07 0.000134136)
(6.29075e-08 -1.77126e-10 2.24177e-08 5.89798e-09 6.50795e-07 0.0001251)
(5.7471e-08 1.54574e-10 5.16097e-08 5.74745e-09 6.59603e-07 0.000126085)
(5.91685e-08 1.40894e-09 5.08092e-08 6.30343e-09 6.95154e-07 0.000127957)
(6.99361e-08 2.73195e-10 -7.46994e-08 6.6704e-09 7.03847e-07 0.000127746)
(8.46574e-08 2.51338e-10 -9.05244e-08 6.31881e-09 6.76342e-07 0.000126095)
(6.77733e-08 1.21214e-09 -3.70871e-08 6.05953e-09 6.5818e-07 0.000125217)
(6.05711e-08 1.59914e-09 3.03208e-08 5.91632e-09 6.49774e-07 0.000124731)
(6.00775e-08 2.08338e-09 6.31075e-08 6.39653e-09 6.8131e-07 0.000126564)
(6.3886e-08 1.3297e-09 -4.84818e-09 6.65765e-09 7.04764e-07 0.000128177)
(7.19325e-08 2.62254e-10 -9.5424e-08 6.70562e-09 6.9762e-07 0.000127712)
(7.79198e-08 -5.89615e-10 -1.36254e-07 6.5872e-09 6.70081e-07 0.000125573)
(8.71933e-08 -1.95762e-09 -1.34743e-07 6.4098e-09 6.61566e-07 0.000125202)
(7.0508e-08 -1.25136e-10 2.40716e-08 7.43052e-09 7.14849e-07 0.000114879)
(6.46182e-08 2.65842e-10 5.31241e-08 7.25626e-09 7.24902e-07 0.000115876)
(6.63346e-08 1.72734e-09 5.27721e-08 7.98417e-09 7.65529e-07 0.00011778)
(7.85742e-08 3.31557e-10 -7.77704e-08 8.43617e-09 7.74859e-07 0.000117534)
(9.48957e-08 3.04797e-10 -9.28279e-08 7.95669e-09 7.4269e-07 0.000115832)
(7.59885e-08 1.45496e-09 -3.34836e-08 7.65358e-09 7.23264e-07 0.000114989)
(6.80022e-08 1.8454e-09 3.47148e-08 7.48162e-09 7.14295e-07 0.000114527)
(6.75359e-08 2.35879e-09 6.60005e-08 8.07607e-09 7.49612e-07 0.000116377)
(7.19157e-08 1.48256e-09 -4.91007e-09 8.39455e-09 7.75095e-07 0.000117953)
(8.09239e-08 2.2185e-10 -9.60424e-08 8.47852e-09 7.67801e-07 0.000117498)
(8.73813e-08 -8.51164e-10 -1.38778e-07 8.34816e-09 7.38737e-07 0.000115444)
(9.76987e-08 -2.57289e-09 -1.46976e-07 8.13487e-09 7.3073e-07 0.000115132)
(7.85284e-08 -4.47666e-11 2.61464e-08 9.20696e-09 7.71534e-07 0.000103849)
(7.21792e-08 4.02658e-10 5.47686e-08 9.00742e-09 7.82793e-07 0.000104845)
(7.39019e-08 2.08645e-09 5.50012e-08 9.94298e-09 8.28591e-07 0.000106764)
(8.77122e-08 4.08249e-10 -7.94669e-08 1.04919e-08 8.3846e-07 0.000106485)
(1.05684e-07 3.75187e-10 -9.37861e-08 9.85322e-09 8.01427e-07 0.000104747)
(8.4655e-08 1.72748e-09 -2.90337e-08 9.50686e-09 7.81081e-07 0.000103955)
(7.58505e-08 2.10539e-09 3.8756e-08 9.30405e-09 7.71668e-07 0.000103522)
(7.54379e-08 2.63153e-09 6.76704e-08 1.00275e-08 8.10635e-07 0.000105367)
(8.04675e-08 1.62112e-09 -5.56428e-09 1.04087e-08 8.37847e-07 0.000106886)
(9.05033e-08 1.58374e-10 -9.63041e-08 1.05411e-08 8.30574e-07 0.00010645)
(9.73724e-08 -1.16132e-09 -1.40743e-07 1.04037e-08 8.00516e-07 0.000104507)
(1.08748e-07 -3.29408e-09 -1.59538e-07 1.01557e-08 7.935e-07 0.000104265)
(8.69728e-08 6.87392e-11 2.8815e-08 1.12437e-08 8.18858e-07 9.23484e-05)
(8.01564e-08 5.67866e-10 5.66375e-08 1.10168e-08 8.31254e-07 9.3331e-05)
(8.1877e-08 2.48761e-09 5.74445e-08 1.22001e-08 8.82222e-07 9.52461e-05)
(9.73518e-08 5.07943e-10 -7.97667e-08 1.28589e-08 8.92505e-07 9.49334e-05)
(1.17014e-07 4.66705e-10 -9.34185e-08 1.20255e-08 8.50491e-07 9.31779e-05)
(9.37711e-08 2.03118e-09 -2.39118e-08 1.16384e-08 8.29657e-07 9.24519e-05)
(8.4113e-08 2.37745e-09 4.21715e-08 1.14029e-08 8.19935e-07 9.20541e-05)
(8.37872e-08 2.89536e-09 6.78168e-08 1.22701e-08 8.62311e-07 9.387e-05)
(8.95556e-08 1.73901e-09 -7.00848e-09 1.27189e-08 8.90881e-07 9.53119e-05)
(1.0069e-07 6.96987e-11 -9.64318e-08 1.29141e-08 8.8381e-07 9.49009e-05)
(1.07894e-07 -1.52057e-09 -1.42256e-07 1.27764e-08 8.53348e-07 9.30958e-05)
(1.20334e-07 -4.12503e-09 -1.7226e-07 1.24977e-08 8.47877e-07 9.29345e-05)
(9.58314e-08 2.20517e-10 3.21788e-08 1.35548e-08 8.54984e-07 8.07068e-05)
(8.85395e-08 7.64466e-10 5.87739e-08 1.32978e-08 8.68425e-07 8.1664e-05)
(9.02539e-08 2.93138e-09 5.99996e-08 1.47737e-08 9.24452e-07 8.35542e-05)
(1.07478e-07 6.3477e-10 -7.86772e-08 1.55562e-08 9.34991e-07 8.32086e-05)
(1.28854e-07 5.83306e-10 -9.17711e-08 1.44884e-08 8.87982e-07 8.14536e-05)
(1.03318e-07 2.36742e-09 -1.83214e-08 1.40656e-08 8.67171e-07 8.08087e-05)
(9.27714e-08 2.65944e-09 4.47139e-08 1.37959e-08 8.57288e-07 8.04509e-05)
(9.25717e-08 3.14332e-09 6.62126e-08 1.48211e-08 9.02714e-07 8.22118e-05)
(9.91773e-08 1.82956e-09 -9.39523e-09 1.53414e-08 9.32211e-07 8.3557e-05)
(1.11486e-07 -4.57398e-11 -9.66068e-08 1.56163e-08 9.25525e-07 8.31781e-05)
(1.1893e-07 -1.92849e-09 -1.43336e-07 1.54867e-08 8.9529e-07 8.15345e-05)
(1.32428e-07 -5.06898e-09 -1.84848e-07 1.51848e-08 8.91976e-07 8.14643e-05)
(1.05075e-07 4.16043e-10 3.62489e-08 1.61512e-08 8.7832e-07 6.92356e-05)
(9.73012e-08 9.95345e-10 6.11699e-08 1.58603e-08 8.9269e-07 7.01561e-05)
(9.90104e-08 3.4172e-09 6.25259e-08 1.76782e-08 9.53544e-07 7.1999e-05)
(1.18051e-07 7.91982e-10 -7.6242e-08 1.85993e-08 9.64146e-07 7.1621e-05)
(1.41141e-07 7.28432e-10 -8.89188e-08 1.72533e-08 9.12246e-07 6.98868e-05)
(1.13253e-07 2.73743e-09 -1.249e-08 1.68028e-08 8.9204e-07 6.93358e-05)
(1.01786e-07 2.94875e-09 4.6179e-08 1.64977e-08 8.82153e-07 6.90222e-05)
(1.01759e-07 3.36772e-09 6.2734e-08 1.76944e-08 9.30146e-07 7.07014e-05)
(1.09306e-07 1.88583e-09 -1.28054e-08 1.8289e-08 9.60092e-07 7.19323e-05)
(1.22866e-07 -1.88819e-10 -9.69519e-08 1.86626e-08 9.53968e-07 7.1591e-05)
(1.30436e-07 -2.38352e-09 -1.43923e-07 1.85519e-08 9.24612e-07 7.0129e-05)
(1.44977e-07 -6.12866e-09 -1.96906e-07 1.82387e-08 9.2411e-07 7.01584e-05)
(1.14653e-07 6.61041e-10 4.09399e-08 1.90393e-08 8.876e-07 5.82178e-05)
(1.06393e-07 1.26298e-09 6.37698e-08 1.87096e-08 9.02768e-07 5.90914e-05)
(1.08103e-07 3.94305e-09 6.48567e-08 2.09234e-08 9.68082e-07 6.08641e-05)
(1.29005e-07 9.81691e-10 -7.2549e-08 2.19991e-08 9.78516e-07 6.04546e-05)
(1.53773e-07 9.04778e-10 -8.49712e-08 2.03267e-08 9.21963e-07 5.87628e-05)
(1.23506e-07 3.14223e-09 -6.66363e-09 1.98603e-08 9.02997e-07 5.83156e-05)
(1.11094e-07 3.24232e-09 4.64189e-08 1.9519e-08 8.93267e-07 5.80491e-05)
(1.11289e-07 3.56036e-09 5.73811e-08 2.08991e-08 9.43225e-07 5.96207e-05)
(1.19886e-07 1.90065e-09 -1.72299e-08 2.15693e-08 9.7311e-07 6.07228e-05)
(1.34772e-07 -3.59574e-10 -9.75219e-08 2.20632e-08 9.67705e-07 6.04228e-05)
(1.42338e-07 -2.88263e-09 -1.43896e-07 2.19843e-08 9.3988e-07 5.91575e-05)
(1.57895e-07 -7.30633e-09 -2.07961e-07 2.16776e-08 9.42869e-07 5.92924e-05)
(1.24486e-07 9.61304e-10 4.60719e-08 2.22198e-08 8.81956e-07 4.78985e-05)
(1.15743e-07 1.56916e-09 6.6475e-08 2.18452e-08 8.97783e-07 4.87165e-05)
(1.17466e-07 4.50524e-09 6.68117e-08 2.45131e-08 9.67048e-07 5.03966e-05)
(1.40239e-07 1.20473e-09 -6.77363e-08 2.57604e-08 9.77043e-07 4.99574e-05)
(1.66607e-07 1.1141e-09 -8.00767e-08 2.37094e-08 9.16221e-07 4.83296e-05)
(1.33973e-07 3.58255e-09 -1.10203e-09 2.32435e-08 8.99164e-07 4.79924e-05)
(1.20601e-07 3.53668e-09 4.53499e-08 2.28655e-08 8.89752e-07 4.77744e-05)
(1.21071e-07 3.71272e-09 5.02862e-08 2.44387e-08 9.4096e-07 4.9215e-05)
(1.30823e-07 1.86684e-09 -2.25615e-08 2.51838e-08 9.70263e-07 5.01779e-05)
(1.4711e-07 -5.57033e-10 -9.83025e-08 2.58219e-08 9.65698e-07 4.9921e-05)
(1.54529e-07 -3.42092e-09 -1.43095e-07 2.57906e-08 9.40036e-07 4.88615e-05)
(1.71061e-07 -8.60363e-09 -2.17507e-07 2.55153e-08 9.47195e-07 4.91037e-05)
(1.34467e-07 1.32245e-09 5.13833e-08 2.56879e-08 8.6098e-07 3.84761e-05)
(1.25251e-07 1.91476e-09 6.91503e-08 2.52603e-08 8.77325e-07 3.92316e-05)
(1.27004e-07 5.09835e-09 6.82121e-08 2.84442e-08 9.49888e-07 4.07985e-05)
(1.51617e-07 1.46062e-09 -6.19919e-08 2.98809e-08 9.59133e-07 4.03323e-05)
(1.79452e-07 1.35703e-09 -7.44236e-08 2.73956e-08 8.94583e-07 3.87898e-05)
(1.44519e-07 4.05864e-09 3.92942e-09 2.6952e-08 8.80112e-07 3.85642e-05)
(1.30184e-07 3.82812e-09 4.29572e-08 2.65371e-08 8.71171e-07 3.83944e-05)
(1.30982e-07 3.81633e-09 4.17092e-08 2.83101e-08 9.22814e-07 3.96846e-05)
(1.41986e-07 1.77745e-09 -2.8599e-08 2.91267e-08 9.51025e-07 4.05025e-05)
(1.59737e-07 -7.7905e-10 -9.92166e-08 2.99355e-08 9.47376e-07 4.02884e-05)
(1.66861e-07 -3.99139e-09 -1.41347e-07 2.99705e-08 9.24464e-07 3.94372e-05)
(1.84315e-07 -1.00215e-08 -2.2504e-07 2.97607e-08 9.3644e-07 3.97842e-05)
(1.44459e-07 1.74966e-09 5.65491e-08 2.94321e-08 8.24764e-07 3.00971e-05)
(1.34795e-07 2.29958e-09 7.16325e-08 2.89411e-08 8.41494e-07 3.07852e-05)
(1.36596e-07 5.71523e-09 6.88956e-08 3.27059e-08 9.16553e-07 3.2221e-05)
(1.62967e-07 1.74773e-09 -5.55462e-08 3.4351e-08 9.24703e-07 3.17317e-05)
(1.92073e-07 1.63295e-09 -6.82369e-08 3.13728e-08 8.57124e-07 3.0294e-05)
(1.54971e-07 4.5699e-09 8.16997e-09 3.0979e-08 8.45893e-07 3.01768e-05)
(1.39686e-07 4.1127e-09 3.92939e-08 3.05272e-08 8.37565e-07 3.0053e-05)
(1.4086e-07 3.86326e-09 3.20197e-08 3.25027e-08 8.88755e-07 3.1179e-05)
(1.53199e-07 1.62604e-09 -3.50615e-08 3.33848e-08 9.15392e-07 3.18512e-05)
(1.72468e-07 -1.02214e-09 -1.00137e-07 3.43928e-08 9.12679e-07 3.16776e-05)
(1.79149e-07 -4.58464e-09 -1.38493e-07 3.45159e-08 8.93036e-07 3.10305e-05)
(1.97458e-07 -1.15598e-08 -2.30094e-07 3.44167e-08 9.10416e-07 3.14746e-05)
(1.54297e-07 2.2473e-09 6.12047e-08 3.34349e-08 7.73911e-07 2.2853e-05)
(1.44222e-07 2.72219e-09 7.37411e-08 3.28675e-08 7.90911e-07 2.34712e-05)
(1.46094e-07 6.34724e-09 6.87322e-08 3.72798e-08 8.67525e-07 2.47616e-05)
(1.7408e-07 2.06343e-09 -4.86599e-08 3.91533e-08 8.74206e-07 2.42542e-05)
(2.04193e-07 1.93987e-09 -6.17705e-08 3.56211e-08 8.04454e-07 2.2938e-05)
(1.65126e-07 5.11442e-09 1.13769e-08 3.53114e-08 7.97063e-07 2.29215e-05)
(1.48925e-07 4.38643e-09 3.44765e-08 3.48229e-08 7.89469e-07 2.28401e-05)
(1.5051e-07 3.84663e-09 2.16685e-08 3.69987e-08 8.39271e-07 2.37939e-05)
(1.64247e-07 1.40724e-09 -4.16116e-08 3.79374e-08 8.63907e-07 2.43248e-05)
(1.85069e-07 -1.28139e-09 -1.00907e-07 3.91745e-08 8.62081e-07 2.41878e-05)
(1.9117e-07 -5.18886e-09 -1.34409e-07 3.94112e-08 8.46145e-07 2.37341e-05)
(2.10258e-07 -1.32171e-08 -2.32277e-07 3.94801e-08 8.69415e-07 2.42632e-05)
(1.63794e-07 2.81859e-09 6.49731e-08 3.7673e-08 7.09523e-07 1.67816e-05)
(1.53358e-07 3.17986e-09 7.52904e-08 3.70126e-08 7.26703e-07 1.73294e-05)
(1.55329e-07 6.98467e-09 6.7637e-08 4.21399e-08 8.03807e-07 1.84646e-05)
(1.84722e-07 2.40451e-09 -4.16067e-08 4.42624e-08 8.08623e-07 1.79452e-05)
(2.15502e-07 2.27421e-09 -5.52947e-08 4.01147e-08 7.37698e-07 1.67637e-05)
(1.74754e-07 5.6883e-09 1.33414e-08 3.993e-08 7.34657e-07 1.68358e-05)
(1.57691e-07 4.64541e-09 2.86761e-08 3.94048e-08 7.27897e-07 1.67918e-05)
(1.59705e-07 3.76125e-09 1.11509e-08 4.1773e-08 7.75362e-07 1.75721e-05)
(1.74874e-07 1.11725e-09 -4.78842e-08 4.27559e-08 7.97646e-07 1.79705e-05)
(1.97266e-07 -1.55037e-09 -1.01356e-07 4.42534e-08 7.96586e-07 1.78651e-05)
(2.02671e-07 -5.78992e-09 -1.29034e-07 4.46326e-08 7.84692e-07 1.75884e-05)
(2.22449e-07 -1.49897e-08 -2.31297e-07 4.49423e-08 8.14201e-07 1.81861e-05)
(1.72744e-07 3.46516e-09 6.74936e-08 4.21183e-08 6.33161e-07 1.18707e-05)
(1.62014e-07 3.66856e-09 7.61029e-08 4.13445e-08 6.5046e-07 1.23497e-05)
(1.64111e-07 7.6172e-09 6.55796e-08 4.72531e-08 7.26886e-07 1.33247e-05)
(1.94632e-07 2.76766e-09 -3.46563e-08 4.96463e-08 7.29432e-07 1.28001e-05)
(2.25671e-07 2.63075e-09 -4.90806e-08 4.48216e-08 6.58457e-07 1.17619e-05)
(1.83608e-07 6.28499e-09 1.39044e-08 4.48097e-08 6.60161e-07 1.19075e-05)
(1.65759e-07 4.8859e-09 2.21068e-08 4.42476e-08 6.54307e-07 1.1895e-05)
(1.68195e-07 3.60425e-09 9.66177e-10 4.67938e-08 6.9851e-07 1.25067e-05)
(1.84798e-07 7.54493e-10 -5.35193e-08 4.78056e-08 7.18185e-07 1.27853e-05)
(2.08751e-07 -1.82122e-09 -1.01328e-07 4.95943e-08 7.17697e-07 1.27058e-05)
(2.13373e-07 -6.37166e-09 -1.22384e-07 5.01494e-08 7.10063e-07 1.2585e-05)
(2.33746e-07 -1.68716e-08 -2.26984e-07 5.07885e-08 7.45987e-07 1.3232e-05)
(1.80933e-07 4.18674e-09 6.84505e-08 4.67394e-08 5.4677e-07 8.06462e-06)
(1.69986e-07 4.18302e-09 7.60231e-08 4.58268e-08 5.64166e-07 8.47758e-06)
(1.72242e-07 8.23465e-09 6.25881e-08 5.25802e-08 6.38673e-07 9.29247e-06)
(2.03547e-07 3.14994e-09 -2.8056e-08 5.52663e-08 6.38549e-07 8.77052e-06)
(2.34366e-07 3.00244e-09 -4.3382e-08 4.97058e-08 5.68741e-07 7.87938e-06)
(1.91437e-07 6.89451e-09 1.29727e-08 4.99208e-08 5.75437e-07 8.0809e-06)
(1.72896e-07 5.10453e-09 1.50122e-08 4.93205e-08 5.70532e-07 8.09315e-06)
(1.75715e-07 3.37575e-09 -8.42387e-09 5.20233e-08 6.10612e-07 8.54725e-06)
(1.93717e-07 3.20267e-10 -5.81945e-08 5.3046e-08 6.27531e-07 8.72131e-06)
(2.19196e-07 -2.08488e-09 -1.007e-07 5.51556e-08 6.27352e-07 8.66227e-06)
(2.22991e-07 -6.91651e-09 -1.14563e-07 5.59238e-08 6.2407e-07 8.6733e-06)
(2.43853e-07 -1.88531e-08 -2.19308e-07 5.69992e-08 6.66375e-07 9.34816e-06)
(1.8815e-07 4.98079e-09 6.76e-08 5.15027e-08 4.52596e-07 5.27199e-06)
(1.77071e-07 4.71685e-09 7.49294e-08 5.04205e-08 4.70105e-07 5.62303e-06)
(1.79526e-07 8.82767e-09 5.87482e-08 5.80772e-08 5.41416e-07 6.28296e-06)
(2.11203e-07 3.5495e-09 -2.2015e-08 6.10787e-08 5.38238e-07 5.77167e-06)
(2.41276e-07 3.38032e-09 -3.84174e-08 5.47281e-08 4.70873e-07 5.02617e-06)
(1.98002e-07 7.50284e-09 1.05318e-08 5.52293e-08 4.82641e-07 5.26511e-06)
(1.78879e-07 5.29847e-09 7.65061e-09 5.45882e-08 4.787e-07 5.29542e-06)
(1.82002e-07 3.07948e-09 -1.66319e-08 5.74189e-08 5.13898e-07 5.60748e-06)
(2.01327e-07 -1.80647e-10 -6.16559e-08 5.84324e-08 5.28033e-07 5.69405e-06)
(2.28268e-07 -2.33149e-09 -9.93977e-08 6.08899e-08 5.27841e-07 5.65045e-06)
(2.3124e-07 -7.40629e-09 -1.05765e-07 6.19128e-08 5.2887e-07 5.76748e-06)
(2.5248e-07 -2.092e-08 -2.08386e-07 6.35503e-08 5.77284e-07 6.44852e-06)
(1.94201e-07 5.84231e-09 6.47921e-08 5.63746e-08 3.53071e-07 3.37562e-06)
(1.83077e-07 5.26259e-09 7.27444e-08 5.50855e-08 3.70753e-07 3.66947e-06)
(1.85777e-07 9.38844e-09 5.41962e-08 6.36964e-08 4.37599e-07 4.18416e-06)
(2.17363e-07 3.9661e-09 -1.66921e-08 6.70361e-08 4.31017e-07 3.6916e-06)
(2.4613e-07 3.75354e-09 -3.43525e-08 5.98481e-08 3.67382e-07 3.08543e-06)
(2.0309e-07 8.0916e-09 6.65472e-09 6.06982e-08 3.84127e-07 3.34345e-06)
(1.83507e-07 5.4656e-09 2.80234e-10 6.0012e-08 3.81137e-07 3.38529e-06)
(1.86813e-07 2.72322e-09 -2.33755e-08 6.29346e-08 4.1083e-07 3.57459e-06)
(2.07344e-07 -7.39506e-10 -6.37433e-08 6.39179e-08 4.2227e-07 3.59115e-06)
(2.35652e-07 -2.5511e-09 -9.74041e-08 6.67456e-08 4.217e-07 3.55903e-06)
(2.37856e-07 -7.82329e-09 -9.62712e-08 6.8069e-08 4.26868e-07 3.75604e-06)
(2.59362e-07 -2.30531e-08 -1.94483e-07 7.04139e-08 4.80865e-07 4.4225e-06)
(1.98923e-07 6.76378e-09 5.99875e-08 6.13232e-08 2.50707e-07 2.24191e-06)
(1.87832e-07 5.81199e-09 6.94414e-08 5.97823e-08 2.6866e-07 2.48357e-06)
(1.90835e-07 9.91141e-09 4.9107e-08 6.93884e-08 3.29826e-07 2.86666e-06)
(2.21828e-07 4.4017e-09 -1.21878e-08 7.30889e-08 3.19541e-07 2.40053e-06)
(2.48728e-07 4.10939e-09 -3.12864e-08 6.5026e-08 2.60885e-07 1.92295e-06)
(2.06537e-07 8.63808e-09 1.50455e-09 6.62886e-08 2.82334e-07 2.18309e-06)
(1.86618e-07 5.60479e-09 -6.85416e-09 6.55502e-08 2.80261e-07 2.23049e-06)
(1.89938e-07 2.3191e-09 -2.84977e-08 6.85219e-08 3.03995e-07 2.31852e-06)
(2.11519e-07 -1.34336e-09 -6.44072e-08 6.94543e-08 3.12936e-07 2.28199e-06)
(2.41069e-07 -2.73451e-09 -9.47671e-08 7.26683e-08 3.11602e-07 2.25864e-06)
(2.42615e-07 -8.15163e-09 -8.64319e-08 7.43422e-08 3.20607e-07 2.51075e-06)
(2.64272e-07 -2.5227e-08 -1.78008e-07 7.75592e-08 3.79404e-07 3.14423e-06)
(2.02192e-07 7.73526e-09 5.32658e-08 6.63196e-08 1.47974e-07 1.73027e-06)
(1.91198e-07 6.35609e-09 6.50492e-08 6.44741e-08 1.66332e-07 1.92471e-06)
(1.94579e-07 1.03938e-08 4.36788e-08 7.51031e-08 2.20708e-07 2.19286e-06)
(2.24454e-07 4.86077e-09 -8.54455e-09 7.91866e-08 2.06489e-07 1.76011e-06)
(2.48956e-07 4.43355e-09 -2.92445e-08 7.02239e-08 1.53963e-07 1.39672e-06)
(2.08238e-07 9.11588e-09 -4.67024e-09 7.19604e-08 1.79685e-07 1.64434e-06)
(1.88106e-07 5.71614e-09 -1.35338e-08 7.11593e-08 1.78481e-07 1.69216e-06)
(1.91229e-07 1.88357e-09 -3.1978e-08 7.41313e-08 1.95989e-07 1.70116e-06)
(2.13664e-07 -1.97513e-09 -6.372e-08 7.49943e-08 2.02714e-07 1.62702e-06)
(2.44305e-07 -2.87441e-09 -9.15974e-08 7.86024e-08 2.00234e-07 1.6111e-06)
(2.45347e-07 -8.37877e-09 -7.66458e-08 8.06806e-08 2.12662e-07 1.89571e-06)
(2.67047e-07 -2.74105e-08 -1.595e-07 8.49525e-08 2.75226e-07 2.4813e-06)
(2.03941e-07 8.74475e-09 4.48188e-08 7.13397e-08 4.71889e-08 1.70153e-06)
(1.93087e-07 6.8854e-09 5.96518e-08 6.91276e-08 6.61165e-08 1.85346e-06)
(1.96934e-07 1.08355e-08 3.8113e-08 8.07915e-08 1.12746e-07 2.02528e-06)
(2.25171e-07 5.35035e-09 -5.75273e-09 8.52793e-08 9.44438e-08 1.6317e-06)
(2.4681e-07 4.71061e-09 -2.81757e-08 7.54078e-08 4.90486e-08 1.3655e-06)
(2.08168e-07 9.49629e-09 -1.155e-08 7.76728e-08 7.8482e-08 1.58895e-06)
(1.87933e-07 5.80124e-09 -1.95751e-08 7.67945e-08 7.8093e-08 1.633e-06)
(1.90609e-07 1.43709e-09 -3.39229e-08 7.97137e-08 8.93071e-08 1.58465e-06)