-0.0075 	0 	0 	0
-0.00715932 	-0.000147928 	-3.018e-05 	0.138116
-0.00676191 	-0.000245392 	-9.21479e-05 	0.219442
-0.00629832 	-0.000271334 	-0.000171768 	0.268294
-0.00575752 	-0.000255872 	-0.000255189 	0.300782
-0.00512667 	-0.000225913 	-0.000333698 	0.325056
-0.00439077 	-0.000195956 	-0.000400847 	0.344194
-0.00353231 	-0.000171472 	-0.000456301 	0.359193
-0.00253089 	-0.000151667 	-0.000502527 	0.370168
-0.00136271 	-0.000133595 	-0.000538861 	0.376858
0 	-0.000116479 	-0.000560196 	0.378678
0.00136271 	-0.00010248 	-0.00056066 	0.375116
0.00253089 	-9.41867e-05 	-0.000539183 	0.366478
0.00353231 	-9.39263e-05 	-0.000498797 	0.353414
0.00439077 	-0.000104216 	-0.000436915 	0.335935
0.00512667 	-0.000126077 	-0.000346539 	0.312897
0.00575752 	-0.000155005 	-0.000229833 	0.28157
0.00629832 	-0.000175372 	-0.000106381 	0.236894
0.00676191 	-0.000155188 	-1.61901e-05 	0.16668
0.00715932 	-7.97461e-05 	9.52921e-06 	0.0737346
0.0075 	0 	0 	0
