0 	0 	0 	0
5.01672e-05 	-2.17834e-05 	-4.44421e-06 	0.0203385
0.000100334 	-4.35668e-05 	-8.88843e-06 	0.040677
0.000150502 	-6.53502e-05 	-1.33326e-05 	0.0610156
0.000200669 	-8.71336e-05 	-1.77769e-05 	0.0813541
0.000250836 	-0.000108917 	-2.22211e-05 	0.101693
0.000301003 	-0.0001307 	-2.66653e-05 	0.122031
0.000351171 	-0.000150501 	-3.1816e-05 	0.140263
0.000401338 	-0.000162805 	-3.96385e-05 	0.150529
0.000451505 	-0.000175108 	-4.7461e-05 	0.160795
0.000501672 	-0.000187411 	-5.52835e-05 	0.171062
0.000551839 	-0.000199714 	-6.3106e-05 	0.181328
0.000602007 	-0.000212018 	-7.09285e-05 	0.191594
0.000652174 	-0.000224321 	-7.8751e-05 	0.20186
0.000702341 	-0.000236624 	-8.65735e-05 	0.212126
0.000752508 	-0.000246198 	-9.46241e-05 	0.220961
0.000802676 	-0.000249006 	-0.00010324 	0.226248
0.000852843 	-0.000251813 	-0.000111856 	0.231534
0.00090301 	-0.000254621 	-0.000120472 	0.236821
0.000953177 	-0.000257428 	-0.000129088 	0.242107
0.00100334 	-0.000260235 	-0.000137704 	0.247394
0.00105351 	-0.000263043 	-0.00014632 	0.25268
0.00110368 	-0.00026585 	-0.000154936 	0.257966
0.00115385 	-0.000268657 	-0.000163552 	0.263253
0.00120401 	-0.000271268 	-0.000172127 	0.268434
0.00125418 	-0.000269833 	-0.000179866 	0.271448
0.00130435 	-0.000268399 	-0.000187605 	0.274461
0.00135452 	-0.000266965 	-0.000195343 	0.277475
0.00140468 	-0.00026553 	-0.000203082 	0.280489
0.00145485 	-0.000264096 	-0.000210821 	0.283503
0.00150502 	-0.000262662 	-0.000218559 	0.286517
0.00155518 	-0.000261227 	-0.000226298 	0.28953
0.00160535 	-0.000259793 	-0.000234037 	0.292544
0.00165552 	-0.000258359 	-0.000241775 	0.295558
0.00170569 	-0.000256924 	-0.000249514 	0.298572
0.00175585 	-0.000255237 	-0.000256854 	0.301297
0.00180602 	-0.000252855 	-0.000263097 	0.303227
0.00185619 	-0.000250472 	-0.00026934 	0.305157
0.00190635 	-0.00024809 	-0.000275584 	0.307088
0.00195652 	-0.000245707 	-0.000281827 	0.309018
0.00200669 	-0.000243325 	-0.00028807 	0.310948
0.00205686 	-0.000240942 	-0.000294313 	0.312879
0.00210702 	-0.00023856 	-0.000300557 	0.314809
0.00215719 	-0.000236177 	-0.0003068 	0.316739
0.00220736 	-0.000233795 	-0.000313043 	0.31867
0.00225753 	-0.000231412 	-0.000319287 	0.3206
0.00230769 	-0.00022903 	-0.00032553 	0.322531
0.00235786 	-0.000226648 	-0.000331773 	0.324461
0.00240803 	-0.0002245 	-0.000336864 	0.325958
0.00245819 	-0.000222458 	-0.000341442 	0.327263
0.00250836 	-0.000220416 	-0.00034602 	0.328568
0.00255853 	-0.000218374 	-0.000350597 	0.329872
0.0026087 	-0.000216332 	-0.000355175 	0.331177
0.00265886 	-0.000214289 	-0.000359752 	0.332482
0.00270903 	-0.000212247 	-0.00036433 	0.333786
0.0027592 	-0.000210205 	-0.000368907 	0.335091
0.00280936 	-0.000208163 	-0.000373485 	0.336396
0.00285953 	-0.000206121 	-0.000378063 	0.3377
0.0029097 	-0.000204079 	-0.00038264 	0.339005
0.00295987 	-0.000202036 	-0.000387218 	0.34031
0.00301003 	-0.000199994 	-0.000391795 	0.341614
0.0030602 	-0.000197952 	-0.000396373 	0.342919
0.00311037 	-0.000195924 	-0.00040092 	0.344214
0.00316054 	-0.000194493 	-0.000404161 	0.345091
0.0032107 	-0.000193062 	-0.000407402 	0.345967
0.00326087 	-0.000191631 	-0.000410642 	0.346844
0.00331104 	-0.0001902 	-0.000413883 	0.34772
0.0033612 	-0.00018877 	-0.000417124 	0.348597
0.00341137 	-0.000187339 	-0.000420364 	0.349473
0.00346154 	-0.000185908 	-0.000423605 	0.35035
0.00351171 	-0.000184477 	-0.000426846 	0.351226
0.00356187 	-0.000183046 	-0.000430086 	0.352103
0.00361204 	-0.000181616 	-0.000433327 	0.352979
0.00366221 	-0.000180185 	-0.000436568 	0.353856
0.00371237 	-0.000178754 	-0.000439808 	0.354732
0.00376254 	-0.000177323 	-0.000443049 	0.355609
0.00381271 	-0.000175893 	-0.000446289 	0.356485
0.00386288 	-0.000174462 	-0.00044953 	0.357362
0.00391304 	-0.000173031 	-0.000452771 	0.358239
0.00396321 	-0.0001716 	-0.000456011 	0.359115
0.00401338 	-0.000170569 	-0.00045841 	0.359694
0.00406355 	-0.000169577 	-0.000460725 	0.360244
0.00411371 	-0.000168584 	-0.000463041 	0.360794
0.00416388 	-0.000167592 	-0.000465357 	0.361343
0.00421405 	-0.0001666 	-0.000467673 	0.361893
0.00426421 	-0.000165608 	-0.000469988 	0.362443
0.00431438 	-0.000164616 	-0.000472304 	0.362993
0.00436455 	-0.000163624 	-0.00047462 	0.363542
0.00441472 	-0.000162632 	-0.000476936 	0.364092
0.00446488 	-0.000161639 	-0.000479251 	0.364642
0.00451505 	-0.000160647 	-0.000481567 	0.365192
0.00456522 	-0.000159655 	-0.000483883 	0.365742
0.00461538 	-0.000158663 	-0.000486199 	0.366291
0.00466555 	-0.000157671 	-0.000488514 	0.366841
0.00471572 	-0.000156679 	-0.00049083 	0.367391
0.00476589 	-0.000155686 	-0.000493146 	0.367941
0.00481605 	-0.000154694 	-0.000495462 	0.368491
0.00486622 	-0.000153702 	-0.000497777 	0.36904
0.00491639 	-0.00015271 	-0.000500093 	0.36959
0.00496656 	-0.000151718 	-0.000502409 	0.37014
0.00501672 	-0.000150931 	-0.000504008 	0.370441
0.00506689 	-0.000150155 	-0.000505568 	0.370728
0.00511706 	-0.000149378 	-0.000507128 	0.371015
0.00516722 	-0.000148602 	-0.000508689 	0.371302
0.00521739 	-0.000147826 	-0.000510249 	0.37159
0.00526756 	-0.00014705 	-0.000511809 	0.371877
0.00531773 	-0.000146274 	-0.00051337 	0.372164
0.00536789 	-0.000145498 	-0.00051493 	0.372452
0.00541806 	-0.000144722 	-0.000516491 	0.372739
0.00546823 	-0.000143946 	-0.000518051 	0.373026
0.00551839 	-0.000143169 	-0.000519611 	0.373314
0.00556856 	-0.000142393 	-0.000521172 	0.373601
0.00561873 	-0.000141617 	-0.000522732 	0.373888
0.0056689 	-0.000140841 	-0.000524292 	0.374175
0.00571906 	-0.000140065 	-0.000525853 	0.374463
0.00576923 	-0.000139289 	-0.000527413 	0.37475
0.0058194 	-0.000138513 	-0.000528974 	0.375037
0.00586957 	-0.000137736 	-0.000530534 	0.375325
0.00591973 	-0.00013696 	-0.000532094 	0.375612
0.0059699 	-0.000136184 	-0.000533655 	0.375899
0.00602007 	-0.000135408 	-0.000535215 	0.376187
0.00607023 	-0.000134632 	-0.000536775 	0.376474
0.0061204 	-0.000133856 	-0.000538336 	0.376761
0.00617057 	-0.000133177 	-0.000539382 	0.376902
0.00622074 	-0.000132546 	-0.000540168 	0.376969
0.0062709 	-0.000131916 	-0.000540953 	0.377036
0.00632107 	-0.000131286 	-0.000541738 	0.377103
0.00637124 	-0.000130656 	-0.000542524 	0.37717
0.0064214 	-0.000130026 	-0.000543309 	0.377237
0.00647157 	-0.000129396 	-0.000544095 	0.377304
0.00652174 	-0.000128766 	-0.00054488 	0.377371
0.00657191 	-0.000128136 	-0.000545666 	0.377438
0.00662207 	-0.000127506 	-0.000546451 	0.377506
0.00667224 	-0.000126875 	-0.000547237 	0.377573
0.00672241 	-0.000126245 	-0.000548022 	0.37764
0.00677258 	-0.000125615 	-0.000548807 	0.377707
0.00682274 	-0.000124985 	-0.000549593 	0.377774
0.00687291 	-0.000124355 	-0.000550378 	0.377841
0.00692308 	-0.000123725 	-0.000551164 	0.377908
0.00697324 	-0.000123095 	-0.000551949 	0.377975
0.00702341 	-0.000122465 	-0.000552735 	0.378042
0.00707358 	-0.000121835 	-0.00055352 	0.378109
0.00712375 	-0.000121205 	-0.000554306 	0.378176
0.00717391 	-0.000120574 	-0.000555091 	0.378243
0.00722408 	-0.000119944 	-0.000555877 	0.37831
0.00727425 	-0.000119314 	-0.000556662 	0.378377
0.00732441 	-0.000118684 	-0.000557447 	0.378444
0.00737458 	-0.000118054 	-0.000558233 	0.378511
0.00742475 	-0.000117424 	-0.000559018 	0.378578
0.00747492 	-0.000116794 	-0.000559804 	0.378645
0.00752508 	-0.000116221 	-0.000560205 	0.378613
0.00757525 	-0.000115706 	-0.000560222 	0.378482
0.00762542 	-0.00011519 	-0.000560239 	0.378351
0.00767559 	-0.000114675 	-0.000560256 	0.378219
0.00772575 	-0.00011416 	-0.000560273 	0.378088
0.00777592 	-0.000113644 	-0.00056029 	0.377957
0.00782609 	-0.000113129 	-0.000560308 	0.377826
0.00787625 	-0.000112614 	-0.000560325 	0.377695
0.00792642 	-0.000112098 	-0.000560342 	0.377564
0.00797659 	-0.000111583 	-0.000560359 	0.377432
0.00802676 	-0.000111068 	-0.000560376 	0.377301
0.00807692 	-0.000110552 	-0.000560393 	0.37717
0.00812709 	-0.000110037 	-0.00056041 	0.377039
0.00817726 	-0.000109521 	-0.000560427 	0.376908
0.00822742 	-0.000109006 	-0.000560444 	0.376777
0.00827759 	-0.000108491 	-0.000560461 	0.376646
0.00832776 	-0.000107975 	-0.000560478 	0.376514
0.00837793 	-0.00010746 	-0.000560495 	0.376383
0.00842809 	-0.000106945 	-0.000560512 	0.376252
0.00847826 	-0.000106429 	-0.00056053 	0.376121
0.00852843 	-0.000105914 	-0.000560547 	0.37599
0.0085786 	-0.000105399 	-0.000560564 	0.375859
0.00862876 	-0.000104883 	-0.000560581 	0.375727
0.00867893 	-0.000104368 	-0.000560598 	0.375596
0.0087291 	-0.000103853 	-0.000560615 	0.375465
0.00877926 	-0.000103337 	-0.000560632 	0.375334
0.00882943 	-0.000102822 	-0.000560649 	0.375203
0.0088796 	-0.00010236 	-0.00056035 	0.374991
0.00892977 	-0.000102004 	-0.000559428 	0.37462
0.00897993 	-0.000101648 	-0.000558505 	0.374249
0.0090301 	-0.000101292 	-0.000557583 	0.373878
0.00908027 	-0.000100935 	-0.000556661 	0.373507
0.00913043 	-0.000100579 	-0.000555738 	0.373136
0.0091806 	-0.000100223 	-0.000554816 	0.372765
0.00923077 	-9.9867e-05 	-0.000553894 	0.372394
0.00928094 	-9.95109e-05 	-0.000552971 	0.372023
0.0093311 	-9.91547e-05 	-0.000552049 	0.371652
0.00938127 	-9.87985e-05 	-0.000551127 	0.371281
0.00943144 	-9.84424e-05 	-0.000550204 	0.37091
0.00948161 	-9.80862e-05 	-0.000549282 	0.370539
0.00953177 	-9.77301e-05 	-0.00054836 	0.370168
0.00958194 	-9.73739e-05 	-0.000547437 	0.369797
0.00963211 	-9.70178e-05 	-0.000546515 	0.369426
0.00968227 	-9.66616e-05 	-0.000545593 	0.369055
0.00973244 	-9.63055e-05 	-0.00054467 	0.368684
0.00978261 	-9.59493e-05 	-0.000543748 	0.368314
0.00983278 	-9.55932e-05 	-0.000542826 	0.367943
0.00988294 	-9.5237e-05 	-0.000541903 	0.367572
0.00993311 	-9.48809e-05 	-0.000540981 	0.367201
0.00998328 	-9.45247e-05 	-0.000540059 	0.36683
0.0100334 	-9.4186e-05 	-0.00053908 	0.366444
0.0100836 	-9.41729e-05 	-0.000537057 	0.36579
0.0101338 	-9.41599e-05 	-0.000535034 	0.365135
0.0101839 	-9.41469e-05 	-0.000533011 	0.364481
0.0102341 	-9.41338e-05 	-0.000530988 	0.363827
0.0102843 	-9.41208e-05 	-0.000528964 	0.363172
0.0103344 	-9.41077e-05 	-0.000526941 	0.362518
0.0103846 	-9.40947e-05 	-0.000524918 	0.361863
0.0104348 	-9.40816e-05 	-0.000522895 	0.361209
0.0104849 	-9.40686e-05 	-0.000520871 	0.360554
0.0105351 	-9.40555e-05 	-0.000518848 	0.3599
0.0105853 	-9.40425e-05 	-0.000516825 	0.359245
0.0106355 	-9.40295e-05 	-0.000514802 	0.358591
0.0106856 	-9.40164e-05 	-0.000512779 	0.357937
0.0107358 	-9.40034e-05 	-0.000510755 	0.357282
0.010786 	-9.39903e-05 	-0.000508732 	0.356628
0.0108361 	-9.39773e-05 	-0.000506709 	0.355973
0.0108863 	-9.39642e-05 	-0.000504686 	0.355319
0.0109365 	-9.39512e-05 	-0.000502663 	0.354664
0.0109866 	-9.39381e-05 	-0.000500639 	0.35401
0.0110368 	-9.398e-05 	-0.000498474 	0.353323
0.011087 	-9.45813e-05 	-0.000494858 	0.352301
0.0111371 	-9.51826e-05 	-0.000491241 	0.35128
0.0111873 	-9.5784e-05 	-0.000487625 	0.350258
0.0112375 	-9.63853e-05 	-0.000484009 	0.349237
0.0112876 	-9.69866e-05 	-0.000480392 	0.348216
0.0113378 	-9.7588e-05 	-0.000476776 	0.347194
0.011388 	-9.81893e-05 	-0.00047316 	0.346173
0.0114381 	-9.87906e-05 	-0.000469543 	0.345151
0.0114883 	-9.93919e-05 	-0.000465927 	0.34413
0.0115385 	-9.99933e-05 	-0.000462311 	0.343108
0.0115886 	-0.000100595 	-0.000458694 	0.342087
0.0116388 	-0.000101196 	-0.000455078 	0.341066
0.011689 	-0.000101797 	-0.000451462 	0.340044
0.0117391 	-0.000102399 	-0.000447845 	0.339023
0.0117893 	-0.000103 	-0.000444229 	0.338001
0.0118395 	-0.000103601 	-0.000440613 	0.33698
0.0118896 	-0.000104203 	-0.000436996 	0.335959
0.0119398 	-0.000105673 	-0.000430893 	0.3344
0.01199 	-0.000107163 	-0.000424732 	0.33283
0.0120401 	-0.000108653 	-0.000418571 	0.331259
0.0120903 	-0.000110143 	-0.00041241 	0.329689
0.0121405 	-0.000111634 	-0.000406249 	0.328118
0.0121906 	-0.000113124 	-0.000400088 	0.326548
0.0122408 	-0.000114614 	-0.000393927 	0.324977
0.012291 	-0.000116104 	-0.000387766 	0.323407
0.0123411 	-0.000117595 	-0.000381605 	0.321836
0.0123913 	-0.000119085 	-0.000375444 	0.320265
0.0124415 	-0.000120575 	-0.000369284 	0.318695
0.0124916 	-0.000122065 	-0.000363123 	0.317124
0.0125418 	-0.000123556 	-0.000356962 	0.315554
0.012592 	-0.000125046 	-0.000350801 	0.313983
0.0126421 	-0.000126786 	-0.000343678 	0.312129
0.0126923 	-0.000129086 	-0.000334397 	0.309638
0.0127425 	-0.000131387 	-0.000325116 	0.307146
0.0127926 	-0.000133687 	-0.000315835 	0.304655
0.0128428 	-0.000135988 	-0.000306555 	0.302164
0.012893 	-0.000138288 	-0.000297274 	0.299673
0.0129431 	-0.000140589 	-0.000287993 	0.297182
0.0129933 	-0.000142889 	-0.000278712 	0.29469
0.0130435 	-0.00014519 	-0.000269431 	0.292199
0.0130936 	-0.00014749 	-0.00026015 	0.289708
0.0131438 	-0.000149791 	-0.00025087 	0.287217
0.013194 	-0.000152091 	-0.000241589 	0.284726
0.0132441 	-0.000154392 	-0.000232308 	0.282234
0.0132943 	-0.000156391 	-0.000221435 	0.278531
0.0133445 	-0.00015828 	-0.000209983 	0.274386
0.0133946 	-0.00016017 	-0.00019853 	0.270242
0.0134448 	-0.000162059 	-0.000187078 	0.266098
0.013495 	-0.000163948 	-0.000175626 	0.261953
0.0135452 	-0.000165838 	-0.000164174 	0.257809
0.0135953 	-0.000167727 	-0.000152721 	0.253664
0.0136455 	-0.000169616 	-0.000141269 	0.24952
0.0136957 	-0.000171505 	-0.000129817 	0.245376
0.0137458 	-0.000173395 	-0.000118365 	0.241231
0.013796 	-0.000175284 	-0.000106913 	0.237087
0.0138462 	-0.000173289 	-9.70741e-05 	0.229649
0.0138963 	-0.000171105 	-8.73142e-05 	0.222051
0.0139465 	-0.000168921 	-7.75544e-05 	0.214453
0.0139967 	-0.000166737 	-6.77945e-05 	0.206855
0.0140468 	-0.000164552 	-5.80346e-05 	0.199256
0.014097 	-0.000162368 	-4.82747e-05 	0.191658
0.0141472 	-0.000160184 	-3.85148e-05 	0.18406
0.0141973 	-0.000158 	-2.8755e-05 	0.176462
0.0142475 	-0.000155816 	-1.89951e-05 	0.168864
0.0142977 	-0.000148402 	-1.38765e-05 	0.158319
0.0143478 	-0.000138878 	-1.06299e-05 	0.146586
0.014398 	-0.000129355 	-7.38318e-06 	0.134853
0.0144482 	-0.000119831 	-4.1365e-06 	0.12312
0.0144983 	-0.000110308 	-8.89824e-07 	0.111387
0.0145485 	-0.000100785 	2.35685e-06 	0.0996544
0.0145987 	-9.12612e-05 	5.60353e-06 	0.0879214
0.0146488 	-8.17378e-05 	8.8502e-06 	0.0761884
0.014699 	-7.04589e-05 	8.41944e-06 	0.0651475
0.0147492 	-5.87158e-05 	7.0162e-06 	0.0542896
0.0147993 	-4.69726e-05 	5.61296e-06 	0.0434317
0.0148495 	-3.52295e-05 	4.20972e-06 	0.0325737
0.0148997 	-2.34863e-05 	2.80648e-06 	0.0217158
0.0149498 	-1.17432e-05 	1.40324e-06 	0.0108579
0.015 	0 	0 	0
