/*--------------------------------*- C++ -*----------------------------------*\
| =========                 |                                                 |
| \\      /  F ield         | OpenFOAM: The Open Source CFD Toolbox           |
|  \\    /   O peration     | Version:  v1906                                 |
|   \\  /    A nd           | Web:      www.OpenFOAM.com                      |
|    \\/     M anipulation  |                                                 |
\*---------------------------------------------------------------------------*/
FoamFile
{
    version     2.0;
    format      ascii;
    class       volScalarField;
    location    "37.6";
    object      k;
}
// * * * * * * * * * * * * * * * * * * * * * * * * * * * * * * * * * * * * * //

dimensions      [0 2 -2 0 0 0 0];


internalField   nonuniform List<scalar> 
2000
(
8.77402e-06
5.46205e-05
0.000126057
0.000165146
0.000170543
0.000172681
0.000170542
0.000165158
0.000126096
5.46796e-05
1.21971e-05
0.00028458
0.000473012
0.000548148
0.000565456
0.000570385
0.000565443
0.000548151
0.000473066
0.000284718
3.92757e-05
0.000800776
0.000846681
0.000865406
0.000882824
0.000887859
0.000882811
0.000865387
0.000846684
0.000800836
0.000201495
0.000945597
0.000877395
0.00087916
0.000891583
0.000896265
0.000891572
0.000879134
0.000877385
0.000945554
0.00072223
0.000898406
0.000781946
0.000789028
0.000798402
0.000803318
0.000798394
0.00078901
0.000781939
0.000898323
0.00129125
0.000839645
0.000670846
0.000676701
0.000684858
0.000689837
0.000684852
0.000676685
0.000670833
0.000839544
0.00152627
0.000783608
0.000567907
0.000562134
0.000567738
0.000572131
0.00056773
0.000562113
0.000567873
0.00078349
0.00139984
0.000716408
0.000479573
0.000457138
0.000459282
0.000462498
0.000459275
0.000457116
0.00047952
0.000716276
0.00112687
0.000631495
0.000416809
0.000389924
0.000391074
0.000393014
0.000391073
0.000389914
0.000416763
0.000631376
0.000856212
0.000539744
0.000405215
0.000396499
0.000400894
0.000402054
0.000400906
0.000396515
0.00040521
0.000539668
3.60686e-05
0.000172127
0.000254985
0.000291059
0.00031065
0.000317116
0.000310663
0.000291088
0.000255057
0.000172203
3.27343e-05
0.000503714
0.000646545
0.000719921
0.000762501
0.00077507
0.000762516
0.000719964
0.000646661
0.000503866
0.000168014
0.000979631
0.00102664
0.00107283
0.00111411
0.0011263
0.00111412
0.00107286
0.0010267
0.000979716
0.000513933
0.00113597
0.00110109
0.0011233
0.00115842
0.00116932
0.00115844
0.00112334
0.0011011
0.00113597
0.000929073
0.00112705
0.00106039
0.00107041
0.00109855
0.00110783
0.00109858
0.00107045
0.00106039
0.001127
0.00121925
0.001034
0.000969622
0.000974408
0.000995848
0.00100357
0.000995879
0.000974454
0.000969611
0.00103394
0.00125036
0.000901574
0.000856171
0.000857966
0.0008737
0.000879892
0.000873736
0.000858017
0.000856164
0.000901523
0.00103807
0.000755337
0.000732315
0.000731399
0.000741979
0.000746432
0.000742017
0.000731449
0.00073231
0.000755294
0.000762869
0.000608209
0.000601434
0.000600301
0.000606948
0.000609694
0.000606982
0.000600343
0.000601429
0.000608174
0.000528105
0.000472164
0.000476368
0.000477234
0.000481248
0.000482609
0.000481272
0.000477263
0.000476366
0.000472142
2.7946e-05
0.000194196
0.000247185
0.000261416
0.000270358
0.000272056
0.000270362
0.000261428
0.000247221
0.000194286
0.000125033
0.000488763
0.000562404
0.000578087
0.000587682
0.000589424
0.000587676
0.000578088
0.00056245
0.000488908
0.000536772
0.000844863
0.000858648
0.000876951
0.000887839
0.000891476
0.00088783
0.000876941
0.000858673
0.000844923
0.000953665
0.000956714
0.000878865
0.000892502
0.000905518
0.000910189
0.000905508
0.000892487
0.000878864
0.000956672
0.00131784
0.000963656
0.000798288
0.000805196
0.000818326
0.000823259
0.000818317
0.000805178
0.000798263
0.000963534
0.00157206
0.000905332
0.000682317
0.000681068
0.000692243
0.000697036
0.000692236
0.000681048
0.000682277
0.000905172
0.00162053
0.000814745
0.000566102
0.000553372
0.000561184
0.000565457
0.000561176
0.000553349
0.000566049
0.000814583
0.00144915
0.000717837
0.000469139
0.000442559
0.000446959
0.000450384
0.000446953
0.000442537
0.000469078
0.000717688
0.00115476
0.000616339
0.000406369
0.000377409
0.000380164
0.00038255
0.000380164
0.0003774
0.000406323
0.000616217
0.000861814
0.000524007
0.000398806
0.00038862
0.000393442
0.000395032
0.000393454
0.000388635
0.0003988
0.000523935
0.000143686
0.000235075
0.000273184
0.000301154
0.000322007
0.000328526
0.000322016
0.000301178
0.000273234
0.000235156
0.000402883
0.000591464
0.000668469
0.000724534
0.000764236
0.000776923
0.000764244
0.00072457
0.000668554
0.00059161
0.000837284
0.000977566
0.0010217
0.00106699
0.00110329
0.00111541
0.0011033
0.00106702
0.00102176
0.000977645
0.00108439
0.00110931
0.00110108
0.00113223
0.0011637
0.00117432
0.00116371
0.00113227
0.00110109
0.0011093
0.00125216
0.00113323
0.00107329
0.00109135
0.0011182
0.00112717
0.00111823
0.00109138
0.00107328
0.00113317
0.00132092
0.0010652
0.000985423
0.000994073
0.00101609
0.00102344
0.00101612
0.00099412
0.000985408
0.0010651
0.00124361
0.000928428
0.000861769
0.000866152
0.000883179
0.000889025
0.000883216
0.000866203
0.000861756
0.000928342
0.00101357
0.000760841
0.00072845
0.000731042
0.000742837
0.000747024
0.000742875
0.000731092
0.000728443
0.000760784
0.000723346
0.000597934
0.000596452
0.00059855
0.000605649
0.000608179
0.000605683
0.000598593
0.000596449
0.0005979
0.000484855
0.000459539
0.000473796
0.0004763
0.000479585
0.000480672
0.000479608
0.000476328
0.000473795
0.000459524
7.98735e-05
0.000219427
0.000258838
0.000263786
0.000268556
0.00026834
0.000268552
0.000263789
0.000258856
0.000219509
0.000225378
0.000481167
0.000568792
0.000576932
0.000584774
0.000585321
0.000584758
0.000576924
0.000568817
0.000481312
0.000658424
0.000764727
0.000836602
0.00085647
0.000866357
0.00086985
0.000866343
0.000856462
0.000836633
0.000764819
0.000961485
0.000846464
0.000848705
0.000869909
0.000880205
0.000884721
0.000880193
0.000869897
0.000848722
0.000846471
0.00120922
0.000883405
0.000783185
0.000795561
0.000805341
0.000809753
0.000805331
0.000795543
0.000783175
0.000883327
0.00139554
0.000885758
0.000686201
0.00068566
0.000694029
0.000698055
0.000694019
0.000685636
0.000686163
0.000885615
0.00147416
0.000838358
0.000576674
0.000559887
0.000565908
0.000569319
0.000565899
0.00055986
0.000576616
0.000838186
0.00139132
0.000745324
0.000473058
0.000442727
0.00044606
0.000448684
0.000446053
0.000442702
0.000472994
0.000745158
0.00115472
0.000628241
0.000402806
0.000371924
0.000374218
0.000376014
0.000374217
0.000371913
0.000402761
0.000628113
0.000862318
0.000522283
0.000393824
0.000383064
0.000387878
0.000389187
0.000387888
0.000383078
0.000393821
0.000522215
0.000262346
0.000249196
0.000275051
0.000298014
0.000316198
0.000322199
0.000316204
0.000298029
0.000275088
0.000249257
0.000662261
0.000611067
0.000667195
0.00071796
0.000757963
0.000771111
0.00075797
0.000717987
0.000667262
0.000611166
0.00105557
0.000986039
0.00102452
0.0010696
0.00110766
0.00112084
0.00110767
0.00106963
0.00102457
0.000986078
0.0011976
0.00109078
0.00109847
0.00113546
0.00116818
0.00117993
0.0011682
0.0011355
0.00109849
0.00109076
0.00123145
0.00108633
0.0010642
0.00109211
0.00111915
0.00112894
0.00111917
0.00109215
0.00106421
0.00108627
0.00118535
0.00101476
0.000974317
0.000993673
0.00101549
0.00102331
0.00101553
0.000993723
0.000974311
0.00101468
0.00105796
0.000895538
0.000855007
0.000867433
0.000884455
0.000890438
0.000884491
0.000867486
0.000854999
0.00089546
0.000856408
0.000747594
0.000725298
0.000732754
0.000744873
0.000749102
0.00074491
0.000732805
0.000725293
0.000747534
0.000628494
0.000593424
0.000594865
0.000599746
0.000606989
0.00060954
0.000607023
0.00059979
0.000594863
0.000593386
0.000437007
0.000457111
0.000473561
0.000477284
0.000480092
0.000481182
0.000480116
0.000477313
0.000473562
0.000457096
8.77019e-05
0.000239668
0.000278621
0.000280286
0.000282827
0.000282236
0.00028282
0.00028028
0.000278623
0.000239718
0.000106474
0.000487795
0.0005842
0.000586353
0.000589672
0.000588766
0.000589653
0.000586333
0.000584207
0.000487901
0.000364346
0.00071864
0.000825149
0.000846932
0.000855096
0.000857433
0.000855082
0.000846922
0.000825186
0.00071874
0.000618923
0.000778401
0.000833506
0.000859469
0.000869943
0.00087406
0.000869932
0.000859459
0.00083354
0.000778442
0.000893385
0.000825021
0.000775515
0.000792959
0.000803102
0.000807725
0.000803093
0.000792943
0.000775518
0.000824974
0.00113881
0.000852079
0.00068908
0.000689983
0.000697742
0.000701933
0.000697733
0.00068996
0.000689047
0.000851958
0.00129728
0.000828871
0.000581553
0.000564345
0.000569083
0.000572508
0.000569075
0.000564317
0.000581495
0.000828708
0.00130379
0.000747275
0.000473027
0.000442119
0.000444295
0.000446838
0.000444288
0.000442093
0.000472961
0.00074711
0.00112592
0.000627872
0.000396685
0.000366457
0.000368363
0.000370093
0.000368361
0.000366444
0.000396639
0.000627744
0.000850277
0.000516215
0.000386513
0.000377285
0.00038241
0.000383716
0.000382421
0.000377298
0.000386512
0.00051615
0.000309209
0.000231202
0.000256265
0.000277306
0.0002945
0.000300375
0.000294503
0.000277316
0.0002563
0.000231259
0.000870993
0.000607352
0.000650757
0.000694637
0.000733376
0.000746325
0.000733381
0.000694659
0.000650825
0.000607459
0.00130732
0.000986691
0.00100897
0.00105103
0.00108942
0.00110294
0.00108943
0.00105107
0.00100903
0.000986742
0.0013747
0.00104602
0.00106583
0.00110832
0.00114196
0.00115437
0.00114198
0.00110837
0.00106587
0.00104602
0.00126627
0.000996875
0.00101905
0.00105937
0.00108796
0.00109859
0.00108798
0.00105943
0.00101908
0.000996856
0.00107703
0.000913469
0.000936588
0.000969521
0.000993038
0.00100163
0.000993071
0.000969578
0.000936605
0.000913438
0.000862528
0.000816864
0.000835761
0.000858358
0.000876633
0.000883162
0.000876669
0.000858414
0.000835766
0.000816825
0.000666391
0.000707208
0.000719775
0.00073319
0.000746045
0.00075059
0.000746083
0.000733242
0.000719774
0.000707165
0.000514513
0.000583223
0.000595602
0.000603185
0.000610725
0.000613405
0.000610759
0.000603229
0.000595601
0.000583186
0.000390711
0.000458237
0.000476565
0.000481196
0.00048388
0.000484944
0.000483904
0.000481226
0.000476567
0.000458219
0.000109958
0.000253325
0.00029865
0.000304417
0.000309798
0.000310814
0.000309792
0.000304414
0.000298655
0.000253369
0.000103492
0.000500174
0.00061276
0.000617847
0.00061964
0.000618951
0.00061962
0.000617827
0.000612766
0.00050027
0.000168738
0.00071942
0.000855112
0.000878527
0.00088758
0.000889234
0.000887567
0.000878517
0.000855151
0.000719531
0.00030078
0.000792846
0.000865453
0.000890369
0.000902457
0.000906121
0.000902448
0.00089036
0.000865485
0.000792888
0.000618966
0.00083655
0.000801442
0.000817896
0.000828844
0.000833545
0.000828838
0.000817884
0.000801447
0.000836497
0.000965462
0.00084436
0.000696375
0.000699625
0.000707408
0.000712063
0.000707402
0.000699606
0.00069635
0.000844234
0.00121089
0.000803706
0.00057489
0.000562399
0.000566818
0.000570788
0.000566811
0.000562375
0.000574841
0.000803546
0.0012546
0.000717623
0.000462935
0.000437098
0.000439087
0.000442093
0.00043908
0.000437073
0.000462877
0.000717467
0.00108646
0.000605957
0.000388823
0.000362545
0.000364607
0.000366653
0.000364605
0.000362533
0.000388781
0.000605837
0.000830877
0.000506006
0.000381283
0.000374381
0.000379911
0.00038139
0.000379921
0.000374395
0.000381282
0.000505945
0.000145026
0.000109086
0.000150387
0.000182428
0.000199777
0.000205148
0.000199778
0.000182439
0.000150429
0.000109159
0.000851141
0.00044679
0.000475177
0.00052065
0.000562515
0.000576113
0.000562519
0.000520666
0.000475239
0.00044691
0.00134905
0.000850737
0.000874096
0.00092026
0.000957306
0.000970159
0.000957318
0.000920292
0.000874161
0.000850846
0.00152276
0.00091787
0.00096638
0.00101736
0.00105087
0.00106232
0.00105089
0.00101741
0.000966443
0.000917969
0.00135918
0.000901385
0.000963266
0.00100983
0.00103991
0.00104995
0.00103993
0.00100989
0.000963316
0.000901455
0.0010643
0.000852954
0.000916244
0.000952936
0.000978161
0.000986623
0.000978193
0.000952994
0.000916273
0.000852984
0.000766979
0.000787712
0.000834868
0.000858916
0.000877845
0.000884426
0.000877881
0.000858972
0.000834877
0.000787701
0.000566823
0.000700142
0.000724355
0.000738036
0.000750774
0.000755345
0.000750812
0.000738089
0.000724355
0.000700103
0.000458538
0.000585918
0.000599868
0.000607629
0.000615022
0.000617661
0.000615056
0.000607674
0.000599867
0.000585875
0.000371084
0.000461907
0.000480383
0.000485099
0.000487878
0.000488861
0.000487903
0.00048513
0.000480385
0.000461884
0.000638535
0.000482575
0.000462304
0.000481373
0.000491026
0.000492235
0.000491049
0.000481411
0.000462344
0.000482562
0.000520663
0.00050351
0.000568809
0.000606719
0.000620667
0.000622469
0.000620691
0.000606763
0.000568877
0.000503551
0.000520156
0.000592627
0.000697756
0.000745956
0.000763011
0.000765657
0.00076303
0.000745996
0.000697836
0.000592697
0.000612226
0.000721849
0.000830967
0.000881468
0.000899402
0.000902746
0.000899413
0.000881499
0.000831045
0.000721926
0.000742301
0.00084083
0.00092973
0.000974323
0.000989772
0.000993116
0.000989773
0.000974339
0.000929793
0.000840894
0.000836175
0.000893853
0.000950319
0.000983873
0.000994666
0.000997478
0.000994659
0.000983873
0.000950352
0.000893892
0.000838596
0.000846336
0.000868474
0.00088842
0.000893235
0.000895028
0.00089322
0.000888402
0.000868468
0.000846346
0.000699712
0.000662688
0.000647873
0.000654473
0.000652957
0.000652987
0.000652935
0.000654441
0.000647836
0.000662673
0.000130228
0.000114702
0.000107125
0.000109476
0.000109362
0.000109336
0.000109358
0.000109471
0.000107119
0.000114698
6.30738e-05
6.03138e-05
5.90453e-05
6.09113e-05
6.16948e-05
6.19248e-05
6.16955e-05
6.09133e-05
5.90475e-05
6.03158e-05
0.000396232
0.000388301
0.000399096
0.000403398
0.00040624
0.000407166
0.000406246
0.000403406
0.000399098
0.000388306
0.000395364
0.000405331
0.000419099
0.00042909
0.000433559
0.000435644
0.000433549
0.000429084
0.000419107
0.000405368
0.000490175
0.00050438
0.000522116
0.000539887
0.000548045
0.000552194
0.000548031
0.000539881
0.000522131
0.000504439
0.000629363
0.000641552
0.000661342
0.000684701
0.000696126
0.000702377
0.000696117
0.000684702
0.000661358
0.000641615
0.00076629
0.000768307
0.000788975
0.000815631
0.000829609
0.000837637
0.000829608
0.00081564
0.000788986
0.000768363
0.000859294
0.000853677
0.000877541
0.000907569
0.000924918
0.000934573
0.000924926
0.000907587
0.000877551
0.000853722
0.000880344
0.000870939
0.000902841
0.000938048
0.000959225
0.000969794
0.000959242
0.000938077
0.00090286
0.000870975
0.000752907
0.000746532
0.000792549
0.00083182
0.000855767
0.000865727
0.000855792
0.000831861
0.000792581
0.000746561
0.000115942
0.000109225
0.000130082
0.000143887
0.000152328
0.000156443
0.000152345
0.000143909
0.000130091
0.000109232
3.36868e-05
3.22746e-05
3.62768e-05
3.96022e-05
4.16521e-05
4.25482e-05
4.16563e-05
3.96081e-05
3.62808e-05
3.22768e-05
0.000638696
0.000479927
0.000462423
0.00048051
0.00048962
0.000490985
0.000489642
0.000480546
0.000462463
0.000479921
0.000530237
0.000516043
0.000575177
0.000612422
0.000625072
0.000626696
0.000625096
0.000612466
0.000575244
0.000516088
0.000538814
0.000609213
0.000702453
0.000748606
0.000763561
0.00076577
0.000763582
0.000748647
0.000702529
0.000609282
0.000618905
0.000719612
0.000816314
0.000863277
0.000879147
0.000881881
0.00087916
0.000863307
0.000816386
0.000719681
0.000715914
0.000807916
0.000889794
0.000931499
0.000946501
0.000949223
0.000946502
0.000931512
0.000889853
0.000807972
0.000797003
0.000859547
0.00091851
0.000951481
0.000963654
0.000965033
0.000963637
0.000951472
0.000918549
0.000859581
0.00082783
0.000853591
0.000886566
0.000908656
0.000918127
0.000918621
0.000918097
0.000908631
0.000886578
0.0008536
0.000735732
0.00071433
0.000720218
0.000725854
0.000729183
0.000729157
0.000729145
0.000725811
0.000720189
0.000714306
0.000102378
9.48917e-05
0.000102374
0.000103617
0.000105682
0.000106423
0.000105677
0.000103613
0.000102365
9.48852e-05
2.16751e-05
1.99019e-05
2.25116e-05
2.36861e-05
2.46215e-05
2.50589e-05
2.46219e-05
2.36869e-05
2.25105e-05
1.9901e-05
0.00037004
0.000381754
0.000398231
0.000402396
0.000403706
0.000404306
0.000403711
0.000402404
0.000398233
0.000381764
0.000388282
0.000400849
0.000414827
0.000423923
0.000426893
0.000428687
0.000426883
0.000423917
0.000414835
0.000400887
0.000481676
0.000489134
0.000502099
0.000517625
0.000524544
0.00052828
0.000524529
0.000517618
0.000502113
0.000489189
0.000601008
0.000603258
0.000615316
0.00063521
0.000645806
0.000651129
0.000645792
0.000635207
0.000615329
0.000603317
0.000725008
0.000723749
0.000735456
0.000758459
0.000772003
0.000778251
0.000771992
0.000758458
0.00073547
0.000723804
0.000847141
0.000846549
0.000858201
0.00088455
0.000901154
0.000908015
0.000901148
0.000884554
0.000858221
0.000846598
0.000940495
0.000947143
0.000963503
0.000995295
0.00101591
0.00102351
0.00101591
0.000995307
0.000963535
0.000947185
0.000864887
0.00087423
0.000909817
0.000947448
0.000973287
0.00098124
0.000973301
0.00094748
0.000909864
0.000874262
0.000129853
0.000133592
0.000149732
0.000160857
0.000171417
0.000174185
0.000171426
0.000160876
0.000149751
0.000133601
2.23982e-05
2.27799e-05
2.65152e-05
2.88303e-05
3.09955e-05
3.16549e-05
3.09979e-05
2.88348e-05
2.65189e-05
2.27814e-05
0.000635781
0.000477015
0.000460531
0.000478109
0.000487224
0.000488576
0.000487245
0.000478144
0.000460572
0.000477014
0.000532353
0.000515068
0.000573244
0.000609386
0.000621626
0.000623283
0.00062165
0.00060943
0.000573308
0.000515116
0.000540904
0.000606373
0.000697047
0.000741244
0.000755156
0.000757238
0.000755178
0.000741284
0.000697119
0.000606442
0.000626377
0.000724023
0.000817625
0.000862521
0.00087692
0.000879407
0.000876933
0.000862549
0.000817693
0.00072409
0.000752613
0.000847775
0.000927107
0.000969228
0.000983389
0.000986008
0.000983389
0.000969236
0.000927165
0.000847829
0.000876069
0.000956444
0.00100982
0.0010468
0.00105971
0.00106223
0.00105969
0.00104679
0.00100987
0.00095648
0.000943332
0.000989768
0.00101702
0.00104668
0.00105705
0.00105906
0.00105702
0.00104665
0.00101704
0.00098978
0.000816117
0.000819585
0.000829048
0.000843556
0.000849524
0.000850477
0.000849488
0.000843507
0.000829034
0.000819566
0.0001239
0.000122865
0.000124886
0.000126513
0.000128252
0.00012836
0.000128243
0.000126502
0.00012488
0.000122859
1.98178e-05
1.90758e-05
2.02182e-05
2.06151e-05
2.11991e-05
2.13533e-05
2.11985e-05
2.06147e-05
2.02176e-05
1.9075e-05
0.00034844
0.000379351
0.000398142
0.000402068
0.000402365
0.000402933
0.000402371
0.000402077
0.000398144
0.000379363
0.000378829
0.000396763
0.000412858
0.000421004
0.000423058
0.000424828
0.000423048
0.000420999
0.000412866
0.000396802
0.000479847
0.000488093
0.000502674
0.000517312
0.00052376
0.000527448
0.000523743
0.000517304
0.000502688
0.000488149
0.000611671
0.00061735
0.000628136
0.000647758
0.0006583
0.00066349
0.000658285
0.000647751
0.000628152
0.000617411
0.00075346
0.000758105
0.000764564
0.000789377
0.00080349
0.000809672
0.000803479
0.000789374
0.000764582
0.000758165
0.000887674
0.000894043
0.00089952
0.000930894
0.000948629
0.000955809
0.000948625
0.000930896
0.000899543
0.000894097
0.000967812
0.000978686
0.00099536
0.00103454
0.00105738
0.00106604
0.00105739
0.00103455
0.000995393
0.000978731
0.000855896
0.000873505
0.000910674
0.000954737
0.000983122
0.000992283
0.00098314
0.00095477
0.000910721
0.000873536
0.000133067
0.00014107
0.00015351
0.00016847
0.000179074
0.000181695
0.000179082
0.000168484
0.00015353
0.000141078
2.31735e-05
2.45039e-05
2.71134e-05
2.96166e-05
3.16189e-05
3.20957e-05
3.16207e-05
2.96198e-05
2.71173e-05
2.45053e-05
0.000631087
0.000473015
0.000457134
0.000475473
0.00048518
0.000486583
0.0004852
0.000475508
0.000457176
0.000473017
0.000537465
0.000517051
0.000573792
0.000608998
0.000621702
0.000623359
0.000621725
0.00060904
0.000573856
0.000517099
0.000553692
0.000615672
0.000701617
0.000743103
0.00075689
0.000758817
0.00075691
0.00074314
0.000701686
0.000615738
0.000651002
0.000745408
0.000833722
0.000876972
0.000890861
0.00089322
0.000890873
0.000876997
0.000833786
0.000745474
0.00079553
0.000893583
0.000972107
0.00101404
0.0010275
0.00103066
0.00102751
0.00101405
0.000972161
0.000893636
0.000944656
0.00102583
0.00108711
0.00112596
0.00113885
0.00114306
0.00113884
0.00112595
0.00108715
0.00102586
0.0010072
0.00105637
0.00109983
0.00113228
0.00114385
0.00114838
0.00114383
0.00113226
0.00109985
0.00105638
0.000840483
0.000851965
0.000873007
0.000891701
0.000898568
0.000901214
0.000898538
0.000891654
0.000872999
0.000851951
0.000128465
0.000129027
0.00013156
0.000134784
0.00013605
0.00013632
0.000136042
0.00013477
0.000131554
0.000129022
1.93488e-05
1.89167e-05
1.94424e-05
2.00253e-05
2.04311e-05
2.05018e-05
2.04301e-05
2.00238e-05
1.94416e-05
1.89158e-05
0.000327631
0.000381185
0.000401636
0.00040454
0.000404097
0.000404463
0.000404104
0.000404549
0.000401638
0.000381195
0.000370127
0.00040023
0.000417078
0.000422316
0.000423177
0.000424703
0.000423166
0.00042231
0.000417082
0.000400269
0.000488235
0.000503121
0.000519599
0.000532189
0.000537803
0.000541464
0.000537786
0.00053218
0.000519611
0.000503179
0.000647693
0.000660149
0.000676246
0.000697204
0.00070802
0.000713502
0.000708006
0.000697199
0.000676266
0.000660214
0.000813654
0.000825667
0.000838521
0.000866483
0.000881939
0.000888921
0.000881932
0.000866484
0.000838548
0.000825732
0.000940065
0.000950373
0.000961106
0.000995812
0.00101586
0.0010243
0.00101586
0.000995823
0.000961138
0.00095043
0.000973414
0.000984932
0.00100291
0.00104424
0.00106945
0.00107913
0.00106946
0.00104426
0.00100295
0.00098498
0.000825943
0.000844545
0.000876094
0.000920277
0.000948987
0.000958543
0.00094901
0.000920312
0.000876143
0.00084458
0.00013517
0.000144762
0.000155625
0.000171436
0.000182168
0.000185083
0.000182176
0.000171449
0.000155645
0.000144771
2.51214e-05
2.70817e-05
2.95547e-05
3.25198e-05
3.46808e-05
3.5253e-05
3.46826e-05
3.25227e-05
2.95586e-05
2.70831e-05
0.000628979
0.000470465
0.000454824
0.000474349
0.000484651
0.000486175
0.000484671
0.000474384
0.000454866
0.000470468
0.000547812
0.000522107
0.000579075
0.000615178
0.000628794
0.000630612
0.000628816
0.000615219
0.00057914
0.000522156
0.000575429
0.000633376
0.000719362
0.00076179
0.000776573
0.000778643
0.000776591
0.000761827
0.000719434
0.000633444
0.000676977
0.000768105
0.000854653
0.000898697
0.000913245
0.000915745
0.000913258
0.000898722
0.000854721
0.000768171
0.000804494
0.000893517
0.000971199
0.0010134
0.00102692
0.00103038
0.00102692
0.00101341
0.000971254
0.000893569
0.000924208
0.000994871
0.00106194
0.00110018
0.0011122
0.00111688
0.0011122
0.00110018
0.00106197
0.000994904
0.000988499
0.00103197
0.00108575
0.00111523
0.00112399
0.0011287
0.00112397
0.00111521
0.00108576
0.00103197
0.000851637
0.000863616
0.000888799
0.000901593
0.000903113
0.000904778
0.000903076
0.000901553
0.000888779
0.000863594
0.000122222
0.00012106
0.000123817
0.000126032
0.000125772
0.00012593
0.000125762
0.000126021
0.000123808
0.000121056
1.70201e-05
1.65042e-05
1.68788e-05
1.77541e-05
1.81262e-05
1.82291e-05
1.8125e-05
1.7753e-05
1.68778e-05
1.65038e-05
0.000314631
0.000383188
0.000405561
0.000407972
0.000407629
0.000407859
0.000407636
0.000407981
0.000405562
0.000383197
0.00035921
0.000404508
0.000422237
0.00042566
0.000426112
0.000427402
0.000426102
0.000425652
0.000422239
0.000404547
0.000481591
0.000508619
0.000526032
0.000537153
0.000542349
0.000545947
0.000542335
0.000537144
0.00052604
0.000508678
0.000649584
0.000670703
0.000694096
0.000716
0.000727527
0.000733813
0.000727519
0.000716
0.000694115
0.000670771
0.000841782
0.000867902
0.000897557
0.000927784
0.000944956
0.000953503
0.000944955
0.000927793
0.000897588
0.00086797
0.00102153
0.0010534
0.00108216
0.00111546
0.00113635
0.00114579
0.00113636
0.00111548
0.0010822
0.00105346
0.00111209
0.00114294
0.00116393
0.00119696
0.00121991
0.0012288
0.00121992
0.00119698
0.00116398
0.00114298
0.00100201
0.00102124
0.00103272
0.00106764
0.00109286
0.00110122
0.00109288
0.00106767
0.00103277
0.00102127
0.000283907
0.000297029
0.000299708
0.00031234
0.000323431
0.00032703
0.000323438
0.000312351
0.000299735
0.000297031
8.48527e-05
9.17077e-05
9.77067e-05
0.000101866
0.000105348
0.000106538
0.000105351
0.000101871
9.77147e-05
9.171e-05
)
;

boundaryField
{
    leftWall
    {
        type            kqRWallFunction;
        value           nonuniform List<scalar> 
100
(
8.77402e-06
3.60686e-05
2.7946e-05
0.000143686
7.98735e-05
0.000262346
8.77019e-05
0.000309209
0.000109958
0.000145026
5.46205e-05
0.000172127
0.000194196
0.000235075
0.000219427
0.000249196
0.000239668
0.000231202
0.000253325
0.000109086
0.000126057
0.000254985
0.000247185
0.000273184
0.000258838
0.000275051
0.000278621
0.000256265
0.00029865
0.000150387
0.000165146
0.000291059
0.000261416
0.000301154
0.000263786
0.000298014
0.000280286
0.000277306
0.000304417
0.000182428
0.000170543
0.00031065
0.000270358
0.000322007
0.000268556
0.000316198
0.000282827
0.0002945
0.000309798
0.000199777
0.000172681
0.000317116
0.000272056
0.000328526
0.00026834
0.000322199
0.000282236
0.000300375
0.000310814
0.000205148
0.000170542
0.000310663
0.000270362
0.000322016
0.000268552
0.000316204
0.00028282
0.000294503
0.000309792
0.000199778
0.000165158
0.000291088
0.000261428
0.000301178
0.000263789
0.000298029
0.00028028
0.000277316
0.000304414
0.000182439
0.000126096
0.000255057
0.000247221
0.000273234
0.000258856
0.000275088
0.000278623
0.0002563
0.000298655
0.000150429
5.46796e-05
0.000172203
0.000194286
0.000235156
0.000219509
0.000249257
0.000239718
0.000231259
0.000253369
0.000109159
)
;
    }
    rightWall
    {
        type            kqRWallFunction;
        value           nonuniform List<scalar> 
100
(
6.30738e-05
3.36868e-05
2.16751e-05
2.23982e-05
1.98178e-05
2.31735e-05
1.93488e-05
2.51214e-05
1.70201e-05
8.48527e-05
6.03138e-05
3.22746e-05
1.99019e-05
2.27799e-05
1.90758e-05
2.45039e-05
1.89167e-05
2.70817e-05
1.65042e-05
9.17077e-05
5.90453e-05
3.62768e-05
2.25116e-05
2.65152e-05
2.02182e-05
2.71134e-05
1.94424e-05
2.95547e-05
1.68788e-05
9.77067e-05
6.09113e-05
3.96022e-05
2.36861e-05
2.88303e-05
2.06151e-05
2.96166e-05
2.00253e-05
3.25198e-05
1.77541e-05
0.000101866
6.16948e-05
4.16521e-05
2.46215e-05
3.09955e-05
2.11991e-05
3.16189e-05
2.04311e-05
3.46808e-05
1.81262e-05
0.000105348
6.19248e-05
4.25482e-05
2.50589e-05
3.16549e-05
2.13533e-05
3.20957e-05
2.05018e-05
3.5253e-05
1.82291e-05
0.000106538
6.16955e-05
4.16563e-05
2.46219e-05
3.09979e-05
2.11985e-05
3.16207e-05
2.04301e-05
3.46826e-05
1.8125e-05
0.000105351
6.09133e-05
3.96081e-05
2.36869e-05
2.88348e-05
2.06147e-05
2.96198e-05
2.00238e-05
3.25227e-05
1.7753e-05
0.000101871
5.90475e-05
3.62808e-05
2.25105e-05
2.65189e-05
2.02176e-05
2.71173e-05
1.94416e-05
2.95586e-05
1.68778e-05
9.77147e-05
6.03158e-05
3.22768e-05
1.9901e-05
2.27814e-05
1.9075e-05
2.45053e-05
1.89158e-05
2.70831e-05
1.65038e-05
9.171e-05
)
;
    }
    leftSides_periodic0
    {
        type            cyclic;
    }
    leftSides_periodic1
    {
        type            cyclic;
    }
    rightSides_periodic0
    {
        type            cyclic;
    }
    rightSides_periodic1
    {
        type            cyclic;
    }
    leftInOut_periodic0
    {
        type            cyclic;
    }
    leftInOut_periodic1
    {
        type            cyclic;
    }
    rightInOut_periodic0
    {
        type            cyclic;
    }
    rightInOut_periodic1
    {
        type            cyclic;
    }
}


// ************************************************************************* //
