/*--------------------------------*- C++ -*----------------------------------*\
| =========                 |                                                 |
| \\      /  F ield         | OpenFOAM: The Open Source CFD Toolbox           |
|  \\    /   O peration     | Version:  v1906                                 |
|   \\  /    A nd           | Web:      www.OpenFOAM.com                      |
|    \\/     M anipulation  |                                                 |
\*---------------------------------------------------------------------------*/
FoamFile
{
    version     2.0;
    format      ascii;
    class       volScalarField;
    location    "37.6";
    object      pPrime2Mean;
}
// * * * * * * * * * * * * * * * * * * * * * * * * * * * * * * * * * * * * * //

dimensions      [2 -2 -4 0 0 0 0];


internalField   nonuniform List<scalar> 
2000
(
-3.24249e-05
0.13756
0.156338
0.18894
0.211807
0.220013
0.211433
0.188414
0.15591
0.1373
0.0116577
0.13763
0.155584
0.187857
0.210987
0.219151
0.21056
0.187399
0.155012
0.137436
0.00954247
0.142681
0.156548
0.189091
0.212143
0.220495
0.211887
0.188488
0.155972
0.142332
0.0607681
0.138798
0.15934
0.192232
0.215574
0.224014
0.215263
0.191759
0.158966
0.138569
0.0324879
0.141813
0.164839
0.197403
0.22086
0.229441
0.220533
0.197012
0.16419
0.141623
0.0477676
0.148727
0.17235
0.204544
0.227997
0.236639
0.227659
0.204147
0.171915
0.148497
0.0745716
0.15814
0.182526
0.214161
0.237265
0.245962
0.237026
0.213688
0.182087
0.157848
0.102348
0.170031
0.195938
0.226046
0.249138
0.257719
0.248823
0.225655
0.195507
0.169847
0.130203
0.186352
0.212999
0.241367
0.263592
0.272102
0.263336
0.241032
0.212536
0.186045
0.163952
0.207241
0.233253
0.259405
0.280109
0.288412
0.279861
0.258995
0.232924
0.207052
0.305536
0.179642
0.103601
0.0974121
0.105368
0.109951
0.105328
0.0972996
0.103493
0.179485
0.305593
0.178053
0.101963
0.0957832
0.103729
0.108164
0.103395
0.0955315
0.101624
0.177935
0.302128
0.175428
0.100401
0.0945129
0.102365
0.107006
0.102322
0.0942497
0.100214
0.175348
0.283777
0.172077
0.0993042
0.0938148
0.102032
0.106647
0.102007
0.0937366
0.0991611
0.1719
0.276043
0.167576
0.0982533
0.093565
0.102104
0.10677
0.10194
0.093298
0.0980015
0.16748
0.273493
0.160185
0.0967693
0.0930595
0.10206
0.106852
0.102055
0.0928364
0.0965195
0.160177
0.257296
0.149736
0.0950031
0.0924129
0.1021
0.107029
0.102106
0.0923119
0.094862
0.149639
0.222736
0.136963
0.0929794
0.0920906
0.102486
0.107487
0.102255
0.0918255
0.0928307
0.136873
0.182262
0.123386
0.0910606
0.091917
0.10294
0.108204
0.1028
0.0917473
0.0908699
0.123398
0.145533
0.110647
0.0893574
0.092247
0.103428
0.108751
0.103424
0.0920162
0.0892048
0.11067
0.374199
0.376232
0.365597
0.367285
0.37159
0.37199
0.371431
0.367075
0.365458
0.37604
0.367712
0.369806
0.359278
0.360907
0.365334
0.3657
0.365171
0.360668
0.359118
0.369791
0.362312
0.364393
0.35383
0.355551
0.359915
0.360262
0.359844
0.355358
0.353771
0.364235
0.358839
0.362276
0.351759
0.353624
0.357979
0.358379
0.357903
0.353392
0.351604
0.362057
0.357779
0.362328
0.352253
0.354017
0.358555
0.358845
0.358387
0.353895
0.352005
0.3622
0.355751
0.361334
0.351852
0.353689
0.358353
0.358696
0.358131
0.353561
0.351795
0.361246
0.352835
0.359421
0.351328
0.352915
0.357552
0.358017
0.357454
0.352737
0.351223
0.359295
0.3493
0.356749
0.350576
0.351942
0.356709
0.357269
0.356586
0.351828
0.350533
0.356619
0.345676
0.353733
0.349955
0.351265
0.355986
0.35668
0.355873
0.351004
0.349688
0.353596
0.342773
0.350813
0.349482
0.350737
0.355768
0.356501
0.355495
0.350517
0.349501
0.350771
0.799496
0.83169
0.808594
0.813372
0.817427
0.816183
0.817295
0.813328
0.808741
0.831829
0.789442
0.821568
0.798452
0.803318
0.807278
0.806189
0.807356
0.803328
0.798662
0.821709
0.781902
0.813358
0.790497
0.795248
0.799353
0.79812
0.799387
0.795389
0.790524
0.813499
0.780725
0.810596
0.78817
0.793041
0.797157
0.795866
0.797123
0.792936
0.788279
0.810625
0.784332
0.811659
0.790098
0.794712
0.799021
0.797718
0.799009
0.794746
0.790121
0.811739
0.786942
0.811157
0.790859
0.795158
0.799786
0.798531
0.799816
0.795212
0.791134
0.811443
0.788183
0.809658
0.791281
0.794794
0.799753
0.798532
0.799801
0.794905
0.791338
0.809818
0.788122
0.806856
0.790913
0.793737
0.799238
0.798027
0.799204
0.793802
0.790928
0.806839
0.78713
0.802912
0.790123
0.79237
0.798216
0.797468
0.798248
0.792349
0.790199
0.803022
0.785379
0.798262
0.789299
0.791059
0.797304
0.796753
0.797318
0.791157
0.789383
0.798338
1.6466
1.6697
1.63182
1.62688
1.61785
1.6114
1.61792
1.62705
1.63199
1.66984
1.63221
1.65495
1.6168
1.61226
1.6033
1.59682
1.60329
1.61231
1.61693
1.65503
1.6202
1.64279
1.60483
1.60064
1.59167
1.58534
1.59162
1.60073
1.6049
1.64286
1.61555
1.6386
1.60105
1.59732
1.58851
1.58203
1.58853
1.59742
1.60118
1.63873
1.61694
1.64046
1.60354
1.59989
1.59136
1.58474
1.59127
1.59997
1.6036
1.64061
1.61789
1.64084
1.60473
1.60095
1.59254
1.58594
1.59248
1.60106
1.60475
1.64103
1.61895
1.6402
1.60518
1.60087
1.59294
1.58625
1.59293
1.601
1.6053
1.64026
1.61879
1.63802
1.60526
1.59986
1.59258
1.58581
1.59263
1.59998
1.60531
1.63822
1.6177
1.63442
1.60503
1.59825
1.59159
1.58465
1.59163
1.59833
1.60502
1.63461
1.61586
1.62943
1.60427
1.59598
1.58981
1.5831
1.58994
1.59589
1.60438
1.62953
2.81513
2.78475
2.78286
2.80435
2.80997
2.81319
2.81009
2.80455
2.7831
2.78491
2.79488
2.76509
2.76296
2.78435
2.78997
2.79331
2.78992
2.78453
2.76318
2.7653
2.77795
2.74969
2.74728
2.76877
2.77425
2.77767
2.77437
2.76894
2.74749
2.74978
2.77193
2.74578
2.74315
2.76483
2.77035
2.77379
2.77049
2.76517
2.74333
2.74594
2.7729
2.75012
2.747
2.76936
2.77507
2.77837
2.77524
2.76961
2.74723
2.75019
2.77158
2.7522
2.7488
2.77201
2.77793
2.78115
2.77809
2.77221
2.74894
2.75229
2.76918
2.7528
2.7494
2.77342
2.77991
2.78302
2.78
2.77359
2.74961
2.75305
2.76514
2.75238
2.74934
2.77413
2.78133
2.78427
2.78132
2.77421
2.74952
2.75259
2.75952
2.7513
2.74896
2.77438
2.78258
2.78538
2.78265
2.77443
2.74917
2.75143
2.75304
2.74952
2.74868
2.77388
2.78356
2.78613
2.78362
2.77399
2.74875
2.74942
4.18365
4.24212
4.20776
4.18007
4.15386
4.1432
4.15381
4.18022
4.20763
4.24198
4.15886
4.21558
4.18113
4.15394
4.12744
4.11707
4.12764
4.15394
4.18118
4.21558
4.14075
4.19476
4.15972
4.13277
4.10644
4.0959
4.10648
4.13293
4.15969
4.19473
4.13984
4.18837
4.15316
4.12622
4.09985
4.08936
4.09985
4.12619
4.1531
4.18824
4.15158
4.1931
4.15748
4.13038
4.1039
4.09332
4.10397
4.13042
4.15759
4.19309
4.16067
4.1954
4.15962
4.13159
4.10505
4.09439
4.1051
4.13153
4.15953
4.19531
4.16803
4.1956
4.16049
4.13076
4.10429
4.09334
4.1044
4.13073
4.16039
4.19553
4.17416
4.19503
4.16048
4.1287
4.10208
4.09083
4.10213
4.12874
4.16048
4.19493
4.17998
4.19422
4.16034
4.12567
4.09884
4.08715
4.09888
4.12571
4.16025
4.19408
4.18521
4.19277
4.15967
4.12193
4.09454
4.08243
4.09452
4.12193
4.15955
4.19279
6.21215
6.07232
6.05157
6.0661
6.06643
6.07123
6.06663
6.0664
6.05206
6.07271
6.17612
6.03945
6.01875
6.03309
6.0335
6.03839
6.03379
6.03346
6.01915
6.03977
6.14631
6.01308
5.99297
6.00771
6.00822
6.01335
6.00848
6.00811
5.99336
6.0134
6.13283
6.00401
5.98511
6.00106
6.00229
6.00743
6.00261
6.00151
5.9855
6.00433
6.12657
6.00677
5.98985
6.00775
6.00989
6.01521
6.01016
6.00808
5.99022
6.00706
6.11134
6.00449
5.99018
6.01079
6.01432
6.01963
6.01452
6.01094
5.99059
6.00478
6.08624
5.99845
5.98721
6.01131
6.01678
6.02221
6.01688
6.01155
5.98757
5.9987
6.05489
5.98941
5.98136
6.00965
6.0177
6.02316
6.01804
6.00995
5.98187
5.98958
6.0217
5.97775
5.97396
6.0065
6.0181
6.02341
6.01827
6.00673
5.97424
5.97789
5.9888
5.96441
5.96645
6.00241
6.01822
6.02334
6.0184
6.00286
5.96667
5.96474
8.49433
8.84646
8.78068
8.58716
8.44162
8.38929
8.44145
8.58663
8.78028
8.84649
8.45668
8.79822
8.73241
8.53862
8.39288
8.34038
8.39254
8.53805
8.73214
8.7982
8.43526
8.76386
8.69469
8.49945
8.35273
8.30016
8.35244
8.4989
8.6943
8.76382
8.4635
8.76607
8.68884
8.49096
8.3424
8.28964
8.3422
8.49047
8.68854
8.76603
8.55341
8.7953
8.708
8.50377
8.35315
8.29948
8.35269
8.50321
8.70758
8.79514
8.63782
8.82442
8.72166
8.5103
8.356
8.30174
8.35571
8.50966
8.72136
8.82426
8.72368
8.85306
8.73113
8.51057
8.35179
8.29646
8.35147
8.51007
8.73058
8.85293
8.80509
8.88095
8.73587
8.50441
8.33997
8.2832
8.33964
8.50403
8.73527
8.88083
8.87698
8.90311
8.73318
8.49069
8.31973
8.26138
8.31933
8.49017
8.73269
8.90276
8.93152
8.90945
8.71837
8.46612
8.28951
8.22925
8.28902
8.46549
8.7178
8.90905
13.0903
12.209
11.4857
11.0086
10.7254
10.635
10.7244
11.0069
11.484
12.2082
13.0828
12.1636
11.4362
10.9604
10.6775
10.5873
10.6766
10.9588
11.4345
12.1629
13.1161
12.1125
11.3882
10.9171
10.6358
10.546
10.6348
10.9155
11.3864
12.1118
13.0066
12.0771
11.3599
10.8967
10.618
10.5291
10.6172
10.8953
11.3583
12.0762
12.933
12.0499
11.3428
10.8903
10.6157
10.5277
10.6147
10.8886
11.3411
12.0491
12.8394
11.9978
11.3095
10.8698
10.6006
10.5136
10.5997
10.8684
11.3079
11.997
12.6586
11.9188
11.2619
10.8368
10.5739
10.4883
10.5731
10.8353
11.2604
11.918
12.4201
11.8166
11.2015
10.7919
10.5369
10.4526
10.5359
10.7904
11.2001
11.8157
12.1704
11.6988
11.1312
10.7369
10.4913
10.4088
10.4904
10.7354
11.1296
11.6979
11.9292
11.5734
11.0547
10.6773
10.443
10.363
10.4422
10.6759
11.0534
11.5725
0.199919
0.229837
0.253922
0.277225
0.296766
0.304832
0.296431
0.276817
0.253654
0.22961
0.229786
0.249273
0.27072
0.291853
0.310076
0.317852
0.30978
0.291414
0.27042
0.249117
0.252476
0.264645
0.282597
0.302048
0.319267
0.326624
0.319052
0.301592
0.282192
0.264414
0.269548
0.276062
0.290998
0.309103
0.325396
0.332623
0.32506
0.308691
0.290653
0.275839
0.281965
0.284399
0.296797
0.313864
0.329376
0.33643
0.329088
0.313507
0.296492
0.284069
0.290627
0.29026
0.30077
0.317196
0.332264
0.339176
0.331963
0.316723
0.300411
0.289938
0.296459
0.294233
0.303326
0.319407
0.334225
0.341072
0.333956
0.319046
0.30307
0.293983
0.299484
0.296083
0.304506
0.320526
0.335228
0.341789
0.334909
0.320154
0.304216
0.295816
0.300091
0.296215
0.30451
0.320498
0.335083
0.341772
0.334848
0.320005
0.304148
0.295963
0.300188
0.296055
0.304348
0.320404
0.335094
0.341621
0.334698
0.320002
0.304052
0.29578
0.119078
0.100496
0.088356
0.0923901
0.103342
0.108681
0.103388
0.092123
0.0879784
0.100407
0.103413
0.0938053
0.0872879
0.092247
0.102764
0.107767
0.102663
0.0921593
0.0871029
0.0936985
0.0950565
0.0896873
0.0865631
0.0919132
0.101912
0.106768
0.101845
0.0917988
0.0864201
0.0896187
0.0903397
0.0870838
0.0859032
0.0916138
0.101044
0.105558
0.100975
0.09128
0.0857601
0.0870476
0.0874577
0.0855103
0.0853291
0.0913029
0.100359
0.104784
0.100227
0.0911484
0.0850945
0.0854301
0.0857754
0.0845699
0.0849934
0.090992
0.0999584
0.104282
0.0997486
0.0907707
0.0846996
0.0844154
0.0847816
0.0838699
0.0847435
0.0908432
0.0997105
0.103958
0.0997181
0.0907917
0.0846462
0.0838509
0.0837421
0.0831947
0.0841179
0.0903683
0.0991936
0.103394
0.0989571
0.0901279
0.0840263
0.0830193
0.0826435
0.0820789
0.0830841
0.0892677
0.09799
0.102222
0.0978222
0.0891609
0.0829811
0.081995
0.0818787
0.0814629
0.0822296
0.0884972
0.0971375
0.101377
0.0970879
0.0881748
0.0821285
0.0812321
0.341278
0.348454
0.349712
0.350885
0.355721
0.356791
0.355682
0.350733
0.349407
0.348425
0.34149
0.347328
0.350075
0.35133
0.356276
0.357353
0.356152
0.35124
0.349871
0.347237
0.342306
0.346851
0.350893
0.3524
0.357206
0.358505
0.357029
0.352196
0.350752
0.346821
0.343603
0.347033
0.352007
0.353544
0.358377
0.359741
0.358133
0.353519
0.351702
0.346992
0.344967
0.347651
0.353151
0.355089
0.359844
0.361212
0.359625
0.35478
0.352915
0.347492
0.346491
0.348606
0.354616
0.356714
0.361334
0.362936
0.361227
0.356524
0.354387
0.348482
0.348454
0.350025
0.356354
0.35873
0.363258
0.36504
0.363207
0.358315
0.356173
0.349909
0.347279
0.348696
0.355345
0.357676
0.362305
0.364079
0.36215
0.35747
0.355061
0.348618
0.342537
0.343878
0.35062
0.353014
0.357685
0.359373
0.357418
0.352848
0.350372
0.343697
0.336674
0.337898
0.344664
0.347048
0.351696
0.353365
0.351576
0.346865
0.344374
0.337688
0.783625
0.79351
0.788651
0.790283
0.796608
0.796782
0.796648
0.790407
0.788603
0.793556
0.781958
0.789717
0.788078
0.790045
0.796328
0.79694
0.796255
0.790041
0.788008
0.789692
0.780834
0.786938
0.787613
0.790009
0.796255
0.797182
0.79623
0.790026
0.787586
0.78676
0.779722
0.784687
0.787144
0.7901
0.796219
0.797501
0.79623
0.790144
0.787214
0.784672
0.779028
0.783304
0.787258
0.790335
0.796637
0.798038
0.796604
0.790331
0.787212
0.7834
0.779074
0.782909
0.787769
0.791183
0.797417
0.798931
0.79744
0.791025
0.787701
0.782934
0.780102
0.783415
0.789165
0.792425
0.798971
0.800575
0.798918
0.792599
0.789209
0.783474
0.77647
0.77981
0.786036
0.789478
0.796021
0.797649
0.796
0.789463
0.786108
0.779802
0.767666
0.770908
0.777578
0.780983
0.787571
0.789219
0.787535
0.780943
0.777605
0.770851
0.757784
0.761175
0.767843
0.771162
0.777838
0.779411
0.777845
0.771158
0.767801
0.761057
1.61303
1.62358
1.60301
1.59313
1.58765
1.58095
1.58763
1.59315
1.60312
1.62371
1.60985
1.61814
1.6015
1.59023
1.58542
1.57885
1.58542
1.59029
1.60164
1.61819
1.60725
1.61355
1.60018
1.58793
1.58363
1.57705
1.58351
1.58789
1.6004
1.61364
1.60596
1.61023
1.59927
1.58615
1.58226
1.57594
1.58224
1.58619
1.59933
1.61026
1.6054
1.60819
1.59909
1.58524
1.58185
1.57566
1.58185
1.58536
1.59905
1.6083
1.6061
1.60772
1.59979
1.58569
1.58243
1.57645
1.58253
1.58573
1.59989
1.60766
1.60831
1.60913
1.60211
1.58749
1.58451
1.57858
1.58455
1.58755
1.6021
1.60919
1.60448
1.60507
1.59824
1.5836
1.58062
1.57472
1.58061
1.5836
1.59829
1.60494
1.59266
1.59311
1.58639
1.57154
1.56865
1.56282
1.56869
1.5715
1.58632
1.59319
1.57869
1.5792
1.57237
1.55751
1.55465
1.54882
1.55458
1.5575
1.57232
1.57926
2.74663
2.74734
2.74848
2.77283
2.78403
2.78636
2.78415
2.773
2.7486
2.7473
2.7416
2.74532
2.74832
2.77158
2.78397
2.78599
2.78404
2.77178
2.74849
2.74531
2.73824
2.74386
2.74841
2.77047
2.78381
2.78561
2.78382
2.77057
2.74873
2.74391
2.736
2.74314
2.74897
2.76991
2.78398
2.78559
2.78397
2.77018
2.74906
2.74322
2.73503
2.74339
2.75026
2.77039
2.7846
2.78632
2.78479
2.77043
2.75032
2.74344
2.73563
2.74477
2.75222
2.77165
2.78619
2.78785
2.78646
2.77186
2.75231
2.74486
2.73806
2.74771
2.75556
2.77463
2.78945
2.79109
2.78949
2.77475
2.75563
2.74779
2.73232
2.74248
2.75021
2.76911
2.78411
2.78578
2.78415
2.7693
2.75044
2.7425
2.71586
2.72631
2.73402
2.75285
2.76778
2.76938
2.76781
2.75306
2.73417
2.72637
2.69658
2.70717
2.71499
2.73393
2.74891
2.75047
2.74884
2.73406
2.71498
2.70726
4.18785
4.19037
4.15781
4.11746
4.08937
4.07689
4.08946
4.11742
4.15775
4.19033
4.18852
4.18707
4.15524
4.11303
4.08456
4.07168
4.08465
4.11307
4.15516
4.18702
4.18881
4.18402
4.15244
4.10972
4.08123
4.0679
4.08127
4.10979
4.15252
4.18402
4.18935
4.18216
4.15037
4.10779
4.07936
4.06581
4.07942
4.1078
4.15044
4.18204
4.19074
4.1817
4.14978
4.10752
4.07894
4.06523
4.07908
4.10746
4.14983
4.18152
4.19352
4.18286
4.15083
4.10884
4.0805
4.06667
4.08053
4.10897
4.15082
4.18289
4.19906
4.1872
4.15456
4.11287
4.08447
4.07054
4.08453
4.11298
4.15463
4.18719
4.19428
4.18165
4.14874
4.10726
4.0788
4.06481
4.07886
4.10734
4.1486
4.18165
4.17474
4.16183
4.12834
4.08727
4.0588
4.04484
4.05882
4.08737
4.12848
4.16181
4.15051
4.13743
4.10394
4.06294
4.03444
4.02038
4.03456
4.06297
4.10389
4.13741
5.96179
5.9536
5.96117
5.99976
6.01884
6.02424
6.01908
6.00003
5.96137
5.95377
5.94253
5.94766
5.95857
5.99842
6.02001
6.02538
6.02021
5.99886
5.95891
5.94799
5.93038
5.94587
5.95757
5.99779
6.02057
6.02593
6.02073
5.99803
5.9579
5.94593
5.92295
5.94596
5.95719
5.99718
6.02052
6.02593
6.02073
5.99742
5.95771
5.94599
5.91865
5.94699
5.95785
5.9973
6.02095
6.02623
6.02114
5.99766
5.95821
5.94713
5.91764
5.94992
5.96035
5.99949
6.02308
6.02855
6.02327
5.9999
5.96073
5.95006
5.92086
5.95589
5.96627
6.00502
6.02841
6.03391
6.02874
6.00532
5.96651
5.95602
5.91151
5.94832
5.95839
5.99695
6.02037
6.02581
6.02063
5.9972
5.95875
5.94845
5.88441
5.92211
5.932
5.97062
5.99417
5.99961
5.99431
5.97099
5.93228
5.92237
5.85216
5.89016
5.89988
5.93865
5.96222
5.96756
5.96244
5.93886
5.90016
5.89033
8.95424
8.8954
8.6876
8.42997
8.24979
8.18825
8.24958
8.42937
8.68691
8.89514
8.94938
8.86336
8.64655
8.38911
8.20814
8.14555
8.20781
8.38849
8.646
8.86298
8.9305
8.82731
8.6055
8.3512
8.17103
8.10838
8.17081
8.35057
8.60498
8.82713
8.90675
8.79331
8.5694
8.31908
8.14115
8.07838
8.14078
8.31844
8.56881
8.79297
8.88525
8.76572
8.54224
8.29591
8.11986
8.05721
8.11953
8.2953
8.54165
8.76532
8.87053
8.7473
8.5246
8.28147
8.10694
8.04463
8.10658
8.28091
8.52402
8.74695
8.86511
8.73942
8.51747
8.27682
8.10367
8.04168
8.10328
8.27617
8.51683
8.73916
8.84383
8.71627
8.49493
8.25613
8.0842
8.02249
8.08382
8.25565
8.49437
8.71589
8.7977
8.6692
8.44833
8.21052
8.03908
7.97744
8.03865
8.20995
8.44759
8.6689
8.74475
8.61573
8.39497
8.15765
7.98603
7.9246
7.98575
8.15701
8.39454
8.61542
11.7241
11.4539
10.9845
10.6288
10.407
10.3299
10.4063
10.6275
10.9832
11.4531
11.5754
11.3611
10.9375
10.6036
10.3924
10.3183
10.3915
10.6022
10.9361
11.3601
11.4802
11.3016
10.9145
10.5964
10.3925
10.3207
10.3917
10.595
10.913
11.3008
11.4255
11.2691
10.9067
10.599
10.4
10.3295
10.3991
10.5976
10.9053
11.2681
11.3988
11.2554
10.9082
10.6071
10.4109
10.3414
10.4099
10.6056
10.9068
11.2545
11.3909
11.2558
10.9175
10.6198
10.4252
10.3561
10.4241
10.6183
10.9161
11.2547
11.4002
11.2706
10.9367
10.64
10.4455
10.3766
10.4445
10.6386
10.9352
11.2696
11.399
11.2738
10.9405
10.6426
10.4475
10.3786
10.4464
10.641
10.9392
11.2726
11.3712
11.2489
10.9149
10.6149
10.4191
10.3498
10.418
10.6136
10.9133
11.2479
11.3269
11.2063
10.8712
10.5702
10.3738
10.3045
10.3728
10.5688
10.8697
11.2052
)
;

boundaryField
{
    leftWall
    {
        type            calculated;
        value           nonuniform List<scalar> 
100
(
-3.24249e-05
0.305536
0.374199
0.799496
1.6466
2.81513
4.18365
6.21215
8.49433
13.0903
0.13756
0.179642
0.376234
0.831694
1.66971
2.78475
4.24212
6.07232
8.84646
12.209
0.156338
0.103603
0.365597
0.808598
1.63181
2.78286
4.20776
6.05157
8.78068
11.4857
0.188938
0.0974121
0.367285
0.813375
1.62688
2.80435
4.18008
6.0661
8.58716
11.0086
0.211807
0.105368
0.37159
0.817429
1.61785
2.80997
4.15386
6.06643
8.44162
10.7254
0.220013
0.109951
0.37199
0.816181
1.6114
2.81318
4.1432
6.07123
8.38929
10.635
0.211433
0.105328
0.371431
0.817295
1.61792
2.81009
4.15381
6.06663
8.44145
10.7244
0.188414
0.0973034
0.367073
0.813332
1.62706
2.80455
4.18022
6.0664
8.58663
11.0069
0.15591
0.103495
0.365458
0.808741
1.63199
2.7831
4.20763
6.05206
8.78028
11.484
0.1373
0.179485
0.37604
0.831829
1.66984
2.78491
4.24198
6.07271
8.84649
12.2082
)
;
    }
    rightWall
    {
        type            calculated;
        value           nonuniform List<scalar> 
100
(
0.300184
0.0818768
0.336674
0.757784
1.57869
2.69658
4.15051
5.85216
8.74475
11.3269
0.296053
0.0814629
0.337898
0.761169
1.5792
2.70717
4.13742
5.89016
8.61573
11.2063
0.304348
0.0822277
0.344664
0.767845
1.57237
2.71499
4.10394
5.89988
8.39497
10.8712
0.320404
0.0884953
0.347052
0.771162
1.55751
2.73393
4.06294
5.93865
8.15765
10.5702
0.335094
0.0971413
0.351696
0.777834
1.55465
2.74891
4.03443
5.96222
7.98603
10.3738
0.341621
0.101379
0.353365
0.779411
1.54882
2.75047
4.02039
5.96755
7.9246
10.3045
0.334698
0.0970879
0.351574
0.77784
1.55458
2.74884
4.03456
5.96244
7.98575
10.3728
0.320002
0.0881748
0.346865
0.771158
1.5575
2.73406
4.06297
5.93886
8.15701
10.5688
0.304052
0.0821285
0.344374
0.767801
1.57232
2.71498
4.10389
5.90016
8.39454
10.8697
0.29578
0.0812321
0.337688
0.761057
1.57926
2.70726
4.13742
5.89033
8.61542
11.2052
)
;
    }
    leftSides_periodic0
    {
        type            cyclic;
    }
    leftSides_periodic1
    {
        type            cyclic;
    }
    rightSides_periodic0
    {
        type            cyclic;
    }
    rightSides_periodic1
    {
        type            cyclic;
    }
    leftInOut_periodic0
    {
        type            cyclic;
    }
    leftInOut_periodic1
    {
        type            cyclic;
    }
    rightInOut_periodic0
    {
        type            cyclic;
    }
    rightInOut_periodic1
    {
        type            cyclic;
    }
}


// ************************************************************************* //
