/*--------------------------------*- C++ -*----------------------------------*\
| =========                 |                                                 |
| \\      /  F ield         | OpenFOAM: The Open Source CFD Toolbox           |
|  \\    /   O peration     | Version:  v1906                                 |
|   \\  /    A nd           | Web:      www.OpenFOAM.com                      |
|    \\/     M anipulation  |                                                 |
\*---------------------------------------------------------------------------*/
FoamFile
{
    version     2.0;
    format      ascii;
    class       volScalarField;
    location    "37.6";
    object      T;
}
// * * * * * * * * * * * * * * * * * * * * * * * * * * * * * * * * * * * * * //

dimensions      [0 0 0 1 0 0 0];


internalField   nonuniform List<scalar> 
2000
(
373.291
369.695
364.354
362.073
361.526
361.354
361.526
362.071
364.35
369.688
373.212
365.649
360.679
358.76
358.068
357.873
358.067
358.758
360.676
365.643
373.256
363.503
359.258
357.566
356.855
356.653
356.854
357.564
359.255
363.497
372.115
362.132
358.515
356.937
356.216
356.011
356.215
356.935
358.511
362.127
370.163
361.363
358.05
356.505
355.774
355.564
355.774
356.503
358.047
361.359
367.619
360.72
357.699
356.157
355.415
355.199
355.414
356.155
357.696
360.716
365.135
360.143
357.372
355.831
355.078
354.857
355.077
355.829
357.369
360.14
363.126
359.592
357.017
355.488
354.726
354.501
354.726
355.486
357.014
359.589
361.591
359.014
356.609
355.11
354.347
354.118
354.346
355.108
356.606
359.011
360.373
358.373
356.146
354.703
353.947
353.716
353.946
354.701
356.143
358.371
370.235
366.477
363.579
362.415
361.891
361.689
361.891
362.413
363.576
366.474
366.881
363.797
361.12
360.018
359.457
359.249
359.456
360.017
361.118
363.794
365.787
362.292
360.047
359.059
358.496
358.291
358.495
359.057
360.045
362.289
365.311
361.258
359.382
358.48
357.926
357.726
357.925
358.478
359.38
361.255
364.543
360.49
358.892
358.041
357.497
357.302
357.496
358.039
358.89
360.487
363.313
359.867
358.499
357.674
357.138
356.947
357.137
357.672
358.497
359.865
361.899
359.352
358.157
357.347
356.817
356.63
356.816
357.345
358.155
359.35
360.629
358.909
357.837
357.041
356.517
356.332
356.517
357.039
357.835
358.908
359.647
358.487
357.512
356.734
356.218
356.035
356.217
356.733
357.51
358.486
358.839
358.029
357.146
356.394
355.884
355.702
355.884
356.392
357.145
358.028
373.974
365.727
362.746
361.505
361.02
360.896
361.019
361.504
362.744
365.721
372.264
363.55
359.984
358.438
357.821
357.648
357.82
358.437
359.981
363.544
370.77
362.644
359.014
357.416
356.738
356.545
356.737
357.414
359.011
362.638
369.564
361.98
358.461
356.864
356.155
355.952
356.154
356.862
358.458
361.975
368.234
361.355
358.042
356.46
355.733
355.523
355.732
356.458
358.039
361.351
366.638
360.736
357.683
356.117
355.377
355.161
355.376
356.115
357.68
360.732
364.868
360.135
357.343
355.793
355.043
354.822
355.042
355.791
357.34
360.132
363.135
359.556
356.985
355.452
354.695
354.47
354.694
355.45
356.982
359.553
361.626
358.962
356.579
355.077
354.317
354.089
354.316
355.075
356.576
358.959
360.374
358.311
356.116
354.668
353.913
353.683
353.912
354.666
356.113
358.309
366.78
364.258
363.147
362.461
361.965
361.784
361.965
362.46
363.145
364.255
364.585
361.931
360.619
359.895
359.396
359.205
359.395
359.893
360.617
361.928
363.738
361.099
359.724
358.966
358.456
358.263
358.455
358.965
359.722
361.096
363.137
360.562
359.198
358.422
357.906
357.713
357.905
358.42
359.196
360.559
362.521
360.087
358.783
358.002
357.486
357.295
357.485
358.001
358.781
360.085
361.795
359.622
358.417
357.639
357.126
356.938
357.125
357.638
358.415
359.62
360.955
359.17
358.081
357.311
356.802
356.618
356.802
357.31
358.08
359.169
360.093
358.752
357.767
357.008
356.504
356.322
356.503
357.007
357.765
358.751
359.311
358.351
357.452
356.707
356.208
356.028
356.207
356.706
357.451
358.35
358.599
357.918
357.1
356.372
355.877
355.698
355.877
356.371
357.098
357.916
372.132
365.22
362.628
361.485
361.01
360.907
361.009
361.483
362.625
365.214
370.002
362.875
359.764
358.322
357.724
357.565
357.723
358.321
359.761
362.87
368.783
362.1
358.828
357.312
356.658
356.477
356.658
357.31
358.825
362.095
367.795
361.608
358.331
356.788
356.101
355.906
356.1
356.786
358.328
361.603
366.79
361.145
357.963
356.41
355.7
355.495
355.699
356.408
357.96
361.141
365.654
360.645
357.63
356.081
355.354
355.142
355.354
356.079
357.628
360.641
364.339
360.097
357.295
355.759
355.02
354.802
355.019
355.757
357.293
360.094
362.902
359.515
356.935
355.418
354.671
354.448
354.67
355.416
356.933
359.512
361.504
358.903
356.53
355.043
354.292
354.066
354.291
355.041
356.528
358.901
360.261
358.243
356.066
354.63
353.884
353.656
353.883
354.628
356.064
358.241
365.525
363.995
363.226
362.675
362.191
362.011
362.19
362.674
363.224
363.992
363.239
361.402
360.527
359.958
359.48
359.297
359.479
359.957
360.525
361.399
362.268
360.56
359.584
358.961
358.477
358.292
358.476
358.96
359.583
360.557
361.668
360.102
359.064
358.394
357.903
357.718
357.903
358.393
359.062
360.099
361.172
359.742
358.678
357.974
357.479
357.295
357.479
357.973
358.677
359.74
360.683
359.398
358.342
357.618
357.122
356.939
357.122
357.616
358.34
359.396
360.162
359.043
358.026
357.295
356.802
356.621
356.801
357.294
358.024
359.041
359.612
358.676
357.721
356.993
356.503
356.324
356.502
356.992
357.719
358.674
359.048
358.292
357.412
356.693
356.206
356.029
356.206
356.692
357.41
358.29
358.443
357.866
357.064
356.358
355.875
355.698
355.874
356.357
357.063
357.864
371.129
365.029
362.464
361.311
360.852
360.751
360.851
361.31
362.462
365.025
368.901
362.689
359.668
358.232
357.642
357.489
357.641
358.23
359.665
362.684
367.892
361.911
358.75
357.253
356.61
356.434
356.609
357.252
358.747
361.906
367.05
361.433
358.263
356.745
356.069
355.879
356.068
356.743
358.26
361.428
366.168
361.004
357.904
356.376
355.677
355.476
355.676
356.375
357.901
361
365.191
360.551
357.581
356.052
355.334
355.126
355.334
356.05
357.578
360.547
364.057
360.044
357.254
355.733
355.001
354.786
355
355.731
357.252
360.041
362.752
359.481
356.899
355.394
354.652
354.432
354.651
355.392
356.896
359.478
361.408
358.867
356.494
355.018
354.272
354.049
354.272
355.016
356.492
358.864
360.175
358.2
356.028
354.603
353.862
353.636
353.861
354.602
356.026
358.197
365.081
364.044
363.456
363.048
362.58
362.402
362.579
363.048
363.454
364.041
362.661
361.139
360.518
360.07
359.609
359.43
359.608
360.069
360.516
361.136
361.46
360.206
359.496
358.974
358.509
358.33
358.508
358.972
359.495
360.204
360.696
359.757
358.964
358.375
357.904
357.725
357.903
358.374
358.962
359.755
360.165
359.45
358.59
357.95
357.475
357.296
357.474
357.949
358.588
359.448
359.766
359.184
358.274
357.599
357.12
356.943
357.12
357.598
358.273
359.182
359.449
358.911
357.978
357.283
356.804
356.627
356.803
357.282
357.977
358.91
359.165
358.605
357.685
356.984
356.506
356.331
356.505
356.983
357.683
358.604
358.829
358.252
357.379
356.683
356.207
356.034
356.207
356.682
357.377
358.251
358.346
357.836
357.034
356.349
355.876
355.703
355.875
356.347
357.032
357.834
369.739
364.95
362.27
361.028
360.565
360.454
360.565
361.027
362.268
364.946
367.813
362.756
359.663
358.188
357.598
357.445
357.597
358.186
359.66
362.751
367.339
361.971
358.772
357.261
356.617
356.442
356.616
357.259
358.769
361.966
366.952
361.43
358.26
356.747
356.072
355.884
356.072
356.746
358.257
361.425
366.227
360.965
357.879
356.367
355.67
355.472
355.669
356.365
357.876
360.96
365.259
360.497
357.552
356.038
355.324
355.118
355.323
356.037
357.549
360.493
364.062
359.992
357.231
355.721
354.993
354.78
354.992
355.719
357.228
359.988
362.688
359.442
356.882
355.386
354.646
354.428
354.646
355.384
356.879
359.439
361.322
358.843
356.481
355.012
354.269
354.046
354.268
355.011
356.479
358.84
360.115
358.186
356.018
354.601
353.862
353.637
353.861
354.599
356.015
358.184
365.385
365.211
364.5
364.008
363.458
363.257
363.457
364.008
364.498
365.209
362.969
361.28
360.644
360.24
359.758
359.568
359.757
360.239
360.642
361.278
361.597
360.062
359.478
359.011
358.546
358.365
358.546
359.009
359.477
360.059
360.497
359.591
358.946
358.391
357.925
357.747
357.924
358.39
358.944
359.589
359.675
359.304
358.585
357.965
357.494
357.317
357.493
357.964
358.583
359.302
359.204
359.085
358.276
357.613
357.139
356.962
357.138
357.612
358.274
359.083
358.993
358.861
357.981
357.294
356.818
356.643
356.818
357.293
357.98
358.859
358.89
358.591
357.687
356.992
356.516
356.342
356.516
356.99
357.685
358.589
358.7
358.257
357.379
356.689
356.216
356.044
356.216
356.687
357.377
358.255
358.312
357.846
357.034
356.356
355.887
355.715
355.887
356.355
357.032
357.844
359.376
357.702
355.66
354.289
353.545
353.314
353.544
354.287
355.658
357.699
358.541
357.068
355.187
353.874
353.14
352.909
353.139
353.872
355.185
357.066
357.812
356.474
354.713
353.437
352.712
352.482
352.711
353.436
354.711
356.472
357.124
355.878
354.204
352.954
352.238
352.008
352.237
352.952
354.202
355.876
356.442
355.257
353.644
352.415
351.707
351.479
351.706
352.414
353.642
355.255
355.739
354.591
353.027
351.815
351.115
350.887
351.114
351.813
353.024
354.59
354.963
353.844
352.318
351.12
350.427
350.198
350.426
351.118
352.315
353.842
353.942
352.845
351.325
350.147
349.461
349.229
349.46
350.145
351.323
352.844
351.495
350.264
348.606
347.52
346.851
346.609
346.85
347.518
348.604
350.262
334.147
333.063
331.708
331.234
330.856
330.701
330.855
331.233
331.707
333.062
358.099
357.517
356.72
355.991
355.487
355.305
355.486
355.989
356.718
357.516
357.438
356.985
356.247
355.534
355.034
354.852
355.033
355.533
356.245
356.983
356.859
356.459
355.762
355.065
354.57
354.388
354.569
355.064
355.76
356.458
356.31
355.93
355.273
354.597
354.11
353.929
354.109
354.595
355.272
355.929
355.749
355.385
354.775
354.122
353.645
353.466
353.645
354.12
354.773
355.384
355.143
354.8
354.237
353.611
353.146
352.968
353.146
353.609
354.236
354.799
354.417
354.089
353.574
352.981
352.53
352.354
352.53
352.98
353.573
354.088
353.299
352.938
352.498
351.964
351.533
351.361
351.533
351.963
352.497
352.937
349.92
349.307
349.252
348.928
348.569
348.435
348.569
348.927
349.251
349.306
328.974
328.096
329.374
329.768
329.853
329.946
329.854
329.769
329.374
328.096
359.354
357.634
355.624
354.246
353.502
353.272
353.501
354.244
355.621
357.632
358.511
356.991
355.14
353.82
353.087
352.858
353.087
353.818
355.137
356.989
357.774
356.386
354.656
353.377
352.654
352.425
352.653
353.376
354.654
356.385
357.082
355.787
354.145
352.896
352.181
351.953
352.18
352.895
354.143
355.785
356.411
355.174
353.593
352.366
351.658
351.431
351.657
352.364
353.591
355.172
355.723
354.507
352.975
351.767
351.065
350.839
351.064
351.765
352.973
354.505
354.889
353.653
352.187
351.003
350.311
350.089
350.31
351.001
352.185
353.651
353.513
352.182
350.868
349.729
349.064
348.856
349.064
349.728
350.866
352.18
349.479
347.864
347.121
346.09
345.541
345.388
345.54
346.089
347.118
347.862
326.854
325.635
326.491
326.068
326.03
326.079
326.03
326.068
326.489
325.634
357.92
357.425
356.681
355.969
355.477
355.298
355.476
355.968
356.679
357.424
357.302
356.9
356.207
355.507
355.017
354.837
355.017
355.506
356.205
356.899
356.748
356.378
355.721
355.035
354.55
354.37
354.549
355.034
355.719
356.376
356.218
355.859
355.241
354.575
354.097
353.919
354.097
354.574
355.239
355.858
355.674
355.329
354.761
354.118
353.652
353.475
353.651
354.117
354.759
355.328
355.052
354.718
354.22
353.608
353.158
352.985
353.157
353.607
354.219
354.717
354.19
353.85
353.475
352.909
352.488
352.323
352.488
352.908
353.474
353.849
352.703
352.348
352.2
351.706
351.343
351.195
351.343
351.705
352.199
352.347
348.66
348.339
348.718
348.356
348.157
348.05
348.157
348.356
348.717
348.338
327.078
327.193
328.419
328.527
328.871
328.912
328.871
328.528
328.42
327.193
359.234
357.561
355.571
354.201
353.466
353.237
353.465
354.2
355.569
357.559
358.403
356.917
355.083
353.77
353.046
352.818
353.045
353.768
355.081
356.915
357.682
356.316
354.601
353.328
352.614
352.387
352.613
353.326
354.599
356.315
357.002
355.723
354.091
352.847
352.142
351.916
352.141
352.846
354.089
355.721
356.325
355.089
353.522
352.3
351.605
351.381
351.604
352.299
353.52
355.087
355.562
354.332
352.837
351.636
350.953
350.733
350.953
351.634
352.835
354.33
354.564
353.319
351.917
350.733
350.072
349.858
350.071
350.731
351.915
353.318
353.034
351.751
350.473
349.297
348.672
348.468
348.671
349.295
350.471
351.75
349.373
348.066
346.983
345.792
345.251
345.062
345.25
345.79
346.981
348.065
328.237
327.558
327.169
326.428
326.282
326.181
326.281
326.427
327.168
327.557
357.803
357.383
356.651
355.956
355.475
355.298
355.474
355.955
356.649
357.382
357.212
356.868
356.182
355.496
355.015
354.838
355.015
355.495
356.18
356.866
356.678
356.351
355.7
355.028
354.552
354.374
354.551
355.026
355.698
356.35
356.157
355.834
355.221
354.569
354.102
353.926
354.101
354.567
355.22
355.833
355.6
355.283
354.725
354.096
353.642
353.47
353.642
354.094
354.723
355.282
354.935
354.622
354.148
353.55
353.119
352.951
353.118
353.549
354.147
354.621
354.037
353.743
353.386
352.829
352.432
352.271
352.431
352.828
353.385
353.742
352.628
352.388
352.187
351.689
351.345
351.194
351.344
351.688
352.186
352.387
349.084
349.047
349.094
348.745
348.526
348.391
348.526
348.744
349.094
349.047
328.42
328.976
329.46
329.794
330.056
330.028
330.056
329.794
329.46
328.976
359.15
357.515
355.53
354.171
353.441
353.214
353.44
354.17
355.528
357.512
358.324
356.87
355.04
353.739
353.02
352.794
353.019
353.737
355.038
356.868
357.609
356.271
354.558
353.296
352.588
352.363
352.587
353.295
354.555
356.269
356.93
355.67
354.039
352.807
352.109
351.886
352.108
352.805
354.037
355.668
356.227
355.004
353.442
352.234
351.549
351.329
351.548
352.233
353.44
355.002
355.408
354.203
352.711
351.523
350.854
350.637
350.853
351.521
352.709
354.202
354.37
353.174
351.741
350.569
349.921
349.708
349.92
350.568
351.739
353.172
352.855
351.659
350.269
349.11
348.489
348.278
348.488
349.108
350.266
351.657
349.366
348.188
346.801
345.67
345.098
344.887
345.097
345.669
346.799
348.186
328.217
327.573
326.733
326.176
325.928
325.791
325.927
326.175
326.731
327.572
357.739
357.356
356.626
355.951
355.48
355.306
355.479
355.95
356.624
357.355
357.158
356.847
356.165
355.498
355.028
354.853
355.027
355.497
356.163
356.846
356.629
356.335
355.686
355.031
354.565
354.391
354.564
355.03
355.685
356.334
356.104
355.807
355.195
354.558
354.103
353.931
354.102
354.557
355.193
355.805
355.524
355.224
354.665
354.054
353.616
353.448
353.615
354.053
354.664
355.223
354.839
354.552
354.065
353.485
353.068
352.905
353.068
353.484
354.064
354.551
353.994
353.74
353.339
352.796
352.407
352.248
352.406
352.795
353.337
353.739
352.756
352.575
352.28
351.791
351.441
351.288
351.44
351.79
352.279
352.574
349.689
349.74
349.622
349.283
349.026
348.882
349.025
349.282
349.621
349.739
330.313
331.022
331.336
331.693
331.882
331.849
331.882
331.693
331.337
331.021
359.116
357.506
355.522
354.172
353.444
353.218
353.443
354.17
355.519
357.504
358.292
356.861
355.03
353.738
353.021
352.796
353.02
353.736
355.028
356.859
357.569
356.25
354.536
353.285
352.579
352.356
352.578
353.283
354.534
356.248
356.875
355.634
354.005
352.784
352.089
351.869
352.088
352.782
354.003
355.632
356.163
354.968
353.407
352.21
351.528
351.31
351.527
352.209
353.405
354.966
355.365
354.2
352.695
351.517
350.849
350.632
350.848
351.515
352.693
354.199
354.369
353.224
351.752
350.593
349.943
349.728
349.942
350.592
351.75
353.223
352.878
351.742
350.265
349.132
348.504
348.289
348.503
349.13
350.263
351.74
349.356
348.17
346.568
345.469
344.867
344.652
344.866
345.467
346.566
348.169
326.064
325.153
324.086
323.7
323.446
323.345
323.445
323.699
324.084
325.152
357.752
357.364
356.63
355.965
355.498
355.326
355.497
355.964
356.628
357.363
357.171
356.857
356.178
355.521
355.055
354.882
355.054
355.52
356.176
356.855
356.641
356.356
355.711
355.063
354.601
354.429
354.6
355.062
355.71
356.355
356.123
355.842
355.227
354.595
354.143
353.972
354.142
354.594
355.226
355.841
355.564
355.275
354.7
354.093
353.657
353.49
353.656
354.092
354.699
355.274
354.911
354.627
354.106
353.532
353.115
352.952
353.115
353.531
354.105
354.626
354.137
353.881
353.42
352.879
352.482
352.323
352.482
352.878
353.419
353.88
353.117
352.908
352.521
352.009
351.631
351.476
351.631
352.008
352.52
352.907
351.569
351.427
351.126
350.596
350.209
350.053
350.209
350.595
351.125
351.426
340.147
340.215
339.785
339.088
338.722
338.601
338.721
339.087
339.784
340.214
)
;

boundaryField
{
    leftWall
    {
        type            fixedValue;
        value           uniform 373;
    }
    rightWall
    {
        type            fixedValue;
        value           uniform 313;
    }
    leftSides_periodic0
    {
        type            cyclic;
    }
    leftSides_periodic1
    {
        type            cyclic;
    }
    rightSides_periodic0
    {
        type            cyclic;
    }
    rightSides_periodic1
    {
        type            cyclic;
    }
    leftInOut_periodic0
    {
        type            cyclic;
    }
    leftInOut_periodic1
    {
        type            cyclic;
    }
    rightInOut_periodic0
    {
        type            cyclic;
    }
    rightInOut_periodic1
    {
        type            cyclic;
    }
}


// ************************************************************************* //
