0 	0 	0 	0
5.01672e-05 	-2.20024e-05 	-4.47417e-06 	0.0203439
0.000100334 	-4.40047e-05 	-8.94835e-06 	0.0406878
0.000150502 	-6.60071e-05 	-1.34225e-05 	0.0610317
0.000200669 	-8.80094e-05 	-1.78967e-05 	0.0813756
0.000250836 	-0.000110012 	-2.23709e-05 	0.101719
0.000301003 	-0.000132014 	-2.6845e-05 	0.122063
0.000351171 	-0.000152003 	-3.20283e-05 	0.140299
0.000401338 	-0.000164379 	-3.98929e-05 	0.150564
0.000451505 	-0.000176754 	-4.77576e-05 	0.160829
0.000501672 	-0.00018913 	-5.56222e-05 	0.171094
0.000551839 	-0.000201505 	-6.34868e-05 	0.181359
0.000602007 	-0.000213881 	-7.13515e-05 	0.191624
0.000652174 	-0.000226256 	-7.92161e-05 	0.201888
0.000702341 	-0.000238632 	-8.70808e-05 	0.212153
0.000752508 	-0.00024826 	-9.5172e-05 	0.220988
0.000802676 	-0.000251077 	-0.000103825 	0.226276
0.000852843 	-0.000253893 	-0.000112478 	0.231565
0.00090301 	-0.00025671 	-0.000121131 	0.236853
0.000953177 	-0.000259527 	-0.000129784 	0.242142
0.00100334 	-0.000262344 	-0.000138437 	0.247431
0.00105351 	-0.00026516 	-0.00014709 	0.252719
0.00110368 	-0.000267977 	-0.000155743 	0.258008
0.00115385 	-0.000270794 	-0.000164396 	0.263296
0.00120401 	-0.000273412 	-0.000173007 	0.268479
0.00125418 	-0.000271964 	-0.00018077 	0.271495
0.00130435 	-0.000270516 	-0.000188532 	0.27451
0.00135452 	-0.000269068 	-0.000196294 	0.277526
0.00140468 	-0.00026762 	-0.000204057 	0.280542
0.00145485 	-0.000266172 	-0.000211819 	0.283557
0.00150502 	-0.000264724 	-0.000219581 	0.286573
0.00155518 	-0.000263276 	-0.000227344 	0.289589
0.00160535 	-0.000261828 	-0.000235106 	0.292604
0.00165552 	-0.00026038 	-0.000242869 	0.29562
0.00170569 	-0.000258932 	-0.000250631 	0.298636
0.00175585 	-0.00025723 	-0.000257991 	0.301362
0.00180602 	-0.000254831 	-0.000264246 	0.303294
0.00185619 	-0.000252432 	-0.000270501 	0.305226
0.00190635 	-0.000250033 	-0.000276755 	0.307158
0.00195652 	-0.000247634 	-0.00028301 	0.309089
0.00200669 	-0.000245235 	-0.000289264 	0.311021
0.00205686 	-0.000242836 	-0.000295519 	0.312953
0.00210702 	-0.000240437 	-0.000301774 	0.314884
0.00215719 	-0.000238038 	-0.000308028 	0.316816
0.00220736 	-0.000235639 	-0.000314283 	0.318748
0.00225753 	-0.000233239 	-0.000320538 	0.32068
0.00230769 	-0.00023084 	-0.000326792 	0.322611
0.00235786 	-0.000228441 	-0.000333047 	0.324543
0.00240803 	-0.000226281 	-0.000338143 	0.326042
0.00245819 	-0.000224227 	-0.000342722 	0.327347
0.00250836 	-0.000222172 	-0.000347302 	0.328653
0.00255853 	-0.000220118 	-0.000351881 	0.329958
0.0026087 	-0.000218064 	-0.000356461 	0.331264
0.00265886 	-0.000216009 	-0.00036104 	0.332569
0.00270903 	-0.000213955 	-0.00036562 	0.333874
0.0027592 	-0.000211901 	-0.000370199 	0.33518
0.00280936 	-0.000209847 	-0.000374778 	0.336485
0.00285953 	-0.000207792 	-0.000379358 	0.337791
0.0029097 	-0.000205738 	-0.000383937 	0.339096
0.00295987 	-0.000203684 	-0.000388517 	0.340402
0.00301003 	-0.00020163 	-0.000393096 	0.341707
0.0030602 	-0.000199575 	-0.000397676 	0.343013
0.00311037 	-0.000197535 	-0.000402225 	0.344309
0.00316054 	-0.000196097 	-0.000405463 	0.345185
0.0032107 	-0.000194659 	-0.000408701 	0.346062
0.00326087 	-0.000193222 	-0.00041194 	0.346939
0.00331104 	-0.000191784 	-0.000415178 	0.347816
0.0033612 	-0.000190346 	-0.000418416 	0.348693
0.00341137 	-0.000188908 	-0.000421654 	0.34957
0.00346154 	-0.000187471 	-0.000424893 	0.350447
0.00351171 	-0.000186033 	-0.000428131 	0.351323
0.00356187 	-0.000184595 	-0.000431369 	0.3522
0.00361204 	-0.000183157 	-0.000434607 	0.353077
0.00366221 	-0.00018172 	-0.000437846 	0.353954
0.00371237 	-0.000180282 	-0.000441084 	0.354831
0.00376254 	-0.000178844 	-0.000444322 	0.355708
0.00381271 	-0.000177406 	-0.00044756 	0.356585
0.00386288 	-0.000175968 	-0.000450799 	0.357461
0.00391304 	-0.000174531 	-0.000454037 	0.358338
0.00396321 	-0.000173093 	-0.000457275 	0.359215
0.00401338 	-0.000172057 	-0.00045967 	0.359794
0.00406355 	-0.000171061 	-0.000461982 	0.360344
0.00411371 	-0.000170065 	-0.000464294 	0.360894
0.00416388 	-0.000169069 	-0.000466607 	0.361443
0.00421405 	-0.000168072 	-0.000468919 	0.361993
0.00426421 	-0.000167076 	-0.000471231 	0.362543
0.00431438 	-0.00016608 	-0.000473543 	0.363092
0.00436455 	-0.000165084 	-0.000475856 	0.363642
0.00441472 	-0.000164088 	-0.000478168 	0.364192
0.00446488 	-0.000163091 	-0.00048048 	0.364742
0.00451505 	-0.000162095 	-0.000482792 	0.365291
0.00456522 	-0.000161099 	-0.000485105 	0.365841
0.00461538 	-0.000160103 	-0.000487417 	0.366391
0.00466555 	-0.000159106 	-0.000489729 	0.366941
0.00471572 	-0.00015811 	-0.000492041 	0.36749
0.00476589 	-0.000157114 	-0.000494354 	0.36804
0.00481605 	-0.000156118 	-0.000496666 	0.36859
0.00486622 	-0.000155121 	-0.000498978 	0.36914
0.00491639 	-0.000154125 	-0.00050129 	0.369689
0.00496656 	-0.000153129 	-0.000503603 	0.370239
0.00501672 	-0.000152339 	-0.000505196 	0.370539
0.00506689 	-0.00015156 	-0.000506752 	0.370826
0.00511706 	-0.000150781 	-0.000508307 	0.371113
0.00516722 	-0.000150001 	-0.000509863 	0.371401
0.00521739 	-0.000149222 	-0.000511418 	0.371688
0.00526756 	-0.000148443 	-0.000512973 	0.371975
0.00531773 	-0.000147664 	-0.000514529 	0.372262
0.00536789 	-0.000146885 	-0.000516084 	0.372549
0.00541806 	-0.000146106 	-0.000517639 	0.372836
0.00546823 	-0.000145326 	-0.000519195 	0.373123
0.00551839 	-0.000144547 	-0.00052075 	0.37341
0.00556856 	-0.000143768 	-0.000522306 	0.373697
0.00561873 	-0.000142989 	-0.000523861 	0.373984
0.0056689 	-0.00014221 	-0.000525416 	0.374271
0.00571906 	-0.000141431 	-0.000526972 	0.374558
0.00576923 	-0.000140652 	-0.000528527 	0.374845
0.0058194 	-0.000139872 	-0.000530082 	0.375132
0.00586957 	-0.000139093 	-0.000531638 	0.375419
0.00591973 	-0.000138314 	-0.000533193 	0.375706
0.0059699 	-0.000137535 	-0.000534749 	0.375993
0.00602007 	-0.000136756 	-0.000536304 	0.37628
0.00607023 	-0.000135977 	-0.000537859 	0.376567
0.0061204 	-0.000135197 	-0.000539415 	0.376854
0.00617057 	-0.000134515 	-0.000540455 	0.376995
0.00622074 	-0.000133883 	-0.000541233 	0.377062
0.0062709 	-0.00013325 	-0.000542012 	0.377129
0.00632107 	-0.000132617 	-0.000542791 	0.377195
0.00637124 	-0.000131985 	-0.000543569 	0.377262
0.0064214 	-0.000131352 	-0.000544348 	0.377329
0.00647157 	-0.000130719 	-0.000545126 	0.377396
0.00652174 	-0.000130087 	-0.000545905 	0.377462
0.00657191 	-0.000129454 	-0.000546683 	0.377529
0.00662207 	-0.000128821 	-0.000547462 	0.377596
0.00667224 	-0.000128189 	-0.000548241 	0.377662
0.00672241 	-0.000127556 	-0.000549019 	0.377729
0.00677258 	-0.000126923 	-0.000549798 	0.377796
0.00682274 	-0.00012629 	-0.000550576 	0.377863
0.00687291 	-0.000125658 	-0.000551355 	0.377929
0.00692308 	-0.000125025 	-0.000552133 	0.377996
0.00697324 	-0.000124392 	-0.000552912 	0.378063
0.00702341 	-0.00012376 	-0.000553691 	0.378129
0.00707358 	-0.000123127 	-0.000554469 	0.378196
0.00712375 	-0.000122494 	-0.000555248 	0.378263
0.00717391 	-0.000121862 	-0.000556026 	0.37833
0.00722408 	-0.000121229 	-0.000556805 	0.378396
0.00727425 	-0.000120596 	-0.000557584 	0.378463
0.00732441 	-0.000119964 	-0.000558362 	0.37853
0.00737458 	-0.000119331 	-0.000559141 	0.378596
0.00742475 	-0.000118698 	-0.000559919 	0.378663
0.00747492 	-0.000118065 	-0.000560698 	0.37873
0.00752508 	-0.00011749 	-0.000561091 	0.378698
0.00757525 	-0.000116973 	-0.000561099 	0.378566
0.00762542 	-0.000116455 	-0.000561107 	0.378434
0.00767559 	-0.000115937 	-0.000561115 	0.378303
0.00772575 	-0.000115419 	-0.000561123 	0.378171
0.00777592 	-0.000114902 	-0.000561131 	0.37804
0.00782609 	-0.000114384 	-0.000561139 	0.377908
0.00787625 	-0.000113866 	-0.000561147 	0.377777
0.00792642 	-0.000113349 	-0.000561155 	0.377645
0.00797659 	-0.000112831 	-0.000561163 	0.377514
0.00802676 	-0.000112313 	-0.000561171 	0.377382
0.00807692 	-0.000111795 	-0.000561179 	0.377251
0.00812709 	-0.000111278 	-0.000561187 	0.377119
0.00817726 	-0.00011076 	-0.000561195 	0.376988
0.00822742 	-0.000110242 	-0.000561203 	0.376856
0.00827759 	-0.000109725 	-0.000561211 	0.376725
0.00832776 	-0.000109207 	-0.000561219 	0.376593
0.00837793 	-0.000108689 	-0.000561227 	0.376462
0.00842809 	-0.000108171 	-0.000561235 	0.37633
0.00847826 	-0.000107654 	-0.000561243 	0.376199
0.00852843 	-0.000107136 	-0.000561251 	0.376067
0.0085786 	-0.000106618 	-0.000561259 	0.375936
0.00862876 	-0.000106101 	-0.000561267 	0.375804
0.00867893 	-0.000105583 	-0.000561275 	0.375673
0.0087291 	-0.000105065 	-0.000561283 	0.375541
0.00877926 	-0.000104547 	-0.000561291 	0.37541
0.00882943 	-0.00010403 	-0.000561299 	0.375278
0.0088796 	-0.000103566 	-0.00056099 	0.375066
0.00892977 	-0.000103208 	-0.000560055 	0.374695
0.00897993 	-0.00010285 	-0.000559121 	0.374323
0.0090301 	-0.000102492 	-0.000558187 	0.373952
0.00908027 	-0.000102134 	-0.000557252 	0.37358
0.00913043 	-0.000101776 	-0.000556318 	0.373209
0.0091806 	-0.000101419 	-0.000555383 	0.372837
0.00923077 	-0.000101061 	-0.000554449 	0.372466
0.00928094 	-0.000100703 	-0.000553514 	0.372094
0.0093311 	-0.000100345 	-0.00055258 	0.371723
0.00938127 	-9.99871e-05 	-0.000551645 	0.371351
0.00943144 	-9.96293e-05 	-0.000550711 	0.37098
0.00948161 	-9.92714e-05 	-0.000549776 	0.370608
0.00953177 	-9.89135e-05 	-0.000548842 	0.370237
0.00958194 	-9.85557e-05 	-0.000547907 	0.369865
0.00963211 	-9.81978e-05 	-0.000546973 	0.369494
0.00968227 	-9.78399e-05 	-0.000546039 	0.369122
0.00973244 	-9.74821e-05 	-0.000545104 	0.368751
0.00978261 	-9.71242e-05 	-0.00054417 	0.368379
0.00983278 	-9.67663e-05 	-0.000543235 	0.368008
0.00988294 	-9.64085e-05 	-0.000542301 	0.367636
0.00993311 	-9.60506e-05 	-0.000541366 	0.367265
0.00998328 	-9.56927e-05 	-0.000540432 	0.366893
0.0100334 	-9.53524e-05 	-0.000539441 	0.366508
0.0100836 	-9.53399e-05 	-0.000537405 	0.365852
0.0101338 	-9.53275e-05 	-0.000535369 	0.365197
0.0101839 	-9.5315e-05 	-0.000533332 	0.364542
0.0102341 	-9.53025e-05 	-0.000531296 	0.363887
0.0102843 	-9.529e-05 	-0.00052926 	0.363232
0.0103344 	-9.52775e-05 	-0.000527223 	0.362577
0.0103846 	-9.52651e-05 	-0.000525187 	0.361922
0.0104348 	-9.52526e-05 	-0.000523151 	0.361266
0.0104849 	-9.52401e-05 	-0.000521114 	0.360611
0.0105351 	-9.52276e-05 	-0.000519078 	0.359956
0.0105853 	-9.52151e-05 	-0.000517042 	0.359301
0.0106355 	-9.52026e-05 	-0.000515006 	0.358646
0.0106856 	-9.51902e-05 	-0.000512969 	0.357991
0.0107358 	-9.51777e-05 	-0.000510933 	0.357336
0.010786 	-9.51652e-05 	-0.000508897 	0.35668
0.0108361 	-9.51527e-05 	-0.00050686 	0.356025
0.0108863 	-9.51402e-05 	-0.000504824 	0.35537
0.0109365 	-9.51278e-05 	-0.000502788 	0.354715
0.0109866 	-9.51153e-05 	-0.000500751 	0.35406
0.0110368 	-9.51581e-05 	-0.000498573 	0.353372
0.011087 	-9.57648e-05 	-0.000494944 	0.352349
0.0111371 	-9.63714e-05 	-0.000491315 	0.351327
0.0111873 	-9.69781e-05 	-0.000487686 	0.350305
0.0112375 	-9.75847e-05 	-0.000484057 	0.349282
0.0112876 	-9.81914e-05 	-0.000480428 	0.34826
0.0113378 	-9.8798e-05 	-0.000476799 	0.347237
0.011388 	-9.94047e-05 	-0.00047317 	0.346215
0.0114381 	-0.000100011 	-0.000469541 	0.345193
0.0114883 	-0.000100618 	-0.000465913 	0.34417
0.0115385 	-0.000101225 	-0.000462284 	0.343148
0.0115886 	-0.000101831 	-0.000458655 	0.342125
0.0116388 	-0.000102438 	-0.000455026 	0.341103
0.011689 	-0.000103045 	-0.000451397 	0.34008
0.0117391 	-0.000103651 	-0.000447768 	0.339058
0.0117893 	-0.000104258 	-0.000444139 	0.338036
0.0118395 	-0.000104865 	-0.00044051 	0.337013
0.0118896 	-0.000105471 	-0.000436881 	0.335991
0.0119398 	-0.000106954 	-0.000430766 	0.334431
0.01199 	-0.000108456 	-0.000424593 	0.332859
0.0120401 	-0.000109959 	-0.00041842 	0.331287
0.0120903 	-0.000111462 	-0.000412247 	0.329715
0.0121405 	-0.000112964 	-0.000406074 	0.328143
0.0121906 	-0.000114467 	-0.000399902 	0.326571
0.0122408 	-0.00011597 	-0.000393729 	0.324999
0.012291 	-0.000117472 	-0.000387556 	0.323427
0.0123411 	-0.000118975 	-0.000381383 	0.321855
0.0123913 	-0.000120478 	-0.00037521 	0.320283
0.0124415 	-0.00012198 	-0.000369037 	0.318711
0.0124916 	-0.000123483 	-0.000362864 	0.317139
0.0125418 	-0.000124986 	-0.000356692 	0.315567
0.012592 	-0.000126489 	-0.000350519 	0.313995
0.0126421 	-0.000128243 	-0.000343384 	0.312139
0.0126923 	-0.000130562 	-0.000334092 	0.309645
0.0127425 	-0.000132881 	-0.0003248 	0.307152
0.0127926 	-0.0001352 	-0.000315508 	0.304658
0.0128428 	-0.000137519 	-0.000306216 	0.302165
0.012893 	-0.000139838 	-0.000296924 	0.299671
0.0129431 	-0.000142157 	-0.000287632 	0.297178
0.0129933 	-0.000144476 	-0.00027834 	0.294684
0.0130435 	-0.000146795 	-0.000269048 	0.292191
0.0130936 	-0.000149114 	-0.000259756 	0.289697
0.0131438 	-0.000151433 	-0.000250465 	0.287204
0.013194 	-0.000153752 	-0.000241173 	0.28471
0.0132441 	-0.000156071 	-0.000231881 	0.282217
0.0132943 	-0.000158085 	-0.000220999 	0.27851
0.0133445 	-0.000159988 	-0.00020954 	0.274363
0.0133946 	-0.000161891 	-0.000198081 	0.270215
0.0134448 	-0.000163793 	-0.000186622 	0.266067
0.013495 	-0.000165696 	-0.000175163 	0.26192
0.0135452 	-0.000167599 	-0.000163703 	0.257772
0.0135953 	-0.000169501 	-0.000152244 	0.253625
0.0136455 	-0.000171404 	-0.000140785 	0.249477
0.0136957 	-0.000173307 	-0.000129326 	0.245329
0.0137458 	-0.00017521 	-0.000117867 	0.241182
0.013796 	-0.000177112 	-0.000106408 	0.237034
0.0138462 	-0.000175097 	-9.65834e-05 	0.229596
0.0138963 	-0.000172892 	-8.68387e-05 	0.221997
0.0139465 	-0.000170686 	-7.7094e-05 	0.214398
0.0139967 	-0.00016848 	-6.73494e-05 	0.2068
0.0140468 	-0.000166275 	-5.76047e-05 	0.199201
0.014097 	-0.000164069 	-4.78601e-05 	0.191602
0.0141472 	-0.000161863 	-3.81154e-05 	0.184003
0.0141973 	-0.000159657 	-2.83707e-05 	0.176405
0.0142475 	-0.000157452 	-1.86261e-05 	0.168806
0.0142977 	-0.000149967 	-1.3535e-05 	0.158266
0.0143478 	-0.000140354 	-1.03208e-05 	0.14654
0.014398 	-0.000130741 	-7.1066e-06 	0.134814
0.0144482 	-0.000121128 	-3.89238e-06 	0.123088
0.0144983 	-0.000111515 	-6.78166e-07 	0.111362
0.0145485 	-0.000101901 	2.53605e-06 	0.0996359
0.0145987 	-9.22883e-05 	5.75026e-06 	0.0879099
0.0146488 	-8.26752e-05 	8.96448e-06 	0.0761839
0.014699 	-7.12705e-05 	8.5144e-06 	0.0651448
0.0147492 	-5.93921e-05 	7.09534e-06 	0.0542873
0.0147993 	-4.75137e-05 	5.67627e-06 	0.0434299
0.0148495 	-3.56352e-05 	4.2572e-06 	0.0325724
0.0148997 	-2.37568e-05 	2.83813e-06 	0.0217149
0.0149498 	-1.18784e-05 	1.41907e-06 	0.0108575
0.015 	0 	0 	0
