0 	0 	0 	0
0 	0 	0 	0
0.00752508 	0.000495131 	0.000893369 	-0.283822
0.00752508 	0.000495131 	0.000893369 	-0.283822
0.00757525 	0.000514693 	0.000904488 	-0.283768
0.00762542 	0.000534255 	0.000915606 	-0.283713
0.00762542 	0.000534255 	0.000915606 	-0.283713
0.00767559 	0.000553801 	0.000926735 	-0.283657
0.00772575 	0.00057161 	0.000939095 	-0.283541
0.00777592 	0.000589419 	0.000951455 	-0.283425
0.00782609 	0.000607227 	0.000963815 	-0.283309
0.00782609 	0.000607227 	0.000963815 	-0.283309
0.00787625 	0.000624628 	0.000975009 	-0.28317
0.00792642 	0.000641732 	0.000985357 	-0.283014
0.00797659 	0.000658837 	0.000995706 	-0.282858
0.00802676 	0.000676016 	0.00100566 	-0.282698
0.00802676 	0.000676016 	0.00100566 	-0.282698
0.00807692 	0.000693473 	0.00101415 	-0.282522
0.00812709 	0.00071093 	0.00102263 	-0.282346
0.00812709 	0.00071093 	0.00102263 	-0.282346
0.00817726 	0.000728387 	0.00103111 	-0.28217
0.00822742 	0.000746518 	0.00104052 	-0.281983
0.00822742 	0.000746518 	0.00104052 	-0.281983
0.00827759 	0.000764724 	0.00105003 	-0.281795
0.00832776 	0.00078293 	0.00105954 	-0.281607
0.00832776 	0.00078293 	0.00105954 	-0.281607
0.00837793 	0.000801695 	0.00106882 	-0.281411
0.00842809 	0.000820763 	0.00107798 	-0.281211
0.00842809 	0.000820763 	0.00107798 	-0.281211
0.00847826 	0.00083983 	0.00108714 	-0.28101
0.00847826 	0.00083983 	0.00108714 	-0.28101
0.00852843 	0.000859319 	0.0010962 	-0.280802
0.00852843 	0.000859319 	0.0010962 	-0.280802
0.0085786 	0.000879312 	0.00110512 	-0.280586
0.0085786 	0.000879312 	0.00110512 	-0.280586
0.00862876 	0.000899305 	0.00111404 	-0.280369
0.00867893 	0.000919601 	0.00112301 	-0.280147
0.00867893 	0.000919601 	0.00112301 	-0.280147
0.0087291 	0.00094055 	0.00113208 	-0.279911
0.00877926 	0.000961499 	0.00114115 	-0.279675
0.00877926 	0.000961499 	0.00114115 	-0.279675
0.00882943 	0.000982664 	0.00115004 	-0.279434
0.0088796 	0.00100453 	0.00115829 	-0.279176
0.0088796 	0.00100453 	0.00115829 	-0.279176
0.00897993 	0.00104824 	0.00117398 	-0.278658
0.00897993 	0.00104824 	0.00117398 	-0.278658
0.0090301 	0.00107 	0.00117822 	-0.278385
0.00908027 	0.00109177 	0.00118247 	-0.278112
0.00908027 	0.00109177 	0.00118247 	-0.278112
0.00913043 	0.00111285 	0.00118648 	-0.277844
0.0091806 	0.00113165 	0.00118974 	-0.277594
0.0091806 	0.00113165 	0.00118974 	-0.277594
0.00923077 	0.00115046 	0.00119299 	-0.277343
0.00928094 	0.00116808 	0.00119918 	-0.277115
0.00928094 	0.00116808 	0.00119918 	-0.277115
0.0093311 	0.00118306 	0.00121189 	-0.27694
0.00938127 	0.00119803 	0.0012246 	-0.276764
0.00938127 	0.00119803 	0.0012246 	-0.276764
0.00943144 	0.00121472 	0.00124248 	-0.276615
0.00943144 	0.00121472 	0.00124248 	-0.276615
0.00948161 	0.00123362 	0.00126698 	-0.276499
0.00948161 	0.00123362 	0.00126698 	-0.276499
0.00953177 	0.00125253 	0.00129148 	-0.276382
0.00953177 	0.00125253 	0.00129148 	-0.276382
0.00958194 	0.00128468 	0.00130996 	-0.276141
0.00958194 	0.00128468 	0.00130996 	-0.276141
0.00963211 	0.00132504 	0.00132473 	-0.275822
0.00963211 	0.00132504 	0.00132473 	-0.275822
0.00968227 	0.00136539 	0.00133949 	-0.275502
0.00968227 	0.00136539 	0.00133949 	-0.275502
0.00973244 	0.00142194 	0.00132722 	-0.274723
0.00978261 	0.00148142 	0.00131007 	-0.27386
0.00983278 	0.00153751 	0.00129321 	-0.272937
0.00988294 	0.0015699 	0.00127834 	-0.271588
0.00988294 	0.0015699 	0.00127834 	-0.271588
0.00993311 	0.00160229 	0.00126347 	-0.27024
0.00998328 	0.00161797 	0.00126247 	-0.268884
0.00998328 	0.00161797 	0.00126247 	-0.268884
0.0100334 	0.00161329 	0.00127835 	-0.267521
0.0100334 	0.00161329 	0.00127835 	-0.267521
0.0100836 	0.00160861 	0.00129424 	-0.266157
0.0101338 	0.00160446 	0.00131134 	-0.265089
0.0101338 	0.00160446 	0.00131134 	-0.265089
0.0102341 	0.00159973 	0.0013415 	-0.263162
0.0102341 	0.00159973 	0.0013415 	-0.263162
0.0102843 	0.00160946 	0.00134011 	-0.262494
0.0103344 	0.00161918 	0.00133873 	-0.261827
0.0103344 	0.00161918 	0.00133873 	-0.261827
0.0103846 	0.00163442 	0.0013317 	-0.261282
0.0103846 	0.00163442 	0.0013317 	-0.261282
0.0104348 	0.00165193 	0.00132236 	-0.260787
0.0104849 	0.00166934 	0.00131566 	-0.260308
0.0104849 	0.00166934 	0.00131566 	-0.260308
0.0105351 	0.0016864 	0.00131846 	-0.259884
0.0105853 	0.00170347 	0.00132125 	-0.259459
0.0105853 	0.00170347 	0.00132125 	-0.259459
0.0106355 	0.00172022 	0.00133563 	-0.259008
0.0106856 	0.00173689 	0.00135345 	-0.258548
0.0106856 	0.00173689 	0.00135345 	-0.258548
0.0107358 	0.00175736 	0.00136781 	-0.258013
0.0107358 	0.00175736 	0.00136781 	-0.258013
0.010786 	0.00178437 	0.0013762 	-0.25735
0.010786 	0.00178437 	0.0013762 	-0.25735
0.0108361 	0.00181147 	0.00138442 	-0.256684
0.0108361 	0.00181147 	0.00138442 	-0.256684
0.0108863 	0.00185188 	0.00136703 	-0.255772
0.0109365 	0.00189229 	0.00134963 	-0.254861
0.0109365 	0.00189229 	0.00134963 	-0.254861
0.0109866 	0.0019305 	0.00132964 	-0.253876
0.0109866 	0.0019305 	0.00132964 	-0.253876
0.0110368 	0.0019677 	0.00130848 	-0.252857
0.011087 	0.00199824 	0.00129461 	-0.251831
0.011087 	0.00199824 	0.00129461 	-0.251831
0.0111371 	0.0020191 	0.00129134 	-0.250797
0.0111873 	0.0020382 	0.00128959 	-0.249772
0.0111873 	0.0020382 	0.00128959 	-0.249772
0.0112375 	0.00204875 	0.00129529 	-0.248794
0.0112876 	0.00205929 	0.00130098 	-0.247816
0.0112876 	0.00205929 	0.00130098 	-0.247816
0.0113378 	0.00206904 	0.00130105 	-0.246952
0.011388 	0.00207876 	0.00130095 	-0.246092
0.011388 	0.00207876 	0.00130095 	-0.246092
0.0114883 	0.00210013 	0.001294 	-0.244489
0.0114883 	0.00210013 	0.001294 	-0.244489
0.0115385 	0.00211264 	0.00129316 	-0.243651
0.0115886 	0.00212593 	0.00129367 	-0.242793
0.0115886 	0.00212593 	0.00129367 	-0.242793
0.0116388 	0.00214393 	0.00129252 	-0.241836
0.011689 	0.00216504 	0.00129029 	-0.240815
0.011689 	0.00216504 	0.00129029 	-0.240815
0.0117391 	0.00219085 	0.00128069 	-0.239714
0.0117893 	0.00222044 	0.00126517 	-0.23855
0.0117893 	0.00222044 	0.00126517 	-0.23855
0.0118395 	0.00224995 	0.00124633 	-0.23735
0.0118896 	0.00227941 	0.0012247 	-0.236121
0.0118896 	0.00227941 	0.0012247 	-0.236121
0.0119398 	0.00230406 	0.0012071 	-0.234874
0.0119398 	0.00230406 	0.0012071 	-0.234874
0.01199 	0.00232499 	0.00119261 	-0.233613
0.01199 	0.00232499 	0.00119261 	-0.233613
0.0120401 	0.00234064 	0.00118405 	-0.232343
0.0120401 	0.00234064 	0.00118405 	-0.232343
0.0120903 	0.0023531 	0.00117907 	-0.231067
0.0120903 	0.0023531 	0.00117907 	-0.231067
0.0121405 	0.00236351 	0.00117433 	-0.229803
0.0121405 	0.00236351 	0.00117433 	-0.229803
0.0121906 	0.0023731 	0.00116968 	-0.228544
0.0121906 	0.0023731 	0.00116968 	-0.228544
0.0122408 	0.0023839 	0.00115946 	-0.227291
0.0122408 	0.0023839 	0.00115946 	-0.227291
0.012291 	0.00239494 	0.00114818 	-0.226039
0.012291 	0.00239494 	0.00114818 	-0.226039
0.0123411 	0.0024086 	0.00113177 	-0.224754
0.0123411 	0.0024086 	0.00113177 	-0.224754
0.0123913 	0.00242275 	0.00111502 	-0.223458
0.0123913 	0.00242275 	0.00111502 	-0.223458
0.0124415 	0.002439 	0.00109684 	-0.222116
0.0124916 	0.00245602 	0.00107844 	-0.220747
0.0124916 	0.00245602 	0.00107844 	-0.220747
0.012592 	0.00249256 	0.00104036 	-0.217889
0.012592 	0.00249256 	0.00104036 	-0.217889
0.0126421 	0.00251119 	0.00102074 	-0.216412
0.0126923 	0.00252984 	0.00100137 	-0.21486
0.0126923 	0.00252984 	0.00100137 	-0.21486
0.0127425 	0.00254849 	0.00098227 	-0.213283
0.0127425 	0.00254849 	0.00098227 	-0.213283
0.0127926 	0.00256717 	0.000963901 	-0.211648
0.0128428 	0.00258545 	0.000945 	-0.209968
0.0128428 	0.00258545 	0.000945 	-0.209968
0.012893 	0.00260347 	0.000925766 	-0.20826
0.0129431 	0.0026201 	0.000904651 	-0.206483
0.0129431 	0.0026201 	0.000904651 	-0.206483
0.0129933 	0.0026361 	0.000882917 	-0.204676
0.0130435 	0.00265114 	0.000860259 	-0.202825
0.0130435 	0.00265114 	0.000860259 	-0.202825
0.0130936 	0.00266491 	0.000836628 	-0.200907
0.0131438 	0.00267792 	0.000812516 	-0.198949
0.0131438 	0.00267792 	0.000812516 	-0.198949
0.013194 	0.00268971 	0.000787713 	-0.196925
0.0132441 	0.00270003 	0.000762265 	-0.194819
0.0132441 	0.00270003 	0.000762265 	-0.194819
0.0132943 	0.00270936 	0.000736462 	-0.192656
0.0133445 	0.00271728 	0.000710248 	-0.190408
0.0133445 	0.00271728 	0.000710248 	-0.190408
0.0133946 	0.00272348 	0.000683689 	-0.188051
0.0134448 	0.00272834 	0.000656893 	-0.185615
0.0134448 	0.00272834 	0.000656893 	-0.185615
0.013495 	0.00273166 	0.000629839 	-0.183088
0.0135452 	0.00273198 	0.00060244 	-0.1804
0.0135452 	0.00273198 	0.00060244 	-0.1804
0.0136455 	0.00272533 	0.000547131 	-0.174672
0.0136455 	0.00272533 	0.000547131 	-0.174672
0.0136957 	0.00271715 	0.000519214 	-0.171582
0.0137458 	0.00270405 	0.000491093 	-0.168279
0.0137458 	0.00270405 	0.000491093 	-0.168279
0.013796 	0.00268653 	0.000462839 	-0.164797
0.0138462 	0.00266395 	0.000434499 	-0.161117
0.0138462 	0.00266395 	0.000434499 	-0.161117
0.0138963 	0.00263556 	0.000406141 	-0.157224
0.0138963 	0.00263556 	0.000406141 	-0.157224
0.0139465 	0.00259814 	0.000377951 	-0.153016
0.0139967 	0.00255259 	0.000350043 	-0.148534
0.0139967 	0.00255259 	0.000350043 	-0.148534
0.0140468 	0.00249824 	0.000322499 	-0.14376
0.0140468 	0.00249824 	0.000322499 	-0.14376
0.014097 	0.00243409 	0.000295409 	-0.138663
0.0141472 	0.00235903 	0.000268881 	-0.133214
0.0141973 	0.0022718 	0.000243079 	-0.127384
0.0141973 	0.0022718 	0.000243079 	-0.127384
0.0142475 	0.00216924 	0.000218254 	-0.121078
0.0142977 	0.00205333 	0.000194278 	-0.114333
0.0143478 	0.00192484 	0.000171222 	-0.10713
0.0143478 	0.00192484 	0.000171222 	-0.10713
0.014398 	0.00178514 	0.000149183 	-0.099462
0.014398 	0.00178514 	0.000149183 	-0.099462
0.0144482 	0.00163626 	0.000128286 	-0.0913491
0.0144983 	0.00148077 	0.000108621 	-0.0828454
0.0144983 	0.00148077 	0.000108621 	-0.0828454
0.0145485 	0.00132157 	9.02091e-05 	-0.0740425
0.0145987 	0.00116137 	7.30573e-05 	-0.0650636
0.0145987 	0.00116137 	7.30573e-05 	-0.0650636
0.0146488 	0.00100215 	5.72126e-05 	-0.0560492
0.014699 	0.000844675 	4.2734e-05 	-0.0471371
0.014699 	0.000844675 	4.2734e-05 	-0.0471371
0.0147492 	0.000688048 	2.97268e-05 	-0.0384487
0.0147993 	0.000529204 	1.84757e-05 	-0.0300909
0.0147993 	0.000529204 	1.84757e-05 	-0.0300909
0.0148495 	0.000361833 	9.04055e-06 	-0.0221659
0.0148495 	0.000361833 	9.04055e-06 	-0.0221659
0.0148997 	0.000190965 	2.7551e-06 	-0.0146999
0.0148997 	0.000190965 	2.7551e-06 	-0.0146999
0.0149498 	5.73584e-05 	6.22285e-08 	-0.0074691
0.0149498 	5.73584e-05 	6.22285e-08 	-0.0074691
0.015 	0 	0 	0
