-0.0075 	0 	0 	0
-0.00745622 	-0.00205521 	1.88902e-06 	0.0146848
-0.00741165 	-0.00305155 	4.37e-06 	0.0300113
-0.00736628 	-0.00348959 	8.45672e-06 	0.0449185
-0.0073201 	-0.00388723 	1.47739e-05 	0.0588015
-0.00727309 	-0.00429282 	2.00232e-05 	0.07177
-0.00722524 	-0.0046188 	2.57087e-05 	0.08402
-0.00717653 	-0.00484174 	3.12416e-05 	0.0956307
-0.00712695 	-0.0049615 	3.62199e-05 	0.106632
-0.00707647 	-0.00498667 	4.04694e-05 	0.117027
-0.0070251 	-0.00492976 	4.38476e-05 	0.126809
-0.0069728 	-0.00480539 	4.58725e-05 	0.135976
-0.00691956 	-0.00463062 	4.62233e-05 	0.144538
-0.00686537 	-0.00442424 	4.49246e-05 	0.152523
-0.00681021 	-0.00420207 	4.19325e-05 	0.159973
-0.00675406 	-0.00397418 	3.72065e-05 	0.166932
-0.0066969 	-0.00374558 	3.07956e-05 	0.173436
-0.00663871 	-0.0035185 	2.33212e-05 	0.179507
-0.00657949 	-0.00329506 	1.56508e-05 	0.18515
-0.0065192 	-0.00307758 	7.19553e-06 	0.190376
-0.00645783 	-0.00286845 	-4.35692e-06 	0.195216
-0.00639535 	-0.00267098 	-2.21678e-05 	0.199743
-0.00633176 	-0.00249084 	-4.62236e-05 	0.204062
-0.00626703 	-0.0023346 	-6.78011e-05 	0.20825
-0.00620114 	-0.00220261 	-8.03866e-05 	0.212276
-0.00613406 	-0.00208742 	-9.01619e-05 	0.216021
-0.00606579 	-0.00198269 	-0.000104622 	0.219419
-0.00599629 	-0.00188791 	-0.000125301 	0.222515
-0.00592554 	-0.00180402 	-0.000147266 	0.225389
-0.00585352 	-0.00172964 	-0.000166571 	0.228095
-0.00578022 	-0.00166145 	-0.000178161 	0.230661
-0.00570559 	-0.00159517 	-0.000202226 	0.233096
-0.00562963 	-0.00154342 	-0.000263591 	0.235398
-0.00555231 	-0.00154315 	-0.000313619 	0.237551
-0.0054736 	-0.00159728 	-0.000290469 	0.239573
-0.00539348 	-0.00161938 	-0.000214692 	0.241562
-0.00531193 	-0.00148894 	-0.000196598 	0.243615
-0.00522891 	-0.0012124 	-0.000287928 	0.245665
-0.0051444 	-0.000931713 	-0.0003969 	0.247557
-0.00505838 	-0.000755243 	-0.000433631 	0.249236
-0.00497081 	-0.000686092 	-0.000411153 	0.250748
-0.00488168 	-0.000666226 	-0.000402008 	0.252146
-0.00479094 	-0.00064982 	-0.000426275 	0.253462
-0.00469858 	-0.00062841 	-0.000449541 	0.254704
-0.00460456 	-0.000604931 	-0.000463873 	0.255874
-0.00450886 	-0.000579615 	-0.000478758 	0.256974
-0.00441144 	-0.00055129 	-0.000487567 	0.258006
-0.00431227 	-0.00051828 	-0.000494077 	0.258974
-0.00421133 	-0.000486745 	-0.000543915 	0.259879
-0.00410857 	-0.000492805 	-0.000634079 	0.260698
-0.00400397 	-0.000586183 	-0.000671041 	0.261402
-0.0038975 	-0.000740734 	-0.000585879 	0.26203
-0.00378912 	-0.000755821 	-0.000401048 	0.262773
-0.00367879 	-0.000337911 	-0.000351999 	0.263873
-0.00356649 	0.000404574 	-0.000546446 	0.265168
-0.00345217 	0.00103453 	-0.000727666 	0.266241
-0.0033358 	0.00138791 	-0.000754971 	0.26699
-0.00321735 	0.00153904 	-0.000705267 	0.26753
-0.00309677 	0.00159692 	-0.000681123 	0.267965
-0.00297403 	0.00164218 	-0.000709895 	0.268361
-0.00284909 	0.00169391 	-0.000741615 	0.268731
-0.0027219 	0.00174961 	-0.000762394 	0.269073
-0.00259244 	0.00180856 	-0.000786063 	0.269388
-0.00246065 	0.00187007 	-0.000811022 	0.269674
-0.00232651 	0.00193372 	-0.000835112 	0.269933
-0.00218995 	0.00199945 	-0.000857886 	0.270165
-0.00205095 	0.00206693 	-0.000879549 	0.270367
-0.00190946 	0.00213531 	-0.000899822 	0.270535
-0.00176543 	0.00220386 	-0.000918389 	0.270661
-0.00161881 	0.00227232 	-0.000934909 	0.270738
-0.00146957 	0.00234062 	-0.000950599 	0.27076
-0.00131765 	0.00240836 	-0.000971291 	0.270723
-0.001163 	0.00247471 	-0.000993243 	0.270634
-0.00100559 	0.00254969 	-0.000987567 	0.270408
-0.000845345 	0.00266719 	-0.000956742 	0.269753
-0.000682232 	0.00286087 	-0.00101419 	0.268173
-0.000516194 	0.00311385 	-0.00118404 	0.265242
-0.000347178 	0.00324609 	-0.00119624 	0.26239
-0.000175132 	0.00318166 	-0.00105278 	0.26057
0 	0.0031064 	-0.00105777 	0.259624
0.000175132 	0.00311127 	-0.0011792 	0.259681
0.000347178 	0.00314587 	-0.0012406 	0.260033
0.000516194 	0.00316926 	-0.00123651 	0.26019
0.000682232 	0.00318047 	-0.00122863 	0.260111
0.000845345 	0.00319236 	-0.00123129 	0.259909
0.00100559 	0.00320942 	-0.00123523 	0.25963
0.001163 	0.00323012 	-0.00123776 	0.259274
0.00131765 	0.00325291 	-0.00123911 	0.258843
0.00146957 	0.00327592 	-0.0012397 	0.258341
0.00161881 	0.0032976 	-0.00123957 	0.257774
0.00176543 	0.00331764 	-0.00123794 	0.257145
0.00190946 	0.00333651 	-0.00123447 	0.25646
0.00205095 	0.00335432 	-0.00122984 	0.25572
0.00218995 	0.00337054 	-0.00122362 	0.254932
0.00232651 	0.00338565 	-0.00121405 	0.254094
0.00246065 	0.00340399 	-0.00120015 	0.253191
0.00259244 	0.00342969 	-0.00118264 	0.252207
0.0027219 	0.00346249 	-0.00116311 	0.251144
0.00284909 	0.00350056 	-0.00114254 	0.250012
0.00297403 	0.00354218 	-0.00112151 	0.248818
0.00309677 	0.00358567 	-0.00110096 	0.247568
0.00321735 	0.00362974 	-0.001081 	0.246269
0.0033358 	0.00367417 	-0.00105544 	0.244929
0.00345217 	0.00372023 	-0.00103246 	0.243557
0.00356649 	0.00374618 	-0.00103219 	0.24209
0.00367879 	0.00369478 	-0.00102491 	0.240279
0.00378912 	0.00353555 	-0.000963983 	0.237793
0.0038975 	0.0032971 	-0.000863139 	0.234535
0.00400397 	0.0031558 	-0.000833956 	0.231553
0.00410857 	0.00321177 	-0.000878302 	0.229593
0.00421133 	0.00333137 	-0.000886457 	0.227996
0.00431227 	0.00341394 	-0.000848536 	0.226249
0.00441144 	0.00345474 	-0.000800453 	0.224318
0.00450886 	0.00347978 	-0.000768127 	0.222299
0.00460456 	0.00350076 	-0.000743585 	0.220226
0.00469858 	0.00351631 	-0.0007154 	0.218093
0.00479094 	0.00352554 	-0.00068573 	0.21589
0.00488168 	0.00352967 	-0.00065576 	0.213599
0.00497081 	0.00353029 	-0.000625792 	0.211203
0.00505838 	0.00352731 	-0.000595914 	0.20869
0.0051444 	0.0035195 	-0.000565735 	0.206057
0.00522891 	0.00350598 	-0.000534565 	0.203309
0.00531193 	0.00348674 	-0.000502559 	0.20045
0.00539348 	0.00346227 	-0.000470519 	0.197477
0.0054736 	0.00343302 	-0.000439209 	0.194383
0.00555231 	0.00339938 	-0.00040827 	0.191161
0.00562963 	0.00336284 	-0.000376299 	0.187793
0.00570559 	0.00332666 	-0.00034421 	0.184254
0.00578022 	0.00329231 	-0.000315306 	0.180499
0.00585352 	0.00325465 	-0.000290111 	0.176489
0.00592554 	0.00320269 	-0.000264536 	0.172206
0.00599629 	0.00312783 	-0.00023577 	0.16766
0.00606579 	0.00303312 	-0.000206835 	0.16288
0.00613406 	0.00293155 	-0.000182014 	0.157908
0.00620114 	0.00283307 	-0.000161174 	0.152764
0.00626703 	0.00273772 	-0.000141745 	0.147429
0.00633176 	0.00264141 	-0.000122894 	0.141874
0.00639535 	0.00254158 	-0.000105189 	0.13608
0.00645783 	0.0024381 	-8.91314e-05 	0.130041
0.0065192 	0.00233218 	-7.49535e-05 	0.123756
0.00657949 	0.00222486 	-6.26328e-05 	0.117223
0.00663871 	0.00211612 	-5.19665e-05 	0.110433
0.0066969 	0.00200569 	-4.26978e-05 	0.103374
0.00675406 	0.00189395 	-3.47542e-05 	0.0960542
0.00681021 	0.00178189 	-2.83438e-05 	0.0885039
0.00686537 	0.00167064 	-2.34031e-05 	0.0807711
0.00691956 	0.00156103 	-1.95174e-05 	0.0729277
0.0069728 	0.00145349 	-1.64141e-05 	0.0650747
0.0070251 	0.0013482 	-1.38357e-05 	0.057333
0.00707647 	0.00124507 	-1.15481e-05 	0.0498303
0.00712695 	0.00114368 	-9.32905e-06 	0.0426841
0.00717653 	0.00104337 	-6.9981e-06 	0.0359811
0.00722524 	0.000942998 	-4.5946e-06 	0.029759
0.00727309 	0.000840071 	-2.19739e-06 	0.0239967
0.0073201 	0.000729335 	1.21196e-07 	0.0186075
0.00736628 	0.000600458 	1.41937e-06 	0.0134221
0.00741165 	0.000433264 	2.01384e-06 	0.00836588
0.00745622 	0.000221021 	1.53937e-06 	0.00374908
0.0075 	0 	0 	0
