/*--------------------------------*- C++ -*----------------------------------*\
| =========                 |                                                 |
| \\      /  F ield         | OpenFOAM: The Open Source CFD Toolbox           |
|  \\    /   O peration     | Version:  v1912                                 |
|   \\  /    A nd           | Website:  www.openfoam.com                      |
|    \\/     M anipulation  |                                                 |
\*---------------------------------------------------------------------------*/
FoamFile
{
    version     2.0;
    format      ascii;
    class       volScalarField;
    location    "198";
    object      nut;
}
// * * * * * * * * * * * * * * * * * * * * * * * * * * * * * * * * * * * * * //

dimensions      [0 2 -1 0 0 0 0];


internalField   nonuniform List<scalar> 
10077
(
9.587e-12
4.39243e-12
1.6027e-12
4.48899e-12
4.39688e-12
5.19751e-12
5.35498e-12
5.56524e-12
5.54617e-12
5.55478e-12
5.32977e-12
5.16298e-12
4.35791e-12
4.45583e-12
1.59028e-12
4.35922e-12
1.6594e-11
1.10858e-11
1.55286e-11
1.6655e-11
1.65286e-11
1.72173e-11
1.74613e-11
1.78398e-11
1.77906e-11
1.78192e-11
1.74337e-11
1.71928e-11
1.65024e-11
1.66353e-11
1.55541e-11
1.10696e-11
1.88605e-10
1.41297e-10
2.83158e-10
2.59571e-10
2.58439e-10
2.58974e-10
2.61218e-10
2.65275e-10
2.64594e-10
2.65045e-10
2.61098e-10
2.59072e-10
2.58579e-10
2.59741e-10
2.8388e-10
1.41523e-10
1.46093e-09
9.86892e-10
2.04854e-09
1.88083e-09
1.87171e-09
1.87253e-09
1.88803e-09
1.91653e-09
1.91156e-09
1.91495e-09
1.88734e-09
1.8735e-09
1.87299e-09
1.88231e-09
2.05384e-09
9.8866e-10
6.88609e-09
4.15938e-09
8.70591e-09
8.10858e-09
8.06377e-09
8.07682e-09
8.14397e-09
8.26749e-09
8.24571e-09
8.26082e-09
8.14112e-09
8.08105e-09
8.0692e-09
8.11487e-09
8.72801e-09
4.16658e-09
2.36537e-08
1.27359e-08
2.64226e-08
2.52403e-08
2.50798e-08
2.52059e-08
2.54261e-08
2.58261e-08
2.57563e-08
2.58049e-08
2.54156e-08
2.52167e-08
2.50932e-08
2.52569e-08
2.64861e-08
1.27556e-08
6.51856e-08
3.11286e-08
6.27437e-08
6.22841e-08
6.18137e-08
6.25139e-08
6.31165e-08
6.41874e-08
6.40072e-08
6.41312e-08
6.30802e-08
6.25263e-08
6.18282e-08
6.23087e-08
6.28813e-08
3.11668e-08
1.50891e-07
6.37109e-08
1.22429e-07
1.27667e-07
1.26484e-07
1.2906e-07
1.30478e-07
1.32934e-07
1.32541e-07
1.32805e-07
1.30369e-07
1.2904e-07
1.26458e-07
1.27668e-07
1.22666e-07
6.37614e-08
2.9997e-07
1.12449e-07
2.03467e-07
2.23854e-07
2.21284e-07
2.28129e-07
2.30988e-07
2.35846e-07
2.35109e-07
2.35591e-07
2.30723e-07
2.27996e-07
2.21129e-07
2.23757e-07
2.03808e-07
1.12489e-07
5.20401e-07
1.75566e-07
2.97633e-07
3.44823e-07
3.40008e-07
3.54107e-07
3.59087e-07
3.67445e-07
3.66233e-07
3.67006e-07
3.5856e-07
3.53751e-07
3.39614e-07
3.44527e-07
2.98071e-07
1.75556e-07
8.03971e-07
2.46989e-07
3.70374e-07
4.79404e-07
4.7146e-07
4.95574e-07
5.03235e-07
5.16011e-07
5.14219e-07
5.15341e-07
5.02347e-07
4.9489e-07
4.70729e-07
4.78815e-07
3.70791e-07
2.46726e-07
1.13276e-06
3.01747e-07
4.3234e-07
5.94234e-07
5.7909e-07
6.27301e-07
6.40097e-07
6.61906e-07
6.58981e-07
6.60773e-07
6.38389e-07
6.25711e-07
5.77537e-07
5.92887e-07
4.3283e-07
3.01445e-07
1.48842e-06
3.58798e-07
4.91238e-07
6.81549e-07
6.63389e-07
7.19527e-07
7.34131e-07
7.59165e-07
7.55795e-07
7.57877e-07
7.32161e-07
7.17705e-07
6.61624e-07
6.80013e-07
4.91808e-07
3.58472e-07
1.8571e-06
4.1933e-07
5.47193e-07
7.64328e-07
7.43586e-07
8.06145e-07
8.22201e-07
8.49779e-07
8.46052e-07
8.48377e-07
8.20027e-07
8.0416e-07
7.41677e-07
7.62667e-07
5.47842e-07
4.18985e-07
2.19944e-06
4.83885e-07
6.00239e-07
8.44577e-07
8.21299e-07
8.90434e-07
9.07961e-07
9.38061e-07
9.33984e-07
9.36551e-07
9.0558e-07
8.88289e-07
8.19254e-07
8.428e-07
6.00969e-07
4.83529e-07
2.45829e-06
5.5325e-07
6.50805e-07
9.22927e-07
8.97096e-07
9.73107e-07
9.92121e-07
1.02476e-06
1.02033e-06
1.02315e-06
9.89534e-07
9.70806e-07
8.94924e-07
9.21043e-07
6.51616e-07
5.52894e-07
2.72476e-06
6.28604e-07
6.99712e-07
1.00127e-06
9.72705e-07
1.05608e-06
1.07652e-06
1.11171e-06
1.10689e-06
1.10999e-06
1.07373e-06
1.05363e-06
9.70407e-07
9.99287e-07
7.00607e-07
6.28258e-07
3.01883e-06
7.11565e-07
7.4814e-07
1.08345e-06
1.05154e-06
1.14354e-06
1.16519e-06
1.20308e-06
1.19778e-06
1.20125e-06
1.16225e-06
1.14094e-06
1.0491e-06
1.08134e-06
7.4912e-07
7.11236e-07
3.35498e-06
8.04199e-07
7.97527e-07
1.17476e-06
1.13831e-06
1.24168e-06
1.26422e-06
1.30516e-06
1.2992e-06
1.30322e-06
1.26115e-06
1.23891e-06
1.13564e-06
1.17247e-06
7.98595e-07
8.03884e-07
3.74541e-06
9.08736e-07
8.49432e-07
1.28066e-06
1.238e-06
1.35704e-06
1.3796e-06
1.42347e-06
1.41668e-06
1.42141e-06
1.37652e-06
1.35403e-06
1.23498e-06
1.27808e-06
8.5059e-07
9.08426e-07
4.18665e-06
1.02727e-06
9.05438e-07
1.40354e-06
1.35456e-06
1.49022e-06
1.5089e-06
1.54884e-06
1.54221e-06
1.54698e-06
1.50643e-06
1.48699e-06
1.35116e-06
1.40064e-06
9.06691e-07
1.02694e-06
4.6452e-06
1.16173e-06
9.67119e-07
1.52547e-06
1.48405e-06
1.60338e-06
1.62161e-06
1.66497e-06
1.65745e-06
1.66297e-06
1.61915e-06
1.60068e-06
1.48122e-06
1.5231e-06
9.68468e-07
1.16137e-06
5.09373e-06
1.3137e-06
1.03603e-06
1.63072e-06
1.5883e-06
1.7152e-06
1.7342e-06
1.78222e-06
1.7737e-06
1.78008e-06
1.73171e-06
1.7125e-06
1.58536e-06
1.62834e-06
1.03748e-06
1.31327e-06
5.51918e-06
1.48338e-06
1.11372e-06
1.73154e-06
1.68945e-06
1.82265e-06
1.84187e-06
1.89375e-06
1.88431e-06
1.89149e-06
1.83945e-06
1.82002e-06
1.6865e-06
1.72929e-06
1.11527e-06
1.48292e-06
5.91833e-06
1.66278e-06
1.20163e-06
1.82574e-06
1.78766e-06
1.91928e-06
1.93753e-06
1.99148e-06
1.98129e-06
1.98913e-06
1.9354e-06
1.91699e-06
1.78505e-06
1.82392e-06
1.20329e-06
1.6628e-06
6.29418e-06
1.82835e-06
1.30112e-06
1.91034e-06
1.88029e-06
2.00114e-06
2.01701e-06
2.07069e-06
2.0601e-06
2.06834e-06
2.01541e-06
1.99947e-06
1.87841e-06
1.9093e-06
1.30289e-06
1.82863e-06
6.65094e-06
2.00589e-06
1.41342e-06
1.98398e-06
1.96591e-06
2.0672e-06
2.07933e-06
2.13039e-06
2.11977e-06
2.12811e-06
2.07849e-06
2.06646e-06
1.96515e-06
1.98406e-06
1.41529e-06
2.00639e-06
6.99271e-06
2.20128e-06
1.53954e-06
2.04717e-06
2.04468e-06
2.11878e-06
2.12604e-06
2.17234e-06
2.16202e-06
2.17022e-06
2.12616e-06
2.11921e-06
2.04542e-06
2.04865e-06
1.54152e-06
2.20201e-06
7.32251e-06
2.41626e-06
1.67933e-06
2.10376e-06
2.11834e-06
2.15924e-06
2.16083e-06
2.20049e-06
2.19077e-06
2.19861e-06
2.16206e-06
2.16104e-06
2.12089e-06
2.10678e-06
1.68139e-06
2.41724e-06
7.64121e-06
2.65159e-06
1.82593e-06
2.16073e-06
2.19154e-06
2.19601e-06
2.19137e-06
2.2223e-06
2.21352e-06
2.22075e-06
2.1938e-06
2.1993e-06
2.19598e-06
2.16529e-06
1.82798e-06
2.65284e-06
7.94743e-06
2.90765e-06
1.97619e-06
2.2229e-06
2.27034e-06
2.23882e-06
2.22793e-06
2.24857e-06
2.24102e-06
2.24745e-06
2.23156e-06
2.24363e-06
2.27656e-06
2.22897e-06
1.97836e-06
2.90919e-06
8.24025e-06
3.18476e-06
2.14069e-06
2.29182e-06
2.35825e-06
2.29388e-06
2.27749e-06
2.28776e-06
2.28157e-06
2.28712e-06
2.28229e-06
2.30018e-06
2.36613e-06
2.29933e-06
2.14299e-06
3.18659e-06
8.52776e-06
3.48299e-06
2.32236e-06
2.3685e-06
2.4569e-06
2.36421e-06
2.3437e-06
2.34423e-06
2.33952e-06
2.3441e-06
2.34956e-06
2.37193e-06
2.46631e-06
2.37741e-06
2.32478e-06
3.48505e-06
8.84385e-06
3.80227e-06
2.52243e-06
2.45489e-06
2.56807e-06
2.45183e-06
2.42882e-06
2.42063e-06
2.41753e-06
2.42103e-06
2.43565e-06
2.46087e-06
2.57887e-06
2.46514e-06
2.52492e-06
3.80447e-06
9.24599e-06
4.14196e-06
2.74161e-06
2.5541e-06
2.69442e-06
2.55923e-06
2.53517e-06
2.51918e-06
2.51782e-06
2.5201e-06
2.54292e-06
2.56953e-06
2.70645e-06
2.56561e-06
2.74411e-06
4.14418e-06
9.78859e-06
4.50021e-06
2.9788e-06
2.67001e-06
2.83941e-06
2.69034e-06
2.66666e-06
2.64355e-06
2.64412e-06
2.64501e-06
2.67532e-06
2.7018e-06
2.85245e-06
2.68267e-06
2.98124e-06
4.50227e-06
1.04935e-05
4.87209e-06
3.2245e-06
2.80713e-06
3.00732e-06
2.8502e-06
2.82877e-06
2.79944e-06
2.80211e-06
2.80142e-06
2.83824e-06
2.86267e-06
3.02118e-06
2.82081e-06
3.22668e-06
4.87373e-06
1.1223e-05
5.24745e-06
3.43076e-06
2.97116e-06
3.20414e-06
3.04476e-06
3.02811e-06
2.99417e-06
2.99913e-06
2.99667e-06
3.0382e-06
3.05799e-06
3.21869e-06
2.98567e-06
3.43217e-06
5.24841e-06
1.16892e-05
5.60377e-06
3.62791e-06
3.1689e-06
3.43852e-06
3.28069e-06
3.27171e-06
3.23545e-06
3.2428e-06
3.2384e-06
3.2822e-06
3.2944e-06
3.45385e-06
3.1841e-06
3.62908e-06
5.60351e-06
1.17674e-05
5.91513e-06
3.83068e-06
3.40747e-06
3.7201e-06
3.56319e-06
3.56488e-06
3.52891e-06
3.53873e-06
3.5322e-06
3.57549e-06
3.57713e-06
3.73622e-06
3.42333e-06
3.83158e-06
5.91456e-06
1.18175e-05
6.22888e-06
4.03897e-06
3.68646e-06
4.0404e-06
3.88788e-06
3.90311e-06
3.87091e-06
3.88346e-06
3.87444e-06
3.91326e-06
3.90163e-06
4.05728e-06
3.70296e-06
4.03958e-06
6.22794e-06
1.18463e-05
6.54542e-06
4.25276e-06
3.95134e-06
4.32255e-06
4.19116e-06
4.22023e-06
4.20718e-06
4.22061e-06
4.21036e-06
4.22786e-06
4.20329e-06
4.34151e-06
3.96852e-06
4.25307e-06
6.54402e-06
1.18603e-05
6.86569e-06
4.47211e-06
4.18339e-06
4.57465e-06
4.45202e-06
4.48962e-06
4.47781e-06
4.49294e-06
4.481e-06
4.49707e-06
4.46376e-06
4.59303e-06
4.20033e-06
4.47209e-06
6.86371e-06
1.18657e-05
7.1902e-06
4.69706e-06
4.43349e-06
4.84125e-06
4.73222e-06
4.77828e-06
4.76649e-06
4.78377e-06
4.76969e-06
4.78552e-06
4.74359e-06
4.85871e-06
4.44991e-06
4.6967e-06
7.1875e-06
1.18683e-05
7.5191e-06
4.92762e-06
4.69806e-06
5.11872e-06
5.0279e-06
5.08262e-06
5.07284e-06
5.09191e-06
5.07601e-06
5.08952e-06
5.03872e-06
5.13503e-06
4.7138e-06
4.9269e-06
7.51552e-06
1.18738e-05
7.85275e-06
5.16371e-06
4.9738e-06
5.40346e-06
5.33399e-06
5.3971e-06
5.39083e-06
5.41129e-06
5.3939e-06
5.40358e-06
5.34416e-06
5.41846e-06
4.98868e-06
5.16262e-06
7.84808e-06
1.18876e-05
8.18813e-06
5.40509e-06
5.25701e-06
5.69199e-06
5.64627e-06
5.71712e-06
5.71513e-06
5.7366e-06
5.71806e-06
5.72319e-06
5.65576e-06
5.70558e-06
5.27086e-06
5.40365e-06
8.18284e-06
1.19143e-05
8.52295e-06
5.65133e-06
5.54412e-06
5.981e-06
5.96191e-06
6.04027e-06
6.04296e-06
6.06524e-06
6.04573e-06
6.046e-06
5.97079e-06
5.99324e-06
5.55683e-06
5.64955e-06
8.51732e-06
1.19583e-05
8.85595e-06
5.90182e-06
5.83168e-06
6.26945e-06
6.27916e-06
6.36557e-06
6.37433e-06
6.39728e-06
6.37694e-06
6.37092e-06
6.28739e-06
6.28042e-06
5.84323e-06
5.89973e-06
8.85016e-06
1.20246e-05
9.18645e-06
6.15655e-06
6.11797e-06
6.55695e-06
6.59676e-06
6.69106e-06
6.70682e-06
6.73018e-06
6.70923e-06
6.696e-06
6.6043e-06
6.56671e-06
6.1284e-06
6.15415e-06
9.18061e-06
1.21179e-05
9.51401e-06
6.41637e-06
6.40237e-06
6.84133e-06
6.9121e-06
7.01396e-06
7.03734e-06
7.06087e-06
7.03951e-06
7.01846e-06
6.91894e-06
6.84996e-06
6.41177e-06
6.41365e-06
9.50819e-06
1.22407e-05
9.8384e-06
6.68139e-06
6.68315e-06
7.1205e-06
7.22304e-06
7.33193e-06
7.36337e-06
7.38687e-06
7.36531e-06
7.33602e-06
7.22921e-06
7.12809e-06
6.69155e-06
6.67839e-06
9.83264e-06
1.2394e-05
1.01597e-05
6.95086e-06
6.95809e-06
7.39243e-06
7.5278e-06
7.64303e-06
7.6829e-06
7.70612e-06
7.68459e-06
7.64675e-06
7.53335e-06
7.3991e-06
6.9656e-06
6.9476e-06
1.01541e-05
1.25774e-05
1.04785e-05
7.22396e-06
7.22689e-06
7.65708e-06
7.8247e-06
7.94543e-06
7.99422e-06
8.01682e-06
7.99567e-06
7.94883e-06
7.82972e-06
7.66294e-06
7.23351e-06
7.22047e-06
1.0473e-05
1.2789e-05
1.07952e-05
7.49987e-06
7.4913e-06
7.91621e-06
8.1123e-06
8.23743e-06
8.29574e-06
8.31733e-06
8.29699e-06
8.24061e-06
8.11689e-06
7.92135e-06
7.49707e-06
7.49619e-06
1.07897e-05
1.2903e-05
1.11094e-05
7.77781e-06
7.75199e-06
8.17063e-06
8.38947e-06
8.51985e-06
8.58607e-06
8.60685e-06
8.58712e-06
8.52274e-06
8.39362e-06
8.17513e-06
7.75698e-06
7.77399e-06
1.1104e-05
1.29562e-05
1.14204e-05
8.05704e-06
8.00913e-06
8.42057e-06
8.65824e-06
8.79403e-06
8.86657e-06
8.8872e-06
8.86749e-06
8.79662e-06
8.66196e-06
8.42452e-06
8.0134e-06
8.05311e-06
1.14151e-05
1.31104e-05
1.17272e-05
8.33681e-06
8.26264e-06
8.66604e-06
8.9195e-06
9.06043e-06
9.13826e-06
9.15903e-06
9.13907e-06
9.06275e-06
8.92284e-06
8.66954e-06
8.26628e-06
8.33281e-06
1.17219e-05
1.34263e-05
1.20288e-05
8.61639e-06
8.51231e-06
8.90693e-06
9.17357e-06
9.31911e-06
9.40143e-06
9.42245e-06
9.40216e-06
9.32119e-06
9.17658e-06
8.91005e-06
8.5154e-06
8.61238e-06
1.20236e-05
1.39116e-05
1.23242e-05
8.8951e-06
8.75773e-06
9.14293e-06
9.42041e-06
9.5699e-06
9.65604e-06
9.67733e-06
9.6567e-06
9.57178e-06
9.42314e-06
9.14574e-06
8.76035e-06
8.89114e-06
1.23191e-05
1.44636e-05
1.26123e-05
9.17232e-06
8.99842e-06
9.37348e-06
9.65957e-06
9.81234e-06
9.9017e-06
9.92326e-06
9.90231e-06
9.81404e-06
9.66207e-06
9.37603e-06
9.00065e-06
9.16845e-06
1.26073e-05
1.477e-05
1.28918e-05
9.44741e-06
9.23404e-06
9.598e-06
9.89038e-06
1.00456e-05
1.01376e-05
1.01595e-05
1.01382e-05
1.00472e-05
9.89267e-06
9.60036e-06
9.23597e-06
9.44372e-06
1.28869e-05
1.50715e-05
1.31612e-05
9.71978e-06
9.46458e-06
9.81617e-06
1.01122e-05
1.0269e-05
1.03628e-05
1.03849e-05
1.03633e-05
1.02705e-05
1.01144e-05
9.81841e-06
9.46632e-06
9.71635e-06
1.31564e-05
1.53626e-05
1.34189e-05
9.98885e-06
9.69045e-06
1.00281e-05
1.03249e-05
1.04821e-05
1.05763e-05
1.05989e-05
1.05766e-05
1.04834e-05
1.0327e-05
1.00303e-05
9.69215e-06
9.98576e-06
1.34143e-05
1.56385e-05
1.36632e-05
1.0254e-05
9.91243e-06
1.02343e-05
1.05287e-05
1.06848e-05
1.07778e-05
1.08008e-05
1.0778e-05
1.06861e-05
1.05308e-05
1.02367e-05
9.91424e-06
1.02513e-05
1.36588e-05
1.58943e-05
1.38922e-05
1.05145e-05
1.01315e-05
1.04358e-05
1.07241e-05
1.08774e-05
1.09675e-05
1.09906e-05
1.09677e-05
1.08787e-05
1.07262e-05
1.04384e-05
1.01336e-05
1.05124e-05
1.38879e-05
1.6126e-05
1.41037e-05
1.07696e-05
1.03485e-05
1.06335e-05
1.09111e-05
1.10598e-05
1.1146e-05
1.11688e-05
1.11461e-05
1.10611e-05
1.09133e-05
1.06365e-05
1.03509e-05
1.0768e-05
1.40996e-05
1.63301e-05
1.42955e-05
1.10181e-05
1.05637e-05
1.08279e-05
1.10899e-05
1.1232e-05
1.13135e-05
1.13358e-05
1.13137e-05
1.12334e-05
1.10923e-05
1.08314e-05
1.05666e-05
1.10172e-05
1.42917e-05
1.65036e-05
1.44653e-05
1.12589e-05
1.07766e-05
1.10188e-05
1.12608e-05
1.13946e-05
1.14703e-05
1.14918e-05
1.14706e-05
1.13961e-05
1.12634e-05
1.10228e-05
1.07801e-05
1.12587e-05
1.44617e-05
1.6644e-05
1.46107e-05
1.14904e-05
1.09854e-05
1.12046e-05
1.14239e-05
1.15476e-05
1.16166e-05
1.16369e-05
1.1617e-05
1.15493e-05
1.14269e-05
1.1209e-05
1.09896e-05
1.14909e-05
1.46073e-05
1.6749e-05
1.47292e-05
1.17111e-05
1.11882e-05
1.13839e-05
1.15792e-05
1.1691e-05
1.17523e-05
1.17711e-05
1.17528e-05
1.1693e-05
1.15826e-05
1.13888e-05
1.11932e-05
1.17124e-05
1.47262e-05
1.68168e-05
1.48187e-05
1.19173e-05
1.13845e-05
1.15565e-05
1.17266e-05
1.18248e-05
1.18773e-05
1.18943e-05
1.1878e-05
1.18271e-05
1.17305e-05
1.15621e-05
1.13903e-05
1.19197e-05
1.4816e-05
1.68454e-05
1.4877e-05
1.21076e-05
1.15734e-05
1.17219e-05
1.18657e-05
1.19486e-05
1.19914e-05
1.20063e-05
1.19923e-05
1.19513e-05
1.18701e-05
1.17282e-05
1.15801e-05
1.2111e-05
1.48747e-05
1.68327e-05
1.49024e-05
1.22804e-05
1.17535e-05
1.18794e-05
1.1996e-05
1.20623e-05
1.20944e-05
1.21069e-05
1.20954e-05
1.20653e-05
1.2001e-05
1.18863e-05
1.17611e-05
1.2285e-05
1.49005e-05
1.67749e-05
1.48935e-05
1.24344e-05
1.19235e-05
1.20278e-05
1.21168e-05
1.21653e-05
1.21859e-05
1.21957e-05
1.21872e-05
1.21687e-05
1.21223e-05
1.20355e-05
1.19321e-05
1.24401e-05
1.48921e-05
1.66672e-05
1.48492e-05
1.25682e-05
1.20816e-05
1.2166e-05
1.22272e-05
1.2257e-05
1.22656e-05
1.22726e-05
1.22671e-05
1.22608e-05
1.22333e-05
1.21744e-05
1.20912e-05
1.2575e-05
1.48483e-05
1.65077e-05
1.47681e-05
1.26806e-05
1.22261e-05
1.22925e-05
1.23262e-05
1.23368e-05
1.2333e-05
1.23369e-05
1.23347e-05
1.23409e-05
1.23327e-05
1.23016e-05
1.22367e-05
1.26886e-05
1.47678e-05
1.62991e-05
1.46511e-05
1.27708e-05
1.23552e-05
1.24058e-05
1.24125e-05
1.2404e-05
1.23876e-05
1.23884e-05
1.23895e-05
1.24085e-05
1.24196e-05
1.24156e-05
1.23667e-05
1.278e-05
1.46516e-05
1.05651e-11
6.60556e-12
4.27068e-12
4.27276e-12
4.45236e-12
4.54408e-12
4.58774e-12
4.62146e-12
4.62675e-12
4.62697e-12
4.60018e-12
4.56105e-12
4.47023e-12
4.28829e-12
4.28463e-12
6.6172e-12
7.32756e-11
1.97498e-11
1.75641e-11
2.2114e-11
2.22989e-11
2.40153e-11
2.45638e-11
2.52134e-11
2.51831e-11
2.52149e-11
2.45585e-11
2.40203e-11
2.22897e-11
2.21085e-11
1.76041e-11
1.97456e-11
1.23625e-09
2.78305e-10
2.8088e-10
3.70051e-10
3.69722e-10
4.01632e-10
4.11418e-10
4.23449e-10
4.22721e-10
4.23383e-10
4.11095e-10
4.01434e-10
3.6923e-10
3.69671e-10
2.81441e-10
2.78036e-10
8.53054e-09
1.94349e-09
2.0231e-09
2.65891e-09
2.64792e-09
2.87296e-09
2.94055e-09
3.02491e-09
3.01937e-09
3.02436e-09
2.93804e-09
2.8713e-09
2.64415e-09
2.65596e-09
2.02703e-09
1.94155e-09
3.4709e-08
8.07466e-09
8.60497e-09
1.1276e-08
1.11975e-08
1.21326e-08
1.24077e-08
1.2756e-08
1.27315e-08
1.27533e-08
1.23963e-08
1.21245e-08
1.11806e-08
1.12626e-08
8.62114e-09
8.06652e-09
1.01556e-07
2.42451e-08
2.63086e-08
3.44628e-08
3.41347e-08
3.69535e-08
3.77652e-08
3.88061e-08
3.87292e-08
3.87964e-08
3.77271e-08
3.69244e-08
3.40789e-08
3.44184e-08
2.63554e-08
2.42198e-08
2.35056e-07
5.81416e-08
6.38686e-08
8.3851e-08
8.2855e-08
8.96706e-08
9.1588e-08
9.40752e-08
9.38839e-08
9.40464e-08
9.14844e-08
8.95854e-08
8.27057e-08
8.37311e-08
6.39734e-08
5.80775e-08
4.54472e-07
1.17472e-07
1.29919e-07
1.713e-07
1.68877e-07
1.82725e-07
1.86536e-07
1.91534e-07
1.91139e-07
1.91463e-07
1.86297e-07
1.82514e-07
1.68539e-07
1.71027e-07
1.3011e-07
1.17334e-07
7.63937e-07
2.06619e-07
2.28984e-07
3.03569e-07
2.98615e-07
3.23142e-07
3.29748e-07
3.38493e-07
3.37787e-07
3.38343e-07
3.29271e-07
3.22697e-07
2.97953e-07
3.0303e-07
2.29279e-07
2.06356e-07
1.15254e-06
3.24232e-07
3.58799e-07
4.78524e-07
4.69745e-07
5.08634e-07
5.18919e-07
5.32624e-07
5.31507e-07
5.32347e-07
5.18079e-07
5.07819e-07
4.68602e-07
4.77591e-07
3.592e-07
3.23791e-07
1.60002e-06
4.63672e-07
5.11797e-07
6.85895e-07
6.72031e-07
7.28491e-07
7.43231e-07
7.62937e-07
7.61332e-07
7.62486e-07
7.41898e-07
7.27163e-07
6.70259e-07
6.84445e-07
5.12295e-07
4.63006e-07
2.08293e-06
6.16368e-07
6.78144e-07
9.11314e-07
8.91302e-07
9.67742e-07
9.8755e-07
1.01405e-06
1.01191e-06
1.01338e-06
9.85609e-07
9.65775e-07
8.8878e-07
9.09251e-07
6.7873e-07
6.15472e-07
2.57905e-06
7.74304e-07
8.48772e-07
1.1404e-06
1.11356e-06
1.21135e-06
1.23664e-06
1.27044e-06
1.26775e-06
1.26952e-06
1.234e-06
1.20865e-06
1.11025e-06
1.13767e-06
8.49438e-07
7.73179e-07
3.06995e-06
9.31323e-07
1.01704e-06
1.36479e-06
1.33063e-06
1.44855e-06
1.47914e-06
1.51983e-06
1.51668e-06
1.51865e-06
1.47579e-06
1.44513e-06
1.32652e-06
1.36137e-06
1.01779e-06
9.29988e-07
3.54224e-06
1.07602e-06
1.16001e-06
1.57864e-06
1.53683e-06
1.67418e-06
1.70998e-06
1.75737e-06
1.75379e-06
1.75592e-06
1.7059e-06
1.67005e-06
1.53195e-06
1.57455e-06
1.16071e-06
1.07389e-06
3.98743e-06
1.19657e-06
1.27817e-06
1.7793e-06
1.7296e-06
1.88526e-06
1.92606e-06
1.97979e-06
1.97586e-06
1.9781e-06
1.92128e-06
1.88044e-06
1.72397e-06
1.77457e-06
1.27896e-06
1.19431e-06
4.40094e-06
1.3102e-06
1.38847e-06
1.96635e-06
1.90854e-06
2.08126e-06
2.12677e-06
2.1864e-06
2.18216e-06
2.18446e-06
2.1213e-06
2.07579e-06
1.90221e-06
1.96103e-06
1.38936e-06
1.30797e-06
4.78105e-06
1.42104e-06
1.49528e-06
2.13625e-06
2.05477e-06
2.26312e-06
2.31296e-06
2.37803e-06
2.37356e-06
2.37587e-06
2.30685e-06
2.25705e-06
2.04591e-06
2.12865e-06
1.49629e-06
1.41894e-06
5.12778e-06
1.53154e-06
1.6011e-06
2.25034e-06
2.16138e-06
2.40947e-06
2.47146e-06
2.55632e-06
2.55165e-06
2.55395e-06
2.46336e-06
2.40085e-06
2.15204e-06
2.24234e-06
1.60224e-06
1.5296e-06
5.44192e-06
1.64405e-06
1.70835e-06
2.35319e-06
2.26056e-06
2.51448e-06
2.57789e-06
2.66831e-06
2.66164e-06
2.66494e-06
2.56952e-06
2.50548e-06
2.25127e-06
2.3453e-06
1.70962e-06
1.64233e-06
5.72425e-06
1.76114e-06
1.81953e-06
2.45482e-06
2.35928e-06
2.61084e-06
2.6728e-06
2.76269e-06
2.75556e-06
2.75916e-06
2.66459e-06
2.60202e-06
2.35018e-06
2.44708e-06
1.82095e-06
1.75965e-06
5.97498e-06
1.88513e-06
1.93645e-06
2.55953e-06
2.45994e-06
2.70877e-06
2.7687e-06
2.85694e-06
2.84971e-06
2.85347e-06
2.76074e-06
2.70021e-06
2.45093e-06
2.55191e-06
1.93802e-06
1.8839e-06
6.20969e-06
2.01634e-06
2.05692e-06
2.66841e-06
2.56384e-06
2.811e-06
2.86897e-06
2.95576e-06
2.94844e-06
2.95238e-06
2.86121e-06
2.80266e-06
2.55486e-06
2.66086e-06
2.05862e-06
2.0154e-06
6.44417e-06
2.14595e-06
2.1824e-06
2.78204e-06
2.67166e-06
2.91831e-06
2.97447e-06
3.06025e-06
3.05278e-06
3.05694e-06
2.96687e-06
2.9101e-06
2.66264e-06
2.77452e-06
2.18428e-06
2.14547e-06
6.67899e-06
2.27972e-06
2.31655e-06
2.90143e-06
2.78437e-06
3.03143e-06
3.08588e-06
3.17099e-06
3.16329e-06
3.16771e-06
3.07839e-06
3.0233e-06
2.77527e-06
2.89389e-06
2.31863e-06
2.27971e-06
6.91459e-06
2.41979e-06
2.46149e-06
3.02835e-06
2.90352e-06
3.15191e-06
3.20465e-06
3.28924e-06
3.28127e-06
3.28599e-06
3.19726e-06
3.14381e-06
2.89429e-06
3.02074e-06
2.4638e-06
2.42028e-06
7.1512e-06
2.56739e-06
2.61873e-06
3.16519e-06
3.03125e-06
3.28185e-06
3.33279e-06
3.41677e-06
3.40851e-06
3.41353e-06
3.32545e-06
3.27372e-06
3.0218e-06
3.15747e-06
2.62128e-06
2.56845e-06
7.38896e-06
2.72367e-06
2.78925e-06
3.31344e-06
3.16925e-06
3.42144e-06
3.47006e-06
3.55292e-06
3.54439e-06
3.5497e-06
3.46284e-06
3.41332e-06
3.15955e-06
3.30557e-06
2.79206e-06
2.72533e-06
7.62796e-06
2.8896e-06
2.97353e-06
3.47107e-06
3.31666e-06
3.56541e-06
3.61024e-06
3.69028e-06
3.68163e-06
3.68711e-06
3.60335e-06
3.55755e-06
3.3068e-06
3.46319e-06
2.97662e-06
2.89193e-06
7.8681e-06
3.066e-06
3.17159e-06
3.63295e-06
3.46975e-06
3.70487e-06
3.74339e-06
3.81755e-06
3.80904e-06
3.81451e-06
3.73721e-06
3.6977e-06
3.46e-06
3.62534e-06
3.17496e-06
3.06902e-06
8.10902e-06
3.25343e-06
3.38311e-06
3.79371e-06
3.62397e-06
3.83229e-06
3.86156e-06
3.92611e-06
3.91805e-06
3.92333e-06
3.85651e-06
3.82634e-06
3.61475e-06
3.78678e-06
3.38676e-06
3.25715e-06
8.34931e-06
3.45231e-06
3.60754e-06
3.94988e-06
3.77599e-06
3.94417e-06
3.96147e-06
4.01297e-06
4.00562e-06
4.01056e-06
3.95792e-06
3.93991e-06
3.76778e-06
3.94405e-06
3.61146e-06
3.45672e-06
8.58409e-06
3.66277e-06
3.84391e-06
4.10044e-06
3.92451e-06
4.04134e-06
4.04479e-06
4.08069e-06
4.07429e-06
4.07877e-06
4.04298e-06
4.0391e-06
3.91775e-06
4.0961e-06
3.84808e-06
3.66783e-06
8.80394e-06
3.8846e-06
4.09072e-06
4.24664e-06
4.07035e-06
4.12911e-06
4.11844e-06
4.13756e-06
4.13231e-06
4.13624e-06
4.11842e-06
4.12904e-06
4.06542e-06
4.24409e-06
4.09508e-06
3.89023e-06
8.99813e-06
4.11713e-06
4.34576e-06
4.3919e-06
4.21652e-06
4.21775e-06
4.19412e-06
4.19687e-06
4.19287e-06
4.1962e-06
4.19577e-06
4.21976e-06
4.21358e-06
4.39129e-06
4.35025e-06
4.12321e-06
9.16085e-06
4.35933e-06
4.60615e-06
4.54252e-06
4.36852e-06
4.31775e-06
4.28259e-06
4.27041e-06
4.26761e-06
4.27038e-06
4.2857e-06
4.32158e-06
4.36751e-06
4.54373e-06
4.61069e-06
4.3657e-06
9.28836e-06
4.60969e-06
4.86867e-06
4.70547e-06
4.53241e-06
4.43586e-06
4.39062e-06
4.36518e-06
4.36345e-06
4.36574e-06
4.39496e-06
4.44124e-06
4.53317e-06
4.70825e-06
4.87317e-06
4.61618e-06
9.37171e-06
4.86606e-06
5.13066e-06
4.88566e-06
4.71283e-06
4.57681e-06
4.52283e-06
4.4859e-06
4.4851e-06
4.48698e-06
4.52817e-06
4.58343e-06
4.71513e-06
4.88974e-06
5.13503e-06
4.87251e-06
9.40336e-06
5.12384e-06
5.39109e-06
5.08613e-06
4.91274e-06
4.74348e-06
4.68215e-06
4.63561e-06
4.63554e-06
4.63715e-06
4.68823e-06
4.75102e-06
4.91634e-06
5.09125e-06
5.3953e-06
5.13026e-06
9.38379e-06
5.37414e-06
5.65068e-06
5.30757e-06
5.13285e-06
4.9368e-06
4.86969e-06
4.81577e-06
4.81616e-06
4.81767e-06
4.87623e-06
4.9449e-06
5.13751e-06
5.31347e-06
5.65471e-06
5.38083e-06
9.31724e-06
5.57929e-06
5.91104e-06
5.54793e-06
5.37124e-06
5.1556e-06
5.0846e-06
5.02599e-06
5.02655e-06
5.02816e-06
5.09126e-06
5.16388e-06
5.37672e-06
5.55432e-06
5.9149e-06
5.58837e-06
9.20943e-06
5.76511e-06
6.17373e-06
5.80297e-06
5.62439e-06
5.39738e-06
5.32461e-06
5.26438e-06
5.26479e-06
5.2667e-06
5.33108e-06
5.40546e-06
5.63045e-06
5.8096e-06
6.17746e-06
5.77455e-06
9.06676e-06
5.94725e-06
6.43939e-06
6.06832e-06
5.8894e-06
5.65986e-06
5.58756e-06
5.52866e-06
5.52856e-06
5.53105e-06
5.59359e-06
5.66739e-06
5.89585e-06
6.07494e-06
6.443e-06
5.95697e-06
8.89579e-06
6.1259e-06
6.70685e-06
6.34117e-06
6.16549e-06
5.94195e-06
5.87214e-06
5.81649e-06
5.81558e-06
5.8189e-06
5.87753e-06
5.94866e-06
6.17216e-06
6.34757e-06
6.71037e-06
6.13584e-06
8.70295e-06
6.30129e-06
6.97332e-06
6.62074e-06
6.4531e-06
6.24292e-06
6.17645e-06
6.12211e-06
6.12058e-06
6.12457e-06
6.18116e-06
6.24869e-06
6.45965e-06
6.62677e-06
6.97676e-06
6.31141e-06
8.49442e-06
6.47426e-06
7.2355e-06
6.9086e-06
6.75256e-06
6.56028e-06
6.49459e-06
6.42801e-06
6.42759e-06
6.43072e-06
6.49888e-06
6.56538e-06
6.75843e-06
6.91406e-06
7.23887e-06
6.48454e-06
8.27622e-06
6.64544e-06
7.49068e-06
7.20827e-06
7.06439e-06
6.88464e-06
6.80836e-06
6.68469e-06
6.69156e-06
6.68819e-06
6.81327e-06
6.89022e-06
7.069e-06
7.21279e-06
7.49402e-06
6.65584e-06
8.05424e-06
6.81486e-06
7.73763e-06
7.52488e-06
7.38906e-06
7.18143e-06
7.0633e-06
6.94034e-06
6.94639e-06
6.94355e-06
7.0716e-06
7.1906e-06
7.3921e-06
7.52804e-06
7.741e-06
6.82539e-06
7.83432e-06
6.98264e-06
7.97745e-06
7.86359e-06
7.72356e-06
7.43113e-06
7.31321e-06
7.19507e-06
7.20001e-06
7.19815e-06
7.32079e-06
7.43972e-06
7.72526e-06
7.86519e-06
7.98094e-06
6.99327e-06
7.62226e-06
7.14893e-06
8.2145e-06
8.22361e-06
8.05054e-06
7.67648e-06
7.55882e-06
7.44504e-06
7.44896e-06
7.44796e-06
7.56573e-06
7.68444e-06
8.05239e-06
8.22413e-06
8.21822e-06
7.15965e-06
7.4237e-06
7.31397e-06
8.45756e-06
8.58597e-06
8.31492e-06
7.91567e-06
7.79848e-06
7.68881e-06
7.69177e-06
7.69153e-06
7.80475e-06
7.92296e-06
8.32091e-06
8.58727e-06
8.46162e-06
7.32475e-06
7.24401e-06
7.47801e-06
8.72098e-06
8.8913e-06
8.53355e-06
8.14687e-06
8.03053e-06
7.9248e-06
7.9269e-06
7.92731e-06
8.03618e-06
8.15343e-06
8.53894e-06
8.8979e-06
8.72547e-06
7.48883e-06
7.08812e-06
7.64134e-06
9.02286e-06
9.11312e-06
8.74843e-06
8.36933e-06
8.25339e-06
8.1515e-06
8.15286e-06
8.15377e-06
8.25843e-06
8.37529e-06
8.75332e-06
9.11928e-06
9.02783e-06
7.65217e-06
6.96179e-06
7.80423e-06
9.38064e-06
9.33082e-06
8.95879e-06
8.58387e-06
8.4677e-06
8.36835e-06
8.36917e-06
8.37042e-06
8.47222e-06
8.58934e-06
8.9633e-06
9.33671e-06
9.38617e-06
7.81503e-06
6.87008e-06
7.96695e-06
9.79903e-06
9.54279e-06
9.16303e-06
8.79165e-06
8.6749e-06
8.57663e-06
8.57722e-06
8.57854e-06
8.67896e-06
8.79669e-06
9.1673e-06
9.54855e-06
9.80525e-06
7.97767e-06
6.81617e-06
8.12973e-06
1.02479e-05
9.74892e-06
9.36103e-06
8.99387e-06
8.87455e-06
8.77788e-06
8.77799e-06
8.77965e-06
8.87835e-06
8.99868e-06
9.36518e-06
9.75464e-06
1.02552e-05
8.14034e-06
6.79999e-06
8.29275e-06
1.0584e-05
9.9492e-06
9.5528e-06
9.1888e-06
9.06582e-06
8.97099e-06
8.97007e-06
8.97264e-06
9.06946e-06
9.19349e-06
9.55693e-06
9.95496e-06
1.05925e-05
8.30322e-06
6.82041e-06
8.45629e-06
1.07741e-05
1.01439e-05
9.73868e-06
9.37622e-06
9.249e-06
9.15573e-06
9.15362e-06
9.1573e-06
9.25257e-06
9.38089e-06
9.74288e-06
1.01498e-05
1.07829e-05
8.46658e-06
6.87563e-06
8.62075e-06
1.09594e-05
1.03335e-05
9.91916e-06
9.55663e-06
9.4249e-06
9.33274e-06
9.32946e-06
9.33426e-06
9.42847e-06
9.56134e-06
9.92351e-06
1.03395e-05
1.09685e-05
8.63084e-06
6.9638e-06
8.78665e-06
1.11389e-05
1.05184e-05
1.00949e-05
9.73087e-06
9.59456e-06
9.50305e-06
9.49868e-06
9.50455e-06
9.59819e-06
9.73571e-06
1.00994e-05
1.05247e-05
1.11482e-05
8.79651e-06
7.08406e-06
8.95459e-06
1.13118e-05
1.06993e-05
1.02665e-05
9.90009e-06
9.7592e-06
9.66792e-06
9.66255e-06
9.66944e-06
9.76293e-06
9.90511e-06
1.02714e-05
1.07058e-05
1.13212e-05
8.96421e-06
7.23768e-06
9.12525e-06
1.14777e-05
1.08764e-05
1.04349e-05
1.00655e-05
9.92017e-06
9.82883e-06
9.82254e-06
9.83043e-06
9.92407e-06
1.00708e-05
1.04401e-05
1.08833e-05
1.14874e-05
9.13461e-06
7.42956e-06
9.29946e-06
1.16367e-05
1.10501e-05
1.06005e-05
1.02282e-05
1.00788e-05
9.98735e-06
9.98017e-06
9.98907e-06
1.00829e-05
1.02338e-05
1.06061e-05
1.10572e-05
1.16465e-05
9.30856e-06
7.66224e-06
9.47807e-06
1.1789e-05
1.12202e-05
1.07636e-05
1.03889e-05
1.02358e-05
1.01448e-05
1.01366e-05
1.01467e-05
1.02402e-05
1.03948e-05
1.07696e-05
1.12276e-05
1.17988e-05
9.48688e-06
7.91848e-06
9.66196e-06
1.1935e-05
1.13863e-05
1.09241e-05
1.05478e-05
1.03919e-05
1.0302e-05
1.02929e-05
1.03041e-05
1.03965e-05
1.0554e-05
1.09305e-05
1.1394e-05
1.19448e-05
9.67046e-06
8.18441e-06
9.85219e-06
1.20752e-05
1.15483e-05
1.10819e-05
1.07053e-05
1.05474e-05
1.04593e-05
1.04495e-05
1.04615e-05
1.05523e-05
1.07119e-05
1.10886e-05
1.15562e-05
1.2085e-05
9.86034e-06
8.46316e-06
1.00498e-05
1.22101e-05
1.17055e-05
1.12366e-05
1.08618e-05
1.0703e-05
1.06169e-05
1.06067e-05
1.06194e-05
1.07083e-05
1.08688e-05
1.12436e-05
1.17137e-05
1.22196e-05
1.00575e-05
8.75673e-06
1.02556e-05
1.234e-05
1.18578e-05
1.13882e-05
1.10179e-05
1.08593e-05
1.07755e-05
1.0765e-05
1.0778e-05
1.08649e-05
1.10253e-05
1.13955e-05
1.18663e-05
1.23493e-05
1.02629e-05
9.06626e-06
1.04703e-05
1.24656e-05
1.20054e-05
1.1537e-05
1.11737e-05
1.10164e-05
1.09352e-05
1.09246e-05
1.09379e-05
1.10223e-05
1.11815e-05
1.15447e-05
1.20141e-05
1.24743e-05
1.04772e-05
9.39215e-06
1.06944e-05
1.25869e-05
1.21489e-05
1.16839e-05
1.13291e-05
1.11744e-05
1.10963e-05
1.10859e-05
1.10993e-05
1.11806e-05
1.13372e-05
1.1692e-05
1.21578e-05
1.2595e-05
1.07008e-05
9.73409e-06
1.09278e-05
1.27032e-05
1.22885e-05
1.18291e-05
1.14839e-05
1.13332e-05
1.12591e-05
1.1249e-05
1.12622e-05
1.13397e-05
1.14923e-05
1.18376e-05
1.22975e-05
1.27108e-05
1.09337e-05
1.00911e-05
1.11703e-05
1.28158e-05
1.24231e-05
1.19715e-05
1.16376e-05
1.14926e-05
1.14232e-05
1.14136e-05
1.14264e-05
1.14994e-05
1.16463e-05
1.19802e-05
1.24321e-05
1.28227e-05
1.11755e-05
1.04614e-05
1.14206e-05
1.2924e-05
1.25507e-05
1.211e-05
1.17896e-05
1.16519e-05
1.15881e-05
1.15793e-05
1.15915e-05
1.16589e-05
1.17985e-05
1.21189e-05
1.25594e-05
1.29302e-05
1.14252e-05
1.08422e-05
1.16772e-05
1.3027e-05
1.26698e-05
1.22433e-05
1.1939e-05
1.18103e-05
1.17531e-05
1.17452e-05
1.17566e-05
1.18174e-05
1.1948e-05
1.22522e-05
1.26783e-05
1.30324e-05
1.1681e-05
1.12299e-05
1.19375e-05
1.31237e-05
1.27794e-05
1.23699e-05
1.20843e-05
1.19662e-05
1.19166e-05
1.19099e-05
1.19202e-05
1.19736e-05
1.20934e-05
1.23789e-05
1.27874e-05
1.31284e-05
1.19406e-05
1.16198e-05
1.21986e-05
1.3213e-05
1.28781e-05