/*--------------------------------*- C++ -*----------------------------------*\
| =========                 |                                                 |
| \\      /  F ield         | OpenFOAM: The Open Source CFD Toolbox           |
|  \\    /   O peration     | Version:  v1912                                 |
|   \\  /    A nd           | Website:  www.openfoam.com                      |
|    \\/     M anipulation  |                                                 |
\*---------------------------------------------------------------------------*/
FoamFile
{
    version     2.0;
    format      ascii;
    class       volScalarField;
    location    "198";
    object      omega;
}
// * * * * * * * * * * * * * * * * * * * * * * * * * * * * * * * * * * * * * //

dimensions      [0 0 -1 0 0 0 0];


internalField   nonuniform List<scalar> 
10077
(
156509
156509
156508
156509
156509
156509
156509
156509
156509
156509
156509
156509
156509
156509
156508
156509
27272.5
27221.7
27019.8
26997.2
27001.8
27000.6
27001.1
27001.9
27002
27001.7
27000.9
27000.3
27001.5
26997
27019.6
27221.9
9226.3
9328.66
9187.18
9174.74
9177.02
9176.92
9177.4
9178.21
9178.21
9178.08
9177.21
9176.7
9176.81
9174.55
9187.08
9328.75
4415.08
4464.28
4366.38
4356.76
4357.65
4357.16
4357.39
4357.92
4357.89
4357.83
4357.25
4357.02
4357.54
4356.66
4366.38
4464.31
2558.7
2582.95
2515.26
2500.34
2500.61
2498.21
2497.95
2497.9
2497.89
2497.86
2497.92
2498.19
2500.65
2500.37
2515.38
2583.07
1670.62
1694.8
1651.58
1626.92
1627.01
1621.73
1620.83
1619.97
1619.99
1619.98
1620.92
1621.86
1627.24
1627.12
1651.79
1695.05
1189.06
1223.78
1200.78
1166.18
1166.37
1157.92
1156.35
1154.59
1154.66
1154.66
1156.56
1158.22
1166.78
1166.54
1201.07
1224.17
909.876
956.326
948.154
906.844
907.247
896.039
893.865
891.276
891.399
891.399
894.191
896.483
907.81
907.341
948.485
956.826
742.621
797.39
798.03
754.843
755.464
742.333
739.684
736.436
736.598
736.601
740.102
742.881
756.127
755.434
798.368
797.914
640.853
698.486
703.018
662.684
663.416
649.294
646.308
642.59
642.778
642.787
646.791
649.905
664.119
663.325
703.331
698.99
577.967
633.277
638.605
604.551
605.288
590.921
587.713
583.695
583.892
583.913
588.24
591.564
605.991
605.208
638.885
633.714
538.403
587.281
590.909
566.018
566.596
552.737
549.42
545.296
545.483
545.524
549.97
553.379
567.262
566.659
591.149
587.642
513.096
551.807
552.105
538.381
538.652
526.021
522.708
518.685
518.837
518.912
523.261
526.632
539.263
538.975
552.301
552.072
496.698
521.768
517.879
517.222
517.002
505.689
502.335
498.411
498.523
498.631
502.887
506.265
517.534
517.75
518.032
521.93
485.891
494.299
485.977
499.078
498.236
488.741
485.402
481.72
481.773
481.927
485.942
489.264
498.673
499.524
486.091
494.358
478.288
467.871
455.299
481.817
480.289
472.933
469.634
466.303
466.281
466.492
470.158
473.392
480.622
482.171
455.378
467.833
471.859
441.788
425.411
464.158
461.948
456.9
453.648
450.758
450.647
450.926
454.152
457.287
462.174
464.418
425.461
441.666
464.936
415.835
396.237
445.4
442.569
439.873
436.679
434.343
434.126
434.487
437.157
440.185
442.692
445.567
396.262
415.642
456.318
390.052
367.88
425.291
421.932
421.559
418.471
416.782
416.448
416.901
418.91
421.797
421.958
425.366
367.884
389.804
445.353
364.615
340.527
403.969
400.174
402.091
399.206
398.209
397.746
398.307
399.597
402.255
400.108
403.959
340.514
364.327
432.024
339.764
314.384
381.907
377.725
381.961
379.366
379.026
378.432
379.108
379.713
382.047
377.572
381.813
314.358
339.449
416.891
315.757
289.641
359.676
355.199
361.645
359.415
359.622
358.91
359.696
359.725
361.652
354.966
359.504
289.605
315.426
401.173
292.844
266.449
337.661
333.036
341.424
339.637
340.281
339.489
340.352
339.909
341.356
332.735
337.42
266.406
292.505
385.333
271.257
244.912
316.065
311.419
321.523
320.237
321.264
320.417
321.314
320.444
321.384
311.058
315.763
244.863
270.916
369.305
251.143
225.084
295.032
290.471
302.114
301.347
302.757
301.909
302.786
301.477
301.909
290.061
294.677
225.032
250.806
353.04
232.476
206.972
274.642
270.28
283.279
283.021
284.838
284.006
284.842
283.071
283.012
269.829
274.243
206.919
232.148
336.504
215.145
190.54
254.898
250.879
265.003
265.222
267.473
266.657
267.45
265.195
264.678
250.401
254.469
190.487
214.83
319.681
199.073
175.722
235.738
232.253
247.188
247.837
250.535
249.733
250.484
247.741
246.815
231.766
235.295
175.671
198.774
302.565
184.211
162.427
217.432
214.352
229.678
230.692
233.835
233.039
233.757
230.538
229.268
213.878
216.979
162.377
183.931
285.16
170.522
150.531
200.617
197.481
212.777
214.04
217.472
216.691
217.372
213.841
212.342
197.02
200.155
150.484
170.262
267.462
157.963
139.888
185.359
182.09
197.043
198.434
201.966
201.213
201.852
198.205
196.598
181.633
184.902
139.844
157.724
249.448
146.491
130.341
171.361
168.122
182.418
183.852
187.416
186.69
187.292
183.609
181.977
167.68
170.924
130.299
146.272
231.258
136.05
121.749
158.442
155.374
168.701
170.096
173.596
172.902
173.466
169.854
168.28
154.957
158.037
121.711
135.852
214.113
126.579
113.999
146.483
143.696
155.811
157.098
160.438
159.78
160.307
156.872
155.423
143.313
146.119
113.965
126.401
198.659
118.003
106.996
135.417
132.974
143.725
144.852
147.946
147.332
147.819
144.652
143.379
132.627
135.1
106.965
117.843
184.764
110.246
100.659
125.193
123.112
132.444
133.377
136.158
135.591
136.037
133.21
132.146
122.798
124.925
100.632
110.104
172.255
103.237
94.9172
115.752
114.005
121.964
122.678
125.105
124.585
124.993
122.552
121.716
113.72
115.531
94.8925
103.111
161.086
96.9037
89.6832
107.104
105.536
112.286
112.824
114.903
114.444
114.804
112.727
112.082
105.271
106.921
89.6606
96.7902
150.95
91.1647
84.8709
99.169
97.5818
103.436
103.828
105.619
105.212
105.532
103.751
103.268
97.3526
99.0121
84.8497
91.0627
141.6
85.9421
80.4209
91.752
90.333
95.2093
95.4566
97.0744
96.6873
96.9956
95.393
95.0688
90.1547
91.6202
80.4006
85.8498
132.96
81.17
76.2917
85.0226
83.9786
87.6955
87.8219
89.1945
88.8489
89.1271
87.7756
87.5873
83.8432
84.9243
76.2718
81.0859
124.936
76.7885
72.4484
79.1266
78.4092
81.1953
81.2416
82.2837
82.0117
82.2327
81.214
81.1212
78.3084
79.0553
72.4285
76.7121
117.447
72.7421
68.8612
73.9434
73.4909
75.6294
75.6295
76.427
76.2124
76.3888
75.6138
75.5789
73.4178
73.8929
68.8411
72.673
110.435
68.9891
65.5053
69.3626
69.1214
70.781
70.7668
71.4104
71.2345
71.3812
70.7574
70.7445
69.0693
69.3266
65.4847
68.9273
103.857
65.4975
62.3598
65.2969
65.2247
66.5323
66.5204
67.0378
66.896
67.015
66.5149
66.5055
65.1878
65.2699
62.3385
65.4431
97.6763
62.2375
59.4074
61.665
61.734
62.7939
62.7986
63.2185
63.1068
63.2004
62.7946
62.7728
61.7076
61.6436
59.3853
62.1908
91.8635
59.2072
56.6338
58.4033
58.5916
59.4796
59.5129
59.8645
59.7786
59.8496
59.5082
59.4608
58.5719
58.3856
56.6107
59.1637
86.3974
56.3949
54.0275
55.4585
55.749
56.5078
56.573
56.8803
56.8152
56.8672
56.5655
56.4886
55.7324
55.4426
54.0032
56.3521
81.2596
53.7809
51.5782
52.7865
53.1483
53.8088
53.9003
54.1712
54.1229
54.1589
53.89
53.7883
53.1322
52.7712
51.5527
53.738
76.4324
51.3441
49.2705
50.3392
50.7411
51.328
51.4457
51.6882
51.6546
51.6763
51.4326
51.3057
50.724
50.323
49.2439
51.3008
71.8983
49.0649
47.0837
48.0721
48.5042
49.0347
49.1788
49.3996
49.3789
49.3879
49.1629
49.0102
48.4852
48.0541
47.0563
49.0213
67.6443
46.926
45.0055
45.9607
46.4193
46.9028
47.0735
47.2778
47.2688
47.266
47.055
46.876
46.3977
45.9404
44.9773
46.8822
63.6593
44.9117
43.0304
43.9898
44.4718
44.9112
45.1087
45.2997
45.3015
45.2876
45.0874
44.8818
44.4471
43.967
43.0014
44.8679
59.9336
43.009
41.1528
42.1372
42.6395
43.0431
43.2677
43.4466
43.4588
43.434
43.2437
43.011
42.6116
42.1122
41.1232
42.9654
56.4602
41.2072
39.3674
40.3757
40.8965
41.2855
41.5377
41.7039
41.7268
41.6907
41.511
41.2505
40.8656
40.3489
39.3372
41.164
53.2193
39.498
37.6694
38.6913
39.2287
39.6269
39.8976
40.0604
40.0913
40.0464
39.8688
39.5896
39.195
38.6628
37.6387
39.4556
50.1852
37.8757
36.0548
37.0766
37.6278
38.0448
38.3291
38.4952
38.53
38.4804
38.2986
38.0057
37.5917
37.0466
36.0238
37.8341
47.3488
36.3352
34.5206
35.5276
36.0894
36.5275
36.8225
36.9944
37.0313
36.9789
36.7907
36.4869
36.0511
35.4964
34.4895
36.2947
44.7112
34.8719
33.0644
34.0426
34.6107
35.0687
35.3723
35.5507
35.5887
35.5344
35.3395
35.0268
34.5708
34.0106
33.0334
34.8326
42.2712
33.4815
31.6838
32.6217
33.1911
33.6654
33.9758
34.1602
34.1989
34.1433
33.9421
33.6225
33.1499
32.589
31.653
33.4434
40.0236
32.1603
30.3765
31.2656
31.8313
32.3173
32.6323
32.8213
32.8604
32.8039
32.5981
32.2738
31.7895
31.2325
30.3461
32.1235
37.9518
30.9051
29.1404
29.9748
30.5327
31.0254
31.3428
31.5348
31.574
31.5172
31.3084
30.9819
30.4905
29.9417
29.1105
30.8697
36.0376
29.7134
27.9734
28.7491
29.2958
29.791
30.1086
30.3025
30.3413
30.2849
30.0742
29.7475
29.2536
28.7162
27.9442
29.6794
34.2699
28.5833
26.8738
27.5875
28.1203
28.6141
28.9302
29.1259
29.1633
29.1086
28.8961
28.5712
28.0785
27.555
26.8454
28.5508
32.6393
27.5136
25.8401
26.4888
27.0053
27.4947
27.8076
28.0054
28.0413
27.9884
27.7739
27.4524
26.9641
26.4567
25.8125
27.4825
31.137
26.5033
24.8709
25.4518
25.9501
26.4325
26.7407
26.9402
26.9748
26.9235
26.7077
26.3912
25.9096
25.4203
24.8445
26.4738
29.7539
25.552
23.9658
24.4765
24.9543
25.4289
25.731
25.9302
25.9638
25.9139
25.6991
25.3889
24.9148
24.4459
23.9406
25.5241
28.4814
24.6599
23.1247
23.5642
24.0194
24.4861
24.78
24.9763
25.0089
24.9605
24.7493
24.4476
23.9812
23.5349
23.1008
24.6337
27.3114
23.8274
22.3482
22.7185
23.1488
23.6059
23.8895
24.0804
24.112
24.0652
23.8601
23.5691
23.1124
22.6906
22.3259
23.8028
26.2365
23.0553
21.6372
21.9447
22.3487
22.7909
23.0621
23.2454
23.2758
23.2309
23.0342
22.7561
22.3144
21.9185
21.6167
23.0324
25.2506
22.3448
20.9929
21.2474
21.6236
22.0446
22.301
22.4749
22.504
22.4612
22.2747
22.0119
21.5917
21.2231
20.9743
22.3237
24.3484
21.6977
20.4203
20.6283
20.9758
21.3705
21.6101
21.7728
21.8004
21.76
21.5857
21.3402
20.9464
20.6059
20.4033
21.6783
23.526
21.1157
19.9204
20.0894
20.4081
20.7726
20.9935
21.1435
21.1694
21.1318
20.9711
20.7448
20.3812
20.0692
19.9053
21.0982
22.7817
20.6014
19.4949
19.6331
19.9235
20.255
20.4557
20.5917
20.6157
20.581
20.4354
20.2299
19.8993
19.615
19.4815
20.5856
22.1183
20.1575
19.1457
19.2621
19.5253
19.8223
20.0014
20.1223
20.1441
20.1128
19.9833
19.7999
19.5037
19.2462
19.1342
20.1435
21.5426
19.7878
18.8756
18.9793
19.217
19.4789
19.6355
19.7404
19.7599
19.7321
19.6196
19.4592
19.1981
18.9656
18.866
19.7757
21.0587
19.4978
18.6876
18.7878
19.0024
19.2294
19.363
19.4514
19.4685
19.4443
19.3494
19.2126
18.9861
18.7762
18.6798
19.4876
20.6661
19.2914
18.5854
18.6911
18.8852
19.0786
19.1889
19.2606
19.2752
19.2548
19.1777
19.0645
18.8714
18.6815
18.5795
19.2829
156509
156509
156509
156509
156509
156509
156509
156509
156509
156509
156509
156509
156509
156509
156509
156509
27434
27048.4
27009.3
27032.7
27043.2
27051.2
27055.6
27058.9
27059.4
27059
27055.7
27051.4
27043.3
27032.8
27009.4
27048
9474.66
9240.46
9189.61
9205.47
9214.86
9221.13
9224.6
9227.22
9227.58
9227.27
9224.73
9221.3
9215.01
9205.61
9189.71
9240.28
4564.71
4429.7
4378.02
4385.64
4393.71
4398.15
4400.84
4402.73
4403.02
4402.79
4400.97
4398.34
4393.89
4385.81
4378.15
4429.7
2647.07
2572.27
2525.02
2524.74
2531.78
2534.45
2536.5
2537.77
2538.02
2537.83
2536.67
2534.68
2532.02
2524.96
2525.19
2572.39
1720
1688.26
1647.67
1639.44
1645.66
1646.38
1647.83
1648.45
1648.69
1648.54
1648.03
1646.65
1645.97
1639.71
1647.86
1688.47
1206.02
1208.06
1174.4
1158.89
1164.43
1163.03
1163.88
1163.87
1164.1
1163.97
1164.13
1163.36
1164.8
1159.22
1174.62
1208.35
894.525
923.13
895.98
874.023
878.979
875.846
876.142
875.504
875.738
875.626
876.434
876.23
879.409
874.398
896.22
923.468
694.79
743.162
721.906
694.834
699.256
694.514
694.29
693.092
693.328
693.229
694.621
694.944
699.736
695.248
722.153
743.538
562.073
624.123
608.05
577.434
581.353
575.244
574.551
572.871
573.105
573.019
574.914
575.709
581.867
577.875
608.296
624.52
471.578
542.595
530.305
498.35
501.8
494.601
493.495
491.415
491.644
491.573
493.884
495.091
502.338
498.807
530.54
543.001
408.534
484.684
475.249
444.11
447.14
439.094
437.63
435.218
435.439
435.383
438.039
439.603
447.691
444.574
475.469
485.065
363.792
442.114
434.873
406.557
409.179
400.516
398.737
396.043
396.254
396.213
399.163
401.039
409.722
407.023
435.074
442.462
331.54
409.762
404.113
379.545
381.78
373.191
371.247
368.474
368.657
368.646
371.678
373.704
382.304
380.003
404.294
410.071
307.96
384.215
379.609
359.547
361.416
353.091
351.027
348.223
348.377
348.394
351.457
353.589
361.914
359.988
379.769
384.477
290.496
363.069
359.016
344.162
345.686
337.802
335.664
332.881
333.003
333.048
336.088
338.279
346.149
344.579
359.153
363.277
277.395
344.635
340.731
331.727
332.927
325.644
323.479
320.766
320.854
320.928
323.89
326.093
333.351
332.113
340.845
344.782
267.429
327.781
323.718
321.078
321.942
315.439
313.296
310.699
310.753
310.854
313.69
315.855
322.317
321.424
323.809
327.868
259.725
311.785
307.34
311.318
311.807
306.33
304.273
301.861
301.88
302.006
304.642
306.706
312.122
311.615
307.41
311.813
253.654
296.22
291.246
301.754
301.838
297.647
295.752
293.608
293.592
293.743
296.086
297.97
302.082
301.992
291.296
296.194
248.769
280.876
275.291
291.926
291.599
288.883
287.218
285.415
285.36
285.535
287.509
289.145
291.768
292.1
275.323
280.801
244.758
265.698
259.472
281.582
280.861
279.719
278.334
276.922
276.826
277.024
278.576
279.914
280.955
281.691
259.488
265.582
240.789
250.732
243.864
270.623
269.545
269.989
268.915
267.922
267.788
268.005
269.105
270.116
269.565
270.668
243.866
250.58
236.188
236.052
228.574
259.056
257.669
259.644
258.897
258.335
258.164
258.396
259.033
259.703
257.621
259.04
228.564
235.873
230.944
221.734
213.726
246.956
245.316
248.717
248.299
248.165
247.964
248.206
248.381
248.711
245.207
246.885
213.707
221.535
225.075
207.858
199.446
234.449
232.612
237.298
237.198
237.483
237.254
237.502
237.227
237.232
232.451
234.33
199.419
207.645
218.617
194.498
185.847
221.7
219.714
225.519
225.717
226.403
226.149
226.401
225.696
225.399
219.51
221.539
185.815
194.28
211.623
181.723
173.022
208.896
206.797
213.545
214.013
215.075
214.799
215.055
213.947
213.376
206.559
208.7
172.987
181.503
204.157
169.588
161.031
196.237
194.042
201.548
202.252
203.66
203.362
203.621
202.145
201.337
193.777
196.015
160.993
169.373
196.3
158.14
149.903
183.906
181.618
189.685
190.583
192.296
191.977
192.239
190.442
189.438
181.333
183.663
149.865
157.933
188.145
147.411
139.638
172.025
169.66
178.07
179.115
181.08
180.742
181.008
178.945
177.795
169.363
171.768
139.6
147.215
179.798
137.419
130.252
160.657
158.248
166.757
167.895
170.052
169.699
169.967
167.705
166.464
157.947
160.396
130.216
137.236
171.38
128.168
121.716
149.827
147.418
155.757
156.928
159.209
158.843
159.113
156.726
155.456
147.121
149.57
121.682
128
163.022
119.648
113.97
139.535
137.174
145.146
146.359
148.696
148.332
148.596
146.151
144.844
136.891
139.292
113.939
119.495
154.835
111.836
106.947
129.778
127.534
135.265
136.538
138.888
138.535
138.788
136.327
134.966
127.265
129.554
106.919
111.698
146.898
104.7
100.576
120.715
118.621
126.209
127.497
129.813
129.471
129.714
127.289
125.918
118.359
120.501
100.55
104.576
139.28
98.1996
94.784
112.417
110.467
117.793
119.047
121.272
120.944
121.175
118.848
117.516
110.21
112.21
94.7605
98.0885
132.131
92.2903
89.4985
104.782
102.971
109.913
111.092
113.173
112.862
113.08
110.906
109.655
102.722
104.583
89.4768
92.1903
125.557
86.922
84.6511
97.7273
96.055
102.515
103.592
105.487
105.194
105.401
103.423
102.28
95.8166
97.5393
84.6308
86.8313
119.528
82.0404
80.1841
91.1923
89.6649
95.5831
96.5492
98.2608
98.0057
98.1815
96.3975
95.3729
89.441
91.0164
80.1646
81.9574
113.964
77.5806
76.0505
85.1375
83.7637
89.149
89.9943
91.5154
91.2935
91.4437
89.8605
88.9639
83.5569
84.9747
76.0315
77.5049
108.778
73.4836
72.2087
79.5493
78.3212
83.1835
83.9116
85.2518
85.059
85.1877
83.7948
83.0225
78.1338
79.4011
72.1897
73.4148
103.888
69.701
68.6255
74.3857
73.3108
77.6625
78.291
79.4754
79.3082
79.4184
78.1888
77.5229
73.147
74.2545
68.6061
69.6387
99.2189
66.1971
65.2766
69.6383
68.745
72.5549
73.1021
74.1636
74.0171
74.1126
73.0119
72.434
68.614
69.5278
65.2568
66.1404
94.7087
62.9422
62.1412
65.3191
64.6409
67.8287
68.3056
69.271
69.1408
69.225
68.2256
67.725
64.5437
65.2346
62.1208
62.8904
90.3086
59.9051
59.2009
61.432
60.9677
63.4671
63.8713
64.7537
64.6368
64.7122
63.801
63.3817
60.8962
61.3678
59.1797
59.8572
85.9856
57.0619
56.4394
57.9518
57.6727
59.5374
59.8377
60.5931
60.4924
60.5571
59.7802
59.4756
57.6204
57.9048
56.4172
57.0171
81.7214
54.3979
53.8415
54.8288
54.7093
56.0791
56.3106
56.8915
56.8163
56.8631
56.2664
56.03
54.671
54.7941
53.8182
54.3555
77.5117
51.8992
51.3927
52.0182
52.0367
53.0345
53.2146
53.6483
53.5967
53.6249
53.1799
52.9948
52.0087
51.9921
51.3684
51.8586
73.3637
49.5527
49.0784
49.483
49.6124
50.324
50.4701
50.7974
50.7638
50.7777
50.4417
50.2907
49.5902
49.4628
49.0529
49.5133
69.2943
47.3459
46.8839
47.1824
47.389
47.8904
48.0144
48.2654
48.2455
48.2484
47.9901
47.8615
47.37
47.1651
46.8574
47.3075
65.3283
45.2671
44.7982
45.0709
45.3236
45.6891
45.7979
45.9948
45.9852
45.9798
45.7762
45.6633
45.3062
45.0551
44.7709
45.2294
61.4958
43.3058
42.8146
43.104
43.3855
43.6794
43.782
43.9408
43.9385
43.9273
43.7618
43.6547
43.3681
43.0889
42.7865
43.2687
57.8174
41.4524
40.9301
41.2565
41.5602
41.823
41.9261
42.0643
42.0666
42.0516
41.9063
41.7983
41.5418
41.2408
40.9014
41.4159
54.3158
39.6986
39.1446
39.52
39.8411
40.0897
40.1964
40.3275
40.3318
40.315
40.1765
40.0643
39.8208
39.503
39.1152
39.6627
51.0125
38.0373
37.4581
37.8821
38.2169
38.4564
38.5754
38.7007
38.7076
38.6883
38.5545
38.4295
38.1944
37.8635
37.4283
38.002
47.9243
36.4621
35.8655
36.3308
36.6764
36.9158
37.05
37.1711
37.182
37.1585
37.0277
36.8871
36.6516
36.3103
35.8354
36.4275
45.0614
34.9675
34.353
34.8558
35.2101
35.4569
35.6064
35.7258
35.7406
35.713
35.5825
35.4263
35.1829
34.8335
34.3229
34.9337
42.4255
33.549
32.9124
33.4494
33.8102
34.0693
34.2325
34.3526
34.3706
34.3394
34.2072
34.037
33.7808
33.4254
32.8824
33.5161
40.0076
32.2026
31.544
32.1054
32.4708
32.7445
32.9191
33.0415
33.0617
33.0279
32.8925
32.7105
32.4395
32.08
31.5142
32.1707
37.7859
30.9255
30.2469
30.8197
31.1875
31.4754
31.6593
31.7848
31.8066
31.7709
31.6317
31.4402
31.1546
30.793
30.2174
30.8945
35.7273
29.715
29.0197
29.5897
29.9574
30.2575
30.4481
30.577
30.5998
30.5627
30.4197
30.2213
29.9232
29.5621
28.9907
29.6852
33.7883
28.5693
27.8605
28.4147
28.7795
29.0883
29.2832
29.4145
29.438
29.3998
29.2542
29.0515
28.7446
28.3865
27.8323
28.5406
31.9538
27.487
26.7677
27.2956
27.6546
27.968
28.1645
28.2962
28.3207
28.2813
28.1354
27.9309
27.6193
27.2671
26.7402
27.4596
30.3
26.4674
25.7396
26.2338
26.5846
26.8984
27.0941
27.2239
27.2489
27.2089
27.0651
26.8615
26.5493
26.2055
25.7131
26.4412
28.8589
25.5097
24.7754
25.2315
25.5719
25.8821
26.0749
26.2011
26.2259
26.1862
26.0463
25.8458
25.5372
25.2036
24.7501
25.4849
27.5859
24.6137
23.875
24.2908
24.6194
24.9215
25.1094
25.2315
25.2557
25.217
25.0813
24.886
24.5855
24.2636
23.851
24.5903
26.4506
23.7795
23.0388
23.414
23.7296
24.019
24.2008
24.3189
24.3422
24.3048
24.1735
23.9847
23.6969
23.3874
23.0163
23.7576
25.4321
23.0077
22.2675
22.6023
22.9044
23.1784
23.353
23.4669
23.4892
23.4534
23.3269
23.1455
22.8731
22.5768
22.2468
22.9872
24.5158
22.2992
21.5627
21.8567
22.1446
22.4034
22.5703
22.6795
22.7006
22.6667
22.5455
22.3723
22.1148
21.8323
21.5438
22.2803
23.692
21.6554
20.9274
21.179
21.4529
21.698
21.8565
21.9606
21.9806
21.9487
21.8334
21.6689
21.4248
21.1559
20.9101
21.6379
22.9542
21.0778
20.3614
20.5735
20.834
21.0661
21.2159
21.3144
21.3332
21.3034
21.1945
21.0391
20.8078
20.552
20.3459
21.0618
22.2983
20.5684
19.8678
20.0454
20.2922
20.5117
20.6526
20.7451
20.7626
20.735
20.633
20.487
20.2681
20.0258
19.8539
20.5539
21.7225
20.1294
19.4498
19.5988
19.8317
20.0389
20.1707
20.2568
20.273
20.2477
20.1531
20.0167
19.8099
19.5812
19.4376
20.1164
21.2269
19.7636
19.1109
19.2372
19.4568
19.652
19.7746
19.8539
19.8689
19.8459
19.759
19.6322
19.4373
19.2217
19.1003
19.752
20.8125
19.4738
18.8547
18.9643
19.1717
19.3551
19.4686
19.5407
19.5544
19.5339
19.4549
19.3378
19.1545
18.9509
18.8456
19.4637
20.4813
19.2636
18.6851
18.7849
18.9806
19.1526
19.257
19.3219
19.3343
19.3162
19.2454
19.1378
18.9658
18.7735
18.6774
19.2549
20.235
19.1363
18.6131
18.708
18.8913
19.0527
19.1455
19.2018
19.2129
19.1972
19.1365
19.0402
18.8787
18.6983
18.6068
19.1291
20.0762
19.0971
18.6354
18.7295
156509
156509
156509
156509
156509
156509
156509
156509
156509
156509
156509
156509
156509
156509
156509
156509
26992.9
27126.2
27092.4
27088.2
27088.1
27089.9
27089.6
27090.6
27090.4
27090.6
27089.6
27089.9
27088
27088.1
27092.3
27126.2
9218.59
9286.66
9270.03
9266.15
9265.27
9266.31
9265.92
9266.55
9266.42
9266.59
9266
9266.42
9265.3
9266.14
9270.02
9286.77
4429.57
4459.84
4454.06
4450.12
4448.6
4448.8
4448.21
4448.45
4448.33
4448.5
4448.31
4448.94
4448.7
4450.17
4454.13
4460.01
2582.37
2596.97
2597.54
2592.78
2590.83
2590.19
2589.35
2589.24
2589.12
2589.3
2589.48
2590.38
2590.98
2592.88
2597.68
2597.21
1699.68
1710.61
1714.98
1708.64
1706.5
1705.02
1703.92
1703.47
1703.34
1703.55
1704.09
1705.25
1706.7
1708.79
1715.16
1710.9
1213.26
1227.2
1234.03
1225.13
1223.03
1220.79
1219.48
1218.7
1218.58
1218.79
1219.67
1221.06
1223.27
1225.33
1234.25
1227.54
916.484
936.964
945.247
933.518
931.64
928.389
926.892
925.827
925.711
925.928
927.112
928.687
931.925
933.756
945.486
937.341
721.481
749.847
758.728
744.266
742.728
738.639
737.006
735.693
735.592
735.802
737.246
738.958
743.045
744.535
758.977
750.247
586.49
622.2
631.194
614.439
613.289
608.554
606.836
605.328
605.243
605.441
607.09
608.886
613.629
614.731
631.444
622.611
489.708
531.001
539.981
521.61
520.834
515.661
513.902
512.256
512.186
512.372
514.165
516.001
521.189
521.916
540.227
531.412
418.659
463.472
472.408
453.17
452.72
447.31
445.544
443.816
443.758
443.934
445.812
447.651
453.081
453.483
472.646
463.876
365.582
412.053
420.879
401.508
401.316
395.853
394.109
392.349
392.298
392.467
394.377
396.191
401.676
401.822
421.107
412.442
325.328
372.028
380.736
361.762
361.774
356.346
354.633
352.865
352.82
352.982
354.899
356.678
362.129
362.075
380.954
372.398
294.044
340.307
348.893
330.731
330.91
325.612
323.94
322.182
322.14
322.298
324.204
325.936
331.257
331.037
349.099
340.654
269.447
314.729
323.143
306.161
306.474
301.379
299.761
298.032
297.992
298.146
300.019
301.692
306.811
306.46
323.336
315.05
249.901
293.734
301.826
286.421
286.841
282.004
280.45
278.768
278.729
278.88
280.702
282.306
287.165
286.711
302.005
294.026
234.215
276.12
283.715
270.306
270.808
266.277
264.796
263.176
263.137
263.286
265.039
266.565
271.117
270.584
283.88
276.379
221.512
260.954
267.911
256.906
257.47
253.286
251.888
250.347
250.306
250.453
252.123
253.559
257.762
257.17
268.061
261.174
211.101
247.548
253.745
245.53
246.141
242.34
241.036
239.587
239.545
239.689
241.259
242.597
246.415
245.78
253.879
247.727
202.435
235.4
240.725
235.632
236.265
232.91
231.709
230.367
230.323
230.464
231.919
233.147
236.516
235.863
240.844
235.536
195.092
224.144
228.501
226.743
227.371
224.569
223.498
222.277
222.231
222.369
223.691
224.783
227.592
226.949
228.605
224.238
188.739
213.523
216.832
218.479
219.08
216.944
216.04
214.971
214.921
215.056
216.211
217.13
219.266
218.656
216.921
213.576
183.111
203.359
205.562
210.553
211.11
209.723
209.013
208.137
208.083
208.213
209.158
209.876
211.258
210.698
205.637
203.373
178.004
193.533
194.611
202.76
203.261
202.674
202.178
201.525
201.467
201.59
202.294
202.79
203.368
202.871
194.672
193.512
173.259
183.976
183.942
194.963
195.4
195.633
195.362
194.955
194.891
195.007
195.446
195.71
195.466
195.039
183.991
183.923
168.751
174.655
173.551
187.085
187.451
188.495
188.451
188.301
188.232
188.34
188.503
188.532
187.477
187.126
173.589
174.574
164.389
165.562
163.463
179.094
179.387
181.207
181.383
181.492
181.417
181.517
181.403
181.206
179.375
179.102
163.491
165.458
160.103
156.709
153.717
170.998
171.215
173.755
174.137
174.498
174.417
174.508
174.126
173.716
171.167
170.974
153.736
156.587
155.844
148.119
144.364
162.826
162.968
166.153
166.723
167.321
167.233
167.318
166.684
166.081
162.888
162.774
144.376
147.984
151.579
139.824
135.455
154.624
154.695
158.44
159.176
159.99
159.897
159.975
159.112
158.338
154.588
154.547
135.461
139.68
147.289
131.857
126.999
146.447
146.456
150.669
151.548
152.556
152.456
152.529
151.462
150.54
146.325
146.35
126.999
131.709
142.968
124.248
119.014
138.355
138.312
142.904
143.904
145.081
144.977
145.043
143.798
142.752
138.163
138.24
119.01
124.099
138.615
117.023
111.529
130.402
130.326
135.21
136.311
137.634
137.526
137.587
136.19
135.04
130.162
130.275
111.521
116.877
134.241
110.202
104.563
122.642
122.55
127.649
128.831
130.275
130.165
130.22
128.697
127.464
122.377
122.504
104.553
110.061
129.856
103.795
98.1082
115.129
115.029
120.263
121.502
123.041
122.931
122.98
121.36
120.067
114.85
114.986
98.0958
103.661
125.478
97.8038
92.1444
108.026
107.844
113.085
114.344
115.95
115.841
115.882
114.197
112.886
107.665
107.882
92.1303
97.6791
121.12
92.2241
86.6521
101.461
101.128
106.315
107.553
109.17
109.062
109.102
107.404
106.116
100.949
101.315
86.6368
92.1089
116.796
87.0445
81.6096
95.4034
94.9245
100.068
101.274
102.875
102.768
102.808
101.125
99.8701
94.7449
95.2553
81.5935
86.9387
112.513
82.2717
76.9897
89.7831
89.1823
94.2687
95.4346
96.9903
96.8679
96.9231
95.2879
94.0723
89.0032
89.6341
76.9731
82.172
108.277
77.8786
72.7612
84.5339
83.8411
88.8054
89.9227
91.4165
91.2849
91.3504
89.7806
88.6134
83.6641
84.3858
72.7442
77.7847
104.087
73.8221
68.8885
79.5882
78.8487
83.6344
84.703
86.1192
85.9984
86.0558
84.5657
83.4494
78.677
79.4436
68.8713
73.7339
99.9424
70.0623
65.328
74.9242
74.1738
78.7327
79.7418
81.0705
80.9596
81.0099
79.6116
78.5565
74.0104
74.7854
65.3104
69.9798
95.8414
66.5691
62.0325
70.5184
69.793
74.0725
75.0145
76.2477
76.1468
76.1903
74.8929
73.9064
69.6403
70.3878
62.0142
66.492
91.777
63.3146
58.9669
66.3573
65.6883
69.6429
70.5131
71.6434
71.552
71.5895
70.4014
69.488
65.5478
66.2355
58.9479
63.2425
87.7327
60.2738
56.1066
62.4501
61.8429
65.4458
66.2432
67.2684
67.1862
67.218
66.1415
65.302
61.7153
62.3427
56.0869
60.2061
83.7054
57.425
53.4299
58.7905
58.2429
61.4763
62.2071
63.1308
63.0568
63.0836
62.115
61.3418
58.1291
58.696
53.4094
57.3613
79.7535
54.7503
50.9178
55.3636
54.8862
57.7551
58.3903
59.221
59.1529
59.1764
58.3071
57.6372
54.7919
55.2811
50.8965
54.69
75.9412
52.2339
48.5543
52.161
51.8388
54.2761
54.8289
55.5749
55.5133
55.5344
54.7533
54.172
51.7557
52.0931
48.5322
52.1766
72.2745
49.8622
46.3282
49.2145
49.0806
51.0333
51.502
52.1626
52.1059
52.1254
51.4354
50.9456
49.0113
49.1535
46.3051
49.8075
68.7277
47.6233
44.2274
46.5198
46.5736
48.1034
48.4854
49.0123
48.971
48.981
48.4324
48.0378
46.5154
46.469
44.2035
47.571
65.3228
45.5072
42.2402
44.077
44.2764
45.5252
45.8556
46.2332
46.2146
46.2092
45.8162
45.4688
44.227
44.0342
42.2155
45.4571
62.0549
43.5056
40.3612
41.8525
42.1619
43.1888
43.4979
43.8196
43.8154
43.7982
43.463
43.1396
42.1193
41.8158
40.3359
43.4576
58.9004
41.6126
38.5887
39.8167
40.208
41.0628
41.3554
41.6329
41.6398
41.6136
41.324
41.0191
40.1703
39.7845
38.5628
41.5666
55.8501
39.8241
36.921
37.9445
38.3955
39.1192
39.4001
39.6435
39.659
39.6258
39.3713
39.0796
38.3612
37.9154
36.8947
39.7801
52.9023
38.1374
35.3548
36.2142
36.7077
37.3339
37.6076
37.8251
37.8473
37.8087
37.5805
37.2972
36.6757
36.1872
35.3283
38.0954
50.0632
36.5495
33.8825
34.6078
35.1306
35.6864
35.9566
36.1553
36.1828
36.1398
35.9307
35.6517
35.1001
34.5821
33.8559
36.5095
47.343
35.0528
32.4932
33.1102
33.6523
34.1593
34.4293
34.6146
34.6464
34.5999
34.4041
34.1259
33.6225
33.0852
32.4667
35.0145
44.7535
33.6354
31.1777
31.7091
32.2628
32.7383
33.0104
33.187
33.2222
33.1728
32.9856
32.7057
32.2334
31.6845
31.1514
33.5985
42.3067
32.2898
29.9309
30.3947
30.9543
31.4117
31.6877
31.8593
31.8972
31.8454
31.6631
31.3795
30.9249
30.3703
29.9049
32.2543
40.0121
31.0134
28.7494
29.1594
29.7205
30.17
30.4514
30.6208
30.661
30.6072
30.4269
30.1382
29.691
29.1349
28.7239
30.9793
37.874
29.804
27.6314
27.9974
28.5569
29.0064
29.2944
29.4638
29.5059
29.4504
29.2699
28.9748
28.5271
27.9729
27.6065
29.7714
35.8871
28.6597
26.5755
26.9046
27.4581
27.9162
28.2116
28.3828
28.4265
28.3696
28.1873
27.8848
27.4277
26.8802
26.5512
28.6286
34.038
27.5791
25.5806
25.8784
26.4203
26.8911
27.1943
27.3691
27.414
27.356
27.1698
26.8598
26.3896
25.8541
25.5572
27.5495
32.3214
26.5611
24.6464
24.9164
25.4419
25.9247
26.234
26.4129
26.4585
26.3998
26.2095
25.8934
25.411
24.8924
24.6238
26.5331
30.7374
25.6051
23.7731
24.0175
24.5224
25.0132
25.3261
25.5081
25.5539
25.4951
25.3016
24.982
24.4916
23.9939
23.7516
25.5786
29.2819
24.7106
22.962
23.1817
23.6625
24.1553
24.4683
24.6518
24.6974
24.639
24.4441
24.1245
23.6321
23.1587
22.9415
24.6857
27.949
23.8777
22.2145
22.4098
22.8634
23.3514
23.6609
23.8438
23.8887
23.8312
23.6371
23.3213
22.8338
22.3876
22.1951
23.8544
26.732
23.1067
21.5325
21.7032
22.1273
22.6036
22.9055
23.0855
23.1292
23.0733
22.8823
22.5744
22.0987
21.6821
21.514
23.085
25.6239
22.3982
20.917
21.0636
21.4565
21.9146
22.205
22.3797
22.4217
22.3679
22.1827
21.8866
21.4293
21.0438
20.8996
22.3781
24.6185
21.7533
20.3687
20.4936
20.8541
21.2879
21.5632
21.7301
21.77
21.719
21.542
21.2615
20.8285
20.4753
20.3526
21.7347
23.7107
21.1733
19.8886
19.9958
20.3233
20.7278
20.9843
21.1414
21.1786
21.1309
20.9646
20.7032
20.2995
19.979
19.874
21.1563
22.898
20.66
19.4786
19.572
19.8677
20.2386
20.4734
20.6184
20.6527
20.6087
20.4552
20.2159
19.846
19.5567
19.4656
20.6447
22.184
20.2155
19.1409
19.2252
19.4913
19.8251
20.0354
20.1667
20.1977
20.1579
20.0189
19.8045
19.4718
19.2115
19.1296
20.2018
21.5754
19.8425
18.8783
18.9592
19.1981
19.4921
19.6758
19.7918
19.8193
19.784
19.6611
19.4738
19.1807
18.947