/*--------------------------------*- C++ -*----------------------------------*\
| =========                 |                                                 |
| \\      /  F ield         | OpenFOAM: The Open Source CFD Toolbox           |
|  \\    /   O peration     | Version:  v1912                                 |
|   \\  /    A nd           | Website:  www.openfoam.com                      |
|    \\/     M anipulation  |                                                 |
\*---------------------------------------------------------------------------*/
FoamFile
{
    version     2.0;
    format      ascii;
    class       volScalarField;
    location    "196.4";
    object      k;
}
// * * * * * * * * * * * * * * * * * * * * * * * * * * * * * * * * * * * * * //

dimensions      [0 2 -2 0 0 0 0];


internalField   nonuniform List<scalar> 
10147
(
0.000323951
0.00027649
0.000238105
0.000232994
0.000235982
0.000237723
0.000238348
0.0002385
0.000238609
0.000238476
0.000238316
0.000237709
0.000236025
0.000233126
0.000238246
0.000276431
0.000241653
0.000239945
0.00023984
0.000240226
0.000240347
0.000240247
0.000239877
0.000239979
0.00024167
0.000245395
0.000249858
0.000245471
0.000242237
0.00024158
0.000239512
0.000236144
0.000240622
0.000280142
0.000244588
0.000314959
0.000272819
0.000239976
0.000235993
0.000238624
0.000239555
0.000239566
0.000239288
0.000239311
0.000239284
0.00023957
0.000239582
0.000238707
0.000236164
0.00024016
0.000272802
0.00030706
0.000270101
0.000242634
0.000239865
0.000242228
0.000242423
0.000241858
0.00024117
0.000241112
0.000241185
0.000241894
0.000242489
0.000242348
0.000240073
0.000242859
0.000270126
0.000300332
0.00026838
0.000246055
0.000244545
0.000246722
0.000246259
0.000245162
0.000244094
0.00024396
0.000244126
0.000245229
0.000246361
0.000246876
0.000244786
0.000246319
0.000268446
0.000294778
0.000267661
0.000250227
0.00024999
0.000252054
0.000251009
0.000249425
0.000248005
0.000247805
0.000248055
0.000249521
0.000251144
0.000252239
0.000250262
0.000250527
0.000267767
0.000290397
0.000267942
0.000255132
0.000256161
0.000258173
0.000256616
0.000254592
0.00025285
0.00025259
0.000252915
0.000254714
0.000256781
0.000258386
0.000256461
0.000255466
0.000268088
0.000287187
0.000269216
0.000260751
0.000263016
0.000265029
0.000263025
0.000260604
0.00025857
0.00025826
0.00025865
0.000260752
0.000263217
0.000265267
0.000263341
0.000261115
0.000269399
0.000285143
0.000271468
0.000267059
0.000270516
0.000272572
0.000270182
0.000267408
0.00026511
0.000264757
0.000265203
0.000267577
0.000270399
0.000272832
0.000270864
0.000267453
0.000271688
0.000284257
0.000274678
0.000274031
0.000278607
0.000280739
0.000278026
0.000274944
0.000272413
0.000272025
0.000272518
0.000275133
0.000278265
0.000281019
0.000278975
0.000274451
0.000274931
0.000284513
0.000278817
0.000281632
0.000287225
0.000289458
0.000286483
0.000283141
0.00028041
0.000279994
0.000280525
0.000283348
0.00028674
0.000289753
0.000287609
0.000282074
0.000279102
0.000285891
0.000283852
0.000289812
0.000296317
0.000298668
0.00029548
0.000291919
0.000289019
0.000288583
0.000289143
0.000292141
0.000295753
0.000298977
0.000296716
0.000290274
0.000284167
0.000288363
0.000289745
0.00029852
0.000305846
0.000308325
0.000304962
0.000301216
0.000298172
0.000297722
0.000298304
0.000301451
0.000305249
0.000308647
0.000306257
0.000299
0.000290087
0.000291893
0.000296455
0.000307716
0.000315778
0.000318393
0.000314888
0.000310985
0.000307817
0.00030736
0.000307957
0.000311231
0.000315186
0.000318725
0.0003162
0.000308211
0.000296822
0.000296443
0.000303935
0.000317366
0.000326084
0.000328839
0.000325219
0.000321186
0.000317915
0.000317455
0.000318061
0.000321443
0.000325529
0.00032918
0.000326515
0.000317874
0.000304325
0.000301966
0.00031213
0.000327439
0.000336738
0.000339633
0.000335924
0.000331784
0.000328426
0.000327969
0.000328579
0.000332051
0.000336243
0.000339981
0.000337176
0.000327959
0.000312539
0.000308414
0.000320976
0.000337907
0.000347712
0.000350747
0.000346972
0.000342748
0.00033932
0.000338869
0.000339478
0.000343023
0.000347299
0.000351101
0.000348157
0.000338436
0.000321402
0.000315737
0.000330417
0.000348743
0.000358983
0.000362154
0.000358334
0.000354047
0.000350564
0.000350125
0.000350727
0.00035433
0.000358669
0.000362515
0.000359433
0.000349279
0.000330857
0.000323876
0.000340405
0.000359919
0.000370527
0.000373831
0.000369984
0.000365655
0.000362131
0.000361707
0.000362298
0.000365945
0.000370326
0.000374197
0.000370981
0.000360461
0.000340857
0.000332763
0.000350895
0.000371408
0.000382319
0.000385754
0.000381895
0.000377544
0.000373993
0.000373588
0.000374164
0.00037784
0.000382244
0.000386123
0.000382777
0.000371954
0.000351357
0.000342329
0.000361845
0.000383184
0.000394337
0.000397897
0.000394043
0.000389687
0.000386122
0.00038574
0.000386296
0.000389989
0.000394397
0.000398269
0.000394796
0.000383733
0.000362315
0.000352509
0.00037321
0.000395218
0.000406554
0.000410235
0.0004064
0.000402056
0.000398488
0.000398133
0.000398666
0.000402363
0.000406758
0.00041061
0.000407014
0.000395767
0.000373688
0.000363241
0.000384946
0.000407476
0.000418941
0.000422758
0.000418931
0.000414615
0.000411056
0.000410731
0.000411237
0.000414927
0.000419294
0.000423135
0.000419401
0.000408024
0.000385428
0.000374458
0.000396999
0.000419918
0.000431507
0.000435493
0.000431655
0.000427361
0.00042381
0.000423514
0.000423995
0.000427678
0.000432022
0.000435873
0.000431966
0.000420465
0.000397484
0.000386092
0.00040931
0.000432537
0.000444273
0.000448434
0.000444596
0.000440315
0.000436766
0.000436497
0.000436954
0.000440637
0.000444968
0.000448814
0.000444732
0.000433082
0.000409796
0.000398071
0.000421812
0.000445341
0.00045718
0.000461491
0.000457677
0.000453425
0.000449893
0.000449655
0.000450085
0.000453752
0.000458052
0.000461872
0.000457637
0.000445884
0.000422299
0.000410318
0.000434435
0.000458265
0.00047012
0.000474549
0.000470778
0.000466582
0.000463086
0.000462882
0.00046328
0.000466912
0.000471156
0.00047493
0.000470574
0.000458804
0.000434919
0.000422753
0.000447101
0.000471197
0.00048298
0.000487497
0.000483784
0.000479665
0.000476224
0.000476057
0.00047642
0.000479998
0.000484163
0.000487878
0.000483431
0.000471731
0.000447583
0.000435292
0.000459723
0.000484002
0.000495636
0.000500212
0.000496568
0.000492544
0.000489171
0.000489043
0.000489368
0.000492879
0.000496949
0.000500593
0.000496083
0.00048453
0.000460201
0.000447849
0.000472227
0.000496551
0.000507972
0.000512582
0.000509015
0.000505099
0.000501806
0.000501717
0.000502004
0.000505435
0.000509398
0.000512964
0.000508416
0.000497071
0.000472699
0.000460346
0.000484561
0.000508743
0.000519888
0.000524511
0.000521029
0.000517231
0.000514032
0.00051398
0.000514231
0.000517569
0.000521414
0.000524894
0.000520329
0.000509255
0.000485027
0.000472718
0.000496668
0.000520526
0.000531339
0.000535952
0.000532567
0.000528903
0.00052581
0.000525793
0.000526009
0.000529241
0.000532954
0.000536337
0.000531778
0.00052103
0.000497127
0.000484918
0.000508475
0.00053187
0.000542306
0.000546891
0.000543615
0.000540094
0.000537118
0.000537135
0.000537317
0.000540433
0.000544004
0.000547277
0.000542742
0.000532365
0.000508925
0.000496888
0.000519907
0.000542744
0.000552773
0.000557314
0.000554157
0.000550788
0.000547936
0.000547984
0.000548134
0.000551127
0.000554547
0.000557703
0.000553206
0.00054323
0.000520348
0.000508544
0.000530896
0.000553114
0.000562712
0.000567199
0.000564167
0.000560956
0.000558233
0.00055831
0.000558431
0.000561295
0.000564559
0.00056759
0.000563143
0.00055359
0.000531326
0.000519801
0.00054138
0.000562934
0.00057209
0.000576513
0.000573611
0.000570562
0.000567972
0.000568076
0.00056817
0.000570902
0.000574005
0.000576907
0.000572519
0.0005634
0.000541799
0.000530577
0.000551299
0.000572154
0.000580869
0.000585224
0.000582455
0.00057957
0.000577113
0.000577242
0.000577311
0.00057991
0.000582851
0.00058562
0.000581296
0.000572611
0.000551706
0.000540792
0.000560599
0.000580725
0.00058901
0.00059329
0.000590658
0.000587939
0.000585618
0.000585769
0.000585815
0.00058828
0.000591056
0.000593689
0.000589435
0.000581172
0.000560994
0.000550374
0.000569227
0.000588601
0.000596455
0.000600649
0.000598161
0.000595611
0.00059343
0.000593601
0.000593627
0.000595952
0.000598561
0.000601051
0.000596878
0.000589038
0.000569608
0.000559256
0.000577114
0.000595723
0.000603133
0.000607229
0.000604891
0.000602513
0.000600479
0.000600667
0.000600675
0.000602854
0.000605293
0.000607633
0.000603554
0.000596151
0.000577483
0.000567377
0.000584183
0.000602014
0.000608967
0.000612955
0.000610775
0.000608571
0.000606686
0.000606888
0.000606881
0.000608911
0.000611179
0.000613362
0.000609386
0.000602432
0.000584538
0.00057466
0.000590351
0.00060739
0.00061388
0.000617748
0.000615733
0.000613704
0.000611974
0.000612186
0.000612168
0.000614043
0.000616138
0.000618158
0.000614297
0.000607797
0.000590692
0.000581015
0.000595534
0.000611767
0.000617791
0.000621528
0.000619684
0.000617831
0.000616259
0.000616478
0.000616452
0.00061817
0.00062009
0.000621942
0.000618205
0.000612164
0.00059586
0.00058635
0.000599645
0.000615059
0.000620615
0.000624213
0.000622547
0.000620869
0.000619458
0.00061968
0.000619649
0.000621206
0.000622954
0.000624629
0.000621027
0.000615445
0.000599955
0.000590569
0.000602596
0.00061718
0.000622272
0.000625721
0.000624238
0.000622734
0.000621486
0.000621708
0.000621676
0.00062307
0.000624646
0.000626139
0.000622681
0.000617555
0.00060289
0.000593582
0.000604302
0.000618046
0.000622679
0.000625969
0.000624676
0.000623345
0.000622262
0.00062248
0.00062245
0.000623679
0.000625084
0.00062639
0.000623085
0.00061841
0.000604581
0.000595296
0.00060468
0.000617575
0.000621757
0.000624881
0.000623783
0.000622622
0.000621705
0.000621914
0.00062189
0.000622953
0.000624191
0.000625303
0.00062216
0.000617928
0.000604942
0.000595624
0.00060365
0.00061569
0.000619432
0.00062238
0.000621483
0.000620488
0.000619737
0.000619935
0.000619921
0.000620817
0.000621891
0.000622805
0.000619831
0.000616032
0.000603895
0.000594481
0.000601135
0.000612318
0.000615631
0.000618398
0.000617705
0.000616872
0.000616288
0.00061647
0.000616469
0.000617198
0.000618113
0.000618825
0.000616028
0.000612648
0.000601364
0.000591791
0.000597067
0.000607391
0.000610292
0.000612871
0.000612385
0.000611708
0.00061129
0.000611453
0.000611468
0.000612032
0.000612791
0.000613298
0.000610685
0.00060771
0.000597279
0.000587479
0.000591381
0.00060085
0.000603354
0.00060574
0.000605464
0.000604937
0.000604683
0.000604825
0.000604859
0.000605258
0.000605869
0.000606169
0.000603743
0.000601157
0.000591577
0.00058148
0.000584022
0.000592641
0.000594767
0.000596957
0.00059689
0.000596507
0.000596415
0.000596531
0.000596588
0.000596824
0.000597293
0.000597386
0.000595152
0.000592937
0.000584202
0.000573736
0.00057494
0.000582721
0.000584488
0.000586479
0.000586621
0.000586375
0.000586441
0.000586529
0.000586611
0.000586688
0.000587022
0.000586908
0.000584869
0.000583006
0.000575104
0.000564196
0.000564095
0.000571053
0.000572482
0.000574274
0.000574621
0.000574503
0.000574724
0.000574782
0.000574891
0.000574812
0.00057502
0.000574703
0.000572858
0.000571326
0.000564242
0.000552817
0.000551453
0.00055761
0.000558722
0.000560318
0.000560865
0.000560867
0.000561236
0.000561263
0.0005614
0.000561171
0.000561261
0.000560745
0.000559093
0.000557872
0.000551585
0.000539563
0.00053699
0.000542372
0.00054319
0.000544594
0.000545335
0.000545446
0.000545958
0.000545952
0.000546118
0.000545745
0.000545726
0.000545019
0.000543556
0.000542623
0.000537107
0.000524407
0.000520688
0.00052533
0.000525878
0.000527097
0.00052802
0.000528231
0.000528879
0.000528838
0.000529034
0.000528524
0.000528407
0.000527518
0.000526237
0.000525569
0.000520792
0.000507326
0.000502537
0.000506478
0.00050678
0.000507824
0.000508918
0.000509217
0.000509992
0.000509918
0.000510143
0.000509504
0.000509298
0.000508241
0.000507132
0.000506707
0.000502627
0.0004883
0.000482525
0.000485815
0.000485894
0.000486776
0.000488024
0.000488401
0.000489293
0.000489186
0.00048944
0.000488681
0.000488398
0.000487187
0.000486238
0.000486033
0.000482601
0.000467304
0.000460633
0.00046333
0.000463206
0.000463943
0.000465327
0.000465771
0.00046677
0.00046663
0.000466911
0.000466044
0.000465693
0.000464347
0.000463541
0.000463537
0.000460697
0.000444295
0.000436827
0.000438997
0.000438689
0.0004393
0.000440798
0.0004413
0.000442391
0.000442222
0.000442527
0.000441564
0.000441154
0.000439694
0.000439014
0.000439193
0.00043688
0.000419211
0.00041105
0.000412765
0.000412291
0.000412797
0.000414386
0.000414935
0.000416102
0.000415908
0.000416232
0.000415189
0.00041473
0.000413181
0.000412605
0.00041295
0.000411093
0.000391961
0.000383223
0.000384561
0.000383938
0.000384362
0.000386013
0.0003866
0.000387825
0.00038761
0.000387948
0.000386843
0.000386344
0.000384732
0.000384239
0.000384735
0.000383257
0.000362435
0.00035325
0.000354295
0.000353538
0.000353903
0.000355585
0.000356201
0.000357461
0.000357231
0.000357576
0.000356431
0.000355901
0.000354257
0.000353824
0.000354457
0.000353276
0.000330524
0.000321045
0.000321879
0.000321005
0.000321333
0.000323011
0.000323646
0.000324913
0.000324677
0.000325021
0.000323862
0.000323309
0.000321668
0.000321275
0.000322029
0.000321064
0.000296149
0.000286548
0.000287254
0.000286286
0.00028659
0.000288228
0.000288871
0.000290113
0.000289877
0.000290212
0.00028907
0.000288506
0.000286902
0.000286536
0.000287392
0.00028656
0.000259381
0.000249889
0.000250531
0.000249501
0.000249789
0.000251349
0.000251983
0.000253165
0.000252938
0.000253254
0.000252164
0.000251602
0.000250074
0.000249729
0.000250655
0.000249896
0.000220659
0.000211574
0.000212189
0.000211142
0.000211418
0.000212854
0.000213462
0.000214546
0.000214338
0.000214624
0.000213623
0.000213079
0.000211673
0.000211343
0.000212299
0.000211577
0.000180951
0.00017262
0.000173219
0.000172209
0.000172473
0.000173741
0.000174301
0.00017525
0.00017507
0.000175316
0.000174438
0.000173934
0.000172692
0.000172382
0.000173313
0.000172621
0.000141811
0.000134586
0.000135156
0.000134245
0.000134489
0.00013555
0.000136039
0.000136825
0.000136679
0.000136879
0.000136152
0.000135708
0.000134669
0.000134386
0.000135232
0.000134586
0.000105245
9.94004e-05
9.9912e-05
9.91521e-05
9.93665e-05
0.000100199
0.000100599
0.000101207
0.000101097
0.000101249
0.000100686
0.000100321
9.95058e-05
9.92616e-05
9.99713e-05
9.93994e-05
7.33047e-05
6.89519e-05
6.93753e-05
6.87976e-05
6.89719e-05
6.95771e-05
6.98789e-05
7.03146e-05
7.02387e-05
7.03441e-05
6.99415e-05
6.96656e-05
6.90726e-05
6.88767e-05
6.94185e-05
6.89511e-05
4.75181e-05
4.45693e-05
4.48857e-05
4.44898e-05
4.46188e-05
4.50227e-05
4.52301e-05
4.55164e-05
4.54685e-05
4.5536e-05
4.52719e-05
4.50818e-05
4.4686e-05
4.45426e-05
4.49148e-05
4.45689e-05
2.84379e-05
2.66364e-05
2.68467e-05
2.66045e-05
2.66901e-05
2.69358e-05
2.70644e-05
2.7236e-05
2.72084e-05
2.7248e-05
2.70899e-05
2.69718e-05
2.67312e-05
2.66369e-05
2.68647e-05
2.66364e-05
1.55579e-05
1.45725e-05
1.46954e-05
1.45642e-05
1.46146e-05
1.47498e-05
1.48212e-05
1.49145e-05
1.48999e-05
1.49211e-05
1.48353e-05
1.47697e-05
1.46373e-05
1.45822e-05
1.47056e-05
1.45727e-05
7.65212e-06
7.17503e-06
7.23752e-06
7.17528e-06
7.20118e-06
7.26765e-06
7.30269e-06
7.34819e-06
7.34118e-06
7.35151e-06
7.30972e-06
7.27756e-06
7.21244e-06
7.18423e-06
7.24262e-06
7.17523e-06
3.2804e-06
3.08133e-06
3.1083e-06
3.08316e-06
3.09452e-06
3.12288e-06
3.13769e-06
3.15702e-06
3.15404e-06
3.15845e-06
3.14071e-06
3.12714e-06
3.09936e-06
3.08702e-06
3.11052e-06
3.08146e-06
1.16294e-06
1.09522e-06
1.10465e-06
1.09644e-06
1.10053e-06
1.11039e-06
1.11553e-06
1.12224e-06
1.12121e-06
1.12275e-06
1.11659e-06
1.11189e-06
1.10222e-06
1.09779e-06
1.10543e-06
1.09527e-06
3.38494e-07
3.2104e-07
3.23674e-07
3.21562e-07
3.2283e-07
3.253e-07
3.26765e-07
3.28427e-07
3.28234e-07
3.2856e-07
3.27041e-07
3.25684e-07
3.23264e-07
3.21908e-07
3.23874e-07
3.21054e-07
2.21936e-07
2.15356e-07
2.16933e-07
2.15743e-07
2.16816e-07
2.17227e-07
2.18225e-07
2.18405e-07
2.18636e-07
2.1844e-07
2.18296e-07
2.17319e-07
2.16916e-07
2.15815e-07
2.16964e-07
2.15342e-07
1.24287e-06
1.21152e-06
1.2203e-06
1.21354e-06
1.21987e-06
1.22056e-06
1.22628e-06
1.22602e-06
1.22783e-06
1.22615e-06
1.22653e-06
1.22085e-06
1.22017e-06
1.21372e-06
1.22033e-06
1.21141e-06
0.000259375
0.000250529
0.000252196
0.000247723
0.000244396
0.000243102
0.000243199
0.000243689
0.000243831
0.000243723
0.000243258
0.000243162
0.000244435
0.000247735
0.00025216
0.000250446
0.000266087
0.000256226
0.000255526
0.000251097
0.000248175
0.000247281
0.000247573
0.00024816
0.000248321
0.000248206
0.000247653
0.000247365
0.000248235
0.000251121
0.000255493
0.000256142
0.000273238
0.000262552
0.000259804
0.000255443
0.00025291
0.000252396
0.00025287
0.000253547
0.000253725
0.000253604
0.000252969
0.000252502
0.000252989
0.000255478
0.000259773
0.000262465
0.000280798
0.00026946
0.000264967
0.000260701
0.000258541
0.000258386
0.000259029
0.000259786
0.00025998
0.000259855
0.000259146
0.000258512
0.000258638
0.000260747
0.000264938
0.000269372
0.000288743
0.00027691
0.000270957
0.000266817
0.000265013
0.000265193
0.00026599
0.000266818
0.000267025
0.000266897
0.000266123
0.000265337
0.000265125
0.000266871
0.00027093
0.000276821
0.000297055
0.000284866
0.000277716
0.000273733
0.000272268
0.000272759
0.000273695
0.000274586
0.000274804
0.000274673
0.000273843
0.000272921
0.000272395
0.000273796
0.000277691
0.000284776
0.000305716
0.000293295
0.000285189
0.000281392
0.000280246
0.00028102
0.000282079
0.000283025
0.000283251
0.00028312
0.000282241
0.000281197
0.000280386
0.000281463
0.000285165
0.000293204
0.000314712
0.000302164
0.000293314
0.000289721
0.000288864
0.00028989
0.000291057
0.000292051
0.000292285
0.000292154
0.00029123
0.000290079
0.000289014
0.000289797
0.000293292
0.000302072
0.000324026
0.000311434
0.000302019
0.000298634
0.000298038
0.00029929
0.000300553
0.000301589
0.000301829
0.000301698
0.000300736
0.00029949
0.000298198
0.000298716
0.000301998
0.000311342
0.000333643
0.000321064
0.000311235
0.000308066
0.000307712
0.000309168
0.000310515
0.000311587
0.00031183
0.000311701
0.000310706
0.000309378
0.000307879
0.000308153
0.000311215
0.000320971
0.000343542
0.000331019
0.000320909
0.000317966
0.000317837
0.000319479
0.000320899
0.000322002
0.000322248
0.00032212
0.000321098
0.000319698
0.000318012
0.000318058
0.00032089
0.000330925
0.000353703
0.000341271
0.000330995
0.00032829
0.000328372
0.000330183
0.000331666
0.000332795
0.000333043
0.000332919
0.000331873
0.00033041
0.000328554
0.000328385
0.000330978
0.000341178
0.000364101
0.000351797
0.000341454
0.000338994
0.000339276
0.000341241
0.000342778
0.00034393
0.000344179
0.000344057
0.000342992
0.000341475
0.000339464
0.000339093
0.000341437
0.000351703
0.000374716
0.00036257
0.000352243
0.000350037
0.000350507
0.000352613
0.000354197
0.000355366
0.000355616
0.000355498
0.000354417
0.000352854
0.000350701
0.00035014
0.000352228
0.000362477
0.000385524
0.000373564
0.000363324
0.000361378
0.000362026
0.000364259
0.000365882
0.000367066
0.000367315
0.000367201
0.000366108
0.000364506
0.000362226
0.000361484
0.00036331
0.000373471
0.000396499
0.000384746
0.000374653
0.000372974
0.000373792
0.000376138
0.000377794
0.00037899
0.000379237
0.000379128
0.000378025
0.000376391
0.000373996
0.000373084
0.000374641
0.000384655
0.000407611
0.000396083
0.00038619
0.000384782
0.00038576
0.000388208
0.000389889
0.000391094
0.000391339
0.000391235
0.000390125
0.000388467
0.000385969
0.000384895
0.000386179
0.000395993
0.000418827
0.000407535
0.000397888
0.000396757
0.000397887
0.000400425
0.000402125
0.000403334
0.000403577
0.000403478
0.000402365
0.000400688
0.000398101
0.000396874
0.000397879
0.000407446
0.000430106
0.000419057
0.0004097
0.00040885
0.000410125
0.000412739
0.000414451
0.000415662
0.000415902
0.000415809
0.000414696
0.000413007
0.000410344
0.000408972
0.000409694
0.00041897
0.000441404
0.000430602
0.000421574
0.00042101
0.000422421
0.000425099
0.000426817
0.000428026
0.000428262
0.000428175
0.000427065
0.000425371
0.000422644
0.000421135
0.000421571
0.000430517
0.000452673
0.000442116
0.000433454
0.000433177
0.000434715
0.000437445
0.000439162
0.000440367
0.000440598
0.000440518
0.000439414
0.000437722
0.000434943
0.000433307
0.000433455
0.000442034
0.000463864
0.000453548
0.000445281
0.00044529
0.000446945
0.000449716
0.000451427
0.000452625
0.00045285
0.000452778
0.000451682
0.000449996
0.000447178
0.000445426
0.000445287
0.000453469
0.000474925
0.000464844
0.000456995
0.000457283
0.000459042
0.000461845
0.000463545
0.000464735
0.000464955
0.00046489
0.000463803
0.000462129
0.000459279
0.000457424
0.000457005
0.000464769
0.000485806
0.000475953
0.000468535
0.000469089
0.000470937
0.000473766
0.000475454
0.000476636
0.00047685
0.000476793
0.000475715
0.000474054
0.00047118
0.000469236
0.000468551
0.000475881
0.000496453
0.000486822
0.000479841
0.000480645
0.000482566
0.000485416
0.000487091
0.000488266
0.000488474
0.000488424
0.000487355
0.000485708
0.000482814
0.000480798
0.000479864
0.000486754
0.000506815
0.000497397
0.000490851
0.000491886
0.000493864
0.000496732
0.000498394
0.000499562
0.000499763
0.000499721
0.000498659
0.000497027
0.000494118
0.000492046
0.000490881
0.000497334
0.00051683
0.000507616
0.000501491
0.000502736
0.000504756
0.000507639
0.000509287
0.00051045
0.000510645
0.00051061
0.000509555
0.000507938
0.000505017
0.000502905
0.000501528
0.000507558
0.000526433
0.000517411
0.000511681
0.000513116
0.000515163
0.000518057
0.000519692
0.000520852
0.000521039
0.000521012
0.000519962
0.000518361
0.00051543
0.000513293
0.000511726
0.000517357
0.000535564
0.000526724
0.000521361
0.000522961
0.000525017
0.000527919
0.000529539
0.000530695
0.000530875
0.000530856
0.000529811
0.000528227
0.000525292
0.000523146
0.000521414
0.000526676
0.000544176
0.000535513
0.00053049
0.000532233
0.000534287
0.00053719
0.000538794
0.000539947
0.000540119
0.000540108
0.000539068
0.000537502
0.000534568
0.000532428
0.000530552
0.000535471
0.00055223
0.000543739
0.000539034
0.000540905
0.000542946
0.000545847
0.000547434
0.000548582
0.000548746
0.000548744
0.000547709
0.000546163
0.000543235
0.00054111
0.000539106
0.000543704
0.00055968
0.000551362
0.000546959
0.000548949
0.00055097
0.000553865
0.000555433
0.000556575
0.00055673
0.000556737
0.000555709
0.000554185
0.000551267
0.000549164
0.000547041
0.000551333
0.000566482
0.000558339
0.000554228
0.000556334
0.000558327
0.000561216
0.000562761
0.000563897
0.000564041
0.000564059
0.000563038
0.00056154
0.000558633
0.000556559
0.000554321
0.000558317
0.00057259
0.00056463
0.000560804
0.000563024
0.000564986
0.000567866
0.000569385
0.000570513
0.000570646
0.000570676
0.000569664
0.000568195
0.0005653
0.00056326
0.000560908
0.000564615
0.000577961
0.000570194
0.000566652
0.000568985
0.000570912
0.000573781
0.000575271
0.000576391
0.000576511
0.000576553
0.000575551
0.000574115
0.000571235
0.000569233
0.000566768
0.000570187
0.000582554
0.000574994
0.000571739
0.000574184
0.000576073
0.00057893
0.000580387
0.000581497
0.000581603
0.000581659
0.000580669
0.000579269
0.000576405
0.000574444
0.000571867
0.000574996
0.000586333
0.000578997
0.000576032
0.000578589
0.000580438
0.000583281
0.000584701
0.0005858
0.000585891
0.000585962
0.000584984
0.000583624
0.000580778
0.000578861
0.000576173
0.000579008
0.000589266
0.000582171
0.000579503
0.00058217
0.000583975
0.000586803
0.000588183
0.00058927
0.000589345
0.000589433
0.000588468
0.000587151
0.000584325
0.000582453
0.000579657
0.00058219
0.000591322
0.000584486
0.000582124
0.000584897
0.000586658
0.000589469
0.000590805
0.000591878
0.000591936
0.000592041
0.000591091
0.000589821
0.000587016
0.000585192
0.000582291
0.000584515
0.000592477
0.000585916
0.000583869
0.000586745
0.00058846
0.000591252
0.000592542
0.000593601
0.00059364
0.000593763
0.000592829
0.000591609
0.000588827
0.000587053
0.000584049
0.000585955
0.000592707
0.000586438
0.000584717
0.000587691
0.000589358
0.00059213
0.00059337
0.000594413
0.000594432
0.000594575
0.000593657
0.000592491
0.000589734
0.000588011
0.00058491
0.000586487
0.000591992
0.000586033
0.000584646
0.000587714
0.000589333
0.000592083
0.000593269
0.000594295
0.000594294
0.000594458
0.000593557
0.000592448
0.000589718
0.000588045
0.000584853
0.000586092
0.000590317
0.000584683
0.00058364
0.000586796
0.000588368
0.000591093
0.000592222
0.000593231
0.000593209
0.000593393
0.000592511
0.000591462
0.00058876
0.000587139
0.000583861
0.000584754
0.000587668
0.000582377
0.000581685
0.000584923
0.000586447
0.000589146
0.000590215
0.000591205
0.000591161
0.000591367
0.000590505
0.000589518
0.000586847
0.000585278
0.00058192
0.000582458
0.000584036
0.000579102
0.00057877
0.000582082
0.000583559
0.000586229
0.000587237
0.000588206
0.00058814
0.000588367
0.000587527
0.000586605
0.000583967
0.000582448
0.000579018
0.000579194
0.000579412
0.000574849
0.000574882
0.000578262
0.000579694
0.000582332
0.000583276
0.000584223
0.000584135
0.000584384
0.000583566
0.00058271
0.000580108
0.000578638
0.000575144
0.000574952
0.00057379
0.000569611
0.000570013
0.000573451
0.00057484
0.000577444
0.000578323
0.000579247
0.000579136
0.000579406
0.000578613
0.000577825
0.00057526
0.000573837
0.000570288
0.000569725
0.000567161
0.000563377
0.000564151
0.000567639
0.000568985
0.000571554
0.000572367
0.000573265
0.000573132
0.000573424
0.000572656
0.000571937
0.000569412
0.000568034
0.000564439
0.000563502
0.000559517
0.000556136
0.000557282
0.000560809
0.000562116
0.000564646
0.000565394
0.000566263
0.00056611
0.000566422
0.000565682
0.000565031
0.000562548
0.000561213
0.000557582
0.000556271
0.000550844
0.000547872
0.000549387
0.000552943
0.000554213
0.000556702
0.000557384
0.000558224
0.00055805
0.000558381
0.000557672
0.000557088
0.00055465
0.000553356
0.000549699
0.000548018
0.000541122
0.000538563
0.000540442
0.000544014
0.00054525
0.000547694
0.000548314
0.000549121
0.000548929
0.000549277
0.0005486
0.000548081
0.000545691
0.000544435
0.000540765
0.000538718
0.000530321
0.000528174
0.000530409
0.000533985
0.000535189
0.000537586
0.000538145
0.000538916
0.000538708
0.000539072
0.000538429
0.000537974
0.000535633
0.000534413
0.000530742
0.000528339
0.000518392
0.000516656
0.000519234
0.000522801
0.000523975
0.000526323
0.000526823
0.000527557
0.000527334
0.000527711
0.000527106
0.00052671
0.000524422
0.000523235
0.000519578
0.00051683
0.000505264
0.000503932
0.000506839
0.000510382
0.000511529
0.000513824
0.000514271
0.000514963
0.000514728
0.000515116
0.000514552
0.000514211
0.000511978
0.000510822
0.000507191
0.000504115
0.00049083
0.000489892
0.000493092
0.00049657
0.000497692
0.000499935
0.000500344
0.000500987
0.000500748
0.000501139
0.000500624
0.000500321
0.000498143
0.000497014
0.000493453
0.000490084
0.000474866
0.000474265
0.000477708
0.000481086
0.000482184
0.000484374
0.000484761
0.000485348
0.000485111
0.000485499
0.000485039
0.00048476
0.000482636
0.000481534
0.000478075
0.000474463
0.000457053
0.000456745
0.000460384
0.000463642
0.000464714
0.00046685
0.000467224
0.000467748
0.00046752
0.000467898
0.000467499
0.000467235
0.000465167
0.000464094
0.000460756
0.000456949
0.000437093
0.000437052
0.000440838
0.000443962
0.000445004
0.000447084
0.000447451
0.000447908
0.000447692
0.000448057
0.000447724
0.000447466
0.000445457
0.000444416
0.000441215
0.00043726
0.000414722
0.000414925
0.000418809
0.000421787
0.000422793
0.000424812
0.000425178
0.000425563
0.000425364
0.000425711
0.000425448
0.000425192
0.000423244
0.000422241
0.000419188
0.000415137
0.00038972
0.000390145
0.000394072
0.000396892
0.000397856
0.000399807
0.000400175
0.000400486
0.000400307
0.000400631
0.00040044
0.000400182
0.000398303
0.000397343
0.000394449
0.000390358
0.000361939
0.000362559
0.000366468
0.000369116
0.000370033
0.000371905
0.000372277
0.000372513
0.000372358
0.000372656
0.000372537
0.000372273
0.000370472
0.000369561
0.000366842
0.00036277
0.000331341
0.000332122
0.000335949
0.000338411
0.000339275
0.000341054
0.000341431
0.000341592
0.000341463
0.000341731
0.000341682
0.000341411
0.000339702
0.000338845
0.000336315
0.00033233
0.000298049
0.000298953
0.000302631
0.000304889
0.000305695
0.000307364
0.000307742
0.000307833
0.000307733
0.000307966
0.000307982
0.000307706
0.000306105
0.000305305
0.000302983
0.000299154
0.000262399
0.000263388
0.000266846
0.000268881
0.000269627
0.000271163
0.000271538
0.000271567
0.000271495
0.000271692
0.000271763
0.000271485
0.000270014
0.000269275
0.000267179
0.000263578
0.000224952
0.000225973
0.000229151
0.000230945
0.000231626
0.000233006
0.000233371
0.000233347
0.000233303
0.000233462
0.000233578
0.000233302
0.000231982
0.000231307
0.000229459
0.00022615
0.000186358
0.000187364
0.000190221
0.000191756
0.00019237
0.000193571
0.000193919
0.00019385
0.000193832
0.000193953
0.000194104
0.000193837
0.000192689
0.000192081
0.000190497
0.000187523
0.000148049
0.000148963
0.000151414
0.000152675
0.000153207
0.000154212
0.000154529
0.000154434
0.000154437
0.000154522
0.000154687
0.00015444
0.00015348
0.000152954
0.000151651
0.0001491
0.00011196
0.00011272
0.0001147
0.000115682
0.000116117
0.000116918
0.00011719
0.00011709
0.000117105
0.000117161
0.000117319
0.000117103
0.00011634
0.000115908
0.000114892
0.00011283
8.00743e-05
8.06491e-05
8.21372e-05
8.28569e-05
8.31906e-05
8.37904e-05
8.4008e-05
8.39185e-05
8.39388e-05
8.39728e-05
8.41056e-05
8.39306e-05
8.33593e-05
8.30282e-05
8.22829e-05
8.07327e-05
5.38919e-05
5.4288e-05
5.53203e-05
5.58133e-05
5.60497e-05
5.64689e-05
5.66288e-05
5.65602e-05
5.65793e-05
5.65985e-05
5.66975e-05
5.65676e-05
5.61683e-05
5.59335e-05
5.54224e-05
5.43465e-05
3.40037e-05
3.42537e-05
3.49116e-05
3.52263e-05
3.53806e-05
3.56522e-05
3.57594e-05
3.57136e-05
3.57281e-05
3.57385e-05
3.58041e-05
3.57162e-05
3.54575e-05
3.53041e-05
3.49776e-05
3.42913e-05
2.0023e-05
2.01687e-05
2.05534e-05
2.07403e-05
2.08327e-05
2.09952e-05
2.10607e-05
2.10337e-05
2.10431e-05
2.10486e-05
2.10874e-05
2.10335e-05
2.08785e-05
2.07866e-05