0 	0 	0 	0
0 	6.72803e-36 	-2.95197e-36 	1.85602e-31
5.01672e-05 	5.39121e-07 	-3.2082e-07 	0.0173128
5.01672e-05 	5.39121e-07 	-3.2082e-07 	0.0173128
0.000100334 	3.76603e-07 	-1.03306e-06 	0.0332966
0.000150502 	4.9491e-08 	-2.18176e-06 	0.0481253
0.000150502 	4.9491e-08 	-2.18176e-06 	0.0481253
0.000200669 	-2.29663e-07 	-3.75273e-06 	0.0618889
0.000200669 	-2.29663e-07 	-3.75273e-06 	0.0618889
0.000250836 	-4.73527e-07 	-5.7471e-06 	0.0746662
0.000301003 	-7.05526e-07 	-8.15194e-06 	0.0865229
0.000301003 	-7.05526e-07 	-8.15194e-06 	0.0865229
0.000351171 	-9.31309e-07 	-1.0963e-05 	0.0975026
0.000401338 	-1.15301e-06 	-1.41853e-05 	0.107627
0.000451505 	-1.3702e-06 	-1.78398e-05 	0.11691
0.000451505 	-1.3702e-06 	-1.78398e-05 	0.11691
0.000501672 	-1.57996e-06 	-2.19609e-05 	0.125379
0.000551839 	-1.77806e-06 	-2.6585e-05 	0.133079
0.000551839 	-1.77806e-06 	-2.6585e-05 	0.133079
0.000602007 	-1.9603e-06 	-3.17413e-05 	0.140072
0.000602007 	-1.9603e-06 	-3.17413e-05 	0.140072
0.000652174 	-2.12361e-06 	-3.74511e-05 	0.146427
0.000652174 	-2.12361e-06 	-3.74511e-05 	0.146427
0.000702341 	-2.2663e-06 	-4.37322e-05 	0.152218
0.000702341 	-2.2663e-06 	-4.37322e-05 	0.152218
0.000752508 	-2.38789e-06 	-5.05996e-05 	0.157514
0.000802676 	-2.48849e-06 	-5.80675e-05 	0.162369
0.000852843 	-2.56577e-06 	-6.62311e-05 	0.166778
0.000852843 	-2.56577e-06 	-6.62311e-05 	0.166778
0.00090301 	-2.62412e-06 	-7.49649e-05 	0.170851
0.00090301 	-2.62412e-06 	-7.49649e-05 	0.170851
0.000953177 	-2.66486e-06 	-8.422e-05 	0.174626
0.00100334 	-2.68934e-06 	-9.39454e-05 	0.17814
0.00100334 	-2.68934e-06 	-9.39454e-05 	0.17814
0.00105351 	-2.69891e-06 	-0.000104093 	0.181424
0.00105351 	-2.69891e-06 	-0.000104093 	0.181424
0.00110368 	-2.69456e-06 	-0.000114625 	0.184502
0.00115385 	-2.67439e-06 	-0.000125585 	0.187352
0.00120401 	-2.64373e-06 	-0.000136821 	0.190051
0.00120401 	-2.64373e-06 	-0.000136821 	0.190051
0.00130435 	-2.55495e-06 	-0.000159986 	0.195058
0.00130435 	-2.55495e-06 	-0.000159986 	0.195058
0.00135452 	-2.49631e-06 	-0.000171903 	0.197358
0.00135452 	-2.49631e-06 	-0.000171903 	0.197358
0.00140468 	-2.42989e-06 	-0.000183973 	0.199548
0.00145485 	-2.35737e-06 	-0.000196148 	0.201654
0.00145485 	-2.35737e-06 	-0.000196148 	0.201654
0.00150502 	-2.27917e-06 	-0.000208408 	0.203684
0.00150502 	-2.27917e-06 	-0.000208408 	0.203684
0.00155518 	-2.19267e-06 	-0.00022075 	0.205606
0.00155518 	-2.19267e-06 	-0.00022075 	0.205606
0.00160535 	-2.10145e-06 	-0.000233108 	0.207468
0.00160535 	-2.10145e-06 	-0.000233108 	0.207468
0.00165552 	-2.00609e-06 	-0.000245469 	0.209277
0.00165552 	-2.00609e-06 	-0.000245469 	0.209277
0.00170569 	-1.9053e-06 	-0.000257797 	0.211015
0.00170569 	-1.9053e-06 	-0.000257797 	0.211015
0.00175585 	-1.80038e-06 	-0.000270046 	0.212698
0.00175585 	-1.80038e-06 	-0.000270046 	0.212698
0.00180602 	-1.69268e-06 	-0.000282224 	0.214343
0.00180602 	-1.69268e-06 	-0.000282224 	0.214343
0.00185619 	-1.58107e-06 	-0.000294268 	0.215935
0.00185619 	-1.58107e-06 	-0.000294268 	0.215935
0.00190635 	-1.46614e-06 	-0.000306142 	0.217482
0.00190635 	-1.46614e-06 	-0.000306142 	0.217482
0.00195652 	-1.34917e-06 	-0.000317896 	0.219001
0.00195652 	-1.34917e-06 	-0.000317896 	0.219001
0.00200669 	-1.2287e-06 	-0.000329404 	0.220472
0.00200669 	-1.2287e-06 	-0.000329404 	0.220472
0.00205686 	-1.10582e-06 	-0.000340696 	0.221911
0.00210702 	-9.81347e-07 	-0.000351843 	0.223328
0.00210702 	-9.81347e-07 	-0.000351843 	0.223328
0.00215719 	-8.53187e-07 	-0.000362584 	0.224696
0.00220736 	-7.23662e-07 	-0.000373147 	0.226046
0.00225753 	-5.91954e-07 	-0.000383426 	0.227368
0.00225753 	-5.91954e-07 	-0.000383426 	0.227368
0.00230769 	-4.5776e-07 	-0.000393334 	0.228657
0.00230769 	-4.5776e-07 	-0.000393334 	0.228657
0.00235786 	-3.22495e-07 	-0.000403079 	0.229933
0.00235786 	-3.22495e-07 	-0.000403079 	0.229933
0.00240803 	-1.84077e-07 	-0.000412299 	0.231168
0.00240803 	-1.84077e-07 	-0.000412299 	0.231168
0.00245819 	-4.45923e-08 	-0.000421326 	0.232389
0.00245819 	-4.45923e-08 	-0.000421326 	0.232389
0.00250836 	9.70543e-08 	-0.000429961 	0.233584
0.00250836 	9.70543e-08 	-0.000429961 	0.233584
0.00255853 	2.4057e-07 	-0.000438234 	0.234755
0.0026087 	3.85413e-07 	-0.000446252 	0.23591
0.0026087 	3.85413e-07 	-0.000446252 	0.23591
0.00265886 	5.32865e-07 	-0.000453751 	0.237033
0.00270903 	6.80936e-07 	-0.000461127 	0.238148
0.00270903 	6.80936e-07 	-0.000461127 	0.238148
0.0027592 	8.32359e-07 	-0.000467838 	0.239225
0.00280936 	9.84352e-07 	-0.000474442 	0.240295
0.00280936 	9.84352e-07 	-0.000474442 	0.240295
0.00285953 	1.13936e-06 	-0.000480473 	0.241333
0.00285953 	1.13936e-06 	-0.000480473 	0.241333
0.0029097 	1.29548e-06 	-0.000486309 	0.24236
0.0029097 	1.29548e-06 	-0.000486309 	0.24236
0.00295987 	1.45439e-06 	-0.000491655 	0.24336
0.00295987 	1.45439e-06 	-0.000491655 	0.24336
0.00301003 	1.61488e-06 	-0.000496749 	0.244345
0.0030602 	1.77799e-06 	-0.000501423 	0.245306
0.00311037 	1.94303e-06 	-0.000505819 	0.246251
0.00311037 	1.94303e-06 	-0.000505819 	0.246251
0.00316054 	2.11058e-06 	-0.000509851 	0.247174
0.00316054 	2.11058e-06 	-0.000509851 	0.247174
0.00326087 	2.45234e-06 	-0.00051704 	0.248965
0.00326087 	2.45234e-06 	-0.00051704 	0.248965
0.00331104 	2.62662e-06 	-0.000520227 	0.249833
0.0033612 	2.80359e-06 	-0.000523111 	0.25068
0.0033612 	2.80359e-06 	-0.000523111 	0.25068
0.00341137 	2.98278e-06 	-0.000525799 	0.251512
0.00341137 	2.98278e-06 	-0.000525799 	0.251512
0.00346154 	3.16534e-06 	-0.000528191 	0.25232
0.00346154 	3.16534e-06 	-0.000528191 	0.25232
0.00351171 	3.35002e-06 	-0.00053045 	0.253118
0.00356187 	3.53936e-06 	-0.000532412 	0.253889
0.00356187 	3.53936e-06 	-0.000532412 	0.253889
0.00361204 	3.73016e-06 	-0.000534303 	0.254654
0.00366221 	3.92711e-06 	-0.000535892 	0.25539
0.00366221 	3.92711e-06 	-0.000535892 	0.25539
0.00371237 	4.12428e-06 	-0.00053747 	0.256125
0.00371237 	4.12428e-06 	-0.00053747 	0.256125
0.00376254 	4.3286e-06 	-0.00053873 	0.256828
0.00376254 	4.3286e-06 	-0.00053873 	0.256828
0.00381271 	4.53293e-06 	-0.00053999 	0.257531
0.00381271 	4.53293e-06 	-0.00053999 	0.257531
0.00386288 	4.74256e-06 	-0.000541009 	0.258207
0.00391304 	4.95328e-06 	-0.000541979 	0.258878
0.00391304 	4.95328e-06 	-0.000541979 	0.258878
0.00396321 	5.16723e-06 	-0.000542798 	0.25953
0.00401338 	5.3834e-06 	-0.000543512 	0.260169
0.00401338 	5.3834e-06 	-0.000543512 	0.260169
0.00406355 	5.60108e-06 	-0.000544156 	0.260798
0.00406355 	5.60108e-06 	-0.000544156 	0.260798
0.00411371 	5.82205e-06 	-0.000544649 	0.261405
0.00411371 	5.82205e-06 	-0.000544649 	0.261405
0.00421405 	6.26818e-06 	-0.000545451 	0.262586
0.00421405 	6.26818e-06 	-0.000545451 	0.262586
0.00426421 	6.49335e-06 	-0.000545758 	0.263161
0.00426421 	6.49335e-06 	-0.000545758 	0.263161
0.00431438 	6.72073e-06 	-0.00054597 	0.263715
0.00431438 	6.72073e-06 	-0.00054597 	0.263715
0.00436455 	6.94939e-06 	-0.000546128 	0.264257
0.00436455 	6.94939e-06 	-0.000546128 	0.264257
0.00441472 	7.17866e-06 	-0.000546259 	0.264792
0.00441472 	7.17866e-06 	-0.000546259 	0.264792
0.00446488 	7.40999e-06 	-0.000546302 	0.265302
0.00446488 	7.40999e-06 	-0.000546302 	0.265302
0.00451505 	7.64131e-06 	-0.000546345 	0.265811
0.00451505 	7.64131e-06 	-0.000546345 	0.265811
0.00456522 	7.87398e-06 	-0.000546326 	0.266296
0.00456522 	7.87398e-06 	-0.000546326 	0.266296
0.00461538 	8.10702e-06 	-0.00054629 	0.266773
0.00461538 	8.10702e-06 	-0.00054629 	0.266773
0.00466555 	8.34025e-06 	-0.00054624 	0.267241
0.00471572 	8.57394e-06 	-0.000546157 	0.267686
0.00476589 	8.80763e-06 	-0.000546075 	0.268131
0.00476589 	8.80763e-06 	-0.000546075 	0.268131
0.00486622 	9.2742e-06 	-0.000545882 	0.268963
0.00486622 	9.2742e-06 	-0.000545882 	0.268963
0.00491639 	9.50714e-06 	-0.000545787 	0.26937
0.00496656 	9.73877e-06 	-0.000545701 	0.26975
0.00496656 	9.73877e-06 	-0.000545701 	0.26975
0.00501672 	9.9704e-06 	-0.000545616 	0.27013
0.00506689 	1.02005e-05 	-0.00054555 	0.270492
0.00511706 	1.04293e-05 	-0.000545501 	0.27084
0.00511706 	1.04293e-05 	-0.000545501 	0.27084
0.00521739 	1.08834e-05 	-0.000545448 	0.271507
0.00521739 	1.08834e-05 	-0.000545448 	0.271507
0.00526756 	1.11082e-05 	-0.000545452 	0.271823
0.00526756 	1.11082e-05 	-0.000545452 	0.271823
0.00531773 	1.13322e-05 	-0.000545466 	0.272134
0.00536789 	1.15516e-05 	-0.000545535 	0.272418
0.00536789 	1.15516e-05 	-0.000545535 	0.272418
0.00541806 	1.17711e-05 	-0.000545605 	0.272702
0.00546823 	1.1988e-05 	-0.000545702 	0.272974
0.00551839 	1.2201e-05 	-0.000545844 	0.273227
0.00551839 	1.2201e-05 	-0.000545844 	0.273227
0.00556856 	1.24139e-05 	-0.000545986 	0.27348
0.00556856 	1.24139e-05 	-0.000545986 	0.27348
0.0056689 	1.28276e-05 	-0.000546383 	0.273938
0.0056689 	1.28276e-05 	-0.000546383 	0.273938
0.00571906 	1.30327e-05 	-0.000546598 	0.27416
0.00576923 	1.32314e-05 	-0.000546859 	0.274362
0.00576923 	1.32314e-05 	-0.000546859 	0.274362
0.0058194 	1.34272e-05 	-0.000547141 	0.274555
0.0058194 	1.34272e-05 	-0.000547141 	0.274555
0.00591973 	1.38104e-05 	-0.000547747 	0.274918
0.00591973 	1.38104e-05 	-0.000547747 	0.274918
0.0059699 	1.39952e-05 	-0.000548084 	0.275082
0.0059699 	1.39952e-05 	-0.000548084 	0.275082
0.00602007 	1.418e-05 	-0.000548421 	0.275246
0.00607023 	1.43545e-05 	-0.000548789 	0.275388
0.0061204 	1.45263e-05 	-0.000549164 	0.275524
0.0061204 	1.45263e-05 	-0.000549164 	0.275524
0.00617057 	1.46981e-05 	-0.00054954 	0.275661
0.00622074 	1.48585e-05 	-0.000549931 	0.275776
0.00622074 	1.48585e-05 	-0.000549931 	0.275776
0.0062709 	1.50154e-05 	-0.000550326 	0.275886
0.00632107 	1.51724e-05 	-0.000550722 	0.275995
0.00632107 	1.51724e-05 	-0.000550722 	0.275995
0.00637124 	1.53177e-05 	-0.000551118 	0.276087
0.00637124 	1.53177e-05 	-0.000551118 	0.276087
0.0064214 	1.54577e-05 	-0.000551514 	0.276171
0.0064214 	1.54577e-05 	-0.000551514 	0.276171
0.00647157 	1.55976e-05 	-0.000551911 	0.276254
0.00647157 	1.55976e-05 	-0.000551911 	0.276254
0.00652174 	1.5727e-05 	-0.000552289 	0.276324
0.00657191 	1.58476e-05 	-0.000552651 	0.276382
0.00657191 	1.58476e-05 	-0.000552651 	0.276382
0.00662207 	1.59682e-05 	-0.000553014 	0.27644
0.00667224 	1.60811e-05 	-0.000553363 	0.27649
0.00672241 	1.61798e-05 	-0.000553688 	0.276524
0.00672241 	1.61798e-05 	-0.000553688 	0.276524
0.00677258 	1.62784e-05 	-0.000554012 	0.276557
0.00682274 	1.63746e-05 	-0.000554333 	0.276588
0.00682274 	1.63746e-05 	-0.000554333 	0.276588
0.00687291 	1.64483e-05 	-0.000554621 	0.276597
0.00687291 	1.64483e-05 	-0.000554621 	0.276597
0.00692308 	1.6522e-05 	-0.00055491 	0.276606
0.00697324 	1.65956e-05 	-0.000555199 	0.276616
0.00702341 	1.66472e-05 	-0.000555429 	0.276606
0.00707358 	1.66927e-05 	-0.000555643 	0.276591
0.00707358 	1.66927e-05 	-0.000555643 	0.276591
0.00717391 	1.67703e-05 	-0.000556053 	0.27655
0.00717391 	1.67703e-05 	-0.000556053 	0.27655
0.00722408 	1.67835e-05 	-0.000556225 	0.276511
0.00722408 	1.67835e-05 	-0.000556225 	0.276511
0.00727425 	1.67966e-05 	-0.000556396 	0.276472
0.00727425 	1.67966e-05 	-0.000556396 	0.276472
0.00732441 	1.68098e-05 	-0.000556567 	0.276433
0.00732441 	1.68098e-05 	-0.000556567 	0.276433
0.00737458 	1.67864e-05 	-0.000556655 	0.27637
0.00737458 	1.67864e-05 	-0.000556655 	0.27637
0.00742475 	1.67627e-05 	-0.000556742 	0.276307
0.00747492 	1.6739e-05 	-0.000556829 	0.276244
0.00752508 	1.66964e-05 	-0.000556845 	0.276168
0.00752508 	1.66964e-05 	-0.000556845 	0.276168
0.00757525 	1.66351e-05 	-0.00055679 	0.276081
0.00762542 	1.65737e-05 	-0.000556734 	0.275994
0.00767559 	1.65121e-05 	-0.000556678 	0.275907
0.00767559 	1.65121e-05 	-0.000556678 	0.275907
0.00772575 	1.64149e-05 	-0.000556517 	0.275795
0.00777592 	1.63177e-05 	-0.000556356 	0.275684
0.00777592 	1.63177e-05 	-0.000556356 	0.275684
0.00782609 	1.62206e-05 	-0.000556194 	0.275572
0.00787625 	1.61057e-05 	-0.000555945 	0.275448
0.00787625 	1.61057e-05 	-0.000555945 	0.275448
0.00792642 	1.5978e-05 	-0.000555632 	0.275313
0.00797659 	1.58503e-05 	-0.000555319 	0.275178
0.00802676 	1.57174e-05 	-0.000554976 	0.275038
0.00802676 	1.57174e-05 	-0.000554976 	0.275038
0.00807692 	1.55647e-05 	-0.000554517 	0.274881
0.00807692 	1.55647e-05 	-0.000554517 	0.274881
0.00812709 	1.5412e-05 	-0.000554059 	0.274723
0.00817726 	1.52593e-05 	-0.0005536 	0.274565
0.00817726 	1.52593e-05 	-0.0005536 	0.274565
0.00822742 	1.50872e-05 	-0.000553047 	0.274387
0.00827759 	1.4913e-05 	-0.000552483 	0.274207
0.00827759 	1.4913e-05 	-0.000552483 	0.274207
0.00832776 	1.47387e-05 	-0.00055192 	0.274027
0.00832776 	1.47387e-05 	-0.00055192 	0.274027
0.00837793 	1.45527e-05 	-0.000551276 	0.273832
0.00842809 	1.43603e-05 	-0.000550588 	0.273629
0.00842809 	1.43603e-05 	-0.000550588 	0.273629
0.00847826 	1.41679e-05 	-0.000549901 	0.273426
0.00847826 	1.41679e-05 	-0.000549901 	0.273426
0.0085786 	1.37612e-05 	-0.000548349 	0.272987
0.0085786 	1.37612e-05 	-0.000548349 	0.272987
0.00862876 	1.35537e-05 	-0.00054754 	0.272762
0.00867893 	1.33423e-05 	-0.000546692 	0.272529
0.0087291 	1.31226e-05 	-0.000545763 	0.272282
0.00877926 	1.29028e-05 	-0.000544834 	0.272034
0.00882943 	1.26807e-05 	-0.000543877 	0.271781
0.0088796 	1.24511e-05 	-0.000542829 	0.271511
0.0088796 	1.24511e-05 	-0.000542829 	0.271511
0.00892977 	1.22215e-05 	-0.000541781 	0.27124
0.00892977 	1.22215e-05 	-0.000541781 	0.27124
0.00897993 	1.19903e-05 	-0.000540709 	0.270966
0.00897993 	1.19903e-05 	-0.000540709 	0.270966
0.0090301 	1.17531e-05 	-0.000539543 	0.270673
0.00908027 	1.15159e-05 	-0.000538377 	0.27038
0.00908027 	1.15159e-05 	-0.000538377 	0.27038
0.00913043 	1.12774e-05 	-0.000537184 	0.270082
0.0091806 	1.10345e-05 	-0.000535901 	0.269767
0.0091806 	1.10345e-05 	-0.000535901 	0.269767
0.00923077 	1.07917e-05 	-0.000534617 	0.269451
0.00928094 	1.05476e-05 	-0.000533298 	0.269129
0.00928094 	1.05476e-05 	-0.000533298 	0.269129
0.0093311 	1.03007e-05 	-0.000531897 	0.26879
0.00938127 	1.00539e-05 	-0.000530496 	0.268452
0.00938127 	1.00539e-05 	-0.000530496 	0.268452
0.00943144 	9.80591e-06 	-0.000529044 	0.268104
0.00943144 	9.80591e-06 	-0.000529044 	0.268104
0.00948161 	9.55656e-06 	-0.000527525 	0.267742
0.00948161 	9.55656e-06 	-0.000527525 	0.267742
0.00953177 	9.30721e-06 	-0.000526006 	0.267381
0.00953177 	9.30721e-06 	-0.000526006 	0.267381
0.00958194 	9.05709e-06 	-0.000524413 	0.267005
0.00958194 	9.05709e-06 	-0.000524413 	0.267005
0.00963211 	8.8065e-06 	-0.000522775 	0.26662
0.00968227 	8.55591e-06 	-0.000521137 	0.266235
0.00968227 	8.55591e-06 	-0.000521137 	0.266235
0.00973244 	8.30518e-06 	-0.000519396 	0.26583
0.00978261 	8.05442e-06 	-0.000517636 	0.265422
0.00978261 	8.05442e-06 	-0.000517636 	0.265422
0.00983278 	7.80376e-06 	-0.000515861 	0.26501
0.00983278 	7.80376e-06 	-0.000515861 	0.26501
0.00988294 	7.55375e-06 	-0.000513977 	0.264577
0.00993311 	7.30374e-06 	-0.000512093 	0.264144
0.00993311 	7.30374e-06 	-0.000512093 	0.264144
0.00998328 	7.05442e-06 	-0.000510151 	0.263699
0.0100334 	6.80593e-06 	-0.000508139 	0.263242
0.0100836 	6.55744e-06 	-0.000506127 	0.262784
0.0100836 	6.55744e-06 	-0.000506127 	0.262784
0.0101338 	6.31076e-06 	-0.000504006 	0.262305
0.0101839 	6.06447e-06 	-0.000501862 	0.261821
0.0101839 	6.06447e-06 	-0.000501862 	0.261821
0.0102341 	5.81885e-06 	-0.000499684 	0.261332
0.0102341 	5.81885e-06 	-0.000499684 	0.261332
0.0102843 	5.57533e-06 	-0.000497401 	0.260822
0.0103344 	5.33181e-06 	-0.000495119 	0.260313
0.0103344 	5.33181e-06 	-0.000495119 	0.260313
0.0103846 	5.09062e-06 	-0.000492735 	0.259785
0.0103846 	5.09062e-06 	-0.000492735 	0.259785
0.0104348 	4.85039e-06 	-0.000490308 	0.259248
0.0104348 	4.85039e-06 	-0.000490308 	0.259248
0.0104849 	4.61096e-06 	-0.000487849 	0.258706
0.0104849 	4.61096e-06 	-0.000487849 	0.258706
0.0105351 	4.37445e-06 	-0.000485272 	0.258142
0.0105853 	4.13794e-06 	-0.000482695 	0.257579
0.0105853 	4.13794e-06 	-0.000482695 	0.257579
0.0106856 	3.67214e-06 	-0.00047726 	0.2564
0.0106856 	3.67214e-06 	-0.00047726 	0.2564
0.0107358 	3.44133e-06 	-0.000474463 	0.255797
0.010786 	3.21329e-06 	-0.000471561 	0.255175
0.010786 	3.21329e-06 	-0.000471561 	0.255175
0.0108361 	2.98529e-06 	-0.000468658 	0.254553
0.0108863 	2.76189e-06 	-0.000465583 	0.2539
0.0108863 	2.76189e-06 	-0.000465583 	0.2539
0.0109365 	2.5385e-06 	-0.000462507 	0.253248
0.0109365 	2.5385e-06 	-0.000462507 	0.253248
0.0109866 	2.31845e-06 	-0.000459307 	0.252573
0.0110368 	2.09992e-06 	-0.00045605 	0.251888
0.0110368 	2.09992e-06 	-0.00045605 	0.251888
0.011087 	1.88347e-06 	-0.000452715 	0.25119
0.011087 	1.88347e-06 	-0.000452715 	0.25119
0.0111371 	1.67002e-06 	-0.000449267 	0.250472
0.0111873 	1.45748e-06 	-0.000445784 	0.249749
0.0111873 	1.45748e-06 	-0.000445784 	0.249749
0.0112375 	1.24938e-06 	-0.00044213 	0.248996
0.0112876 	1.04127e-06 	-0.000438476 	0.248243
0.0112876 	1.04127e-06 	-0.000438476 	0.248243
0.0113378 	8.38618e-07 	-0.000434607 	0.247455
0.0113378 	8.38618e-07 	-0.000434607 	0.247455
0.011388 	6.3613e-07 	-0.000430731 	0.246666
0.0114381 	4.38351e-07 	-0.000426655 	0.245845
0.0114381 	4.38351e-07 	-0.000426655 	0.245845
0.0114883 	2.4168e-07 	-0.00042253 	0.245017
0.0115385 	4.9189e-08 	-0.000418209 	0.244158
0.0115385 	4.9189e-08 	-0.000418209 	0.244158
0.0115886 	-1.41401e-07 	-0.000413798 	0.243287
0.0116388 	-3.28142e-07 	-0.000409186 	0.242387
0.0116388 	-3.28142e-07 	-0.000409186 	0.242387
0.011689 	-5.12345e-07 	-0.000404442 	0.241467
0.0117391 	-6.93039e-07 	-0.000399486 	0.240519
0.0117893 	-8.7091e-07 	-0.000394358 	0.239548
0.0118395 	-1.04562e-06 	-0.000388998 	0.238545
0.0118395 	-1.04562e-06 	-0.000388998 	0.238545
0.0118896 	-1.21765e-06 	-0.000383441 	0.237516
0.0119398 	-1.38674e-06 	-0.000377625 	0.236452
0.0119398 	-1.38674e-06 	-0.000377625 	0.236452
0.01199 	-1.55358e-06 	-0.000371609 	0.235361
0.0120401 	-1.7175e-06 	-0.000365297 	0.234228
0.0120401 	-1.7175e-06 	-0.000365297 	0.234228
0.0120903 	-1.87966e-06 	-0.000358806 	0.23307
0.0120903 	-1.87966e-06 	-0.000358806 	0.23307
0.0121906 	-2.19646e-06 	-0.000344999 	0.23063
0.0121906 	-2.19646e-06 	-0.000344999 	0.23063
0.0122408 	-2.35073e-06 	-0.000337619 	0.229336
0.012291 	-2.50432e-06 	-0.000330163 	0.22803
0.012291 	-2.50432e-06 	-0.000330163 	0.22803
0.0123411 	-2.65391e-06 	-0.000322225 	0.226643
0.0123913 	-2.80275e-06 	-0.000314196 	0.225239
0.0123913 	-2.80275e-06 	-0.000314196 	0.225239
0.0124415 	-2.94848e-06 	-0.000305783 	0.223766
0.0124415 	-2.94848e-06 	-0.000305783 	0.223766
0.0124916 	-3.09265e-06 	-0.000297179 	0.222254
0.0124916 	-3.09265e-06 	-0.000297179 	0.222254
0.0125418 	-3.23464e-06 	-0.000288307 	0.22069
0.012592 	-3.37419e-06 	-0.000279143 	0.219061
0.0126421 	-3.51252e-06 	-0.000269836 	0.2174
0.0126421 	-3.51252e-06 	-0.000269836 	0.2174
0.0126923 	-3.64738e-06 	-0.000260148 	0.215642
0.0127425 	-3.78107e-06 	-0.000250347 	0.213851
0.0127425 	-3.78107e-06 	-0.000250347 	0.213851
0.0127926 	-3.91204e-06 	-0.000240291 	0.211982
0.0128428 	-4.04063e-06 	-0.000230057 	0.210045
0.0128428 	-4.04063e-06 	-0.000230057 	0.210045
0.0129431 	-4.2907e-06 	-0.000209149 	0.205969
0.0129431 	-4.2907e-06 	-0.000209149 	0.205969
0.0129933 	-4.41186e-06 	-0.00019853 	0.203824
0.0130435 	-4.53029e-06 	-0.000187826 	0.201604
0.0130435 	-4.53029e-06 	-0.000187826 	0.201604
0.0131438 	-4.75653e-06 	-0.000166332 	0.19689
0.0131438 	-4.75653e-06 	-0.000166332 	0.19689
0.013194 	-4.86446e-06 	-0.000155611 	0.194406
0.0132441 	-4.96764e-06 	-0.000144985 	0.191811
0.0132441 	-4.96764e-06 	-0.000144985 	0.191811
0.0132943 	-5.06742e-06 	-0.000134448 	0.189141
0.0133445 	-5.16219e-06 	-0.000124062 	0.186362
0.0133445 	-5.16219e-06 	-0.000124062 	0.186362
0.0133946 	-5.2505e-06 	-0.000113918 	0.183451
0.0133946 	-5.2505e-06 	-0.000113918 	0.183451
0.0134448 	-5.33397e-06 	-0.000103969 	0.180445
0.0134448 	-5.33397e-06 	-0.000103969 	0.180445
0.013495 	-5.41193e-06 	-9.42485e-05 	0.177335
0.0135452 	-5.47992e-06 	-8.49566e-05 	0.174047
0.0135452 	-5.47992e-06 	-8.49566e-05 	0.174047
0.0135953 	-5.54075e-06 	-7.59734e-05 	0.170638
0.0135953 	-5.54075e-06 	-7.59734e-05 	0.170638
0.0136455 	-5.59372e-06 	-6.73257e-05 	0.1671
0.0136455 	-5.59372e-06 	-6.73257e-05 	0.1671
0.0136957 	-5.63642e-06 	-5.91119e-05 	0.163396
0.0136957 	-5.63642e-06 	-5.91119e-05 	0.163396
0.0137458 	-5.66594e-06 	-5.14441e-05 	0.159484
0.013796 	-5.68442e-06 	-4.42241e-05 	0.155399
0.013796 	-5.68442e-06 	-4.42241e-05 	0.155399
0.0138462 	-5.69082e-06 	-3.74825e-05 	0.151128
0.0138462 	-5.69082e-06 	-3.74825e-05 	0.151128
0.0138963 	-5.68394e-06 	-3.12502e-05 	0.146656
0.0139465 	-5.65727e-06 	-2.57186e-05 	0.141895
0.0139465 	-5.65727e-06 	-2.57186e-05 	0.141895
0.0139967 	-5.61321e-06 	-2.07455e-05 	0.136887
0.0139967 	-5.61321e-06 	-2.07455e-05 	0.136887
0.0140468 	-5.55039e-06 	-1.63303e-05 	0.131618
0.0140468 	-5.55039e-06 	-1.63303e-05 	0.131618
0.014097 	-5.46672e-06 	-1.24816e-05 	0.126067
0.0141472 	-5.35978e-06 	-9.19982e-06 	0.120211
0.0141472 	-5.35978e-06 	-9.19982e-06 	0.120211
0.0141973 	-5.22672e-06 	-6.47097e-06 	0.114023
0.0142475 	-5.0597e-06 	-4.33831e-06 	0.107403
0.0142977 	-4.86151e-06 	-2.66981e-06 	0.100368
0.0142977 	-4.86151e-06 	-2.66981e-06 	0.100368
0.0143478 	-4.63271e-06 	-1.42023e-06 	0.0929066
0.014398 	-4.3751e-06 	-5.48558e-07 	0.085038
0.014398 	-4.3751e-06 	-5.48558e-07 	0.085038
0.0144482 	-4.09157e-06 	-3.02489e-09 	0.0768198
0.0144983 	-3.78589e-06 	2.80033e-07 	0.0683564
0.0144983 	-3.78589e-06 	2.80033e-07 	0.0683564
0.0145485 	-3.46239e-06 	3.71882e-07 	0.0597982
0.0145485 	-3.46239e-06 	3.71882e-07 	0.0597982
0.0145987 	-3.12509e-06 	3.44484e-07 	0.0513259
0.0146488 	-2.77668e-06 	2.61593e-07 	0.0431216
0.014699 	-2.41763e-06 	1.70699e-07 	0.0353342
0.014699 	-2.41763e-06 	1.70699e-07 	0.0353342
0.0147492 	-2.04522e-06 	9.95688e-08 	0.0280599
0.0147993 	-1.65027e-06 	5.70288e-08 	0.0213436
0.0147993 	-1.65027e-06 	5.70288e-08 	0.0213436
0.0148495 	-1.20724e-06 	4.14148e-08 	0.0151954
0.0148495 	-1.20724e-06 	4.14148e-08 	0.0151954
0.0148997 	-7.01898e-07 	3.28273e-08 	0.00960632
0.0148997 	-7.01898e-07 	3.28273e-08 	0.00960632
0.0149498 	-2.34627e-07 	2.13016e-08 	0.00455589
0.0149498 	-2.34627e-07 	2.13016e-08 	0.00455589
0.015 	0 	0 	0
0.015 	0 	0 	0
