0 	0 	0 	0
0 	0 	0 	0
0.00752508 	0.00135578 	-0.000901398 	-0.279793
0.00752508 	0.00135578 	-0.000901398 	-0.279793
0.00757525 	0.00139134 	-0.00081685 	-0.279623
0.00762542 	0.00142691 	-0.000732302 	-0.279453
0.00762542 	0.00142691 	-0.000732302 	-0.279453
0.00767559 	0.0014625 	-0.000648215 	-0.279284
0.00772575 	0.00150031 	-0.000614578 	-0.279288
0.00777592 	0.00153812 	-0.000580942 	-0.279291
0.00782609 	0.00157594 	-0.000547306 	-0.279295
0.00782609 	0.00157594 	-0.000547306 	-0.279295
0.00787625 	0.00161422 	-0.000552469 	-0.279232
0.00792642 	0.00165284 	-0.000585777 	-0.279121
0.00797659 	0.00169146 	-0.000619085 	-0.27901
0.00802676 	0.00172962 	-0.000650988 	-0.278875
0.00802676 	0.00172962 	-0.000650988 	-0.278875
0.00807692 	0.00176605 	-0.000677628 	-0.278648
0.00812709 	0.00180249 	-0.000704267 	-0.278422
0.00812709 	0.00180249 	-0.000704267 	-0.278422
0.00817726 	0.00183892 	-0.000730906 	-0.278195
0.00822742 	0.00187652 	-0.000743567 	-0.277946
0.00822742 	0.00187652 	-0.000743567 	-0.277946
0.00827759 	0.00191424 	-0.00075469 	-0.277694
0.00832776 	0.00195196 	-0.000765813 	-0.277442
0.00832776 	0.00195196 	-0.000765813 	-0.277442
0.00837793 	0.00199228 	-0.000775934 	-0.277197
0.00842809 	0.00203399 	-0.000785513 	-0.276957
0.00842809 	0.00203399 	-0.000785513 	-0.276957
0.00847826 	0.00207569 	-0.000795093 	-0.276717
0.00847826 	0.00207569 	-0.000795093 	-0.276717
0.00852843 	0.00211808 	-0.000790508 	-0.27647
0.00852843 	0.00211808 	-0.000790508 	-0.27647
0.0085786 	0.00216128 	-0.000768979 	-0.276217
0.0085786 	0.00216128 	-0.000768979 	-0.276217
0.00862876 	0.00220449 	-0.00074745 	-0.275964
0.00867893 	0.00224588 	-0.000717358 	-0.275661
0.00867893 	0.00224588 	-0.000717358 	-0.275661
0.0087291 	0.0022834 	-0.000668858 	-0.275248
0.00877926 	0.00232092 	-0.000620358 	-0.274836
0.00877926 	0.00232092 	-0.000620358 	-0.274836
0.00882943 	0.0023576 	-0.000592563 	-0.274342
0.0088796 	0.00239154 	-0.000632203 	-0.273579
0.0088796 	0.00239154 	-0.000632203 	-0.273579
0.00897993 	0.00246032 	-0.000737135 	-0.271988
0.00897993 	0.00246032 	-0.000737135 	-0.271988
0.0090301 	0.00249865 	-0.000900911 	-0.270907
0.00908027 	0.00253699 	-0.00106469 	-0.269826
0.00908027 	0.00253699 	-0.00106469 	-0.269826
0.00913043 	0.00257514 	-0.00119465 	-0.268822
0.0091806 	0.00261269 	-0.00121249 	-0.268074
0.0091806 	0.00261269 	-0.00121249 	-0.268074
0.00923077 	0.00265024 	-0.00123033 	-0.267326
0.00928094 	0.00268631 	-0.00119511 	-0.266771
0.00928094 	0.00268631 	-0.00119511 	-0.266771
0.0093311 	0.00271907 	-0.00104131 	-0.266646
0.00938127 	0.00275182 	-0.000887517 	-0.266522
0.00938127 	0.00275182 	-0.000887517 	-0.266522
0.00943144 	0.0027841 	-0.000770432 	-0.266449
0.00943144 	0.0027841 	-0.000770432 	-0.266449
0.00948161 	0.00281575 	-0.00070042 	-0.266444
0.00948161 	0.00281575 	-0.00070042 	-0.266444
0.00953177 	0.0028474 	-0.000630407 	-0.266438
0.00953177 	0.0028474 	-0.000630407 	-0.266438
0.00958194 	0.00287674 	-0.000621226 	-0.266329
0.00958194 	0.00287674 	-0.000621226 	-0.266329
0.00963211 	0.00290465 	-0.000649694 	-0.266155
0.00963211 	0.00290465 	-0.000649694 	-0.266155
0.00968227 	0.00293255 	-0.000678161 	-0.265982
0.00968227 	0.00293255 	-0.000678161 	-0.265982
0.00973244 	0.00295748 	-0.000719726 	-0.265676
0.00978261 	0.00298188 	-0.000763659 	-0.265346
0.00983278 	0.00300664 	-0.000802779 	-0.265007
0.00988294 	0.00303386 	-0.0008082 	-0.264605
0.00988294 	0.00303386 	-0.0008082 	-0.264605
0.00993311 	0.00306109 	-0.000813621 	-0.264203
0.00998328 	0.00309036 	-0.000810098 	-0.263784
0.00998328 	0.00309036 	-0.000810098 	-0.263784
0.0100334 	0.0031221 	-0.000795687 	-0.263345
0.0100334 	0.0031221 	-0.000795687 	-0.263345
0.0100836 	0.00315384 	-0.000781276 	-0.262906
0.0101338 	0.00318777 	-0.000769615 	-0.262438
0.0101338 	0.00318777 	-0.000769615 	-0.262438
0.0102341 	0.00325696 	-0.000747673 	-0.261482
0.0102341 	0.00325696 	-0.000747673 	-0.261482
0.0102843 	0.00329295 	-0.000737436 	-0.260973
0.0103344 	0.00332895 	-0.0007272 	-0.260464
0.0103344 	0.00332895 	-0.0007272 	-0.260464
0.0103846 	0.00336609 	-0.000716213 	-0.259931
0.0103846 	0.00336609 	-0.000716213 	-0.259931
0.0104348 	0.0034037 	-0.000704918 	-0.259387
0.0104849 	0.00344158 	-0.00069335 	-0.258835
0.0104849 	0.00344158 	-0.00069335 	-0.258835
0.0105351 	0.00348039 	-0.000680806 	-0.258255
0.0105853 	0.00351921 	-0.000668261 	-0.257676
0.0105853 	0.00351921 	-0.000668261 	-0.257676
0.0106355 	0.00355672 	-0.000655385 	-0.257069
0.0106856 	0.00359384 	-0.000642409 	-0.256453
0.0106856 	0.00359384 	-0.000642409 	-0.256453
0.0107358 	0.00362912 	-0.000629865 	-0.255825
0.0107358 	0.00362912 	-0.000629865 	-0.255825
0.010786 	0.00366121 	-0.000618066 	-0.255175
0.010786 	0.00366121 	-0.000618066 	-0.255175
0.0108361 	0.00369325 	-0.000606275 	-0.254524
0.0108361 	0.00369325 	-0.000606275 	-0.254524
0.0108863 	0.00371914 	-0.000595718 	-0.253839
0.0109365 	0.00374502 	-0.000585162 	-0.253154
0.0109365 	0.00374502 	-0.000585162 	-0.253154
0.0109866 	0.00376791 	-0.000565082 	-0.252449
0.0109866 	0.00376791 	-0.000565082 	-0.252449
0.0110368 	0.00378943 	-0.000540658 	-0.251735
0.011087 	0.00381187 	-0.000520242 	-0.251014
0.011087 	0.00381187 	-0.000520242 	-0.251014
0.0111371 	0.00383564 	-0.000505642 	-0.250283
0.0111873 	0.00385942 	-0.000502279 	-0.249545
0.0111873 	0.00385942 	-0.000502279 	-0.249545
0.0112375 	0.00388326 	-0.000554016 	-0.248773
0.0112876 	0.0039071 	-0.000605753 	-0.248001
0.0112876 	0.0039071 	-0.000605753 	-0.248001
0.0113378 	0.00390901 	-0.000646671 	-0.247062
0.011388 	0.00391025 	-0.000687257 	-0.246118
0.011388 	0.00391025 	-0.000687257 	-0.246118
0.0114883 	0.00384816 	-0.000525426 	-0.243594
0.0114883 	0.00384816 	-0.000525426 	-0.243594
0.0115385 	0.00379955 	-0.000349771 	-0.242053
0.0115886 	0.00374449 	-0.000136847 	-0.240401
0.0115886 	0.00374449 	-0.000136847 	-0.240401
0.0116388 	0.0037267 	-1.86361e-05 	-0.238882
0.011689 	0.0037335 	3.70769e-05 	-0.23745
0.011689 	0.0037335 	3.70769e-05 	-0.23745
0.0117391 	0.00379999 	-3.69137e-05 	-0.23635
0.0117893 	0.00391447 	-0.000215233 	-0.235518
0.0117893 	0.00391447 	-0.000215233 	-0.235518
0.0118395 	0.0040412 	-0.000363302 	-0.23478
0.0118896 	0.00417826 	-0.000485814 	-0.234122
0.0118896 	0.00417826 	-0.000485814 	-0.234122
0.0119398 	0.00428751 	-0.000519929 	-0.233368
0.0119398 	0.00428751 	-0.000519929 	-0.233368
0.01199 	0.00437537 	-0.000486075 	-0.232541
0.01199 	0.00437537 	-0.000486075 	-0.232541
0.0120401 	0.00443489 	-0.000419242 	-0.231609
0.0120401 	0.00443489 	-0.000419242 	-0.231609
0.0120903 	0.00447728 	-0.000332489 	-0.230616
0.0120903 	0.00447728 	-0.000332489 	-0.230616
0.0121405 	0.00450891 	-0.000280959 	-0.22957
0.0121405 	0.00450891 	-0.000280959 	-0.22957
0.0121906 	0.00453626 	-0.000243418 	-0.228504
0.0121906 	0.00453626 	-0.000243418 	-0.228504
0.0122408 	0.00456766 	-0.000237373 	-0.227409
0.0122408 	0.00456766 	-0.000237373 	-0.227409
0.012291 	0.00459982 	-0.000237251 	-0.226308
0.012291 	0.00459982 	-0.000237251 	-0.226308
0.0123411 	0.00464165 	-0.000233331 	-0.225169
0.0123411 	0.00464165 	-0.000233331 	-0.225169
0.0123913 	0.00468497 	-0.000228465 	-0.22402
0.0123913 	0.00468497 	-0.000228465 	-0.22402
0.0124415 	0.00473452 	-0.000219621 	-0.222835
0.0124916 	0.00478526 	-0.000209898 	-0.221627
0.0124916 	0.00478526 	-0.000209898 	-0.221627
0.012592 	0.00488869 	-0.000187556 	-0.219111
0.012592 	0.00488869 	-0.000187556 	-0.219111
0.0126421 	0.00493902 	-0.000175962 	-0.217815
0.0126923 	0.00498544 	-0.000164855 	-0.216462
0.0126923 	0.00498544 	-0.000164855 	-0.216462
0.0127425 	0.0050305 	-0.000153987 	-0.215088
0.0127425 	0.0050305 	-0.000153987 	-0.215088
0.0127926 	0.00507243 	-0.000143702 	-0.213667
0.0128428 	0.00511166 	-0.000134053 	-0.212204
0.0128428 	0.00511166 	-0.000134053 	-0.212204
0.012893 	0.00514921 	-0.0001248 	-0.210713
0.0129431 	0.00518227 	-0.000116372 	-0.209149
0.0129431 	0.00518227 	-0.000116372 	-0.209149
0.0129933 	0.00521341 	-0.000108113 	-0.207551
0.0130435 	0.00524168 	-0.000100099 	-0.205903
0.0130435 	0.00524168 	-0.000100099 	-0.205903
0.0130936 	0.00526586 	-9.22758e-05 	-0.204179
0.0131438 	0.00528772 	-8.46278e-05 	-0.20241
0.0131438 	0.00528772 	-8.46278e-05 	-0.20241
0.013194 	0.00530591 	-7.73213e-05 	-0.200569
0.0132441 	0.00531997 	-7.04533e-05 	-0.198643
0.0132441 	0.00531997 	-7.04533e-05 	-0.198643
0.0132943 	0.00533115 	-6.37987e-05 	-0.196658
0.0133445 	0.00533813 	-5.73525e-05 	-0.194585
0.0133445 	0.00533813 	-5.73525e-05 	-0.194585
0.0133946 	0.00533972 	-5.10695e-05 	-0.192401
0.0134448 	0.00533748 	-4.50048e-05 	-0.190132
0.0134448 	0.00533748 	-4.50048e-05 	-0.190132
0.013495 	0.00533099 	-3.92323e-05 	-0.187766
0.0135452 	0.00531815 	-3.42862e-05 	-0.185224
0.0135452 	0.00531815 	-3.42862e-05 	-0.185224
0.0136455 	0.00528212 	-2.59989e-05 	-0.179749
0.0136455 	0.00528212 	-2.59989e-05 	-0.179749
0.0136957 	0.00525861 	-2.26006e-05 	-0.17676
0.0137458 	0.00523097 	-1.96393e-05 	-0.173533
0.0137458 	0.00523097 	-1.96393e-05 	-0.173533
0.013796 	0.00520013 	-1.70351e-05 	-0.170099
0.0138462 	0.00516588 	-1.485e-05 	-0.166435
0.0138462 	0.00516588 	-1.485e-05 	-0.166435
0.0138963 	0.00512796 	-1.31691e-05 	-0.162517
0.0138963 	0.00512796 	-1.31691e-05 	-0.162517
0.0139465 	0.00508436 	-1.22459e-05 	-0.158219
0.0139967 	0.00503517 	-1.16447e-05 	-0.153594
0.0139967 	0.00503517 	-1.16447e-05 	-0.153594
0.0140468 	0.00497907 	-1.12545e-05 	-0.148626
0.0140468 	0.00497907 	-1.12545e-05 	-0.148626
0.014097 	0.00491409 	-1.11683e-05 	-0.143291
0.0141472 	0.0048376 	-1.16121e-05 	-0.137565
0.0141973 	0.00474609 	-1.27581e-05 	-0.13143
0.0141973 	0.00474609 	-1.27581e-05 	-0.13143
0.0142475 	0.00463163 	-1.46139e-05 	-0.1248
0.0142977 	0.00449305 	-1.65269e-05 	-0.117727
0.0143478 	0.0043279 	-1.81863e-05 	-0.110216
0.0143478 	0.0043279 	-1.81863e-05 	-0.110216
0.014398 	0.00413459 	-1.96475e-05 	-0.10229
0.014398 	0.00413459 	-1.96475e-05 	-0.10229
0.0144482 	0.0039127 	-2.0761e-05 	-0.0940017
0.0144983 	0.0036634 	-2.12155e-05 	-0.0854378
0.0144983 	0.0036634 	-2.12155e-05 	-0.0854378
0.0145485 	0.00338978 	-2.08435e-05 	-0.0767127
0.0145987 	0.00309677 	-1.95912e-05 	-0.0679518
0.0145987 	0.00309677 	-1.95912e-05 	-0.0679518
0.0146488 	0.00279045 	-1.72851e-05 	-0.0592634
0.014699 	0.00247705 	-1.36858e-05 	-0.0507108
0.014699 	0.00247705 	-1.36858e-05 	-0.0507108
0.0147492 	0.00216193 	-8.73328e-06 	-0.0422926
0.0147993 	0.00184891 	-2.96261e-06 	-0.033931
0.0147993 	0.00184891 	-2.96261e-06 	-0.033931
0.0148495 	0.00153953 	2.89916e-06 	-0.0254465
0.0148495 	0.00153953 	2.89916e-06 	-0.0254465
0.0148997 	0.00119007 	5.45173e-06 	-0.0166853
0.0148997 	0.00119007 	5.45173e-06 	-0.0166853
0.0149498 	0.000684064 	4.05082e-06 	-0.00796501
0.0149498 	0.000684064 	4.05082e-06 	-0.00796501
0.015 	0 	0 	0
