-0.0075 	0 	0 	0
-0.0075 	1.19915e-33 	-3.24745e-36 	-7.86911e-33
-0.00745622 	0.00157604 	-4.26812e-06 	-0.0103424
-0.00745622 	0.00157604 	-4.26812e-06 	-0.0103424
-0.00741165 	0.00215034 	-7.70238e-06 	-0.0201253
-0.00741165 	0.00215034 	-7.70238e-06 	-0.0201253
-0.00736628 	0.0022146 	-1.38998e-05 	-0.0297898
-0.00736628 	0.0022146 	-1.38998e-05 	-0.0297898
-0.0073201 	0.00227279 	-2.02293e-05 	-0.0395807
-0.0073201 	0.00227279 	-2.02293e-05 	-0.0395807
-0.00727309 	0.00240111 	-2.5964e-05 	-0.0494665
-0.00727309 	0.00240111 	-2.5964e-05 	-0.0494665
-0.00722524 	0.00253225 	-3.16641e-05 	-0.0593134
-0.00722524 	0.00253225 	-3.16641e-05 	-0.0593134
-0.00717653 	0.00264189 	-3.70106e-05 	-0.0690078
-0.00717653 	0.00264189 	-3.70106e-05 	-0.0690078
-0.00712695 	0.0027214 	-4.16855e-05 	-0.0784546
-0.00712695 	0.0027214 	-4.16855e-05 	-0.0784546
-0.00707647 	0.00276899 	-4.50252e-05 	-0.0875731
-0.00707647 	0.00276899 	-4.50252e-05 	-0.0875731
-0.0070251 	0.00278749 	-4.7822e-05 	-0.0963024
-0.0070251 	0.00278749 	-4.7822e-05 	-0.0963024
-0.0069728 	0.00278313 	-5.14455e-05 	-0.104614
-0.0069728 	0.00278313 	-5.14455e-05 	-0.104614
-0.00691956 	0.00276273 	-5.45208e-05 	-0.112511
-0.00691956 	0.00276273 	-5.45208e-05 	-0.112511
-0.00686537 	0.00273107 	-5.51333e-05 	-0.120016
-0.00686537 	0.00273107 	-5.51333e-05 	-0.120016
-0.00681021 	0.0026895 	-5.37474e-05 	-0.127148
-0.00681021 	0.0026895 	-5.37474e-05 	-0.127148
-0.00675406 	0.00263706 	-5.15372e-05 	-0.133922
-0.00675406 	0.00263706 	-5.15372e-05 	-0.133922
-0.0066969 	0.00257324 	-4.85394e-05 	-0.140354
-0.0066969 	0.00257324 	-4.85394e-05 	-0.140354
-0.00663871 	0.00249849 	-4.43261e-05 	-0.146464
-0.00663871 	0.00249849 	-4.43261e-05 	-0.146464
-0.00657949 	0.00241339 	-3.88192e-05 	-0.152274
-0.00657949 	0.00241339 	-3.88192e-05 	-0.152274
-0.0065192 	0.00231839 	-3.20606e-05 	-0.157803
-0.0065192 	0.00231839 	-3.20606e-05 	-0.157803
-0.00645783 	0.00221387 	-2.4068e-05 	-0.163068
-0.00645783 	0.00221387 	-2.4068e-05 	-0.163068
-0.00639535 	0.00210014 	-1.48932e-05 	-0.168084
-0.00639535 	0.00210014 	-1.48932e-05 	-0.168084
-0.00633176 	0.00197752 	-4.6944e-06 	-0.172863
-0.00633176 	0.00197752 	-4.6944e-06 	-0.172863
-0.00626703 	0.00184644 	6.43746e-06 	-0.177417
-0.00626703 	0.00184644 	6.43746e-06 	-0.177417
-0.00620114 	0.00170732 	1.85257e-05 	-0.181756
-0.00620114 	0.00170732 	1.85257e-05 	-0.181756
-0.00613406 	0.00156054 	3.10019e-05 	-0.18589
-0.00613406 	0.00156054 	3.10019e-05 	-0.18589
-0.00606579 	0.00140645 	4.3068e-05 	-0.189825
-0.00606579 	0.00140645 	4.3068e-05 	-0.189825
-0.00599629 	0.00124563 	5.64877e-05 	-0.193567
-0.00599629 	0.00124563 	5.64877e-05 	-0.193567
-0.00592554 	0.00107922 	7.52946e-05 	-0.197118
-0.00592554 	0.00107922 	7.52946e-05 	-0.197118
-0.00585352 	0.000908821 	9.99575e-05 	-0.200481
-0.00585352 	0.000908821 	9.99575e-05 	-0.200481
-0.00578022 	0.000735894 	0.000125266 	-0.203674
-0.00578022 	0.000735894 	0.000125266 	-0.203674
-0.00570559 	0.000561113 	0.000146098 	-0.206729
-0.00570559 	0.000561113 	0.000146098 	-0.206729
-0.00562963 	0.000384161 	0.000163324 	-0.209683
-0.00562963 	0.000384161 	0.000163324 	-0.209683
-0.00555231 	0.000204886 	0.000180374 	-0.212554
-0.00555231 	0.000204886 	0.000180374 	-0.212554
-0.0054736 	2.52357e-05 	0.000197612 	-0.215313
-0.0054736 	2.52357e-05 	0.000197612 	-0.215313
-0.00539348 	-0.00015125 	0.000215745 	-0.217901
-0.00539348 	-0.00015125 	0.000215745 	-0.217901
-0.00531193 	-0.000322538 	0.000237329 	-0.220293
-0.00531193 	-0.000322538 	0.000237329 	-0.220293
-0.00522891 	-0.000489534 	0.000262851 	-0.222534
-0.00522891 	-0.000489534 	0.000262851 	-0.222534
-0.0051444 	-0.000654487 	0.000289227 	-0.224667
-0.0051444 	-0.000654487 	0.000289227 	-0.224667
-0.00505838 	-0.000818652 	0.000314011 	-0.226727
-0.00505838 	-0.000818652 	0.000314011 	-0.226727
-0.00497081 	-0.00098295 	0.000337812 	-0.228807
-0.00497081 	-0.00098295 	0.000337812 	-0.228807
-0.00488168 	-0.00115117 	0.000362981 	-0.231063
-0.00488168 	-0.00115117 	0.000362981 	-0.231063
-0.00479094 	-0.0013274 	0.000391181 	-0.233573
-0.00479094 	-0.0013274 	0.000391181 	-0.233573
-0.00469858 	-0.00150799 	0.000419633 	-0.236143
-0.00469858 	-0.00150799 	0.000419633 	-0.236143
-0.00460456 	-0.00168501 	0.000446714 	-0.238488
-0.00460456 	-0.00168501 	0.000446714 	-0.238488
-0.00450886 	-0.00185568 	0.000473452 	-0.240541
-0.00450886 	-0.00185568 	0.000473452 	-0.240541
-0.00441144 	-0.00202111 	0.000499891 	-0.242381
-0.00441144 	-0.00202111 	0.000499891 	-0.242381
-0.00431227 	-0.00218165 	0.000526723 	-0.244067
-0.00431227 	-0.00218165 	0.000526723 	-0.244067
-0.00421133 	-0.00233728 	0.000554086 	-0.24564
-0.00421133 	-0.00233728 	0.000554086 	-0.24564
-0.00410857 	-0.00249172 	0.000579173 	-0.247238
-0.00410857 	-0.00249172 	0.000579173 	-0.247238
-0.00400397 	-0.00265302 	0.000606117 	-0.249114
-0.00400397 	-0.00265302 	0.000606117 	-0.249114
-0.0038975 	-0.00282146 	0.000638741 	-0.251325
-0.0038975 	-0.00282146 	0.000638741 	-0.251325
-0.00378912 	-0.00298034 	0.000669413 	-0.25349
-0.00378912 	-0.00298034 	0.000669413 	-0.25349
-0.00367879 	-0.00311663 	0.000697372 	-0.255305
-0.00367879 	-0.00311663 	0.000697372 	-0.255305
-0.00356649 	-0.00323252 	0.000723875 	-0.256843
-0.00356649 	-0.00323252 	0.000723875 	-0.256843
-0.00345217 	-0.00333212 	0.000749804 	-0.258239
-0.00345217 	-0.00333212 	0.000749804 	-0.258239
-0.0033358 	-0.00341588 	0.000778572 	-0.259534
-0.0033358 	-0.00341588 	0.000778572 	-0.259534
-0.00321735 	-0.00348334 	0.000807235 	-0.26073
-0.00321735 	-0.00348334 	0.000807235 	-0.26073
-0.00309677 	-0.00353936 	0.000832789 	-0.261941
-0.00309677 	-0.00353936 	0.000832789 	-0.261941
-0.00297403 	-0.0035946 	0.000859861 	-0.263427
-0.00297403 	-0.0035946 	0.000859861 	-0.263427
-0.00284909 	-0.00364981 	0.000891286 	-0.265264
-0.00284909 	-0.00364981 	0.000891286 	-0.265264
-0.0027219 	-0.00368457 	0.000920161 	-0.267068
-0.0027219 	-0.00368457 	0.000920161 	-0.267068
-0.00259244 	-0.00368393 	0.000946663 	-0.26853
-0.00259244 	-0.00368393 	0.000946663 	-0.26853
-0.00246065 	-0.00365182 	0.000971171 	-0.269715
-0.00246065 	-0.00365182 	0.000971171 	-0.269715
-0.00232651 	-0.00359544 	0.000992235 	-0.270741
-0.00232651 	-0.00359544 	0.000992235 	-0.270741
-0.00218995 	-0.00352283 	0.00101438 	-0.271695
-0.00218995 	-0.00352283 	0.00101438 	-0.271695
-0.00205095 	-0.00344585 	0.00103718 	-0.272722
-0.00205095 	-0.00344585 	0.00103718 	-0.272722
-0.00190946 	-0.0033744 	0.0010602 	-0.27398
-0.00190946 	-0.0033744 	0.0010602 	-0.27398
-0.00176543 	-0.00330092 	0.00108226 	-0.275336
-0.00176543 	-0.00330092 	0.00108226 	-0.275336
-0.00161881 	-0.00321151 	0.00110083 	-0.276522
-0.00161881 	-0.00321151 	0.00110083 	-0.276522
-0.00146957 	-0.00310661 	0.00111614 	-0.277487
-0.00146957 	-0.00310661 	0.00111614 	-0.277487
-0.00131765 	-0.00299488 	0.00113077 	-0.278309
-0.00131765 	-0.00299488 	0.00113077 	-0.278309
-0.001163 	-0.00288287 	0.00114826 	-0.279044
-0.001163 	-0.00288287 	0.00114826 	-0.279044
-0.00100559 	-0.0027702 	0.00116835 	-0.279695
-0.00100559 	-0.0027702 	0.00116835 	-0.279695
-0.000845345 	-0.00265137 	0.00118367 	-0.280247
-0.000845345 	-0.00265137 	0.00118367 	-0.280247
-0.000682232 	-0.00252167 	0.00119839 	-0.280685
-0.000682232 	-0.00252167 	0.00119839 	-0.280685
-0.000516194 	-0.00237936 	0.00121936 	-0.280995
-0.000516194 	-0.00237936 	0.00121936 	-0.280995
-0.000347178 	-0.00222412 	0.00123698 	-0.281164
-0.000347178 	-0.00222412 	0.00123698 	-0.281164
-0.000175132 	-0.00205535 	0.0012699 	-0.281173
-0.000175132 	-0.00205535 	0.0012699 	-0.281173
0 	-0.00187822 	0.00131043 	-0.281005
0 	-0.00187822 	0.00131043 	-0.281005
0 	-0.00187822 	0.00131043 	-0.281005
0 	-0.00187822 	0.00131043 	-0.281005
0.000175132 	-0.00169983 	0.00133577 	-0.280653
0.000175132 	-0.00400307 	0.0409854 	-0.280664
0.000347178 	-0.00151808 	0.00136145 	-0.280132
0.000347178 	-0.00370559 	0.0411458 	-0.279899
0.000516194 	-0.00133137 	0.00137281 	-0.279467
0.000516194 	-0.00343519 	0.0411075 	-0.279053
0.000682232 	-0.0011427 	0.00137307 	-0.278676
0.000682232 	-0.00319031 	0.0409823 	-0.278108
0.000845345 	-0.000953897 	0.00137805 	-0.277773
0.000845345 	-0.00296862 	0.0408226 	-0.27706
0.00100559 	-0.000766624 	0.00137965 	-0.276772
0.00100559 	-0.00276787 	0.0406221 	-0.275923
0.001163 	-0.00058274 	0.00137788 	-0.275684
0.001163 	-0.00258612 	0.0403824 	-0.274706
0.00131765 	-0.000404291 	0.00137288 	-0.274521
0.00131765 	-0.00242207 	0.0401062 	-0.273416
0.00146957 	-0.000233397 	0.00136469 	-0.273294
0.00146957 	-0.00227503 	0.0397959 	-0.272059
0.00161881 	-7.16176e-05 	0.00135373 	-0.27201
0.00161881 	-0.00214415 	0.0394535 	-0.270645
0.00176543 	7.98017e-05 	0.00134066 	-0.270677
0.00176543 	-0.00202866 	0.0390811 	-0.269181
0.00190946 	0.000217571 	0.00132555 	-0.269298
0.00190946 	-0.00193025 	0.038679 	-0.267675
0.00205095 	0.000335819 	0.00130819 	-0.267877
0.00205095 	-0.00185377 	0.0382515 	-0.266132
0.00218995 	0.000430415 	0.00129094 	-0.266414
0.00218995 	-0.00180276 	0.0378127 	-0.264553
0.00232651 	0.000502751 	0.00125888 	-0.264913
0.00232651 	-0.00177548 	0.0372747 	-0.262937
0.00246065 	0.000559676 	0.00123975 	-0.263361
0.00246065 	-0.0017668 	0.0368448 	-0.261282
0.00259244 	0.000609551 	0.00128965 	-0.261673
0.00259244 	-0.00176377 	0.0368568 	-0.259596
0.0027219 	0.000656394 	0.00132573 	-0.259698
0.0027219 	-0.00174137 	0.0367358 	-0.257926
0.00284909 	0.000699454 	0.00124699 	-0.257374
0.00284909 	-0.00168905 	0.0358101 	-0.256248
0.00297403 	0.000732211 	0.00108616 	-0.255015
0.00297403 	-0.00163829 	0.0343156 	-0.254432
0.00309677 	0.000748299 	0.000961653 	-0.252938
0.00309677 	-0.00164282 	0.0331009 	-0.252483
0.00321735 	0.000755133 	0.000973455 	-0.251024
0.00321735 	-0.00171716 	0.0328204 	-0.250275
0.0033358 	0.000769967 	0.00106867 	-0.24909
0.0033358 	-0.00181416 	0.0330997 	-0.247647
0.00345217 	0.000805469 	0.00112716 	-0.24713
0.00345217 	-0.00187088 	0.0331313 	-0.244926
0.00356649 	0.000862155 	0.00111067 	-0.245197
0.00356649 	-0.00185684 	0.0326468 	-0.242466
0.00367879 	0.000930689 	0.00104015 	-0.24329
0.00367879 	-0.00178378 	0.0317949 	-0.240256
0.00378912 	-0.00168504 	0.0309529 	-0.238158
0.00378912 	0.00100024 	0.000963541 	-0.24138
0.0038975 	0.00106613 	0.000927383 	-0.239452
0.0038975 	-0.00158864 	0.0304335 	-0.236082
0.00400397 	0.00112944 	0.000924707 	-0.237499
0.00400397 	-0.00150416 	0.0300394 	-0.233997
0.00410857 	0.00118807 	0.00093069 	-0.235497
0.00410857 	-0.0014278 	0.0295295 	-0.231881
0.00421133 	0.00123318 	0.000920769 	-0.233408
0.00421133 	-0.00135004 	0.0288938 	-0.229661
0.00431227 	0.00125743 	0.000869056 	-0.231207
0.00431227 	-0.00126452 	0.0281716 	-0.22728
0.00441144 	0.00126488 	0.000795605 	-0.228917
0.00441144 	-0.00117427 	0.0274698 	-0.224874
0.00450886 	0.00126865 	0.000745507 	-0.226594
0.00450886 	-0.00108908 	0.0268581 	-0.222674
0.00460456 	0.00127867 	0.000726229 	-0.224268
0.00460456 	-0.00101773 	0.0263002 	-0.220581
0.00469858 	0.00129551 	0.000714549 	-0.22194
0.00469858 	-0.000959718 	0.0257626 	-0.218265
0.00479094 	0.00131524 	0.000695533 	-0.219595
0.00479094 	-0.000904182 	0.0252369 	-0.215636
0.00488168 	0.00133561 	0.000670503 	-0.217219
0.00488168 	-0.000839741 	0.024694 	-0.21282
0.00497081 	0.00135636 	0.000641278 	-0.214802
0.00497081 	-0.000763041 	0.0241125 	-0.209936
0.00505838 	0.00137749 	0.000609626 	-0.212336
0.00505838 	-0.00067651 	0.0235058 	-0.20702
0.0051444 	0.00139843 	0.000579425 	-0.209816
0.0051444 	-0.000583187 	0.0228977 	-0.204046
0.00522891 	0.00141798 	0.000550026 	-0.207236
0.00522891 	-0.000484856 	0.0222954 	-0.20102
0.00531193 	-0.000382389 	0.0216966 	-0.198024
0.00531193 	0.00143503 	0.000520118 	-0.20459
0.00539348 	0.00144924 	0.000489982 	-0.201874
0.00539348 	-0.000276995 	0.0210963 	-0.195119
0.0054736 	0.00146097 	0.000460182 	-0.199081
0.0054736 	-0.000170469 	0.0204934 	-0.192233
0.00555231 	0.00147092 	0.000431188 	-0.196205
0.00555231 	-6.3482e-05 	0.019891 	-0.189224
0.00562963 	0.00147961 	0.000403063 	-0.193238
0.00562963 	4.54475e-05 	0.0192898 	-0.18603
0.00570559 	0.00148728 	0.000375598 	-0.190171
0.00570559 	0.000158238 	0.0186866 	-0.182679
0.00578022 	0.00149385 	0.000348735 	-0.186991
0.00578022 	0.000275542 	0.018078 	-0.17921
0.00585352 	0.00149906 	0.000322521 	-0.183687
0.00585352 	0.000397236 	0.0174636 	-0.175641
0.00592554 	0.00150254 	0.000296998 	-0.180243
0.00592554 	0.000523173 	0.0168452 	-0.171983
0.00599629 	0.00150394 	0.000272204 	-0.176636
0.00599629 	0.000652994 	0.0162219 	-0.168245
0.00606579 	0.000785968 	0.0155917 	-0.164429
0.00606579 	0.0015028 	0.00024813 	-0.172833
0.00613406 	0.00149841 	0.00022488 	-0.168802
0.00613406 	0.000921007 	0.0149535 	-0.160521
0.00620114 	0.00148997 	0.000202747 	-0.164522
0.00620114 	0.00105664 	0.0143073 	-0.156492
0.00626703 	0.00147669 	0.000181963 	-0.159987
0.00626703 	0.00119106 	0.0136534 	-0.152312
0.00633176 	0.00145762 	0.00016246 	-0.155194
0.00633176 	0.0013222 	0.0129916 	-0.147955
0.00639535 	0.00143177 	0.000144666 	-0.15013
0.00639535 	0.00144785 	0.0123245 	-0.143402
0.00645783 	0.00139843 	0.000129144 	-0.144776
0.00645783 	0.00156659 	0.0116551 	-0.138634
0.0065192 	0.00135738 	0.000114989 	-0.139113
0.0065192 	0.00167819 	0.0109763 	-0.133632
0.00657949 	0.00130878 	0.000100852 	-0.13312
0.00657949 	0.00178187 	0.0102783 	-0.128359
0.00663871 	0.0012536 	8.61982e-05 	-0.126775
0.00663871 	0.0018755 	0.00956166 	-0.122748
0.0066969 	0.00119481 	7.20867e-05 	-0.120057
0.0066969 	0.00195619 	0.00883636 	-0.116731
0.00675406 	0.00113665 	6.05499e-05 	-0.112954
0.00675406 	0.00201997 	0.00810876 	-0.110269
0.00681021 	0.00108088 	5.23629e-05 	-0.105461
0.00681021 	0.00205996 	0.0073759 	-0.103358
0.00686537 	0.00102415 	4.66397e-05 	-0.097601
0.00686537 	0.00206437 	0.00664033 	-0.0960376
0.00691956 	0.000958166 	4.16532e-05 	-0.0894259
0.00691956 	0.00201777 	0.00591204 	-0.0883798
0.0069728 	0.000873653 	3.67618e-05 	-0.0810277
0.0069728 	0.00190722 	0.00520113 	-0.0804847
0.0070251 	0.000765539 	3.24595e-05 	-0.0725271
0.0070251 	0.00172839 	0.0045175 	-0.072467
0.00707647 	0.000634609 	2.85949e-05 	-0.0640575
0.00707647 	0.00148777 	0.00386994 	-0.0644376
0.00712695 	0.00048769 	2.47066e-05 	-0.0557421
0.00712695 	0.00120283 	0.00326423 	-0.0564836
0.00717653 	0.000337709 	2.07367e-05 	-0.0476755
0.00717653 	0.000900936 	0.00270359 	-0.0486608
0.00722524 	0.000203261 	1.68098e-05 	-0.0399165
0.00722524 	0.000618268 	0.00218536 	-0.0410009
0.00727309 	0.000109945 	1.31141e-05 	-0.0324964
0.00727309 	0.000402734 	0.00171341 	-0.0335335
0.0073201 	9.59358e-05 	9.72301e-06 	-0.0254352
0.0073201 	0.000324692 	0.00131318 	-0.0263154
0.00736628 	0.000223448 	6.05692e-06 	-0.0187466
0.00736628 	0.000498401 	0.000836838 	-0.019453
0.00741165 	0.000433307 	3.00589e-06 	-0.0123846
0.00741165 	0.000827984 	0.000515402 	-0.0130055
0.00745622 	0.000430561 	1.01709e-06 	-0.00620113
0.00745622 	0.000794249 	0.000246405 	-0.00670833
0.0075 	0 	0 	0
0.0075 	0 	0 	0
