/*--------------------------------*- C++ -*----------------------------------*\
| =========                 |                                                 |
| \\      /  F ield         | OpenFOAM: The Open Source CFD Toolbox           |
|  \\    /   O peration     | Version:  v1912                                 |
|   \\  /    A nd           | Website:  www.openfoam.com                      |
|    \\/     M anipulation  |                                                 |
\*---------------------------------------------------------------------------*/
FoamFile
{
    version     2.0;
    format      ascii;
    class       volScalarField;
    location    "199.2";
    object      nut;
}
// * * * * * * * * * * * * * * * * * * * * * * * * * * * * * * * * * * * * * //

dimensions      [0 2 -1 0 0 0 0];


internalField   nonuniform List<scalar> 
10077
(
1.60417e-05
1.45517e-05
1.28504e-05
1.25334e-05
1.25893e-05
1.2593e-05
1.25656e-05
1.2536e-05
1.25311e-05
1.2539e-05
1.25716e-05
1.26018e-05
1.26009e-05
1.25471e-05
1.28619e-05
1.45524e-05
1.56624e-05
1.43083e-05
1.28624e-05
1.2596e-05
1.2642e-05
1.26228e-05
1.25795e-05
1.25374e-05
1.253e-05
1.25405e-05
1.25858e-05
1.26318e-05
1.26539e-05
1.26101e-05
1.28748e-05
1.43101e-05
1.52667e-05
1.40555e-05
1.28502e-05
1.26344e-05
1.26734e-05
1.26347e-05
1.25772e-05
1.25242e-05
1.25146e-05
1.25274e-05
1.25836e-05
1.26438e-05
1.26855e-05
1.26489e-05
1.28633e-05
1.40584e-05
1.48623e-05
1.37978e-05
1.2816e-05
1.26493e-05
1.26837e-05
1.26291e-05
1.25587e-05
1.24968e-05
1.24854e-05
1.25001e-05
1.25653e-05
1.26383e-05
1.26961e-05
1.26641e-05
1.28296e-05
1.38017e-05
1.44562e-05
1.35388e-05
1.27619e-05
1.2642e-05
1.26737e-05
1.26065e-05
1.2525e-05
1.24558e-05
1.24428e-05
1.24591e-05
1.25318e-05
1.26159e-05
1.26861e-05
1.26569e-05
1.27761e-05
1.35437e-05
1.40544e-05
1.32814e-05
1.26902e-05
1.26136e-05
1.26442e-05
1.25677e-05
1.24768e-05
1.24016e-05
1.23874e-05
1.2405e-05
1.24837e-05
1.25771e-05
1.26567e-05
1.26287e-05
1.27049e-05
1.32873e-05
1.36614e-05
1.30278e-05
1.26031e-05
1.25656e-05
1.25963e-05
1.25132e-05
1.24149e-05
1.2335e-05
1.23199e-05
1.23385e-05
1.24218e-05
1.25227e-05
1.26088e-05
1.25808e-05
1.2618e-05
1.30345e-05
1.32807e-05
1.27794e-05
1.25025e-05
1.25003e-05
1.2532e-05
1.24442e-05
1.23402e-05
1.22567e-05
1.2241e-05
1.22602e-05
1.23472e-05
1.24537e-05
1.25445e-05
1.25154e-05
1.25173e-05
1.27869e-05
1.29146e-05
1.2537e-05
1.239e-05
1.24197e-05
1.24533e-05
1.2362e-05
1.22538e-05
1.21673e-05
1.21512e-05
1.21709e-05
1.22609e-05
1.23716e-05
1.24657e-05
1.24347e-05
1.24047e-05
1.25452e-05
1.25645e-05
1.23009e-05
1.22667e-05
1.23252e-05
1.23612e-05
1.22682e-05
1.21568e-05
1.20679e-05
1.20516e-05
1.20715e-05
1.21639e-05
1.22778e-05
1.23736e-05
1.23401e-05
1.22814e-05
1.23097e-05
1.22309e-05
1.2071e-05
1.21341e-05
1.22177e-05
1.22563e-05
1.21633e-05
1.20498e-05
1.19592e-05
1.19429e-05
1.19628e-05
1.20569e-05
1.21728e-05
1.22686e-05
1.22325e-05
1.21487e-05
1.20803e-05
1.19135e-05
1.18469e-05
1.19933e-05
1.20981e-05
1.21393e-05
1.20477e-05
1.1933e-05
1.18414e-05
1.18253e-05
1.1845e-05
1.194e-05
1.20571e-05
1.21514e-05
1.21127e-05
1.20077e-05
1.18567e-05
1.16117e-05
1.16281e-05
1.18449e-05
1.1967e-05
1.20106e-05
1.19218e-05
1.18067e-05
1.17145e-05
1.16987e-05
1.17181e-05
1.18135e-05
1.1931e-05
1.20225e-05
1.19813e-05
1.18589e-05
1.16382e-05
1.13243e-05
1.14136e-05
1.16891e-05
1.18253e-05
1.1871e-05
1.17856e-05
1.16711e-05
1.15788e-05
1.15635e-05
1.15824e-05
1.16778e-05
1.17947e-05
1.18827e-05
1.18393e-05
1.17027e-05
1.1424e-05
1.10501e-05
1.1203e-05
1.15264e-05
1.16738e-05
1.17213e-05
1.16397e-05
1.15268e-05
1.14347e-05
1.142e-05
1.14382e-05
1.15335e-05
1.16486e-05
1.17328e-05
1.16875e-05
1.15396e-05
1.12136e-05
1.07876e-05
1.09955e-05
1.13572e-05
1.15135e-05
1.15624e-05
1.14844e-05
1.13748e-05
1.1283e-05
1.1269e-05
1.12865e-05
1.13813e-05
1.14933e-05
1.15737e-05
1.15269e-05
1.13703e-05
1.10062e-05
1.05354e-05
1.07904e-05
1.11822e-05
1.13455e-05
1.13956e-05
1.13206e-05
1.12156e-05
1.11247e-05
1.11114e-05
1.11281e-05
1.1222e-05
1.13293e-05
1.14066e-05
1.13585e-05
1.11951e-05
1.08013e-05
1.0292e-05
1.05873e-05
1.10014e-05
1.11702e-05
1.12213e-05
1.11486e-05
1.10495e-05
1.09604e-05
1.0948e-05
1.09638e-05
1.10558e-05
1.11572e-05
1.12321e-05
1.1183e-05
1.10143e-05
1.05982e-05
1.00563e-05
1.03856e-05
1.08151e-05
1.09879e-05
1.10401e-05
1.09697e-05
1.08769e-05
1.07903e-05
1.07787e-05
1.07936e-05
1.08831e-05
1.0978e-05
1.10507e-05
1.10005e-05
1.08279e-05
1.03966e-05
9.82702e-06
1.0185e-05
1.06232e-05
1.0799e-05
1.08522e-05
1.07841e-05
1.0698e-05
1.06144e-05
1.06038e-05
1.06177e-05
1.07041e-05
1.07923e-05
1.08625e-05
1.08113e-05
1.06361e-05
1.0196e-05
9.6031e-06
9.98519e-06
1.04266e-05
1.06035e-05
1.06578e-05
1.05924e-05
1.05128e-05
1.04328e-05
1.04232e-05
1.04361e-05
1.05188e-05
1.06004e-05
1.06679e-05
1.06156e-05
1.04392e-05
9.99618e-06
9.38365e-06
9.78599e-06
1.02261e-05
1.04017e-05
1.04568e-05
1.0395e-05
1.03213e-05
1.02458e-05
1.02372e-05
1.0249e-05
1.03271e-05
1.04029e-05
1.04668e-05
1.04135e-05
1.02381e-05
9.79694e-06
9.16792e-06
9.5873e-06
1.00221e-05
1.01948e-05
1.02503e-05
1.01924e-05
1.01236e-05
1.00535e-05
1.00458e-05
1.00566e-05
1.01293e-05
1.02002e-05
1.026e-05
1.02063e-05
1.00337e-05
9.5982e-06
8.95532e-06
9.38916e-06
9.81483e-06
9.98421e-06
1.00391e-05
9.98525e-06
9.92041e-06
9.85599e-06
9.84912e-06
9.85909e-06
9.92604e-06
9.9928e-06
1.00485e-05
9.99517e-06
9.82597e-06
9.4e-06
8.74544e-06
9.19149e-06
9.60458e-06
9.77037e-06
9.82405e-06
9.77396e-06
9.71252e-06
9.65342e-06
9.64716e-06
9.65645e-06
9.71803e-06
9.78134e-06
9.83321e-06
9.78089e-06
9.61538e-06
9.20217e-06
8.538e-06
8.99317e-06
9.39178e-06
9.55363e-06
9.60636e-06
9.55915e-06
9.5006e-06
9.44607e-06
9.44041e-06
9.44902e-06
9.50598e-06
9.56634e-06
9.61518e-06
9.56375e-06
9.40226e-06
9.00362e-06
8.33244e-06
8.79279e-06
9.17591e-06
9.33347e-06
9.38563e-06
9.34046e-06
9.28438e-06
9.23377e-06
9.22873e-06
9.23666e-06
9.28963e-06
9.34747e-06
9.39412e-06
9.34321e-06
9.18609e-06
8.80296e-06
8.12823e-06
8.58925e-06
8.95607e-06
9.10902e-06
9.14279e-06
9.11715e-06
9.06319e-06
9.01596e-06
9.01154e-06
9.01878e-06
9.06831e-06
9.12397e-06
9.15022e-06
9.11842e-06
8.96596e-06
8.5991e-06
7.92498e-06
8.38205e-06
8.71912e-06
8.83218e-06
8.85955e-06
8.84573e-06
8.81328e-06
8.78754e-06
8.7813e-06
8.79006e-06
8.81787e-06
8.85188e-06
8.86655e-06
8.84027e-06
8.72777e-06
8.39157e-06
7.72253e-06
8.17088e-06
8.42408e-06
8.53363e-06
8.56482e-06
8.54629e-06
8.51493e-06
8.49124e-06
8.48498e-06
8.49364e-06
8.5193e-06
8.55211e-06
8.57159e-06
8.54132e-06
8.43241e-06
8.18001e-06
7.51977e-06
7.92567e-06
8.11439e-06
8.22979e-06
8.26668e-06
8.24004e-06
8.20392e-06
8.17646e-06
8.17097e-06
8.1788e-06
8.20816e-06
8.24564e-06
8.27324e-06
8.23734e-06
8.12267e-06
7.93212e-06
7.31641e-06
7.60143e-06
7.8048e-06
7.92467e-06
7.9659e-06
7.93295e-06
7.89233e-06
7.8611e-06
7.85662e-06
7.86337e-06
7.89644e-06
7.93834e-06
7.97221e-06
7.93208e-06
7.81299e-06
7.60733e-06
7.06959e-06
7.27016e-06
7.49898e-06
7.61903e-06
7.66253e-06
7.62621e-06
7.58324e-06
7.55012e-06
7.54662e-06
7.55232e-06
7.5872e-06
7.63137e-06
7.66856e-06
7.6262e-06
7.50696e-06
7.2761e-06
6.75328e-06
6.95469e-06
7.19764e-06
7.31394e-06
7.35791e-06
7.32072e-06
7.27757e-06
7.24454e-06
7.24188e-06
7.24665e-06
7.28137e-06
7.32565e-06
7.36365e-06
7.32081e-06
7.20533e-06
6.96068e-06
6.43905e-06
6.65766e-06
6.90105e-06
7.011e-06
7.05415e-06
7.01774e-06
6.976e-06
6.94444e-06
6.94247e-06
6.94644e-06
6.97962e-06
7.02243e-06
7.05958e-06
7.01753e-06
6.90837e-06
6.66358e-06
6.146e-06
6.37553e-06
6.60942e-06
6.71178e-06
6.75326e-06
6.71857e-06
6.67919e-06
6.64984e-06
6.64845e-06
6.65174e-06
6.68263e-06
6.72302e-06
6.7584e-06
6.71795e-06
6.61633e-06
6.38125e-06
5.87424e-06
6.1043e-06
6.32307e-06
6.41758e-06
6.45686e-06
6.42437e-06
6.38784e-06
6.36097e-06
6.36004e-06
6.36276e-06
6.39108e-06
6.42858e-06
6.46171e-06
6.4234e-06
6.32957e-06
6.10973e-06
5.61924e-06
5.84139e-06
6.04254e-06
6.12956e-06
6.16628e-06
6.13623e-06
6.10274e-06
6.07834e-06
6.07778e-06
6.08002e-06
6.10579e-06
6.14021e-06
6.17086e-06
6.13503e-06
6.04863e-06
5.84649e-06
5.37673e-06
5.58578e-06
5.76877e-06
5.84892e-06
5.88284e-06
5.85537e-06
5.82496e-06
5.80288e-06
5.80261e-06
5.80445e-06
5.82782e-06
5.85911e-06
5.88716e-06
5.85405e-06
5.77446e-06
5.59052e-06
5.14396e-06
5.33737e-06
5.50285e-06
5.57688e-06
5.60788e-06
5.58303e-06
5.55564e-06
5.53566e-06
5.53561e-06
5.53713e-06
5.5583e-06
5.58653e-06
5.61194e-06
5.58169e-06
5.50815e-06
5.34176e-06
4.91955e-06
5.09659e-06
5.24577e-06
5.31444e-06
5.34255e-06
5.32026e-06
5.29572e-06
5.27764e-06
5.27774e-06
5.279e-06
5.29819e-06
5.32353e-06
5.34637e-06
5.31895e-06
5.2507e-06
5.10064e-06
4.70293e-06
4.864e-06
4.99832e-06
5.0623e-06
5.08765e-06
5.06778e-06
5.04586e-06
5.02949e-06
5.02968e-06
5.03074e-06
5.04815e-06
5.07083e-06
5.09123e-06
5.06652e-06
5.00291e-06
4.86773e-06
4.49374e-06
4.63989e-06
4.76082e-06
4.82057e-06
4.84341e-06
4.82575e-06
4.80618e-06
4.79136e-06
4.79162e-06
4.79252e-06
4.80829e-06
4.82858e-06
4.84677e-06
4.82451e-06
4.76509e-06
4.64332e-06
4.2914e-06
4.42397e-06
4.53288e-06
4.58866e-06
4.60931e-06
4.59358e-06
4.57609e-06
4.56274e-06
4.56304e-06
4.56381e-06
4.57805e-06
4.59622e-06
4.61246e-06
4.59236e-06
4.53685e-06
4.42712e-06
4.09498e-06
4.21532e-06
4.31338e-06
4.36535e-06
4.38411e-06
4.37005e-06
4.35439e-06
4.34242e-06
4.34278e-06
4.34341e-06
4.3562e-06
4.37251e-06
4.38706e-06
4.36881e-06
4.31707e-06
4.21822e-06
3.90336e-06
4.01263e-06
4.10081e-06
4.14906e-06
4.16619e-06
4.15357e-06
4.13955e-06
4.1289e-06
4.12932e-06
4.12982e-06
4.14123e-06
4.15588e-06
4.16896e-06
4.15231e-06
4.10424e-06
4.0153e-06
3.71538e-06
3.81451e-06
3.89363e-06
3.93827e-06
3.95396e-06
3.94262e-06
3.93006e-06
3.92068e-06
3.92115e-06
3.92153e-06
3.93163e-06
3.94477e-06
3.95658e-06
3.94132e-06
3.89682e-06
3.81698e-06
3.53002e-06
3.61978e-06
3.69051e-06
3.73167e-06
3.74608e-06
3.73587e-06
3.72467e-06
3.71648e-06
3.717e-06
3.71727e-06
3.72613e-06
3.7379e-06
3.74854e-06
3.73454e-06
3.69349e-06
3.62205e-06
3.34647e-06
3.42747e-06
3.49043e-06
3.52825e-06
3.54147e-06
3.53231e-06
3.52236e-06
3.51529e-06
3.51586e-06
3.51602e-06
3.52372e-06
3.53421e-06
3.54379e-06
3.53095e-06
3.4932e-06
3.42957e-06
3.1641e-06
3.23687e-06
3.29259e-06
3.32722e-06
3.33931e-06
3.33113e-06
3.32237e-06
3.31632e-06
3.31694e-06
3.31701e-06
3.32364e-06
3.33292e-06
3.34151e-06
3.32976e-06
3.29517e-06
3.2388e-06
2.98245e-06
3.04746e-06
3.09644e-06
3.128e-06
3.13903e-06
3.13177e-06
3.12411e-06
3.11902e-06
3.11967e-06
3.11966e-06
3.1253e-06
3.13345e-06
3.1411e-06
3.13039e-06
3.09883e-06
3.04924e-06
2.80122e-06
2.8589e-06
2.90158e-06
2.93021e-06
2.94019e-06
2.93381e-06
2.92719e-06
2.92297e-06
2.92365e-06
2.92356e-06
2.9283e-06
2.93539e-06
2.94215e-06
2.93245e-06
2.90379e-06
2.86052e-06
2.62008e-06
2.67087e-06
2.70768e-06
2.73351e-06
2.74248e-06
2.73692e-06
2.73128e-06
2.72784e-06
2.72854e-06
2.7284e-06
2.73232e-06
2.73841e-06
2.74433e-06
2.73561e-06
2.70972e-06
2.67235e-06
2.43822e-06
2.48264e-06
2.51404e-06
2.53727e-06
2.54525e-06
2.54045e-06
2.53573e-06
2.53299e-06
2.53371e-06
2.53351e-06
2.53671e-06
2.54187e-06
2.547e-06
2.53925e-06
2.51594e-06
2.48399e-06
2.2523e-06
2.29134e-06
2.31796e-06
2.33901e-06
2.34607e-06
2.34192e-06
2.338e-06
2.33587e-06
2.33663e-06
2.33637e-06
2.33895e-06
2.34329e-06
2.34777e-06
2.3409e-06
2.31975e-06
2.29259e-06
2.06351e-06
2.0972e-06
2.11946e-06
2.13835e-06
2.14452e-06
2.14105e-06
2.13788e-06
2.13627e-06
2.13702e-06
2.13673e-06
2.13876e-06
2.14233e-06
2.14611e-06
2.14011e-06
2.1211e-06
2.09833e-06
1.87767e-06
1.9063e-06
1.92454e-06
1.94132e-06
1.94662e-06
1.9438e-06
1.94131e-06
1.94016e-06
1.94089e-06
1.94059e-06
1.94213e-06
1.94499e-06
1.9481e-06
1.94294e-06
1.92603e-06
1.90731e-06
1.69559e-06
1.71949e-06
1.73407e-06
1.74881e-06
1.75328e-06
1.75105e-06
1.74919e-06
1.74844e-06
1.74914e-06
1.74883e-06
1.74995e-06
1.75215e-06
1.75465e-06
1.75029e-06
1.73541e-06
1.72038e-06
1.51747e-06
1.537e-06
1.54829e-06
1.56109e-06
1.56478e-06
1.56308e-06
1.56179e-06
1.56137e-06
1.56204e-06
1.56173e-06
1.56248e-06
1.5641e-06
1.56604e-06
1.56244e-06
1.54948e-06
1.53779e-06
1.34382e-06
1.35936e-06
1.36772e-06
1.37872e-06
1.38168e-06
1.38047e-06
1.37966e-06
1.37952e-06
1.38015e-06
1.37985e-06
1.3803e-06
1.38139e-06
1.38283e-06
1.37994e-06
1.36878e-06
1.36004e-06
1.17547e-06
1.18743e-06
1.19326e-06
1.2026e-06
1.20489e-06
1.2041e-06
1.20372e-06
1.2038e-06
1.20438e-06
1.2041e-06
1.20429e-06
1.20494e-06
1.20593e-06
1.20369e-06
1.19419e-06
1.18801e-06
1.01356e-06
1.02229e-06
1.02594e-06
1.03377e-06
1.03544e-06
1.03503e-06
1.03501e-06
1.03526e-06
1.03579e-06
1.03553e-06
1.03552e-06
1.03578e-06
1.03637e-06
1.03473e-06
1.02675e-06
1.02278e-06
8.59141e-07
8.64639e-07
8.66138e-07
8.72533e-07
8.7356e-07
8.73542e-07
8.73891e-07
8.74308e-07
8.74783e-07
8.74542e-07
8.74346e-07
8.74209e-07
8.74384e-07
8.73371e-07
8.66824e-07
8.6504e-07
7.11675e-07
7.10684e-07
7.07465e-07
7.12134e-07
7.11722e-07
7.12675e-07
7.14022e-07
7.1488e-07
7.15323e-07
7.151e-07
7.14448e-07
7.13302e-07
7.12495e-07
7.12879e-07
7.08025e-07
7.10962e-07
5.54371e-07
5.51841e-07
5.47914e-07
5.51497e-07
5.50799e-07
5.51861e-07
5.53262e-07
5.54101e-07
5.54472e-07
5.54285e-07
5.53617e-07
5.52386e-07
5.51446e-07
5.52112e-07
5.48362e-07
5.52047e-07
4.1227e-07
4.08983e-07
4.04948e-07
4.07604e-07
4.06815e-07
4.07844e-07
4.09161e-07
4.09922e-07
4.10219e-07
4.1007e-07
4.09446e-07
4.08266e-07
4.07336e-07
4.08092e-07
4.05294e-07
4.09129e-07
2.89599e-07
2.8625e-07
2.82607e-07
2.84501e-07
2.83771e-07
2.84668e-07
2.85788e-07
2.86411e-07
2.86636e-07
2.86523e-07
2.86004e-07
2.84988e-07
2.84167e-07
2.84868e-07
2.82859e-07
2.86348e-07
1.89837e-07
1.86957e-07
1.84048e-07
1.85334e-07
1.84745e-07
1.85452e-07
1.86315e-07
1.86777e-07
1.86936e-07
1.86856e-07
1.86467e-07
1.85678e-07
1.85026e-07
1.85592e-07
1.84222e-07
1.87018e-07
1.14671e-07
1.1255e-07
1.10511e-07
1.11323e-07
1.10908e-07
1.11404e-07
1.11999e-07
1.12309e-07
1.12411e-07
1.1236e-07
1.12097e-07
1.1155e-07
1.11089e-07
1.11489e-07
1.10621e-07
1.12585e-07
6.30783e-08
6.17417e-08
6.04993e-08
6.09659e-08
6.07136e-08
6.10192e-08
6.13806e-08
6.15656e-08
6.16245e-08
6.15952e-08
6.14373e-08
6.1104e-08
6.08189e-08
6.10622e-08
6.05623e-08
6.17608e-08
3.12708e-08
3.0554e-08
2.99006e-08
3.01404e-08
3.00092e-08
3.01723e-08
3.03631e-08
3.04601e-08
3.04904e-08
3.04754e-08
3.03924e-08
3.02159e-08
3.00635e-08
3.01899e-08
2.99328e-08
3.05635e-08
1.38222e-08
1.34966e-08
1.32025e-08
1.33113e-08
1.32535e-08
1.33282e-08
1.3415e-08
1.3459e-08
1.34727e-08
1.34659e-08
1.34282e-08
1.33479e-08
1.3278e-08
1.33337e-08
1.3217e-08
1.35009e-08
5.36127e-09
5.2369e-09
5.12462e-09
5.16756e-09
5.14616e-09
5.17528e-09
5.20891e-09
5.22609e-09
5.23148e-09
5.2288e-09
5.2141e-09
5.18301e-09
5.15575e-09
5.17632e-09
5.13033e-09
5.23859e-09
1.77187e-09
1.73268e-09
1.6971e-09
1.71144e-09
1.70493e-09
1.71439e-09
1.72526e-09
1.73088e-09
1.73267e-09
1.73178e-09
1.72699e-09
1.71695e-09
1.7081e-09
1.71434e-09
1.699e-09
1.73326e-09
4.72238e-10
4.62513e-10
4.53589e-10
4.57439e-10
4.55889e-10
4.5833e-10
4.61126e-10
4.62592e-10
4.63073e-10
4.62833e-10
4.61588e-10
4.59013e-10
4.56731e-10
4.58212e-10
4.54101e-10
4.62677e-10
9.15819e-11
8.98563e-11
8.82498e-11
8.89999e-11
8.87389e-11
8.91931e-11
8.9712e-11
8.99888e-11
9.00824e-11
9.00353e-11
8.98017e-11
8.93254e-11
8.89012e-11
8.91492e-11
8.83495e-11
8.98902e-11
1.06417e-11
1.04584e-11
1.02854e-11
1.03724e-11
1.03464e-11
1.03973e-11
1.04551e-11
1.04864e-11
1.04973e-11
1.04918e-11
1.04655e-11
1.04126e-11
1.03651e-11
1.03896e-11
1.0297e-11
1.04625e-11
6.65719e-13
6.51637e-13
6.39264e-13
6.44038e-13
6.42047e-13
6.45827e-13
6.49864e-13
6.51957e-13
6.52558e-13
6.52273e-13
6.50473e-13
6.46729e-13
6.43153e-13
6.45038e-13
6.39908e-13
6.51816e-13
2.61628e-13
2.53013e-13
2.4615e-13
2.4747e-13
2.46157e-13
2.48244e-13
2.50318e-13
2.51296e-13
2.51466e-13
2.51403e-13
2.50524e-13
2.48557e-13
2.46546e-13
2.47805e-13
2.46333e-13
2.53011e-13
1.19918e-05
1.27386e-05
1.34088e-05
1.3191e-05
1.29013e-05
1.27459e-05
1.26995e-05
1.26896e-05
1.26884e-05
1.26933e-05
1.27061e-05
1.27536e-05
1.29078e-05
1.31948e-05
1.34089e-05
1.27386e-05
1.23538e-05
1.29165e-05
1.33687e-05
1.31456e-05
1.28848e-05
1.27718e-05
1.27481e-05
1.2753e-05
1.27545e-05
1.27565e-05
1.27544e-05
1.2779e-05
1.2891e-05
1.31489e-05
1.33678e-05
1.29156e-05
1.26691e-05
1.30605e-05
1.3317e-05
1.30875e-05
1.28529e-05
1.27771e-05
1.27735e-05
1.27913e-05
1.27951e-05
1.27946e-05
1.27794e-05
1.2784e-05
1.28588e-05
1.30905e-05
1.33156e-05
1.30586e-05
1.29342e-05
1.31698e-05
1.32546e-05
1.30186e-05
1.28074e-05
1.27638e-05
1.27775e-05
1.28064e-05
1.28123e-05
1.28096e-05
1.27832e-05
1.27705e-05
1.28132e-05
1.30213e-05
1.32527e-05
1.31671e-05
1.31486e-05
1.32446e-05
1.31817e-05
1.29403e-05
1.27499e-05
1.27337e-05
1.27621e-05
1.28002e-05
1.28078e-05
1.28033e-05
1.27676e-05
1.27403e-05
1.27556e-05
1.29427e-05
1.31793e-05
1.32412e-05
1.33131e-05
1.32861e-05
1.30988e-05
1.28536e-05
1.26818e-05
1.26885e-05
1.27289e-05
1.27744e-05
1.27834e-05
1.27774e-05
1.27342e-05
1.2695e-05
1.26874e-05
1.28559e-05
1.30959e-05
1.32821e-05
1.34296e-05
1.32957e-05
1.30061e-05
1.27594e-05
1.2604e-05
1.26296e-05
1.26793e-05
1.27307e-05
1.27407e-05
1.27336e-05
1.26845e-05
1.2636e-05
1.26096e-05
1.27616e-05
1.3003e-05
1.32912e-05
1.35007e-05
1.32756e-05
1.29038e-05
1.26583e-05
1.25175e-05
1.25589e-05
1.26155e-05
1.26712e-05
1.2682e-05
1.26741e-05
1.26206e-05
1.25651e-05
1.2523e-05
1.26604e-05
1.29007e-05
1.32706e-05
1.35296e-05
1.32282e-05
1.27927e-05
1.2551e-05
1.24237e-05
1.24776e-05
1.25399e-05
1.25988e-05
1.261e-05
1.26015e-05
1.2545e-05
1.24838e-05
1.24293e-05
1.25531e-05
1.27897e-05
1.3223e-05
1.35198e-05
1.31567e-05
1.26739e-05
1.24388e-05
1.23242e-05
1.23873e-05
1.2454e-05
1.25149e-05
1.25263e-05
1.25176e-05
1.2459e-05
1.23936e-05
1.23297e-05
1.24409e-05
1.2671e-05
1.31512e-05
1.34755e-05
1.30636e-05
1.25474e-05
1.23219e-05
1.22189e-05
1.22883e-05
1.23582e-05
1.24204e-05
1.24317e-05
1.24231e-05
1.23632e-05
1.22946e-05
1.22245e-05
1.2324e-05
1.2545e-05
1.30579e-05
1.34002e-05
1.29508e-05
1.24134e-05
1.22002e-05
1.21077e-05
1.21805e-05
1.22527e-05
1.23155e-05
1.23267e-05
1.23182e-05
1.22577e-05
1.21869e-05
1.21132e-05
1.22023e-05
1.24114e-05
1.29451e-05
1.32974e-05
1.28204e-05
1.22719e-05
1.20731e-05
1.19902e-05
1.20637e-05
1.21375e-05
1.22003e-05
1.22112e-05
1.2203e-05
1.21424e-05
1.20701e-05
1.19957e-05
1.20753e-05
1.22706e-05
1.28147e-05
1.31701e-05
1.26741e-05
1.21231e-05
1.19405e-05
1.18661e-05
1.19379e-05
1.20123e-05
1.20749e-05
1.20855e-05
1.20776e-05
1.20172e-05
1.19442e-05
1.18715e-05
1.19426e-05
1.21224e-05
1.26684e-05
1.30213e-05
1.25135e-05
1.19671e-05
1.18012e-05
1.17348e-05
1.18031e-05
1.18774e-05
1.19394e-05
1.19495e-05
1.19421e-05
1.18822e-05
1.18095e-05
1.17403e-05
1.18035e-05
1.19668e-05
1.25079e-05
1.28536e-05
1.23401e-05
1.18037e-05
1.16541e-05
1.1596e-05
1.16598e-05
1.17326e-05
1.17941e-05
1.18037e-05
1.17967e-05
1.17374e-05
1.16662e-05
1.16016e-05
1.16569e-05
1.18038e-05
1.23346e-05
1.26694e-05
1.21553e-05
1.16332e-05
1.14989e-05
1.14493e-05
1.15083e-05
1.15787e-05
1.16392e-05
1.16481e-05
1.16417e-05
1.15835e-05
1.15146e-05
1.1455e-05
1.15021e-05
1.16337e-05
1.215e-05
1.24712e-05
1.19606e-05
1.14559e-05
1.1336e-05
1.12938e-05
1.13488e-05
1.14161e-05
1.14749e-05
1.14832e-05
1.14774e-05
1.14209e-05
1.13551e-05
1.12997e-05
1.13395e-05
1.14567e-05
1.19554e-05
1.2261e-05
1.17571e-05
1.12721e-05
1.11657e-05
1.11302e-05
1.11819e-05
1.12455e-05
1.13022e-05
1.13098e-05
1.13047e-05
1.12502e-05
1.11882e-05
1.11362e-05
1.11696e-05
1.12731e-05
1.1752e-05
1.20406e-05
1.15459e-05
1.10825e-05
1.09887e-05
1.09591e-05
1.10081e-05
1.10676e-05
1.1122e-05
1.11288e-05
1.11244e-05
1.10722e-05
1.10143e-05
1.09652e-05
1.09927e-05
1.10836e-05
1.1541e-05
1.18118e-05
1.1328e-05
1.08875e-05
1.08055e-05
1.07812e-05
1.08283e-05
1.08833e-05
1.0935e-05
1.09411e-05
1.09375e-05
1.08879e-05
1.08344e-05
1.07874e-05
1.08098e-05
1.08888e-05
1.13234e-05
1.15164e-05
1.11042e-05
1.06879e-05
1.06169e-05
1.05972e-05
1.06428e-05
1.06938e-05
1.07422e-05
1.07475e-05
1.07446e-05
1.06983e-05
1.06489e-05
1.06035e-05
1.06212e-05
1.06893e-05
1.10997e-05
1.1108e-05
1.08748e-05
1.04839e-05
1.04232e-05
1.04076e-05
1.04522e-05
1.04997e-05
1.05442e-05
1.05487e-05
1.05466e-05
1.05042e-05
1.04581e-05
1.04139e-05
1.04276e-05
1.04853e-05
1.08704e-05
1.07028e-05
1.0629e-05
1.0276e-05
1.0225e-05
1.0213e-05
1.02567e-05
1.03012e-05
1.03416e-05
1.03455e-05
1.0344e-05
1.03057e-05
1.02626e-05
1.02192e-05
1.02294e-05
1.02774e-05
1.06295e-05
1.0341e-05
1.0289e-05
1.00645e-05
1.00227e-05
1.00139e-05
1.0057e-05
1.00988e-05
1.01354e-05
1.01387e-05
1.01376e-05
1.01031e-05
1.00628e-05
1.002e-05
1.00272e-05
1.0066e-05
1.02908e-05
1.00267e-05
9.94962e-06
9.85005e-06
9.81691e-06
9.81081e-06
9.8534e-06
9.89271e-06
9.90836e-06
9.91454e-06
9.91071e-06
9.89697e-06
9.85904e-06
9.81681e-06
9.8213e-06
9.85156e-06
9.9513e-06
9.74951e-06
9.64074e-06
9.603e-06
9.59934e-06
9.59432e-06
9.61537e-06
9.63621e-06
9.64003e-06
9.64627e-06
9.64232e-06
9.64035e-06
9.62086e-06
9.60052e-06
9.60478e-06
9.60631e-06
9.64185e-06
9.49462e-06
9.36159e-06
9.31937e-06
9.32376e-06
9.32102e-06
9.34299e-06
9.36179e-06
9.36743e-06
9.37263e-06
9.3696e-06
9.36572e-06
9.34819e-06
9.32689e-06
9.32903e-06
9.32276e-06
9.36211e-06
9.24855e-06
9.1002e-06
9.0298e-06
9.0339e-06
9.03375e-06
9.06334e-06
9.08573e-06
9.09766e-06
9.10151e-06
9.09972e-06
9.08945e-06
9.06823e-06
9.03918e-06
9.03862e-06
9.03265e-06
9.10024e-06
9.00052e-06
8.8418e-06
8.74084e-06
8.74376e-06
8.74638e-06
8.78317e-06
8.80936e-06
8.82707e-06
8.82959e-06
8.82903e-06
8.8129e-06
8.78779e-06
8.75141e-06
8.74792e-06
8.74307e-06
8.84141e-06
8.74251e-06
8.57395e-06
8.45115e-06
8.45489e-06
8.46025e-06
8.50158e-06
8.52976e-06
8.55121e-06
8.55256e-06
8.55309e-06
8.53315e-06
8.50597e-06
8.46496e-06
8.45861e-06
8.45286e-06
8.57321e-06
8.46899e-06
8.29105e-06
8.15963e-06
8.16613e-06
8.17381e-06
8.21685e-06
8.24506e-06
8.26813e-06
8.26851e-06
8.26994e-06
8.24832e-06
8.22105e-06
8.17825e-06
8.16954e-06
8.161e-06
8.29009e-06
8.17836e-06
7.99441e-06
7.86592e-06
7.8762e-06
7.88559e-06
7.92833e-06
7.95522e-06
7.97842e-06
7.97802e-06
7.98015e-06
7.95836e-06
7.93235e-06
7.88983e-06
7.8794e-06
7.86709e-06
7.99336e-06
7.87252e-06
7.68864e-06
7.57025e-06
7.58441e-06
7.59489e-06
7.63617e-06
7.66109e-06
7.68357e-06
7.68256e-06
7.68522e-06
7.6641e-06
7.64002e-06
7.59894e-06
7.58747e-06
7.57133e-06
7.68762e-06
7.55633e-06
7.37865e-06
7.27335e-06
7.29086e-06
7.30187e-06
7.34114e-06
7.36397e-06
7.38534e-06
7.38385e-06
7.38692e-06
7.36684e-06
7.34483e-06
7.30577e-06
7.29383e-06
7.2744e-06
7.37774e-06
7.23562e-06
7.06845e-06
6.97636e-06
6.99644e-06
7.00753e-06
7.04461e-06
7.06546e-06
7.08561e-06
7.08376e-06
7.0871e-06
7.0682e-06
7.04814e-06
7.01129e-06
6.99932e-06
6.97741e-06
7.06766e-06
6.91554e-06
6.76103e-06
6.68081e-06
6.70262e-06
6.71346e-06
6.74834e-06
6.76748e-06
6.78637e-06
6.78428e-06
6.78778e-06
6.77008e-06
6.75171e-06
6.71707e-06
6.70542e-06
6.68189e-06
6.76037e-06
6.60005e-06
6.4588e-06
6.38858e-06
6.41135e-06
6.4217e-06
6.45447e-06
6.47216e-06
6.4898e-06
6.48758e-06
6.49113e-06
6.47463e-06
6.45768e-06
6.42518e-06
6.41408e-06
6.38968e-06
6.45826e-06
6.29213e-06
6.16384e-06
6.10177e-06
6.12487e-06
6.13458e-06
6.16536e-06
6.18186e-06
6.19825e-06
6.19599e-06
6.19949e-06
6.18418e-06
6.16841e-06
6.13792e-06
6.12753e-06
6.1029e-06
6.1634e-06
5.99411e-06
5.87806e-06
5.8226e-06
5.84555e-06
5.85455e-06
5.88345e-06
5.89895e-06
5.9141e-06
5.91189e-06
5.91525e-06
5.90112e-06
5.88633e-06
5.85773e-06
5.84813e-06
5.82375e-06
5.87771e-06
5.70761e-06
5.60291e-06
5.55293e-06
5.57542e-06
5.58367e-06
5.61082e-06
5.62546e-06
5.6394e-06
5.63729e-06
5.64047e-06
5.62747e-06
5.61354e-06
5.58671e-06
5.57791e-06
5.55409e-06
5.60264e-06
5.43332e-06
5.33898e-06
5.29377e-06
5.31564e-06
5.32319e-06
5.3487e-06
5.36253e-06
5.37536e-06
5.37336e-06
5.37635e-06
5.36441e-06
5.35125e-06
5.32608e-06
5.31804e-06
5.29495e-06
5.33878e-06
5.17083e-06
5.08583e-06
5.04512e-06
5.0663e-06
5.07326e-06
5.09719e-06
5.11024e-06
5.12206e-06
5.12015e-06
5.12296e-06
5.11199e-06
5.09959e-06
5.076e-06
5.06861e-06
5.0463e-06
5.0857e-06
4.91875e-06
4.84218e-06
4.80592e-06
4.82642e-06
4.83291e-06
4.8553e-06
4.86755e-06
4.87846e-06
4.87662e-06
4.8793e-06
4.86918e-06
4.85756e-06
4.83552e-06
4.82864e-06
4.8071e-06
4.8421e-06
4.6752e-06
4.60622e-06
4.57447e-06
4.59431e-06
4.60047e-06
4.62133e-06
4.63275e-06
4.64284e-06
4.64106e-06
4.64362e-06
4.63427e-06
4.62346e-06
4.60295e-06
4.59645e-06
4.57566e-06
4.60621e-06
4.43828e-06
4.37621e-06
4.34894e-06
4.36811e-06
4.37404e-06
4.39339e-06
4.40397e-06
4.41332e-06
4.41157e-06
4.41405e-06
4.40539e-06
4.39541e-06
4.37642e-06
4.37018e-06
4.35014e-06
4.37626e-06
4.20641e-06
4.15067e-06
4.12775e-06
4.14624e-06
4.15201e-06
4.16987e-06
4.1796e-06
4.18827e-06
4.18655e-06
4.18894e-06
4.18095e-06
4.17179e-06
4.15428e-06
4.14825e-06
4.12896e-06
4.15078e-06
3.97841e-06
3.9285e-06
3.9097e-06
3.92747e-06
3.93312e-06
3.94953e-06
3.95843e-06
3.96645e-06
3.96477e-06
3.96708e-06
3.95971e-06
3.95136e-06
3.9353e-06
3.92942e-06
3.91092e-06
3.92867e-06
3.75343e-06
3.70893e-06
3.69395e-06
3.71096e-06
3.71652e-06
3.73151e-06
3.73963e-06
3.74701e-06
3.74539e-06
3.74761e-06
3.74084e-06
3.73326e-06
3.71861e-06
3.71286e-06
3.69517e-06
3.70915e-06
3.53092e-06
3.49145e-06
3.47995e-06
3.49618e-06
3.50165e-06
3.51529e-06
3.52265e-06
3.52941e-06
3.52785e-06
3.52997e-06
3.52381e-06
3.51696e-06
3.50366e-06
3.49802e-06
3.48118e-06
3.49172e-06
3.31056e-06
3.27577e-06
3.26741e-06
3.28284e-06
3.28822e-06
3.30056e-06
3.30723e-06
3.31337e-06
3.31189e-06
3.31391e-06
3.30833e-06
3.30217e-06
3.29016e-06
3.28463e-06
3.26864e-06
3.27608e-06
3.09222e-06
3.06179e-06
3.05624e-06
3.07087e-06
3.07617e-06
3.08727e-06
3.09328e-06
3.09882e-06
3.09743e-06
3.09932e-06
3.09433e-06
3.0888e-06
3.07802e-06
3.0726e-06
3.05746e-06
3.06213e-06
2.87588e-06
2.84951e-06
2.84647e-06
2.86032e-06
2.86553e-06
2.87547e-06
2.88088e-06
2.88581e-06
2.88453e-06
2.88629e-06
2.88188e-06
2.87694e-06
2.86732e-06
2.862e-06
2.84768e-06
2.84988e-06
2.66142e-06
2.6388e-06
2.63802e-06
2.65117e-06
2.65632e-06
2.66518e-06
2.67003e-06
2.67438e-06
2.67321e-06
2.67484e-06
2.67098e-06
2.66658e-06
2.65804e-06
2.65281e-06
2.63922e-06
2.6392e-06
2.44771e-06
2.42845e-06
2.42985e-06
2.44259e-06
2.44778e-06
2.45571e-06
2.46007e-06
2.46386e-06
2.4628e-06
2.46429e-06
2.46097e-06
2.45706e-06
2.44946e-06
2.44421e-06
2.43107e-06
2.42888e-06
2.23225e-06
2.21609e-06
2.219e-06
2.23099e-06
2.23605e-06
2.24304e-06
2.24697e-06
2.25026e-06
2.24931e-06
2.25068e-06
2.24785e-06
2.24434e-06
2.23765e-06
2.23254e-06
2.22019e-06
2.21654e-06
2.02145e-06
2.00817e-06
2.01229e-06
2.0235e-06
2.02839e-06
2.03449e-06
2.03798e-06
2.04077e-06
2.03994e-06
2.04116e-06
2.03881e-06
2.03571e-06
2.02989e-06
2.02497e-06
2.01344e-06
2.00861e-06
1.81642e-06
1.80579e-06
1.8109e-06
1.82133e-06
1.82603e-06
1.83131e-06
1.83439e-06
1.83671e-06
1.836e-06
1.83708e-06
1.83516e-06
1.83245e-06
1.82744e-06
1.82271e-06
1.812e-06
1.80623e-06
1.6175e-06
1.60929e-06
1.61517e-06
1.62482e-06
1.62931e-06
1.63384e-06
1.63655e-06
1.63843e-06
1.63784e-06
1.63877e-06
1.63726e-06
1.63489e-06
1.63062e-06
1.62612e-06
1.61622e-06
1.60973e-06
1.42527e-06
1.41924e-06
1.42564e-06
1.43449e-06
1.43873e-06
1.44258e-06
1.44495e-06
1.44644e-06
1.44597e-06
1.44675e-06
1.44561e-06
1.44355e-06
1.43994e-06
1.4357e-06
1.42663e-06
1.41966e-06
1.24056e-06
1.23645e-06
1.24314e-06
1.25117e-06
1.25511e-06
1.25835e-06
1.26042e-06
1.26157e-06
1.2612e-06
1.26185e-06
1.26102e-06
1.25924e-06
1.25622e-06
1.25227e-06
1.24406e-06
1.23685e-06
1.06426e-06
1.06187e-06
1.06864e-06
1.07583e-06
1.07946e-06
1.08215e-06
1.08393e-06
1.08479e-06
1.08452e-06
1.08504e-06
1.08447e-06
1.08295e-06
1.08046e-06
1.07683e-06
1.06949e-06
1.06225e-06
8.96303e-07
8.9572e-07
9.02586e-07
9.09018e-07
9.12384e-07
9.14547e-07
9.16056e-07
9.1661e-07
9.16439e-07
9.16837e-07
9.16539e-07
9.15269e-07
9.13284e-07
9.09931e-07
9.03368e-07
8.96081e-07
7.27593e-07
7.3149e-07
7.40181e-07
7.46574e-07
7.50197e-07
7.51617e-07
7.52802e-07
7.52723e-07
7.52747e-07
7.52937e-07
7.53263e-07
7.52317e-07
7.51079e-07
7.47488e-07
7.40998e-07
7.31897e-07
5.6246e-07
5.66845e-07
5.74431e-07
5.79769e-07
5.82843e-07
5.8394e-07
5.84908e-07
5.84735e-07
5.84796e-07
5.84915e-07
5.85297e-07
5.84534e-07
5.83592e-07
5.80547e-07
5.7513e-07
5.67205e-07
4.15008e-07
4.19354e-07
4.25602e-07
4.29889e-07
4.32389e-07
4.3321e-07
4.33971e-07
4.33755e-07
4.33834e-07
4.33901e-07
4.34286e-07
4.33693e-07
4.32998e-07
4.30524e-07
4.26175e-07
4.19658e-07
2.89198e-07
2.93032e-07
2.97873e-07
3.0114e-07
3.03063e-07
3.0365e-07
3.04219e-07
3.04004e-07
3.04084e-07
3.04116e-07
3.04461e-07
3.04022e-07
3.03531e-07
3.01629e-07
2.98316e-07
2.93271e-07
1.88099e-07
1.91113e-07
1.94588e-07
1.9691e-07
1.98286e-07
1.98684e-07
1.9908e-07
1.98899e-07
1.98967e-07
1.98979e-07
1.99253e-07
1.98949e-07
1.98622e-07
1.9726e-07
1.94907e-07
1.91287e-07
1.12824e-07
1.14922e-07
1.17191e-07
1.187e-07
1.19601e-07
1.19851e-07
1.20105e-07
1.19974e-07
1.20024e-07
1.20026e-07
1.20218e-07
1.20024e-07
1.1982e-07
1.1893e-07
1.174e-07
1.15037e-07
6.17235e-08
6.30005e-08
6.43261e-08
6.5207e-08
6.5735e-08
6.58792e-08
6.60265e-08
6.59454e-08
6.59768e-08
6.59758e-08
6.60924e-08
6.59808e-08
6.58634e-08
6.53412e-08
6.44485e-08
6.30683e-08
3.05019e-08
3.11743e-08
3.18572e-08
3.2312e-08
3.25857e-08
3.26607e-08
3.27369e-08
3.26944e-08
3.27113e-08
3.27101e-08
3.27711e-08
3.27133e-08
3.26522e-08
3.23814e-08
3.19205e-08
3.12095e-08
1.34755e-08
1.37791e-08
1.40861e-08
1.42915e-08
1.44155e-08
1.44502e-08
1.4485e-08
1.44662e-08
1.4474e-08
1.44734e-08
1.45005e-08
1.4474e-08
1.44455e-08
1.43229e-08
1.41147e-08
1.3795e-08
5.23708e-09
5.35343e-09
5.47246e-09
5.55251e-09
5.60097e-09
5.61505e-09
5.62897e-09
5.62201e-09
5.62506e-09
5.62483e-09
5.63506e-09
5.62439e-09
5.61273e-09
5.56478e-09
5.48361e-09
5.35963e-09
1.73746e-09
1.77451e-09
1.81335e-09
1.83965e-09
1.8556e-09
1.86045e-09
1.86518e-09
1.86307e-09
1.86407e-09
1.86401e-09
1.8672e-09
1.86354e-09
1.85948e-09
1.84369e-09
1.81701e-09
1.77653e-09
4.65392e-10
4.74733e-10
4.84879e-10