/*--------------------------------*- C++ -*----------------------------------*\
| =========                 |                                                 |
| \\      /  F ield         | OpenFOAM: The Open Source CFD Toolbox           |
|  \\    /   O peration     | Version:  v1912                                 |
|   \\  /    A nd           | Website:  www.openfoam.com                      |
|    \\/     M anipulation  |                                                 |
\*---------------------------------------------------------------------------*/
FoamFile
{
    version     2.0;
    format      ascii;
    class       volScalarField;
    location    "199.2";
    object      T;
}
// * * * * * * * * * * * * * * * * * * * * * * * * * * * * * * * * * * * * * //

dimensions      [0 0 0 1 0 0 0];


internalField   nonuniform List<scalar> 
10077
(
347.036
346.871
346.627
346.505
346.457
346.45
346.456
346.464
346.466
346.462
346.452
346.445
346.451
346.499
346.622
346.868
346.984
346.822
346.582
346.459
346.41
346.402
346.408
346.415
346.417
346.413
346.404
346.397
346.404
346.454
346.577
346.819
346.932
346.774
346.537
346.414
346.363
346.354
346.36
346.367
346.369
346.365
346.356
346.349
346.358
346.409
346.533
346.771
346.881
346.726
346.493
346.37
346.318
346.308
346.313
346.319
346.321
346.317
346.309
346.303
346.312
346.364
346.488
346.723
346.83
346.678
346.449
346.326
346.272
346.262
346.266
346.272
346.274
346.27
346.262
346.257
346.267
346.321
346.444
346.675
346.78
346.63
346.405
346.282
346.228
346.216
346.22
346.226
346.227
346.224
346.216
346.211
346.223
346.277
346.4
346.627
346.73
346.583
346.361
346.239
346.183
346.171
346.174
346.18
346.181
346.178
346.17
346.166
346.178
346.234
346.357
346.579
346.68
346.535
346.318
346.196
346.14
346.126
346.129
346.135
346.136
346.133
346.125
346.122
346.135
346.191
346.313
346.532
346.63
346.488
346.274
346.153
346.096
346.082
346.084
346.09
346.091
346.088
346.081
346.077
346.091
346.148
346.27
346.485
346.581
346.441
346.231
346.111
346.053
346.038
346.04
346.045
346.046
346.043
346.036
346.034
346.048
346.106
346.226
346.438
346.532
346.394
346.188
346.069
346.01
345.995
345.996
346.001
346.001
345.999
345.992
345.99
346.006
346.064
346.183
346.391
346.483
346.347
346.145
346.027
345.968
345.951
345.952
345.957
345.957
345.955
345.949
345.947
345.963
346.022
346.141
346.344
346.435
346.301
346.102
345.985
345.925
345.908
345.909
345.913
345.914
345.911
345.905
345.904
345.921
345.98
346.098
346.298
346.387
346.255
346.059
345.943
345.883
345.866
345.866
345.87
345.87
345.868
345.862
345.862
345.879
345.939
346.055
346.252
346.339
346.209
346.017
345.902
345.841
345.823
345.823
345.827
345.827
345.825
345.82
345.819
345.837
345.897
346.013
346.206
346.291
346.163
345.974
345.86
345.8
345.781
345.78
345.784
345.784
345.782
345.777
345.777
345.795
345.856
345.97
346.16
346.244
346.117
345.932
345.819
345.758
345.739
345.738
345.741
345.742
345.74
345.735
345.735
345.754
345.815
345.928
346.115
346.197
346.072
345.89
345.778
345.717
345.697
345.696
345.699
345.699
345.697
345.693
345.693
345.712
345.774
345.886
346.069
346.15
346.027
345.848
345.737
345.675
345.656
345.654
345.657
345.657
345.655
345.651
345.652
345.671
345.732
345.844
346.024
346.103
345.982
345.806
345.696
345.634
345.614
345.612
345.615
345.615
345.613
345.609
345.61
345.629
345.691
345.802
345.979
346.057
345.937
345.763
345.654
345.592
345.572
345.57
345.573
345.573
345.571
345.567
345.568
345.588
345.65
345.759
345.935
346.011
345.893
345.721
345.613
345.551
345.531
345.528
345.531
345.531
345.529
345.525
345.527
345.547
345.609
345.717
345.89
345.966
345.848
345.679
345.572
345.509
345.489
345.487
345.489
345.489
345.487
345.484
345.485
345.505
345.568
345.675
345.846
345.92
345.804
345.637
345.531
345.468
345.447
345.445
345.447
345.447
345.445
345.442
345.444
345.464
345.527
345.633
345.801
345.875
345.76
345.594
345.489
345.426
345.405
345.403
345.405
345.405
345.403
345.4
345.402
345.422
345.485
345.591
345.757
345.83
345.716
345.552
345.447
345.384
345.364
345.361
345.363
345.363
345.361
345.358
345.36
345.38
345.443
345.548
345.713
345.785
345.672
345.509
345.405
345.342
345.321
345.319
345.321
345.321
345.319
345.316
345.318
345.338
345.402
345.506
345.669
345.74
345.627
345.466
345.363
345.3
345.279
345.277
345.279
345.278
345.277
345.274
345.276
345.296
345.359
345.463
345.625
345.695
345.583
345.423
345.321
345.257
345.236
345.234
345.236
345.236
345.234
345.231
345.233
345.253
345.317
345.419
345.58
345.649
345.538
345.379
345.277
345.213
345.193
345.191
345.193
345.192
345.191
345.188
345.189
345.21
345.274
345.376
345.536
345.604
345.493
345.335
345.233
345.169
345.149
345.147
345.149
345.148
345.147
345.144
345.145
345.165
345.229
345.331
345.49
345.557
345.447
345.289
345.188
345.124
345.104
345.102
345.104
345.103
345.102
345.099
345.1
345.12
345.184
345.285
345.444
345.511
345.4
345.242
345.142
345.077
345.057
345.056
345.058
345.057
345.056
345.053
345.054
345.074
345.138
345.238
345.397
345.463
345.351
345.194
345.095
345.03
345.01
345.009
345.01
345.01
345.009
345.006
345.007
345.026
345.091
345.19
345.349
345.414
345.301
345.145
345.046
344.981
344.961
344.96
344.962
344.961
344.96
344.957
344.958
344.977
345.042
345.141
345.299
345.363
345.25
345.094
344.995
344.93
344.911
344.91
344.912
344.911
344.91
344.907
344.908
344.927
344.992
345.09
345.247
345.31
345.197
345.041
344.944
344.878
344.859
344.858
344.86
344.859
344.858
344.855
344.856
344.875
344.94
345.037
345.194
345.256
345.142
344.987
344.89
344.824
344.805
344.805
344.806
344.806
344.805
344.802
344.802
344.821
344.886
344.983
345.139
345.2
345.085
344.93
344.834
344.768
344.75
344.749
344.751
344.75
344.749
344.746
344.747
344.765
344.831
344.927
345.082
345.142
345.026
344.872
344.776
344.71
344.692
344.692
344.693
344.693
344.692
344.689
344.689
344.707
344.773
344.868
345.024
345.082
344.965
344.811
344.716
344.65
344.632
344.632
344.634
344.633
344.632
344.629
344.629
344.647
344.713
344.808
344.963
345.02
344.902
344.748
344.654
344.587
344.57
344.57
344.572
344.571
344.57
344.567
344.567
344.584
344.65
344.745
344.9
344.956
344.837
344.682
344.589
344.522
344.505
344.505
344.507
344.506
344.506
344.503
344.502
344.519
344.585
344.679
344.834
344.889
344.769
344.614
344.521
344.454
344.437
344.438
344.44
344.439
344.438
344.436
344.434
344.451
344.518
344.611
344.766
344.82
344.698
344.543
344.451
344.383
344.367
344.368
344.37
344.369
344.369
344.366
344.364
344.38
344.447
344.54
344.695
344.748
344.624
344.469
344.377
344.309
344.294
344.296
344.297
344.296
344.296
344.293
344.291
344.307
344.374
344.465
344.621
344.673
344.547
344.392
344.301
344.233
344.217
344.22
344.221
344.22
344.22
344.217
344.215
344.23
344.297
344.388
344.544
344.594
344.467
344.311
344.221
344.152
344.138
344.14
344.142
344.141
344.141
344.138
344.135
344.15
344.217
344.308
344.464
344.513
344.383
344.227
344.137
344.069
344.055
344.058
344.059
344.058
344.058
344.055
344.052
344.066
344.134
344.223
344.38
344.427
344.296
344.139
344.05
343.981
343.967
343.971
343.973
343.972
343.971
343.969
343.965
343.978
344.047
344.135
344.293
344.337
344.204
344.046
343.958
343.889
343.876
343.88
343.882
343.881
343.881
343.878
343.873
343.886
343.955
344.043
344.201
344.243
344.107
343.949
343.862
343.792
343.78
343.785
343.786
343.785
343.785
343.782
343.777
343.789
343.858
343.945
344.104
344.144
344.005
343.846
343.76
343.69
343.679
343.684
343.686
343.685
343.684
343.682
343.676
343.687
343.757
343.843
344.002
344.039
343.898
343.738
343.652
343.582
343.571
343.577
343.579
343.578
343.578
343.575
343.569
343.579
343.649
343.734
343.895
343.927
343.783
343.622
343.538
343.467
343.457
343.464
343.466
343.465
343.464
343.462
343.455
343.464
343.535
343.619
343.78
343.807
343.661
343.499
343.415
343.344
343.336
343.343
343.345
343.343
343.343
343.341
343.333
343.342
343.412
343.495
343.658
343.678
343.529
343.366
343.284
343.212
343.204
343.212
343.214
343.213
343.213
343.21
343.202
343.21
343.281
343.362
343.526
343.539
343.386
343.221
343.141
343.069
343.062
343.071
343.073
343.072
343.072
343.069
343.06
343.067
343.138
343.218
343.383
343.387
343.23
343.064
342.985
342.913
342.907
342.917
342.919
342.918
342.918
342.915
342.905
342.911
342.983
343.061
343.227
343.219
343.059
342.892
342.814
342.741
342.737
342.747
342.75
342.748
342.748
342.745
342.735
342.739
342.812
342.889
343.056
343.033
342.869
342.7
342.625
342.551
342.548
342.559
342.562
342.561
342.561
342.557
342.546
342.549
342.622
342.697
342.866
342.825
342.657
342.485
342.412
342.338
342.336
342.349
342.351
342.35
342.35
342.347
342.334
342.336
342.409
342.482
342.653
342.588
342.415
342.241
342.17
342.096
342.095
342.109
342.112
342.11
342.111
342.107
342.093
342.094
342.167
342.238
342.411
342.314
342.134
341.957
341.889
341.814
341.815
341.83
341.834
341.832
341.833
341.829
341.813
341.812
341.886
341.954
342.131
341.987
341.798
341.616
341.551
341.475
341.478
341.496
341.5
341.498
341.499
341.494
341.477
341.473
341.549
341.613
341.795
341.578
341.379
341.19
341.128
341.05
341.057
341.077
341.082
341.081
341.081
341.075
341.056
341.049
341.126
341.187
341.375
341.049
340.836
340.638
340.581
340.502
340.512
340.535
340.541
340.54
340.541
340.534
340.511
340.501
340.579
340.635
340.832
340.34
340.109
339.899
339.848
339.767
339.782
339.809
339.817
339.816
339.817
339.808
339.781
339.767
339.847
339.896
340.105
339.362
339.109
338.884
338.841
338.758
338.779
338.812
338.822
338.821
338.821
338.811
338.779
338.759
338.841
338.882
339.105
338.004
337.727
337.486
337.453
337.368
337.395
337.434
337.447
337.446
337.447
337.434
337.396
337.37
337.454
337.485
337.723
336.17
335.874
335.622
335.6
335.514
335.548
335.592
335.606
335.606
335.607
335.592
335.549
335.517
335.601
335.621
335.87
333.86
333.559
333.308
333.294
333.212
333.249
333.295
333.311
333.311
333.312
333.296
333.251
333.215
333.296
333.308
333.555
331.197
330.911
330.676
330.668
330.593
330.63
330.675
330.691
330.691
330.691
330.676
330.632
330.596
330.67
330.676
330.907
328.356
328.101
327.894
327.89
327.825
327.859
327.9
327.913
327.913
327.914
327.9
327.86
327.828
327.892
327.894
328.098
325.47
325.256
325.084
325.082
325.028
325.057
325.091
325.103
325.103
325.103
325.092
325.058
325.031
325.083
325.084
325.254
322.606
322.439
322.305
322.304
322.262
322.285
322.312
322.321
322.321
322.321
322.312
322.286
322.264
322.305
322.305
322.437
319.792
319.673
319.577
319.577
319.547
319.563
319.583
319.589
319.589
319.589
319.583
319.564
319.549
319.577
319.577
319.671
317.034
316.963
316.906
316.906
316.888
316.898
316.909
316.913
316.913
316.913
316.91
316.898
316.889
316.906
316.906
316.962
314.333
314.309
314.291
314.291
314.285
314.288
314.292
314.293
314.293
314.293
314.292
314.288
314.285
314.291
314.291
314.309
346.554
346.69
346.848
346.863
346.833
346.784
346.751
346.729
346.723
346.726
346.747
346.779
346.827
346.858
346.845
346.688
346.507
346.637
346.787
346.802
346.772
346.724
346.691
346.669
346.663
346.667
346.687
346.719
346.767
346.797
346.784
346.635
346.462
346.585
346.728
346.742
346.713
346.666
346.633
346.612
346.605
346.609
346.629
346.66
346.707
346.737
346.725
346.584
346.417
346.535
346.67
346.684
346.655
346.608
346.576
346.555
346.549
346.552
346.572
346.603
346.649
346.679
346.667
346.533
346.374
346.485
346.614
346.626
346.598
346.552
346.52
346.499
346.493
346.497
346.516
346.547
346.592
346.622
346.611
346.484
346.331
346.437
346.559
346.57
346.542
346.497
346.466
346.445
346.439
346.443
346.462
346.492
346.536
346.566
346.556
346.435
346.289
346.389
346.504
346.515
346.487
346.443
346.412
346.391
346.386
346.389
346.408
346.438
346.481
346.51
346.501
346.388
346.247
346.342
346.451
346.46
346.432
346.389
346.359
346.339
346.333
346.337
346.355
346.384
346.427
346.456
346.448
346.341
346.205
346.296
346.399
346.407
346.379
346.337
346.307
346.287
346.281
346.285
346.303
346.332
346.374
346.403
346.396
346.295
346.164
346.25
346.347
346.354
346.327
346.285
346.256
346.236
346.231
346.234
346.252
346.28
346.322
346.35
346.344
346.249
346.123
346.205
346.296
346.303
346.275
346.234
346.206
346.186
346.181
346.184
346.202
346.23
346.27
346.299
346.294
346.204
346.083
346.161
346.246
346.251
346.224
346.184
346.156
346.137
346.131
346.135
346.152
346.179
346.22
346.248
346.244
346.159
346.042
346.116
346.197
346.201
346.174
346.134
346.107
346.088
346.082
346.086
346.103
346.13
346.169
346.197
346.195
346.115
346.001
346.072
346.148
346.151
346.124
346.085
346.058
346.039
346.034
346.037
346.054
346.081
346.12
346.147
346.146
346.071
345.961
346.028
346.1
346.102
346.075
346.037
346.01
345.992
345.986
345.99
346.006
346.033
346.071
346.098
346.098
346.027
345.92
345.985
346.052
346.053
346.027
345.989
345.962
345.944
345.939
345.942
345.959
345.985
346.022
346.05
346.05
345.984
345.879
345.941
346.005
346.005
345.978
345.941
345.915
345.897
345.892
345.895
345.912
345.937
345.974
346.002
346.003
345.94
345.838
345.898
345.958
345.957
345.931
345.894
345.868
345.85
345.845
345.849
345.865
345.89
345.927
345.954
345.956
345.897
345.797
345.854
345.911
345.91
345.883
345.847
345.822
345.804
345.799
345.802
345.818
345.843
345.879
345.906
345.909
345.853
345.756
345.811
345.865
345.863
345.836
345.8
345.775
345.758
345.753
345.756
345.772
345.796
345.832
345.859
345.863
345.81
345.715
345.767
345.819
345.816
345.789
345.754
345.729
345.712
345.707
345.71
345.726
345.75
345.786
345.812
345.817
345.766
345.673
345.724
345.773
345.769
345.743
345.707
345.683
345.666
345.661
345.664
345.68
345.704
345.739
345.766
345.77
345.723
345.631
345.68
345.726
345.722
345.696
345.661
345.637
345.62
345.615
345.618
345.634
345.657
345.693
345.719
345.724
345.679
345.588
345.636
345.68
345.676
345.65
345.615
345.591
345.574
345.569
345.572
345.588
345.611
345.646
345.673
345.678
345.636
345.544
345.592
345.634
345.629
345.603
345.569
345.545
345.528
345.523
345.526
345.542
345.565
345.6
345.626
345.632
345.591
345.499
345.547
345.588
345.582
345.557
345.523
345.499
345.482
345.477
345.48
345.496
345.519
345.553
345.58
345.586
345.546
345.453
345.501
345.542
345.536
345.51
345.476
345.453
345.436
345.431
345.434
345.45
345.473
345.507
345.533
345.54
345.501
345.407
345.455
345.495
345.489
345.463
345.429
345.406
345.389
345.384
345.387
345.403
345.426
345.46
345.486
345.493
345.454
345.36
345.408
345.448
345.441
345.416
345.382
345.359
345.342
345.337
345.34
345.356
345.378
345.413
345.438
345.446
345.408
345.313
345.361
345.399
345.393
345.368
345.334
345.311
345.294
345.289
345.292
345.308
345.33
345.364
345.39
345.398
345.36
345.265
345.313
345.351
345.343
345.319
345.285
345.262
345.245
345.241
345.243
345.259
345.282
345.315
345.341
345.349
345.312
345.216
345.264
345.301
345.293
345.269
345.235
345.213
345.195
345.191
345.194
345.21
345.232
345.265
345.291
345.299
345.263
345.167
345.214
345.25
345.242
345.218
345.184
345.162
345.145
345.141
345.143
345.159
345.181
345.214
345.24
345.248
345.213
345.116
345.163
345.198
345.19
345.165
345.133
345.11
345.093
345.089
345.092
345.108
345.129
345.162
345.187
345.196
345.162
345.063
345.11
345.144
345.136
345.112
345.079
345.057
345.04
345.036
345.039
345.055
345.076
345.109
345.134
345.143
345.11
345.01
345.056
345.09
345.081
345.057
345.025
345.003
344.986
344.982
344.984
345
345.022
345.054
345.079
345.088
345.056
344.954
345
345.033
345.025
345.001
344.969
344.947
344.93
344.926
344.928
344.944
344.965
344.998
345.022
345.032
345
344.896
344.943
344.975
344.966
344.942
344.911
344.889
344.872
344.868
344.87
344.887
344.908
344.94
344.964
344.974
344.942
344.837
344.883
344.915
344.906
344.882
344.851
344.83
344.812
344.808
344.811
344.827
344.848
344.88
344.904
344.913
344.883
344.775
344.822
344.852
344.844
344.82
344.789
344.768
344.751
344.747
344.749
344.765
344.786
344.818
344.842
344.851
344.821
344.711
344.758
344.788
344.78
344.756
344.725
344.704
344.687
344.683
344.685
344.702
344.722
344.753
344.777
344.787
344.757
344.644
344.692
344.721
344.713
344.69
344.659
344.638
344.621
344.617
344.619
344.636
344.656
344.687
344.711
344.72
344.691
344.575
344.623
344.652
344.644
344.621
344.59
344.57
344.552
344.549
344.551
344.567
344.587
344.618
344.642
344.651
344.623
344.503
344.552
344.581
344.572
344.55
344.519
344.499
344.481
344.478
344.48
344.497
344.516
344.547
344.57
344.58
344.551
344.428
344.478
344.507
344.498
344.476
344.445
344.425
344.408
344.404
344.406
344.423
344.443
344.473
344.496
344.506
344.478
344.351
344.401
344.43
344.421
344.399
344.369
344.349
344.331
344.328
344.33
344.347
344.366
344.397
344.42
344.429
344.401
344.27
344.322
344.35
344.342
344.319
344.29
344.27
344.252
344.249
344.251
344.268
344.287
344.317
344.34
344.349
344.322
344.186
344.239
344.267
344.259
344.237
344.207
344.188
344.17
344.167
344.168
344.186
344.205
344.234
344.257
344.266
344.239
344.099
344.152
344.18
344.172
344.15
344.121
344.102
344.084
344.081
344.082
344.1
344.119
344.148
344.171
344.179
344.152
344.007
344.062
344.089
344.082
344.061
344.032
344.013
343.994
343.991
343.993
344.01
344.029
344.058
344.08
344.089
344.062
343.911
343.967
343.995
343.988
343.966
343.938
343.919
343.9
343.898
343.899
343.917
343.935
343.964
343.986
343.994
343.967
343.81
343.868
343.895
343.888
343.867
343.839
343.82
343.802
343.799
343.8
343.818
343.837
343.865
343.887
343.895
343.868
343.704
343.763
343.79
343.784
343.763
343.735
343.717
343.698
343.695
343.697
343.715
343.733
343.761
343.783
343.79
343.763
343.591
343.652
343.679
343.673
343.653
343.625
343.607
343.588
343.586
343.587
343.605
343.623
343.651
343.672
343.679
343.652
343.471
343.534
343.562
343.556
343.536
343.509
343.491
343.471
343.469
343.47
343.489
343.506
343.535
343.555
343.561
343.534
343.343
343.408
343.436
343.431
343.411
343.384
343.366
343.347
343.345
343.346
343.364
343.382
343.41
343.43
343.435
343.408
343.205
343.272
343.3
343.296
343.277
343.25
343.232
343.213
343.211
343.212
343.23
343.248
343.275
343.295
343.3
343.273
343.055
343.125
343.153
343.15
343.132
343.105
343.087
343.068
343.066
343.067
343.086
343.103
343.13
343.149
343.153
343.126
342.892
342.965
342.994
342.991
342.973
342.947
342.93
342.91
342.908
342.908
342.928
342.945
342.972
342.99
342.994
342.965
342.712
342.789
342.818
342.816
342.799
342.773
342.756
342.736
342.734
342.735
342.754
342.771
342.798
342.816
342.818
342.789
342.513
342.593
342.623
342.623
342.607
342.581
342.564
342.544
342.542
342.542
342.562
342.579
342.605
342.622
342.624
342.594
342.29
342.374
342.405
342.406
342.391
342.365
342.349
342.328
342.327
342.327
342.347
342.363
342.39
342.405
342.406
342.375
342.036
342.125
342.158
342.16
342.146
342.12
342.104
342.083
342.082
342.082
342.103
342.119
342.145
342.159
342.158
342.126
341.742
341.837
341.871
341.875
341.863
341.838
341.822
341.801
341.8
341.8
341.82
341.836
341.862
341.875
341.872
341.838
341.387
341.491
341.529
341.535
341.525
341.5
341.484
341.463
341.462
341.462
341.483
341.499
341.524
341.536
341.53
341.492
340.946
341.06
341.102
341.112
341.104
341.079
341.064
341.042
341.042
341.041
341.063
341.079
341.104
341.113
341.104
341.061
340.376
340.504
340.553
340.566
340.561
340.537
340.523
340.5
340.5
340.499
340.522
340.537
340.562
340.568
340.555
340.505
339.616
339.762
339.819
339.838
339.837
339.814
339.8
339.777
339.777
339.776
339.8
339.815
339.839
339.84
339.822
339.764
338.578
338.746
338.814
338.84
338.845
338.823
338.81
338.786
338.787
338.785
338.81
338.824
338.847
338.844
338.818
338.749
337.156
337.348
337.429
337.464
337.475
337.454
337.442
337.417
337.419
337.417
337.443
337.456
337.478
337.468
337.435
337.352
335.272
335.486
335.578
335.62
335.637
335.618
335.607
335.582
335.584
335.582
335.608
335.621
335.641
335.625
335.584
335.49
332.95
333.173
333.27
333.315
333.337
333.32
333.31
333.285
333.287
333.285
333.311
333.323
333.342
333.321
333.277
333.178
330.328
330.545
330.637
330.682
330.704
330.689
330.68
330.657
330.66
330.658
330.681
330.693
330.709
330.688
330.644
330.549
327.577
327.772
327.854
327.894
327.915
327.902
327.894
327.874
327.876
327.874
327.895
327.905
327.919
327.899
327.86
327.776
324.812
324.977
325.046
325.079
325.097
325.086
325.079
325.063
325.064
325.063
325.08
325.088
325.1
325.083
325.051
324.981
322.088
322.218
322.272
322.298
322.312
322.303
322.298
322.285
322.286
322.285
322.298
322.305
322.315
322.301
322.276
322.221
319.422
319.514
319.553
319.571
319.581
319.575
319.571
319.562
319.563
319.562
319.571
319.576
319.583
319.573
319.555
319.516
316.813
316.869
316.891
316.902
316.908
316.905
316.902
316.897
316.897
316.897
316.902
316.905
316.909
316.904
316.893
316.87
314.26
314.278
314.286
314.289
314.291
314.29
314.289
314.288
314.288
314.288
314.289
314.29
314.292
314.29
314.286
314.279
347.021
346.857
346.62
346.498
346.449
346.441
346.446
346.453
346.454
346.451
346.442
346.436
346.443
346.493
346.615
346.854
346.969
346.809
346.575
346.453
346.402
346.393
346.398
346.405
346.406
346.403
346.394
346.388
346.397
346.448
346.57
346.806
346.918
346.761
346.531
346.408
346.356
346.346
346.35
346.357
346.358
346.355
346.346
346.341
346.351
346.403
346.526
346.758
346.867
346.713
346.487
346.364
346.311
346.3
346.304
346.31
346.311
346.308
346.3
346.295
346.305
346.359
346.482
346.71
346.816
346.666
346.443
346.32
346.266
346.254
346.257
346.264
346.265
346.262
346.253
346.249
346.261
346.315
346.438
346.662
346.766
346.618
346.399
346.277
346.221
346.209
346.212
346.218
346.219
346.216
346.208
346.204
346.216
346.272
346.394
346.615
346.717
346.571
346.355
346.234
346.177
346.164
346.166
346.172
346.173
346.17
346.163
346.16
346.172
346.229
346.351
346.568
346.667
346.524
346.312
346.191
346.134
346.12
346.122
346.127
346.128
346.125
346.118
346.115
346.129
346.186
346.307
346.521
346.618
346.477
346.268
346.148
346.091
346.076
346.077
346.082
346.083
346.08
346.073
346.071
346.086
346.144
346.264
346.474
346.569
346.43
346.225
346.106
346.048
346.032
346.033
346.038
346.039
346.036
346.029
346.028
346.043
346.101
346.221
346.427
346.521
346.383
346.182
346.064
346.005
345.989
345.989
345.994
345.994
345.992
345.986
345.984
346
346.059
346.178
346.38
346.472
346.337
346.139
346.022
345.962
345.946
345.946
345.95
345.951
345.948
345.942
345.941
345.958
346.017
346.135
346.334
346.424
346.291
346.097
345.98
345.92
345.903
345.902
345.907
345.907
345.905
345.899
345.899
345.916
345.976
346.092
346.288
346.376
346.245
346.054
345.939
345.878
345.86
345.859
345.863
345.864
345.861
345.856
345.856
345.874
345.934
346.05
346.242
346.328
346.199
346.011
345.897
345.836
345.818
345.817
345.82
345.821
345.818
345.813
345.814
345.832
345.893
346.007
346.196
346.281
346.153
345.969
345.856
345.794
345.775
345.774
345.777
345.778
345.776
345.771
345.771
345.79
345.851
345.965
346.15
346.233
346.108
345.926
345.814
345.752
345.733
345.732
345.735
345.735
345.733
345.728
345.729
345.748
345.81
345.922
346.105
346.186
346.063
345.884
345.773
345.711
345.691
345.689
345.692
345.692
345.69
345.686
345.687
345.707
345.769
345.88
346.06
346.14
346.017
345.842
345.731
345.669
345.649
345.647
345.65
345.65
345.648
345.644
345.645
345.665
345.727
345.838
346.015
346.093
345.972
345.799
345.69
345.627
345.607
345.605
345.607
345.607
345.606
345.602
345.603
345.623
345.686
345.795
345.97
346.047
345.927
345.757
345.648
345.585
345.565
345.563
345.565
345.565
345.563
345.559
345.561
345.581
345.644
345.753
345.925
346.001
345.883
345.714
345.607
345.544
345.523
345.52
345.523
345.522
345.521
345.517
345.519
345.54
345.603
345.71
345.88
345.955
345.838
345.672
345.565
345.502
345.481
345.478
345.48
345.48
345.479
345.475
345.477
345.498
345.561
345.668
345.835
345.909
345.793
345.629
345.523
345.459
345.439
345.436
345.438
345.438
345.436
345.433
345.435
345.456
345.519
345.625
345.791
345.863
345.749
345.586
345.481
345.417
345.396
345.393
345.395
345.395
345.394
345.39
345.392
345.413
345.477
345.582
345.746
345.817
345.704
345.543
345.438
345.373
345.353
345.35
345.353
345.352
345.351
345.348
345.349
345.37
345.434
345.539
345.701
345.771
345.659
345.499
345.394
345.33
345.309
345.307
345.309
345.309
345.308
345.304
345.306
345.326
345.39
345.495
345.656
345.725
345.614
345.454
345.35
345.285
345.265
345.263
345.265
345.265
345.264
345.26
345.262
345.282
345.346
345.451
345.611
345.679
345.568
345.409
345.306
345.241
345.221
345.218
345.221
345.22
345.219
345.216
345.217
345.237
345.302
345.405
345.566
345.632
345.522
345.363
345.26
345.195
345.175
345.173
345.175
345.175
345.174
345.17
345.172
345.192
345.257
345.359
345.519
345.585
345.475
345.316
345.214
345.149
345.129
345.127
345.129
345.129
345.128
345.124
345.126
345.145
345.211
345.313
345.472
345.537
345.426
345.268
345.167
345.102
345.082
345.08
345.082
345.082
345.081
345.077
345.079
345.098
345.164
345.265
345.424
345.489
345.377
345.22
345.119
345.054
345.034
345.032
345.034
345.034
345.033
345.029
345.031
345.05
345.116
345.216
345.374
345.439
345.326
345.17
345.07
345.004
344.985
344.983
344.985
344.985
344.984
344.98
344.982
345.001
345.067
345.166
345.323
345.387
345.274
345.119
345.02
344.954
344.934
344.933
344.935
344.934
344.933
344.93
344.931
344.951
345.016
345.115
345.272
345.335
345.221
345.066
344.968
344.902
344.883
344.881
344.883
344.882
344.882
344.879
344.88
344.899
344.964
345.063
345.218
345.28
345.167
345.012
344.914
344.848
344.829
344.828
344.83
344.829
344.829
344.825
344.826
344.845
344.911
345.008
345.164
345.225
345.11
344.956
344.859
344.793
344.774
344.773
344.775
344.774
344.774
344.771
344.771
344.79
344.856
344.953
345.108
345.167
345.052
344.899
344.802
344.736
344.717
344.717
344.719
344.718
344.717
344.714
344.714
344.733
344.799
344.895
345.05
345.108
344.993
344.839
344.743
344.677
344.659
344.658
344.66
344.659
344.659
344.655
344.656
344.674
344.74
344.836
344.99
345.047
344.931
344.777
344.682
344.616
344.598
344.597
344.599
344.598
344.598
344.595
344.595
344.613
344.679
344.774
344.928
344.984
344.867
344.713
344.619
344.552
344.535
344.534
344.537
344.536
344.535
344.532
344.532
344.549
344.616
344.71
344.864
344.92
344.801
344.647
344.553
344.486
344.469
344.469
344.471
344.471
344.47
344.467
344.466
344.483
344.55
344.644
344.798
344.852
344.732
344.578
344.485
344.418
344.401
344.402
344.404
344.403
344.403
344.399
344.399
344.415
344.482
344.575
344.729
344.783
344.661
344.507
344.415
344.347
344.331
344.332
344.334
344.333
344.333
344.33
344.328
344.344
344.412
344.504
344.659
344.711
344.588
344.433
344.342
344.274
344.258
344.26
344.262
344.261
344.261
344.257
344.256
344.271
344.339
344.43
344.585
344.637
344.512
344.357
344.266
344.198
344.183
344.185
344.187
344.186
344.186
344.182
344.18
344.195
344.263
344.354
344.509
344.56
344.433
344.278
344.187
344.119
344.104
344.107
344.109
344.108
344.108
344.104
344.102
344.116
344.184
344.274
344.43
344.48
344.351
344.195
344.106
344.037
344.023
344.026
344.028
344.027
344.027
344.023
344.02
344.034
344.103
344.192
344.348
344.397
344.266
344.109
344.021
343.951
343.938
343.941
343.944
343.942
343.942
343.939
343.936
343.949
344.017
344.106
344.263
344.31
344.177
344.019
343.932
343.862
343.85
343.853
343.856
343.854
343.855
343.851
343.847
343.86
343.929
344.016
344.174
344.22
344.084
343.926
343.839
343.769
343.757
343.761
343.764
343.762
343.763
343.759
343.754
343.766
343.836
343.922
344.081
344.124
343.986
343.827
343.741
343.671
343.66
343.664
343.667
343.666
343.666
343.662
343.657
343.669
343.738
343.824
343.983
344.024
343.883
343.723
343.638
343.568
343.557
343.562
343.565
343.564
343.564
343.56
343.555
343.565
343.635
343.72
343.88
343.918
343.774
343.614
343.529
343.459
343.449
343.455
343.458
343.456
343.456
343.452
343.446
343.456
343.526
343.61
343.771
343.804
343.658
343.496
343.413
343.342
343.333
343.34
343.343
343.341
343.342
343.338
343.331
343.34
343.41
343.493
343.655
343.683
343.534
343.371
343.289
343.218
343.209
343.216
343.22
343.218
343.219
343.214
343.207
343.215
343.286
343.368
343.531
343.551
343.399
343.235
343.155
343.083
343.076
343.083
343.087
343.085
343.086
343.081
343.073
343.081
343.152
343.232
343.396
343.409
343.253
343.088
343.009
342.937
342.93
342.939
342.943
342.941
342.941
342.937
342.928
342.935
343.006
343.085
343.25
343.252
343.092
342.926
342.849
342.776
342.771
342.78
342.784
342.782
342.783
342.778
342.769
342.774
342.846
342.923
343.089
343.078
342.914
342.747
342.671
342.598
342.594
342.604
342.609
342.607
342.607
342.602
342.592
342.596
342.669
342.744
342.911
342.883
342.715
342.546
342.472
342.399
342.396
342.407
342.412
342.41
342.411
342.405
342.394
342.397
342.47
342.543
342.712
342.661
342.488
342.318
342.246
342.172
342.17
342.183
342.188
342.185
342.187
342.181
342.168
342.17
342.243
342.314
342.485
342.404
342.224
342.051
341.981
341.907
341.907
341.921
341.926
341.924
341.925
341.919
341.905
341.906
341.979
342.048
342.221
342.096
341.906
341.729
341.662
341.587
341.589
341.604
341.611
341.608
341.61
341.603
341.587
341.585
341.66
341.726
341.903
341.71
341.508
341.325
341.261
341.185
341.189
341.207
341.215
341.213
341.214
341.206
341.188
341.184
341.26
341.322
341.505
341.209
340.991
340.8
340.741
340.663
340.671
340.692
340.701
340.698
340.7
340.691
340.67
340.662
340.74
340.798
340.988
340.535
340.296
340.094
340.041
339.96
339.972
339.998
340.009
340.006
340.009
339.997
339.972
339.961
340.04
340.092
340.292
339.598
339.333
339.118
339.072
338.989
339.007
339.037
339.051
339.048
339.051
339.037
339.007
338.99
339.072
339.116
339.329
338.285
337.99
337.762
337.724
337.639
337.663
337.699
337.716
337.713
337.717
337.7
337.664
337.641
337.725
337.76
337.986
336.491
336.17
335.933
335.904
335.818
335.849
335.89
335.91
335.907
335.911
335.891
335.851
335.822
335.906
335.932
336.166
334.202
333.87
333.635
333.614
333.531
333.565
333.61
333.631
333.628
333.632
333.611
333.568
333.535
333.617
333.634
333.867
331.533
331.214
330.994
330.98
330.903
330.938
330.981
331.002
330.999
331.003
330.983
330.94
330.907
330.982
330.993
331.211