-0.0075 	0 	0 	0
-0.0075 	5.24514e-22 	-3.3945e-22 	1.42154e-18
-0.00745622 	-3.38692e-06 	2.19191e-06 	-0.00917925
-0.00745622 	-3.38692e-06 	2.19191e-06 	-0.00917925
-0.00741165 	-7.09977e-06 	7.79292e-06 	-0.01855
-0.00741165 	-7.09977e-06 	7.79292e-06 	-0.01855
-0.00736628 	-1.05215e-05 	1.71312e-05 	-0.0280987
-0.00736628 	-1.05215e-05 	1.71312e-05 	-0.0280987
-0.0073201 	-1.30221e-05 	3.01214e-05 	-0.0377679
-0.0073201 	-1.30221e-05 	3.01214e-05 	-0.0377679
-0.00727309 	-1.40895e-05 	4.65421e-05 	-0.0474986
-0.00727309 	-1.40895e-05 	4.65421e-05 	-0.0474986
-0.00722524 	-1.33407e-05 	6.61867e-05 	-0.0572333
-0.00722524 	-1.33407e-05 	6.61867e-05 	-0.0572333
-0.00717653 	-1.05181e-05 	8.88527e-05 	-0.0669177
-0.00717653 	-1.05181e-05 	8.88527e-05 	-0.0669177
-0.00712695 	-5.48993e-06 	0.000114331 	-0.0765043
-0.00712695 	-5.48993e-06 	0.000114331 	-0.0765043
-0.00707647 	1.75514e-06 	0.000142416 	-0.0859543
-0.00707647 	1.75514e-06 	0.000142416 	-0.0859543
-0.0070251 	1.11174e-05 	0.000172921 	-0.0952386
-0.0070251 	1.11174e-05 	0.000172921 	-0.0952386
-0.0069728 	2.23984e-05 	0.000205683 	-0.104338
-0.0069728 	2.23984e-05 	0.000205683 	-0.104338
-0.00691956 	3.53136e-05 	0.000240573 	-0.113243
-0.00691956 	3.53136e-05 	0.000240573 	-0.113243
-0.00686537 	4.95019e-05 	0.000277499 	-0.121948
-0.00686537 	4.95019e-05 	0.000277499 	-0.121948
-0.00681021 	6.45323e-05 	0.000316394 	-0.130453
-0.00681021 	6.45323e-05 	0.000316394 	-0.130453
-0.00675406 	7.99114e-05 	0.000357216 	-0.138756
-0.00675406 	7.99114e-05 	0.000357216 	-0.138756
-0.0066969 	9.50946e-05 	0.00039994 	-0.146857
-0.0066969 	9.50946e-05 	0.00039994 	-0.146857
-0.00663871 	0.000109499 	0.000444546 	-0.154751
-0.00663871 	0.000109499 	0.000444546 	-0.154751
-0.00657949 	0.000122523 	0.000491004 	-0.162432
-0.00657949 	0.000122523 	0.000491004 	-0.162432
-0.0065192 	0.00013357 	0.000539257 	-0.16989
-0.0065192 	0.00013357 	0.000539257 	-0.16989
-0.00645783 	0.000142079 	0.000589216 	-0.177112
-0.00645783 	0.000142079 	0.000589216 	-0.177112
-0.00639535 	0.000147554 	0.000640745 	-0.184082
-0.00639535 	0.000147554 	0.000640745 	-0.184082
-0.00633176 	0.000149596 	0.000693658 	-0.190784
-0.00633176 	0.000149596 	0.000693658 	-0.190784
-0.00626703 	0.000147928 	0.000747714 	-0.197199
-0.00626703 	0.000147928 	0.000747714 	-0.197199
-0.00620114 	0.000142411 	0.00080262 	-0.20331
-0.00620114 	0.000142411 	0.00080262 	-0.20331
-0.00613406 	0.00013305 	0.000858029 	-0.209101
-0.00613406 	0.00013305 	0.000858029 	-0.209101
-0.00606579 	0.000119989 	0.000913548 	-0.214556
-0.00606579 	0.000119989 	0.000913548 	-0.214556
-0.00599629 	0.000103493 	0.000968744 	-0.219664
-0.00599629 	0.000103493 	0.000968744 	-0.219664
-0.00592554 	8.39263e-05 	0.00102315 	-0.224413
-0.00592554 	8.39263e-05 	0.00102315 	-0.224413
-0.00585352 	6.17192e-05 	0.00107627 	-0.228798
-0.00585352 	6.17192e-05 	0.00107627 	-0.228798
-0.00578022 	3.73392e-05 	0.0011276 	-0.232815
-0.00578022 	3.73392e-05 	0.0011276 	-0.232815
-0.00570559 	1.12599e-05 	0.00117665 	-0.236462
-0.00570559 	1.12599e-05 	0.00117665 	-0.236462
-0.00562963 	-1.60638e-05 	0.00122292 	-0.239743
-0.00562963 	-1.60638e-05 	0.00122292 	-0.239743
-0.00555231 	-4.42144e-05 	0.00126596 	-0.242665
-0.00555231 	-4.42144e-05 	0.00126596 	-0.242665
-0.0054736 	-7.28199e-05 	0.00130537 	-0.245238
-0.0054736 	-7.28199e-05 	0.00130537 	-0.245238
-0.00539348 	-0.000101552 	0.00134079 	-0.247478
-0.00539348 	-0.000101552 	0.00134079 	-0.247478
-0.00531193 	-0.000130118 	0.00137193 	-0.2494
-0.00531193 	-0.000130118 	0.00137193 	-0.2494
-0.00522891 	-0.00015824 	0.00139858 	-0.251025
-0.00522891 	-0.00015824 	0.00139858 	-0.251025
-0.0051444 	-0.000185635 	0.00142063 	-0.252376
-0.0051444 	-0.000185635 	0.00142063 	-0.252376
-0.00505838 	-0.000212047 	0.00143803 	-0.253478
-0.00505838 	-0.000212047 	0.00143803 	-0.253478
-0.00497081 	-0.000237251 	0.00145086 	-0.25436
-0.00497081 	-0.000237251 	0.00145086 	-0.25436
-0.00488168 	-0.000260973 	0.00145924 	-0.255049
-0.00488168 	-0.000260973 	0.00145924 	-0.255049
-0.00479094 	-0.000282888 	0.00146335 	-0.255571
-0.00479094 	-0.000282888 	0.00146335 	-0.255571
-0.00469858 	-0.000302685 	0.00146342 	-0.255954
-0.00469858 	-0.000302685 	0.00146342 	-0.255954
-0.00460456 	-0.000320092 	0.00145972 	-0.256221
-0.00460456 	-0.000320092 	0.00145972 	-0.256221
-0.00450886 	-0.000334885 	0.00145255 	-0.256395
-0.00450886 	-0.000334885 	0.00145255 	-0.256395
-0.00441144 	-0.0003469 	0.00144219 	-0.256497
-0.00441144 	-0.0003469 	0.00144219 	-0.256497
-0.00431227 	-0.000356045 	0.00142892 	-0.256542
-0.00431227 	-0.000356045 	0.00142892 	-0.256542
-0.00421133 	-0.000362288 	0.00141301 	-0.256545
-0.00421133 	-0.000362288 	0.00141301 	-0.256545
-0.00410857 	-0.000365652 	0.00139467 	-0.256516
-0.00410857 	-0.000365652 	0.00139467 	-0.256516
-0.00400397 	-0.00036619 	0.0013741 	-0.256465
-0.00400397 	-0.00036619 	0.0013741 	-0.256465
-0.0038975 	-0.000363965 	0.00135143 	-0.256396
-0.0038975 	-0.000363965 	0.00135143 	-0.256396
-0.00378912 	-0.000359021 	0.00132673 	-0.256314
-0.00378912 	-0.000359021 	0.00132673 	-0.256314
-0.00367879 	-0.000351354 	0.00130001 	-0.256222
-0.00367879 	-0.000351354 	0.00130001 	-0.256222
-0.00356649 	-0.000340914 	0.00127131 	-0.256121
-0.00356649 	-0.000340914 	0.00127131 	-0.256121
-0.00345217 	-0.000327618 	0.00124068 	-0.256015
-0.00345217 	-0.000327618 	0.00124068 	-0.256015
-0.0033358 	-0.000311365 	0.00120807 	-0.255903
-0.0033358 	-0.000311365 	0.00120807 	-0.255903
-0.00321735 	-0.000292078 	0.0011735 	-0.255786
-0.00321735 	-0.000292078 	0.0011735 	-0.255786
-0.00309677 	-0.000269703 	0.00113706 	-0.255664
-0.00309677 	-0.000269703 	0.00113706 	-0.255664
-0.00297403 	-0.000244213 	0.00109898 	-0.25554
-0.00297403 	-0.000244213 	0.00109898 	-0.25554
-0.00284909 	-0.000215662 	0.00105946 	-0.255415
-0.00284909 	-0.000215662 	0.00105946 	-0.255415
-0.0027219 	-0.000184219 	0.0010187 	-0.255291
-0.0027219 	-0.000184219 	0.0010187 	-0.255291
-0.00259244 	-0.000150172 	0.000976933 	-0.25517
-0.00259244 	-0.000150172 	0.000976933 	-0.25517
-0.00246065 	-0.000113916 	0.000934367 	-0.255054
-0.00246065 	-0.000113916 	0.000934367 	-0.255054
-0.00232651 	-7.59306e-05 	0.000891203 	-0.254943
-0.00232651 	-7.59306e-05 	0.000891203 	-0.254943
-0.00218995 	-3.67437e-05 	0.000847619 	-0.25484
-0.00218995 	-3.67437e-05 	0.000847619 	-0.25484
-0.00205095 	3.13025e-06 	0.000803882 	-0.254744
-0.00205095 	3.13025e-06 	0.000803882 	-0.254744
-0.00190946 	4.32959e-05 	0.000760183 	-0.254658
-0.00190946 	4.32959e-05 	0.000760183 	-0.254658
-0.00176543 	8.3429e-05 	0.000716519 	-0.25458
-0.00176543 	8.3429e-05 	0.000716519 	-0.25458
-0.00161881 	0.000123067 	0.000672931 	-0.254511
-0.00161881 	0.000123067 	0.000672931 	-0.254511
-0.00146957 	0.000161602 	0.000629519 	-0.25445
-0.00146957 	0.000161602 	0.000629519 	-0.25445
-0.00131765 	0.000198412 	0.000586396 	-0.254399
-0.00131765 	0.000198412 	0.000586396 	-0.254399
-0.001163 	0.000232886 	0.000543671 	-0.254356
-0.001163 	0.000232886 	0.000543671 	-0.254356
-0.00100559 	0.00026441 	0.000501414 	-0.254324
-0.00100559 	0.00026441 	0.000501414 	-0.254324
-0.000845345 	0.000292371 	0.000459709 	-0.254301
-0.000845345 	0.000292371 	0.000459709 	-0.254301
-0.000682232 	0.000316167 	0.000418644 	-0.254289
-0.000682232 	0.000316167 	0.000418644 	-0.254289
-0.000516194 	0.00033521 	0.000378308 	-0.254287
-0.000516194 	0.00033521 	0.000378308 	-0.254287
-0.000347178 	0.000348942 	0.000338789 	-0.254296
-0.000347178 	0.000348942 	0.000338789 	-0.254296
-0.000175132 	0.000356843 	0.000300161 	-0.254316
-0.000175132 	0.000356843 	0.000300161 	-0.254316
0 	0.000358462 	0.000262639 	-0.254346
0 	0.000358462 	0.000262639 	-0.254346
0.000175132 	0.000353618 	0.000226693 	-0.254387
0.000175132 	0.000353618 	0.000226693 	-0.254387
0.000347178 	0.000342565 	0.000192665 	-0.254438
0.000347178 	0.000342565 	0.000192665 	-0.254438
0.000516194 	0.000325806 	0.000160484 	-0.254497
0.000516194 	0.000325806 	0.000160484 	-0.254497
0.000682232 	0.0003039 	0.000129879 	-0.254563
0.000682232 	0.0003039 	0.000129879 	-0.254563
0.000845345 	0.000277458 	0.000100531 	-0.254637
0.000845345 	0.000277458 	0.000100531 	-0.254637
0.00100559 	0.000247119 	7.21069e-05 	-0.254718
0.00100559 	0.000247119 	7.21069e-05 	-0.254718
0.001163 	0.000213477 	4.44017e-05 	-0.254805
0.001163 	0.000213477 	4.44017e-05 	-0.254805
0.00131765 	0.000176635 	1.71794e-05 	-0.2549
0.00131765 	0.000176635 	1.71794e-05 	-0.2549
0.00146957 	0.000136203 	-1.00201e-05 	-0.255003
0.00146957 	0.000136203 	-1.00201e-05 	-0.255003
0.00161881 	9.23837e-05 	-3.75176e-05 	-0.255117
0.00161881 	9.23837e-05 	-3.75176e-05 	-0.255117
0.00176543 	4.63048e-05 	-6.54755e-05 	-0.255241
0.00176543 	4.63048e-05 	-6.54755e-05 	-0.255241
0.00190946 	-6.12726e-07 	-9.41806e-05 	-0.255374
0.00190946 	-6.12726e-07 	-9.41806e-05 	-0.255374
0.00205095 	-4.70253e-05 	-0.000123967 	-0.255514
0.00205095 	-4.70253e-05 	-0.000123967 	-0.255514
0.00218995 	-9.17662e-05 	-0.000155109 	-0.25566
0.00218995 	-9.17662e-05 	-0.000155109 	-0.25566
0.00232651 	-0.000133869 	-0.000187799 	-0.255811
0.00232651 	-0.000133869 	-0.000187799 	-0.255811
0.00246065 	-0.000172559 	-0.000222148 	-0.255967
0.00246065 	-0.000172559 	-0.000222148 	-0.255967
0.00259244 	-0.000207234 	-0.000258178 	-0.256126
0.00259244 	-0.000207234 	-0.000258178 	-0.256126
0.0027219 	-0.00023744 	-0.000295825 	-0.256288
0.0027219 	-0.00023744 	-0.000295825 	-0.256288
0.00284909 	-0.000262847 	-0.000334943 	-0.256453
0.00284909 	-0.000262847 	-0.000334943 	-0.256453
0.00297403 	-0.000283229 	-0.000375308 	-0.25662
0.00297403 	-0.000283229 	-0.000375308 	-0.25662
0.00309677 	-0.000298456 	-0.000416632 	-0.256788
0.00309677 	-0.000298456 	-0.000416632 	-0.256788
0.00321735 	-0.000308493 	-0.000458596 	-0.256954
0.00321735 	-0.000308493 	-0.000458596 	-0.256954
0.0033358 	-0.000313408 	-0.000500855 	-0.257117
0.0033358 	-0.000313408 	-0.000500855 	-0.257117
0.00345217 	-0.000313408 	-0.000542964 	-0.257274
0.00345217 	-0.000313408 	-0.000542964 	-0.257274
0.00356649 	-0.000308867 	-0.000584451 	-0.25742
0.00356649 	-0.000308867 	-0.000584451 	-0.25742
0.00367879 	-0.000300317 	-0.00062483 	-0.257553
0.00367879 	-0.000300317 	-0.00062483 	-0.257553
0.00378912 	-0.000288482 	-0.000663822 	-0.257673
0.00378912 	-0.000288482 	-0.000663822 	-0.257673
0.0038975 	-0.000274014 	-0.000701437 	-0.257779
0.0038975 	-0.000274014 	-0.000701437 	-0.257779
0.00400397 	-0.000257198 	-0.000737422 	-0.257868
0.00400397 	-0.000257198 	-0.000737422 	-0.257868
0.00410857 	-0.000238154 	-0.000771361 	-0.257935
0.00410857 	-0.000238154 	-0.000771361 	-0.257935
0.00421133 	-0.000217045 	-0.000802981 	-0.257971
0.00421133 	-0.000217045 	-0.000802981 	-0.257971
0.00431227 	-0.000194101 	-0.000832022 	-0.257964
0.00431227 	-0.000194101 	-0.000832022 	-0.257964
0.00441144 	-0.000169638 	-0.000858198 	-0.257898
0.00441144 	-0.000169638 	-0.000858198 	-0.257898
0.00450886 	-0.000144062 	-0.000881208 	-0.257755
0.00450886 	-0.000144062 	-0.000881208 	-0.257755
0.00460456 	-0.000117867 	-0.000900757 	-0.257511
0.00460456 	-0.000117867 	-0.000900757 	-0.257511
0.00469858 	-9.16029e-05 	-0.000916571 	-0.257139
0.00469858 	-9.16029e-05 	-0.000916571 	-0.257139
0.00479094 	-6.58392e-05 	-0.000928414 	-0.25661
0.00479094 	-6.58392e-05 	-0.000928414 	-0.25661
0.00488168 	-4.11149e-05 	-0.000936083 	-0.255892
0.00488168 	-4.11149e-05 	-0.000936083 	-0.255892
0.00497081 	-1.78939e-05 	-0.00093942 	-0.254951
0.00497081 	-1.78939e-05 	-0.00093942 	-0.254951
0.00505838 	3.48478e-06 	-0.000938315 	-0.253752
0.00505838 	3.48478e-06 	-0.000938315 	-0.253752
0.0051444 	2.28334e-05 	-0.000932699 	-0.252259
0.0051444 	2.28334e-05 	-0.000932699 	-0.252259
0.00522891 	4.01111e-05 	-0.000922571 	-0.250438
0.00522891 	4.01111e-05 	-0.000922571 	-0.250438
0.00531193 	5.5418e-05 	-0.000908022 	-0.248258
0.00531193 	5.5418e-05 	-0.000908022 	-0.248258
0.00539348 	6.89821e-05 	-0.000889223 	-0.245693
0.00539348 	6.89821e-05 	-0.000889223 	-0.245693
0.0054736 	8.11297e-05 	-0.0008664 	-0.242718
0.0054736 	8.11297e-05 	-0.0008664 	-0.242718
0.00555231 	9.22478e-05 	-0.000839825 	-0.239314
0.00555231 	9.22478e-05 	-0.000839825 	-0.239314
0.00562963 	0.000102743 	-0.000809819 	-0.235467
0.00562963 	0.000102743 	-0.000809819 	-0.235467
0.00570559 	0.000113004 	-0.00077674 	-0.231168
0.00570559 	0.000113004 	-0.00077674 	-0.231168
0.00578022 	0.000123366 	-0.000740981 	-0.226414
0.00578022 	0.000123366 	-0.000740981 	-0.226414
0.00585352 	0.000134079 	-0.000702958 	-0.221208
0.00585352 	0.000134079 	-0.000702958 	-0.221208
0.00592554 	0.000145291 	-0.000663104 	-0.215558
0.00592554 	0.000145291 	-0.000663104 	-0.215558
0.00599629 	0.000157034 	-0.000621854 	-0.209476
0.00599629 	0.000157034 	-0.000621854 	-0.209476
0.00606579 	0.00016922 	-0.000579639 	-0.20298
0.00606579 	0.00016922 	-0.000579639 	-0.20298
0.00613406 	0.000181643 	-0.000536878 	-0.196092
0.00613406 	0.000181643 	-0.000536878 	-0.196092
0.00620114 	0.000194 	-0.000493979 	-0.188839
0.00620114 	0.000194 	-0.000493979 	-0.188839
0.00626703 	0.000205908 	-0.000451335 	-0.18125
0.00626703 	0.000205908 	-0.000451335 	-0.18125
0.00633176 	0.000216931 	-0.000409329 	-0.173361
0.00633176 	0.000216931 	-0.000409329 	-0.173361
0.00639535 	0.000226614 	-0.000368326 	-0.165208
0.00639535 	0.000226614 	-0.000368326 	-0.165208
0.00645783 	0.000234514 	-0.000328672 	-0.156833
0.00645783 	0.000234514 	-0.000328672 	-0.156833
0.0065192 	0.000240232 	-0.000290685 	-0.148275
0.0065192 	0.000240232 	-0.000290685 	-0.148275
0.00657949 	0.00024344 	-0.000254652 	-0.139579
0.00657949 	0.00024344 	-0.000254652 	-0.139579
0.00663871 	0.000243906 	-0.00022082 	-0.130788
0.00663871 	0.000243906 	-0.00022082 	-0.130788
0.0066969 	0.000241508 	-0.000189397 	-0.121949
0.0066969 	0.000241508 	-0.000189397 	-0.121949
0.00675406 	0.000236241 	-0.000160535 	-0.113105
0.00675406 	0.000236241 	-0.000160535 	-0.113105
0.00681021 	0.000228214 	-0.000134337 	-0.1043
0.00681021 	0.000228214 	-0.000134337 	-0.1043
0.00686537 	0.000217644 	-0.000110851 	-0.0955776
0.00686537 	0.000217644 	-0.000110851 	-0.0955776
0.00691956 	0.000204835 	-9.00742e-05 	-0.0869795
0.00691956 	0.000204835 	-9.00742e-05 	-0.0869795
0.0069728 	0.000190154 	-7.19513e-05 	-0.0785427
0.0069728 	0.000190154 	-7.19513e-05 	-0.0785427
0.0070251 	0.000173998 	-5.63747e-05 	-0.0702974
0.0070251 	0.000173998 	-5.63747e-05 	-0.0702974
0.00707647 	0.000156765 	-4.31936e-05 	-0.0622654
0.00707647 	0.000156765 	-4.31936e-05 	-0.0622654
0.00712695 	0.000138829 	-3.22248e-05 	-0.0544604
0.00712695 	0.000138829 	-3.22248e-05 	-0.0544604
0.00717653 	0.000120523 	-2.32647e-05 	-0.0468886
0.00717653 	0.000120523 	-2.32647e-05 	-0.0468886
0.00722524 	0.000102133 	-1.61016e-05 	-0.0395501
0.00722524 	0.000102133 	-1.61016e-05 	-0.0395501
0.00727309 	8.38941e-05 	-1.05255e-05 	-0.0324408
0.00727309 	8.38941e-05 	-1.05255e-05 	-0.0324408
0.0073201 	6.59935e-05 	-6.33479e-06 	-0.0255532
0.0073201 	6.59935e-05 	-6.33479e-06 	-0.0255532
0.00736628 	4.85762e-05 	-3.35224e-06 	-0.0188781
0.00736628 	4.85762e-05 	-3.35224e-06 	-0.0188781
0.00741165 	3.1736e-05 	-1.41056e-06 	-0.0124056
0.00741165 	3.1736e-05 	-1.41056e-06 	-0.0124056
0.00745622 	1.55303e-05 	-3.59283e-07 	-0.00612536
0.00745622 	1.55303e-05 	-3.59283e-07 	-0.00612536
0.0075 	0 	0 	0
0.0075 	0 	0 	0
