/*--------------------------------*- C++ -*----------------------------------*\
| =========                 |                                                 |
| \\      /  F ield         | OpenFOAM: The Open Source CFD Toolbox           |
|  \\    /   O peration     | Version:  v1912                                 |
|   \\  /    A nd           | Website:  www.openfoam.com                      |
|    \\/     M anipulation  |                                                 |
\*---------------------------------------------------------------------------*/
FoamFile
{
    version     2.0;
    format      ascii;
    class       volScalarField;
    location    "198.8";
    object      k;
}
// * * * * * * * * * * * * * * * * * * * * * * * * * * * * * * * * * * * * * //

dimensions      [0 2 -2 0 0 0 0];


internalField   nonuniform List<scalar> 
10077
(
0.000328256
0.000280322
0.000242853
0.000238321
0.000240797
0.000241797
0.000241541
0.000241233
0.000241171
0.000241275
0.00024163
0.000241929
0.000240976
0.000238558
0.000243067
0.000280295
0.000319746
0.000278
0.000247037
0.000243744
0.000246049
0.000246373
0.000245574
0.000244892
0.000244742
0.000244949
0.000245688
0.000246532
0.000246254
0.000244009
0.000247286
0.000278016
0.000312573
0.000276644
0.00025177
0.000249744
0.000251949
0.000251682
0.00025039
0.000249366
0.000249135
0.000249436
0.000250526
0.000251867
0.000252178
0.000250032
0.00025205
0.0002767
0.000306676
0.000276216
0.000257014
0.000256247
0.000258413
0.000257633
0.000255895
0.000254561
0.000254257
0.000254643
0.000256051
0.00025784
0.000258662
0.000256557
0.000257323
0.00027631
0.000301995
0.000276675
0.000262729
0.00026319
0.000265366
0.000264143
0.000262004
0.000260391
0.000260022
0.000260483
0.000262178
0.000264369
0.000265632
0.000263519
0.000263065
0.000276806
0.000298475
0.000277979
0.000268879
0.000270516
0.000272739
0.000271136
0.000268641
0.000266777
0.000266351
0.000266879
0.00026883
0.00027138
0.000273021
0.000270862
0.000269239
0.000278145
0.000296059
0.00028008
0.000275424
0.000278174
0.000280474
0.000278547
0.000275735
0.000273648
0.000273172
0.000273759
0.000275938
0.000278805
0.00028077
0.000278534
0.000275807
0.000280279
0.00029469
0.000282931
0.000282329
0.000286113
0.000288514
0.000286314
0.000283223
0.000280939
0.000280421
0.000281058
0.000283438
0.000286586
0.000288821
0.000286487
0.000282732
0.000283161
0.000294311
0.000286481
0.000289556
0.000294289
0.000296805
0.000294381
0.000291047
0.000288592
0.000288039
0.000288718
0.000291274
0.000294664
0.000297123
0.000294675
0.000289978
0.00028674
0.00029486
0.000290677
0.000297073
0.000302665
0.000305307
0.000302695
0.000299154
0.000296552
0.00029597
0.000296684
0.000299391
0.000302989
0.000305634
0.000303062
0.000297511
0.000290964
0.000296278
0.000295469
0.000304844
0.000311212
0.000313987
0.000311218
0.000307497
0.000304768
0.000304165
0.000304905
0.000307742
0.000311521
0.000314322
0.000311618
0.000305297
0.000295781
0.000298502
0.000300804
0.000312839
0.000319901
0.000322813
0.000319912
0.000316037
0.0003132
0.000312581
0.000313343
0.00031629
0.000320224
0.000323156
0.000320316
0.000313305
0.000301139
0.000301471
0.000306632
0.000321028
0.00032871
0.00033176
0.000328748
0.000324741
0.000321813
0.000321182
0.00032196
0.000325002
0.000329067
0.000332109
0.000329132
0.000321506
0.000306989
0.000305121
0.000312905
0.000329386
0.000337615
0.000340803
0.000337698
0.000333579
0.000330576
0.000329939
0.000330727
0.000333846
0.000338024
0.000341159
0.000338045
0.000329876
0.000313281
0.000309393
0.000319576
0.00033789
0.000346599
0.000349923
0.000346736
0.000342525
0.000339462
0.000338824
0.000339617
0.000342798
0.000347069
0.000350284
0.000347035
0.000338391
0.000319972
0.000314228
0.000326604
0.000346519
0.000355641
0.000359099
0.000355842
0.000351556
0.000348447
0.000347811
0.000348605
0.000351834
0.00035618
0.000359465
0.000356084
0.00034703
0.000327017
0.000319573
0.000333951
0.000355257
0.000364728
0.000368316
0.000364998
0.00036065
0.000357509
0.00035688
0.000357669
0.000360933
0.000365341
0.000368687
0.000365176
0.000355776
0.00033438
0.000325377
0.000341582
0.000364088
0.00037385
0.000377564
0.000374191
0.000369794
0.000366632
0.000366014
0.000366796
0.000370081
0.000374539
0.000377938
0.000374303
0.000364616
0.000342026
0.000331594
0.000349468
0.000373005
0.000382999
0.000386836
0.000383416
0.000378977
0.000375807
0.000375202
0.000375972
0.000379269
0.000383768
0.000387214
0.000383457
0.000373541
0.000349925
0.000338184
0.000357583
0.000382001
0.000392175
0.000396131
0.000392668
0.000388195
0.000385025
0.000384437
0.000385193
0.000388491
0.000393024
0.000396512
0.000392638
0.000382543
0.000358053
0.000345115
0.000365908
0.000391073
0.000401379
0.000405449
0.000401947
0.000397446
0.000394284
0.000393716
0.000394454
0.000397745
0.000402307
0.000405834
0.000401846
0.000391622
0.00036639
0.000352357
0.000374427
0.000400223
0.000410615
0.000414795
0.000411257
0.000406732
0.000403587
0.00040304
0.000403758
0.000407034
0.00041162
0.000415183
0.000411086
0.000400778
0.00037492
0.000359889
0.000383129
0.000409454
0.000419892
0.000424179
0.000420605
0.00041606
0.000412937
0.000412414
0.00041311
0.000416365
0.000420973
0.00042457
0.000420367
0.000410015
0.000383633
0.0003677
0.000392008
0.000418775
0.000429221
0.000433613
0.000430004
0.000425439
0.000422345
0.000421847
0.000422519
0.000425747
0.000430374
0.000434006
0.000429699
0.000419342
0.000392521
0.000375783
0.000401062
0.000428198
0.000438616
0.000443112
0.000439465
0.000434884
0.000431822
0.000431351
0.000431998
0.000435194
0.000439839
0.000443507
0.000439098
0.00042877
0.000401585
0.000384141
0.000410297
0.000437738
0.000448095
0.000452694
0.000449009
0.00044441
0.000441386
0.000440945
0.000441564
0.000444724
0.000449385
0.000453092
0.00044858
0.000438315
0.000410829
0.00039276
0.000419684
0.000447367
0.000457633
0.000462336
0.000458609
0.000453994
0.000451012
0.000450601
0.000451191
0.00045431
0.000458989
0.000462737
0.000458121
0.00044795
0.000420224
0.000401621
0.00042919
0.000457036
0.000467183
0.000471993
0.000468219
0.000463588
0.000460652
0.000460272
0.000460832
0.000463907
0.000468603
0.000472396
0.000467675
0.000457624
0.000429737
0.000410702
0.000438795
0.000466693
0.000476707
0.000481628
0.000477798
0.000473143
0.000470257
0.000469911
0.000470438
0.000473466
0.000478186
0.000482035
0.000477203
0.000467286
0.000439347
0.000419981
0.000448487
0.000476339
0.000486183
0.000491203
0.000487327
0.00048266
0.000479832
0.000479523
0.000480015
0.000482986
0.000487719
0.000491613
0.000486683
0.000476935
0.000449043
0.000429441
0.000458276
0.000485973
0.000495589
0.000500684
0.00049679
0.000492139
0.000489391
0.000489121
0.000489575
0.000492468
0.000497186
0.000501097
0.000496093
0.000486572
0.000458836
0.000439071
0.000468185
0.000495556
0.000504888
0.000510031
0.000506149
0.000501546
0.000498902
0.000498671
0.000499086
0.000501877
0.000506549
0.000510449
0.000505395
0.000496156
0.000468748
0.000448877
0.0004782
0.000505031
0.000514037
0.000519204
0.000515359
0.000510831
0.000508308
0.000508116
0.000508493
0.000511164
0.000515763
0.000519625
0.000514546
0.000505629
0.000478763
0.000458878
0.000488224
0.000514329
0.000522986
0.000528153
0.000524366
0.000519934
0.000517546
0.000517391
0.000517731
0.00052027
0.000524774
0.000528578
0.000523498
0.000514926
0.000488785
0.000469021
0.000498137
0.000523381
0.000531678
0.000536824
0.000533111
0.000528794
0.000526545
0.000526428
0.00052673
0.000529131
0.000533522
0.000537253
0.000532192
0.000523975
0.000498693
0.000479176
0.000507821
0.000532109
0.000540048
0.000545153
0.000541527
0.000537341
0.000535233
0.000535153
0.000535418
0.00053768
0.000541943
0.000545587
0.000540565
0.0005327
0.00050837
0.000489207
0.000517172
0.00054044
0.000548031
0.000553074
0.000549549
0.000545509
0.00054354
0.000543497
0.000543725
0.000545849
0.000549968
0.000553513
0.00054855
0.000541027
0.000517712
0.00049899
0.000526104
0.000548301
0.000555562
0.000560522
0.000557111
0.000553232
0.000551398
0.000551391
0.000551583
0.000553573
0.000557534
0.000560966
0.000556083
0.000548884
0.000526635
0.00050842
0.000534551
0.000555639
0.000562589
0.000567443
0.000564162
0.000560459
0.000558756
0.000558784
0.00055894
0.000560801
0.000564588
0.000567893
0.000563113
0.000556217
0.000535071
0.000517405
0.000542458
0.000562409
0.000569072
0.000573799
0.000570662
0.000567151
0.000565573
0.000565635
0.000565757
0.000567493
0.000571092
0.000574254
0.000569598
0.000562981
0.000542965
0.000525873
0.000549772
0.000568572
0.000574975
0.000579555
0.000576577
0.000573268
0.000571809
0.000571904
0.000571993
0.000573611
0.00057701
0.000580017
0.000575502
0.000569138
0.000550265
0.000533759
0.000556452
0.000574096
0.000580263
0.00058468
0.000581871
0.000578774
0.000577429
0.000577555
0.000577613
0.000579117
0.000582307
0.000585148
0.000580791
0.000574654
0.000556931
0.000541
0.000562453
0.000578943
0.000584894
0.000589135
0.000586503
0.000583624
0.00058239
0.000582544
0.000582572
0.000583967
0.000586942
0.000589608
0.000585423
0.000579493
0.000562917
0.000547518
0.000567711
0.000583055
0.000588801
0.000592858
0.000590408
0.00058775
0.000586623
0.000586805
0.000586806
0.000588093
0.00059085
0.000593336
0.000589331
0.000583597
0.000568159
0.000553213
0.000572134
0.000586341
0.000591887
0.000595752
0.000593488
0.000591053
0.000590033
0.00059024
0.000590215
0.000591396
0.000593933
0.000596236
0.000592418
0.000586873
0.000572566
0.00055796
0.000575601
0.00058868
0.000594031
0.000597697
0.000595622
0.000593411
0.000592497
0.000592728
0.000592679
0.000593754
0.00059607
0.000598186
0.000594562
0.000589204
0.000576017
0.000561622
0.000577977
0.000589941
0.000595099
0.00059856
0.000596677
0.00059469
0.000593881
0.000594134
0.000594063
0.000595033
0.000597127
0.000599054
0.00059563
0.000590454
0.000578377
0.000564059
0.000579124
0.000589986
0.000594957
0.000598206
0.000596516
0.000594754
0.000594049
0.000594322
0.00059423
0.000595097
0.000596969
0.000598705
0.000595486
0.000590489
0.000579506
0.000565128
0.000578901
0.000588678
0.000593467
0.0005965
0.000595005
0.000593467
0.000592864
0.000593154
0.000593044
0.000593808
0.000595459
0.000597003
0.000593994
0.00058917
0.000579266
0.000564682
0.000577167
0.000585881
0.000590492
0.000593305
0.000592005
0.000590689
0.000590186
0.000590491
0.000590366
0.00059103
0.00059246
0.000593811
0.000591017
0.000586361
0.000577515
0.000562572
0.000573779
0.000581451
0.00058589
0.000588479
0.000587375
0.000586278
0.000585872
0.000586189
0.000586051
0.000586617
0.00058783
0.000588989
0.000586412
0.000581919
0.000574109
0.000558644
0.000568587
0.000575242
0.000579512
0.000581875
0.000580963
0.000580082
0.00057977
0.000580098
0.000579948
0.00058042
0.000581419
0.000582386
0.000580031
0.000575697
0.000568898
0.000552733
0.000561432
0.000567098
0.000571202
0.000573337
0.000572615
0.000571945
0.000571723
0.000572059
0.0005719
0.00057228
0.000573069
0.000573849
0.000571716
0.00056754
0.000561726
0.000544666
0.000552149
0.000556854
0.000560794
0.000562701
0.000562164
0.000561699
0.000561564
0.000561905
0.000561738
0.000562031
0.000562615
0.000563213
0.000561302
0.000557282
0.000552424
0.000534245
0.000540546
0.000544325
0.000548102
0.000549783
0.000549423
0.000549156
0.000549103
0.000549449
0.000549276
0.000549484
0.000549871
0.000550292
0.000548604
0.000544738
0.000540802
0.000521255
0.000526412
0.000529302
0.000532918
0.000534374
0.000534184
0.000534108
0.000534132
0.00053448
0.000534302
0.00053443
0.000534628
0.00053488
0.000533412
0.0005297
0.00052665
0.000505481
0.000509541
0.000511583
0.000515039
0.000516273
0.000516245
0.000516348
0.000516445
0.000516792
0.000516612
0.000516663
0.000516681
0.000516774
0.000515523
0.000511966
0.000509761
0.000486712
0.00048973
0.000490972
0.000494265
0.000495282
0.000495405
0.000495676
0.000495841
0.000496185
0.000496003
0.000495984
0.000495834
0.000495776
0.000494738
0.000491337
0.000489932
0.00046475
0.000466789
0.000467284
0.000470412
0.00047122
0.000471481
0.000471905
0.000472131
0.00047247
0.000472289
0.000472205
0.000471899
0.000471704
0.000470872
0.000467632
0.000466973
0.000439423
0.000440556
0.000440366
0.000443322
0.000443931
0.000444315
0.000444877
0.000445156
0.000445487
0.000445309
0.000445165
0.00044472
0.000444402
0.000443766
0.000440696
0.000440721
0.00041061
0.000410918
0.000410116
0.000412891
0.000413313
0.000413803
0.000414483
0.000414808
0.000415128
0.000414954
0.000414759
0.000414193
0.000413768
0.000413317
0.000410426
0.000411066
0.000378272
0.00037785
0.000376518
0.000379101
0.00037935
0.000379928
0.000380703
0.000381065
0.00038137
0.000381203
0.000380965
0.000380299
0.000379785
0.000379505
0.000376806
0.00037798
0.000342501
0.00034145
0.000339677
0.000342054
0.000342147
0.000342792
0.000343638
0.000344026
0.000344314
0.000344156
0.000343884
0.000343141
0.000342558
0.000342433
0.000339942
0.000341563
0.000303546
0.000301935
0.000299788
0.000301936
0.000301884
0.00030258
0.000303479
0.000303884
0.000304152
0.000304004
0.000303705
0.000302904
0.000302267
0.000302286
0.000300028
0.000302031
0.000261662
0.000259646
0.000257262
0.000259161
0.000258993
0.000259711
0.000260625
0.000261033
0.000261276
0.000261142
0.000260829
0.000260004
0.000259342
0.000259478
0.000257474
0.000259724
0.000217891
0.000215668
0.000213224
0.000214857
0.000214614
0.000215314
0.000216197
0.000216589
0.000216802
0.000216684
0.000216375
0.000215572
0.000214922
0.000215134
0.000213405
0.00021573
0.000173986
0.000171774
0.000169458
0.000170812
0.00017054
0.000171181
0.000171985
0.000172339
0.000172518
0.000172419
0.000172135
0.000171399
0.0001708
0.000171045
0.000169608
0.000171821
0.000132225
0.00013023
0.000128213
0.000129286
0.000129028
0.000129575
0.000130256
0.000130555
0.000130698
0.000130618
0.000130376
0.000129748
0.000129236
0.000129472
0.000128331
0.000130265
9.50041e-05
9.33789e-05
9.17763e-05
9.25792e-05
9.23657e-05
9.27966e-05
9.33302e-05
9.3563e-05
9.36697e-05
9.36105e-05
9.34195e-05
9.29268e-05
9.25224e-05
9.27189e-05
9.18639e-05
9.34033e-05
6.42051e-05
6.30138e-05
6.18588e-05
6.24215e-05
6.22661e-05
6.25771e-05
6.296e-05
6.31266e-05
6.32009e-05
6.31597e-05
6.30223e-05
6.26679e-05
6.23756e-05
6.2519e-05
6.19195e-05
6.303e-05
4.06533e-05
3.98689e-05
3.91156e-05
3.94823e-05
3.93825e-05
3.95872e-05
3.98381e-05
3.99471e-05
3.99951e-05
3.99685e-05
3.98783e-05
3.96459e-05
3.94533e-05
3.95454e-05
3.91548e-05
3.98792e-05
2.40042e-05
2.35402e-05
2.30958e-05
2.33167e-05
2.32601e-05
2.33827e-05
2.35324e-05
2.35976e-05
2.36263e-05
2.36104e-05
2.35564e-05
2.34177e-05
2.33023e-05
2.33544e-05
2.31192e-05
2.35464e-05
1.30963e-05
1.28502e-05
1.26136e-05
1.27358e-05
1.27075e-05
1.2774e-05
1.28552e-05
1.28906e-05
1.29063e-05
1.28976e-05
1.28683e-05
1.27932e-05
1.27305e-05
1.27564e-05
1.26265e-05
1.28537e-05
6.47878e-06
6.36305e-06
6.25085e-06
6.31184e-06
6.2995e-06
6.33182e-06
6.37119e-06
6.38846e-06
6.39629e-06
6.39192e-06
6.3777e-06
6.3413e-06
6.3109e-06
6.32203e-06
6.25725e-06
6.36486e-06
2.80371e-06
2.75691e-06
2.71093e-06
2.7375e-06
2.73301e-06
2.74662e-06
2.76319e-06
2.77051e-06
2.77391e-06
2.772e-06
2.76601e-06
2.75071e-06
2.73792e-06
2.7419e-06
2.71372e-06
2.75773e-06
9.92539e-07
9.77262e-07
9.61989e-07
9.71439e-07
9.70173e-07
9.74831e-07
9.80515e-07
9.83039e-07
9.84249e-07
9.83569e-07
9.81513e-07
9.76277e-07
9.71902e-07
9.72991e-07
9.6298e-07
9.77568e-07
2.53704e-07
2.50091e-07
2.4642e-07
2.48832e-07
2.48584e-07
2.49742e-07
2.51153e-07
2.51783e-07
2.52093e-07
2.51918e-07
2.51407e-07
2.50109e-07
2.49023e-07
2.49226e-07
2.46673e-07
2.50172e-07
4.86362e-08
4.77544e-08
4.69259e-08
4.73329e-08
4.72543e-08
4.75123e-08
4.78139e-08
4.79467e-08
4.80002e-08
4.79709e-08
4.78597e-08
4.75789e-08
4.73344e-08
4.74038e-08
4.69697e-08
4.77653e-08
1.14109e-07
1.10771e-07
1.0795e-07
1.08628e-07
1.08205e-07
1.0903e-07
1.0994e-07
1.10328e-07
1.10424e-07
1.10377e-07
1.10033e-07
1.09169e-07
1.08377e-07
1.08773e-07
1.08029e-07
1.1077e-07
0.000250131
0.000248368
0.000252808
0.000249736
0.000246101
0.00024455
0.000244235
0.000244486
0.000244513
0.000244546
0.000244335
0.000244654
0.000246174
0.000249777
0.000252804
0.000248332
0.000257562
0.000254236
0.000256241
0.000253254
0.00025003
0.000249036
0.000248974
0.000249403
0.000249445
0.000249471
0.000249086
0.000249155
0.000250116
0.0002533
0.000256235
0.000254196
0.000265333
0.000260627
0.00026048
0.000257557
0.000254714
0.000254234
0.000254404
0.000254997
0.000255052
0.000255072
0.000254529
0.000254367
0.000254812
0.000257608
0.000260471
0.000260581
0.000273404
0.000267484
0.000265454
0.000262585
0.000260093
0.000260083
0.000260465
0.000261208
0.000261273
0.00026129
0.0002606
0.000260228
0.000260203
0.00026264
0.000265443
0.000267433
0.000281741
0.000274756
0.000271094
0.000268279
0.000266111
0.000266526
0.000267099
0.000267979
0.000268052
0.000268066
0.000267244
0.000266682
0.000266231
0.000268338
0.00027108
0.0002747
0.000290316
0.0002824
0.000277337
0.000274582
0.000272711
0.00027351
0.000274252
0.000275256
0.000275335
0.000275349
0.000274407
0.000273676
0.00027284
0.000274644
0.000277321
0.000282339
0.000299108
0.000290377
0.000284123
0.000281439
0.000279839
0.000280983
0.000281876
0.00028299
0.000283073
0.000283088
0.000282039
0.000281159
0.000279976
0.000281504
0.000284103
0.000290311
0.000308097
0.000298652
0.000291395
0.000288796
0.000287445
0.000288894
0.000289918
0.000291131
0.000291216
0.000291233
0.000290088
0.000289078
0.00028759
0.000288864
0.000291373
0.000298582
0.000317267
0.000307192
0.000299101
0.000296602
0.000295474
0.00029719
0.000298326
0.000299627
0.000299712
0.000299734
0.000298503
0.000297382
0.000295625
0.000296672
0.000299078
0.000307118
0.0003266
0.000315967
0.00030719
0.000304803
0.000303874
0.000305823
0.000307056
0.000308436
0.00030852
0.000308546
0.000307239
0.000306023
0.000304031
0.000304875
0.000307165
0.000315888
0.000336083
0.000324949
0.000315615
0.000313351
0.000312602
0.000314756
0.000316072
0.000317523
0.000317603
0.000317637
0.000316261
0.000314962
0.000312765
0.000313426
0.000315589
0.000324866
0.000345701
0.000334117
0.000324337
0.000322207
0.000321621
0.000323956
0.000325343
0.000326859
0.000326934
0.000326976
0.000325538
0.000324167
0.00032179
0.000322285
0.00032431
0.000334031
0.000355443
0.000343454
0.000333322
0.000331337
0.000330901
0.000333393
0.000334843
0.000336418
0.000336487
0.000336538
0.000335042
0.000333611
0.000331074
0.000331418
0.000333295
0.000343364
0.0003653
0.000352942
0.000342542
0.00034071
0.000340411
0.000343044
0.000344546
0.000346177
0.000346237
0.000346299
0.000344749
0.000343267
0.00034059
0.000340793
0.000342515
0.000352849
0.000375264
0.000362567
0.000351971
0.000350298
0.000350127
0.000352885
0.00035443
0.000356113
0.000356164
0.000356238
0.000354638
0.000353112
0.00035031
0.000350384
0.000351943
0.000362471
0.000385329
0.000372318
0.000361586
0.000360074
0.000360022
0.000362896
0.000364476
0.000366209
0.000366248
0.000366336
0.000364688
0.000363128
0.00036021
0.000360164
0.000361557
0.000372219
0.000395487
0.00038218
0.000371366
0.000370018
0.000370076
0.000373057
0.000374666
0.000376445
0.000376471
0.000376574
0.000374881
0.000373294
0.000370269
0.000370111
0.000371338
0.000382079
0.000405734
0.000392144
0.000381294
0.000380111
0.000380269
0.000383353
0.000384984
0.000386807
0.000386819
0.000386937
0.000385203
0.000383593
0.000380467
0.000380208
0.000381266
0.00039204
0.000416064
0.000402199
0.000391355
0.000390338
0.000390587
0.000393768
0.000395417
0.000397282
0.000397277
0.000397414
0.000395638
0.000394013
0.000390789
0.000390439
0.000391327
0.000402093
0.000426474
0.000412338
0.000401536
0.000400687
0.000401016
0.000404291
0.000405953
0.000407859
0.000407836
0.000407993
0.000406177
0.00040454
0.000401223
0.000400791
0.000401508
0.00041223
0.000436962
0.000422553
0.000411826
0.000411145
0.000411547
0.000414912
0.000416583
0.000418529
0.000418487
0.000418664
0.000416809
0.000415164
0.000411759
0.000411254
0.000411799
0.000422444
0.000447528
0.000432841
0.000422218
0.000421708
0.000422176
0.000425624
0.000427301
0.000429287
0.000429223
0.000429423
0.00042753
0.00042588
0.000422392
0.00042182
0.000422192
0.000432731
0.000458226
0.000443202
0.00043271
0.000432372
0.0004329
0.000436427
0.000438105
0.000440132
0.000440044
0.000440269
0.000438336
0.000436686
0.00043312
0.000432489
0.000432686
0.000443091
0.000469126
0.000453637
0.000443302
0.000443138
0.000443721
0.000447323
0.000448997
0.000451065
0.000450952
0.000451203
0.00044923
0.000447585
0.000443947
0.00044326
0.00044328
0.000453526
0.000480205
0.000464179
0.000453997
0.000454012
0.000454646
0.000458316
0.000459981
0.000462092
0.000461952
0.000462231
0.000460218
0.000458582
0.000454877
0.000454138
0.000453977
0.000464065
0.000491415
0.00047487
0.000464803
0.000465
0.000465684
0.000469416
0.000471067
0.000473222
0.000473052
0.000473362
0.000471306
0.000469686
0.00046592
0.000465133
0.000464785
0.000474754
0.000502665
0.000485672
0.000475689
0.000476073
0.000476805
0.000480595
0.000482233
0.00048444
0.000484238
0.000484582
0.000482475
0.000480869
0.000477046
0.000476211
0.000475673
0.000485553
0.000513849
0.000496489
0.000486621
0.000487192
0.000487969
0.00049182
0.000493446
0.000495715
0.000495476
0.000495857
0.00049369
0.000492099
0.000488217
0.000487337
0.000486608
0.000496369
0.000524866
0.000507214
0.000497558
0.000498319
0.00049914
0.000503044
0.000504647
0.000506968
0.000506693
0.000507112
0.000504894
0.000503327
0.000499394
0.000498471
0.000497548
0.000507095
0.000535626
0.000517746
0.000508409
0.00050937
0.000510231
0.000514174
0.000515744
0.000518105
0.000517795
0.00051825
0.000515995
0.000514463
0.000510493
0.00050953
0.000508404
0.00051763
0.000546034
0.000527981
0.000519054
0.000520223
0.00052112
0.000525088
0.00052662
0.000529012
0.000528668
0.000529159
0.000526875
0.000525384
0.000521391
0.000520392
0.000519056
0.000527869
0.000555984
0.000537852
0.000529415
0.000530788
0.000531716
0.000535691
0.000537181
0.000539591
0.000539218
0.00053974
0.000537441
0.000535994
0.000531997
0.00053097
0.000529426
0.000537748
0.000565427
0.000547324
0.000539416
0.000540986
0.00054194
0.000545906
0.000547358
0.000549775
0.000549376
0.000549925
0.000547621
0.000546216
0.000542231
0.00054118
0.000539439
0.000547227
0.000574333
0.000556353
0.000548984
0.000550737
0.000551714
0.00055566
0.000557079
0.000559495
0.000559075
0.000559647
0.000557347
0.000555977
0.000552017
0.000550945
0.000549019
0.000556264
0.000582666
0.000564885
0.000558049
0.000559972
0.000560969
0.000564886
0.00056628
0.000568686
0.000568249
0.000568839
0.000566551
0.000565211
0.000561283
0.000560193
0.000558096
0.000564807
0.00059038
0.000572867
0.000566545
0.000568625
0.000569643
0.000573522
0.000574897
0.000577285
0.000576836
0.00057744
0.000575173
0.000573854
0.000569969
0.000568861
0.000566607
0.000572798
0.000597429
0.000580244
0.000574419
0.000576642
0.000577682
0.000581514
0.000582879
0.000585237
0.000584783
0.000585394
0.000583158
0.000581854
0.000578021
0.000576895
0.000574497
0.000580186
0.000603766
0.000586974
0.000581627
0.000583983
0.000585047
0.000588823
0.000590184
0.000592502
0.000592047
0.00059266
0.000590467
0.000589171
0.000585398
0.000584251
0.000581721
0.000586926
0.000609363
0.000593029
0.000588143
0.000590621
0.000591713
0.000595424
0.000596787
0.000599053
0.000598604
0.000599212
0.000597073
0.000595779
0.000592077
0.000590906
0.000588254
0.000592993
0.000614208
0.000598405
0.000593964
0.000596557
0.000597679
0.000601316
0.000602686
0.000604888
0.00060445
0.000605048
0.000602976
0.000601677
0.000598056
0.000596858
0.000594093
0.00059838
0.000618312
0.000603108
0.000599103
0.000601802
0.00060296
0.000606512
0.000607895
0.000610021
0.0006096
0.000610181
0.000608187
0.000606881
0.000603348
0.000602119
0.000599249
0.000603095
0.000621683
0.00060714
0.000603565
0.000606365
0.000607564
0.000611025
0.000612421
0.000614462
0.000614062
0.000614623
0.000612715
0.000611399
0.000607964
0.000606698
0.000603729
0.00060714
0.000624312
0.00061048
0.000607338
0.000610237
0.000611482
0.000614844
0.000616254
0.000618203
0.000617826
0.000618364
0.000616551
0.000615225
0.000611893
0.000610585
0.00060752
0.000610493
0.000626155
0.000613075
0.000610375
0.00061337
0.00061467
0.000617927
0.000619349
0.000621199
0.000620848
0.00062136
0.000619647
0.000618313
0.000615093
0.000613734
0.000610576
0.000613101
0.00062713
0.00061484
0.000612595
0.000615685
0.000617048
0.000620191
0.000621622
0.000623367
0.000623046
0.000623529
0.000621922
0.000620583
0.000617482
0.000616064
0.000612814
0.000614879
0.000627139
0.000615671
0.000613893
0.000617078
0.000618511
0.000621533
0.000622969
0.000624606
0.000624314
0.000624768
0.000623271
0.000621931
0.000618956
0.000617472
0.000614132
0.000615724
0.000626074
0.000615461
0.000614159
0.000617435
0.000618946
0.000621841
0.000623277
0.000624801
0.000624541
0.000624963
0.000623582
0.000622245
0.000619401
0.000617844
0.000614416
0.000615528
0.000623826
0.000614098
0.000613275
0.000616641
0.000618235
0.000620997
0.00062243
0.000623835
0.00062361
0.000623998
0.000622736
0.000621406
0.000618699
0.000617064
0.000613551
0.000614179
0.000620281
0.000611464
0.00061112
0.000614571
0.000616253
0.000618877
0.000620302
0.000621587
0.000621396
0.00062175
0.000620611
0.000619291
0.000616727
0.000615008
0.000611415
0.000611559
0.000615318
0.000607432
0.000607563
0.000611096
0.000612868
0.00061535
0.000616764
0.000617925
0.00061777
0.000618088
0.000617074
0.000615769
0.000613351
0.000611546
0.000607875
0.00060754
0.000608805
0.000601864
0.000602463
0.000606075
0.000607939
0.000610276
0.000611674
0.00061271
0.000612591
0.000612873
0.000611985
0.000610699
0.00060843
0.000606538
0.000602793
0.000601986
0.000600602
0.000594613
0.000595671
0.000599356
0.000601313
0.000603503
0.000604881
0.000605791
0.000605708
0.000605953
0.000605192
0.000603929
0.000601811
0.000599831
0.000596018
0.000594749
0.000590557
0.00058552
0.000587024
0.000590778
0.000592825
0.000594867
0.00059622
0.000597005
0.000596956
0.000597166
0.000596531
0.000595296
0.000593329
0.000591262
0.000587387
0.000585669
0.000578504
0.000574413
0.000576347
0.000580162
0.000582297
0.00058419
0.000585513
0.000586175
0.000586159
0.000586334
0.000585823
0.00058462
0.000582806
0.000580655
0.000576725
0.000574574
0.000564261
0.000561099
0.000563445
0.000567314
0.000569531
0.000571277
0.000572565
0.000573106
0.000573122
0.000573264
0.000572874
0.000571708
0.000570044
0.000567815
0.000563836
0.000561271
0.000547613
0.000545356
0.000548092
0.000552005
0.000554297
0.000555898
0.000557146
0.000557569
0.000557615
0.000557725
0.000557452
0.000556327
0.000554811
0.000552512
0.000548496
0.00054554
0.000528349
0.000526966
0.000530063
0.000534007
0.000536363
0.000537821
0.000539024
0.000539335
0.000539407
0.000539489
0.000539327
0.000538248
0.000536878
0.000534518
0.000530478
0.00052716
0.000506262
0.000505711
0.000509135
0.000513092
0.000515498
0.000516816
0.00051797
0.000518175
0.00051827
0.000518325
0.000518269
0.00051724
0.000516011
0.000513606
0.000509558
0.000505913
0.000481156
0.000481384
0.000485095
0.000489044
0.000491481
0.000492664
0.000493763
0.00049387
0.000493984
0.000494016
0.000494056
0.000493082
0.000491989
0.000489555
0.000485522
0.000481592
0.000452866
0.000453807
0.000457754
0.000461667
0.000464112
0.000465167
0.000466207
0.000466225
0.000466354
0.000466367
0.000466492
0.000465577
0.000464613
0.000462174
0.000458184
0.00045402
0.000421279
0.000422854
0.000426979
0.00043082
0.000433244
0.000434177
0.000435153
0.000435095
0.000435234
0.000435231
0.000435429
0.000434576
0.000433733
0.000431318
0.000427406
0.00042307
0.00038637
0.000388487
0.000392717
0.000396443
0.000398816
0.000399633
0.00040054
0.000400418
0.000400564
0.000400548
0.000400805
0.000400017
0.000399289
0.000396927
0.000393137
0.000388702
0.000348236
0.000350791
0.000355043
0.000358608
0.000360897
0.000361604
0.000362436
0.000362263
0.00036241
0.000362385
0.000362686
0.00036197
0.000361349
0.000359073
0.00035545
0.000351003
0.000307028
0.000309943
0.000314146
0.000317511
0.000319689
0.000320286
0.000321035
0.000320819
0.000320965
0.000320932
0.000321269
0.000320629
0.000320115
0.000317951
0.000314535
0.000310148
0.00026321
0.000266331
0.000270361
0.000273465
0.000275486
0.00027598
0.00027664
0.000276398
0.000276537
0.0002765
0.000276854
0.000276296
0.000275879
0.000273872
0.000270725
0.000266525
0.000217942
0.000221072
0.000224782
0.000227551
0.000229365
0.000229763
0.000230328
0.000230079
0.000230207
0.00023017
0.000230518
0.000230045
0.000229716
0.000227915
0.00022511
0.000221248
0.000173046
0.000175972
0.000179218
0.000181583
0.00018314
0.000183452
0.000183918
0.000183683
0.000183793
0.000183759
0.000184079
0.000183693
0.000183441
0.000181896
0.0001795
0.000176126
0.000130815
0.000133344
0.000136014
0.000137926
0.00013919
0.000139426
0.000139791
0.000139588
0.000139678
0.000139649
0.000139921
0.000139621
0.000139434
0.00013818
0.000136244
0.000133471
9.3572e-05
9.55764e-05
9.76188e-05
9.90656e-05
0.000100024
0.000100196
0.000100465
0.000100306
0.000100374
0.000100352
0.000100564
0.000100343
0.00010021
9.92584e-05
9.77943e-05
9.56732e-05
6.30408e-05
6.44882e-05
6.59304e-05
6.69456e-05
6.76202e-05
6.77383e-05
6.7925e-05
6.78113e-05
6.78589e-05
6.78437e-05
6.7994e-05
6.78423e-05
6.77506e-05
6.70814e-05
6.60541e-05
6.45566e-05
3.98607e-05
4.08101e-05
4.17463e-05
4.24037e-05
4.28415e-05
4.29185e-05
4.30389e-05
4.29657e-05
4.29963e-05
4.29867e-05
4.30837e-05
4.2986e-05
4.29262e-05
4.24919e-05
4.18266e-05
4.08547e-05
2.35453e-05
2.41106e-05
2.46679e-05
2.50596e-05
2.5321e-05
2.53679e-05
2.54401e-05
2.53975e-05
2.54156e-05
2.54101e-05
2.54669e-05
2.54083e-05
2.53716e-05
2.51122e-05
2.47157e-05
2.41371e-05
1.28702e-05
1.31748e-05
1.34776e-05
1.36913e-05
1.3834e-05
1.38605e-05
1.39005e-05
1.38781e-05
1.38879e-05
1.3885e-05
1.39152e-05
1.38826e-05
1.38616e-05
1.372e-05
1.35037e-05
1.31892e-05
6.38591e-06
6.5325e-06
6.68068e-06
6.78569e-06
6.85596e-06
6.86957e-06
6.88961e-06
6.8791e-06
6.88391e-06
6.88252e-06
6.89687e-06
6.88046e-06
6.86956e-06
6.7998e-06
6.69347e-06
6.53957e-06
2.77371e-06
2.83483e-06
2.89799e-06