/*--------------------------------*- C++ -*----------------------------------*\
| =========                 |                                                 |
| \\      /  F ield         | OpenFOAM: The Open Source CFD Toolbox           |
|  \\    /   O peration     | Version:  v1912                                 |
|   \\  /    A nd           | Website:  www.openfoam.com                      |
|    \\/     M anipulation  |                                                 |
\*---------------------------------------------------------------------------*/
FoamFile
{
    version     2.0;
    format      ascii;
    class       volScalarField;
    location    "196.8";
    object      k;
}
// * * * * * * * * * * * * * * * * * * * * * * * * * * * * * * * * * * * * * //

dimensions      [0 2 -2 0 0 0 0];


internalField   nonuniform List<scalar> 
10147
(
1.40292e-06
1.8607e-06
2.22249e-06
2.11431e-06
2.06664e-06
2.06843e-06
2.05865e-06
2.05572e-06
2.0535e-06
2.05655e-06
2.05975e-06
2.06991e-06
2.06794e-06
2.11581e-06
2.22509e-06
1.86375e-06
3.77658e-07
5.00767e-07
5.94532e-07
5.8535e-07
5.68904e-07
5.6968e-07
5.66708e-07
5.65876e-07
5.65204e-07
5.662e-07
5.67159e-07
5.70305e-07
5.69468e-07
5.86023e-07
5.95342e-07
5.01646e-07
1.211e-06
1.5719e-06
1.81027e-06
1.91453e-06
1.8503e-06
1.85317e-06
1.84263e-06
1.83973e-06
1.83738e-06
1.84111e-06
1.84462e-06
1.85598e-06
1.85288e-06
1.91763e-06
1.81391e-06
1.57528e-06
4.04437e-06
5.16782e-06
5.88682e-06
6.32123e-06
6.10963e-06
6.1173e-06
6.08261e-06
6.07264e-06
6.06504e-06
6.07725e-06
6.08929e-06
6.12672e-06
6.11833e-06
6.33165e-06
5.89947e-06
5.17923e-06
9.97915e-06
1.25588e-05
1.41918e-05
1.53443e-05
1.48411e-05
1.4855e-05
1.4772e-05
1.47471e-05
1.47292e-05
1.47581e-05
1.47881e-05
1.48777e-05
1.48622e-05
1.53694e-05
1.42228e-05
1.25863e-05
2.00848e-05
2.48736e-05
2.78724e-05
3.02865e-05
2.93216e-05
2.93409e-05
2.91804e-05
2.91306e-05
2.90963e-05
2.9152e-05
2.92116e-05
2.93851e-05
2.93626e-05
3.03352e-05
2.7933e-05
2.4927e-05
3.51391e-05
4.2786e-05
4.7483e-05
5.18118e-05
5.02222e-05
5.02451e-05
4.99785e-05
4.9894e-05
4.98375e-05
4.99296e-05
5.00307e-05
5.0319e-05
5.02908e-05
5.18933e-05
4.75846e-05
4.2875e-05
5.54542e-05
6.63334e-05
7.27885e-05
7.97157e-05
7.73861e-05
7.74128e-05
7.70193e-05
7.68934e-05
7.68101e-05
7.69462e-05
7.70972e-05
7.75231e-05
7.74887e-05
7.98373e-05
7.29401e-05
6.64657e-05
8.07798e-05
9.48375e-05
0.000102718
0.000112865
0.000109764
0.0001098
0.000109272
0.000109104
0.000108992
0.000109176
0.000109378
0.00010995
0.000109904
0.00011303
0.000102924
9.50169e-05
0.000110317
0.000126988
0.000135544
0.000149401
0.000145598
0.000145651
0.000145
0.000144796
0.000144656
0.000144886
0.000145135
0.000145842
0.000145775
0.00014961
0.000135804
0.000127213
0.000142876
0.000161121
0.000169283
0.000187195
0.000182836
0.000182922
0.000182171
0.000181942
0.000181777
0.000182048
0.000182331
0.00018315
0.000183048
0.000187445
0.000169592
0.000161387
0.000177128
0.000195586
0.000202124
0.000224321
0.0002196
0.000219732
0.000218913
0.000218672
0.000218488
0.000218793
0.000219095
0.000219992
0.000219841
0.000224607
0.000202472
0.000195885
0.000211852
0.00022903
0.00023273
0.000259355
0.000254471
0.000254663
0.00025381
0.000253571
0.000253373
0.000253702
0.00025401
0.00025495
0.000254737
0.00025967
0.000233109
0.000229353
0.000246087
0.000260522
0.000260449
0.000291458
0.000286587
0.000286844
0.000285985
0.000285757
0.00028555
0.000285896
0.0002862
0.000287153
0.000286873
0.000291798
0.000260853
0.000260858
0.000279175
0.000289556
0.000285056
0.000320378
0.000315635
0.000315923
0.000315062
0.000314841
0.000314628
0.000314987
0.00031529
0.000316252
0.000315939
0.00032074
0.000285478
0.000289897
0.000310731
0.000316025
0.000306441
0.000346095
0.000341603
0.000341915
0.000341067
0.000340856
0.00034064
0.000341006
0.000341306
0.000342259
0.000341921
0.000346475
0.000306874
0.000316366
0.000340581
0.000339944
0.000324652
0.000368681
0.000364546
0.000364888
0.00036407
0.000363873
0.000363658
0.000364026
0.000364317
0.000365245
0.000364877
0.000369076
0.000325092
0.000340279
0.000368696
0.000361386
0.000339852
0.000388313
0.000384629
0.000385017
0.000384248
0.000384073
0.000383862
0.000384227
0.000384501
0.000385383
0.000384968
0.000388721
0.000340294
0.000361709
0.000395146
0.000380499
0.000352283
0.000405241
0.000402085
0.000402552
0.000401853
0.000401713
0.000401508
0.000401867
0.000402109
0.000402922
0.000402429
0.000405658
0.000352722
0.000380805
0.000420043
0.000397473
0.000362228
0.000419749
0.000417186
0.000417787
0.000417187
0.000417104
0.00041691
0.000417255
0.000417442
0.000418158
0.000417532
0.000420173
0.00036266
0.000397755
0.000443519
0.000412524
0.00036999
0.000432136
0.000430225
0.000431045
0.000430587
0.0004306
0.00043042
0.000430745
0.000430836
0.000431412
0.000430568
0.000432563
0.000370413
0.000412779
0.000465706
0.000425884
0.000375873
0.0004427
0.000441494
0.000442669
0.000442409
0.000442537
0.000442373
0.000442675
0.000442647
0.000443022
0.000441827
0.000443126
0.000376284
0.000426106
0.000486738
0.000437784
0.000380173
0.000451729
0.000451284
0.000452941
0.000452908
0.000453169
0.000453024
0.000453299
0.000453131
0.000453277
0.0004516
0.000452149
0.000380569
0.000437969
0.000506733
0.00044846
0.000383168
0.000459499
0.000459862
0.000462079
0.000462301
0.000462716
0.000462591
0.000462837
0.000462507
0.000462395
0.000460155
0.000459906
0.000383545
0.000448601
0.000525795
0.000458126
0.000385104
0.0004662
0.0004674
0.000470263
0.000470768
0.000471359
0.000471255
0.000471468
0.000470953
0.000470553
0.000467667
0.00046659
0.000385461
0.000458222
0.000544012
0.000466926
0.000386191
0.000471976
0.000474042
0.000477636
0.000478454
0.000479242
0.000479162
0.000479339
0.000478616
0.000477896
0.000474278
0.000472346
0.000386524
0.000466974
0.000561454
0.000474974
0.00038661
0.000476945
0.000479902
0.000484313
0.000485474
0.00048648
0.000486425
0.000486564
0.000485608
0.00048454
0.000480103
0.00047729
0.000386917
0.000474973
0.000578173
0.000482365
0.000386485
0.000481196
0.00048507
0.00049038
0.000491912
0.000493159
0.00049313
0.000493229
0.000492017
0.00049057
0.000485231
0.000481512
0.000386765
0.000482313
0.000594207
0.00048917
0.000385918
0.000484795
0.00048961
0.000495898
0.000497829
0.000499339
0.000499338
0.000499393
0.000497901
0.000496047
0.000489727
0.000485079
0.000386167
0.000489067
0.000609579
0.000495447
0.00038499
0.000487791
0.000493568
0.000500905
0.000503263
0.000505056
0.000505084
0.000505093
0.000503298
0.00050101
0.000493636
0.000488038
0.000385207
0.000495291
0.0006243
0.000501232
0.000383766
0.000490211
0.00049697
0.000505421
0.000508231
0.000510327
0.000510387
0.000510345
0.000508227
0.000505477
0.000496985
0.000490418
0.000383949
0.000501024
0.000638369
0.000506553
0.000382295
0.000492071
0.000499827
0.000509449
0.000512735
0.000515153
0.000515246
0.000515151
0.000512689
0.000509453
0.000499786
0.000492234
0.000382443
0.000506291
0.000651776
0.000511422
0.000380614
0.000493372
0.000502138
0.000512979
0.000516762
0.000519518
0.000519646
0.000519495
0.000516672
0.000512927
0.000502038
0.000493488
0.000380724
0.000511107
0.000664504
0.000515844
0.000378746
0.000494109
0.000503893
0.000515988
0.000520288
0.000523397
0.000523563
0.000523353
0.000520151
0.000515878
0.000503731
0.000494175
0.000378818
0.000515477
0.000676527
0.000519815
0.000376709
0.000494265
0.000505071
0.000518448
0.00052328
0.000526755
0.00052696
0.000526687
0.000523095
0.000518277
0.000504844
0.000494278
0.00037674
0.000519396
0.000687817
0.000523324
0.000374509
0.00049382
0.000505646
0.00052032
0.000525699
0.000529549
0.000529796
0.000529457
0.000525464
0.000520086
0.000505353
0.000493777
0.0003745
0.000522854
0.000698338
0.000526357
0.000372149
0.00049275
0.000505589
0.000521564
0.0005275
0.000531732
0.000532023
0.000531616
0.000527213
0.000521265
0.000505227
0.000492649
0.000372099
0.000525838
0.000708055
0.000528896
0.000369627
0.000491029
0.000504866
0.000522135
0.000528635
0.000533255
0.000533592
0.000533113
0.000528296
0.000521771
0.000504434
0.000490869
0.000369535
0.00052833
0.000716927
0.000530923
0.000366939
0.000488631
0.000503445
0.000521989
0.000529056
0.000534065
0.000534451
0.000533897
0.000528664
0.000521559
0.000502943
0.00048841
0.000366805
0.00053031
0.000724916
0.000532418
0.000364075
0.000485533
0.000501293
0.000521084
0.000528716
0.000534112
0.000534549
0.000533918
0.000528271
0.000520587
0.000500721
0.000485251
0.0003639
0.000531762
0.000731981
0.000533364
0.00036103
0.000481715
0.000498384
0.000519377
0.00052757
0.000533349
0.000533838
0.000533129
0.000527073
0.000518815
0.000497742
0.000481371
0.000360814
0.000532666
0.000738084
0.000533745
0.000357794
0.000477162
0.000494691
0.000516834
0.000525578
0.000531731
0.000532274
0.000531484
0.000525029
0.000516207
0.000493981
0.000476756
0.000357539
0.000533008
0.000743187
0.000533548
0.00035436
0.000471864
0.000490198
0.000513425
0.000522706
0.000529221
0.00052982
0.000528948
0.000522106
0.000512734
0.000489421
0.000471398
0.000354066
0.000532775
0.000747255
0.000532759
0.000350721
0.000465817
0.000484893
0.000509127
0.000518926
0.000525788
0.000526445
0.000525491
0.000518278
0.000508376
0.000484053
0.000465293
0.000350391
0.000531953
0.000750261
0.000531368
0.000346873
0.000459027
0.000478774
0.000503931
0.000514224
0.000521415
0.000522129
0.000521092
0.000513529
0.000503122
0.000477874
0.000458448
0.000346508
0.000530533
0.000752178
0.000529365
0.000342813
0.000451511
0.000471851
0.000497837
0.000508596
0.000516093
0.000516865
0.000515747
0.000507858
0.000496975
0.000470897
0.000450881
0.000342416
0.000528504
0.000752985
0.000526743
0.000338543
0.000443297
0.000464151
0.000490864
0.000502054
0.000509831
0.00051066
0.000509463
0.000501276
0.000489952
0.000463148
0.00044262
0.000338116
0.000525858
0.000752669
0.000523495
0.000334068
0.000434429
0.000455716
0.000483043
0.000494624
0.000502652
0.000503537
0.000502263
0.000493811
0.000482086
0.00045467
0.000433712
0.000333615
0.000522592
0.000751196
0.000519622
0.000329397
0.000424967
0.0004466
0.000474417
0.000486345
0.000494591
0.000495531
0.000494184
0.000485501
0.000473424
0.00044552
0.000424216
0.00032892
0.000518703
0.000748503
0.000515124
0.000324544
0.000414981
0.00043687
0.000465042
0.000477265
0.000485691
0.000486684
0.000485269
0.000476396
0.000464017
0.000435765
0.000414203
0.000324046
0.000514194
0.000744508
0.000510004
0.000319527
0.00040455
0.000426598
0.000454975
0.000467434
0.000475997
0.00047704
0.000475562
0.000466547
0.000453927
0.000425476
0.000403751
0.000319013
0.000509067
0.000739128
0.000504264
0.000314374
0.000393757
0.000415859
0.000444277
0.000456907
0.000465558
0.000466646
0.000465114
0.000456008
0.000443216
0.000414731
0.000392946
0.000313847
0.000503326
0.00073229
0.000497926
0.000309115
0.000382693
0.000404733
0.00043302
0.000445748
0.000454434
0.000455564
0.000453985
0.000444844
0.000431953
0.000403607
0.000381878
0.00030858
0.000496992
0.000723945
0.000491018
0.000303786
0.000371457
0.000393308
0.000421283
0.000434038
0.000442715
0.000443882
0.000442263
0.000433138
0.000420221
0.000392196
0.000370645
0.000303245
0.000490092
0.000714072
0.000483582
0.000298424
0.000360147
0.00038169
0.000409174
0.000421888
0.000430509
0.00043171
0.000430058
0.000420997
0.000408125
0.000380599
0.000359346
0.000297882
0.000482669
0.000702679
0.000475674
0.000293066
0.000348853
0.000369983
0.000396823
0.000409419
0.000417936
0.000419163
0.000417489
0.000408544
0.000395795
0.000368923
0.00034807
0.000292527
0.000474777
0.000689772
0.000467332
0.000287743
0.000337657
0.000358281
0.000384354
0.000396758
0.000405121
0.000406366
0.000404682
0.000395907
0.000383355
0.000357258
0.000336897
0.00028721
0.000466452
0.000675387
0.000458595
0.000282484
0.000326633
0.000346669
0.000371879
0.000384032
0.000392198
0.000393452
0.000391769
0.000383209
0.000370915
0.000345687
0.0003259
0.000281961
0.000457736
0.000659588
0.000449513
0.000277319
0.00031585
0.000335224
0.000359497
0.000371351
0.000379286
0.000380543
0.000378871
0.000370559
0.000358573
0.000334289
0.000315149
0.000276809
0.000448677
0.000642494
0.000440142
0.000272277
0.000305374
0.000324022
0.0003473
0.000358812
0.00036649
0.000367742
0.000366091
0.000358056
0.00034642
0.000323137
0.000304708
0.000271783
0.000439332
0.000624342
0.000430541
0.000267387
0.000295268
0.00031313
0.000335367
0.000346499
0.000353899
0.000355139
0.000353517
0.000345782
0.000334534
0.000312299
0.000294641
0.000266913
0.00042976
0.000605521
0.000420774
0.000262679
0.000285592
0.000302612
0.000323765
0.000334481
0.000341583
0.000342806
0.00034122
0.000333805
0.000322982
0.000301836
0.000285006
0.000262229
0.000420024
0.000586497
0.000410902
0.000258183
0.000276402
0.00029253
0.000312561
0.000322829
0.000329615
0.000330814
0.000329272
0.000322196
0.00031183
0.000291813
0.000275859
0.000257758
0.000410185
0.000567696
0.000400986
0.000253928
0.000267751
0.000282947
0.000301829
0.000311621
0.000318074
0.000319242
0.000317752
0.000311032
0.000301152
0.000282289
0.000267253
0.000253532
0.000400304
0.00054941
0.000391081
0.000249945
0.000259689
0.000273923
0.000291636
0.000300927
0.000307032
0.000308164
0.000306732
0.000300383
0.000291015
0.000273325
0.000259238
0.000249579
0.000390434
0.000531542
0.000381233
0.000246261
0.000252267
0.000265514
0.000282047
0.000290814
0.00029656
0.000297649
0.000296283
0.000290317
0.000281482
0.000264978
0.000251866
0.000245928
0.000380624
0.000513878
0.000371494
0.000242908
0.000245551
0.000257778
0.00027312
0.000281345
0.000286721
0.000287762
0.000286468
0.000280893
0.000272611
0.000257303
0.000245202
0.00024261
0.000370922
0.000496423
0.000361913
0.000239914
0.000239623
0.000250783
0.000264909
0.000272574
0.000277573
0.00027856
0.000277344
0.000272168
0.000264457
0.000250373
0.00023933
0.000239653
0.00036138
0.000479256
0.000352543
0.000237309
0.000234547
0.000244626
0.000257473
0.000264549
0.00026916
0.000270087
0.000268954
0.000264189
0.000257078
0.000244283
0.00023431
0.000237085
0.000352049
0.000462445
0.00034344
0.000235121
0.00023035
0.000239383
0.000250903
0.000257332
0.000261526
0.000262388
0.000261344
0.000257021
0.000250569
0.000239107
0.000230167
0.000234936
0.000342986
0.000446052
0.000334661
0.000233379
0.000227047
0.000235088
0.000245303
0.000251036
0.000254771
0.000255555
0.000254615
0.000250775
0.000245032
0.000234874
0.000226918
0.000233234
0.000334248
0.000430131
0.000326264
0.000232111
0.000224651
0.00023176
0.000240721
0.000245748
0.000249006
0.000249704
0.000248877
0.000245537
0.000240508
0.000231604
0.000224572
0.000232007
0.000325894
0.000414726
0.000318307
0.000231346
0.000223165
0.000229411
0.00023717
0.000241494
0.000244278
0.000244886
0.000244174
0.00024133
0.000237013
0.00022931
0.000223136
0.000231283
0.000317979
0.00039988
0.000310844
0.000231114
0.000222593
0.000228049
0.000234662
0.000238285
0.0002406
0.000241113
0.000240521
0.000238166
0.000234557
0.000228001
0.00022261
0.000231093
0.000310558
0.000385634
0.000303933
0.000231445
0.00022293
0.00022768
0.0002332
0.000236132
0.000237981
0.000238398
0.000237925
0.000236053
0.000233144
0.000227679
0.000222992
0.000231464
0.000303689
0.000372075
0.000297631
0.000232367
0.000224172
0.000228302
0.000232789
0.000235039
0.00023643
0.000236748
0.000236396
0.000235
0.000232778
0.000228345
0.000224275
0.000232427
0.00029743
0.000359344
0.000291999
0.000233914
0.000226311
0.000229909
0.000233426
0.000235009
0.000235951
0.00023617
0.000235938
0.000235006
0.000233457
0.000229993
0.000226452
0.000234014
0.000291841
0.00034755
0.000287099
0.000236115
0.000229336
0.000232495
0.000235105
0.000236042
0.000236546
0.000236666
0.000236553
0.000236073
0.000235175
0.000232616
0.000229514
0.000236254
0.000286985
0.000336752
0.000282997
0.000239001
0.000233238
0.000236046
0.000237818
0.000238132
0.000238213
0.000238236
0.000238238
0.000238195
0.000237923
0.000236201
0.000233449
0.000239179
0.000282926
2.63004e-06
2.04033e-06
1.66918e-06
1.82406e-06
1.85303e-06
1.87149e-06
1.87703e-06
1.88114e-06
1.88059e-06
1.8822e-06
1.87932e-06
1.87434e-06
1.85579e-06
1.8267e-06
1.67101e-06
2.04149e-06
8.33761e-07
6.08448e-07
4.95306e-07
5.53355e-07
5.65215e-07
5.78008e-07
5.82461e-07
5.85745e-07
5.85799e-07
5.86163e-07
5.833e-07
5.79056e-07
5.66135e-07
5.54283e-07
4.96017e-07
6.08765e-07
3.0889e-06
2.16358e-06
1.76656e-06
2.00616e-06
2.05807e-06
2.12697e-06
2.15181e-06
2.17012e-06
2.17106e-06
2.17192e-06
2.15526e-06
2.13126e-06
2.06159e-06
2.00985e-06
1.76963e-06
2.1646e-06
1.02624e-05
7.25241e-06
5.96714e-06
6.76044e-06
6.93405e-06
7.16918e-06
7.25419e-06
7.31684e-06
7.32023e-06
7.32285e-06
7.26563e-06
7.18344e-06
6.9456e-06
6.77267e-06
5.97747e-06
7.2557e-06
2.47869e-05
1.77558e-05
1.47405e-05
1.6631e-05
1.70468e-05
1.76173e-05
1.78238e-05
1.7976e-05
1.79844e-05
1.79904e-05
1.78511e-05
1.76513e-05
1.70742e-05
1.66601e-05
1.47656e-05
1.77636e-05
4.85051e-05
3.52686e-05
2.95828e-05
3.32171e-05
3.40184e-05
3.5135e-05
3.55393e-05
3.58378e-05
3.58545e-05
3.58653e-05
3.55915e-05
3.52001e-05
3.40705e-05
3.32731e-05
2.96317e-05
3.52834e-05
8.19546e-05
6.05474e-05
5.13811e-05
5.73878e-05
5.87098e-05
6.05895e-05
6.12703e-05
6.1774e-05
6.18025e-05
6.18193e-05
6.13558e-05
6.06963e-05
5.87948e-05
5.74798e-05
5.14631e-05
6.05712e-05
0.000123946
9.31594e-05
8.00855e-05
8.89241e-05
9.08582e-05
9.36774e-05
9.4698e-05
9.54557e-05
9.54989e-05
9.55219e-05
9.48222e-05
9.38326e-05
9.09809e-05
8.90586e-05
8.02078e-05
9.31929e-05
0.000171677
0.000131455
0.000114614
0.000126443
0.000129007
0.000132859
0.000134253
0.000135292
0.000135351
0.00013538
0.000134417
0.000133064
0.000129168
0.000126621
0.00011478
0.000131497
0.000221551
0.000172987
0.000153103
0.000167732
0.000170867
0.000175751
0.000177515
0.000178837
0.000178913
0.000178945
0.000177715
0.000176002
0.000171063
0.000167952
0.000153313
0.000173037
0.000270252
0.000215202
0.00019342
0.000210378
0.00021397
0.000219806
0.00022191
0.000223497
0.000223589
0.000223623
0.00022214
0.000220094
0.000214193
0.000210633
0.000193669
0.000215257
0.000315429
0.000256014
0.000233662
0.000252326
0.000256235
0.000262903
0.000265303
0.000267126
0.000267232
0.000267266
0.000265556
0.000263221
0.000256479
0.000252609
0.000233946
0.000256071
0.000355803
0.000294043
0.00027243
0.00029214
0.000296231
0.000303599
0.000306248
0.000308275
0.000308394
0.000308426
0.000306516
0.000303938
0.000296488
0.000292443
0.000272742
0.0002941
0.000390969
0.000328573
0.000308856
0.000328997
0.000333152
0.000341095
0.000343946
0.00034615
0.000346279
0.000346308
0.000344224
0.000341446
0.000333414
0.000329313
0.00030919
0.000328629
0.000421138
0.000359427
0.000342501
0.000362542
0.000366668
0.000375075
0.00037809
0.000380444
0.000380581
0.000380607
0.000378373
0.000375433
0.000366931
0.000362866
0.000342852
0.000359482
0.000446593
0.000386742
0.00037323
0.000392753
0.000396784
0.00040556
0.000408707
0.000411185
0.00041133
0.000411352
0.000408991
0.000405921
0.000397046
0.000393081
0.000373595
0.000386795
0.000467711
0.000410672
0.000401122
0.000419833
0.00042371
0.000432774
0.000436027
0.000438613
0.000438765
0.000438781
0.00043631
0.000433134
0.000423967
0.000420162
0.000401498
0.000410722
0.000484921
0.000431434
0.000426344
0.000443943
0.00044762
0.0004569
0.000460239
0.000462919
0.000463078
0.000463088
0.000460516
0.000457254
0.000447869
0.000444271
0.000426729
0.000431481
0.000498651
0.000449278
0.000449036
0.00046527
0.000468709
0.000478142
0.000481551
0.000484316
0.000484482
0.000484483
0.000481821
0.000478487
0.000468948
0.000465592
0.000449425
0.000449319
0.000509302
0.000464458
0.000469344
0.00048401
0.000487187
0.000496717
0.000500186
0.000503027
0.000503199
0.000503191
0.000500445
0.00049705
0.000487412
0.000484325
0.000469736
0.000464494
0.000517235
0.000477224
0.000487419
0.000500365
0.000503259
0.000512841
0.00051636
0.000519269
0.000519447
0.000519428
0.000516605
0.000513158
0.000503469
0.00050067
0.000487812
0.000477254
0.00052276
0.000487808
0.000503409
0.000514525
0.000517126
0.000526712
0.000530272
0.000533242
0.000533427
0.000533395
0.000530503
0.000527011
0.000517318
0.000514818
0.0005038
0.00048783
0.000526148
0.000496422
0.000517455
0.000526669
0.000528968
0.00053851
0.000542102
0.000545123
0.000545314
0.000545269
0.000542315
0.000538788
0.00052914
0.000526949
0.000517842
0.000496435
0.000527626
0.000503255
0.000529691
0.000536956
0.000538944
0.000548389
0.000552001
0.000555063
0.000555261
0.0005552
0.000552196
0.000548645
0.000539095
0.000537221
0.000530072
0.000503259
0.000527386
0.000508473
0.000540241
0.000545524
0.000547195
0.000556483
0.000560104
0.000563195
0.000563402
0.000563323
0.000560279
0.000556715
0.000547325
0.000545775
0.000540614
0.000508468
0.000525594
0.00051222
0.000549219
0.000552497
0.000553842
0.000562911
0.000566528
0.000569637
0.000569853
0.000569754
0.000566683
0.000563118
0.00055395
0.000552732
0.000549583
0.000512205
0.000522392
0.000514621
0.000556727
0.000557981
0.000558992
0.000567777
0.000571376
0.000574489
0.000574715
0.000574594
0.000571509
0.000567957
0.000559078
0.0005582
0.00055708
0.000514596
0.00051791
0.000515785
0.000562854
0.00056207
0.000562738
0.00057117
0.000574738
0.000577841
0.000578079
0.000577934
0.000574849
0.000571324
0.000562801
0.000562272
0.000563194
0.000515749
0.000512267
0.000515805
0.000567676
0.000564848
0.000565162
0.000573174
0.000576696
0.000579774
0.000580025
0.000579854
0.000576784
0.0005733
0.000565202
0.000565034
0.000568003
0.000515759
0.000505578
0.000514768
0.000571261
0.000566389
0.000566338
0.000573864
0.000577325
0.000580364
0.000580628
0.00058043
0.000577391
0.000573962
0.000566356
0.000566559
0.000571574
0.000514712
0.000497952
0.00051275
0.000573669
0.000566764
0.000566337
0.000573312
0.000576697
0.00057968
0.000579959
0.000579732
0.000576739
0.00057338
0.000566332
0.000566919
0.000573966
0.000512685
0.000489492
0.000509823
0.000574953
0.000566038
0.000565222
0.000571586
0.00057488
0.000577793
0.000578088
0.000577829
0.000574898
0.000571625
0.000565195
0.000566178
0.000575234
0.000509748
0.000480299
0.000506054
0.000575163
0.000564275
0.000563057
0.000568754
0.000571943
0.00057477
0.000575081
0.00057479
0.000571936
0.000568764
0.000563008
0.000564399
0.000575427
0.000505971
0.000470468
0.000501511
0.000574345
0.000561535
0.000559902
0.000564884
0.000567954
0.00057068
0.000571009
0.000570684
0.000567923
0.000564864
0.000559831
0.000561644
0.000574591
0.000501419
0.000460091
0.000496259
0.000572543
0.000557879
0.000555819
0.000560045
0.000562983
0.000565595
0.000565941
0.000565582
0.000562927
0.000559995
0.000555725
0.000557972
0.00057277
0.000496159
0.000449258
0.000490367
0.0005698
0.000553366
0.000550868
0.000554307
0.000557102
0.000559586
0.00055995
0.000559556
0.00055702
0.000554226
0.000550751
0.000553444
0.000570009
0.00049026
0.000438054
0.000483905
0.00056616
0.000548056
0.00054511
0.000547741
0.000550382
0.000552729
0.00055311
0.000552681
0.000550275
0.00054763
0.000544969
0.000548118
0.00056635
0.00048379
0.000426559
0.000476943
0.000561666
0.000542008
0.000538607
0.00054042
0.0005429
0.0005451
0.000545498
0.000545034
0.000542767
0.000540278
0.000538442
0.000542053
0.000561837
0.000476822
0.000414854
0.000469554
0.000556363
0.000535281
0.000531421
0.000532419
0.000534732
0.000536779
0.000537193
0.000536696
0.000534573
0.000532247
0.000531231
0.000535309
0.000556514
0.000469426
0.000403014
0.000461799
0.000550297
0.000527933
0.000523615
0.000523815
0.000525959
0.000527849
0.000528278
0.000527748
0.000525774
0.000523611
0.0005234
0.000527944
0.000550427
0.000461666
0.000391113
0.000453713
0.000543514
0.000520024
0.000515254
0.000514687
0.000516663
0.000518395
0.000518838
0.000518277
0.000516451
0.000514453
0.000515012
0.000520015
0.000543625
0.000453574
0.000379223
0.000445319
0.000536063
0.000511612
0.000506405
0.00050512
0.000506931
0.000508508
0.000508963
0.000508373
0.000506692
0.000504854
0.000506135
0.000511584
0.000536153
0.000445177
0.000367412
0.000436654
0.000527992
0.000502762
0.00049714
0.000495199
0.000496851
0.000498281
0.000498744
0.000498128
0.000496586
0.000494901
0.000496842
0.000502713
0.000528062
0.000436508
0.000355749
0.000427755
0.000519343
0.000493542
0.000487536
0.000485014
0.000486514
0.000487801
0.000488272
0.000487632
0.000486221
0.000484684
0.000487209
0.000493472
0.000519392
0.000427606
0.0003443
0.000418658
0.000510152
0.00048403
0.000477674
0.000474642
0.000475992
0.000477141
0.000477616
0.000476957
0.000475674
0.000474282
0.000477318
0.000483938
0.000510181
0.000418507
0.000333131
0.000409398
0.000500448
0.000474303
0.000467631
0.000464127
0.000465313
0.000466319
0.000466796
0.00046612
0.000464973
0.000463742
0.000467246
0.000474189
0.000500457
0.000409246
0.00032231
0.000400013
0.000490258
0.000464429
0.000457449
0.000453461
0.00045447
0.000455324
0.0004558
0.000455114
0.00045411
0.000453053
0.000457041
0.000464293
0.000490248
0.00039986
0.000311906
0.000390536
0.000479621
0.000454419
0.000447124
0.000442648
0.000443472
0.000444173
0.000444645
0.000443952
0.000443096
0.000442221
0.000446698
0.000454265
0.000479594
0.000390383
0.000301983
0.000381002
0.000468596
0.000444272
0.000436665
0.000431722
0.000432352
0.000432896
0.000433362
0.000432666
0.000431962
0.000431279
0.000436223
0.000444104
0.000468553
0.000380851
0.000292595
0.000371446
0.000457271
0.000434011
0.000426105
0.000420715
0.000421141
0.000421524
0.000421979
0.000421286
0.000420739
0.000420259
0.000425651
0.000433832
0.000457214
0.000371297
0.00028377
0.000361902
0.000445769
0.000423674
0.00041548
0.000409661
0.00040987
0.000410088
0.000410529
0.000409844
0.00040946
0.000409195
0.000415017
0.000423485
0.000445702
0.000361756
0.000275521
0.000352404
0.000434243
0.000413298
0.000404829
0.000398597
0.000398577
0.000398624
0.000399046
0.000398377
0.000398161
0.000398126
0.000404362
0.000413102
0.00043417
0.000352262
0.000267847
0.000342992
0.000422852
0.000402923
0.000394193
0.000387563
0.000387302
0.000387174
0.000387575
0.000386926
0.000386885
0.000387091
0.000393724
0.000402724
0.000422776
0.000342855
0.000260738
0.000333702
0.000411702
0.00039259
0.000383613
0.000376604
0.000376093
0.000375789
0.000376163
0.000375541
0.000375678
0.000376135
0.000383148
0.000392389
0.000411626
0.000333571
0.00025417
0.000324569
0.000400756
0.000382337
0.000373137
0.000365768
0.000365003
0.000364524
0.000364869
0.000364279
0.000364594
0.000365306
0.000372678
0.000382137
0.00040068
0.000324444
0.00024811
0.000315629
0.00038994
0.000372203
0.000362809
0.000355108
0.00035409
0.00035344
0.000353755
0.0003532
0.00035369
0.000354655
0.000362359
0.000372005
0.000389864
0.000315511
0.000242522
0.000306917
0.000379253
0.000362221
0.000352665
0.000344665
0.000343401
0.000342588
0.00034287
0.000342353
0.000343012
0.000344226
0.000352228
0.000362028
0.000379178
0.000306807
0.000237371
0.000298468
0.000368728
0.000352426
0.000342742
0.000334479
0.000332978
0.000332012
0.000332261
0.000331785
0.000332603
0.000334056
0.000342321
0.000352238
0.000368654
0.000298366
0.000232624
0.000290318
0.000358398
0.00034285
0.000333072
0.000324587
0.000322861
0.000321753
0.000321967
0.000321535
0.0003225
0.000324181
0.000332668
0.000342669
0.000358327
0.000290225
0.000228256
0.000282504
0.000348295
0.000333526
0.000323686
0.000315021
0.000313084
0.000311848
0.000312029
0.00031164
0.000312742
0.000314636
0.000323303
0.000333353
0.000348227
0.000282419
0.000224257
0.000275061
0.000338451
0.000324483
0.000314617
0.000305816
0.000303687
0.000302336
0.000302484
0.00030214
0.000303364
0.000305453
0.000314255
0.00032432
0.000338388
0.000274984
0.000220629
0.000268027
0.000328901
0.00031575
0.000305895
0.000297012
0.000294711
0.000293263
0.000293378
0.000293078
0.000294409
0.000296673
0.000305556
0.000315597
0.000328842
0.000267958
0.000217392
0.00026144
0.000319677
0.000307357
0.000297554
0.000288644
0.000286198
0.000284671
0.000284755
0.000284499
0.000285917
0.000288331
0.000297239
0.000307216
0.000319623
0.000261379
0.000214583
0.000255338
0.000310816
0.000299336
0.000289626
0.000280749
0.000278182
0.000276597
0.000276651
0.000276439
0.000277925
0.000280462
0.000289337
0.000299207
0.000310768
0.000255285
0.000212245
0.000249758
0.000302358
0.000291719
0.000282146
0.00027336
0.000270701
0.00026908
0.000269106
0.000268937
0.000270469
0.000273101
0.000281884
0.000291603
0.000302316
0.000249712
0.000210423
0.000244738
0.000294347
0.000284543
0.00027515
0.000266517
0.000263797
0.000262161
0.000262162
0.000262033
0.00026359
0.000266287
0.000274915
0.000284441
0.00029431
0.000244699
0.000209151
0.000240312
0.000286825
0.000277844
0.000268677
0.000260262
0.000257514
0.000255889
0.000255866
0.000255776
0.000257333
0.000260061
0.00026847
0.000277756
0.000286795
0.000240279
0.000208459
0.000236514
0.000279837
0.000271657
0.000262762
0.00025463
0.000251893
0.000250305
0.000250264
0.000250208
0.000251739
0.000254459
0.000262582
0.000271583
0.000279814
0.000236486
0.00020837
0.000233375
0.000273425
0.000266015
0.000257435
0.000249652
0.000246965
0.000245439
0.000245383
0.000245358
0.000246837
0.000249509
0.000257282
0.000265955
0.000273408
0.000233352
0.000208907
0.000230925
0.000267631
0.000260948
0.000252723
0.00024535
0.000242753
0.000241315
0.000241249
0.000241249
0.00024265
0.000245236
0.000252597
0.000260901
0.000267619
0.000230905
0.000210082
0.000229188
0.000262497
0.000256488
0.000248654
0.000241748
0.000239277
0.00023795
0.000237879
0.0002379
0.000239199
0.000241661
0.000248553
0.000256454
0.00026249
0.000229171
0.000211906
0.000228187
0.000258066
0.00025267
0.000245256
0.000238865
0.000236556
0.000235361
0.000235289
0.000235325
0.000236502
0.000238804
0.000245179
0.000252647
0.000258064
0.000228171
0.000214381
0.000227939
0.00025438
0.000249527
0.000242558
0.000236722
0.000234606
0.000233563
0.000233494
0.000233541
0.000234575
0.000236686
0.000242504
0.000249516
0.000254381
0.000227924
0.000217508
0.00022846
0.000251479
0.000247097
0.000240591
0.00023534
0.000233446
0.000232569
0.000232508
0.00023256
0.000233435
0.000235328
0.00024056
0.000247097
0.000251483
0.000228445
0.000221283
0.00022976
0.000249404
0.000245419
0.000239388