/*--------------------------------*- C++ -*----------------------------------*\
| =========                 |                                                 |
| \\      /  F ield         | OpenFOAM: The Open Source CFD Toolbox           |
|  \\    /   O peration     | Version:  v1912                                 |
|   \\  /    A nd           | Website:  www.openfoam.com                      |
|    \\/     M anipulation  |                                                 |
\*---------------------------------------------------------------------------*/
FoamFile
{
    version     2.0;
    format      ascii;
    class       surfaceScalarField;
    location    "197.6";
    object      phi;
}
// * * * * * * * * * * * * * * * * * * * * * * * * * * * * * * * * * * * * * //

dimensions      [1 0 -1 0 0 0 0];
oriented        oriented;


internalField   nonuniform List<scalar> 
116032
(
-1.23176e-06
3.54731e-05
-1.49799e-07
-5.00602e-07
-1.08491e-06
1.51443e-07
-4.7057e-08
-8.11878e-07
1.60115e-07
-2.72506e-08
-4.19326e-07
2.27506e-08
2.27737e-08
-4.56184e-07
3.66231e-08
2.3555e-08
-4.22533e-07
1.51427e-08
2.01099e-08
-4.19877e-07
1.2332e-08
4.66464e-09
-4.1122e-07
7.22138e-09
-5.83797e-09
-4.15551e-07
7.93655e-09
-2.12208e-08
-4.1138e-07
7.6856e-09
-2.42789e-08
-4.2048e-07
1.34582e-08
-2.3027e-08
-4.23311e-07
1.67804e-08
2.76792e-08
-4.57522e-07
3.898e-08
4.7689e-08
-4.19783e-07
2.44541e-08
5.01102e-07
-8.12025e-07
1.61403e-07
-1.08557e-06
1.53196e-07
-2.43724e-06
3.86842e-05
-1.24304e-07
-1.47085e-06
-2.71704e-06
5.58157e-07
-1.03831e-07
-2.86816e-06
5.87467e-07
-6.60899e-08
-1.30244e-06
1.89317e-07
7.04577e-08
-1.44714e-06
2.22772e-07
6.7072e-08
-1.31361e-06
1.51828e-07
5.63364e-08
-1.3074e-06
1.4196e-07
1.42101e-08
-1.27611e-06
1.25008e-07
-1.72809e-08
-1.28952e-06
1.27346e-07
-5.92208e-08
-1.27675e-06
1.26471e-07
-6.901e-08
-1.30959e-06
1.45475e-07
-7.1177e-08
-1.31651e-06
1.56914e-07
6.7036e-08
-1.45071e-06
2.28658e-07
1.05977e-07
-1.30471e-06
1.94483e-07
1.47221e-06
-2.86825e-06
5.91103e-07
-2.71757e-06
5.63149e-07
-3.13337e-06
4.22583e-05
6.52943e-08
-2.22641e-06
-4.4603e-06
1.10971e-06
-1.30386e-07
-5.85153e-06
1.16625e-06
-9.24424e-08
-2.4345e-06
4.98277e-07
1.15719e-07
-2.7596e-06
5.49699e-07
1.0608e-07
-2.47842e-06
4.321e-07
8.84763e-08
-2.47207e-06
4.16052e-07
2.30405e-08
-2.40974e-06
3.89143e-07
-2.7644e-08
-2.43514e-06
3.92757e-07
-9.279e-08
-2.4109e-06
3.914e-07
-1.09023e-07
-2.47618e-06
4.21562e-07
-1.16825e-07
-2.48396e-06
4.40119e-07
9.37949e-08
-2.7659e-06
5.59177e-07
1.33679e-07
-2.43906e-06
5.06491e-07
2.2284e-06
-5.85189e-06
1.17218e-06
-4.46441e-06
1.1179e-06
-3.79944e-06
4.63225e-05
3.65122e-07
-2.86752e-06
-6.32901e-06
1.81927e-06
-1.59037e-07
-9.55814e-06
1.91735e-06
-1.23032e-07
-3.68234e-06
9.67277e-07
1.51805e-07
-4.25441e-06
1.03841e-06
1.37924e-07
-3.79956e-06
8.70862e-07
1.15503e-07
-3.79788e-06
8.4833e-07
3.04254e-08
-3.69864e-06
8.10606e-07
-3.62271e-08
-3.73857e-06
8.156e-07
-1.20931e-07
-3.70029e-06
8.1372e-07
-1.41644e-07
-3.804e-06
8.55969e-07
-1.53191e-07
-3.8079e-06
8.81997e-07
1.24805e-07
-4.26175e-06
1.05159e-06
1.63619e-07
-3.68873e-06
9.78668e-07
2.86983e-06
-9.55739e-06
1.92556e-06
-6.33596e-06
1.83068e-06
-4.36147e-06
5.08154e-05
7.83534e-07
-3.40517e-06
-8.22065e-06
2.68315e-06
-1.91764e-07
-1.37829e-05
2.84041e-06
-1.55951e-07
-4.98388e-06
1.60033e-06
1.78173e-07
-5.88358e-06
1.69229e-06
1.62147e-07
-5.16287e-06
1.47284e-06
1.37148e-07
-5.16904e-06
1.44376e-06
3.62846e-08
-5.02515e-06
1.39493e-06
-4.29376e-08
-5.08233e-06
1.40131e-06
-1.4336e-07
-5.02737e-06
1.39892e-06
-1.66406e-07
-5.1776e-06
1.45357e-06
-1.79727e-07
-5.1748e-06
1.48715e-06
1.58054e-07
-5.89561e-06
1.70922e-06
1.96889e-07
-4.99458e-06
1.61495e-06
3.40753e-06
-1.37805e-05
2.85088e-06
-8.23078e-06
2.69777e-06
-4.80893e-06
5.56482e-05
1.34535e-06
-3.83436e-06
-1.00726e-05
3.69828e-06
-2.2982e-07
-1.83524e-05
3.92973e-06
-1.89371e-07
-6.29112e-06
2.39638e-06
1.95499e-07
-7.56811e-06
2.51001e-06
1.78893e-07
-6.58167e-06
2.2371e-06
1.53363e-07
-6.59989e-06
2.20146e-06
4.06122e-08
-6.4057e-06
2.14133e-06
-4.77578e-08
-6.48242e-06
2.14906e-06
-1.60022e-07
-6.40849e-06
2.14618e-06
-1.8345e-07
-6.61104e-06
2.21344e-06
-1.97115e-07
-6.5975e-06
2.2546e-06
1.91714e-07
-7.58396e-06
2.53068e-06
2.35346e-07
-6.3049e-06
2.41422e-06
3.83651e-06
-1.83477e-05
3.9424e-06
-1.00862e-05
3.71609e-06
-5.13366e-06
6.07355e-05
2.04481e-06
-4.15873e-06
-1.183e-05
4.85665e-06
-2.74705e-07
-2.3115e-05
5.16994e-06
-2.22819e-07
-7.53533e-06
3.34589e-06
2.03867e-07
-9.2301e-06
3.48175e-06
1.88172e-07
-7.96204e-06
3.15427e-06
1.64077e-07
-7.99902e-06
3.11196e-06
4.33989e-08
-7.7543e-06
3.04028e-06
-5.06882e-08
-7.85195e-06
3.04935e-06
-1.70855e-07
-7.75741e-06
3.04599e-06
-1.92797e-07
-8.01237e-06
3.12612e-06
-2.05441e-07
-7.98138e-06
3.17493e-06
2.25315e-07
-9.24927e-06
3.50609e-06
2.80431e-07
-7.55162e-06
3.36691e-06
4.16045e-06
-2.31072e-05
5.18468e-06
-1.18474e-05
4.87758e-06
-5.33631e-06
6.60109e-05
2.86661e-06
-4.38392e-06
-1.34438e-05
6.14111e-06
-3.2666e-07
-2.79363e-05
6.53376e-06
-2.55725e-07
-8.67202e-06
4.42749e-06
2.03761e-07
-1.08103e-05
4.58562e-06
1.90368e-07
-9.24861e-06
4.20271e-06
1.69473e-07
-9.31062e-06
4.15342e-06
4.47102e-08
-9.01504e-06
4.06969e-06
-5.1827e-08
-9.13482e-06
4.0801e-06
-1.76076e-07
-9.01825e-06
4.07625e-06
-1.94852e-07
-9.32582e-06
4.16975e-06
-2.05205e-07
-9.27115e-06
4.22647e-06
2.58296e-07
-1.08321e-05
4.61355e-06
3.32382e-07
-8.69021e-06
4.45163e-06
4.38505e-06
-2.79246e-05
6.55039e-06
-1.34653e-05
6.16504e-06
-5.42208e-06
7.14193e-05
3.78755e-06
-4.51573e-06
-1.48697e-05
7.52559e-06
-3.84908e-07
-3.26947e-05
7.98661e-06
-2.87385e-07
-9.66351e-06
5.61067e-06
1.96222e-07
-1.22555e-05
5.79055e-06
1.86341e-07
-1.03926e-05
5.3514e-06
1.70086e-07
-1.04852e-05
5.29453e-06
4.47048e-08
-1.01388e-05
5.19796e-06
-5.13871e-08
-1.02816e-05
5.20977e-06
-1.7627e-07
-1.01419e-05
5.2054e-06
-1.90514e-07
-1.05019e-05
5.31303e-06
-1.97462e-07
-1.04179e-05
5.37819e-06
2.8996e-07
-1.22794e-05
5.82194e-06
3.90451e-07
-9.68292e-06
5.63782e-06
4.51619e-06
-3.26785e-05
8.00491e-06
-1.48954e-05
7.55232e-06
-5.4045e-06
7.69244e-05
4.78232e-06
-4.563e-06
-1.60715e-05
8.98163e-06
-4.48178e-07
-3.72836e-05
9.49675e-06
-3.17328e-07
-1.04763e-05
6.8654e-06
1.82568e-07
-1.35181e-05
7.06618e-06
1.77244e-07
-1.13493e-05
6.56991e-06
1.66709e-07
-1.14771e-05
6.50467e-06
4.3604e-08
-1.10801e-05
6.39429e-06
-4.96561e-08
-1.12465e-05
6.40754e-06
-1.72291e-07
-1.10829e-05
6.40262e-06
-1.80977e-07
-1.14949e-05
6.52536e-06
-1.83549e-07
-1.13771e-05
6.59966e-06
3.19858e-07
-1.35434e-05
7.10091e-06
4.53409e-07
-1.04963e-05
6.89547e-06
4.56279e-06
-3.72623e-05
9.51652e-06
-1.61017e-05
9.01096e-06
-5.3025e-06
8.24911e-05
5.82976e-06
-4.53687e-06
-1.70243e-05
1.04864e-05
-5.15399e-07
-4.16136e-05
1.10481e-05
-3.45492e-07
-1.10833e-05
8.17093e-06
1.6401e-07
-1.45586e-05
8.39162e-06
1.642e-07
-1.20814e-05
7.83735e-06
1.60168e-07
-1.22476e-05
7.76287e-06
4.16309e-08
-1.17999e-05
7.63765e-06
-4.692e-08
-1.19904e-05
7.65241e-06
-1.65024e-07
-1.18024e-05
7.64692e-06
-1.67402e-07
-1.22663e-05
7.7858e-06
-1.64693e-07
-1.21114e-05
7.87002e-06
3.47942e-07
-1.45847e-05
8.42962e-06
5.20218e-07
-1.11033e-05
8.20386e-06
4.53601e-06
-4.15868e-05
1.10691e-05
-1.70593e-05
1.05181e-05
-5.13243e-06
8.80648e-05
6.91775e-06
-4.44725e-06
-1.77135e-05
1.20304e-05
-5.85735e-07
-4.56125e-05
1.26356e-05
-3.72105e-07
-1.14653e-05
9.52202e-06
1.41404e-07
-1.53475e-05
9.76242e-06
1.48061e-07
-1.25611e-05
9.14679e-06
1.51133e-07
-1.27676e-05
9.06182e-06
3.89604e-08
-1.22686e-05
8.92005e-06
-4.34016e-08
-1.24835e-05
8.93646e-06
-1.55182e-07
-1.22706e-05
8.93035e-06
-1.5067e-07
-1.2787e-05
9.08714e-06
-1.41757e-07
-1.2593e-05
9.18248e-06
3.74453e-07
-1.53739e-05
9.80371e-06
5.90073e-07
-1.14848e-05
9.55786e-06
4.44579e-06
-4.558e-05
1.26579e-05
-1.77538e-05
1.20644e-05
-4.90512e-06
9.36573e-05
8.04291e-06
-4.30216e-06
-1.81302e-05
1.361e-05
-6.5746e-07
-4.92226e-05
1.42533e-05
-3.97322e-07
-1.16104e-05
1.09254e-05
1.15302e-07
-1.5865e-05
1.1185e-05
1.29299e-07
-1.27702e-05
1.05056e-05
1.39984e-07
-1.30176e-05
1.04091e-05
3.56906e-08
-1.24664e-05
1.02495e-05
-3.92211e-08
-1.27058e-05
1.02676e-05
-1.43164e-07
-1.24679e-05
1.02609e-05
-1.31265e-07
-1.30376e-05
1.0437e-05
-1.15303e-07
-1.28038e-05
1.05444e-05
3.9955e-07
-1.58913e-05
1.12296e-05
6.61262e-07
-1.16289e-05
1.09642e-05
4.3002e-06
-4.91843e-05
1.42767e-05
-1.81762e-05
1.36459e-05
-4.63094e-06
9.9263e-05
9.2071e-06
-4.10905e-06
-1.82721e-05
1.52188e-05
-7.28141e-07
-5.24004e-05
1.58952e-05
-4.20896e-07
-1.1513e-05
1.23855e-05
8.6433e-08
-1.61002e-05
1.26625e-05
1.08356e-07
-1.26995e-05
1.19213e-05
1.27022e-07
-1.29874e-05
1.1813e-05
3.19142e-08
-1.23824e-05
1.16355e-05
-3.4486e-08
-1.26465e-05
1.16552e-05
-1.29291e-07
-1.23836e-05
1.1648e-05
-1.09649e-07
-1.30079e-05
1.18434e-05
-8.60735e-08
-1.27348e-05
1.19632e-05
4.22987e-07
-1.61259e-05
1.27102e-05
7.31378e-07
-1.15301e-05
1.24271e-05
4.10672e-06
-5.23565e-05
1.59196e-05
-1.83242e-05
1.52564e-05
-4.32006e-06
0.000104878
1.04232e-05
-3.87488e-06
-1.81469e-05
1.68532e-05
-7.95501e-07
-5.51196e-05
1.7559e-05
-4.4239e-07
-1.11742e-05
1.39016e-05
5.57382e-08
-1.60511e-05
1.41938e-05
8.58754e-08
-1.23482e-05
1.33941e-05
1.12678e-07
-1.26754e-05
1.32738e-05
2.77636e-08
-1.20144e-05
1.30787e-05
-2.93512e-08
-1.23034e-05
1.31e-05
-1.14013e-07
-1.20154e-05
1.30923e-05
-8.64793e-08
-1.26964e-05
1.33067e-05
-5.50165e-08
-1.23852e-05
1.34389e-05
4.44334e-07
-1.60761e-05
1.42445e-05
7.98169e-07
-1.11898e-05
1.3946e-05
3.87231e-06
-5.50704e-05
1.75843e-05
-1.82058e-05
1.68922e-05
-3.97981e-06
0.000110496
1.17084e-05
-3.60684e-06
-1.77698e-05
1.85114e-05
-8.57613e-07
-5.73707e-05
1.92437e-05
-4.61451e-07
-1.06007e-05
1.54721e-05
2.41699e-08
-1.57234e-05
1.57769e-05
6.24606e-08
-1.17228e-05
1.49226e-05
9.73626e-08
-1.20873e-05
1.47904e-05
2.33579e-08
-1.13676e-05
1.45783e-05
-2.39579e-08
-1.16816e-05
1.4601e-05
-9.77625e-08
-1.13687e-05
1.4593e-05
-6.23766e-08
-1.2109e-05
1.48258e-05
-2.31017e-08
-1.17615e-05
1.49703e-05
4.63246e-07
-1.57474e-05
1.58303e-05
8.59736e-07
-1.06146e-05
1.55189e-05
3.60422e-06
-5.73166e-05
1.92698e-05
-1.78361e-05
1.85517e-05
-3.61569e-06
0.000116103
1.30689e-05
-3.31175e-06
-1.71595e-05
2.01901e-05
-9.12896e-07
-5.91558e-05
2.09455e-05
-4.77807e-07
-9.80358e-06
1.70938e-05
-7.39819e-09
-1.5129e-05
1.74086e-05
3.86643e-08
-1.08354e-05
1.65046e-05
8.14584e-08
-1.1235e-05
1.63604e-05
1.88083e-08
-1.04528e-05
1.61322e-05
-1.84377e-08
-1.0792e-05
1.6156e-05
-8.0942e-08
-1.04544e-05
1.6148e-05
-3.79074e-08
-1.12575e-05
1.63983e-05
8.92934e-09
-1.08761e-05
1.6555e-05
4.79458e-07
-1.51519e-05
1.74646e-05
9.14515e-07
-9.8157e-06
1.7143e-05
3.30923e-06
-5.90976e-05
2.09723e-05
-1.72338e-05
2.02314e-05
-3.23417e-06
0.000121688
1.45023e-05
-2.99612e-06
-1.63361e-05
2.18842e-05
-9.60136e-07
-6.04854e-05
2.2659e-05
-4.91243e-07
-8.79697e-06
1.87623e-05
-3.95916e-08
-1.42846e-05
1.9086e-05
1.50256e-08
-9.70388e-06
1.81357e-05
6.53417e-08
-1.01348e-05
1.798e-05
1.42255e-08
-9.28545e-06
1.77366e-05
-1.29206e-08
-9.65019e-06
1.77614e-05
-6.39451e-08
-9.28799e-06
1.77534e-05
-1.36244e-08
-1.01584e-05
1.80203e-05
4.13534e-08
-9.74676e-06
1.81888e-05
4.92761e-07
-1.43066e-05
1.91443e-05
9.61313e-07
-8.80761e-06
1.88138e-05
2.99389e-06
-6.0424e-05
2.26865e-05
-1.64189e-05
2.19262e-05
-2.84223e-06
0.00012724
1.60016e-05
-2.66636e-06
-1.53213e-05
2.35883e-05
-9.98555e-07
-6.13764e-05
2.43786e-05
-5.0164e-07
-7.60054e-06
2.04742e-05
-7.00478e-08
-1.32151e-05
2.08058e-05
-7.92549e-09
-8.34872e-06
1.98112e-05
4.93871e-08
-8.80682e-06
1.96439e-05
9.72223e-09
-7.88364e-06
1.93854e-05
-7.54247e-09
-8.27446e-06
1.9411e-05
-4.71626e-08
-7.88777e-06
1.94032e-05
9.93146e-09
-8.83193e-06
1.96865e-05
7.21107e-08
-8.39417e-06
1.98669e-05
5.03043e-07
-1.32368e-05
2.08665e-05
9.99362e-07
-7.6102e-06
2.05279e-05
2.66457e-06
-6.13126e-05
2.44068e-05
-1.5413e-05
2.36307e-05
-2.44711e-06
0.000132749
1.75564e-05
-2.32883e-06
-1.41371e-05
2.52971e-05
-1.02786e-06
-6.18505e-05
2.6099e-05
-5.09047e-07
-6.23805e-06
2.22238e-05
-9.86382e-08
-1.19485e-05
2.25615e-05
-2.97196e-08
-6.79584e-06
2.15258e-05
3.39506e-08
-7.27658e-06
2.13472e-05
5.41447e-09
-6.27075e-06
2.10738e-05
-2.50599e-09
-6.6883e-06
2.11002e-05
-3.09651e-08
-6.27726e-06
2.10926e-05
3.22801e-08
-7.30372e-06
2.13922e-05
1.0098e-07
-6.84447e-06
2.15841e-05
5.10354e-07
-1.19704e-05
2.26242e-05
1.02839e-06
-6.24734e-06
2.22795e-05
2.32763e-06
-6.17853e-05
2.61278e-05
-1.4238e-05
2.53397e-05
-2.05717e-06
0.000138208
1.91563e-05
-1.98988e-06
-1.28073e-05
2.70055e-05
-1.04829e-06
-6.19334e-05
2.78154e-05
-5.13728e-07
-4.73263e-06
2.4001e-05
-1.24953e-07
-1.05124e-05
2.43426e-05
-4.99901e-08
-5.07325e-06
2.3272e-05
1.93195e-08
-5.57244e-06
2.30841e-05
1.53814e-09
-4.47485e-06
2.27981e-05
2.39255e-09
-4.91983e-06
2.28252e-05
-1.56506e-08
-4.4841e-06
2.28179e-05
5.30456e-08
-5.60212e-06
2.3131e-05
1.27547e-07
-5.12565e-06
2.33326e-05
5.14963e-07
-1.05351e-05
2.44071e-05
1.04861e-06
-4.74222e-06
2.40584e-05
1.98937e-06
-6.18678e-05
2.78447e-05
-1.29176e-05
2.70481e-05
-1.6861e-06
0.000143629
2.07951e-05
-1.6557e-06
-1.13619e-05
2.87086e-05
-1.06035e-06
-6.16539e-05
2.95234e-05
-5.16019e-07
-3.10547e-06
2.5798e-05
-1.48828e-07
-8.93292e-06
2.61393e-05
-6.86042e-08
-3.20733e-06
2.50456e-05
5.61811e-09
-3.72144e-06
2.48506e-05
-2.47301e-09
-2.52354e-06
2.45548e-05
6.94862e-09
-2.99718e-06
2.45822e-05
-1.28688e-09
-2.53593e-06
2.45755e-05
7.20938e-08
-3.75405e-06
2.48992e-05
1.51644e-07
-3.26405e-06
2.51082e-05
5.17209e-07
-8.95696e-06
2.62051e-05
1.06056e-06
-3.11612e-06
2.58567e-05
1.65597e-06
-6.1589e-05
2.95531e-05
-1.14813e-05
2.8751e-05
-1.33058e-06
0.000149005
2.24707e-05
-1.33212e-06
-9.82073e-06
3.04024e-05
-1.06466e-06
-6.10435e-05
3.12198e-05
-5.16252e-07
-1.37548e-06
2.76121e-05
-1.70307e-07
-7.23403e-06
2.79487e-05
-8.55076e-08
-1.22159e-06
2.68446e-05
-7.0095e-09
-1.7477e-06
2.66442e-05
-6.04674e-09
-4.44474e-07
2.63398e-05
1.10549e-08
-9.47638e-07
2.63676e-05
1.17884e-08
-4.6005e-07
2.63614e-05
8.93741e-08
-1.78369e-06
2.66941e-05
1.73317e-07
-1.28309e-06
2.69087e-05
5.17429e-07
-7.26022e-06
2.80153e-05
1.06485e-06
-1.38806e-06
2.76717e-05
1.33321e-06
-6.09804e-05
3.125e-05
-9.95005e-06
3.04444e-05
-9.69613e-07
0.00015428
2.41821e-05
-1.02459e-06
-8.17681e-06
3.20842e-05
-1.06197e-06
-6.01365e-05
3.29026e-05
-5.14742e-07
4.40375e-07
2.94403e-05
-1.89422e-07
-5.43794e-06
2.97701e-05
-1.00619e-07
8.63823e-07
2.86644e-05
-1.85091e-08
3.28292e-07
2.846e-05
-9.24764e-09
1.73601e-06
2.81482e-05
1.4735e-08
1.204e-06
2.81764e-05
2.37335e-08
1.71714e-06
2.81707e-05
1.04809e-07
2.8856e-07
2.8511e-05
1.92608e-07
7.97067e-07
2.87297e-05
5.15939e-07
-5.46719e-06
2.98372e-05
1.06222e-06
4.24849e-07
2.95005e-05
1.02652e-06
-6.0076e-05
3.29332e-05
-8.31602e-06
3.21258e-05
-6.33105e-07
0.000159449
2.59279e-05
-7.37075e-07
-6.44903e-06
3.37531e-05
-1.05319e-06
-5.89681e-05
3.45702e-05
-5.11727e-07
2.32632e-06
3.12785e-05
-2.06165e-07
-3.56532e-06
3.15994e-05
-1.13915e-07
3.03194e-06
3.05015e-05
-2.88426e-08
2.48957e-06
3.02948e-05
-1.20986e-08
3.99892e-06
2.99772e-05
1.79903e-08
3.43924e-06
3.00056e-05
3.44326e-08
3.97663e-06
3.00004e-05
1.18375e-07
2.44572e-06
3.03465e-05
2.09508e-07
2.95944e-06
3.05677e-05
5.12974e-07
-3.5987e-06
3.16666e-05
1.05356e-06
2.30664e-06
3.13389e-05
7.3985e-07
-5.89111e-05
3.46012e-05
-6.59803e-06
3.37942e-05
-2.9383e-07
0.000164449
2.77059e-05
-4.7061e-07
-4.62762e-06
3.54118e-05
-1.03929e-06
-5.75715e-05
3.62218e-05
-5.07415e-07
4.26686e-06
3.31233e-05
-2.20588e-07
-1.63577e-06
3.34329e-05
-1.25409e-07
5.26835e-06
3.23535e-05
-3.79893e-08
4.72213e-06
3.21463e-05
-1.46032e-08
6.33132e-06
3.18249e-05
2.08249e-08
5.74451e-06
3.18535e-05
4.38733e-08
6.3054e-06
3.18489e-05
1.30094e-07
4.67371e-06
3.21986e-05
2.2407e-07
5.18951e-06
3.24203e-05
5.08743e-07
-1.67454e-06
3.34999e-05
1.03986e-06
4.24163e-06
3.31836e-05
4.74261e-07
-5.75189e-05
3.62532e-05
-4.78688e-06
3.54521e-05
3.02593e-09
0.0001693
2.95129e-05
-2.23869e-07
-2.74894e-06
3.70622e-05
-1.02124e-06
-5.59751e-05
3.78574e-05
-5.01997e-07
6.24595e-06
3.49717e-05
-2.32781e-07
3.316e-07
3.52677e-05
-1.35124e-07
7.56012e-06
3.42182e-05
-4.59412e-08
7.01392e-06
3.40126e-05
-1.67617e-08
8.72194e-06
3.36899e-05
2.32437e-08
8.10885e-06
3.37185e-05
5.20545e-08
8.69235e-06
3.37145e-05
1.39993e-07
6.96032e-06
3.4065e-05
2.36391e-07
7.47414e-06
3.4285e-05
5.03437e-07
2.85995e-07
3.5334e-05
1.02205e-06
6.21358e-06
3.50315e-05
2.28689e-07
-5.59279e-05
3.78891e-05
-2.91758e-06
3.71018e-05
2.66993e-07
0.000173999
3.13449e-05
5.54662e-09
-8.41732e-07
3.87038e-05
-9.99941e-07
-5.42008e-05
3.94775e-05
-4.95601e-07
8.24603e-06
3.68206e-05
-2.42836e-07
2.31755e-06
3.71008e-05
-1.43079e-07
9.89414e-06
3.60929e-05
-5.26923e-08
9.35321e-06
3.58912e-05
-1.85707e-08
1.1161e-05
3.55702e-05
2.52496e-08
1.05223e-05
3.55985e-05
5.89787e-08
1.11278e-05
3.55953e-05
1.48098e-07
9.29358e-06
3.59433e-05
2.46567e-07
9.80001e-06
3.61594e-05
4.97186e-07
2.26353e-06
3.71661e-05
1.00104e-06
8.20483e-06
3.68795e-05
-2.36994e-10
-5.41593e-05
3.95095e-05
-1.01969e-06
3.87425e-05
5.02782e-07
0.000178534
3.3197e-05
1.89664e-07
1.0986e-06
4.03357e-05
-9.76226e-07
-5.22953e-05
4.10834e-05
-4.88309e-07
1.02471e-05
3.8667e-05
-2.5084e-07
4.30194e-06
3.89295e-05
-1.49292e-07
1.22551e-05
3.79748e-05
-5.824e-08
1.17262e-05
3.77794e-05
-2.00249e-08
1.36375e-05
3.74634e-05
2.68461e-08
1.29733e-05
3.74912e-05
6.46525e-08
1.36007e-05
3.74889e-05
1.54437e-07
1.16595e-05
3.78308e-05
2.54693e-07
1.21516e-05
3.80406e-05
4.9007e-07
4.23785e-06
3.89934e-05
9.77654e-07
1.01953e-05
3.87246e-05
-1.83309e-07
-5.22603e-05
4.11157e-05
9.12167e-07
4.03735e-05
7.09194e-07
0.00018289
3.50647e-05
3.69942e-07
3.03543e-06
4.19573e-05
-9.5075e-07
-5.02622e-05
4.26778e-05
-4.80181e-07
1.22255e-05
4.05077e-05
-2.56878e-07
6.26271e-06
4.07514e-05
-1.53791e-07
1.46234e-05
3.98607e-05
-6.25899e-08
1.41147e-05
3.9674e-05
-2.11195e-08
1.61357e-05
3.93669e-05
2.80387e-08
1.54459e-05
3.93936e-05
6.90926e-08
1.60953e-05
3.93926e-05
1.59047e-07
1.40397e-05
3.97244e-05
2.6086e-07
1.45091e-05
3.99253e-05
4.82148e-07
6.18693e-06
4.08135e-05
9.52535e-07
1.21614e-05
4.05638e-05
-3.62934e-07
-5.02341e-05
4.27104e-05
2.84066e-06
4.19942e-05
8.93994e-07
0.000187038
3.69431e-05
5.22737e-07
4.9648e-06
4.35685e-05
-9.24017e-07
-4.81276e-05
4.42637e-05
-4.71264e-07
1.41536e-05
4.23397e-05
-2.61049e-07
8.17518e-06
4.25641e-05
-1.5663e-07
1.6973e-05
4.17469e-05
-6.57674e-08
1.64937e-05
4.15711e-05
-2.18546e-08
1.86332e-05
4.12769e-05
2.88394e-08
1.79172e-05
4.13022e-05
7.23364e-08
1.85888e-05
4.13027e-05
1.61991e-07
1.6409e-05
4.16201e-05
2.65171e-07
1.68465e-05
4.18099e-05
4.73463e-07
8.08628e-06
4.26243e-05
9.26178e-07
1.40758e-05
4.2394e-05
-5.15038e-07
-4.81066e-05
4.42967e-05
4.76206e-06
4.36045e-05
1.05653e-06
0.00019095
3.8828e-05
6.51116e-07
6.88006e-06
4.51699e-05
-8.96403e-07
-4.59136e-05
4.58437e-05
-4.61584e-07
1.60018e-05
4.41609e-05
-2.63476e-07
1.00136e-05
4.43658e-05
-1.57906e-07
1.92711e-05
4.36291e-05
-6.78306e-08
1.88308e-05
4.34661e-05
-2.22411e-08
2.10992e-05
4.31887e-05
2.92724e-08
2.03562e-05
4.32121e-05
7.44546e-08
2.10504e-05
4.32143e-05
1.63376e-07
1.87352e-05
4.35135e-05
2.67755e-07
1.9131e-05
4.36901e-05
4.64039e-07
9.91064e-06
4.44239e-05
8.98954e-07
1.59094e-05
4.42133e-05
-6.42752e-07
-4.59001e-05
4.58769e-05
6.66979e-06
4.5205e-05
1.19793e-06
0.000194594
4.07145e-05
7.57143e-07
8.77663e-06
4.67621e-05
-8.6821e-07
-4.36402e-05
4.74196e-05
-4.51136e-07
1.77468e-05
4.59701e-05
-2.64305e-07
1.17561e-05
4.61557e-05
-1.57756e-07
2.14791e-05
4.55033e-05
-6.88724e-08
2.10867e-05
4.53544e-05
-2.23036e-08
2.34944e-05
4.5097e-05
2.93757e-08
2.27237e-05
4.5118e-05
7.55518e-08
2.34406e-05
4.51223e-05
1.63345e-07
2.09791e-05
4.53999e-05
2.6876e-07
2.13246e-05
4.55621e-05
4.53867e-07
1.16388e-05
4.62116e-05
8.71159e-07
1.76396e-05
4.60206e-05
-7.48164e-07
-4.36344e-05
4.74531e-05
8.55933e-06
4.67965e-05
1.32067e-06
0.00019794
4.25961e-05
8.42748e-07
1.06547e-05
4.83468e-05
-8.39728e-07
-4.13249e-05
4.89934e-05
-4.39902e-07
1.93745e-05
4.77673e-05
-2.63687e-07
1.33889e-05
4.79335e-05
-1.56333e-07
2.35626e-05
4.73664e-05
-6.90075e-08
2.32217e-05
4.7232e-05
-2.2077e-08
2.57745e-05
4.69968e-05
2.91966e-08
2.49757e-05
4.7015e-05
7.57528e-08
2.57152e-05
4.70215e-05
1.62059e-07
2.31019e-05
4.72755e-05
2.68337e-07
2.33934e-05
4.74228e-05
4.42927e-07
1.32575e-05
4.79873e-05
8.43079e-07
1.92528e-05
4.78159e-05
-8.33214e-07
-4.1327e-05
4.90273e-05
1.0431e-05
4.83804e-05
1.42772e-06
0.000200956
4.44645e-05
9.10139e-07
1.25179e-05
4.99255e-05
-8.11229e-07
-3.89828e-05
5.05671e-05
-4.27872e-07
2.08761e-05
4.95526e-05
-2.61775e-07
1.49048e-05
4.96997e-05
-1.53797e-07
2.5499e-05
4.92157e-05
-6.83568e-08
2.52087e-05
4.90956e-05
-2.15991e-08
2.79057e-05
4.88836e-05
2.87836e-08
2.70788e-05
4.88988e-05
7.51878e-08
2.78407e-05
4.89077e-05
1.59682e-07
2.50773e-05
4.91372e-05
2.66643e-07
2.53156e-05
4.92698e-05
4.31206e-07
1.476e-05
4.97514e-05
8.14982e-07
2.07406e-05
4.95993e-05
-9.00112e-07
-3.8993e-05
5.06013e-05
1.22882e-05
4.99586e-05
1.52159e-06
0.000203607
4.63108e-05
9.61478e-07
1.43707e-05
5.15004e-05
-7.83e-07
-3.6627e-05
5.21429e-05
-4.1506e-07
2.22467e-05
5.13264e-05
-2.58734e-07
1.63001e-05
5.14547e-05
-1.50314e-07
2.72757e-05
5.10493e-05
-6.70474e-08
2.70335e-05
5.09424e-05
-2.09082e-08
2.9869e-05
5.07538e-05
2.81844e-08
2.9015e-05
5.07658e-05
7.39922e-08
2.97984e-05
5.07772e-05
1.56382e-07
2.68915e-05
5.09822e-05
2.6384e-07
2.70791e-05
5.11011e-05
4.18718e-07
1.61428e-05
5.15047e-05
7.87154e-07
2.20985e-05
5.13714e-05
-9.51016e-07
-3.66452e-05
5.21775e-05
1.41357e-05
5.1533e-05
1.60453e-06
0.000205864
4.813e-05
9.98851e-07
1.62184e-05
5.3074e-05
-7.55421e-07
-3.42684e-05
5.37229e-05
-4.01529e-07
2.34855e-05
5.3089e-05
-2.54734e-07
1.75748e-05
5.31992e-05
-1.46061e-07
2.88873e-05
5.28656e-05
-6.52126e-08
2.86898e-05
5.27704e-05
-2.00437e-08
3.16556e-05
5.26044e-05
2.74464e-08
3.07758e-05
5.26132e-05
7.23059e-08
3.15796e-05
5.26271e-05
1.52343e-07
2.85383e-05
5.28086e-05
2.601e-07
2.86787e-05
5.29153e-05
4.05518e-07
1.74062e-05
5.32476e-05
7.5997e-07
2.33256e-05
5.31324e-05
-9.88009e-07
-3.42947e-05
5.37579e-05
1.59785e-05
5.31063e-05
1.67822e-06
0.000207698
4.99269e-05
1.02396e-06
1.80665e-05
5.46491e-05
-7.28786e-07
-3.19166e-05
5.53104e-05
-3.87396e-07
2.45951e-05
5.48407e-05
-2.49961e-07
1.87321e-05
5.49338e-05
-1.41229e-07
3.03348e-05
5.46635e-05
-6.29894e-08
3.01785e-05
5.45784e-05
-1.90471e-08
3.32646e-05
5.44333e-05
2.66168e-08
3.23604e-05
5.44389e-05
7.02703e-08
3.31835e-05
5.44554e-05
1.47755e-07
3.00185e-05
5.46152e-05
2.55605e-07
3.01155e-05
5.47114e-05
3.91722e-07
1.85534e-05
5.49808e-05
7.3372e-07
2.44248e-05
5.48829e-05
-1.01279e-06
-3.19508e-05
5.53459e-05
1.78221e-05
5.46812e-05
1.74347e-06
0.000209085
5.17162e-05
1.03797e-06
1.99203e-05
5.62295e-05
-7.03122e-07
-2.95805e-05
5.69095e-05
-3.72849e-07
2.55818e-05
5.65823e-05
-2.4462e-07
1.97783e-05
5.66591e-05
-1.36022e-07
3.16245e-05
5.64431e-05
-6.05156e-08
3.15058e-05
5.63659e-05
-1.79622e-08
3.47014e-05
5.62396e-05
2.57428e-08
3.37747e-05
5.62422e-05
6.80257e-08
3.46156e-05
5.62611e-05
1.42822e-07
3.13384e-05
5.64015e-05
2.5056e-07
3.13959e-05
5.64895e-05
3.77514e-07
1.95908e-05
5.67052e-05
7.08426e-07
2.54023e-05
5.66235e-05
-1.02651e-06
-2.96227e-05
5.69455e-05
1.96719e-05
5.62615e-05
1.79978e-06
0.000210012
5.35077e-05
1.04193e-06
2.17834e-05
5.78188e-05
-6.78332e-07
-2.72694e-05
5.85232e-05
-3.58174e-07
2.64543e-05
5.83145e-05
-2.38975e-07
2.07217e-05
5.8376e-05
-1.30668e-07
3.27666e-05
5.82049e-05
-5.79327e-08
3.26823e-05
5.81336e-05
-1.68355e-08
3.59764e-05
5.80236e-05
2.48717e-08
3.5029e-05
5.80232e-05
6.57134e-08
3.58863e-05
5.80445e-05
1.37772e-07
3.25085e-05
5.81683e-05
2.45222e-07
3.253e-05
5.82503e-05
3.63174e-07
2.05268e-05
5.84213e-05
6.8399e-07
2.62669e-05
5.8355e-05
-1.03022e-06
-2.73193e-05
5.85597e-05
2.15313e-05
5.78508e-05
1.84658e-06
0.000210471
5.5303e-05
1.03697e-06
2.36568e-05
5.94203e-05
-6.54354e-07
-2.49917e-05
6.01529e-05
-3.4367e-07
2.72232e-05
6.00388e-05
-2.33366e-07
2.15725e-05
6.00859e-05
-1.25415e-07
3.3774e-05
5.99511e-05
-5.53833e-08
3.37211e-05
5.98834e-05
-1.57197e-08
3.71032e-05
5.97868e-05
2.4053e-08
3.61368e-05
5.97838e-05
6.34722e-08
3.70093e-05
5.98073e-05
1.32847e-07
3.35419e-05
5.99176e-05
2.39931e-07
3.35306e-05
5.99957e-05
3.49001e-07
2.13714e-05
6.01308e-05
6.60346e-07
2.70288e-05
6.00788e-05
-1.02505e-06
-2.50493e-05
6.01899e-05
2.34013e-05
5.94523e-05
1.88448e-06
0.000210468
5.71039e-05
1.0242e-06
2.554e-05
6.10367e-05
-6.31073e-07
-2.27559e-05
6.17996e-05
-3.29344e-07
2.78996e-05
6.17588e-05
-2.28029e-07
2.23415e-05
6.17933e-05
-1.20408e-07
3.46607e-05
6.16865e-05
-5.2958e-08
3.4637e-05
6.16206e-05
-1.46581e-08
3.80974e-05
6.15341e-05
2.33256e-08
3.71136e-05
6.15288e-05
6.13869e-08
3.8e-05
6.15543e-05
1.28189e-07
3.44532e-05
6.16546e-05
2.34921e-07
3.44115e-05
6.17307e-05
3.35004e-07
2.21354e-05
6.18381e-05
6.37385e-07
2.76995e-05
6.17987e-05
-1.01212e-06
-2.28208e-05
6.18372e-05
2.52816e-05
6.10688e-05
1.91493e-06
0.000210008
5.89128e-05
1.00517e-06
2.74322e-05
6.267e-05
-6.08144e-07
-2.05692e-05
6.34642e-05
-3.14976e-07
2.8495e-05
6.34806e-05
-2.22948e-07
2.304e-05
6.35043e-05
-1.15642e-07
3.54409e-05
6.34181e-05
-5.06677e-08
3.54449e-05
6.33525e-05
-1.36542e-08
3.8975e-05
6.32732e-05
2.26911e-08
3.79752e-05
6.32662e-05
5.94664e-08
3.88745e-05
6.32934e-05
1.23791e-07
3.52572e-05
6.33866e-05
2.30178e-07
3.5187e-05
6.34623e-05
3.20966e-07
2.28298e-05
6.35491e-05
6.1476e-07
2.82899e-05
6.35205e-05
-9.92958e-07
-2.06413e-05
6.35025e-05
2.71715e-05
6.27021e-05
1.93953e-06
0.000209109
6.07319e-05
9.81783e-07
2.93329e-05
6.43213e-05
-5.85175e-07
-1.84372e-05
6.51476e-05
-3.00503e-07
2.90203e-05
6.52087e-05
-2.18032e-07
2.36784e-05
6.52232e-05
-1.11093e-07
3.61288e-05
6.51514e-05
-4.8509e-08
3.61595e-05
6.50849e-05
-1.26914e-08
3.97517e-05
6.50108e-05
2.21337e-08
3.87372e-05
6.50021e-05
5.77091e-08
3.96485e-05
6.50309e-05
1.19632e-07
3.59686e-05
6.51192e-05
2.2561e-07
3.58709e-05
6.51958e-05
3.06816e-07
2.34651e-05
6.52683e-05
5.92078e-07
2.88111e-05
6.52488e-05
-9.69482e-07
-1.85163e-05
6.51865e-05
2.90703e-05
6.43535e-05
1.95999e-06
0.00020779
6.25639e-05
9.5614e-07
3.12411e-05
6.59917e-05
-5.61906e-07
-1.63631e-05
6.68506e-05
-2.85934e-07
2.94859e-05
6.69461e-05
-2.13254e-07
2.42666e-05
6.69528e-05
-1.06768e-07
3.67378e-05
6.68897e-05
-4.64922e-08
3.6795e-05
6.68214e-05
-1.17647e-08
4.04426e-05
6.67508e-05
2.16493e-08
3.94144e-05
6.67408e-05
5.61262e-08
4.03369e-05
6.67709e-05
1.15717e-07
3.66013e-05
6.68561e-05
2.21188e-07
3.64765e-05
6.69346e-05
2.92564e-07
2.40511e-05
6.69983e-05
5.69077e-07
2.92733e-05
6.69866e-05
-9.43775e-07
-1.6449e-05
6.689e-05
3.09773e-05
6.60242e-05
1.97797e-06
0.000206067
6.44114e-05
9.30317e-07
3.31558e-05
6.76824e-05
-5.3815e-07
-1.43482e-05
6.8574e-05
-2.71245e-07
2.99014e-05
6.86955e-05
-2.08621e-07
2.48137e-05
6.86955e-05
-1.0268e-07
3.72806e-05
6.86366e-05
-4.4626e-08
3.73644e-05
6.85657e-05
-1.08758e-08
4.10613e-05
6.84973e-05
2.12392e-08
4.00206e-05
6.84861e-05
5.47253e-08
4.09535e-05
6.85175e-05
1.12061e-07
3.71684e-05
6.86009e-05
2.16918e-07
3.70166e-05
6.8682e-05
2.78184e-07
2.45966e-05
6.87417e-05
5.4557e-07
2.96859e-05
6.87367e-05
-9.17907e-07
-1.44407e-05
6.8614e-05
3.28916e-05
6.7715e-05
1.99127e-06
0.000203978
6.62772e-05
9.06222e-07
3.5072e-05
6.93943e-05
-5.13769e-07
-1.23921e-05
7.03188e-05
-2.56429e-07
3.02758e-05
7.04594e-05
-2.04129e-07
2.53281e-05
7.04538e-05
-9.88362e-08
3.7769e-05
7.0395e-05
-4.29136e-08
3.78797e-05
7.03214e-05
-1.00251e-08
4.16195e-05
7.0255e-05
2.09028e-08
4.05674e-05
7.02427e-05
5.35088e-08
4.15099e-05
7.02754e-05
1.08668e-07
3.76817e-05
7.03572e-05
2.12795e-07
3.75028e-05
7.04412e-05
2.63669e-07
2.511e-05
7.05008e-05
5.21415e-07
3.00579e-05
7.05013e-05
-8.93779e-07
-1.2491e-05
7.03593e-05
3.48051e-05
6.9427e-05
1.98776e-06
0.000201592
6.81639e-05
8.85451e-07
3.6971e-05
7.11282e-05
-4.8864e-07
-1.04933e-05
7.20857e-05
-2.41461e-07
3.06173e-05
7.22399e-05
-1.99748e-07
2.58174e-05
7.22297e-05
-9.52235e-08
3.8213e-05
7.21686e-05
-4.13502e-08
3.83504e-05
7.20926e-05
-9.20959e-09
4.21265e-05
7.20281e-05
2.06366e-08
4.10641e-05
7.20148e-05
5.24709e-08
4.20153e-05
7.20486e-05
1.05527e-07
3.81507e-05
7.21291e-05
2.0879e-07
3.7945e-05
7.22154e-05
2.48991e-07
2.55987e-05
7.22776e-05
4.96493e-07
3.03974e-05
7.22825e-05
-8.72991e-07
-1.05986e-05
7.21268e-05
3.67015e-05
7.11612e-05
1.98106e-06
0.000198966
7.00742e-05
8.6923e-07
3.88463e-05
7.28852e-05
-4.62666e-07
-8.64945e-06
7.38757e-05
-2.26304e-07
3.09336e-05
7.40385e-05
-1.95431e-07
2.62884e-05
7.40249e-05
-9.18214e-08
3.86204e-05
7.39608e-05
-3.9928e-08
3.87837e-05
7.3883e-05
-8.42432e-09
4.25905e-05
7.38194e-05
2.04354e-08
4.15188e-05
7.38053e-05
5.16032e-08
4.2478e-05
7.38402e-05
1.02615e-07
3.85827e-05
7.39201e-05
2.04856e-07
3.83512e-05
7.40083e-05
2.34117e-07
2.60695e-05
7.40738e-05
4.70703e-07
3.07119e-05
7.4082e-05
-8.56764e-07
-8.76092e-06
7.39174e-05
3.85742e-05
7.29184e-05
1.97159e-06
0.000196175
7.20097e-05
8.58372e-07
4.06911e-05
7.46662e-05
-4.35767e-07
-6.85726e-06
7.56894e-05
-2.1092e-07
3.1232e-05
7.58566e-05
-1.91126e-07
2.67469e-05
7.58412e-05
-8.86049e-08
3.89973e-05
7.57746e-05
-3.8636e-08
3.91861e-05
7.56948e-05
-7.66428e-09
4.30185e-05
7.56313e-05
2.02943e-08
4.19384e-05
7.56165e-05
5.08946e-08
4.29049e-05
7.56523e-05
9.99079e-08
3.8984e-05
7.57324e-05
2.00939e-07
3.87272e-05
7.58228e-05
2.19006e-07
2.65279e-05
7.58911e-05
4.43969e-07
3.10087e-05
7.59011e-05
-8.45912e-07
-6.97478e-06
7.57316e-05
4.04163e-05
7.46995e-05
1.95954e-06
0.00019328
7.39713e-05
8.53339e-07
4.24979e-05
7.6472e-05
-4.07895e-07
-5.11307e-06
7.75274e-05
-1.95259e-07
3.15191e-05
7.76955e-05
-1.8678e-07
2.71969e-05
7.76806e-05
-8.55459e-08
3.93488e-05
7.76116e-05
-3.74611e-08
3.95627e-05
7.75298e-05
-6.92392e-09
4.34166e-05
7.74657e-05
2.02078e-08
4.23288e-05
7.74506e-05
5.03317e-08
4.3302e-05
7.7487e-05
9.73771e-08
3.93597e-05
7.75681e-05