/*--------------------------------*- C++ -*----------------------------------*\
| =========                 |                                                 |
| \\      /  F ield         | OpenFOAM: The Open Source CFD Toolbox           |
|  \\    /   O peration     | Version:  v1912                                 |
|   \\  /    A nd           | Website:  www.openfoam.com                      |
|    \\/     M anipulation  |                                                 |
\*---------------------------------------------------------------------------*/
FoamFile
{
    version     2.0;
    format      ascii;
    class       volScalarField;
    location    "196.4";
    object      alphat;
}
// * * * * * * * * * * * * * * * * * * * * * * * * * * * * * * * * * * * * * //

dimensions      [1 -1 -1 0 0 0 0];


internalField   nonuniform List<scalar> 
10147
(
1.04592e-08
1.39001e-08
1.66581e-08
1.58388e-08
1.54643e-08
1.54669e-08
1.53907e-08
1.53664e-08
1.53499e-08
1.5373e-08
1.53996e-08
1.54797e-08
1.54759e-08
1.58511e-08
1.66786e-08
1.39236e-08
1.64253e-08
2.19369e-08
2.64329e-08
2.54589e-08
2.47072e-08
2.47162e-08
2.45749e-08
2.45344e-08
2.45011e-08
2.45482e-08
2.45949e-08
2.47453e-08
2.47338e-08
2.54893e-08
2.64623e-08
2.19705e-08
1.55108e-07
2.01358e-07
2.3434e-07
2.44422e-07
2.3581e-07
2.35862e-07
2.34329e-07
2.33912e-07
2.33532e-07
2.34079e-07
2.34581e-07
2.36231e-07
2.36152e-07
2.44822e-07
2.34774e-07
2.01754e-07
1.08481e-06
1.3772e-06
1.57862e-06
1.681e-06
1.62241e-06
1.62212e-06
1.61165e-06
1.6087e-06
1.60612e-06
1.60985e-06
1.61341e-06
1.62469e-06
1.6248e-06
1.68378e-06
1.58183e-06
1.38003e-06
4.6102e-06
5.72333e-06
6.47535e-06
6.97178e-06
6.73734e-06
6.73357e-06
6.69137e-06
6.67898e-06
6.66872e-06
6.68363e-06
6.69855e-06
6.74401e-06
6.74705e-06
6.98308e-06
6.48872e-06
5.735e-06
1.40752e-05
1.70658e-05
1.9035e-05
2.06675e-05
2.00061e-05
1.99893e-05
1.98696e-05
1.98335e-05
1.98046e-05
1.98467e-05
1.98902e-05
2.00191e-05
2.0034e-05
2.06999e-05
1.90738e-05
1.70993e-05
3.41568e-05
4.04272e-05
4.43903e-05
4.85477e-05
4.70869e-05
4.70413e-05
4.67772e-05
4.66964e-05
4.66324e-05
4.67258e-05
4.68233e-05
4.71081e-05
4.71493e-05
4.86204e-05
4.44779e-05
4.0502e-05
7.00396e-05
8.09516e-05
8.74075e-05
9.62247e-05
9.35322e-05
9.34485e-05
9.29664e-05
9.28206e-05
9.27019e-05
9.2875e-05
9.30521e-05
9.35727e-05
9.36482e-05
9.63603e-05
8.75719e-05
8.10903e-05
0.000126365
0.000142719
0.000151423
0.000167736
0.000163421
0.000163322
0.000162566
0.000162347
0.000162155
0.000162434
0.000162704
0.000163522
0.000163607
0.000167957
0.000151691
0.000142942
0.000206427
0.000227961
0.00023756
0.000264772
0.000258578
0.000258553
0.000257509
0.000257235
0.000256953
0.000257359
0.000257706
0.00025884
0.000258845
0.000265093
0.000237952
0.00022828
0.000311905
0.00033695
0.00034483
0.000386787
0.000378645
0.00037888
0.000377595
0.000377318
0.000376937
0.00037748
0.000377851
0.000379256
0.000378993
0.000387214
0.000345358
0.000337364
0.000443105
0.000468464
0.000470782
0.000531722
0.000521758
0.000522561
0.000521151
0.000520963
0.000520481
0.000521158
0.000521457
0.000523018
0.000522175
0.000532254
0.000471446
0.000468962
0.000599477
0.000620447
0.000604091
0.000696817
0.00068533
0.000687163
0.000685814
0.000685851
0.000685272
0.000686072
0.000686154
0.00068768
0.000685795
0.000697442
0.000604795
0.000621007
0.000780115
0.000790656
0.000739986
0.000869755
0.000860292
0.000867029
0.0008677
0.000869184
0.000868674
0.000869345
0.00086791
0.000867406
0.000860617
0.000870344
0.000740786
0.000791246
0.000984094
0.000967946
0.000886559
0.00105159
0.00104215
0.00105281
0.00105474
0.00105727
0.00105674
0.00105741
0.00105487
0.00105311
0.00104239
0.00105219
0.000887453
0.000968279
0.00121061
0.00115595
0.00104433
0.00124905
0.00123977
0.00125549
0.00125904
0.00126292
0.00126237
0.00126301
0.00125905
0.00125568
0.00123988
0.00124962
0.00104531
0.00115616
0.00145899
0.00136001
0.00121328
0.00146319
0.00145459
0.00147717
0.00148295
0.00148867
0.00148811
0.0014887
0.00148278
0.00147717
0.00145449
0.00146368
0.00121432
0.00136008
0.00172866
0.00158133
0.00139345
0.00169446
0.00168723
0.00171899
0.00172782
0.00173587
0.00173532
0.00173581
0.00172738
0.0017187
0.00168682
0.0016948
0.00139453
0.0015812
0.00201892
0.00182066
0.00158503
0.00194333
0.00193833
0.00198172
0.00199425
0.00200424
0.00200363
0.00200412
0.00199347
0.00198107
0.00193747
0.00194342
0.0015861
0.00182025
0.00232966
0.00207873
0.00178841
0.00221019
0.00220831
0.00226313
0.00227813
0.00228437
0.00228316
0.0022845
0.00227714
0.00226226
0.00220691
0.00220991
0.00178943
0.00207798
0.00266087
0.00235607
0.0020042
0.00249444
0.00249576
0.00254598
0.00255182
0.00255864
0.00255738
0.0025587
0.0025518
0.00254621
0.00249404
0.0024937
0.00200513
0.00235492
0.00301242
0.00265171
0.00223319
0.00279001
0.00279045
0.00282401
0.00283196
0.0028405
0.00283921
0.00284047
0.00283179
0.00282406
0.00279016
0.00278907
0.00223395
0.00265033
0.00338362
0.00295872
0.0024756
0.00306794
0.00306754
0.00310778
0.00311811
0.00312874
0.00312751
0.00312861
0.00311777
0.00310763
0.00306698
0.00306852
0.00247615
0.00295826
0.00377302
0.00325301
0.00272739
0.0033446
0.00334992
0.00339755
0.0034107
0.00342369
0.00342254
0.00342343
0.00341013
0.00339716
0.00334905
0.00334503
0.00272785
0.00325223
0.00417981
0.00355565
0.00296408
0.00362434
0.00363658
0.0036925
0.00370903
0.00372461
0.00372358
0.00372422
0.00370819
0.00369181
0.00363534
0.0036246
0.00296526
0.00355453
0.00460304
0.00386655
0.00317656
0.0039063
0.00392645
0.00399196
0.00401242
0.00403084
0.00402994
0.00403029
0.00401127
0.00399092
0.00392482
0.00390633
0.00317761
0.00386505
0.00504169
0.00418519
0.00338878
0.00418996
0.00421878
0.00429528
0.00432017
0.00434175
0.00434102
0.00434103
0.00431867
0.00429384
0.0042167
0.00418972
0.00338968
0.00418329
0.00549465
0.00451106
0.00360064
0.00447481
0.00451307
0.00460184
0.00463164
0.00465674
0.00465624
0.00465583
0.00462976
0.00459996
0.00451049
0.00447426
0.00360135
0.00450873
0.00596076
0.00484363
0.0038121
0.00476032
0.00480882
0.00491108
0.00494624
0.00497518
0.00497495
0.00497406
0.00494396
0.00490873
0.00480571
0.00475942
0.0038126
0.00484085
0.00643876
0.00518232
0.00402325
0.00504597
0.00510553
0.00522241
0.00526339
0.00529645
0.00529656
0.00529512
0.00526068
0.00521958
0.00510184
0.00504468
0.00402349
0.00517908
0.0069274
0.00552659
0.00423422
0.00533125
0.00540268
0.00553529
0.00558249
0.00561995
0.00562046
0.0056184
0.00557934
0.00553194
0.00539837
0.00532952
0.00423418
0.00552288
0.00742537
0.00587586
0.00444523
0.00561566
0.00569975
0.00584911
0.00590295
0.00594506
0.00594601
0.00594329
0.00589934
0.00584522
0.00569479
0.00561345
0.00444489
0.00587168
0.00793135
0.0062295
0.00465658
0.00589872
0.00599624
0.00616328
0.00622413
0.00627113
0.00627258
0.00626914
0.00622004
0.00615883
0.00599059
0.00589599
0.00465589
0.00622484
0.00844401
0.00658685
0.00486861
0.00617999
0.00629167
0.00647718
0.00654538
0.0065975
0.00659949
0.00659528
0.00654081
0.00647216
0.0062853
0.00617672
0.00486756
0.00658174
0.00896195
0.00694725
0.00508173
0.00645912
0.0065856
0.00679021
0.00686605
0.00692346
0.00692605
0.00692103
0.00686099
0.0067846
0.00657851
0.00645528
0.0050803
0.0069417
0.00948376
0.00731024
0.00529639
0.0067358
0.00687766
0.00710174
0.00718546
0.00724831
0.00725154
0.00724566
0.00717992
0.00709555
0.00686985
0.00673139
0.00529455
0.00730427
0.0100079
0.00767542
0.00551305
0.00700983
0.00716757
0.0074112
0.00750295
0.00757133
0.00757524
0.00756846
0.00749693
0.00740443
0.00715907
0.00700484
0.00551077
0.00766905
0.010533
0.00804248
0.00573214
0.00728106
0.00745512
0.00771804
0.00781788
0.0078918
0.00789643
0.00788871
0.0078114
0.00771072
0.00744593
0.00727545
0.00572941
0.00803575
0.0110573
0.00841118
0.00595406
0.00754938
0.0077401
0.00802175
0.00812963
0.008209
0.0082144
0.00820572
0.00812273
0.00801391
0.00773023
0.00754316
0.00595088
0.00840412
0.0115795
0.00878133
0.00617919
0.00781465
0.00802229
0.00832182
0.00843758
0.00852222
0.00852843
0.00851876
0.00843029
0.0083135
0.00801178
0.00780783
0.00617553
0.00877397
0.0120979
0.00915279
0.00640781
0.00807636
0.00830126
0.0086176
0.00874095
0.0088306
0.00883766
0.00882698
0.00873332
0.00860883
0.00829013
0.00806896
0.00640366
0.00914516
0.0126111
0.00952551
0.00664012
0.0083337
0.00857611
0.00890852
0.00903924
0.00913359
0.00914153
0.00912983
0.00903132
0.00889935
0.00856442
0.00832576
0.00663547
0.00951766
0.0131176
0.00989951
0.00687622
0.00858579
0.00884595
0.00919379
0.00933173
0.00943061
0.00943946
0.00942672
0.00932355
0.00918424
0.00883375
0.00857732
0.00687108
0.00989146
0.0136158
0.0102749
0.00711608
0.00883195
0.00910998
0.00947265
0.00961749
0.00972055
0.00973034
0.00971654
0.00960908
0.00946277
0.00909734
0.00882299
0.00711045
0.0102666
0.014104
0.0106517
0.00735957
0.00907212
0.00936783
0.00974452
0.00989564
0.0100021
0.0100129
0.00999799
0.00988706
0.00973441
0.00935488
0.00906274
0.00735346
0.0106434
0.0145804
0.0110304
0.00760644
0.0093064
0.0096196
0.0100087
0.0101649
0.0102732
0.010285
0.010269
0.0101563
0.00999848
0.00960648
0.00929673
0.00759986
0.0110219
0.0150286
0.0114113
0.00785632
0.00953494
0.00986547
0.0102641
0.0104236
0.0105333
0.0105461
0.0105291
0.010415
0.0102538
0.00985235
0.00952508
0.0078493
0.0114027
0.015293
0.011795
0.00810873
0.00975768
0.0101054
0.0105089
0.0106716
0.0107823
0.0107961
0.0107781
0.0106629
0.0104986
0.0100923
0.00974772
0.0081013
0.0117864
0.01546
0.0121824
0.00836356
0.00997411
0.0103384
0.010743
0.0109085
0.0110199
0.0110348
0.0110157
0.0108999
0.0107328
0.0103256
0.00996412
0.00835573
0.0121737
0.0155741
0.0125742
0.00862066
0.0101833
0.0105627
0.0109658
0.0111338
0.0112456
0.0112615
0.0112414
0.0111254
0.0109558
0.0105501
0.0101733
0.00861245
0.0125654
0.0156585
0.0129666
0.00887936
0.0103844
0.0107765
0.0111769
0.0113471
0.0114589
0.0114758
0.0114548
0.011339
0.0111672
0.0107643
0.0103746
0.00887081
0.0129577
0.0157251
0.0133338
0.00913888
0.0105779
0.0109796
0.011376
0.011548
0.0116594
0.0116772
0.0116553
0.0115402
0.0113666
0.0109679
0.0105685
0.00913001
0.0133273
0.0157801
0.0136592
0.00939847
0.0107626
0.0111743
0.011563
0.0117365
0.0118469
0.0118658
0.011843
0.011729
0.011554
0.0111634
0.0107535
0.00938933
0.013655
0.0158281
0.0140008
0.00965757
0.0109366
0.0113595
0.0117384
0.0119132
0.0120226
0.0120423
0.0120188
0.0119062
0.0117298
0.0113492
0.0109276
0.0096482
0.0139989
0.0158747
0.0143821
0.00991587
0.0110981
0.011533
0.0119022
0.0120795
0.0121881
0.0122088
0.0121845
0.0120729
0.0118944
0.0115233
0.0110893
0.00990634
0.0143821
0.0159256
0.0148009
0.0101733
0.0112468
0.0116931
0.0120566
0.0122349
0.0123437
0.0123656
0.0123403
0.012229
0.0120495
0.0116839
0.0112381
0.0101637
0.0148004
0.0159856
0.0151836
0.0104303
0.0113837
0.0118392
0.0121989
0.0123799
0.0124887
0.0125121
0.0124855
0.0123746
0.0121924
0.0118307
0.0113754
0.0104206
0.0151744
0.0160615
0.0155213
0.010687
0.0115109
0.0119726
0.0123283
0.0125124
0.0126219
0.0126468
0.0126189
0.0125077
0.0123226
0.011965
0.0115031
0.0106775
0.015512
0.0161682
0.0158481
0.010944
0.0116311
0.0120957
0.0124466
0.0126333
0.0127431
0.0127697
0.0127404
0.0126292
0.0124417
0.0120892
0.0116239
0.0109346
0.0158389
0.0163366
0.0161634
0.0112016
0.0117474
0.0122115
0.0125567
0.0127449
0.0128548
0.0128827
0.0128523
0.0127417
0.0125528
0.0122062
0.0117411
0.0111924
0.0161543
0.0166229
0.0164665
0.0114602
0.0118634
0.0123235
0.0126629
0.0128515
0.0129607
0.0129897
0.0129586
0.0128492
0.0126602
0.0123196
0.0118582
0.0114514
0.0164573
0.0171098
0.0167558
0.01172
0.0119828
0.0124347
0.0127633
0.0129506
0.0130587
0.0130886
0.0130569
0.0129491
0.0127618
0.0124323
0.0119787
0.0117117
0.0167467
0.0178867
0.0170297
0.0119812
0.0121092
0.012547
0.0128621
0.0130463
0.013152
0.0131825
0.0131507
0.0130458
0.0128619
0.0125462
0.0121066
0.0119735
0.0170206
0.0189841
0.0172857
0.0122436
0.0122465
0.0126646
0.0129637
0.013143
0.0132454
0.0132761
0.0132446
0.0131436
0.012965
0.0126657
0.0122453
0.0122366
0.0172766
0.0202017
0.0175217
0.0125067
0.0123981
0.0127918
0.0130725
0.0132452
0.0133434
0.0133739
0.0133432
0.0132471
0.0130754
0.0127949
0.0123987
0.0125005
0.0175127
0.0207627
0.0177357
0.0127696
0.0125657
0.0129326
0.0131926
0.0133573
0.0134503
0.0134804
0.0134508
0.0133605
0.0131973
0.0129377
0.0125681
0.0127642
0.0177268
0.0208544
0.0179259
0.0130309
0.0127488
0.0130903
0.0133283
0.0134835
0.0135706
0.0135997
0.0135718
0.013488
0.0133347
0.0130975
0.0127525
0.0130265
0.0179171
0.0209185
0.0180908
0.0132893
0.0129384
0.0132648
0.0134834
0.0136278
0.0137084
0.0137362
0.0137104
0.0136338
0.0134916
0.0132734
0.0129428
0.013286
0.0180822
0.0209552
0.0182285
0.0135429
0.0131292
0.0134471
0.0136592
0.0137913
0.0138635
0.0138897
0.0138662
0.0137985
0.0136689
0.013456
0.0131341
0.0135407
0.01822
0.0209652
0.018336
0.0137898
0.0133206
0.0136282
0.0138448
0.0139692
0.0140338
0.0140578
0.0140369
0.013977
0.0138547
0.013637
0.0133264
0.0137889
0.0183277
0.0209485
0.01841
0.014028
0.0135128
0.0138053
0.0140239
0.0141449
0.0142069
0.0142291
0.0142101
0.0141524
0.0140333
0.013814
0.0135196
0.0140284
0.0184019
0.0209045
0.0184477
0.0142549
0.0137053
0.0139775
0.0141904
0.0143039
0.0143642
0.0143841
0.014367
0.0143108
0.0141994
0.013986
0.0137132
0.0142567
0.0184399
0.0208318
0.0184471
0.0144681
0.0138967
0.0141435
0.0143437
0.0144457
0.0145008
0.0145183
0.0145035
0.0144522
0.0143527
0.014152
0.0139058
0.0144713
0.0184396
0.0207279
0.0184067
0.0146648
0.0140851
0.0143031
0.0144849
0.0145721
0.014619
0.0146336
0.0146216
0.0145784
0.0144939
0.0143127
0.0140954
0.0146695
0.0183998
0.0205884
0.0183259
0.0148425
0.0142678
0.014457
0.014614
0.0146839
0.0147203
0.0147318
0.0147229
0.0146902
0.0146232
0.0144675
0.0142793
0.0148487
0.0183197
0.0204027
0.0182044
0.0149984
0.0144419
0.0146027
0.0147307
0.0147813
0.0148053
0.0148135
0.014808
0.0147877
0.0147402
0.0146141
0.0144545
0.0150059
0.0181991
0.0201585
0.0180431
0.0151277
0.0146036
0.0147374
0.0148337
0.0148636
0.0148741
0.0148789
0.014877
0.0148702
0.0148436
0.0147496
0.0146173
0.0151367
0.0180389
0.0198527
0.0178438
0.0152297
0.0147485
0.0148586
0.0149227
0.0149312
0.0149266
0.0149278
0.0149296
0.014938
0.0149329
0.0148714
0.0147632
0.0152402
0.0178406
0.0194874
0.017609
0.0153036
0.0148735
0.0149633
0.0149958
0.0149828
0.0149625
0.0149602
0.0149657
0.0149899
0.0150064
0.0149767
0.0148891
0.0153155
0.0176072
1.92019e-08
1.51632e-08
1.25531e-08
1.36309e-08
1.38417e-08
1.39659e-08
1.40041e-08
1.40317e-08
1.40265e-08
1.40397e-08
1.40219e-08
1.39885e-08
1.38638e-08
1.36522e-08
1.25679e-08
1.51735e-08
3.58375e-08
2.63217e-08
2.14855e-08
2.4037e-08
2.45634e-08
2.50988e-08
2.52905e-08
2.54257e-08
2.54263e-08
2.54426e-08
2.53259e-08
2.51442e-08
2.46041e-08
2.40786e-08
2.15164e-08
2.6336e-08
3.94e-07
2.75576e-07
2.23837e-07
2.56339e-07
2.6329e-07
2.71903e-07
2.75099e-07
2.77335e-07
2.77439e-07
2.77538e-07
2.75503e-07
2.72429e-07
2.63727e-07
2.56811e-07
2.24209e-07
2.7569e-07
2.72476e-06
1.92874e-06
1.58162e-06
1.80598e-06
1.8544e-06
1.91567e-06
1.93849e-06
1.95443e-06
1.95523e-06
1.95582e-06
1.94124e-06
1.91925e-06
1.85734e-06
1.80919e-06
1.58422e-06
1.92948e-06
1.12154e-05
8.08384e-06
6.71216e-06
7.62146e-06
7.81862e-06
8.07238e-06
8.16711e-06
8.23328e-06
8.23678e-06
8.23886e-06
8.17807e-06
8.08671e-06
7.83025e-06
7.63429e-06
6.72274e-06
8.08665e-06
3.28664e-05
2.41478e-05
2.03398e-05
2.29488e-05
2.35148e-05
2.42598e-05
2.45384e-05
2.47336e-05
2.47443e-05
2.47492e-05
2.45689e-05
2.42999e-05
2.35469e-05
2.29847e-05
2.03701e-05
2.41549e-05
7.61148e-05
5.69625e-05
4.87134e-05
5.46048e-05
5.58772e-05
5.76002e-05
5.82452e-05
5.87e-05
5.87254e-05
5.8734e-05
5.8311e-05
5.76869e-05
5.59455e-05
5.46827e-05
4.87811e-05
5.69757e-05
0.000148389
0.000112949
9.80656e-05
0.000109232
0.000111621
0.000114964
0.000116217
0.000117109
0.000117159
0.00011717
0.000116334
0.00011512
0.00011174
0.000109372
9.81909e-05
0.000112967
0.000253938
0.000196298
0.00017293
0.000191472
0.000195381
0.000201061
0.000203192
0.000204725
0.000204813
0.00020482
0.000203372
0.000201301
0.000195561
0.000191689
0.00017313
0.000196313
0.000393171
0.000308181
0.000275226
0.000303048
0.00030881
0.00031753
0.000320805
0.000323191
0.000323328
0.000323323
0.000321052
0.000317861
0.000309049
0.000303348
0.000275514
0.00030818
0.000563569
0.000447199
0.000404449
0.000443087
0.000450932
0.000463331
0.000467998
0.000471441
0.000471639
0.000471608
0.000468306
0.000463748
0.000451218
0.000443468
0.00040483
0.000447162
0.000761169
0.000610457
0.000558558
0.000609149
0.000619205
0.000635854
0.000642136
0.000646831
0.0006471
0.000647029
0.000642493
0.000636342
0.000619518
0.000609599
0.000559031
0.00061036
0.000981615
0.000794596
0.000734919
0.000798219
0.000810534
0.000831946
0.000840046
0.000846182
0.000846532
0.000846401
0.000840434
0.000832482
0.000810846
0.000798721
0.000735478
0.000794407
0.00120609
0.000992457
0.00093094
0.00100733
0.00102188
0.00104851
0.00105862
0.00106638
0.00106682
0.00106661
0.00105901
0.00104907
0.00102216
0.00100786
0.000931575
0.000992064
0.00144749
0.00119509
0.00114432
0.00123226
0.00124809
0.00128034
0.00129269
0.00130278
0.00130322
0.00130294
0.00129296
0.00128074
0.00124812
0.00123266
0.00114503
0.00119455
0.00170601
0.00141096
0.00136883
0.00146042
0.00147832
0.00151591
0.00153053
0.00154262
0.00154313
0.00154274
0.00153072
0.00151623
0.00147822
0.00146078
0.00136948
0.00141025
0.00197978
0.00164015
0.00159894
0.00170041
0.00172049
0.00176337
0.00178036
0.00179448
0.00179509
0.00179455
0.00178048
0.00176361
0.00172025
0.00170074
0.0015996
0.00163927
0.00226615
0.00188149
0.00183998
0.00195242
0.00197465
0.00202278
0.00204224
0.0020584
0.00205914
0.00205841
0.00204227
0.00202292
0.00197425
0.0019527
0.00184066
0.00188042
0.0025621
0.00213353
0.00209188
0.00221523
0.00223948
0.0022926
0.00231451
0.00233265
0.00233353
0.00233259
0.00231442
0.00229261
0.00223888
0.00221545
0.00209258
0.00213225
0.00286449
0.00239477
0.0023536
0.00248736
0.00251336
0.00257075
0.00259492
0.0026149
0.00261595
0.00261476
0.00259473
0.00257061
0.00251255
0.0024875
0.00235429
0.00239328
0.00317022
0.00266375
0.002624
0.00276708
0.00279437
0.00285481
0.002881
0.00290265
0.00290389
0.00290242
0.0028807
0.00285453
0.00279336
0.00276714
0.00262468
0.00266205
0.00347655
0.00293893
0.00290214
0.0030523
0.00308027
0.00314236
0.00317034
0.00319348
0.00319493
0.00319314
0.00316993
0.00314194
0.00307906
0.0030523
0.00290278
0.00293702
0.00378127
0.00321847
0.00318697
0.00334074
0.00336872
0.00343119
0.00346074
0.00348517
0.00348686
0.0034847
0.0034602
0.0034306
0.00336732
0.00334072
0.00318758
0.00321638
0.00408285
0.0035004
0.00347689
0.00363028
0.00365757
0.00371923
0.00375014
0.00377562
0.00377758
0.00377501
0.00374945
0.00371847
0.00365598
0.00363024
0.00347746
0.00349815
0.00438041
0.00378277
0.00376978
0.00391923
0.00394514
0.00400487
0.00403691
0.0040632
0.00406545
0.00406244
0.00403607
0.00400392
0.00394336
0.00391919
0.00377034
0.00378039
0.00467307
0.00406416
0.00406369
0.00420631
0.00423008
0.00428681
0.00431974
0.00434659
0.00434915
0.00434567
0.00431873
0.00428566
0.0042281
0.00420626
0.00406424
0.00406168
0.00495779
0.0043433
0.00435698
0.00449049
0.00451132
0.00456408
0.00459766
0.00462481
0.00462771
0.00462372
0.00459647
0.00456272
0.00450914
0.00449043
0.00435753
0.00434076
0.00522353
0.00461918
0.00464845
0.00477105
0.00478809
0.00483604
0.00487004
0.00489727
0.00490051
0.004896
0.00486866
0.00483447
0.0047857
0.00477096
0.00464901
0.00461659
0.00546544
0.004891
0.00493717
0.00504754
0.00505993
0.00510239
0.0051366
0.00516368
0.00516727
0.00516224
0.005135
0.00510058
0.0050573
0.00504741
0.00493772
0.00488841
0.00569214
0.00515831
0.00522241
0.00531978
0.00532664
0.0053631
0.00539731
0.00542407
0.00542801
0.00542244
0.00539548
0.00536103
0.00532375
0.00531959
0.00522298
0.00515574
0.00590258
0.00542098
0.00550371
0.00558782
0.00558827
0.00561838
0.00565242
0.00567872
0.005683
0.00567689
0.00565034
0.00561604
0.00558509
0.00558754
0.00550429
0.00541845
0.00609593
0.00567924
0.00578076
0.0058519
0.00584508
0.00586868
0.0059024
0.00592811
0.00593273
0.00592608
0.00590005
0.00586605
0.00584158
0.00585151
0.00578136
0.00567678
0.00627159
0.00593369
0.00605348
0.00611243
0.0060975
0.00611461
0.00614788
0.00617294
0.00617787
0.00617071
0.00614524
0.00611166
0.00609364
0.00611189
0.00605411
0.00593134
0.00642918
0.0061854
0.00632195
0.00636992
0.00634608
0.00635691
0.00638965
0.00641403
0.00641926
0.00641159
0.00638669
0.00635362
0.00634183
0.00636921
0.00632261
0.00618316
0.00656858
0.00643586
0.00658641
0.00662498
0.0065915
0.00659644
0.00662861
0.00665234
0.00665782
0.00664968
0.0066253
0.00659277
0.00658681
0.00662406
0.00658712
0.00643376
0.00668985
0.00668703
0.00684726
0.00687828
0.00683449
0.00683415
0.00686576
0.00688892
0.00689463
0.00688605
0.00686208
0.00683007
0.00682933
0.00687712
0.00684801
0.00668509
0.00679331
0.006941
0.00710504
0.00713053
0.0070759
0.00707111
0.00710223
0.00712499
0.00713089
0.00712189
0.00709815
0.00706658
0.00707021
0.00712908
0.00710584
0.00693924
0.00687944
0.00719937
0.00736038
0.00738248
0.00731666
0.00730858
0.00733937
0.00736197
0.00736798
0.00735863
0.00733484
0.00730356
0.00731042
0.00738071
0.00736124
0.00719785
0.00694895
0.00746148
0.00761407
0.007635
0.00755797
0.00754815
0.00757884
0.00760161
0.00760767
0.00759803
0.00757383
0.00754259
0.00755113
0.00763289
0.00761499
0.00746028
0.00700271
0.00772054
0.00786699
0.0078893
0.00780145
0.00779202
0.00782289
0.00784625
0.00785228
0.00784242
0.00781736
0.00778586
0.00779397
0.00788681
0.00786797
0.00771989
0.00704179
0.00795083
0.00812012
0.00814726
0.00804955
0.00804328
0.00807462
0.00809902
0.00810489
0.00809494
0.00806853
0.00803647
0.00804139
0.00814437
0.00812117
0.00795144
0.00706744
0.00813848
0.00837464
0.0084121
0.00830602
0.00830608
0.00833792
0.00836369
0.00836924
0.00835937
0.00833127
0.00829863
0.00829714
0.00840876
0.00837576
0.00813955
0.00708106
0.00831841
0.00863191
0.00868876
0.00857599
0.00858473
0.00861623
0.00864314
0.00864823
0.00863865
0.00860912
0.00857674
0.00856639
0.00868494
0.0086331
0.00831997
0.00708419
0.00849059
0.00889341
0.00898363
0.00886476
0.00887976
0.00890788
0.00893412
0.00893866
0.00892966
0.00890072
0.00887175
0.00885462
0.00897933
0.00889469
0.00849266
0.00707853
0.00865507
0.00916057
0.00930225
0.00917365
0.00917881
0.00919528
0.00921514
0.00921933
0.0092112
0.00918923
0.00917219
0.00916361
0.00929765
0.00916197
0.00865766
0.00706592
0.00881183
0.00943494
0.00964262
0.00948994
0.00942983
0.00941487
0.00941359
0.00941837
0.00941141
0.00941286
0.00942829
0.00948181
0.0096383
0.0094365
0.00881497
0.0070484
0.00896081
0.00971893
0.00997902
0.00975854
0.00959788
0.00957205
0.00956315
0.00956746
0.00956108
0.00957041
0.00959683
0.00975688
0.00997655
0.00972076
0.0089645
0.00702831
0.00910187
0.0100172
0.010221
0.00995381
0.0097632
0.00972551
0.00970836
0.00971212
0.00970641
0.00972426
0.0097627
0.00995282
0.0102243
0.0100195
0.00910613
0.00700815
0.0092348
0.0103385
0.0104382
0.0101487
0.0099258
0.00987526
0.00984922
0.00985236
0.00984742
0.00987444
0.0099259
0.0101485
0.0104425
0.0103415
0.00923963
0.00699064
0.00935916
0.0106969
0.0106571
0.0103433
0.0100857
0.0100213
0.00998573
0.00998815
0.00998409
0.0100209
0.0100864
0.0103439
0.0106624
0.0107011
0.00936458
0.00697878
0.00947843
0.0111114
0.0108776
0.0105374
0.0102428
0.0101635
0.0101179
0.0101195
0.0101164
0.0101637
0.0102442
0.0105389
0.010884
0.0111172
0.00948447
0.00697528
0.00959817
0.0116
0.0110997
0.010731
0.0103972
0.0103021
0.0102458
0.0102465
0.0102446
0.0103029
0.0103994
0.0107333
0.0111074
0.0116079
0.00960477
0.0069823
0.00971822
0.0121619
0.0113232
0.0109239
0.0105491
0.0104375
0.01037
0.0103697
0.0103691
0.0104389
0.0105523
0.0109274
0.0113321
0.0121721
0.00972536
0.0070017
0.00983879
0.0127335
0.0115467
0.0111164
0.0106991
0.0105701
0.0104912
0.0104897
0.0104906
0.0105723
0.0107031
0.0111209
0.0115566
0.012745
0.00984643
0.00703501
0.00996017
0.013096
0.0117687
0.0113081
0.0108475
0.0107008
0.0106103
0.0106075
0.0106099
0.0107037
0.0108525
0.0113137
0.0117795
0.0131053
0.00996827
0.00708353
0.0100828
0.0133211
0.0119886
0.0114985
0.0109944
0.0108295
0.0107272
0.0107232
0.0107272
0.0108331
0.0110003
0.0115052
0.0120001
0.013331
0.0100914
0.0071483
0.0102074
0.0135395
0.0122069
0.0116875
0.0111398
0.0109563
0.0108422
0.0108367
0.0108425
0.0109606
0.0111466
0.0116953
0.0122191
0.01355
0.0102163
0.0072302
0.0103348
0.0137507
0.0124248
0.0118749
0.011284
0.0110816
0.0109556
0.0109487
0.0109562
0.0110867
0.0112918
0.0118838
0.0124376
0.0137616
0.0103441
0.00732993
0.0104659
0.0139541
0.0126421
0.0120609
0.0114274
0.0112061
0.0110683
0.0110599
0.0110693
0.011212
0.0114363
0.012071
0.0126556
0.0139656
0.0104755
0.00744793
0.010602
0.0141497
0.0128592
0.0122461
0.011571
0.0113307
0.0111812
0.0111713
0.0111827
0.0113374
0.0115808
0.0122574
0.0128734
0.0141615
0.0106119
0.00758431
0.0107441
0.0143374
0.0130762
0.0124312
0.0117148
0.011456
0.0112953
0.0112838
0.0112973
0.0114637
0.0117258
0.0124438
0.0130911
0.0143496
0.0107542
0.00773894
0.0108935
0.0145176
0.0132938
0.0126184
0.0118675
0.011591
0.0114193
0.0114061
0.0114218
0.0115998
0.0118798
0.0126324
0.0133095
0.0145301
0.0109038
0.00791205
0.0110514
0.0146903
0.0135126
0.0128117
0.0120313
0.0117384
0.0115568
0.0115419
0.01156
0.0117484
0.0120451
0.012827
0.013529
0.0147031
0.0110619
0.00810452
0.0112192
0.0148558
0.0137331
0.0130123
0.0122083
0.0119007
0.0117106
0.0116939
0.0117145
0.0119119
0.0122234
0.0130289
0.0137503
0.0148687
0.0112298
0.00831799
0.0113981
0.0150135
0.0139555
0.0132211
0.0124002
0.0120802
0.0118832
0.0118649
0.0118879
0.0120926
0.0124168
0.0132388
0.0139732
0.0150264
0.0114087
0.00855464
0.0115895
0.0151626
0.0141798
0.0134376
0.0126081
0.0122787
0.0120769
0.012057
0.0120823
0.0122922
0.0126258
0.0134561
0.0141976
0.0151754
0.0116
0.00881695
0.0117946
0.0153021
0.0144025
0.0136596
0.0128307
0.0124954
0.012291
0.0122698
0.012297
0.0125099
0.0128494
0.0136786
0.0144201
0.0153146
0.0118049
0.00910723
0.0120144
0.0154311
0.0146196
0.0138839
0.013066
0.0127285
0.012524
0.0125017
0.0125306
0.0127438
0.0130853
0.0139029
0.0146369
0.0154433
0.0120244
0.00942754
0.0122494
0.0155492
0.0148261
0.0141058
0.0133112
0.0129761
0.0127743
0.0127511
0.0127812
0.0129918
0.0133309
0.0141243
0.0148427
0.0155609
0.0122592
0.00977951
0.0124998
0.0156561
0.0150182
0.014318
0.0135614
0.0132342
0.0130384
0.0130148
0.0130457
0.01325
0.0135809
0.0143359
0.015034
0.0156671
0.0125091
0.010164
0.012765
0.0157514
0.0151929
0.014518
0.01381
0.0134963
0.0133106
0.0132871
0.013318
0.0135119
0.013829
0.0145353
0.0152077
0.0157617
0.0127737
0.0105808
0.0130435
0.0158347
0.0153475
0.0147033
0.014051
0.0137557
0.0135836
0.0135607
0.0135909
0.0137708
0.0140691
0.0147199
0.0153612
0.0158441
0.0130514
0.0110284
0.0133332
0.0159057
0.0154802
0.0148717
0.014278
0.0140065
0.0138506
0.013829
0.0138577
0.0140208
0.014295
0.0148877
0.0154927
0.0159142
0.0133403
0.0115033
0.013631
0.0159641
0.0155894
0.0150202
0.0144854
0.0142442
0.0141064
0.0140864
0.0141132
0.0142575
0.0145012
0.0150347
0.0156008
0.0159715
0.0136373
0.0120001
0.0139332
0.0160094
0.0156744
0.015145
0.0146708
0.0144616
0.0143459
0.0143285
0.0143523
0.0144741
0.0146855
0.0151582
0.0156846
0.0160156
0.0139384
0.0125106
0.014235
0.016041
0.0157349
0.0152454
0.0148325
0.0146556
0.0145625
0.0145483
0.0145686
0.0146673
0.0148461
0.0152574
0.0157439
0.0160461
0.0142391
0.0130251
0.0145308
0.0160582
0.0157709
0.0153209
0.0149688
0.0148243
0.0147535
0.0147428
0.0147593
0.014835
0.0149814
0.015332
0.0157788
0.0160622
0.0145338
0.0135331
0.0148142
0.0160615
0.0157833
0.015372
0.0150795
0.0149671
0.0149176
0.0149103
0.0149231
0.0149771
0.0150912
0.0153822
0.0157903
0.0160643
0.014816
0.0140237
0.0150797
0.0160495
0.0157733
0.0153994
0.0151639
0.0150832
0.0150544
0.0150505
0.0150595
0.0150926
0.0151749
0.0154089
0.0157794
0.0160511
0.0150802
1.09708e-08
1.45138e-08
1.74709e-08
1.65838e-08
1.62701e-08
1.63593e-08
1.62943e-08
1.62965e-08
1.62738e-08
1.63039e-08
1.6303e-08
1.63719e-08
1.62799e-08
1.65936e-08
1.74914e-08
1.45351e-08
1.6108e-08
2.30682e-08
2.78287e-08
2.6212e-08
2.57744e-08
2.59272e-08
2.58358e-08
2.58469e-08
2.58112e-08
2.58552e-08
2.58443e-08
2.59394e-08
2.57808e-08
2.62207e-08
2.78595e-08
2.31042e-08
1.22628e-07
2.0042e-07
2.44147e-07
2.43076e-07
2.37226e-07
2.38334e-07
2.37228e-07
2.37129e-07
2.36792e-07
2.37256e-07
2.37373e-07
2.38551e-07
2.37406e-07
2.43287e-07
2.44582e-07
2.00869e-07
8.23893e-07
1.34842e-06
1.63684e-06
1.66001e-06
1.6169e-06
1.62308e-06
1.61499e-06
1.61377e-06
1.61151e-06
1.61475e-06
1.61615e-06
1.62482e-06
1.61846e-06
1.66177e-06
1.64e-06
1.35156e-06
3.45162e-06
5.55393e-06
6.68696e-06
6.85604e-06
6.67599e-06
6.69643e-06
6.66255e-06
6.65615e-06
6.64715e-06
6.66031e-06
6.6676e-06
6.70398e-06
6.68301e-06
6.86381e-06
6.69999e-06
5.56671e-06
1.04468e-05
1.64448e-05
1.95704e-05
2.02406e-05
1.97206e-05
1.97671e-05
1.96688e-05
1.96472e-05
1.96221e-05
1.96594e-05
1.96837e-05
1.97894e-05
1.97419e-05
2.02639e-05
1.96079e-05
1.64814e-05
2.51904e-05
3.8716e-05
4.54184e-05
4.7335e-05
4.61716e-05
4.62527e-05
4.60329e-05
4.59788e-05
4.59243e-05
4.60062e-05
4.60667e-05
4.63033e-05
4.62207e-05
4.73887e-05
4.55023e-05
3.87983e-05
5.14058e-05
7.70985e-05
8.89795e-05
9.33947e-05
9.12349e-05
9.13561e-05
9.09514e-05
9.08433e-05
9.07448e-05
9.08944e-05
9.10143e-05
9.14508e-05
9.13281e-05
9.34968e-05
8.91357e-05
7.72529e-05
9.24436e-05
0.000135277
0.00015337
0.000162091
0.000158614
0.000158789
0.000158151
0.000157971
0.000157816
0.000158054
0.000158251
0.000158942
0.000158766
0.000162259
0.000153623
0.00013553
0.00015078
0.000215197
0.000239456
0.000254843
0.000249835
0.000250112
0.000249225
0.000248972
0.000248754
0.000249091
0.000249368
0.000250331
0.000250056
0.000255089
0.000239824
0.000215568
0.00022786
0.000317012
0.000346029
0.000370985
0.000364384
0.00036487
0.000363772
0.000363466
0.000363183
0.000363623
0.000363956
0.000365158
0.000364677
0.000371315
0.000346519
0.000317511
0.000324256
0.000439542
0.000470492