/*--------------------------------*- C++ -*----------------------------------*\
| =========                 |                                                 |
| \\      /  F ield         | OpenFOAM: The Open Source CFD Toolbox           |
|  \\    /   O peration     | Version:  v1912                                 |
|   \\  /    A nd           | Website:  www.openfoam.com                      |
|    \\/     M anipulation  |                                                 |
\*---------------------------------------------------------------------------*/
FoamFile
{
    version     2.0;
    format      ascii;
    class       volVectorField;
    location    "196.4";
    object      wallShearStress;
}
// * * * * * * * * * * * * * * * * * * * * * * * * * * * * * * * * * * * * * //

dimensions      [1 -1 -2 0 0 0 0];


internalField   uniform (0 0 0);

boundaryField
{
    leftWall
    {
        type            calculated;
        value           nonuniform List<vector> 
128
(
(-6.24255e-05 -8.87312e-05 -0.277942)
(-6.05938e-05 8.37053e-05 -0.375692)
(-4.20919e-06 -0.000122524 -0.284092)
(-2.49199e-05 0.000135025 -0.365305)
(2.60012e-05 -0.000172639 -0.308771)
(-3.727e-05 0.000115164 -0.291111)
(1.73482e-05 -0.000158778 -0.333174)
(8.33548e-05 -0.00159763 0.286369)
(0.0101207 -1.86569e-05 -0.3204)
(-0.00897237 9.24001e-06 -0.333892)
(0.012115 -2.84833e-05 -0.326589)
(-0.0119893 1.44931e-05 -0.326075)
(0.0123478 -7.9739e-05 -0.3363)
(-0.0165633 -3.18744e-05 -0.294314)
(-0.0114397 -0.0005626 -0.34137)
(-0.0378317 -0.00126152 -0.0483486)
(0.00354312 2.44535e-05 -0.351042)
(-0.00222367 -2.9102e-05 -0.303852)
(0.00385984 2.50881e-05 -0.358718)
(-0.00268673 -4.23107e-05 -0.291191)
(0.00400713 7.19896e-06 -0.365116)
(-0.00261379 -9.1024e-05 -0.262137)
(0.00335671 -0.000377772 -0.359344)
(0.00602332 -0.00129118 -0.0309043)
(0.00126704 1.88702e-06 -0.342163)
(-0.000855327 -1.04445e-06 -0.31658)
(0.00154787 -9.30588e-06 -0.349356)
(-0.00101477 -4.2023e-08 -0.30308)
(0.00149531 -4.31462e-05 -0.357651)
(-0.00153245 -3.92473e-05 -0.267526)
(-0.000257488 -0.00035408 -0.352504)
(0.0019082 -0.00118144 -0.00282853)
(0.000550009 -6.94999e-06 -0.338096)
(-0.000431013 2.0628e-06 -0.318993)
(0.000910361 -1.56994e-05 -0.346011)
(-0.00068225 5.35232e-06 -0.305126)
(0.00156403 -4.51842e-05 -0.355231)
(-0.0008868 -2.74277e-05 -0.268573)
(0.00257108 -0.000368144 -0.350726)
(0.00237029 -0.00116358 -0.00927017)
(0.000254214 -1.20285e-05 -0.338124)
(-0.000154761 6.43542e-06 -0.320377)
(0.000442983 -2.33652e-05 -0.346944)
(-0.000261655 8.5292e-06 -0.303943)
(0.000741447 -5.44143e-05 -0.357281)
(-0.000509872 -3.26903e-05 -0.264762)
(0.00132758 -0.000367223 -0.350362)
(0.00169269 -0.00118237 -0.00368508)
(5.6406e-05 -1.42608e-05 -0.337303)
(-9.55392e-05 5.16589e-06 -0.320797)
(0.0002179 -2.41274e-05 -0.346238)
(-0.000182085 8.58455e-06 -0.303727)
(0.000644292 -5.05471e-05 -0.356407)
(-0.000229644 -2.91963e-05 -0.263998)
(0.00157512 -0.000351107 -0.348811)
(0.00105754 -0.00117932 -0.00434003)
(4.9739e-05 -1.58325e-05 -0.337048)
(-1.57178e-05 6.99202e-06 -0.321102)
(8.43867e-05 -2.71535e-05 -0.346255)
(-5.13451e-05 9.6682e-06 -0.30343)
(0.000235892 -5.41135e-05 -0.356762)
(-0.000116458 -3.30644e-05 -0.263028)
(0.00057363 -0.000352584 -0.348443)
(0.000451479 -0.00118866 -0.0031695)
(4.12734e-05 -1.55864e-05 -0.336877)
(2.31634e-05 5.58327e-06 -0.321047)
(5.63405e-07 -2.59803e-05 -0.346013)
(-1.68094e-06 9.17667e-06 -0.303372)
(-1.39206e-05 -5.05042e-05 -0.356314)
(7.7125e-06 -2.99196e-05 -0.263036)
(-2.07095e-05 -0.0003483 -0.348047)
(-5.77688e-05 -0.0011832 -0.00371413)
(2.70506e-05 -1.55331e-05 -0.337135)
(5.83944e-05 7.107e-06 -0.321206)
(-8.21188e-05 -2.72804e-05 -0.346342)
(4.63005e-05 9.70448e-06 -0.303539)
(-0.000261901 -5.4263e-05 -0.356849)
(0.000129758 -3.28352e-05 -0.263141)
(-0.000610733 -0.00035285 -0.348572)
(-0.000566549 -0.00118864 -0.00324946)
(-3.75498e-06 -1.36606e-05 -0.337428)
(0.000132824 5.01883e-06 -0.321023)
(-0.000222235 -2.40041e-05 -0.346346)
(0.000174368 8.35223e-06 -0.304001)
(-0.000675087 -5.06418e-05 -0.356514)
(0.000237434 -2.89092e-05 -0.264274)
(-0.00159986 -0.000351557 -0.349074)
(-0.00115737 -0.00117934 -0.004503)
(-0.000230019 -1.12521e-05 -0.338299)
(0.000188706 6.23736e-06 -0.320664)
(-0.000457415 -2.32578e-05 -0.3471)
(0.000252814 8.09923e-06 -0.304282)
(-0.000784115 -5.44972e-05 -0.357428)
(0.000521835 -3.24373e-05 -0.265105)
(-0.00133259 -0.000367473 -0.350693)
(-0.00172416 -0.00118237 -0.00392645)
(-0.000564663 -6.28167e-06 -0.338253)
(0.000454206 2.67377e-06 -0.319281)
(-0.000935927 -1.58177e-05 -0.346144)
(0.000680478 4.89255e-06 -0.305496)
(-0.00162053 -4.56598e-05 -0.355318)
(0.000893447 -2.68762e-05 -0.268995)
(-0.00256401 -0.000368085 -0.351002)
(-0.00237822 -0.00116301 -0.00958946)
(-0.00130708 2.24973e-06 -0.342315)
(0.000840424 2.56052e-07 -0.316857)
(-0.00156787 -9.6785e-06 -0.34949)
(0.00101354 -5.45194e-08 -0.303429)
(-0.00152186 -4.49485e-05 -0.357733)
(0.00151739 -3.82674e-05 -0.267894)
(0.000293087 -0.000353691 -0.352767)
(-0.00183983 -0.00118108 -0.00310458)
(-0.00361146 2.49835e-05 -0.351269)
(0.00216192 -2.79004e-05 -0.304055)
(-0.00387864 2.48788e-05 -0.358952)
(0.0026825 -4.19935e-05 -0.291402)
(-0.00398146 5.37669e-06 -0.365308)
(0.0025877 -9.09076e-05 -0.262319)
(-0.00337255 -0.000375335 -0.359604)
(-0.00597195 -0.0012912 -0.031116)
(-0.0102199 -1.83785e-05 -0.320677)
(0.00888176 9.848e-06 -0.334023)
(-0.0121295 -2.94108e-05 -0.326842)
(0.0119744 1.46707e-05 -0.326251)
(-0.0123095 -8.00736e-05 -0.336469)
(0.0165344 -3.16901e-05 -0.294559)
(0.0113695 -0.000562471 -0.341564)
(0.0379575 -0.00126192 -0.048694)
)
;
    }
    rightWall
    {
        type            calculated;
        value           nonuniform 0();
    }
    leftSides_periodic0
    {
        type            cyclic;
    }
    leftSides_periodic1
    {
        type            cyclic;
    }
    rightSides_periodic0
    {
        type            cyclic;
    }
    rightSides_periodic1
    {
        type            cyclic;
    }
    leftInOut_periodic0
    {
        type            cyclic;
    }
    leftInOut_periodic1
    {
        type            cyclic;
    }
    rightInOut_periodic0
    {
        type            cyclic;
    }
    rightInOut_periodic1
    {
        type            cyclic;
    }
    procBoundary2to0
    {
        type            processor;
        value           uniform (0 0 0);
    }
    procBoundary2to0throughleftSides_periodic1
    {
        type            processorCyclic;
        value           uniform (0 0 0);
    }
    procBoundary2to1throughleftSides_periodic1
    {
        type            processorCyclic;
        value           uniform (0 0 0);
    }
    procBoundary2to1throughrightSides_periodic1
    {
        type            processorCyclic;
        value           uniform (0 0 0);
    }
    procBoundary2to3
    {
        type            processor;
        value           uniform (0 0 0);
    }
    procBoundary2to3throughrightInOut_periodic1
    {
        type            processorCyclic;
        value           uniform (0 0 0);
    }
}


// ************************************************************************* //
