0 	0 	0 	0
5.01672e-05 	0.00313233 	-2.14039e-06 	0.0169175
0.000100334 	0.00467476 	-8.85912e-06 	0.032355
0.000150502 	0.00552241 	-1.97488e-05 	0.0466182
0.000200669 	0.0062204 	-3.45288e-05 	0.059827
0.000250836 	0.00677584 	-5.29794e-05 	0.0720527
0.000301003 	0.00714415 	-7.43401e-05 	0.0833632
0.000351171 	0.00733618 	-9.81233e-05 	0.0938161
0.000401338 	0.00737642 	-0.00012382 	0.103452
0.000451505 	0.0072932 	-0.00015099 	0.112305
0.000501672 	0.00711608 	-0.000179344 	0.120412
0.000551839 	0.00687249 	-0.000208777 	0.127821
0.000602007 	0.00658458 	-0.00023921 	0.134593
0.000652174 	0.00626856 	-0.000270431 	0.140793
0.000702341 	0.00593601 	-0.000302159 	0.146484
0.000752508 	0.00559558 	-0.000334156 	0.151724
0.000802676 	0.0052544 	-0.0003662 	0.15656
0.000852843 	0.00492036 	-0.000398123 	0.160984
0.00090301 	0.00459754 	-0.000429885 	0.165095
0.000953177 	0.00428894 	-0.000461449 	0.168929
0.00100334 	0.00399697 	-0.000492886 	0.172515
0.00105351 	0.00372343 	-0.000524271 	0.175879
0.00110368 	0.00347002 	-0.000555636 	0.17904
0.00115385 	0.00324343 	-0.000586821 	0.181974
0.00120401 	0.00303651 	-0.000617675 	0.184755
0.00125418 	0.00284793 	-0.000648063 	0.187399
0.00130435 	0.00267646 	-0.000677901 	0.189917
0.00135452 	0.00252584 	-0.000706973 	0.192288
0.00140468 	0.00239201 	-0.00073537 	0.194543
0.00145485 	0.00227142 	-0.000763155 	0.196708
0.00150502 	0.00216314 	-0.000790323 	0.198791
0.00155518 	0.00207289 	-0.000816445 	0.200755
0.00160535 	0.00199308 	-0.000841889 	0.202652
0.00165552 	0.00192258 	-0.000866703 	0.204488
0.00170569 	0.00186479 	-0.000890567 	0.206243
0.00175585 	0.00181727 	-0.000913537 	0.207934
0.00180602 	0.00177683 	-0.000935855 	0.209582
0.00185619 	0.00174654 	-0.000957165 	0.211168
0.00190635 	0.00172505 	-0.000977504 	0.212703
0.00195652 	0.00170901 	-0.000997226 	0.214205
0.00200669 	0.00170232 	-0.00101585 	0.215652
0.00205686 	0.00170202 	-0.00103367 	0.217063
0.00210702 	0.00170596 	-0.00105095 	0.21845
0.00215719 	0.00171964 	-0.00106654 	0.219782
0.00220736 	0.00173687 	-0.00108121 	0.221095
0.00225753 	0.00175978 	-0.00109442 	0.222376
0.00230769 	0.00178883 	-0.00110593 	0.223625
0.00235786 	0.00182048 	-0.00111688 	0.22486
0.00240803 	0.00185886 	-0.00112954 	0.226055
0.00245819 	0.00189924 	-0.00114085 	0.227239
0.00250836 	0.00194369 	-0.00114943 	0.228399
0.00255853 	0.00200536 	-0.00114938 	0.229543
0.0026087 	0.00207925 	-0.0011432 	0.230676
0.00265886 	0.00222299 	-0.0011362 	0.2318
0.00270903 	0.00238332 	-0.00112901 	0.232922
0.0027592 	0.00268221 	-0.00114369 	0.234073
0.00280936 	0.00300635 	-0.00116203 	0.235236
0.00285953 	0.00346424 	-0.00119971 	0.236461
0.0029097 	0.00393028 	-0.00123117 	0.237691
0.00295987 	0.00441686 	-0.00124698 	0.238929
0.00301003 	0.00483837 	-0.00124341 	0.240124
0.0030602 	0.00515215 	-0.00120778 	0.241245
0.00311037 	0.00538609 	-0.00116828 	0.242303
0.00316054 	0.00551618 	-0.00112373 	0.243277
0.0032107 	0.00561207 	-0.00109178 	0.24421
0.00326087 	0.00566746 	-0.00107473 	0.245093
0.00331104 	0.00572091 	-0.00106577 	0.245954
0.0033612 	0.00577196 	-0.00106687 	0.24679
0.00341137 	0.00582627 	-0.00106659 	0.24761
0.00346154 	0.00588552 	-0.00106419 	0.248407
0.00351171 	0.00594276 	-0.00105851 	0.249191
0.00356187 	0.00599556 	-0.00104557 	0.249947
0.00361204 	0.00604621 	-0.00103208 	0.250695
0.00366221 	0.00608769 	-0.00101626 	0.251409
0.00371237 	0.00612891 	-0.00100045 	0.252122
0.00376254 	0.00616162 	-0.000984996 	0.252794
0.00381271 	0.00619433 	-0.000969544 	0.253466
0.00386288 	0.0062206 	-0.000953504 	0.254105
0.00391304 	0.00624557 	-0.000937343 	0.254738
0.00396321 	0.00626613 	-0.000920814 	0.255347
0.00401338 	0.00628366 	-0.000904031 	0.255941
0.00406355 	0.00629885 	-0.000887068 	0.256523
0.00411371 	0.0063089 	-0.000869709 	0.25708
0.00416388 	0.00631894 	-0.000852349 	0.257637
0.00421405 	0.00632139 	-0.000834493 	0.258157
0.00426421 	0.00632379 	-0.000816634 	0.258678
0.00431438 	0.00632132 	-0.000798468 	0.259175
0.00436455 	0.00631602 	-0.000780124 	0.25966
0.00441472 	0.00630897 	-0.000761718 	0.260136
0.00446488 	0.00629604 	-0.0007431 	0.260586
0.00451505 	0.0062831 	-0.000724483 	0.261035
0.00456522 	0.00626423 	-0.000705856 	0.261457
0.00461538 	0.00624371 	-0.000687225 	0.261872
0.00466555 	0.00622096 	-0.000668597 	0.262276
0.00471572 	0.0061928 	-0.000649974 	0.262656
0.00476589 	0.00616464 	-0.000631351 	0.263036
0.00481605 	0.00613057 	-0.000612686 	0.26339
0.00486622 	0.00609461 	-0.000594008 	0.263735
0.00491639 	0.00605726 	-0.000575328 	0.264075
0.00496656 	0.00601336 	-0.000556644 	0.264386
0.00501672 	0.00596945 	-0.00053796 	0.264697
0.00506689 	0.00592109 	-0.000519319 	0.264989
0.00511706 	0.00586906 	-0.000500714 	0.265265
0.00516722 	0.00581702 	-0.000482109 	0.265541
0.00521739 	0.0057576 	-0.000463628 	0.265786
0.00526756 	0.00569711 	-0.000445164 	0.266027
0.00531773 	0.00563531 	-0.00042674 	0.266262
0.00536789 	0.00556621 	-0.000408532 	0.266469
0.00541806 	0.00549711 	-0.000390324 	0.266675
0.00546823 	0.00542488 	-0.000372237 	0.26687
0.00551839 	0.0053476 	-0.000354348 	0.267045
0.00556856 	0.00527031 	-0.000336459 	0.26722
0.00561873 	0.00518893 	-0.000318704 	0.267378
0.0056689 	0.00510434 	-0.000301054 	0.267525
0.00571906 	0.00501975 	-0.000283404 	0.267671
0.00576923 	0.00493054 	-0.00026585 	0.267799
0.0058194 	0.00483928 	-0.00024834 	0.267918
0.00586957 	0.00474801 	-0.000230829 	0.268037
0.00591973 	0.00465153 	-0.000213446 	0.268137
0.0059699 	0.00455349 	-0.000196102 	0.268231
0.00602007 	0.00445544 	-0.000178758 	0.268325
0.00607023 	0.00435188 	-0.000161653 	0.268399
0.0061204 	0.00424687 	-0.000144611 	0.268469
0.00617057 	0.00414187 	-0.000127569 	0.268538
0.00622074 	0.00403218 	-0.000110887 	0.268589
0.0062709 	0.00392106 	-9.4315e-05 	0.268635
0.00632107 	0.00380994 	-7.77433e-05 	0.26868
0.00637124 	0.00369597 	-6.15081e-05 	0.26871
0.0064214 	0.00358067 	-4.54295e-05 	0.268732
0.00647157 	0.00346537 	-2.93509e-05 	0.268755
0.00652174 	0.003349 	-1.3453e-05 	0.268764
0.00657191 	0.00323175 	2.29377e-06 	0.268764
0.00662207 	0.00311449 	1.80406e-05 	0.268763
0.00667224 	0.00299724 	3.38059e-05 	0.268754
0.00672241 	0.00288001 	4.96056e-05 	0.26873
0.00677258 	0.00276278 	6.54054e-05 	0.268707
0.00682274 	0.00264572 	8.1286e-05 	0.268681
0.00687291 	0.00253022 	9.79012e-05 	0.268634
0.00692308 	0.00241473 	0.000114516 	0.268587
0.00697324 	0.00229923 	0.000131132 	0.268541
0.00702341 	0.00218605 	0.000146554 	0.268475
0.00707358 	0.00207349 	0.000161658 	0.268405
0.00712375 	0.00196093 	0.000176761 	0.268334
0.00717391 	0.00184974 	0.000188979 	0.26825
0.00722408 	0.00174044 	0.000197217 	0.268148
0.00727425 	0.00163114 	0.000205455 	0.268045
0.00732441 	0.00152184 	0.000213694 	0.267942
0.00737458 	0.00141682 	0.000217361 	0.267792
0.00742475 	0.00131184 	0.000220986 	0.267641
0.00747492 	0.00120687 	0.000224611 	0.26749
0.00752508 	0.00110582 	0.000230457 	0.267313
0.00757525 	0.00100869 	0.000238524 	0.26711
0.00762542 	0.000911566 	0.00024659 	0.266908
0.00767559 	0.000814556 	0.00025474 	0.266704
0.00772575 	0.000730221 	0.000272046 	0.266476
0.00777592 	0.000645885 	0.000289352 	0.266247
0.00782609 	0.000561549 	0.000306657 	0.266018
0.00787625 	0.000484911 	0.000325089 	0.265794
0.00792642 	0.000413858 	0.000344337 	0.265574
0.00797659 	0.000342804 	0.000363585 	0.265355
0.00802676 	0.000273467 	0.000380827 	0.265138
0.00807692 	0.00021057 	0.000390545 	0.264935
0.00812709 	0.000147672 	0.000400263 	0.264731
0.00817726 	8.47741e-05 	0.00040998 	0.264527
0.00822742 	2.50358e-05 	0.000414159 	0.264326
0.00827759 	-3.43548e-05 	0.000417728 	0.264125
0.00832776 	-9.37454e-05 	0.000421298 	0.263924
0.00837793 	-0.000151538 	0.000426681 	0.263717
0.00842809 	-0.000208469 	0.000433044 	0.263508
0.00847826 	-0.0002654 	0.000439407 	0.263298
0.00852843 	-0.000321166 	0.00044677 	0.263081
0.0085786 	-0.000375538 	0.000455329 	0.262855
0.00862876 	-0.00042991 	0.000463888 	0.262629
0.00867893 	-0.000483853 	0.000472293 	0.262396
0.0087291 	-0.000536875 	0.000480367 	0.262147
0.00877926 	-0.000589897 	0.00048844 	0.261897
0.00882943 	-0.000642922 	0.000496358 	0.261642
0.0088796 	-0.000695956 	0.000503767 	0.261367
0.00892977 	-0.00074899 	0.000511177 	0.261092
0.00897993 	-0.000802174 	0.000518503 	0.260811
0.0090301 	-0.000855934 	0.000525508 	0.260511
0.00908027 	-0.000909694 	0.000532514 	0.260211
0.00913043 	-0.000963684 	0.000539472 	0.259906
0.0091806 	-0.00101844 	0.000546275 	0.259585
0.00923077 	-0.00107319 	0.000553078 	0.259263
0.00928094 	-0.00112827 	0.000559845 	0.258936
0.0093311 	-0.00118405 	0.000566533 	0.258595
0.00938127 	-0.00123984 	0.00057322 	0.258255
0.00943144 	-0.00129606 	0.000579877 	0.257907
0.00948161 	-0.00135284 	0.000586496 	0.257551
0.00953177 	-0.00140962 	0.000593114 	0.257194
0.00958194 	-0.00146697 	0.000599687 	0.256827
0.00963211 	-0.00152468 	0.000606233 	0.256454
0.00968227 	-0.00158239 	0.000612779 	0.256082
0.00973244 	-0.00164085 	0.000619241 	0.255695
0.00978261 	-0.00169943 	0.000625688 	0.255307
0.00983278 	-0.00175812 	0.000632117 	0.254916
0.00988294 	-0.00181753 	0.000638426 	0.254511
0.00993311 	-0.00187694 	0.000644735 	0.254107
0.00998328 	-0.0019367 	0.000650965 	0.253694
0.0100334 	-0.00199688 	0.0006571 	0.253272
0.0100836 	-0.00205706 	0.000663234 	0.25285
0.0101338 	-0.00211782 	0.000669197 	0.252414
0.0101839 	-0.00217871 	0.000675122 	0.251974
0.0102341 	-0.00223976 	0.000680988 	0.251529
0.0102843 	-0.0023013 	0.000686668 	0.251071
0.0103344 	-0.00236284 	0.000692347 	0.250612
0.0103846 	-0.00242482 	0.000697825 	0.250139
0.0104348 	-0.00248697 	0.000703219 	0.249661
0.0104849 	-0.00254924 	0.000708544 	0.249177
0.0105351 	-0.00261197 	0.000713621 	0.248678
0.0105853 	-0.0026747 	0.000718699 	0.248179
0.0106355 	-0.00273787 	0.00072352 	0.247662
0.0106856 	-0.00280117 	0.000728264 	0.247141
0.0107358 	-0.00286469 	0.000732884 	0.246611
0.010786 	-0.00292858 	0.000737289 	0.246067
0.0108361 	-0.00299248 	0.000741692 	0.245523
0.0108863 	-0.00305703 	0.000745759 	0.244954
0.0109365 	-0.00312157 	0.000749826 	0.244385
0.0109866 	-0.00318664 	0.000753653 	0.243799
0.0110368 	-0.00325194 	0.00075737 	0.243204
0.011087 	-0.00331759 	0.000760918 	0.242599
0.0111371 	-0.00338376 	0.000764222 	0.241977
0.0111873 	-0.0034501 	0.000767448 	0.24135
0.0112375 	-0.00351726 	0.000770295 	0.240698
0.0112876 	-0.00358442 	0.000773142 	0.240047
0.0113378 	-0.00365265 	0.000775594 	0.239366
0.011388 	-0.0037209 	0.000778034 	0.238683
0.0114381 	-0.00379005 	0.000780145 	0.237975
0.0114883 	-0.0038594 	0.000782179 	0.237261
0.0115385 	-0.00392949 	0.000783818 	0.236522
0.0115886 	-0.00399992 	0.000785277 	0.235774
0.0116388 	-0.00407118 	0.000786245 	0.234999
0.011689 	-0.004143 	0.000786888 	0.234206
0.0117391 	-0.00421609 	0.00078704 	0.233381
0.0117893 	-0.0042902 	0.000786796 	0.232527
0.0118395 	-0.00436622 	0.000786235 	0.231632
0.0118896 	-0.00444387 	0.000785406 	0.2307
0.0119398 	-0.00452389 	0.000784438 	0.229723
0.01199 	-0.00460573 	0.000783364 	0.228711
0.0120401 	-0.00468979 	0.000782159 	0.227659
0.0120903 	-0.00477518 	0.000780874 	0.226583
0.0121405 	-0.00486204 	0.000779352 	0.22548
0.0121906 	-0.00494948 	0.000777736 	0.224366
0.0122408 	-0.00503754 	0.0007757 	0.22323
0.012291 	-0.00512571 	0.000773586 	0.222091
0.0123411 	-0.00521405 	0.000770792 	0.220923
0.0123913 	-0.00530245 	0.00076785 	0.219747
0.0124415 	-0.00539114 	0.000764284 	0.218535
0.0124916 	-0.00548025 	0.000760434 	0.217296
0.0125418 	-0.00556995 	0.000756184 	0.21602
0.012592 	-0.00566086 	0.000751517 	0.214687
0.0126421 	-0.00575236 	0.000746644 	0.213326
0.0126923 	-0.00584636 	0.000741019 	0.211871
0.0127425 	-0.00594135 	0.000735158 	0.210381
0.0127926 	-0.00603871 	0.000728755 	0.208813
0.0128428 	-0.00613787 	0.000722245 	0.207177
0.012893 	-0.00623817 	0.000715667 	0.205497
0.0129431 	-0.00634014 	0.000709353 	0.203703
0.0129933 	-0.00644242 	0.00070296 	0.201859
0.0130435 	-0.00654514 	0.000696443 	0.19994
0.0130936 	-0.00664853 	0.000688951 	0.19791
0.0131438 	-0.00675257 	0.000680797 	0.195815
0.013194 	-0.00685788 	0.000671494 	0.193615
0.0132441 	-0.00696509 	0.00066122 	0.191292
0.0132943 	-0.00707332 	0.000650448 	0.188883
0.0133445 	-0.0071827 	0.00063915 	0.18635
0.0133946 	-0.00729186 	0.000627239 	0.183665
0.0134448 	-0.00740023 	0.000614733 	0.180869
0.013495 	-0.00750742 	0.000601487 	0.177949
0.0135452 	-0.00761111 	0.000586903 	0.174821
0.0135953 	-0.0077114 	0.000571486 	0.171551
0.0136455 	-0.00780755 	0.00055519 	0.16813
0.0136957 	-0.00789753 	0.000537805 	0.164516
0.0137458 	-0.00797801 	0.000519123 	0.160665
0.013796 	-0.00804937 	0.000499434 	0.156619
0.0138462 	-0.00810989 	0.000478705 	0.152365
0.0138963 	-0.00815754 	0.000456902 	0.147886
0.0139465 	-0.00818388 	0.000433702 	0.143088
0.0139967 	-0.00818956 	0.000409473 	0.13802
0.0140468 	-0.00817156 	0.000384301 	0.132667
0.014097 	-0.00812617 	0.00035825 	0.127009
0.0141472 	-0.00804943 	0.000331369 	0.121023
0.0141973 	-0.00793713 	0.00030365 	0.114687
0.0142475 	-0.00777648 	0.000275057 	0.107925
0.0142977 	-0.00756544 	0.000246169 	0.100778
0.0143478 	-0.007295 	0.00021744 	0.0932439
0.014398 	-0.00695612 	0.000189183 	0.0853442
0.0144482 	-0.00654252 	0.00016169 	0.0771376
0.0144983 	-0.00605282 	0.000135362 	0.0687257
0.0145485 	-0.00549236 	0.000110685 	0.060247
0.0145987 	-0.00487379 	8.8093e-05 	0.0518609
0.0146488 	-0.00421588 	6.79187e-05 	0.0437233
0.014699 	-0.0035417 	5.03975e-05 	0.0359613
0.0147492 	-0.00287903 	3.56547e-05 	0.028662
0.0147993 	-0.00226758 	2.37417e-05 	0.0218784
0.0148495 	-0.00177874 	1.43671e-05 	0.0156477
0.0148997 	-0.00142497 	7.36437e-06 	0.00998371
0.0149498 	-0.000943468 	2.76765e-06 	0.00481749
0.015 	0 	0 	0
