0 	0 	0 	0
0 	0 	0 	0
0.00752508 	0.00285512 	0.00112973 	-0.266189
0.00752508 	0.00285512 	0.00112973 	-0.266189
0.00757525 	0.0028968 	0.00111016 	-0.266938
0.00762542 	0.00293848 	0.0010906 	-0.267688
0.00762542 	0.00293848 	0.0010906 	-0.267688
0.00767559 	0.00298007 	0.00107128 	-0.268434
0.00772575 	0.00301055 	0.00107936 	-0.268904
0.00777592 	0.00304103 	0.00108744 	-0.269373
0.00782609 	0.00307151 	0.00109553 	-0.269842
0.00782609 	0.00307151 	0.00109553 	-0.269842
0.00787625 	0.00310156 	0.00111473 	-0.27015
0.00792642 	0.0031313 	0.00114201 	-0.27034
0.00797659 	0.00316103 	0.00116929 	-0.27053
0.00802676 	0.00319267 	0.00119109 	-0.270654
0.00802676 	0.00319267 	0.00119109 	-0.270654
0.00807692 	0.00323145 	0.0011923 	-0.270528
0.00812709 	0.00327023 	0.00119352 	-0.270402
0.00812709 	0.00327023 	0.00119352 	-0.270402
0.00817726 	0.003309 	0.00119474 	-0.270276
0.00822742 	0.00336846 	0.00115288 	-0.269756
0.00822742 	0.00336846 	0.00115288 	-0.269756
0.00827759 	0.00343019 	0.00110627 	-0.269191
0.00832776 	0.00349192 	0.00105967 	-0.268627
0.00832776 	0.00349192 	0.00105967 	-0.268627
0.00837793 	0.0035579 	0.00102432 	-0.268018
0.00842809 	0.00362616 	0.000995037 	-0.267384
0.00842809 	0.00362616 	0.000995037 	-0.267384
0.00847826 	0.00369442 	0.000965759 	-0.266751
0.00847826 	0.00369442 	0.000965759 	-0.266751
0.00852843 	0.00375032 	0.00095971 	-0.266301
0.00852843 	0.00375032 	0.00095971 	-0.266301
0.0085786 	0.00379142 	0.000981448 	-0.266069
0.0085786 	0.00379142 	0.000981448 	-0.266069
0.00862876 	0.00383252 	0.00100319 	-0.265838
0.00867893 	0.0038656 	0.00102527 	-0.265685
0.00867893 	0.0038656 	0.00102527 	-0.265685
0.0087291 	0.00388141 	0.00104808 	-0.265698
0.00877926 	0.00389722 	0.00107089 	-0.265712
0.00877926 	0.00389722 	0.00107089 	-0.265712
0.00882943 	0.00391012 	0.00108801 	-0.265732
0.0088796 	0.00391354 	0.00108662 	-0.26577
0.0088796 	0.00391354 	0.00108662 	-0.26577
0.00897993 	0.00391944 	0.00108024 	-0.265837
0.00897993 	0.00391944 	0.00108024 	-0.265837
0.0090301 	0.00391825 	0.00106149 	-0.265828
0.00908027 	0.00391706 	0.00104274 	-0.265819
0.00908027 	0.00391706 	0.00104274 	-0.265819
0.00913043 	0.00391524 	0.00102385 	-0.265801
0.0091806 	0.00391134 	0.0010045 	-0.265751
0.0091806 	0.00391134 	0.0010045 	-0.265751
0.00923077 	0.00390745 	0.00098515 	-0.265702
0.00928094 	0.00390282 	0.000968205 	-0.265644
0.00928094 	0.00390282 	0.000968205 	-0.265644
0.0093311 	0.00389656 	0.000956631 	-0.265566
0.00938127 	0.0038903 	0.000945057 	-0.265488
0.00938127 	0.0038903 	0.000945057 	-0.265488
0.00943144 	0.00388356 	0.000934693 	-0.265396
0.00943144 	0.00388356 	0.000934693 	-0.265396
0.00948161 	0.00387622 	0.000925881 	-0.265286
0.00948161 	0.00387622 	0.000925881 	-0.265286
0.00953177 	0.00386887 	0.00091707 	-0.265177
0.00953177 	0.00386887 	0.00091707 	-0.265177
0.00958194 	0.00386146 	0.000907004 	-0.265045
0.00958194 	0.00386146 	0.000907004 	-0.265045
0.00963211 	0.003854 	0.000896161 	-0.264898
0.00963211 	0.003854 	0.000896161 	-0.264898
0.00968227 	0.00384654 	0.000885319 	-0.264751
0.00968227 	0.00384654 	0.000885319 	-0.264751
0.00973244 	0.00383908 	0.000873532 	-0.264573
0.00978261 	0.00383163 	0.000861574 	-0.26439
0.00983278 	0.00382417 	0.000849572 	-0.264203
0.00988294 	0.00381662 	0.00083726 	-0.263987
0.00988294 	0.00381662 	0.00083726 	-0.263987
0.00993311 	0.00380908 	0.000824948 	-0.263771
0.00998328 	0.00380148 	0.00081253 	-0.263542
0.00998328 	0.00380148 	0.00081253 	-0.263542
0.0100334 	0.0037938 	0.000799983 	-0.263297
0.0100334 	0.0037938 	0.000799983 	-0.263297
0.0100836 	0.00378612 	0.000787436 	-0.263053
0.0101338 	0.00377826 	0.000774955 	-0.262786
0.0101338 	0.00377826 	0.000774955 	-0.262786
0.0102341 	0.00376238 	0.000750131 	-0.262237
0.0102341 	0.00376238 	0.000750131 	-0.262237
0.0102843 	0.0037541 	0.000738118 	-0.261939
0.0103344 	0.00374583 	0.000726105 	-0.261641
0.0103344 	0.00374583 	0.000726105 	-0.261641
0.0103846 	0.0037371 	0.000714643 	-0.261322
0.0103846 	0.0037371 	0.000714643 	-0.261322
0.0104348 	0.00372819 	0.000703407 	-0.260993
0.0104849 	0.00371909 	0.000692323 	-0.260657
0.0104849 	0.00371909 	0.000692323 	-0.260657
0.0105351 	0.00370931 	0.000681785 	-0.260295
0.0105853 	0.00369953 	0.000671248 	-0.259932
0.0105853 	0.00369953 	0.000671248 	-0.259932
0.0106355 	0.00368902 	0.000661001 	-0.259542
0.0106856 	0.00367828 	0.000650841 	-0.259144
0.0106856 	0.00367828 	0.000650841 	-0.259144
0.0107358 	0.00366717 	0.000640829 	-0.258733
0.0107358 	0.00366717 	0.000640829 	-0.258733
0.010786 	0.00365542 	0.00063107 	-0.258299
0.010786 	0.00365542 	0.00063107 	-0.258299
0.0108361 	0.00364366 	0.000621315 	-0.257865
0.0108361 	0.00364366 	0.000621315 	-0.257865
0.0108863 	0.00363087 	0.000612098 	-0.257394
0.0109365 	0.00361808 	0.00060288 	-0.256924
0.0109365 	0.00361808 	0.00060288 	-0.256924
0.0109866 	0.00360461 	0.000593907 	-0.256427
0.0109866 	0.00360461 	0.000593907 	-0.256427
0.0110368 	0.00359082 	0.000585045 	-0.255919
0.011087 	0.00357666 	0.000576079 	-0.255396
0.011087 	0.00357666 	0.000576079 	-0.255396
0.0111371 	0.00356196 	0.000566963 	-0.25485
0.0111873 	0.00354711 	0.000557713 	-0.254297
0.0111873 	0.00354711 	0.000557713 	-0.254297
0.0112375 	0.00353152 	0.00054781 	-0.253712
0.0112876 	0.00351593 	0.000537906 	-0.253127
0.0112876 	0.00351593 	0.000537906 	-0.253127
0.0113378 	0.00349947 	0.000527401 	-0.2525
0.011388 	0.00348297 	0.000516877 	-0.251873
0.011388 	0.00348297 	0.000516877 	-0.251873
0.0114883 	0.00344822 	0.000503175 	-0.250536
0.0114883 	0.00344822 	0.000503175 	-0.250536
0.0115385 	0.0034301 	0.000495431 	-0.249832
0.0115886 	0.00341169 	0.000487104 	-0.249112
0.0115886 	0.00341169 	0.000487104 	-0.249112
0.0116388 	0.00339068 	0.000468859 	-0.248349
0.011689 	0.00336795 	0.000444069 	-0.247558
0.011689 	0.00336795 	0.000444069 	-0.247558
0.0117391 	0.00333854 	0.000420586 	-0.246686
0.0117893 	0.00330374 	0.000398154 	-0.245747
0.0117893 	0.00330374 	0.000398154 	-0.245747
0.0118395 	0.00326046 	0.000393004 	-0.24466
0.0118896 	0.00321003 	0.000402453 	-0.243447
0.0118896 	0.00321003 	0.000402453 	-0.243447
0.0119398 	0.00315166 	0.00042777 	-0.242029
0.0119398 	0.00315166 	0.00042777 	-0.242029
0.01199 	0.0030872 	0.000465288 	-0.240453
0.01199 	0.0030872 	0.000465288 	-0.240453
0.0120401 	0.00302719 	0.000478978 	-0.238857
0.0120401 	0.00302719 	0.000478978 	-0.238857
0.0120903 	0.00296988 	0.000478275 	-0.23725
0.0120903 	0.00296988 	0.000478275 	-0.23725
0.0121405 	0.00293241 	0.000439115 	-0.235884
0.0121405 	0.00293241 	0.000439115 	-0.235884
0.0121906 	0.00290284 	0.000384682 	-0.234614
0.0121906 	0.00290284 	0.000384682 	-0.234614
0.0122408 	0.00288552 	0.000341754 	-0.233508
0.0122408 	0.00288552 	0.000341754 	-0.233508
0.012291 	0.0028705 	0.00030101 	-0.232432
0.012291 	0.0028705 	0.00030101 	-0.232432
0.0123411 	0.0028507 	0.000292994 	-0.231328
0.0123411 	0.0028507 	0.000292994 	-0.231328
0.0123913 	0.00282896 	0.00028727 	-0.230206
0.0123913 	0.00282896 	0.00028727 	-0.230206
0.0124415 	0.00279905 	0.000291192 	-0.229013
0.0124916 	0.00276636 	0.000291264 	-0.227789
0.0124916 	0.00276636 	0.000291264 	-0.227789
0.012592 	0.00269061 	0.000275332 	-0.22521
0.012592 	0.00269061 	0.000275332 	-0.22521
0.0126421 	0.00265024 	0.000262172 	-0.223877
0.0126923 	0.0026064 	0.00024799 	-0.222478
0.0126923 	0.0026064 	0.00024799 	-0.222478
0.0127425 	0.00256133 	0.000234712 	-0.221055
0.0127425 	0.00256133 	0.000234712 	-0.221055
0.0127926 	0.0025134 	0.000224004 	-0.219576
0.0128428 	0.00246368 	0.000218274 	-0.21804
0.0128428 	0.00246368 	0.000218274 	-0.21804
0.012893 	0.00241285 	0.000215652 	-0.216468
0.0129431 	0.00236177 	0.000207709 	-0.214762
0.0129431 	0.00236177 	0.000207709 	-0.214762
0.0129933 	0.00231111 	0.00019426 	-0.212979
0.0130435 	0.00226114 	0.000172386 	-0.211077
0.0130435 	0.00226114 	0.000172386 	-0.211077
0.0130936 	0.00221072 	0.000145508 	-0.209
0.0131438 	0.00215924 	0.000121446 	-0.206856
0.0131438 	0.00215924 	0.000121446 	-0.206856
0.013194 	0.00210534 	0.000107243 	-0.204636
0.0132441 	0.00204812 	0.000108059 	-0.20241
0.0132441 	0.00204812 	0.000108059 	-0.20241
0.0132943 	0.00198913 	0.000112257 	-0.20017
0.0133445 	0.00192816 	0.000113532 	-0.197896
0.0133445 	0.00192816 	0.000113532 	-0.197896
0.0133946 	0.00186614 	0.000103385 	-0.195514
0.0134448 	0.00180352 	8.92636e-05 	-0.193042
0.0134448 	0.00180352 	8.92636e-05 	-0.193042
0.013495 	0.00174031 	7.27995e-05 	-0.190462
0.0135452 	0.00167622 	6.06112e-05 	-0.1877
0.0135452 	0.00167622 	6.06112e-05 	-0.1877
0.0136455 	0.00154693 	4.27986e-05 	-0.181787
0.0136455 	0.00154693 	4.27986e-05 	-0.181787
0.0136957 	0.00148203 	3.52527e-05 	-0.178583
0.0137458 	0.00141744 	2.79786e-05 	-0.175143
0.0137458 	0.00141744 	2.79786e-05 	-0.175143
0.013796 	0.0013532 	2.10584e-05 	-0.171504
0.0138462 	0.00128928 	1.46088e-05 	-0.167646
0.0138462 	0.00128928 	1.46088e-05 	-0.167646
0.0138963 	0.00122561 	8.76386e-06 	-0.163548
0.0138963 	0.00122561 	8.76386e-06 	-0.163548
0.0139465 	0.00116204 	3.86331e-06 	-0.159097
0.0139967 	0.00109848 	-3.99073e-07 	-0.154343
0.0139967 	0.00109848 	-3.99073e-07 	-0.154343
0.0140468 	0.001035 	-4.26218e-06 	-0.149268
0.0140468 	0.001035 	-4.26218e-06 	-0.149268
0.014097 	0.000971634 	-7.88661e-06 	-0.14385
0.0141472 	0.000908326 	-1.13029e-05 	-0.138063
0.0141973 	0.000844825 	-1.42823e-05 	-0.131885
0.0141973 	0.000844825 	-1.42823e-05 	-0.131885
0.0142475 	0.000780836 	-1.64514e-05 	-0.125219
0.0142977 	0.000716731 	-1.79399e-05 	-0.118104
0.0143478 	0.000653418 	-1.89671e-05 	-0.110531
0.0143478 	0.000653418 	-1.89671e-05 	-0.110531
0.014398 	0.000592221 	-1.96311e-05 	-0.102513
0.014398 	0.000592221 	-1.96311e-05 	-0.102513
0.0144482 	0.00053456 	-1.98532e-05 	-0.0940908
0.0144983 	0.00048175 	-1.95538e-05 	-0.0853405
0.0144983 	0.00048175 	-1.95538e-05 	-0.0853405
0.0145485 	0.000434816 	-1.87325e-05 	-0.076373
0.0145987 	0.000394123 	-1.73842e-05 	-0.0673195
0.0145987 	0.000394123 	-1.73842e-05 	-0.0673195
0.0146488 	0.000358779 	-1.54547e-05 	-0.0583077
0.014699 	0.000326022 	-1.28946e-05 	-0.049435
0.014699 	0.000326022 	-1.28946e-05 	-0.049435
0.0147492 	0.000290516 	-9.73704e-06 	-0.0407506
0.0147993 	0.000243 	-6.28273e-06 	-0.0322502
0.0147993 	0.000243 	-6.28273e-06 	-0.0322502
0.0148495 	0.00016712 	-2.59211e-06 	-0.0238835
0.0148495 	0.00016712 	-2.59211e-06 	-0.0238835
0.0148997 	6.10177e-05 	-2.5374e-07 	-0.0156225
0.0148997 	6.10177e-05 	-2.5374e-07 	-0.0156225
0.0149498 	-1.74717e-05 	3.8439e-07 	-0.00758859
0.0149498 	-1.74717e-05 	3.8439e-07 	-0.00758859
0.015 	0 	0 	0
