/*--------------------------------*- C++ -*----------------------------------*\
| =========                 |                                                 |
| \\      /  F ield         | OpenFOAM: The Open Source CFD Toolbox           |
|  \\    /   O peration     | Version:  v1912                                 |
|   \\  /    A nd           | Website:  www.openfoam.com                      |
|    \\/     M anipulation  |                                                 |
\*---------------------------------------------------------------------------*/
FoamFile
{
    version     2.0;
    format      ascii;
    class       volScalarField;
    location    "197.6";
    object      k;
}
// * * * * * * * * * * * * * * * * * * * * * * * * * * * * * * * * * * * * * //

dimensions      [0 2 -2 0 0 0 0];


internalField   nonuniform List<scalar> 
10147
(
0.000327521
0.000278099
0.00023828
0.000232893
0.000235853
0.000237525
0.000238092
0.000238227
0.000238336
0.000238206
0.000238066
0.000237515
0.000235897
0.000233024
0.000238417
0.000278024
0.000241471
0.000239821
0.000239751
0.000240147
0.000240264
0.000240166
0.000239785
0.000239855
0.000241492
0.00024512
0.000249848
0.000247721
0.000241978
0.000241391
0.000239398
0.000236059
0.000240803
0.000281531
0.000246354
0.000318326
0.000274313
0.000240172
0.000235934
0.000238522
0.000239377
0.000239326
0.000239028
0.00023905
0.000239025
0.000239331
0.000239406
0.000238604
0.000236103
0.000240353
0.000274282
0.000310219
0.000271487
0.000242853
0.000239847
0.000242152
0.000242263
0.000241631
0.000240923
0.000240863
0.000240938
0.000241667
0.000242329
0.000242269
0.000240052
0.000243075
0.0002715
0.000303287
0.000269667
0.000246298
0.000244566
0.000246671
0.000246117
0.000244947
0.000243857
0.000243724
0.000243889
0.000245013
0.000246216
0.00024682
0.000244804
0.000246561
0.000269724
0.000297535
0.000268859
0.000250496
0.000250049
0.000252027
0.000250883
0.000249222
0.00024778
0.000247579
0.000247827
0.000249314
0.000251012
0.000252205
0.000250318
0.000250795
0.000268958
0.000292966
0.000269062
0.000255429
0.000256256
0.000258169
0.000256504
0.000254399
0.000252634
0.000252375
0.000252696
0.000254515
0.000256661
0.000258373
0.000256552
0.000255762
0.000269202
0.000289577
0.000270269
0.000261077
0.000263146
0.000265045
0.000262926
0.00026042
0.000258364
0.000258053
0.000258439
0.000260559
0.000263108
0.000265273
0.000263467
0.000261442
0.000270448
0.000287365
0.000272465
0.000267416
0.000270679
0.000272607
0.000270094
0.000267231
0.000264912
0.000264559
0.000265
0.000267389
0.000270297
0.000272855
0.000271021
0.00026781
0.000272682
0.000286321
0.000275629
0.000274419
0.000278799
0.000280791
0.000277947
0.000274772
0.000272223
0.000271835
0.000272321
0.000274949
0.000278169
0.000281056
0.000279159
0.000274841
0.000275883
0.000286432
0.000279734
0.000282052
0.000287441
0.000289522
0.000286409
0.000282973
0.000280226
0.000279811
0.000280334
0.000283164
0.000286648
0.000289801
0.000287818
0.000282497
0.000280021
0.000287677
0.000284745
0.000290264
0.000296556
0.000298742
0.000295409
0.000291752
0.000288839
0.000288405
0.000288955
0.000291956
0.000295662
0.000299033
0.000296946
0.000290729
0.000285064
0.000290028
0.000290626
0.000299004
0.000306104
0.000308407
0.000304892
0.000301049
0.000297995
0.000297548
0.000298119
0.000301265
0.000305157
0.000308709
0.000306507
0.000299488
0.000290974
0.000293452
0.000297333
0.000308233
0.000316054
0.00031848
0.000314816
0.000310816
0.000307644
0.000307189
0.000307773
0.000311042
0.000315092
0.000318792
0.000316467
0.000308732
0.000297707
0.000297907
0.000304821
0.000317916
0.000326377
0.00032893
0.000325146
0.000321014
0.000317743
0.000317286
0.000317878
0.000321249
0.000325431
0.00032925
0.000326799
0.000318429
0.000305219
0.00030335
0.000313032
0.000328024
0.000337044
0.000339726
0.000335846
0.000331608
0.000328256
0.000327803
0.000328397
0.000331852
0.000336139
0.000340052
0.000337474
0.000328549
0.000313451
0.000309731
0.000321904
0.000338527
0.000348032
0.000350841
0.000346888
0.000342567
0.000339151
0.000338705
0.000339296
0.000342818
0.000347189
0.000351173
0.000348468
0.000339062
0.000322341
0.000317
0.000331378
0.000349399
0.000359314
0.000362248
0.000358244
0.000353862
0.000350396
0.000349963
0.000350545
0.000354119
0.000358551
0.000362585
0.000359755
0.000349942
0.00033183
0.000325099
0.000341405
0.000360612
0.000370868
0.000373923
0.000369886
0.000365463
0.000361964
0.000361547
0.000362117
0.000365727
0.000370199
0.000374264
0.000371313
0.000361162
0.00034187
0.000333961
0.000351939
0.000372139
0.000382669
0.000385842
0.000381789
0.000377346
0.000373826
0.00037343
0.000373983
0.000377615
0.000382107
0.000386186
0.000383117
0.000372694
0.000352415
0.000343514
0.000362937
0.000383953
0.000394694
0.00039798
0.000393927
0.000389482
0.000385956
0.000385584
0.000386116
0.000389756
0.00039425
0.000398328
0.000395144
0.000384511
0.000363423
0.000353693
0.000374356
0.000396025
0.000406916
0.000410311
0.000406272
0.000401843
0.000398323
0.000397979
0.000398486
0.000402122
0.000406599
0.000410661
0.000407367
0.000396584
0.000374849
0.000364433
0.000386148
0.000408322
0.000419306
0.00042283
0.000418793
0.000414394
0.000410891
0.000410578
0.000411057
0.000414677
0.000419125
0.000423182
0.000419758
0.000408881
0.000386646
0.000375667
0.00039826
0.000420802
0.000431878
0.000435565
0.000431511
0.000427135
0.000423649
0.000423366
0.000423818
0.000427423
0.000431846
0.000435918
0.00043233
0.00042136
0.000398761
0.000387326
0.000410631
0.000433466
0.000444656
0.000448501
0.000444444
0.000440088
0.000436613
0.00043636
0.000436784
0.00044038
0.000444783
0.000448855
0.000445107
0.000434022
0.000411134
0.000399337
0.000423196
0.000446321
0.00045757
0.000461549
0.000457513
0.000453195
0.000449747
0.000449527
0.000449921
0.000453491
0.000457854
0.000461904
0.000458019
0.000446876
0.000423699
0.000411622
0.000435882
0.000459294
0.000470511
0.000474592
0.0004706
0.000466347
0.000462945
0.000462762
0.000463121
0.000466646
0.000470944
0.000474948
0.000470957
0.000459846
0.000436383
0.000424101
0.000448611
0.000472272
0.000483366
0.000487521
0.000483589
0.000479424
0.000476087
0.000475943
0.000476264
0.000479725
0.000483935
0.000487877
0.00048381
0.00047282
0.00044911
0.000436688
0.000461297
0.000485118
0.000496012
0.000500212
0.000496353
0.000492293
0.000489036
0.000488933
0.000489215
0.000492597
0.000496702
0.00050057
0.000496454
0.00048566
0.000461792
0.000449296
0.000473868
0.000497701
0.000508332
0.000512554
0.000508778
0.000504836
0.00050167
0.000501607
0.00050185
0.000505142
0.00050913
0.000512914
0.000508771
0.000498236
0.000474357
0.000461846
0.000486272
0.000509917
0.000520227
0.000524452
0.000520767
0.000516954
0.000513893
0.000513869
0.000514074
0.000517263
0.000521122
0.000524814
0.000520664
0.000510445
0.000486756
0.000474282
0.000498446
0.000521714
0.00053165
0.000535857
0.00053228
0.00052861
0.000525666
0.000525679
0.000525847
0.000528921
0.000532638
0.000536223
0.000532085
0.000522233
0.000498922
0.000486558
0.00051031
0.000533063
0.000542584
0.000546758
0.000543301
0.000539786
0.000536968
0.000537015
0.00053715
0.000540099
0.000543663
0.000547127
0.000543018
0.000533572
0.000510777
0.000498605
0.000521791
0.000543935
0.000553015
0.000557142
0.000553815
0.000550464
0.000547779
0.000547858
0.000547961
0.000550779
0.000554181
0.000557516
0.000553447
0.000544435
0.000522248
0.00051034
0.000532823
0.000554297
0.000562917
0.000566988
0.000563799
0.000560617
0.000558069
0.000558179
0.000558252
0.000560934
0.000564169
0.000567366
0.000563348
0.000554787
0.000533268
0.000521677
0.000543341
0.000564104
0.000572257
0.000576264
0.000573218
0.00057021
0.000567802
0.000567939
0.000567985
0.000570529
0.000573593
0.000576646
0.000572687
0.000564584
0.000543774
0.000532532
0.000553286
0.000573307
0.000580997
0.000584937
0.000582039
0.000579205
0.000576937
0.0005771
0.000577121
0.000579527
0.000582418
0.000585324
0.000581426
0.000573776
0.000553705
0.000542825
0.000562601
0.000581856
0.000589098
0.000592966
0.000590221
0.000587563
0.000585435
0.000585622
0.00058562
0.000587886
0.000590604
0.000593358
0.000589526
0.000582315
0.000563007
0.000552478
0.000571235
0.000589704
0.000596503
0.000600287
0.000597703
0.000595224
0.000593242
0.000593448
0.000593427
0.00059555
0.000598091
0.000600685
0.000596929
0.000590153
0.000571627
0.000561421
0.000579125
0.000596796
0.000603139
0.00060683
0.000604413
0.000602116
0.000600284
0.000600508
0.00060047
0.000602444
0.000604806
0.000607233
0.000603564
0.000597234
0.000579502
0.000569592
0.000586191
0.000603054
0.000608932
0.00061252
0.000610278
0.000608164
0.000606486
0.000606724
0.000606672
0.000608493
0.000610674
0.000612928
0.000609356
0.000603481
0.000586553
0.000576924
0.000592352
0.000608395
0.000613803
0.000617277
0.000615218
0.000613289
0.000611768
0.000612017
0.000611953
0.000613619
0.000615618
0.00061769
0.000614225
0.000608811
0.000592698
0.000583326
0.000597522
0.000612735
0.000617671
0.000621023
0.000619153
0.000617409
0.000616047
0.000616304
0.000616233
0.00061774
0.000619557
0.000621441
0.000618092
0.000613139
0.000597852
0.000588703
0.000601615
0.000615988
0.000620455
0.000623674
0.000622
0.000620441
0.000619241
0.000619501
0.000619426
0.000620773
0.000622408
0.000624097
0.000620873
0.00061638
0.000601927
0.000592963
0.000604543
0.000618068
0.000622071
0.000625149
0.000623679
0.000622301
0.000621266
0.000621525
0.00062145
0.000622634
0.000624089
0.000625577
0.000622488
0.000618449
0.000604838
0.00059601
0.00060622
0.000618892
0.000622439
0.000625368
0.000624106
0.000622909
0.000622038
0.000622293
0.000622221
0.000623242
0.00062452
0.0006258
0.000622853
0.00061926
0.000606498
0.000597754
0.000606564
0.000618378
0.000621479
0.000624251
0.000623205
0.000622184
0.000621478
0.000621725
0.00062166
0.000622517
0.000623621
0.000624687
0.000621891
0.000618733
0.000606823
0.000598105
0.000605493
0.000616448
0.000619118
0.000621726
0.000620899
0.000620051
0.000619508
0.000619745
0.00061969
0.000620383
0.000621317
0.000622165
0.000619527
0.000616791
0.000605735
0.000596979
0.000602933
0.00061303
0.000615284
0.000617721
0.000617118
0.000616437
0.000616058
0.000616279
0.000616238
0.000616768
0.000617538
0.000618164
0.00061569
0.00061336
0.000603156
0.000594298
0.000598815
0.000608056
0.000609913
0.000612174
0.000611797
0.000611278
0.000611061
0.000611262
0.000611239
0.000611608
0.000612218
0.00061262
0.000610316
0.000608373
0.000599019
0.000589988
0.000593073
0.000601467
0.000602946
0.000605027
0.000604878
0.000604513
0.000604456
0.000604635
0.000604633
0.000604842
0.0006053
0.000605475
0.000603346
0.000601772
0.00059326
0.000583983
0.000585653
0.000593211
0.000594334
0.00059623
0.000596311
0.000596092
0.000596191
0.000596344
0.000596366
0.000596419
0.000596733
0.00059668
0.00059473
0.000593502
0.000585822
0.000576223
0.000576506
0.000583241
0.000584032
0.000585742
0.00058605
0.00058597
0.000586221
0.000586345
0.000586394
0.000586294
0.000586472
0.000586194
0.000584423
0.00058352
0.000576656
0.000566658
0.00056559
0.000571524
0.000572006
0.000573531
0.000574063
0.000574112
0.00057451
0.000574603
0.00057468
0.000574433
0.000574484
0.000573982
0.000572393
0.00057179
0.000565724
0.000555244
0.000552875
0.000558031
0.00055823
0.000559572
0.000560322
0.00056049
0.000561029
0.000561089
0.000561197
0.000560808
0.00056074
0.000560022
0.000558611
0.000558284
0.000552991
0.000541945
0.000538334
0.000542743
0.000542686
0.000543849
0.000544809
0.000545086
0.000545759
0.000545785
0.000545925
0.0005454
0.000545225
0.000544298
0.000543061
0.000542985
0.000538434
0.000526734
0.000521952
0.000525651
0.000525364
0.000526355
0.000527515
0.000527889
0.000528689
0.000528679
0.000528851
0.000528199
0.000527927
0.000526801
0.000525733
0.00052588
0.000522036
0.000509587
0.000503717
0.000506751
0.000506261
0.000507091
0.000508436
0.000508896
0.000509813
0.000509768
0.000509972
0.0005092
0.000508843
0.000507532
0.000506622
0.000506967
0.000503786
0.000490484
0.000483618
0.000486039
0.000485373
0.000486055
0.000487569
0.000488102
0.000489127
0.000489046
0.000489281
0.0004884
0.000487969
0.00048649
0.000485726
0.000486244
0.000483674
0.000469399
0.000461639
0.000463506
0.000462688
0.000463238
0.000464901
0.000465497
0.000466617
0.000466502
0.000466767
0.000465787
0.000465294
0.000463666
0.000463031
0.000463699
0.000461683
0.000446293
0.000437745
0.000439126
0.000438178
0.000438615
0.000440404
0.000441051
0.000442252
0.000442106
0.000442397
0.000441332
0.000440786
0.000439033
0.000438511
0.000439307
0.000437777
0.000421101
0.00041188
0.000412849
0.000411791
0.000412138
0.000414025
0.000414712
0.00041598
0.000415806
0.000416119
0.000414984
0.000414396
0.000412544
0.000412112
0.00041302
0.000411901
0.000393734
0.000383964
0.000384605
0.000383454
0.000383733
0.000385687
0.000386405
0.000387719
0.000387522
0.000387852
0.000386666
0.000386045
0.000384124
0.000383761
0.000384764
0.000383976
0.000364085
0.000353904
0.000354302
0.000353075
0.000353309
0.000355297
0.000356035
0.000357373
0.000357159
0.000357498
0.000356282
0.000355638
0.000353684
0.000353367
0.000354449
0.000353909
0.000332044
0.000321613
0.000321855
0.000320569
0.00032078
0.000322761
0.000323509
0.000324844
0.00032462
0.00032496
0.000323742
0.000323083
0.000321135
0.000320844
0.000321991
0.000321611
0.000297537
0.000287033
0.000287208
0.000285883
0.000286085
0.000288019
0.000288762
0.000290062
0.000289837
0.000290169
0.000288978
0.000288318
0.000286415
0.000286138
0.000287332
0.000287026
0.000260632
0.000250294
0.000250471
0.000249138
0.000249339
0.000251178
0.000251902
0.000253131
0.000252913
0.000253228
0.000252099
0.000251452
0.000249641
0.000249369
0.000250583
0.000250284
0.000221765
0.000211903
0.000212124
0.000210824
0.000211029
0.000212722
0.000213407
0.000214527
0.000214326
0.000214612
0.000213581
0.000212965
0.000211299
0.00021103
0.000212223
0.000211892
0.000181899
0.000172878
0.000173156
0.000171943
0.000172151
0.000173643
0.000174267
0.000175244
0.000175069
0.000175316
0.000174416
0.000173852
0.000172383
0.000172119
0.000173241
0.000172866
0.00014259
0.000134778
0.0001351
0.000134031
0.000134235
0.000135483
0.000136022
0.000136828
0.000136686
0.000136887
0.000136144
0.000135654
0.000134425
0.000134176
0.000135169
0.000134767
0.000105851
9.95342e-05
9.98673e-05
9.89913e-05
9.91783e-05
0.000100156
0.000100593
0.000101215
0.000101108
0.00010126
0.000100687
0.000100288
9.93255e-05
9.9103e-05
9.99212e-05
9.95258e-05
7.37441e-05
6.90392e-05
6.93426e-05
6.86845e-05
6.88416e-05
6.95514e-05
6.98787e-05
7.0323e-05
7.02497e-05
7.03554e-05
6.99469e-05
6.96472e-05
6.89479e-05
6.87653e-05
6.93819e-05
6.90333e-05
4.78114e-05
4.46221e-05
4.48638e-05
4.44163e-05
4.4535e-05
4.50085e-05
4.52322e-05
4.55236e-05
4.54775e-05
4.55451e-05
4.52777e-05
4.50724e-05
4.46059e-05
4.44702e-05
4.48904e-05
4.46184e-05
2.86162e-05
2.6666e-05
2.68333e-05
2.65605e-05
2.66402e-05
2.69285e-05
2.70666e-05
2.7241e-05
2.72145e-05
2.72541e-05
2.70944e-05
2.69675e-05
2.66835e-05
2.65935e-05
2.68499e-05
2.6664e-05
1.56557e-05
1.45877e-05
1.4688e-05
1.45402e-05
1.45872e-05
1.47462e-05
1.48226e-05
1.49174e-05
1.49034e-05
1.49247e-05
1.4838e-05
1.47678e-05
1.46112e-05
1.45585e-05
1.46973e-05
1.45869e-05
7.69987e-06
7.18219e-06
7.23377e-06
7.16348e-06
7.18758e-06
7.26604e-06
7.30347e-06
7.34963e-06
7.34297e-06
7.35327e-06
7.31111e-06
7.27674e-06
7.19944e-06
7.17259e-06
7.23847e-06
7.18185e-06
3.30056e-06
3.0843e-06
3.10667e-06
3.0781e-06
3.08858e-06
3.12222e-06
3.13801e-06
3.15761e-06
3.15479e-06
3.15918e-06
3.1413e-06
3.12682e-06
3.09367e-06
3.08202e-06
3.10871e-06
3.08419e-06
1.16987e-06
1.09623e-06
1.10406e-06
1.09465e-06
1.09837e-06
1.11016e-06
1.11562e-06
1.12242e-06
1.12146e-06
1.12298e-06
1.11678e-06
1.11177e-06
1.10015e-06
1.09603e-06
1.10479e-06
1.0962e-06
3.40207e-07
3.21273e-07
3.2349e-07
3.21075e-07
3.22235e-07
3.25219e-07
3.26753e-07
3.28439e-07
3.28262e-07
3.28584e-07
3.27052e-07
3.25635e-07
3.22692e-07
3.21429e-07
3.23675e-07
3.21267e-07
2.22195e-07
2.1532e-07
2.16765e-07
2.15532e-07
2.166e-07
2.17113e-07
2.18079e-07
2.18288e-07
2.18519e-07
2.18325e-07
2.18155e-07
2.17214e-07
2.16707e-07
2.15608e-07
2.16795e-07
2.15305e-07
1.24313e-06
1.21105e-06
1.21925e-06
1.21246e-06
1.21892e-06
1.21977e-06
1.2252e-06
1.22513e-06
1.22692e-06
1.22526e-06
1.22546e-06
1.22009e-06
1.21926e-06
1.21267e-06
1.21929e-06
1.21094e-06
0.000262754
0.000252626
0.000252285
0.000247544
0.000244289
0.000243011
0.000243134
0.000243626
0.000243762
0.000243657
0.000243189
0.00024307
0.000244331
0.000247562
0.00025225
0.000252535
0.000269139
0.000258169
0.000255704
0.000251016
0.00024814
0.000247224
0.000247532
0.000248114
0.000248268
0.000248156
0.000247606
0.000247305
0.000248202
0.000251046
0.000255671
0.000258077
0.000275982
0.00026435
0.00026006
0.000255453
0.000252942
0.000252371
0.000252853
0.000253518
0.000253689
0.000253571
0.000252944
0.000252472
0.000253022
0.000255493
0.00026003
0.000264258
0.000283255
0.000271125
0.000265295
0.000260797
0.000258636
0.000258392
0.000259035
0.000259775
0.000259961
0.000259838
0.000259142
0.000258511
0.000258732
0.000260846
0.000265268
0.000271032
0.000290934
0.000278453
0.000271351
0.000266991
0.000265166
0.000265228
0.000266018
0.000266826
0.000267025
0.000266898
0.00026614
0.000265363
0.000265277
0.000267049
0.000271325
0.000278359
0.000299001
0.000286299
0.00027817
0.00027398
0.000272476
0.000272822
0.000273745
0.000274613
0.000274822
0.000274693
0.00027388
0.000272973
0.000272599
0.000274046
0.000278147
0.000286204
0.000307439
0.000294629
0.000285699
0.000281706
0.000280501
0.000281107
0.00028215
0.00028307
0.000283288
0.000283158
0.000282296
0.000281271
0.000280636
0.000281779
0.000285679
0.000294535
0.000316232
0.000303413
0.000293877
0.000290092
0.000289159
0.000289998
0.000291146
0.000292114
0.000292339
0.000292207
0.000291302
0.000290173
0.000289304
0.000290171
0.000293858
0.000303319
0.000325365
0.000312613
0.000302629
0.000299055
0.000298368
0.000299417
0.000300658
0.000301668
0.0003019
0.000301767
0.000300823
0.000299601
0.000298521
0.00029914
0.000302611
0.000312519
0.00033482
0.000322188
0.000311889
0.000308531
0.000308072
0.000309311
0.000310634
0.000311681
0.000311917
0.000311785
0.000310807
0.000309503
0.000308232
0.00030862
0.000311873
0.000322093
0.000344581
0.000332101
0.000321604
0.000318471
0.000318224
0.000319636
0.000321032
0.000322112
0.000322351
0.00032222
0.000321211
0.000319836
0.000318391
0.000318564
0.00032159
0.000332006
0.000354623
0.000342322
0.000331732
0.000328829
0.000328782
0.000330353
0.000331812
0.00033292
0.000333163
0.000333033
0.000331998
0.00033056
0.000328955
0.000328927
0.000331718
0.000342228
0.000364925
0.000352827
0.000342229
0.000339565
0.000339705
0.000341422
0.000342937
0.00034407
0.000344314
0.000344186
0.000343129
0.000341636
0.000339884
0.000339666
0.000342217
0.000352733
0.000375461
0.000363587
0.000353057
0.000350635
0.000350953
0.000352803
0.000354367
0.000355521
0.000355767
0.000355641
0.000354564
0.000353023
0.000351138
0.00035074
0.000353046
0.000363495
0.000386207
0.000374577
0.000364174
0.000362
0.000362486
0.000364458
0.000366063
0.000367236
0.000367483
0.000367359
0.000366266
0.000364683
0.000362676
0.000362108
0.000364165
0.000374485
0.000397135
0.000385762
0.00037554
0.000373616
0.000374262
0.000376344
0.000377984
0.000379174
0.00037942
0.0003793
0.000378192
0.000376574
0.000374456
0.000373728
0.000375532
0.000385672
0.000408217
0.000397109
0.000387111
0.000385441
0.000386238
0.00038842
0.000390089
0.000391292
0.000391538
0.000391421
0.000390302
0.000388654
0.000386437
0.000385557
0.000387106
0.000397021
0.000419416
0.000408577
0.000398842
0.000397428
0.000398369
0.00040064
0.000402333
0.000403547
0.000403792
0.000403679
0.00040255
0.000400879
0.000398573
0.000397548
0.000398839
0.00040849
0.000430693
0.000420121
0.000410685
0.000409531
0.000410608
0.000412956
0.000414667
0.000415889
0.000416132
0.000416023
0.000414888
0.0004132
0.000410816
0.000409655
0.000410686
0.000420037
0.000442002
0.000431693
0.000422588
0.000421695
0.0004229
0.000425316
0.000427039
0.000428266
0.000428507
0.000428403
0.000427263
0.000425565
0.000423114
0.000421824
0.000422592
0.000431611
0.000453295
0.000443239
0.000434494
0.000433862
0.000435188
0.000437661
0.00043939
0.00044062
0.000440858
0.000440759
0.000439618
0.000437914
0.000435406
0.000433996
0.000434502
0.000443159
0.000464521
0.000454705
0.000446344
0.00044597
0.000447406
0.000449927
0.000451657
0.000452889
0.000453124
0.00045303
0.000451889
0.000450184
0.00044763
0.00044611
0.000446356
0.000454629
0.000475629
0.000466038
0.000458076
0.000457953
0.000459487
0.000462049
0.000463778
0.000465009
0.000465241
0.000465152
0.000464013
0.000462311
0.000459716
0.000458098
0.000458094
0.000465966
0.000486566
0.000477186
0.000469631
0.000469744
0.000471362
0.000473961
0.000475687
0.000476918
0.000477146
0.000477063
0.000475926
0.000474227
0.000471597
0.000469896
0.000469656
0.000477117
0.000497277
0.000488093
0.000480948
0.000481279
0.000482966
0.000485599
0.000487322
0.000488554
0.000488778
0.000488701
0.000487564
0.00048587
0.000483207
0.000481439
0.000480979
0.000488029
0.00050771
0.000498708
0.000491963
0.000492495
0.000494236
0.000496901
0.00049862
0.000499854
0.000500074
0.000500003
0.000498865
0.000497177
0.000494484
0.000492662
0.000492001
0.000498648
0.000517802
0.000508966
0.000502603
0.000503315
0.000505096
0.000507791
0.000509507
0.000510744
0.00051096
0.000510894
0.000509755
0.000508072
0.000505351
0.000503491
0.000502648
0.000508911
0.000527488
0.000518797
0.000512786
0.00051366
0.000515467
0.000518191
0.000519903
0.000521145
0.000521355
0.000521297
0.000520155
0.000518478
0.00051573
0.000513845
0.00051284
0.000518748
0.000536704
0.000528143
0.000522452
0.000523464
0.000525284
0.000528033
0.00052974
0.000530986
0.000531191
0.000531139
0.000529995
0.000528325
0.000525555
0.000523658
0.000522514
0.000528099
0.000545404
0.000536961
0.00053156
0.000532692
0.000534513
0.000537283
0.000538984
0.000540233
0.000540433
0.000540388
0.000539243
0.000537581
0.000534793
0.000532896
0.00053163
0.000536922
0.000553546
0.000545209
0.000540076
0.000541317
0.000543131
0.000545918
0.000547612
0.000548863
0.000549055
0.000549019
0.000547873
0.000546222
0.00054342
0.000541531
0.000540156
0.000545176
0.000561084
0.000552849
0.000547968
0.000549312
0.000551112
0.000553915
0.000555598
0.000556849
0.000557034
0.000557006
0.000555862
0.000554226
0.00055141
0.000549536
0.000548058
0.000552823
0.000567972
0.000559838
0.000555199
0.000556645
0.000558428
0.000561244
0.000562913
0.000564163
0.000564339
0.000564321
0.00056318
0.000561561
0.000558736
0.00055688
0.000555299
0.000559819
0.000574163
0.000566135
0.000561734
0.000563283
0.000565045
0.000567873
0.000569523
0.000570771
0.000570938
0.000570931
0.000569794
0.000568197
0.000565362
0.00056353
0.000561845
0.000566123
0.000579612
0.0005717
0.000567538
0.000569192
0.00057093
0.000573769
0.000575397
0.00057664
0.000576795
0.000576801
0.000575671
0.000574099
0.000571257
0.00056945
0.000567661
0.000571696
0.000584279
0.000576497
0.000572577
0.000574339
0.000576051
0.0005789
0.0005805
0.000581738
0.00058188
0.0005819
0.000580778
0.000579236
0.000576389
0.000574609
0.000572712
0.0005765
0.000588125
0.00058049
0.000576821
0.000578692
0.000580377
0.000583233
0.000584803
0.000586032
0.00058616
0.000586196
0.000585084
0.000583576
0.000580724
0.000578974
0.000576968
0.000580502
0.000591118
0.000583648
0.00058024
0.000582221
0.000583877
0.000586739
0.000588274
0.000589494
0.000589607
0.000589659
0.000588558
0.000587088
0.000584234
0.000582516
0.000580399
0.000583669
0.000593228
0.000585943
0.000582807
0.000584898
0.000586524
0.00058939
0.000590886
0.000592095
0.000592191
0.000592261
0.000591172
0.000589746
0.000586891
0.000585205
0.000582979
0.000585973
0.00059443
0.000587349
0.000584498
0.000586698
0.000588293
0.00059116
0.000592613
0.00059381
0.000593888
0.000593976
0.000592902
0.000591523
0.000588669
0.000587017
0.000584683
0.000587389
0.000594698
0.000587842
0.000585289
0.000587597
0.00058916
0.000592028
0.000593432
0.000594615
0.000594675
0.000594782
0.000593724
0.000592396
0.000589546
0.000587927
0.000585487
0.000587891
0.000594015
0.000587402
0.000585161
0.000587574
0.000589106
0.000591971
0.000593324
0.000594492
0.000594531
0.00059466
0.000593619
0.000592345
0.000589501
0.000587917
0.000585372
0.000587462
0.000592364
0.000586015
0.000584097
0.000586613
0.000588113
0.000590974
0.000592271
0.000593422
0.00059344
0.00059359
0.000592568
0.000591353
0.000588517
0.000586967
0.000584322
0.000586085
0.000589731
0.000583665
0.000582084
0.000584699
0.000586168
0.000589021
0.00059026
0.000591392
0.000591389
0.00059156
0.000590558
0.000589405
0.000586581
0.000585064
0.000582322
0.000583747
0.000586106
0.000580344
0.00057911
0.000581819
0.000583259
0.000586101
0.000587278
0.000588389
0.000588364
0.000588558
0.000587578
0.00058649
0.000583679
0.000582195
0.000579361
0.000580436
0.000581482
0.000576041
0.000575164
0.000577963
0.000579375
0.000582203
0.000583315
0.000584404
0.000584357
0.000584573
0.000583617
0.000582596
0.000579802
0.000578349
0.000575428
0.000576143
0.000575851
0.000570748
0.000570237
0.000573119
0.000574505
0.000577316
0.000578362
0.000579425
0.000579356
0.000579594
0.000578664
0.000577712
0.000574938
0.000573515
0.000570513
0.000570861
0.000569206
0.000564456
0.000564317
0.000567276
0.000568637
0.000571428
0.000572406
0.000573443
0.000573351
0.000573611
0.000572708
0.000571827
0.000569077
0.000567681
0.000564606
0.00056458
0.000561538
0.000557153
0.00055739
0.000560419
0.000561758
0.000564525
0.000565434
0.000566441
0.000566328
0.00056661
0.000565737
0.000564927
0.000562203
0.000560832
0.000557691
0.000557288
0.000552833
0.000548825
0.00054944
0.000552529
0.000553848
0.000556588
0.000557427
0.000558403
0.000558269
0.000558571
0.00055773
0.000556991
0.000554298
0.00055295
0.000549752
0.00054897
0.000543073
0.000539448
0.000540439
0.000543579
0.000544881
0.000547589
0.00054836
0.000549302
0.000549148
0.000549469
0.000548663
0.000547994
0.000545335
0.000544007
0.000540762
0.000539604
0.000532228
0.000528991
0.000530353
0.000533533
0.000534819
0.000537492
0.000538197
0.000539101
0.000538928
0.000539266
0.000538498
0.000537897
0.000535276
0.000533967
0.000530686
0.000529155
0.000520251
0.000517401
0.000519127
0.000522334
0.000523607
0.000526241
0.000526882
0.000527745
0.000527556
0.000527909
0.000527181
0.000526646
0.000524066
0.000522774
0.000519469
0.000517575
0.000507069
0.000504605
0.000506682
0.000509905
0.000511165
0.000513755
0.000514336
0.000515155
0.000514953
0.000515318
0.000514634
0.000514161
0.000511626
0.000510349
0.000507033
0.000504788
0.000492579
0.000490492
0.000492892
0.000496089
0.00049734
0.000499884
0.000500421
0.000501187
0.000500979
0.000501349
0.000500717
0.000500289
0.000497802
0.000496537
0.000493251
0.000490683
0.000476554
0.000474788
0.000477468
0.000480605
0.000481846
0.000484343
0.00048485
0.000485555
0.000485347
0.000485716
0.000485144
0.000484747
0.000482309
0.000481057
0.000477833
0.000474986
0.000458677
0.000457188
0.000460107
0.000463162
0.00046439
0.000466837
0.000467322
0.00046796
0.000467757
0.000468119
0.000467615
0.00046724
0.000464853
0.000463617
0.000460478
0.000457392
0.000438648
0.000437413
0.000440529
0.000443485
0.000444693
0.000447087
0.000447557
0.00044812
0.000447927
0.000448278
0.000447847
0.000447488
0.000445156
0.000443942
0.000440904
0.000437621
0.000416205
0.000415205
0.000418472
0.000421315
0.000422495
0.000424829
0.000425289
0.000425773
0.000425594
0.00042593
0.000425576
0.000425228
0.000422957
0.000421773
0.00041885
0.000415417
0.000391126
0.000390346
0.000393713
0.000396428
0.000397571
0.000399836
0.000400289
0.00040069
0.000400528
0.000400844
0.000400571
0.00040023
0.000398029
0.000396883
0.000394091
0.00039056
0.000363262
0.000362686
0.000366094
0.000368666
0.000369763
0.000371945
0.000372393
0.000372709
0.000372567
0.00037286
0.000372668
0.000372332
0.000370214
0.000369115
0.000366469
0.000362899
0.000332573
0.000332182
0.00033557
0.000337979
0.000339021
0.000341102
0.000341544
0.000341777
0.000341658
0.000341924
0.000341811
0.000341478
0.000339461
0.000338417
0.000335937
0.000332392
0.00029918
0.000298954
0.000302254
0.000304481
0.00030546
0.000307418
0.000307851
0.000308005
0.00030791
0.000308145
0.000308107
0.000307778
0.000305882
0.000304903
0.000302608
0.000299158
0.000263418
0.00026334
0.000266481
0.000268504
0.000269413
0.00027122
0.000271642
0.000271723
0.000271654
0.000271854
0.000271881
0.00027156
0.000269812
0.000268903
0.000266817
0.000263533
0.000225849
0.00022589
0.000228808
0.000230605
0.000231436
0.000233064
0.000233466
0.000233484
0.000233441
0.000233606
0.000233686
0.000233377
0.000231803
0.000230973
0.000229119
0.000226069
0.000187128
0.000187259
0.000189909
0.000191458
0.000192204
0.000193626
0.000194003
0.000193967
0.000193948
0.000194075
0.000194199
0.000193907
0.000192534
0.000191788
0.000190189
0.00018742
0.000148682
0.00014885
0.000151146
0.000152426
0.000153069
0.000154262
0.0001546
0.000154529
0.00015453
0.000154622
0.000154768
0.000154502
0.000153352
0.000152709
0.000151386
0.000148989
0.000112452
0.000112613
0.000114481
0.000115485
0.000116009
0.00011696
0.000117246
0.000117163
0.000117176
0.000117238
0.000117383
0.000117155
0.000116239
0.000115715
0.000114677
0.000112725
8.04316e-05
8.0559e-05
8.19716e-05
8.27112e-05
8.31102e-05
8.38227e-05
8.40498e-05
8.39711e-05
8.39894e-05
8.40286e-05
8.41535e-05
8.39712e-05
8.32849e-05
8.28856e-05
8.21197e-05
8.06438e-05
5.41331e-05
5.42197e-05
5.52036e-05
5.5713e-05
5.59943e-05
5.64918e-05
5.66576e-05
5.65956e-05
5.6613e-05
5.6636e-05
5.67306e-05
5.65964e-05
5.61172e-05
5.58354e-05
5.53075e-05
5.4279e-05
3.41541e-05
3.4207e-05
3.48354e-05
3.51623e-05
3.53451e-05
3.56671e-05
3.57779e-05
3.57358e-05
3.57492e-05
3.5762e-05
3.58252e-05
3.57349e-05
3.54248e-05
3.52415e-05
3.49026e-05
3.42452e-05
2.01097e-05
2.01398e-05
2.05075e-05
2.07025e-05
2.08117e-05
2.10041e-05
2.10716e-05
2.10466e-05
2.10553e-05
2.10623e-05
2.10998e-05
2.10446e-05
2.08592e-05
2.07496e-05