/*--------------------------------*- C++ -*----------------------------------*\
| =========                 |                                                 |
| \\      /  F ield         | OpenFOAM: The Open Source CFD Toolbox           |
|  \\    /   O peration     | Version:  v1912                                 |
|   \\  /    A nd           | Website:  www.openfoam.com                      |
|    \\/     M anipulation  |                                                 |
\*---------------------------------------------------------------------------*/
FoamFile
{
    version     2.0;
    format      ascii;
    class       volVectorField;
    location    "197.6";
    object      UMean;
}
// * * * * * * * * * * * * * * * * * * * * * * * * * * * * * * * * * * * * * //

dimensions      [0 1 -1 0 0 0 0];


internalField   nonuniform List<vector> 
10147
(
(3.40296e-05 0.005113 0.2713)
(0.00182554 0.00257 0.273931)
(0.000627612 0.00162129 0.278082)
(0.000536703 0.00184415 0.27919)
(9.00939e-05 0.0017448 0.279315)
(0.000148288 0.00205514 0.279029)
(2.26062e-05 0.00207732 0.278865)
(2.76528e-05 0.00224049 0.278728)
(1.13396e-06 0.00220306 0.278668)
(-2.79576e-05 0.00225567 0.278684)
(-1.21681e-05 0.00210429 0.278785)
(-0.000133726 0.00208537 0.278908)
(-5.61378e-05 0.00177757 0.279148)
(-0.000485648 0.00186702 0.278948)
(-0.00056676 0.00163281 0.277855)
(-0.00175412 0.00256794 0.273793)
(6.45934e-05 -0.00317671 0.279256)
(4.45104e-05 -0.00331192 0.279645)
(7.56408e-05 -0.00336892 0.279812)
(4.07782e-05 -0.00343789 0.279799)
(1.59419e-05 -0.00342162 0.279778)
(-1.09481e-05 -0.00342634 0.279759)
(-4.4924e-05 -0.00334882 0.279746)
(-1.54596e-05 -0.00328981 0.279548)
(-3.28026e-05 -0.00315525 0.279129)
(0.0002281 -0.00302829 0.278216)
(2.67117e-05 -0.00320896 0.277364)
(0.000677713 -0.00319431 0.276795)
(-1.98677e-05 -0.00227834 0.275627)
(-3.89985e-05 -0.00235507 0.275807)
(-0.000107181 -0.00240875 0.276079)
(-0.000166311 -0.00243769 0.27605)
(-0.000615593 -0.00243106 0.27482)
(-0.000468891 -0.00142921 0.271177)
(0.000416452 -0.00199361 0.275956)
(3.46936e-05 0.00498239 0.271726)
(0.00178121 0.00253749 0.274107)
(0.000635608 0.00166042 0.277941)
(0.000552732 0.00185106 0.278984)
(9.93492e-05 0.00174861 0.279127)
(0.000155767 0.0020486 0.278891)
(2.45575e-05 0.00207037 0.278766)
(2.83641e-05 0.0022308 0.278658)
(2.58239e-07 0.00219362 0.278608)
(-3.03695e-05 0.00224617 0.278619)
(-1.53549e-05 0.00209762 0.278697)
(-0.000141655 0.00207905 0.278783)
(-6.4901e-05 0.00178141 0.278975)
(-0.000500334 0.00187407 0.278752)
(-0.000573045 0.0016719 0.277717)
(-0.00170817 0.00253559 0.273969)
(3.53655e-05 0.00485449 0.272062)
(0.00172982 0.00250353 0.2742)
(0.000633867 0.00169538 0.277723)
(0.000567559 0.00185598 0.278696)
(0.000108397 0.00175055 0.278853)
(0.000162639 0.00204038 0.278663)
(2.65882e-05 0.00206164 0.278575)
(2.92154e-05 0.00221925 0.278494)
(-6.15052e-07 0.00218231 0.278454)
(-3.29053e-05 0.00223479 0.278462)
(-1.85754e-05 0.00208914 0.278516)
(-0.000148942 0.002071 0.278568)
(-7.345e-05 0.0017833 0.278716)
(-0.000513835 0.00187909 0.278474)
(-0.000569621 0.00170681 0.277503)
(-0.00165516 0.0025018 0.274061)
(3.60453e-05 0.00473145 0.272307)
(0.00167496 0.00246818 0.274211)
(0.000624872 0.00172512 0.277434)
(0.000580504 0.00185876 0.278333)
(0.000117182 0.00175043 0.278499)
(0.000169002 0.00203041 0.278351)
(2.86137e-05 0.00205116 0.278298)
(3.0148e-05 0.0022059 0.278243)
(-1.48346e-06 0.00216922 0.278211)
(-3.5499e-05 0.00222157 0.278216)
(-2.17487e-05 0.00207887 0.278249)
(-0.000155689 0.00206118 0.278269)
(-8.1729e-05 0.00178312 0.278378)
(-0.000525474 0.00188194 0.278121)
(-0.000558978 0.00173653 0.277218)
(-0.0015987 0.00246664 0.274071)
(3.67399e-05 0.00461334 0.272464)
(0.00161959 0.00243257 0.274141)
(0.000612246 0.00174981 0.277076)
(0.000591685 0.00185935 0.2779)
(0.00012559 0.00174846 0.278071)
(0.000174971 0.00201884 0.27796)
(3.05875e-05 0.00203901 0.27794)
(3.11016e-05 0.00219085 0.277909)
(-2.35384e-06 0.00215444 0.277885)
(-3.81015e-05 0.00220664 0.277888)
(-2.48456e-05 0.0020669 0.2779)
(-0.000162023 0.00204969 0.27789)
(-8.96177e-05 0.00178103 0.277963)
(-0.000535362 0.00188256 0.277696)
(-0.000544725 0.00176117 0.276863)
(-0.00154171 0.00243124 0.274001)
(3.74522e-05 0.00449939 0.272535)
(0.0015649 0.00239658 0.273992)
(0.000597673 0.00176991 0.27665)
(0.00060127 0.00185775 0.277398)
(0.0001336 0.00174469 0.277571)
(0.000180615 0.00200574 0.277495)
(3.24902e-05 0.0020253 0.277504)
(3.20509e-05 0.00217421 0.277496)
(-3.22794e-06 0.0021381 0.27748)
(-4.069e-05 0.0021901 0.27748)
(-2.78509e-05 0.00205333 0.277473)
(-0.000168015 0.00203664 0.277436)
(-9.70925e-05 0.00177709 0.277477)
(-0.000543665 0.00188095 0.277203)
(-0.000528547 0.00178122 0.276441)
(-0.00148541 0.00239547 0.273852)
(3.81833e-05 0.00438943 0.272522)
(0.00151162 0.00236035 0.273765)
(0.000582156 0.00178567 0.276158)
(0.000609419 0.00185401 0.276831)
(0.000141215 0.00173919 0.277003)
(0.000185984 0.00199121 0.276958)
(3.43104e-05 0.00201011 0.276996)
(3.29818e-05 0.00215608 0.277009)
(-4.10552e-06 0.00212027 0.277)
(-4.32503e-05 0.00217203 0.276997)
(-3.07553e-05 0.00203823 0.276973)
(-0.000173715 0.00202211 0.27691)
(-0.000104159 0.00177138 0.276922)
(-0.000550544 0.00187718 0.276645)
(-0.000511443 0.00179693 0.275953)
(-0.00143052 0.00235945 0.273625)
(3.89333e-05 0.0042832 0.272427)
(0.00146022 0.00232397 0.273463)
(0.000566379 0.00179736 0.275604)
(0.000616287 0.00184822 0.276202)
(0.000148448 0.00173202 0.276371)
(0.000191114 0.00197532 0.276353)
(3.60415e-05 0.00199352 0.276417)
(3.38846e-05 0.00213654 0.276451)
(-4.98561e-06 0.00210105 0.276448)
(-4.57729e-05 0.00215254 0.276443)
(-3.35526e-05 0.00202169 0.276402)
(-0.000179163 0.00200616 0.276316)
(-0.000110831 0.00176397 0.276303)
(-0.000556154 0.00187132 0.276025)
(-0.0004941 0.00180855 0.275403)
(-0.0013775 0.0023233 0.273323)
(3.9701e-05 0.00418047 0.272251)
(0.001411 0.00228748 0.273086)
(0.000550789 0.00180523 0.274988)
(0.00062202 0.00184046 0.275513)
(0.000155314 0.00172325 0.275678)
(0.000196035 0.00195813 0.275685)
(3.76796e-05 0.00197561 0.275772)
(3.47531e-05 0.00211568 0.275825)
(-5.86765e-06 0.00208054 0.275828)
(-4.82518e-05 0.00213171 0.275822)
(-3.62394e-05 0.0020038 0.275765)
(-0.000184386 0.00198888 0.275657)
(-0.000117125 0.00175492 0.275621)
(-0.000560644 0.00186347 0.275344)
(-0.000476967 0.00181634 0.27479)
(-0.00132666 0.00228704 0.272947)
(4.04846e-05 0.00408098 0.271995)
(0.00136413 0.00225092 0.272637)
(0.000535659 0.00180954 0.274313)
(0.000626751 0.00183081 0.274766)
(0.000161825 0.00171293 0.274925)
(0.000200768 0.00193973 0.274954)
(3.92225e-05 0.00195645 0.275064)
(3.55835e-05 0.00209358 0.275134)
(-6.75162e-06 0.0020588 0.275143)
(-5.06833e-05 0.00210962 0.275135)
(-3.88137e-05 0.00198462 0.275065)
(-0.000189404 0.00197034 0.274937)
(-0.000123056 0.0017443 0.274879)
(-0.000564149 0.00185371 0.274605)
(-0.000460319 0.00182056 0.274119)
(-0.00127818 0.0022507 0.272498)
(4.12816e-05 0.00398451 0.271661)
(0.0013197 0.0022143 0.272118)
(0.000521143 0.00181052 0.273579)
(0.000630601 0.00181938 0.273965)
(0.000167994 0.00170114 0.274117)
(0.000205325 0.00192016 0.274166)
(4.06678e-05 0.00193611 0.274296)
(3.63728e-05 0.00207031 0.274382)
(-7.63723e-06 0.0020359 0.274397)
(-5.30643e-05 0.00208633 0.274388)
(-4.12734e-05 0.00196422 0.274304)
(-0.000194231 0.00195059 0.274157)
(-0.000128637 0.00173216 0.274081)
(-0.000566793 0.00184215 0.273812)
(-0.000444312 0.00182145 0.273389)
(-0.00123215 0.0022143 0.271979)
(4.2089e-05 0.00389083 0.271251)
(0.00127774 0.00217762 0.27153)
(0.000507321 0.00180842 0.27279)
(0.000633684 0.00180625 0.273112)
(0.000173828 0.00168792 0.273255)
(0.000209719 0.00189949 0.273322)
(4.20129e-05 0.00191467 0.273471)
(3.71178e-05 0.00204593 0.273572)
(-8.52394e-06 0.00201193 0.273592)
(-5.53918e-05 0.00206193 0.273581)
(-4.36165e-05 0.00194268 0.273485)
(-0.000198879 0.0019297 0.273322)
(-0.000133879 0.00171858 0.27323)
(-0.000568691 0.00182886 0.272966)
(-0.000429031 0.00181925 0.272604)
(-0.0011886 0.00217784 0.271392)
(4.29037e-05 0.00379974 0.270766)
(0.00123822 0.0021409 0.270876)
(0.000494233 0.00180345 0.271947)
(0.000636105 0.00179152 0.272209)
(0.000179337 0.00167335 0.272343)
(0.000213959 0.00187778 0.272425)
(4.32566e-05 0.00189218 0.272591)
(3.78157e-05 0.00202054 0.272706)
(-9.41147e-06 0.00198695 0.272731)
(-5.76642e-05 0.00203649 0.27272)
(-4.58416e-05 0.00192007 0.272613)
(-0.000203357 0.00190773 0.272434)
(-0.000138792 0.00170361 0.272327)
(-0.000569951 0.00181396 0.272069)
(-0.000414518 0.00181418 0.271764)
(-0.0011475 0.00214134 0.270738)
(4.3722e-05 0.00371103 0.270208)
(0.00120108 0.00210416 0.270156)
(0.000481895 0.00179583 0.271053)
(0.000637964 0.00177527 0.271257)
(0.00018453 0.00165749 0.271383)
(0.000218057 0.00185508 0.271478)
(4.44009e-05 0.00186872 0.27166)
(3.84664e-05 0.00199418 0.271788)
(-1.02996e-05 0.00196103 0.271817)
(-5.98811e-05 0.00201007 0.271805)
(-4.79484e-05 0.00189644 0.271688)
(-0.000207678 0.00188475 0.271495)
(-0.000143386 0.00168731 0.271376)
(-0.000570671 0.00179752 0.271124)
(-0.000400792 0.00180643 0.270873)
(-0.00110882 0.00210479 0.270019)
(4.45405e-05 0.00362454 0.269579)
(0.00116625 0.00206738 0.269374)
(0.000470309 0.00178575 0.270108)
(0.00063935 0.0017576 0.27026)
(0.000189417 0.0016404 0.270376)
(0.000222027 0.00183147 0.270483)
(4.54505e-05 0.00184435 0.270679)
(3.90721e-05 0.00196693 0.270819)
(-1.11886e-05 0.00193424 0.270852)
(-6.20438e-05 0.00198274 0.27084)
(-4.99393e-05 0.00187187 0.270714)
(-0.000211855 0.00186081 0.270508)
(-0.000147672 0.00166976 0.270378)
(-0.000570945 0.00177964 0.270133)
(-0.000387856 0.00179622 0.269932)
(-0.00107247 0.00206822 0.269238)
(4.53558e-05 0.00354012 0.26888)
(0.00113364 0.0020306 0.268531)
(0.000459465 0.0017734 0.269116)
(0.000640348 0.00173859 0.269218)
(0.00019401 0.00162215 0.269325)
(0.000225884 0.00180699 0.269442)
(4.64092e-05 0.00181914 0.269651)
(3.9635e-05 0.00193887 0.269802)
(-1.20786e-05 0.00190664 0.269838)
(-6.41541e-05 0.00195457 0.269827)
(-5.18189e-05 0.00184643 0.269692)
(-0.000215902 0.00183598 0.269474)
(-0.000151659 0.00165103 0.269335)
(-0.000570857 0.0017604 0.269097)
(-0.0003757 0.00178374 0.268943)
(-0.00103838 0.00203162 0.268395)
(4.61649e-05 0.00345762 0.268114)
(0.00110318 0.00199381 0.267628)
(0.000449345 0.00175897 0.268076)
(0.000641035 0.00171833 0.268134)
(0.000198322 0.00160281 0.268231)
(0.00022964 0.00178172 0.268356)
(4.72814e-05 0.00179316 0.268577)
(4.01565e-05 0.00191006 0.268738)
(-1.29685e-05 0.00187832 0.268777)
(-6.62149e-05 0.00192564 0.268767)
(-5.35939e-05 0.00182018 0.268624)
(-0.000219833 0.00181033 0.268396)
(-0.000155363 0.00163119 0.268248)
(-0.000570484 0.00173991 0.268017)
(-0.000364307 0.00176916 0.267907)
(-0.00100648 0.00199502 0.267494)
(4.69651e-05 0.00337692 0.267282)
(0.0010748 0.00195705 0.266668)
(0.000439926 0.00174264 0.266991)
(0.000641482 0.00169692 0.267007)
(0.000202365 0.00158246 0.267094)
(0.00023331 0.00175572 0.267227)
(4.80728e-05 0.00176649 0.267458)
(4.06397e-05 0.00188058 0.267629)
(-1.38558e-05 0.00184934 0.267671)
(-6.82293e-05 0.00189603 0.267661)
(-5.52734e-05 0.00179322 0.267511)
(-0.000223665 0.00178392 0.267274)
(-0.000158797 0.00161031 0.267119)
(-0.000569897 0.00171825 0.266896)
(-0.000353655 0.00175267 0.266825)
(-0.00097669 0.00195842 0.266534)
(4.77539e-05 0.00329794 0.266385)
(0.00104842 0.00192034 0.265652)
(0.000431185 0.00172458 0.265861)
(0.000641756 0.00167446 0.265838)
(0.000206153 0.0015612 0.265916)
(0.000236907 0.00172908 0.266055)
(4.87904e-05 0.00173922 0.266296)
(4.10887e-05 0.00185054 0.266475)
(-1.47379e-05 0.00181981 0.26652)
(-7.01995e-05 0.00186583 0.266511)
(-5.68695e-05 0.00176563 0.266355)
(-0.000227417 0.00175684 0.26611)
(-0.000161979 0.0015885 0.265949)
(-0.000569159 0.00169553 0.265732)
(-0.000343717 0.00173444 0.265698)
(-0.00094894 0.00192187 0.265519)
(4.85291e-05 0.00322057 0.265425)
(0.00102396 0.0018837 0.264581)
(0.000423101 0.00170496 0.264688)
(0.000641919 0.00165105 0.264629)
(0.000209699 0.00153908 0.264697)
(0.000240446 0.00170184 0.264842)
(4.94429e-05 0.00171137 0.26509)
(4.15074e-05 0.00181993 0.265278)
(-1.56133e-05 0.00178973 0.265325)
(-7.21276e-05 0.00183506 0.265316)
(-5.83943e-05 0.00173743 0.265155)
(-0.000231111 0.00172914 0.264903)
(-0.000164928 0.00156582 0.264737)
(-0.000568327 0.00167185 0.264528)
(-0.000334468 0.00171465 0.264527)
(-0.000923157 0.00188537 0.264449)
(4.92893e-05 0.00314466 0.264402)
(0.00100136 0.00184707 0.263455)
(0.000415655 0.00168389 0.26347)
(0.000642044 0.00162671 0.263378)
(0.000213005 0.00151614 0.263437)
(0.00024394 0.00167396 0.263586)
(5.00381e-05 0.00168291 0.263842)
(4.18989e-05 0.00178874 0.264037)
(-1.6481e-05 0.00175907 0.264086)
(-7.40156e-05 0.00180369 0.264079)
(-5.98576e-05 0.00170861 0.263912)
(-0.000234765 0.00170078 0.263654)
(-0.000167653 0.0015423 0.263485)
(-0.000567471 0.00164724 0.263282)
(-0.000325881 0.0016934 0.263313)
(-0.000899265 0.00184889 0.263325)
(5.00348e-05 0.00307002 0.263319)
(0.000980525 0.00181038 0.262277)
(0.000408851 0.00166139 0.262208)
(0.000642192 0.00160152 0.262087)
(0.000216075 0.00149239 0.262135)
(0.000247401 0.00164546 0.262289)
(5.05805e-05 0.00165381 0.262551)
(4.22636e-05 0.00175689 0.262753)
(-1.73406e-05 0.00172775 0.262804)
(-7.58636e-05 0.00177165 0.262798)
(-6.1265e-05 0.00167912 0.262626)
(-0.000238392 0.00167179 0.262363)
(-0.000170166 0.00151797 0.262189)
(-0.000566651 0.00162177 0.261996)
(-0.000317954 0.00167073 0.262055)
(-0.00087717 0.00181233 0.262147)
(5.07677e-05 0.00299638 0.262176)
(0.000961355 0.00177345 0.261045)
(0.000402738 0.0016375 0.260904)
(0.00064237 0.00157541 0.260749)
(0.000218938 0.00146772 0.260782)
(0.000250865 0.00161622 0.260944)
(5.10781e-05 0.00162397 0.261214)
(4.26047e-05 0.00172432 0.261423)
(-1.81933e-05 0.00169572 0.261477)
(-7.7676e-05 0.00173888 0.261472)
(-6.26264e-05 0.00164888 0.261295)
(-0.000242032 0.00164204 0.261023)
(-0.000172501 0.00149271 0.260843)
(-0.000565874 0.00159538 0.260662)
(-0.00031073 0.00164666 0.260753)
(-0.00085677 0.00177552 0.260917)
(5.14901e-05 0.0029235 0.260975)
(0.000943749 0.00173613 0.259762)
(0.000397297 0.00161217 0.259551)
(0.00064254 0.00154826 0.259357)
(0.000221641 0.00144204 0.259372)
(0.000254357 0.00158609 0.259543)
(5.15417e-05 0.00159326 0.259824)
(4.29325e-05 0.00169089 0.260042)
(-1.90411e-05 0.00166284 0.260098)
(-7.94661e-05 0.00170525 0.260093)
(-6.39562e-05 0.00161775 0.259909)
(-0.000245717 0.00161139 0.259628)
(-0.000174712 0.00146644 0.25944)
(-0.000565107 0.00156795 0.259275)
(-0.000304183 0.00162115 0.259404)
(-0.000837962 0.00173832 0.259636)
(5.22026e-05 0.00285115 0.259718)
(0.000927605 0.00169829 0.258429)
(0.000392361 0.00158534 0.258145)
(0.00064264 0.00152007 0.25791)
(0.000224224 0.00141535 0.257909)
(0.000257863 0.00155509 0.258087)
(5.19726e-05 0.00156165 0.258377)
(4.32553e-05 0.00165655 0.258604)
(-1.98851e-05 0.00162903 0.258662)
(-8.12429e-05 0.00167068 0.258658)
(-6.52567e-05 0.0015857 0.258467)
(-0.000249439 0.00157986 0.258178)
(-0.000176845 0.00143914 0.257982)
(-0.000564293 0.00153948 0.257833)
(-0.00029814 0.00159414 0.258001)
(-0.00082064 0.0017006 0.258304)
(5.29048e-05 0.00277917 0.258406)
(0.000912824 0.00165984 0.257046)
(0.000387682 0.00155708 0.256684)
(0.000642623 0.00149085 0.256412)
(0.0002267 0.00138767 0.256396)
(0.00026136 0.00152325 0.256581)
(5.23637e-05 0.00152921 0.256879)
(4.35731e-05 0.00162135 0.257114)
(-2.07238e-05 0.00159437 0.257173)
(-8.30037e-05 0.00163526 0.25717)
(-6.65201e-05 0.0015528 0.256973)
(-0.000253182 0.00154747 0.256677)
(-0.000178923 0.00141084 0.256476)
(-0.000563392 0.00150997 0.25634)
(-0.000292356 0.00156571 0.256542)
(-0.000804709 0.00166226 0.256923)
(5.3596e-05 0.00270743 0.257042)
(0.000899309 0.00162075 0.255616)
(0.000383061 0.0015275 0.255171)
(0.00064249 0.00146063 0.25487)
(0.000229065 0.00135899 0.254842)
(0.000264832 0.00149058 0.255031)
(5.27077e-05 0.00149594 0.255336)
(4.38817e-05 0.00158535 0.255577)
(-2.15558e-05 0.0015589 0.255637)
(-8.47423e-05 0.00159902 0.255636)
(-6.7738e-05 0.00151908 0.255434)
(-0.000256932 0.00151424 0.255132)
(-0.000180949 0.00138154 0.254926)
(-0.000562405 0.00147944 0.254802)
(-0.000286638 0.00153595 0.255033)
(-0.000790074 0.00162327 0.255494)
(5.42749e-05 0.00263586 0.255626)
(0.000886984 0.00158101 0.254139)
(0.000378435 0.00149667 0.253613)
(0.000642269 0.0014294 0.253288)
(0.000231306 0.00132932 0.25325)
(0.000268269 0.00145709 0.253443)
(5.29988e-05 0.00146189 0.253754)
(4.41757e-05 0.00154857 0.254)
(-2.23804e-05 0.00152265 0.254061)
(-8.64531e-05 0.00156199 0.254061)
(-6.89043e-05 0.00148455 0.253855)
(-0.000260684 0.00148018 0.253548)
(-0.000182915 0.00135125 0.253338)
(-0.000561362 0.00144789 0.253223)
(-0.000280924 0.00150494 0.253477)
(-0.000776657 0.00158362 0.254018)
(5.49398e-05 0.00256439 0.254161)
(0.000875795 0.00154066 0.252616)
(0.000373837 0.00146467 0.252014)
(0.000642009 0.00139718 0.251669)
(0.000233408 0.00129869 0.251624)
(0.000271671 0.00142279 0.251821)
(5.32346e-05 0.00142706 0.252136)
(4.44515e-05 0.00151103 0.252387)
(-2.31979e-05 0.00148565 0.252448)
(-8.81339e-05 0.0015242 0.252448)
(-7.00164e-05 0.00144925 0.252239)
(-0.00026444 0.00144532 0.251929)
(-0.000184804 0.00131999 0.251715)
(-0.00056031 0.00141536 0.251608)
(-0.000275249 0.00147276 0.25188)
(-0.0007644 0.00154336 0.252497)
(5.5589e-05 0.00249301 0.252647)
(0.000865661 0.00149972 0.251046)
(0.000369318 0.00143157 0.250376)
(0.000641754 0.001364 0.250017)
(0.000235359 0.0012671 0.249965)
(0.000275043 0.00138769 0.250166)
(5.34155e-05 0.00139148 0.250485)
(4.47087e-05 0.00147275 0.250739)
(-2.40105e-05 0.0014479 0.2508)
(-8.97857e-05 0.00148567 0.250802)
(-7.10747e-05 0.00141318 0.25059)
(-0.000268207 0.00140966 0.250277)
(-0.000186601 0.00128777 0.25006)
(-0.000559291 0.00138184 0.249958)
(-0.000269665 0.00143947 0.250245)
(-0.000753218 0.00150251 0.250928)
(5.62218e-05 0.00242175 0.251085)
(0.000856486 0.0014582 0.249428)
(0.000364922 0.00139741 0.248701)
(0.000641547 0.00132988 0.248332)
(0.000237154 0.00123455 0.248275)
(0.000278395 0.0013518 0.248479)
(5.35447e-05 0.00135513 0.248801)
(4.49488e-05 0.00143374 0.249059)
(-2.48204e-05 0.00140943 0.24912)
(-9.14125e-05 0.00144641 0.249123)
(-7.20818e-05 0.00137635 0.248908)
(-0.000271996 0.0013732 0.248592)
(-0.000188295 0.0012546 0.248372)
(-0.000558347 0.00134737 0.248275)
(-0.000264212 0.00140513 0.248572)
(-0.000743009 0.00146107 0.24931)
(5.6839e-05 0.00235054 0.249473)
(0.000848187 0.00141613 0.24776)
(0.000360668 0.00136224 0.24699)
(0.000641421 0.00129481 0.246614)
(0.00023879 0.00120106 0.246554)
(0.000281737 0.0013151 0.246761)
(5.36263e-05 0.00131802 0.247084)
(4.51756e-05 0.00139399 0.247345)
(-2.56303e-05 0.00137021 0.247406)
(-9.30204e-05 0.00140639 0.24741)
(-7.30417e-05 0.00133875 0.247193)
(-0.000275816 0.00133593 0.246875)
(-0.000189876 0.00122047 0.246652)
(-0.000557509 0.00131194 0.246558)
(-0.000258911 0.00136977 0.246862)
(-0.000733686 0.00141907 0.247643)
(5.74427e-05 0.00227931 0.247806)
(0.0008407 0.0013735 0.246047)
(0.000356557 0.00132605 0.245242)
(0.000641406 0.00125877 0.244862)
(0.000240268 0.00116658 0.2448)
(0.00028508 0.00127756 0.245009)
(5.36641e-05 0.00128011 0.245335)
(4.53934e-05 0.00135346 0.245598)
(-2.64422e-05 0.00133022 0.245658)
(-9.46168e-05 0.0013656 0.245663)
(-7.39586e-05 0.00130035 0.245445)
(-0.000279677 0.00129783 0.245125)
(-0.000191339 0.00118538 0.2449)
(-0.000556804 0.00127553 0.244807)
(-0.000253765 0.00133339 0.245115)
(-0.000725182 0.0013765 0.24593)
(5.80346e-05 0.00220804 0.246087)
(0.000833984 0.00133027 0.244288)
(0.000352584 0.00128882 0.243457)
(0.00064153 0.00122173 0.243076)
(0.000241588 0.00113109 0.243014)
(0.00028843 0.00123911 0.243225)
(5.36616e-05 0.00124134 0.243552)
(4.56068e-05 0.00131209 0.243817)
(-2.7258e-05 0.00128939 0.243877)
(-9.62092e-05 0.00132397 0.243883)
(-7.4835e-05 0.0012611 0.243664)
(-0.000283584 0.00125884 0.243342)
(-0.000192677 0.00114927 0.243115)
(-0.000556258 0.00123811 0.243022)
(-0.000248767 0.00129597 0.243331)
(-0.000717455 0.00133333 0.244172)
(5.86167e-05 0.00213664 0.244317)
(0.000828009 0.00128636 0.242486)
(0.000348739 0.00125048 0.241634)
(0.000641822 0.00118362 0.241256)
(0.00024275 0.00109451 0.241194)
(0.000291794 0.0011997 0.241407)
(5.36216e-05 0.00120164 0.241735)
(4.58193e-05 0.00126981 0.242001)
(-2.80789e-05 0.00124764 0.242061)
(-9.78045e-05 0.00128142 0.242068)
(-7.56743e-05 0.00122091 0.241848)
(-0.000287542 0.00121889 0.241525)
(-0.000193886 0.00111208 0.241295)
(-0.000555899 0.00119961 0.241202)
(-0.00024391 0.00125743 0.24151)
(-0.00071047 0.00128948 0.242371)
(5.91906e-05 0.002065 0.242497)
(0.000822747 0.00124166 0.240642)
(0.000345031 0.00121093 0.239775)
(0.00064231 0.00114435 0.239398)
(0.000243752 0.00105676 0.239336)
(0.00029518 0.00115922 0.239552)
(5.35469e-05 0.00116089 0.239881)
(4.60347e-05 0.0012265 0.240149)
(-2.89065e-05 0.00120487 0.240209)
(-9.94105e-05 0.00123784 0.240217)
(-7.64821e-05 0.00117969 0.239995)
(-0.000291553 0.00117786 0.239671)
(-0.000194961 0.00107371 0.239438)
(-0.000555752 0.00115994 0.239345)
(-0.000239203 0.00121769 0.239651)
(-0.0007042 0.00124483 0.240527)
(5.97575e-05 0.00199294 0.240631)
(0.000818159 0.00119605 0.238755)
(0.000341467 0.00117007 0.237878)
(0.000643011 0.00110378 0.2375)
(0.000244599 0.00101768 0.237438)
(0.000298599 0.0011175 0.237656)
(5.34396e-05 0.00111896 0.237986)
(4.62568e-05 0.00118203 0.238257)
(-2.97428e-05 0.00116094 0.238316)
(-0.000101037 0.0011931 0.238326)
(-7.72663e-05 0.00113727 0.238102)
(-0.000295624 0.00113561 0.237777)
(-0.000195902 0.00103404 0.237541)
(-0.000555836 0.00111896 0.237448)
(-0.000234658 0.00117663 0.237755)
(-0.000698605 0.00119927 0.238641)
(6.03182e-05 0.00192029 0.238721)
(0.000814182 0.00114937 0.236825)
(0.000338029 0.00112777 0.235941)
(0.000643932 0.00106178 0.23556)
(0.000245299 0.000977168 0.235497)
(0.000302053 0.00107443 0.235717)
(5.33012e-05 0.00107569 0.236048)
(4.64896e-05 0.00113624 0.236321)
(-3.05896e-05 0.00111568 0.23638)
(-0.000102692 0.00114702 0.236391)
(-7.80347e-05 0.00109353 0.236165)
(-0.000299756 0.00109201 0.235839)
(-0.00019671 0.000992923 0.235601)
(-0.000556158 0.00107654 0.235507)
(-0.00023026 0.00113413 0.235819)
(-0.000693622 0.00115262 0.236711)
(6.08737e-05 0.00184689 0.236767)
(0.00081074 0.00110144 0.234848)
(0.000334668 0.00108385 0.23396)
(0.000645072 0.00101822 0.233575)
(0.000245856 0.000935079 0.233513)
(0.000305546 0.00102985 0.233735)
(5.31329e-05 0.00103097 0.234067)
(4.67364e-05 0.001089 0.234342)
(-3.14477e-05 0.00106897 0.2344)
(-0.000104383 0.00109949 0.234413)
(-7.87912e-05 0.00104832 0.234185)
(-0.000303948 0.00104691 0.233858)
(-0.000197387 0.000950238 0.233617)
(-0.000556718 0.00103255 0.233523)
(-0.000225964 0.00109 0.233838)
(-0.000689178 0.00110471 0.234735)
(6.14247e-05 0.00177255 0.23477)
(0.000807769 0.00105208 0.232824)
(0.000331324 0.00103818 0.231933)
(0.00064643 0.000972959 0.231545)
(0.000246273 0.000891275 0.231485)
(0.000309073 0.000983637 0.231709)
(5.29361e-05 0.000984625 0.232042)
(4.70006e-05 0.00104016 0.232318)
(-3.23176e-05 0.00102066 0.232376)
(-0.000106113 0.00105036 0.23239)
(-7.95376e-05 0.0010015 0.23216)
(-0.000308193 0.00100017 0.231833)
(-0.000197931 0.000905837 0.23159)
(-0.000557519 0.000986855 0.231494)
(-0.000221719 0.00104412 0.231813)
(-0.000685214 0.00105537 0.232712)
(6.19716e-05 0.00169704 0.232724)
(0.000805217 0.00100116 0.230752)
(0.000327953 0.000990625 0.229861)
(0.000648007 0.000925862 0.229471)
(0.000246551 0.000845617 0.229413)
(0.000312633 0.00093563 0.22964)
(5.27119e-05 0.000936525 0.229972)
(4.72852e-05 0.00098957 0.230251)
(-3.31997e-05 0.000970602 0.230308)
(-0.000107887 0.000999478 0.230323)
(-8.02747e-05 0.000952925 0.230091)
(-0.000312483 0.000951638 0.229764)
(-0.00019834 0.000859584 0.229519)
(-0.000558565 0.000939305 0.229421)
(-0.000217486 0.000996352 0.229742)
(-0.00068168 0.00100446 0.230641)
(6.25144e-05 0.00162016 0.23063)
(0.000803029 0.000948528 0.228632)
(0.000324522 0.000941054 0.227743)
(0.000649806 0.000876797 0.227353)
(0.000246687 0.000797977 0.227298)
(0.000316216 0.000885699 0.227526)
(5.24614e-05 0.000886531 0.227859)
(4.7593e-05 0.000937102 0.228139)
(-3.40942e-05 0.000918663 0.228195)
(-0.000109707 0.000946711 0.228211)
(-8.10032e-05 0.000902455 0.227978)
(-0.000316805 0.000901187 0.227651)
(-0.000198607 0.000811351 0.227403)
(-0.00055986 0.000889777 0.227303)
(-0.000213239 0.00094656 0.227626)
(-0.000678526 0.000951823 0.228522)
(6.30527e-05 0.0015418 0.228486)
(0.000801148 0.000894044 0.226464)
(0.000320999 0.000889346 0.22558)
(0.000651828 0.000825647 0.22519)
(0.000246678 0.000748241 0.225138)
(0.000319813 0.000833726 0.225368)
(5.21849e-05 0.000834524 0.225701)
(4.79263e-05 0.000882637 0.225982)
(-3.50014e-05 0.000864724 0.226038)
(-0.000111577 0.00089194 0.226054)
(-8.17233e-05 0.00084997 0.225821)
(-0.000321146 0.000848696 0.225493)
(-0.000198725 0.000761024 0.225243)
(-0.00056141 0.000838156 0.22514)
(-0.000208951 0.000894624 0.225464)
(-0.000675698 0.000897326 0.226356)
(6.35857e-05 0.00146179 0.226292)
(0.000799514 0.000837594 0.224249)
(0.000317353 0.000835398 0.223371)
(0.000654073 0.000772316 0.222981)
(0.000246519 0.000696315 0.222935)
(0.00032341 0.000779608 0.223166)
(5.18822e-05 0.0007804 0.223498)
(4.82874e-05 0.000826071 0.223781)
(-3.59208e-05 0.000808685 0.223836)
(-0.0001135 0.000835065 0.223853)
(-8.24346e-05 0.00079537 0.223618)
(-0.000325486 0.000794064 0.223291)
(-0.000198687 0.00070851 0.223039)
(-0.000563214 0.000784345 0.222933)
(-0.000204595 0.000840442 0.223256)
(-0.000673142 0.000840853 0.224142)
(6.41125e-05 0.00138002 0.224049)
(0.000798065 0.000779084 0.221985)
(0.00031355 0.000779127 0.221115)
(0.000656539 0.000716725 0.220728)
(0.000246201 0.000642124 0.220687)
(0.00032699 0.000723267 0.22092)
(5.15528e-05 0.000724077 0.221252)
(4.86784e-05 0.000767324 0.221535)
(-3.68519e-05 0.000750464 0.221589)
(-0.000115478 0.000776006 0.221607)
(-8.31365e-05 0.000738571 0.221371)
(-0.000329807 0.000737209 0.221045)
(-0.000198484 0.000653735 0.22079)
(-0.000565272 0.000728268 0.22068)
(-0.000200144 0.000783933 0.221002)
(-0.000670799 0.00078231 0.221879)
(6.46318e-05 0.00129638 0.221756)
(0.000796735 0.000718446 0.219672)
(0.000309558 0.000720475 0.218814)
(0.00065922 0.00065882 0.218429)
(0.000245715 0.000585617 0.218394)
(0.00033053 0.000664644 0.218629)
(5.11959e-05 0.000665498 0.21896)
(4.91014e-05 0.000706339 0.219243)
(-3.77937e-05 0.000690007 0.219297)
(-0.000117512 0.000714706 0.219316)
(-8.38276e-05 0.000679516 0.219079)
(-0.000334083 0.000678075 0.218753)
(-0.000198104 0.000596653 0.218497)
(-0.000567581 0.000669873 0.218381)
(-0.00019557 0.000725038 0.218702)
(-0.000668608 0.000721629 0.219568)
(6.51423e-05 0.00121082 0.219412)
(0.000795455 0.000655638 0.21731)
(0.000305345 0.000659412 0.216466)
(0.000662109 0.000598577 0.216083)
(0.000245047 0.000526774 0.216056)
(0.000334004 0.000603714 0.216292)
(5.08104e-05 0.000604634 0.216622)
(4.95581e-05 0.00064309 0.216906)
(-3.87446e-05 0.000627287 0.216959)
(-0.000119603 0.000651139 0.216978)
(-8.45063e-05 0.000618175 0.216741)
(-0.000338285 0.000616635 0.216415)
(-0.000197535 0.000537241 0.216157)
(-0.000570136 0.000609134 0.216036)
(-0.000190845 0.000663728 0.216356)
(-0.000666503 0.000658768 0.217208)
(6.56417e-05 0.0011233 0.217016)
(0.000794148 0.000590652 0.214897)
(0.000300878 0.000595941 0.21407)
(0.000665191 0.000536003 0.21369)
(0.000244183 0.00046561 0.213671)
(0.00033738 0.000540483 0.213909)
(5.03954e-05 0.000541488 0.214238)
(5.00503e-05 0.000577583 0.214522)
(-3.97025e-05 0.000562311 0.214574)
(-0.000121749 0.000585311 0.214593)
(-8.51701e-05 0.000554552 0.214355)
(-0.000342379 0.000552895 0.21403)
(-0.000196759 0.000475515 0.213771)
(-0.000572925 0.000546059 0.213643)
(-0.000185942 0.000600007 0.213961)
(-0.000664414 0.000593721 0.214797)
(6.61275e-05 0.00103382 0.214567)
(0.000792732 0.000523521 0.212432)
(0.000296124 0.000530103 0.211624)
(0.000668446 0.000471147 0.211248)
(0.000243103 0.00040218 0.211238)
(0.000340619 0.000474998 0.211477)
(4.99494e-05 0.000476105 0.211805)
(5.05797e-05 0.000509865 0.212088)
(-4.06647e-05 0.000495128 0.21214)
(-0.000123949 0.000517269 0.212159)
(-8.58162e-05 0.00048869 0.211921)
(-0.000346324 0.000486902 0.211596)
(-0.000195758 0.00041153 0.211336)
(-0.000575933 0.000480695 0.211201)
(-0.000180834 0.000533917 0.211517)
(-0.000662265 0.000526519 0.212333)
(6.65966e-05 0.000942447 0.212063)
(0.000791117 0.000454322 0.209912)
(0.000291046 0.000461986 0.209126)
(0.000671849 0.000404102 0.208754)
(0.000241786 0.000336584 0.208754)
(0.000343674 0.000407353 0.208993)
(4.9471e-05 0.000408577 0.209321)
(5.11474e-05 0.000440028 0.209603)
(-4.16278e-05 0.000425831 0.209655)
(-0.000126199 0.000447106 0.209674)
(-8.64407e-05 0.000420681 0.209435)
(-0.000350073 0.000418749 0.209111)
(-0.000194513 0.000345388 0.208849)
(-0.000579137 0.000413142 0.208707)
(-0.000175495 0.000465544 0.209021)
(-0.000659975 0.000457241 0.209815)
(6.70448e-05 0.000849281 0.209499)
(0.000789202 0.000383189 0.207333)
(0.000285609 0.000391731 0.206573)
(0.000675361 0.000335017 0.206204)
(0.000240204 0.000268982 0.206215)
(0.000346493 0.000337695 0.206455)
(4.89588e-05 0.000339049 0.206782)
(5.17543e-05 0.000368222 0.207063)
(-4.25871e-05 0.000354572 0.207114)
(-0.000128492 0.000374972 0.207133)
(-8.70388e-05 0.000350668 0.206895)
(-0.000353569 0.000348582 0.206571)
(-0.000193003 0.000277248 0.206308)
(-0.000582505 0.000343552 0.206158)
(-0.000169896 0.000395031 0.20647)
(-0.000657451 0.00038602 0.207238)
(6.7467e-05 0.000754495 0.206871)
(0.000786875 0.000310316 0.204691)
(0.000279775 0.000319543 0.20396)
(0.000678933 0.000264103 0.203594)
(0.000238329 0.000199595 0.203618)
(0.00034901 0.000266239 0.203858)
(4.84112e-05 0.00026773 0.204183)
(5.2401e-05 0.00029466 0.204463)
(-4.35368e-05 0.000281564 0.204514)
(-0.000130819 0.00030108 0.204532)
(-8.76041e-05 0.00027886 0.204294)
(-0.000356745 0.000276614 0.20397)
(-0.000191203 0.000207331 0.203707)