/*--------------------------------*- C++ -*----------------------------------*\
| =========                 |                                                 |
| \\      /  F ield         | OpenFOAM: The Open Source CFD Toolbox           |
|  \\    /   O peration     | Version:  v1912                                 |
|   \\  /    A nd           | Website:  www.openfoam.com                      |
|    \\/     M anipulation  |                                                 |
\*---------------------------------------------------------------------------*/
FoamFile
{
    version     2.0;
    format      ascii;
    class       volScalarField;
    location    "197.2";
    object      heatTransferCoeff(T);
}
// * * * * * * * * * * * * * * * * * * * * * * * * * * * * * * * * * * * * * //

dimensions      [1 0 -3 -1 0 0 0];


internalField   uniform 0;

boundaryField
{
    leftWall
    {
        type            calculated;
        value           nonuniform List<scalar> 
256
(
-25.7755
-468.518
-330.288
-345.497
-270.3
-324.248
-247.728
-319.792
-235.5
-316.219
-232.331
-305.599
-239.039
-272.41
-228.457
-55.6975
-392.442
-384.096
-358.373
-313.515
-315.328
-284.383
-300.029
-269.164
-297.115
-257.285
-300.623
-243.603
-307.231
-220.277
-299.634
-122.426
-313.544
-294.098
-358.2
-280.292
-327.116
-252.796
-314.842
-235.343
-313.585
-222.346
-315.666
-210.223
-315.218
-197.886
-292.19
-122.762
-280.954
-314.02
-351.653
-288.897
-320.397
-266.487
-306.89
-252.335
-303.656
-240.545
-303.68
-227.516
-301.53
-211.4
-276.006
-124.937
-284.902
-325.241
-350.921
-293.171
-317.5
-269.366
-303.743
-254.972
-300.987
-242.842
-301.983
-229.162
-301.26
-211.859
-277.454
-124.323
-283.439
-332.347
-353.199
-298.89
-319.68
-274.435
-305.635
-258.672
-302.58
-244.709
-303.59
-229.032
-302.286
-210.526
-275.986
-123.42
-283.923
-336.23
-353.155
-300.441
-319.111
-275.652
-305.184
-259.654
-302.266
-245.344
-303.438
-229.246
-302.174
-210.492
-275.676
-123.253
-284.365
-339.079
-354.1
-302.101
-319.704
-276.957
-305.595
-260.577
-302.555
-245.793
-303.687
-229.195
-302.182
-210.046
-275.091
-122.643
-284.584
-339.53
-354.015
-302.119
-319.439
-276.871
-305.347
-260.504
-302.389
-245.774
-303.592
-229.247
-302.187
-210.187
-275.262
-122.813
-284.224
-339.11
-354.117
-302.167
-319.713
-277.006
-305.605
-260.639
-302.589
-245.878
-303.744
-229.298
-302.267
-210.154
-275.196
-122.703
-283.731
-336.31
-353.176
-300.54
-319.116
-275.732
-305.179
-259.77
-302.293
-245.524
-303.508
-229.475
-302.306
-210.717
-275.881
-123.356
-283.241
-332.477
-353.244
-299.011
-319.688
-274.535
-305.644
-258.82
-302.628
-244.934
-303.69
-229.319
-302.466
-210.81
-276.26
-123.556
-284.704
-325.337
-350.904
-293.252
-317.46
-269.45
-303.739
-255.122
-301.01
-243.075
-302.044
-229.476
-301.398
-212.2
-277.712
-124.479
-280.786
-314.11
-351.58
-288.949
-320.359
-266.576
-306.921
-252.5
-303.703
-240.773
-303.74
-227.799
-301.654
-211.704
-276.231
-125.073
-313.423
-294.155
-358.138
-280.335
-327.115
-252.862
-314.907
-235.453
-313.672
-222.476
-315.768
-210.372
-315.354
-198.062
-292.36
-122.89
-392.538
-384.034
-358.434
-313.482
-315.402
-284.335
-300.188
-269.154
-297.318
-257.331
-300.831
-243.725
-307.42
-220.452
-299.834
-122.464
)
;
    }
    rightWall
    {
        type            calculated;
        value           nonuniform List<scalar> 
256
(
-355.341
-265.013
-253.384
-240.103
-255.913
-250.67
-267.57
-257.883
-275.273
-260.254
-281.298
-261.062
-288.863
-269.894
-301.553
-390.976
-347.841
-265.063
-248.7
-241.865
-251.786
-253.066
-263.241
-260.972
-270.464
-264.037
-275.818
-265.554
-282.475
-274.719
-291.923
-392.195
-348.719
-266.519
-244.988
-243.174
-247.619
-254.584
-259.245
-262.583
-266.635
-265.602
-272.263
-267.053
-279.172
-276.572
-288.426
-394.414
-346.406
-266.275
-244.349
-243.722
-247.459
-255.261
-259.235
-263.312
-266.61
-266.349
-272.104
-267.856
-278.633
-277.259
-286.653
-393.109
-346.699
-266.244
-243.423
-243.454
-246.284
-255.182
-258.051
-263.475
-265.405
-266.744
-270.855
-268.586
-277.223
-278.603
-284.943
-394.775
-346.654
-266.359
-244.255
-243.754
-247.145
-255.307
-258.786
-263.393
-266.053
-266.506
-271.465
-268.18
-277.85
-277.89
-285.724
-393.403
-347.174
-266.402
-245.004
-243.81
-247.974
-255.333
-259.592
-263.302
-266.833
-266.323
-272.241
-267.902
-278.655
-277.608
-286.759
-393.608
-347.189
-265.959
-244.962
-243.199
-247.935
-254.803
-259.716
-262.881
-267.091
-265.969
-272.596
-267.573
-279.07
-277.258
-287.208
-393.236
-347.296
-266.055
-245.137
-243.278
-248.073
-254.831
-259.773
-262.881
-267.087
-265.987
-272.538
-267.657
-278.965
-277.472
-287.108
-393.611
-347.177
-265.977
-244.992
-243.236
-247.961
-254.816
-259.721
-262.88
-267.095
-265.971
-272.606
-267.582
-279.086
-277.27
-287.222
-393.222
-347.165
-266.437
-245.058
-243.873
-248.017
-255.358
-259.597
-263.309
-266.835
-266.341
-272.26
-267.938
-278.69
-277.655
-286.793
-393.591
-346.653
-266.418
-244.336
-243.842
-247.207
-255.35
-258.805
-263.421
-266.072
-266.552
-271.507
-268.252
-277.909
-277.973
-285.782
-393.402
-346.707
-266.322
-243.513
-243.561
-246.352
-255.237
-258.087
-263.527
-265.449
-266.818
-270.918
-268.685
-277.301
-278.717
-285.014
-394.79
-346.398
-266.355
-244.4
-243.827
-247.49
-255.315
-259.248
-263.38
-266.639
-266.441
-272.145
-267.971
-278.681
-277.396
-286.679
-393.144
-348.698
-266.601
-244.993
-243.276
-247.605
-254.653
-259.225
-262.67
-266.624
-265.711
-272.253
-267.178
-279.156
-276.712
-288.381
-394.467
-347.801
-265.111
-248.656
-241.923
-251.73
-253.112
-263.182
-261.035
-270.409
-264.116
-275.759
-265.644
-282.408
-274.818
-291.836
-392.241
)
;
    }
    leftSides_periodic0
    {
        type            cyclic;
    }
    leftSides_periodic1
    {
        type            cyclic;
    }
    rightSides_periodic0
    {
        type            cyclic;
    }
    rightSides_periodic1
    {
        type            cyclic;
    }
    leftInOut_periodic0
    {
        type            cyclic;
    }
    leftInOut_periodic1
    {
        type            cyclic;
    }
    rightInOut_periodic0
    {
        type            cyclic;
    }
    rightInOut_periodic1
    {
        type            cyclic;
    }
}


// ************************************************************************* //
