/*--------------------------------*- C++ -*----------------------------------*\
| =========                 |                                                 |
| \\      /  F ield         | OpenFOAM: The Open Source CFD Toolbox           |
|  \\    /   O peration     | Version:  v1912                                 |
|   \\  /    A nd           | Website:  www.openfoam.com                      |
|    \\/     M anipulation  |                                                 |
\*---------------------------------------------------------------------------*/
FoamFile
{
    version     2.0;
    format      ascii;
    class       volScalarField;
    location    "197.2";
    object      pPrime2Mean;
}
// * * * * * * * * * * * * * * * * * * * * * * * * * * * * * * * * * * * * * //

dimensions      [2 -2 -4 0 0 0 0];


internalField   nonuniform List<scalar> 
40448
(
0.000169754
1173.47
1192.46
1246.78
1337.9
1373.42
1391.18
1399.86
1402.47
1400.23
1391.9
1374.27
1338.47
1246.78
1192.58
1174.53
0.00327873
1173.32
1192.4
1246.81
1337.9
1373.42
1391.18
1399.86
1402.47
1400.23
1391.9
1374.27
1338.47
1246.81
1192.53
1174.38
0.0158825
1173.14
1192.43
1246.88
1337.9
1373.42
1391.19
1399.86
1402.47
1400.23
1391.91
1374.28
1338.48
1246.88
1192.56
1174.21
0.0391579
1172.83
1192.51
1247.01
1337.92
1373.43
1391.19
1399.86
1402.47
1400.24
1391.91
1374.29
1338.49
1247.01
1192.64
1173.9
0.0782185
1172.35
1192.66
1247.21
1337.94
1373.45
1391.2
1399.87
1402.48
1400.24
1391.92
1374.3
1338.51
1247.21
1192.79
1173.42
0.128311
1171.68
1192.88
1247.47
1337.96
1373.47
1391.21
1399.87
1402.48
1400.24
1391.93
1374.32
1338.54
1247.47
1193.01
1172.75
0.200558
1170.82
1193.18
1247.8
1337.99
1373.49
1391.22
1399.88
1402.48
1400.25
1391.94
1374.35
1338.57
1247.8
1193.31
1171.89
0.305958
1169.75
1193.58
1248.21
1338.03
1373.52
1391.23
1399.88
1402.49
1400.25
1391.96
1374.38
1338.61
1248.21
1193.71
1170.82
0.468626
1168.43
1194.1
1248.72
1338.07
1373.56
1391.25
1399.89
1402.49
1400.26
1391.97
1374.42
1338.66
1248.72
1194.23
1169.51
0.73395
1166.83
1194.77
1249.33
1338.13
1373.61
1391.27
1399.89
1402.5
1400.27
1392
1374.47
1338.71
1249.34
1194.89
1167.91
1.17764
1164.89
1195.59
1250.07
1338.19
1373.67
1391.3
1399.9
1402.5
1400.28
1392.02
1374.53
1338.78
1250.08
1195.72
1165.98
1.92058
1162.61
1196.59
1250.94
1338.26
1373.73
1391.33
1399.91
1402.51
1400.29
1392.06
1374.6
1338.85
1250.96
1196.72
1163.7
3.13688
1160
1197.76
1251.94
1338.34
1373.81
1391.36
1399.93
1402.52
1400.3
1392.09
1374.68
1338.93
1251.96
1197.89
1161.1
5.04802
1157.05
1199.12
1253.06
1338.42
1373.89
1391.4
1399.94
1402.53
1400.31
1392.13
1374.77
1339.02
1253.09
1199.26
1158.15
7.89019
1153.74
1200.69
1254.31
1338.52
1373.99
1391.45
1399.95
1402.54
1400.33
1392.18
1374.86
1339.12
1254.34
1200.82
1154.85
11.8872
1150.05
1202.45
1255.68
1338.63
1374.09
1391.49
1399.97
1402.55
1400.34
1392.23
1374.97
1339.23
1255.72
1202.59
1151.16
17.284
1145.94
1204.43
1257.18
1338.75
1374.21
1391.55
1399.99
1402.56
1400.36
1392.28
1375.09
1339.36
1257.22
1204.58
1147.07
24.4182
1141.39
1206.63
1258.81
1338.87
1374.33
1391.6
1400.01
1402.58
1400.38
1392.34
1375.22
1339.49
1258.86
1206.78
1142.52
33.7692
1136.35
1209.04
1260.58
1339.02
1374.47
1391.66
1400.03
1402.59
1400.4
1392.41
1375.36
1339.64
1260.64
1209.19
1137.49
45.9944
1130.78
1211.68
1262.5
1339.17
1374.61
1391.73
1400.05
1402.61
1400.43
1392.47
1375.51
1339.8
1262.56
1211.84
1131.92
61.9311
1124.6
1214.54
1264.58
1339.34
1374.77
1391.8
1400.08
1402.63
1400.45
1392.55
1375.68
1339.97
1264.65
1214.7
1125.76
82.5277
1117.78
1217.62
1266.83
1339.53
1374.94
1391.88
1400.1
1402.65
1400.48
1392.63
1375.85
1340.17
1266.91
1217.79
1118.94
108.718
1110.24
1220.93
1269.24
1339.74
1375.13
1391.96
1400.13
1402.67
1400.51
1392.72
1376.04
1340.38
1269.33
1221.11
1111.41
141.328
1101.95
1224.46
1271.81
1339.96
1375.32
1392.05
1400.17
1402.69
1400.54
1392.81
1376.24
1340.61
1271.91
1224.64
1103.13
181.038
1092.89
1228.2
1274.52
1340.21
1375.52
1392.15
1400.2
1402.72
1400.58
1392.91
1376.46
1340.87
1274.63
1228.39
1094.08
228.403
1083.14
1232.15
1277.36
1340.47
1375.74
1392.25
1400.23
1402.74
1400.62
1393.02
1376.68
1341.14
1277.49
1232.35
1084.34
283.848
1072.78
1236.3
1280.32
1340.76
1375.96
1392.35
1400.27
1402.77
1400.65
1393.12
1376.9
1341.44
1280.46
1236.51
1073.98
347.677
1061.87
1240.64
1283.38
1341.07
1376.18
1392.46
1400.31
1402.79
1400.69
1393.24
1377.14
1341.76
1283.54
1240.85
1063.07
420.056
1050.43
1245.15
1286.53
1341.41
1376.41
1392.56
1400.35
1402.82
1400.74
1393.35
1377.37
1342.11
1286.7
1245.37
1051.62
500.952
1038.48
1249.82
1289.75
1341.77
1376.64
1392.68
1400.39
1402.85
1400.78
1393.47
1377.61
1342.48
1289.93
1250.04
1039.67
590.081
1026.08
1254.61
1293.04
1342.17
1376.87
1392.79
1400.43
1402.88
1400.82
1393.59
1377.86
1342.89
1293.24
1254.84
1027.25
686.954
1013.26
1259.5
1296.4
1342.59
1377.11
1392.91
1400.48
1402.91
1400.87
1393.71
1378.1
1343.32
1296.61
1259.73
1014.42
791.076
1000.13
1264.44
1299.82
1343.05
1377.35
1393.03
1400.52
1402.94
1400.91
1393.84
1378.35
1343.79
1300.05
1264.67
1001.27
902.413
986.78
1269.42
1303.3
1343.54
1377.59
1393.16
1400.57
1402.97
1400.96
1393.97
1378.61
1344.3
1303.55
1269.65
987.912
1021.87
973.365
1274.41
1306.84
1344.07
1377.84
1393.29
1400.62
1403.01
1401.01
1394.11
1378.86
1344.85
1307.11
1274.64
974.48
1151.07
960.055
1279.35
1310.45
1344.65
1378.09
1393.42
1400.67
1403.04
1401.07
1394.25
1379.13
1345.44
1310.74
1279.58
961.153
1290.88
947.064
1284.2
1314.13
1345.27
1378.35
1393.56
1400.73
1403.08
1401.13
1394.4
1379.4
1346.08
1314.43
1284.43
948.148
1439.45
934.663
1288.88
1317.88
1345.95
1378.62
1393.71
1400.79
1403.12
1401.19
1394.56
1379.68
1346.77
1318.21
1289.12
935.739
1591.95
923.178
1293.3
1321.73
1346.68
1378.89
1393.87
1400.85
1403.16
1401.25
1394.73
1379.98
1347.52
1322.07
1293.54
924.248
1742.55
912.944
1297.36
1325.68
1347.48
1379.19
1394.04
1400.92
1403.21
1401.32
1394.9
1380.28
1348.34
1326.05
1297.6
914.011
1886.84
904.258
1301
1329.77
1348.35
1379.49
1394.22
1400.99
1403.26
1401.4
1395.09
1380.61
1349.23
1330.16
1301.25
905.324
2022.21
897.375
1304.17
1333.97
1349.3
1379.81
1394.4
1401.07
1403.31
1401.48
1395.29
1380.95
1350.21
1334.4
1304.42
898.441
2147.03
892.519
1306.82
1338.27
1350.33
1380.15
1394.6
1401.15
1403.37
1401.56
1395.5
1381.3
1351.26
1338.72
1307.08
893.587
2260.07
889.883
1308.92
1342.63
1351.43
1380.49
1394.81
1401.24
1403.43
1401.66
1395.72
1381.66
1352.39
1343.11
1309.2
890.953
2360.38
889.631
1310.47
1347.04
1352.62
1380.85
1395.02
1401.33
1403.49
1401.75
1395.95
1382.04
1353.6
1347.55
1310.76
890.703
2447.37
891.9
1311.44
1351.49
1353.88
1381.21
1395.25
1401.43
1403.56
1401.85
1396.18
1382.43
1354.9
1352.03
1311.75
892.974
2520.75
896.798
1311.85
1355.95
1355.24
1381.59
1395.47
1401.53
1403.63
1401.96
1396.42
1382.83
1356.28
1356.54
1312.18
897.873
2580.51
904.403
1311.72
1360.42
1356.68
1381.97
1395.71
1401.64
1403.7
1402.07
1396.67
1383.24
1357.76
1361.03
1312.07
905.475
2626.9
914.752
1311.09
1364.85
1358.21
1382.37
1395.95
1401.75
1403.77
1402.18
1396.93
1383.66
1359.33
1365.5
1311.46
915.821
2660.42
927.851
1309.99
1369.22
1359.83
1382.77
1396.19
1401.87
1403.85
1402.3
1397.19
1384.1
1360.99
1369.91
1310.39
928.915
2681.73
943.664
1308.5
1373.49
1361.54
1383.19
1396.44
1401.99
1403.93
1402.43
1397.45
1384.54
1362.74
1374.22
1308.92
944.72
2691.64
962.121
1306.66
1377.63
1363.34
1383.61
1396.69
1402.11
1404.01
1402.55
1397.72
1385
1364.58
1378.4
1307.11
963.166
2691.02
983.113
1304.57
1381.6
1365.22
1384.04
1396.93
1402.24
1404.1
1402.68
1397.99
1385.46
1366.51
1382.41
1305.04
984.146
2680.81
1006.5
1302.28
1385.37
1367.18
1384.48
1397.18
1402.37
1404.18
1402.82
1398.25
1385.94
1368.51
1386.22
1302.79
1007.51
2661.94
1032.1
1299.9
1388.91
1369.21
1384.94
1397.42
1402.5
1404.27
1402.95
1398.51
1386.43
1370.59
1389.79
1300.45
1033.09
2635.41
1059.7
1297.51
1392.18
1371.3
1385.4
1397.66
1402.64
1404.36
1403.09
1398.77
1386.93
1372.74
1393.1
1298.09
1060.67
2602.25
1089.06
1295.2
1395.15
1373.45
1385.87
1397.89
1402.77
1404.45
1403.23
1399.02
1387.44
1374.94
1396.12
1295.82
1090.01
2563.46
1119.91
1293.05
1397.82
1375.64
1386.35
1398.12
1402.91
1404.54
1403.37
1399.27
1387.97
1377.19
1398.82
1293.71
1120.83
2519.89
1151.94
1291.16
1400.15
1377.87
1386.85
1398.33
1403.05
1404.63
1403.51
1399.5
1388.51
1379.47
1401.2
1291.86
1152.83
2472.28
1184.82
1289.61
1402.14
1380.11
1387.35
1398.54
1403.18
1404.72
1403.65
1399.73
1389.06
1381.78
1403.22
1290.35
1185.68
2421.3
1218.21
1288.45
1403.77
1382.36
1387.87
1398.73
1403.31
1404.81
1403.79
1399.95
1389.63
1384.1
1404.9
1289.24
1219.03
2367.8
1251.76
1287.76
1405.05
1384.61
1388.41
1398.91
1403.45
1404.9
1403.92
1400.15
1390.21
1386.41
1406.22
1288.59
1252.54
2312.72
1285.11
1287.57
1405.98
1386.83
1388.95
1399.08
1403.57
1404.99
1404.05
1400.35
1390.81
1388.7
1407.2
1288.46
1285.85
2257.04
1317.88
1287.94
1406.58
1389.02
1389.51
1399.24
1403.7
1405.07
1404.18
1400.53
1391.43
1390.96
1407.84
1288.88
1318.58
2201.58
1349.74
1288.9
1406.86
1391.15
1390.09
1399.39
1403.82
1405.16
1404.3
1400.69
1392.06
1393.17
1408.16
1289.89
1350.39
2147.03
1380.34
1290.47
1406.84
1393.21
1390.68
1399.52
1403.93
1405.24
1404.42
1400.85
1392.7
1395.3
1408.18
1291.5
1380.96
2093.99
1409.38
1292.64
1406.54
1395.19
1391.27
1399.64
1404.04
1405.32
1404.53
1400.99
1393.36
1397.36
1407.93
1293.72
1409.96
2042.98
1436.59
1295.42
1406
1397.07
1391.88
1399.75
1404.14
1405.4
1404.64
1401.12
1394.03
1399.32
1407.44
1296.55
1437.13
1994.45
1461.74
1298.78
1405.25
1398.84
1392.49
1399.85
1404.24
1405.47
1404.73
1401.24
1394.71
1401.17
1406.73
1299.96
1462.25
1948.73
1484.65
1302.7
1404.31
1400.5
1393.11
1399.93
1404.32
1405.54
1404.82
1401.35
1395.39
1402.91
1405.85
1303.93
1485.12
1906.08
1505.18
1307.11
1403.22
1402.02
1393.73
1400.01
1404.4
1405.6
1404.9
1401.44
1396.08
1404.53
1404.82
1308.39
1505.62
1866.66
1523.25
1311.97
1402.03
1403.42
1394.34
1400.08
1404.47
1405.66
1404.97
1401.53
1396.77
1406.01
1403.69
1313.3
1523.66
1830.54
1538.84
1317.2
1400.75
1404.67
1394.94
1400.14
1404.53
1405.72
1405.04
1401.61
1397.45
1407.36
1402.47
1318.58
1539.24
1797.73
1551.99
1322.72
1399.44
1405.78
1395.52
1400.19
1404.58
1405.77
1405.09
1401.67
1398.12
1408.57
1401.22
1324.15
1552.35
1768.2
1562.75
1328.45
1398.11
1406.76
1396.09
1400.24
1404.62
1405.81
1405.13
1401.74
1398.77
1409.64
1399.96
1329.92
1563.1
1741.87
1571.26
1334.31
1396.83
1407.6
1396.65
1400.29
1404.66
1405.85
1405.17
1401.8
1399.41
1410.57
1398.73
1335.83
1571.59
1718.62
1577.67
1340.22
1395.61
1408.35
1397.21
1400.34
1404.7
1405.9
1405.21
1401.86
1400.03
1411.39
1397.57
1341.77
1577.98
1698.34
1582.19
1346.1
1394.5
1409.01
1397.78
1400.4
1404.75
1405.95
1405.25
1401.94
1400.63
1412.08
1396.5
1347.65
1582.49
1680.8
1585.07
1351.86
1393.53
1409.62
1398.36
1400.48
1404.81
1406.01
1405.31
1402.03
1401.23
1412.68
1395.54
1353.41
1585.35
4347.08
1453.22
1512.34
1535.9
1468.54
1439.73
1433.78
1435.1
1435.77
1435.13
1433.62
1439.15
1467.09
1533.9
1510.76
1452.35
4344.99
1453.52
1512.35
1535.88
1468.54
1439.73
1433.78
1435.1
1435.77
1435.13
1433.62
1439.15
1467.08
1533.88
1510.77
1452.66
4342.39
1453.95
1512.25
1535.83
1468.53
1439.72
1433.78
1435.1
1435.77
1435.12
1433.62
1439.14
1467.08
1533.83
1510.68
1453.08
4338.46
1454.64
1512.06
1535.74
1468.52
1439.71
1433.78
1435.1
1435.77
1435.12
1433.61
1439.13
1467.07
1533.73
1510.48
1453.77
4332.96
1455.63
1511.75
1535.59
1468.5
1439.69
1433.77
1435.1
1435.77
1435.12
1433.61
1439.11
1467.05
1533.59
1510.17
1454.76
4325.61
1456.93
1511.33
1535.4
1468.48
1439.67
1433.76
1435.1
1435.76
1435.12
1433.6
1439.09
1467.03
1533.39
1509.75
1456.05
4315.77
1458.56
1510.77
1535.15
1468.46
1439.64
1433.75
1435.09
1435.76
1435.12
1433.59
1439.06
1467.01
1533.14
1509.19
1457.68
4302.16
1460.58
1510.06
1534.84
1468.43
1439.61
1433.74
1435.09
1435.76
1435.11
1433.58
1439.03
1466.98
1532.83
1508.48
1459.69
4282.99
1463.06
1509.17
1534.44
1468.4
1439.57
1433.73
1435.08
1435.75
1435.11
1433.57
1438.99
1466.95
1532.44
1507.59
1462.18
4256.07
1466.14
1508.05
1533.95
1468.35
1439.51
1433.71
1435.08
1435.75
1435.1
1433.55
1438.94
1466.91
1531.95
1506.47
1465.25
4219.23
1469.95
1506.66
1533.35
1468.31
1439.45
1433.69
1435.07
1435.74
1435.09
1433.54
1438.88
1466.87
1531.34
1505.08
1469.04
4170.66
1474.59
1504.96
1532.6
1468.25
1439.38
1433.66
1435.06
1435.73
1435.09
1433.51
1438.81
1466.81
1530.59
1503.38
1473.67
4109.21
1480.16
1502.92
1531.7
1468.18
1439.28
1433.63
1435.05
1435.73
1435.08
1433.49
1438.72
1466.75
1529.69
1501.33
1479.22
4034.49
1486.69
1500.51
1530.64
1468.11
1439.18
1433.6
1435.04
1435.72
1435.06
1433.46
1438.62
1466.68
1528.63
1498.92
1485.73
3946.83
1494.15
1497.75
1529.42
1468.03
1439.06
1433.56
1435.02
1435.7
1435.05
1433.42
1438.5
1466.61
1527.4
1496.15
1493.17
3847.15
1502.47
1494.66
1528.03
1467.94
1438.93
1433.52
1435
1435.69
1435.04
1433.38
1438.37
1466.52
1526.01
1493.05
1501.45
3736.79
1511.53
1491.26
1526.48
1467.83
1438.78
1433.47
1434.99
1435.68
1435.02
1433.34
1438.23
1466.43
1524.45
1489.64
1510.48
3617.33
1521.26
1487.6
1524.77
1467.72
1438.62
1433.42
1434.97
1435.66
1435
1433.3
1438.08
1466.32
1522.74
1485.96
1520.17
3490.54
1531.57
1483.68
1522.91
1467.6
1438.45
1433.36
1434.95
1435.65
1434.98
1433.25
1437.91
1466.21
1520.88
1482.02
1530.46
3358.19
1542.42
1479.53
1520.93
1467.47
1438.27
1433.3
1434.92
1435.63
1434.96
1433.19
1437.74
1466.09
1518.9
1477.86
1541.27
3222.14
1553.72
1475.18
1518.84
1467.33
1438.09
1433.24
1434.9
1435.62
1434.94
1433.14
1437.56
1465.96
1516.8
1473.49
1552.55
3084.14
1565.42
1470.65
1516.63
1467.18
1437.9
1433.17
1434.88
1435.6
1434.92
1433.08
1437.38
1465.82
1514.59
1468.94
1564.23
2945.65
1577.43
1465.98
1514.31
1467.02
1437.71
1433.11
1434.85
1435.59
1434.9
1433.02
1437.19
1465.66
1512.26
1464.25
1576.23
2807.78
1589.67
1461.19
1511.87
1466.84
1437.51
1433.04
1434.83
1435.57
1434.88
1432.96
1437
1465.49
1509.81
1459.44
1588.45
2671.31
1602.01
1456.32
1509.3
1466.64
1437.31
1432.96
1434.8
1435.56
1434.85
1432.9
1436.8
1465.31
1507.24
1454.56
1600.78
2536.92
1614.33
1451.41
1506.61
1466.43
1437.1
1432.89
1434.78
1435.54
1434.83
1432.83
1436.61
1465.11
1504.55
1449.62
1613.1
2405.31
1626.53
1446.47
1503.8
1466.2
1436.89
1432.81
1434.75
1435.53
1434.81
1432.76
1436.4
1464.89
1501.74
1444.67
1625.29
2277.17
1638.47
1441.56
1500.86
1465.95
1436.68
1432.72
1434.73
1435.51
1434.78
1432.69
1436.2
1464.65
1498.79
1439.73
1637.24
2153.11
1650.04
1436.7
1497.79
1465.67
1436.46
1432.64
1434.7
1435.49
1434.76
1432.61
1435.99
1464.38
1495.72
1434.85
1648.82
2033.72
1661.1
1431.93
1494.6
1465.37
1436.24
1432.55
1434.67
1435.48
1434.73
1432.53
1435.79
1464.09
1492.51
1430.07
1659.89
1919.47
1671.51
1427.31
1491.28
1465.04
1436.03
1432.46
1434.64
1435.46
1434.71
1432.45
1435.58
1463.77
1489.19
1425.43
1670.32
1810.81
1681.14
1422.87
1487.85
1464.68
1435.81
1432.36
1434.61
1435.45
1434.68
1432.37
1435.38
1463.42
1485.76
1420.97
1679.97
1708.16
1689.84
1418.67
1484.34
1464.29
1435.6
1432.26
1434.58
1435.43
1434.66
1432.28
1435.18
1463.05
1482.25
1416.75
1688.69
1611.96
1697.46
1414.74
1480.75
1463.86
1435.4
1432.17
1434.55
1435.42
1434.63
1432.2
1434.99
1462.64
1478.65
1412.81
1696.33
1522.63
1703.86
1411.15
1477.1
1463.41
1435.2
1432.07
1434.52
1435.41
1434.61
1432.11
1434.8
1462.19
1475
1409.2
1702.76
1440.48
1708.9
1407.94
1473.4
1462.91
1435.01
1431.97
1434.49
1435.4
1434.58
1432.03
1434.63
1461.71
1471.3
1405.97
1707.82
1365.74
1712.44
1405.14
1469.66
1462.38
1434.83
1431.87
1434.46
1435.39
1434.56
1431.94
1434.46
1461.19
1467.56
1403.15
1711.38
1298.51
1714.37
1402.8
1465.87
1461.81
1434.65
1431.77
1434.44
1435.37
1434.53
1431.85
1434.29
1460.63
1463.77
1400.78
1713.32
1238.79
1714.57
1400.92
1462.05
1461.19
1434.47
1431.67
1434.41
1435.36
1434.51
1431.77
1434.14
1460.02
1459.95
1398.89
1713.54
1186.46
1712.97
1399.55
1458.19
1460.52
1434.31
1431.57
1434.38
1435.36
1434.49
1431.68
1433.99
1459.37
1456.09
1397.48
1711.94
1141.32
1709.5
1398.66
1454.3
1459.8
1434.15
1431.46
1434.34
1435.35
1434.46
1431.59
1433.84
1458.66
1452.2
1396.57
1708.48
1103.02
1704.16
1398.26
1450.39
1459.03
1433.99
1431.36
1434.31
1435.34
1434.43
1431.49
1433.7
1457.9
1448.29
1396.15
1703.13
1071.16
1696.97
1398.34
1446.46
1458.19
1433.83
1431.25
1434.28
1435.33
1434.4
1431.4
1433.57
1457.08
1444.36
1396.19
1695.94
1045.25
1688.01
1398.85
1442.53
1457.29
1433.68
1431.13
1434.24
1435.32
1434.37
1431.3
1433.44
1456.19
1440.44
1396.67
1686.96
1024.8
1677.38
1399.78
1438.63
1456.32
1433.54
1431.01
1434.2
1435.31
1434.34
1431.21
1433.32
1455.24
1436.54
1397.57
1676.32
1009.28
1665.22
1401.07
1434.78
1455.28
1433.4
1430.9
1434.16
1435.29
1434.31
1431.11
1433.2
1454.22
1432.68
1398.82
1664.13
998.208
1651.67
1402.67
1430.98
1454.17
1433.26
1430.77
1434.11
1435.28
1434.27
1431.01
1433.09
1453.13
1428.89
1400.38
1650.56
991.067
1636.92
1404.52
1427.27
1452.98
1433.12
1430.65
1434.07
1435.27
1434.24
1430.91
1432.98
1451.96
1425.18
1402.19
1635.78
987.386
1621.14
1406.55
1423.64
1451.72
1432.99
1430.54
1434.02
1435.26
1434.2
1430.81
1432.88
1450.72
1421.56
1404.19
1619.97
986.71
1604.53
1408.7
1420.13
1450.38
1432.86
1430.42
1433.97
1435.24
1434.16
1430.72
1432.79
1449.4
1418.05
1406.3
1603.33
988.616
1587.3
1410.9
1416.76
1448.98
1432.74
1430.31
1433.92
1435.23
1434.12
1430.63
1432.7
1448.02
1414.67
1408.45
1586.05
992.708
1569.63
1413.09
1413.56
1447.52
1432.62
1430.2
1433.87
1435.22
1434.08
1430.55
1432.61
1446.58
1411.48
1410.6
1568.33
998.625
1551.72
1415.21
1410.57
1446.01
1432.5
1430.09
1433.82
1435.2
1434.03
1430.47
1432.53
1445.09
1408.5
1412.67
1550.37
1006.04
1533.75
1417.22
1407.84
1444.46
1432.38
1430
1433.76
1435.19
1433.99
1430.4
1432.45
1443.57
1405.76
1414.63
1532.35
1014.66
1515.9
1419.06
1405.36
1442.88
1432.26
1429.91
1433.71
1435.17
1433.95
1430.34
1432.37
1442.01
1403.29
1416.43
1514.44
1024.23
1498.31
1420.7
1403.15
1441.26
1432.14
1429.83
1433.66
1435.16
1433.91
1430.29
1432.29
1440.42
1401.08
1418.01
1496.8
1034.52
1481.14
1422.08
1401.21
1439.63
1432.02
1429.76
1433.61
1435.15
1433.87
1430.25
1432.2
1438.81
1399.13
1419.34
1479.57
1045.35
1464.52
1423.15
1399.54
1437.99
1431.89
1429.69
1433.56
1435.13
1433.83
1430.22
1432.12
1437.19
1397.46
1420.35
1462.88
1056.56
1448.56
1423.86
1398.13
1436.34
1431.75
1429.64
1433.51
1435.12
1433.8
1430.2
1432.03
1435.58
1396.05
1421.01
1446.85
1067.99
1433.34
1424.19
1396.98
1434.7
1431.6
1429.6
1433.46
1435.1
1433.76
1430.19
1431.93
1433.97
1394.89
1421.29
1431.57
1079.53
1418.96
1424.15
1396.07
1433.08
1431.45
1429.57
1433.42
1435.09
1433.73
1430.2
1431.82
1432.38
1393.97
1421.19
1417.12
1091.07
1405.48
1423.73
1395.39
1431.5
1431.29
1429.55
1433.38
1435.08
1433.71
1430.22
1431.71
1430.83
1393.29
1420.71
1403.55
1102.55
1392.92
1422.95
1394.93
1429.95
1431.11
1429.54
1433.34
1435.06
1433.68
1430.24
1431.59
1429.32
1392.82
1419.87
1390.93
1113.89
1381.33
1421.82
1394.66
1428.45
1430.93
1429.55
1433.31
1435.05
1433.67
1430.28
1431.46
1427.85
1392.54
1418.69
1379.26
1125.03
1370.72
1420.39
1394.57
1427.01
1430.73
1429.56
1433.28
1435.04
1433.65
1430.33
1431.32
1426.45
1392.44
1417.2
1368.56
1135.92
1361.08
1418.68
1394.63
1425.64
1430.52
1429.58
1433.26
1435.03
1433.64
1430.4
1431.17
1425.12
1392.49
1415.43
1358.84
1146.51
1352.41
1416.73
1394.83
1424.34
1430.31
1429.61
1433.24
1435.01
1433.64
1430.47
1431.01
1423.87
1392.66
1413.41
1350.07
1156.77
1344.68
1414.57
1395.13
1423.13
1430.08
1429.65
1433.22
1435
1433.64
1430.55
1430.85
1422.7
1392.95
1411.2
1342.25
1166.66
1337.86
1412.27
1395.53
1422
1429.84
1429.69
1433.21
1435
1433.64
1430.64
1430.68
1421.62
1393.32
1408.83
1335.33
1176.16
1331.92
1409.85
1395.99
1420.96
1429.6
1429.74
1433.21
1434.99
1433.66
1430.73
1430.51
1420.63
1393.76
1406.35
1329.29
1185.27
1326.82
1407.37
1396.5
1420.02
1429.35
1429.8
1433.21
1434.98
1433.67
1430.84
1430.34
1419.74
1394.24
1403.8
1324.08
1193.96
1322.51
1404.86
1397.05
1419.17
1429.1
1429.86
1433.21
1434.97
1433.7
1430.95
1430.16
1418.95
1394.76
1401.22
1319.65
1202.24
1318.95
1402.37
1397.62
1418.42
1428.85
1429.93
1433.23
1434.96
1433.73
1431.06
1429.99
1418.26
1395.29
1398.65
1315.96
1210.1
1316.08
1399.94
1398.19
1417.76
1428.59
1430
1433.24
1434.96
1433.76
1431.19
1429.83
1417.66
1395.82
1396.14
1312.95
1217.54
1313.85
1397.6
1398.75
1417.2
1428.34
1430.07
1433.27
1434.96
1433.81
1431.31
1429.67
1417.16
1396.36
1393.73
1310.59
1224.58
1312.23
1395.39
1399.31
1416.75
1428.12
1430.16
1433.3
1434.96
1433.86
1431.44
1429.53
1416.76
1396.88
1391.45
1308.83
1231.2
1311.15
1393.34
1399.85
1416.41
1427.94
1430.26
1433.36
1434.98
1433.92
1431.59
1429.41
1416.46
1397.4
1389.35
1307.65
1237.4
1310.57
1391.48
1400.37
1416.19
1427.81
1430.39
1433.43
1435.02
1434
1431.74
1429.32
1416.27
1397.93
1387.48
1307
1243.19
1310.42
1389.82
1400.88
1416.09
1427.76
1430.56
1433.54
1435.09
1434.1
1431.92
1429.27
1416.17
1398.46
1385.84
1306.85
727.776
1383.92
1421.91
1438.87
1477.55
1487.93
1490.36
1491.5
1491.22
1489.78
1486.89
1482.52
1470.98
1431.1
1415.27
1378.2
728.018
1383.9
1421.89
1438.88
1477.55
1487.93
1490.36
1491.5
1491.22
1489.78
1486.89
1482.52
1470.98
1431.11
1415.26
1378.18
728.303
1383.91
1421.91
1438.91
1477.55
1487.93
1490.37
1491.5
1491.22
1489.78
1486.89
1482.52
1470.98
1431.14
1415.27
1378.19
728.741
1383.91
1421.94
1438.96
1477.56
1487.94
1490.37
1491.5
1491.22
1489.78
1486.9
1482.53
1470.99
1431.19
1415.31
1378.19
729.354
1383.91
1422.01
1439.03
1477.57
1487.94
1490.37
1491.5
1491.22
1489.78
1486.9
1482.53
1471
1431.26
1415.37
1378.18
730.168
1383.89
1422.1
1439.13
1477.59
1487.95
1490.37
1491.5
1491.22
1489.78
1486.9
1482.54
1471.02
1431.36
1415.46
1378.17
731.215
1383.85
1422.22
1439.26
1477.61
1487.96
1490.38
1491.5
1491.22
1489.78
1486.91
1482.55
1471.04
1431.49
1415.58
1378.13
732.554
1383.79
1422.38
1439.41
1477.63
1487.97
1490.38
1491.5
1491.22
1489.78
1486.91
1482.56
1471.06
1431.65
1415.73
1378.06
734.285
1383.69
1422.58
1439.6
1477.66
1487.98
1490.39
1491.5
1491.21
1489.78
1486.92
1482.57
1471.08
1431.84
1415.93
1377.96
736.56
1383.53
1422.83
1439.83
1477.7
1488
1490.4
1491.5
1491.21
1489.78
1486.92
1482.59
1471.11
1432.08
1416.17
1377.8
739.574
1383.28
1423.14
1440.12
1477.73
1488.02
1490.4
1491.5
1491.21
1489.78
1486.93
1482.61
1471.15
1432.37
1416.47
1377.55
743.555
1382.91
1423.52
1440.46
1477.78
1488.04
1490.41
1491.5
1491.21
1489.78
1486.94
1482.64
1471.19
1432.71
1416.84
1377.18
748.74
1382.38
1423.98
1440.87
1477.83
1488.07
1490.43
1491.49
1491.21
1489.78
1486.95
1482.67
1471.23
1433.13
1417.29
1376.66
755.366
1381.67
1424.54
1441.36
1477.89
1488.1
1490.44
1491.49
1491.2
1489.78
1486.97
1482.7
1471.28
1433.63
1417.83
1375.95
763.655
1380.75
1425.19
1441.93
1477.95
1488.14
1490.46
1491.49
1491.2
1489.78
1486.98
1482.74
1471.34
1434.21
1418.47
1375.03
773.799
1379.59
1425.95
1442.58
1478.02
1488.19
1490.48
1491.49
1491.2
1489.77
1487
1482.79
1471.4
1434.88
1419.21
1373.88
785.958
1378.19
1426.81
1443.33
1478.1
1488.24
1490.5
1491.49
1491.19
1489.77
1487.02
1482.85
1471.46
1435.64
1420.05
1372.49
800.256
1376.56
1427.78
1444.17
1478.18
1488.3
1490.52
1491.48
1491.18
1489.77
1487.05
1482.91
1471.53
1436.5
1420.99
1370.87
816.773
1374.7
1428.85
1445.1
1478.27
1488.36
1490.55
1491.48
1491.18
1489.77
1487.07
1482.97
1471.61
1437.45
1422.04
1369.02
835.556
1372.64
1430.01
1446.12
1478.37
1488.43
1490.58
1491.47
1491.17
1489.76
1487.1
1483.05
1471.7
1438.49
1423.17
1366.98
856.619
1370.4
1431.27
1447.22
1478.48
1488.5
1490.61
1491.47
1491.16
1489.76
1487.13
1483.13
1471.79
1439.61
1424.4
1364.75
879.945
1367.99
1432.62
1448.4
1478.6
1488.58
1490.64
1491.46
1491.15
1489.76
1487.16
1483.21
1471.89
1440.81
1425.72
1362.36
905.493
1365.43
1434.05
1449.63
1478.73
1488.67
1490.68
1491.46
1491.14
1489.75
1487.2
1483.3
1472
1442.07
1427.12
1359.82
933.202
1362.75
1435.55
1450.92
1478.86
1488.75
1490.72
1491.45
1491.13
1489.75
1487.23
1483.4
1472.12
1443.38
1428.58
1357.16
962.989
1359.98
1437.12
1452.26
1479.01
1488.84
1490.75
1491.45
1491.12
1489.75
1487.27
1483.49
1472.25
1444.75
1430.12
1354.41
994.747
1357.13
1438.75
1453.65
1479.16
1488.93
1490.79
1491.44
1491.11
1489.74
1487.31
1483.59
1472.38
1446.16
1431.7
1351.59
1028.35
1354.25
1440.42
1455.08
1479.33
1489.03
1490.83
1491.44
1491.1
1489.74
1487.35
1483.69
1472.53
1447.61
1433.34
1348.73
1063.66
1351.37
1442.12
1456.56
1479.5
1489.12
1490.88
1491.43
1491.09
1489.74
1487.39
1483.79
1472.69
1449.1
1435
1345.86
1100.5
1348.52
1443.85
1458.07
1479.69
1489.22
1490.92
1491.43
1491.08
1489.74
1487.43
1483.89
1472.86
1450.63
1436.69
1343.03
1138.68
1345.73
1445.59
1459.62
1479.9
1489.32
1490.96
1491.42
1491.07
1489.73
1487.47
1483.99
1473.05
1452.19
1438.38
1340.25
1177.99
1343.04
1447.33
1461.2
1480.12
1489.42
1491.01
1491.42
1491.06
1489.73
1487.52
1484.1
1473.25
1453.78
1440.08
1337.58
1218.19
1340.49
1449.05
1462.81
1480.35
1489.52
1491.06
1491.42
1491.05
1489.73
1487.56
1484.2
1473.47
1455.4
1441.77
1335.05
1259.04
1338.12
1450.76
1464.44
1480.6
1489.61
1491.1
1491.41
1491.04
1489.73
1487.61
1484.3
1473.7
1457.04
1443.43
1332.7
1300.28
1335.99
1452.44
1466.09
1480.86
1489.72
1491.15
1491.41
1491.03
1489.73
1487.65
1484.41
1473.95
1458.69
1445.06
1330.59
1341.62
1334.13
1454.07
1467.75
1481.15
1489.82
1491.2
1491.4
1491.02
1489.73
1487.7
1484.51
1474.22
1460.36
1446.66
1328.75
1382.77
1332.61
1455.66
1469.42
1481.45
1489.91
1491.25
1491.4
1491.01
1489.73
1487.75
1484.61
1474.51
1462.02
1448.2
1327.23
1423.43
1331.46
1457.18
1471.08
1481.77
1490.01
1491.29
1491.4
1490.99
1489.73
1487.8
1484.71
1474.81
1463.68
1449.68
1326.1
1463.28
1330.74
1458.64
1472.74
1482.1
1490.11
1491.34
1491.4
1490.98
1489.73
1487.85
1484.81
1475.14
1465.33
1451.09
1325.39
1501.97
1330.51
1460.01
1474.38
1482.45
1490.21
1491.39
1491.39
1490.97
1489.73
1487.89
1484.91
1475.48
1466.96
1452.43
1325.17
1539.19
1330.81
1461.31
1476
1482.83
1490.3
1491.44
1491.39
1490.96
1489.73
1487.94
1485.01
1475.84
1468.57
1453.69
1325.49
1574.63
1331.7
1462.51
1477.6
1483.22
1490.4
1491.48
1491.39
1490.95
1489.73
1487.99
1485.1
1476.22
1470.15
1454.85
1326.38
1608.02
1333.21
1463.61
1479.17
1483.62
1490.49
1491.53
1491.39
1490.94
1489.73
1488.04
1485.2
1476.62
1471.71
1455.92
1327.9
1639.11
1335.38
1464.61
1480.71
1484.05
1490.59
1491.57
1491.39
1490.93
1489.73
1488.08
1485.29
1477.03
1473.23
1456.89
1330.08
1667.7
1338.23
1465.49
1482.23
1484.5
1490.68
1491.62
1491.39
1490.91
1489.73
1488.13
1485.38
1477.47
1474.72
1457.74
1332.93
1693.6
1341.78
1466.25
1483.72
1484.97
1490.78
1491.66
1491.39
1490.9
1489.74
1488.17
1485.47
1477.93
1476.19
1458.48
1336.49
1716.6
1346.04
1466.91
1485.19
1485.46
1490.87
1491.7
1491.39
1490.89
1489.74
1488.22
1485.57
1478.41
1477.63
1459.1
1340.74
1736.53
1350.99
1467.46
1486.64
1485.97
1490.97
1491.75
1491.39
1490.88
1489.74
1488.26
1485.67
1478.92
1479.05
1459.63
1345.69
1753.3
1356.63
1467.92
1488.07
1486.51
1491.07
1491.79
1491.39
1490.86
1489.74
1488.31
1485.76
1479.45
1480.45
1460.07
1351.32
1766.91
1362.93
1468.3
1489.47
1487.08
1491.17
1491.83
1491.38
1490.85
1489.74
1488.35
1485.86
1480
1481.81
1460.42
1357.61
1777.5
1369.86
1468.6
1490.81
1487.66
1491.28
1491.86
1491.38
1490.83
1489.74
1488.39
1485.96
1480.58
1483.11
1460.71
1364.53
1785.25
1377.38
1468.85
1492.1
1488.27
1491.39
1491.9
1491.38
1490.81
1489.74
1488.43
1486.07
1481.17
1484.36
1460.94
1372.03
1790.41
1385.45
1469.07
1493.32
1488.88
1491.49
1491.93
1491.37
1490.79
1489.74
1488.46
1486.17
1481.77
1485.53
1461.13
1380.08
1793.2
1394.02
1469.25
1494.47
1489.51
1491.6
1491.96
1491.36
1490.77
1489.73
1488.49
1486.28
1482.39
1486.64
1461.29
1388.63
1793.87
1403.05
1469.44
1495.55
1490.14
1491.72
1491.99
1491.36
1490.75
1489.73
1488.52
1486.39
1483.01
1487.67
1461.45
1397.64
1792.65
1412.48
1469.63
1496.56
1490.78
1491.83
1492.01
1491.35
1490.73
1489.72
1488.55
1486.5
1483.64
1488.62
1461.63
1407.05
1789.75
1422.29
1469.86
1497.49
1491.43
1491.95
1492.03
1491.33
1490.7
1489.72
1488.58
1486.61
1484.26
1489.5
1461.83
1416.83
1785.38
1432.42
1470.14
1498.33
1492.07
1492.07
1492.05
1491.32
1490.68
1489.71
1488.6
1486.72
1484.89
1490.28
1462.08
1426.93
1779.72
1442.83
1470.48
1499.08
1492.71
1492.2
1492.06
1491.3
1490.65
1489.69
1488.61
1486.84
1485.51
1490.97
1462.39
1437.31
1772.94
1453.39
1470.9
1499.75
1493.34
1492.32
1492.07
1491.28
1490.62
1489.68
1488.62
1486.96
1486.12
1491.58
1462.79
1447.83
1765.16
1463.96
1471.42
1500.33
1493.96
1492.45
1492.08
1491.26
1490.59
1489.66
1488.63
1487.08
1486.72
1492.09
1463.27
1458.36
1756.51
1474.39
1472.05
1500.82
1494.56
1492.58
1492.08
1491.24
1490.55
1489.65
1488.64
1487.2
1487.3
1492.51
1463.86
1468.74
1747.07
1484.55
1472.79
1501.22
1495.14
1492.71
1492.07
1491.21
1490.52
1489.62
1488.64
1487.32
1487.86
1492.84
1464.55
1478.86
1736.93
1494.35
1473.65
1501.54
1495.69
1492.84
1492.06
1491.18
1490.48
1489.6
1488.63
1487.44
1488.39
1493.09
1465.37
1488.61
1726.21
1503.72
1474.63
1501.77
1496.22
1492.97
1492.05
1491.15
1490.44
1489.57
1488.63
1487.56
1488.9
1493.24
1466.3
1497.93
1715.11
1512.58
1475.73
1501.91
1496.72
1493.1
1492.03
1491.11
1490.4
1489.54
1488.61
1487.68
1489.37
1493.31
1467.34
1506.74
1703.83
1520.87
1476.96
1501.99
1497.19
1493.23
1492.01
1491.07
1490.36
1489.51
1488.6
1487.79
1489.8
1493.31
1468.5
1514.97
1692.56
1528.51
1478.29
1501.99
1497.62
1493.36
1491.98
1491.03
1490.32
1489.47
1488.58
1487.91
1490.2
1493.23
1469.77
1522.57
1681.45
1535.46
1479.73
1501.92
1498.01
1493.48
1491.95
1490.99
1490.27
1489.43
1488.56
1488.02
1490.56
1493.08
1471.14
1529.47
1670.58
1541.69
1481.27
1501.8
1498.36
1493.6
1491.91
1490.94
1490.22
1489.39
1488.53
1488.12
1490.88
1492.87
1472.6
1535.65
1660.05
1547.17
1482.89
1501.63
1498.67
1493.72
1491.87
1490.88
1490.17
1489.34
1488.5
1488.22
1491.15
1492.61
1474.14
1541.09
1649.95
1551.9
1484.58
1501.42
1498.95
1493.83
1491.82
1490.83
1490.12
1489.3
1488.47
1488.31
1491.38
1492.31
1475.73
1545.76
1640.33
1555.86
1486.31
1501.18
1499.17
1493.94
1491.78
1490.77
1490.07
1489.24
1488.43
1488.39
1491.57
1491.97
1477.36
1549.68
1631.25
1559.09
1488.07
1500.91
1499.36
1494.04
1491.72
1490.71
1490.01
1489.19
1488.4