-0.0075 	0 	0 	0
-0.0075 	4.68971e-36 	-2.8725e-36 	1.85341e-31
-0.00745622 	3.8523e-07 	-2.35958e-07 	0.0152246
-0.00745622 	3.8523e-07 	-2.35958e-07 	0.0152246
-0.00741165 	1.53912e-07 	-7.66676e-07 	0.0296414
-0.00741165 	1.53912e-07 	-7.66676e-07 	0.0296414
-0.00736628 	-2.53054e-07 	-1.66695e-06 	0.043351
-0.00736628 	-2.53054e-07 	-1.66695e-06 	0.043351
-0.0073201 	-5.83896e-07 	-2.9316e-06 	0.0563835
-0.0073201 	-5.83896e-07 	-2.9316e-06 	0.0563835
-0.00727309 	-8.44569e-07 	-4.59562e-06 	0.068763
-0.00727309 	-8.44569e-07 	-4.59562e-06 	0.068763
-0.00722524 	-1.07437e-06 	-6.66155e-06 	0.0805098
-0.00722524 	-1.07437e-06 	-6.66155e-06 	0.0805098
-0.00717653 	-1.2826e-06 	-9.14351e-06 	0.0916331
-0.00717653 	-1.2826e-06 	-9.14351e-06 	0.0916331
-0.00712695 	-1.47246e-06 	-1.20588e-05 	0.102121
-0.00712695 	-1.47246e-06 	-1.20588e-05 	0.102121
-0.00707647 	-1.64524e-06 	-1.54391e-05 	0.111945
-0.00707647 	-1.64524e-06 	-1.54391e-05 	0.111945
-0.0070251 	-1.80026e-06 	-1.93365e-05 	0.121078
-0.0070251 	-1.80026e-06 	-1.93365e-05 	0.121078
-0.0069728 	-1.93502e-06 	-2.38186e-05 	0.129512
-0.0069728 	-1.93502e-06 	-2.38186e-05 	0.129512
-0.00691956 	-2.04618e-06 	-2.89554e-05 	0.137268
-0.00691956 	-2.04618e-06 	-2.89554e-05 	0.137268
-0.00686537 	-2.13069e-06 	-3.48091e-05 	0.144382
-0.00686537 	-2.13069e-06 	-3.48091e-05 	0.144382
-0.00681021 	-2.18679e-06 	-4.14437e-05 	0.150911
-0.00681021 	-2.18679e-06 	-4.14437e-05 	0.150911
-0.00675406 	-2.21398e-06 	-4.89266e-05 	0.156917
-0.00675406 	-2.21398e-06 	-4.89266e-05 	0.156917
-0.0066969 	-2.21257e-06 	-5.73192e-05 	0.162453
-0.0066969 	-2.21257e-06 	-5.73192e-05 	0.162453
-0.00663871 	-2.18358e-06 	-6.6664e-05 	0.167565
-0.00663871 	-2.18358e-06 	-6.6664e-05 	0.167565
-0.00657949 	-2.12829e-06 	-7.69643e-05 	0.172296
-0.00657949 	-2.12829e-06 	-7.69643e-05 	0.172296
-0.0065192 	-2.04807e-06 	-8.81866e-05 	0.176688
-0.0065192 	-2.04807e-06 	-8.81866e-05 	0.176688
-0.00645783 	-1.94448e-06 	-0.000100283 	0.180781
-0.00645783 	-1.94448e-06 	-0.000100283 	0.180781
-0.00639535 	-1.81917e-06 	-0.000113203 	0.184616
-0.00639535 	-1.81917e-06 	-0.000113203 	0.184616
-0.00633176 	-1.67396e-06 	-0.000126893 	0.188225
-0.00633176 	-1.67396e-06 	-0.000126893 	0.188225
-0.00626703 	-1.51073e-06 	-0.000141301 	0.191633
-0.00626703 	-1.51073e-06 	-0.000141301 	0.191633
-0.00620114 	-1.33119e-06 	-0.00015637 	0.194866
-0.00620114 	-1.33119e-06 	-0.00015637 	0.194866
-0.00613406 	-1.1368e-06 	-0.000172042 	0.197943
-0.00613406 	-1.1368e-06 	-0.000172042 	0.197943
-0.00606579 	-9.28649e-07 	-0.000188257 	0.200881
-0.00606579 	-9.28649e-07 	-0.000188257 	0.200881
-0.00599629 	-7.07481e-07 	-0.00020495 	0.203699
-0.00599629 	-7.07481e-07 	-0.00020495 	0.203699
-0.00592554 	-4.73949e-07 	-0.000222053 	0.20641
-0.00592554 	-4.73949e-07 	-0.000222053 	0.20641
-0.00585352 	-2.29012e-07 	-0.000239492 	0.209031
-0.00585352 	-2.29012e-07 	-0.000239492 	0.209031
-0.00578022 	2.61359e-08 	-0.000257177 	0.211573
-0.00578022 	2.61359e-08 	-0.000257177 	0.211573
-0.00570559 	2.9041e-07 	-0.000275011 	0.214045
-0.00570559 	2.9041e-07 	-0.000275011 	0.214045
-0.00562963 	5.63004e-07 	-0.000292897 	0.216456
-0.00562963 	5.63004e-07 	-0.000292897 	0.216456
-0.00555231 	8.43318e-07 	-0.000310736 	0.218813
-0.00555231 	8.43318e-07 	-0.000310736 	0.218813
-0.0054736 	1.13087e-06 	-0.000328426 	0.221122
-0.0054736 	1.13087e-06 	-0.000328426 	0.221122
-0.00539348 	1.42526e-06 	-0.000345865 	0.223386
-0.00539348 	1.42526e-06 	-0.000345865 	0.223386
-0.00531193 	1.72617e-06 	-0.000362949 	0.22561
-0.00531193 	1.72617e-06 	-0.000362949 	0.22561
-0.00522891 	2.03334e-06 	-0.000379579 	0.227797
-0.00522891 	2.03334e-06 	-0.000379579 	0.227797
-0.0051444 	2.34659e-06 	-0.000395656 	0.229948
-0.0051444 	2.34659e-06 	-0.000395656 	0.229948
-0.00505838 	2.66577e-06 	-0.000411085 	0.232066
-0.00505838 	2.66577e-06 	-0.000411085 	0.232066
-0.00497081 	2.99082e-06 	-0.000425777 	0.23415
-0.00497081 	2.99082e-06 	-0.000425777 	0.23415
-0.00488168 	3.32175e-06 	-0.000439648 	0.2362
-0.00488168 	3.32175e-06 	-0.000439648 	0.2362
-0.00479094 	3.6587e-06 	-0.000452621 	0.238216
-0.00479094 	3.6587e-06 	-0.000452621 	0.238216
-0.00469858 	4.00202e-06 	-0.00046462 	0.240196
-0.00469858 	4.00202e-06 	-0.00046462 	0.240196
-0.00460456 	4.3523e-06 	-0.000475578 	0.242139
-0.00460456 	4.3523e-06 	-0.000475578 	0.242139
-0.00450886 	4.71032e-06 	-0.000485446 	0.244043
-0.00450886 	4.71032e-06 	-0.000485446 	0.244043
-0.00441144 	5.07689e-06 	-0.000494208 	0.245907
-0.00441144 	5.07689e-06 	-0.000494208 	0.245907
-0.00431227 	5.45268e-06 	-0.000501879 	0.247729
-0.00431227 	5.45268e-06 	-0.000501879 	0.247729
-0.00421133 	5.83819e-06 	-0.000508502 	0.249507
-0.00421133 	5.83819e-06 	-0.000508502 	0.249507
-0.00410857 	6.23437e-06 	-0.000514146 	0.251238
-0.00410857 	6.23437e-06 	-0.000514146 	0.251238
-0.00400397 	6.64338e-06 	-0.000518897 	0.25292
-0.00400397 	6.64338e-06 	-0.000518897 	0.25292
-0.0038975 	7.0682e-06 	-0.000522849 	0.254553
-0.0038975 	7.0682e-06 	-0.000522849 	0.254553
-0.00378912 	7.51065e-06 	-0.00052609 	0.256139
-0.00378912 	7.51065e-06 	-0.00052609 	0.256139
-0.00367879 	7.97038e-06 	-0.000528694 	0.257681
-0.00367879 	7.97038e-06 	-0.000528694 	0.257681
-0.00356649 	8.44576e-06 	-0.000530721 	0.259179
-0.00356649 	8.44576e-06 	-0.000530721 	0.259179
-0.00345217 	8.93543e-06 	-0.000532227 	0.26063
-0.00345217 	8.93543e-06 	-0.000532227 	0.26063
-0.0033358 	9.43856e-06 	-0.000533274 	0.262033
-0.0033358 	9.43856e-06 	-0.000533274 	0.262033
-0.00321735 	9.95426e-06 	-0.000533928 	0.263385
-0.00321735 	9.95426e-06 	-0.000533928 	0.263385
-0.00309677 	1.04813e-05 	-0.00053426 	0.264683
-0.00309677 	1.04813e-05 	-0.00053426 	0.264683
-0.00297403 	1.10183e-05 	-0.000534343 	0.265926
-0.00297403 	1.10183e-05 	-0.000534343 	0.265926
-0.00284909 	1.15633e-05 	-0.000534254 	0.26711
-0.00284909 	1.15633e-05 	-0.000534254 	0.26711
-0.0027219 	1.2114e-05 	-0.000534072 	0.268233
-0.0027219 	1.2114e-05 	-0.000534072 	0.268233
-0.00259244 	1.26682e-05 	-0.000533872 	0.269293
-0.00259244 	1.26682e-05 	-0.000533872 	0.269293
-0.00246065 	1.32231e-05 	-0.000533725 	0.270287
-0.00246065 	1.32231e-05 	-0.000533725 	0.270287
-0.00232651 	1.37759e-05 	-0.000533691 	0.271213
-0.00232651 	1.37759e-05 	-0.000533691 	0.271213
-0.00218995 	1.43234e-05 	-0.000533824 	0.272068
-0.00218995 	1.43234e-05 	-0.000533824 	0.272068
-0.00205095 	1.48621e-05 	-0.000534162 	0.272852
-0.00205095 	1.48621e-05 	-0.000534162 	0.272852
-0.00190946 	1.53887e-05 	-0.000534732 	0.273562
-0.00190946 	1.53887e-05 	-0.000534732 	0.273562
-0.00176543 	1.58994e-05 	-0.000535541 	0.274198
-0.00176543 	1.58994e-05 	-0.000535541 	0.274198
-0.00161881 	1.63897e-05 	-0.000536579 	0.274758
-0.00161881 	1.63897e-05 	-0.000536579 	0.274758
-0.00146957 	1.68537e-05 	-0.000537816 	0.275243
-0.00146957 	1.68537e-05 	-0.000537816 	0.275243
-0.00131765 	1.72849e-05 	-0.000539208 	0.275654
-0.00131765 	1.72849e-05 	-0.000539208 	0.275654
-0.001163 	1.7676e-05 	-0.000540699 	0.275989
-0.001163 	1.7676e-05 	-0.000540699 	0.275989
-0.00100559 	1.80192e-05 	-0.00054223 	0.276249
-0.00100559 	1.80192e-05 	-0.00054223 	0.276249
-0.000845345 	1.83051e-05 	-0.000543687 	0.276433
-0.000845345 	1.83051e-05 	-0.000543687 	0.276433
-0.000682232 	1.85234e-05 	-0.000545053 	0.27654
-0.000682232 	1.85234e-05 	-0.000545053 	0.27654
-0.000516194 	1.86621e-05 	-0.000546333 	0.276568
-0.000516194 	1.86621e-05 	-0.000546333 	0.276568
-0.000347178 	1.87086e-05 	-0.000547379 	0.276516
-0.000347178 	1.87086e-05 	-0.000547379 	0.276516
-0.000175132 	1.86453e-05 	-0.000548296 	0.276381
-0.000175132 	1.86453e-05 	-0.000548296 	0.276381
0 	1.84546e-05 	-0.000548934 	0.276161
0 	1.84546e-05 	-0.000548934 	0.276161
0 	1.84546e-05 	-0.000548934 	0.276161
0 	1.84546e-05 	-0.000548934 	0.276161
0.000175132 	1.81357e-05 	-0.000549069 	0.275857
0.000175132 	2.3209e-05 	-0.000451031 	0.272541
0.000347178 	1.77003e-05 	-0.000548856 	0.275477
0.000347178 	2.43151e-05 	-0.000453342 	0.272227
0.000516194 	1.71689e-05 	-0.000548144 	0.275025
0.000516194 	2.52367e-05 	-0.000455021 	0.271836
0.000682232 	1.65625e-05 	-0.000546964 	0.274505
0.000682232 	2.59922e-05 	-0.000456097 	0.271371
0.000845345 	1.58942e-05 	-0.000545471 	0.273921
0.000845345 	2.65962e-05 	-0.000456975 	0.270837
0.00100559 	1.51764e-05 	-0.000543612 	0.273276
0.00100559 	2.70649e-05 	-0.000457457 	0.270237
0.001163 	1.44206e-05 	-0.000541403 	0.272571
0.001163 	2.74134e-05 	-0.000457545 	0.269575
0.00131765 	1.36367e-05 	-0.000538863 	0.27181
0.00131765 	2.76551e-05 	-0.000457247 	0.268853
0.00146957 	1.28333e-05 	-0.000536004 	0.270995
0.00146957 	2.78024e-05 	-0.00045657 	0.268074
0.00161881 	1.20178e-05 	-0.000532842 	0.270127
0.00161881 	2.78657e-05 	-0.000455522 	0.26724
0.00176543 	1.11965e-05 	-0.000529388 	0.269208
0.00176543 	2.78544e-05 	-0.000454114 	0.266353
0.00190946 	1.03745e-05 	-0.000525654 	0.268239
0.00190946 	2.77765e-05 	-0.000452354 	0.265414
0.00205095 	9.55623e-06 	-0.00052165 	0.267222
0.00205095 	2.76391e-05 	-0.00045025 	0.264426
0.00218995 	8.7451e-06 	-0.000517381 	0.266159
0.00218995 	2.74481e-05 	-0.000447806 	0.26339
0.00232651 	7.944e-06 	-0.000512852 	0.265049
0.00232651 	2.7209e-05 	-0.000445026 	0.262305
0.00246065 	7.15521e-06 	-0.000508065 	0.263894
0.00246065 	2.69261e-05 	-0.000441912 	0.261175
0.00259244 	6.38056e-06 	-0.000503021 	0.262693
0.00259244 	2.66032e-05 	-0.000438465 	0.259998
0.0027219 	5.62152e-06 	-0.000497719 	0.261449
0.0027219 	2.62435e-05 	-0.00043468 	0.258776
0.00284909 	4.87924e-06 	-0.000492157 	0.26016
0.00284909 	2.58494e-05 	-0.000430555 	0.25751
0.00297403 	4.15461e-06 	-0.000486329 	0.258827
0.00297403 	2.54231e-05 	-0.00042608 	0.256199
0.00309677 	3.44837e-06 	-0.000480231 	0.257451
0.00309677 	2.49664e-05 	-0.000421247 	0.254844
0.00321735 	2.76105e-06 	-0.000473855 	0.256029
0.00321735 	2.44806e-05 	-0.000416044 	0.253444
0.0033358 	2.09302e-06 	-0.000467195 	0.254564
0.0033358 	2.39668e-05 	-0.000410462 	0.251998
0.00345217 	2.34262e-05 	-0.000404495 	0.250507
0.00345217 	1.44452e-06 	-0.000460246 	0.253052
0.00356649 	8.15684e-07 	-0.000453002 	0.251495
0.00356649 	2.28602e-05 	-0.000398143 	0.248969
0.00367879 	2.06685e-07 	-0.000445448 	0.24989
0.00367879 	2.22719e-05 	-0.000391399 	0.247384
0.00378912 	-3.82187e-07 	-0.000437566 	0.248237
0.00378912 	2.16649e-05 	-0.000384246 	0.245752
0.0038975 	-9.50668e-07 	-0.000429332 	0.246534
0.0038975 	2.10408e-05 	-0.000376658 	0.244074
0.00400397 	-1.49894e-06 	-0.000420704 	0.244778
0.00400397 	2.03982e-05 	-0.000368575 	0.242342
0.00410857 	1.97354e-05 	-0.000359894 	0.240544
0.00410857 	-2.02724e-06 	-0.000411617 	0.242963
0.00421133 	-2.53545e-06 	-0.000401999 	0.241083
0.00421133 	1.9051e-05 	-0.000350521 	0.238667
0.00431227 	-3.02396e-06 	-0.000391769 	0.23913
0.00431227 	1.83438e-05 	-0.000340387 	0.236706
0.00441144 	-3.49414e-06 	-0.000380861 	0.2371
0.00441144 	1.76116e-05 	-0.00032945 	0.234657
0.00450886 	-3.94763e-06 	-0.000369245 	0.234983
0.00450886 	1.68522e-05 	-0.000317717 	0.232517
0.00460456 	-4.38569e-06 	-0.000356923 	0.232777
0.00460456 	1.60638e-05 	-0.000305229 	0.230281
0.00469858 	-4.80893e-06 	-0.000343913 	0.230475
0.00469858 	1.52445e-05 	-0.00029204 	0.227946
0.00479094 	-5.21757e-06 	-0.00033024 	0.228073
0.00479094 	1.43928e-05 	-0.000278208 	0.225506
0.00488168 	-5.61174e-06 	-0.000315935 	0.225567
0.00488168 	1.35069e-05 	-0.000263791 	0.222959
0.00497081 	-5.99147e-06 	-0.000301036 	0.222951
0.00497081 	1.25855e-05 	-0.000248855 	0.220299
0.00505838 	-6.35671e-06 	-0.000285595 	0.220223
0.00505838 	1.16273e-05 	-0.000233477 	0.217524
0.0051444 	-6.70731e-06 	-0.000269677 	0.217377
0.0051444 	1.06314e-05 	-0.000217743 	0.214628
0.00522891 	-7.04295e-06 	-0.000253365 	0.214411
0.00522891 	9.59742e-06 	-0.000201757 	0.211611
0.00531193 	-7.36315e-06 	-0.000236756 	0.211322
0.00531193 	8.52567e-06 	-0.000185639 	0.208469
0.00539348 	-7.66728e-06 	-0.000219963 	0.208105
0.00539348 	7.41709e-06 	-0.000169523 	0.2052
0.0054736 	-7.95454e-06 	-0.000203111 	0.204758
0.0054736 	6.27327e-06 	-0.000153551 	0.201802
0.00555231 	-8.224e-06 	-0.000186333 	0.201277
0.00555231 	5.09632e-06 	-0.00013787 	0.198274
0.00562963 	-8.47461e-06 	-0.000169763 	0.197659
0.00562963 	3.88889e-06 	-0.000122622 	0.194613
0.00570559 	-8.70517e-06 	-0.000153533 	0.193899
0.00570559 	2.65409e-06 	-0.000107944 	0.190817
0.00578022 	-8.91439e-06 	-0.000137771 	0.189992
0.00578022 	1.39556e-06 	-9.39558e-05 	0.18688
0.00585352 	-9.10082e-06 	-0.000122591 	0.185933
0.00585352 	1.17464e-07 	-8.07622e-05 	0.182799
0.00592554 	-9.2629e-06 	-0.000108099 	0.181714
0.00592554 	-1.17543e-06 	-6.84486e-05 	0.178569
0.00599629 	-9.39893e-06 	-9.43822e-05 	0.177329
0.00599629 	-2.47766e-06 	-5.70791e-05 	0.174182
0.00606579 	-9.50692e-06 	-8.15153e-05 	0.172769
0.00606579 	-3.78299e-06 	-4.66981e-05 	0.169629
0.00613406 	-9.58466e-06 	-6.95609e-05 	0.168021
0.00613406 	-5.08455e-06 	-3.73306e-05 	0.164899
0.00620114 	-6.37493e-06 	-2.89849e-05 	0.159976
0.00620114 	-9.62996e-06 	-5.85672e-05 	0.163071
0.00626703 	-9.64077e-06 	-4.8571e-05 	0.1579
0.00626703 	-7.64557e-06 	-2.16582e-05 	0.154842
0.00633176 	-8.88583e-06 	-1.53381e-05 	0.149482
0.00633176 	-9.6151e-06 	-3.9601e-05 	0.152492
0.00639535 	-1.0083e-05 	-9.99563e-06 	0.14388
0.00639535 	-9.55082e-06 	-3.16688e-05 	0.146831
0.00645783 	-9.44545e-06 	-2.47652e-05 	0.140902
0.00645783 	-1.12222e-05 	-5.58484e-06 	0.13802
0.0065192 	-9.29651e-06 	-1.88646e-05 	0.134687
0.0065192 	-1.22866e-05 	-2.04685e-06 	0.131884
0.00657949 	-9.1016e-06 	-1.39283e-05 	0.128169
0.00657949 	-1.3257e-05 	6.86618e-07 	0.125456
0.00663871 	-8.85802e-06 	-9.9043e-06 	0.121332
0.00663871 	-1.41113e-05 	2.69041e-06 	0.118717
0.0066969 	-8.56258e-06 	-6.71325e-06 	0.114158
0.0066969 	-1.48256e-05 	4.05096e-06 	0.111646
0.00675406 	-1.53752e-05 	4.8592e-06 	0.10421
0.00675406 	-8.21217e-06 	-4.26146e-06 	0.106613
0.00681021 	-1.57337e-05 	5.2052e-06 	0.09638
0.00681021 	-7.80547e-06 	-2.44842e-06 	0.098666
0.00686537 	-1.58724e-05 	5.17939e-06 	0.0881724
0.00686537 	-7.34527e-06 	-1.17718e-06 	0.0903238
0.00691956 	-1.57649e-05 	4.87078e-06 	0.0796535
0.00691956 	-6.83816e-06 	-3.6175e-07 	0.0816511
0.0069728 	-1.53925e-05 	4.36877e-06 	0.0709406
0.0069728 	-6.29322e-06 	9.38002e-08 	0.072765
0.0070251 	-5.72191e-06 	2.88901e-07 	0.0638336
0.0070251 	-1.47506e-05 	3.75753e-06 	0.0621988
0.00707647 	-5.13687e-06 	3.17845e-07 	0.0550574
0.00707647 	-1.38525e-05 	3.10987e-06 	0.0536214
0.00712695 	-4.5495e-06 	2.61478e-07 	0.0466334
0.00712695 	-1.2728e-05 	2.48301e-06 	0.0453968
0.00717653 	-3.96756e-06 	1.79029e-07 	0.0387179
0.00717653 	-1.1417e-05 	1.91502e-06 	0.0376735
0.00722524 	-3.39367e-06 	1.06258e-07 	0.0314036
0.00722524 	-9.96001e-06 	1.42624e-06 	0.0305393
0.00727309 	-8.39028e-06 	1.02288e-06 	0.024025
0.00727309 	-2.82403e-06 	5.84722e-08 	0.0247229
0.0073201 	-6.72911e-06 	6.99405e-07 	0.0181232
0.0073201 	-2.2445e-06 	3.5412e-08 	0.0186673
0.00736628 	-4.98005e-06 	4.47376e-07 	0.0128068
0.00736628 	-1.61967e-06 	3.3958e-08 	0.0132083
0.00741165 	-9.4974e-07 	2.82734e-08 	0.00830813
0.00741165 	-3.19236e-06 	2.46994e-07 	0.00803906
0.00745622 	-3.6034e-07 	1.98085e-08 	0.00392463
0.00745622 	-1.50537e-06 	1.00736e-07 	0.0037782
0.0075 	0 	0 	0
0.0075 	0 	0 	0
