0 	0 	0 	0
5.01672e-05 	-0.000462172 	-1.7597e-05 	0.0149215
0.000100334 	-0.000161683 	-3.67511e-05 	0.0314558
0.000150502 	0.000244739 	-5.66831e-05 	0.0471928
0.000200669 	0.000501129 	-7.39092e-05 	0.0612654
0.000250836 	0.000666362 	-9.11838e-05 	0.0739313
0.000301003 	0.000813354 	-0.000108432 	0.0855394
0.000351171 	0.000971558 	-0.000125802 	0.0962814
0.000401338 	0.00115197 	-0.000143136 	0.10626
0.000451505 	0.0013561 	-0.000160128 	0.115532
0.000501672 	0.00158001 	-0.000176485 	0.124136
0.000551839 	0.00181707 	-0.000191936 	0.132106
0.000602007 	0.00205999 	-0.000206239 	0.139481
0.000652174 	0.00230216 	-0.000219311 	0.146304
0.000702341 	0.00253815 	-0.000231266 	0.152621
0.000752508 	0.00276383 	-0.000242293 	0.158471
0.000802676 	0.00297612 	-0.000252511 	0.163893
0.000852843 	0.00317038 	-0.000261643 	0.168867
0.00090301 	0.0033484 	-0.000269668 	0.173492
0.000953177 	0.00351067 	-0.00027672 	0.177798
0.00100334 	0.00365807 	-0.000283028 	0.181812
0.00105351 	0.00379159 	-0.000288796 	0.185558
0.00110368 	0.00391198 	-0.000294139 	0.189055
0.00115385 	0.00401672 	-0.000298934 	0.19227
0.00120401 	0.00411032 	-0.000303272 	0.195299
0.00125418 	0.00419351 	-0.00030714 	0.19816
0.00130435 	0.00426697 	-0.000310535 	0.20087
0.00135452 	0.00432869 	-0.000313316 	0.203403
0.00140468 	0.0043812 	-0.000315631 	0.2058
0.00145485 	0.00442654 	-0.00031761 	0.208093
0.00150502 	0.00446527 	-0.000319295 	0.210291
0.00155518 	0.00449429 	-0.00032061 	0.212352
0.00160535 	0.00451757 	-0.000321672 	0.214336
0.00165552 	0.00453569 	-0.000322489 	0.216251
0.00170569 	0.00454665 	-0.000322905 	0.218072
0.00175585 	0.0045517 	-0.000323016 	0.219818
0.00180602 	0.00455266 	-0.000322975 	0.221512
0.00185619 	0.00454772 	-0.000322827 	0.223132
0.00190635 	0.0045376 	-0.000322757 	0.224689
0.00195652 	0.00452424 	-0.000322725 	0.226207
0.00200669 	0.00450522 	-0.00032273 	0.227658
0.00205686 	0.00448218 	-0.000322645 	0.229064
0.00210702 	0.00445648 	-0.000322499 	0.230441
0.00215719 	0.00442443 	-0.000322096 	0.23175
0.00220736 	0.00438998 	-0.000321593 	0.233034
0.00225753 	0.00435169 	-0.000320933 	0.234279
0.00230769 	0.004309 	-0.000320125 	0.235479
0.00235786 	0.00426441 	-0.000319261 	0.236661
0.00240803 	0.00421426 	-0.000318364 	0.23779
0.00245819 	0.00416228 	-0.000318 	0.238901
0.00250836 	0.00410658 	-0.000318717 	0.239978
0.00255853 	0.00404782 	-0.000318815 	0.241027
0.0026087 	0.00398689 	-0.000318473 	0.242056
0.00265886 	0.00392297 	-0.000311538 	0.243038
0.00270903 	0.00385834 	-0.000303038 	0.244008
0.0027592 	0.00379359 	-0.000291128 	0.244858
0.00280936 	0.00372912 	-0.000280956 	0.245678
0.00285953 	0.00366611 	-0.000280035 	0.246335
0.0029097 	0.00360239 	-0.000286287 	0.246949
0.00295987 	0.00353689 	-0.000310603 	0.247458
0.00301003 	0.00346497 	-0.000340516 	0.24804
0.0030602 	0.00338243 	-0.000379698 	0.248745
0.00311037 	0.00328715 	-0.000403393 	0.249729
0.00316054 	0.00317533 	-0.000406944 	0.251077
0.0032107 	0.00305558 	-0.000395128 	0.252587
0.00326087 	0.00292647 	-0.000365121 	0.254289
0.00331104 	0.00279288 	-0.000345803 	0.255849
0.0033612 	0.00265374 	-0.000339773 	0.257233
0.00341137 	0.00249727 	-0.000346546 	0.258413
0.00346154 	0.00231455 	-0.000372722 	0.259285
0.00351171 	0.00210142 	-0.00039656 	0.260027
0.00356187 	0.00182141 	-0.000415255 	0.260481
0.00361204 	0.00152279 	-0.000424931 	0.260898
0.00366221 	0.00114496 	-0.0003962 	0.261153
0.00371237 	0.000769834 	-0.000366965 	0.261416
0.00376254 	0.000482711 	-0.000321306 	0.261915
0.00381271 	0.000195588 	-0.000275647 	0.262413
0.00386288 	0.000188622 	-0.000285814 	0.263429
0.00391304 	0.000238792 	-0.000307368 	0.264551
0.00396321 	0.000394723 	-0.00035277 	0.265781
0.00401338 	0.000623543 	-0.000414608 	0.267085
0.00406355 	0.000814064 	-0.000466359 	0.26827
0.00411371 	0.000920627 	-0.000495994 	0.269193
0.00416388 	0.00102719 	-0.000525629 	0.270115
0.00421405 	0.000963729 	-0.00051733 	0.270688
0.00426421 	0.000899184 	-0.00050879 	0.27126
0.00431438 	0.00077132 	-0.000496191 	0.271712
0.00436455 	0.000606659 	-0.000481233 	0.272095
0.00441472 	0.000438486 	-0.000471014 	0.272464
0.00446488 	0.000258486 	-0.000476754 	0.272784
0.00451505 	7.8485e-05 	-0.000482495 	0.273104
0.00456522 	-9.48052e-05 	-0.000493119 	0.273399
0.00461538 	-0.000266228 	-0.000505102 	0.273689
0.00466555 	-0.00043617 	-0.000516345 	0.273967
0.00471572 	-0.000602517 	-0.000525792 	0.274219
0.00476589 	-0.000768864 	-0.00053524 	0.27447
0.00481605 	-0.000932847 	-0.000545554 	0.274691
0.00486622 	-0.00109607 	-0.000556146 	0.274902
0.00491639 	-0.00125884 	-0.000567028 	0.275107
0.00496656 	-0.0014195 	-0.000579261 	0.275283
0.00501672 	-0.00158016 	-0.000591494 	0.275459
0.00506689 	-0.0017391 	-0.000604404 	0.27562
0.00511706 	-0.00189663 	-0.000617871 	0.275769
0.00516722 	-0.00205415 	-0.000631338 	0.275918
0.00521739 	-0.00220763 	-0.000644881 	0.276043
0.00526756 	-0.00236053 	-0.000658434 	0.276164
0.00531773 	-0.00251243 	-0.000671978 	0.276281
0.00536789 	-0.0026588 	-0.000685475 	0.276375
0.00541806 	-0.00280516 	-0.000698972 	0.276469
0.00546823 	-0.00294943 	-0.000714233 	0.276552
0.00551839 	-0.0030903 	-0.000732346 	0.276614
0.00556856 	-0.00323117 	-0.000750459 	0.276677
0.00561873 	-0.00337805 	-0.000771633 	0.276707
0.0056689 	-0.00352961 	-0.000795195 	0.276711
0.00571906 	-0.00368118 	-0.000818757 	0.276715
0.00576923 	-0.00385324 	-0.000836778 	0.276658
0.0058194 	-0.00403449 	-0.000852319 	0.276572
0.00586957 	-0.00421573 	-0.000867859 	0.276487
0.00591973 	-0.00439525 	-0.000872786 	0.276375
0.0059699 	-0.00457426 	-0.000874512 	0.276254
0.00602007 	-0.00475326 	-0.000876238 	0.276133
0.00607023 	-0.00486111 	-0.000886002 	0.276104
0.0061204 	-0.00495042 	-0.00089786 	0.276099
0.00617057 	-0.00503973 	-0.000909718 	0.276094
0.00622074 	-0.00504724 	-0.000939255 	0.276182
0.0062709 	-0.00502965 	-0.00097422 	0.276298
0.00632107 	-0.00501205 	-0.00100919 	0.276414
0.00637124 	-0.00498006 	-0.00104307 	0.276497
0.0064214 	-0.00494138 	-0.00107645 	0.276565
0.00647157 	-0.0049027 	-0.00110984 	0.276633
0.00652174 	-0.00488741 	-0.00113421 	0.276626
0.00657191 	-0.00489168 	-0.00115106 	0.276556
0.00662207 	-0.00489595 	-0.00116791 	0.276487
0.00667224 	-0.00491045 	-0.00118367 	0.276383
0.00672241 	-0.00494394 	-0.00119743 	0.276216
0.00677258 	-0.00497742 	-0.00121119 	0.276049
0.00682274 	-0.00501021 	-0.00122511 	0.275873
0.00687291 	-0.00503675 	-0.00124045 	0.275614
0.00692308 	-0.00506329 	-0.00125579 	0.275355
0.00697324 	-0.00508983 	-0.00127113 	0.275096
0.00702341 	-0.00511958 	-0.00128945 	0.27465
0.00707358 	-0.00515019 	-0.00130856 	0.274153
0.00712375 	-0.0051808 	-0.00132768 	0.273657
0.00717391 	-0.00523235 	-0.0013535 	0.27298
0.00722408 	-0.00531276 	-0.00138856 	0.272053
0.00727425 	-0.00539318 	-0.00142362 	0.271127
0.00732441 	-0.0054736 	-0.00145868 	0.2702
0.00737458 	-0.00559989 	-0.00149385 	0.268883
0.00742475 	-0.0057266 	-0.00152903 	0.267562
0.00747492 	-0.0058533 	-0.0015642 	0.266241
0.00752508 	-0.00594851 	-0.00158907 	0.265069
0.00757525 	-0.00601221 	-0.00160363 	0.264047
0.00762542 	-0.00607591 	-0.00161818 	0.263024
0.00767559 	-0.00613814 	-0.00163278 	0.262009
0.00772575 	-0.00603948 	-0.00165193 	0.261773
0.00777592 	-0.00594083 	-0.00167108 	0.261537
0.00782609 	-0.00584218 	-0.00169023 	0.2613
0.00787625 	-0.00568342 	-0.00171589 	0.26127
0.00792642 	-0.00548107 	-0.00174629 	0.261388
0.00797659 	-0.00527872 	-0.00177669 	0.261507
0.00802676 	-0.00507891 	-0.00180502 	0.261606
0.00807692 	-0.00488864 	-0.00182564 	0.261628
0.00812709 	-0.00469837 	-0.00184626 	0.261651
0.00817726 	-0.0045081 	-0.00186688 	0.261673
0.00822742 	-0.00435472 	-0.00188271 	0.261546
0.00827759 	-0.0042054 	-0.00189801 	0.261403
0.00832776 	-0.00405608 	-0.00191331 	0.261259
0.00837793 	-0.00391584 	-0.00192829 	0.261072
0.00842809 	-0.00378049 	-0.00194309 	0.260861
0.00847826 	-0.00364515 	-0.0019579 	0.26065
0.00852843 	-0.00350874 	-0.00197223 	0.260437
0.0085786 	-0.00337107 	-0.001986 	0.260223
0.00862876 	-0.00323339 	-0.00199976 	0.260008
0.00867893 	-0.00309483 	-0.00201321 	0.259795
0.0087291 	-0.00295435 	-0.00202598 	0.259585
0.00877926 	-0.00281388 	-0.00203874 	0.259375
0.00882943 	-0.00267296 	-0.00205103 	0.259164
0.0088796 	-0.00253062 	-0.00206174 	0.258947
0.00892977 	-0.00238829 	-0.00207245 	0.25873
0.00897993 	-0.00224575 	-0.00208245 	0.258509
0.0090301 	-0.00210246 	-0.00208975 	0.258275
0.00908027 	-0.00195917 	-0.00209706 	0.258041
0.00913043 	-0.00181603 	-0.00210369 	0.257802
0.0091806 	-0.00167339 	-0.00210813 	0.257546
0.00923077 	-0.00153075 	-0.00211257 	0.25729
0.00928094 	-0.00138871 	-0.00211628 	0.257026
0.0093311 	-0.00124801 	-0.00211836 	0.256744
0.00938127 	-0.00110731 	-0.00212044 	0.256463
0.00943144 	-0.000967652 	-0.00212152 	0.25617
0.00948161 	-0.000829339 	-0.00212131 	0.255862
0.00953177 	-0.000691025 	-0.00212111 	0.255554
0.00958194 	-0.000554277 	-0.00211986 	0.255231
0.00963211 	-0.000418498 	-0.00211796 	0.254898
0.00968227 	-0.000282719 	-0.00211607 	0.254566
0.00973244 	-0.000149275 	-0.00211307 	0.254212
0.00978261 	-1.62516e-05 	-0.00210987 	0.253856
0.00983278 	0.000116387 	-0.00210651 	0.253496
0.00988294 	0.000246333 	-0.00210205 	0.253115
0.00993311 	0.000376279 	-0.00209759 	0.252734
0.00998328 	0.000504748 	-0.00209275 	0.252342
0.0100334 	0.00063142 	-0.00208744 	0.251936
0.0100836 	0.000758091 	-0.00208213 	0.251531
0.0101338 	0.000882284 	-0.0020759 	0.251106
0.0101839 	0.00100595 	-0.00206947 	0.250677
0.0102341 	0.00112904 	-0.00206251 	0.250242
0.0102843 	0.00125037 	-0.00205391 	0.249789
0.0103344 	0.00137169 	-0.0020453 	0.249336
0.0103846 	0.00149167 	-0.00203538 	0.248866
0.0104348 	0.00161109 	-0.0020249 	0.248389
0.0104849 	0.00173008 	-0.00201421 	0.247907
0.0105351 	0.00184752 	-0.00200271 	0.247404
0.0105853 	0.00196496 	-0.00199121 	0.246902
0.0106355 	0.00208061 	-0.00197868 	0.24638
0.0106856 	0.00219573 	-0.00196584 	0.245853
0.0107358 	0.0023098 	-0.00195234 	0.245316
0.010786 	0.00242209 	-0.00193772 	0.244762
0.0108361 	0.00253436 	-0.00192309 	0.244208
0.0108863 	0.002643 	-0.00190744 	0.243627
0.0109365 	0.00275164 	-0.00189179 	0.243046
0.0109866 	0.0028574 	-0.00187619 	0.242442
0.0110368 	0.00296184 	-0.00186062 	0.241828
0.011087 	0.00306477 	-0.00184491 	0.241197
0.0111371 	0.00316551 	-0.00182903 	0.24054
0.0111873 	0.00326571 	-0.00181294 	0.239876
0.0112375 	0.00336328 	-0.00179593 	0.239174
0.0112876 	0.00346085 	-0.00177891 	0.238471
0.0113378 	0.00355517 	-0.00176034 	0.237724
0.011388 	0.00364939 	-0.00174173 	0.236976
0.0114381 	0.00374043 	-0.00172153 	0.23619
0.0114883 	0.00383073 	-0.00170095 	0.235396
0.0115385 	0.0039178 	-0.0016791 	0.234568
0.0115886 	0.00400341 	-0.00165667 	0.233725
0.0116388 	0.00408615 	-0.00163308 	0.232847
0.011689 	0.00416699 	-0.00160872 	0.231946
0.0117391 	0.00424662 	-0.00158283 	0.231008
0.0117893 	0.00432528 	-0.0015557 	0.230042
0.0118395 	0.00440593 	-0.00152595 	0.22904
0.0118896 	0.00448825 	-0.00149399 	0.228009
0.0119398 	0.00457599 	-0.00146386 	0.226952
0.01199 	0.0046679 	-0.00143514 	0.225874
0.0120401 	0.00475337 	-0.00141385 	0.224753
0.0120903 	0.00483495 	-0.00139706 	0.223607
0.0121405 	0.00485959 	-0.00137587 	0.222313
0.0121906 	0.00486161 	-0.00135293 	0.220961
0.0122408 	0.0047468 	-0.00131335 	0.219279
0.012291 	0.00460997 	-0.00127064 	0.217536
0.0123411 	0.00438631 	-0.0012165 	0.215418
0.0123913 	0.00418974 	-0.00116621 	0.213335
0.0124415 	0.00410724 	-0.0011321 	0.211405
0.0124916 	0.00412637 	-0.00111058 	0.209708
0.0125418 	0.00428866 	-0.00110682 	0.20834
0.012592 	0.00449569 	-0.0010975 	0.2071
0.0126421 	0.00472478 	-0.00108545 	0.205924
0.0126923 	0.00488286 	-0.00105265 	0.204585
0.0127425 	0.00501576 	-0.0010171 	0.203173
0.0127926 	0.00508974 	-0.00097678 	0.201586
0.0128428 	0.00513895 	-0.000939434 	0.199889
0.012893 	0.00517268 	-0.000903945 	0.198123
0.0129431 	0.00519473 	-0.000874514 	0.196226
0.0129933 	0.00521459 	-0.000845002 	0.194274
0.0130435 	0.00523123 	-0.000815271 	0.19224
0.0130936 	0.00524404 	-0.00078355 	0.190085
0.0131438 	0.00525512 	-0.000751219 	0.187861
0.013194 	0.00526387 	-0.000718417 	0.185531
0.0132441 	0.0052707 	-0.000685912 	0.183085
0.0132943 	0.00527613 	-0.000653635 	0.18056
0.0133445 	0.00527944 	-0.000621707 	0.177922
0.0133946 	0.00527907 	-0.000590166 	0.175144
0.0134448 	0.00527448 	-0.00055894 	0.172257
0.013495 	0.00526442 	-0.000528084 	0.169249
0.0135452 	0.00523649 	-0.000497172 	0.166008
0.0135953 	0.00519211 	-0.000466088 	0.162596
0.0136455 	0.00513106 	-0.000434975 	0.159
0.0136957 	0.00505127 	-0.000404173 	0.155175
0.0137458 	0.00496295 	-0.00037502 	0.151107
0.013796 	0.00487448 	-0.000347595 	0.146872
0.0138462 	0.0047864 	-0.000321695 	0.142465
0.0138963 	0.00469746 	-0.000296815 	0.137876
0.0139465 	0.00459928 	-0.000272525 	0.133016
0.0139967 	0.00448979 	-0.000249012 	0.127919
0.0140468 	0.0043684 	-0.000226576 	0.122574
0.014097 	0.00423461 	-0.000205465 	0.116964
0.0141472 	0.00408809 	-0.000185786 	0.111075
0.0141973 	0.00392817 	-0.000167374 	0.104893
0.0142475 	0.00375282 	-0.000150188 	0.0983649
0.0142977 	0.00356727 	-0.000134024 	0.0915507
0.0143478 	0.00337673 	-0.000118934 	0.0844862
0.014398 	0.00318732 	-0.000105003 	0.0772313
0.0144482 	0.0030051 	-9.2131e-05 	0.0698713
0.0144983 	0.002835 	-8.00861e-05 	0.0625114
0.0145485 	0.00267943 	-6.86627e-05 	0.0552659
0.0145987 	0.00253646 	-5.76775e-05 	0.0482399
0.0146488 	0.00239792 	-4.69221e-05 	0.0415061
0.014699 	0.00224783 	-3.62594e-05 	0.0350865
0.0147492 	0.00205991 	-2.5753e-05 	0.0289394
0.0147993 	0.00179202 	-1.5879e-05 	0.0229458
0.0148495 	0.00137553 	-6.95543e-06 	0.016903
0.0148997 	0.000783784 	-1.09755e-06 	0.0106963
0.0149498 	0.000213015 	7.57404e-07 	0.00474588
0.015 	0 	0 	0
