-0.0075 	0 	0 	0
-0.0075 	6.25018e-35 	-2.85075e-36 	1.85689e-31
-0.00745622 	5.13413e-06 	-2.34171e-07 	0.0152532
-0.00745622 	5.13413e-06 	-2.34171e-07 	0.0152532
-0.00741165 	9.79471e-06 	-7.95405e-07 	0.0296606
-0.00741165 	9.79471e-06 	-7.95405e-07 	0.0296606
-0.00736628 	1.426e-05 	-1.76512e-06 	0.0433238
-0.00736628 	1.426e-05 	-1.76512e-06 	0.0433238
-0.0073201 	1.86649e-05 	-3.15809e-06 	0.0562732
-0.0073201 	1.86649e-05 	-3.15809e-06 	0.0562732
-0.00727309 	2.29839e-05 	-4.99677e-06 	0.0685395
-0.00727309 	2.29839e-05 	-4.99677e-06 	0.0685395
-0.00722524 	2.71756e-05 	-7.28793e-06 	0.0801529
-0.00722524 	2.71756e-05 	-7.28793e-06 	0.0801529
-0.00717653 	3.12166e-05 	-1.00428e-05 	0.0911352
-0.00717653 	3.12166e-05 	-1.00428e-05 	0.0911352
-0.00712695 	3.50819e-05 	-1.32769e-05 	0.101487
-0.00712695 	3.50819e-05 	-1.32769e-05 	0.101487
-0.00707647 	3.87427e-05 	-1.70188e-05 	0.11119
-0.00707647 	3.87427e-05 	-1.70188e-05 	0.11119
-0.0070251 	4.21728e-05 	-2.1318e-05 	0.120221
-0.0070251 	4.21728e-05 	-2.1318e-05 	0.120221
-0.0069728 	4.5356e-05 	-2.62416e-05 	0.128576
-0.0069728 	4.5356e-05 	-2.62416e-05 	0.128576
-0.00691956 	4.82884e-05 	-3.18608e-05 	0.136269
-0.00691956 	4.82884e-05 	-3.18608e-05 	0.136269
-0.00686537 	5.09768e-05 	-3.82387e-05 	0.143335
-0.00686537 	5.09768e-05 	-3.82387e-05 	0.143335
-0.00681021 	5.34354e-05 	-4.54303e-05 	0.149826
-0.00681021 	5.34354e-05 	-4.54303e-05 	0.149826
-0.00675406 	5.56825e-05 	-5.3494e-05 	0.155796
-0.00675406 	5.56825e-05 	-5.3494e-05 	0.155796
-0.0066969 	5.77366e-05 	-6.24878e-05 	0.161301
-0.0066969 	5.77366e-05 	-6.24878e-05 	0.161301
-0.00663871 	5.96139e-05 	-7.24541e-05 	0.166387
-0.00663871 	5.96139e-05 	-7.24541e-05 	0.166387
-0.00657949 	6.13293e-05 	-8.34024e-05 	0.171096
-0.00657949 	6.13293e-05 	-8.34024e-05 	0.171096
-0.0065192 	6.28984e-05 	-9.53057e-05 	0.17547
-0.0065192 	6.28984e-05 	-9.53057e-05 	0.17547
-0.00645783 	6.43372e-05 	-0.000108119 	0.17955
-0.00645783 	6.43372e-05 	-0.000108119 	0.17955
-0.00639535 	6.56598e-05 	-0.000121791 	0.183373
-0.00639535 	6.56598e-05 	-0.000121791 	0.183373
-0.00633176 	6.68777e-05 	-0.000136273 	0.186971
-0.00633176 	6.68777e-05 	-0.000136273 	0.186971
-0.00626703 	6.80012e-05 	-0.00015151 	0.190369
-0.00626703 	6.80012e-05 	-0.00015151 	0.190369
-0.00620114 	6.90393e-05 	-0.000167445 	0.193591
-0.00620114 	6.90393e-05 	-0.000167445 	0.193591
-0.00613406 	7.00002e-05 	-0.000184018 	0.196658
-0.00613406 	7.00002e-05 	-0.000184018 	0.196658
-0.00606579 	7.08915e-05 	-0.000201167 	0.199587
-0.00606579 	7.08915e-05 	-0.000201167 	0.199587
-0.00599629 	7.17202e-05 	-0.000218826 	0.202395
-0.00599629 	7.17202e-05 	-0.000218826 	0.202395
-0.00592554 	7.24931e-05 	-0.000236926 	0.205097
-0.00592554 	7.24931e-05 	-0.000236926 	0.205097
-0.00585352 	7.32165e-05 	-0.000255393 	0.207709
-0.00585352 	7.32165e-05 	-0.000255393 	0.207709
-0.00578022 	7.38956e-05 	-0.000274139 	0.210242
-0.00578022 	7.38956e-05 	-0.000274139 	0.210242
-0.00570559 	7.4535e-05 	-0.000293063 	0.212707
-0.00570559 	7.4535e-05 	-0.000293063 	0.212707
-0.00562963 	7.51388e-05 	-0.000312065 	0.215113
-0.00562963 	7.51388e-05 	-0.000312065 	0.215113
-0.00555231 	7.57109e-05 	-0.000331041 	0.217465
-0.00555231 	7.57109e-05 	-0.000331041 	0.217465
-0.0054736 	7.62548e-05 	-0.000349887 	0.21977
-0.0054736 	7.62548e-05 	-0.000349887 	0.21977
-0.00539348 	7.67738e-05 	-0.000368498 	0.222033
-0.00539348 	7.67738e-05 	-0.000368498 	0.222033
-0.00531193 	7.72709e-05 	-0.000386766 	0.224257
-0.00531193 	7.72709e-05 	-0.000386766 	0.224257
-0.00522891 	7.77491e-05 	-0.000404585 	0.226446
-0.00522891 	7.77491e-05 	-0.000404585 	0.226446
-0.0051444 	7.82108e-05 	-0.000421852 	0.228602
-0.0051444 	7.82108e-05 	-0.000421852 	0.228602
-0.00505838 	7.86584e-05 	-0.000438466 	0.230725
-0.00505838 	7.86584e-05 	-0.000438466 	0.230725
-0.00497081 	7.90942e-05 	-0.000454331 	0.232818
-0.00497081 	7.90942e-05 	-0.000454331 	0.232818
-0.00488168 	7.95201e-05 	-0.000469355 	0.234879
-0.00488168 	7.95201e-05 	-0.000469355 	0.234879
-0.00479094 	7.99381e-05 	-0.000483454 	0.236909
-0.00479094 	7.99381e-05 	-0.000483454 	0.236909
-0.00469858 	8.035e-05 	-0.000496546 	0.238905
-0.00469858 	8.035e-05 	-0.000496546 	0.238905
-0.00460456 	8.07577e-05 	-0.000508555 	0.240868
-0.00460456 	8.07577e-05 	-0.000508555 	0.240868
-0.00450886 	8.11631e-05 	-0.000519417 	0.242794
-0.00450886 	8.11631e-05 	-0.000519417 	0.242794
-0.00441144 	8.1568e-05 	-0.000529097 	0.244682
-0.00441144 	8.1568e-05 	-0.000529097 	0.244682
-0.00431227 	8.19739e-05 	-0.000537593 	0.246531
-0.00431227 	8.19739e-05 	-0.000537593 	0.246531
-0.00421133 	8.23819e-05 	-0.000544936 	0.248338
-0.00421133 	8.23819e-05 	-0.000544936 	0.248338
-0.00410857 	8.27929e-05 	-0.000551183 	0.250102
-0.00410857 	8.27929e-05 	-0.000551183 	0.250102
-0.00400397 	8.32085e-05 	-0.000556415 	0.251818
-0.00400397 	8.32085e-05 	-0.000556415 	0.251818
-0.0038975 	8.36309e-05 	-0.000560731 	0.253485
-0.0038975 	8.36309e-05 	-0.000560731 	0.253485
-0.00378912 	8.40627e-05 	-0.00056423 	0.255104
-0.00378912 	8.40627e-05 	-0.00056423 	0.255104
-0.00367879 	8.45043e-05 	-0.000566994 	0.256679
-0.00367879 	8.45043e-05 	-0.000566994 	0.256679
-0.00356649 	8.49545e-05 	-0.000569095 	0.25821
-0.00356649 	8.49545e-05 	-0.000569095 	0.25821
-0.00345217 	8.54115e-05 	-0.000570592 	0.259696
-0.00345217 	8.54115e-05 	-0.000570592 	0.259696
-0.0033358 	8.58736e-05 	-0.000571551 	0.261133
-0.0033358 	8.58736e-05 	-0.000571551 	0.261133
-0.00321735 	8.63393e-05 	-0.000572044 	0.26252
-0.00321735 	8.63393e-05 	-0.000572044 	0.26252
-0.00309677 	8.68062e-05 	-0.000572147 	0.263853
-0.00309677 	8.68062e-05 	-0.000572147 	0.263853
-0.00297403 	8.7272e-05 	-0.000571944 	0.26513
-0.00297403 	8.7272e-05 	-0.000571944 	0.26513
-0.00284909 	8.77334e-05 	-0.00057152 	0.266348
-0.00284909 	8.77334e-05 	-0.00057152 	0.266348
-0.0027219 	8.81872e-05 	-0.000570962 	0.267505
-0.0027219 	8.81872e-05 	-0.000570962 	0.267505
-0.00259244 	8.86296e-05 	-0.000570357 	0.268597
-0.00259244 	8.86296e-05 	-0.000570357 	0.268597
-0.00246065 	8.9057e-05 	-0.000569784 	0.269622
-0.00246065 	8.9057e-05 	-0.000569784 	0.269622
-0.00232651 	8.94655e-05 	-0.000569316 	0.270577
-0.00232651 	8.94655e-05 	-0.000569316 	0.270577
-0.00218995 	8.98512e-05 	-0.000569011 	0.27146
-0.00218995 	8.98512e-05 	-0.000569011 	0.27146
-0.00205095 	9.02101e-05 	-0.000568917 	0.27227
-0.00205095 	9.02101e-05 	-0.000568917 	0.27227
-0.00190946 	9.05386e-05 	-0.000569063 	0.273005
-0.00190946 	9.05386e-05 	-0.000569063 	0.273005
-0.00176543 	9.08326e-05 	-0.000569461 	0.273663
-0.00176543 	9.08326e-05 	-0.000569461 	0.273663
-0.00161881 	9.10878e-05 	-0.000570107 	0.274244
-0.00161881 	9.10878e-05 	-0.000570107 	0.274244
-0.00146957 	9.12986e-05 	-0.000570971 	0.274748
-0.00146957 	9.12986e-05 	-0.000570971 	0.274748
-0.00131765 	9.14587e-05 	-0.000572009 	0.275174
-0.00131765 	9.14587e-05 	-0.000572009 	0.275174
-0.001163 	9.15614e-05 	-0.000573161 	0.275524
-0.001163 	9.15614e-05 	-0.000573161 	0.275524
-0.00100559 	9.15994e-05 	-0.000574365 	0.275797
-0.00100559 	9.15994e-05 	-0.000574365 	0.275797
-0.000845345 	9.15641e-05 	-0.000575516 	0.275993
-0.000845345 	9.15641e-05 	-0.000575516 	0.275993
-0.000682232 	9.14458e-05 	-0.000576577 	0.27611
-0.000682232 	9.14458e-05 	-0.000576577 	0.27611
-0.000516194 	9.12331e-05 	-0.000577527 	0.276147
-0.000516194 	9.12331e-05 	-0.000577527 	0.276147
-0.000347178 	9.09142e-05 	-0.00057824 	0.276102
-0.000347178 	9.09142e-05 	-0.00057824 	0.276102
-0.000175132 	9.04742e-05 	-0.000578764 	0.275972
-0.000175132 	9.04742e-05 	-0.000578764 	0.275972
0 	8.99006e-05 	-0.000578977 	0.275755
0 	8.99006e-05 	-0.000578977 	0.275755
0 	8.99006e-05 	-0.000578977 	0.275755
0 	8.99006e-05 	-0.000578977 	0.275755
0.000175132 	8.91988e-05 	-0.000578717 	0.275454
0.000175132 	9.13145e-05 	-0.000517049 	0.271369
0.000347178 	8.83853e-05 	-0.000578083 	0.275074
0.000347178 	9.20664e-05 	-0.00051852 	0.271066
0.000516194 	8.74802e-05 	-0.000576978 	0.274621
0.000516194 	9.26384e-05 	-0.000519455 	0.270682
0.000682232 	8.65021e-05 	-0.000575424 	0.274099
0.000682232 	9.3048e-05 	-0.00051986 	0.270222
0.000845345 	8.54645e-05 	-0.000573531 	0.27351
0.000845345 	9.33108e-05 	-0.000519964 	0.26969
0.00100559 	8.43801e-05 	-0.000571269 	0.272859
0.00100559 	9.34427e-05 	-0.000519653 	0.26909
0.001163 	8.32602e-05 	-0.000568657 	0.272148
0.001163 	9.34588e-05 	-0.000518932 	0.268425
0.00131765 	8.21148e-05 	-0.000565713 	0.271379
0.00131765 	9.33725e-05 	-0.00051781 	0.267698
0.00146957 	8.09526e-05 	-0.000562455 	0.270554
0.00146957 	9.31955e-05 	-0.000516293 	0.266913
0.00161881 	7.97812e-05 	-0.000558897 	0.269676
0.00161881 	9.29383e-05 	-0.000514393 	0.266071
0.00176543 	7.8607e-05 	-0.000555053 	0.268746
0.00176543 	9.26099e-05 	-0.000512119 	0.265174
0.00190946 	7.74354e-05 	-0.000550936 	0.267766
0.00190946 	9.22183e-05 	-0.000509483 	0.264225
0.00205095 	7.6271e-05 	-0.000546553 	0.266736
0.00205095 	9.17705e-05 	-0.000506491 	0.263225
0.00218995 	7.51176e-05 	-0.000541913 	0.265659
0.00218995 	9.12727e-05 	-0.00050315 	0.262175
0.00232651 	7.39784e-05 	-0.000537021 	0.264535
0.00232651 	9.07302e-05 	-0.000499466 	0.261076
0.00246065 	7.28561e-05 	-0.00053188 	0.263365
0.00246065 	9.01477e-05 	-0.000495442 	0.25993
0.00259244 	7.17528e-05 	-0.000526492 	0.262149
0.00259244 	8.95295e-05 	-0.000491077 	0.258737
0.0027219 	7.06705e-05 	-0.000520856 	0.260889
0.0027219 	8.88792e-05 	-0.000486372 	0.257498
0.00284909 	6.96107e-05 	-0.00051497 	0.259584
0.00284909 	8.81997e-05 	-0.00048132 	0.256213
0.00297403 	6.85746e-05 	-0.000508829 	0.258234
0.00297403 	8.74937e-05 	-0.000475915 	0.254883
0.00309677 	6.75632e-05 	-0.000502428 	0.25684
0.00309677 	8.67632e-05 	-0.000470148 	0.253508
0.00321735 	6.6577e-05 	-0.000495761 	0.255401
0.00321735 	8.60103e-05 	-0.000464011 	0.252088
0.0033358 	6.56168e-05 	-0.000488822 	0.253917
0.0033358 	8.52366e-05 	-0.000457495 	0.250622
0.00345217 	8.44436e-05 	-0.000450602 	0.249109
0.00345217 	6.46826e-05 	-0.000481607 	0.252387
0.00356649 	6.37747e-05 	-0.000474105 	0.25081
0.00356649 	8.36339e-05 	-0.000443327 	0.247549
0.00367879 	6.28931e-05 	-0.000466297 	0.249186
0.00367879 	8.28117e-05 	-0.000435653 	0.245943
0.00378912 	6.20379e-05 	-0.00045816 	0.247513
0.00378912 	8.19797e-05 	-0.000427559 	0.244291
0.0038975 	6.12083e-05 	-0.00044965 	0.245788
0.0038975 	8.11371e-05 	-0.000418988 	0.242589
0.00400397 	6.04027e-05 	-0.000440701 	0.244007
0.00400397 	8.02797e-05 	-0.000409837 	0.240823
0.00410857 	7.94041e-05 	-0.000399999 	0.238983
0.00410857 	5.96196e-05 	-0.000431232 	0.242163
0.00421133 	5.88573e-05 	-0.000421157 	0.240251
0.00421133 	7.85081e-05 	-0.000389382 	0.237062
0.00431227 	5.81128e-05 	-0.000410395 	0.238264
0.00431227 	7.75895e-05 	-0.000377927 	0.235056
0.00441144 	5.73829e-05 	-0.0003989 	0.236195
0.00441144 	7.66466e-05 	-0.000365617 	0.232961
0.00450886 	5.6665e-05 	-0.000386659 	0.234039
0.00450886 	7.56774e-05 	-0.000352481 	0.230773
0.00460456 	5.59569e-05 	-0.00037368 	0.23179
0.00460456 	7.46804e-05 	-0.000338565 	0.228488
0.00469858 	5.52568e-05 	-0.000359981 	0.229446
0.00469858 	7.36537e-05 	-0.00032392 	0.226102
0.00479094 	5.45625e-05 	-0.000345585 	0.226999
0.00479094 	7.25955e-05 	-0.000308599 	0.223611
0.00488168 	5.38719e-05 	-0.000330526 	0.224447
0.00488168 	7.15038e-05 	-0.000292666 	0.22101
0.00497081 	5.31828e-05 	-0.000314846 	0.221785
0.00497081 	7.03764e-05 	-0.000276189 	0.218296
0.00505838 	5.24926e-05 	-0.000298603 	0.219009
0.00505838 	6.92114e-05 	-0.000259254 	0.215465
0.0051444 	5.17992e-05 	-0.000281874 	0.216114
0.0051444 	6.80068e-05 	-0.00024196 	0.212513
0.00522891 	5.10999e-05 	-0.000264749 	0.213099
0.00522891 	6.67609e-05 	-0.000224425 	0.209439
0.00531193 	5.03922e-05 	-0.000247337 	0.209958
0.00531193 	6.54721e-05 	-0.000206783 	0.206239
0.00539348 	4.96738e-05 	-0.000229761 	0.20669
0.00539348 	6.41393e-05 	-0.00018918 	0.202912
0.0054736 	4.8942e-05 	-0.000212154 	0.20329
0.0054736 	6.27613e-05 	-0.00017177 	0.199456
0.00555231 	4.8194e-05 	-0.000194653 	0.199757
0.00555231 	6.13367e-05 	-0.000154708 	0.19587
0.00562963 	4.7427e-05 	-0.000177399 	0.196086
0.00562963 	5.98643e-05 	-0.000138142 	0.192152
0.00570559 	4.66382e-05 	-0.000160526 	0.192273
0.00570559 	5.83425e-05 	-0.000122211 	0.188299
0.00578022 	4.58242e-05 	-0.000144163 	0.188313
0.00578022 	5.67695e-05 	-0.000107038 	0.184308
0.00585352 	4.49819e-05 	-0.000128426 	0.184202
0.00585352 	5.51434e-05 	-9.27274e-05 	0.180173
0.00592554 	4.41077e-05 	-0.000113418 	0.179932
0.00592554 	5.3462e-05 	-7.93642e-05 	0.175892
0.00599629 	4.31979e-05 	-9.92253e-05 	0.175497
0.00599629 	5.17228e-05 	-6.70107e-05 	0.171456
0.00606579 	4.22486e-05 	-8.59227e-05 	0.170888
0.00606579 	4.99228e-05 	-5.57103e-05 	0.166857
0.00613406 	4.12548e-05 	-7.3571e-05 	0.166092
0.00613406 	4.80582e-05 	-4.54863e-05 	0.162083
0.00620114 	4.61242e-05 	-3.63452e-05 	0.157117
0.00620114 	4.02108e-05 	-6.22168e-05 	0.161093
0.00626703 	3.91103e-05 	-5.18995e-05 	0.155876
0.00626703 	4.4117e-05 	-2.82874e-05 	0.151945
0.00633176 	4.20341e-05 	-2.12994e-05 	0.146553
0.00633176 	3.79476e-05 	-4.26465e-05 	0.150427
0.00639535 	3.98735e-05 	-1.53461e-05 	0.140928
0.00639535 	3.67167e-05 	-3.44625e-05 	0.144731
0.00645783 	3.54115e-05 	-2.73331e-05 	0.138775
0.00645783 	3.76341e-05 	-1.03764e-05 	0.135055
0.0065192 	3.40253e-05 	-2.1228e-05 	0.132543
0.0065192 	3.53159e-05 	-6.32706e-06 	0.128918
0.00657949 	3.25517e-05 	-1.61044e-05 	0.126019
0.00657949 	3.29208e-05 	-3.12575e-06 	0.122503
0.00663871 	3.09846e-05 	-1.19065e-05 	0.119189
0.00663871 	3.04528e-05 	-6.93741e-07 	0.115795
0.0066969 	2.93165e-05 	-8.54841e-06 	0.112034
0.0066969 	2.79152e-05 	1.06171e-06 	0.108769
0.00675406 	2.5309e-05 	2.23784e-06 	0.10139
0.00675406 	2.75362e-05 	-5.93002e-06 	0.104519
0.00681021 	2.26428e-05 	2.92875e-06 	0.0936438
0.00681021 	2.56338e-05 	-3.94785e-06 	0.0966234
0.00686537 	1.99416e-05 	3.22834e-06 	0.0855599
0.00686537 	2.36092e-05 	-2.50235e-06 	0.0883665
0.00691956 	1.72467e-05 	3.22667e-06 	0.0772125
0.00691956 	2.14757e-05 	-1.5073e-06 	0.0798196
0.0069728 	1.46137e-05 	3.01108e-06 	0.0687213
0.0069728 	1.92615e-05 	-8.70284e-07 	0.0711026
0.0070251 	1.7009e-05 	-4.97574e-07 	0.0623792
0.0070251 	1.21069e-05 	2.66231e-06 	0.0602454
0.00707647 	1.47697e-05 	-3.01546e-07 	0.0538369
0.00707647 	9.78984e-06 	2.24966e-06 	0.0519634
0.00712695 	1.25954e-05 	-2.08157e-07 	0.0456544
0.00712695 	7.71353e-06 	1.82741e-06 	0.0440428
0.00717653 	1.05284e-05 	-1.63295e-07 	0.0379688
0.00717653 	5.90836e-06 	1.43221e-06 	0.0366101
0.00722524 	8.59563e-06 	-1.33327e-07 	0.0308584
0.00722524 	4.38263e-06 	1.08482e-06 	0.0297373
0.00727309 	3.12861e-06 	7.92854e-07 	0.0234471
0.00727309 	6.81087e-06 	-1.02509e-07 	0.0243483
0.0073201 	2.132e-06 	5.54436e-07 	0.0177297
0.0073201 	5.18309e-06 	-6.66731e-08 	0.0184282
0.00736628 	1.38238e-06 	3.63814e-07 	0.0125587
0.00736628 	3.73029e-06 	-3.05347e-08 	0.0130704
0.00741165 	2.44623e-06 	-3.078e-09 	0.00824031
0.00741165 	8.37466e-07 	2.08354e-07 	0.00790103
0.00745622 	1.24042e-06 	9.47804e-09 	0.00390123
0.00745622 	3.96978e-07 	8.78393e-08 	0.00372117
0.0075 	0 	0 	0
0.0075 	0 	0 	0
