0 	0 	0 	0
5.01672e-05 	-2.24389e-05 	-4.5329e-06 	0.0203549
0.000100334 	-4.48779e-05 	-9.0658e-06 	0.0407098
0.000150502 	-6.73168e-05 	-1.35987e-05 	0.0610647
0.000200669 	-8.97558e-05 	-1.81316e-05 	0.0814196
0.000250836 	-0.000112195 	-2.26645e-05 	0.101775
0.000301003 	-0.000134634 	-2.71974e-05 	0.122129
0.000351171 	-0.000154998 	-3.24442e-05 	0.140374
0.000401338 	-0.00016752 	-4.03904e-05 	0.150636
0.000451505 	-0.000180041 	-4.83367e-05 	0.160898
0.000501672 	-0.000192563 	-5.62829e-05 	0.171161
0.000551839 	-0.000205084 	-6.42292e-05 	0.181423
0.000602007 	-0.000217606 	-7.21754e-05 	0.191686
0.000652174 	-0.000230127 	-8.01217e-05 	0.201948
0.000702341 	-0.000242649 	-8.80679e-05 	0.21221
0.000752508 	-0.000252387 	-9.62379e-05 	0.221044
0.000802676 	-0.000255223 	-0.000104963 	0.226337
0.000852843 	-0.000258058 	-0.000113687 	0.23163
0.00090301 	-0.000260894 	-0.000122412 	0.236923
0.000953177 	-0.00026373 	-0.000131137 	0.242215
0.00100334 	-0.000266566 	-0.000139862 	0.247508
0.00105351 	-0.000269402 	-0.000148587 	0.252801
0.00110368 	-0.000272237 	-0.000157311 	0.258093
0.00115385 	-0.000275073 	-0.000166036 	0.263386
0.00120401 	-0.000277709 	-0.000174718 	0.268573
0.00125418 	-0.000276233 	-0.000182527 	0.271592
0.00130435 	-0.000274758 	-0.000190335 	0.274612
0.00135452 	-0.000273283 	-0.000198143 	0.277631
0.00140468 	-0.000271807 	-0.000205952 	0.280651
0.00145485 	-0.000270332 	-0.00021376 	0.28367
0.00150502 	-0.000268857 	-0.000221569 	0.286689
0.00155518 	-0.000267381 	-0.000229377 	0.289709
0.00160535 	-0.000265906 	-0.000237186 	0.292728
0.00165552 	-0.000264431 	-0.000244994 	0.295748
0.00170569 	-0.000262955 	-0.000252802 	0.298767
0.00175585 	-0.000261225 	-0.000260202 	0.301497
0.00180602 	-0.000258793 	-0.000266479 	0.303432
0.00185619 	-0.000256361 	-0.000272756 	0.305366
0.00190635 	-0.000253928 	-0.000279032 	0.307301
0.00195652 	-0.000251496 	-0.000285309 	0.309235
0.00200669 	-0.000249064 	-0.000291586 	0.311169
0.00205686 	-0.000246632 	-0.000297862 	0.313104
0.00210702 	-0.0002442 	-0.000304139 	0.315038
0.00215719 	-0.000241767 	-0.000310416 	0.316973
0.00220736 	-0.000239335 	-0.000316692 	0.318907
0.00225753 	-0.000236903 	-0.000322969 	0.320841
0.00230769 	-0.000234471 	-0.000329245 	0.322776
0.00235786 	-0.000232039 	-0.000335522 	0.32471
0.00240803 	-0.000229851 	-0.000340628 	0.326211
0.00245819 	-0.000227773 	-0.000345211 	0.327518
0.00250836 	-0.000225695 	-0.000349794 	0.328825
0.00255853 	-0.000223617 	-0.000354377 	0.330132
0.0026087 	-0.000221538 	-0.000358961 	0.331439
0.00265886 	-0.00021946 	-0.000363544 	0.332746
0.00270903 	-0.000217382 	-0.000368127 	0.334053
0.0027592 	-0.000215304 	-0.00037271 	0.33536
0.00280936 	-0.000213226 	-0.000377294 	0.336668
0.00285953 	-0.000211147 	-0.000381877 	0.337975
0.0029097 	-0.000209069 	-0.00038646 	0.339282
0.00295987 	-0.000206991 	-0.000391043 	0.340589
0.00301003 	-0.000204913 	-0.000395627 	0.341896
0.0030602 	-0.000202834 	-0.00040021 	0.343203
0.00311037 	-0.00020077 	-0.000404763 	0.3445
0.00316054 	-0.000199319 	-0.000407997 	0.345378
0.0032107 	-0.000197867 	-0.000411231 	0.346255
0.00326087 	-0.000196416 	-0.000414465 	0.347133
0.00331104 	-0.000194964 	-0.000417699 	0.34801
0.0033612 	-0.000193513 	-0.000420933 	0.348888
0.00341137 	-0.000192062 	-0.000424166 	0.349765
0.00346154 	-0.00019061 	-0.0004274 	0.350643
0.00351171 	-0.000189159 	-0.000430634 	0.35152
0.00356187 	-0.000187707 	-0.000433868 	0.352398
0.00361204 	-0.000186256 	-0.000437102 	0.353275
0.00366221 	-0.000184804 	-0.000440336 	0.354153
0.00371237 	-0.000183353 	-0.00044357 	0.35503
0.00376254 	-0.000181901 	-0.000446804 	0.355908
0.00381271 	-0.00018045 	-0.000450038 	0.356785
0.00386288 	-0.000178998 	-0.000453272 	0.357663
0.00391304 	-0.000177547 	-0.000456506 	0.35854
0.00396321 	-0.000176095 	-0.00045974 	0.359418
0.00401338 	-0.000175051 	-0.000462129 	0.359997
0.00406355 	-0.000174047 	-0.000464435 	0.360547
0.00411371 	-0.000173043 	-0.000466741 	0.361096
0.00416388 	-0.000172039 	-0.000469047 	0.361646
0.00421405 	-0.000171035 	-0.000471352 	0.362195
0.00426421 	-0.000170031 	-0.000473658 	0.362745
0.00431438 	-0.000169026 	-0.000475964 	0.363295
0.00436455 	-0.000168022 	-0.00047827 	0.363844
0.00441472 	-0.000167018 	-0.000480576 	0.364394
0.00446488 	-0.000166014 	-0.000482882 	0.364944
0.00451505 	-0.00016501 	-0.000485188 	0.365493
0.00456522 	-0.000164006 	-0.000487494 	0.366043
0.00461538 	-0.000163001 	-0.000489799 	0.366593
0.00466555 	-0.000161997 	-0.000492105 	0.367142
0.00471572 	-0.000160993 	-0.000494411 	0.367692
0.00476589 	-0.000159989 	-0.000496717 	0.368242
0.00481605 	-0.000158985 	-0.000499023 	0.368791
0.00486622 	-0.000157981 	-0.000501329 	0.369341
0.00491639 	-0.000156977 	-0.000503635 	0.369891
0.00496656 	-0.000155972 	-0.000505941 	0.37044
0.00501672 	-0.000155176 	-0.000507525 	0.37074
0.00506689 	-0.000154391 	-0.000509071 	0.371027
0.00511706 	-0.000153606 	-0.000510618 	0.371313
0.00516722 	-0.000152821 	-0.000512164 	0.3716
0.00521739 	-0.000152036 	-0.00051371 	0.371886
0.00526756 	-0.000151251 	-0.000515256 	0.372173
0.00531773 	-0.000150466 	-0.000516802 	0.372459
0.00536789 	-0.000149681 	-0.000518348 	0.372746
0.00541806 	-0.000148896 	-0.000519894 	0.373033
0.00546823 	-0.000148111 	-0.00052144 	0.373319
0.00551839 	-0.000147326 	-0.000522986 	0.373606
0.00556856 	-0.000146541 	-0.000524532 	0.373892
0.00561873 	-0.000145755 	-0.000526078 	0.374179
0.0056689 	-0.00014497 	-0.000527624 	0.374465
0.00571906 	-0.000144185 	-0.00052917 	0.374752
0.00576923 	-0.0001434 	-0.000530716 	0.375038
0.0058194 	-0.000142615 	-0.000532262 	0.375325
0.00586957 	-0.00014183 	-0.000533809 	0.375612
0.00591973 	-0.000141045 	-0.000535355 	0.375898
0.0059699 	-0.00014026 	-0.000536901 	0.376185
0.00602007 	-0.000139475 	-0.000538447 	0.376471
0.00607023 	-0.00013869 	-0.000539993 	0.376758
0.0061204 	-0.000137905 	-0.000541539 	0.377044
0.00617057 	-0.000137217 	-0.000542567 	0.377185
0.00622074 	-0.00013658 	-0.000543333 	0.377251
0.0062709 	-0.000135942 	-0.000544098 	0.377317
0.00632107 	-0.000135304 	-0.000544864 	0.377383
0.00637124 	-0.000134666 	-0.000545629 	0.377449
0.0064214 	-0.000134029 	-0.000546395 	0.377515
0.00647157 	-0.000133391 	-0.00054716 	0.377581
0.00652174 	-0.000132753 	-0.000547926 	0.377648
0.00657191 	-0.000132115 	-0.000548691 	0.377714
0.00662207 	-0.000131477 	-0.000549456 	0.37778
0.00667224 	-0.00013084 	-0.000550222 	0.377846
0.00672241 	-0.000130202 	-0.000550987 	0.377912
0.00677258 	-0.000129564 	-0.000551753 	0.377978
0.00682274 	-0.000128926 	-0.000552518 	0.378044
0.00687291 	-0.000128289 	-0.000553284 	0.378111
0.00692308 	-0.000127651 	-0.000554049 	0.378177
0.00697324 	-0.000127013 	-0.000554815 	0.378243
0.00702341 	-0.000126375 	-0.00055558 	0.378309
0.00707358 	-0.000125737 	-0.000556346 	0.378375
0.00712375 	-0.0001251 	-0.000557111 	0.378441
0.00717391 	-0.000124462 	-0.000557877 	0.378507
0.00722408 	-0.000123824 	-0.000558642 	0.378574
0.00727425 	-0.000123186 	-0.000559408 	0.37864
0.00732441 	-0.000122548 	-0.000560173 	0.378706
0.00737458 	-0.000121911 	-0.000560939 	0.378772
0.00742475 	-0.000121273 	-0.000561704 	0.378838
0.00747492 	-0.000120635 	-0.00056247 	0.378904
0.00752508 	-0.000120055 	-0.000562848 	0.378871
0.00757525 	-0.000119533 	-0.000562838 	0.378739
0.00762542 	-0.00011901 	-0.000562829 	0.378607
0.00767559 	-0.000118488 	-0.000562819 	0.378475
0.00772575 	-0.000117966 	-0.000562809 	0.378342
0.00777592 	-0.000117443 	-0.0005628 	0.37821
0.00782609 	-0.000116921 	-0.00056279 	0.378078
0.00787625 	-0.000116399 	-0.000562781 	0.377946
0.00792642 	-0.000115876 	-0.000562771 	0.377814
0.00797659 	-0.000115354 	-0.000562762 	0.377681
0.00802676 	-0.000114832 	-0.000562752 	0.377549
0.00807692 	-0.000114309 	-0.000562742 	0.377417
0.00812709 	-0.000113787 	-0.000562733 	0.377285
0.00817726 	-0.000113265 	-0.000562723 	0.377153
0.00822742 	-0.000112742 	-0.000562714 	0.377021
0.00827759 	-0.00011222 	-0.000562704 	0.376888
0.00832776 	-0.000111698 	-0.000562695 	0.376756
0.00837793 	-0.000111175 	-0.000562685 	0.376624
0.00842809 	-0.000110653 	-0.000562676 	0.376492
0.00847826 	-0.000110131 	-0.000562666 	0.37636
0.00852843 	-0.000109608 	-0.000562656 	0.376227
0.0085786 	-0.000109086 	-0.000562647 	0.376095
0.00862876 	-0.000108564 	-0.000562637 	0.375963
0.00867893 	-0.000108041 	-0.000562628 	0.375831
0.0087291 	-0.000107519 	-0.000562618 	0.375699
0.00877926 	-0.000106997 	-0.000562609 	0.375566
0.00882943 	-0.000106474 	-0.000562599 	0.375434
0.0088796 	-0.000106006 	-0.00056227 	0.375221
0.00892977 	-0.000105645 	-0.000561312 	0.374849
0.00897993 	-0.000105284 	-0.000560354 	0.374476
0.0090301 	-0.000104923 	-0.000559396 	0.374104
0.00908027 	-0.000104562 	-0.000558438 	0.373731
0.00913043 	-0.0001042 	-0.000557479 	0.373359
0.0091806 	-0.000103839 	-0.000556521 	0.372986
0.00923077 	-0.000103478 	-0.000555563 	0.372614
0.00928094 	-0.000103117 	-0.000554605 	0.372241
0.0093311 	-0.000102756 	-0.000553647 	0.371869
0.00938127 	-0.000102394 	-0.000552689 	0.371496
0.00943144 	-0.000102033 	-0.00055173 	0.371124
0.00948161 	-0.000101672 	-0.000550772 	0.370752
0.00953177 	-0.000101311 	-0.000549814 	0.370379
0.00958194 	-0.00010095 	-0.000548856 	0.370007
0.00963211 	-0.000100588 	-0.000547898 	0.369634
0.00968227 	-0.000100227 	-0.00054694 	0.369262
0.00973244 	-9.98661e-05 	-0.000545981 	0.368889
0.00978261 	-9.95049e-05 	-0.000545023 	0.368517
0.00983278 	-9.91437e-05 	-0.000544065 	0.368144
0.00988294 	-9.87825e-05 	-0.000543107 	0.367772
0.00993311 	-9.84213e-05 	-0.000542149 	0.367399
0.00998328 	-9.80601e-05 	-0.000541191 	0.367027
0.0100334 	-9.77167e-05 	-0.000540176 	0.36664
0.0100836 	-9.77055e-05 	-0.000538114 	0.365983
0.0101338 	-9.76943e-05 	-0.000536052 	0.365327
0.0101839 	-9.7683e-05 	-0.00053399 	0.36467
0.0102341 	-9.76718e-05 	-0.000531928 	0.364014
0.0102843 	-9.76606e-05 	-0.000529866 	0.363357
0.0103344 	-9.76493e-05 	-0.000527804 	0.362701
0.0103846 	-9.76381e-05 	-0.000525742 	0.362044
0.0104348 	-9.76269e-05 	-0.000523679 	0.361388
0.0104849 	-9.76156e-05 	-0.000521617 	0.360731
0.0105351 	-9.76044e-05 	-0.000519555 	0.360075
0.0105853 	-9.75932e-05 	-0.000517493 	0.359418
0.0106355 	-9.75819e-05 	-0.000515431 	0.358762
0.0106856 	-9.75707e-05 	-0.000513369 	0.358105
0.0107358 	-9.75595e-05 	-0.000511307 	0.357448
0.010786 	-9.75482e-05 	-0.000509245 	0.356792
0.0108361 	-9.7537e-05 	-0.000507182 	0.356135
0.0108863 	-9.75258e-05 	-0.00050512 	0.355479
0.0109365 	-9.75145e-05 	-0.000503058 	0.354822
0.0109866 	-9.75033e-05 	-0.000500996 	0.354166
0.0110368 	-9.75482e-05 	-0.000498792 	0.353476
0.011087 	-9.81657e-05 	-0.000495138 	0.352452
0.0111371 	-9.87832e-05 	-0.000491484 	0.351428
0.0111873 	-9.94007e-05 	-0.000487831 	0.350403
0.0112375 	-0.000100018 	-0.000484177 	0.349379
0.0112876 	-0.000100636 	-0.000480523 	0.348355
0.0113378 	-0.000101253 	-0.00047687 	0.34733
0.011388 	-0.000101871 	-0.000473216 	0.346306
0.0114381 	-0.000102488 	-0.000469562 	0.345282
0.0114883 	-0.000103106 	-0.000465908 	0.344257
0.0115385 	-0.000103723 	-0.000462255 	0.343233
0.0115886 	-0.000104341 	-0.000458601 	0.342209
0.0116388 	-0.000104958 	-0.000454947 	0.341184
0.011689 	-0.000105576 	-0.000451294 	0.34016
0.0117391 	-0.000106193 	-0.00044764 	0.339135
0.0117893 	-0.000106811 	-0.000443986 	0.338111
0.0118395 	-0.000107428 	-0.000440333 	0.337087
0.0118896 	-0.000108046 	-0.000436679 	0.336062
0.0119398 	-0.000109553 	-0.00043054 	0.3345
0.01199 	-0.000111081 	-0.000424344 	0.332925
0.0120401 	-0.000112609 	-0.000418149 	0.33135
0.0120903 	-0.000114136 	-0.000411953 	0.329775
0.0121405 	-0.000115664 	-0.000405757 	0.3282
0.0121906 	-0.000117192 	-0.000399561 	0.326626
0.0122408 	-0.00011872 	-0.000393365 	0.325051
0.012291 	-0.000120248 	-0.000387169 	0.323476
0.0123411 	-0.000121776 	-0.000380973 	0.321901
0.0123913 	-0.000123304 	-0.000374777 	0.320326
0.0124415 	-0.000124831 	-0.000368581 	0.318751
0.0124916 	-0.000126359 	-0.000362385 	0.317176
0.0125418 	-0.000127887 	-0.000356189 	0.315602
0.012592 	-0.000129415 	-0.000349994 	0.314027
0.0126421 	-0.000131198 	-0.000342837 	0.312167
0.0126923 	-0.000133555 	-0.000333524 	0.309669
0.0127425 	-0.000135911 	-0.000324211 	0.307171
0.0127926 	-0.000138268 	-0.000314898 	0.304673
0.0128428 	-0.000140624 	-0.000305585 	0.302175
0.012893 	-0.000142981 	-0.000296272 	0.299677
0.0129431 	-0.000145338 	-0.00028696 	0.297179
0.0129933 	-0.000147694 	-0.000277647 	0.294681
0.0130435 	-0.000150051 	-0.000268334 	0.292183
0.0130936 	-0.000152407 	-0.000259021 	0.289685
0.0131438 	-0.000154764 	-0.000249708 	0.287187
0.013194 	-0.00015712 	-0.000240396 	0.284689
0.0132441 	-0.000159477 	-0.000231083 	0.282191
0.0132943 	-0.00016152 	-0.000220187 	0.278478
0.0133445 	-0.000163449 	-0.000208716 	0.274324
0.0133946 	-0.000165378 	-0.000197245 	0.27017
0.0134448 	-0.000167307 	-0.000185774 	0.266016
0.013495 	-0.000169236 	-0.000174303 	0.261862
0.0135452 	-0.000171165 	-0.000162832 	0.257708
0.0135953 	-0.000173095 	-0.000151361 	0.253554
0.0136455 	-0.000175024 	-0.00013989 	0.2494
0.0136957 	-0.000176953 	-0.000128419 	0.245246
0.0137458 	-0.000178882 	-0.000116947 	0.241092
0.013796 	-0.000180811 	-0.000105476 	0.236938
0.0138462 	-0.000178753 	-9.5678e-05 	0.229498
0.0138963 	-0.000176501 	-8.59612e-05 	0.221898
0.0139465 	-0.000174249 	-7.62443e-05 	0.214297
0.0139967 	-0.000171996 	-6.65274e-05 	0.206697
0.0140468 	-0.000169744 	-5.68106e-05 	0.199096
0.014097 	-0.000167492 	-4.70937e-05 	0.191496
0.0141472 	-0.00016524 	-3.73768e-05 	0.183895
0.0141973 	-0.000162987 	-2.766e-05 	0.176295
0.0142475 	-0.000160735 	-1.79431e-05 	0.168694
0.0142977 	-0.000153106 	-1.29022e-05 	0.158163
0.0143478 	-0.000143308 	-9.74706e-06 	0.146451
0.014398 	-0.00013351 	-6.59195e-06 	0.134738
0.0144482 	-0.000123713 	-3.43684e-06 	0.123025
0.0144983 	-0.000113915 	-2.81725e-07 	0.111312
0.0145485 	-0.000104117 	2.87339e-06 	0.0995996
0.0145987 	-9.43192e-05 	6.0285e-06 	0.0878868
0.0146488 	-8.45214e-05 	9.18361e-06 	0.076174
0.014699 	-7.28676e-05 	8.69709e-06 	0.0651385
0.0147492 	-6.0723e-05 	7.24758e-06 	0.0542821
0.0147993 	-4.85784e-05 	5.79806e-06 	0.0434257
0.0148495 	-3.64338e-05 	4.34855e-06 	0.0325693
0.0148997 	-2.42892e-05 	2.89903e-06 	0.0217128
0.0149498 	-1.21446e-05 	1.44952e-06 	0.0108564
0.015 	0 	0 	0
