/*--------------------------------*- C++ -*----------------------------------*\
| =========                 |                                                 |
| \\      /  F ield         | OpenFOAM: The Open Source CFD Toolbox           |
|  \\    /   O peration     | Version:  v1912                                 |
|   \\  /    A nd           | Website:  www.openfoam.com                      |
|    \\/     M anipulation  |                                                 |
\*---------------------------------------------------------------------------*/
FoamFile
{
    version     2.0;
    format      ascii;
    class       volScalarField;
    location    "100";
    object      alphat;
}
// * * * * * * * * * * * * * * * * * * * * * * * * * * * * * * * * * * * * * //

dimensions      [1 -1 -1 0 0 0 0];


internalField   nonuniform List<scalar> 
10147
(
1.376e-08
1.38387e-08
1.38835e-08
1.38988e-08
1.47898e-08
1.49264e-08
1.49426e-08
1.48389e-08
1.33637e-08
1.33108e-08
1.32446e-08
1.31635e-08
1.28831e-08
1.29502e-08
1.29746e-08
1.29543e-08
5.61099e-08
5.61639e-08
5.55166e-08
5.41698e-08
4.53343e-08
4.60415e-08
4.59956e-08
4.5195e-08
3.27486e-08
3.30328e-08
3.29251e-08
3.24209e-08
3.20751e-08
3.27047e-08
3.30248e-08
3.30367e-08
4.00508e-07
4.0087e-07
3.96358e-07
3.86985e-07
3.06153e-07
3.08682e-07
3.07133e-07
3.01444e-07
2.06978e-07
2.07822e-07
2.06658e-07
2.03438e-07
2.04212e-07
2.07649e-07
2.09634e-07
2.10205e-07
1.95664e-06
1.95945e-06
1.94282e-06
1.90688e-06
1.54509e-06
1.54576e-06
1.53356e-06
1.50799e-06
1.04886e-06
1.04557e-06
1.03773e-06
1.02503e-06
1.04145e-06
1.05182e-06
1.05907e-06
1.06348e-06
6.80606e-06
6.81798e-06
6.77328e-06
6.67255e-06
5.52102e-06
5.49496e-06
5.44085e-06
5.35657e-06
3.77455e-06
3.74628e-06
3.71463e-06
3.67835e-06
3.78165e-06
3.80364e-06
3.82392e-06
3.84369e-06
1.84026e-05
1.8437e-05
1.83381e-05
1.81075e-05
1.51853e-05
1.50639e-05
1.48961e-05
1.46751e-05
1.04459e-05
1.03423e-05
1.02511e-05
1.01688e-05
1.05647e-05
1.06023e-05
1.06505e-05
1.07128e-05
4.11262e-05
4.12035e-05
4.10126e-05
4.05577e-05
3.43029e-05
3.39592e-05
3.35535e-05
3.30697e-05
2.37486e-05
2.34821e-05
2.32744e-05
2.31174e-05
2.42265e-05
2.42841e-05
2.43849e-05
2.4538e-05
7.92986e-05
7.94434e-05
7.91129e-05
7.83148e-05
6.6611e-05
6.58654e-05
6.50501e-05
6.41329e-05
4.64582e-05
4.59074e-05
4.55093e-05
4.5248e-05
4.77431e-05
4.78292e-05
4.80188e-05
4.83301e-05
0.000136155
0.000136393
0.000135869
0.000134597
0.000114934
0.000113578
0.000112154
0.000110605
8.08365e-05
7.98603e-05
7.91905e-05
7.88004e-05
8.35864e-05
8.37197e-05
8.40442e-05
8.45921e-05
0.000213276
0.000213631
0.00021286
0.000210982
0.000180657
0.000178484
0.000176248
0.00017386
0.000128207
0.000126662
0.000125644
0.000125113
0.000133277
0.000133492
0.000134005
0.000134867
0.00031064
0.000311132
0.00031006
0.000307451
0.000263715
0.000260534
0.000257295
0.000253869
0.000188834
0.000186591
0.000185163
0.000184493
0.000197277
0.000197627
0.000198388
0.000199632
0.000427076
0.00042772
0.000426297
0.00042284
0.000362934
0.000358578
0.000354162
0.000349512
0.000262074
0.000259026
0.000257146
0.00025636
0.000274877
0.000275442
0.000276507
0.000278171
0.000558094
0.000558933
0.000557159
0.000552815
0.000476377
0.000470702
0.000464951
0.0004589
0.000345762
0.00034183
0.000339479
0.000338616
0.000364648
0.000365537
0.000366961
0.000369042
0.000701379
0.000702441
0.000700325
0.000695087
0.000597961
0.000591
0.000583901
0.000576383
0.000437449
0.000432529
0.000429706
0.000428868
0.000465665
0.000467044
0.000468931
0.000471475
0.000854489
0.000855688
0.000853055
0.000846653
0.000725718
0.000717308
0.00070865
0.000699401
0.000534122
0.000528363
0.000525256
0.00052468
0.000575901
0.000578083
0.000580633
0.000583735
0.00102075
0.0010221
0.00101891
0.00101125
0.00086166
0.000851602
0.000841215
0.000830088
0.000637226
0.00063052
0.000627128
0.000626919
0.000695119
0.000698248
0.000701535
0.000705197
0.00120097
0.0012025
0.0011987
0.00118966
0.00100803
0.000996159
0.000983864
0.000970659
0.000747465
0.00073973
0.000736044
0.000736261
0.000823228
0.000827432
0.000831524
0.000835757
0.00139518
0.00139691
0.00139245
0.0013819
0.00116469
0.00115084
0.00113645
0.00112096
0.000864546
0.000855702
0.000851705
0.000852397
0.000960291
0.00096569
0.00097066
0.000975489
0.00160322
0.00160518
0.0016
0.0015878
0.00133141
0.00131541
0.00129874
0.00128076
0.00098878
0.000978736
0.000974405
0.000975618
0.00110593
0.00111264
0.00111855
0.001124
0.00182493
0.00182714
0.00182119
0.00180719
0.00150782
0.00148949
0.00147036
0.00144968
0.00111993
0.0011086
0.00110392
0.0011057
0.0012598
0.00126793
0.00127485
0.00128093
0.00206022
0.00206271
0.0020559
0.00203994
0.00169335
0.00167249
0.00165071
0.00162715
0.00125773
0.00124505
0.00124002
0.00124242
0.00142159
0.00143126
0.00143925
0.00144597
0.00230833
0.00231111
0.00230336
0.00228523
0.00188726
0.00186364
0.00183901
0.0018124
0.00140186
0.00138781
0.00138244
0.00138554
0.00159106
0.00160235
0.00161146
0.00161883
0.00256416
0.00256727
0.00255854
0.00253812
0.00208818
0.00206158
0.00203393
0.00200415
0.00155207
0.00153665
0.001531
0.00153488
0.00176781
0.00178081
0.00179109
0.00179913
0.00281869
0.00282221
0.00281258
0.00278998
0.00229189
0.00226244
0.00223189
0.00219904
0.00170796
0.00169125
0.0016854
0.00169019
0.00195108
0.00196587
0.00197734
0.00198603
0.0030681
0.00307213
0.00306171
0.00303706
0.00249435
0.00246252
0.00242944
0.00239383
0.00186914
0.00185125
0.00184534
0.00185116
0.00214059
0.00215724
0.00216994
0.00217924
0.0033139
0.00331846
0.0033073
0.00328066
0.00269751
0.00266328
0.00262772
0.00258945
0.00203539
0.00201645
0.00201061
0.00201764
0.00233415
0.00235274
0.00236664
0.00237643
0.00356256
0.00356758
0.00355558
0.00352681
0.00290058
0.00286385
0.00282582
0.00278499
0.00220455
0.00218473
0.00217913
0.00218752
0.00252912
0.00254979
0.00256485
0.00257489
0.0038161
0.00382135
0.00380831
0.00377727
0.00310345
0.00306405
0.00302348
0.00298014
0.002371
0.00235042
0.00234525
0.00235527
0.00272496
0.00274791
0.00276414
0.00277428
0.0040745
0.00407971
0.00406545
0.004032
0.00330386
0.00326138
0.00321794
0.0031718
0.00253307
0.00251183
0.00250726
0.00251919
0.00292109
0.00294688
0.00296466
0.00297506
0.00433421
0.00433922
0.00432355
0.00428745
0.00349955
0.00345373
0.00340733
0.00335851
0.00268964
0.00266787
0.00266414
0.00267828
0.00312403
0.00315279
0.00317231
0.00318327
0.00458976
0.00459448
0.00457709
0.00453783
0.00368
0.00363049
0.00358108
0.00352982
0.00284089
0.00281908
0.00281657
0.00283325
0.00333651
0.00336825
0.00338976
0.00340176
0.00483437
0.0048387
0.00481905
0.00477563
0.0038289
0.00377517
0.00372271
0.00366944
0.00298386
0.00296289
0.0029623
0.00298205
0.00355695
0.0035917
0.00361542
0.0036289
0.00506841
0.00507182
0.00504891
0.00499985
0.00393269
0.00387413
0.00381859
0.00376387
0.00311473
0.00309605
0.00309843
0.00312197
0.00377843
0.00381627
0.00384228
0.00385737
0.0052922
0.0052942
0.00526716
0.00521114
0.00399018
0.00392653
0.00386794
0.00381212
0.00320964
0.00319516
0.00320146
0.00322878
0.00399462
0.0040356
0.00406382
0.00408027
0.00551349
0.00551413
0.0054831
0.00542035
0.00403408
0.00396577
0.00390421
0.00384697
0.00327431
0.0032641
0.00327418
0.00330496
0.00420406
0.0042482
0.00427851
0.00429605
0.00574262
0.00574269
0.00570914
0.00564189
0.00413114
0.00405928
0.00399484
0.00393526
0.00334327
0.00333503
0.00334739
0.00338085
0.00440833
0.00445556
0.00448786
0.00450634
0.00595605
0.00595827
0.00592498
0.00585625
0.00432889
0.00425491
0.00418772
0.00412465
0.00345918
0.00344919
0.00346152
0.00349666
0.00460841
0.00465858
0.00469277
0.00471216
0.00619275
0.00619742
0.00616611
0.00609904
0.00462794
0.00455291
0.00448313
0.00441586
0.00365495
0.00363988
0.00365016
0.00368621
0.00480375
0.00485664
0.00489261
0.00491289
0.00645063
0.00645664
0.00642741
0.00636324
0.00497502
0.00489915
0.004827
0.00475573
0.00391415
0.00389313
0.00390079
0.00393745
0.00499173
0.00504711
0.00508469
0.00510574
0.0067064
0.00671215
0.00668361
0.00662105
0.00522427
0.00514766
0.00507337
0.00499848
0.00417865
0.00415319
0.00415934
0.00419734
0.00517271
0.00523033
0.00526936
0.00529113
0.00691792
0.00692323
0.00689393
0.00683028
0.00540794
0.00533018
0.00525402
0.00517646
0.00432719
0.00430087
0.00430734
0.00434687
0.00534594
0.00540555
0.00544589
0.00546832
0.0071046
0.00710997
0.0070802
0.00701554
0.00551424
0.0054364
0.00535866
0.00527797
0.00447146
0.00444439
0.00445119
0.00449213
0.00551111
0.00557251
0.00561402
0.00563704
0.00727692
0.00728237
0.00725239
0.00718723
0.00561345
0.00553593
0.00545694
0.00537336
0.00461342
0.00458547
0.00459244
0.00463459
0.00566783
0.0057308
0.00577335
0.00579691
0.0074337
0.00743925
0.00740935
0.00734425
0.00575763
0.00567972
0.0055998
0.00551474
0.00475251
0.00472357
0.00473054
0.0047737
0.00581613
0.0058805
0.00592396
0.005948
0.00755792
0.00756363
0.00753442
0.00747055
0.00593689
0.00585803
0.00577754
0.00569227
0.00488821
0.00485815
0.00486499
0.00490901
0.00595614
0.00602178
0.00606606
0.00609049
0.00763476
0.00764069
0.00761303
0.00755209
0.00611863
0.00604045
0.00596096
0.00587701
0.00501992
0.00498866
0.00499529
0.00504006
0.0059277
0.00599387
0.00603573
0.00605445
0.00764645
0.00765269
0.00762779
0.00757206
0.006242
0.00616753
0.00609043
0.00600765
0.00514435
0.00511162
0.00511761
0.00516254
0.00584643
0.00591218
0.00595065
0.00596261
0.00751895
0.00752874
0.00750911
0.00746057
0.00632887
0.00626074
0.00618764
0.0061067
0.00525433
0.0052193
0.00522334
0.00526661
0.00584728
0.00591228
0.00594904
0.00595817
0.00721398
0.00723223
0.00722104
0.00718144
0.00639803
0.00633793
0.00627011
0.00619188
0.0053609
0.00532392
0.00532649
0.0053687
0.00601632
0.00608089
0.00611933
0.00613248
0.00697925
0.00700289
0.0069987
0.00696802
0.00647207
0.00641969
0.00635701
0.00628157
0.00546359
0.00542509
0.0054267
0.00546851
0.00641749
0.00648283
0.0065276
0.00655337
0.00693231
0.00695681
0.00695593
0.00693108
0.00658244
0.00653467
0.00647512
0.00640146
0.00556063
0.00552088
0.00552185
0.00556358
0.00655256
0.00661834
0.00666431
0.00669215
0.00714919
0.00716825
0.00716557
0.00714224
0.00670436
0.00665713
0.00659779
0.006524
0.00557826
0.00553828
0.00553892
0.00558022
0.00665586
0.00672226
0.00676886
0.00679741
0.00759904
0.00760644
0.00759742
0.00757238
0.00683635
0.00678675
0.0067256
0.00665047
0.00541259
0.00537438
0.00537495
0.00541431
0.00675719
0.00682422
0.00687146
0.00690069
0.00775193
0.0077589
0.0077488
0.00772198
0.00696772
0.00691519
0.00685197
0.00677557
0.00535667
0.00531923
0.00531959
0.00535775
0.0068479
0.00691516
0.00696281
0.00699266
0.00787013
0.00787664
0.00786586
0.00783812
0.00708614
0.00703182
0.00696755
0.00689082
0.00552017
0.00548139
0.00548123
0.00551967
0.00692325
0.00699007
0.00703776
0.00706815
0.00792066
0.00792666
0.00791621
0.00788963
0.007184
0.00712997
0.0070664
0.00699079
0.00598122
0.00593846
0.0059377
0.0059789
0.00699018
0.00705616
0.00710362
0.00713444
0.00787693
0.00788239
0.00787375
0.00785131
0.00725378
0.007203
0.00714251
0.00706992
0.00606341
0.00602088
0.00602002
0.00606081
0.00706681
0.00713226
0.00717963
0.00721079
0.00772215
0.00772705
0.007722
0.00770725
0.00728818
0.00724445
0.00719005
0.0071228
0.00614854
0.00610739
0.0061077
0.00614947
0.00717529
0.0072414
0.00728921
0.00732065
0.0074617
0.00746607
0.00746623
0.00746243
0.00728613
0.0072532
0.00720787
0.00714832
0.0062418
0.00620356
0.00620683
0.00625173
0.00732629
0.00739462
0.00744365
0.00747528
0.00713449
0.00713835
0.00714458
0.00715342
0.00725705
0.00723712
0.00720273
0.00715254
0.00633994
0.00630592
0.00631358
0.00636321
0.00750424
0.00757575
0.0076264
0.00765814
0.00661803
0.00662828
0.00664363
0.00666471
0.00721843
0.007211
0.00718752
0.00714706
0.00643289
0.00640354
0.00641566
0.00646972
0.00753961
0.00761569
0.00766511
0.00768937
0.00608775
0.00610785
0.00613206
0.00616157
0.0071905
0.00719201
0.00717718
0.00714542
0.00651197
0.00648699
0.00650248
0.00655903
0.00756467
0.00764305
0.00769088
0.00770932
0.00588219
0.00590624
0.0059327
0.00596302
0.00719451
0.0071983
0.00718762
0.00716206
0.00657596
0.00655499
0.00657265
0.00662963
0.00768592
0.00776261
0.00781055
0.00783101
0.00611283
0.00613258
0.00615262
0.00617412
0.00724799
0.00724483
0.00723195
0.00720886
0.0066316
0.00661492
0.00663454
0.00669124
0.00790105
0.00797339
0.00802312
0.00805202
0.00684896
0.00685246
0.00685615
0.00686023
0.00734834
0.00732954
0.00730847
0.00728431
0.00668616
0.00667471
0.0066971
0.00675424
0.00802581
0.00809524
0.00814492
0.0081768
0.00728741
0.00728703
0.00727951
0.00726482
0.00745625
0.00741896
0.00738788
0.00736177
0.00674297
0.00673765
0.0067637
0.00682216
0.00810274
0.00817004
0.00821863
0.00825045
0.00749866
0.00749696
0.00748231
0.00745459
0.00751463
0.00746465
0.0074279
0.00740293
0.00642425
0.00642858
0.00645782
0.00651311
0.00813915
0.00820237
0.00824889
0.00828061
0.0075264
0.00752353
0.00750511
0.00747097
0.00747306
0.00742377
0.00739117
0.00737395
0.00627234
0.00628269
0.00631179
0.0063608
0.00804642
0.00809999
0.00814156
0.00817303
0.00742798
0.00742405
0.00740422
0.00736822
0.00743015
0.00738166
0.00735345
0.00734439
0.00636288
0.00637262
0.00639504
0.00643102
0.0077724
0.00780851
0.00784112
0.00787207
0.00733324
0.00732826
0.00730693
0.00726894
0.00738889
0.00734133
0.00731777
0.00731727
0.00677103
0.00677398
0.00678475
0.00680375
0.00742109
0.00743593
0.00745759
0.00748785
0.00724622
0.00724015
0.00721725
0.00717714
0.00735169
0.00730515
0.00728643
0.00729478
0.00678591
0.00678962
0.00679355
0.00679786
0.00723868
0.00723828
0.00725201
0.0072816
0.00717071
0.00716349
0.00713894
0.00709658
0.00732064
0.00727519
0.00726144
0.00727884
0.0069051
0.00691834
0.00692865
0.00693645
0.00745753
0.00745722
0.00747079
0.00749994
0.00711009
0.00710165
0.00707535
0.00703063
0.0072974
0.00725305
0.0072443
0.00727081
0.00713117
0.00716297
0.00719338
0.00722359
0.00796159
0.00797219
0.00799106
0.0080199
0.00706703
0.00705726
0.00702911
0.00698195
0.00728286
0.00723956
0.00723575
0.00727127
0.0073362
0.00738356
0.00742945
0.00747567
0.00840876
0.00842764
0.00845041
0.00847873
0.00704312
0.00703186
0.00700177
0.00695215
0.00727696
0.00723464
0.00723559
0.00727985
0.00745038
0.00750382
0.00755077
0.00759308
0.00862494
0.0086428
0.00866464
0.0086921
0.00703842
0.00702553
0.00699344
0.00694133
0.00727854
0.00723708
0.00724252
0.00729507
0.00756778
0.00762689
0.00767461
0.00771284
0.00866217
0.00867206
0.00868936
0.00871562
0.00705266
0.00703798
0.0070038
0.0069492
0.00728579
0.007245
0.00725456
0.00731484
0.00768473
0.00774908
0.00779741
0.00783162
0.00851382
0.00851553
0.00852481
0.00854271
0.00708248
0.00706583
0.00702947
0.00697237
0.00729797
0.0072575
0.00727067
0.00733799
0.00779689
0.00786608
0.00791499
0.00794554
0.00824571
0.00823954
0.00823878
0.0082437
0.00711949
0.00710073
0.00706213
0.00700254
0.0064576
0.00642518
0.00644143
0.006507
0.00790021
0.00797395
0.00802364
0.00805124
0.00864121
0.0086301
0.00863284
0.00865043
1.42073e-08
1.44394e-08
1.44751e-08
1.4375e-08
1.56759e-08
1.64542e-08
1.64747e-08
1.57568e-08
1.37366e-08
1.37126e-08
1.36291e-08
1.34066e-08
1.3133e-08
1.34219e-08
1.34651e-08
1.3283e-08
6.46166e-08
6.68105e-08
6.58766e-08
6.09633e-08
5.15491e-08
5.56706e-08
5.56174e-08
5.13312e-08
3.63337e-08
3.83503e-08
3.82254e-08
3.58214e-08
3.47441e-08
3.69612e-08
3.74044e-08
3.64888e-08
4.61198e-07
4.76427e-07
4.69888e-07
4.35611e-07
3.4094e-07
3.61063e-07
3.59267e-07
3.33575e-07
2.25827e-07
2.35158e-07
2.33808e-07
2.20291e-07
2.13743e-07
2.24891e-07
2.27444e-07
2.23943e-07
2.20665e-06
2.26926e-06
2.2445e-06
2.1102e-06
1.65895e-06
1.70987e-06
1.69573e-06
1.60093e-06
1.09912e-06
1.11171e-06
1.10262e-06
1.06185e-06
1.03858e-06
1.06679e-06
1.07509e-06
1.07248e-06
7.55512e-06
7.74257e-06
7.67409e-06
7.28955e-06
5.78455e-06
5.84801e-06
5.7853e-06
5.52739e-06
3.8481e-06
3.81489e-06
3.7782e-06
3.69766e-06
3.65194e-06
3.69073e-06
3.7106e-06
3.73589e-06
2.02046e-05
2.06549e-05
2.04998e-05
1.9605e-05
1.56679e-05
1.56384e-05
1.54438e-05
1.48701e-05
1.04611e-05
1.02406e-05
1.01349e-05
1.00276e-05
1.00046e-05
1.00133e-05
1.00535e-05
1.01813e-05
4.47965e-05
4.57124e-05
4.54082e-05
4.36239e-05
3.50546e-05
3.47026e-05
3.42324e-05
3.31262e-05
2.35026e-05
2.28285e-05
2.25878e-05
2.25155e-05
2.26869e-05
2.25837e-05
2.26579e-05
2.30242e-05
8.58481e-05
8.74822e-05
8.69506e-05
8.38018e-05
6.76643e-05
6.66497e-05
6.57048e-05
6.37891e-05
4.56083e-05
4.40914e-05
4.36299e-05
4.37157e-05
4.44604e-05
4.41393e-05
4.42684e-05
4.506e-05
0.000146663
0.000149289
0.000148444
0.00014341
0.000116327
0.000114258
0.000112607
0.000109557
7.89193e-05
7.60851e-05
7.53087e-05
7.57352e-05
7.76984e-05
7.70662e-05
7.72799e-05
7.87007e-05
0.00022876
0.000232648
0.000231402
0.00022397
0.000182467
0.000178967
0.000176375
0.000171837
0.000124684
0.000120027
0.000118847
0.000119845
0.000123975
0.000122993
0.000123332
0.00012556
0.000331978
0.000337374
0.000335647
0.000325337
0.000266083
0.00026083
0.000257076
0.000250686
0.000183142
0.000176174
0.000174519
0.000176353
0.000183927
0.000182646
0.00018316
0.000186314
0.000454993
0.000462122
0.000459837
0.000446209
0.000366077
0.000358808
0.00035369
0.000345088
0.00025366
0.000243938
0.000241759
0.000244725
0.000257176
0.00025579
0.000256539
0.000260609
0.000592887
0.000601935
0.000599084
0.000581939
0.000480636
0.000471159
0.000464494
0.000453304
0.000334186
0.000321343
0.000318618
0.00032301
0.000342686
0.000341551
0.000342601
0.000347421
0.000743023
0.00075408
0.000750672
0.000729958
0.000603547
0.000592092
0.000583864
0.000569803
0.00042188
0.00040533
0.000402058
0.000408461
0.000439548
0.000439163
0.000440637
0.000446086
0.000903358
0.00091658
0.00091241
0.000887345
0.000733808
0.000720313
0.000710277
0.000692651
0.000513766
0.000493587
0.000489986
0.000499
0.000545901
0.000547186
0.000549324
0.000555211
0.00107731
0.00109288
0.00108789
0.00105814
0.000872545
0.000856574
0.000844535
0.000823172
0.000611298
0.000586892
0.000582962
0.000595178
0.000661901
0.000665367
0.000668273
0.000674388
0.001266
0.00128417
0.00127829
0.00124337
0.00102234
0.00100368
0.000989433
0.000963895
0.00071566
0.000686631
0.000682359
0.000698139
0.000787248
0.000793328
0.000797093
0.000803275
0.00146958
0.00149064
0.00148378
0.00144317
0.00118311
0.00116156
0.00114489
0.00111472
0.000826693
0.000792663
0.00078803
0.000807694
0.000921723
0.000930794
0.000935507
0.000941646
0.00168799
0.00171222
0.00170429
0.00165746
0.00135466
0.00133002
0.0013107
0.00127545
0.000944446
0.000904995
0.000899975
0.000923863
0.00106498
0.0010774
0.00108315
0.00108913
0.00192116
0.00194887
0.00193978
0.00188616
0.00153659
0.0015086
0.00148643
0.00144568
0.00106872
0.00102346
0.00101803
0.00104647
0.00121673
0.00123287
0.00123973
0.00124543
0.00216914
0.00220064
0.00219028
0.00212922
0.00172823
0.00169655
0.00167131
0.00162471
0.00119928
0.00114787
0.00114203
0.00117534
0.00137679
0.00139701
0.00140506
0.00141035
0.00243137
0.00246701
0.00245523
0.00238598
0.00192861
0.00189273
0.00186418
0.00181154
0.00133585
0.00127805
0.00127183
0.00131032
0.00154501
0.00156965
0.00157896
0.00158373
0.00270222
0.00274228
0.00272902
0.00265113
0.00213607
0.0020954
0.00206336
0.00200466
0.00147814
0.00141384
0.00140729
0.00145127
0.00172119
0.00175057
0.00176122
0.00176536
0.0029716
0.00301616
0.00300152
0.0029152
0.00234622
0.00230106
0.00226565
0.00220102
0.00162587
0.0015551
0.00154833
0.00159808
0.00190488
0.00193932
0.00195136
0.00195472
0.00323547
0.00328461
0.00326871
0.0031743
0.0025549
0.00250637
0.00246803
0.00239771
0.00177879
0.00170172
0.00169486
0.00175068
0.00209554
0.00213535
0.00214884
0.00215123
0.00349558
0.00354935
0.00353225
0.00342988
0.00276378
0.00271159
0.00267038
0.00259479
0.00193643
0.00185326
0.00184649
0.00190867
0.0022915
0.00233722
0.00235216
0.00235305
0.00375883
0.00381716
0.00379874
0.00368809
0.00297176
0.0029154
0.00287132
0.00279099
0.00209671
0.00200773
0.00200124
0.00207008
0.00249076
0.00254323
0.00255963
0.00255813
0.00402657
0.00408901
0.00406908
0.00394997
0.0031783
0.003117
0.00306997
0.00298547
0.0022534
0.00215854
0.00215254
0.0022288
0.00269255
0.00275272
0.00277067
0.00276598
0.00429857
0.00436455
0.00434292
0.00421527
0.00338111
0.00331391
0.00326355
0.0031746
0.00240466
0.00230372
0.00229843
0.00238295
0.0028954
0.00296495
0.00298487
0.00297669
0.00457201
0.00464139
0.00461785
0.00448113
0.0035772
0.00350287
0.00344908
0.00335664
0.00254933
0.00244223
0.0024379
0.00253157
0.00310411
0.00318299
0.00320509
0.00319411
0.00484274
0.00491602
0.00489018
0.00474276
0.00375657
0.00367341
0.00361614
0.00352171
0.00268848
0.00257632
0.00257341
0.00267654
0.00332016
0.00340777
0.00343225
0.00341983
0.00510568
0.00518409
0.00515527
0.00499387
0.00390397
0.00380944
0.00374863
0.00365459
0.00281922
0.00270424
0.00270355
0.00281639
0.00354206
0.00363779
0.00366484
0.00365227
0.00536072
0.00544494
0.00541197
0.00523233
0.00400836
0.00389947
0.00383509
0.00374435
0.00293812
0.00282411
0.00282687
0.00294944
0.0037647
0.00386864
0.00389835
0.00388586
0.00560766
0.0056982
0.00566004
0.00545846
0.0040761
0.00395187
0.00388396
0.00379763
0.00302947
0.00292331
0.0029306
0.00305939
0.00398346
0.00409617
0.00412848
0.00411528
0.00585135
0.00594804
0.00590487
0.00568206
0.00414275
0.00400592
0.00393457
0.00385012
0.00310961
0.00301316
0.00302485
0.00315754
0.00419689
0.00431886
0.00435368
0.00433892
0.00609841
0.00620019
0.00615376
0.00591615
0.00426417
0.00412024
0.00404554
0.00395784
0.003205
0.00311241
0.00312675
0.00326377
0.00440562
0.0045368
0.00457404
0.00455742
0.0063318
0.00644221
0.00639551
0.00614921
0.00447605
0.00433133
0.00425344
0.00415665
0.00333767
0.00323741
0.0032517
0.00339629
0.00460985
0.00474978
0.00478932
0.00477095
0.00657811
0.00669324
0.00664847
0.00640384
0.00476952
0.00462779
0.00454691
0.00443785
0.00351501
0.00339485
0.00340677
0.0035639
0.00480878
0.00495675
0.00499843
0.00497857
0.0068353
0.00695004
0.00690759
0.0066706
0.00509112
0.0049517
0.00486807
0.00474817
0.00371494
0.0035698
0.00357869
0.00375137
0.00500018
0.00515555
0.00519918
0.00517785
0.00708652
0.00719803
0.00715649
0.00692528
0.00534526
0.00520951
0.00512341
0.00499216
0.00390944
0.00374282
0.00374994
0.00393866
0.0051841
0.00534609
0.00539147
0.00536889
0.00730162
0.0074135
0.00737105
0.00713663
0.00553996
0.00540525
0.00531697
0.00517795
0.00404438
0.00387149
0.003879
0.00407515
0.00536007
0.00552795
0.00557492
0.00555127
0.00749322
0.00760681
0.0075637
0.00732566
0.00566782
0.00553856
0.00544845
0.00529832
0.00417576
0.00399725
0.00400513
0.0042081
0.00552792
0.00570106
0.00574944
0.00572488
0.00766793
0.0077825
0.00773908
0.00749921
0.00578948
0.00566676
0.00557519
0.00541401
0.00430492
0.00412069
0.00412877
0.00433804
0.00568731
0.00586512
0.00591477
0.00588941
0.00782436
0.00793914
0.00789582
0.00765604
0.00594005
0.00581873
0.0057261
0.0055602
0.00443134
0.00424127
0.00424935
0.00446448
0.00583835
0.00602034
0.00607112
0.00604504
0.00794209
0.00805546
0.00801306
0.00777746
0.00611411
0.00599007
0.00589678
0.00573155
0.00455454
0.00435851
0.00436644
0.00458707
0.00598155
0.00616739
0.00621919
0.00619238
0.00800338
0.00811299
0.00807272
0.00784717
0.00628559
0.00616198
0.00606983
0.00590773
0.004674
0.00447193
0.00447961
0.0047055
0.00604967
0.00625084
0.00630238
0.00625787
0.00798732
0.00808997
0.00805346
0.00784596
0.00641172
0.00629953
0.00621015
0.00604522
0.00478734
0.00457931
0.00458625
0.00481578
0.00607703
0.00629256
0.00634302
0.00627912
0.00786012
0.00796242
0.00793175
0.0077428
0.00650715
0.00641453
0.0063298
0.0061597
0.00488951
0.00467591
0.00468059
0.00490872
0.00612219
0.00634178
0.00639142
0.00632028
0.00762904
0.00774285
0.00771983
0.00754419
0.00658501
0.00651648
0.00643786
0.00626262
0.00498819
0.0047692
0.00477217
0.00500037
0.00622796
0.0064369
0.00648681
0.00642822
0.00744525
0.00756158
0.00754522
0.00738803
0.00666166
0.0066156
0.00654295
0.00636373
0.00508311
0.00485908
0.00486096
0.0050908
0.00643475
0.00661747
0.00666957
0.00664718
0.00738794
0.00749796
0.00748561
0.00734664
0.00676003
0.00672654
0.00665752
0.006477
0.00517327
0.00494468
0.00494581
0.00517787
0.0065412
0.00672087
0.0067736
0.00675668
0.00750668
0.00759835
0.00758636
0.00746529
0.00687458
0.00684292
0.00677414
0.00659252
0.00522835
0.00500181
0.00500256
0.00523142
0.00663824
0.00681866
0.00687196
0.00685618
0.00777551
0.00783526
0.00782055
0.00772015
0.00699955
0.00696161
0.00689072
0.00670886
0.0052055
0.0049962
0.00499686
0.00520819
0.00673345
0.00691466
0.00696853
0.00695383
0.00793468
0.00799584
0.00797977
0.00787383
0.0071206
0.00707414
0.00700085
0.00682008
0.00522684
0.00502649
0.0050269
0.00522853
0.00681678
0.00699748
0.00705163
0.00703843
0.0080539
0.00811508
0.00809823
0.00798987
0.00722532
0.00717256
0.00709807
0.00691986
0.00533839
0.0051301
0.00512991
0.0053376
0.00688266
0.00706066
0.00711459
0.00710362
0.00809229
0.0081502
0.00813402
0.00803076
0.00730605
0.00725166
0.00717798
0.0070039
0.00557347
0.00533432
0.00533344
0.00556984
0.00693927
0.00711327
0.00716667
0.00715826
0.00801809
0.00806814
0.00805475
0.00796734
0.00735531
0.00730628
0.00723616
0.00706777
0.00565132
0.00541345
0.00541246
0.00564725
0.007008
0.00717931
0.00723239
0.0072258
0.00781124
0.00784803
0.00783994
0.00778113
0.00736591
0.00733146
0.00726838
0.00710728
0.00573246
0.00549754
0.0054979
0.00573391
0.00711499
0.007288
0.00734157
0.00733478
0.00747946
0.00749815
0.00749765
0.00747902
0.00733686
0.00732595
0.00727339
0.00712135
0.00582018
0.00558983
0.00559361
0.0058357
0.00727271
0.00745319
0.00750834
0.00749878
0.0070712
0.00706927
0.00707756
0.00710514
0.00727734
0.0072947
0.00725484
0.00711389
0.00591242
0.0056885
0.00569738
0.00594882
0.00746275
0.00765426
0.00771164
0.00769759
0.0065911
0.00658959
0.00660725
0.00666362
0.00720441
0.00724745
0.00722023
0.0070928
0.00600225
0.00578697
0.00580102
0.00605985
0.00755204
0.00777099
0.00782866
0.00778556
0.00617877
0.0061937
0.00621845
0.00628189
0.00713789
0.0071957
0.00717851
0.00706739
0.00608361
0.00587947
0.00589742
0.00615721
0.00761321
0.00784901
0.00790601
0.00784223
0.00604058
0.00606594
0.00609162
0.00614841
0.00709838
0.00715164
0.00713927
0.00704764
0.00615564
0.00596519
0.00598567
0.00623958
0.00771612
0.00794276
0.00799933
0.00794409
0.00626202
0.00628803
0.00630674
0.00634128
0.00710324
0.00712567
0.00711075
0.00704205
0.00622301
0.00604861
0.00607135
0.00631627
0.0078711
0.00806947
0.0081262
0.00810249
0.00684384
0.00684803
0.00685216
0.00686123
0.00715067
0.00711761
0.00709318
0.00705053
0.00629094
0.00613476
0.00616072
0.00639741
0.00796743
0.00815083
0.00820665
0.00819617
0.0073418
0.00736285
0.00735301
0.00730313
0.00720372
0.00710662
0.00707058
0.00705595
0.00636232
0.0062261
0.00625631
0.00648617
0.00803358
0.00820938
0.00826365
0.0082562
0.00761945
0.00765628
0.00763686
0.00754272
0.007208
0.00706195
0.00701934
0.00703331
0.00627865
0.00619421
0.0062281
0.00641763
0.00805046
0.00821178
0.00826311
0.00826153
0.007675
0.00771806
0.00769376
0.00757877
0.00711543
0.00695626
0.00691846
0.00696044
0.00626259
0.00621712
0.00625086
0.00640093
0.00791335
0.00804053
0.00808496
0.00809718
0.00757783
0.00762057
0.00759468
0.00747499
0.00702109
0.00684845
0.00681574
0.00688698
0.00634186
0.00631558
0.00634158
0.00644843
0.00756041
0.00762596
0.00765788
0.00769496
0.0074849
0.00752753
0.00749994
0.00737509
0.00692832
0.00674198
0.00671466
0.00681631
0.0065526
0.00652046
0.00653294
0.00660377
0.007114
0.00710463
0.00712132
0.00718847
0.00739989
0.0074425
0.00741312
0.00728272
0.00684004
0.00663983
0.00661813
0.00675105
0.00661804
0.00661599
0.00662055
0.00663673
0.00686503
0.00680227
0.00680799
0.00689621
0.00732623
0.00736885
0.00733759
0.0072013
0.0067589
0.00654474
0.00652879
0.00669352
0.00676134
0.00678793
0.00679989
0.00681037
0.00708832
0.00702667
0.00703233
0.00711913
0.00726686
0.00730941
0.00727617
0.0071338
0.00668712
0.00645902
0.00644887
0.00664552
0.00698371
0.00703698
0.00707224
0.00712827
0.00764754
0.00762559
0.00763889
0.00770824
0.00722392
0.00726617
0.00723088
0.00708239
0.00662623
0.00638435
0.00637993
0.00660811
0.00719541
0.00727627
0.00732948
0.00741356
0.00813985
0.00814863
0.00816766
0.00822294
0.00719849
0.0072401
0.0072027
0.00704823
0.0065769
0.00632157
0.00632267
0.00658143
0.00734635
0.0074569
0.00751134
0.00756954
0.0083607
0.00836745
0.00838555
0.00843985
0.00719033
0.00723085
0.00719131
0.00703118
0.00653863
0.00627033
0.00627664
0.00656449
0.00749966
0.00763877
0.0076941
0.00772654
0.00837309
0.00835367
0.00836585
0.00842863
0.00719883
0.00723778
0.00719606
0.00703058
0.00650975
0.006229
0.00624008
0.00655519
0.00765054
0.00781649
0.00787253
0.00788029
0.00831184
0.00828192
0.0082871
0.00833752
0.00722049
0.00725739
0.00721346
0.00704295
0.00648791
0.00619476
0.00621002
0.0065505
0.00779327
0.00798385
0.00804056
0.00802578
0.0082052
0.00817654
0.00817435
0.00819825
0.00724749
0.00728192
0.00723575
0.00706052
0.00611154
0.0058748
0.00589365
0.00618879
0.00792275
0.00813559
0.0081932
0.00815897
0.0083686
0.00829251
0.00828826
0.00835707
1.40007e-08
1.42795e-08
1.43198e-08
1.41921e-08
1.55401e-08
1.63389e-08
1.63594e-08
1.5621e-08
1.3641e-08
1.36315e-08
1.35481e-08
1.33111e-08
1.29732e-08
1.32864e-08
1.33255e-08
1.31026e-08
6.44732e-08
6.67013e-08
6.57696e-08
6.08322e-08
5.14226e-08
5.5567e-08
5.55139e-08
5.12047e-08
3.62784e-08
3.8305e-08
3.81801e-08
3.57661e-08
3.46402e-08
3.68764e-08
3.73178e-08
3.63751e-08
4.61018e-07
4.76289e-07
4.69753e-07
4.35446e-07
3.40294e-07
3.60533e-07
3.58738e-07
3.32929e-07
2.26091e-07
2.35374e-07
2.34024e-07
2.20555e-07
2.13519e-07
2.24708e-07
2.27257e-07
2.23697e-07
2.20635e-06
2.26903e-06
2.24428e-06
2.10993e-06
1.65494e-06
1.70659e-06
1.69245e-06
1.59692e-06
1.10155e-06
1.1137e-06
1.10461e-06
1.06428e-06
1.03732e-06
1.06577e-06
1.07404e-06
1.07111e-06
7.55502e-06
7.74249e-06
7.67401e-06
7.28946e-06
5.76837e-06
5.83476e-06
5.77205e-06
5.51121e-06
3.85857e-06
3.82346e-06
3.78678e-06
3.70813e-06
3.64645e-06
3.68625e-06
3.70602e-06
3.72988e-06
2.02065e-05
2.06564e-05
2.05011e-05
1.96067e-05
1.56208e-05
1.55998e-05
1.54052e-05
1.4823e-05
1.04915e-05
1.02656e-05