-0.0075 	0 	0 	0
-0.0075 	5.46861e-34 	2.08096e-36 	-4.51935e-33
-0.00745622 	0.00071874 	2.735e-06 	-0.00593978
-0.00745622 	0.00071874 	2.735e-06 	-0.00593978
-0.00741165 	0.00149849 	9.94339e-06 	-0.014857
-0.00741165 	0.00149849 	9.94339e-06 	-0.014857
-0.00736628 	0.00194526 	2.41441e-05 	-0.0249931
-0.00736628 	0.00194526 	2.41441e-05 	-0.0249931
-0.0073201 	0.00214075 	4.28144e-05 	-0.0353119
-0.0073201 	0.00214075 	4.28144e-05 	-0.0353119
-0.00727309 	0.00223439 	6.22046e-05 	-0.0454477
-0.00727309 	0.00223439 	6.22046e-05 	-0.0454477
-0.00722524 	0.00228238 	8.39554e-05 	-0.0554421
-0.00722524 	0.00228238 	8.39554e-05 	-0.0554421
-0.00717653 	0.00230992 	0.000107511 	-0.0653351
-0.00717653 	0.00230992 	0.000107511 	-0.0653351
-0.00712695 	0.00232711 	0.000133001 	-0.075079
-0.00712695 	0.00232711 	0.000133001 	-0.075079
-0.00707647 	0.00233635 	0.000160488 	-0.0845948
-0.00707647 	0.00233635 	0.000160488 	-0.0845948
-0.0070251 	0.00233606 	0.000190347 	-0.0938037
-0.0070251 	0.00233606 	0.000190347 	-0.0938037
-0.0069728 	0.00232262 	0.000222568 	-0.102643
-0.0069728 	0.00232262 	0.000222568 	-0.102643
-0.00691956 	0.00229249 	0.000255332 	-0.111073
-0.00691956 	0.00229249 	0.000255332 	-0.111073
-0.00686537 	0.00224609 	0.000286428 	-0.119089
-0.00686537 	0.00224609 	0.000286428 	-0.119089
-0.00681021 	0.00219085 	0.000316902 	-0.126725
-0.00681021 	0.00219085 	0.000316902 	-0.126725
-0.00675406 	0.0021367 	0.00035243 	-0.134016
-0.00675406 	0.0021367 	0.00035243 	-0.134016
-0.0066969 	0.00208414 	0.000394879 	-0.140966
-0.0066969 	0.00208414 	0.000394879 	-0.140966
-0.00663871 	0.00202302 	0.000435372 	-0.147554
-0.00663871 	0.00202302 	0.000435372 	-0.147554
-0.00657949 	0.0019475 	0.000473503 	-0.15377
-0.00657949 	0.0019475 	0.000473503 	-0.15377
-0.0065192 	0.0018597 	0.000527703 	-0.159615
-0.0065192 	0.0018597 	0.000527703 	-0.159615
-0.00645783 	0.0017491 	0.000598261 	-0.165055
-0.00645783 	0.0017491 	0.000598261 	-0.165055
-0.00639535 	0.00158902 	0.000653769 	-0.170093
-0.00639535 	0.00158902 	0.000653769 	-0.170093
-0.00633176 	0.00138037 	0.000639057 	-0.174929
-0.00633176 	0.00138037 	0.000639057 	-0.174929
-0.00626703 	0.00121249 	0.000599592 	-0.179963
-0.00626703 	0.00121249 	0.000599592 	-0.179963
-0.00620114 	0.00119161 	0.000665082 	-0.185351
-0.00620114 	0.00119161 	0.000665082 	-0.185351
-0.00613406 	0.00127487 	0.000795553 	-0.190625
-0.00613406 	0.00127487 	0.000795553 	-0.190625
-0.00606579 	0.00133937 	0.000903425 	-0.195281
-0.00606579 	0.00133937 	0.000903425 	-0.195281
-0.00599629 	0.00133451 	0.000946469 	-0.199347
-0.00599629 	0.00133451 	0.000946469 	-0.199347
-0.00592554 	0.00129484 	0.000910701 	-0.203075
-0.00592554 	0.00129484 	0.000910701 	-0.203075
-0.00585352 	0.00130322 	0.00087663 	-0.206524
-0.00585352 	0.00130322 	0.00087663 	-0.206524
-0.00578022 	0.00140968 	0.000914007 	-0.20955
-0.00578022 	0.00140968 	0.000914007 	-0.20955
-0.00570559 	0.00156522 	0.0011049 	-0.212195
-0.00570559 	0.00156522 	0.0011049 	-0.212195
-0.00562963 	0.00160239 	0.00135293 	-0.215
-0.00562963 	0.00160239 	0.00135293 	-0.215
-0.00555231 	0.00137821 	0.00135854 	-0.218624
-0.00555231 	0.00137821 	0.00135854 	-0.218624
-0.0054736 	0.000992583 	0.00118099 	-0.22281
-0.0054736 	0.000992583 	0.00118099 	-0.22281
-0.00539348 	0.000656906 	0.0010973 	-0.22685
-0.00539348 	0.000656906 	0.0010973 	-0.22685
-0.00531193 	0.000487209 	0.00120452 	-0.230471
-0.00531193 	0.000487209 	0.00120452 	-0.230471
-0.00522891 	0.000457201 	0.00135859 	-0.233348
-0.00522891 	0.000457201 	0.00135859 	-0.233348
-0.0051444 	0.000458129 	0.00139768 	-0.235437
-0.0051444 	0.000458129 	0.00139768 	-0.235437
-0.00505838 	0.000443462 	0.00141258 	-0.237229
-0.00505838 	0.000443462 	0.00141258 	-0.237229
-0.00497081 	0.000421002 	0.00146251 	-0.239054
-0.00497081 	0.000421002 	0.00146251 	-0.239054
-0.00488168 	0.000401652 	0.00150963 	-0.240929
-0.00488168 	0.000401652 	0.00150963 	-0.240929
-0.00479094 	0.000391687 	0.00155414 	-0.242974
-0.00479094 	0.000391687 	0.00155414 	-0.242974
-0.00469858 	0.000387482 	0.00160738 	-0.245462
-0.00469858 	0.000387482 	0.00160738 	-0.245462
-0.00460456 	0.000377823 	0.00166416 	-0.248313
-0.00460456 	0.000377823 	0.00166416 	-0.248313
-0.00450886 	0.000350668 	0.00169884 	-0.250599
-0.00450886 	0.000350668 	0.00169884 	-0.250599
-0.00441144 	0.00030654 	0.00171264 	-0.251863
-0.00441144 	0.00030654 	0.00171264 	-0.251863
-0.00431227 	0.000257039 	0.00173361 	-0.252812
-0.00431227 	0.000257039 	0.00173361 	-0.252812
-0.00421133 	0.00020851 	0.00177003 	-0.253973
-0.00421133 	0.00020851 	0.00177003 	-0.253973
-0.00410857 	0.000160009 	0.00183475 	-0.255287
-0.00410857 	0.000160009 	0.00183475 	-0.255287
-0.00400397 	0.000107549 	0.0018548 	-0.256555
-0.00400397 	0.000107549 	0.0018548 	-0.256555
-0.0038975 	5.96403e-05 	0.00177461 	-0.257672
-0.0038975 	5.96403e-05 	0.00177461 	-0.257672
-0.00378912 	3.93423e-05 	0.00172141 	-0.25845
-0.00378912 	3.93423e-05 	0.00172141 	-0.25845
-0.00367879 	6.09778e-05 	0.00178038 	-0.258729
-0.00367879 	6.09778e-05 	0.00178038 	-0.258729
-0.00356649 	0.000132454 	0.00195593 	-0.258852
-0.00356649 	0.000132454 	0.00195593 	-0.258852
-0.00345217 	0.000225018 	0.00216285 	-0.259689
-0.00345217 	0.000225018 	0.00216285 	-0.259689
-0.0033358 	0.000224337 	0.00239357 	-0.262098
-0.0033358 	0.000224337 	0.00239357 	-0.262098
-0.00321735 	-1.5543e-05 	0.00230473 	-0.265999
-0.00321735 	-1.5543e-05 	0.00230473 	-0.265999
-0.00309677 	-0.000491801 	0.00186973 	-0.269922
-0.00309677 	-0.000491801 	0.00186973 	-0.269922
-0.00297403 	-0.00106651 	0.0017418 	-0.273023
-0.00297403 	-0.00106651 	0.0017418 	-0.273023
-0.00284909 	-0.0013961 	0.00191814 	-0.274989
-0.00284909 	-0.0013961 	0.00191814 	-0.274989
-0.0027219 	-0.00133633 	0.00198654 	-0.2757
-0.0027219 	-0.00133633 	0.00198654 	-0.2757
-0.00259244 	-0.0011685 	0.00195183 	-0.275999
-0.00259244 	-0.0011685 	0.00195183 	-0.275999
-0.00246065 	-0.00107107 	0.00196466 	-0.276444
-0.00246065 	-0.00107107 	0.00196466 	-0.276444
-0.00232651 	-0.00103607 	0.00196656 	-0.277037
-0.00232651 	-0.00103607 	0.00196656 	-0.277037
-0.00218995 	-0.00100572 	0.00196145 	-0.277623
-0.00218995 	-0.00100572 	0.00196145 	-0.277623
-0.00205095 	-0.000961182 	0.00196897 	-0.278167
-0.00205095 	-0.000961182 	0.00196897 	-0.278167
-0.00190946 	-0.000907782 	0.00196903 	-0.27867
-0.00190946 	-0.000907782 	0.00196903 	-0.27867
-0.00176543 	-0.000848787 	0.00196564 	-0.279116
-0.00176543 	-0.000848787 	0.00196564 	-0.279116
-0.00161881 	-0.000786178 	0.00195931 	-0.279483
-0.00161881 	-0.000786178 	0.00195931 	-0.279483
-0.00146957 	-0.000721191 	0.00194847 	-0.279748
-0.00146957 	-0.000721191 	0.00194847 	-0.279748
-0.00131765 	-0.000654217 	0.00193124 	-0.2799
-0.00131765 	-0.000654217 	0.00193124 	-0.2799
-0.001163 	-0.000584623 	0.00190727 	-0.27994
-0.001163 	-0.000584623 	0.00190727 	-0.27994
-0.00100559 	-0.000511681 	0.00187713 	-0.279851
-0.00100559 	-0.000511681 	0.00187713 	-0.279851
-0.000845345 	-0.00043416 	0.00185197 	-0.279606
-0.000845345 	-0.00043416 	0.00185197 	-0.279606
-0.000682232 	-0.000349949 	0.001818 	-0.279233
-0.000682232 	-0.000349949 	0.001818 	-0.279233
-0.000516194 	-0.000262709 	0.00176405 	-0.278786
-0.000516194 	-0.000262709 	0.00176405 	-0.278786
-0.000347178 	-0.000181567 	0.00171056 	-0.278297
-0.000347178 	-0.000181567 	0.00171056 	-0.278297
-0.000175132 	-9.16935e-05 	0.00162574 	-0.277793
-0.000175132 	-9.16935e-05 	0.00162574 	-0.277793
0 	4.78165e-05 	0.00153876 	-0.277324
0 	4.78165e-05 	0.00153876 	-0.277324
0 	4.78165e-05 	0.00153876 	-0.277324
0 	4.78165e-05 	0.00153876 	-0.277324
0.000175132 	0.000256374 	0.00147686 	-0.276932
0.000175132 	-0.00532652 	-0.0286472 	-0.310736
0.000347178 	0.000512031 	0.00139862 	-0.276584
0.000347178 	-0.00445527 	-0.0287916 	-0.314052
0.000516194 	0.000781494 	0.0013386 	-0.276232
0.000516194 	-0.00342203 	-0.0284351 	-0.31828
0.000682232 	0.00105472 	0.00128816 	-0.275846
0.000682232 	-0.00260696 	-0.028389 	-0.320763
0.000845345 	0.00133526 	0.00121695 	-0.275429
0.000845345 	-0.00208623 	-0.0286566 	-0.320764
0.00100559 	0.00161738 	0.00114476 	-0.275004
0.00100559 	-0.00158358 	-0.0286607 	-0.32013
0.001163 	0.00189245 	0.00108022 	-0.274561
0.001163 	-0.000981301 	-0.0284558 	-0.31973
0.00131765 	0.00215677 	0.00102385 	-0.274077
0.00131765 	-0.000293689 	-0.0282328 	-0.319521
0.00146957 	0.00240523 	0.000972501 	-0.273548
0.00146957 	0.000426735 	-0.0280567 	-0.319273
0.00161881 	0.00262964 	0.000923709 	-0.272973
0.00161881 	0.00113805 	-0.027886 	-0.318883
0.00176543 	0.00282855 	0.000876183 	-0.272347
0.00176543 	0.00181348 	-0.027615 	-0.318457
0.00190946 	0.00300975 	0.000832437 	-0.271662
0.00190946 	0.00244136 	-0.027263 	-0.318324
0.00205095 	0.00318375 	0.000792817 	-0.270893
0.00205095 	0.0030255 	-0.0271029 	-0.318926
0.00218995 	0.00336241 	0.000749513 	-0.270032
0.00218995 	0.0035617 	-0.0271921 	-0.320474
0.00232651 	0.00355271 	0.000696617 	-0.269114
0.00232651 	0.00408351 	-0.0270589 	-0.321469
0.00246065 	0.00374682 	0.000640522 	-0.268177
0.00246065 	0.00464538 	-0.0266137 	-0.320737
0.00259244 	0.00392871 	0.000590701 	-0.267223
0.00259244 	0.00523032 	-0.0262274 	-0.319333
0.0027219 	0.00408659 	0.000548529 	-0.266247
0.0027219 	0.00578937 	-0.02597 	-0.318155
0.00284909 	0.00421562 	0.000509712 	-0.265249
0.00284909 	0.00629825 	-0.0258453 	-0.317283
0.00297403 	0.00431426 	0.000470806 	-0.264223
0.00297403 	0.00669479 	-0.0257114 	-0.316586
0.00309677 	0.00438517 	0.000432384 	-0.263165
0.00309677 	0.00694067 	-0.025315 	-0.316028
0.00321735 	0.00444169 	0.000398189 	-0.262069
0.00321735 	0.00708282 	-0.0249233 	-0.315619
0.0033358 	0.00450112 	0.000375558 	-0.260918
0.0033358 	0.00705919 	-0.0247914 	-0.315563
0.00345217 	0.00457291 	0.000369778 	-0.259701
0.00345217 	0.00687108 	-0.0244234 	-0.316636
0.00356649 	0.00465812 	0.000318248 	-0.258431
0.00356649 	0.00669254 	-0.023272 	-0.319566
0.00367879 	0.00475971 	0.000396934 	-0.257119
0.00367879 	0.00722229 	-0.0221066 	-0.322603
0.00378912 	0.00848292 	-0.0218943 	-0.32259
0.00378912 	0.0048459 	0.00057547 	-0.255788
0.0038975 	0.00484623 	0.000524132 	-0.254564
0.0038975 	0.00966525 	-0.0221725 	-0.319843
0.00400397 	0.0047105 	0.000483709 	-0.2534
0.00400397 	0.0106536 	-0.0220729 	-0.31699
0.00410857 	0.00441188 	0.000328 	-0.251483
0.00410857 	0.0115884 	-0.0219659 	-0.314982
0.00421133 	0.00401798 	-9.28992e-05 	-0.247479
0.00421133 	0.0123763 	-0.0225687 	-0.312722
0.00431227 	0.00360362 	-0.000451786 	-0.241875
0.00431227 	0.0126727 	-0.0223285 	-0.307426
0.00441144 	0.00354232 	-0.000212244 	-0.237013
0.00441144 	0.0123783 	-0.0198518 	-0.296049
0.00450886 	0.00398274 	0.000761116 	-0.23364
0.00450886 	0.0117641 	-0.0157073 	-0.279775
0.00460456 	0.00456081 	0.00119262 	-0.231718
0.00460456 	0.0117884 	-0.0143664 	-0.269734
0.00469858 	0.00508301 	0.000624024 	-0.231082
0.00469858 	0.0130301 	-0.0175714 	-0.271785
0.00479094 	0.00544725 	1.18307e-05 	-0.230516
0.00479094 	0.0146765 	-0.0200578 	-0.278074
0.00488168 	0.00564131 	-0.000103417 	-0.229318
0.00488168 	0.0160145 	-0.0193416 	-0.28255
0.00497081 	0.00573234 	0.000110124 	-0.227582
0.00497081 	0.0169883 	-0.0171624 	-0.284781
0.00505838 	0.00577883 	0.000245526 	-0.225577
0.00505838 	0.0175016 	-0.0158754 	-0.28484
0.0051444 	0.00580988 	0.000215507 	-0.22346
0.0051444 	0.0175003 	-0.0159421 	-0.282817
0.00522891 	0.00583081 	0.000178846 	-0.221263
0.00522891 	0.0172785 	-0.0160472 	-0.280048
0.00531193 	0.0171077 	-0.0157577 	-0.277567
0.00531193 	0.00584048 	0.000168561 	-0.218978
0.00539348 	0.00583906 	0.000158581 	-0.216598
0.00539348 	0.0170487 	-0.015335 	-0.275463
0.0054736 	0.00582742 	0.000147621 	-0.214116
0.0054736 	0.0170494 	-0.0149075 	-0.273388
0.00555231 	0.00580697 	0.000135873 	-0.211526
0.00555231 	0.0170603 	-0.0145754 	-0.271097
0.00562963 	0.00577937 	0.00012296 	-0.208819
0.00562963 	0.0171075 	-0.0142738 	-0.268678
0.00570559 	0.00574542 	0.000108718 	-0.205988
0.00570559 	0.0172409 	-0.0138695 	-0.26638
0.00578022 	0.00570426 	9.42885e-05 	-0.20303
0.00578022 	0.0174214 	-0.0134177 	-0.264261
0.00585352 	0.00565461 	8.07215e-05 	-0.199938
0.00585352 	0.0175206 	-0.0130255 	-0.261923
0.00592554 	0.00559555 	6.80848e-05 	-0.196694
0.00592554 	0.0174398 	-0.0127231 	-0.258882
0.00599629 	0.00552591 	5.63386e-05 	-0.193276
0.00599629 	0.0172158 	-0.0124667 	-0.25524
0.00606579 	0.0169684 	-0.0121082 	-0.251411
0.00606579 	0.00544409 	4.51584e-05 	-0.189648
0.00613406 	0.00534874 	3.39976e-05 	-0.185765
0.00613406 	0.0167516 	-0.011652 	-0.247526
0.00620114 	0.0052385 	2.34411e-05 	-0.181576
0.00620114 	0.0165321 	-0.0112162 	-0.243463
0.00626703 	0.00511095 	1.49014e-05 	-0.177045
0.00626703 	0.0162711 	-0.0108018 	-0.239083
0.00633176 	0.00496249 	7.05569e-06 	-0.172152
0.00633176 	0.0159564 	-0.01038 	-0.234304
0.00639535 	0.00478884 	-2.05903e-06 	-0.16688
0.00639535 	0.0155811 	-0.00995108 	-0.229036
0.00645783 	0.00458584 	-1.0035e-05 	-0.161203
0.00645783 	0.0151309 	-0.00950023 	-0.223153
0.0065192 	0.00435126 	-1.42063e-05 	-0.155087
0.0065192 	0.0145946 	-0.00900875 	-0.21652
0.00657949 	0.00408604 	-1.55702e-05 	-0.148505
0.00657949 	0.0139756 	-0.00848228 	-0.209081
0.00663871 	0.00379457 	-1.85715e-05 	-0.141458
0.00663871 	0.0132916 	-0.00795175 	-0.20092
0.0066969 	0.00348399 	-2.54739e-05 	-0.133954
0.0066969 	0.0125611 	-0.00743376 	-0.192129
0.00675406 	0.00316312 	-3.16892e-05 	-0.125994
0.00675406 	0.0117903 	-0.00689609 	-0.182663
0.00681021 	0.00284336 	-3.37737e-05 	-0.117589
0.00681021 	0.0109825 	-0.00631325 	-0.172421
0.00686537 	0.0025411 	-3.38031e-05 	-0.108775
0.00686537 	0.0101563 	-0.00570287 	-0.161406
0.00691956 	0.00227621 	-3.39658e-05 	-0.0996139
0.00691956 	0.00934463 	-0.00509146 	-0.149731
0.0069728 	0.00206685 	-3.37337e-05 	-0.0902114
0.0069728 	0.00858168 	-0.00448883 	-0.137567
0.0070251 	0.00192572 	-3.22434e-05 	-0.0807153
0.0070251 	0.00789417 	-0.00390251 	-0.125145
0.00707647 	0.0018562 	-2.97467e-05 	-0.0712984
0.00707647 	0.00729595 	-0.00334623 	-0.112736
0.00712695 	0.00184745 	-2.64241e-05 	-0.0621168
0.00712695 	0.00677834 	-0.00282922 	-0.100575
0.00717653 	0.0018716 	-2.22356e-05 	-0.0532709
0.00717653 	0.00630272 	-0.00235388 	-0.0887645
0.00722524 	0.00188424 	-1.72689e-05 	-0.0447831
0.00722524 	0.00579868 	-0.0019131 	-0.0772073
0.00727309 	0.00182427 	-1.17147e-05 	-0.0365991
0.00727309 	0.00516264 	-0.00151058 	-0.0655779
0.0073201 	0.0016081 	-6.30124e-06 	-0.0285953
0.0073201 	0.00424826 	-0.00118393 	-0.0532958
0.00736628 	0.00111512 	-4.13058e-07 	-0.0206948
0.00736628 	0.00284283 	-0.000713496 	-0.0395751
0.00741165 	0.000398574 	1.62946e-06 	-0.0130298
0.00741165 	0.00111401 	-0.000465035 	-0.0245064
0.00745622 	-0.000108059 	1.49287e-06 	-0.00596204
0.00745622 	-5.44875e-05 	-0.000232706 	-0.0103438
0.0075 	0 	0 	0
0.0075 	0 	0 	0
