/*--------------------------------*- C++ -*----------------------------------*\
| =========                 |                                                 |
| \\      /  F ield         | OpenFOAM: The Open Source CFD Toolbox           |
|  \\    /   O peration     | Version:  v1912                                 |
|   \\  /    A nd           | Website:  www.openfoam.com                      |
|    \\/     M anipulation  |                                                 |
\*---------------------------------------------------------------------------*/
FoamFile
{
    version     2.0;
    format      ascii;
    class       volScalarField;
    location    "198.8";
    object      nut;
}
// * * * * * * * * * * * * * * * * * * * * * * * * * * * * * * * * * * * * * //

dimensions      [0 2 -1 0 0 0 0];


internalField   nonuniform List<scalar> 
10147
(
1.59784e-05
1.44208e-05
1.27759e-05
1.24308e-05
1.24849e-05
1.24726e-05
1.24476e-05
1.24203e-05
1.24183e-05
1.24227e-05
1.24528e-05
1.24805e-05
1.24958e-05
1.24435e-05
1.27862e-05
1.44209e-05
1.27545e-05
1.25705e-05
1.25096e-05
1.24985e-05
1.24978e-05
1.25022e-05
1.25168e-05
1.25797e-05
1.27629e-05
1.30756e-05
1.33865e-05
1.2902e-05
1.26464e-05
1.26571e-05
1.26325e-05
1.25518e-05
1.2872e-05
1.46512e-05
1.28434e-05
1.56815e-05
1.42468e-05
1.28197e-05
1.25223e-05
1.25652e-05
1.25289e-05
1.24864e-05
1.24477e-05
1.24427e-05
1.24503e-05
1.24918e-05
1.25373e-05
1.25766e-05
1.25357e-05
1.28312e-05
1.4248e-05
1.53596e-05
1.40574e-05
1.28376e-05
1.25897e-05
1.26218e-05
1.25678e-05
1.25097e-05
1.2461e-05
1.24532e-05
1.24637e-05
1.25154e-05
1.25764e-05
1.26337e-05
1.26035e-05
1.28499e-05
1.40596e-05
1.50243e-05
1.38562e-05
1.28341e-05
1.26346e-05
1.26587e-05
1.25898e-05
1.25182e-05
1.24608e-05
1.24506e-05
1.24636e-05
1.25241e-05
1.25987e-05
1.26707e-05
1.26488e-05
1.28471e-05
1.38594e-05
1.46836e-05
1.36488e-05
1.28114e-05
1.26581e-05
1.26769e-05
1.25957e-05
1.25128e-05
1.2448e-05
1.24357e-05
1.2451e-05
1.25189e-05
1.26048e-05
1.26889e-05
1.26726e-05
1.28251e-05
1.36531e-05
1.43368e-05
1.34393e-05
1.27721e-05
1.26619e-05
1.26775e-05
1.25866e-05
1.24945e-05
1.24236e-05
1.24096e-05
1.24267e-05
1.25007e-05
1.25958e-05
1.26896e-05
1.26766e-05
1.27863e-05
1.34446e-05
1.39913e-05
1.32312e-05
1.27182e-05
1.26477e-05
1.26622e-05
1.25638e-05
1.24644e-05
1.23888e-05
1.23733e-05
1.23919e-05
1.24707e-05
1.2573e-05
1.26743e-05
1.26626e-05
1.27329e-05
1.32375e-05
1.36544e-05
1.30273e-05
1.26521e-05
1.26178e-05
1.26325e-05
1.25286e-05
1.24239e-05
1.23445e-05
1.23278e-05
1.23477e-05
1.24302e-05
1.25378e-05
1.26446e-05
1.26328e-05
1.26672e-05
1.30345e-05
1.33317e-05
1.28299e-05
1.25759e-05
1.25761e-05
1.25922e-05
1.24835e-05
1.23742e-05
1.2292e-05
1.22743e-05
1.22953e-05
1.23806e-05
1.24928e-05
1.26043e-05
1.25912e-05
1.25913e-05
1.28379e-05
1.3027e-05
1.26404e-05
1.24924e-05
1.25278e-05
1.25463e-05
1.24326e-05
1.2319e-05
1.2234e-05
1.22156e-05
1.22373e-05
1.23255e-05
1.24421e-05
1.25584e-05
1.2543e-05
1.25081e-05
1.26491e-05
1.27425e-05
1.24595e-05
1.24059e-05
1.24755e-05
1.2497e-05
1.23797e-05
1.22623e-05
1.21747e-05
1.21557e-05
1.21782e-05
1.2269e-05
1.23893e-05
1.25092e-05
1.24907e-05
1.24218e-05
1.24688e-05
1.2479e-05
1.22872e-05
1.23195e-05
1.24197e-05
1.24447e-05
1.23253e-05
1.22053e-05
1.2116e-05
1.20967e-05
1.21196e-05
1.22121e-05
1.23349e-05
1.24568e-05
1.24348e-05
1.23356e-05
1.2297e-05
1.22339e-05
1.21229e-05
1.22339e-05
1.23599e-05
1.23885e-05
1.22685e-05
1.21474e-05
1.20574e-05
1.20381e-05
1.2061e-05
1.21542e-05
1.22781e-05
1.24005e-05
1.23749e-05
1.22501e-05
1.21331e-05
1.20051e-05
1.1966e-05
1.21486e-05
1.22954e-05
1.23275e-05
1.22083e-05
1.20872e-05
1.19975e-05
1.19784e-05
1.20011e-05
1.20941e-05
1.22178e-05
1.23393e-05
1.23101e-05
1.21647e-05
1.19765e-05
1.17923e-05
1.18169e-05
1.20624e-05
1.22252e-05
1.22605e-05
1.21433e-05
1.20235e-05
1.19348e-05
1.19162e-05
1.19384e-05
1.20303e-05
1.21527e-05
1.22721e-05
1.22397e-05
1.20783e-05
1.18276e-05
1.1594e-05
1.16764e-05
1.19742e-05
1.21485e-05
1.21867e-05
1.20724e-05
1.19548e-05
1.18679e-05
1.185e-05
1.18716e-05
1.19615e-05
1.20817e-05
1.2198e-05
1.21626e-05
1.19898e-05
1.16873e-05
1.14086e-05
1.15438e-05
1.18826e-05
1.20644e-05
1.2105e-05
1.19945e-05
1.18799e-05
1.17956e-05
1.17785e-05
1.17992e-05
1.18866e-05
1.20036e-05
1.2116e-05
1.2078e-05
1.18979e-05
1.15548e-05
1.12349e-05
1.14174e-05
1.17866e-05
1.19722e-05
1.20149e-05
1.19088e-05
1.17979e-05
1.17166e-05
1.17004e-05
1.17201e-05
1.18044e-05
1.19176e-05
1.20256e-05
1.19854e-05
1.18014e-05
1.14283e-05
1.10723e-05
1.1295e-05
1.16851e-05
1.18715e-05
1.19158e-05
1.18145e-05
1.17079e-05
1.163e-05
1.16149e-05
1.16334e-05
1.17142e-05
1.1823e-05
1.19261e-05
1.18842e-05
1.16994e-05
1.13058e-05
1.09201e-05
1.11745e-05
1.15772e-05
1.17619e-05
1.18074e-05
1.17113e-05
1.16093e-05
1.15352e-05
1.15211e-05
1.15385e-05
1.16155e-05
1.17195e-05
1.18173e-05
1.1774e-05
1.1591e-05
1.11851e-05
1.07764e-05
1.10539e-05
1.14623e-05
1.16432e-05
1.16897e-05
1.15989e-05
1.15018e-05
1.14315e-05
1.14186e-05
1.14348e-05
1.15078e-05
1.16068e-05
1.16992e-05
1.16549e-05
1.14754e-05
1.10642e-05
1.06387e-05
1.09313e-05
1.13398e-05
1.15159e-05
1.15169e-05
1.14775e-05
1.13853e-05
1.13189e-05
1.13071e-05
1.1322e-05
1.1391e-05
1.14852e-05
1.15253e-05
1.15271e-05
1.13524e-05
1.09412e-05
1.05043e-05
1.0805e-05
1.12098e-05
1.12682e-05
1.12319e-05
1.12097e-05
1.11684e-05
1.11357e-05
1.11321e-05
1.11378e-05
1.11728e-05
1.12162e-05
1.124e-05
1.12777e-05
1.12218e-05
1.08146e-05
1.03707e-05
1.06738e-05
1.09769e-05
1.09852e-05
1.09507e-05
1.09241e-05
1.08918e-05
1.08649e-05
1.08624e-05
1.08668e-05
1.0896e-05
1.09305e-05
1.09589e-05
1.09944e-05
1.09853e-05
1.06829e-05
1.02357e-05
1.05368e-05
1.07055e-05
1.0732e-05
1.07138e-05
1.06784e-05
1.06406e-05
1.061e-05
1.06066e-05
1.06121e-05
1.06451e-05
1.06849e-05
1.0722e-05
1.07411e-05
1.07131e-05
1.05455e-05
1.00977e-05
1.03938e-05
1.04634e-05
1.05249e-05
1.05251e-05
1.0483e-05
1.04377e-05
1.04018e-05
1.03973e-05
1.04042e-05
1.04424e-05
1.04896e-05
1.0533e-05
1.05339e-05
1.04713e-05
1.04022e-05
9.95579e-06
1.0245e-05
1.02642e-05
1.0358e-05
1.03739e-05
1.03285e-05
1.02775e-05
1.02375e-05
1.02322e-05
1.02401e-05
1.02824e-05
1.03351e-05
1.03817e-05
1.03668e-05
1.02724e-05
1.0253e-05
9.80941e-06
1.00905e-05
1.0099e-05
1.02174e-05
1.02456e-05
1.0199e-05
1.01448e-05
1.01024e-05
1.00968e-05
1.01051e-05
1.01498e-05
1.02055e-05
1.0253e-05
1.02258e-05
1.01073e-05
1.00982e-05
9.65839e-06
9.90758e-06
9.95249e-06
1.00883e-05
1.01259e-05
1.00793e-05
1.00238e-05
9.98019e-06
9.97462e-06
9.98291e-06
1.00288e-05
1.00856e-05
1.0133e-05
1.00964e-05
9.96085e-06
9.9136e-06
9.50253e-06
9.69976e-06
9.81162e-06
9.95928e-06
1.00042e-05
9.95792e-06
9.90232e-06
9.85848e-06
9.85311e-06
9.8612e-06
9.90723e-06
9.96409e-06
1.00109e-05
9.96705e-06
9.81983e-06
9.70543e-06
9.30724e-06
9.49867e-06
9.66821e-06
9.82398e-06
9.87469e-06
9.82897e-06
9.77392e-06
9.73045e-06
9.72536e-06
9.73313e-06
9.77873e-06
9.83493e-06
9.88112e-06
9.83139e-06
9.67617e-06
9.50442e-06
9.09712e-06
9.30909e-06
9.5185e-06
9.67981e-06
9.73525e-06
9.69019e-06
9.63609e-06
9.59331e-06
9.58854e-06
9.59594e-06
9.64077e-06
9.69593e-06
9.74135e-06
9.68686e-06
9.52617e-06
9.31496e-06
8.89346e-06
9.1282e-06
9.36163e-06
9.52581e-06
9.58479e-06
9.54061e-06
9.48782e-06
9.44619e-06
9.44174e-06
9.44874e-06
9.49236e-06
9.54612e-06
9.59057e-06
9.5325e-06
9.36898e-06
9.13411e-06
8.70002e-06
8.95186e-06
9.19796e-06
9.3602e-06
9.42052e-06
9.37797e-06
9.32724e-06
9.28785e-06
9.28375e-06
9.2903e-06
9.33158e-06
9.38321e-06
9.42598e-06
9.36652e-06
9.20497e-06
8.95771e-06
8.51595e-06
8.77593e-06
9.02754e-06
9.17705e-06
9.23398e-06
9.19501e-06
9.14808e-06
9.11359e-06
9.10987e-06
9.11584e-06
9.15209e-06
9.19988e-06
9.23909e-06
9.18295e-06
9.03418e-06
8.78158e-06
8.33944e-06
8.59447e-06
8.84772e-06
8.96194e-06
9.0052e-06
8.97432e-06
8.93527e-06
8.9115e-06
8.90823e-06
8.91336e-06
8.93867e-06
8.97854e-06
9.00989e-06
8.96727e-06
8.85389e-06
8.59976e-06
8.16815e-06
8.39448e-06
8.64796e-06
8.72469e-06
8.76633e-06
8.73824e-06
8.70232e-06
8.68106e-06
8.67806e-06
8.68284e-06
8.70556e-06
8.74226e-06
8.77079e-06
8.7297e-06
8.65341e-06
8.39911e-06
7.99748e-06
8.17156e-06
8.41139e-06
8.4805e-06
8.52037e-06
8.49499e-06
8.46205e-06
8.44317e-06
8.44041e-06
8.44487e-06
8.46515e-06
8.49881e-06
8.52459e-06
8.4852e-06
8.41647e-06
8.17585e-06
7.81617e-06
7.9418e-06
8.16787e-06
8.22972e-06
8.26769e-06
8.24493e-06
8.21485e-06
8.19822e-06
8.19567e-06
8.19984e-06
8.21781e-06
8.24857e-06
8.2717e-06
8.23414e-06
8.17261e-06
7.94577e-06
7.59697e-06
7.70542e-06
7.91775e-06
7.9727e-06
8.00864e-06
7.98843e-06
7.96108e-06
7.94656e-06
7.94419e-06
7.9481e-06
7.9639e-06
7.9919e-06
8.01245e-06
7.97684e-06
7.92215e-06
7.70908e-06
7.37005e-06
7.46254e-06
7.6613e-06
7.7097e-06
7.74353e-06
7.72577e-06
7.70103e-06
7.68849e-06
7.68628e-06
7.68995e-06
7.70371e-06
7.72907e-06
7.74714e-06
7.71357e-06
7.66538e-06
7.46589e-06
7.13627e-06
7.21329e-06
7.39874e-06
7.44093e-06
7.47258e-06
7.45719e-06
7.43491e-06
7.42422e-06
7.42215e-06
7.42562e-06
7.43747e-06
7.46033e-06
7.476e-06
7.44455e-06
7.4025e-06
7.21635e-06
6.89578e-06
6.95786e-06
7.13028e-06
7.16662e-06
7.19603e-06
7.18291e-06
7.163e-06
7.15402e-06
7.15207e-06
7.15535e-06
7.16543e-06
7.1859e-06
7.19927e-06
7.17e-06
7.13375e-06
6.96064e-06
6.6487e-06
6.69643e-06
6.85618e-06
6.88699e-06
6.91413e-06
6.9032e-06
6.88552e-06
6.87813e-06
6.87629e-06
6.87939e-06
6.88783e-06
6.90604e-06
6.91721e-06
6.89015e-06
6.85937e-06
6.69894e-06
6.3951e-06
6.42915e-06
6.57662e-06
6.60225e-06
6.62709e-06
6.61826e-06
6.60269e-06
6.59677e-06
6.59502e-06
6.59796e-06
6.60489e-06
6.62096e-06
6.63002e-06
6.6052e-06
6.57954e-06
6.4314e-06
6.13508e-06
6.15617e-06
6.29178e-06
6.31257e-06
6.33513e-06
6.32829e-06
6.31472e-06
6.31013e-06
6.30846e-06
6.31126e-06
6.31681e-06
6.33085e-06
6.3379e-06
6.31532e-06
6.29445e-06
6.15817e-06
5.86874e-06
5.87765e-06
6.00186e-06
6.01815e-06
6.03844e-06
6.03348e-06
6.0218e-06
6.01842e-06
6.01682e-06
6.01949e-06
6.02378e-06
6.03592e-06
6.04107e-06
6.0207e-06
6.00429e-06
5.87942e-06
5.59622e-06
5.59378e-06
5.70706e-06
5.71919e-06
5.73726e-06
5.73407e-06
5.72415e-06
5.72187e-06
5.72034e-06
5.72288e-06
5.72603e-06
5.73638e-06
5.73975e-06
5.72157e-06
5.70926e-06
5.59533e-06
5.31772e-06
5.30483e-06
5.40764e-06
5.41597e-06
5.43186e-06
5.43033e-06
5.42206e-06
5.42076e-06
5.41929e-06
5.42172e-06
5.42384e-06
5.43252e-06
5.43422e-06
5.41817e-06
5.40963e-06
5.30618e-06
5.0335e-06
5.01111e-06
5.10395e-06
5.10881e-06
5.1226e-06
5.12261e-06
5.11587e-06
5.11544e-06
5.11402e-06
5.11634e-06
5.11755e-06
5.12469e-06
5.12484e-06
5.11086e-06
5.10574e-06
5.01227e-06
4.74394e-06
4.71306e-06
4.7964e-06
4.79816e-06
4.80994e-06
4.81136e-06
4.80603e-06
4.80637e-06
4.805e-06
4.80722e-06
4.80761e-06
4.81332e-06
4.81205e-06
4.80006e-06
4.79801e-06
4.71404e-06
4.44955e-06
4.41124e-06
4.48557e-06
4.48458e-06
4.49445e-06
4.49715e-06
4.49312e-06
4.49413e-06
4.4928e-06
4.49492e-06
4.49461e-06
4.49901e-06
4.49645e-06
4.48634e-06
4.48701e-06
4.41207e-06
4.15099e-06
4.1064e-06
4.17219e-06
4.16881e-06
4.1769e-06
4.18074e-06
4.17787e-06
4.17946e-06
4.17818e-06
4.1802e-06
4.17927e-06
4.18249e-06
4.1788e-06
4.17044e-06
4.17348e-06
4.10708e-06
3.84914e-06
3.79945e-06
3.85719e-06
3.8518e-06
3.85825e-06
3.86307e-06
3.86125e-06
3.86333e-06
3.86209e-06
3.86402e-06
3.86256e-06
3.86473e-06
3.86004e-06
3.8533e-06
3.85834e-06
3.8e-06
3.54511e-06
3.49159e-06
3.54176e-06
3.53472e-06
3.53971e-06
3.54534e-06
3.54443e-06
3.54692e-06
3.54573e-06
3.54756e-06
3.54567e-06
3.5469e-06
3.5414e-06
3.53611e-06
3.54277e-06
3.49202e-06
3.24028e-06
3.18425e-06
3.22735e-06
3.21903e-06
3.22276e-06
3.22902e-06
3.22889e-06
3.2317e-06
3.23057e-06
3.2323e-06
3.23004e-06
3.23048e-06
3.22435e-06
3.22032e-06
3.22824e-06
3.18458e-06
2.93636e-06
2.87916e-06
2.91568e-06
2.90647e-06
2.90912e-06
2.91583e-06
2.91636e-06
2.91942e-06
2.91835e-06
2.91998e-06
2.91743e-06
2.9172e-06
2.91062e-06
2.90766e-06
2.91648e-06
2.87941e-06
2.63537e-06
2.57828e-06
2.60874e-06
2.599e-06
2.60075e-06
2.60774e-06
2.60879e-06
2.61204e-06
2.61103e-06
2.61255e-06
2.60978e-06
2.60902e-06
2.60215e-06
2.6001e-06
2.60944e-06
2.57846e-06
2.33959e-06
2.28379e-06
2.30872e-06
2.2988e-06
2.29983e-06
2.30692e-06
2.30838e-06
2.31175e-06
2.3108e-06
2.31222e-06
2.30929e-06
2.30812e-06
2.30114e-06
2.29981e-06
2.30934e-06
2.28391e-06
2.05152e-06
1.99806e-06
2.01802e-06
2.00824e-06
2.00873e-06
2.01575e-06
2.0175e-06
2.02093e-06
2.02004e-06
2.02135e-06
2.01833e-06
2.01685e-06
2.00994e-06
2.00916e-06
2.01857e-06
1.99813e-06
1.77382e-06
1.72364e-06
1.73921e-06
1.72985e-06
1.72997e-06
1.73676e-06
1.73868e-06
1.74211e-06
1.74128e-06
1.74249e-06
1.73943e-06
1.73777e-06
1.73108e-06
1.73069e-06
1.73968e-06
1.72367e-06
1.50924e-06
1.46312e-06
1.47491e-06
1.46621e-06
1.46612e-06
1.47252e-06
1.47452e-06
1.47788e-06
1.47712e-06
1.47822e-06
1.4752e-06
1.47344e-06
1.46713e-06
1.46696e-06
1.47532e-06
1.46313e-06
1.26053e-06
1.21908e-06
1.2277e-06
1.21984e-06
1.21968e-06
1.22556e-06
1.22754e-06
1.23076e-06
1.23008e-06
1.23105e-06
1.22814e-06
1.22637e-06
1.22058e-06
1.22051e-06
1.22806e-06
1.21907e-06
1.03027e-06
9.93876e-07
9.9995e-07
9.93046e-07
9.92928e-07
9.9817e-07
1.00006e-06
1.00307e-06
1.00247e-06
1.00332e-06
1.00058e-06
9.98882e-07
9.93718e-07
9.93639e-07
1.00026e-06
9.93857e-07
8.19046e-07
7.87022e-07
7.91543e-07
7.85593e-07
7.85295e-07
7.89998e-07
7.91728e-07
7.9437e-07
7.93823e-07
7.94587e-07
7.9217e-07
7.9061e-07
7.85977e-07
7.86106e-07
7.91809e-07
7.87e-07
6.28589e-07
6.01566e-07
6.0473e-07
5.99822e-07
5.99478e-07
6.03509e-07
6.05023e-07
6.07277e-07
6.06802e-07
6.07454e-07
6.05389e-07
6.04018e-07
6.00049e-07
6.00252e-07
6.0495e-07
6.01545e-07
4.6284e-07
4.41058e-07
4.43158e-07
4.39293e-07
4.38998e-07
4.42278e-07
4.43545e-07
4.45387e-07
4.45e-07
4.45527e-07
4.43836e-07
4.42686e-07
4.39456e-07
4.39639e-07
4.43335e-07
4.41039e-07
3.24337e-07
3.07682e-07
3.09029e-07
3.06136e-07
3.0594e-07
3.08452e-07
3.09456e-07
3.10882e-07
3.1059e-07
3.10988e-07
3.09676e-07
3.08763e-07
3.06289e-07
3.06401e-07
3.09164e-07
3.07668e-07
2.14089e-07
2.02145e-07
2.02996e-07
2.0096e-07
2.00865e-07
2.02657e-07
2.03403e-07
2.04432e-07
2.04229e-07
2.04506e-07
2.03559e-07
2.02879e-07
2.01115e-07
2.0115e-07
2.03093e-07
2.02135e-07
1.31448e-07
1.23537e-07
1.24071e-07
1.22743e-07
1.22724e-07
1.23898e-07
1.24409e-07
1.2509e-07
1.24962e-07
1.25139e-07
1.24512e-07
1.24044e-07
1.22889e-07
1.22869e-07
1.24136e-07
1.2353e-07
7.39791e-08
6.9233e-08
6.95605e-08
6.87727e-08
6.87928e-08
6.94879e-08
6.98043e-08
7.02103e-08
7.01388e-08
7.02393e-08
6.98659e-08
6.95753e-08
6.88916e-08
6.88484e-08
6.96e-08
6.92296e-08
3.75558e-08
3.50319e-08
3.52187e-08
3.48037e-08
3.48318e-08
3.51974e-08
3.53708e-08
3.5585e-08
3.555e-08
3.56004e-08
3.54037e-08
3.52441e-08
3.48845e-08
3.48443e-08
3.52401e-08
3.50305e-08
1.6903e-08
1.57386e-08
1.58325e-08
1.56429e-08
1.56634e-08
1.58315e-08
1.59137e-08
1.60121e-08
1.59972e-08
1.60193e-08
1.5929e-08
1.58533e-08
1.56881e-08
1.56619e-08
1.58427e-08
1.57382e-08
6.609e-09
6.15248e-09
6.19228e-09
6.11888e-09
6.12946e-09
6.19579e-09
6.2288e-09
6.26756e-09
6.26206e-09
6.27046e-09
6.23496e-09
6.20453e-09
6.13932e-09
6.12654e-09
6.19644e-09
6.1524e-09
2.17908e-09
2.03099e-09
2.04468e-09
2.02132e-09
2.02537e-09
2.0473e-09
2.05822e-09
2.07099e-09
2.06925e-09
2.07197e-09
2.06028e-09
2.05022e-09
2.02867e-09
2.02389e-09
2.04609e-09
2.031e-09
5.75873e-10
5.37947e-10
5.41591e-10
5.35773e-10
5.36921e-10
5.42704e-10
5.45546e-10
5.48908e-10
5.48457e-10
5.4917e-10
5.46098e-10
5.43482e-10
5.37796e-10
5.36458e-10
5.41973e-10
5.37958e-10
1.11784e-10
1.04773e-10
1.05466e-10
1.04428e-10
1.04659e-10
1.05765e-10
1.06301e-10
1.06943e-10
1.06857e-10
1.06994e-10
1.06407e-10
1.05915e-10
1.04827e-10
1.0456e-10
1.05541e-10
1.04777e-10
1.47928e-11
1.39792e-11
1.40681e-11
1.3949e-11
1.39851e-11
1.41121e-11
1.41797e-11
1.42527e-11
1.42454e-11
1.42587e-11
1.41923e-11
1.41297e-11
1.40047e-11
1.39644e-11
1.40768e-11
1.39796e-11
3.17511e-12
3.07663e-12
3.09639e-12
3.07736e-12
3.0914e-12
3.09862e-12
3.11218e-12
3.11552e-12
3.11854e-12
3.11604e-12
3.11323e-12
3.1e-12
3.09289e-12
3.07841e-12
3.09684e-12
3.07644e-12
2.8304e-12
2.75765e-12
2.77569e-12
2.7596e-12
2.77347e-12
2.77558e-12
2.78757e-12
2.78779e-12
2.79152e-12
2.78808e-12
2.78814e-12
2.77629e-12
2.7742e-12
2.76004e-12
2.77577e-12
2.75741e-12
1.30114e-05
1.31244e-05
1.34269e-05
1.31114e-05
1.28211e-05
1.26663e-05
1.26212e-05
1.262e-05
1.26212e-05
1.26236e-05
1.26283e-05
1.26753e-05
1.28293e-05
1.31163e-05
1.34273e-05
1.31222e-05
1.33252e-05
1.33175e-05
1.3453e-05
1.31362e-05
1.28721e-05
1.27435e-05
1.27139e-05
1.27223e-05
1.27253e-05
1.27259e-05
1.27208e-05
1.27522e-05
1.28799e-05
1.31409e-05
1.34531e-05
1.33144e-05
1.35982e-05
1.3479e-05
1.3462e-05
1.31442e-05
1.29042e-05
1.28008e-05
1.27859e-05
1.28033e-05
1.28078e-05
1.28067e-05
1.27926e-05
1.28092e-05
1.29119e-05
1.31485e-05
1.34617e-05
1.3475e-05
1.38298e-05
1.36079e-05
1.34543e-05
1.31361e-05
1.29182e-05
1.28384e-05
1.28372e-05
1.28626e-05
1.28685e-05
1.28659e-05
1.28435e-05
1.28464e-05
1.29255e-05
1.31401e-05
1.34535e-05
1.36031e-05
1.40186e-05
1.37039e-05
1.34305e-05
1.31129e-05
1.2915e-05
1.28568e-05
1.28679e-05
1.29004e-05
1.29074e-05
1.29036e-05
1.2874e-05
1.28645e-05
1.29221e-05
1.31166e-05
1.34294e-05
1.36984e-05
1.41646e-05
1.37674e-05
1.33914e-05
1.30756e-05
1.28957e-05
1.28569e-05
1.28788e-05
1.29175e-05
1.29251e-05
1.29205e-05
1.28846e-05
1.28643e-05
1.29025e-05
1.3079e-05
1.339e-05
1.37613e-05
1.42688e-05
1.37991e-05
1.33377e-05
1.30256e-05
1.28627e-05
1.28412e-05
1.28724e-05
1.29159e-05
1.29241e-05
1.29188e-05
1.28779e-05
1.28483e-05
1.28692e-05
1.30289e-05
1.33361e-05
1.37925e-05
1.4333e-05
1.38009e-05
1.3272e-05
1.29674e-05
1.28213e-05
1.28153e-05
1.28539e-05
1.29009e-05
1.29093e-05
1.29038e-05
1.28593e-05
1.28222e-05
1.28278e-05
1.29706e-05
1.32703e-05
1.37939e-05
1.43596e-05
1.37757e-05
1.31987e-05
1.29062e-05
1.27764e-05
1.27835e-05
1.28278e-05
1.28772e-05
1.28857e-05
1.288e-05
1.28332e-05
1.27904e-05
1.27829e-05
1.29094e-05
1.3197e-05
1.37685e-05
1.43511e-05
1.37278e-05
1.31212e-05
1.28438e-05
1.2729e-05
1.27471e-05
1.27956e-05
1.28463e-05
1.28547e-05
1.28492e-05
1.28009e-05
1.27539e-05
1.27354e-05
1.2847e-05
1.31195e-05
1.37204e-05
1.43106e-05
1.36604e-05
1.30404e-05
1.27795e-05
1.26783e-05
1.27055e-05
1.2757e-05
1.28084e-05
1.28165e-05
1.28113e-05
1.27623e-05
1.27122e-05
1.26846e-05
1.27827e-05
1.30389e-05
1.36531e-05
1.42411e-05
1.35762e-05
1.29559e-05
1.27121e-05
1.2623e-05
1.26577e-05
1.27113e-05
1.27629e-05
1.27706e-05
1.27657e-05
1.27166e-05
1.26644e-05
1.26293e-05
1.27153e-05
1.29544e-05
1.35689e-05
1.4146e-05
1.34766e-05
1.28665e-05
1.26399e-05
1.25617e-05
1.26026e-05
1.26575e-05
1.27088e-05
1.27162e-05
1.27116e-05
1.26626e-05
1.26092e-05
1.25679e-05
1.26431e-05
1.28651e-05
1.34695e-05
1.4028e-05
1.33632e-05
1.27709e-05
1.25614e-05
1.24929e-05
1.25388e-05
1.25943e-05
1.26451e-05
1.2652e-05
1.26478e-05
1.25993e-05
1.25452e-05
1.2499e-05
1.25645e-05
1.27696e-05
1.33562e-05
1.38898e-05
1.32366e-05
1.26678e-05
1.24748e-05
1.24149e-05
1.24649e-05
1.25206e-05
1.25706e-05
1.25771e-05
1.25733e-05
1.25255e-05
1.24712e-05
1.24209e-05
1.24779e-05
1.26666e-05
1.323e-05
1.37335e-05
1.30977e-05
1.25559e-05
1.23787e-05
1.23266e-05
1.23798e-05
1.24352e-05
1.24843e-05
1.24903e-05
1.24869e-05
1.244e-05
1.23859e-05
1.23324e-05
1.23818e-05
1.25548e-05
1.30912e-05
1.35611e-05
1.29466e-05
1.24341e-05
1.22719e-05
1.22265e-05
1.22823e-05
1.23371e-05
1.23852e-05
1.23908e-05
1.23877e-05
1.23418e-05
1.22883e-05
1.22323e-05
1.2275e-05
1.24331e-05
1.29405e-05
1.33745e-05
1.27839e-05
1.23015e-05
1.21534e-05
1.2114e-05
1.21717e-05
1.22257e-05
1.22727e-05
1.22778e-05
1.22751e-05
1.22302e-05
1.21775e-05
1.21196e-05
1.21565e-05
1.23007e-05
1.27781e-05
1.31755e-05
1.26101e-05
1.21577e-05
1.20226e-05
1.19884e-05
1.20476e-05
1.21006e-05
1.21464e-05
1.21512e-05
1.21488e-05
1.2105e-05
1.20532e-05
1.19939e-05
1.20256e-05
1.2157e-05
1.26046e-05
1.29657e-05
1.2426e-05
1.20027e-05
1.18794e-05
1.18498e-05
1.19101e-05
1.19621e-05
1.20067e-05
1.20111e-05
1.20091e-05
1.19663e-05
1.19156e-05
1.18551e-05
1.18824e-05
1.2002e-05
1.24207e-05
1.27465e-05
1.22325e-05
1.18369e-05
1.17245e-05
1.16987e-05
1.17601e-05
1.18108e-05
1.18544e-05
1.18584e-05
1.18567e-05
1.1815e-05
1.17653e-05
1.17039e-05
1.17275e-05
1.18363e-05
1.22276e-05
1.25189e-05
1.20306e-05
1.16614e-05
1.15589e-05
1.15366e-05
1.15986e-05
1.16482e-05
1.16906e-05
1.16943e-05
1.16928e-05
1.16522e-05
1.16037e-05
1.15416e-05
1.15618e-05
1.16608e-05
1.20259e-05
1.22836e-05
1.18208e-05
1.14769e-05
1.13839e-05
1.13647e-05
1.14271e-05
1.14754e-05
1.15166e-05
1.152e-05
1.15188e-05
1.14793e-05
1.14321e-05
1.13696e-05
1.13867e-05
1.14765e-05
1.18165e-05
1.20413e-05
1.16037e-05
1.12843e-05
1.12004e-05
1.11841e-05
1.12466e-05
1.12934e-05
1.13333e-05
1.13363e-05
1.13354e-05
1.12972e-05
1.12514e-05
1.11889e-05
1.12032e-05
1.12839e-05
1.15997e-05
1.17924e-05
1.13797e-05
1.10839e-05
1.10091e-05
1.09955e-05
1.10576e-05
1.11027e-05
1.11413e-05
1.11439e-05
1.11433e-05
1.11064e-05
1.10623e-05
1.10002e-05
1.10119e-05
1.10836e-05
1.1376e-05
1.15374e-05
1.11492e-05
1.08762e-05
1.08104e-05
1.07994e-05
1.08608e-05
1.09041e-05
1.09411e-05
1.09433e-05
1.09431e-05
1.09077e-05
1.08653e-05
1.0804e-05
1.08132e-05
1.0876e-05
1.11458e-05
1.12766e-05
1.09122e-05
1.06615e-05
1.06043e-05
1.05958e-05
1.06561e-05
1.06975e-05
1.07329e-05
1.07348e-05
1.07349e-05
1.0701e-05
1.06605e-05
1.06003e-05
1.06071e-05
1.06614e-05
1.09091e-05
1.10102e-05
1.06688e-05
1.04396e-05
1.03907e-05
1.03844e-05
1.04434e-05
1.04829e-05
1.05167e-05
1.05182e-05
1.05187e-05
1.04863e-05
1.04477e-05
1.03888e-05
1.03935e-05
1.04397e-05
1.0666e-05
1.07384e-05
1.04191e-05
1.02108e-05
1.01695e-05
1.01652e-05
1.02226e-05
1.02602e-05
1.02924e-05
1.02936e-05
1.02943e-05
1.02635e-05
1.02268e-05
1.01695e-05
1.01722e-05
1.0211e-05
1.04166e-05
1.04616e-05
1.01635e-05
9.97548e-06
9.9411e-06
9.93861e-06
9.99422e-06
1.00299e-05
1.00604e-05
1.00612e-05
1.00622e-05
1.00331e-05
9.99827e-06
9.94275e-06
9.94386e-06
9.9758e-06
1.01613e-05
1.01804e-05
9.90248e-06
9.73412e-06
9.70602e-06
9.70506e-06
9.75872e-06
9.79233e-06
9.82104e-06
9.82162e-06
9.82282e-06
9.79546e-06
9.76266e-06
9.7091e-06
9.70878e-06
9.73457e-06
9.90056e-06
9.89503e-06
9.63654e-06
9.48705e-06
9.46461e-06
9.46495e-06
9.51647e-06
9.54793e-06
9.57486e-06
9.57517e-06
9.57659e-06
9.55097e-06
9.52028e-06
9.46889e-06
9.46736e-06
9.48763e-06
9.63488e-06
9.60592e-06
9.36594e-06
9.23449e-06
9.21698e-06
9.21842e-06
9.26764e-06
9.29694e-06
9.3221e-06
9.32216e-06
9.32379e-06
9.29989e-06
9.27135e-06
9.22227e-06
9.21972e-06
9.2352e-06
9.36453e-06
9.31332e-06
9.09094e-06
8.97657e-06
8.96326e-06
8.9656e-06
9.01245e-06
9.03958e-06
9.06304e-06
9.06286e-06
9.06467e-06
9.04245e-06
9.01605e-06
8.96936e-06
8.966e-06
8.97742e-06
9.08977e-06
9.01749e-06
8.81178e-06
8.71348e-06
8.70364e-06
8.70668e-06
8.75112e-06
8.77612e-06
8.79793e-06
8.79754e-06
8.79952e-06
8.77891e-06
8.75461e-06
8.71035e-06
8.70638e-06
8.71446e-06
8.81084e-06
8.71869e-06
8.52871e-06
8.44543e-06
8.43839e-06
8.44195e-06
8.48396e-06
8.5069e-06
8.52711e-06
8.52653e-06
8.52866e-06
8.5096e-06
8.48735e-06
8.44553e-06
8.44112e-06
8.44653e-06
8.52798e-06
8.41716e-06
8.24201e-06
8.17262e-06
8.16787e-06
8.17178e-06
8.21136e-06
8.23229e-06
8.25098e-06
8.25023e-06
8.25248e-06
8.23491e-06
8.21466e-06
8.17527e-06
8.17059e-06
8.17384e-06
8.24148e-06
8.11316e-06
7.95198e-06
7.89527e-06
7.89242e-06
7.89653e-06
7.93378e-06
7.95277e-06
7.96999e-06
7.9691e-06
7.97145e-06
7.9553e-06
7.93697e-06
7.89993e-06
7.89514e-06
7.8966e-06
7.95164e-06
7.80693e-06
7.65899e-06
7.61359e-06
7.61235e-06
7.6165e-06
7.65152e-06
7.66871e-06
7.68453e-06
7.68352e-06
7.68594e-06
7.67116e-06
7.65461e-06
7.61982e-06
7.61505e-06
7.615e-06
7.65882e-06
7.49871e-06
7.36318e-06
7.32765e-06
7.32778e-06
7.33185e-06
7.36478e-06
7.38032e-06
7.3948e-06
7.3937e-06
7.39616e-06
7.3827e-06
7.36779e-06
7.3351e-06
7.33046e-06
7.32915e-06
7.36316e-06
7.18867e-06
7.06459e-06
7.03758e-06
7.03887e-06
7.04276e-06
7.07376e-06
7.08779e-06
7.10099e-06
7.09983e-06
7.10231e-06
7.09009e-06
7.07667e-06
7.04593e-06
7.04153e-06
7.03914e-06
7.0647e-06
6.87685e-06
6.76335e-06
6.74357e-06
6.74587e-06
6.74949e-06
6.77869e-06
6.79138e-06
6.80335e-06
6.80216e-06
6.80463e-06
6.79359e-06
6.78152e-06
6.75258e-06
6.7485e-06
6.74519e-06
6.76358e-06
6.56326e-06
6.4595e-06
6.4458e-06
6.44895e-06
6.45223e-06
6.47979e-06
6.49126e-06
6.50207e-06
6.50086e-06
6.50331e-06
6.4934e-06
6.48254e-06
6.45525e-06
6.45157e-06
6.44747e-06
6.45984e-06
6.24784e-06
6.15307e-06
6.14439e-06
6.14828e-06
6.15117e-06
6.17721e-06
6.18759e-06
6.1973e-06
6.19609e-06
6.19849e-06
6.18966e-06
6.17987e-06
6.15412e-06
6.15087e-06
6.14609e-06
6.1535e-06
5.93054e-06
5.84409e-06
5.83947e-06
5.844e-06
5.84646e-06
5.8711e-06
5.88052e-06
5.88918e-06
5.888e-06
5.89033e-06
5.88252e-06
5.87369e-06
5.84934e-06
5.84657e-06
5.84121e-06
5.8446e-06
5.61134e-06
5.53264e-06
5.53126e-06
5.53634e-06
5.53834e-06
5.56168e-06
5.57024e-06
5.5779e-06
5.57676e-06
5.57902e-06
5.57218e-06
5.5642e-06
5.54115e-06
5.53887e-06
5.53302e-06
5.53321e-06
5.29034e-06
5.21889e-06
5.22e-06
5.22556e-06
5.22709e-06
5.24923e-06
5.25702e-06
5.26373e-06
5.26265e-06
5.26481e-06
5.25889e-06
5.25167e-06
5.22984e-06
5.22805e-06
5.22179e-06
5.21952e-06
4.96776e-06
4.90315e-06
4.90612e-06
4.91208e-06
4.91315e-06
4.93415e-06
4.94126e-06
4.94707e-06
4.94605e-06
4.94811e-06
4.94306e-06
4.93652e-06
4.91583e-06
4.91454e-06
4.90791e-06
4.90382e-06
4.64401e-06
4.58587e-06
4.59017e-06
4.59647e-06
4.59709e-06
4.61701e-06
4.6235e-06
4.62847e-06
4.62753e-06
4.62948e-06
4.62524e-06
4.61931e-06
4.5997e-06
4.59889e-06
4.59197e-06
4.58658e-06
4.31971e-06
4.26774e-06
4.27291e-06
4.27949e-06
4.27969e-06
4.29857e-06
4.3045e-06
4.30869e-06
4.30783e-06
4.30966e-06
4.30618e-06
4.3008e-06
4.28224e-06
4.28187e-06
4.2747e-06
4.26848e-06
3.99574e-06
3.94967e-06
3.95535e-06
3.96214e-06
3.96197e-06
3.97983e-06
3.98525e-06
3.98871e-06
3.98794e-06
3.98964e-06
3.98686e-06
3.98199e-06
3.96445e-06
3.96447e-06
3.95713e-06
3.95043e-06
3.67323e-06
3.63282e-06
3.63873e-06
3.64568e-06
3.64518e-06
3.66204e-06
3.66697e-06
3.66978e-06
3.66909e-06
3.67067e-06
3.66852e-06
3.66413e-06
3.64759e-06
3.64795e-06
3.64048e-06
3.63359e-06
3.35361e-06
3.3186e-06
3.32454e-06
3.33159e-06
3.33083e-06
3.34668e-06
3.35116e-06
3.35338e-06
3.35276e-06
3.35423e-06
3.35264e-06
3.34869e-06
3.33315e-06
3.3338e-06
3.32626e-06
3.31937e-06
3.03858e-06
3.00868e-06
3.01453e-06
3.02161e-06
3.02066e-06
3.03549e-06
3.03953e-06
3.04123e-06
3.04069e-06
3.04204e-06
3.04094e-06
3.03742e-06
3.02289e-06
3.02374e-06
3.01621e-06
3.00946e-06
2.73009e-06
2.705e-06
2.70477e-06
2.70181e-06
2.70169e-06
2.71637e-06
2.72408e-06
2.72429e-06
2.72543e-06
2.72514e-06
2.72555e-06
2.71834e-06
2.70393e-06
2.70386e-06
2.7062e-06
2.70577e-06
2.40721e-06
2.37141e-06
2.36733e-06
2.36479e-06
2.36417e-06
2.37795e-06
2.38508e-06
2.38505e-06
2.38614e-06
2.38585e-06
2.38648e-06
2.37982e-06
2.36631e-06
2.36675e-06
2.3687e-06
2.37193e-06
2.08199e-06
2.05104e-06
2.04723e-06
2.04687e-06
2.04582e-06
2.05834e-06
2.0641e-06
2.06409e-06
2.06484e-06
2.06482e-06
2.06537e-06
2.06006e-06
2.04778e-06
2.04869e-06
2.04854e-06
2.05153e-06
1.78157e-06
1.75771e-06
1.75499e-06
1.75642e-06
1.75518e-06
1.76633e-06
1.7708e-06
1.77085e-06
1.77129e-06
1.7715e-06
1.77193e-06
1.76789e-06
1.75696e-06
1.75808e-06
1.75621e-06
1.7582e-06
1.51109e-06
1.49349e-06
1.49192e-06
1.49449e-06
1.49326e-06
1.50303e-06
1.50644e-06
1.50654e-06
1.50675e-06
1.50711e-06
1.50744e-06
1.50441e-06
1.49485e-06
1.49598e-06
1.49304e-06
1.49397e-06
1.27019e-06
1.25759e-06
1.25701e-06
1.26018e-06
1.25909e-06
1.26752e-06
1.2701e-06
1.27023e-06
1.27028e-06
1.27072e-06
1.27097e-06
1.26873e-06
1.26049e-06
1.2615e-06
1.25803e-06
1.25804e-06
1.05718e-06
1.04844e-06
1.04866e-06
1.05204e-06
1.05114e-06
1.05831e-06
1.06026e-06
1.0604e-06
1.06035e-06
1.06082e-06
1.06101e-06
1.05936e-06
1.05236e-06
1.0532e-06
1.04957e-06
1.04885e-06
8.70058e-07
8.64225e-07
8.65052e-07
8.68381e-07
8.67693e-07
8.73708e-07
8.75161e-07
8.75295e-07
8.75193e-07
8.75652e-07
8.75798e-07
8.74606e-07
8.68737e-07
8.69382e-07
8.65847e-07
8.64604e-07
7.06731e-07
7.0306e-07
7.04291e-07
7.07401e-07
7.06919e-07
7.11889e-07
7.12969e-07
7.13088e-07
7.12963e-07
7.13388e-07
7.13506e-07
7.12648e-07
7.07804e-07
7.08255e-07
7.04978e-07
7.03397e-07
5.65098e-07
5.63001e-07
5.64468e-07
5.67254e-07
5.66965e-07
5.71001e-07
5.71803e-07
5.71898e-07
5.71772e-07
5.72146e-07
5.72248e-07
5.71634e-07
5.67705e-07
5.67973e-07
5.65052e-07
5.63294e-07
4.42442e-07
4.41464e-07
4.43103e-07
4.45506e-07
4.45399e-07
4.48606e-07
4.49208e-07
4.49262e-07
4.49154e-07
4.49464e-07
4.49572e-07
4.49126e-07
4.46009e-07
4.46102e-07
4.43593e-07
4.41717e-07
3.25894e-07
3.26121e-07
3.28882e-07
3.30881e-07
3.31203e-07
3.3363e-07
3.34167e-07
3.34017e-07
3.33989e-07
3.3419e-07
3.34481e-07
3.34081e-07
3.31736e-07
3.31411e-07
3.29329e-07
3.26366e-07
2.27261e-07
2.27598e-07
2.29938e-07
2.31402e-07
2.31758e-07
2.3352e-07
2.33944e-07
2.33798e-07
2.33796e-07
2.33928e-07
2.34181e-07
2.33862e-07
2.32163e-07
2.31806e-07
2.30281e-07
2.27786e-07
1.48824e-07
1.49101e-07
1.50907e-07
1.519e-07
1.52221e-07
1.53428e-07
1.53746e-07
1.53622e-07
1.53635e-07
1.53714e-07
1.53915e-07
1.53671e-07
1.52509e-07
1.52188e-07
1.51152e-07
1.49236e-07
9.03021e-08
9.04713e-08
9.17219e-08
9.23385e-08
9.25853e-08
9.33518e-08
9.35734e-08
9.34807e-08
9.34991e-08
9.35411e-08
9.36836e-08
9.35107e-08
9.27738e-08
9.25265e-08
9.18822e-08
9.05599e-08
5.01e-08
5.018e-08
5.09451e-08
5.12919e-08
5.1455e-08
5.18979e-08
5.20368e-08
5.19777e-08
5.19935e-08
5.20133e-08
5.21018e-08
5.19917e-08
5.15662e-08
5.14027e-08
5.10396e-08
5.02321e-08
2.51017e-08
2.51311e-08
2.5539e-08
2.57142e-08
2.58065e-08
2.60355e-08
2.61121e-08
2.60803e-08
2.60906e-08
2.60989e-08
2.61462e-08
2.60846e-08
2.58647e-08
2.5772e-08
2.55883e-08
2.51582e-08
1.12137e-08
1.12222e-08
1.14097e-08
1.14886e-08
1.15333e-08
1.16377e-08
1.16742e-08
1.16599e-08
1.16652e-08
1.16684e-08
1.16898e-08
1.16602e-08
1.15599e-08
1.1515e-08
1.14322e-08
1.12345e-08