/*--------------------------------*- C++ -*----------------------------------*\
| =========                 |                                                 |
| \\      /  F ield         | OpenFOAM: The Open Source CFD Toolbox           |
|  \\    /   O peration     | Version:  v1912                                 |
|   \\  /    A nd           | Website:  www.openfoam.com                      |
|    \\/     M anipulation  |                                                 |
\*---------------------------------------------------------------------------*/
FoamFile
{
    version     2.0;
    format      ascii;
    class       volVectorField;
    location    "196.8";
    object      wallShearStress;
}
// * * * * * * * * * * * * * * * * * * * * * * * * * * * * * * * * * * * * * //

dimensions      [1 -1 -2 0 0 0 0];


internalField   uniform (0 0 0);

boundaryField
{
    leftWall
    {
        type            calculated;
        value           nonuniform List<vector> 
128
(
(-0.000117896 0.0371944 0.277073)
(-0.000171727 -0.00267118 -0.298467)
(-6.19444e-05 0.00148666 -0.255611)
(-5.89963e-05 -0.000171812 -0.360313)
(-1.78381e-05 3.48976e-05 -0.278221)
(-1.58261e-05 3.25517e-05 -0.363575)
(-2.67341e-05 -6.01816e-05 -0.277187)
(-2.12897e-05 5.30526e-05 -0.373326)
(0.0876782 -0.000334076 0.138662)
(0.0191258 0.00183683 -0.223909)
(-0.00106583 -0.00026722 -0.26201)
(-7.52663e-05 7.44435e-05 -0.316268)
(0.0068887 -1.66944e-05 -0.304599)
(-0.00387767 1.12394e-05 -0.331377)
(0.00904284 -1.17754e-05 -0.314566)
(-0.00600875 1.15303e-05 -0.335357)
(-0.0153418 0.000701198 0.109695)
(-0.012422 0.000802379 -0.192599)
(0.000585729 0.000132931 -0.289907)
(-0.00118005 7.68929e-05 -0.298907)
(0.00277241 4.1199e-05 -0.332128)
(-0.0014026 -1.68454e-06 -0.311289)
(0.00325174 3.05044e-05 -0.343436)
(-0.00173541 -1.37402e-05 -0.309657)
(0.00596846 0.000537265 0.193939)
(-0.00924887 0.000678486 -0.189881)
(0.000147861 0.000200088 -0.275908)
(-0.00110918 7.05138e-05 -0.301601)
(0.000922877 3.7762e-05 -0.32408)
(-0.000500575 8.81046e-06 -0.318568)
(0.00104985 1.46137e-05 -0.334276)
(-0.000706312 4.25508e-06 -0.320959)
(-0.00731575 0.000557074 0.19225)
(-0.00584396 0.000734456 -0.193492)
(0.000103247 0.0001763 -0.271101)
(-0.000435876 6.37638e-05 -0.304166)
(0.000547062 2.73156e-05 -0.319113)
(-3.23076e-05 7.80528e-06 -0.320709)
(0.000477049 5.57009e-06 -0.329645)
(-0.000137703 6.45285e-06 -0.323286)
(-0.00400385 0.000535093 0.209852)
(-0.00535307 0.000744929 -0.194828)
(-0.000316056 0.000187975 -0.266885)
(-0.000373208 7.30353e-05 -0.30781)
(0.000184113 2.93374e-05 -0.318108)
(0.000100206 1.3768e-05 -0.324826)
(0.000185413 3.45134e-06 -0.329377)
(1.48991e-05 1.10418e-05 -0.326561)
(-0.00430409 0.000540656 0.213288)
(-0.00281696 0.000752397 -0.19558)
(-9.97444e-05 0.00019039 -0.264814)
(-0.000265744 7.09504e-05 -0.309019)
(2.98173e-05 2.75004e-05 -0.316526)
(5.32795e-05 1.31525e-05 -0.325949)
(1.19603e-05 1.06579e-06 -0.328262)
(4.07335e-05 1.08045e-05 -0.327452)
(-0.00178675 0.000533004 0.217519)
(-0.0015975 0.000748132 -0.19609)
(-8.42301e-05 0.000191946 -0.263209)
(-8.49751e-05 7.47152e-05 -0.309846)
(2.65406e-05 2.84156e-05 -0.315927)
(5.79076e-05 1.58432e-05 -0.326867)
(8.20744e-06 8.76066e-07 -0.327909)
(3.37938e-05 1.27617e-05 -0.328185)
(6.19636e-05 0.000539386 0.217205)
(9.69089e-05 0.000750545 -0.196216)
(3.74074e-05 0.000191375 -0.263215)
(3.85837e-05 7.21766e-05 -0.309994)
(1.70594e-05 2.7413e-05 -0.315676)
(1.0087e-05 1.42635e-05 -0.326869)
(6.52227e-06 2.19463e-07 -0.327673)
(8.08131e-06 1.15048e-05 -0.328146)
(0.00193006 0.000532954 0.217321)
(0.00179827 0.000747892 -0.1962)
(0.000159727 0.000191997 -0.263337)
(0.000155204 7.48793e-05 -0.30994)
(5.08296e-06 2.89294e-05 -0.316014)
(-3.86887e-05 1.61687e-05 -0.326938)
(5.39834e-06 1.15336e-06 -0.327974)
(-1.75062e-05 1.29806e-05 -0.328265)
(0.00441859 0.000540972 0.212778)
(0.00298331 0.000752263 -0.195842)
(0.000152782 0.000190476 -0.265071)
(0.000309013 7.16722e-05 -0.309182)
(-1.55368e-05 2.84174e-05 -0.316672)
(-4.60033e-05 1.36487e-05 -0.326069)
(-4.89443e-06 1.51154e-06 -0.32836)
(-3.18767e-05 1.10127e-05 -0.327598)
(0.00408425 0.000535507 0.209147)
(0.00542961 0.000744919 -0.195183)
(0.000337229 0.000188458 -0.267244)
(0.000387479 7.39302e-05 -0.308037)
(-0.000186914 3.01651e-05 -0.318314)
(-0.00010603 1.45124e-05 -0.324994)
(-0.0001811 4.0748e-06 -0.329514)
(-1.58522e-05 1.15477e-05 -0.326752)
(0.00733053 0.000557896 0.191385)
(0.00584743 0.000734333 -0.193869)
(-0.000130152 0.000177108 -0.271417)
(0.000412579 6.50349e-05 -0.304361)
(-0.00057092 2.80854e-05 -0.319283)
(1.25962e-05 8.20033e-06 -0.320855)
(-0.000483396 6.04837e-06 -0.329775)
(0.000127608 6.87147e-06 -0.323462)
(-0.00604901 0.000538182 0.193212)
(0.00913372 0.000678905 -0.190214)
(-0.00019273 0.000200412 -0.276163)
(0.00107328 7.06935e-05 -0.301775)
(-0.000946217 3.82257e-05 -0.324233)
(0.000480912 8.5317e-06 -0.318715)
(-0.0010664 1.4824e-05 -0.334417)
(0.00069023 4.48175e-06 -0.321142)
(0.0152147 0.000701185 0.109226)
(0.012288 0.000802492 -0.192888)
(-0.000643193 0.000134446 -0.290197)
(0.00113429 7.73168e-05 -0.299103)
(-0.00281689 4.17915e-05 -0.332348)
(0.00138209 -2.0728e-06 -0.311443)
(-0.00328464 3.06445e-05 -0.343646)
(0.00171146 -1.36668e-05 -0.309822)
(-0.087724 -0.000334154 0.137796)
(-0.0193141 0.00183701 -0.224131)
(0.000990988 -0.000265326 -0.2624)
(1.06956e-05 7.55217e-05 -0.316391)
(-0.00691904 -1.55095e-05 -0.304876)
(0.00386774 1.12253e-05 -0.331445)
(-0.00907646 -1.13171e-05 -0.31484)
(0.00598446 1.16439e-05 -0.335431)
)
;
    }
    rightWall
    {
        type            calculated;
        value           nonuniform 0();
    }
    leftSides_periodic0
    {
        type            cyclic;
    }
    leftSides_periodic1
    {
        type            cyclic;
    }
    rightSides_periodic0
    {
        type            cyclic;
    }
    rightSides_periodic1
    {
        type            cyclic;
    }
    leftInOut_periodic0
    {
        type            cyclic;
    }
    leftInOut_periodic1
    {
        type            cyclic;
    }
    rightInOut_periodic0
    {
        type            cyclic;
    }
    rightInOut_periodic1
    {
        type            cyclic;
    }
    procBoundary0to1
    {
        type            processor;
        value           uniform (0 0 0);
    }
    procBoundary0to1throughleftInOut_periodic1
    {
        type            processorCyclic;
        value           uniform (0 0 0);
    }
    procBoundary0to2
    {
        type            processor;
        value           uniform (0 0 0);
    }
    procBoundary0to2throughleftSides_periodic0
    {
        type            processorCyclic;
        value           uniform (0 0 0);
    }
}


// ************************************************************************* //
