0 	0 	0 	0
0 	0 	0 	0
0.00752508 	0.00130638 	0.000497054 	-0.284516
0.00752508 	0.00130638 	0.000497054 	-0.284516
0.00757525 	0.00135345 	0.000495186 	-0.284459
0.00762542 	0.00140051 	0.000493317 	-0.284401
0.00762542 	0.00140051 	0.000493317 	-0.284401
0.00767559 	0.00144757 	0.000491448 	-0.284343
0.00772575 	0.0014947 	0.000489571 	-0.284255
0.00777592 	0.00154183 	0.000487693 	-0.284166
0.00782609 	0.00158897 	0.000485816 	-0.284078
0.00782609 	0.00158897 	0.000485816 	-0.284078
0.00787625 	0.00163569 	0.000484252 	-0.283972
0.00792642 	0.0016821 	0.000482917 	-0.283853
0.00797659 	0.00172852 	0.000481581 	-0.283734
0.00802676 	0.00177467 	0.000480339 	-0.28361
0.00802676 	0.00177467 	0.000480339 	-0.28361
0.00807692 	0.00181984 	0.000479445 	-0.283462
0.00812709 	0.00186501 	0.000478552 	-0.283314
0.00812709 	0.00186501 	0.000478552 	-0.283314
0.00817726 	0.00191018 	0.000477658 	-0.283167
0.00822742 	0.00195382 	0.00047671 	-0.282994
0.00822742 	0.00195382 	0.00047671 	-0.282994
0.00827759 	0.00199729 	0.000475756 	-0.282819
0.00832776 	0.00204076 	0.000474801 	-0.282643
0.00832776 	0.00204076 	0.000474801 	-0.282643
0.00837793 	0.00208287 	0.000473971 	-0.282451
0.00842809 	0.00212423 	0.000473206 	-0.282249
0.00842809 	0.00212423 	0.000473206 	-0.282249
0.00847826 	0.0021656 	0.000472442 	-0.282046
0.00847826 	0.0021656 	0.000472442 	-0.282046
0.00852843 	0.00220583 	0.000471746 	-0.281833
0.00852843 	0.00220583 	0.000471746 	-0.281833
0.0085786 	0.00224472 	0.000471132 	-0.281605
0.0085786 	0.00224472 	0.000471132 	-0.281605
0.00862876 	0.0022836 	0.000470518 	-0.281377
0.00867893 	0.0023216 	0.000469936 	-0.281141
0.00867893 	0.0023216 	0.000469936 	-0.281141
0.0087291 	0.00235769 	0.000469421 	-0.280887
0.00877926 	0.00239378 	0.000468906 	-0.280634
0.00877926 	0.00239378 	0.000468906 	-0.280634
0.00882943 	0.00242915 	0.000468416 	-0.280374
0.0088796 	0.00246217 	0.000468008 	-0.280095
0.0088796 	0.00246217 	0.000468008 	-0.280095
0.00897993 	0.00252753 	0.000467225 	-0.279532
0.00897993 	0.00252753 	0.000467225 	-0.279532
0.0090301 	0.00255725 	0.000466981 	-0.279227
0.00908027 	0.00258697 	0.000466737 	-0.278922
0.00908027 	0.00258697 	0.000466737 	-0.278922
0.00913043 	0.00261588 	0.000466521 	-0.27861
0.0091806 	0.00264212 	0.000466398 	-0.278277
0.0091806 	0.00264212 	0.000466398 	-0.278277
0.00923077 	0.00266836 	0.000466275 	-0.277944
0.00928094 	0.00269349 	0.00046615 	-0.277602
0.00928094 	0.00269349 	0.00046615 	-0.277602
0.0093311 	0.00271615 	0.000466023 	-0.277239
0.00938127 	0.00273882 	0.000465896 	-0.276876
0.00938127 	0.00273882 	0.000465896 	-0.276876
0.00943144 	0.0027599 	0.00046575 	-0.2765
0.00943144 	0.0027599 	0.00046575 	-0.2765
0.00948161 	0.00277896 	0.000465582 	-0.276107
0.00948161 	0.00277896 	0.000465582 	-0.276107
0.00953177 	0.00279802 	0.000465413 	-0.275715
0.00953177 	0.00279802 	0.000465413 	-0.275715
0.00958194 	0.00281489 	0.000465231 	-0.275304
0.00958194 	0.00281489 	0.000465231 	-0.275304
0.00963211 	0.00283039 	0.000465042 	-0.274883
0.00963211 	0.00283039 	0.000465042 	-0.274883
0.00968227 	0.00284589 	0.000464852 	-0.274462
0.00968227 	0.00284589 	0.000464852 	-0.274462
0.00973244 	0.00285847 	0.000464637 	-0.274017
0.00978261 	0.00287053 	0.000464418 	-0.273568
0.00983278 	0.00288217 	0.000464192 	-0.273115
0.00988294 	0.00289098 	0.000463918 	-0.272639
0.00988294 	0.00289098 	0.000463918 	-0.272639
0.00993311 	0.00289978 	0.000463644 	-0.272162
0.00998328 	0.00290722 	0.000463337 	-0.271673
0.00998328 	0.00290722 	0.000463337 	-0.271673
0.0100334 	0.00291299 	0.00046299 	-0.271168
0.0100334 	0.00291299 	0.00046299 	-0.271168
0.0100836 	0.00291877 	0.000462643 	-0.270664
0.0101338 	0.00292222 	0.00046222 	-0.270136
0.0101338 	0.00292222 	0.00046222 	-0.270136
0.0102341 	0.00292749 	0.000461315 	-0.269064
0.0102341 	0.00292749 	0.000461315 	-0.269064
0.0102843 	0.0029278 	0.000460761 	-0.268503
0.0103344 	0.00292812 	0.000460207 	-0.267941
0.0103344 	0.00292812 	0.000460207 	-0.267941
0.0103846 	0.00292668 	0.000459549 	-0.267359
0.0103846 	0.00292668 	0.000459549 	-0.267359
0.0104348 	0.00292452 	0.000458848 	-0.266768
0.0104849 	0.00292185 	0.000458115 	-0.266171
0.0104849 	0.00292185 	0.000458115 	-0.266171
0.0105351 	0.00291736 	0.000457263 	-0.26555
0.0105853 	0.00291288 	0.000456412 	-0.264929
0.0105853 	0.00291288 	0.000456412 	-0.264929
0.0106355 	0.00290667 	0.000455446 	-0.264285
0.0106856 	0.00289995 	0.000454448 	-0.263633
0.0106856 	0.00289995 	0.000454448 	-0.263633
0.0107358 	0.00289244 	0.000453375 	-0.26297
0.0107358 	0.00289244 	0.000453375 	-0.26297
0.010786 	0.00288356 	0.000452175 	-0.262287
0.010786 	0.00288356 	0.000452175 	-0.262287
0.0108361 	0.00287466 	0.000450973 	-0.261603
0.0108361 	0.00287466 	0.000450973 	-0.261603
0.0108863 	0.00286386 	0.000449514 	-0.260889
0.0109365 	0.00285305 	0.000448054 	-0.260174
0.0109365 	0.00285305 	0.000448054 	-0.260174
0.0109866 	0.00284103 	0.000446426 	-0.259436
0.0109866 	0.00284103 	0.000446426 	-0.259436
0.0110368 	0.00282846 	0.000444722 	-0.258689
0.011087 	0.00281508 	0.000442933 	-0.257926
0.011087 	0.00281508 	0.000442933 	-0.257926
0.0111371 	0.0028005 	0.000441023 	-0.257143
0.0111873 	0.00278551 	0.000439075 	-0.256352
0.0111873 	0.00278551 	0.000439075 	-0.256352
0.0112375 	0.00276845 	0.000436941 	-0.255527
0.0112876 	0.00275139 	0.000434806 	-0.254703
0.0112876 	0.00275139 	0.000434806 	-0.254703
0.0113378 	0.00273166 	0.00043239 	-0.253836
0.011388 	0.00271184 	0.000429964 	-0.252967
0.011388 	0.00271184 	0.000429964 	-0.252967
0.0114883 	0.00266757 	0.000424471 	-0.25115
0.0114883 	0.00266757 	0.000424471 	-0.25115
0.0115385 	0.0026438 	0.000421415 	-0.250207
0.0115886 	0.00261938 	0.000418235 	-0.249251
0.0115886 	0.00261938 	0.000418235 	-0.249251
0.0116388 	0.00259409 	0.000414806 	-0.248269
0.011689 	0.00256822 	0.000411212 	-0.24727
0.011689 	0.00256822 	0.000411212 	-0.24727
0.0117391 	0.00254179 	0.000407393 	-0.246247
0.0117893 	0.0025149 	0.000403393 	-0.245205
0.0117893 	0.0025149 	0.000403393 	-0.245205
0.0118395 	0.0024876 	0.000399171 	-0.24414
0.0118896 	0.00245995 	0.000394763 	-0.243055
0.0118896 	0.00245995 	0.000394763 	-0.243055
0.0119398 	0.00243194 	0.000390116 	-0.241944
0.0119398 	0.00243194 	0.000390116 	-0.241944
0.01199 	0.00240364 	0.000385284 	-0.240813
0.01199 	0.00240364 	0.000385284 	-0.240813
0.0120401 	0.002375 	0.000380176 	-0.239653
0.0120401 	0.002375 	0.000380176 	-0.239653
0.0120903 	0.00234614 	0.000374901 	-0.238474
0.0120903 	0.00234614 	0.000374901 	-0.238474
0.0121405 	0.00231692 	0.000369308 	-0.237258
0.0121405 	0.00231692 	0.000369308 	-0.237258
0.0121906 	0.00228755 	0.000363589 	-0.236028
0.0121906 	0.00228755 	0.000363589 	-0.236028
0.0122408 	0.0022578 	0.000357512 	-0.234753
0.0122408 	0.0022578 	0.000357512 	-0.234753
0.012291 	0.00222798 	0.000351366 	-0.233469
0.012291 	0.00222798 	0.000351366 	-0.233469
0.0123411 	0.00219773 	0.000344811 	-0.23213
0.0123411 	0.00219773 	0.000344811 	-0.23213
0.0123913 	0.0021674 	0.000338176 	-0.230779
0.0123913 	0.0021674 	0.000338176 	-0.230779
0.0124415 	0.00213677 	0.000331208 	-0.229381
0.0124916 	0.00210599 	0.000324071 	-0.227958
0.0124916 	0.00210599 	0.000324071 	-0.227958
0.012592 	0.00204386 	0.000309052 	-0.224998
0.012592 	0.00204386 	0.000309052 	-0.224998
0.0126421 	0.0020126 	0.000301281 	-0.223475
0.0126923 	0.00198111 	0.000293159 	-0.221886
0.0126923 	0.00198111 	0.000293159 	-0.221886
0.0127425 	0.00194957 	0.000284929 	-0.220275
0.0127425 	0.00194957 	0.000284929 	-0.220275
0.0127926 	0.00191788 	0.000276453 	-0.218611
0.0128428 	0.00188611 	0.000267789 	-0.216898
0.0128428 	0.00188611 	0.000267789 	-0.216898
0.012893 	0.00185428 	0.000259006 	-0.215155
0.0129431 	0.00182233 	0.000249952 	-0.213329
0.0129431 	0.00182233 	0.000249952 	-0.213329
0.0129933 	0.00179036 	0.000240799 	-0.211466
0.0130435 	0.00175833 	0.000231499 	-0.209548
0.0130435 	0.00175833 	0.000231499 	-0.209548
0.0130936 	0.00172626 	0.000222028 	-0.207548
0.0131438 	0.00169418 	0.000212471 	-0.2055
0.0131438 	0.00169418 	0.000212471 	-0.2055
0.013194 	0.00166208 	0.000202792 	-0.203374
0.0132441 	0.00162998 	0.000193018 	-0.201155
0.0132441 	0.00162998 	0.000193018 	-0.201155
0.0132943 	0.00159789 	0.000183197 	-0.198872
0.0133445 	0.00156581 	0.000173329 	-0.196492
0.0133445 	0.00156581 	0.000173329 	-0.196492
0.0133946 	0.00153373 	0.000163456 	-0.19399
0.0134448 	0.00150163 	0.000153603 	-0.191399
0.0134448 	0.00150163 	0.000153603 	-0.191399
0.013495 	0.0014695 	0.000143781 	-0.188706
0.0135452 	0.00143726 	0.00013407 	-0.185837
0.0135452 	0.00143726 	0.00013407 	-0.185837
0.0136455 	0.00137235 	0.000114997 	-0.179721
0.0136455 	0.00137235 	0.000114997 	-0.179721
0.0136957 	0.00133953 	0.000105715 	-0.176427
0.0137458 	0.00130624 	9.67085e-05 	-0.172916
0.0137458 	0.00130624 	9.67085e-05 	-0.172916
0.013796 	0.00127247 	8.79498e-05 	-0.169223
0.0138462 	0.00123811 	7.94717e-05 	-0.165333
0.0138462 	0.00123811 	7.94717e-05 	-0.165333
0.0138963 	0.00120304 	7.13105e-05 	-0.161226
0.0138963 	0.00120304 	7.13105e-05 	-0.161226
0.0139465 	0.00116676 	6.36325e-05 	-0.156803
0.0139967 	0.00112932 	5.63743e-05 	-0.152108
0.0139967 	0.00112932 	5.63743e-05 	-0.152108
0.0140468 	0.00109053 	4.95561e-05 	-0.147123
0.0140468 	0.00109053 	4.95561e-05 	-0.147123
0.014097 	0.00105015 	4.32075e-05 	-0.141823
0.0141472 	0.00100789 	3.73539e-05 	-0.136181
0.0141973 	0.000963424 	3.2009e-05 	-0.130162
0.0141973 	0.000963424 	3.2009e-05 	-0.130162
0.0142475 	0.000915836 	2.72573e-05 	-0.12366
0.0142977 	0.00086504 	2.30017e-05 	-0.116705
0.0143478 	0.000810706 	1.92001e-05 	-0.109291
0.0143478 	0.000810706 	1.92001e-05 	-0.109291
0.014398 	0.000752651 	1.5827e-05 	-0.101426
0.014398 	0.000752651 	1.5827e-05 	-0.101426
0.0144482 	0.000690962 	1.28597e-05 	-0.093147
0.0144983 	0.000626115 	1.02686e-05 	-0.0845242
0.0144983 	0.000626115 	1.02686e-05 	-0.0845242
0.0145485 	0.000559037 	8.02602e-06 	-0.0756599
0.0145987 	0.000491037 	6.11354e-06 	-0.0666793
0.0145987 	0.000491037 	6.11354e-06 	-0.0666793
0.0146488 	0.000423533 	4.51326e-06 	-0.0577098
0.014699 	0.000357663 	3.21222e-06 	-0.0488572
0.014699 	0.000357663 	3.21222e-06 	-0.0488572
0.0147492 	0.000293943 	2.20658e-06 	-0.0401893
0.0147993 	0.000232092 	1.47329e-06 	-0.0317336
0.0147993 	0.000232092 	1.47329e-06 	-0.0317336
0.0148495 	0.000170908 	1.03073e-06 	-0.0234858
0.0148495 	0.000170908 	1.03073e-06 	-0.0234858
0.0148997 	0.000109595 	6.68438e-07 	-0.015433
0.0148997 	0.000109595 	6.68438e-07 	-0.015433
0.0149498 	5.10322e-05 	3.02352e-07 	-0.00759652
0.0149498 	5.10322e-05 	3.02352e-07 	-0.00759652
0.015 	0 	0 	0
