/*--------------------------------*- C++ -*----------------------------------*\
| =========                 |                                                 |
| \\      /  F ield         | OpenFOAM: The Open Source CFD Toolbox           |
|  \\    /   O peration     | Version:  v1912                                 |
|   \\  /    A nd           | Website:  www.openfoam.com                      |
|    \\/     M anipulation  |                                                 |
\*---------------------------------------------------------------------------*/
FoamFile
{
    version     2.0;
    format      ascii;
    class       volScalarField;
    location    "200";
    object      turbulenceProperties:alphat;
}
// * * * * * * * * * * * * * * * * * * * * * * * * * * * * * * * * * * * * * //

dimensions      [1 -1 -1 0 0 0 0];


internalField   nonuniform List<scalar> 
40448
(
1.16967e-08
5.42244e-09
1.90605e-09
5.39109e-09
5.26065e-09
6.22001e-09
6.41323e-09
6.66793e-09
6.64746e-09
6.65513e-09
6.38327e-09
6.17972e-09
5.2146e-09
5.35183e-09
1.89174e-09
5.3837e-09
2.00771e-08
1.36858e-08
1.84818e-08
1.9817e-08
1.97696e-08
2.06091e-08
2.09256e-08
2.13757e-08
2.13213e-08
2.13504e-08
2.08928e-08
2.05755e-08
1.97373e-08
1.97929e-08
1.8509e-08
1.3666e-08
2.2355e-07
1.74412e-07
3.37009e-07
3.08019e-07
3.09084e-07
3.10012e-07
3.13117e-07
3.17863e-07
3.17101e-07
3.17581e-07
3.12971e-07
3.10027e-07
3.0922e-07
3.08203e-07
3.37797e-07
1.7466e-07
1.72256e-06
1.21778e-06
2.43796e-06
2.2317e-06
2.23845e-06
2.24155e-06
2.26318e-06
2.2965e-06
2.29094e-06
2.29457e-06
2.26235e-06
2.24195e-06
2.23976e-06
2.23332e-06
2.44375e-06
1.21973e-06
8.10701e-06
5.12987e-06
1.03601e-05
9.6224e-06
9.64355e-06
9.66838e-06
9.76226e-06
9.90677e-06
9.88242e-06
9.89861e-06
9.75881e-06
9.67019e-06
9.64909e-06
9.62933e-06
1.03842e-05
5.13772e-06
2.78565e-05
1.56967e-05
3.14411e-05
2.99598e-05
2.99925e-05
3.01725e-05
3.04786e-05
3.09476e-05
3.08698e-05
3.09218e-05
3.0466e-05
3.01755e-05
3.00057e-05
2.99779e-05
3.15102e-05
1.57175e-05
7.68729e-05
3.8327e-05
7.46633e-05
7.39579e-05
7.39218e-05
7.4832e-05
7.56595e-05
7.6919e-05
7.67182e-05
7.68507e-05
7.56159e-05
7.4823e-05
7.39326e-05
7.3984e-05
7.48127e-05
3.83663e-05
0.000178299
7.83405e-05
0.000145715
0.000151672
0.000151262
0.000154495
0.000156408
0.000159309
0.000158873
0.000159152
0.000156278
0.000154424
0.000151219
0.000151668
0.000145969
7.83881e-05
0.000355257
0.00013805
0.000242247
0.000266101
0.000264643
0.000273098
0.000276895
0.000282653
0.000281835
0.000282346
0.00027658
0.000272863
0.00026444
0.000265977
0.00024261
0.000138076
0.000617641
0.000215169
0.000354514
0.000410128
0.00040665
0.000423932
0.000430459
0.000440392
0.000439045
0.000439866
0.000429833
0.000423397
0.000406155
0.000409765
0.000354977
0.000215125
0.000955909
0.000302178
0.00044152
0.000570473
0.000563891
0.000593327
0.000603266
0.000618482
0.000616487
0.000617682
0.000602211
0.000592364
0.000562986
0.000569756
0.000441954
0.000301822
0.00134864
0.000368778
0.000515526
0.000707247
0.000692637
0.000751145
0.000767405
0.000793469
0.000790186
0.000792112
0.000765373
0.000749071
0.000690754
0.000705634
0.000516037
0.000368365
0.00177375
0.000437958
0.000585896
0.000811338
0.000793454
0.000861581
0.000880126
0.000910064
0.00090628
0.000908528
0.000877791
0.0008592
0.000791307
0.000809501
0.000586493
0.000437508
0.00221429
0.000511123
0.000652806
0.000910105
0.000889348
0.000965283
0.000985695
0.00101869
0.00101451
0.00101703
0.000983114
0.000962686
0.000887022
0.000908108
0.000653487
0.000510645
0.00261628
0.000588882
0.000716314
0.00100589
0.000982233
0.00106617
0.00108848
0.00112451
0.00111995
0.00112274
0.00108566
0.00106337
0.000979745
0.00100375
0.000717077
0.000588382
0.00292474
0.000672118
0.000776904
0.00109924
0.0010726
0.00116492
0.00118917
0.00122828
0.00122333
0.00122641
0.00118611
0.00116191
0.00106996
0.00109698
0.000777768
0.000671589
0.0032454
0.000762008
0.000835499
0.00119168
0.00116185
0.00126308
0.00128926
0.00133149
0.00132613
0.00132953
0.00128597
0.00125987
0.00115907
0.00118929
0.00083649
0.00076153
0.00359934
0.000860181
0.000893436
0.00128641
0.00125281
0.00136409
0.0013921
0.00143756
0.00143172
0.00143552
0.00138859
0.00136066
0.00124989
0.00128385
0.000894522
0.000859727
0.00400373
0.000968756
0.00095235
0.00138833
0.00134991
0.00147362
0.00150314
0.00155208
0.00154564
0.00154996
0.00149949
0.00146997
0.0013467
0.00138565
0.00095349
0.00096834
0.00447323
0.00108999
0.00101401
0.00150342
0.0014586
0.00159821
0.00162838
0.00168021
0.00167311
0.001678
0.00162471
0.00159443
0.00145504
0.0015005
0.00101534
0.0010896
0.00500222
0.00122616
0.00108037
0.0016349
0.00158376
0.00173859
0.00176816
0.00182245
0.00181452
0.00182003
0.00176457
0.00173473
0.00158002
0.00163173
0.00108184
0.00122571
0.0055503
0.00137953
0.0011535
0.00177859
0.00172321
0.00188947
0.00191866
0.00197786
0.00196856
0.00197514
0.00191514
0.00188534
0.00171922
0.00177537
0.00115498
0.0013791
0.00608551
0.00155201
0.00123526
0.00192714
0.00186736
0.00204855
0.00207845
0.00213707
0.00212768
0.00213452
0.00207502
0.00204442
0.00186305
0.00192363
0.0012369
0.00155166
0.00659302
0.00174408
0.00132733
0.00207152
0.00201362
0.00218275
0.00220866
0.00227098
0.00226051
0.00226809
0.0022058
0.00217953
0.00200921
0.00206878
0.00132918
0.00174386
0.00706921
0.00195085
0.00143167
0.00218468
0.00213939
0.0022987
0.00232356
0.00238836
0.00237691
0.00238512
0.00232101
0.00229574
0.00213627
0.00218257
0.00143364
0.00195084
0.00751761
0.00216693
0.00155001
0.00228663
0.00225049
0.00239694
0.00241893
0.00248324
0.00247159
0.00248019
0.00241703
0.0023946
0.00224832
0.00228551
0.00155197
0.00216703
0.00794412
0.00239116
0.00168339
0.00237587
0.00235327
0.00247622
0.00249387
0.00255491
0.00254326
0.00255197
0.00249283
0.0024751
0.00235233
0.00237597
0.00168546
0.00239152
0.00835278
0.00262115
0.00183286
0.00245273
0.00244822
0.00253806
0.00255021
0.00260556
0.00259409
0.00260242
0.00255042
0.00253846
0.00244895
0.00245444
0.00183524
0.00262189
0.00874744
0.00287412
0.00199793
0.0025215
0.00253739
0.00258697
0.00259225
0.00263952
0.00262856
0.00263656
0.00259394
0.00258883
0.00254034
0.0025254
0.00200047
0.00287537
0.00912939
0.00315172
0.00217636
0.00259085
0.00262602
0.00263142
0.00262931
0.00266565
0.00265585
0.00266334
0.00263217
0.00263507
0.00263119
0.00259651
0.00217904
0.00315297
0.00949677
0.00345394
0.00236849
0.002667
0.00272121
0.00268308
0.00267344
0.00269733
0.00268902
0.00269537
0.00267769
0.00268865
0.00272848
0.00267404
0.00237133
0.00345552
0.0098492
0.00378164
0.00257688
0.00275107
0.00282774
0.0027497
0.00273324
0.00274457
0.00273785
0.00274327
0.00273922
0.00275691
0.00283695
0.00275976
0.00257942
0.00378411
0.0101963
0.00413576
0.00279596
0.0028444
0.00294718
0.00283453
0.0028131
0.00281249
0.00280755
0.00281201
0.00282015
0.00284321
0.00295863
0.00285501
0.00279862
0.00413759
0.0105824
0.00451443
0.00303759
0.00294981
0.00308188
0.00294023
0.00291581
0.00290467
0.0029012
0.00290435
0.00292387
0.0029507
0.00309477
0.00296224
0.0030404
0.00451654
0.0110758
0.0049188
0.00330183
0.00307091
0.00323514
0.00306968
0.0030439
0.00302326
0.00302177
0.0030235
0.00305345
0.00308189
0.00324899
0.00308488
0.00330476
0.00492191
0.0117377
0.00534735
0.00358742
0.00321228
0.00341065
0.00322803
0.00320216
0.00317269
0.00317417
0.0031744
0.00321257
0.00324131
0.00342618
0.00322731
0.00359051
0.00534977
0.0125874
0.005792
0.00388097
0.00337881
0.00361381
0.00342096
0.00339724
0.00336019
0.00336418
0.00336249
0.00340884
0.00343562
0.0036303
0.00339512
0.00388334
0.00579328
0.0134527
0.00623886
0.0041203
0.00357765
0.00385172
0.00365511
0.00363713
0.0035941
0.00360113
0.00359652
0.00364925
0.00367095
0.00386878
0.00359553
0.00412178
0.0062396
0.013968
0.00665563
0.00435462
0.00381752
0.00413565
0.00393888
0.00393042
0.00388397
0.00389399
0.00388759
0.00394258
0.00395554
0.00415359
0.00383606
0.00435582
0.0066553
0.0140631
0.0070265
0.00459535
0.00410632
0.00447613
0.00427889
0.00428179
0.00423684
0.00424943
0.00424041
0.00429575
0.00429593
0.00449522
0.00412503
0.0045962
0.00702579
0.0141251
0.00740076
0.00484238
0.00444347
0.00486324
0.00467016
0.00468889
0.00464796
0.0046636
0.00465116
0.00470094
0.00468683
0.00488245
0.00446234
0.00484288
0.00739961
0.0141619
0.0077787
0.00509572
0.00475836
0.00520235
0.00503629
0.00507127
0.00505323
0.00507042
0.00505803
0.00508084
0.00505042
0.00522449
0.0047792
0.00509585
0.00777694
0.0141815
0.00816151
0.00535548
0.00503596
0.00550521
0.00534932
0.00539428
0.00537765
0.00539692
0.00538239
0.0054036
0.00536301
0.00552662
0.00505639
0.0053552
0.00815897
0.014191
0.0085502
0.00562172
0.00533482
0.005825
0.00568544
0.00574026
0.00572361
0.00574548
0.00572834
0.00574931
0.0056987
0.00584533
0.00535457
0.00562101
0.00854661
0.0141973
0.00894515
0.0058945
0.00565091
0.00615741
0.00603992
0.00610491
0.00609071
0.00611467
0.00609533
0.00611351
0.00605255
0.00617636
0.00566976
0.00589336
0.00894018
0.014207
0.00934562
0.00617377
0.0059798
0.0064981
0.0064067
0.00648162
0.00647167
0.00649724
0.00647608
0.0064897
0.00641865
0.00651549
0.00599747
0.00617219
0.00933979
0.0142265
0.00974774
0.00645933
0.00631698
0.00684293
0.0067808
0.00686494
0.00686013
0.00688688
0.00686433
0.00687249
0.0067921
0.00685863
0.0063333
0.00645733
0.00974137
0.0142615
0.0101491
0.00675072
0.00665831
0.00718803
0.00715892
0.0072521
0.0072529
0.00728058
0.00725687
0.00725919
0.0071695
0.00720212
0.00667318
0.00674828
0.0101425
0.0143173
0.0105485
0.0070472
0.00699973
0.00753221
0.00753886
0.00764178
0.00764993
0.00767836
0.00765362
0.00764839
0.00754864
0.00754481
0.00701313
0.0070444
0.0105417
0.0143992
0.0109453
0.00734884
0.00733933
0.00787486
0.00791897
0.00803157
0.00804819
0.0080771
0.00805157
0.00803764
0.00792794
0.00788603
0.00735135
0.00734566
0.0109384
0.0145136
0.011339
0.00765668
0.00767645
0.0082134
0.00829617
0.00841812
0.00844405
0.00847311
0.00844704
0.00842362
0.0083043
0.0082232
0.00768716
0.00765313
0.0113321
0.0146636
0.0117293
0.00797095
0.00800882
0.00854523
0.00866791
0.00879864
0.00883442
0.00886344
0.00883708
0.00880361
0.00867524
0.00855383
0.00801829
0.00796708
0.0117226
0.0148504
0.0121164
0.00829078
0.0083338
0.00886793
0.00903204
0.00917081
0.00921695
0.00924565
0.00921926
0.00917533
0.00903861
0.00887545
0.00834216
0.00828659
0.0121097
0.0150731
0.0125007
0.00861518
0.00865248
0.00918277
0.00938659
0.00953245
0.00958959
0.00961758
0.00959156
0.00953655
0.00939249
0.00918932
0.00865974
0.00861075
0.0124942
0.0153298
0.0128826
0.00894318
0.00896646
0.00949144
0.00972978
0.00988152
0.00995048
0.00997729
0.00995215
0.00988532
0.00973516
0.00949713
0.00897272
0.00893855
0.0128761
0.0154797
0.0132616
0.00927387
0.00927636
0.00979467
0.0100609
0.0102193
0.0102979
0.0103238
0.0102993
0.0102227
0.0100657
0.00979961
0.00928163
0.00926908
0.0132552
0.0155221
0.0136367
0.00960627
0.00958224
0.0100927
0.0103821
0.0105473
0.0106337
0.0106594
0.0106348
0.0105503
0.0103864
0.0100969
0.00958661
0.00960138
0.0136304
0.0156753
0.0140068
0.0099395
0.00988395
0.0103853
0.0106944
0.0108659
0.0109588
0.0109847
0.0109598
0.0108686
0.0106982
0.010389
0.00988754
0.00993457
0.0140005
0.0160266
0.0143707
0.0102727
0.0101813
0.0106725
0.0109981
0.0111753
0.0112738
0.0113
0.0112747
0.0111777
0.0110015
0.0106758
0.0101842
0.0102678
0.0143646
0.016608
0.0147274
0.0106051
0.0104738
0.0109538
0.011293
0.0114752
0.0115785
0.0116049
0.0115793
0.0114773
0.0112961
0.0109567
0.0104763
0.0106003
0.0147214
0.0173332
0.0150754
0.0109357
0.010761
0.0112287
0.0115788
0.0117651
0.0118724
0.0118992
0.0118731
0.0117669
0.0115816
0.0112313
0.0107631
0.010931
0.0150694
0.0177184
0.015413
0.0112641
0.0110424
0.0114965
0.0118547
0.0120441
0.0121546
0.0121817
0.0121552
0.0120457
0.0118572
0.0114988
0.0110442
0.0112596
0.0154073
0.018082
0.0157385
0.0115893
0.011318
0.0117569
0.0121198
0.0123111
0.0124238
0.0124512
0.0124243
0.0123126
0.0121222
0.011759
0.0113197
0.0115852
0.015733
0.0184335
0.01605
0.011911
0.0115882
0.0120099
0.0123741
0.0125658
0.0126787
0.0127069
0.0126791
0.0125671
0.0123763
0.0120122
0.0115899
0.0119073
0.0160447
0.0187664
0.0163453
0.0122284
0.011854
0.0122564
0.0126177
0.012808
0.0129193
0.0129478
0.0129196
0.0128094
0.0126199
0.0122587
0.0118559
0.0122252
0.0163403
0.0190751
0.0166222
0.0125407
0.0121165
0.0124972
0.0128511
0.0130381
0.0131458
0.0131744
0.0131461
0.0130395
0.0128534
0.0125
0.0121188
0.0125382
0.0166174
0.0193545
0.0168778
0.012847
0.0123765
0.0127335
0.0130746
0.0132558
0.0133589
0.0133871
0.0133592
0.0132572
0.0130772
0.0127368
0.0123792
0.0128452
0.0168734
0.0196002
0.0171097
0.0131461
0.0126345
0.0129662
0.0132883
0.0134616
0.0135589
0.0135865
0.0135593
0.0134631
0.0132911
0.01297
0.0126378
0.013145
0.0171055
0.0198088
0.0173148
0.0134361
0.01289
0.0131948
0.0134926
0.0136558
0.0137463
0.0137727
0.0137467
0.0136575
0.0134958
0.0131993
0.0128941
0.013436
0.0173109
0.0199771
0.0174903
0.0137155
0.0131408
0.0134174
0.0136877
0.0138385
0.013921
0.013946
0.0139216
0.0138405
0.0136913
0.0134225
0.0131457
0.0137162
0.0174868
0.0201024
0.0176333
0.0139819
0.0133848
0.0136325
0.0138736
0.0140099
0.0140833
0.0141063
0.014084
0.0140123
0.0138778
0.0136383
0.0133907
0.0139837
0.0176302
0.0201824
0.0177411
0.0142329
0.0136213
0.0138398
0.0140501
0.0141699
0.0142327
0.0142534
0.0142336
0.0141727
0.0140548
0.0138463
0.0136282
0.0142361
0.0177384
0.0202147
0.0178112
0.0144649
0.0138492
0.0140386
0.0142168
0.0143181
0.0143691
0.0143873
0.0143703
0.0143213
0.0142222
0.014046
0.0138572
0.0144692
0.0178089
0.0201967
0.0178414
0.014676
0.0140669
0.0142281
0.0143731
0.0144541
0.0144924
0.0145076
0.0144938
0.0144577
0.0143791
0.0142363
0.0140761
0.0146817
0.0178398
0.0201237
0.0178301
0.0148645
0.0142727
0.0144069
0.0145181
0.0145774
0.0146019
0.0146138
0.0146036
0.0145814
0.0145247
0.0144161
0.0142829
0.0148715
0.0178291
0.01999
0.0177758
0.0150287
0.0144643
0.0145736
0.0146506
0.0146871
0.0146974
0.0147057
0.0146993
0.0146917
0.014658
0.0145836
0.0144758
0.0150372
0.0177754
0.0197938
0.0176763
0.0151673
0.0146397
0.0147264
0.0147696
0.0147826
0.0147781
0.0147828
0.0147802
0.0147877
0.0147775
0.0147373
0.0146524
0.0151772
0.0176766
0.0195387
0.0175349
0.0152792
0.0147966
0.0148635
0.0148736
0.014863
0.0148434
0.0148444
0.0148458
0.0148685
0.0148822
0.0148753
0.0148104
0.0152905
0.0175361
0.0192259
0.0173548
0.0153622
0.014932
0.0149829
0.0149617
0.0149277
0.0148933
0.0148904
0.014896
0.0149336
0.0149709
0.0149955
0.0149468
0.0153748
0.017357
1.23993e-08
8.09803e-09
5.12621e-09
5.11395e-09
5.34612e-09
5.45254e-09
5.5039e-09
5.54056e-09
5.54745e-09
5.54748e-09
5.51872e-09
5.47245e-09
5.36754e-09
5.13258e-09
5.14296e-09
8.11258e-09
8.99896e-08
2.41342e-08
2.08661e-08
2.62371e-08
2.66875e-08
2.87811e-08
2.94526e-08
3.02269e-08
3.01909e-08
3.02326e-08
2.94456e-08
2.87812e-08
2.66753e-08
2.62298e-08
2.09112e-08
2.41275e-08
1.52867e-06
3.38977e-07
3.32723e-07
4.38262e-07
4.42167e-07
4.8121e-07
4.93242e-07
5.07649e-07
5.06772e-07
5.07642e-07
4.92845e-07
4.8086e-07
4.41552e-07
4.37794e-07
3.33337e-07
3.38612e-07
1.05605e-05
2.36647e-06
2.39543e-06
3.14841e-06
3.16632e-06
3.44197e-06
3.52526e-06
3.62638e-06
3.61969e-06
3.62623e-06
3.52221e-06
3.43918e-06
3.16163e-06
3.14479e-06
2.39973e-06
2.36381e-06
4.29891e-05
9.83248e-06
1.01853e-05
1.33507e-05
1.33878e-05
1.45345e-05
1.48743e-05
1.52921e-05
1.52627e-05
1.52911e-05
1.48605e-05
1.45215e-05
1.33669e-05
1.33344e-05
1.02029e-05
9.8212e-06
0.000125755
2.95248e-05
3.11328e-05
4.08045e-05
4.08061e-05
4.42653e-05
4.52704e-05
4.65211e-05
4.64285e-05
4.6516e-05
4.52242e-05
4.42209e-05
4.07372e-05
4.07503e-05
3.11838e-05
2.94896e-05
0.000290734
7.08012e-05
7.5576e-05
9.92973e-05
9.90361e-05
0.000107406
0.000109783
0.000112776
0.000112546
0.000112757
0.000109658
0.00010728
9.8853e-05
9.91518e-05
7.56902e-05
7.07126e-05
0.000561
0.000143039
0.000153763
0.000202924
0.000201839
0.000218847
0.00022358
0.000229604
0.000229131
0.00022955
0.000223293
0.000218551
0.000201426
0.000202594
0.00015397
0.000142848
0.000940652
0.000251568
0.00027112
0.000359782
0.000356879
0.000386999
0.000395213
0.000405767
0.000404927
0.000405643
0.000394642
0.000386395
0.000356074
0.000359132
0.000271438
0.000251212
0.00141542
0.000394748
0.000425057
0.000567432
0.000561386
0.000609124
0.000621915
0.000638471
0.000637153
0.000638229
0.000620912
0.000608042
0.000560001
0.000566312
0.000425485
0.00039416
0.00196007
0.00056458
0.000606707
0.000813739
0.000803126
0.000872398
0.000890716
0.000914551
0.000912664
0.000914139
0.000889128
0.000870658
0.000800988
0.000812002
0.000607239
0.000563702
0.00254596
0.00075058
0.000804427
0.00108163
0.00106516
0.00115889
0.00118349
0.00121556
0.00121306
0.00121494
0.00118118
0.00115634
0.00106212
0.00107916
0.000805045
0.000749414
0.00314637
0.000943129
0.00100741
0.00135397
0.00133075
0.00145058
0.00148197
0.00152291
0.00151978
0.00152204
0.00147884
0.00144711
0.00132677
0.0013507
0.00100811
0.000941679
0.00373928
0.00113476
0.00120774
0.00162075
0.00159012
0.00173458
0.00177254
0.00182186
0.00181819
0.00182074
0.00176857
0.00173022
0.00158518
0.00161666
0.00120853
0.00113305
0.00430907
0.00131213
0.00137912
0.001875
0.00183646
0.0020047
0.00204913
0.00210658
0.00210245
0.00210523
0.00204431
0.00199944
0.00183059
0.00187011
0.00137973
0.00130954
0.00484577
0.00145974
0.00152017
0.00211353
0.00206668
0.00225737
0.00230802
0.0023732
0.00236867
0.00237161
0.00230237
0.00225124
0.00205992
0.00210788
0.00152089
0.00145702
0.00534422
0.00159905
0.00165183
0.00233587
0.00228031
0.00249194
0.00254847
0.00262084
0.00261598
0.00261906
0.00254202
0.002485
0.00227272
0.0023295
0.00165279
0.00159624
0.00580241
0.00173483
0.00177945
0.00253752
0.00245537
0.00270956
0.00277152
0.00285054
0.00284539
0.00284857
0.00276432
0.00270185
0.00244466
0.00252842
0.00178055
0.0017321
0.00622039
0.00187008
0.00190577
0.00267282
0.00258224
0.00288475
0.00296164
0.00306423
0.00305886
0.00306211
0.00295194
0.0028739
0.00257107
0.0026632
0.00190704
0.0018675
0.00659927
0.00200734
0.00203351
0.00279376
0.00269871
0.00300954
0.00308836
0.00319803
0.00319079
0.0031944
0.00307855
0.00299815
0.00268773
0.00278455
0.00203497
0.00200516
0.00693995
0.00214892
0.00216552
0.00291483
0.00281551
0.0031243
0.00320205
0.00331137
0.00330343
0.00330783
0.0031924
0.00311341
0.0028047
0.00290554
0.00216702
0.00214727
0.00724265
0.00229745
0.00230336
0.00304095
0.00293645
0.00324257
0.00331774
0.00342515
0.00341675
0.00342138
0.00330826
0.00323165
0.00292556
0.00303154
0.0023051
0.00229588
0.0075249
0.00245241
0.00244802
0.00317114
0.00306171
0.00336486
0.00343771
0.00354324
0.00353491
0.00353949
0.00342833
0.00335408
0.00305085
0.00316219
0.00245004
0.00245098
0.00780702
0.00261246
0.00260141
0.00330632
0.00319
0.00349279
0.003564
0.00366833
0.00366004
0.0036649
0.00355505
0.00348248
0.00317913
0.00329757
0.00260353
0.00261175
0.00808965
0.00277969
0.002766
0.00344857
0.00332394
0.00362747
0.00369735
0.003801
0.00379241
0.00379757
0.00368824
0.00361738
0.00331313
0.0034398
0.00276848
0.0027796
0.00837315
0.00295104
0.00294173
0.00359956
0.00346554
0.00377144
0.00383921
0.00394258
0.00393331
0.00393916
0.00383029
0.00376131
0.00345457
0.0035905
0.00294464
0.00295155
0.00865789
0.00312966
0.00313218
0.00376225
0.0036172
0.00392677
0.00399217
0.00409524
0.00408594
0.00409184
0.00398388
0.00391594
0.00360582
0.00375294
0.00313529
0.00313087
0.008944
0.00331835
0.00333827
0.00393898
0.00378116
0.0040931
0.00415635
0.00425847
0.0042488
0.0042547
0.00414811
0.00408273
0.00376944
0.00392987
0.00334161
0.00332008
0.00923139
0.00351803
0.0035617
0.00412703
0.00395645
0.00426495
0.00432412
0.00442291
0.0044133
0.00441958
0.00431613
0.00425537
0.00394459
0.004118
0.00356531
0.0035204
0.00951992
0.00372936
0.00380219
0.00432042
0.0041389
0.00443164
0.00448383
0.0045751
0.00456578
0.0045719
0.00447642
0.00442244
0.00412722
0.00431136
0.00380608
0.00373299
0.00980916
0.00395366
0.00405881
0.00451348
0.00432268
0.00458401
0.00462564
0.00470563
0.0046963
0.00470214
0.00461921
0.00457612
0.00431169
0.00450477
0.004063
0.00395828
0.0100969
0.00419105
0.00433077
0.00470106
0.00450387
0.00471769
0.00474528
0.00480985
0.00480176
0.00480665
0.00474078
0.00471222
0.00449415
0.00469421
0.00433529
0.00419624
0.0103771
0.00444155
0.00461726
0.00488282
0.00468238
0.00483394
0.00484494
0.00489081
0.00488375
0.00488856
0.00484341
0.00483102
0.0046746
0.00487855
0.00462212
0.00444666
0.0106378
0.00470452
0.00491653
0.00506072
0.00485717
0.00493899
0.00493304
0.00495927
0.00495302
0.00495763
0.00493332
0.00493863
0.00485145
0.00505785
0.00492252
0.00471086
0.0108663
0.0049782
0.00522558
0.00523792
0.00503288
0.00504592
0.00502401
0.00503023
0.00502567
0.00502876
0.00502579
0.00504739
0.00502914
0.0052369
0.00523118
0.00498597
0.0110564
0.00526333
0.00554006
0.00542212
0.00521625
0.00516644
0.00513052
0.005118
0.0051155
0.00511745
0.00513413
0.00516942
0.00521492
0.00542331
0.00554505
0.00527075
0.011203
0.00555746
0.00585718
0.00562092
0.00541336
0.00530772
0.00525989
0.00523181
0.00522971
0.00523239
0.0052649
0.00531325
0.00541408
0.00562464
0.00586243
0.00556424
0.0112951
0.00585793
0.0061739
0.00584061
0.00563159
0.00547693
0.00541796
0.00537595
0.00537516
0.00537717
0.00542462
0.00548463
0.00563372
0.00584633
0.00617935
0.0058648
0.0113239
0.00616201
0.00648808
0.00608512
0.00587276
0.0056769
0.00560951
0.00555569
0.00555654
0.00555685
0.00561625
0.00568614
0.00587732
0.00609098
0.00649373
0.00616881
0.0112908
0.00646043
0.00680215
0.00635441
0.00613706
0.00590992
0.00583384
0.00577144
0.00577235
0.00577345
0.00584135
0.00591871
0.00614424
0.00636119
0.00680658
0.00646683
0.0112011
0.0067235
0.00711729
0.00664678
0.00642594
0.00617363
0.00609148
0.00602296
0.0060238
0.006026
0.00609959
0.00618245
0.00643206
0.00665425
0.00712172
0.00673388
0.0110616
0.00694126
0.00743744
0.00695555
0.00673188
0.00646265
0.00638018
0.00630997
0.00631053
0.00631295
0.00638723
0.00647349
0.00673741
0.0069633
0.00744184
0.00695209
0.0108799
0.00715397
0.00776141
0.00727617
0.00705048
0.0067791
0.00669439
0.00662655
0.00662647
0.00662931
0.00670233
0.00678751
0.0070593
0.00728373
0.00776575
0.00716516
0.0106638
0.00736203
0.00808624
0.00760604
0.00738476
0.00711819
0.00703597
0.00696965
0.00696994
0.00697348
0.0070429
0.00712592
0.00739358
0.00761443
0.00809051
0.0073735
0.010421
0.00756583
0.00840864
0.0079447
0.00773223
0.00747897
0.00739991
0.00733656
0.00733521
0.00733804
0.00740492
0.00748707
0.00774017
0.0079518
0.00841278
0.00757756
0.0101587
0.0077664
0.00872283
0.00829371
0.00809223
0.00786124
0.00778075
0.00770545
0.0077016
0.00770565
0.00778686
0.00786505
0.00810034
0.00829853
0.00872682
0.00777838
0.00988391
0.00796441
0.00902455
0.00865253
0.00846856
0.00824936
0.00815761
0.00801582
0.00802433
0.00802067
0.00816466
0.00825628
0.00847381
0.00865862
0.00903064
0.00797658
0.00960368
0.00815994
0.00931434
0.00903117
0.00885763
0.0086073
0.0084679
0.00832189
0.00832946
0.00832648
0.00847745
0.00861999
0.00886118
0.00903566
0.00932039
0.00817231
0.00932495
0.0083532
0.00959396
0.00943654
0.00925783
0.00890725
0.00876718
0.00862707
0.00863309
0.00863124
0.00877599
0.00891883
0.00925883
0.00943867
0.00959725
0.00836578
0.00905463
0.00854454
0.00986654
0.00986731
0.00965068
0.00920202
0.00906151
0.00892655
0.00893122
0.00893037
0.00906957
0.00921252
0.0096512
0.00986614
0.00986954
0.00855725
0.00879956
0.00873428
0.0101402
0.0102989
0.00997194
0.00948936
0.0093488
0.00921868
0.00922208
0.00922211
0.00935616
0.00949885
0.00997919
0.0103034
0.0101428
0.00874711
0.00856613
0.00892281
0.0104293
0.0106863
0.0102356
0.00976705
0.00962706
0.00950148
0.00950378
0.00950456
0.00963372
0.0097755
0.0102422
0.0106937
0.0104347
0.00893575
0.00836096
0.00911059
0.0107591
0.0109527
0.0104951
0.0100343
0.00989437
0.00977315
0.00977458
0.00977595
0.00990034
0.0100419
0.010501
0.0109597
0.0107677
0.00912357
0.00819119
0.00929798
0.0111553
0.0112131
0.010748
0.0102921
0.0101515
0.010033
0.0100338
0.0100356
0.0101568
0.0102991
0.0107534
0.0112198
0.0111605
0.00931095
0.00806321
0.00948545
0.0116327
0.0114662
0.0109932
0.0105419
0.0104001
0.0102827
0.0102831
0.010285
0.010405
0.0105483
0.0109983
0.0114729
0.0116378
0.00949833
0.00798121
0.00967321
0.01218
0.0117123
0.0112307
0.0107846
0.0106395
0.0105239
0.0105238
0.0105261
0.0106441
0.0107906
0.0112356
0.011719
0.0121896
0.00968601
0.00794541
0.00986152
0.0127184
0.0119515
0.0114606
0.0110184
0.0108688
0.0107553
0.0107539
0.0107573
0.0108733
0.0110242
0.0114655
0.0119583
0.0127284
0.00987419
0.00795493
0.0100507
0.0129918
0.012184
0.0116835
0.0112431
0.0110884
0.0109766
0.0109739
0.0109786
0.0110928
0.0112488
0.0116885
0.012191
0.0130027
0.0100632
0.00800771
0.0102412
0.0132109
0.0124104
0.0118999
0.0114594
0.0112993
0.0111887
0.0111846
0.0111906
0.0113036
0.0114651
0.011905
0.0124177
0.013222
0.0102535
0.00810158
0.0104338
0.0134231
0.0126313
0.0121105
0.0116683
0.0115027
0.0113927
0.0113873
0.0113946
0.0115071
0.0116742
0.0121159
0.0126387
0.0134343
0.0104458
0.00823516
0.0106291
0.0136271
0.0128472
0.0123163
0.0118712
0.0117
0.0115902
0.0115836
0.0115921
0.0117046
0.0118772
0.012322
0.0128549
0.0136386
0.0106409
0.00840981
0.0108283
0.0138226
0.0130587
0.0125181
0.0120694
0.0118929
0.0117829
0.0117753
0.0117849
0.0118977
0.0120758
0.0125241
0.0130667
0.0138343
0.0108397
0.00863165
0.0110321
0.0140093
0.013266
0.0127163
0.0122644
0.0120829
0.0119728
0.011964
0.0119749
0.0120879
0.0122711
0.0127228
0.0132744
0.0140212
0.0110432
0.00890391
0.0112416
0.0141877
0.0134689
0.0129115
0.0124568
0.0122711
0.0121616
0.0121514
0.0121639
0.0122763
0.0124639
0.0129184
0.0134777
0.0141996
0.0112524
0.0092066
0.011458
0.0143581
0.0136672
0.0131034
0.0126472
0.012458
0.0123499
0.0123387
0.0123524
0.0124635
0.0126547
0.0131108
0.0136762
0.01437
0.0114685
0.00952348
0.0116825
0.0145213
0.0138604
0.013292
0.0128358
0.0126442
0.0125382
0.0125263
0.0125409
0.0126501
0.0128436
0.0132997
0.0138696
0.0145331
0.0116927
0.00985795
0.0119166
0.0146779
0.0140482
0.0134769
0.0130232
0.0128306
0.0127269
0.0127145
0.0127298
0.0128369
0.0130315
0.013485
0.0140577
0.0146895
0.0119262
0.0102122
0.0121613
0.0148281
0.0142304
0.0136581
0.0132101
0.0130178
0.0129165
0.0129039
0.0129197
0.0130245
0.0132188
0.0136665
0.0142402
0.0148395
0.0121705
0.0105875
0.0124176
0.0149725
0.014407
0.0138357
0.0133966
0.0132058
0.0131077
0.0130949
0.0131109
0.0132128
0.0134056
0.0138447
0.0144171
0.0149834
0.0124262
0.0109841
0.012686
0.0151116
0.0145788
0.0140111
0.0135824
0.0133949
0.0133005
0.0132879
0.013304
0.0134023
0.0135919
0.0140205
0.0145893
0.0151218
0.012694
0.0114017
0.0129666
0.0152456
0.0147463
0.0141844
0.0137675
0.0135849
0.0134952
0.0134828
0.0134989
0.0135927
0.0137772
0.0141941
0.0147568
0.0152551
0.012974
0.0118391
0.0132589
0.0153742
0.0149064
0.0143542
0.0139512
0.0137756
0.0136915
0.0136797
0.0136954
0.0137836
0.0139613
0.0143643
0.0149169
0.0153828
0.0132655
0.0122938
0.0135617
0.0154984
0.0150576
0.0145193
0.0141329
0.0139662
0.0138889
0.013878
0.0138929
0.0139745
0.0141433
0.0145296
0.0150677
0.015506
0.0135675
0.0127625
0.0138728
0.0156169
0.0151982
0.0146782
0.0143114
0.0141555
0.0140862
0.0140764
0.0140904
0.014164
0.014322
0.0146886
0.0152079
0.0156235
0.0138777
0.0132406
0.0141894
0.0157285
0.0153273
0.0148291
0.014485
0.0143421
0.0142818
0.0142734
0.0142862
0.0143508
0.0144957
0.0148396
0.0153364
0.0157342
0.0141933
0.0137223
0.0145074
0.0158317
0.0154432
0.0149701
0.0146518
0.0145237
0.0144736
0.0144668
0.014478
0.0145325
0.0146625
0.0149805
0.0154517
0.0158363
0.0145103
0.0142011
0.0148223
0.0159247
0.0155439
0.0150991
0.0148093
0.0146977
0.0146588
0.0146539
0.0146632
0.0147065
0.01482
0.0151093
0.0155517
0.0159284
0.014824
0.0146705
0.0151288
0.015999
0.0156234
0.0152114
0.0149523
0.0148604
0.0148343
0.0148314
0.0148388
0.0148687
0.014963
0.0152214
0.0156306
0.0160017
0.0151293
0.0151233
0.0154203
0.0160602
0.0156879
0.015308
0.0150833
0.0150103
0.0149963
0.0149955
0.0150007
0.0150186
0.0150937
0.0153177
0.0156944
0.0160617
0.0154194
1.04004e-08
9.70835e-09
1.14828e-08
1.05958e-08
1.02266e-08
9.92888e-09
9.77897e-09
9.66706e-09
9.66813e-09
9.67794e-09
9.79973e-09
9.95707e-09
1.02521e-08
1.06167e-08
1.15074e-08
9.7347e-09
3.43655e-08
2.07382e-08
2.33337e-08
2.684e-08
2.58456e-08
2.65981e-08
2.64877e-08
2.66665e-08
2.65858e-08
2.66824e-08
2.64991e-08
2.66181e-08
2.58489e-08
2.68424e-08
2.33808e-08
2.07603e-08
5.04991e-07
2.49374e-07
2.71715e-07
3.55646e-07
3.42289e-07
3.61882e-07
3.62198e-07
3.67485e-07
3.65885e-07
3.67613e-07
3.62074e-07
3.61802e-07
3.41927e-07
3.55348e-07
2.72237e-07
2.49374e-07
3.55763e-06
1.73326e-06
1.88146e-06
2.48724e-06
2.39531e-06
2.53599e-06
2.53948e-06
2.5774e-06
2.56611e-06
2.57823e-06
2.53842e-06
2.53517e-06
2.39255e-06
2.48501e-06
1.88503e-06
1.73305e-06
1.48302e-05
7.21451e-06
7.79825e-06
1.03385e-05
9.96666e-06
1.05545e-05
1.05735e-05
1.07319e-05
1.06855e-05
1.0735e-05
1.05686e-05
1.05503e-05
9.95461e-06
1.03289e-05
7.81268e-06
7.21301e-06
4.45618e-05
2.1684e-05
2.32749e-05
3.09473e-05
2.98764e-05
3.16554e-05
3.17328e-05
3.22138e-05
3.20781e-05
3.22221e-05
3.17155e-05
3.164e-05
2.98378e-05
3.09167e-05
2.33163e-05
2.16769e-05
0.000107133
5.21902e-05
5.54513e-05
7.40251e-05
7.1587e-05
7.59184e-05
7.61692e-05
7.7351e-05
7.70356e-05
7.7367e-05
7.61196e-05
7.58704e-05
7.14865e-05
7.39451e-05
5.55431e-05
5.21648e-05
0.000218546
0.000106662
0.000111859
0.000150005
0.000145353
0.000154372
0.000155048
0.000157529
0.000156912
0.00015755
0.000154929
0.000154251
0.000145128
0.000149826
0.000112027
0.000106591
0.000392353
0.000191803
0.000198163
0.000266985
0.000259248
0.000275766
0.000277303
0.00028189
0.000280845
0.000281909
0.000277053
0.000275502
0.000258807
0.000266634
0.000198428
0.000191638
0.000636036
0.000311086
0.000316235
0.000428069
0.000416516
0.000443752
0.000446778
0.000454419
0.000452836
0.000454415
0.000446313
0.000443245
0.000415739
0.000427449
0.000316603
0.000310758
0.000949672
0.000463841
0.000463696
0.000630729
0.000614832
0.000656069
0.000661347
0.000673032