/*--------------------------------*- C++ -*----------------------------------*\
| =========                 |                                                 |
| \\      /  F ield         | OpenFOAM: The Open Source CFD Toolbox           |
|  \\    /   O peration     | Version:  v1912                                 |
|   \\  /    A nd           | Website:  www.openfoam.com                      |
|    \\/     M anipulation  |                                                 |
\*---------------------------------------------------------------------------*/
FoamFile
{
    version     2.0;
    format      ascii;
    class       volVectorField;
    location    "200";
    object      wallShearStress;
}
// * * * * * * * * * * * * * * * * * * * * * * * * * * * * * * * * * * * * * //

dimensions      [1 -1 -2 0 0 0 0];


internalField   uniform (0 0 0);

boundaryField
{
    leftWall
    {
        type            calculated;
        value           nonuniform List<vector> 
256
(
(-0.00011284 0.0466576 0.265889)
(-0.0001811 -0.00421991 -0.312105)
(-9.98435e-05 0.00201141 -0.252075)
(-8.75522e-05 -0.000210809 -0.371699)
(-4.59646e-05 6.43229e-05 -0.283233)
(-2.41063e-05 4.30841e-05 -0.367797)
(-3.37022e-05 -5.4085e-05 -0.279315)
(-2.54865e-05 5.35333e-05 -0.370482)
(-3.30428e-05 -8.47282e-05 -0.277417)
(-2.97528e-05 8.88765e-05 -0.375849)
(-2.31551e-05 -0.000123438 -0.285987)
(-3.12522e-05 0.000143024 -0.367368)
(-6.37818e-06 -0.000201002 -0.310072)
(-3.97405e-05 0.000161457 -0.297031)
(4.03181e-05 -0.000445049 -0.333951)
(7.13108e-05 -0.0011859 0.204336)
(0.0678353 -0.00078343 0.137822)
(0.0409388 0.00229318 -0.226093)
(-0.0111902 -0.000395198 -0.260993)
(-0.000963746 7.80957e-05 -0.317402)
(0.00464436 -2.64534e-05 -0.304518)
(-0.00549027 1.00872e-05 -0.331499)
(0.00747856 -1.29684e-05 -0.314938)
(-0.00644776 9.51026e-06 -0.334671)
(0.0102814 -1.61275e-05 -0.320493)
(-0.00866756 1.48601e-05 -0.334479)
(0.0123978 -2.70683e-05 -0.327727)
(-0.0122317 1.80273e-05 -0.327791)
(0.0130557 -7.28483e-05 -0.337548)
(-0.0167893 -1.80625e-05 -0.297399)
(-0.00231835 -0.000467958 -0.342216)
(-0.0385232 -0.00118755 -0.0594526)
(-0.019305 0.000604308 0.108837)
(-0.0107858 0.00091674 -0.191258)
(-0.000885687 8.56303e-05 -0.287759)
(-0.000918535 7.72333e-05 -0.296295)
(0.00260728 3.24835e-05 -0.329952)
(-0.0014446 -6.37873e-06 -0.309512)
(0.00295676 2.60865e-05 -0.34284)
(-0.00176666 -1.49317e-05 -0.310498)
(0.00363347 2.84022e-05 -0.351382)
(-0.00216431 -2.40456e-05 -0.304803)
(0.00405029 2.95215e-05 -0.359574)
(-0.00280275 -4.15805e-05 -0.292523)
(0.00422621 1.46121e-05 -0.366633)
(-0.00285166 -8.8804e-05 -0.263749)
(0.00635136 -0.000312228 -0.360275)
(0.00537571 -0.00122928 -0.0370274)
(0.00472271 0.000526163 0.193655)
(-0.0091586 0.000670399 -0.18983)
(-0.000481435 0.000195237 -0.275572)
(-0.0011891 7.36448e-05 -0.301668)
(0.000820417 3.62968e-05 -0.324168)
(-0.000576801 8.34519e-06 -0.318563)
(0.00102676 1.29112e-05 -0.334154)
(-0.000648297 3.72924e-06 -0.321159)
(0.00135336 5.95787e-06 -0.342277)
(-0.00077544 3.78234e-06 -0.317428)
(0.00154674 -6.50015e-06 -0.35066)
(-0.00108958 7.11658e-07 -0.304496)
(0.00150118 -4.34731e-05 -0.359237)
(-0.0016515 -3.71094e-05 -0.269195)
(0.00111361 -0.000359161 -0.353718)
(0.0011566 -0.00116343 -0.00653785)
(-0.00838427 0.000547199 0.191759)
(-0.00526391 0.000735411 -0.193804)
(-0.000248173 0.000170055 -0.271223)
(-0.000480912 6.34173e-05 -0.304227)
(0.000541743 2.5344e-05 -0.319259)
(-5.99813e-05 6.42293e-06 -0.320689)
(0.000452894 4.57274e-06 -0.329696)
(-0.000130691 5.8985e-06 -0.32336)
(0.000613223 -2.59383e-06 -0.338237)
(-0.000336959 7.39745e-06 -0.319735)
(0.000908424 -1.3563e-05 -0.347281)
(-0.00071879 5.90895e-06 -0.306647)
(0.00158759 -4.48037e-05 -0.356671)
(-0.000963197 -2.80799e-05 -0.270053)
(0.00397729 -0.000355303 -0.35196)
(0.00228594 -0.0011625 -0.0113657)
(-0.00444891 0.000530297 0.209488)
(-0.00517014 0.000749534 -0.19516)
(-0.000414292 0.000185033 -0.267231)
(-0.000417961 7.23611e-05 -0.308053)
(0.000225654 2.81009e-05 -0.318318)
(0.000113319 1.24713e-05 -0.324857)
(0.000214066 2.38827e-06 -0.329313)
(3.18941e-05 1.01334e-05 -0.326495)
(0.00029822 -7.49324e-06 -0.338194)
(-8.27576e-05 1.21367e-05 -0.321119)
(0.000446125 -2.11733e-05 -0.348213)
(-0.000278736 9.50217e-06 -0.30545)
(0.000711627 -5.45001e-05 -0.358737)
(-0.000528727 -3.43802e-05 -0.266046)
(0.00193698 -0.00035731 -0.351579)
(0.00188909 -0.00118175 -0.00498118)
(-0.00448102 0.000539682 0.212863)
(-0.00281629 0.000754866 -0.195915)
(-0.000118537 0.000189348 -0.265222)
(-0.000265209 7.03191e-05 -0.309224)
(7.50683e-05 2.66148e-05 -0.316758)
(7.83891e-05 1.20123e-05 -0.325961)
(2.65145e-05 1.43019e-07 -0.328204)
(4.94876e-05 9.98848e-06 -0.32733)
(7.50695e-05 -9.5479e-06 -0.337338)
(-4.16257e-05 1.14658e-05 -0.321522)
(0.000218421 -2.18609e-05 -0.34751)
(-0.000184568 9.61938e-06 -0.305249)
(0.000584536 -5.16829e-05 -0.35785)
(-0.000219819 -3.08275e-05 -0.265226)
(0.00182907 -0.000347763 -0.349973)
(0.00126975 -0.00117805 -0.00528991)
(-0.00185641 0.000533053 0.217167)
(-0.00166044 0.000747747 -0.196387)
(-9.44184e-05 0.000191448 -0.263602)
(-8.48294e-05 7.42066e-05 -0.310094)
(6.60442e-05 2.78407e-05 -0.316162)
(8.47907e-05 1.49419e-05 -0.326911)
(3.07784e-05 -3.2402e-08 -0.327826)
(4.10842e-05 1.18619e-05 -0.328041)
(4.07736e-05 -1.11008e-05 -0.337071)
(7.6074e-07 1.34545e-05 -0.321812)
(8.82435e-05 -2.50382e-05 -0.347555)
(-5.06999e-05 1.08622e-05 -0.304943)
(0.000203215 -5.6387e-05 -0.358207)
(-0.000109506 -3.465e-05 -0.264215)
(0.00067802 -0.000351101 -0.349546)
(0.000567551 -0.00118817 -0.00394897)
(6.16889e-05 0.000539918 0.21683)
(9.93421e-05 0.00074942 -0.196508)
(4.82842e-05 0.000190602 -0.263611)
(5.74861e-05 7.1461e-05 -0.31022)
(3.89318e-05 2.68298e-05 -0.315929)
(2.59377e-05 1.33936e-05 -0.326898)
(1.84388e-05 -5.72964e-07 -0.327602)
(1.53092e-05 1.06707e-05 -0.327982)
(1.10087e-05 -1.09389e-05 -0.336894)
(1.01485e-05 1.20516e-05 -0.321752)
(5.00336e-06 -2.37092e-05 -0.347315)
(9.25683e-06 1.02554e-05 -0.304885)
(8.27202e-07 -5.29922e-05 -0.357766)
(9.27499e-06 -3.17254e-05 -0.264209)
(-2.50707e-05 -0.000347131 -0.349135)
(-5.7991e-05 -0.00118248 -0.00445305)
(0.00199512 0.000532968 0.216955)
(0.00186087 0.000747435 -0.196498)
(0.000190474 0.00019149 -0.26373)
(0.000193122 7.45058e-05 -0.310189)
(5.96797e-06 2.86128e-05 -0.316255)
(-3.55525e-05 1.54275e-05 -0.326988)
(3.68921e-06 3.73225e-07 -0.327893)
(-1.08757e-05 1.2134e-05 -0.328118)
(-2.13345e-05 -1.09436e-05 -0.337143)
(1.87879e-05 1.35238e-05 -0.321901)
(-7.91111e-05 -2.50325e-05 -0.347631)
(6.75839e-05 1.0913e-05 -0.305047)
(-0.000201983 -5.63862e-05 -0.358292)
(0.000126009 -3.44913e-05 -0.26434)
(-0.000727415 -0.000351304 -0.34967)
(-0.000681581 -0.00118816 -0.00402452)
(0.00459277 0.000539823 0.212354)
(0.00298738 0.00075457 -0.196162)
(0.000195062 0.000189505 -0.26547)
(0.000339966 7.13411e-05 -0.309389)
(-3.26615e-05 2.7925e-05 -0.316916)
(-5.25868e-05 1.28271e-05 -0.326096)
(-6.14359e-06 7.95801e-07 -0.328308)
(-3.03361e-05 1.02806e-05 -0.32748)
(-6.52691e-05 -9.24654e-06 -0.337438)
(5.56947e-05 1.14478e-05 -0.321721)
(-0.000216866 -2.17223e-05 -0.347604)
(0.000196132 9.60906e-06 -0.305504)
(-0.000590553 -5.16494e-05 -0.357964)
(0.000230842 -3.05143e-05 -0.265511)
(-0.00187234 -0.000348193 -0.350228)
(-0.00136966 -0.00117806 -0.00543659)
(0.00453119 0.000530507 0.208794)
(0.00525834 0.000749415 -0.19549)
(0.000456637 0.000185718 -0.267567)
(0.000451663 7.37658e-05 -0.308273)
(-0.000215929 2.93779e-05 -0.318529)
(-0.000117413 1.36069e-05 -0.325036)
(-0.000207548 3.27241e-06 -0.329457)
(-2.80897e-05 1.08604e-05 -0.326692)
(-0.000295392 -7.16815e-06 -0.338332)
(8.68958e-05 1.20863e-05 -0.321373)
(-0.000452318 -2.1025e-05 -0.348344)
(0.00027819 9.46515e-06 -0.305772)
(-0.00072569 -5.44374e-05 -0.358888)
(0.000538233 -3.40266e-05 -0.26641)
(-0.00196543 -0.000357747 -0.351906)
(-0.00192578 -0.00118171 -0.00519813)
(0.0084028 0.000547941 0.190895)
(0.00527746 0.000735359 -0.194163)
(0.000235231 0.000171153 -0.271521)
(0.000454615 6.53199e-05 -0.304416)
(-0.000568153 2.65129e-05 -0.319437)
(2.73413e-05 7.03206e-06 -0.320845)
(-0.000466835 5.21375e-06 -0.329831)
(0.000117054 6.50231e-06 -0.323542)
(-0.000622146 -2.28738e-06 -0.338358)
(0.000332045 7.63901e-06 -0.319988)
(-0.000926022 -1.34841e-05 -0.34738)
(0.000708757 5.82494e-06 -0.307002)
(-0.00161464 -4.48127e-05 -0.356766)
(0.000962767 -2.75843e-05 -0.27051)
(-0.0039924 -0.000355685 -0.352234)
(-0.00229617 -0.00116202 -0.0116602)
(-0.00480264 0.000527074 0.192929)
(0.00904459 0.000671036 -0.190147)
(0.000443824 0.000195872 -0.275816)
(0.00113796 7.40044e-05 -0.301842)
(-0.000855903 3.70001e-05 -0.324331)
(0.000540184 7.99042e-06 -0.31872)
(-0.00105346 1.31424e-05 -0.334298)
(0.000623445 4.04422e-06 -0.321344)
(-0.00136988 6.12873e-06 -0.342404)
(0.000757566 4.2562e-06 -0.317672)
(-0.00156433 -6.57133e-06 -0.35076)
(0.00106964 7.70457e-07 -0.304828)
(-0.00152054 -4.40468e-05 -0.359326)
(0.00163793 -3.64624e-05 -0.269609)
(-0.00109356 -0.000359414 -0.353978)
(-0.00108014 -0.00116317 -0.00679198)
(0.0191713 0.000604465 0.108377)
(0.0106419 0.00091692 -0.191524)
(0.000816739 8.81222e-05 -0.288037)
(0.000853919 7.78941e-05 -0.296496)
(-0.00267062 3.33904e-05 -0.330179)
(0.00141068 -6.90137e-06 -0.309673)
(-0.00299973 2.62306e-05 -0.343043)
(0.00173276 -1.48245e-05 -0.310664)
(-0.00366332 2.86288e-05 -0.351592)
(0.00213544 -2.36009e-05 -0.304982)
(-0.00406901 2.95037e-05 -0.359784)
(0.00278256 -4.1454e-05 -0.292716)
(-0.00423766 1.40829e-05 -0.366833)
(0.00282975 -8.86209e-05 -0.263975)
(-0.0063448 -0.000311343 -0.360533)
(-0.00530978 -0.00122902 -0.0372155)
(-0.0678852 -0.000783914 0.136964)
(-0.0411393 0.00229342 -0.22628)
(0.0110682 -0.000392129 -0.261368)
(0.000856247 7.98194e-05 -0.317518)
(-0.0047143 -2.46164e-05 -0.3048)
(0.00546519 1.0057e-05 -0.331568)
(-0.007522 -1.23488e-05 -0.315207)
(0.00641492 9.65889e-06 -0.334752)
(-0.0103243 -1.58603e-05 -0.320764)
(0.00863191 1.5146e-05 -0.334593)
(-0.0124302 -2.72656e-05 -0.327966)
(0.0122048 1.8184e-05 -0.32796)
(-0.01308 -7.28535e-05 -0.337725)
(0.0167566 -1.78012e-05 -0.297659)
(0.00230131 -0.000468142 -0.342409)
(0.0386425 -0.00118708 -0.0597801)
)
;
    }
    rightWall
    {
        type            calculated;
        value           nonuniform List<vector> 
256
(
(-2.87403e-05 0.000947348 -0.774309)
(-5.60799e-05 0.000727649 -0.331264)
(-4.99497e-05 0.000119694 -0.278028)
(-6.41921e-05 8.78221e-05 -0.243224)
(-3.60865e-05 8.71408e-06 -0.238223)
(-2.54037e-05 1.83127e-05 -0.231648)
(-7.29646e-06 -7.25762e-07 -0.233969)
(-2.45704e-05 1.09024e-05 -0.228692)
(-2.45807e-08 -5.09709e-06 -0.232882)
(-3.21292e-05 1.1391e-05 -0.226749)
(1.89716e-05 -1.65524e-05 -0.232601)
(-2.04732e-05 1.08326e-05 -0.229133)
(1.93567e-05 -6.04426e-05 -0.234561)
(-2.09991e-05 1.35575e-05 -0.253686)
(2.91476e-05 -0.000613723 -0.239019)
(1.69885e-05 -0.00120884 -0.662451)
(-0.00149992 0.000944382 -0.764174)
(0.00279068 0.000636836 -0.329608)
(-0.00170286 0.000126168 -0.276895)
(0.00119844 7.07918e-05 -0.244194)
(-0.00106826 1.26224e-05 -0.235151)
(0.000592643 1.35714e-05 -0.232933)
(-0.00108924 2.87886e-06 -0.230268)
(0.000563971 7.11664e-06 -0.230815)
(-0.00116819 3.23032e-07 -0.229038)
(0.000734914 6.01508e-06 -0.230008)
(-0.00126087 -7.29382e-06 -0.228404)
(0.000998646 3.57802e-06 -0.23375)
(-0.00168294 -4.17099e-05 -0.229938)
(0.00142703 8.49058e-06 -0.260211)
(-0.00425164 -0.000562778 -0.233136)
(0.000396897 -0.00118602 -0.672805)
(0.00122161 0.000973618 -0.767119)
(0.00015896 0.000666672 -0.332693)
(-0.00129377 0.000141926 -0.272856)
(0.000779392 6.88462e-05 -0.245726)
(-0.000808131 1.99937e-05 -0.231779)
(0.000418643 1.23518e-05 -0.234483)
(-0.000642515 8.35165e-06 -0.227132)
(0.000355036 5.457e-06 -0.232459)
(-0.000556252 5.16905e-06 -0.226024)
(0.000348029 5.06797e-06 -0.231801)
(-0.000441648 -5.45442e-06 -0.225301)
(0.000356338 2.74857e-06 -0.235757)
(-0.00046214 -4.56143e-05 -0.226051)
(0.00084714 -3.06542e-06 -0.262718)
(-0.00211044 -0.00056914 -0.227225)
(0.00156816 -0.00124417 -0.676631)
(-0.00031921 0.000918532 -0.764832)
(0.00194398 0.000651985 -0.332887)
(-0.000846373 0.000138903 -0.274499)
(0.00117156 5.76413e-05 -0.246838)
(-0.000488443 1.94538e-05 -0.232725)
(0.000446185 1.00703e-05 -0.235886)
(-0.000475413 6.14749e-06 -0.227885)
(0.000357928 4.81067e-06 -0.234141)
(-0.000435612 3.6957e-06 -0.226755)
(0.00050655 4.25223e-06 -0.233656)
(-0.000488011 -5.1954e-06 -0.22596)
(0.00072424 2.17693e-06 -0.237887)
(-0.00099904 -3.87028e-05 -0.226721)
(0.00114478 -4.35812e-06 -0.265573)
(-0.00371542 -0.000539815 -0.22791)
(2.33625e-05 -0.00123306 -0.67889)
(0.000417974 0.000861549 -0.76693)
(-0.000536181 0.000687394 -0.334434)
(-0.000501687 0.000128082 -0.273633)
(0.00028965 6.22331e-05 -0.247339)
(-0.000263565 2.03589e-05 -0.232159)
(0.000220891 1.17403e-05 -0.236368)
(-0.000176072 7.24641e-06 -0.227408)
(0.000174853 5.68839e-06 -0.234815)
(-0.00011237 4.31591e-06 -0.22631)
(0.000162219 5.20787e-06 -0.234492)
(-4.23829e-05 -6.46152e-06 -0.22537)
(0.000191303 2.53528e-06 -0.238894)
(-6.50164e-05 -4.34234e-05 -0.225379)
(0.000573369 -1.05226e-05 -0.267115)
(-0.00109235 -0.000555006 -0.225551)
(0.00081318 -0.00122552 -0.68066)
(-0.00135367 0.000931608 -0.767061)
(0.000969421 0.000678881 -0.334767)
(-0.000114093 0.000134646 -0.275233)
(0.000587747 6.21098e-05 -0.247927)
(0.000147774 1.93884e-05 -0.233483)
(0.000272735 1.07229e-05 -0.237031)
(0.000109039 5.64762e-06 -0.22851)
(0.000170209 4.98544e-06 -0.235334)
(0.000145748 3.43031e-06 -0.22724)
(0.000189903 4.45832e-06 -0.234866)
(0.000125863 -5.97534e-06 -0.226312)
(0.000223253 2.69125e-06 -0.239262)
(-7.97601e-05 -4.07392e-05 -0.226725)
(0.000139148 -3.76022e-06 -0.267593)
(-0.00117077 -0.00054633 -0.227764)
(-0.000637428 -0.00120722 -0.680018)
(-0.000524085 0.000936717 -0.768832)
(-0.000244216 0.000678957 -0.335519)
(-0.00019695 0.000136099 -0.276001)
(6.42284e-05 6.33647e-05 -0.248502)
(8.09885e-05 1.84078e-05 -0.234422)
(8.52671e-05 1.18377e-05 -0.237537)
(0.000108055 5.14751e-06 -0.2295)
(3.37203e-05 6.42005e-06 -0.235734)
(0.000156663 2.43379e-06 -0.228226)
(-2.6001e-06 6.57284e-06 -0.235088)
(0.000218584 -8.6634e-06 -0.227136)
(-2.50803e-05 4.17758e-06 -0.239173)
(0.000284082 -4.68297e-05 -0.227162)
(6.52425e-05 -6.82847e-06 -0.267347)
(-7.90599e-05 -0.000550822 -0.227982)
(0.000648379 -0.00123222 -0.67981)
(-0.000130167 0.000917583 -0.768755)
(0.000268392 0.000676236 -0.335137)
(3.42036e-05 0.000134841 -0.276328)
(0.000186734 6.0631e-05 -0.248072)
(0.000109269 1.7191e-05 -0.234717)
(8.22579e-05 1.02317e-05 -0.237269)
(8.09158e-05 3.94764e-06 -0.229817)
(3.89263e-05 5.23395e-06 -0.235526)
(9.06525e-05 2.13476e-06 -0.228616)
(3.96832e-05 5.52918e-06 -0.234961)
(7.78149e-05 -7.7437e-06 -0.227739)
(4.812e-05 3.94021e-06 -0.239197)
(2.06525e-05 -4.44322e-05 -0.228177)
(5.09521e-05 -4.19067e-06 -0.267544)
(-0.000308977 -0.000546749 -0.229392)
(-1.94661e-05 -0.00122135 -0.679437)
(-1.24099e-05 0.00091846 -0.769315)
(3.41142e-05 0.000678148 -0.335549)
(3.10377e-05 0.000132923 -0.276511)
(5.12271e-05 6.20238e-05 -0.248335)
(4.06507e-05 1.70915e-05 -0.234891)
(2.65456e-05 1.15113e-05 -0.237412)
(9.63172e-06 4.23892e-06 -0.229989)
(6.49381e-06 6.54969e-06 -0.235619)
(1.2652e-06 1.89284e-06 -0.228731)
(2.24732e-06 6.90065e-06 -0.234991)
(-1.015e-05 -9.05998e-06 -0.227676)
(-4.90988e-06 4.37195e-06 -0.23911)
(-1.15784e-05 -4.77392e-05 -0.227762)
(-2.27977e-07 -7.7423e-06 -0.267428)
(-2.68709e-05 -0.000552803 -0.228779)
(-3.72882e-05 -0.00122613 -0.679537)
(0.000126007 0.000918587 -0.768793)
(-0.000205969 0.000676547 -0.335202)
(2.5614e-05 0.000134745 -0.276407)
(-9.41042e-05 6.01099e-05 -0.248153)
(-3.77408e-05 1.63735e-05 -0.234801)
(-3.37261e-05 9.75325e-06 -0.237343)
(-6.55381e-05 3.59886e-06 -0.229881)
(-2.58825e-05 5.06354e-06 -0.235583)
(-9.02076e-05 2.03428e-06 -0.228673)
(-3.42551e-05 5.49269e-06 -0.235019)
(-9.72643e-05 -7.65999e-06 -0.227801)
(-5.45727e-05 3.96906e-06 -0.239256)
(-4.03331e-05 -4.4365e-05 -0.228237)
(-4.87437e-05 -4.25342e-06 -0.26761)
(0.000267153 -0.000546675 -0.229465)
(-5.24904e-05 -0.00122133 -0.679498)
(0.000530863 0.000937001 -0.768904)
(0.000300923 0.000679025 -0.335644)
(0.000246786 0.000135844 -0.276144)
(7.53693e-07 6.23122e-05 -0.248653)
(-3.89975e-05 1.71223e-05 -0.234572)
(-6.24795e-05 1.09225e-05 -0.237677)
(-0.000104542 4.58005e-06 -0.229618)
(-2.59364e-05 6.10034e-06 -0.235847)
(-0.000162782 2.24722e-06 -0.228333)
(8.11465e-06 6.65765e-06 -0.23521)
(-0.000239864 -8.5947e-06 -0.227255)
(2.30644e-05 4.30169e-06 -0.239297)
(-0.00030542 -4.67322e-05 -0.227287)
(-6.1832e-05 -6.88066e-06 -0.267487)
(3.96888e-05 -0.000550731 -0.228131)
(-0.000699938 -0.00123193 -0.679918)
(0.00136569 0.000932195 -0.767147)
(-0.000933824 0.000678638 -0.334941)
(0.000151002 0.000133942 -0.275435)
(-0.000554905 6.06618e-05 -0.248139)
(-0.000131235 1.807e-05 -0.233693)
(-0.000281463 9.61206e-06 -0.237228)
(-0.000113927 4.99485e-06 -0.228677)
(-0.000169462 4.47513e-06 -0.235502)
(-0.000153194 3.1965e-06 -0.227397)
(-0.000181474 4.53808e-06 -0.23505)
(-0.000146531 -5.9674e-06 -0.226488)
(-0.000223144 2.88188e-06 -0.239453)
(5.64628e-05 -4.07333e-05 -0.226906)
(-0.000135185 -3.71015e-06 -0.267805)
(0.00114387 -0.000546233 -0.227976)
(0.000619326 -0.00120654 -0.680175)
(-0.000411802 0.000862097 -0.767022)
(0.00053551 0.000687025 -0.33464)
(0.000504678 0.000126701 -0.273855)
(-0.000297349 6.04569e-05 -0.24759)
(0.00024912 1.89084e-05 -0.232394)
(-0.000252932 1.12509e-05 -0.236599)
(0.000157117 6.62741e-06 -0.2276)
(-0.000182281 5.19554e-06 -0.235024)
(9.73055e-05 3.97367e-06 -0.226498)
(-0.000154222 4.99295e-06 -0.234722)
(1.75013e-05 -6.38719e-06 -0.225579)
(-0.000193107 2.64126e-06 -0.239133)
(3.59299e-05 -4.31293e-05 -0.22559)
(-0.000574249 -1.06621e-05 -0.267375)
(0.00107357 -0.000555062 -0.225787)
(-0.000813653 -0.00122527 -0.680852)
(0.000315893 0.000918641 -0.764882)
(-0.00198493 0.000651228 -0.333087)
(0.000808553 0.000136947 -0.27468)
(-0.00122218 5.59488e-05 -0.247083)
(0.000440269 1.7916e-05 -0.232918)
(-0.000482692 1.01961e-05 -0.236113)
(0.000448743 5.90677e-06 -0.228039)
(-0.00037467 4.30849e-06 -0.234355)
(0.000412579 3.50201e-06 -0.226911)
(-0.000510394 3.73568e-06 -0.233897)
(0.000466344 -4.95278e-06 -0.226135)
(-0.000730309 2.21631e-06 -0.238138)
(0.00097489 -3.78967e-05 -0.226891)
(-0.00115938 -4.69202e-06 -0.265851)
(0.00370246 -0.000539996 -0.228087)
(-1.2956e-05 -0.00123296 -0.679124)
(-0.00124849 0.000973319 -0.767124)
(-0.000240543 0.000666037 -0.332859)
(0.00121364 0.000139853 -0.272957)
(-0.000867541 6.7514e-05 -0.245937)
(0.000730729 1.89583e-05 -0.231892)
(-0.000453789 1.26876e-05 -0.234682)
(0.000610067 8.22667e-06 -0.227218)
(-0.000380507 5.25904e-06 -0.232656)
(0.000530707 5.10993e-06 -0.226107)
(-0.000375152 4.5027e-06 -0.232024)
(0.000432814 -5.15277e-06 -0.22539)
(-0.000372011 2.73188e-06 -0.235988)
(0.000457267 -4.48352e-05 -0.226125)
(-0.000875728 -3.12999e-06 -0.262971)
(0.00211625 -0.000569331 -0.227289)
(-0.0015525 -0.00124412 -0.676871)
(0.00143969 0.000944136 -0.764137)
(-0.00289489 0.000636599 -0.329701)
(0.00159714 0.000124997 -0.27691)
(-0.00131683 6.98766e-05 -0.244311)
(0.000982728 1.26016e-05 -0.235165)
(-0.000639085 1.36132e-05 -0.233044)
(0.00105966 3.16117e-06 -0.230269)
(-0.000604045 6.90002e-06 -0.230929)
(0.00115258 4.69584e-07 -0.229037)
(-0.000788223 5.66658e-06 -0.230139)
(0.00127642 -6.98582e-06 -0.228401)
(-0.0010309 3.49464e-06 -0.233893)
(0.00170229 -4.14692e-05 -0.229919)
(-0.00146543 8.7486e-06 -0.260376)
(0.00428214 -0.000563172 -0.233103)
(-0.000373726 -0.00118573 -0.672998)
)
;
    }
    leftSides_periodic0
    {
        type            cyclic;
    }
    leftSides_periodic1
    {
        type            cyclic;
    }
    rightSides_periodic0
    {
        type            cyclic;
    }
    rightSides_periodic1
    {
        type            cyclic;
    }
    leftInOut_periodic0
    {
        type            cyclic;
    }
    leftInOut_periodic1
    {
        type            cyclic;
    }
    rightInOut_periodic0
    {
        type            cyclic;
    }
    rightInOut_periodic1
    {
        type            cyclic;
    }
}


// ************************************************************************* //
