/*--------------------------------*- C++ -*----------------------------------*\
| =========                 |                                                 |
| \\      /  F ield         | OpenFOAM: The Open Source CFD Toolbox           |
|  \\    /   O peration     | Version:  v1912                                 |
|   \\  /    A nd           | Website:  www.openfoam.com                      |
|    \\/     M anipulation  |                                                 |
\*---------------------------------------------------------------------------*/
FoamFile
{
    version     2.0;
    format      ascii;
    class       volScalarField;
    location    "99.2";
    object      k;
}
// * * * * * * * * * * * * * * * * * * * * * * * * * * * * * * * * * * * * * //

dimensions      [0 2 -2 0 0 0 0];


internalField   nonuniform List<scalar> 
2000
(
8.04355e-06
6.02271e-05
0.000131457
0.000168994
0.000174905
0.000176933
0.0001749
0.000168998
0.000131478
6.02664e-05
1.41028e-05
0.000294134
0.000481456
0.000559538
0.000579809
0.000585251
0.000579796
0.000559537
0.000481491
0.000294222
3.95645e-05
0.000805404
0.00084943
0.00087623
0.000895515
0.000900896
0.000895502
0.000876212
0.000849431
0.000805428
0.000258364
0.000946832
0.000880748
0.000889203
0.000902693
0.000907558
0.000902683
0.000889178
0.000880737
0.000946785
0.00081692
0.000903332
0.000789155
0.000798648
0.00080845
0.000813368
0.000808441
0.000798626
0.000789141
0.000903259
0.00135818
0.000845912
0.000679869
0.000685248
0.000693244
0.000698115
0.000693234
0.000685227
0.000679849
0.000845829
0.00152788
0.000787697
0.000576307
0.000569048
0.00057435
0.000578639
0.000574339
0.000569025
0.000576274
0.000787608
0.00137191
0.00071618
0.000485569
0.000462179
0.000464059
0.000467214
0.00046405
0.000462156
0.000485527
0.000716087
0.00110051
0.000628589
0.000419831
0.000392445
0.000393249
0.000395156
0.000393246
0.000392432
0.000419796
0.000628508
0.000835882
0.000535717
0.000405478
0.000395993
0.00039989
0.000401017
0.000399898
0.000396001
0.000405471
0.000535667
3.70544e-05
0.000177661
0.000255058
0.000287667
0.000305614
0.000311194
0.000305617
0.000287679
0.000255098
0.000177707
3.67525e-05
0.000517395
0.000654102
0.000723922
0.000764425
0.00077592
0.000764427
0.000723938
0.000654167
0.00051749
0.000196389
0.000982071
0.00102731
0.00107262
0.00111102
0.00112213
0.00111102
0.00107263
0.00102734
0.000982125
0.00056346
0.00112854
0.00109852
0.00112178
0.00115374
0.00116352
0.00115374
0.00112179
0.00109852
0.00112854
0.000967119
0.00111274
0.00105756
0.00106861
0.0010935
0.00110165
0.00109351
0.00106863
0.00105756
0.00111271
0.00122308
0.00101738
0.000967535
0.00097243
0.000990699
0.000997298
0.000990718
0.000972459
0.000967529
0.00101735
0.00121229
0.000885968
0.000854136
0.000855544
0.000868434
0.000873564
0.000868459
0.00085558
0.000854136
0.000885947
0.000987191
0.000742752
0.000729632
0.000728432
0.000736792
0.000740355
0.00073682
0.000728471
0.000729635
0.000742737
0.000725268
0.000598181
0.000597937
0.00059692
0.000602145
0.000604264
0.000602171
0.000596956
0.000597943
0.000598169
0.000505774
0.0004642
0.000472225
0.00047351
0.000476997
0.000478074
0.000477016
0.000473537
0.000472232
0.000464194
3.02683e-05
0.000193336
0.000244726
0.000259659
0.000268939
0.000270528
0.000268941
0.000259667
0.000244751
0.000193398
0.000145457
0.000494387
0.000569967
0.00059097
0.000602441
0.00060432
0.000602433
0.000590966
0.00057
0.000494484
0.0005901
0.000848073
0.000862375
0.00088568
0.00089791
0.000901717
0.000897898
0.000885665
0.00086239
0.000848103
0.00101278
0.000957
0.000881433
0.000899324
0.000913069
0.000917864
0.000913057
0.000899305
0.000881428
0.000956958
0.00136719
0.000961365
0.000802474
0.000812298
0.000825784
0.000830802
0.000825774
0.000812278
0.000802452
0.000961271
0.00159464
0.000902326
0.000688892
0.000688794
0.000700101
0.000704933
0.000700092
0.000688773
0.000688858
0.00090221
0.00160935
0.000812178
0.000573548
0.000560699
0.000568503
0.00057279
0.000568494
0.000560677
0.000573505
0.000812063
0.0014187
0.000714911
0.000475357
0.000448356
0.000452619
0.000456045
0.000452612
0.000448335
0.000475309
0.000714807
0.00112589
0.000612633
0.000409851
0.000380476
0.000382936
0.000385315
0.000382934
0.000380464
0.000409814
0.00061255
0.000840816
0.000520306
0.000399335
0.000388369
0.000392737
0.000394308
0.000392744
0.000388376
0.000399327
0.000520258
0.000150289
0.000238079
0.000272242
0.000297837
0.000316678
0.000322339
0.000316678
0.000297846
0.000272269
0.000238127
0.000429815
0.000607335
0.00067816
0.000731126
0.000767698
0.00077918
0.000767693
0.000731134
0.000678203
0.000607421
0.000865587
0.00098601
0.00102515
0.00106774
0.00110034
0.00111119
0.00110034
0.00106775
0.00102517
0.000986049
0.00110097
0.001106
0.00109999
0.00112961
0.00115744
0.00116685
0.00115745
0.00112962
0.0011
0.00110599
0.00125266
0.00111937
0.00107014
0.00108772
0.00111113
0.00111893
0.00111114
0.00108774
0.00107013
0.00111933
0.00129946
0.0010459
0.000982184
0.00099083
0.00100965
0.00101586
0.00100966
0.00099086
0.000982177
0.00104585
0.00120064
0.000909182
0.000859095
0.000863436
0.000877678
0.000882468
0.000877703
0.000863473
0.000859092
0.00090914
0.000962458
0.000745979
0.000725847
0.000728251
0.000737884
0.000741188
0.000737911
0.000728291
0.00072585
0.000745953
0.000682646
0.000587307
0.000593134
0.000595289
0.000601034
0.000602957
0.000601061
0.000595326
0.000593141
0.000587294
0.000462555
0.000452067
0.000469643
0.000472528
0.000475402
0.000476241
0.000475421
0.000472555
0.00046965
0.000452064
8.3232e-05
0.00021782
0.000255528
0.000262408
0.000267698
0.000267598
0.000267694
0.000262409
0.000255541
0.000217874
0.000250506
0.000492808
0.000578204
0.000592533
0.000602077
0.000603013
0.00060206
0.000592521
0.000578224
0.0004929
0.0007023
0.000778673
0.000843327
0.000867523
0.000878422
0.000882161
0.000878405
0.000867507
0.000843344
0.000778715
0.00101069
0.000859295
0.000853907
0.000877664
0.000888569
0.00089326
0.000888554
0.000877645
0.000853912
0.000859276
0.00125456
0.000892193
0.000788286
0.000802229
0.000812503
0.000817097
0.000812491
0.000802208
0.000788272
0.000892121
0.00142733
0.000888628
0.000691778
0.000692171
0.00070097
0.000705178
0.000700961
0.000692148
0.000691746
0.000888521
0.00148461
0.000835917
0.000582654
0.000566411
0.000572756
0.000576323
0.000572748
0.000566387
0.00058261
0.000835798
0.0013794
0.000739868
0.000478484
0.000448453
0.000451924
0.000454666
0.000451917
0.000448431
0.000478435
0.000739758
0.00113099
0.000622267
0.000406158
0.00037526
0.000377429
0.000379299
0.000377427
0.000375248
0.000406122
0.000622182
0.000841095
0.000517642
0.000394367
0.000382957
0.000387402
0.000388734
0.000387409
0.000382963
0.00039436
0.000517595
0.000266687
0.000251198
0.000274201
0.00029528
0.000311494
0.000316741
0.000311493
0.000295281
0.000274218
0.000251232
0.000679287
0.000625018
0.000678347
0.000725998
0.000762564
0.000774541
0.000762559
0.000725997
0.000678375
0.000625073
0.00105973
0.000990544
0.00102924
0.00107129
0.00110531
0.00111713
0.0011053
0.0010713
0.00102925
0.000990563
0.00118687
0.00108609
0.00109839
0.00113301
0.0011617
0.00117209
0.0011617
0.00113302
0.00109839
0.00108607
0.0012096
0.00107509
0.00106191
0.00108817
0.00111142
0.0011199
0.00111143
0.00108819
0.00106191
0.00107506
0.00115486
0.00100009
0.000971609
0.000989913
0.00100834
0.00101492
0.00100836
0.000989944
0.000971607
0.00100004
0.00102129
0.000880536
0.000852533
0.000864277
0.000878455
0.000883348
0.000878479
0.000864315
0.000852533
0.000880496
0.000819192
0.000734722
0.000722636
0.000729728
0.000739679
0.000743016
0.000739707
0.000729769
0.000722641
0.000734695
0.000599336
0.000583666
0.000591535
0.000596405
0.000602311
0.000604251
0.000602337
0.000596442
0.000591543
0.000583652
0.000420222
0.000449937
0.000469365
0.000473455
0.000475887
0.000476728
0.000475906
0.000473482
0.000469373
0.000449934
8.89057e-05
0.000236128
0.000274413
0.00027849
0.000281791
0.000281368
0.000281784
0.000278484
0.000274416
0.000236163
0.000132775
0.000499371
0.000594484
0.000603169
0.000608705
0.000608268
0.000608687
0.000603151
0.000594494
0.000499441
0.000425859
0.000736799
0.00083393
0.000859239
0.000868881
0.000871595
0.000868866
0.000859224
0.000833952
0.00073685
0.000687641
0.000798139
0.000840998
0.000867958
0.00087928
0.000883675
0.000879267
0.000867941
0.000841012
0.000798143
0.000957579
0.000840382
0.000781626
0.000799393
0.000810094
0.000814949
0.000810083
0.000799373
0.000781619
0.000840331
0.00118962
0.000859781
0.000694324
0.00069568
0.000703926
0.000708335
0.000703918
0.000695658
0.000694295
0.000859687
0.00132735
0.000828957
0.00058668
0.000570138
0.00057529
0.000578904
0.000575283
0.000570115
0.000586635
0.000828843
0.00130703
0.000742293
0.000477904
0.00044765
0.00045006
0.000452753
0.000450054
0.000447628
0.000477855
0.000742182
0.00110928
0.000621558
0.000400065
0.000369999
0.000371823
0.000373651
0.00037182
0.000369986
0.000400029
0.000621473
0.000830974
0.000511551
0.000387273
0.000377363
0.000382106
0.000383446
0.000382113
0.000377369
0.000387267
0.000511506
0.000319471
0.000234549
0.000256798
0.0002761
0.000291405
0.000296663
0.000291402
0.000276098
0.000256814
0.00023458
0.000897175
0.000621297
0.000663274
0.000704855
0.000740064
0.000751997
0.000740058
0.00070485
0.000663304
0.000621356
0.00131262
0.000988131
0.00101481
0.00105472
0.00108881
0.00110089
0.00108881
0.00105473
0.00101483
0.000988157
0.00135992
0.0010402
0.00106766
0.00110767
0.00113702
0.00114789
0.00113702
0.00110768
0.00106768
0.0010402
0.00123709
0.000989232
0.00101965
0.00105703
0.00108154
0.0010907
0.00108155
0.00105706
0.00101966
0.000989222
0.00104213
0.000906157
0.000936436
0.00096655
0.000986428
0.00099368
0.000986445
0.000966584
0.000936446
0.000906141
0.000829225
0.000810006
0.000834525
0.000855093
0.000870379
0.000875766
0.000870402
0.000855132
0.000834532
0.000809988
0.000642527
0.0007002
0.000717371
0.000729706
0.000740327
0.000743957
0.000740354
0.000729747
0.000717378
0.000700181
0.000499663
0.000576069
0.000592171
0.000599494
0.000605662
0.000607718
0.000605689
0.000599532
0.00059218
0.000576056
0.000381491
0.000451625
0.000472238
0.000477207
0.000479486
0.000480293
0.000479506
0.000477235
0.000472247
0.000451621
0.000106638
0.000247123
0.000292087
0.000299957
0.000305699
0.000306681
0.000305692
0.000299953
0.000292092
0.000247157
0.000106733
0.00050938
0.000620722
0.00063203
0.000636319
0.000636039
0.000636301
0.000632014
0.000620729
0.00050945
0.000190045
0.00073967
0.000863571
0.000888493
0.000899245
0.000901368
0.000899231
0.000888481
0.000863589
0.000739734
0.00035372
0.000813826
0.000871542
0.000897198
0.000910295
0.0009143
0.000910285
0.000897184
0.000871555
0.000813837
0.000689338
0.000852008
0.000805793
0.000822839
0.000834421
0.000839332
0.000834413
0.000822822
0.000805789
0.000851956
0.00103133
0.000852267
0.000700844
0.000704621
0.000712842
0.000717632
0.000712835
0.000704602
0.00070082
0.00085217
0.00125281
0.000805074
0.000580341
0.000568169
0.000572881
0.000576956
0.000572874
0.000568146
0.000580303
0.000804962
0.0012618
0.000714776
0.000468548
0.000442816
0.000444904
0.000447999
0.000444896
0.000442794
0.000468504
0.00071467
0.00107244
0.000601823
0.000392779
0.000366215
0.000368079
0.000370185
0.000368076
0.000366201
0.000392746
0.000601742
0.000813109
0.000502638
0.00038235
0.000374532
0.0003796
0.000381088
0.000379606
0.000374537
0.000382344
0.000502596
0.000156898
0.000118749
0.000157075
0.000186105
0.000202214
0.000207175
0.000202211
0.000186104
0.000157095
0.000118793
0.000879291
0.000468234
0.000500094
0.000543084
0.000581242
0.000593679
0.000581236
0.000543077
0.000500121
0.000468305
0.00136814
0.000861862
0.00089262
0.000935525
0.000968203
0.00097951
0.000968201
0.000935529
0.000892647
0.000861925
0.0015217
0.000923279
0.000977964
0.00102435
0.00105352
0.00106343
0.00105352
0.00102437
0.000977992
0.000923337
0.0013331
0.000903277
0.000969309
0.00101112
0.00103708
0.0010457
0.00103709
0.00101115
0.000969332
0.000903319
0.00102007
0.000852863
0.000918066
0.000950759
0.000972366
0.000979538
0.000972383
0.000950793
0.000918081
0.000852885
0.000732735
0.000785584
0.000833643
0.000855117
0.000871105
0.000876563
0.000871128
0.000855156
0.000833652
0.000785582
0.000552107
0.000695768
0.000721505
0.0007339
0.000744437
0.000748101
0.000744464
0.000733941
0.000721513
0.000695752
0.00045334
0.000579626
0.000596212
0.000603572
0.000609569
0.000611584
0.000609596
0.00060361
0.000596221
0.000579609
0.000366214
0.00045534
0.000476057
0.000481026
0.000483351
0.000484067
0.000483371
0.000481055
0.000476067
0.000455334
0.000625338
0.000480586
0.00046087
0.000478559
0.000487654
0.000488837
0.00048767
0.000478584
0.000460895
0.000480576
0.000517274
0.000504895
0.000566692
0.000602713
0.000616049
0.000617832
0.000616066
0.000602741
0.000566735
0.000504917
0.000525895
0.000596528
0.000695635
0.000741534
0.000757842
0.000760443
0.000757854
0.000741557
0.000695687
0.000596566
0.000623606
0.000726739
0.000829279
0.000877582
0.000894697
0.000897962
0.000894701
0.000877595
0.00082933
0.000726779
0.000753106
0.000844519
0.000928482
0.000971758
0.000986676
0.000990005
0.000986672
0.00097176
0.000928523
0.00084455
0.00084132
0.000894487
0.000949066
0.000983057
0.000993995
0.000996961
0.000993986
0.000983048
0.000949088
0.000894505
0.00083623
0.000843508
0.000867317
0.000890102
0.00089606
0.000898299
0.000896047
0.000890085
0.000867316
0.000843513
0.000692766
0.000659547
0.00065144
0.00066234
0.000662908
0.000663695
0.000662893
0.000662317
0.000651417
0.000659542
0.000129253
0.000115196
0.000109185
0.000112216
0.000112423
0.0001125
0.00011242
0.000112212
0.000109181
0.000115195
6.21464e-05
5.95693e-05
5.8462e-05
6.01067e-05
6.06919e-05
6.08332e-05
6.06915e-05
6.01068e-05
5.84627e-05
5.95705e-05
0.000384792
0.000382229
0.000394209
0.000399012
0.000402141
0.000403125
0.000402146
0.00039902
0.000394213
0.000382236
0.000391262
0.000401026
0.00041353
0.000423701
0.000428581
0.000430805
0.000428571
0.000423692
0.000413532
0.00040105
0.00048982
0.000501462
0.00051642
0.0005336
0.000541557
0.000545638
0.000541541
0.000533586
0.000516422
0.000501498
0.00063049
0.0006393
0.000655779
0.000677768
0.000688196
0.000694082
0.000688183
0.000677757
0.000655781
0.000639339
0.000767075
0.000766251
0.000783478
0.000808041
0.000820401
0.000827822
0.000820395
0.000808037
0.000783476
0.000766285
0.000860196
0.000852763
0.000872564
0.000899569
0.000914883
0.000923749
0.000914885
0.000899574
0.000872562
0.000852791
0.000884241
0.000874896
0.00090081
0.000931609
0.000950433
0.000960067
0.000950443
0.000931623
0.000900812
0.000874918
0.000766356
0.00076228
0.000797141
0.000829939
0.000851246
0.000860257
0.000851263
0.000829965
0.000797152
0.000762297
0.000120211
0.000113791
0.000131834
0.00014361
0.000151086
0.000154876
0.0001511
0.000143627
0.000131835
0.000113793
3.35372e-05
3.21757e-05
3.54933e-05
3.8194e-05
3.98455e-05
4.05884e-05
3.98483e-05
3.81976e-05
3.54948e-05
3.21766e-05
0.000625874
0.000478326
0.000460964
0.000477719
0.000486303
0.000487653
0.000486319
0.000477742
0.000460987
0.000478319
0.000527111
0.000517228
0.000572838
0.000608334
0.000620433
0.000622055
0.00062045
0.000608362
0.00057288
0.000517251
0.000543592
0.00061209
0.000699836
0.000744009
0.000758408
0.000760614
0.000758423
0.000744033
0.000699885
0.000612125
0.000627618
0.000722774
0.000813695
0.000858783
0.000874222
0.00087696
0.00087423
0.000858798
0.000813742
0.000722807
0.000724163
0.000810373
0.000887299
0.00092771
0.000942669
0.000945519
0.000942666
0.000927711
0.00088734
0.000810399
0.000803035
0.000861559
0.000917268
0.000949662
0.00096214
0.000963797
0.000962122
0.000949646
0.000917298
0.000861575
0.00083282
0.000857443
0.00088989
0.000912921
0.000923015
0.000923888
0.000922986
0.000912895
0.000889901
0.000857449
0.000747671
0.000728981
0.000736713
0.000745388
0.000750464
0.000750905
0.00075043
0.000745354
0.000736698
0.000728974
0.000105054
9.79861e-05
0.000105853
0.000107649
0.000110153
0.000111016
0.000110149
0.000107647
0.000105847
9.79835e-05
2.13899e-05
1.97507e-05
2.22154e-05
2.33297e-05
2.42217e-05
2.46333e-05
2.4222e-05
2.33304e-05
2.22143e-05
1.97502e-05
0.000360513
0.000376145
0.000393127
0.000397862
0.000399593
0.000400291
0.000399597
0.00039787
0.000393131
0.000376155
0.000385166
0.000396352
0.000408899
0.000418248
0.000421763
0.000423725
0.000421752
0.000418239
0.0004089
0.000396377
0.000480861
0.000485374
0.000495797
0.000510795
0.000517686
0.000521383
0.000517669
0.000510781
0.000495798
0.000485408
0.000600623
0.000599882
0.000608905
0.000627401
0.000637176
0.000642178
0.000637159
0.000627388
0.000608905
0.00059992
0.000724799
0.000720971
0.000729583
0.00075017
0.000762074
0.000767707
0.000762057
0.000750158
0.000729583
0.000721007
0.000848577
0.000846153
0.000854475
0.000877238
0.000891439
0.000897399
0.000891425
0.000877226
0.000854479
0.000846185
0.000948397
0.000953595
0.000965481
0.000992476
0.00100996
0.00101634
0.00100995
0.000992468
0.000965494
0.000953623
0.000883438
0.00089232
0.000921458
0.00095336
0.000975561
0.000982127
0.000975562
0.00095337
0.000921482
0.000892339
0.00013523
0.000138628
0.000153234
0.000162581
0.000172069
0.000174375
0.000172073
0.000162592
0.000153245
0.000138633
2.25604e-05
2.28396e-05
2.61395e-05
2.8033e-05
2.98951e-05
3.04392e-05
2.98966e-05
2.80359e-05
2.61414e-05
2.28404e-05
0.000622915
0.000475191
0.000458939
0.000475262
0.000483891
0.000485243
0.000483906
0.000475284
0.000458963
0.000475187
0.000529001
0.000515977
0.00057062
0.000605105
0.000616811
0.000618479
0.000616828
0.000605132
0.000570661
0.000516001
0.000545173
0.000609041
0.000694083
0.000736421
0.000749779
0.000751892
0.000749794
0.000736444
0.00069413
0.000609076
0.000634856
0.000727424
0.000814952
0.00085808
0.000871984
0.000874533
0.000871992
0.000858093
0.000814997
0.000727457
0.000761446
0.000851055
0.000925446
0.00096619
0.000980015
0.000982715
0.00098001
0.000966187
0.000925487
0.00085108
0.000884067
0.000959889
0.0010104
0.00104686
0.00105979
0.00106242
0.00105977
0.00104683
0.00101043
0.000959904
0.000950022
0.000995437
0.00102266
0.00105342
0.00106457
0.00106683
0.00106454
0.00105338
0.00102268
0.000995442
0.000823027
0.00082902
0.00084345
0.000862506
0.000871158
0.000873016
0.000871132
0.000862472
0.00084345
0.000829015
0.000125035
0.000124649
0.000128125
0.000130961
0.000133516
0.000133836
0.00013351
0.000130954
0.000128123
0.000124648
1.92513e-05
1.86126e-05
1.98456e-05
2.03325e-05
2.0971e-05
2.11317e-05
2.09705e-05
2.03325e-05
1.98453e-05
1.86124e-05
0.000340942
0.000373782
0.000392883
0.000397422
0.00039819
0.000398861
0.000398195
0.00039743
0.000392887
0.000373792
0.000376616
0.00039237
0.000406744
0.000415148
0.000417786
0.000419734
0.000417776
0.00041514
0.000406745
0.000392395
0.000479549
0.000484524
0.00049635
0.000510367
0.000516788
0.000520445
0.000516769
0.000510352
0.000496351
0.000484559
0.000611747
0.000614063
0.000622075
0.000640137
0.000649807
0.000654662
0.000649787
0.000640121
0.000622077
0.000614103
0.000753719
0.000755374
0.000759339
0.000781676
0.000794038
0.000799564
0.00079402
0.000781661
0.000759341
0.000755413
0.000889396
0.00089338
0.000896583
0.000924412
0.000939527
0.000945769
0.000939513
0.000924399
0.000896589
0.000893416
0.000976223
0.000984817
0.000998388
0.00103285
0.00105229
0.0010598
0.00105229
0.00103285
0.0009984
0.000984847
0.000874444
0.000889828
0.000922876
0.000961739
0.000986625
0.000994659
0.000986633
0.000961753
0.0009229
0.000889847
0.000138491
0.000146037
0.000157425
0.000170911
0.000180542
0.0001828
0.000180546
0.000170919
0.000157437
0.000146042
2.31957e-05
2.43915e-05
2.66947e-05
2.88256e-05
3.05649e-05
3.09488e-05
3.05658e-05
2.88274e-05
2.6697e-05
2.43923e-05
0.00061884
0.000471306
0.000455642
0.000472663
0.000481837
0.000483235
0.000481852
0.000472685
0.000455666
0.000471303
0.000533889
0.000517865
0.000571193
0.000604731
0.00061683
0.000618483
0.000616846
0.000604757
0.000571234
0.000517889
0.000557295
0.00061786
0.00069868
0.000738431
0.000751596
0.00075354
0.00075161
0.000738453
0.000698724
0.000617895
0.0006588
0.000748093
0.000831175
0.000872831
0.000886121
0.000888508
0.000886128
0.000872842
0.000831218
0.000748126
0.000804264
0.000897184
0.000971079
0.00101182
0.00102479
0.00102799
0.00102479
0.00101182
0.000971117
0.000897208
0.000954191
0.00103138
0.00108934
0.00112769
0.00114035
0.00114463
0.00114034
0.00112767
0.00108937
0.00103139
0.00101824
0.00106595
0.00110824
0.00114145
0.00115354
0.0011583
0.00115353
0.00114143
0.00110826
0.00106594
0.000851744
0.0008646
0.000887742
0.000909341
0.000918532
0.000921953
0.000918511
0.000909311
0.000887739
0.000864591
0.000130328
0.000131356
0.000134729
0.000138865
0.000140859
0.000141352
0.000140854
0.000138857
0.000134726
0.000131353
1.87461e-05
1.84001e-05
1.90267e-05
1.96895e-05
2.01655e-05
2.02559e-05
2.01647e-05
1.96886e-05
1.90261e-05
1.83998e-05
0.000323221
0.000375552
0.00039624
0.00039986
0.000399896
0.000400367
0.000399902
0.00039987
0.000396244
0.000375563
0.000369357
0.000395697
0.000410816
0.000416531
0.000418037
0.000419751
0.000418027
0.000416522
0.000410815
0.000395722
0.000488973
0.000499713
0.000513301
0.000525451
0.000531115
0.000534741
0.000531096
0.000525435
0.0005133
0.000499749
0.000649197
0.000657869
0.000670751
0.000690115
0.000699972
0.000705086
0.000699953
0.000690099
0.000670755
0.00065791
0.000815659
0.000824639
0.000834623
0.000859759
0.000873244
0.0008795
0.000873228
0.000859746
0.000834631
0.00082468
0.000943399
0.000951349
0.000959503
0.000990043
0.00100711
0.00101448
0.00100711
0.000990036
0.000959513
0.000951386
0.000981431
0.000990563
0.00100561
0.00104153
0.00106298
0.00107135
0.00106298
0.00104153
0.00100563
0.000990594
0.000841347
0.000857514
0.000885419
0.000923919
0.000948882
0.000957152
0.000948893
0.000923937
0.000885444
0.000857536
0.000140307
0.000149511
0.000159313
0.000173551
0.000183215
0.000185728
0.000183219
0.000173558
0.000159325
0.000149516
2.51152e-05
2.69167e-05
2.90643e-05
3.16057e-05
3.34642e-05
3.39291e-05
3.34651e-05
3.16073e-05
2.90665e-05
2.69173e-05
0.000617257
0.000469219
0.000453522
0.000471606
0.000481319
0.000482818
0.000481333
0.000471627
0.000453546
0.000469217
0.000544111
0.000523149
0.00057674
0.000611025
0.000623988
0.000625776
0.000624003
0.00061105
0.000576781
0.000523174
0.000578958
0.000635822
0.000716848
0.000757384
0.000771464
0.000773503
0.000771476
0.000757404
0.000716894
0.000635858
0.000684308
0.000770985
0.00085257
0.000894852
0.000908618
0.000911058
0.000908624
0.000894862
0.000852615
0.000771019
0.000812753
0.000896912
0.000970202
0.00101103
0.00102383
0.00102722
0.00102383
0.00101103
0.000970238
0.000896936
0.000933546
0.000999899
0.00106359
0.00110128
0.00111298
0.00111769
0.00111297
0.00110127
0.00106362
0.000999912
0.00100014
0.00104193
0.00109437
0.00112489
0.00113452
0.00113963
0.00113451
0.00112487
0.00109438
0.00104193
0.00086512
0.000878877
0.000906476
0.000922694
0.000927352
0.000930295
0.000927329
0.000922665
0.000906464
0.000878865
0.000123561
0.000122923
0.000126504
0.000129497
0.000129954
0.000130414
0.000129947
0.00012949
0.000126496
0.000122922
1.63794e-05
1.59559e-05
1.642e-05
1.73125e-05
1.77284e-05
1.78494e-05
1.77275e-05
1.73116e-05
1.64191e-05
1.5956e-05
0.000312008
0.000377628
0.000400296
0.000403452
0.000403575
0.000403904
0.000403581
0.000403462
0.0004003
0.000377639
0.000359989
0.00039998
0.000416055
0.000420187
0.000421296
0.000422776
0.000421285
0.000420178
0.000416053
0.000400006
0.000483261
0.000505091
0.000519745
0.000530634
0.000535792
0.000539344
0.000535775
0.000530618
0.000519741
0.000505128
0.000652509
0.000668907
0.000688877
0.000709088
0.000719499
0.000725353
0.000719485
0.000709075
0.000688878
0.000668948
0.000846649
0.000868875
0.000894655
0.000921895
0.000937021
0.000944807
0.000937011
0.000921888
0.000894664
0.000868916
0.00102932
0.00105803
0.0010831
0.00111253
0.00113081
0.00113929
0.0011308
0.00111253
0.00108312
0.00105806
0.00112372
0.00115187
0.00116991
0.00119875
0.00121892
0.00122677
0.00121892
0.00119875
0.00116993
0.00115189
0.00101836
0.00103508
0.00104526
0.00107563
0.00109786
0.00110512
0.00109787
0.00107564
0.00104529
0.00103509
0.000296955
0.000309875
0.000312519
0.00032392
0.000334319
0.000337644
0.000334324
0.000323926
0.000312538
0.000309876
8.73236e-05
9.37282e-05
9.9006e-05
0.000102512
0.00010555
0.000106587
0.000105552
0.000102515
9.90109e-05
9.37291e-05
)
;

boundaryField
{
    leftWall
    {
        type            kqRWallFunction;
        value           nonuniform List<scalar> 
100
(
8.04355e-06
3.70544e-05
3.02683e-05
0.000150289
8.3232e-05
0.000266687
8.89057e-05
0.000319471
0.000106638
0.000156898
6.02271e-05
0.000177661
0.000193336
0.000238079
0.00021782
0.000251198
0.000236128
0.000234549
0.000247123
0.000118749
0.000131457
0.000255058
0.000244726
0.000272242
0.000255528
0.000274201
0.000274413
0.000256798
0.000292087
0.000157075
0.000168994
0.000287667
0.000259659
0.000297837
0.000262408
0.00029528
0.00027849
0.0002761
0.000299957
0.000186105
0.000174905
0.000305614
0.000268939
0.000316678
0.000267698
0.000311494
0.000281791
0.000291405
0.000305699
0.000202214
0.000176933
0.000311194
0.000270528
0.000322339
0.000267598
0.000316741
0.000281368
0.000296663
0.000306681
0.000207175
0.0001749
0.000305617
0.000268941
0.000316678
0.000267694
0.000311493
0.000281784
0.000291402
0.000305692
0.000202211
0.000168998
0.000287679
0.000259667
0.000297846
0.000262409
0.000295281
0.000278484
0.000276098
0.000299953
0.000186104
0.000131478
0.000255098
0.000244751
0.000272269
0.000255541
0.000274218
0.000274416
0.000256814
0.000292092
0.000157095
6.02664e-05
0.000177707
0.000193398
0.000238127
0.000217874
0.000251232
0.000236163
0.00023458
0.000247157
0.000118793
)
;
    }
    rightWall
    {
        type            kqRWallFunction;
        value           nonuniform List<scalar> 
100
(
6.21464e-05
3.35372e-05
2.13899e-05
2.25604e-05
1.92513e-05
2.31957e-05
1.87461e-05
2.51152e-05
1.63794e-05
8.73236e-05
5.95693e-05
3.21757e-05
1.97507e-05
2.28396e-05
1.86126e-05
2.43915e-05
1.84001e-05
2.69167e-05
1.59559e-05
9.37282e-05
5.8462e-05
3.54933e-05
2.22154e-05
2.61395e-05
1.98456e-05
2.66947e-05
1.90267e-05
2.90643e-05
1.642e-05
9.9006e-05
6.01067e-05
3.8194e-05
2.33297e-05
2.8033e-05
2.03325e-05
2.88256e-05
1.96895e-05
3.16057e-05
1.73125e-05
0.000102512
6.06919e-05
3.98455e-05
2.42217e-05
2.98951e-05
2.0971e-05
3.05649e-05
2.01655e-05
3.34642e-05
1.77284e-05
0.00010555
6.08332e-05
4.05884e-05
2.46333e-05
3.04392e-05
2.11317e-05
3.09488e-05
2.02559e-05
3.39291e-05
1.78494e-05
0.000106587
6.06915e-05
3.98483e-05
2.4222e-05
2.98966e-05
2.09705e-05
3.05658e-05
2.01647e-05
3.34651e-05
1.77275e-05
0.000105552
6.01068e-05
3.81976e-05
2.33304e-05
2.80359e-05
2.03325e-05
2.88274e-05
1.96886e-05
3.16073e-05
1.73116e-05
0.000102515
5.84627e-05
3.54948e-05
2.22143e-05
2.61414e-05
1.98453e-05
2.6697e-05
1.90261e-05
2.90665e-05
1.64191e-05
9.90109e-05
5.95705e-05
3.21766e-05
1.97502e-05
2.28404e-05
1.86124e-05
2.43923e-05
1.83998e-05
2.69173e-05
1.5956e-05
9.37291e-05
)
;
    }
    leftSides_periodic0
    {
        type            cyclic;
    }
    leftSides_periodic1
    {
        type            cyclic;
    }
    rightSides_periodic0
    {
        type            cyclic;
    }
    rightSides_periodic1
    {
        type            cyclic;
    }
    leftInOut_periodic0
    {
        type            cyclic;
    }
    leftInOut_periodic1
    {
        type            cyclic;
    }
    rightInOut_periodic0
    {
        type            cyclic;
    }
    rightInOut_periodic1
    {
        type            cyclic;
    }
}


// ************************************************************************* //
