/*--------------------------------*- C++ -*----------------------------------*\
| =========                 |                                                 |
| \\      /  F ield         | OpenFOAM: The Open Source CFD Toolbox           |
|  \\    /   O peration     | Version:  v1912                                 |
|   \\  /    A nd           | Website:  www.openfoam.com                      |
|    \\/     M anipulation  |                                                 |
\*---------------------------------------------------------------------------*/
FoamFile
{
    version     2.0;
    format      ascii;
    class       surfaceScalarField;
    location    "99.2";
    object      phi;
}
// * * * * * * * * * * * * * * * * * * * * * * * * * * * * * * * * * * * * * //

dimensions      [1 0 -1 0 0 0 0];
oriented        oriented;


internalField   nonuniform List<scalar> 
6304
(
1.80279e-05
-4.62427e-05
4.83847e-06
-8.72205e-06
2.58953e-05
3.47255e-06
9.36903e-06
-2.1346e-05
4.32606e-06
2.69116e-05
2.71347e-06
2.38633e-05
-0.000102806
1.05317e-05
-1.31181e-05
6.16378e-05
9.99103e-06
1.50687e-05
-5.41493e-05
1.09768e-05
6.56539e-05
7.86687e-06
2.10979e-05
-0.000153616
1.52524e-05
-1.58315e-05
9.74189e-05
1.64602e-05
1.88543e-05
-9.31821e-05
1.71813e-05
0.000105936
1.30442e-05
1.85983e-05
-0.000199269
2.02326e-05
-1.82954e-05
0.00013322
2.30842e-05
2.22871e-05
-0.000137879
2.35432e-05
0.000147543
1.84016e-05
1.68891e-05
-0.000241783
2.55447e-05
-1.97843e-05
0.000168841
2.98578e-05
2.4741e-05
-0.000186483
3.009e-05
0.000190286
2.39294e-05
1.55187e-05
-0.000281963
3.10432e-05
-2.07808e-05
0.000204216
3.67067e-05
2.66918e-05
-0.000238045
3.67309e-05
0.000234096
2.95712e-05
1.42844e-05
-0.000320101
3.66483e-05
-2.14747e-05
0.000239287
4.35739e-05
2.83226e-05
-0.000291941
4.34072e-05
0.000278919
3.52817e-05
1.30811e-05
-0.000356243
4.23055e-05
-2.19376e-05
0.000273929
5.0413e-05
2.96979e-05
-0.000347652
5.00737e-05
0.000324647
4.10202e-05
1.18516e-05
-0.000390285
4.79694e-05
-2.2199e-05
0.00030795
5.7182e-05
3.08396e-05
-0.000404688
5.66871e-05
0.000371098
4.6746e-05
1.05805e-05
-0.000422058
5.36015e-05
-2.22835e-05
0.000341144
6.38437e-05
3.17634e-05
-0.000462589
6.32065e-05
0.00041806
5.24192e-05
9.29812e-06
-0.000451436
5.91765e-05
-2.22136e-05
0.000373353
7.03716e-05
3.24932e-05
-0.000520946
6.96022e-05
0.000465337
5.80069e-05
8.07578e-06
-0.000478424
6.46862e-05
-2.20204e-05
0.000404517
7.67543e-05
3.30647e-05
-0.000579429
7.58615e-05
0.000512803
6.34887e-05
6.98535e-06
-0.00050319
7.01377e-05
-2.1751e-05
0.000434692
8.30015e-05
3.35157e-05
-0.000637813
8.19954e-05
0.000560411
6.88578e-05
6.04657e-06
-0.000525992
7.55388e-05
-2.14293e-05
0.000463978
8.91419e-05
3.387e-05
-0.000695937
8.8029e-05
0.000608199
7.41218e-05
5.25352e-06
-0.000547145
8.08896e-05
-2.10558e-05
0.000492473
9.51993e-05
3.41419e-05
-0.000753649
9.39747e-05
0.000656279
7.92988e-05
4.59939e-06
-0.000566979
8.61957e-05
-2.0642e-05
0.000520274
0.000101186
3.4344e-05
-0.000810817
9.98378e-05
0.000704787
8.44073e-05
4.0544e-06
-0.000585742
9.14634e-05
-2.01754e-05
0.000547433
0.000107113
3.44907e-05
-0.000867316
0.000105629
0.000753818
8.9463e-05
3.59114e-06
-0.000603595
9.66938e-05
-1.96132e-05
0.00057393
0.000112993
3.45994e-05
-0.000922999
0.000111359
0.000803431
9.44797e-05
3.20029e-06
-0.00062066
0.00010189
-1.9056e-05
0.000599831
0.000118836
3.4682e-05
-0.000977838
0.00011704
0.000853671
9.94691e-05
2.87487e-06
-0.000637046
0.000107061
-1.8507e-05
0.000625201
0.000124653
3.47451e-05
-0.00103182
0.000122683
0.000904579
0.000104442
2.60786e-06
-0.000652819
0.000112221
-1.79684e-05
0.000650093
0.000130454
3.47937e-05
-0.00108494
0.000128297
0.000956154
0.000109407
2.39276e-06
-0.000668018
0.000117383
-1.74416e-05
0.000674559
0.000136248
3.48317e-05
-0.0011372
0.000133893
0.00100835
0.000114374
2.22509e-06
-0.000682793
0.000122559
-1.69276e-05
0.000698642
0.000142044
3.48618e-05
-0.00118862
0.000139478
0.00106118
0.000119351
2.10449e-06
-0.00069732
0.000127762
-1.64266e-05
0.000722386
0.000147849
3.48858e-05
-0.00123919
0.000145055
0.00111467
0.000124346
2.03115e-06
-0.000711764
0.000133002
-1.59388e-05
0.000745833
0.000153671
3.49042e-05
-0.00128892
0.000150628
0.00116884
0.000129365
2.0012e-06
-0.000726257
0.000138291
-1.54645e-05
0.000769021
0.000159515
3.49177e-05
-0.00133781
0.000156206
0.0012237
0.000134417
2.00845e-06
-0.000740904
0.000143638
-1.50042e-05
0.000791989
0.000165383
3.49269e-05
-0.00138588
0.0001618
0.00127927
0.000139506
2.04661e-06
-0.000755801
0.000149056
-1.45605e-05
0.000814774
0.000171274
3.49328e-05
-0.0014332
0.000167422
0.00133555
0.000144637
2.10918e-06
-0.000771035
0.000154552
-1.41368e-05
0.00083742
0.000177186
3.49367e-05
-0.00147986
0.000173083
0.00139255
0.000149814
2.18903e-06
-0.000786714
0.000160139
-1.37363e-05
0.000859973
0.000183121
3.49386e-05
-0.00152594
0.000178792
0.00145029
0.000155038
2.27893e-06
-0.000803041
0.000165823
-1.33638e-05
0.00088246
0.000189094
3.4938e-05
-0.0015715
0.000184557
0.00150879
0.000160314
2.3719e-06
-0.000820307
0.000171612
-1.3022e-05
0.000904872
0.000195132
3.49341e-05
-0.00161663
0.000190385
0.00156806
0.000165649
2.45711e-06
-0.00083859
0.000177511
-1.27137e-05
0.000927145
0.000201262
3.49252e-05
-0.00166147
0.000196277
0.00162808
0.000171049
2.51411e-06
-0.000857326
0.000183526
-1.24384e-05
0.00094918
0.000207481
3.49067e-05
-0.00170608
0.000202237
0.00168882
0.000176521
2.51873e-06
-0.000875558
0.000189653
-1.21904e-05
0.000970895
0.000213746
3.48685e-05
-0.0017503
0.000208263
0.0017502
0.000182069
2.45976e-06
-0.00089311
0.000195884
-1.19589e-05
0.00099227
0.000219994
3.47949e-05
-0.0017937
0.00021435
0.00181213
0.000187698
2.34208e-06
-0.00091045
0.000202209
-1.17343e-05
0.00101332
0.000226202
3.46718e-05
-0.00183593
0.000220528
0.00187449
0.000193413
2.1721e-06
-0.000928001
0.00020863
-1.15154e-05
0.00103404
0.000232406
3.44956e-05
-0.00187722
0.000226855
0.00193721
0.000199216
1.94913e-06
-0.000945892
0.000215148
-1.13106e-05
0.00105438
0.000238659
3.42741e-05
-0.001918
0.000233367
0.00200022
0.00020511
1.6685e-06
-0.000964067
0.000221766
-1.11324e-05
0.00107426
0.000244976
3.40214e-05
-0.00195851
0.000239935
0.00206345
0.000211096
1.32504e-06
-0.000982442
0.000228487
-1.09941e-05
0.00109367
0.000251343
3.37555e-05
-0.00199863
0.000246329
0.00212686
0.000217175
9.13551e-07
-0.00100093
0.000235315
-1.09232e-05
0.00111258
0.000257754
3.35095e-05
-0.00203829
0.000252602
0.00219042
0.000223346
4.2998e-07
-0.00101941
0.00024225
-1.09366e-05
0.00113099
0.000264209
3.33002e-05
-0.00207765
0.000258939
0.00225409
0.000229609
-1.29453e-07
-0.00103776
0.000249293
-1.10151e-05
0.00114889
0.000270709
3.31031e-05
-0.00211684
0.000265396
0.00231778
0.000235998
-7.7115e-07
-0.00105585
0.000256446
-1.11439e-05
0.00116623
0.000277254
3.28939e-05
-0.00215589
0.000271924
0.00238124
0.000242613
-1.49294e-06
-0.00107356
0.000263711
-1.13224e-05
0.00118297
0.000283844
3.26632e-05
-0.00219483
0.000278489
0.00244412
0.000249611
-2.26062e-06
-0.00109091
0.000271093
-1.15421e-05
0.0011991
0.000290479
3.24021e-05
-0.00223362
0.00028508
0.00250604
0.000257052
-3.00925e-06
-0.00110801
0.000278594
-1.17967e-05
0.00121465
0.000297165
3.21013e-05
-0.00227235
0.00029182
0.00256708
0.000264555
-3.69197e-06
-0.00112514
0.000286216
-1.20814e-05
0.00122971
0.000303906
3.17556e-05
-0.00231146
0.00029908
0.00262779
0.000271706
-4.29681e-06
-0.00114254
0.000293958
-1.23909e-05
0.00124436
0.000310703
3.1365e-05
-0.00235187
0.000307331
0.00268861
0.000278668
-4.79508e-06
-0.00116071
0.000301831
-1.27308e-05
0.00125873
0.000317554
3.09306e-05
-0.00239473
0.000316824
0.00274969
0.000285762
-5.13904e-06
-0.00118058
0.000309865
-1.31112e-05
0.00127302
0.000324461
3.04479e-05
-0.00243963
0.000325945
0.0028111
0.000293114
-5.34176e-06
-0.00120287
0.000318098
-1.35396e-05
0.00128739
0.000331422
2.98815e-05
-0.00248464
0.000333244
0.00287288
0.000300684
-5.54428e-06
-0.00122647
0.00032655
-1.40238e-05
0.0013019
0.000338438
2.92524e-05
-0.00252901
0.000339853
0.00293493
0.000308436
-5.9756e-06
-0.00124862
0.000335185
-1.45751e-05
0.00131638
0.000345509
2.85939e-05
-0.00257298
0.000346734
0.00299689
0.00031637
-6.80498e-06
-0.00126841
0.000343897
-1.52082e-05
0.0013305
0.000352636
2.79189e-05
-0.00261703
0.000354065
0.00305814
0.000324485
-8.04086e-06
-0.00128568
0.000352563
-1.59389e-05
0.00134395
0.000359818
2.72303e-05
-0.00266136
0.000361591
0.00311794
0.000332775
-9.58824e-06
-0.00130042
0.000361434
-1.67814e-05
0.00135652
0.000367055
2.65114e-05
-0.00270609
0.000369181
0.0031757
0.00034122
-1.11876e-05
-0.00131369
0.00037129
-1.77468e-05
0.00136825
0.000374345
2.57273e-05
-0.00275128
0.00037684
0.00323113
0.000349802
-1.26044e-05
-0.00132829
0.000382845
-1.88444e-05
0.00137945
0.000381688
2.48426e-05
-0.00279701
0.000384567
0.00328435
0.000358505
-1.37433e-05
-0.00134694
0.000395636
-2.00909e-05
0.00139053
0.00038908
2.38542e-05
-0.00284335
0.000392363
0.00333586
0.000367335
-1.45451e-05
-0.00136637
0.000405682
-2.13404e-05
0.00140181
0.000396523
2.2776e-05
-0.00289025
0.000400223
0.0033862
0.000376325
-1.5224e-05
-0.0013814
0.000414278
-2.25358e-05
0.00141331
0.000404011
2.16228e-05
-0.00293762
0.000408146
0.00343553
0.000385495
-1.61668e-05
-0.00139204
0.000423306
-2.38076e-05
0.00142483
0.000411544
2.04293e-05
-0.00298551
0.000416131
0.0034835
0.00039485
-1.75717e-05
-0.00139972
0.000433084
-2.51605e-05
0.00143594
0.000419116
1.91684e-05
-0.00303399
0.000424175
0.00352944
0.000404389
-1.9427e-05
-0.00140511
0.000443102
-2.65948e-05
0.00144623
0.000426725
1.77176e-05
-0.00308299
0.000432276
0.00357292
0.000414127
-2.15344e-05
-0.0014086
0.000453062
-2.79532e-05
0.00145536
0.000434368
1.61034e-05
-0.00313231
0.000440429
0.00361404
0.000424185
-2.35673e-05
-0.00141019
0.000462942
-2.91767e-05
0.00146323
0.000442042
1.48517e-05
-0.00318221
0.000448629
0.00365307
0.000434691
-2.54143e-05
-0.00140842
0.00047309
-3.0663e-05
0.00147028
0.000449746
1.47398e-05
-0.00323414
0.000456868
0.0036896
0.000445513
-2.72007e-05
-0.00140251
0.000484401
-3.22729e-05
0.00147668
0.000457477
1.52374e-05
-0.00328888
0.000465138
0.0037228
0.00045636
-2.89725e-05
-0.00139465
0.000497618
-3.39246e-05
0.00148246
0.000465231
1.51599e-05
-0.00334592
0.000473432
0.00375233
0.000467175
-3.06765e-05
-0.0013878
0.000512643
-3.5554e-05
0.00148765
0.000473004
1.43129e-05
-0.00340452
0.000481739
0.00377827
0.000478089
-3.22516e-05
-0.00137975
0.000524934
-3.71043e-05
0.00149228
0.000480789
1.29907e-05
-0.00346417
0.000490047
0.00380055
0.000489132
-3.36449e-05
-0.00136833
0.000535044
-3.85208e-05
0.00149636
0.000488581
1.15149e-05
-0.00352461
0.000498338
0.00381899
0.000500264
-3.48042e-05
-0.00135369
0.000545254
-3.97528e-05
0.00149992
0.000496373
9.80648e-06
-0.00358543
0.000506587
0.00383321
0.000511461
-3.56725e-05
-0.00133682
0.000556302
-4.07521e-05
0.00150298
0.000504162
7.63858e-06
-0.00364591
0.000514768
0.00384224
0.000522664
-3.61884e-05
-0.00131822
0.000567759
-4.14617e-05
0.00150555
0.000511947
5.31928e-06
-0.00370557
0.000522857
0.00384497
0.000534271
-3.62956e-05
-0.00129813
0.000579334
-4.18384e-05
0.00150768
0.000519726
2.73267e-06
-0.00376374
0.000530831
0.00384097
0.00054727
-3.60825e-05
0.000590978
-0.00127664
-4.19838e-05
0.000527446
0.00150954
4.05464e-08
0.000538614
-0.00381991
0.000562644
0.00383171
3.5537e-06
-6.39672e-06
4.63535e-06
-1.14269e-06
3.35845e-06
4.80983e-06
5.87717e-07
-2.22429e-06
4.82282e-06
2.06417e-06
4.28689e-06
4.50587e-06
-1.58929e-05
1.15733e-05
-1.99422e-06
7.34736e-06
1.24958e-05
1.31604e-06
-7.15753e-06
1.26084e-05
4.30304e-06
1.09018e-05
3.63035e-06
-2.51804e-05
1.74936e-05
-2.6742e-06
1.03407e-05
1.97562e-05
2.30903e-06
-1.4628e-05
1.96853e-05
5.98104e-06
1.71059e-05
2.86342e-06
-3.4309e-05
2.352e-05
-3.24444e-06
1.24621e-05
2.70457e-05
3.17475e-06
-2.42549e-05
2.67771e-05
7.17046e-06
2.33828e-05
2.34801e-06
-4.36635e-05
2.98478e-05
-3.62649e-06
1.39108e-05
3.43494e-05
3.74855e-06
-3.54892e-05
3.39834e-05
7.84931e-06
2.97219e-05
1.94733e-06
-5.33569e-05
3.62766e-05
-3.91351e-06
1.48309e-05
4.16074e-05
4.18236e-06
-4.79994e-05
4.11824e-05
8.07415e-06
3.60605e-05
1.60593e-06
-6.33995e-05
4.27093e-05
-4.13934e-06
1.53248e-05
4.87834e-05
4.53471e-06
-6.15481e-05
4.83166e-05
7.92378e-06
4.23592e-05
1.29787e-06
-7.37594e-05
4.9091e-05
-4.31488e-06
1.5457e-05
5.58523e-05
4.82813e-06
-7.59443e-05
5.53554e-05
7.47252e-06
4.85892e-05
1.00791e-06
-8.43843e-05
5.53824e-05
-4.44307e-06
1.52598e-05
6.27904e-05
5.07211e-06
-9.10258e-05
6.22751e-05
6.77925e-06
5.47241e-05
7.27894e-07
-9.52169e-05
6.15542e-05
-4.52538e-06
1.47438e-05
6.95745e-05
5.27168e-06
-0.000106654
6.90532e-05
5.88791e-06
6.07394e-05
4.57801e-07
-0.00010621
6.75904e-05
-4.56408e-06
1.39121e-05
7.61877e-05
5.42997e-06
-0.000122708
7.56736e-05
4.83296e-06
6.66156e-05
2.10094e-07
-0.000117343
7.34919e-05
-4.56125e-06
1.27774e-05
8.26246e-05
5.5477e-06
-0.000139077
8.21324e-05
3.64943e-06
7.23431e-05
3.13113e-09
-0.000128649
7.92754e-05
-4.52045e-06
1.13761e-05
8.88937e-05
5.62514e-06
-0.000155661
8.84444e-05
2.38352e-06
7.79238e-05
-1.60303e-07
-0.00014019
8.49633e-05
-4.44597e-06
9.7476e-06
9.50222e-05
5.66562e-06
-0.000172367
9.46317e-05
1.08595e-06
8.3372e-05
-2.94e-07
-0.000151972
9.05631e-05
-4.34026e-06
7.92014e-06
0.000101036
5.67576e-06
-0.000189108
0.000100704
-2.41034e-07
8.87092e-05
-4.10228e-07
-0.000163993
9.60753e-05
-4.20758e-06
5.91614e-06
0.000106949
5.66501e-06
-0.000205809
0.000106665
-1.57173e-06
9.39525e-05
-5.15088e-07
-0.000176246
0.000101505
-4.02874e-06
3.72938e-06
0.000112774
5.64213e-06
-0.00022238
0.000112526
-2.86084e-06
9.91154e-05
-6.13513e-07
-0.000188724
0.000106858
-3.82677e-06
1.36995e-06
0.000118524
5.61197e-06
-0.000238761
0.000118296
-4.06252e-06
0.000104211
-7.0863e-07
-0.000201414
0.000112141
-3.61433e-06
-1.14427e-06
0.000124213
5.57754e-06
-0.000254906
0.000123987
-5.13296e-06
0.000109253
-8.00206e-07
-0.000214307
0.000117365
-3.39248e-06
-3.79597e-06
0.000129853
5.54158e-06
-0.000270776
0.000129609
-6.02886e-06
0.000114253
-8.86651e-07
-0.000227394
0.000122547
-3.16237e-06
-6.567e-06
0.000135454
5.50648e-06
-0.000286331
0.000135172
-6.70748e-06
0.000119222
-9.67193e-07
-0.00024067
0.000127704
-2.92486e-06
-9.43963e-06
0.00014103
5.46144e-06
-0.000301522
0.000140686
-7.14064e-06
0.000124171
-1.04209e-06
-0.000254131
0.000132852
-2.68005e-06
-1.23984e-05
0.00014659
5.41566e-06
-0.000316313
0.000146158
-7.29543e-06
0.000129111
-1.11178e-06
-0.000267771
0.000138003
-2.42768e-06
-1.54307e-05
0.000152145
5.38295e-06
-0.000330677
0.000151592
-7.12944e-06
0.00013405
-1.17696e-06
-0.000281579
0.000143167
-2.16843e-06
-1.85264e-05
0.000157704
5.36208e-06
-0.000344591
0.000156992
-6.60543e-06
0.000138999
-1.24066e-06
-0.000295541
0.000148355
-1.90566e-06
-2.1677e-05
0.000163275
5.35205e-06
-0.000358034
0.000162367
-5.6915e-06
0.000143966
-1.31034e-06
-0.000309628
0.000153575
-1.64662e-06
-2.48767e-05
0.000168862
5.35255e-06
-0.000370992
0.000167733
-4.36172e-06
0.000148962
-1.39759e-06
-0.000323791
0.000158832
-1.39976e-06
-2.81261e-05
0.000174465
5.36479e-06
-0.000383472
0.00017311
-2.59639e-06
0.000153992
-1.51002e-06
-0.000337968
0.000164136
-1.16977e-06
-3.14319e-05
0.000180086
5.39099e-06
-0.000395491
0.000178514
-3.81003e-07
0.000159062
-1.63734e-06
-0.000352102
0.000169494
-9.51772e-07
-3.48002e-05
0.000185733
5.43249e-06
-0.000407068
0.000183955
2.29585e-06
0.000164177
-1.74347e-06
-0.000366149
0.000174917
-7.26165e-07
-3.82274e-05
0.000191429
5.48831e-06
-0.000418194
0.00018944
5.41694e-06
0.000169342
-1.77907e-06
-0.00038014
0.00018041
-4.66297e-07
-4.16949e-05
0.000197213
5.55537e-06
-0.000428833
0.000194971
8.98709e-06
0.000174567
-1.72173e-06
-0.000394139
0.000185977
-1.59397e-07
-4.51812e-05
0.000203116
5.6311e-06
-0.00043893
0.000200552
1.30212e-05
0.000179861
-1.62172e-06
-0.000408157
0.000191624
1.72234e-07
-4.86943e-05
0.000209136
5.71487e-06
-0.000448451
0.000206183
1.75284e-05
0.000185229
-1.60105e-06
-0.000422087
0.000197353
4.72342e-07
-5.2302e-05
0.000215214
5.80745e-06
-0.000457425
0.000211863
2.25153e-05
0.000190678
-1.76418e-06
-0.000435733
0.000203173
6.87841e-07
-5.61147e-05
0.000221277
5.90977e-06
-0.00046594
0.000217596
2.7988e-05
0.000196212
-2.08297e-06
-0.000448941
0.000209089
8.07735e-07
-6.01999e-05
0.000227307
6.0074e-06
-0.000474089
0.000223427
3.39349e-05
0.000201839
-2.42468e-06
-0.000461689
0.000215106
8.58159e-07
-6.45239e-05
0.000233355
6.08132e-06
-0.000481924
0.000229434
4.03204e-05
0.000207561
-2.70573e-06
-0.000474035
0.000221227
8.91472e-07
-6.90367e-05
0.000239485
6.14485e-06
-0.000489488
0.000235666
4.71153e-05
0.000213383
-2.94719e-06
-0.00048601
0.000227454
9.5508e-07
-7.376e-05
0.000245707
6.2417e-06
-0.000496855
0.000241997
5.43274e-05
0.000219308
-3.19794e-06
-0.000497591
0.000233792
1.05349e-06
-7.87628e-05
0.000252003
6.41184e-06
-0.000504122
0.000248193
6.19957e-05
0.00022534
-3.47349e-06
-0.000508735
0.000240243
1.15503e-06
-8.40986e-05
0.000258368
6.63818e-06
-0.000511357
0.000254299
7.01294e-05
0.000231482
-3.77234e-06
-0.000519386
0.00024681
1.23072e-06
-8.97918e-05
0.000264803
6.89139e-06
-0.000518619
0.000260488
7.86902e-05
0.000237736
-4.09473e-06
-0.000529567
0.000253493
1.2686e-06
-9.58558e-05
0.000271311
7.09485e-06
-0.000525914
0.000266813
8.76371e-05
0.000244141
-4.4426e-06
-0.000539569
0.000260297
1.2811e-06
-0.000102319
0.000277892
7.10001e-06
-0.000533092
0.000273227
9.70463e-05
0.000250825
-4.81773e-06
-0.000549887
0.000267224
1.28412e-06
-0.000109228
0.000284547
6.76656e-06
-0.000539849
0.000279701
0.000107029
0.000257991
-5.22026e-06
-0.000560721
0.000274281
1.28567e-06
-0.000116639
0.000291277
6.26905e-06
-0.000546057
0.000286225
0.00011756
0.000265664
-5.64889e-06
-0.000571395
0.00028147
1.23103e-06
-0.000124546
0.000298082
6.05847e-06
-0.000552097
0.000292929
0.000128287
0.000273321
-6.10142e-06
-0.000580951
0.000288786
1.0111e-06
-0.000132827
0.000304961
6.27213e-06
-0.000558559
0.000300197
0.000138793
0.000280495
-6.58032e-06
-0.000589127
0.000296216
6.11582e-07
-0.000141347
0.000311915
6.42581e-06
-0.000565551
0.000308519
0.000148839
0.000287462
-7.09142e-06
-0.00059613
0.000303746
3.67015e-08
-0.000149983
0.000318943
6.15569e-06
-0.000572916
0.00031815
0.000158257
0.000294605
-7.63773e-06
-0.000602129
0.000311372
-5.50172e-07
-0.000158776
0.000326044
6.02598e-06
-0.000580954
0.000327405
0.000167444
0.000302018
-8.21704e-06
-0.000607064
0.000319093
-9.35887e-07
-0.000167978
0.000333217
6.54976e-06
-0.000590062
0.000334769
0.000177152
0.000309624
-8.82631e-06
-0.000610758
0.000326906
-1.16467e-06
-0.000177792
0.000340461
7.24547e-06
-0.000600122
0.000341393
0.000187562
0.000317378
-9.46474e-06
-0.000613054
0.000334802
-1.35858e-06
-0.000188297
0.000347775
7.75238e-06
-0.000610847
0.000348258
0.000198492
0.000325279
-1.01373e-05
-0.000613901
0.000342769
-1.65008e-06
-0.000199444
0.000355161
8.08455e-06
-0.000622136
0.000355538
0.000209782
0.000333331
-1.08619e-05
-0.00061334
0.000350777
-2.02641e-06
-0.000211222
0.000362621
8.37096e-06
-0.000633991
0.000362971
0.000221405
0.000341537
-1.15427e-05
-0.000611477
0.000359132
-2.42438e-06
-0.000223593
0.000370165
8.67095e-06
-0.000646409
0.000370429
0.000233285
0.0003499
-1.15608e-05
-0.000609503
0.000368662
-2.84384e-06
-0.000235913
0.000377802
8.9751e-06
-0.000659378
0.000377916
0.000245793
0.000358422
-1.03624e-05
-0.000609344
0.000380122
-3.28266e-06
-0.000246991
0.000385537
9.2777e-06
-0.000672881
0.000385436
0.000259449
0.000367106
-9.25499e-06
-0.000610589
0.000392885
-3.73715e-06
-0.000256949
0.000393369
9.57368e-06
-0.000686894
0.000392992
0.000273693
0.000375952
-1.09296e-05
-0.000608026
0.000402502
-4.20538e-06
-0.000268598
0.000401296
9.86317e-06
-0.000701393
0.000400582
0.000286402
0.000384963
-1.30802e-05
-0.000601071
0.000410402
-4.67955e-06
-0.000282454
0.000409315
1.01494e-05
-0.000716356
0.000408211
0.000297834
0.00039414
-1.43651e-05
-0.000591446
0.000418719
-5.12016e-06
-0.000297724
0.000417416
1.04341e-05
-0.000731727
0.00041588
0.000308911
0.000403485
-1.50589e-05
-0.000580001
0.000427839
-5.58128e-06
-0.000313826
0.000425589
1.0717e-05
-0.000747507
0.000423592
0.000319839
0.000412999
-1.5644e-05
-0.000566786
0.000437282
-6.08605e-06
-0.00033063
0.00043382
1.09967e-05
-0.000763727
0.00043135
0.000330499
0.000422683
-1.62078e-05
-0.00055192
0.000446813
-6.60425e-06
-0.000348114
0.000442097
1.1274e-05
-0.000780386
0.000439152
0.00034099
0.000432534
-1.67514e-05
-0.000535514
0.000456399
-7.10295e-06
-0.000366279
0.000450407
1.15501e-05
-0.000797462
0.000446995
0.00035155
0.000442548
-1.71764e-05
-0.000517604
0.000466327
-7.58354e-06
-0.000385007
0.000458731
1.18221e-05
-0.000814938
0.000454886
0.000362168
0.000452717
-1.68493e-05
-0.000499167
0.000477578
-8.03851e-06
-0.000403541
0.000467049
1.20775e-05
-0.000832837
0.000462873
0.000372799
0.000463026
-1.50246e-05
-0.000482758
0.000491112
-8.45724e-06
-0.000420373
0.000475343
1.22994e-05
-0.00085124
0.000471034
0.00038399
0.000473456
-1.24676e-05
-0.000468907
0.00050676
-8.82659e-06
-0.000434763
0.000483598
1.24752e-05
-0.000870113
0.00047927
0.000395147
0.000483983
-1.27862e-05
-0.000451547
0.000519047
-9.13582e-06
-0.000449585
0.000491806
1.26062e-05
-0.000889059
0.000487216
0.000403641
0.000494578
-1.41001e-05
-0.000429386
0.000528905
-9.37823e-06
-0.000465841
0.000499961
1.2716e-05
-0.000907425
0.000494578
0.000409516
0.000505201
-1.44379e-05
-0.0004049
0.000539091
-9.54489e-06
-0.00048258
0.000508063
1.28668e-05
-0.00092475
0.000501474
0.000414208
0.000515789
-1.39013e-05
-0.000379141
0.00055024
-9.62275e-06
-0.000498973
0.00051612
1.31703e-05
-0.000941015
0.000508217
0.000418019
0.000526268
-1.30419e-05
-0.000352804
0.000561785
-9.59169e-06
-0.000514778
0.000524145
1.28496e-05
-0.000955726
0.000515108
0.000420846
0.000537008
-1.19588e-05
-0.000328346
0.000573446
-9.43656e-06
-0.000529876
0.000532144
1.01788e-05
-0.000966867
0.000522339
0.000422613
0.000549129
-1.07873e-05
0.000585135
-0.000308361
-9.24104e-06
0.000540034
-0.00054417
4.80765e-06
0.00052984
-0.000972156
0.000563914
0.000422923
1.66986e-06
-1.26489e-06
2.66417e-06
-1.27219e-06
4.98265e-06
2.7653e-06
1.37195e-06
-9.31946e-07
3.11217e-06
5.08226e-06
2.14419e-06
1.8851e-06
-2.40454e-06
8.83886e-06
-1.8129e-06
1.14121e-05
9.74921e-06
2.5389e-06
-2.69864e-06
1.00275e-05
1.26875e-05
7.82372e-06
1.17053e-06
-3.26311e-06
1.55989e-05
-2.04519e-06
1.72028e-05
1.71561e-05
3.51775e-06
-5.85394e-06
1.72881e-05
2.10027e-05
1.38878e-05
4.41336e-07
-3.66746e-06
2.23566e-05
-2.3252e-06
2.24357e-05
2.45485e-05
4.50249e-06
-1.04086e-05
2.45243e-05
3.00478e-05
1.99608e-05
-2.10791e-07
-3.32479e-06
2.90079e-05
-2.55898e-06
2.71861e-05
3.19153e-05
5.32063e-06
-1.59686e-05
3.1694e-05
3.97307e-05
2.60598e-05
-8.17504e-07
-2.20217e-06
3.56596e-05
-2.76467e-06
3.14348e-05
3.92763e-05
6.13094e-06
-2.24894e-05
3.88443e-05
5.00149e-05
3.22106e-05
-1.38717e-06
-3.68365e-07
4.23277e-05
-2.94654e-06
3.51404e-05
4.66116e-05
6.91217e-06
-2.99643e-05
4.59694e-05
6.08148e-05
3.83999e-05
-1.91975e-06
2.06965e-06
4.89946e-05
-3.10254e-06
3.82612e-05
5.38924e-05
7.65003e-06
-3.83798e-05
5.30498e-05
7.20276e-05
4.46023e-05
-2.40747e-06
4.98663e-06
5.56305e-05
-3.22823e-06
4.07659e-05
6.10878e-05
8.33262e-06
-4.77035e-05
6.00629e-05
8.35421e-05
5.07881e-05
-2.85431e-06
8.26025e-06
6.22043e-05
-3.3199e-06
4.26218e-05
6.81677e-05
8.95054e-06
-5.78879e-05
6.69859e-05
9.52435e-05
5.69281e-05
-3.25502e-06
1.17694e-05
6.86895e-05
-3.37628e-06
4.38082e-05
7.51076e-05
9.49753e-06
-6.88742e-05
7.38004e-05
0.000107021
6.29969e-05
-3.6039e-06
1.54036e-05
7.50657e-05
-3.39885e-06
4.43217e-05
8.18922e-05
9.97116e-06
-8.05929e-05
8.04925e-05
0.000118776
6.89752e-05
-3.89382e-06
1.90649e-05
8.13238e-05
-3.39157e-06
4.41766e-05
8.85242e-05
1.03716e-05
-9.29642e-05
8.70615e-05
0.000130431
7.48511e-05
-4.12161e-06
2.26492e-05
8.74767e-05
-3.35722e-06
4.33982e-05
9.50241e-05
1.07004e-05
-0.000105906
9.35231e-05
0.00014193
8.06289e-05
-4.29202e-06
2.60509e-05
9.3541e-05
-3.29526e-06
4.20121e-05
0.000101413
1.09605e-05
-0.000119344
9.98912e-05
0.00015322
8.63235e-05
-4.41162e-06
2.91683e-05
9.9525e-05
-3.20608e-06
4.00405e-05
0.000107703
1.11548e-05
-0.000133208
0.000106173
0.000164256
9.19477e-05
-4.48495e-06
3.19033e-05
0.000105436
-3.09192e-06
3.75065e-05
0.000113903
1.12867e-05
-0.000147429
0.000112373
0.000175
9.75104e-05
-4.51566e-06
3.41612e-05
0.000111284
-2.95509e-06
3.44355e-05
0.000120023
1.13604e-05
-0.000161943
0.000118498
0.000185421
0.000103018
-4.50717e-06
3.58479e-05
0.000117077
-2.79784e-06
3.08548e-05
0.000126072
1.138e-05
-0.000176684
0.000124553
0.000195497
0.000108478
-4.46284e-06
3.68757e-05
0.000122828
-2.62244e-06
2.67927e-05
0.000132062
1.13496e-05
-0.00019159
0.000130545
0.000205211
0.000113897
-4.38604e-06
3.71749e-05
0.00012854
-2.43117e-06
2.22788e-05
0.000138001
1.12731e-05
-0.000206601
0.00013648
0.000214555
0.000119283
-4.2801e-06
3.67114e-05
0.000134202
-2.22624e-06
1.73431e-05
0.000143899
1.11542e-05
-0.000221658
0.000142365
0.000223522
0.000124642
-4.14836e-06
3.54934e-05
0.000139791
-2.0098e-06
1.20161e-05
0.000149765
1.09966e-05
-0.000236713
0.000148208
0.000232111
0.000129984
-3.99414e-06
3.35471e-05
0.000145308
-1.78393e-06
6.32837e-06
0.000155609
1.08035e-05
-0.000251725
0.000154018
0.000240326
0.000135314
-3.82064e-06
3.08927e-05
0.000150774
-1.54579e-06
3.05378e-07
0.000161438
1.05782e-05
-0.000266657
0.000159802
0.000248171
0.000140639
-3.63107e-06
2.75365e-05
0.000156218
-1.28145e-06
-6.04457e-06
0.000167259
1.03234e-05
-0.000281457
0.000165564
0.000255657
0.000145968
-3.42872e-06
2.34748e-05
0.000161663
-1.02164e-06
-1.26888e-05
0.000173082
1.00417e-05
-0.000296081
0.000171296
0.000262795
0.000151305
-3.21653e-06
1.87041e-05
0.00016712
-7.69883e-07
-1.96008e-05
0.000178913
9.73604e-06
-0.000310461
0.000176987
0.000269601
0.000156659
-2.99636e-06
1.32251e-05
0.000172596
-5.28534e-07
-2.67626e-05
0.000184761
9.4079e-06
-0.00032452
0.000182639
0.000276086
0.000162035
-2.76901e-06
7.06335e-06
0.000178076
-2.97422e-07
-3.416e-05
0.000190638
9.05765e-06
-0.000338195
0.000188277
0.000282262
0.000167442
-2.53509e-06
3.26609e-07
0.000183489
-7.68471e-08
-4.17636e-05
0.000196552
8.68606e-06
-0.000351433
0.000193918
0.000288138
0.000172885
-2.29566e-06
-6.85105e-06
0.000188818
1.31522e-07
-4.95057e-05
0.000202504
8.29486e-06
-0.000364171
0.00019955
0.000293734
0.000178364
-2.05357e-06
-1.45352e-05
0.00019427
3.25637e-07
-5.72729e-05
0.000208479
7.88575e-06
-0.000376337
0.000205161
0.000299075
0.000183882
-1.81385e-06
-2.32135e-05
0.000200278
5.02956e-07
-6.49399e-05
0.00021446
7.46034e-06
-0.000387925
0.000210818
0.000304194
0.00018944
-1.58087e-06
-3.34758e-05
0.000206949
6.60314e-07
-7.24428e-05
0.000220448
7.02055e-06
-0.000399113
0.000216696
0.000309125
0.000195044
-1.35901e-06
-4.52438e-05
0.000213653
7.94043e-07
-7.98148e-05
0.000226466
6.56891e-06
-0.000410263
0.000222976
0.000313873
0.000200708
-1.15156e-06
-5.80689e-05
0.000220031
9.00289e-07
-8.71236e-05
0.000232532
6.10931e-06
-0.000421577
0.000229538
0.000318436
0.000206445
-9.60883e-07
-7.15446e-05
0.000226119
9.7523e-07
-9.43889e-05
0.000238651
5.64891e-06
-0.000432797
0.000235986
0.00032283
0.000212264
-7.89223e-07
-8.54598e-05
0.00023212
1.01549e-06
-0.000101568
0.000244824
5.18153e-06
-0.000443521
0.00024223
0.000327057
0.000218171
-6.39105e-07
-9.97639e-05
0.000238202
1.01836e-06
-0.00010861
0.000251053
4.66213e-06
-0.000453527
0.000248366
0.000331069
0.000224173
-5.13232e-07
-0.000114412
0.000244378
9.81064e-07
-0.000115482
0.000257339
4.1324e-06
-0.000462983
0.000254505
0.000334861
0.000230274
-4.1438e-07
-0.000129342
0.00025064
9.00095e-07
-0.000122156
0.000263684
3.5937e-06
-0.000472088
0.000260719
0.00033842
0.000236478
-3.45424e-07
-0.000144482
0.000256986
7.71634e-07
-0.000128604
0.000270088
3.04704e-06
-0.000480879
0.000267013
0.000341733
0.00024279
-3.09337e-07
-0.000159732
0.000263415
5.91809e-07
-0.000134797
0.000276552
2.49374e-06
-0.000489346
0.000273388
0.0003448
0.000249215
-3.09176e-07
-0.000175008
0.000269929
3.56452e-07
-0.000140703
0.000283079
1.8833e-06
-0.000497477
0.000279843
0.000347709
0.000255756
-3.48045e-07
-0.000190225
0.00027653
6.09058e-08
-0.00014629
0.000289669
1.27407e-06
-0.000505355
0.000286378
0.000350816
0.000262421
-4.29011e-07
-0.000205282
0.000283218
-3.00147e-07
-0.000151526
0.000296323
6.73964e-07
-0.000513084
0.000292994
0.00035449
0.000269213
-5.55037e-07
-0.000220061
0.000289995
-7.33218e-07
-0.000156373
0.000303042
8.31373e-08
-0.000520652
0.000299695
0.000358574
0.000276127
-7.2896e-07
-0.000234445
0.000296865
-1.24769e-06
-0.00016079
0.000309828
-4.94485e-07
-0.000527685
0.000306493
0.000362449
0.000283152
-9.5349e-07
-0.00024834
0.000303841
-1.85903e-06
-0.000164724
0.000316681
-1.05926e-06
-0.000533342
0.000313394
0.000365776
0.00029029
-1.2312e-06
-0.000261525
0.000310788
-2.5341e-06
-0.000168158
0.000323603
-1.61108e-06
-0.000536485
0.000320388
0.000368585
0.000297545
-1.56435e-06
-0.000273556
0.000317488
-3.24312e-06
-0.00017111
0.000330592
-2.13724e-06
-0.000537603
0.000327438
0.000371006
0.000304921
-1.95487e-06
-0.000284299
0.000324258
-4.02105e-06
-0.000173565
0.00033765
-2.63051e-06
-0.000538713
0.000334508
0.000373095
0.000312418
-2.40369e-06
-0.00029461
0.000332088
-4.86941e-06
-0.000175506
0.000344775
-3.09032e-06
-0.000540669
0.000341591
0.000374855
0.000320036
-2.91054e-06
-0.000305786
0.000341416
-5.78948e-06
-0.000176918
0.000351967
-3.51255e-06
-0.000543351
0.000348687
0.000376289
0.000327777
-3.47649e-06
-0.000317463
0.000350577
-6.6896e-06
-0.000177873
0.000359224
-3.89174e-06
-0.000546379
0.000355794
0.000377401
0.000335641
-4.10081e-06
-0.000328745
0.000359013
-7.6799e-06
-0.000178328
0.000366546
-4.22233e-06
-0.000549748
0.000362909
0.0003782
0.000343628
-4.78339e-06
-0.00033864
0.000366937
-8.77942e-06
-0.000178213
0.00037393
-4.49903e-06
-0.000553602
0.000370032
0.000378696
0.000351739
-5.52662e-06
-0.000345666
0.000374699
-9.97933e-06
-0.000177454
0.000381378
-4.71626e-06
-0.000558076
0.000377159
0.0003789
0.000359974
-6.33716e-06
-0.000347486