/*--------------------------------*- C++ -*----------------------------------*\
| =========                 |                                                 |
| \\      /  F ield         | OpenFOAM: The Open Source CFD Toolbox           |
|  \\    /   O peration     | Version:  v1912                                 |
|   \\  /    A nd           | Website:  www.openfoam.com                      |
|    \\/     M anipulation  |                                                 |
\*---------------------------------------------------------------------------*/
FoamFile
{
    version     2.0;
    format      ascii;
    class       volVectorField;
    location    "99.2";
    object      U;
}
// * * * * * * * * * * * * * * * * * * * * * * * * * * * * * * * * * * * * * //

dimensions      [0 1 -1 0 0 0 0];


internalField   nonuniform List<vector> 
2528
(
(-0.000455694 -0.00128546 0.00310875)
(0.00303218 4.25292e-05 0.0059975)
(0.000437044 -2.6961e-05 0.00515454)
(-0.00284272 4.47266e-05 0.00407895)
(-0.00126696 -6.33061e-05 0.0107053)
(0.00254729 0.000127581 0.0179836)
(0.00120189 -0.000106335 0.0162139)
(-0.00199179 0.000134192 0.0125332)
(-0.00187275 -0.000956924 0.0191913)
(-0.00169245 0.000217919 0.0299207)
(0.00175001 -0.000198738 0.0277653)
(0.00260238 0.000235696 0.0211714)
(-0.00238281 -0.000428693 0.0277736)
(-0.00538329 0.000344503 0.0417558)
(0.00219458 -0.000340873 0.0392271)
(0.00663322 0.000378591 0.029845)
(-0.00287805 -0.000690443 0.0362882)
(-0.00761588 0.000443817 0.0534744)
(0.00261603 -0.000474764 0.0504517)
(0.00917841 0.000497008 0.0385434)
(-0.00335485 -0.000755174 0.0448225)
(-0.00914876 0.000547078 0.0649963)
(0.00301209 -0.000621623 0.06147)
(0.0109966 0.000623418 0.0472421)
(-0.00381186 -0.000862378 0.0533525)
(-0.0102912 0.000649039 0.0762237)
(0.00338315 -0.00077547 0.0722454)
(0.0123961 0.0007524 0.0558786)
(-0.00424807 -0.000972985 0.0618166)
(-0.0111798 0.000749204 0.0870637)
(0.00373004 -0.000934315 0.08272)
(0.0135132 0.000883182 0.0643809)
(-0.00466229 -0.00107603 0.0701407)
(-0.0118825 0.000848197 0.0974286)
(0.00405315 -0.00109794 0.0928221)
(0.014418 0.00101651 0.0726711)
(-0.00505321 -0.00117504 0.0782508)
(-0.0124339 0.000946428 0.107245)
(0.00435243 -0.00126543 0.102478)
(0.0151503 0.00115235 0.0806718)
(-0.00541975 -0.00126931 0.086084)
(-0.0128394 0.00104459 0.116471)
(0.00462822 -0.00143684 0.111632)
(0.015731 0.00129014 0.0883188)
(-0.00576141 -0.00135531 0.0935975)
(-0.0130849 0.00114034 0.125097)
(0.00488173 -0.00161018 0.120256)
(0.0161697 0.00142978 0.0955717)
(-0.00607851 -0.00143798 0.100772)
(-0.0131646 0.0012309 0.133163)
(0.00511471 -0.0017818 0.128366)
(0.0164653 0.00157174 0.102417)
(-0.00637266 -0.00151912 0.107608)
(-0.0130981 0.0013166 0.140743)
(0.00532946 -0.00195092 0.136017)
(0.0166103 0.00171427 0.108862)
(-0.00664548 -0.00159026 0.114117)
(-0.0129238 0.0013997 0.147889)
(0.00552788 -0.00211865 0.14325)
(0.0166072 0.00185521 0.114937)
(-0.00689888 -0.00164887 0.12033)
(-0.0126772 0.00148181 0.154637)
(0.00571056 -0.00228616 0.150089)
(0.0164787 0.00199517 0.120689)
(-0.00713516 -0.00169813 0.126286)
(-0.0123779 0.00156235 0.161016)
(0.00587796 -0.00245239 0.156558)
(0.0162608 0.00213641 0.126156)
(-0.00735532 -0.00174837 0.132005)
(-0.0120371 0.00164079 0.167056)
(0.00603077 -0.00261608 0.16268)
(0.0159862 0.00228034 0.131365)
(-0.00755987 -0.00180073 0.137506)
(-0.0116639 0.00171735 0.172782)
(0.00616961 -0.00277728 0.168479)
(0.015673 0.00242643 0.136336)
(-0.00774953 -0.00184948 0.142803)
(-0.0112665 0.00179221 0.178221)
(0.00629499 -0.0029359 0.173977)
(0.0153315 0.00257427 0.141086)
(-0.00792504 -0.001896 0.147908)
(-0.0108516 0.00186549 0.183394)
(0.0064074 -0.00309193 0.179197)
(0.0149695 0.00272405 0.145634)
(-0.00808711 -0.0019421 0.152834)
(-0.0104252 0.00193735 0.188321)
(0.00650721 -0.00324536 0.184159)
(0.0145935 0.0028756 0.149995)
(-0.00823642 -0.00198771 0.15759)
(-0.00999221 0.00200813 0.193021)
(0.00659478 -0.00339622 0.188881)
(0.014209 0.00302892 0.154181)
(-0.00837364 -0.00203171 0.162187)
(-0.00955646 0.00207798 0.197509)
(0.00667039 -0.0035445 0.193379)
(0.0138203 0.00318426 0.158206)
(-0.00849944 -0.00207401 0.166639)
(-0.00912048 0.00214676 0.201799)
(0.00673426 -0.00369035 0.197669)
(0.0134305 0.00334164 0.162079)
(-0.00861447 -0.00211533 0.17096)
(-0.00868663 0.00221448 0.205905)
(0.00678664 -0.00383406 0.201762)
(0.0130411 0.0035009 0.165813)
(-0.00871929 -0.00215787 0.175162)
(-0.00825794 0.00228115 0.209837)
(0.00682774 -0.00397566 0.205672)
(0.0126535 0.00366198 0.169416)
(-0.00881438 -0.00220231 0.179256)
(-0.00783852 0.00234701 0.213605)
(0.00685777 -0.00411498 0.209408)
(0.0122693 0.00382502 0.172896)
(-0.00890028 -0.00224841 0.183254)
(-0.0074332 0.0024122 0.217216)
(0.00687694 -0.00425205 0.212984)
(0.0118899 0.00399023 0.176263)
(-0.00897752 -0.00229669 0.187166)
(-0.00704734 0.00247692 0.220673)
(0.00688543 -0.00438725 0.216411)
(0.0115163 0.00415766 0.179522)
(-0.00904661 -0.00234542 0.191006)
(-0.00668627 0.00254173 0.223981)
(0.00688336 -0.00452106 0.219701)
(0.0111487 0.00432729 0.18268)
(-0.00910797 -0.00238997 0.194785)
(-0.00635384 0.00260719 0.22714)
(0.00687079 -0.00465334 0.222867)
(0.0107868 0.00449922 0.185742)
(-0.00916184 -0.00242875 0.19852)
(-0.00605106 0.0026733 0.230153)
(0.00684771 -0.00478328 0.225917)
(0.0104301 0.00467341 0.188715)
(-0.00920832 -0.00246829 0.202221)
(-0.00577617 0.00273917 0.233024)
(0.00681387 -0.00490994 0.228863)
(0.0100784 0.00484973 0.191602)
(-0.00924756 -0.00251726 0.205884)
(-0.00552663 0.0028035 0.235758)
(0.00676887 -0.00503335 0.231711)
(0.00973203 0.00502791 0.194409)
(-0.00927996 -0.00257717 0.209484)
(-0.00530183 0.00286555 0.238364)
(0.00671242 -0.00515527 0.234461)
(0.00939232 0.00520765 0.197141)
(-0.009306 -0.00264029 0.213)
(-0.00510436 0.00292582 0.240849)
(0.00664466 -0.00527774 0.237098)
(0.00906112 0.0053886 0.199801)
(-0.00932629 -0.00269833 0.21642)
(-0.00493861 0.00298535 0.243218)
(0.00656641 -0.0054014 0.2396)
(0.00874065 0.00557047 0.202392)
(-0.00934147 -0.00275087 0.219747)
(-0.0048082 0.00304466 0.245474)
(0.00647879 -0.00552456 0.241949)
(0.00843349 0.00575296 0.204916)
(-0.00935216 -0.00280196 0.222981)
(-0.00471461 0.00310317 0.247621)
(0.00638282 -0.00565342 0.244141)
(0.00814292 0.00593576 0.207374)
(-0.00935884 -0.0028536 0.226128)
(-0.00465789 0.00316032 0.249661)
(0.00628032 -0.00578509 0.246179)
(0.00787323 0.00611862 0.209768)
(-0.00936191 -0.00290567 0.229189)
(-0.00463763 0.00321678 0.251597)
(0.00617187 -0.00590487 0.248069)
(0.00762976 0.00630145 0.212094)
(-0.00936166 -0.00295753 0.232168)
(-0.00465293 0.0032711 0.253434)
(0.00605613 -0.00601011 0.249835)
(0.00741797 0.00648481 0.214353)
(-0.00935837 -0.00300846 0.235067)
(-0.00470332 0.00332319 0.255174)
(0.0059328 -0.00611113 0.2515)
(0.00724119 0.0066708 0.216541)
(-0.00935231 -0.00305847 0.237887)
(-0.00478846 0.00337558 0.256823)
(0.0058009 -0.00622216 0.253072)
(0.00709671 0.00686294 0.218654)
(-0.00934397 -0.0031098 0.240627)
(-0.00490373 0.00343492 0.258382)
(0.00565931 -0.00633723 0.254552)
(0.00697146 0.00706063 0.220691)
(-0.00933416 -0.00316717 0.243288)
(-0.00503403 0.00349422 0.259857)
(0.00550851 -0.00644862 0.25594)
(0.00684297 0.00725506 0.222657)
(-0.00932397 -0.00323518 0.245867)
(-0.00515988 0.00354044 0.261254)
(0.00534889 -0.00655977 0.257231)
(0.00669 0.00743682 0.224567)
(-0.00931481 -0.00331615 0.248365)
(-0.00527525 0.0035764 0.262584)
(0.00518101 -0.00667122 0.25842)
(0.00650676 0.00760658 0.226446)
(-0.00930833 -0.00340395 0.250789)
(-0.00539013 0.00360953 0.263854)
(0.00500539 -0.00678568 0.259498)
(0.00630369 0.00777447 0.228312)
(-0.00930565 -0.00347352 0.253162)
(-0.00551423 0.00365014 0.265067)
(0.00482131 -0.00690676 0.260469)
(0.00609299 0.00794835 0.230174)
(-0.00930565 -0.00349403 0.255526)
(-0.00564722 0.00369456 0.266222)
(0.00462516 -0.00703436 0.261356)
(0.00587895 0.00812661 0.232042)
(-0.00930314 -0.0034627 0.257947)
(-0.0057856 0.00373633 0.267322)
(0.00441357 -0.0071648 0.262188)
(0.00566258 0.00830359 0.23392)
(-0.00928946 -0.00342106 0.260496)
(-0.00592924 0.00377858 0.268368)
(0.00418594 -0.00729481 0.262967)
(0.00545168 0.00847583 0.235816)
(-0.00925561 -0.00343057 0.263193)
(-0.00608165 0.00382085 0.26936)
(0.00394167 -0.00742375 0.263689)
(0.00526654 0.00864213 0.237731)
(-0.0091969 -0.00349176 0.265952)
(-0.00624915 0.00386238 0.270299)
(0.00367973 -0.00755186 0.264349)
(0.00513789 0.00880509 0.239664)
(-0.00911471 -0.00363024 0.26864)
(-0.00643975 0.00390209 0.271187)
(0.00339935 -0.00768034 0.264944)
(0.00509612 0.008971 0.241602)
(-0.00902361 -0.00381666 0.271134)
(-0.00666103 0.0039392 0.272024)
(0.00310053 -0.00781001 0.26547)
(0.0051526 0.00914531 0.243521)
(-0.0089385 -0.00400513 0.27334)
(-0.00691714 0.00397357 0.272808)
(0.00278416 -0.00794097 0.265923)
(0.00528486 0.00934175 0.245384)
(-0.00887219 -0.00414002 0.275264)
(-0.00720643 0.00400579 0.27354)
(0.00245257 -0.00807348 0.266302)
(0.00543391 0.00954925 0.247158)
(-0.00883109 -0.00412635 0.276989)
(-0.00752073 0.00403701 0.274217)
(0.00210972 -0.00820775 0.266605)
(0.00552459 0.00972007 0.248829)
(-0.00879535 -0.00400568 0.278678)
(-0.00785038 0.00406825 0.274837)
(0.0017602 -0.00834382 0.266831)
(0.00552727 0.00984164 0.250427)
(-0.00874855 -0.00385432 0.280489)
(-0.00819095 0.00410002 0.275398)
(0.00140789 -0.00848146 0.266978)
(0.00547931 0.00994932 0.25199)
(-0.00867846 -0.00380757 0.282467)
(-0.00854514 0.00413212 0.275897)
(0.00105473 -0.0086206 0.267047)
(0.00542646 0.0101043 0.253527)
(-0.00857418 -0.00389761 0.284556)
(-0.00892019 0.00416392 0.276331)
(0.000701255 -0.0087614 0.267037)
(0.00536108 0.0103415 0.255032)
(-0.00844803 -0.00404953 0.28663)
(-0.00932164 0.00419442 0.276697)
(0.00034836 -0.00890336 0.266945)
(0.00516714 0.0105492 0.256468)
(-0.00832157 -0.00420676 0.288544)
(-0.00974863 0.0042222 0.276993)
(-2.95519e-06 -0.00904595 0.266771)
(0.00476836 0.0105133 0.257898)
(-0.0081996 -0.00425399 0.290227)
(-0.010193 0.00424634 0.277218)
(-0.000354599 -0.00919012 0.266512)
(0.00449413 0.010293 0.259545)
(-0.00807671 -0.00417679 0.291722)
(-0.0106411 0.00426733 0.277368)
(-0.000713744 -0.0093385 0.266166)
(0.00496794 0.0103904 0.261528)
(-0.00794851 -0.00409756 0.29308)
(-0.0110768 0.00428596 0.277442)
(-0.001088 -0.00949377 0.265731)
(0.00601617 0.0108442 0.26353)
(-0.00780559 -0.00407348 0.294313)
(-0.0114845 0.00430244 0.277435)
(-0.00147908 -0.00965619 0.265201)
(0.00685026 0.0111169 0.265202)
(-0.00764334 -0.00405757 0.295435)
(-0.0118487 0.004317 0.277344)
(-0.00188318 -0.00982384 0.264574)
(0.00723909 0.011079 0.266598)
(-0.00745902 -0.00403318 0.296507)
(-0.0121532 0.00432987 0.277166)
(-0.00229603 -0.00999461 0.263846)
(0.00739651 0.011045 0.267848)
(-0.00725244 -0.00400593 0.297549)
(-0.0123821 0.00434128 0.276899)
(-0.00271593 -0.0101679 0.263012)
(0.00751179 0.0111096 0.269003)
(-0.00702272 -0.00397027 0.298554)
(-0.0125205 0.00435153 0.276541)
(-0.00314274 -0.0103429 0.262069)
(0.00760054 0.011157 0.27007)
(-0.00676735 -0.00392513 0.299518)
(-0.012555 0.0043585 0.276096)
(-0.00357647 -0.0105194 0.261014)
(0.00764486 0.0111844 0.271033)
(-0.0064835 -0.00387435 0.300434)
(-0.0124729 0.00436181 0.275566)
(-0.00401674 -0.0106956 0.259843)
(0.00763668 0.0111967 0.271877)
(-0.00616666 -0.00380482 0.301292)
(-0.0122659 0.00437107 0.274956)
(-0.00446445 -0.0108467 0.258552)
(0.00758412 0.0111845 0.272577)
(-0.00580622 -0.00366691 0.302103)
(-0.0119756 0.00433022 0.274291)
(-0.00492103 -0.0109918 0.257145)
(0.00754679 0.011093 0.273114)
(0.000147423 -1.20372e-05 0.00973508)
(0.000695786 7.32273e-06 0.00832314)
(-0.000209344 -8.10538e-07 0.00929886)
(-0.000647847 3.69664e-06 0.00729115)
(7.06309e-05 -3.06748e-05 0.022641)
(0.000376901 1.36881e-05 0.0221544)
(-0.000253508 -1.29316e-05 0.0234797)
(-0.0002367 9.72688e-06 0.0193208)
(-0.000236292 -5.94032e-05 0.0321385)
(-0.000759928 2.48575e-05 0.0347939)
(-6.63515e-05 -2.73102e-05 0.035423)
(0.00099041 1.30604e-05 0.0304015)
(-0.000521484 -8.83895e-05 0.0416438)
(-0.0016856 3.43435e-05 0.0471323)
(9.95456e-05 -5.68105e-05 0.0470934)
(0.0020041 2.04778e-05 0.0413573)
(-0.000726475 -0.000114942 0.0517201)
(-0.00224292 3.92579e-05 0.0591667)
(0.000186086 -8.68782e-05 0.0587565)
(0.00264397 2.23784e-05 0.0521464)
(-0.000896939 -0.000142781 0.061736)
(-0.00262315 4.26564e-05 0.0707228)
(0.000238204 -0.000121815 0.0700624)
(0.00310338 2.35871e-05 0.0625809)
(-0.00105219 -0.000171526 0.0714402)
(-0.00290069 4.45577e-05 0.0817409)
(0.000274942 -0.000159997 0.0808817)
(0.00345771 2.35121e-05 0.0725777)
(-0.00120117 -0.00020118 0.0807299)
(-0.00310652 4.51117e-05 0.0922045)
(0.000305446 -0.000200712 0.0911639)
(0.00373784 2.23497e-05 0.0820946)
(-0.00134845 -0.000231555 0.089553)
(-0.00325599 4.46628e-05 0.102101)
(0.000334831 -0.000243581 0.100873)
(0.00395819 2.04075e-05 0.0910966)
(-0.0014963 -0.000262816 0.0978777)
(-0.00335785 4.34445e-05 0.111415)
(0.000365942 -0.000288358 0.109979)
(0.00412629 1.79258e-05 0.0995518)
(-0.0016447 -0.000294904 0.105701)
(-0.00341664 4.15231e-05 0.120141)
(0.000399491 -0.000334946 0.118469)
(0.0042459 1.50844e-05 0.107442)
(-0.00179188 -0.000327429 0.113053)
(-0.00343169 3.91433e-05 0.128289)
(0.000434314 -0.00038273 0.126363)
(0.00431708 1.21443e-05 0.114773)
(-0.001937 -0.000360283 0.119989)
(-0.00340035 3.57537e-05 0.135894)
(0.0004692 -0.000431007 0.133708)
(0.00433721 8.95379e-06 0.121572)
(-0.00208139 -0.000393495 0.12655)
(-0.00332489 3.12069e-05 0.143017)
(0.000504423 -0.000479541 0.140564)
(0.00430693 5.28332e-06 0.127893)
(-0.00222758 -0.000427477 0.132732)
(-0.00321385 2.60648e-05 0.149712)
(0.000541415 -0.000528254 0.146964)
(0.00423451 1.30858e-06 0.133791)
(-0.0023778 -0.000462204 0.138529)
(-0.00307763 2.04154e-05 0.156012)
(0.000581527 -0.000577102 0.152936)
(0.00413312 -2.66226e-06 0.139304)
(-0.00253325 -0.000497517 0.143953)
(-0.00292302 1.44043e-05 0.161948)
(0.000625065 -0.000625723 0.158516)
(0.00401369 -6.39932e-06 0.144465)
(-0.0026944 -0.000533577 0.149014)
(-0.00275411 7.85861e-06 0.167552)
(0.000671713 -0.000673761 0.163741)
(0.00388237 -9.96523e-06 0.149313)
(-0.00286105 -0.000570441 0.153723)
(-0.00257453 7.74442e-07 0.17285)
(0.000721112 -0.000721238 0.168642)
(0.00374339 -1.32732e-05 0.15388)
(-0.00303216 -0.00060798 0.158112)
(-0.0023874 -6.7144e-06 0.177868)
(0.000772803 -0.000768014 0.173251)
(0.00360057 -1.61296e-05 0.158193)
(-0.0032062 -0.000646029 0.162221)
(-0.00219536 -1.45769e-05 0.182629)
(0.000826301 -0.000813837 0.177594)
(0.00345704 -1.84109e-05 0.162279)
(-0.00338174 -0.000684522 0.166093)
(-0.00200059 -2.27573e-05 0.187155)
(0.00088137 -0.000858403 0.181695)
(0.00331528 -2.00126e-05 0.166159)
(-0.00355771 -0.000723535 0.169762)
(-0.00180471 -3.11962e-05 0.191465)
(0.000938222 -0.000901669 0.185572)
(0.00317727 -2.08434e-05 0.169853)
(-0.00373332 -0.000763098 0.173256)
(-0.00160891 -3.98931e-05 0.195576)
(0.000997226 -0.000944023 0.189231)
(0.00304455 -2.07839e-05 0.173379)
(-0.00390787 -0.000803197 0.176597)
(-0.00141464 -4.89375e-05 0.199504)
(0.00105816 -0.000985699 0.192681)
(0.00291821 -1.97255e-05 0.176752)
(-0.00408072 -0.000843713 0.179808)
(-0.00122503 -5.84561e-05 0.203259)
(0.00111984 -0.00102619 0.195941)
(0.00279924 -1.7648e-05 0.179988)
(-0.00425136 -0.000884699 0.182908)
(-0.00104624 -6.84767e-05 0.206846)
(0.00118071 -0.00106482 0.199042)
(0.00268934 -1.46274e-05 0.183097)
(-0.00441935 -0.000926111 0.185914)
(-0.000886621 -7.84941e-05 0.210258)
(0.00123965 -0.0011019 0.202012)
(0.00259153 -1.0491e-05 0.186087)
(-0.00458422 -0.000967525 0.18884)
(-0.000751049 -8.72593e-05 0.21349)
(0.00129594 -0.00113748 0.20487)
(0.00250938 -4.73816e-06 0.188962)
(-0.00474592 -0.00100876 0.191699)
(-0.000631387 -9.38907e-05 0.216554)
(0.00134917 -0.00117149 0.207631)
(0.00244443 2.84301e-06 0.191724)
(-0.00490465 -0.00104966 0.194496)
(-0.00050169 -9.97152e-05 0.219495)
(0.00139922 -0.00120419 0.210307)
(0.00239456 1.19052e-05 0.19438)
(-0.00506062 -0.00109034 0.197232)
(-0.000329581 -0.000108622 0.222388)
(0.00144609 -0.00123564 0.212903)
(0.00235568 2.19173e-05 0.196946)
(-0.0052137 -0.0011311 0.199907)
(-0.000103593 -0.000124307 0.225291)
(0.0014899 -0.00126628 0.215418)
(0.00232498 3.27879e-05 0.199435)
(-0.00536351 -0.00117194 0.202525)
(0.000141457 -0.000144856 0.228191)
(0.00153098 -0.00129543 0.21785)
(0.00230186 4.51366e-05 0.201855)
(-0.0055098 -0.00121273 0.205088)
(0.000330898 -0.000162302 0.230968)
(0.00157032 -0.00131583 0.220196)
(0.0022861 5.90958e-05 0.204212)
(-0.00565263 -0.00125302 0.207601)
(0.000405639 -0.000166352 0.233472)
(0.00160914 -0.00135017 0.222454)
(0.00227697 7.43634e-05 0.206514)
(-0.00579222 -0.0012922 0.210063)
(0.000386319 -0.00016417 0.235671)
(0.00163563 -0.00139212 0.224709)
(0.00227469 9.08462e-05 0.208765)
(-0.0059285 -0.00133001 0.212478)
(0.000347789 -0.000170517 0.237671)
(0.00163342 -0.0014031 0.227111)
(0.00228142 0.000108423 0.210968)
(-0.00606107 -0.00136652 0.214847)
(0.000336652 -0.000186672 0.239594)
(0.00161284 -0.00139751 0.229744)
(0.00229988 0.000127686 0.213125)
(-0.00618928 -0.00140192 0.217173)
(0.000346456 -0.000207714 0.241464)
(0.00160488 -0.00140356 0.232323)
(0.00233195 0.000148967 0.215237)
(-0.00631247 -0.00143626 0.219458)
(0.000350105 -0.00022377 0.243244)
(0.00163186 -0.00144796 0.234384)
(0.0023795 0.000171859 0.217305)
(-0.00643021 -0.00146943 0.221703)
(0.000336781 -0.000236879 0.244924)
(0.00167567 -0.00149888 0.236049)
(0.00244685 0.000187569 0.219328)
(-0.00654205 -0.00150119 0.223909)
(0.000307991 -0.000252892 0.246505)
(0.0017084 -0.00151999 0.237672)
(0.00254248 0.000217224 0.221307)
(-0.00664784 -0.00153133 0.226075)
(0.000263809 -0.000269943 0.247987)
(0.00172379 -0.00152427 0.239344)
(0.00261576 0.000271907 0.223305)
(-0.00674851 -0.00156039 0.228202)
(0.000204022 -0.000288172 0.249372)
(0.00173475 -0.00154161 0.240966)
(0.00251179 0.000310208 0.225527)
(-0.00684551 -0.00158977 0.230295)
(0.000128908 -0.000307618 0.25066)
(0.00175291 -0.00155571 0.242482)
(0.00213237 0.00030395 0.228291)
(-0.00693937 -0.0016209 0.23236)
(3.92902e-05 -0.000328439 0.251851)
(0.00178312 -0.0015858 0.243877)
(0.00162341 0.000264967 0.231633)
(-0.00702878 -0.00165269 0.2344)
(-6.41699e-05 -0.000350805 0.252945)
(0.00178982 -0.00165057 0.245371)
(0.00144374 0.000285734 0.234707)
(-0.00711158 -0.00168237 0.236404)
(-0.00018203 -0.000374561 0.253943)
(0.00168865 -0.0016896 0.247614)
(0.0017852 0.000386072 0.236752)
(-0.00718711 -0.00170826 0.238349)
(-0.00031559 -0.000399105 0.254846)
(0.0014359 -0.00164625 0.251405)
(0.0022815 0.000463313 0.238201)
(-0.00725684 -0.00173019 0.240213)
(-0.000465423 -0.000423848 0.255653)
(0.00104171 -0.0015135 0.257074)
(0.00265013 0.000487743 0.239663)
(-0.00732309 -0.00174872 0.24199)
(-0.000629795 -0.000448979 0.256368)
(0.000762168 -0.00152934 0.261753)
(0.00287031 0.000482719 0.241305)
(-0.00738741 -0.00176469 0.24368)
(-0.000804335 -0.000474963 0.25699)
(0.000777891 -0.00171929 0.263114)
(0.00304046 0.000495795 0.243009)
(-0.00745042 -0.00177854 0.245281)
(-0.000984927 -0.000502502 0.257523)
(0.000886177 -0.00182331 0.263227)
(0.00321995 0.000530684 0.244699)
(-0.00751345 -0.00178861 0.246776)
(-0.00116972 -0.00053199 0.257968)
(0.000943645 -0.00182948 0.263685)
(0.00341202 0.000563528 0.246369)
(-0.00758044 -0.00177642 0.248126)
(-0.00135871 -0.000563377 0.258326)
(0.000913582 -0.00179779 0.264709)
(0.00361463 0.000596454 0.248021)
(-0.00765788 -0.0017915 0.249277)
(-0.00155232 -0.000596803 0.258601)
(0.000844751 -0.00181443 0.265868)
(0.0038277 0.000629863 0.249658)
(-0.00767947 -0.00185111 0.250676)
(-0.00174912 -0.000632647 0.258792)
(0.000772057 -0.00186303 0.266969)
(0.00405013 0.000663799 0.25128)
(-0.00754379 -0.00184884 0.253494)
(-0.00194563 -0.000669209 0.258903)
(0.000692827 -0.00190015 0.26802)
(0.00427914 0.000699283 0.252889)
(-0.00728365 -0.00174269 0.258703)
(-0.00213816 -0.00070255 0.258934)
(0.000606045 -0.00193916 0.26903)
(0.00451182 0.000738224 0.254485)
(-0.00697672 -0.0016072 0.265305)
(-0.00232407 -0.000732186 0.258888)
(0.000511327 -0.00197931 0.269997)
(0.00474639 0.000779672 0.256069)
(-0.0069359 -0.00173439 0.267272)
(-0.00250328 -0.000762793 0.258768)
(0.000408466 -0.00202095 0.270921)
(0.0049848 0.000819567 0.257641)
(-0.00705545 -0.00183645 0.266781)
(-0.00267722 -0.000799431 0.258577)
(0.000297164 -0.00206413 0.271803)
(0.00523097 0.00085505 0.259201)
(-0.00715673 -0.0018095 0.266676)
(-0.0028456 -0.000842332 0.258318)
(0.000176959 -0.00210853 0.272643)
(0.00548715 0.000887394 0.260752)
(-0.00715912 -0.00171601 0.267389)
(-0.00300589 -0.000888542 0.257991)
(4.73187e-05 -0.00215384 0.273443)
(0.00575331 0.000919171 0.262295)
(-0.00711212 -0.00166318 0.268265)
(-0.00315477 -0.000936624 0.2576)
(-9.22104e-05 -0.00220019 0.274201)
(0.00602898 0.000950575 0.263831)
(-0.0070624 -0.00162516 0.268996)
(-0.00328989 -0.000986423 0.257148)
(-0.000241959 -0.00224784 0.274916)
(0.00631505 0.00098086 0.265359)
(-0.00701391 -0.0015825 0.269541)
(-0.00340904 -0.00103824 0.256637)
(-0.000402255 -0.00229676 0.275585)
(0.00661287 0.0010109 0.266876)
(-0.00691037 -0.00158117 0.270243)
(-0.00350895 -0.00109247 0.256072)
(-0.000573513 -0.00234679 0.276207)
(0.00692192 0.00104158 0.268379)
(-0.00665032 -0.00156095 0.272217)
(-0.00358483 -0.00114742 0.255457)
(-0.000756071 -0.00239799 0.276779)
(0.00723674 0.00107247 0.269862)
(-0.00621636 -0.00141374 0.276445)
(-0.00363092 -0.00119817 0.254797)
(-0.000950097 -0.00245062 0.277299)
(0.00754933 0.00110483 0.271315)
(-0.00559846 -0.00118685 0.282626)
(-0.00364189 -0.00124256 0.254095)
(-0.00115572 -0.00250477 0.277764)
(0.00785467 0.00113877 0.272728)
(-0.00518629 -0.0012751 0.284783)
(-0.00361517 -0.00128433 0.253354)
(-0.00137299 -0.00255979 0.278167)
(0.00815515 0.00116997 0.274093)
(-0.00502486 -0.00136587 0.284102)
(-0.00355119 -0.00132879 0.252574)
(-0.00160134 -0.00261419 0.278501)
(0.0084624 0.00119274 0.275392)
(-0.0049126 -0.0012871 0.283597)
(-0.00344872 -0.00137708 0.251757)
(-0.00183948 -0.00266612 0.278749)
(0.00880006 0.00119908 0.276591)
(-0.0046931 -0.0011497 0.283939)
(-0.00330338 -0.00142555 0.250904)
(-0.00208621 -0.0027148 0.278894)
(0.0092054 0.00121334 0.277646)
(-0.00440397 -0.00106033 0.284519)
(-0.00310907 -0.00147059 0.250018)
(-0.0023404 -0.00276075 0.278926)
(0.00936575 0.00128558 0.278973)
(-0.00409361 -0.000986579 0.285036)
(-0.00286485 -0.0015242 0.249098)
(-0.00259757 -0.00279859 0.278832)
(0.00861587 0.00133223 0.281696)
(-0.00377204 -0.000912335 0.285436)
(-0.00261271 -0.00158004 0.248079)
(-0.00284275 -0.00281401 0.278552)
(0.00682542 0.00119539 0.28701)
(-0.000132436 -2.0963e-06 0.00815549)
(0.000128291 1.07801e-05 0.00838997)
(8.97119e-05 4.12331e-07 0.00905844)
(7.76311e-05 9.454e-06 0.00716622)
(-0.000525683 -5.75969e-06 0.022286)
(-0.000103477 1.90283e-05 0.0239763)
(0.000395826 -4.56554e-06 0.0251712)
(0.000714405 2.21112e-05 0.0203045)
(-0.000948795 -5.82347e-06 0.0350917)
(-0.000737904 4.31168e-05 0.0388)
(0.000728116 -9.85216e-06 0.0399317)
(0.00174923 4.88399e-05 0.0327198)
(-0.00133393 -1.13597e-05 0.0474058)
(-0.00139369 5.7938e-05 0.0529075)
(0.00101843 -2.3522e-05 0.053927)
(0.00280059 7.47981e-05 0.0445893)
(-0.00167986 -1.05144e-05 0.0594121)
(-0.00193354 7.33236e-05 0.0662987)
(0.0012656 -3.81242e-05 0.067311)
(0.00372832 0.000102568 0.0559459)
(-0.00199844 -8.29969e-06 0.0709758)
(-0.00239863 8.67662e-05 0.0789887)
(0.00148184 -5.58356e-05 0.0800225)
(0.00457169 0.000131942 0.0667785)
(-0.00229244 -3.90622e-06 0.0820277)
(-0.00280133 9.83847e-05 0.0909907)
(0.0016711 -7.62783e-05 0.092057)
(0.00534016 0.00016274 0.0770825)
(-0.00256162 2.579e-06 0.0925281)
(-0.00314394 0.000108068 0.102315)
(0.00183473 -9.94117e-05 0.103435)
(0.00603279 0.000194778 0.0868613)
(-0.00280507 1.06662e-05 0.102444)
(-0.00342579 0.000115883 0.112958)
(0.00197351 -0.000125163 0.114171)
(0.00664576 0.000227802 0.0961153)
(-0.00302216 2.01318e-05 0.111751)
(-0.00364594 0.000121929 0.122904)
(0.00208817 -0.00015368 0.124269)
(0.00717535 0.000261561 0.104838)
(-0.00321293 2.99823e-05 0.120439)
(-0.00380435 0.000126273 0.132148)
(0.00217955 -0.000184752 0.133727)
(0.00761924 0.000295839 0.113022)
(-0.00337807 4.01464e-05 0.128518)
(-0.00390159 0.000129043 0.1407)
(0.00224848 -0.000218088 0.142558)
(0.00797716 0.000330279 0.120668)
(-0.00351879 5.05868e-05 0.136024)
(-0.00393948 0.000129846 0.148595)
(0.0022963 -0.000253347 0.1508)
(0.00825049 0.000364824 0.127788)
(-0.00363749 6.10637e-05 0.143017)
(-0.00392179 0.000128483 0.155893)
(0.00232489 -0.000290159 0.158506)
(0.00844237 0.000398926 0.134406)
(-0.00373719 7.16441e-05 0.149554)
(-0.00385341 0.000125212 0.162663)
(0.00233636 -0.000328632 0.165709)
(0.00855835 0.000432182 0.140565)
(-0.0038206 8.12224e-05 0.155674)
(-0.00374034 0.000120204 0.168951)
(0.00233258 -0.000368497 0.172431)
(0.00860515 0.00046473 0.146314)
(-0.00388991 8.97375e-05 0.16141)
(-0.00358863 0.000113653 0.174797)
(0.00231522 -0.000409494 0.178698)
(0.0085901 0.000496464 0.15169)
(-0.00394695 9.70872e-05 0.166795)
(-0.00340348 0.000105513 0.180239)
(0.00228579 -0.000451461 0.184536)
(0.00852045 0.000527428 0.156721)
(-0.00399336 0.000102769 0.171859)
(-0.00318977 9.58106e-05 0.18531)
(0.00224571 -0.000494167 0.189972)
(0.0084026 0.000557444 0.161435)
(-0.00403055 0.00010665 0.176631)
(-0.00295213 8.46685e-05 0.190045)
(0.00219627 -0.000537433 0.195031)
(0.00824255 0.000586377 0.165857)
(-0.00405976 0.000108507 0.181139)
(-0.00269494 7.21641e-05 0.194473)
(0.00213864 -0.000581074 0.199738)
(0.00804593 0.000614246 0.170013)
(-0.00408206 0.000108209 0.185406)
(-0.0024223 5.8382e-05 0.198624)
(0.00207386 -0.000624918 0.204118)
(0.00781807 0.000641004 0.173926)
(-0.00409837 0.000105708 0.189455)
(-0.002138 4.34125e-05 0.202522)
(0.00200289 -0.000668803 0.208193)
(0.00756391 0.000666653 0.177619)
(-0.0041095 0.000101062 0.193305)
(-0.00184554 2.73554e-05 0.206193)
(0.00192658 -0.000712563 0.211984)
(0.00728796 0.000691276 0.18111)
(-0.00411617 9.44198e-05 0.19697)
(-0.00154812 1.02912e-05 0.209656)
(0.0018457 -0.000756241 0.215509)
(0.00699416 0.000714872 0.18442)
(-0.00411903 8.58441e-05 0.200464)
(-0.00124864 -7.72973e-06 0.212933)
(0.0017608 -0.000800064 0.218789)
(0.00668581 0.000737325 0.187565)
(-0.0041187 7.51047e-05 0.203794)
(-0.00094974 -2.66321e-05 0.216041)
(0.00167195 -0.000843556 0.221845)
(0.00636563 0.000758753 0.190566)
(-0.00411567 6.19592e-05 0.206969)
(-0.000653774 -4.63192e-05 0.218997)
(0.00157874 -0.000885954 0.224706)
(0.00603595 0.000779158 0.193438)
(-0.00411025 4.64978e-05 0.209996)
(-0.000362824 -6.67249e-05 0.221817)
(0.00148078 -0.000927074 0.227402)
(0.00569911 0.000798488 0.196197)
(-0.00410249 2.8727e-05 0.212888)
(-7.86622e-05 -8.78531e-05 0.224516)
(0.00137832 -0.0009671 0.22995)
(0.00535732 0.000816878 0.198855)
(-0.00409232 9.46559e-06 0.215661)
(0.000197181 -0.000109734 0.227109)
(0.00127178 -0.00100628 0.23236)
(0.00501269 0.000834317 0.201423)
(-0.00407964 -1.05095e-05 0.21833)
(0.000463206 -0.0001323 0.229609)
(0.00116126 -0.00104423 0.23464)
(0.00466744 0.000851005 0.20391)
(-0.00406457 -3.16362e-05 0.220906)
(0.000717665 -0.000155248 0.232028)
(0.00104675 -0.00108046 0.236798)
(0.00432342 0.000867001 0.206323)
(-0.00404738 -5.49937e-05 0.223398)
(0.000958372 -0.000178081 0.234372)
(0.000928203 -0.00111494 0.238842)
(0.00398221 0.000882248 0.208671)
(-0.00402827 -8.27088e-05 0.22581)
(0.00118283 -0.000200362 0.236646)
(0.0008056 -0.00114797 0.240781)
(0.00364524 0.000896898 0.210959)
(-0.00400715 -0.000115257 0.228156)
(0.00138865 -0.000221961 0.238851)
(0.000678899 -0.00118037 0.242622)
(0.00331383 0.000911003 0.213193)
(-0.00398391 -0.00015148 0.230448)
(0.00157399 -0.000243125 0.240987)
(0.000547984 -0.00121321 0.244379)
(0.00298924 0.000924569 0.215378)
(-0.00395859 -0.000190178 0.232689)
(0.00173766 -0.000264186 0.243057)
(0.000412555 -0.00124627 0.246067)
(0.00267269 0.000937626 0.217519)
(-0.00393124 -0.000230415 0.234881)
(0.0018787 -0.00028519 0.245066)
(0.000272425 -0.00127808 0.247696)
(0.00236536 0.000950204 0.219621)
(-0.00390187 -0.000271735 0.237026)
(0.00199616 -0.000305923 0.247016)
(0.000127878 -0.00130808 0.249268)
(0.00206843 0.00096225 0.221687)
(-0.00387044 -0.000314065 0.239127)
(0.00208915 -0.000326192 0.248911)
(-2.07493e-05 -0.00133659 0.250779)
(0.00178302 0.00097352 0.223721)
(-0.0038369 -0.00035732 0.241186)
(0.00215687 -0.000345918 0.250755)
(-0.000173549 -0.0013636 0.25223)
(0.00151028 0.00098435 0.225727)
(-0.0038012 -0.000401315 0.243205)
(0.00219861 -0.000365033 0.252551)
(-0.000330691 -0.00138942 0.253624)
(0.00125112 0.000995013 0.227708)
(-0.00376331 -0.00044579 0.245185)
(0.00221367 -0.000383462 0.254303)
(-0.000492221 -0.00141443 0.254965)
(0.00100604 0.00100465 0.22967)
(-0.00372318 -0.000490461 0.247127)
(0.00220142 -0.00040112 0.256012)
(-0.000658184 -0.00143858 0.256254)
(0.000775119 0.00101234 0.231618)
(-0.00368076 -0.000535078 0.24903)
(0.00216123 -0.000417916 0.257683)
(-0.000828682 -0.00146179 0.257495)
(0.000558843 0.00101874 0.233559)
(-0.00363596 -0.000579379 0.250895)
(0.00209253 -0.000433751 0.259316)
(-0.00100386 -0.0014842 0.25869)
(0.000360052 0.00102791 0.235487)
(-0.00358865 -0.000623046 0.252722)
(0.00199476 -0.000448523 0.260914)
(-0.00118396 -0.00150645 0.259843)
(0.000183586 0.00104111 0.237384)
(-0.0035387 -0.000665726 0.25451)
(0.00186747 -0.000462117 0.262476)
(-0.00136958 -0.00152821 0.260959)
(3.25171e-05 0.0010547 0.239238)
(-0.00348599 -0.000707103 0.256256)
(0.00171026 -0.000474386 0.264004)
(-0.00156148 -0.00154679 0.262045)
(-9.34858e-05 0.00106558 0.241054)
(-0.00343044 -0.000746811 0.257961)
(0.00152286 -0.000485233 0.265498)
(-0.00175909 -0.00155869 0.263094)
(-0.000194345 0.00107332 0.242839)
(-0.00337188 -0.000783601 0.259622)
(0.00130517 -0.000494645 0.266955)
(-0.00195823 -0.00156439 0.264066)
(-0.000268479 0.00108035 0.244592)
(-0.00331007 -0.00081651 0.26124)
(0.00105733 -0.000502591 0.268376)
(-0.00215509 -0.00156769 0.26492)
(-0.000314601 0.00108713 0.246313)
(-0.00324479 -0.000847081 0.262814)