/*--------------------------------*- C++ -*----------------------------------*\
| =========                 |                                                 |
| \\      /  F ield         | OpenFOAM: The Open Source CFD Toolbox           |
|  \\    /   O peration     | Version:  v1912                                 |
|   \\  /    A nd           | Website:  www.openfoam.com                      |
|    \\/     M anipulation  |                                                 |
\*---------------------------------------------------------------------------*/
FoamFile
{
    version     2.0;
    format      ascii;
    class       volSymmTensorField;
    location    "99.2";
    object      UPrime2Mean;
}
// * * * * * * * * * * * * * * * * * * * * * * * * * * * * * * * * * * * * * //

dimensions      [0 2 -2 0 0 0 0];


internalField   nonuniform List<symmTensor> 
2000
(
(8.44479e-13 1.29888e-09 -6.23744e-10 1.79482e-05 4.15759e-06 4.23889e-05)
(3.77624e-06 6.75203e-07 -6.56161e-07 1.37353e-07 -2.05056e-07 3.13891e-05)
(7.14969e-07 6.61213e-08 1.75965e-06 6.6272e-09 1.76607e-07 1.09186e-05)
(1.28543e-07 2.72949e-08 7.11735e-07 7.03273e-09 1.9424e-07 8.4151e-06)
(2.35655e-08 1.04251e-08 3.42106e-07 5.55259e-09 1.89568e-07 9.33019e-06)
(6.31588e-14 3.30921e-12 5.77499e-11 5.37942e-09 1.8918e-07 9.52925e-06)
(2.35564e-08 -1.0421e-08 -3.41993e-07 5.5527e-09 1.89576e-07 9.33062e-06)
(1.28455e-07 -2.72776e-08 -7.11413e-07 7.03233e-09 1.94227e-07 8.4147e-06)
(7.14943e-07 -6.61263e-08 -1.75904e-06 6.62727e-09 1.76614e-07 1.09068e-05)
(3.77505e-06 -6.74986e-07 6.50415e-07 1.37308e-07 -2.03958e-07 3.13322e-05)
(8.81007e-13 1.7448e-09 -5.07752e-09 2.43256e-05 -2.4506e-05 0.000156602)
(1.05873e-05 -2.63393e-07 -1.57685e-05 5.06502e-08 1.26232e-06 6.55696e-05)
(1.64986e-06 1.64936e-07 -1.27154e-06 4.47079e-08 3.53706e-07 1.1279e-05)
(4.82161e-07 2.18942e-08 2.36289e-07 3.08682e-08 3.64818e-07 7.41449e-06)
(1.19315e-07 8.37011e-09 2.75211e-07 2.14469e-08 3.61921e-07 9.15087e-06)
(2.76072e-14 -8.22471e-12 -1.1059e-10 2.05794e-08 3.64036e-07 9.61041e-06)
(1.19199e-07 -8.38966e-09 -2.75545e-07 2.14462e-08 3.61925e-07 9.15077e-06)
(4.81882e-07 -2.18895e-08 -2.37499e-07 3.08632e-08 3.64773e-07 7.41275e-06)
(1.64936e-06 -1.64894e-07 1.26597e-06 4.46974e-08 3.53652e-07 1.12527e-05)
(1.05834e-05 2.63063e-07 1.57366e-05 5.06334e-08 1.26114e-06 6.53845e-05)
(7.37729e-13 -5.6755e-10 -1.02982e-08 1.55155e-05 3.90992e-05 0.000379165)
(6.98752e-06 1.17354e-06 -1.69757e-05 4.11232e-07 -1.68154e-06 5.83033e-05)
(2.16557e-06 1.69517e-07 -2.01055e-06 8.12533e-08 -2.58607e-08 5.15517e-06)
(7.72538e-07 3.13871e-09 2.07582e-07 4.77047e-08 6.18694e-08 4.22064e-06)
(1.90499e-07 1.01972e-10 3.10844e-07 3.10422e-08 1.10673e-07 5.14527e-06)
(7.42683e-14 -1.12699e-11 8.79763e-11 2.99469e-08 1.19678e-07 5.41832e-06)
(1.90058e-07 -1.27094e-10 -3.10727e-07 3.10419e-08 1.10685e-07 5.14473e-06)
(7.71756e-07 -3.1454e-09 -2.08958e-07 4.76969e-08 6.18534e-08 4.21953e-06)
(2.16439e-06 -1.69401e-07 2.00292e-06 8.1192e-08 -2.56645e-08 5.13968e-06)
(6.98538e-06 -1.17274e-06 1.69421e-05 4.11109e-07 -1.67834e-06 5.81054e-05)
(5.79378e-13 2.59232e-09 -1.27231e-08 4.40923e-05 -0.000125951 0.000574602)
(4.03123e-06 4.12775e-07 -1.10707e-05 1.79474e-07 -1.40427e-06 3.71056e-05)
(1.91235e-06 1.27049e-07 -2.92244e-07 9.38895e-08 -3.67939e-07 4.97455e-06)
(6.61616e-07 2.18086e-08 6.27327e-07 5.79514e-08 -2.21608e-07 5.69471e-06)
(1.62953e-07 5.6389e-09 4.69038e-07 3.72405e-08 -1.15325e-07 6.05878e-06)
(8.48918e-14 -4.27133e-12 2.66546e-10 3.62114e-08 -1.00897e-07 6.18384e-06)
(1.6249e-07 -5.64675e-09 -4.68446e-07 3.72418e-08 -1.15313e-07 6.05839e-06)
(6.60828e-07 -2.17983e-08 -6.28003e-07 5.79449e-08 -2.21575e-07 5.69468e-06)
(1.91094e-06 -1.26871e-07 2.87193e-07 9.38033e-08 -3.67614e-07 4.97204e-06)
(4.03014e-06 -4.12223e-07 1.10443e-05 1.79386e-07 -1.40114e-06 3.69603e-05)
(4.52662e-13 6.57174e-10 -1.24904e-08 3.41983e-06 -3.15671e-05 0.000685157)
(3.94163e-06 7.23141e-07 -9.2081e-06 2.91481e-07 -2.89888e-06 3.30654e-05)
(1.38498e-06 1.80786e-07 5.98972e-07 1.1884e-07 -6.3454e-07 8.40357e-06)
(4.65564e-07 4.4795e-08 6.96136e-07 6.6931e-08 -3.71196e-07 6.86731e-06)
(1.17266e-07 1.20533e-08 4.70281e-07 4.33948e-08 -2.41778e-07 6.71161e-06)
(7.03192e-14 2.05761e-12 2.85967e-10 4.22981e-08 -2.24368e-07 6.73447e-06)
(1.169e-07 -1.20454e-08 -4.69578e-07 4.3399e-08 -2.41773e-07 6.71153e-06)
(4.6496e-07 -4.47582e-08 -6.96358e-07 6.69289e-08 -3.71153e-07 6.86751e-06)
(1.38376e-06 -1.80471e-07 -6.0136e-07 1.18721e-07 -6.34109e-07 8.40391e-06)
(3.94063e-06 -7.22314e-07 9.18664e-06 2.91308e-07 -2.89429e-06 3.29682e-05)
(2.3479e-13 4.12891e-10 -8.02943e-09 3.5409e-06 -4.12718e-05 0.000618353)
(3.0066e-06 9.27931e-07 -7.02558e-06 4.43962e-07 -3.97585e-06 3.81146e-05)
(9.65675e-07 2.00736e-07 4.44429e-07 1.35762e-07 -8.24777e-07 1.08744e-05)
(3.34358e-07 5.84515e-08 5.25936e-07 7.50072e-08 -4.39927e-07 6.47072e-06)
(8.65788e-08 1.53347e-08 3.79131e-07 4.90185e-08 -3.02535e-07 5.78971e-06)
(5.26116e-14 4.86697e-12 2.29863e-10 4.76886e-08 -2.81871e-07 5.71985e-06)
(8.62982e-08 -1.53186e-08 -3.7853e-07 4.90269e-08 -3.0255e-07 5.78975e-06)
(3.33896e-07 -5.83933e-08 -5.26035e-07 7.50102e-08 -4.39906e-07 6.47058e-06)
(9.64745e-07 -2.0039e-07 -4.45647e-07 1.35617e-07 -8.24317e-07 1.0872e-05)
(3.00584e-06 -9.26856e-07 7.01049e-06 4.4351e-07 -3.97021e-06 3.80474e-05)
(7.7275e-14 2.59058e-10 -2.7725e-09 6.02832e-06 -4.85465e-05 0.000429539)
(2.10829e-06 9.33933e-07 -5.64253e-06 5.69729e-07 -4.55098e-06 4.51204e-05)
(7.16733e-07 2.021e-07 2.25441e-09 1.45722e-07 -1.00142e-06 1.2423e-05)
(2.63888e-07 6.30879e-08 3.1138e-07 8.05734e-08 -4.94067e-07 5.96604e-06)
(7.00845e-08 1.5976e-08 2.71315e-07 5.2256e-08 -3.39099e-07 4.76461e-06)
(3.97139e-14 5.3336e-12 1.62215e-10 5.06901e-08 -3.15067e-07 4.60004e-06)
(6.98596e-08 -1.59564e-08 -2.7088e-07 5.22684e-08 -3.3914e-07 4.76457e-06)
(2.63498e-07 -6.30167e-08 -3.11505e-07 8.05788e-08 -4.94057e-07 5.96518e-06)
(7.16001e-07 -2.01769e-07 -3.24537e-09 1.45569e-07 -1.00086e-06 1.24174e-05)
(2.10788e-06 -9.32899e-07 5.63245e-06 5.69042e-07 -4.54539e-06 4.50685e-05)
(4.04494e-14 -2.311e-11 -3.58259e-11 6.19853e-06 -3.89075e-05 0.00026079)
(1.55392e-06 8.32538e-07 -4.87944e-06 5.9815e-07 -4.73406e-06 5.04616e-05)
(5.80451e-07 1.94168e-07 -3.7512e-07 1.45702e-07 -1.13842e-06 1.41105e-05)
(2.27649e-07 6.21202e-08 1.28226e-07 8.06944e-08 -5.41626e-07 6.20193e-06)
(6.18908e-08 1.47328e-08 1.75058e-07 5.04349e-08 -3.57416e-07 4.52379e-06)
(3.84802e-14 4.5048e-12 1.19005e-10 4.8777e-08 -3.31502e-07 4.26627e-06)
(6.16975e-08 -1.47119e-08 -1.74752e-07 5.04499e-08 -3.5748e-07 4.52342e-06)
(2.27288e-07 -6.2034e-08 -1.28406e-07 8.06996e-08 -5.41613e-07 6.19991e-06)
(5.79836e-07 -1.93855e-07 3.74063e-07 1.45558e-07 -1.1378e-06 1.41018e-05)
(1.55375e-06 -8.31682e-07 4.87256e-06 5.97427e-07 -4.7292e-06 5.04175e-05)
(5.10769e-14 -1.86907e-10 5.97221e-10 4.95626e-06 -2.56281e-05 0.000158299)
(1.21481e-06 7.1441e-07 -4.09076e-06 5.55106e-07 -4.4303e-06 5.0998e-05)
(5.02904e-07 1.75572e-07 -6.22536e-07 1.26293e-07 -1.13921e-06 1.507e-05)
(2.08572e-07 5.59002e-08 -2.59069e-08 6.97208e-08 -5.46359e-07 6.38415e-06)
(5.78011e-08 1.07148e-08 8.54691e-08 4.18599e-08 -3.47572e-07 4.34653e-06)
(5.08917e-14 2.34523e-12 1.05063e-10 4.05035e-08 -3.22207e-07 3.99986e-06)
(5.7621e-08 -1.06946e-08 -8.5231e-08 4.18758e-08 -3.47643e-07 4.34563e-06)
(2.08218e-07 -5.57972e-08 2.57112e-08 6.97254e-08 -5.46349e-07 6.38078e-06)
(5.02364e-07 -1.75271e-07 6.21478e-07 1.26173e-07 -1.13865e-06 1.50589e-05)
(1.21477e-06 -7.13738e-07 4.08607e-06 5.54474e-07 -4.42653e-06 5.09609e-05)
(7.56517e-14 -2.60173e-10 6.96118e-10 3.5488e-06 -1.60104e-05 0.000104715)
(9.30441e-07 5.82765e-07 -3.0833e-06 4.65145e-07 -3.59065e-06 4.46689e-05)
(4.54832e-07 1.45511e-07 -7.89705e-07 8.85165e-08 -9.68837e-07 1.45755e-05)
(1.98214e-07 4.33403e-08 -1.9013e-07 4.52309e-08 -4.74842e-07 6.36025e-06)
(5.53932e-08 3.684e-09 -1.32223e-08 2.69227e-08 -2.93129e-07 4.13759e-06)
(6.61322e-14 -1.04542e-12 8.67764e-11 2.64749e-08 -2.71005e-07 3.693e-06)
(5.52094e-08 -3.6678e-09 1.33949e-08 2.69384e-08 -2.93185e-07 4.13647e-06)
(1.9786e-07 -4.32371e-08 1.89924e-07 4.52401e-08 -4.74868e-07 6.35629e-06)
(4.5436e-07 -1.45235e-07 7.88785e-07 8.84302e-08 -9.68472e-07 1.45643e-05)
(9.30483e-07 -5.82278e-07 3.08043e-06 4.64655e-07 -3.58826e-06 4.464e-05)
(1.05942e-12 -2.2294e-11 -1.2026e-09 6.53835e-08 -7.20091e-07 1.85041e-05)
(2.09627e-06 4.09725e-11 2.97263e-06 5.72831e-10 -7.56514e-10 7.25656e-06)
(1.17377e-06 3.17031e-08 -4.79207e-07 8.6998e-10 -9.84114e-09 3.69499e-06)
(3.64176e-07 1.30428e-08 -7.61913e-07 4.80263e-10 -2.25083e-08 6.89788e-06)
(8.85364e-08 6.50335e-09 -5.76578e-07 4.882e-10 -3.93708e-08 9.90758e-06)
(1.50901e-13 3.82263e-12 -2.98232e-10 5.05154e-10 -4.35678e-08 1.11721e-05)
(8.83503e-08 -6.49658e-09 5.76296e-07 4.88228e-10 -3.93779e-08 9.91102e-06)
(3.6366e-07 -1.30313e-08 7.62066e-07 4.80121e-10 -2.25164e-08 6.90321e-06)
(1.17386e-06 -3.17278e-08 4.82824e-07 8.71294e-10 -9.94496e-09 3.70095e-06)
(2.09642e-06 -4.873e-11 -2.96799e-06 5.72863e-10 -7.18118e-10 7.23977e-06)
(2.07465e-12 4.3114e-10 -5.97969e-09 1.55253e-07 -1.52694e-06 5.84042e-05)
(2.77914e-06 2.01654e-07 6.81055e-06 1.62659e-08 4.72222e-07 2.67528e-05)
(8.95416e-07 1.28378e-07 4.19901e-07 1.89395e-08 8.43335e-08 1.08575e-05)
(2.50487e-07 4.58183e-08 3.62745e-08 9.15489e-09 -7.70039e-08 2.07303e-05)
(5.18816e-08 1.88823e-08 -1.94486e-07 7.36114e-09 -1.39056e-07 2.86963e-05)
(9.8808e-14 7.82933e-12 -8.82316e-12 7.27525e-09 -1.55975e-07 3.17124e-05)
(5.18019e-08 -1.88679e-08 1.9499e-07 7.36077e-09 -1.39088e-07 2.87032e-05)
(2.50145e-07 -4.57829e-08 -3.56978e-08 9.15336e-09 -7.70441e-08 2.07414e-05)
(8.95271e-07 -1.28371e-07 -4.15767e-07 1.89397e-08 8.36977e-08 1.08654e-05)
(2.77766e-06 -2.01622e-07 -6.80112e-06 1.62716e-08 4.71736e-07 2.66726e-05)
(2.48702e-12 4.39775e-10 -1.1303e-08 4.24517e-07 -3.41023e-06 0.000127068)
(1.45233e-06 2.13022e-07 4.96633e-06 4.89845e-08 1.25836e-06 4.76581e-05)
(2.60442e-07 9.6693e-08 5.91676e-07 4.54424e-08 2.10218e-07 9.68638e-06)
(9.48988e-08 2.41748e-08 6.68272e-07 1.73489e-08 -1.63176e-07 1.92209e-05)
(1.80499e-08 8.4331e-09 3.07133e-07 1.28026e-08 -2.38991e-07 2.82288e-05)
(1.11602e-13 -2.81982e-12 5.29814e-10 1.24872e-08 -2.67385e-07 3.18126e-05)
(1.80119e-08 -8.43958e-09 -3.05815e-07 1.28001e-08 -2.39031e-07 2.82369e-05)
(9.47698e-08 -2.41654e-08 -6.67883e-07 1.73419e-08 -1.63189e-07 1.9234e-05)
(2.60356e-07 -9.66634e-08 -5.90685e-07 4.54211e-08 2.09035e-07 9.68886e-06)
(1.45128e-06 -2.12899e-07 -4.96069e-06 4.89877e-08 1.25693e-06 4.75124e-05)
(1.89779e-12 7.42514e-10 -1.24977e-08 6.28917e-07 -4.91767e-06 0.000203595)
(7.33554e-07 1.38155e-07 1.97432e-06 9.32852e-08 1.833e-06 5.22297e-05)
(1.19228e-07 4.20093e-08 2.86886e-07 6.86082e-08 1.54335e-07 6.66566e-06)
(7.61802e-08 2.5183e-09 7.95127e-07 2.19756e-08 -2.72051e-07 1.56743e-05)
(1.6865e-08 -4.06289e-10 4.8183e-07 1.56325e-08 -3.32911e-07 2.47495e-05)
(1.46422e-13 -1.12083e-11 8.54425e-10 1.50835e-08 -3.67621e-07 2.84736e-05)
(1.67827e-08 3.81972e-10 -4.80069e-07 1.56281e-08 -3.32903e-07 2.47579e-05)
(7.60465e-08 -2.53912e-09 -7.9489e-07 2.19631e-08 -2.72013e-07 1.56884e-05)
(1.19146e-07 -4.19994e-08 -2.87852e-07 6.85645e-08 1.52931e-07 6.66911e-06)
(7.33039e-07 -1.38006e-07 -1.97364e-06 9.33017e-08 1.83108e-06 5.20636e-05)
(1.26645e-12 3.05877e-10 -1.07274e-08 4.70338e-07 1.04108e-07 0.000261595)
(4.94586e-07 7.44572e-08 -1.72349e-07 1.3313e-07 1.94554e-06 4.16278e-05)
(9.73029e-08 1.9723e-08 1.77878e-07 7.84635e-08 4.74026e-08 3.56575e-06)
(7.00073e-08 -4.9487e-09 7.35458e-07 2.31126e-08 -3.18343e-07 1.22795e-05)
(1.67997e-08 -3.28723e-09 4.95214e-07 1.59951e-08 -3.60615e-07 2.11468e-05)
(1.60766e-13 -1.37594e-11 9.62789e-10 1.52401e-08 -3.92757e-07 2.48269e-05)
(1.66935e-08 3.25608e-09 -4.93331e-07 1.59891e-08 -3.60528e-07 2.11553e-05)
(6.98558e-08 4.91359e-09 -7.35225e-07 2.30957e-08 -3.1824e-07 1.22944e-05)
(9.71982e-08 -1.9725e-08 -1.79242e-07 7.84097e-08 4.61938e-08 3.57275e-06)
(4.94283e-07 -7.43206e-08 1.69105e-07 1.33175e-07 1.94381e-06 4.14891e-05)
(9.12495e-13 9.54391e-11 -7.35672e-09 6.3004e-07 3.71681e-06 0.000270663)
(3.42973e-07 5.76516e-08 -5.99177e-07 1.51433e-07 1.62867e-06 2.71006e-05)
(8.00485e-08 2.45569e-08 1.47297e-07 8.11664e-08 -1.20221e-09 1.40994e-06)
(5.77196e-08 -3.60814e-09 6.03904e-07 2.3032e-08 -2.90641e-07 9.36186e-06)
(1.42573e-08 -2.79248e-09 4.4145e-07 1.56305e-08 -3.27071e-07 1.79647e-05)
(1.56673e-13 -1.25026e-11 9.29545e-10 1.46109e-08 -3.50979e-07 2.15633e-05)
(1.41524e-08 2.76205e-09 -4.39662e-07 1.56226e-08 -3.26908e-07 1.79735e-05)
(5.75713e-08 3.57133e-09 -6.03642e-07 2.30124e-08 -2.90482e-07 9.37729e-06)
(7.99427e-08 -2.45499e-08 -1.48367e-07 8.11105e-08 -2.12831e-09 1.41804e-06)
(3.42704e-07 -5.7533e-08 5.95454e-07 1.51513e-07 1.62773e-06 2.70049e-05)
(8.23904e-13 4.53468e-11 -3.49038e-09 7.2201e-07 4.10942e-06 0.000206066)
(2.14867e-07 6.60107e-08 -3.55322e-07 1.6011e-07 1.31926e-06 1.7399e-05)
(6.53582e-08 3.45303e-08 1.2437e-07 8.15129e-08 2.18489e-08 4.70137e-07)
(4.5778e-08 -1.32022e-10 4.6755e-07 2.31431e-08 -2.18283e-07 7.32179e-06)
(1.14995e-08 -1.35793e-09 3.74668e-07 1.52333e-08 -2.53179e-07 1.56321e-05)
(1.44321e-13 -9.18216e-12 8.36247e-10 1.38879e-08 -2.66626e-07 1.91578e-05)
(1.14048e-08 1.33239e-09 -3.73069e-07 1.52241e-08 -2.52958e-07 1.56415e-05)
(4.56419e-08 9.97259e-11 -4.67282e-07 2.31219e-08 -2.18102e-07 7.33753e-06)
(6.52607e-08 -3.45088e-08 -1.25121e-07 8.14575e-08 2.11439e-08 4.7701e-07)
(2.14637e-07 -6.59161e-08 3.52776e-07 1.60209e-07 1.31891e-06 1.73366e-05)
(1.02358e-12 3.93507e-11 -1.01257e-09 5.83932e-07 2.65856e-06 0.000119437)
(1.43848e-07 6.61964e-08 -2.35437e-07 1.67483e-07 1.13557e-06 1.27799e-05)
(5.44046e-08 3.98804e-08 1.1015e-07 8.16829e-08 6.73751e-08 6.19413e-07)
(3.64668e-08 2.8936e-09 3.64711e-07 2.34854e-08 -1.39534e-07 6.53043e-06)
(9.40008e-09 2.35719e-11 3.19755e-07 1.47481e-08 -1.67154e-07 1.46364e-05)
(1.33544e-13 -4.67657e-12 7.48045e-10 1.31036e-08 -1.70154e-07 1.81529e-05)
(9.31612e-09 -4.14804e-11 -3.18326e-07 1.47391e-08 -1.66896e-07 1.46464e-05)
(3.63447e-08 -2.91761e-09 -3.64443e-07 2.34637e-08 -1.39359e-07 6.54629e-06)
(5.43118e-08 -3.98513e-08 -1.10712e-07 8.16309e-08 6.68328e-08 6.24437e-07)
(1.43644e-07 -6.61234e-08 2.33681e-07 1.67581e-07 1.13541e-06 1.27369e-05)
(1.56563e-12 3.41834e-11 -1.18526e-10 4.47485e-07 1.30606e-06 5.83031e-05)
(1.06822e-07 5.28129e-08 -2.60436e-07 1.65876e-07 9.61307e-07 9.88858e-06)
(4.46126e-08 3.98288e-08 9.67878e-08 7.99993e-08 8.8036e-08 7.66353e-07)
(2.92341e-08 4.87732e-09 3.05794e-07 2.31411e-08 -9.13205e-08 6.4268e-06)
(7.87515e-09 1.04522e-09 2.83921e-07 1.39066e-08 -1.02847e-07 1.46956e-05)
(1.32702e-13 6.0844e-13 6.97678e-10 1.21111e-08 -9.65287e-08 1.83452e-05)
(7.80104e-09 -1.05305e-09 -2.82574e-07 1.38997e-08 -1.02572e-07 1.47064e-05)
(2.91255e-08 -4.8912e-09 -3.05496e-07 2.31209e-08 -9.11436e-08 6.44292e-06)
(4.45199e-08 -3.98015e-08 -9.72486e-08 7.99577e-08 8.76311e-08 7.70248e-07)
(1.06621e-07 -5.27519e-08 2.58873e-07 1.6596e-07 9.61226e-07 9.85699e-06)
(2.90655e-12 2.84705e-11 1.1346e-10 3.3705e-07 5.50035e-07 2.89022e-05)
(8.31478e-08 3.34737e-08 -2.94718e-07 1.52531e-07 7.23856e-07 6.81026e-06)
(3.53375e-08 3.52581e-08 8.46801e-08 7.409e-08 6.80288e-08 5.35217e-07)
(2.32779e-08 5.32026e-09 2.85903e-07 2.1595e-08 -8.00978e-08 6.76858e-06)
(6.7719e-09 1.44325e-09 2.70144e-07 1.25689e-08 -7.10616e-08 1.57546e-05)
(1.45261e-13 5.49492e-12 6.61509e-10 1.0814e-08 -5.81154e-08 1.97318e-05)
(6.70727e-09 -1.44089e-09 -2.68815e-07 1.25651e-08 -7.07815e-08 1.57667e-05)
(2.31828e-08 -5.326e-09 -2.85551e-07 2.15788e-08 -7.98772e-08 6.78545e-06)
(3.52423e-08 -3.52383e-08 -8.50561e-08 7.40673e-08 6.77792e-08 5.38931e-07)
(8.29481e-08 -3.34286e-08 2.93271e-07 1.52595e-07 7.23799e-07 6.78732e-06)
(3.26185e-13 3.89234e-12 -1.66808e-09 1.15138e-09 -2.57308e-07 7.04513e-05)
(8.38321e-07 3.22107e-09 8.27597e-07 4.98454e-11 1.07379e-08 6.52705e-06)
(3.07496e-07 1.94649e-10 -1.33955e-07 9.3791e-11 -1.00943e-08 4.74172e-06)
(1.20773e-07 -8.07614e-10 -1.7165e-07 6.36022e-11 -1.77955e-09 3.77055e-06)
(3.70171e-08 -5.49207e-10 -1.17518e-07 4.73151e-11 7.14026e-10 3.6094e-06)
(5.19131e-14 -2.0458e-14 -1.40966e-10 6.08738e-11 1.06553e-09 3.63413e-06)
(3.69824e-08 5.49381e-10 1.17375e-07 4.73516e-11 7.1067e-10 3.60947e-06)
(1.20607e-07 8.08034e-10 1.71539e-07 6.35747e-11 -1.78021e-09 3.77088e-06)
(3.07674e-07 -1.97445e-10 1.34754e-07 9.38121e-11 -1.00965e-08 4.74177e-06)
(8.38622e-07 -3.233e-09 -8.24304e-07 4.99218e-11 1.07366e-08 6.52224e-06)
(1.54974e-12 1.29191e-10 -8.43632e-09 1.57577e-08 -1.1591e-06 0.000245371)
(1.99525e-06 6.22971e-08 7.68963e-07 2.39959e-09 -7.03125e-09 4.06323e-06)
(7.03594e-07 3.69706e-08 -1.09651e-06 3.38247e-09 -8.41019e-08 5.32595e-06)
(2.5822e-07 1.16842e-08 -7.08233e-07 1.1079e-09 -3.3482e-08 7.07636e-06)
(7.2682e-08 4.85441e-09 -4.85638e-07 1.01593e-09 -2.94647e-08 8.41429e-06)
(4.0913e-14 3.50069e-12 -1.70947e-10 1.02535e-09 -2.61733e-08 8.69482e-06)
(7.26541e-08 -4.85043e-09 4.85685e-07 1.01634e-09 -2.94654e-08 8.41433e-06)
(2.57896e-07 -1.1674e-08 7.08169e-07 1.10813e-09 -3.35055e-08 7.07712e-06)
(7.0405e-07 -3.69733e-08 1.09828e-06 3.38095e-09 -8.41539e-08 5.32937e-06)
(1.99466e-06 -6.23449e-08 -7.59767e-07 2.40311e-09 -7.2512e-09 4.05107e-06)
(2.10872e-12 3.48962e-10 -1.24956e-08 7.54493e-08 -3.17584e-06 0.000343273)
(1.47394e-06 1.27348e-07 1.86401e-06 1.18114e-08 1.5889e-07 9.32659e-06)
(5.11161e-07 7.2301e-08 -1.03525e-06 1.3723e-08 -1.91222e-07 6.48611e-06)
(1.88578e-07 2.28132e-08 -7.17068e-07 3.44065e-09 -9.6803e-08 8.62717e-06)
(5.06746e-08 9.36327e-09 -4.81609e-07 3.00386e-09 -8.30151e-08 1.00598e-05)
(2.09401e-14 4.61526e-12 -9.6027e-11 2.92661e-09 -7.99628e-08 1.04322e-05)
(5.06993e-08 -9.36147e-09 4.8193e-07 3.00446e-09 -8.30177e-08 1.00597e-05)
(1.88375e-07 -2.27969e-08 7.17092e-07 3.44097e-09 -9.68376e-08 8.62808e-06)
(5.11617e-07 -7.22998e-08 1.03726e-06 1.37099e-08 -1.91381e-07 6.49001e-06)
(1.47331e-06 -1.27432e-07 -1.85332e-06 1.1829e-08 1.5821e-07 9.28801e-06)
(1.7605e-12 3.24256e-10 -1.28352e-08 8.28232e-08 -1.61485e-06 0.000379235)
(8.39346e-07 1.4392e-07 2.17993e-06 2.60981e-08 4.06242e-07 1.77463e-05)
(3.07266e-07 8.40272e-08 -7.82335e-07 2.84343e-08 -3.24042e-07 7.33453e-06)
(1.15792e-07 2.67529e-08 -6.33478e-07 6.82324e-09 -1.91665e-07 8.54269e-06)
(3.08011e-08 1.13418e-08 -4.05302e-07 5.61468e-09 -1.77168e-07 9.65308e-06)
(1.84899e-14 3.66606e-12 -4.15966e-11 5.34799e-09 -1.75697e-07 1.00045e-05)
(3.08484e-08 -1.13467e-08 4.05745e-07 5.61524e-09 -1.77176e-07 9.65294e-06)
(1.15696e-07 -2.6739e-08 6.33523e-07 6.82316e-09 -1.91719e-07 8.5437e-06)
(3.0765e-07 -8.40404e-08 7.84264e-07 2.84035e-08 -3.24304e-07 7.33767e-06)
(8.3908e-07 -1.44032e-07 -2.17113e-06 2.6141e-08 4.05179e-07 1.76831e-05)
(1.23456e-12 2.40494e-10 -1.17772e-08 8.48094e-08 -1.27967e-06 0.000381323)
(4.31366e-07 1.35284e-07 1.88775e-06 4.34494e-08 6.49402e-07 2.54152e-05)
(2.02218e-07 8.26222e-08 -5.40004e-07 4.09505e-08 -4.07438e-07 8.22282e-06)
(7.81837e-08 2.72563e-08 -5.44497e-07 1.02645e-08 -2.37069e-07 7.6361e-06)
(2.12402e-08 1.18834e-08 -3.30445e-07 7.91503e-09 -2.30637e-07 8.28301e-06)
(1.80414e-14 2.7591e-12 -3.62896e-11 7.40767e-09 -2.29632e-07 8.54934e-06)
(2.12893e-08 -1.18938e-08 3.30866e-07 7.91529e-09 -2.30651e-07 8.283e-06)
(7.81429e-08 -2.72476e-08 5.44546e-07 1.02632e-08 -2.37152e-07 7.6371e-06)
(2.02555e-07 -8.2657e-08 5.41827e-07 4.09058e-08 -4.07719e-07 8.22431e-06)
(4.31459e-07 -1.35429e-07 -1.88222e-06 4.3528e-08 6.48125e-07 2.53456e-05)
(7.53967e-13 1.03226e-10 -9.49004e-09 6.92101e-08 2.41897e-07 0.000352155)
(2.47405e-07 1.19479e-07 1.57948e-06 5.84772e-08 8.16531e-07 3.21321e-05)
(1.6085e-07 8.21336e-08 -3.24295e-07 4.91099e-08 -3.98739e-07 9.02809e-06)
(6.22144e-08 2.8523e-08 -4.51425e-07 1.45039e-08 -2.31853e-07 6.27172e-06)
(1.75272e-08 1.29129e-08 -2.64484e-07 1.06604e-08 -2.42139e-07 6.41629e-06)
(1.46392e-14 2.85331e-12 -6.51717e-11 9.82712e-09 -2.4059e-07 6.57933e-06)
(1.75711e-08 -1.29264e-08 2.64787e-07 1.06604e-08 -2.42164e-07 6.41643e-06)
(6.22009e-08 -2.85201e-08 4.5148e-07 1.45008e-08 -2.31978e-07 6.27236e-06)
(1.61168e-07 -8.21871e-08 3.26001e-07 4.90642e-08 -3.99007e-07 9.02677e-06)
(2.47674e-07 -1.19672e-07 -1.57646e-06 5.85988e-08 8.15359e-07 3.20714e-05)
(3.98624e-13 3.22989e-12 -6.29386e-09 6.17476e-08 1.5721e-06 0.000293739)
(1.76391e-07 1.08059e-07 1.38132e-06 6.73774e-08 9.37037e-07 3.82313e-05)
(1.40997e-07 8.25322e-08 -1.19543e-07 5.40292e-08 -2.89196e-07 9.62934e-06)
(5.29304e-08 3.01548e-08 -3.42972e-07 1.96019e-08 -1.80834e-07 5.02255e-06)
(1.55527e-08 1.40848e-08 -1.98708e-07 1.39437e-08 -2.13498e-07 4.68216e-06)
(1.13686e-14 3.85826e-12 -9.1829e-11 1.26306e-08 -2.11477e-07 4.7476e-06)
(1.55893e-08 -1.40993e-08 1.98874e-07 1.39441e-08 -2.13539e-07 4.68232e-06)
(5.29346e-08 -3.01581e-08 3.43032e-07 1.95979e-08 -1.81015e-07 5.0225e-06)
(1.41304e-07 -8.26008e-08 1.21029e-07 5.39946e-08 -2.89497e-07 9.6249e-06)
(1.76703e-07 -1.08285e-07 -1.37956e-06 6.75348e-08 9.3615e-07 3.8182e-05)
(1.91251e-13 -2.63687e-11 -3.2428e-09 5.96171e-08 1.93866e-06 0.00021717)
(1.25867e-07 9.40243e-08 1.13888e-06 7.2435e-08 1.0197e-06 4.26818e-05)
(1.1908e-07 7.98728e-08 6.87319e-08 5.79956e-08 -1.35861e-07 1.06092e-05)
(4.25482e-08 3.04261e-08 -2.2808e-07 2.52154e-08 -1.07496e-07 4.60061e-06)
(1.32046e-08 1.45853e-08 -1.32898e-07 1.74603e-08 -1.61888e-07 3.78871e-06)
(1.30534e-14 5.03918e-12 -8.78499e-11 1.54641e-08 -1.61135e-07 3.7596e-06)
(1.32343e-08 -1.46e-08 1.32969e-07 1.74626e-08 -1.61947e-07 3.78861e-06)
(4.25666e-08 -3.04369e-08 2.28121e-07 2.52131e-08 -1.07721e-07 4.59948e-06)
(1.1936e-07 -7.99544e-08 -6.76053e-08 5.79777e-08 -1.3622e-07 1.06018e-05)
(1.26147e-07 -9.42479e-08 -1.13798e-06 7.26077e-08 1.01908e-06 4.26416e-05)
(1.00789e-13 -1.98017e-11 -1.20305e-09 4.89398e-08 1.35114e-06 0.000145313)
(7.34777e-08 7.18917e-08 7.9544e-07 7.37632e-08 1.00069e-06 4.26153e-05)
(8.95939e-08 7.05544e-08 1.96403e-07 5.92379e-08 2.34194e-09 1.11166e-05)
(3.03511e-08 2.76942e-08 -1.22084e-07 2.93186e-08 -3.12889e-08 4.37917e-06)
(1.01604e-08 1.36298e-08 -7.26795e-08 1.97262e-08 -9.7733e-08 3.17994e-06)
(2.13314e-14 5.10058e-12 -4.6791e-11 1.69291e-08 -1.01306e-07 3.05801e-06)
(1.01858e-08 -1.36456e-08 7.27107e-08 1.97324e-08 -9.77956e-08 3.17938e-06)
(3.038e-08 -2.77127e-08 1.22076e-07 2.93221e-08 -3.15018e-08 4.37677e-06)
(8.98285e-08 -7.06419e-08 -1.9576e-07 5.92358e-08 1.97049e-09 1.11071e-05)
(7.36825e-08 -7.2082e-08 -7.95296e-07 7.39304e-08 1.00026e-06 4.25823e-05)
(6.72484e-14 -1.05374e-11 -3.1894e-10 3.81532e-08 6.41081e-07 9.48526e-05)
(3.11672e-08 4.57693e-08 4.02839e-07 7.23423e-08 8.61497e-07 3.61976e-05)
(5.80188e-08 5.52591e-08 2.41264e-07 5.60597e-08 1.05725e-07 1.04686e-05)
(1.89752e-08 2.19881e-08 -3.94473e-08 2.98055e-08 4.5019e-08 4.09672e-06)
(7.03649e-09 1.12783e-08 -2.30038e-08 1.96763e-08 -2.40743e-08 2.66736e-06)
(2.85604e-14 3.18076e-12 1.14086e-11 1.62886e-08 -3.48127e-08 2.44481e-06)
(7.06079e-09 -1.12972e-08 2.30261e-08 1.96878e-08 -2.41111e-08 2.66656e-06)
(1.90078e-08 -2.20124e-08 3.9379e-08 2.98179e-08 4.48838e-08 4.09376e-06)
(5.81962e-08 -5.53416e-08 -2.41112e-07 5.60696e-08 1.05416e-07 1.0459e-05)
(3.12867e-08 -4.59128e-08 -4.0331e-07 7.24898e-08 8.61176e-07 3.61723e-05)
(2.56471e-13 4.61601e-12 -1.1903e-09 1.26193e-10 -1.93792e-08 9.62188e-06)
(1.86592e-07 -4.20619e-10 2.34763e-07 1.87486e-11 2.14368e-09 2.75837e-06)
(4.41034e-08 -1.8114e-10 -1.32415e-07 2.23898e-11 4.36796e-09 2.90197e-06)
(3.03441e-08 2.07507e-11 -2.68446e-07 1.62232e-11 3.63474e-09 4.76004e-06)
(1.10138e-08 1.11337e-10 -2.26654e-07 1.79499e-11 1.41006e-09 7.10166e-06)
(1.42024e-14 1.37275e-13 -1.41972e-10 2.10511e-11 2.18408e-09 8.16885e-06)
(1.10007e-08 -1.11298e-10 2.26568e-07 1.7962e-11 1.40672e-09 7.10392e-06)
(3.02868e-08 -2.11285e-11 2.68416e-07 1.62212e-11 3.62891e-09 4.7635e-06)
(4.4116e-08 1.79616e-10 1.32973e-07 2.23704e-11 4.36345e-09 2.90537e-06)
(1.86817e-07 4.10303e-10 -2.32963e-07 1.87058e-11 2.15908e-09 2.75395e-06)
(8.63278e-13 5.01448e-11 -3.75474e-09 4.50914e-09 -2.22952e-07 2.38999e-05)
(5.70267e-07 1.49954e-08 7.30276e-07 8.96365e-10 1.07315e-08 1.13317e-05)
(1.52961e-07 6.67876e-09 -7.61126e-07 1.16516e-09 -1.79124e-08 1.02952e-05)
(6.8397e-08 2.90319e-09 -8.75771e-07 3.78244e-10 -3.27167e-08 1.86818e-05)
(2.47652e-08 1.75648e-09 -7.04348e-07 4.52895e-10 -4.47615e-08 2.56366e-05)
(2.05138e-14 1.46846e-12 1.3135e-10 4.54519e-10 -4.50808e-08 2.84492e-05)
(2.47805e-08 -1.75416e-09 7.04953e-07 4.52934e-10 -4.47388e-08 2.56409e-05)
(6.82962e-08 -2.90037e-09 8.76063e-07 3.78254e-10 -3.27475e-08 1.86891e-05)
(1.53033e-07 -6.68099e-09 7.62937e-07 1.16504e-09 -1.80057e-08 1.03051e-05)
(5.70468e-07 -1.50499e-08 -7.24119e-07 8.98094e-10 1.0734e-08 1.13148e-05)
(8.54549e-13 8.2557e-11 -4.70143e-09 1.32649e-08 -4.11292e-07 4.62723e-05)
(4.33815e-07 3.63947e-08 1.54971e-06 4.58415e-09 1.76621e-07 1.88626e-05)
(1.10798e-07 1.39908e-08 -6.76827e-07 5.25456e-09 -4.24245e-09 1.13795e-05)
(3.73137e-08 4.62601e-09 -7.03057e-07 1.17585e-09 -5.35585e-08 2.16491e-05)
(1.43373e-08 2.20523e-09 -6.03657e-07 1.27375e-09 -6.02055e-08 3.01253e-05)
(2.25179e-14 1.22654e-12 5.40872e-10 1.28164e-09 -6.70262e-08 3.36824e-05)
(1.43871e-08 -2.20259e-09 6.05039e-07 1.27368e-09 -6.01302e-08 3.01311e-05)
(3.72785e-08 -4.61907e-09 7.03701e-07 1.17562e-09 -5.35778e-08 2.16589e-05)
(1.1088e-07 -1.39864e-08 6.78763e-07 5.25144e-09 -4.47205e-09 1.13906e-05)
(4.33817e-07 -3.64549e-08 -1.54287e-06 4.59192e-09 1.76521e-07 1.88181e-05)
(6.32021e-13 5.60613e-11 -4.74643e-09 1.89612e-08 -1.54683e-07 7.04186e-05)
(2.43499e-07 5.11014e-08 1.6866e-06 1.37101e-08 4.32758e-07 2.41298e-05)
(5.20714e-08 1.56825e-08 -4.30249e-07 1.23183e-08 -1.52448e-08 9.19565e-06)
(1.21373e-08 4.61875e-09 -3.99818e-07 2.79681e-09 -1.17383e-07 1.94459e-05)
(5.52333e-09 2.08797e-09 -3.78505e-07 2.69896e-09 -1.17156e-07 2.84582e-05)
(3.55745e-14 -1.22323e-12 8.1382e-10 2.70428e-09 -1.31712e-07 3.23049e-05)
(5.57336e-09 -2.08947e-09 3.80322e-07 2.69824e-09 -1.1702e-07 2.84649e-05)
(1.21422e-08 -4.61287e-09 4.00592e-07 2.79556e-09 -1.17366e-07 1.94575e-05)
(5.21338e-08 -1.56757e-08 4.31756e-07 1.23082e-08 -1.56365e-08 9.20597e-06)
(2.43447e-07 -5.11386e-08 -1.68083e-06 1.37264e-08 4.32347e-07 2.40616e-05)
(4.09713e-13 1.98521e-11 -4.3033e-09 2.72083e-08 4.6697e-07 9.22306e-05)
(1.24046e-07 5.28694e-08 1.38678e-06 2.71439e-08 7.19911e-07 2.53393e-05)
(2.23839e-08 1.25358e-08 -2.47972e-07 1.93081e-08 -1.45733e-08 5.66086e-06)
(3.20946e-09 2.94872e-09 -1.86907e-07 3.87998e-09 -1.4735e-07 1.5189e-05)
(2.11117e-09 1.26232e-09 -2.03865e-07 3.34075e-09 -1.34341e-07 2.42446e-05)
(4.78669e-14 -3.30124e-12 9.23728e-10 3.34982e-09 -1.52531e-07 2.81202e-05)
(2.14691e-09 -1.2674e-09 2.05807e-07 3.33907e-09 -1.34141e-07 2.42519e-05)
(3.22153e-09 -2.94696e-09 1.87679e-07 3.87661e-09 -1.47279e-07 1.52019e-05)
(2.24295e-08 -1.25307e-08 2.49019e-07 1.9288e-08 -1.50776e-08 5.67021e-06)
(1.24025e-07 -5.2888e-08 -1.38264e-06 2.7169e-08 7.19118e-07 2.52594e-05)
(2.29069e-13 -1.67398e-11 -3.417e-09 4.72052e-08 1.46605e-06 0.000106192)
(6.49062e-08 4.75888e-08 9.96236e-07 4.16703e-08 8.95239e-07 2.20094e-05)
(1.20097e-08 1.09831e-08 -1.32368e-07 2.48097e-08 -1.63048e-08 2.61666e-06)
(1.2108e-09 2.05271e-09 -8.54109e-08 4.8895e-09 -1.60417e-07 1.11556e-05)
(1.13182e-09 9.47841e-10 -1.1012e-07 3.69565e-09 -1.35085e-07 1.99994e-05)
(5.09389e-14 -4.61324e-12 9.08617e-10 3.74044e-09 -1.53274e-07 2.37881e-05)
(1.15639e-09 -9.55175e-10 1.1198e-07 3.69275e-09 -1.3483e-07 2.00072e-05)
(1.21994e-09 -2.05563e-09 8.61501e-08 4.88281e-09 -1.60293e-07 1.11694e-05)
(1.20477e-08 -1.09817e-08 1.33152e-07 2.47801e-08 -1.68503e-08 2.62499e-06)
(6.49311e-08 -4.7609e-08 -9.93736e-07 4.17052e-08 8.9422e-07 2.19351e-05)
(1.04547e-13 -3.66733e-11 -2.20452e-09 8.04592e-08 2.4542e-06 0.000102387)
(4.12659e-08 4.22854e-08 7.3765e-07 5.1028e-08 9.00773e-07 1.6632e-05)
(9.76074e-09 1.26883e-08 -5.96955e-08 2.82669e-08 9.35469e-09 1.10649e-06)
(9.36528e-10 2.18256e-09 -6.01568e-08 5.99363e-09 -1.47682e-07 8.37542e-06)
(8.08305e-10 1.05768e-09 -7.85884e-08 3.99073e-09 -1.13922e-07 1.68744e-05)
(4.51598e-14 -4.84565e-12 8.19759e-10 4.09371e-09 -1.28955e-07 2.05432e-05)
(8.28574e-10 -1.06522e-09 8.02543e-08 3.98657e-09 -1.1363e-07 1.6883e-05)
(9.44394e-10 -2.18857e-09 6.08716e-08 5.98262e-09 -1.47527e-07 8.38982e-06)
(9.79912e-09 -1.26895e-08 6.03871e-08 2.82314e-08 8.80604e-09 1.11326e-06)
(4.132e-08 -4.23216e-08 -7.36315e-07 5.10753e-08 8.99845e-07 1.65759e-05)
(3.89773e-14 -3.21898e-11 -1.07541e-09 1.08121e-07 2.70616e-06 7.73971e-05)
(3.02574e-08 3.82843e-08 5.7894e-07 5.48158e-08 8.25068e-07 1.26458e-05)
(1.04494e-08 1.57094e-08 -1.28338e-08 3.05016e-08 5.22569e-08 1.06334e-06)
(1.32834e-09 2.82708e-09 -6.60152e-08 7.42955e-09 -1.26967e-07 7.1741e-06)
(7.44822e-10 1.32179e-09 -7.82646e-08 4.48662e-09 -9.17057e-08 1.53974e-05)
(3.6728e-14 -4.32377e-12 7.16964e-10 4.64547e-09 -1.02126e-07 1.90106e-05)
(7.63858e-10 -1.32847e-09 7.97338e-08 4.48115e-09 -9.13966e-08 1.54067e-05)
(1.33763e-09 -2.83489e-09 6.67304e-08 7.41382e-09 -1.26809e-07 7.18872e-06)
(1.04926e-08 -1.57138e-08 1.34886e-08 3.04626e-08 5.17063e-08 1.06837e-06)
(3.03239e-08 -3.83345e-08 -5.78281e-07 5.48731e-08 8.24364e-07 1.26073e-05)
(1.83977e-14 -1.96323e-11 -4.14077e-10 1.05685e-07 2.15009e-06 4.804e-05)
(2.0387e-08 3.25426e-08 4.33081e-07 5.6288e-08 7.4517e-07 1.02263e-05)
(1.10708e-08 1.76611e-08 8.26793e-09 3.17885e-08 7.19976e-08 1.25931e-06)
(1.96604e-09 3.48295e-09 -8.0543e-08 9.17595e-09 -1.30593e-07 6.89496e-06)
(8.30266e-10 1.57334e-09 -9.08551e-08 5.22057e-09 -9.79872e-08 1.52325e-05)
(3.24615e-14 -3.14217e-12 6.34205e-10 5.37906e-09 -1.04063e-07 1.89511e-05)
(8.4802e-10 -1.57859e-09 9.21894e-08 5.21374e-09 -9.76732e-08 1.52427e-05)
(1.9776e-09 -3.49204e-09 8.12931e-08 9.15588e-09 -1.30444e-07 6.90991e-06)