0 	0 	0 	0
0 	1.00343e-35 	-3.36701e-36 	1.84898e-31
5.01672e-05 	7.85924e-07 	-3.54839e-07 	0.0172486
5.01672e-05 	7.85924e-07 	-3.54839e-07 	0.0172486
0.000100334 	4.00537e-07 	-1.06095e-06 	0.0331871
0.000150502 	-2.01819e-07 	-2.17495e-06 	0.0479917
0.000150502 	-2.01819e-07 	-2.17495e-06 	0.0479917
0.000200669 	-6.44392e-07 	-3.68479e-06 	0.0617455
0.000200669 	-6.44392e-07 	-3.68479e-06 	0.0617455
0.000250836 	-9.84076e-07 	-5.60724e-06 	0.0745227
0.000301003 	-1.29607e-06 	-7.93228e-06 	0.0863862
0.000301003 	-1.29607e-06 	-7.93228e-06 	0.0863862
0.000351171 	-1.60578e-06 	-1.06576e-05 	0.0973771
0.000401338 	-1.92056e-06 	-1.37899e-05 	0.107515
0.000451505 	-2.2388e-06 	-1.73517e-05 	0.116812
0.000451505 	-2.2388e-06 	-1.73517e-05 	0.116812
0.000501672 	-2.55405e-06 	-2.13787e-05 	0.125296
0.000551839 	-2.85836e-06 	-2.59081e-05 	0.13301
0.000551839 	-2.85836e-06 	-2.59081e-05 	0.13301
0.000602007 	-3.14455e-06 	-3.09697e-05 	0.140017
0.000602007 	-3.14455e-06 	-3.09697e-05 	0.140017
0.000652174 	-3.40761e-06 	-3.65868e-05 	0.146385
0.000652174 	-3.40761e-06 	-3.65868e-05 	0.146385
0.000702341 	-3.64491e-06 	-4.27804e-05 	0.15219
0.000702341 	-3.64491e-06 	-4.27804e-05 	0.15219
0.000752508 	-3.85568e-06 	-4.95687e-05 	0.1575
0.000802676 	-4.04001e-06 	-5.69686e-05 	0.162369
0.000852843 	-4.19506e-06 	-6.50788e-05 	0.166792
0.000852843 	-4.19506e-06 	-6.50788e-05 	0.166792
0.00090301 	-4.32627e-06 	-7.37716e-05 	0.170877
0.00090301 	-4.32627e-06 	-7.37716e-05 	0.170877
0.000953177 	-4.43512e-06 	-8.29961e-05 	0.174664
0.00100334 	-4.52317e-06 	-9.26996e-05 	0.178188
0.00100334 	-4.52317e-06 	-9.26996e-05 	0.178188
0.00105351 	-4.59207e-06 	-0.000102832 	0.181481
0.00105351 	-4.59207e-06 	-0.000102832 	0.181481
0.00110368 	-4.643e-06 	-0.000113355 	0.184567
0.00115385 	-4.67344e-06 	-0.000124312 	0.187423
0.00120401 	-4.69027e-06 	-0.000135549 	0.190129
0.00120401 	-4.69027e-06 	-0.000135549 	0.190129
0.00130435 	-4.6883e-06 	-0.000158727 	0.195148
0.00130435 	-4.6883e-06 	-0.000158727 	0.195148
0.00135452 	-4.66864e-06 	-0.000170658 	0.197453
0.00135452 	-4.66864e-06 	-0.000170658 	0.197453
0.00140468 	-4.63858e-06 	-0.000182747 	0.199648
0.00145485 	-4.60026e-06 	-0.000194943 	0.201759
0.00145485 	-4.60026e-06 	-0.000194943 	0.201759
0.00150502 	-4.55421e-06 	-0.000207227 	0.203793
0.00150502 	-4.55421e-06 	-0.000207227 	0.203793
0.00155518 	-4.49682e-06 	-0.000219598 	0.205719
0.00155518 	-4.49682e-06 	-0.000219598 	0.205719
0.00160535 	-4.43303e-06 	-0.000231987 	0.207585
0.00160535 	-4.43303e-06 	-0.000231987 	0.207585
0.00165552 	-4.36364e-06 	-0.000244379 	0.209398
0.00165552 	-4.36364e-06 	-0.000244379 	0.209398
0.00170569 	-4.28686e-06 	-0.000256739 	0.211139
0.00170569 	-4.28686e-06 	-0.000256739 	0.211139
0.00175585 	-4.20441e-06 	-0.000269024 	0.212825
0.00175585 	-4.20441e-06 	-0.000269024 	0.212825
0.00180602 	-4.1181e-06 	-0.000281238 	0.214473
0.00180602 	-4.1181e-06 	-0.000281238 	0.214473
0.00185619 	-4.02636e-06 	-0.000293322 	0.216066
0.00185619 	-4.02636e-06 	-0.000293322 	0.216066
0.00190635 	-3.92996e-06 	-0.000305239 	0.217614
0.00190635 	-3.92996e-06 	-0.000305239 	0.217614
0.00195652 	-3.83068e-06 	-0.000317038 	0.219134
0.00195652 	-3.83068e-06 	-0.000317038 	0.219134
0.00200669 	-3.72646e-06 	-0.000328595 	0.220606
0.00200669 	-3.72646e-06 	-0.000328595 	0.220606
0.00205686 	-3.61885e-06 	-0.000339939 	0.222045
0.00210702 	-3.50898e-06 	-0.000351141 	0.223462
0.00210702 	-3.50898e-06 	-0.000351141 	0.223462
0.00215719 	-3.3939e-06 	-0.000361942 	0.22483
0.00220736 	-3.2769e-06 	-0.000372567 	0.226179
0.00225753 	-3.15683e-06 	-0.000382912 	0.2275
0.00225753 	-3.15683e-06 	-0.000382912 	0.2275
0.00230769 	-3.03328e-06 	-0.000392889 	0.228788
0.00230769 	-3.03328e-06 	-0.000392889 	0.228788
0.00235786 	-2.90824e-06 	-0.000402706 	0.230062
0.00235786 	-2.90824e-06 	-0.000402706 	0.230062
0.00240803 	-2.77884e-06 	-0.000412003 	0.231296
0.00240803 	-2.77884e-06 	-0.000412003 	0.231296
0.00245819 	-2.64799e-06 	-0.000421109 	0.232516
0.00245819 	-2.64799e-06 	-0.000421109 	0.232516
0.00250836 	-2.5142e-06 	-0.000429827 	0.233708
0.00250836 	-2.5142e-06 	-0.000429827 	0.233708
0.00255853 	-2.37792e-06 	-0.000438188 	0.234877
0.0026087 	-2.23988e-06 	-0.000446295 	0.23603
0.0026087 	-2.23988e-06 	-0.000446295 	0.23603
0.00265886 	-2.09845e-06 	-0.000453887 	0.23715
0.00270903 	-1.95622e-06 	-0.000461357 	0.238263
0.00270903 	-1.95622e-06 	-0.000461357 	0.238263
0.0027592 	-1.80973e-06 	-0.000468167 	0.239337
0.00280936 	-1.66253e-06 	-0.00047487 	0.240405
0.00280936 	-1.66253e-06 	-0.00047487 	0.240405
0.00285953 	-1.51159e-06 	-0.000481002 	0.24144
0.00285953 	-1.51159e-06 	-0.000481002 	0.24144
0.0029097 	-1.35931e-06 	-0.00048694 	0.242464
0.0029097 	-1.35931e-06 	-0.00048694 	0.242464
0.00295987 	-1.20366e-06 	-0.00049239 	0.24346
0.00295987 	-1.20366e-06 	-0.00049239 	0.24346
0.00301003 	-1.04615e-06 	-0.000497588 	0.244441
0.0030602 	-8.85588e-07 	-0.000502369 	0.245399
0.00311037 	-7.22879e-07 	-0.000506873 	0.24634
0.00311037 	-7.22879e-07 	-0.000506873 	0.24634
0.00316054 	-5.57383e-07 	-0.000511015 	0.247259
0.00316054 	-5.57383e-07 	-0.000511015 	0.247259
0.00326087 	-2.1933e-07 	-0.000518432 	0.249041
0.00326087 	-2.1933e-07 	-0.000518432 	0.249041
0.00331104 	-4.66631e-08 	-0.000521737 	0.249905
0.0033612 	1.28898e-07 	-0.000524741 	0.250747
0.0033612 	1.28898e-07 	-0.000524741 	0.250747
0.00341137 	3.07107e-07 	-0.000527552 	0.251574
0.00341137 	3.07107e-07 	-0.000527552 	0.251574
0.00346154 	4.89329e-07 	-0.000530072 	0.252377
0.00346154 	4.89329e-07 	-0.000530072 	0.252377
0.00351171 	6.7421e-07 	-0.000532458 	0.253169
0.00356187 	8.6494e-07 	-0.000534551 	0.253936
0.00356187 	8.6494e-07 	-0.000534551 	0.253936
0.00361204 	1.05743e-06 	-0.000536574 	0.254695
0.00366221 	1.25741e-06 	-0.000538294 	0.255427
0.00366221 	1.25741e-06 	-0.000538294 	0.255427
0.00371237 	1.45764e-06 	-0.000540004 	0.256157
0.00371237 	1.45764e-06 	-0.000540004 	0.256157
0.00376254 	1.666e-06 	-0.000541394 	0.256856
0.00376254 	1.666e-06 	-0.000541394 	0.256856
0.00381271 	1.87436e-06 	-0.000542783 	0.257555
0.00381271 	1.87436e-06 	-0.000542783 	0.257555
0.00386288 	2.08841e-06 	-0.000543928 	0.258227
0.00391304 	2.30362e-06 	-0.000545023 	0.258893
0.00391304 	2.30362e-06 	-0.000545023 	0.258893
0.00396321 	2.52224e-06 	-0.000545963 	0.25954
0.00401338 	2.74321e-06 	-0.000546796 	0.260175
0.00401338 	2.74321e-06 	-0.000546796 	0.260175
0.00406355 	2.9658e-06 	-0.000547559 	0.260799
0.00406355 	2.9658e-06 	-0.000547559 	0.260799
0.00411371 	3.19192e-06 	-0.000548166 	0.261401
0.00411371 	3.19192e-06 	-0.000548166 	0.261401
0.00421405 	3.64868e-06 	-0.00054919 	0.262573
0.00421405 	3.64868e-06 	-0.00054919 	0.262573
0.00426421 	3.87935e-06 	-0.000549606 	0.263142
0.00426421 	3.87935e-06 	-0.000549606 	0.263142
0.00431438 	4.11246e-06 	-0.000549922 	0.263692
0.00431438 	4.11246e-06 	-0.000549922 	0.263692
0.00436455 	4.347e-06 	-0.00055018 	0.264229
0.00436455 	4.347e-06 	-0.00055018 	0.264229
0.00441472 	4.58223e-06 	-0.00055041 	0.264759
0.00441472 	4.58223e-06 	-0.00055041 	0.264759
0.00446488 	4.81981e-06 	-0.000550545 	0.265264
0.00446488 	4.81981e-06 	-0.000550545 	0.265264
0.00451505 	5.05739e-06 	-0.00055068 	0.265769
0.00451505 	5.05739e-06 	-0.00055068 	0.265769
0.00456522 	5.2966e-06 	-0.000550746 	0.266249
0.00456522 	5.2966e-06 	-0.000550746 	0.266249
0.00461538 	5.53627e-06 	-0.000550792 	0.266722
0.00461538 	5.53627e-06 	-0.000550792 	0.266722
0.00466555 	5.77622e-06 	-0.000550821 	0.267185
0.00471572 	6.01688e-06 	-0.00055081 	0.267625
0.00476589 	6.25753e-06 	-0.000550799 	0.268066
0.00476589 	6.25753e-06 	-0.000550799 	0.268066
0.00486622 	6.73859e-06 	-0.00055073 	0.26889
0.00486622 	6.73859e-06 	-0.00055073 	0.26889
0.00491639 	6.97886e-06 	-0.000550692 	0.269292
0.00496656 	7.21806e-06 	-0.000550654 	0.269668
0.00496656 	7.21806e-06 	-0.000550654 	0.269668
0.00501672 	7.45726e-06 	-0.000550616 	0.270044
0.00506689 	7.69507e-06 	-0.00055059 	0.270403
0.00511706 	7.93173e-06 	-0.000550574 	0.270747
0.00511706 	7.93173e-06 	-0.000550574 	0.270747
0.00521739 	8.40169e-06 	-0.000550577 	0.271407
0.00521739 	8.40169e-06 	-0.000550577 	0.271407
0.00526756 	8.6345e-06 	-0.0005506 	0.271719
0.00526756 	8.6345e-06 	-0.0005506 	0.271719
0.00531773 	8.86652e-06 	-0.000550631 	0.272026
0.00536789 	9.0942e-06 	-0.000550704 	0.272307
0.00536789 	9.0942e-06 	-0.000550704 	0.272307
0.00541806 	9.32188e-06 	-0.000550778 	0.272587
0.00546823 	9.54715e-06 	-0.000550874 	0.272856
0.00551839 	9.76853e-06 	-0.000551005 	0.273106
0.00551839 	9.76853e-06 	-0.000551005 	0.273106
0.00556856 	9.98992e-06 	-0.000551136 	0.273356
0.00556856 	9.98992e-06 	-0.000551136 	0.273356
0.0056689 	1.04211e-05 	-0.000551487 	0.273808
0.0056689 	1.04211e-05 	-0.000551487 	0.273808
0.00571906 	1.0635e-05 	-0.000551675 	0.274028
0.00576923 	1.08428e-05 	-0.000551899 	0.274227
0.00576923 	1.08428e-05 	-0.000551899 	0.274227
0.0058194 	1.10479e-05 	-0.000552139 	0.274417
0.0058194 	1.10479e-05 	-0.000552139 	0.274417
0.00591973 	1.14498e-05 	-0.000552649 	0.274775
0.00591973 	1.14498e-05 	-0.000552649 	0.274775
0.0059699 	1.16441e-05 	-0.000552929 	0.274937
0.0059699 	1.16441e-05 	-0.000552929 	0.274937
0.00602007 	1.18385e-05 	-0.000553209 	0.275098
0.00607023 	1.20228e-05 	-0.000553507 	0.275238
0.0061204 	1.22044e-05 	-0.00055381 	0.275372
0.0061204 	1.22044e-05 	-0.00055381 	0.275372
0.00617057 	1.2386e-05 	-0.000554114 	0.275506
0.00622074 	1.25563e-05 	-0.000554421 	0.27562
0.00622074 	1.25563e-05 	-0.000554421 	0.27562
0.0062709 	1.27232e-05 	-0.00055473 	0.275727
0.00632107 	1.289e-05 	-0.000555039 	0.275835
0.00632107 	1.289e-05 	-0.000555039 	0.275835
0.00637124 	1.30452e-05 	-0.000555339 	0.275925
0.00637124 	1.30452e-05 	-0.000555339 	0.275925
0.0064214 	1.3195e-05 	-0.000555635 	0.276006
0.0064214 	1.3195e-05 	-0.000555635 	0.276006
0.00647157 	1.33448e-05 	-0.000555932 	0.276088
0.00647157 	1.33448e-05 	-0.000555932 	0.276088
0.00652174 	1.34841e-05 	-0.000556196 	0.276156
0.00657191 	1.36146e-05 	-0.000556432 	0.276212
0.00657191 	1.36146e-05 	-0.000556432 	0.276212
0.00662207 	1.37451e-05 	-0.000556669 	0.276269
0.00667224 	1.3868e-05 	-0.000556887 	0.276317
0.00672241 	1.39768e-05 	-0.00055707 	0.276349
0.00672241 	1.39768e-05 	-0.00055707 	0.276349
0.00677258 	1.40856e-05 	-0.000557253 	0.276381
0.00682274 	1.4192e-05 	-0.000557432 	0.27641
0.00682274 	1.4192e-05 	-0.000557432 	0.27641
0.00687291 	1.42765e-05 	-0.000557582 	0.276418
0.00687291 	1.42765e-05 	-0.000557582 	0.276418
0.00692308 	1.4361e-05 	-0.000557732 	0.276426
0.00697324 	1.44455e-05 	-0.000557881 	0.276434
0.00702341 	1.45088e-05 	-0.00055796 	0.276423
0.00707358 	1.45665e-05 	-0.000558021 	0.276407
0.00707358 	1.45665e-05 	-0.000558021 	0.276407
0.00717391 	1.46684e-05 	-0.000558134 	0.276365
0.00717391 	1.46684e-05 	-0.000558134 	0.276365
0.00722408 	1.46941e-05 	-0.000558177 	0.276326
0.00722408 	1.46941e-05 	-0.000558177 	0.276326
0.00727425 	1.47199e-05 	-0.000558221 	0.276286
0.00727425 	1.47199e-05 	-0.000558221 	0.276286
0.00732441 	1.47456e-05 	-0.000558264 	0.276246
0.00732441 	1.47456e-05 	-0.000558264 	0.276246
0.00737458 	1.4734e-05 	-0.000558233 	0.276183
0.00737458 	1.4734e-05 	-0.000558233 	0.276183
0.00742475 	1.47221e-05 	-0.0005582 	0.27612
0.00747492 	1.47101e-05 	-0.000558168 	0.276057
0.00752508 	1.46792e-05 	-0.00055805 	0.275983
0.00752508 	1.46792e-05 	-0.00055805 	0.275983
0.00757525 	1.46292e-05 	-0.000557847 	0.275896
0.00762542 	1.45793e-05 	-0.000557643 	0.27581
0.00767559 	1.4529e-05 	-0.000557439 	0.275723
0.00767559 	1.4529e-05 	-0.000557439 	0.275723
0.00772575 	1.44425e-05 	-0.00055714 	0.275613
0.00777592 	1.4356e-05 	-0.000556842 	0.275502
0.00777592 	1.4356e-05 	-0.000556842 	0.275502
0.00782609 	1.42695e-05 	-0.000556543 	0.275392
0.00787625 	1.41652e-05 	-0.000556147 	0.275269
0.00787625 	1.41652e-05 	-0.000556147 	0.275269
0.00792642 	1.40481e-05 	-0.000555679 	0.275136
0.00797659 	1.39309e-05 	-0.000555212 	0.275003
0.00802676 	1.38087e-05 	-0.000554712 	0.274865
0.00802676 	1.38087e-05 	-0.000554712 	0.274865
0.00807692 	1.36675e-05 	-0.000554093 	0.274709
0.00807692 	1.36675e-05 	-0.000554093 	0.274709
0.00812709 	1.35262e-05 	-0.000553474 	0.274553
0.00817726 	1.3385e-05 	-0.000552854 	0.274398
0.00817726 	1.3385e-05 	-0.000552854 	0.274398
0.00822742 	1.32246e-05 	-0.000552165 	0.274222
0.00827759 	1.30621e-05 	-0.000551469 	0.274043
0.00827759 	1.30621e-05 	-0.000551469 	0.274043
0.00832776 	1.28996e-05 	-0.000550773 	0.273865
0.00832776 	1.28996e-05 	-0.000550773 	0.273865
0.00837793 	1.27253e-05 	-0.000550003 	0.273673
0.00842809 	1.25445e-05 	-0.000549194 	0.273472
0.00842809 	1.25445e-05 	-0.000549194 	0.273472
0.00847826 	1.23637e-05 	-0.000548385 	0.273271
0.00847826 	1.23637e-05 	-0.000548385 	0.273271
0.0085786 	1.19798e-05 	-0.000546606 	0.272838
0.0085786 	1.19798e-05 	-0.000546606 	0.272838
0.00862876 	1.17838e-05 	-0.000545686 	0.272615
0.00867893 	1.15838e-05 	-0.000544732 	0.272385
0.0087291 	1.13752e-05 	-0.000543704 	0.27214
0.00877926 	1.11667e-05 	-0.000542676 	0.271895
0.00882943 	1.09559e-05 	-0.000541623 	0.271644
0.0088796 	1.07376e-05 	-0.000540487 	0.271377
0.0088796 	1.07376e-05 	-0.000540487 	0.271377
0.00892977 	1.05193e-05 	-0.000539352 	0.271109
0.00892977 	1.05193e-05 	-0.000539352 	0.271109
0.00897993 	1.02994e-05 	-0.000538194 	0.270837
0.00897993 	1.02994e-05 	-0.000538194 	0.270837
0.0090301 	1.00737e-05 	-0.000536951 	0.270547
0.00908027 	9.84796e-06 	-0.000535708 	0.270257
0.00908027 	9.84796e-06 	-0.000535708 	0.270257
0.00913043 	9.62098e-06 	-0.000534441 	0.269961
0.0091806 	9.3899e-06 	-0.000533091 	0.269648
0.0091806 	9.3899e-06 	-0.000533091 	0.269648
0.00923077 	9.15883e-06 	-0.000531741 	0.269336
0.00928094 	8.92667e-06 	-0.000530359 	0.269016
0.00928094 	8.92667e-06 	-0.000530359 	0.269016
0.0093311 	8.6921e-06 	-0.000528902 	0.26868
0.00938127 	8.45753e-06 	-0.000527445 	0.268345
0.00938127 	8.45753e-06 	-0.000527445 	0.268345
0.00943144 	8.22212e-06 	-0.00052594 	0.267999
0.00943144 	8.22212e-06 	-0.00052594 	0.267999
0.00948161 	7.98564e-06 	-0.000524375 	0.26764
0.00948161 	7.98564e-06 	-0.000524375 	0.26764
0.00953177 	7.74916e-06 	-0.00052281 	0.267282
0.00953177 	7.74916e-06 	-0.00052281 	0.267282
0.00958194 	7.51233e-06 	-0.000521176 	0.266908
0.00958194 	7.51233e-06 	-0.000521176 	0.266908
0.00963211 	7.27528e-06 	-0.000519501 	0.266526
0.00968227 	7.03824e-06 	-0.000517825 	0.266144
0.00968227 	7.03824e-06 	-0.000517825 	0.266144
0.00973244 	6.80168e-06 	-0.000516054 	0.265742
0.00978261 	6.56522e-06 	-0.000514265 	0.265336
0.00978261 	6.56522e-06 	-0.000514265 	0.265336
0.00983278 	6.32895e-06 	-0.000512462 	0.264927
0.00983278 	6.32895e-06 	-0.000512462 	0.264927
0.00988294 	6.09403e-06 	-0.000510558 	0.264496
0.00993311 	5.85911e-06 	-0.000508653 	0.264066
0.00993311 	5.85911e-06 	-0.000508653 	0.264066
0.00998328 	5.62526e-06 	-0.000506694 	0.263624
0.0100334 	5.39271e-06 	-0.000504669 	0.263169
0.0100836 	5.16015e-06 	-0.000502643 	0.262714
0.0100836 	5.16015e-06 	-0.000502643 	0.262714
0.0101338 	4.93012e-06 	-0.000500515 	0.262237
0.0101839 	4.70064e-06 	-0.000498364 	0.261757
0.0101839 	4.70064e-06 	-0.000498364 	0.261757
0.0102341 	4.47204e-06 	-0.000496181 	0.261269
0.0102341 	4.47204e-06 	-0.000496181 	0.261269
0.0102843 	4.24624e-06 	-0.000493899 	0.260763
0.0103344 	4.02044e-06 	-0.000491616 	0.260256
0.0103344 	4.02044e-06 	-0.000491616 	0.260256
0.0103846 	3.79763e-06 	-0.000489236 	0.25973
0.0103846 	3.79763e-06 	-0.000489236 	0.25973
0.0104348 	3.57606e-06 	-0.000486815 	0.259196
0.0104348 	3.57606e-06 	-0.000486815 	0.259196
0.0104849 	3.35551e-06 	-0.000484363 	0.258657
0.0104849 	3.35551e-06 	-0.000484363 	0.258657
0.0105351 	3.13865e-06 	-0.000481796 	0.258095
0.0105853 	2.92178e-06 	-0.00047923 	0.257534
0.0105853 	2.92178e-06 	-0.00047923 	0.257534
0.0106856 	2.49712e-06 	-0.000473824 	0.256361
0.0106856 	2.49712e-06 	-0.000473824 	0.256361
0.0107358 	2.28738e-06 	-0.000471044 	0.25576
0.010786 	2.08109e-06 	-0.000468161 	0.25514
0.010786 	2.08109e-06 	-0.000468161 	0.25514
0.0108361 	1.87483e-06 	-0.000465276 	0.254521
0.0108863 	1.67428e-06 	-0.000462222 	0.25387
0.0108863 	1.67428e-06 	-0.000462222 	0.25387
0.0109365 	1.47372e-06 	-0.000459167 	0.25322
0.0109365 	1.47372e-06 	-0.000459167 	0.25322
0.0109866 	1.27727e-06 	-0.00045599 	0.252548
0.0110368 	1.08269e-06 	-0.000452756 	0.251865
0.0110368 	1.08269e-06 	-0.000452756 	0.251865
0.011087 	8.90639e-07 	-0.000449445 	0.251169
0.011087 	8.90639e-07 	-0.000449445 	0.251169
0.0111371 	7.02265e-07 	-0.000446022 	0.250453
0.0111873 	5.1499e-07 	-0.000442564 	0.249732
0.0111873 	5.1499e-07 	-0.000442564 	0.249732
0.0112375 	3.33107e-07 	-0.00043894 	0.248981
0.0112876 	1.51224e-07 	-0.000435315 	0.24823
0.0112876 	1.51224e-07 	-0.000435315 	0.24823
0.0113378 	-2.40542e-08 	-0.000431479 	0.247444
0.0113378 	-2.40542e-08 	-0.000431479 	0.247444
0.011388 	-1.9913e-07 	-0.000427637 	0.246657
0.0114381 	-3.68505e-07 	-0.000423599 	0.245838
0.0114381 	-3.68505e-07 	-0.000423599 	0.245838
0.0114883 	-5.3654e-07 	-0.000419514 	0.245012
0.0115385 	-6.99431e-07 	-0.000415237 	0.244156
0.0115385 	-6.99431e-07 	-0.000415237 	0.244156
0.0115886 	-8.59984e-07 	-0.000410872 	0.243286
0.0116388 	-1.01553e-06 	-0.00040631 	0.242388
0.0116388 	-1.01553e-06 	-0.00040631 	0.242388
0.011689 	-1.16778e-06 	-0.000401618 	0.241471
0.0117391 	-1.31512e-06 	-0.000396716 	0.240526
0.0117893 	-1.45851e-06 	-0.000391644 	0.239557
0.0118395 	-1.59726e-06 	-0.000386342 	0.238557
0.0118395 	-1.59726e-06 	-0.000386342 	0.238557
0.0118896 	-1.73209e-06 	-0.000380844 	0.23753
0.0119398 	-1.86257e-06 	-0.000375086 	0.236468
0.0119398 	-1.86257e-06 	-0.000375086 	0.236468
0.01199 	-1.9897e-06 	-0.000369129 	0.235379
0.0120401 	-2.11253e-06 	-0.000362876 	0.234249
0.0120401 	-2.11253e-06 	-0.000362876 	0.234249
0.0120903 	-2.23278e-06 	-0.000356445 	0.233092
0.0120903 	-2.23278e-06 	-0.000356445 	0.233092
0.0121906 	-2.46209e-06 	-0.000342757 	0.230657
0.0121906 	-2.46209e-06 	-0.000342757 	0.230657
0.0122408 	-2.57042e-06 	-0.000335439 	0.229365
0.012291 	-2.67774e-06 	-0.000328044 	0.228061
0.012291 	-2.67774e-06 	-0.000328044 	0.228061
0.0123411 	-2.77867e-06 	-0.00032017 	0.226675
0.0123913 	-2.8784e-06 	-0.000312204 	0.225273
0.0123913 	-2.8784e-06 	-0.000312204 	0.225273
0.0124415 	-2.97304e-06 	-0.000303857 	0.223801
0.0124415 	-2.97304e-06 	-0.000303857 	0.223801
0.0124916 	-3.06509e-06 	-0.00029532 	0.222292
0.0124916 	-3.06509e-06 	-0.00029532 	0.222292
0.0125418 	-3.15351e-06 	-0.000286515 	0.220729
0.012592 	-3.23785e-06 	-0.00027742 	0.219101
0.0126421 	-3.32018e-06 	-0.000268182 	0.217442
0.0126421 	-3.32018e-06 	-0.000268182 	0.217442
0.0126923 	-3.39677e-06 	-0.000258565 	0.215686
0.0127425 	-3.47148e-06 	-0.000248836 	0.213897
0.0127425 	-3.47148e-06 	-0.000248836 	0.213897
0.0127926 	-3.54186e-06 	-0.000238853 	0.21203
0.0128428 	-3.60858e-06 	-0.000228692 	0.210094
0.0128428 	-3.60858e-06 	-0.000228692 	0.210094
0.0129431 	-3.73157e-06 	-0.000207932 	0.206021
0.0129431 	-3.73157e-06 	-0.000207932 	0.206021
0.0129933 	-3.78766e-06 	-0.000197387 	0.203877
0.0130435 	-3.84007e-06 	-0.000186758 	0.201659
0.0130435 	-3.84007e-06 	-0.000186758 	0.201659
0.0131438 	-3.93175e-06 	-0.000165412 	0.196949
0.0131438 	-3.93175e-06 	-0.000165412 	0.196949
0.013194 	-3.97155e-06 	-0.000154764 	0.194465
0.0132441 	-4.00622e-06 	-0.000144211 	0.191872
0.0132441 	-4.00622e-06 	-0.000144211 	0.191872
0.0132943 	-4.0374e-06 	-0.000133746 	0.189203
0.0133445 	-4.06357e-06 	-0.000123431 	0.186425
0.0133445 	-4.06357e-06 	-0.000123431 	0.186425
0.0133946 	-4.08374e-06 	-0.000113357 	0.183515
0.0133946 	-4.08374e-06 	-0.000113357 	0.183515
0.0134448 	-4.09959e-06 	-0.000103476 	0.18051
0.0134448 	-4.09959e-06 	-0.000103476 	0.18051
0.013495 	-4.11066e-06 	-9.3822e-05 	0.177401
0.0135452 	-4.11346e-06 	-8.45939e-05 	0.174113
0.0135452 	-4.11346e-06 	-8.45939e-05 	0.174113
0.0135953 	-4.11049e-06 	-7.56721e-05 	0.170704
0.0135953 	-4.11049e-06 	-7.56721e-05 	0.170704
0.0136455 	-4.10129e-06 	-6.70833e-05 	0.167166
0.0136455 	-4.10129e-06 	-6.70833e-05 	0.167166
0.0136957 	-4.08414e-06 	-5.8925e-05 	0.163463
0.0136957 	-4.08414e-06 	-5.8925e-05 	0.163463
0.0137458 	-4.05734e-06 	-5.13076e-05 	0.15955
0.013796 	-4.02299e-06 	-4.41342e-05 	0.155464
0.013796 	-4.02299e-06 	-4.41342e-05 	0.155464
0.0138462 	-3.9807e-06 	-3.74347e-05 	0.151193
0.0138462 	-3.9807e-06 	-3.74347e-05 	0.151193
0.0138963 	-3.93006e-06 	-3.124e-05 	0.146719
0.0139465 	-3.8676e-06 	-2.57396e-05 	0.141956
0.0139465 	-3.8676e-06 	-2.57396e-05 	0.141956
0.0139967 	-3.7952e-06 	-2.07923e-05 	0.136945
0.0139967 	-3.7952e-06 	-2.07923e-05 	0.136945
0.0140468 	-3.71241e-06 	-1.63975e-05 	0.131674
0.0140468 	-3.71241e-06 	-1.63975e-05 	0.131674
0.014097 	-3.61827e-06 	-1.25637e-05 	0.12612
0.0141472 	-3.51136e-06 	-9.29121e-06 	0.12026
0.0141472 	-3.51136e-06 	-9.29121e-06 	0.12026
0.0141973 	-3.38965e-06 	-6.56655e-06 	0.114068
0.0142475 	-3.24829e-06 	-4.43326e-06 	0.107445
0.0142977 	-3.09003e-06 	-2.76111e-06 	0.100407
0.0142977 	-3.09003e-06 	-2.76111e-06 	0.100407
0.0143478 	-2.91776e-06 	-1.50638e-06 	0.0929412
0.014398 	-2.73575e-06 	-6.28948e-07 	0.0850671
0.014398 	-2.73575e-06 	-6.28948e-07 	0.0850671
0.0144482 	-2.54881e-06 	-7.75443e-08 	0.0768423
0.0144983 	-2.36164e-06 	2.11188e-07 	0.0683713
0.0144983 	-2.36164e-06 	2.11188e-07 	0.0683713
0.0145485 	-2.17826e-06 	3.08502e-07 	0.0598049
0.0145485 	-2.17826e-06 	3.08502e-07 	0.0598049
0.0145987 	-2.00056e-06 	2.86885e-07 	0.0513248
0.0146488 	-1.82653e-06 	2.11179e-07 	0.0431138
0.014699 	-1.64876e-06 	1.30289e-07 	0.0353216
0.014699 	-1.64876e-06 	1.30289e-07 	0.0353216
0.0147492 	-1.45257e-06 	7.30494e-08 	0.0280443
0.0147993 	-1.21087e-06 	4.76974e-08 	0.0213267
0.0147993 	-1.21087e-06 	4.76974e-08 	0.0213267
0.0148495 	-8.70214e-07 	5.008e-08 	0.0151786
0.0148495 	-8.70214e-07 	5.008e-08 	0.0151786
0.0148997 	-4.08329e-07 	5.03594e-08 	0.00959144
0.0148997 	-4.08329e-07 	5.03594e-08 	0.00959144
0.0149498 	-9.88425e-09 	3.55346e-08 	0.00454684
0.0149498 	-9.88425e-09 	3.55346e-08 	0.00454684
0.015 	0 	0 	0
0.015 	0 	0 	0
