-0.0075 	373
-0.00715932 	355.595
-0.00676191 	352.816
-0.00629832 	351.747
-0.00575752 	351.117
-0.00512667 	350.641
-0.00439077 	350.234
-0.00353231 	349.86
-0.00253089 	349.498
-0.00136271 	349.126
0 	348.725
0.00136271 	348.296
0.00253089 	347.855
0.00353231 	347.416
0.00439077 	346.965
0.00512667 	346.466
0.00575752 	345.846
0.00629832 	344.932
0.00676191 	342.962
0.00715932 	333.534
0.0075 	313
