/*--------------------------------*- C++ -*----------------------------------*\
| =========                 |                                                 |
| \\      /  F ield         | OpenFOAM: The Open Source CFD Toolbox           |
|  \\    /   O peration     | Version:  v1912                                 |
|   \\  /    A nd           | Website:  www.openfoam.com                      |
|    \\/     M anipulation  |                                                 |
\*---------------------------------------------------------------------------*/
FoamFile
{
    version     2.0;
    format      ascii;
    class       volScalarField;
    location    "96.4";
    object      alphat;
}
// * * * * * * * * * * * * * * * * * * * * * * * * * * * * * * * * * * * * * //

dimensions      [1 -1 -1 0 0 0 0];


internalField   nonuniform List<scalar> 
2528
(
3.00551e-09
7.15015e-09
6.06417e-09
4.87551e-09
9.23381e-09
1.77561e-08
1.6576e-08
9.76386e-09
1.35346e-07
2.3927e-07
2.30216e-07
1.16428e-07
9.82533e-07
1.71566e-06
1.6377e-06
8.33003e-07
4.21331e-06
7.29135e-06
6.85979e-06
3.57897e-06
1.29492e-05
2.2111e-05
2.04655e-05
1.10693e-05
3.15887e-05
5.29027e-05
4.82129e-05
2.72441e-05
6.48896e-05
0.000106046
9.53741e-05
5.65854e-05
0.000116634
0.000185458
0.000165043
0.000103029
0.000188615
0.000291568
0.000257386
0.000168957
0.000280469
0.000421819
0.000370091
0.000254744
0.000390172
0.000571938
0.000499467
0.000358993
0.000511256
0.000737285
0.000627311
0.00047917
0.000630618
0.000908897
0.000758052
0.000612237
0.000758442
0.00107315
0.000894128
0.000755387
0.000892924
0.00124264
0.00103556
0.000899279
0.00103376
0.00141625
0.00118155
0.00103951
0.00118085
0.00159269
0.0013312
0.00118425
0.00133402
0.0017707
0.00148351
0.00133281
0.00149301
0.00194922
0.00163756
0.00148453
0.00165743
0.00212739
0.00179253
0.00163881
0.00182695
0.00230457
0.00194773
0.0017952
0.00200126
0.00248018
0.00210264
0.00195338
0.00217987
0.00265293
0.00225688
0.0021132
0.00236074
0.00282271
0.00240994
0.00227455
0.00254138
0.00298954
0.00256014
0.00243626
0.00272116
0.00315329
0.00270605
0.00259641
0.00289816
0.00331386
0.00284648
0.00275639
0.00306937
0.00347113
0.00298042
0.00291656
0.00323016
0.00362506
0.00310843
0.0030771
0.00337594
0.00377558
0.00323337
0.00323805
0.00350844
0.00392263
0.00335966
0.00339914
0.0036413
0.00406611
0.00349074
0.00355942
0.00379303
0.00420589
0.00362656
0.00371696
0.00397055
0.00434193
0.00376409
0.0038691
0.00416624
0.00447456
0.00390085
0.00401348
0.00436993
0.00460486
0.00403689
0.00414975
0.00457576
0.00473495
0.00417428
0.00428091
0.00478096
0.00486772
0.00431694
0.00441333
0.00498476
0.00500568
0.00447217
0.00455444
0.0051878
0.00514894
0.00464919
0.00470882
0.00539058
0.00529382
0.00486167
0.00487613
0.00559208
0.00543208
0.00513854
0.00505429
0.00578939
0.00555045
0.00548653
0.00524513
0.00597862
0.00563651
0.00584781
0.00545575
0.00615696
0.00569223
0.00597664
0.00569124
0.00632635
0.0057374
0.00610238
0.00594909
0.00649753
0.005792
0.00622901
0.0062181
0.00668819
0.00586359
0.00635614
0.00646221
0.00691372
0.00595222
0.00648277
0.00661461
0.00718166
0.00606122
0.0066082
0.00665449
0.00748107
0.00620121
0.00673201
0.00665208
0.00772931
0.0063748
0.00685394
0.00666847
0.00782818
0.00658484
0.00697385
0.00671277
0.00790902
0.00687058
0.00709182
0.00677173
0.00796997
0.00718616
0.00720824
0.00683535
0.00800904
0.00719694
0.00732377
0.00690237
0.00802484
0.00719351
0.00743914
0.00697308
0.00802434
0.00718908
0.00755524
0.00704727
0.00801037
0.00719091
0.00767318
0.00712543
0.00798064
0.00720596
0.00779424
0.0072096
0.00793278
0.00723825
0.00791993
0.00730608
0.00730155
0.00728905
0.0080519
0.00742826
0.00620307
0.00736179
0.0081919
0.0075993
0.00567142
0.00745769
0.00834159
0.00783693
0.00582421
0.00757471
0.00850245
0.00815018
0.00661518
0.00771248
0.00867562
0.00861169
0.00735632
0.00787066
0.00886186
0.00923659
0.00723094
0.00804884
0.00905812
0.00937527
0.00709094
0.00824635
0.00926712
0.00932915
0.00693935
0.00846182
0.00948125
0.00925421
0.00677308
0.00869289
0.00969944
0.00915117
0.00660885
0.00893622
0.00992009
0.00902195
0.00647921
0.00918752
0.0101417
0.00886987
0.0063793
0.00944117
0.0103661
0.00869972
0.00630797
0.00969188
0.0105977
0.00852186
0.00626102
0.00993555
0.0108365
0.0083467
0.00623796
0.0101625
0.0110795
0.00818154
0.00623928
0.0103695
0.0113236
0.00802534
1.03069e-08
9.87843e-09
1.16317e-08
1.76451e-08
1.61253e-08
1.53346e-08
1.85804e-08
3.10432e-08
1.56464e-07
1.46206e-07
1.83166e-07
3.314e-07
1.09344e-06
1.02615e-06
1.28375e-06
2.30596e-06
4.60941e-06
4.37377e-06
5.41501e-06
9.55908e-06
1.39231e-05
1.33951e-05
1.63151e-05
2.81297e-05
3.33905e-05
3.2602e-05
3.88818e-05
6.51685e-05
6.75866e-05
6.69801e-05
7.79373e-05
0.000126672
0.000120131
0.000120831
0.000136843
0.000215655
0.000192807
0.000196803
0.000216679
0.00033177
0.000285318
0.000295534
0.000316318
0.000472202
0.000395663
0.00041593
0.000433107
0.00063304
0.000521091
0.000555784
0.000563838
0.000810845
0.000659399
0.000712349
0.000705883
0.00100306
0.000808974
0.000883031
0.000857189
0.00120708
0.000968373
0.00106595
0.00100802
0.00142068
0.00113654
0.00125913
0.001163
0.00164202
0.00131266
0.00146073
0.00132257
0.00186953
0.001496
0.00166914
0.00148647
0.00210108
0.00168579
0.00188306
0.00165569
0.00233724
0.001882
0.0021014
0.00183242
0.0025766
0.00208424
0.00232306
0.00201831
0.00281683
0.00229203
0.00254704
0.00221144
0.00305761
0.00250485
0.00277242
0.00240453
0.00329801
0.00272209
0.00299673
0.0025814
0.00353717
0.00294314
0.00321139
0.00275752
0.0037731
0.00316734
0.00342452
0.00293273
0.00400716
0.00339406
0.00363659
0.0031068
0.00423928
0.00362286
0.0038459
0.00326363
0.00446538
0.0038534
0.00404713
0.00341681
0.00468589
0.00408541
0.00423193
0.00357256
0.00490257
0.00431881
0.00439477
0.00372885
0.00511546
0.00455372
0.00454448
0.00388555
0.00532433
0.00479023
0.0047129
0.00404536
0.00552889
0.00502227
0.00494671
0.00421391
0.00572893
0.00525182
0.00527367
0.00439978
0.00592435
0.00548355
0.00566087
0.0046101
0.00611504
0.0057168
0.00590703
0.00479596
0.00630077
0.00595145
0.00612372
0.00495522
0.00648126
0.0061875
0.00633714
0.00510791
0.00665612
0.00642491
0.0064071
0.00525292
0.00682483
0.00666377
0.00593
0.00538909
0.00698705
0.00690451
0.0051177
0.00551508
0.00714239
0.00714795
0.00460394
0.00452227
0.00729025
0.00739424
0.00497942
0.00295194
0.00743012
0.00764161
0.00646995
0.00214511
0.00756148
0.0078868
0.00787384
0.0025517
0.00667433
0.00812557
0.00809576
0.00602924
0.00477707
0.00835114
0.00830224
0.00627084
0.00359211
0.00855599
0.00850058
0.0064294
0.00394841
0.00873972
0.00868869
0.00661232
0.00680363
0.00890585
0.00886437
0.00682163
0.00821337
0.0090617
0.00902535
0.0070556
0.0083325
0.00922145
0.00916889
0.00731228
0.00846658
0.00940552
0.00929176
0.00758991
0.00861935
0.00963456
0.00939034
0.00788016
0.0087795
0.00991763
0.0094606
0.00817369
0.0089386
0.0102354
0.0079785
0.00846913
0.00909536
0.0105282
0.00472583
0.00876735
0.00925006
0.0107138
0.00293631
0.00906867
0.00940342
0.0107498
0.00290201
0.00937308
0.00955688
0.0106956
0.00568122
0.00968006
0.00971139
0.0107529
0.00938902
0.00998858
0.00986787
0.0111439
0.00947958
0.0102971
0.0100268
0.0117619
0.00955887
0.0106033
0.0101885
0.0118679
0.00963463
0.0109041
0.0103532
0.0119345
0.00969995
0.0111964
0.0105209
0.0119593
0.00975238
0.011477
0.0106914
0.0119398
0.00979151
0.0117419
0.0108643
0.0100166
0.0098173
0.0119927
0.011039
0.00509652
0.0098321
0.0122284
0.011215
0.00305462
0.0098218
0.0124464
0.0113925
0.00374
0.0097753
0.0126447
0.0115722
0.0116373
0.00969815
0.0128216
0.011755
0.0118115
0.0095989
0.0129765
0.0119338
0.0119407
0.00948811
0.0131092
0.0121007
0.0120615
0.00937194
0.0132197
0.0122538
0.0121679
0.00925594
0.013308
0.0123928
0.0122643
0.00914199
0.0133727
0.0125185
1.35822e-08
1.33919e-08
1.46258e-08
1.14324e-08
1.72178e-08
2.0519e-08
2.2754e-08
1.90945e-08
1.44234e-07
1.84571e-07
2.14416e-07
1.68477e-07
1.03236e-06
1.27355e-06
1.48157e-06
1.1333e-06
4.49088e-06
5.3369e-06
6.17266e-06
4.67021e-06
1.38113e-05
1.59559e-05
1.83442e-05
1.38536e-05
3.32274e-05
3.76543e-05
4.3089e-05
3.26587e-05
6.67295e-05
7.4705e-05
8.52045e-05
6.49904e-05
0.000116957
0.000130017
0.000147923
0.00011368
0.000184685
0.000204629
0.000232305
0.000179949
0.000268997
0.000297891
0.000337438
0.000263473
0.00036782
0.00040805
0.000461125
0.000362855
0.000478641
0.00053286
0.000600653
0.000476181
0.000596448
0.00066121
0.000753691
0.000600829
0.000714736
0.000797438
0.000907536
0.000726984
0.00084085
0.000944845
0.001072
0.000862692
0.000974153
0.00110346
0.00124761
0.00100863
0.0011141
0.00127316
0.00143404
0.00116488
0.0012602
0.00145378
0.00163114
0.00133156
0.00141221
0.00164517
0.00183912
0.00150881
0.00157066
0.00184718
0.00205848
0.001697
0.00173753
0.00205963
0.00228921
0.00189559
0.00191591
0.00228198
0.00252699
0.00209468
0.00210712
0.0025125
0.00274939
0.00228681
0.00229677
0.00274156
0.00297395
0.00248219
0.00246675
0.00295749
0.00320007
0.00268039
0.00263677
0.00317549
0.00342731
0.00288098
0.00280716
0.00339524
0.00365521
0.00308354
0.00297798
0.00361612
0.0038831
0.00328764
0.00314916
0.00383752
0.00411031
0.00349285
0.00332064
0.00405878
0.00433617
0.00369875
0.0034925
0.00427922
0.00455997
0.0039049
0.00366489
0.00449816
0.00478086
0.00411087
0.00383786
0.00471485
0.00499793
0.00431622
0.0040111
0.00492843
0.00521018
0.00452052
0.00418402
0.00513804
0.00541654
0.00472336
0.00435593
0.00534269
0.00561591
0.00492441
0.00452621
0.00554134
0.00580718
0.00512337
0.0046943
0.0057328
0.00598933
0.00531994
0.00485968
0.00591579
0.00616397
0.00551379
0.00502184
0.00608877
0.00633081
0.00570447
0.00518024
0.00625207
0.00649014
0.00589139
0.00533432
0.00641001
0.0066428
0.00607389
0.00548346
0.00656299
0.00679049
0.00625125
0.00562695
0.0067112
0.00693614
0.00642264
0.00576398
0.00685408
0.00708428
0.00658704
0.00589383
0.00699065
0.00724038
0.00674318
0.00601567
0.00711987
0.00740486
0.00688937
0.00612855
0.0072409
0.00757528
0.0070331
0.00623189
0.0073531
0.00775143
0.00718182
0.00632556
0.00745587
0.00793511
0.00733634
0.00640912
0.00754874
0.00812893
0.00748781
0.00648169
0.00763129
0.00833515
0.00763203
0.0065422
0.00770331
0.00855447
0.00777042
0.00658931
0.00776486
0.00878542
0.00790383
0.00662454
0.00781646
0.00902577
0.0080327
0.0066487
0.00785937
0.00927336
0.00815711
0.00666174
0.00789552
0.00952585
0.00827696
0.00666361
0.00793003
0.00978057
0.00839195
0.00665502
0.00797119
0.0100346
0.00850157
0.00663692
0.00803262
0.0102847
0.0086051
0.00661
0.00812367
0.0105276
0.00870149
0.00657413
0.00824349
0.0107601
0.00879013
0.0065292
0.00839225
0.0109762
0.00886983
0.00647692
0.00857051
0.0111726
0.00893929
0.00642659
0.00877731
0.0113462
0.0089971
0.0063813
0.0090101
0.0114945
0.00904188
0.00633806
0.00926541
0.0116141
0.00907265
0.00629488
0.00953992
0.0117044
0.00908788
0.00625073
0.00982798
0.0117636
0.00908575
0.00620584
0.0101228
0.0117915
0.0090643
0.00616188
0.0104177
0.0117887
0.00902138
0.006128
0.0107082
0.0117551
0.00895522
0.00610435
0.0109873
0.0116917
0.00886286
0.00608619
0.0112489
0.0115994
0.0087482
0.00607425
0.0114874
0.0114797
0.0086183
0.00606573
0.0116991
0.0113345
0.00847452
0.00605505
0.0118833
0.0111662
0.00831804
0.00603708
0.0120401
0.010988
0.00815
3.58543e-09
4.28286e-09
4.08711e-09
7.70007e-09
9.91273e-09
7.9728e-09
8.74469e-09
1.79574e-08
1.36666e-07
8.92658e-08
9.08734e-08
2.32555e-07
9.82315e-07
6.39113e-07
6.12665e-07
1.66324e-06
4.18141e-06
2.74751e-06
2.51967e-06
7.02187e-06
1.27009e-05
8.46212e-06
7.52861e-06
2.10177e-05
3.04476e-05
2.06377e-05
1.80019e-05
4.93596e-05
6.12002e-05
4.23007e-05
3.64237e-05
9.67909e-05
0.000107474
7.58237e-05
6.47123e-05
0.00016545
0.000169921
0.000122345
0.000103742
0.000254534
0.000247414
0.00018165
0.000153257
0.000361121
0.00033365
0.000252448
0.000212109
0.000467171
0.00041952
0.000331443
0.000273297
0.0005784
0.000511812
0.000407378
0.0003354
0.00069641
0.000609715
0.000487924
0.00040162
0.000820996
0.000712839
0.000573042
0.00047184
0.000951516
0.000820647
0.000662635
0.000545924
0.00108731
0.000932213
0.000756472
0.000623759
0.00122766
0.00104698
0.000854304
0.000705175
0.00137199
0.00116857
0.00095593
0.000789947
0.00151985
0.00130762
0.00106123
0.000877541
0.00167099
0.00147368
0.00117016
0.000967005
0.00182538
0.00166092
0.00128274
0.00105801
0.00198321
0.00185196
0.001399
0.00115394
0.00214418
0.00203502
0.00151905
0.0012654
0.00230487
0.00220905
0.00164312
0.00140802
0.00246615
0.00238118
0.00177171
0.00158675
0.00262835
0.00252985
0.00190565
0.00175064
0.00279061
0.0026723
0.00204571
0.00186143
0.00295052
0.00280745
0.00219049
0.0018432
0.00310563
0.00293945
0.00233214
0.00175453
0.00325936
0.00258005
0.00247262
0.00174596
0.00343035
0.00201204
0.00261838
0.00190469
0.00365368
0.00207737
0.00278768
0.00221667
0.00395961
0.00268923
0.00299681
0.00256051
0.00433938
0.00364844
0.00323043
0.00271188
0.00457505
0.00387442
0.00342933
0.002834
0.00473525
0.00402364
0.00357695
0.00295595
0.00463865
0.00417106
0.00372215
0.00307735
0.00426582
0.00431491
0.0038664
0.00319911
0.00411882
0.00445356
0.00401193
0.00332112
0.00440839
0.00458562
0.00415955
0.00344291
0.00504799
0.00471225
0.00430929
0.0035639
0.00569334
0.00483488
0.00446122
0.00368351
0.0058594
0.0049552
0.0046154
0.00380113
0.00599751
0.00507506
0.00477184
0.00391624
0.00612935
0.00519485
0.00493047
0.00402854
0.00625449
0.00531486
0.00509107
0.00413773
0.00637261
0.0054353
0.00525326
0.00424348
0.00648393
0.00555632
0.00541643
0.00434611
0.00658849
0.00567801
0.00557969
0.00444557
0.00668524
0.00580041
0.00574184
0.00454182
0.00677448
0.0059234
0.00590134
0.00463487
0.00685637
0.0060478
0.00605739
0.00472471
0.00693184
0.00617442
0.00620952
0.00481122
0.00700221
0.00630284
0.00635604
0.00489418
0.00706897
0.00643194
0.00649461
0.00497319
0.00713381
0.00655949
0.00662172
0.0050477
0.00719861
0.00667266
0.00673315
0.00511692
0.00726551
0.00676327
0.00682456
0.00517991
0.00733696
0.00682738
0.00689199
0.00523539
0.00741447
0.00686041
0.00693537
0.00528182
0.00749866
0.00378295
0.0035804
0.00531754
0.00759007
0.00234573
0.00268043
0.00534326
0.00768998
0.00357628
0.00381346
0.00535871
0.00779953
0.00723437
0.00711453
0.0053638
0.00791962
0.00732927
0.00713358
0.00535887
0.00805061
0.00742561
0.00714611
0.00534472
0.00819233
0.00752168
0.00714445
0.00532262
0.0083441
0.00761528
0.00712749
0.00529426
0.00850494
0.0077045
0.00709385
0.00526205
0.00867312
0.00779009
0.00704004
0.00522818
0.00884618
0.00786169
0.0069625
0.00519518
0.00902061
0.00638255
0.00686063
0.00516567
0.00919232
0.00319139
0.00673593
0.00514238
0.0093574
0.00425829
0.00658892
0.00512806
0.0095059
0.00817726
0.00642524
0.00512575
0.00962823
0.00822989
0.0062485
0.00494312
0.00972533
0.00829334
0.00606403
0.00439134
0.00979877
0.00626406
0.0105495
0.0115626
0.00788579
0.00631082
0.0106933
0.0117862
0.00776726
0.00637702
0.0108001
0.0119881
0.00767193
0.00645898
0.0108786
0.0121655
0.00760444
0.00655502
0.0109303
0.0123159
0.00756395
0.00665934
0.0109568
0.0124374
0.00755289
0.00676903
0.0109596
0.0125275
0.0075724
0.00688174
0.0109432
0.0124666
0.00761558
0.00699646
0.0109183
0.0120114
0.00767679
0.00711223
0.010883
0.0115398
0.00775065
0.00722976
0.0108349
0.0111797
0.00783173
0.00735032
0.0107727
0.0109076
0.00791403
0.00747249
0.00953111
0.0107601
0.00799359
0.00759359
0.0073882
0.010804
0.00807473
0.00771262
0.00627916
0.0110406
0.00815934
0.00783185
0.00653007
0.0113948
0.00823927
0.00795006
0.00785621
0.0117375
0.00830857
0.00806196
0.00897671
0.0119201
0.00836301
0.00816042
0.0101367
0.0119527
0.00839963
0.00824177
0.0102615
0.0119337
0.00841655
0.00830192
0.0101742
0.0117855
0.00841268
0.00833798
0.0100609
0.0115965
0.00838761
0.00834853
0.00992288
0.0113881
0.00834145
0.00833205
0.00976203
0.0111626
0.00827474
0.0082954
0.00958058
0.0109217
0.00818827
0.00824239
0.00938074
0.0106675
0.00808372
0.00817455
0.00916472
0.0104016
0.00796279
0.00809265
0.00893465
0.0101258
0.00782734
0.00799717
0.00869467
0.00984149
0.00767934
0.00788856
0.00844677
0.00955005
0.00752083
0.00776728
0.00819301
0.00925274
0.0073539
0.00763389
0.00793432
0.00895073
0.00718079
0.00748898
0.00767152
0.00864507
0.00700406
0.00733321
0.00740647
0.00833675
0.00682612
0.0071672
0.00714033
0.00802659
0.00664821
0.00699138
0.00687577
0.00771505
0.00647013
0.00680598
0.00661402
0.00740258
0.00629002
0.00661168
0.0063545
0.00708916
0.00610605
0.00640956
0.00609786
0.00677485
0.00591695
0.00620061
0.00584339
0.00646082
0.00572206
0.00598549
0.00558853
0.00614809
0.00552123
0.00575031
0.00532994
0.0058372
0.00531481
0.00550052
0.00506868
0.00552842
0.0050978
0.00524209
0.00480589
0.00522191
0.0048717
0.00498103
0.00454275
0.00491774
0.00463803
0.00472031
0.00428042
0.00461612
0.00439833
0.0044607
0.0040018
0.00431749
0.00414681
0.0042021
0.00371962
0.00402249
0.00388088
0.00394407
0.00344245
0.0037315
0.00361489
0.00368673
0.00317219
0.00344503
0.0033504
0.00343101
0.00290688
0.00316402
0.00308896
0.00317821
0.00264426
0.00288948
0.00283062
0.0029296
0.00238614
0.00262229
0.0025738
0.00268601
0.00214306
0.00234883
0.00232118
0.00244611
0.0019171
0.00208646
0.00207602
0.00221372
0.00170623
0.0018417
0.00184622
0.00199001
0.0015095
0.00161438
0.00163582
0.00177564
0.0013264
0.00140366
0.00144243
0.00157113
0.00115632
0.00120882
0.00126335
0.00137696
0.000998742
0.00102922
0.00109726
0.00119358
0.000853168
0.000857427
0.000943397
0.00102144
0.000719128
0.00069496
0.000801029
0.000861058
0.000595962
0.000547775
0.000669694
0.000712911
0.000483079
0.000417314
0.000548728
0.00057688
0.000370372
0.00030527
0.000436583
0.000438599
0.000268807
0.000212849
0.000322397
0.000315861
0.000184629
0.000140376
0.000225514
0.000213344
0.000118796
8.69186e-05
0.000147741
0.000133432
7.08864e-05
5.01716e-05
8.9591e-05
7.63316e-05
3.88555e-05
2.68085e-05
4.97202e-05
3.95451e-05
1.93803e-05
1.31495e-05
2.49841e-05
1.83998e-05
8.69333e-06
5.84757e-06
1.12329e-05
7.59858e-06
3.44306e-06
2.31043e-06
4.44029e-06
2.71248e-06
1.16643e-06
7.84375e-07
1.49702e-06
7.89718e-07
3.19751e-07
2.16248e-07
4.07632e-07
1.67208e-07
6.43418e-08
4.3919e-08
8.12924e-08
2.12671e-08
8.2548e-09
5.70768e-09
1.01974e-08
1.98391e-09
1.10716e-09
7.79178e-10
1.19614e-09
1.02762e-09
8.22189e-10
5.87925e-10
8.25831e-10
0.0123641
0.00903382
0.0134077
0.0126298
0.012452
0.00893229
0.0128362
0.0127221
0.0125089
0.00884231
0.0127574
0.0127922
0.0125365
0.00876362
0.0131053
0.0128374
0.012537
0.00869485
0.013164
0.0126833
0.0125121
0.00863421
0.0130205
0.0118302
0.0124678
0.0085798
0.0128526
0.011266
0.0124076
0.00852972
0.0126683
0.0111028
0.0123449
0.00848207
0.0124701
0.0113
0.0122788
0.00843489
0.0122596
0.0116909
0.0122089
0.0083863
0.0120411
0.0120775
0.0121329
0.00833463
0.0118063
0.012319
0.0120464
0.00827846
0.00996279
0.012377
0.0119455
0.00821646
0.00733951
0.0122971
0.0118268
0.008034
0.00698189
0.0121517
0.0116627
0.0078339
0.00811169
0.0119969
0.00917247
0.00775007
0.0096238
0.0118645
0.00340199
0.0077648
0.0101873
0.0117762
0.00321112
0.00778221
0.00989787
0.011709
0.00505665
0.00766486
0.00960099
0.0116179
0.00918705
0.00753607
0.00929698
0.0114248
0.010674
0.0073959
0.00894526
0.0112148
0.0104729
0.00724468
0.00854294
0.0109888
0.0102584
0.00708302
0.00816463
0.0107481
0.0100264
0.00691175
0.00781097
0.0104923
0.00977485
0.00673191
0.00747654
0.0102202
0.0095048
0.00654511
0.00715385
0.0099343
0.00921962
0.00635279
0.00683734
0.00963659
0.00892327
0.00615555
0.0065227
0.0093291
0.00861979
0.00595852
0.0062056
0.00901558
0.00831135
0.00576187
0.0058821
0.00869658
0.00799959
0.00554795
0.00555462
0.00833901
0.00768705
0.00263126
0.00523598
0.00441511
0.00727377
0.00217901
0.00493785
0.00330424
0.00698266
0.00283211
0.00465756
0.00397974
0.00677499
0.00416321
0.00438792
0.00566281
0.006483
0.00473916
0.00412668
0.00694647
0.0061964
0.00457424
0.00387481
0.00671141
0.00591266
0.00440242
0.00363444
0.00646429
0.00543733
0.0042254
0.00340671
0.00620625
0.00468365
0.00404466
0.00319193
0.00593972
0.00429499
0.00386189
0.00298997
0.00566718
0.00425931
0.0036797
0.00280027
0.00539101
0.0043601
0.00349487
0.00262199
0.00511338
0.00434248
0.00296159
0.0024537
0.0048363
0.00411447
0.00235114
0.00229389
0.00456148
0.00377835
0.00221272
0.00213852
0.00429065
0.00345609
0.00235373
0.00196938
0.00402507
0.00319022
0.00251617
0.00179842
0.00376337
0.00296977
0.00246421
0.0016399
0.00346472
0.00277369
0.00229993
0.00149359
0.00290772
0.00258873
0.00213643
0.00135738
0.00256274
0.00240866
0.00190819
0.00122973
0.00241812
0.00222642
0.00166908
0.00110951
0.00235769
0.00204649
0.0014865
0.000995923
0.00225373
0.00187139
0.00134732
0.000888451
0.00206335
0.0017018
0.00122687
0.000786774
0.00183153
0.00153762
0.00110988
0.000690748
0.0016118
0.00137866
0.000992061
0.000600303
0.00142161
0.00122487
0.000875126
0.000515422
0.00125403
0.00107649
0.000761572
0.000435986
0.00109895
0.000933969
0.000653197
0.000354837
0.00095125
0.000797996
0.00055109
0.000274703
0.000810263
0.000669398
0.000447961
0.000204547
0.00067726
0.00054835
0.0003418
0.000145659
0.000547774
0.000419475
0.000248015
9.86456e-05
0.000413684
0.000302719
0.00016959
6.32071e-05
0.000295213
0.000204169
0.000108277
3.81387e-05
0.000196546
0.000126932
6.40041e-05
2.15731e-05
0.000120527
7.17634e-05
3.47688e-05
1.1376e-05
6.7265e-05
3.64496e-05
1.72262e-05
5.54588e-06
3.38112e-05
1.64393e-05
7.70093e-06
2.46602e-06
1.51475e-05
6.48049e-06
3.04916e-06
9.78503e-07
5.95315e-06
2.17021e-06
1.03476e-06
3.34346e-07
1.99285e-06
5.85077e-07
2.84091e-07
9.26826e-08
5.37791e-07
1.14737e-07
5.68812e-08
1.87569e-08
1.05607e-07
1.35409e-08
6.88855e-09
2.27715e-09
1.24832e-08
9.31242e-10
5.23753e-10
1.4379e-10
8.70434e-10
4.25855e-10
2.72133e-10
5.13502e-11
4.09693e-10
0.0060078
0.0121684
0.0107971
0.00797216
0.00596461
0.0122647
0.0105937
0.00778738
0.00590546
0.0123222
0.0103805
0.00759861
0.0058291
0.0123419
0.0101602
0.00740829
0.0057354
0.0123256
0.00993533
0.00721881
0.00562532
0.0122745
0.00970778
0.00703235
0.00550044
0.0121897
0.00947807
0.00685132
0.00536135
0.012073
0.00924323
0.00667572
0.00520261
0.0119294
0.00900515
0.00650421
0.00502891
0.0117636
0.008767
0.00633591
0.00484415
0.0115803
0.00853201
0.00617144
0.0046535
0.0113839
0.00830338
0.00601694
0.00446064
0.0111785
0.00808378
0.00587933
0.00384168
0.0109682
0.00787556
0.00576568
0.00358209
0.0107569
0.00768053
0.00568058
0.00391191
0.0105487
0.00749882
0.00562202
0.00379251
0.0103475
0.007329
0.00558519
0.00370691
0.0101552
0.00716905
0.00556496
0.00365201
0.0099711
0.00701705
0.00555667
0.00362911
0.00979345
0.00687252
0.00555824
0.00364253
0.00962034
0.00673457
0.00556774
0.0036896
0.00945019
0.00660003
0.00558136
0.00376408
0.00928161
0.00646774
0.00559635
0.0038619
0.00911344
0.00633676
0.00561048
0.00397896
0.0089447
0.00620639
0.00562295
0.00411101
0.00877456
0.00607604
0.00563366
0.00424935
0.00860006
0.00594523
0.00564054
0.00438783
0.00842167
0.00581358
0.00564182
0.00452425
0.00823987
0.00568072
0.00563589
0.00465648
0.00801445
0.00554581
0.00551458
0.00478247
0.00761257
0.00540734
0.0054056
0.00490031
0.00710766
0.00525806
0.00532208
0.00500818
0.00668543
0.00508807
0.00526839
0.0051044
0.00649218
0.00491446
0.00524805
0.00518735
0.00651798
0.00474029
0.00523696
0.00525556
0.00660327
0.00456808
0.00520361
0.00522937
0.00660405
0.00439902
0.00515859
0.00507267
0.00648746
0.00423348
0.00509907
0.00490698
0.00625132
0.00407153
0.00498203
0.00476544
0.00593495
0.00391294
0.00479355
0.00464891
0.00560977
0.0037572
0.00457648
0.00455238
0.00531433
0.00360369
0.00437849
0.00446898
0.00505383
0.00345174
0.00421661
0.00439044
0.0048195
0.00330081
0.00408028
0.00430898
0.00460364
0.00315052
0.00395017
0.00421871
0.00440373
0.00300066
0.00381281
0.00411569
0.00421681
0.00285119
0.00366408
0.00399879
0.00403532
0.00270189
0.00350609
0.00386932
0.00385085
0.00255174
0.00334294
0.00372901
0.00365958
0.00239633
0.00317853
0.00357912
0.00346203
0.00222906
0.00301564
0.00342049
0.00326007
0.00206565
0.00285505
0.00325381
0.0030557
0.00190769
0.00269513
0.00307975
0.00285053
0.001754
0.00253253
0.00289897
0.00264456
0.00160358
0.00236215
0.00271212
0.00243394
0.00145601
0.00218084
0.00251938
0.0022228
0.0013113
0.00199838
0.00231872
0.00201441
0.00116976
0.0018175
0.0021127
0.00180935
0.00103158
0.00163911
0.00190643
0.00160798
0.000894569
0.0014635
0.00170143
0.00141104
0.000751064
0.00129107
0.00149895
0.0012196
0.000614611
0.00112271
0.00130063
0.00102727
0.000487738
0.000959842
0.00110836
0.000828241
0.000373124
0.000799333
0.000924045
0.000642933
0.000273324
0.000628511
0.000747707
0.000476111
0.000190339
0.000471962
0.000558237
0.000332863
0.0001251
0.000334731
0.00039074
0.000217192
7.70794e-05
0.000221547
0.000252343
0.000130753
4.42487e-05
0.000135143
0.000147693
7.18759e-05
2.35217e-05
7.51e-05
7.70075e-05
3.57481e-05
1.14885e-05
3.76327e-05
3.52352e-05
1.59215e-05
5.09319e-06
1.68263e-05
1.39278e-05
6.24523e-06
2.00794e-06
6.60613e-06
4.63725e-06
2.09231e-06
6.80062e-07
2.21092e-06
1.23687e-06
5.65981e-07
1.86546e-07
5.96871e-07
2.39294e-07
1.11434e-07
3.7312e-08
1.17273e-07
2.76588e-08
1.31116e-08
4.4784e-09
1.38087e-08
1.65601e-09
7.84295e-10
2.9167e-10
8.75256e-10
5.96086e-10
2.71145e-10
1.17229e-10
3.47111e-10
0.00836596
0.00588041
0.0046985
0.00984873
0.00844338
0.00570762
0.00514761
0.00987911
0.00852057
0.00555442
0.00515261
0.00989752
0.00859398
0.0054277
0.00516825
0.00990466
0.00866157
0.00533268
0.00519871
0.00990216
0.00872005
0.00527213
0.00524316
0.00989198
0.00876827
0.00525059
0.00530045
0.00987625
0.00880499
0.00526532
0.00536972
0.00985709
0.00883023
0.00530106
0.00545109
0.00983651
0.00884537
0.00535594
0.00554618
0.0098178
0.00885432
0.00542877
0.00564907
0.00980747
0.00886084
0.00551869
0.00434954
0.00532162
0.00887281
0.0056261
0.00314972
0.00334165
0.00514455
0.00511687
0.00308773
0.00415248
0.00366287
0.00304855
0.00466414
0.010042
0.00601019
0.00261019
0.00630334
0.0101617
0.00898163
0.00435169
0.00639215
0.0102142
0.00898364
0.00662997
0.00645466
0.0102292
0.00895532
0.00678985
0.00650701
0.0102124
0.0089028
0.00690637
0.00654994
0.0101669
0.00882901
0.00700125
0.00658219
0.0100967
0.00873786
0.00707098
0.00660552
0.0100053
0.00863306
0.00711593
0.00661952
0.00989533
0.00851879
0.00713776
0.00662379
0.00976877
0.00839673
0.00713825
0.00661797
0.00962725
0.00826769
0.00711938
0.00660178
0.00947205
0.00813989
0.00708455
0.00657504
0.00930424
0.00801702
0.00703461
0.00653766
0.00912478
0.00789568
0.00696976
0.00648962
0.00893473
0.00777245
0.00689032
0.00643096
0.00873534
0.00764499
0.00679677
0.00636184
0.00852822
0.00751269
0.0066913
0.0062823
0.00779265
0.00737518
0.00657643
0.00619154
0.00538263
0.00723154
0.00645393
0.00608918
0.00396248
0.00708114
0.00599669
0.00597603
0.00409278
0.00681497
0.00436885
0.00585295
0.00623605
0.00632838
0.00335874
0.00572075
0.00725025
0.00585873
0.00341573
0.00558016
0.0070872
0.00554242
0.00479796
0.0054318
0.00691348
0.00537776
0.00553589
0.00527618
0.00671927
0.00527848
0.00539778
0.0051137
0.00650445
0.00517408
0.00525118
0.00494468
0.00627166
0.00503783
0.00508981
0.00476942
0.00602988
0.00487305
0.00491413
0.00458826
0.00578164
0.00469133
0.00472644
0.00440155
0.00552866
0.00450096
0.00452876
0.00420965
0.00527212
0.00430552
0.00432263
0.00401297
0.00501284
0.00410603
0.00410923
0.00381161
0.00475143
0.0039027
0.00388958
0.00360437
0.0044884
0.00369568
0.00366463
0.00339086
0.00422378
0.00348529
0.00343507
0.0031721
0.00394306
0.00327194
0.00319718
0.00294914
0.00366239
0.00305608
0.0029456
0.00272313
0.00338225
0.00283791
0.00269239
0.00249528
0.0031039
0.00261729
0.00244015
0.00226693
0.00282847
0.00239206
0.00219103
0.00203954
0.00255648
0.00216961
0.00194798
0.00181471
0.00229093
0.00195134
0.00171433
0.00159416
0.00203346
0.00173796
0.00149286
0.00137982
0.0017861
0.00153066
0.00128548
0.00117375
0.00155116
0.00133076
0.00109351
0.000978232
0.0013306
0.00113913
0.000917675
0.000795693
0.00112581
0.000955823
0.000758106
0.000628689
0.000937755
0.000779344
0.000612708
0.00047977
0.000766949
0.000603839
0.000464448
0.000351248
0.000613383
0.000447202
0.000336361
0.000244818
0.000456435
0.000313164
0.000230569
0.00016109
0.000321834
0.000204722
0.000148089
9.91776e-05
0.000212808
0.000123161
8.82052e-05
5.6605e-05
0.000130459
6.71651e-05
4.82351e-05
2.96554e-05
7.33908e-05
3.26986e-05
2.39781e-05
1.40948e-05
3.75816e-05
1.39847e-05
1.07073e-05
5.98479e-06
1.73854e-05
5.15338e-06
4.21787e-06
2.22191e-06
7.17453e-06
1.59089e-06
1.42073e-06
6.98794e-07
2.56774e-06
3.92802e-07
3.87211e-07
1.77123e-07
7.50456e-07
7.1344e-08
7.73426e-08
3.32342e-08
1.59305e-07
8.28693e-09
9.65173e-09
4.1005e-09
2.01363e-08
9.47495e-10
1.046e-09
6.40221e-10
1.71944e-09
8.39659e-10
6.8469e-10
6.55894e-10
8.10862e-10
)
;

boundaryField
{
    leftWall
    {
        type            compressible::alphatWallFunction;
        Prt             0.85;
        value           uniform 0;
    }
    rightWall
    {
        type            compressible::alphatWallFunction;
        Prt             0.85;
        value           uniform 0;
    }
    leftSides_periodic0
    {
        type            cyclic;
    }
    leftSides_periodic1
    {
        type            cyclic;
    }
    rightSides_periodic0
    {
        type            cyclic;
    }
    rightSides_periodic1
    {
        type            cyclic;
    }
    leftInOut_periodic0
    {
        type            cyclic;
    }
    leftInOut_periodic1
    {
        type            cyclic;
    }
    rightInOut_periodic0
    {
        type            cyclic;
    }
    rightInOut_periodic1
    {
        type            cyclic;
    }
}


// ************************************************************************* //
