/*--------------------------------*- C++ -*----------------------------------*\
| =========                 |                                                 |
| \\      /  F ield         | OpenFOAM: The Open Source CFD Toolbox           |
|  \\    /   O peration     | Version:  v1912                                 |
|   \\  /    A nd           | Website:  www.openfoam.com                      |
|    \\/     M anipulation  |                                                 |
\*---------------------------------------------------------------------------*/
FoamFile
{
    version     2.0;
    format      ascii;
    class       volVectorField;
    location    "96.4";
    object      U;
}
// * * * * * * * * * * * * * * * * * * * * * * * * * * * * * * * * * * * * * //

dimensions      [0 1 -1 0 0 0 0];


internalField   nonuniform List<vector> 
2000
(
(2.62711e-06 0.0220857 -0.000356742)
(0.00992215 0.00148265 0.034626)
(-0.00032157 -0.00040644 0.0549819)
(0.000735493 -0.000453373 0.0628894)
(0.000272987 -0.000430793 0.0639303)
(-8.14248e-07 -0.000433305 0.0643028)
(-0.000273945 -0.000430799 0.0639293)
(-0.000736202 -0.00045343 0.06289)
(0.000322556 -0.000406523 0.0549867)
(-0.00992025 0.001482 0.0346405)
(2.0576e-06 0.0341027 -0.00200878)
(0.0213552 -0.00196513 0.109522)
(0.00570191 -0.000467215 0.148627)
(0.00395445 -0.000821215 0.160789)
(0.00191504 -0.000796543 0.162928)
(1.47034e-07 -0.000804825 0.163479)
(-0.00191405 -0.000796595 0.162927)
(-0.00395444 -0.000821383 0.16079)
(-0.00570125 -0.000467401 0.148635)
(-0.0213529 -0.00196482 0.10955)
(1.84958e-06 -0.0215497 0.0132707)
(0.0194404 0.0021524 0.176362)
(0.00712702 -2.04571e-05 0.216393)
(0.00470546 -0.00074995 0.226821)
(0.00231616 -0.000800154 0.229513)
(6.58513e-07 -0.000813863 0.230061)
(-0.00231425 -0.000800154 0.229512)
(-0.00470499 -0.000750134 0.226822)
(-0.00712674 -2.09672e-05 0.216401)
(-0.0194389 0.00215126 0.176391)
(1.41396e-06 0.0425837 0.052443)
(0.0142705 0.000558914 0.228561)
(0.00662966 0.000211456 0.262794)
(0.00432421 -0.000560603 0.270926)
(0.00214495 -0.000700894 0.273747)
(7.82692e-07 -0.000719976 0.274275)
(-0.00214284 -0.000700837 0.273746)
(-0.00432361 -0.00056077 0.270927)
(-0.0066295 0.000210795 0.262801)
(-0.0142696 0.000558012 0.228587)
(8.10252e-07 0.00817851 0.109874)
(0.0135244 0.0015554 0.264712)
(0.0056923 0.000679058 0.295129)
(0.00373415 -0.000324785 0.302138)
(0.00187352 -0.000561345 0.304948)
(7.148e-07 -0.000585121 0.305481)
(-0.00187157 -0.000561228 0.304947)
(-0.00373354 -0.000324913 0.302139)
(-0.00569215 0.00067836 0.295135)
(-0.0135239 0.00155419 0.264734)
(3.11837e-07 0.0143871 0.174626)
(0.0114787 0.00233913 0.290913)
(0.00486282 0.000999969 0.31789)
(0.00325295 -0.000105978 0.324972)
(0.00165621 -0.000434537 0.327808)
(5.54865e-07 -0.000462109 0.32838)
(-0.00165459 -0.000434374 0.327807)
(-0.00325237 -0.000106062 0.324973)
(-0.00486259 0.000999231 0.317896)
(-0.0114783 0.00233764 0.290931)
(4.31845e-08 0.0172242 0.231482)
(0.00954463 0.00280132 0.309927)
(0.00427456 0.00120998 0.334679)
(0.00291554 7.70644e-05 0.342238)
(0.00151198 -0.000339828 0.345128)
(3.36742e-07 -0.0003707 0.345751)
(-0.00151081 -0.000339656 0.345127)
(-0.00291499 7.69922e-05 0.342239)
(-0.00427417 0.00120924 0.334684)
(-0.00954433 0.00279975 0.309942)
(-1.69251e-08 0.0164236 0.273436)
(0.00800914 0.00295906 0.324195)
(0.00389467 0.0013116 0.347247)
(0.00267776 0.000219576 0.355131)
(0.00141831 -0.000281124 0.358064)
(1.01784e-07 -0.000317021 0.358743)
(-0.00141761 -0.000280998 0.358064)
(-0.00267721 0.000219461 0.355132)
(-0.00389407 0.00131087 0.347252)
(-0.00800879 0.0029576 0.324208)
(1.71009e-08 0.0139887 0.301821)
(0.00675399 0.00295709 0.335147)
(0.00365003 0.00124406 0.3555)
(0.00249789 0.000258948 0.363151)
(0.00135114 -0.000300168 0.366047)
(-7.04927e-08 -0.000345365 0.366782)
(-0.00135082 -0.000300159 0.366046)
(-0.00249733 0.000258723 0.363152)
(-0.00364921 0.00124334 0.355504)
(-0.0067535 0.0029558 0.335156)
(7.57066e-08 0.01135 0.320361)
(0.00564182 0.00277028 0.342703)
(0.0034794 0.000948699 0.358659)
(0.0023582 0.00010687 0.365313)
(0.00129437 -0.000459888 0.368053)
(-9.63167e-08 -0.000518272 0.368833)
(-0.00129419 -0.000460063 0.368051)
(-0.00235761 0.000106509 0.365312)
(-0.00347847 0.000948009 0.358662)
(-0.00564123 0.00276941 0.342709)
(2.28319e-06 0.00227633 0.0319684)
(-0.00856266 -0.000235963 0.0653957)
(-0.00612765 -0.000198151 0.0801809)
(-0.00289013 -0.00011161 0.085582)
(-0.00166495 -0.000137594 0.0882682)
(-1.18988e-06 -0.000131149 0.0891169)
(0.00166323 -0.000137638 0.0882688)
(0.00288894 -0.000111686 0.0855839)
(0.00612871 -0.000198258 0.0801876)
(0.00856482 -0.000235975 0.0654047)
(3.40603e-06 -0.00129304 0.0761521)
(-0.00424588 -0.000768748 0.147196)
(-0.00510344 -0.000818366 0.174169)
(-0.0016998 -0.000613414 0.184019)
(-0.00108572 -0.000618223 0.18788)
(-2.82171e-07 -0.000609994 0.189132)
(0.00108575 -0.000618334 0.18788)
(0.00169916 -0.000613599 0.184021)
(0.00510388 -0.000818646 0.174179)
(0.00424703 -0.000768991 0.147214)
(3.1032e-06 0.00230253 0.112198)
(-0.000985788 -0.00146796 0.199782)
(-0.00245067 -0.00112506 0.230531)
(-0.000178927 -0.000924247 0.241969)
(-0.000274566 -0.000886454 0.246348)
(5.26513e-07 -0.000877992 0.247762)
(0.000275943 -0.000886563 0.246348)
(0.000178957 -0.000924381 0.241971)
(0.00245063 -0.00112545 0.230542)
(0.00098648 -0.00146853 0.199803)
(2.26752e-06 -0.000872423 0.147511)
(0.000710988 -0.0020825 0.239809)
(-0.00104356 -0.00133257 0.269125)
(0.000512837 -0.00113216 0.280388)
(0.000110878 -0.00104586 0.285094)
(9.15607e-07 -0.0010395 0.286583)
(-0.000108885 -0.00104589 0.285094)
(-0.000512424 -0.00113211 0.280389)
(0.00104332 -0.00133314 0.269135)
(-0.000710385 -0.00208335 0.239829)
(1.57278e-06 -0.00256219 0.18862)
(0.00151153 -0.00233757 0.273263)
(-0.000517014 -0.00138232 0.298689)
(0.000705143 -0.00127874 0.30922)
(0.00023584 -0.0011472 0.314102)
(1.0179e-06 -0.00113981 0.315621)
(-0.000233701 -0.0011471 0.314101)
(-0.000704586 -0.00127851 0.309221)
(0.00051676 -0.00138308 0.298698)
(-0.00151078 -0.00233875 0.273281)
(1.155e-06 -0.00244689 0.233811)
(0.00137836 -0.00250099 0.300992)
(-0.000411407 -0.00138425 0.321852)
(0.000687896 -0.00138927 0.331832)
(0.000250797 -0.00122357 0.336817)
(9.45223e-07 -0.0012098 0.338358)
(-0.000248798 -0.00122333 0.336817)
(-0.000687344 -0.00138892 0.331833)
(0.00041124 -0.00138514 0.321861)
(-0.00137735 -0.00250251 0.301006)
(1.04597e-06 -0.00196491 0.277331)
(0.00101362 -0.00267412 0.323079)
(-0.000405927 -0.00139017 0.340184)
(0.000619797 -0.00148278 0.349812)
(0.000240313 -0.00129341 0.354852)
(7.64496e-07 -0.00126877 0.356421)
(-0.000238633 -0.00129304 0.354852)
(-0.000619352 -0.00148235 0.349814)
(0.000405908 -0.00139125 0.340191)
(-0.00101226 -0.00267597 0.323091)
(1.23027e-06 -0.00173771 0.313018)
(0.000876565 -0.00280862 0.340342)
(-0.000364254 -0.00141514 0.354688)
(0.000560653 -0.00155439 0.364014)
(0.000236464 -0.00135368 0.36907)
(5.09513e-07 -0.00131509 0.370672)
(-0.000235233 -0.00135322 0.36907)
(-0.000560413 -0.00155394 0.364016)
(0.000364411 -0.00141648 0.354695)
(-0.000874671 -0.00281087 0.340352)
(1.64821e-06 -0.00138645 0.33822)
(0.000926559 -0.00284444 0.353952)
(-0.000263021 -0.00143469 0.366107)
(0.000523632 -0.00158475 0.375052)
(0.00024521 -0.00139021 0.380095)
(1.9286e-07 -0.00133862 0.381729)
(-0.000244536 -0.00138973 0.380096)
(-0.000523716 -0.00158433 0.375055)
(0.000263335 -0.00143629 0.366114)
(-0.000923944 -0.00284759 0.35396)
(2.32403e-06 -0.000986955 0.354957)
(0.00103843 -0.00274668 0.36421)
(-0.000105694 -0.00143232 0.374612)
(0.000511442 -0.00157256 0.383143)
(0.000266827 -0.00140075 0.388162)
(-1.53129e-07 -0.00134371 0.389814)
(-0.000266752 -0.00140035 0.388163)
(-0.000511962 -0.00157214 0.383146)
(0.00010593 -0.00143363 0.374619)
(-0.00103504 -0.00275182 0.364218)
(1.84032e-06 7.25499e-05 0.0258984)
(-0.00557627 -9.29891e-05 0.0700256)
(-0.00259418 -1.12166e-06 0.0798128)
(-0.00178228 1.36522e-05 0.0824632)
(-0.00108297 5.42146e-06 0.0840885)
(-8.5971e-07 1.44255e-05 0.0843759)
(0.00108192 5.41992e-06 0.084089)
(0.00178153 1.3622e-05 0.082465)
(0.00259503 -1.14603e-06 0.0798174)
(0.005578 -9.30401e-05 0.0700376)
(3.06795e-06 -6.90631e-05 0.0700335)
(-0.00868814 -0.000428408 0.16016)
(-0.0046798 -0.000309946 0.1776)
(-0.00262424 -0.00016488 0.181942)
(-0.00161905 -0.000169794 0.183995)
(-7.39033e-07 -0.000158032 0.184379)
(0.00161874 -0.000169822 0.183995)
(0.00262355 -0.000164977 0.181944)
(0.00468074 -0.00031001 0.177606)
(0.00868935 -0.000428625 0.16018)
(2.65115e-06 -0.000138988 0.104508)
(-0.00729381 -0.000941002 0.210962)
(-0.00424615 -0.000670084 0.235307)
(-0.00215237 -0.000399909 0.241127)
(-0.00137656 -0.000366616 0.243319)
(-3.27792e-07 -0.000356336 0.2438)
(0.00137713 -0.000366654 0.243319)
(0.00215201 -0.000400009 0.241129)
(0.00424687 -0.000670126 0.235314)
(0.00729458 -0.00094141 0.210986)
(1.96188e-06 -0.00138709 0.13517)
(-0.00548799 -0.00126927 0.244445)
(-0.00344657 -0.000960923 0.272711)
(-0.00163275 -0.000601541 0.279384)
(-0.00108883 -0.000521631 0.281718)
(-5.43153e-08 -0.000515669 0.282271)
(0.00108989 -0.000521661 0.281718)
(0.00163265 -0.000601605 0.279385)
(0.00344713 -0.000960944 0.272719)
(0.00548861 -0.00126984 0.244469)
(1.35485e-06 -0.00184087 0.168324)
(-0.00411823 -0.00152207 0.271743)
(-0.00285534 -0.00117268 0.300564)
(-0.00130019 -0.000778983 0.307645)
(-0.000899355 -0.000648487 0.310109)
(4.14725e-08 -0.000646671 0.310712)
(0.000900542 -0.000648495 0.310108)
(0.00130024 -0.000778985 0.307646)
(0.00285585 -0.00117269 0.300571)
(0.00411893 -0.00152278 0.271765)
(8.72856e-07 -0.00239508 0.205513)
(-0.00326146 -0.00169639 0.294935)
(-0.00250729 -0.00131507 0.322053)
(-0.00111999 -0.000937253 0.329461)
(-0.000794016 -0.000755527 0.332055)
(-5.70889e-09 -0.000754968 0.332698)
(0.000795063 -0.000755513 0.332054)
(0.0011201 -0.000937186 0.329462)
(0.00250784 -0.00131509 0.32206)
(0.00326232 -0.0016972 0.294953)
(5.44693e-07 -0.00258545 0.243787)
(-0.00270591 -0.00182599 0.313597)
(-0.00228019 -0.00141561 0.338498)
(-0.0010039 -0.00108532 0.346221)
(-0.000726082 -0.000854041 0.348946)
(-1.47726e-07 -0.000849257 0.34963)
(0.000726824 -0.000854015 0.348946)
(0.00100403 -0.0010852 0.346222)
(0.00228085 -0.00141566 0.338505)
(0.00270693 -0.00182686 0.313612)
(3.7161e-07 -0.00245556 0.27829)
(-0.00218565 -0.00193628 0.327825)
(-0.00205503 -0.00148929 0.350679)
(-0.000883124 -0.00121992 0.358629)
(-0.00065739 -0.000944485 0.361437)
(-3.31597e-07 -0.000928206 0.362162)
(0.000657757 -0.000944475 0.361436)
(0.000883237 -0.00121982 0.358631)
(0.00205582 -0.00148936 0.350686)
(0.00218682 -0.00193715 0.327838)
(3.2546e-07 -0.00213068 0.305045)
(-0.00161688 -0.00202464 0.338556)
(-0.00177628 -0.00151727 0.358559)
(-0.000732296 -0.00131178 0.366252)
(-0.000571066 -0.00100634 0.369046)
(-4.85694e-07 -0.000970786 0.369814)
(0.000571107 -0.00100639 0.369045)
(0.000732393 -0.00131178 0.366252)
(0.0017772 -0.00151737 0.358564)
(0.00161824 -0.00202538 0.338566)
(3.26561e-07 -0.00175718 0.323673)
(-0.00102014 -0.0020619 0.34581)
(-0.00144069 -0.00148355 0.361486)
(-0.000560689 -0.00132198 0.368163)
(-0.000469349 -0.0010146 0.370826)
(-5.20426e-07 -0.00095647 0.371627)
(0.000469262 -0.00101474 0.370825)
(0.000560777 -0.00132215 0.368163)
(0.00144168 -0.00148367 0.36149)
(0.00102165 -0.00206272 0.345818)
(1.22143e-06 8.62494e-06 0.0609921)
(-0.00187864 -2.34725e-05 0.0777515)
(-0.00048797 5.31648e-06 0.0833944)
(-0.000700521 -2.69649e-06 0.0873343)
(-0.000416701 -8.12231e-06 0.0901587)
(-2.03332e-07 -2.37215e-06 0.0909877)
(0.00041641 -8.11379e-06 0.090159)
(0.000700098 -2.70093e-06 0.0873358)
(0.000488237 5.29515e-06 0.0833989)
(0.00187983 -2.35258e-05 0.07776)
(1.57081e-06 -0.000193803 0.139469)
(-0.00394865 -0.000216523 0.171966)
(-0.00171239 -0.000138844 0.183203)
(-0.00131268 -9.51335e-05 0.189725)
(-0.00084189 -0.000107194 0.193852)
(1.09973e-07 -9.83729e-05 0.195129)
(0.000842306 -0.000107156 0.193852)
(0.00131255 -9.51387e-05 0.189727)
(0.0017129 -0.000138889 0.18321)
(0.00394967 -0.000216668 0.17198)
(1.18167e-06 -0.000658189 0.182191)
(-0.00366347 -0.000494416 0.222682)
(-0.00178939 -0.000370166 0.239503)
(-0.00112124 -0.000262686 0.247664)
(-0.000767211 -0.0002626 0.252181)
(5.32145e-07 -0.000258757 0.253673)
(0.00076842 -0.000262519 0.252181)
(0.00112158 -0.000262653 0.247666)
(0.00178987 -0.000370176 0.239511)
(0.00366395 -0.000494597 0.222698)
(7.81604e-07 -0.00126547 0.211116)
(-0.00285615 -0.000745091 0.254909)
(-0.00142826 -0.000581084 0.275024)
(-0.000768505 -0.00041956 0.284204)
(-0.000571778 -0.000398309 0.28896)
(8.33316e-07 -0.000402414 0.290566)
(0.000573511 -0.000398169 0.28896)
(0.0007692 -0.000419452 0.284205)
(0.00142867 -0.000581024 0.275032)
(0.0028563 -0.000745276 0.254926)
(4.77987e-07 -0.00183797 0.237458)
(-0.00213024 -0.000975574 0.280959)
(-0.00106189 -0.00075927 0.301843)
(-0.000490831 -0.000556776 0.311451)
(-0.000407126 -0.000508141 0.31637)
(9.86232e-07 -0.000521012 0.318027)
(0.000409109 -0.000507931 0.31637)
(0.000491747 -0.000556562 0.311452)
(0.00106228 -0.000759118 0.301851)
(0.00213034 -0.000975742 0.280975)
(2.80224e-07 -0.00236805 0.264892)
(-0.00162173 -0.00114926 0.30429)
(-0.000825653 -0.000896055 0.323757)
(-0.000333501 -0.000671078 0.333431)
(-0.000307221 -0.00059038 0.338464)
(1.00038e-06 -0.000611407 0.340146)
(0.000309213 -0.000590094 0.338464)
(0.000334521 -0.000670735 0.333432)
(0.00082613 -0.000895801 0.323765)
(0.00162196 -0.00114941 0.304304)
(2.04791e-07 -0.00264794 0.293337)
(-0.00131905 -0.00126573 0.324857)
(-0.000717927 -0.000999141 0.341689)
(-0.000270159 -0.000772903 0.351195)
(-0.000261483 -0.000657409 0.356303)
(8.97109e-07 -0.00068454 0.358001)
(0.000263289 -0.000657056 0.356303)
(0.000271195 -0.00077243 0.351196)
(0.000718577 -0.000998793 0.341697)
(0.00131956 -0.00126586 0.324868)
(2.58758e-07 -0.0026263 0.319789)
(-0.00111501 -0.00136053 0.341626)
(-0.000675429 -0.00108837 0.355865)
(-0.000250134 -0.000874138 0.36509)
(-0.000243142 -0.000725125 0.370266)
(7.07527e-07 -0.000754607 0.371986)
(0.000244625 -0.000724729 0.370266)
(0.000251127 -0.000873567 0.365092)
(0.000676315 -0.00108795 0.355872)
(0.00111587 -0.00136064 0.341636)
(4.10735e-07 -0.00243139 0.341162)
(-0.000907302 -0.00146008 0.354659)
(-0.000638364 -0.00116785 0.366825)
(-0.000234716 -0.000980073 0.37575)
(-0.000230583 -0.000802776 0.380976)
(4.62543e-07 -0.000829696 0.382721)
(0.000231663 -0.000802375 0.380976)
(0.000235624 -0.000979466 0.375753)
(0.00063952 -0.00116739 0.366832)
(0.000908565 -0.00146019 0.354667)
(5.74288e-07 -0.00221835 0.356174)
(-0.00066594 -0.00156892 0.364193)
(-0.000579093 -0.00123238 0.374891)
(-0.00020749 -0.00108134 0.383519)
(-0.000214275 -0.000886411 0.388767)
(2.00384e-07 -0.000906483 0.390529)
(0.000214931 -0.000886056 0.388768)
(0.000208289 -0.00108078 0.383522)
(0.000580503 -0.00123194 0.374898)
(0.000667584 -0.00156904 0.3642)
(1.08944e-06 -2.6597e-05 0.0461631)
(-0.00180635 -1.67201e-05 0.0757501)
(-0.000222156 2.53713e-06 0.0819319)
(-0.000502195 3.41687e-07 0.0829927)
(-0.000184723 3.27792e-06 0.083833)
(-1.91185e-07 7.93472e-06 0.0837943)
(0.000184658 3.28003e-06 0.0838324)
(0.000501938 3.45938e-07 0.0829929)
(0.000222293 2.54496e-06 0.0819342)
(0.00180706 -1.67383e-05 0.0757598)
(2.04316e-06 -0.000197179 0.114333)
(-0.00451671 -9.72164e-05 0.172341)
(-0.00130235 -8.25166e-05 0.182945)
(-0.00132928 -1.01371e-05 0.184601)
(-0.000669229 -8.12972e-06 0.18589)
(-2.99409e-07 7.07981e-06 0.185909)
(0.000669395 -8.11788e-06 0.185889)
(0.00132887 -1.01279e-05 0.184601)
(0.00130289 -8.25076e-05 0.182948)
(0.00451782 -9.73515e-05 0.172357)
(1.97906e-06 -0.000391219 0.154834)
(-0.00520806 -0.000214647 0.225639)
(-0.00198548 -0.000255442 0.241997)
(-0.00165982 -6.94447e-05 0.244951)
(-0.000902346 -6.48851e-05 0.246576)
(-2.48886e-07 -4.58748e-05 0.246793)
(0.000902826 -6.48634e-05 0.246575)
(0.00165947 -6.9436e-05 0.244951)
(0.00198621 -0.000255428 0.242001)
(0.00520924 -0.000214905 0.225657)
(1.66229e-06 -0.000599913 0.181811)
(-0.00480784 -0.000342067 0.25691)
(-0.00214817 -0.000461581 0.278142)
(-0.00164705 -0.000163671 0.28251)
(-0.000926002 -0.000151385 0.284395)
(-1.65326e-07 -0.000133539 0.284786)
(0.000926703 -0.000151355 0.284394)
(0.00164682 -0.000163661 0.282511)
(0.00214897 -0.000461566 0.278146)
(0.00480899 -0.000342443 0.256929)
(1.30648e-06 -0.000860873 0.205593)
(-0.0040384 -0.000477285 0.279638)
(-0.00202903 -0.000666283 0.303633)
(-0.00148978 -0.000277087 0.309207)
(-0.000856532 -0.000250869 0.311289)
(-1.12607e-07 -0.000237173 0.3118)
(0.00085732 -0.000250833 0.311288)
(0.00148968 -0.000277072 0.309207)
(0.00202986 -0.00066627 0.303639)
(0.00403952 -0.000477752 0.279657)
(9.58214e-07 -0.0011217 0.230187)
(-0.00322348 -0.000583485 0.298621)
(-0.00180237 -0.000841443 0.323437)
(-0.0012971 -0.000394985 0.329811)
(-0.000762434 -0.000348048 0.332059)
(-1.18309e-07 -0.000340226 0.332639)
(0.000763168 -0.000348013 0.332058)
(0.0012971 -0.000394971 0.329811)
(0.00180325 -0.000841437 0.323443)
(0.0032246 -0.000584032 0.298638)
(6.51743e-07 -0.00129655 0.256789)
(-0.00251121 -0.000643041 0.315101)
(-0.00156592 -0.000966526 0.339169)
(-0.0011169 -0.000507925 0.346055)
(-0.000675566 -0.000433763 0.348451)
(-1.85157e-07 -0.000432319 0.349077)
(0.000676123 -0.000433745 0.34845)
(0.00111697 -0.000507927 0.346055)
(0.00156687 -0.000966533 0.339175)
(0.00251237 -0.000643645 0.315115)
(4.26135e-07 -0.00129445 0.283646)
(-0.00192674 -0.000666939 0.328804)
(-0.00135167 -0.00104235 0.350957)
(-0.000953082 -0.000615821 0.358148)
(-0.00060138 -0.000508939 0.360663)
(-2.86527e-07 -0.000512711 0.361334)
(0.000601693 -0.000508967 0.360662)
(0.00095319 -0.000615876 0.358148)
(0.0013527 -0.00104238 0.350962)
(0.00192796 -0.000667572 0.328815)
(2.94611e-07 -0.00111632 0.307048)
(-0.00141921 -0.000672053 0.339251)
(-0.00114739 -0.00107084 0.358358)
(-0.00079055 -0.000712236 0.365359)
(-0.000532102 -0.00057201 0.367909)
(-3.61338e-07 -0.000578016 0.368625)
(0.000532212 -0.000572121 0.367908)
(0.000790687 -0.000712392 0.36536)
(0.00114847 -0.00107089 0.358362)
(0.00142048 -0.000672683 0.339259)
(2.1817e-07 -0.000858197 0.32441)
(-0.000942414 -0.000672498 0.345866)
(-0.000937025 -0.00104738 0.360662)
(-0.000623981 -0.000774396 0.366744)
(-0.000461807 -0.000609381 0.369194)
(-3.32045e-07 -0.000611981 0.369944)
(0.000461887 -0.00060959 0.369193)
(0.000624146 -0.000774683 0.366743)
(0.000938075 -0.00104746 0.360665)
(0.000943692 -0.000673094 0.345872)
(6.00843e-07 3.98133e-05 0.0822148)
(-0.000356855 1.11668e-05 0.0802438)
(-0.000191295 -1.99014e-07 0.0838582)
(-0.000363946 -1.56521e-05 0.0870157)
(-0.000127287 -1.6579e-05 0.0893706)
(1.23042e-07 -1.87529e-05 0.0901157)
(0.000127518 -1.65791e-05 0.0893704)
(0.000363977 -1.56454e-05 0.0870159)
(0.00019123 -2.03141e-07 0.083861)
(0.000357287 1.117e-05 0.0802495)
(1.01505e-06 -9.60905e-05 0.1756)
(-0.00103227 -5.84163e-05 0.177354)
(-0.000263708 -8.43346e-05 0.184159)
(-0.000536385 -9.99309e-05 0.189)
(-0.000201598 -0.00010719 0.192477)
(3.89156e-07 -0.000108994 0.193547)
(0.000202299 -0.000107172 0.192477)
(0.000536648 -9.98838e-05 0.189001)
(0.000263705 -8.43325e-05 0.184164)
(0.0010329 -5.84046e-05 0.177365)
(9.161e-07 -0.000375313 0.22151)
(-0.00128259 -0.000186563 0.231438)
(-0.000252409 -0.000211912 0.241793)
(-0.000475912 -0.000191845 0.247632)
(-0.000189542 -0.000204153 0.251562)
(6.37776e-07 -0.000204797 0.252789)
(0.000190701 -0.000204102 0.251562)
(0.000476484 -0.000191736 0.247632)
(0.000252502 -0.000211884 0.241798)
(0.00128305 -0.000186542 0.231451)
(7.63287e-07 -0.000689766 0.249149)
(-0.00129757 -0.000323367 0.26449)
(-0.000235467 -0.000341325 0.277957)
(-0.000378797 -0.000270442 0.284787)
(-0.000152857 -0.000284595 0.289041)
(8.13464e-07 -0.000284517 0.290404)
(0.000154349 -0.0002845 0.289041)
(0.000379617 -0.000270254 0.284788)
(0.000235641 -0.000341248 0.277963)
(0.00129786 -0.000323342 0.264504)
(6.33616e-07 -0.00100886 0.271081)
(-0.00121233 -0.000459132 0.289042)
(-0.000211976 -0.00047065 0.304365)
(-0.000290958 -0.000338487 0.312047)
(-0.000112122 -0.000349904 0.31653)
(9.13662e-07 -0.000349021 0.317997)
(0.000113811 -0.000349753 0.31653)
(0.000291949 -0.000338201 0.312047)
(0.000212236 -0.000470506 0.304371)
(0.00121257 -0.000459109 0.289056)
(5.38022e-07 -0.00130114 0.291379)
(-0.00106486 -0.000574022 0.309711)
(-0.000181537 -0.000587118 0.325422)
(-0.000222978 -0.000393582 0.333646)
(-7.70078e-05 -0.000397756 0.338291)
(9.36177e-07 -0.000396018 0.339824)
(7.87553e-05 -0.000397535 0.33829)
(0.000224065 -0.000393187 0.333647)
(0.000181913 -0.000586896 0.325428)
(0.00106516 -0.000574004 0.309723)
(4.92943e-07 -0.00151101 0.311138)
(-0.000887661 -0.00065393 0.327802)
(-0.000153403 -0.000686983 0.342633)
(-0.000177178 -0.000437736 0.351052)
(-5.34063e-05 -0.000430292 0.355808)
(8.80335e-07 -0.00042778 0.357381)
(5.50751e-05 -0.000429993 0.355807)
(0.000178293 -0.000437237 0.351053)
(0.000153938 -0.000686681 0.34264)
(0.000888141 -0.000653922 0.327813)
(5.13871e-07 -0.00160156 0.329878)
(-0.000716358 -0.00070354 0.343234)
(-0.000135658 -0.000763635 0.356337)
(-0.000148971 -0.000475547 0.364743)
(-4.19007e-05 -0.000453364 0.3696)
(7.54383e-07 -0.000450693 0.371207)
(4.337e-05 -0.000452994 0.3696)
(0.000150057 -0.000474969 0.364745)
(0.000136392 -0.000763271 0.356343)
(0.000717113 -0.000703546 0.343243)
(5.89956e-07 -0.00158963 0.346181)
(-0.000561272 -0.000736869 0.355681)
(-0.000123772 -0.00081753 0.36694)
(-0.000127622 -0.000511187 0.37522)
(-3.79837e-05 -0.000472951 0.38017)
(5.73788e-07 -0.00047103 0.381808)
(3.91601e-05 -0.000472534 0.380171)
(0.000128638 -0.000510582 0.375222)
(0.000124728 -0.000817137 0.366946)
(0.000562345 -0.000736892 0.355689)
(6.61338e-07 -0.00152065 0.358393)
(-0.000412478 -0.000761892 0.364705)
(-0.000105616 -0.000848347 0.37462)
(-0.000102388 -0.000549413 0.382733)
(-3.64773e-05 -0.000497567 0.387761)
(3.60849e-07 -0.000497513 0.389421)
(3.73053e-05 -0.000497155 0.387762)
(0.000103307 -0.000548861 0.382736)
(0.000106802 -0.000847971 0.374626)
(0.000413843 -0.000761943 0.364712)
(4.1589e-07 -5.23072e-05 0.0504918)
(-0.00117695 -1.31996e-05 0.0794087)
(-5.35127e-05 8.7336e-06 0.0853051)
(-0.000238872 2.00738e-05 0.085898)
(-5.40521e-05 2.5414e-05 0.0864108)
(5.90347e-09 2.93174e-05 0.0863355)
(5.43797e-05 2.54193e-05 0.0864099)
(0.000238939 2.00823e-05 0.0858972)
(5.36567e-05 8.74971e-06 0.0853056)
(0.00117711 -1.3201e-05 0.0794146)
(1.40236e-06 5.72744e-05 0.129411)
(-0.00328093 2.51429e-06 0.179692)
(-0.00109584 -2.47284e-06 0.18855)
(-0.0011142 5.92612e-05 0.189234)
(-0.000503869 6.53089e-05 0.189947)
(-1.76771e-07 7.69124e-05 0.189851)
(0.000504299 6.53233e-05 0.189946)
(0.00111406 5.92934e-05 0.189233)
(0.00109627 -2.43066e-06 0.188551)
(0.00328173 2.48722e-06 0.179702)
(1.81281e-06 0.000144521 0.17693)
(-0.00412557 -1.31511e-05 0.234239)
(-0.00181224 -0.000103092 0.24739)
(-0.00159063 3.09522e-05 0.249122)
(-0.000778813 3.45809e-05 0.250167)
(-2.81046e-07 4.98453e-05 0.250205)
(0.000779256 3.45998e-05 0.250165)
(0.00159033 3.1003e-05 0.249122)
(0.00181287 -0.000103056 0.247392)
(0.00412686 -1.33103e-05 0.234252)
(1.70951e-06 0.000195382 0.203967)
(-0.0040184 -8.17262e-05 0.26491)
(-0.00203983 -0.000259568 0.282314)
(-0.00168926 -5.03123e-05 0.285418)
(-0.000856482 -5.03873e-05 0.286798)
(-3.04852e-07 -3.13337e-05 0.286996)
(0.000856946 -5.0369e-05 0.286797)
(0.00168895 -5.02599e-05 0.285418)
(0.00204059 -0.000259558 0.282317)
(0.00401991 -8.20018e-05 0.264925)
(1.44839e-06 3.80925e-05 0.224704)
(-0.00348531 -0.000179869 0.285973)
(-0.00199651 -0.00044112 0.306595)
(-0.00160313 -0.000166902 0.310932)
(-0.000831548 -0.000167894 0.312589)
(-3.08352e-07 -0.000145586 0.312916)
(0.000832004 -0.000167883 0.312587)
(0.00160289 -0.000166864 0.310932)
(0.00199736 -0.000441147 0.306599)
(0.00348686 -0.000180233 0.285988)
(1.16242e-06 -0.000145958 0.244633)
(-0.00285894 -0.000284473 0.302941)
(-0.001831 -0.000614435 0.325434)
(-0.00144505 -0.000293843 0.330741)
(-0.000764163 -0.000290735 0.332619)
(-3.29205e-07 -0.00026846 0.333041)
(0.000764547 -0.000290739 0.332618)
(0.00144489 -0.000293828 0.330741)
(0.00183192 -0.000614506 0.325439)
(0.00286046 -0.00028491 0.302955)
(8.87625e-07 -0.000345717 0.266152)
(-0.00227865 -0.000365744 0.317741)
(-0.00162711 -0.000756781 0.34047)
(-0.00127307 -0.000418004 0.346483)
(-0.000687073 -0.000405721 0.348543)
(-3.81888e-07 -0.000384679 0.349035)
(0.000687312 -0.000405755 0.348542)
(0.00127298 -0.000418037 0.346483)
(0.00162809 -0.0007569 0.340475)
(0.00228014 -0.000366237 0.317754)
(6.48464e-07 -0.000466054 0.289205)
(-0.00177334 -0.000411592 0.330556)
(-0.00142298 -0.000864234 0.351808)
(-0.0011094 -0.00053681 0.358227)
(-0.000614395 -0.000510177 0.360421)
(-4.49422e-07 -0.000489832 0.360971)
(0.000614453 -0.000510263 0.36042)
(0.00110936 -0.000536925 0.358227)
(0.001424 -0.000864398 0.351812)
(0.0017748 -0.000412106 0.330567)
(4.74199e-07 -0.000451997 0.310552)
(-0.00132963 -0.00043593 0.34066)
(-0.00122511 -0.000928536 0.358849)
(-0.000953908 -0.00063516 0.36514)
(-0.000547759 -0.000590649 0.367373)
(-4.75014e-07 -0.000568542 0.367974)
(0.000547699 -0.000590814 0.367372)
(0.000953913 -0.000635395 0.36514)
(0.00122613 -0.000928734 0.358852)
(0.00133107 -0.00043644 0.340668)
(3.60375e-07 -0.000352602 0.32669)
(-0.000928036 -0.000457633 0.346904)
(-0.00103162 -0.000941805 0.360732)
(-0.000804422 -0.000682435 0.366169)
(-0.000485849 -0.000618885 0.368308)
(-3.90687e-07 -0.000590833 0.368945)
(0.000485849 -0.000619141 0.368307)
(0.000804471 -0.000682799 0.366168)
(0.00103256 -0.000942003 0.360734)
(0.000929434 -0.000458117 0.34691)
(3.76794e-07 2.27713e-05 0.08823)
(0.000549977 4.1116e-05 0.07689)
(0.000451098 5.34964e-06 0.0807154)
(0.000348352 -6.53243e-06 0.0837845)
(0.000282238 -8.66737e-06 0.0860941)
(3.13003e-07 -1.47883e-05 0.0868726)
(-0.000281868 -8.66302e-06 0.0860937)
(-0.00034827 -6.53691e-06 0.0837842)
(-0.000451297 5.32442e-06 0.080718)
(-0.000549725 4.10761e-05 0.0768953)
(2.08217e-07 -0.000254053 0.186536)
(0.000902763 7.93165e-05 0.174722)
(0.0012189 1.34756e-05 0.180911)
(0.000689123 -8.25463e-06 0.185387)
(0.000520931 -1.99356e-05 0.188731)
(7.73871e-07 -2.7391e-05 0.189787)
(-0.000519803 -1.99095e-05 0.18873)
(-0.000688412 -8.2307e-06 0.185387)
(-0.00121901 1.34272e-05 0.180914)
(-0.000902813 7.92318e-05 0.17473)
(2.87286e-08 -0.000424075 0.239233)
(0.00070707 0.000119086 0.233589)
(0.00134186 5.2516e-05 0.24139)
(0.000694445 5.14163e-05 0.246298)
(0.000520999 2.60437e-05 0.250015)
(9.98257e-07 1.9912e-05 0.251158)
(-0.000519436 2.6104e-05 0.250015)
(-0.00069334 5.14996e-05 0.246297)
(-0.00134186 5.24974e-05 0.241394)
(-0.000707381 0.000119011 0.2336)
(-3.50289e-08 -0.000658437 0.271631)
(0.000332476 0.000179867 0.270188)
(0.00113349 8.92498e-05 0.279571)
(0.000571405 0.000124967 0.285118)
(0.000445288 8.7819e-05 0.289123)
(1.09587e-06 8.48627e-05 0.290364)
(-0.000443508 8.79231e-05 0.289122)
(-0.000570116 0.00012513 0.285118)
(-0.00113338 8.92998e-05 0.279575)
(-0.000332875 0.000179817 0.270199)
(-1.20216e-08 -0.000495648 0.294559)
(-9.419e-06 0.00022189 0.295595)
(0.000899279 0.000116341 0.306555)
(0.000459409 0.000206306 0.312901)
(0.000377229 0.000158345 0.317125)
(1.12762e-06 0.000161434 0.318461)
(-0.000375354 0.000158498 0.317124)
(-0.000458041 0.000206566 0.312901)
(-0.000899054 0.000116482 0.30656)
(9.07039e-06 0.000221881 0.295606)
(6.80788e-08 -0.000406719 0.312353)
(-0.000163773 0.000260586 0.314995)
(0.00074607 0.00012642 0.327202)
(0.000398032 0.000285719 0.334309)
(0.000337135 0.000229668 0.338706)
(1.11318e-06 0.000238912 0.340123)
(-0.000335252 0.000229875 0.338706)
(-0.000396638 0.000286089 0.334309)
(-0.00074571 0.000126664 0.327208)
(0.000163572 0.000260617 0.315005)
(1.92393e-07 -0.000295515 0.326936)
(-0.000151235 0.000305306 0.33109)
(0.000674105 0.000136913 0.343662)
(0.000379575 0.000364905 0.351311)
(0.00031905 0.000305485 0.355855)
(1.05249e-06 0.000319126 0.357335)
(-0.000317242 0.000305746 0.355855)
(-0.000378194 0.000365384 0.351312)
(-0.000673588 0.000137256 0.343668)
(0.000151266 0.000305362 0.331099)
(3.4146e-07 -0.000202479 0.339474)
(-5.84881e-05 0.000366655 0.344919)
(0.000647549 0.00016448 0.356888)
(0.000382962 0.000446105 0.364775)
(0.000310183 0.000388106 0.369447)
(9.37985e-07 0.000402862 0.370979)
(-0.000308541 0.000388416 0.369447)
(-0.000381629 0.000446676 0.364777)
(-0.000646852 0.000164896 0.356894)
(5.88167e-05 0.000366669 0.344928)
(4.89628e-07 -0.000151297 0.350639)
(4.281e-05 0.000451213 0.356482)
(0.000638464 0.000211415 0.367254)
(0.00039456 0.000516706 0.375149)
(0.000302178 0.000464344 0.37993)
(7.60859e-07 0.000475665 0.381504)
(-0.000300806 0.000464689 0.379931)
(-0.000393306 0.000517322 0.375151)
(-0.000637573 0.000211855 0.36726)
(-4.21542e-05 0.000451163 0.35649)
(5.86847e-07 -9.45555e-05 0.359998)
(0.000126845 0.000547365 0.365114)
(0.000634712 0.000259074 0.374685)
(0.000409949 0.000546225 0.382507)
(0.000292421 0.000500823 0.387388)
(5.23262e-07 0.00050434 0.388991)
(-0.000291419 0.000501173 0.387389)
(-0.000408794 0.000546802 0.38251)
(-0.000633599 0.000259465 0.374691)
(-0.000125881 0.000547225 0.36512)
(1.71397e-07 -8.86982e-05 0.0548226)
(0.000316967 6.77183e-05 0.0811547)
(0.001416 0.000115274 0.0879416)
(0.000886619 0.000112207 0.0891927)
(0.000421288 0.000105248 0.0901528)
(8.76908e-08 0.000106044 0.0903304)
(-0.000420814 0.000105253 0.0901518)
(-0.000886508 0.00011221 0.0891922)
(-0.00141593 0.000115304 0.0879422)
(-0.000316942 6.77037e-05 0.0811601)
(1.20489e-06 0.00110024 0.142776)
(-0.00218223 0.000180678 0.181883)
(-0.000564743 0.000173275 0.191296)
(-0.000351543 0.000176487 0.192496)
(-0.000166236 0.000156608 0.193518)
(-8.73926e-08 0.000158627 0.193656)
(0.000166726 0.000156629 0.193517)
(0.000351162 0.000176495 0.192495)
(0.000565014 0.000173307 0.191297)
(0.00218312 0.000180521 0.18189)
(1.76598e-06 0.000184376 0.185734)
(-0.00307587 0.000278192 0.234411)
(-0.00138859 0.000109398 0.24765)
(-0.000904956 0.000121709 0.249848)