-0.0075 	0 	0 	0
-0.0075 	-1.60064e-35 	-1.25395e-36 	1.8505e-31
-0.00745622 	-1.31482e-06 	-1.03004e-07 	0.0152007
-0.00745622 	-1.31482e-06 	-1.03004e-07 	0.0152007
-0.00741165 	-1.84492e-06 	-5.50292e-07 	0.0296096
-0.00741165 	-1.84492e-06 	-5.50292e-07 	0.0296096
-0.00736628 	-2.21951e-06 	-1.364e-06 	0.0433168
-0.00736628 	-2.21951e-06 	-1.364e-06 	0.0433168
-0.0073201 	-2.72467e-06 	-2.58537e-06 	0.0563481
-0.0073201 	-2.72467e-06 	-2.58537e-06 	0.0563481
-0.00727309 	-3.30191e-06 	-4.19675e-06 	0.0687284
-0.00727309 	-3.30191e-06 	-4.19675e-06 	0.0687284
-0.00722524 	-3.86019e-06 	-6.21057e-06 	0.0804785
-0.00722524 	-3.86019e-06 	-6.21057e-06 	0.0804785
-0.00717653 	-4.36591e-06 	-8.63626e-06 	0.0916067
-0.00717653 	-4.36591e-06 	-8.63626e-06 	0.0916067
-0.00712695 	-4.80794e-06 	-1.14939e-05 	0.1021
-0.00712695 	-4.80794e-06 	-1.14939e-05 	0.1021
-0.00707647 	-5.18371e-06 	-1.482e-05 	0.111929
-0.00707647 	-5.18371e-06 	-1.482e-05 	0.111929
-0.0070251 	-5.49424e-06 	-1.86715e-05 	0.121067
-0.0070251 	-5.49424e-06 	-1.86715e-05 	0.121067
-0.0069728 	-5.74231e-06 	-2.31195e-05 	0.129505
-0.0069728 	-5.74231e-06 	-2.31195e-05 	0.129505
-0.00691956 	-5.93164e-06 	-2.8237e-05 	0.137264
-0.00691956 	-5.93164e-06 	-2.8237e-05 	0.137264
-0.00686537 	-6.06639e-06 	-3.40889e-05 	0.144381
-0.00686537 	-6.06639e-06 	-3.40889e-05 	0.144381
-0.00681021 	-6.15084e-06 	-4.07402e-05 	0.150913
-0.00681021 	-6.15084e-06 	-4.07402e-05 	0.150913
-0.00675406 	-6.18909e-06 	-4.82596e-05 	0.156921
-0.00675406 	-6.18909e-06 	-4.82596e-05 	0.156921
-0.0066969 	-6.18448e-06 	-5.67098e-05 	0.162459
-0.0066969 	-6.18448e-06 	-5.67098e-05 	0.162459
-0.00663871 	-6.14001e-06 	-6.61334e-05 	0.167574
-0.00663871 	-6.14001e-06 	-6.61334e-05 	0.167574
-0.00657949 	-6.05924e-06 	-7.65333e-05 	0.172308
-0.00657949 	-6.05924e-06 	-7.65333e-05 	0.172308
-0.0065192 	-5.94613e-06 	-8.78758e-05 	0.176702
-0.0065192 	-5.94613e-06 	-8.78758e-05 	0.176702
-0.00645783 	-5.80441e-06 	-0.000100111 	0.180797
-0.00645783 	-5.80441e-06 	-0.000100111 	0.180797
-0.00639535 	-5.63731e-06 	-0.000113188 	0.184634
-0.00639535 	-5.63731e-06 	-0.000113188 	0.184634
-0.00633176 	-5.44738e-06 	-0.000127053 	0.188244
-0.00633176 	-5.44738e-06 	-0.000127053 	0.188244
-0.00626703 	-5.2368e-06 	-0.000141652 	0.191654
-0.00626703 	-5.2368e-06 	-0.000141652 	0.191654
-0.00620114 	-5.00762e-06 	-0.000156927 	0.194888
-0.00620114 	-5.00762e-06 	-0.000156927 	0.194888
-0.00613406 	-4.76171e-06 	-0.000172819 	0.197966
-0.00613406 	-4.76171e-06 	-0.000172819 	0.197966
-0.00606579 	-4.50096e-06 	-0.000189266 	0.200906
-0.00606579 	-4.50096e-06 	-0.000189266 	0.200906
-0.00599629 	-4.22726e-06 	-0.000206202 	0.203725
-0.00599629 	-4.22726e-06 	-0.000206202 	0.203725
-0.00592554 	-3.94222e-06 	-0.000223559 	0.206437
-0.00592554 	-3.94222e-06 	-0.000223559 	0.206437
-0.00585352 	-3.64677e-06 	-0.00024126 	0.209059
-0.00585352 	-3.64677e-06 	-0.00024126 	0.209059
-0.00578022 	-3.34141e-06 	-0.000259217 	0.211601
-0.00578022 	-3.34141e-06 	-0.000259217 	0.211601
-0.00570559 	-3.02659e-06 	-0.00027733 	0.214074
-0.00570559 	-3.02659e-06 	-0.00027733 	0.214074
-0.00562963 	-2.70287e-06 	-0.000295502 	0.216486
-0.00562963 	-2.70287e-06 	-0.000295502 	0.216486
-0.00555231 	-2.37087e-06 	-0.000313632 	0.218843
-0.00555231 	-2.37087e-06 	-0.000313632 	0.218843
-0.0054736 	-2.03115e-06 	-0.000331617 	0.221152
-0.0054736 	-2.03115e-06 	-0.000331617 	0.221152
-0.00539348 	-1.68425e-06 	-0.000349355 	0.223416
-0.00539348 	-1.68425e-06 	-0.000349355 	0.223416
-0.00531193 	-1.33061e-06 	-0.000366741 	0.22564
-0.00531193 	-1.33061e-06 	-0.000366741 	0.22564
-0.00522891 	-9.70609e-07 	-0.000383674 	0.227827
-0.00522891 	-9.70609e-07 	-0.000383674 	0.227827
-0.0051444 	-6.04543e-07 	-0.000400055 	0.229978
-0.0051444 	-6.04543e-07 	-0.000400055 	0.229978
-0.00505838 	-2.32624e-07 	-0.000415787 	0.232094
-0.00505838 	-2.32624e-07 	-0.000415787 	0.232094
-0.00497081 	1.45049e-07 	-0.000430781 	0.234177
-0.00497081 	1.45049e-07 	-0.000430781 	0.234177
-0.00488168 	5.28473e-07 	-0.000444952 	0.236227
-0.00488168 	5.28473e-07 	-0.000444952 	0.236227
-0.00479094 	9.17715e-07 	-0.000458221 	0.238242
-0.00479094 	9.17715e-07 	-0.000458221 	0.238242
-0.00469858 	1.31288e-06 	-0.00047051 	0.240221
-0.00469858 	1.31288e-06 	-0.00047051 	0.240221
-0.00460456 	1.71413e-06 	-0.000481751 	0.242163
-0.00460456 	1.71413e-06 	-0.000481751 	0.242163
-0.00450886 	2.12179e-06 	-0.000491895 	0.244066
-0.00450886 	2.12179e-06 	-0.000491895 	0.244066
-0.00441144 	2.53646e-06 	-0.000500924 	0.245928
-0.00441144 	2.53646e-06 	-0.000500924 	0.245928
-0.00431227 	2.9591e-06 	-0.000508851 	0.247748
-0.00431227 	2.9591e-06 	-0.000508851 	0.247748
-0.00421133 	3.39108e-06 	-0.000515721 	0.249524
-0.00421133 	3.39108e-06 	-0.000515721 	0.249524
-0.00410857 	3.83353e-06 	-0.000521601 	0.251253
-0.00410857 	3.83353e-06 	-0.000521601 	0.251253
-0.00400397 	4.28627e-06 	-0.000526575 	0.252934
-0.00400397 	4.28627e-06 	-0.000526575 	0.252934
-0.0038975 	4.74783e-06 	-0.000530734 	0.254565
-0.0038975 	4.74783e-06 	-0.000530734 	0.254565
-0.00378912 	5.21717e-06 	-0.000534162 	0.25615
-0.00378912 	5.21717e-06 	-0.000534162 	0.25615
-0.00367879 	5.69497e-06 	-0.00053693 	0.257691
-0.00367879 	5.69497e-06 	-0.00053693 	0.257691
-0.00356649 	6.18274e-06 	-0.0005391 	0.259188
-0.00356649 	6.18274e-06 	-0.0005391 	0.259188
-0.00345217 	6.68096e-06 	-0.000540725 	0.260638
-0.00345217 	6.68096e-06 	-0.000540725 	0.260638
-0.0033358 	7.18873e-06 	-0.000541866 	0.26204
-0.0033358 	7.18873e-06 	-0.000541866 	0.26204
-0.00321735 	7.7046e-06 	-0.000542587 	0.263391
-0.00321735 	7.7046e-06 	-0.000542587 	0.263391
-0.00309677 	8.22698e-06 	-0.000542956 	0.264689
-0.00309677 	8.22698e-06 	-0.000542956 	0.264689
-0.00297403 	8.75408e-06 	-0.000543046 	0.265931
-0.00297403 	8.75408e-06 	-0.000543046 	0.265931
-0.00284909 	9.28387e-06 	-0.000542932 	0.267115
-0.00284909 	9.28387e-06 	-0.000542932 	0.267115
-0.0027219 	9.81414e-06 	-0.000542693 	0.268238
-0.0027219 	9.81414e-06 	-0.000542693 	0.268238
-0.00259244 	1.03426e-05 	-0.000542401 	0.269298
-0.00259244 	1.03426e-05 	-0.000542401 	0.269298
-0.00246065 	1.08666e-05 	-0.000542126 	0.270292
-0.00246065 	1.08666e-05 	-0.000542126 	0.270292
-0.00232651 	1.13835e-05 	-0.00054193 	0.271218
-0.00232651 	1.13835e-05 	-0.00054193 	0.271218
-0.00218995 	1.18903e-05 	-0.000541865 	0.272074
-0.00218995 	1.18903e-05 	-0.000541865 	0.272074
-0.00205095 	1.2384e-05 	-0.00054197 	0.272858
-0.00205095 	1.2384e-05 	-0.00054197 	0.272858
-0.00190946 	1.28607e-05 	-0.000542271 	0.273569
-0.00190946 	1.28607e-05 	-0.000542271 	0.273569
-0.00176543 	1.33157e-05 	-0.000542778 	0.274206
-0.00176543 	1.33157e-05 	-0.000542778 	0.274206
-0.00161881 	1.37437e-05 	-0.000543481 	0.274767
-0.00161881 	1.37437e-05 	-0.000543481 	0.274767
-0.00146957 	1.41389e-05 	-0.000544353 	0.275253
-0.00146957 	1.41389e-05 	-0.000544353 	0.275253
-0.00131765 	1.44955e-05 	-0.000545351 	0.275665
-0.00131765 	1.44955e-05 	-0.000545351 	0.275665
-0.001163 	1.4807e-05 	-0.000546423 	0.276001
-0.001163 	1.4807e-05 	-0.000546423 	0.276001
-0.00100559 	1.50659e-05 	-0.000547508 	0.276262
-0.00100559 	1.50659e-05 	-0.000547508 	0.276262
-0.000845345 	1.52629e-05 	-0.000548607 	0.276447
-0.000845345 	1.52629e-05 	-0.000548607 	0.276447
-0.000682232 	1.5386e-05 	-0.000549616 	0.276554
-0.000682232 	1.5386e-05 	-0.000549616 	0.276554
-0.000516194 	1.54211e-05 	-0.000550407 	0.276584
-0.000516194 	1.54211e-05 	-0.000550407 	0.276584
-0.000347178 	1.53516e-05 	-0.000551011 	0.276532
-0.000347178 	1.53516e-05 	-0.000551011 	0.276532
-0.000175132 	1.51662e-05 	-0.000551192 	0.276398
-0.000175132 	1.51662e-05 	-0.000551192 	0.276398
0 	1.48611e-05 	-0.000550996 	0.276178
0 	1.48611e-05 	-0.000550996 	0.276178
0 	1.48611e-05 	-0.000550996 	0.276178
0 	1.48611e-05 	-0.000550996 	0.276178
0.000175132 	1.4437e-05 	-0.000550571 	0.275875
0.000175132 	1.94889e-05 	-0.000459918 	0.272611
0.000347178 	1.3907e-05 	-0.000549722 	0.275496
0.000347178 	2.05501e-05 	-0.000461105 	0.272295
0.000516194 	1.3284e-05 	-0.00054861 	0.275045
0.000516194 	2.14378e-05 	-0.000461977 	0.271902
0.000682232 	1.25805e-05 	-0.000547207 	0.274526
0.000682232 	2.21658e-05 	-0.000462474 	0.271435
0.000845345 	1.18154e-05 	-0.000545375 	0.273943
0.000845345 	2.27528e-05 	-0.000462606 	0.270899
0.00100559 	1.10046e-05 	-0.000543211 	0.273298
0.00100559 	2.32151e-05 	-0.000462385 	0.270297
0.001163 	1.01609e-05 	-0.000540733 	0.272594
0.001163 	2.35678e-05 	-0.000461811 	0.269633
0.00131765 	9.29479e-06 	-0.000537954 	0.271834
0.00131765 	2.38249e-05 	-0.000460892 	0.268909
0.00146957 	8.4153e-06 	-0.000534894 	0.271019
0.00146957 	2.39984e-05 	-0.00045964 	0.268128
0.00161881 	7.52994e-06 	-0.000531565 	0.270151
0.00161881 	2.40989e-05 	-0.000458067 	0.267293
0.00176543 	6.64498e-06 	-0.000527979 	0.269233
0.00176543 	2.41356e-05 	-0.000456178 	0.266404
0.00190946 	5.76567e-06 	-0.000524146 	0.268265
0.00190946 	2.41163e-05 	-0.000453982 	0.265465
0.00205095 	4.8963e-06 	-0.000520071 	0.267248
0.00205095 	2.40479e-05 	-0.000451483 	0.264475
0.00218995 	4.04044e-06 	-0.00051576 	0.266185
0.00218995 	2.39362e-05 	-0.000448685 	0.263437
0.00232651 	3.20104e-06 	-0.000511215 	0.265075
0.00232651 	2.3786e-05 	-0.00044559 	0.262352
0.00246065 	2.38054e-06 	-0.000506436 	0.26392
0.00246065 	2.36014e-05 	-0.000442198 	0.261221
0.00259244 	1.58092e-06 	-0.000501422 	0.26272
0.00259244 	2.33855e-05 	-0.000438504 	0.260043
0.0027219 	8.03733e-07 	-0.00049617 	0.261476
0.0027219 	2.31409e-05 	-0.000434503 	0.258821
0.00284909 	5.01967e-08 	-0.000490674 	0.260187
0.00284909 	2.28696e-05 	-0.000430188 	0.257554
0.00297403 	-6.78759e-07 	-0.000484929 	0.258855
0.00297403 	2.2573e-05 	-0.000425549 	0.256242
0.00309677 	-1.38245e-06 	-0.000478926 	0.257478
0.00309677 	2.22522e-05 	-0.000420573 	0.254886
0.00321735 	-2.06035e-06 	-0.000472657 	0.256057
0.00321735 	2.19077e-05 	-0.000415247 	0.253485
0.0033358 	-2.71208e-06 	-0.000466114 	0.254591
0.0033358 	2.154e-05 	-0.000409559 	0.252039
0.00345217 	2.11491e-05 	-0.000403503 	0.250547
0.00345217 	-3.3373e-06 	-0.000459288 	0.25308
0.00356649 	-3.93569e-06 	-0.000452173 	0.251523
0.00356649 	2.07348e-05 	-0.000397081 	0.249008
0.00367879 	-4.50699e-06 	-0.000444755 	0.249918
0.00367879 	2.02979e-05 	-0.000390285 	0.247423
0.00378912 	-5.05103e-06 	-0.000437012 	0.248265
0.00378912 	1.98403e-05 	-0.000383098 	0.245791
0.0038975 	-5.56761e-06 	-0.000428922 	0.246563
0.0038975 	1.93639e-05 	-0.000375495 	0.244112
0.00400397 	-6.05668e-06 	-0.000420443 	0.244807
0.00400397 	1.88695e-05 	-0.000367422 	0.24238
0.00410857 	1.83555e-05 	-0.000358774 	0.240582
0.00410857 	-6.51895e-06 	-0.000411511 	0.242992
0.00421133 	-6.95603e-06 	-0.00040205 	0.241111
0.00421133 	1.78181e-05 	-0.000349448 	0.238706
0.00431227 	-7.36978e-06 	-0.000391978 	0.239159
0.00431227 	1.72526e-05 	-0.000339368 	0.236746
0.00441144 	-7.7612e-06 	-0.000381229 	0.237129
0.00441144 	1.66554e-05 	-0.000328495 	0.234698
0.00450886 	-8.13007e-06 	-0.00036977 	0.235013
0.00450886 	1.6023e-05 	-0.000316835 	0.232559
0.00460456 	-8.4759e-06 	-0.0003576 	0.232806
0.00460456 	1.53522e-05 	-0.000304429 	0.230324
0.00469858 	-8.79854e-06 	-0.000344737 	0.230504
0.00469858 	1.46404e-05 	-0.000291327 	0.227989
0.00479094 	-9.09814e-06 	-0.000331205 	0.228103
0.00479094 	1.38849e-05 	-0.000277586 	0.22555
0.00488168 	-9.37485e-06 	-0.000317036 	0.225596
0.00488168 	1.30834e-05 	-0.000263266 	0.223004
0.00497081 	-9.62872e-06 	-0.000302265 	0.222981
0.00497081 	1.22336e-05 	-0.00024843 	0.220345
0.00505838 	-9.85972e-06 	-0.000286945 	0.220252
0.00505838 	1.1334e-05 	-0.000233154 	0.217571
0.0051444 	-1.00677e-05 	-0.00027114 	0.217406
0.0051444 	1.03831e-05 	-0.000217525 	0.214676
0.00522891 	-1.02525e-05 	-0.000254931 	0.21444
0.00522891 	9.38055e-06 	-0.000201644 	0.21166
0.00531193 	-1.04139e-05 	-0.000238414 	0.211349
0.00531193 	8.32646e-06 	-0.000185631 	0.208519
0.00539348 	-1.05514e-05 	-0.000221703 	0.208132
0.00539348 	7.22182e-06 	-0.000169617 	0.205251
0.0054736 	-1.06648e-05 	-0.000204921 	0.204784
0.0054736 	6.06834e-06 	-0.000153745 	0.201854
0.00555231 	-1.07535e-05 	-0.000188201 	0.201303
0.00555231 	4.8685e-06 	-0.000138158 	0.198327
0.00562963 	-1.08172e-05 	-0.000171676 	0.197683
0.00562963 	3.62545e-06 	-0.000123001 	0.194667
0.00570559 	-1.08553e-05 	-0.00015548 	0.193923
0.00570559 	2.34301e-06 	-0.000108406 	0.190871
0.00578022 	-1.08673e-05 	-0.000139738 	0.190015
0.00578022 	1.02571e-06 	-9.4494e-05 	0.186936
0.00585352 	-1.08523e-05 	-0.000124567 	0.185955
0.00585352 	-3.21166e-07 	-8.13693e-05 	0.182856
0.00592554 	-1.08098e-05 	-0.000110071 	0.181736
0.00592554 	-1.69157e-06 	-6.91162e-05 	0.178626
0.00599629 	-1.07391e-05 	-9.63397e-05 	0.17735
0.00599629 	-3.07862e-06 	-5.77982e-05 	0.17424
0.00606579 	-1.06395e-05 	-8.34463e-05 	0.172789
0.00606579 	-4.47458e-06 	-4.7459e-05 	0.169689
0.00613406 	-1.05107e-05 	-7.14542e-05 	0.168041
0.00613406 	-5.87088e-06 	-3.81236e-05 	0.16496
0.00620114 	-7.25828e-06 	-2.97997e-05 	0.160038
0.00620114 	-1.0352e-05 	-6.04121e-05 	0.16309
0.00626703 	-1.01624e-05 	-5.03559e-05 	0.157919
0.00626703 	-8.62627e-06 	-2.24832e-05 	0.154905
0.00633176 	-9.96184e-06 	-1.61612e-05 	0.149546
0.00633176 	-9.94057e-06 	-4.13144e-05 	0.152511
0.00639535 	-1.12495e-05 	-1.08052e-05 	0.143945
0.00639535 	-9.68567e-06 	-3.33002e-05 	0.14685
0.00645783 	-9.39722e-06 	-2.63046e-05 	0.140921
0.00645783 	-1.2472e-05 	-6.36967e-06 	0.138086
0.0065192 	-9.07494e-06 	-2.03034e-05 	0.134705
0.0065192 	-1.36098e-05 	-2.79633e-06 	0.13195
0.00657949 	-8.71868e-06 	-1.5259e-05 	0.128187
0.00657949 	-1.46412e-05 	-1.77864e-08 	0.125521
0.00663871 	-8.32934e-06 	-1.11201e-05 	0.121349
0.00663871 	-1.55428e-05 	2.04043e-06 	0.118782
0.0066969 	-7.90918e-06 	-7.80931e-06 	0.114174
0.0066969 	-1.62896e-05 	3.46212e-06 	0.11171
0.00675406 	-1.68559e-05 	4.33681e-06 	0.104272
0.00675406 	-7.4598e-06 	-5.23432e-06 	0.106629
0.00681021 	-1.72134e-05 	4.75561e-06 	0.0964402
0.00681021 	-6.98111e-06 	-3.2938e-06 	0.0986804
0.00686537 	-1.73312e-05 	4.80751e-06 	0.0882287
0.00686537 	-6.47388e-06 	-1.89262e-06 	0.090336
0.00691956 	-1.71808e-05 	4.5794e-06 	0.0797042
0.00691956 	-5.9415e-06 	-9.47497e-07 	0.08166
0.0069728 	-1.67431e-05 	4.15667e-06 	0.070984
0.0069728 	-5.38969e-06 	-3.67003e-07 	0.0727695
0.0070251 	-4.82509e-06 	-5.67681e-08 	0.063833
0.0070251 	-1.60156e-05 	3.61894e-06 	0.0622332
0.00707647 	-4.2539e-06 	7.35627e-08 	0.0550513
0.00707647 	-1.50146e-05 	3.0351e-06 	0.0536463
0.00712695 	-3.68179e-06 	1.0014e-07 	0.0466227
0.00712695 	-1.37752e-05 	2.45735e-06 	0.0454126
0.00717653 	-3.11458e-06 	7.83176e-08 	0.0387039
0.00717653 	-1.23445e-05 	1.91922e-06 	0.0376815
0.00722524 	-2.5601e-06 	4.12308e-08 	0.0313881
0.00722524 	-1.07727e-05 	1.43767e-06 	0.0305415
0.00727309 	-9.10765e-06 	1.01956e-06 	0.0240238
0.00727309 	-2.03178e-06 	5.09343e-09 	0.0247077
0.0073201 	-7.39454e-06 	6.68897e-07 	0.0181202
0.0073201 	-1.55495e-06 	-2.21347e-08 	0.0186538
0.00736628 	-5.68138e-06 	3.75193e-07 	0.0128022
0.00736628 	-1.17778e-06 	-4.47935e-08 	0.0131965
0.00741165 	-8.99219e-07 	-4.14153e-08 	0.00829715
0.00741165 	-3.94951e-06 	1.74281e-07 	0.00803224
0.00745622 	-5.67429e-07 	-2.73648e-08 	0.00391617
0.00745622 	-2.07355e-06 	4.88468e-08 	0.00377152
0.0075 	0 	0 	0
0.0075 	0 	0 	0
