-0.0075 	0 	0 	0
-0.0075 	4.94968e-36 	-1.23576e-36 	1.86195e-31
-0.00745622 	4.06585e-07 	-1.0151e-07 	0.0152948
-0.00745622 	4.06585e-07 	-1.0151e-07 	0.0152948
-0.00741165 	1.64615e-06 	-5.24661e-07 	0.0297593
-0.00741165 	1.64615e-06 	-5.24661e-07 	0.0297593
-0.00736628 	3.15414e-06 	-1.31956e-06 	0.0434864
-0.00736628 	3.15414e-06 	-1.31956e-06 	0.0434864
-0.0073201 	4.6021e-06 	-2.54427e-06 	0.0565048
-0.0073201 	4.6021e-06 	-2.54427e-06 	0.0565048
-0.00727309 	5.97531e-06 	-4.1855e-06 	0.0688444
-0.00727309 	5.97531e-06 	-4.1855e-06 	0.0688444
-0.00722524 	7.3151e-06 	-6.25995e-06 	0.0805333
-0.00722524 	7.3151e-06 	-6.25995e-06 	0.0805333
-0.00717653 	8.63091e-06 	-8.77647e-06 	0.0915895
-0.00717653 	8.63091e-06 	-8.77647e-06 	0.0915895
-0.00712695 	9.92042e-06 	-1.1754e-05 	0.10201
-0.00712695 	9.92042e-06 	-1.1754e-05 	0.10201
-0.00707647 	1.11755e-05 	-1.52278e-05 	0.111772
-0.00707647 	1.11755e-05 	-1.52278e-05 	0.111772
-0.0070251 	1.23858e-05 	-1.92536e-05 	0.120853
-0.0070251 	1.23858e-05 	-1.92536e-05 	0.120853
-0.0069728 	1.35426e-05 	-2.39033e-05 	0.129248
-0.0069728 	1.35426e-05 	-2.39033e-05 	0.129248
-0.00691956 	1.46403e-05 	-2.92522e-05 	0.136972
-0.00691956 	1.46403e-05 	-2.92522e-05 	0.136972
-0.00686537 	1.56769e-05 	-3.53669e-05 	0.144064
-0.00686537 	1.56769e-05 	-3.53669e-05 	0.144064
-0.00681021 	1.66541e-05 	-4.23072e-05 	0.150574
-0.00681021 	1.66541e-05 	-4.23072e-05 	0.150574
-0.00675406 	1.75756e-05 	-5.0138e-05 	0.156562
-0.00675406 	1.75756e-05 	-5.0138e-05 	0.156562
-0.0066969 	1.84464e-05 	-5.89223e-05 	0.162082
-0.0066969 	1.84464e-05 	-5.89223e-05 	0.162082
-0.00663871 	1.92705e-05 	-6.87056e-05 	0.16718
-0.00663871 	1.92705e-05 	-6.87056e-05 	0.16718
-0.00657949 	2.00518e-05 	-7.94969e-05 	0.171899
-0.00657949 	2.00518e-05 	-7.94969e-05 	0.171899
-0.0065192 	2.0794e-05 	-9.12661e-05 	0.17628
-0.0065192 	2.0794e-05 	-9.12661e-05 	0.17628
-0.00645783 	2.15013e-05 	-0.000103965 	0.180366
-0.00645783 	2.15013e-05 	-0.000103965 	0.180366
-0.00639535 	2.21779e-05 	-0.000117543 	0.184194
-0.00639535 	2.21779e-05 	-0.000117543 	0.184194
-0.00633176 	2.28273e-05 	-0.000131947 	0.187796
-0.00633176 	2.28273e-05 	-0.000131947 	0.187796
-0.00626703 	2.34525e-05 	-0.000147124 	0.191198
-0.00626703 	2.34525e-05 	-0.000147124 	0.191198
-0.00620114 	2.40562e-05 	-0.000163014 	0.194423
-0.00620114 	2.40562e-05 	-0.000163014 	0.194423
-0.00613406 	2.46411e-05 	-0.000179557 	0.197493
-0.00613406 	2.46411e-05 	-0.000179557 	0.197493
-0.00606579 	2.5209e-05 	-0.000196692 	0.200425
-0.00606579 	2.5209e-05 	-0.000196692 	0.200425
-0.00599629 	2.57616e-05 	-0.000214352 	0.203235
-0.00599629 	2.57616e-05 	-0.000214352 	0.203235
-0.00592554 	2.63005e-05 	-0.000232467 	0.205939
-0.00592554 	2.63005e-05 	-0.000232467 	0.205939
-0.00585352 	2.68277e-05 	-0.000250962 	0.208551
-0.00585352 	2.68277e-05 	-0.000250962 	0.208551
-0.00578022 	2.73457e-05 	-0.00026975 	0.211085
-0.00578022 	2.73457e-05 	-0.00026975 	0.211085
-0.00570559 	2.78566e-05 	-0.00028873 	0.213551
-0.00570559 	2.78566e-05 	-0.00028873 	0.213551
-0.00562963 	2.83621e-05 	-0.000307798 	0.215956
-0.00562963 	2.83621e-05 	-0.000307798 	0.215956
-0.00555231 	2.88636e-05 	-0.000326853 	0.218308
-0.00555231 	2.88636e-05 	-0.000326853 	0.218308
-0.0054736 	2.93624e-05 	-0.000345788 	0.220613
-0.0054736 	2.93624e-05 	-0.000345788 	0.220613
-0.00539348 	2.98596e-05 	-0.000364497 	0.222874
-0.00539348 	2.98596e-05 	-0.000364497 	0.222874
-0.00531193 	3.03561e-05 	-0.000382872 	0.225097
-0.00531193 	3.03561e-05 	-0.000382872 	0.225097
-0.00522891 	3.08531e-05 	-0.000400808 	0.227284
-0.00522891 	3.08531e-05 	-0.000400808 	0.227284
-0.0051444 	3.13512e-05 	-0.000418198 	0.229436
-0.0051444 	3.13512e-05 	-0.000418198 	0.229436
-0.00505838 	3.18513e-05 	-0.00043494 	0.231557
-0.00505838 	3.18513e-05 	-0.00043494 	0.231557
-0.00497081 	3.23541e-05 	-0.000450937 	0.233646
-0.00497081 	3.23541e-05 	-0.000450937 	0.233646
-0.00488168 	3.28603e-05 	-0.000466095 	0.235703
-0.00488168 	3.28603e-05 	-0.000466095 	0.235703
-0.00479094 	3.33706e-05 	-0.000480326 	0.237727
-0.00479094 	3.33706e-05 	-0.000480326 	0.237727
-0.00469858 	3.38854e-05 	-0.000493543 	0.239719
-0.00469858 	3.38854e-05 	-0.000493543 	0.239719
-0.00460456 	3.44052e-05 	-0.00050567 	0.241675
-0.00460456 	3.44052e-05 	-0.00050567 	0.241675
-0.00450886 	3.49304e-05 	-0.000516644 	0.243594
-0.00450886 	3.49304e-05 	-0.000516644 	0.243594
-0.00441144 	3.54614e-05 	-0.000526437 	0.245475
-0.00441144 	3.54614e-05 	-0.000526437 	0.245475
-0.00431227 	3.5999e-05 	-0.000535052 	0.247316
-0.00431227 	3.5999e-05 	-0.000535052 	0.247316
-0.00421133 	3.65439e-05 	-0.000542523 	0.249115
-0.00421133 	3.65439e-05 	-0.000542523 	0.249115
-0.00410857 	3.70969e-05 	-0.00054891 	0.250869
-0.00410857 	3.70969e-05 	-0.00054891 	0.250869
-0.00400397 	3.76575e-05 	-0.000554288 	0.252576
-0.00400397 	3.76575e-05 	-0.000554288 	0.252576
-0.0038975 	3.82237e-05 	-0.00055875 	0.254235
-0.0038975 	3.82237e-05 	-0.00055875 	0.254235
-0.00378912 	3.87938e-05 	-0.000562383 	0.255847
-0.00378912 	3.87938e-05 	-0.000562383 	0.255847
-0.00367879 	3.93681e-05 	-0.000565262 	0.257416
-0.00367879 	3.93681e-05 	-0.000565262 	0.257416
-0.00356649 	3.9948e-05 	-0.000567453 	0.258941
-0.00356649 	3.9948e-05 	-0.000567453 	0.258941
-0.00345217 	4.0534e-05 	-0.000569013 	0.260421
-0.00345217 	4.0534e-05 	-0.000569013 	0.260421
-0.0033358 	4.11253e-05 	-0.000570004 	0.261852
-0.0033358 	4.11253e-05 	-0.000570004 	0.261852
-0.00321735 	4.17203e-05 	-0.000570493 	0.263233
-0.00321735 	4.17203e-05 	-0.000570493 	0.263233
-0.00309677 	4.23168e-05 	-0.000570557 	0.26456
-0.00309677 	4.23168e-05 	-0.000570557 	0.26456
-0.00297403 	4.29128e-05 	-0.000570273 	0.265831
-0.00297403 	4.29128e-05 	-0.000570273 	0.265831
-0.00284909 	4.35056e-05 	-0.000569725 	0.267043
-0.00284909 	4.35056e-05 	-0.000569725 	0.267043
-0.0027219 	4.40926e-05 	-0.000568998 	0.268193
-0.0027219 	4.40926e-05 	-0.000568998 	0.268193
-0.00259244 	4.46709e-05 	-0.000568174 	0.26928
-0.00259244 	4.46709e-05 	-0.000568174 	0.26928
-0.00246065 	4.52373e-05 	-0.000567332 	0.270299
-0.00246065 	4.52373e-05 	-0.000567332 	0.270299
-0.00232651 	4.57887e-05 	-0.000566543 	0.271248
-0.00232651 	4.57887e-05 	-0.000566543 	0.271248
-0.00218995 	4.63215e-05 	-0.000565863 	0.272126
-0.00218995 	4.63215e-05 	-0.000565863 	0.272126
-0.00205095 	4.68319e-05 	-0.000565341 	0.27293
-0.00205095 	4.68319e-05 	-0.000565341 	0.27293
-0.00190946 	4.73153e-05 	-0.000565005 	0.273659
-0.00190946 	4.73153e-05 	-0.000565005 	0.273659
-0.00176543 	4.77664e-05 	-0.00056487 	0.274312
-0.00176543 	4.77664e-05 	-0.00056487 	0.274312
-0.00161881 	4.81788e-05 	-0.00056493 	0.274888
-0.00161881 	4.81788e-05 	-0.00056493 	0.274888
-0.00146957 	4.85456e-05 	-0.00056516 	0.275387
-0.00146957 	4.85456e-05 	-0.00056516 	0.275387
-0.00131765 	4.886e-05 	-0.000565517 	0.275809
-0.00131765 	4.886e-05 	-0.000565517 	0.275809
-0.001163 	4.91152e-05 	-0.000565945 	0.276154
-0.001163 	4.91152e-05 	-0.000565945 	0.276154
-0.00100559 	4.93036e-05 	-0.000566381 	0.276423
-0.00100559 	4.93036e-05 	-0.000566381 	0.276423
-0.000845345 	4.94162e-05 	-0.000566818 	0.276614
-0.000845345 	4.94162e-05 	-0.000566818 	0.276614
-0.000682232 	4.94421e-05 	-0.00056715 	0.276727
-0.000682232 	4.94421e-05 	-0.00056715 	0.276727
-0.000516194 	4.93697e-05 	-0.000567247 	0.27676
-0.000516194 	4.93697e-05 	-0.000567247 	0.27676
-0.000347178 	4.9187e-05 	-0.000567134 	0.276712
-0.000347178 	4.9187e-05 	-0.000567134 	0.276712
-0.000175132 	4.88889e-05 	-0.000566584 	0.276579
-0.000175132 	4.88889e-05 	-0.000566584 	0.276579
0 	4.84781e-05 	-0.000565643 	0.276359
0 	4.84781e-05 	-0.000565643 	0.276359
0 	4.84781e-05 	-0.000565643 	0.276359
0 	4.84781e-05 	-0.000565643 	0.276359
0.000175132 	4.79588e-05 	-0.000564469 	0.276056
0.000175132 	5.38552e-05 	-0.000487775 	0.272053
0.000347178 	4.7343e-05 	-0.000562896 	0.275674
0.000347178 	5.4918e-05 	-0.000487935 	0.271749
0.000516194 	4.66383e-05 	-0.000561081 	0.27522
0.000516194 	5.58025e-05 	-0.000487811 	0.271365
0.000682232 	4.58516e-05 	-0.000559002 	0.274697
0.000682232 	5.65226e-05 	-0.000487349 	0.270904
0.000845345 	4.4998e-05 	-0.000556528 	0.274109
0.000845345 	5.70972e-05 	-0.000486572 	0.270372
0.00100559 	4.40916e-05 	-0.000553751 	0.273458
0.00100559 	5.75421e-05 	-0.000485483 	0.269773
0.001163 	4.31446e-05 	-0.000550688 	0.272747
0.001163 	5.78724e-05 	-0.000484082 	0.269109
0.00131765 	4.21679e-05 	-0.000547356 	0.271979
0.00131765 	5.81017e-05 	-0.000482373 	0.268384
0.00146957 	4.11711e-05 	-0.000543771 	0.271156
0.00146957 	5.82421e-05 	-0.000480367 	0.267601
0.00161881 	4.01625e-05 	-0.000539948 	0.270279
0.00161881 	5.83038e-05 	-0.000478073 	0.266762
0.00176543 	3.91489e-05 	-0.000535897 	0.269351
0.00176543 	5.82958e-05 	-0.000475498 	0.265868
0.00190946 	3.81364e-05 	-0.000531626 	0.268373
0.00190946 	5.82258e-05 	-0.000472647 	0.264922
0.00205095 	3.71299e-05 	-0.000527142 	0.267346
0.00205095 	5.81006e-05 	-0.000469524 	0.263926
0.00218995 	3.61338e-05 	-0.000522449 	0.266272
0.00218995 	5.7926e-05 	-0.000466132 	0.26288
0.00232651 	3.51516e-05 	-0.00051755 	0.265151
0.00232651 	5.77071e-05 	-0.00046247 	0.261785
0.00246065 	3.41863e-05 	-0.000512445 	0.263984
0.00246065 	5.7448e-05 	-0.000458537 	0.260644
0.00259244 	3.32405e-05 	-0.000507132 	0.262771
0.00259244 	5.71524e-05 	-0.00045433 	0.259455
0.0027219 	3.23163e-05 	-0.000501605 	0.261514
0.0027219 	5.68232e-05 	-0.000449842 	0.258221
0.00284909 	3.14153e-05 	-0.000495861 	0.260212
0.00284909 	5.64628e-05 	-0.000445066 	0.256941
0.00297403 	3.05392e-05 	-0.000489891 	0.258866
0.00297403 	5.60731e-05 	-0.000439988 	0.255617
0.00309677 	2.96888e-05 	-0.000483687 	0.257476
0.00309677 	5.56556e-05 	-0.000434598 	0.254247
0.00321735 	2.88651e-05 	-0.000477239 	0.25604
0.00321735 	5.52114e-05 	-0.000428882 	0.252832
0.0033358 	2.80688e-05 	-0.000470539 	0.25456
0.0033358 	5.47415e-05 	-0.000422826 	0.251372
0.00345217 	5.42461e-05 	-0.000416426 	0.249865
0.00345217 	2.73004e-05 	-0.00046358 	0.253034
0.00356649 	2.65603e-05 	-0.00045635 	0.251461
0.00356649 	5.37256e-05 	-0.000409677 	0.24831
0.00367879 	2.58489e-05 	-0.000448833 	0.249841
0.00367879 	5.31815e-05 	-0.000402565 	0.246709
0.00378912 	2.51662e-05 	-0.000441007 	0.248172
0.00378912 	5.26169e-05 	-0.000395072 	0.245061
0.0038975 	2.4512e-05 	-0.000432837 	0.246452
0.0038975 	5.2034e-05 	-0.000387162 	0.243364
0.00400397 	2.38858e-05 	-0.000424266 	0.244676
0.00400397 	5.14324e-05 	-0.000378751 	0.241608
0.00410857 	5.08094e-05 	-0.000369722 	0.239782
0.00410857 	2.32858e-05 	-0.000415216 	0.24284
0.00421133 	2.27095e-05 	-0.000405602 	0.240936
0.00421133 	5.01607e-05 	-0.000359972 	0.237875
0.00431227 	2.21545e-05 	-0.000395343 	0.238959
0.00431227 	4.9482e-05 	-0.000349434 	0.235884
0.00441144 	2.16199e-05 	-0.000384382 	0.2369
0.00441144 	4.87697e-05 	-0.000338084 	0.233805
0.00450886 	2.11055e-05 	-0.000372702 	0.234754
0.00450886 	4.802e-05 	-0.000325944 	0.231632
0.00460456 	2.06111e-05 	-0.000360305 	0.232517
0.00460456 	4.72299e-05 	-0.000313056 	0.229363
0.00469858 	2.01361e-05 	-0.000347206 	0.230185
0.00469858 	4.63963e-05 	-0.000299466 	0.226994
0.00479094 	1.96793e-05 	-0.000333428 	0.227751
0.00479094 	4.55162e-05 	-0.000285224 	0.22452
0.00488168 	1.92399e-05 	-0.000319001 	0.225213
0.00488168 	4.45869e-05 	-0.000270388 	0.221938
0.00497081 	1.88166e-05 	-0.000303965 	0.222565
0.00497081 	4.36057e-05 	-0.000255026 	0.219243
0.00505838 	1.84082e-05 	-0.000288377 	0.219804
0.00505838 	4.25701e-05 	-0.000239217 	0.216431
0.0051444 	1.80135e-05 	-0.000272305 	0.216925
0.0051444 	4.1478e-05 	-0.000223054 	0.2135
0.00522891 	1.76311e-05 	-0.000255839 	0.213926
0.00522891 	4.03277e-05 	-0.000206649 	0.210447
0.00531193 	1.72595e-05 	-0.000239081 	0.210802
0.00531193 	3.91179e-05 	-0.00019013 	0.207269
0.00539348 	1.68973e-05 	-0.00022215 	0.207552
0.00539348 	3.78481e-05 	-0.000173636 	0.203965
0.0054736 	1.65429e-05 	-0.000205174 	0.204171
0.0054736 	3.65179e-05 	-0.000157315 	0.200533
0.00555231 	1.61946e-05 	-0.000188287 	0.200657
0.00555231 	3.51275e-05 	-0.000141317 	0.196971
0.00562963 	1.58508e-05 	-0.000171626 	0.197006
0.00562963 	3.36776e-05 	-0.000125784 	0.193276
0.00570559 	1.55097e-05 	-0.000155322 	0.193212
0.00570559 	3.2169e-05 	-0.000110853 	0.189446
0.00578022 	1.51694e-05 	-0.0001395 	0.189273
0.00578022 	3.06032e-05 	-9.66413e-05 	0.185478
0.00585352 	1.48281e-05 	-0.000124276 	0.185181
0.00585352 	2.89817e-05 	-8.32518e-05 	0.181366
0.00592554 	1.44837e-05 	-0.000109749 	0.18093
0.00592554 	2.73068e-05 	-7.07659e-05 	0.177106
0.00599629 	1.41342e-05 	-9.60061e-05 	0.176514
0.00599629 	2.5581e-05 	-5.92442e-05 	0.17269
0.00606579 	1.3777e-05 	-8.31188e-05 	0.171923
0.00606579 	2.38071e-05 	-4.87285e-05 	0.168111
0.00613406 	1.34094e-05 	-7.11474e-05 	0.167145
0.00613406 	2.19881e-05 	-3.9241e-05 	0.163355
0.00620114 	2.01273e-05 	-3.07869e-05 	0.158405
0.00620114 	1.30284e-05 	-6.01378e-05 	0.162164
0.00626703 	1.26317e-05 	-5.0127e-05 	0.156963
0.00626703 	1.82291e-05 	-2.3363e-05 	0.153247
0.00633176 	1.63008e-05 	-1.69546e-05 	0.147867
0.00633176 	1.22168e-05 	-4.11422e-05 	0.151527
0.00639535 	1.43511e-05 	-1.15283e-05 	0.142249
0.00639535 	1.17812e-05 	-3.31907e-05 	0.145843
0.00645783 	1.13221e-05 	-2.62599e-05 	0.139894
0.00645783 	1.23906e-05 	-7.0349e-06 	0.13638
0.0065192 	1.08365e-05 	-2.03219e-05 	0.133664
0.0065192 	1.04319e-05 	-3.41292e-06 	0.130241
0.00657949 	1.03214e-05 	-1.53361e-05 	0.127138
0.00657949 	8.48994e-06 	-5.91622e-07 	0.123818
0.00663871 	9.7734e-06 	-1.12489e-05 	0.120301
0.00663871 	6.58212e-06 	1.50558e-06 	0.117094
0.0066969 	9.18801e-06 	-7.97947e-06 	0.113132
0.0066969 	4.72686e-06 	2.96609e-06 	0.110047
0.00675406 	2.94293e-06 	3.88237e-06 	0.10264
0.00675406 	8.56082e-06 	-5.43238e-06 	0.105598
0.00681021 	1.25498e-06 	4.3462e-06 	0.094856
0.00681021 	7.89055e-06 	-3.50648e-06 	0.0976739
0.00686537 	-3.00748e-07 	4.44807e-06 	0.0867187
0.00686537 	7.18199e-06 	-2.10595e-06 	0.0893745
0.00691956 	-1.68027e-06 	4.27425e-06 	0.0782997
0.00691956 	6.44571e-06 	-1.14805e-06 	0.0807685
0.0069728 	-2.83917e-06 	3.90765e-06 	0.0697179
0.0069728 	5.69706e-06 	-5.43993e-07 	0.0719745
0.0070251 	4.95577e-06 	-2.03353e-07 	0.0631578
0.0070251 	-3.73947e-06 	3.42447e-06 	0.0611345
0.00707647 	4.24318e-06 	-4.08548e-08 	0.0545106
0.00707647 	-4.35741e-06 	2.88969e-06 	0.0527332
0.00712695 	3.57747e-06 	1.53904e-08 	0.0462186
0.00712695 	-4.68907e-06 	2.35308e-06 	0.0446888
0.00717653 	2.96935e-06 	1.80322e-08 	0.038426
0.00717653 	-4.75042e-06 	1.84747e-06 	0.0371358
0.00722524 	2.41982e-06 	-3.04785e-10 	0.0312169
0.00722524 	-4.57207e-06 	1.39079e-06 	0.0301517
0.00727309 	-4.19242e-06 	9.91326e-07 	0.0237624
0.00727309 	1.91973e-06 	-2.27114e-08 	0.0246194
0.0073201 	-3.65378e-06 	6.55457e-07 	0.017959
0.0073201 	1.44769e-06 	-3.90667e-08 	0.018624
0.00736628 	-3.00432e-06 	3.72049e-07 	0.0127145
0.00736628 	9.62403e-07 	-5.34617e-08 	0.0132023
0.00741165 	4.65957e-07 	-4.25731e-08 	0.00831815
0.00741165 	-2.23562e-06 	1.78826e-07 	0.00799398
0.00745622 	9.33347e-08 	-2.39113e-08 	0.00393445
0.00745622 	-1.24607e-06 	5.61553e-08 	0.00376151
0.0075 	0 	0 	0
0.0075 	0 	0 	0
