-0.0075 	373
-0.00715932 	354.631
-0.00676191 	351.661
-0.00629832 	350.524
-0.00575752 	349.856
-0.00512667 	349.353
-0.00439077 	348.925
-0.00353231 	348.535
-0.00253089 	348.16
-0.00136271 	347.778
0 	347.372
0.00136271 	346.94
0.00253089 	346.5
0.00353231 	346.066
0.00439077 	345.623
0.00512667 	345.136
0.00575752 	344.533
0.00629832 	343.644
0.00676191 	341.719
0.00715932 	332.607
0.0075 	313
