0 	0 	0 	0
5.01672e-05 	0.00618387 	-3.2637e-05 	0.0158969
0.000100334 	0.00877404 	-8.49028e-05 	0.031578
0.000150502 	0.00974894 	-0.000153854 	0.0466066
0.000200669 	0.0105534 	-0.000224373 	0.0605486
0.000250836 	0.0113031 	-0.000299387 	0.0734154
0.000301003 	0.0118751 	-0.000376984 	0.0853043
0.000351171 	0.0122517 	-0.000457657 	0.0962635
0.000401338 	0.0124482 	-0.000540793 	0.106324
0.000451505 	0.0124885 	-0.000625228 	0.115521
0.000501672 	0.0123983 	-0.000709654 	0.123908
0.000551839 	0.0122037 	-0.00079291 	0.131546
0.000602007 	0.0119298 	-0.000874109 	0.138506
0.000652174 	0.0116002 	-0.000953025 	0.144858
0.000702341 	0.011235 	-0.0010302 	0.150671
0.000752508 	0.0108486 	-0.0011062 	0.15601
0.000802676 	0.0104512 	-0.00118081 	0.160929
0.000852843 	0.01005 	-0.00125301 	0.165426
0.00090301 	0.00965121 	-0.00132275 	0.169606
0.000953177 	0.00926126 	-0.00139004 	0.173504
0.00100334 	0.00888721 	-0.00145522 	0.177152
0.00105351 	0.0085348 	-0.00151876 	0.180575
0.00110368 	0.0082085 	-0.00158115 	0.183794
0.00115385 	0.00791703 	-0.00164236 	0.186781
0.00120401 	0.00764892 	-0.00170237 	0.189615
0.00125418 	0.00740032 	-0.00176109 	0.192309
0.00130435 	0.00716792 	-0.00181853 	0.194875
0.00135452 	0.00695204 	-0.0018745 	0.197286
0.00140468 	0.00674763 	-0.00192943 	0.199577
0.00145485 	0.00655172 	-0.00198357 	0.201773
0.00150502 	0.00636341 	-0.00203698 	0.203882
0.00155518 	0.00618588 	-0.00208947 	0.205872
0.00160535 	0.00601482 	-0.00214144 	0.207799
0.00165552 	0.00584963 	-0.00219294 	0.20967
0.00170569 	0.00569276 	-0.00224371 	0.211471
0.00175585 	0.00554281 	-0.00229331 	0.213216
0.00180602 	0.00539766 	-0.00234192 	0.214919
0.00185619 	0.00525947 	-0.0023888 	0.216557
0.00190635 	0.00512749 	-0.00243485 	0.218123
0.00195652 	0.00499943 	-0.00248064 	0.219641
0.00200669 	0.00487823 	-0.00252678 	0.221074
0.00205686 	0.00476173 	-0.00257286 	0.222449
0.00210702 	0.00464834 	-0.00261889 	0.223787
0.00215719 	0.00454172 	-0.00266284 	0.225042
0.00220736 	0.00443745 	-0.00270605 	0.226266
0.00225753 	0.00433697 	-0.0027481 	0.227441
0.00230769 	0.00424077 	-0.00279056 	0.228563
0.00235786 	0.00414641 	-0.00283326 	0.229664
0.00240803 	0.00405739 	-0.00287782 	0.230716
0.00245819 	0.00396989 	-0.00292255 	0.231764
0.00250836 	0.00388549 	-0.00296764 	0.232803
0.00255853 	0.00380287 	-0.00301175 	0.233854
0.0026087 	0.00372151 	-0.00305515 	0.234915
0.00265886 	0.00364128 	-0.0030964 	0.235999
0.00270903 	0.00356132 	-0.00313715 	0.237089
0.0027592 	0.00348159 	-0.00317397 	0.238173
0.00280936 	0.00340185 	-0.00321023 	0.239246
0.00285953 	0.00332204 	-0.00324353 	0.240267
0.0029097 	0.00324232 	-0.00327691 	0.241258
0.00295987 	0.00316279 	-0.00331052 	0.242177
0.00301003 	0.00308346 	-0.0033451 	0.243059
0.0030602 	0.00300447 	-0.00338128 	0.243879
0.00311037 	0.00292549 	-0.00341784 	0.244666
0.00316054 	0.00284653 	-0.00345488 	0.24541
0.0032107 	0.00276707 	-0.00349103 	0.246129
0.00326087 	0.002687 	-0.00352612 	0.246819
0.00331104 	0.00260605 	-0.00356016 	0.247493
0.0033612 	0.00252399 	-0.00359288 	0.248145
0.00341137 	0.00244096 	-0.0036252 	0.248785
0.00346154 	0.00235644 	-0.00365691 	0.249405
0.00351171 	0.00227104 	-0.0036884 	0.250016
0.00356187 	0.00218369 	-0.00371942 	0.250605
0.00361204 	0.00209574 	-0.00375025 	0.251189
0.00366221 	0.00200524 	-0.00378022 	0.251747
0.00371237 	0.00191465 	-0.00381016 	0.252305
0.00376254 	0.00182101 	-0.00383897 	0.252834
0.00381271 	0.00172736 	-0.00386777 	0.253363
0.00386288 	0.00163145 	-0.00389557 	0.253869
0.00391304 	0.00153509 	-0.00392316 	0.25437
0.00396321 	0.00143758 	-0.00395006 	0.254854
0.00401338 	0.00133929 	-0.00397649 	0.255328
0.00406355 	0.00124067 	-0.00400254 	0.255794
0.00411371 	0.00114134 	-0.00402779 	0.256242
0.00416388 	0.001042 	-0.00405304 	0.25669
0.00421405 	0.000942339 	-0.00407707 	0.257113
0.00426421 	0.000842674 	-0.0041011 	0.257536
0.00431438 	0.000743134 	-0.00412431 	0.257945
0.00436455 	0.000643666 	-0.00414704 	0.258344
0.00441472 	0.00054434 	-0.00416948 	0.258739
0.00446488 	0.000445494 	-0.00419092 	0.259115
0.00451505 	0.000346648 	-0.00421237 	0.259492
0.00456522 	0.000248555 	-0.00423282 	0.259851
0.00461538 	0.000150672 	-0.004253 	0.260206
0.00466555 	5.31416e-05 	-0.0042728 	0.260554
0.00471572 	-4.35349e-05 	-0.00429167 	0.260886
0.00476589 	-0.000140211 	-0.00431055 	0.261218
0.00481605 	-0.000235843 	-0.00432843 	0.261533
0.00486622 	-0.00033114 	-0.004346 	0.261842
0.00491639 	-0.00042617 	-0.00436334 	0.262148
0.00496656 	-0.000519955 	-0.00437959 	0.262435
0.00501672 	-0.00061374 	-0.00439584 	0.262722
0.00506689 	-0.000706642 	-0.00441137 	0.262997
0.00511706 	-0.000798819 	-0.00442629 	0.263262
0.00516722 	-0.000890996 	-0.00444122 	0.263527
0.00521739 	-0.00098169 	-0.00445499 	0.263772
0.00526756 	-0.00107217 	-0.0044686 	0.264014
0.00531773 	-0.00116239 	-0.00448198 	0.264253
0.00536789 	-0.00125114 	-0.00449412 	0.264473
0.00541806 	-0.0013399 	-0.00450626 	0.264693
0.00546823 	-0.00142823 	-0.00451754 	0.264904
0.00551839 	-0.00151589 	-0.00452745 	0.265101
0.00556856 	-0.00160355 	-0.00453736 	0.265298
0.00561873 	-0.00169146 	-0.00454587 	0.265482
0.0056689 	-0.00177954 	-0.00455329 	0.265656
0.00571906 	-0.00186763 	-0.00456071 	0.26583
0.00576923 	-0.00195703 	-0.00456747 	0.265988
0.0058194 	-0.00204701 	-0.00457393 	0.266138
0.00586957 	-0.002137 	-0.0045804 	0.266289
0.00591973 	-0.00222879 	-0.00458662 	0.266422
0.0059699 	-0.00232112 	-0.00459277 	0.26655
0.00602007 	-0.00241346 	-0.00459892 	0.266677
0.00607023 	-0.00250582 	-0.00460307 	0.266786
0.0061204 	-0.00259819 	-0.0046067 	0.26689
0.00617057 	-0.00269056 	-0.00461033 	0.266994
0.00622074 	-0.00278007 	-0.00460956 	0.267078
0.0062709 	-0.0028687 	-0.00460743 	0.267157
0.00632107 	-0.00295732 	-0.0046053 	0.267236
0.00637124 	-0.00304169 	-0.00460014 	0.267295
0.0064214 	-0.00312406 	-0.00459356 	0.267346
0.00647157 	-0.00320644 	-0.00458699 	0.267398
0.00652174 	-0.00328474 	-0.00458131 	0.267433
0.00657191 	-0.00335962 	-0.00457639 	0.267455
0.00662207 	-0.00343451 	-0.00457146 	0.267477
0.00667224 	-0.00350717 	-0.00456642 	0.267489
0.00672241 	-0.00357572 	-0.00456115 	0.267482
0.00677258 	-0.00364427 	-0.00455589 	0.267474
0.00682274 	-0.0037123 	-0.00454973 	0.267464
0.00687291 	-0.00377558 	-0.00453546 	0.267423
0.00692308 	-0.00383885 	-0.00452118 	0.267383
0.00697324 	-0.00390213 	-0.0045069 	0.267342
0.00702341 	-0.00395939 	-0.0044875 	0.267271
0.00707358 	-0.00401505 	-0.00446674 	0.267192
0.00712375 	-0.0040707 	-0.00444597 	0.267113
0.00717391 	-0.00412112 	-0.00442678 	0.267018
0.00722408 	-0.00416433 	-0.00440974 	0.266899
0.00727425 	-0.00420753 	-0.00439271 	0.26678
0.00732441 	-0.00425074 	-0.00437568 	0.266661
0.00737458 	-0.0042793 	-0.00436308 	0.266505
0.00742475 	-0.00430772 	-0.00435052 	0.266349
0.00747492 	-0.00433614 	-0.00433796 	0.266193
0.00752508 	-0.00435789 	-0.00432537 	0.26602
0.00757525 	-0.00437297 	-0.00431276 	0.26583
0.00762542 	-0.00438804 	-0.00430014 	0.26564
0.00767559 	-0.00440301 	-0.00428751 	0.26545
0.00772575 	-0.0044056 	-0.00427273 	0.265229
0.00777592 	-0.0044082 	-0.00425794 	0.265007
0.00782609 	-0.00441079 	-0.00424316 	0.264786
0.00787625 	-0.00440799 	-0.00422681 	0.264548
0.00792642 	-0.00440128 	-0.00420934 	0.2643
0.00797659 	-0.00439458 	-0.00419186 	0.264051
0.00802676 	-0.00438667 	-0.0041741 	0.263798
0.00807692 	-0.00437426 	-0.00415526 	0.263525
0.00812709 	-0.00436186 	-0.00413643 	0.263253
0.00817726 	-0.00434945 	-0.00411759 	0.26298
0.00822742 	-0.00433254 	-0.00409824 	0.262687
0.00827759 	-0.00431513 	-0.00407883 	0.262391
0.00832776 	-0.00429772 	-0.00405943 	0.262095
0.00837793 	-0.00427726 	-0.00403966 	0.261785
0.00842809 	-0.00425515 	-0.00401969 	0.261467
0.00847826 	-0.00423305 	-0.00399972 	0.261149
0.00852843 	-0.00420896 	-0.00397952 	0.26082
0.0085786 	-0.00418249 	-0.00395906 	0.26048
0.00862876 	-0.00415602 	-0.0039386 	0.260139
0.00867893 	-0.00412827 	-0.003918 	0.259792
0.0087291 	-0.00409777 	-0.00389711 	0.259429
0.00877926 	-0.00406726 	-0.00387623 	0.259066
0.00882943 	-0.00403589 	-0.00385526 	0.258697
0.0088796 	-0.00400168 	-0.00383401 	0.258312
0.00892977 	-0.00396747 	-0.00381276 	0.257927
0.00897993 	-0.00393257 	-0.00379144 	0.257537
0.0090301 	-0.00389499 	-0.00376987 	0.257129
0.00908027 	-0.00385742 	-0.0037483 	0.256721
0.00913043 	-0.00381914 	-0.00372666 	0.256308
0.0091806 	-0.0037785 	-0.00370479 	0.255878
0.00923077 	-0.00373787 	-0.00368292 	0.255448
0.00928094 	-0.00369637 	-0.00366094 	0.25501
0.0093311 	-0.00365292 	-0.00363875 	0.254557
0.00938127 	-0.00360948 	-0.00361655 	0.254104
0.00943144 	-0.00356492 	-0.0035942 	0.253641
0.00948161 	-0.00351891 	-0.00357166 	0.253165
0.00953177 	-0.0034729 	-0.00354911 	0.252689
0.00958194 	-0.00342548 	-0.00352635 	0.252198
0.00963211 	-0.00337717 	-0.00350345 	0.251699
0.00968227 	-0.00332887 	-0.00348056 	0.2512
0.00973244 	-0.00327889 	-0.0034574 	0.25068
0.00978261 	-0.0032286 	-0.00343419 	0.250157
0.00983278 	-0.00317811 	-0.00341095 	0.24963
0.00988294 	-0.0031262 	-0.00338746 	0.249083
0.00993311 	-0.00307429 	-0.00336398 	0.248535
0.00998328 	-0.0030218 	-0.00334036 	0.247976
0.0100334 	-0.0029686 	-0.0033166 	0.247403
0.0100836 	-0.00291541 	-0.00329283 	0.246831
0.0101338 	-0.00286143 	-0.00326881 	0.246237
0.0101839 	-0.00280728 	-0.00324472 	0.245639
0.0102341 	-0.00275296 	-0.00322057 	0.245035
0.0102843 	-0.00269812 	-0.00319616 	0.244411
0.0103344 	-0.00264327 	-0.00317176 	0.243788
0.0103846 	-0.00258805 	-0.0031471 	0.243146
0.0104348 	-0.00253268 	-0.00312232 	0.242497
0.0104849 	-0.00247734 	-0.00309741 	0.241842
0.0105351 	-0.0024221 	-0.00307199 	0.241167
0.0105853 	-0.00236687 	-0.00304657 	0.240492
0.0106355 	-0.00231328 	-0.00302055 	0.239796
0.0106856 	-0.00226018 	-0.00299434 	0.239094
0.0107358 	-0.00220879 	-0.00296808 	0.238382
0.010786 	-0.00216036 	-0.0029417 	0.237652
0.0108361 	-0.00211197 	-0.00291533 	0.236922
0.0108863 	-0.00206943 	-0.0028893 	0.23616
0.0109365 	-0.0020269 	-0.00286327 	0.235398
0.0109866 	-0.00198762 	-0.00283707 	0.234612
0.0110368 	-0.00194981 	-0.00281079 	0.233814
0.011087 	-0.00191262 	-0.00278408 	0.233001
0.0111371 	-0.00187633 	-0.00275673 	0.232165
0.0111873 	-0.00183978 	-0.0027292 	0.231321
0.0112375 	-0.00180204 	-0.0027007 	0.230445
0.0112876 	-0.0017643 	-0.00267221 	0.229569
0.0113378 	-0.00172421 	-0.00264282 	0.228653
0.011388 	-0.00168404 	-0.00261341 	0.227735
0.0114381 	-0.00164237 	-0.00258336 	0.226784
0.0114883 	-0.00160034 	-0.00255317 	0.225825
0.0115385 	-0.00155789 	-0.00252248 	0.224836
0.0115886 	-0.00151524 	-0.00249156 	0.223833
0.0116388 	-0.00147303 	-0.00246021 	0.222802
0.011689 	-0.00143112 	-0.00242856 	0.221752
0.0117391 	-0.00139025 	-0.00239648 	0.220675
0.0117893 	-0.00135023 	-0.00236404 	0.219575
0.0118395 	-0.00131168 	-0.00233114 	0.218447
0.0118896 	-0.00127438 	-0.00229784 	0.217294
0.0119398 	-0.00123894 	-0.00226402 	0.21611
0.01199 	-0.00120494 	-0.0022298 	0.214902
0.0120401 	-0.00117326 	-0.00219499 	0.213657
0.0120903 	-0.00114299 	-0.00215982 	0.212389
0.0121405 	-0.00111565 	-0.00212394 	0.211077
0.0121906 	-0.00108948 	-0.00208779 	0.209747
0.0122408 	-0.00106709 	-0.00205078 	0.208361
0.012291 	-0.0010454 	-0.00201362 	0.206965
0.0123411 	-0.00102858 	-0.00197541 	0.2055
0.0123913 	-0.00101277 	-0.001937 	0.20402
0.0124415 	-0.00100122 	-0.00189776 	0.202481
0.0124916 	-0.000992012 	-0.00185808 	0.20091
0.0125418 	-0.000986118 	-0.00181781 	0.199293
0.012592 	-0.000984276 	-0.0017769 	0.197621
0.0126421 	-0.000984434 	-0.00173566 	0.195922
0.0126923 	-0.000990743 	-0.00169355 	0.19414
0.0127425 	-0.000999191 	-0.00165117 	0.192329
0.0127926 	-0.00101262 	-0.00160819 	0.190452
0.0128428 	-0.00103051 	-0.00156474 	0.188514
0.012893 	-0.00105117 	-0.00152099 	0.186539
0.0129431 	-0.00107937 	-0.00147652 	0.184462
0.0129933 	-0.00111077 	-0.00143176 	0.182341
0.0130435 	-0.00114701 	-0.00138659 	0.180153
0.0130936 	-0.00119006 	-0.00134093 	0.177871
0.0131438 	-0.00123698 	-0.00129503 	0.175532
0.013194 	-0.00129 	-0.00124878 	0.173105
0.0132441 	-0.00134969 	-0.00120223 	0.170575
0.0132943 	-0.00141389 	-0.00115549 	0.167973
0.0133445 	-0.00148449 	-0.00110853 	0.165267
0.0133946 	-0.0015627 	-0.00106139 	0.16243
0.0134448 	-0.0016463 	-0.00101417 	0.1595
0.013495 	-0.00173583 	-0.000966886 	0.156466
0.0135452 	-0.00183492 	-0.000919612 	0.153255
0.0135953 	-0.00194007 	-0.000872418 	0.149928
0.0136455 	-0.00205148 	-0.000825343 	0.146476
0.0136957 	-0.00217041 	-0.000778479 	0.142866
0.0137458 	-0.00229766 	-0.000731994 	0.139064
0.013796 	-0.0024308 	-0.000685878 	0.135105
0.0138462 	-0.00256951 	-0.000640195 	0.130978
0.0138963 	-0.00271326 	-0.000595014 	0.126671
0.0139465 	-0.00286173 	-0.000550642 	0.122109
0.0139967 	-0.00301175 	-0.000507031 	0.117335
0.0140468 	-0.00316137 	-0.000464265 	0.112342
0.014097 	-0.00330838 	-0.00042246 	0.107117
0.0141472 	-0.00345011 	-0.000381749 	0.101648
0.0141973 	-0.00358326 	-0.000342299 	0.0959207
0.0142475 	-0.00369946 	-0.000304542 	0.0898782
0.0142977 	-0.00379146 	-0.000268369 	0.0835604
0.0143478 	-0.00384804 	-0.000233868 	0.076984
0.014398 	-0.00385591 	-0.000201208 	0.0701834
0.0144482 	-0.00380152 	-0.000170592 	0.063216
0.0144983 	-0.0036734 	-0.000142213 	0.0561626
0.0145485 	-0.00346519 	-0.000116247 	0.0491246
0.0145987 	-0.00317879 	-9.28722e-05 	0.0422148
0.0146488 	-0.00282631 	-7.22495e-05 	0.0355428
0.014699 	-0.0024294 	-5.44775e-05 	0.0291994
0.0147492 	-0.00201749 	-3.95615e-05 	0.0232493
0.0147993 	-0.0016286 	-2.74385e-05 	0.017733
0.0148495 	-0.00131707 	-1.75127e-05 	0.0126799
0.0148997 	-0.00108425 	-9.56388e-06 	0.00809512
0.0149498 	-0.000730741 	-3.90514e-06 	0.00390925
0.015 	0 	0 	0
