-0.0075 	0 	0 	0
-0.0075 	7.48455e-34 	-7.51264e-37 	-7.83179e-33
-0.00745622 	0.000983694 	-9.87387e-07 	-0.0102933
-0.00745622 	0.000983694 	-9.87387e-07 	-0.0102933
-0.00741165 	0.00128202 	-1.15622e-06 	-0.0199803
-0.00741165 	0.00128202 	-1.15622e-06 	-0.0199803
-0.00736628 	0.00125617 	-1.86223e-06 	-0.029625
-0.00736628 	0.00125617 	-1.86223e-06 	-0.029625
-0.0073201 	0.00129053 	-1.73772e-06 	-0.0395379
-0.0073201 	0.00129053 	-1.73772e-06 	-0.0395379
-0.00727309 	0.00143502 	-5.33062e-07 	-0.0496308
-0.00727309 	0.00143502 	-5.33062e-07 	-0.0496308
-0.00722524 	0.00162793 	1.25069e-06 	-0.0597213
-0.00722524 	0.00162793 	1.25069e-06 	-0.0597213
-0.00717653 	0.00184259 	3.73482e-06 	-0.0696758
-0.00717653 	0.00184259 	3.73482e-06 	-0.0696758
-0.00712695 	0.00206607 	6.66749e-06 	-0.0793875
-0.00712695 	0.00206607 	6.66749e-06 	-0.0793875
-0.00707647 	0.00229268 	9.80965e-06 	-0.0887701
-0.00707647 	0.00229268 	9.80965e-06 	-0.0887701
-0.0070251 	0.00252106 	1.29974e-05 	-0.0977621
-0.0070251 	0.00252106 	1.29974e-05 	-0.0977621
-0.0069728 	0.00274954 	1.58911e-05 	-0.106337
-0.0069728 	0.00274954 	1.58911e-05 	-0.106337
-0.00691956 	0.00297343 	1.84929e-05 	-0.114494
-0.00691956 	0.00297343 	1.84929e-05 	-0.114494
-0.00686537 	0.00318447 	2.07029e-05 	-0.122239
-0.00686537 	0.00318447 	2.07029e-05 	-0.122239
-0.00681021 	0.00337343 	2.23717e-05 	-0.129578
-0.00681021 	0.00337343 	2.23717e-05 	-0.129578
-0.00675406 	0.00353366 	2.37588e-05 	-0.136531
-0.00675406 	0.00353366 	2.37588e-05 	-0.136531
-0.0066969 	0.00365997 	2.50211e-05 	-0.143113
-0.0066969 	0.00365997 	2.50211e-05 	-0.143113
-0.00663871 	0.00374645 	2.59365e-05 	-0.149324
-0.00663871 	0.00374645 	2.59365e-05 	-0.149324
-0.00657949 	0.00378657 	2.59079e-05 	-0.155156
-0.00657949 	0.00378657 	2.59079e-05 	-0.155156
-0.0065192 	0.00377502 	2.46799e-05 	-0.160602
-0.0065192 	0.00377502 	2.46799e-05 	-0.160602
-0.00645783 	0.00371036 	2.33547e-05 	-0.165669
-0.00645783 	0.00371036 	2.33547e-05 	-0.165669
-0.00639535 	0.00359787 	2.3323e-05 	-0.170383
-0.00639535 	0.00359787 	2.3323e-05 	-0.170383
-0.00633176 	0.00345035 	2.43629e-05 	-0.174787
-0.00633176 	0.00345035 	2.43629e-05 	-0.174787
-0.00626703 	0.00328324 	2.51087e-05 	-0.178931
-0.00626703 	0.00328324 	2.51087e-05 	-0.178931
-0.00620114 	0.00310725 	2.43083e-05 	-0.182864
-0.00620114 	0.00310725 	2.43083e-05 	-0.182864
-0.00613406 	0.00292663 	2.13828e-05 	-0.18663
-0.00613406 	0.00292663 	2.13828e-05 	-0.18663
-0.00606579 	0.00274344 	1.64752e-05 	-0.190275
-0.00606579 	0.00274344 	1.64752e-05 	-0.190275
-0.00599629 	0.00256386 	1.13417e-05 	-0.193847
-0.00599629 	0.00256386 	1.13417e-05 	-0.193847
-0.00592554 	0.00242106 	8.41428e-06 	-0.197401
-0.00592554 	0.00242106 	8.41428e-06 	-0.197401
-0.00585352 	0.0023654 	6.67034e-06 	-0.201014
-0.00585352 	0.0023654 	6.67034e-06 	-0.201014
-0.00578022 	0.00238398 	7.33089e-06 	-0.204789
-0.00578022 	0.00238398 	7.33089e-06 	-0.204789
-0.00570559 	0.00238153 	1.18191e-05 	-0.208645
-0.00570559 	0.00238153 	1.18191e-05 	-0.208645
-0.00562963 	0.00225756 	1.0587e-05 	-0.212145
-0.00562963 	0.00225756 	1.0587e-05 	-0.212145
-0.00555231 	0.00200975 	-1.75922e-07 	-0.215061
-0.00555231 	0.00200975 	-1.75922e-07 	-0.215061
-0.0054736 	0.00173074 	-1.43806e-05 	-0.217674
-0.0054736 	0.00173074 	-1.43806e-05 	-0.217674
-0.00539348 	0.00149606 	-2.20753e-05 	-0.220283
-0.00539348 	0.00149606 	-2.20753e-05 	-0.220283
-0.00531193 	0.00131304 	-2.25547e-05 	-0.222937
-0.00531193 	0.00131304 	-2.25547e-05 	-0.222937
-0.00522891 	0.00114511 	-2.26032e-05 	-0.225495
-0.00522891 	0.00114511 	-2.26032e-05 	-0.225495
-0.0051444 	0.000973627 	-7.46876e-06 	-0.227865
-0.0051444 	0.000973627 	-7.46876e-06 	-0.227865
-0.00505838 	0.000842763 	4.04921e-06 	-0.230128
-0.00505838 	0.000842763 	4.04921e-06 	-0.230128
-0.00497081 	0.000804407 	-3.41743e-05 	-0.232425
-0.00497081 	0.000804407 	-3.41743e-05 	-0.232425
-0.00488168 	0.000816352 	-9.03466e-05 	-0.234805
-0.00488168 	0.000816352 	-9.03466e-05 	-0.234805
-0.00479094 	0.000746734 	-9.70426e-05 	-0.237075
-0.00479094 	0.000746734 	-9.70426e-05 	-0.237075
-0.00469858 	0.000539464 	-5.63616e-05 	-0.239081
-0.00469858 	0.000539464 	-5.63616e-05 	-0.239081
-0.00460456 	0.00029602 	-3.82729e-05 	-0.24107
-0.00460456 	0.00029602 	-3.82729e-05 	-0.24107
-0.00450886 	0.000140175 	-8.92226e-05 	-0.243335
-0.00450886 	0.000140175 	-8.92226e-05 	-0.243335
-0.00441144 	5.21808e-05 	-0.000132339 	-0.245767
-0.00441144 	5.21808e-05 	-0.000132339 	-0.245767
-0.00431227 	-7.28951e-05 	-8.86441e-05 	-0.248231
-0.00431227 	-7.28951e-05 	-8.86441e-05 	-0.248231
-0.00421133 	-0.000255852 	6.09351e-06 	-0.250802
-0.00421133 	-0.000255852 	6.09351e-06 	-0.250802
-0.00410857 	-0.000386424 	2.31951e-05 	-0.253259
-0.00410857 	-0.000386424 	2.31951e-05 	-0.253259
-0.00400397 	-0.000333382 	-0.000120173 	-0.255443
-0.00400397 	-0.000333382 	-0.000120173 	-0.255443
-0.0038975 	-0.000131793 	-0.000298061 	-0.25762
-0.0038975 	-0.000131793 	-0.000298061 	-0.25762
-0.00378912 	6.78704e-06 	-0.000320454 	-0.259773
-0.00378912 	6.78704e-06 	-0.000320454 	-0.259773
-0.00367879 	-8.67133e-05 	-0.000222118 	-0.261518
-0.00367879 	-8.67133e-05 	-0.000222118 	-0.261518
-0.00356649 	-0.000345721 	-0.000170775 	-0.262912
-0.00356649 	-0.000345721 	-0.000170775 	-0.262912
-0.00345217 	-0.00059162 	-0.00020055 	-0.264336
-0.00345217 	-0.00059162 	-0.00020055 	-0.264336
-0.0033358 	-0.000776029 	-0.000222558 	-0.265904
-0.0033358 	-0.000776029 	-0.000222558 	-0.265904
-0.00321735 	-0.000944486 	-0.000214923 	-0.26748
-0.00321735 	-0.000944486 	-0.000214923 	-0.26748
-0.00309677 	-0.00111404 	-0.000250289 	-0.268889
-0.00309677 	-0.00111404 	-0.000250289 	-0.268889
-0.00297403 	-0.00129937 	-0.000301912 	-0.270128
-0.00297403 	-0.00129937 	-0.000301912 	-0.270128
-0.00284909 	-0.00150671 	-0.000307354 	-0.271326
-0.00284909 	-0.00150671 	-0.000307354 	-0.271326
-0.0027219 	-0.00168659 	-0.000304173 	-0.27268
-0.0027219 	-0.00168659 	-0.000304173 	-0.27268
-0.00259244 	-0.00176412 	-0.000300884 	-0.274356
-0.00259244 	-0.00176412 	-0.000300884 	-0.274356
-0.00246065 	-0.00177878 	-0.000275066 	-0.276075
-0.00246065 	-0.00177878 	-0.000275066 	-0.276075
-0.00232651 	-0.00182675 	-0.000260677 	-0.277481
-0.00232651 	-0.00182675 	-0.000260677 	-0.277481
-0.00218995 	-0.00192488 	-0.000267285 	-0.278628
-0.00218995 	-0.00192488 	-0.000267285 	-0.278628
-0.00205095 	-0.0020387 	-0.000272604 	-0.279657
-0.00205095 	-0.0020387 	-0.000272604 	-0.279657
-0.00190946 	-0.002127 	-0.000273498 	-0.280651
-0.00190946 	-0.002127 	-0.000273498 	-0.280651
-0.00176543 	-0.00218107 	-0.000270162 	-0.28163
-0.00176543 	-0.00218107 	-0.000270162 	-0.28163
-0.00161881 	-0.00221781 	-0.000257435 	-0.282644
-0.00161881 	-0.00221781 	-0.000257435 	-0.282644
-0.00146957 	-0.0022613 	-0.000269638 	-0.28375
-0.00146957 	-0.0022613 	-0.000269638 	-0.28375
-0.00131765 	-0.00232817 	-0.000314567 	-0.284717
-0.00131765 	-0.00232817 	-0.000314567 	-0.284717
-0.001163 	-0.00241277 	-0.000335726 	-0.28528
-0.001163 	-0.00241277 	-0.000335726 	-0.28528
-0.00100559 	-0.00249353 	-0.000324594 	-0.285501
-0.00100559 	-0.00249353 	-0.000324594 	-0.285501
-0.000845345 	-0.00260341 	-0.000350708 	-0.28546
-0.000845345 	-0.00260341 	-0.000350708 	-0.28546
-0.000682232 	-0.00295817 	-0.000480022 	-0.284883
-0.000682232 	-0.00295817 	-0.000480022 	-0.284883
-0.000516194 	-0.00379207 	-0.000541055 	-0.283314
-0.000516194 	-0.00379207 	-0.000541055 	-0.283314
-0.000347178 	-0.00470938 	-0.000426597 	-0.281428
-0.000347178 	-0.00470938 	-0.000426597 	-0.281428
-0.000175132 	-0.0052466 	-0.000382239 	-0.280159
-0.000175132 	-0.0052466 	-0.000382239 	-0.280159
0 	-0.00538207 	-0.00039945 	-0.279504
0 	-0.00538207 	-0.00039945 	-0.279504
0 	-0.00538207 	-0.00039945 	-0.279504
0 	-0.00538207 	-0.00039945 	-0.279504
0.000175132 	-0.00508634 	-0.000336525 	-0.279425
0.000175132 	-0.00375715 	-0.014674 	-0.3005
0.000347178 	-0.00439258 	-0.000442673 	-0.279954
0.000347178 	-0.00370152 	-0.0148353 	-0.299564
0.000516194 	-0.00342705 	-0.000695262 	-0.280835
0.000516194 	-0.00366072 	-0.0149693 	-0.298645
0.000682232 	-0.00263769 	-0.000647041 	-0.281193
0.000682232 	-0.00367946 	-0.0151008 	-0.297796
0.000845345 	-0.0022765 	-0.000455375 	-0.280742
0.000845345 	-0.00379753 	-0.015234 	-0.29695
0.00100559 	-0.00207858 	-0.000443659 	-0.280021
0.00100559 	-0.00401187 	-0.0153557 	-0.295977
0.001163 	-0.00186062 	-0.000506379 	-0.279245
0.001163 	-0.00428681 	-0.0154607 	-0.294792
0.00131765 	-0.00160781 	-0.000548853 	-0.278399
0.00131765 	-0.00458402 	-0.0155552 	-0.293396
0.00146957 	-0.00134533 	-0.000558483 	-0.277463
0.00146957 	-0.00486763 	-0.0156559 	-0.291844
0.00161881 	-0.00107613 	-0.000561263 	-0.276458
0.00161881 	-0.00511267 	-0.0157127 	-0.290208
0.00176543 	-0.000795595 	-0.000564208 	-0.275406
0.00176543 	-0.00534443 	-0.0156396 	-0.28866
0.00190946 	-0.000501854 	-0.000562777 	-0.274307
0.00190946 	-0.00560882 	-0.0155715 	-0.287443
0.00205095 	-0.000195541 	-0.000555805 	-0.273155
0.00205095 	-0.00586503 	-0.0156303 	-0.286499
0.00218995 	0.000118674 	-0.000545892 	-0.271946
0.00218995 	-0.00602969 	-0.0156396 	-0.285598
0.00232651 	0.000432692 	-0.000538128 	-0.270672
0.00232651 	-0.0060828 	-0.0155307 	-0.284665
0.00246065 	0.000738013 	-0.00053263 	-0.269316
0.00246065 	-0.00605942 	-0.0154336 	-0.283576
0.00259244 	0.0010281 	-0.000521499 	-0.267864
0.00259244 	-0.00600359 	-0.0153061 	-0.282214
0.0027219 	0.00130198 	-0.000501575 	-0.266323
0.0027219 	-0.00593723 	-0.0150598 	-0.280693
0.00284909 	0.00156709 	-0.000479823 	-0.264732
0.00284909 	-0.00588296 	-0.0148416 	-0.279277
0.00297403 	0.00183235 	-0.000460039 	-0.263141
0.00297403 	-0.00583097 	-0.014735 	-0.277976
0.00309677 	0.00210033 	-0.000438617 	-0.261555
0.00309677 	-0.00572726 	-0.0146134 	-0.276576
0.00321735 	0.00236989 	-0.000395472 	-0.259944
0.00321735 	-0.00555622 	-0.0142793 	-0.275007
0.0033358 	0.00264096 	-0.000371924 	-0.258276
0.0033358 	-0.00532941 	-0.014066 	-0.273294
0.00345217 	0.00290603 	-0.000440464 	-0.256546
0.00345217 	-0.00510151 	-0.0145141 	-0.271517
0.00356649 	0.00314564 	-0.00047664 	-0.254784
0.00356649 	-0.00502313 	-0.0146645 	-0.26991
0.00367879 	0.0033696 	-0.00033211 	-0.252969
0.00367879 	-0.00504598 	-0.0135899 	-0.268306
0.00378912 	-0.00470527 	-0.0121203 	-0.265252
0.00378912 	0.00363725 	-8.29342e-05 	-0.250902
0.0038975 	0.00398816 	-1.48321e-05 	-0.24844
0.0038975 	-0.0036005 	-0.0117676 	-0.259621
0.00400397 	0.00437047 	-0.00024068 	-0.24583
0.00400397 	-0.00210588 	-0.0127004 	-0.253281
0.00410857 	0.0047068 	-0.000444633 	-0.243278
0.00410857 	-0.000928085 	-0.0133682 	-0.248446
0.00421133 	0.00496759 	-0.0003738 	-0.240724
0.00421133 	-0.000344324 	-0.0128215 	-0.245072
0.00431227 	0.00517564 	-0.000171532 	-0.238212
0.00431227 	-0.000165368 	-0.0118606 	-0.242398
0.00441144 	0.00536612 	-8.76937e-05 	-0.235809
0.00441144 	-5.16411e-05 	-0.0115251 	-0.239976
0.00450886 	0.00552896 	-0.000172109 	-0.233477
0.00450886 	8.07878e-05 	-0.0118375 	-0.237753
0.00460456 	0.00564676 	-0.000252997 	-0.231177
0.00460456 	9.5816e-05 	-0.0120389 	-0.235736
0.00469858 	0.00573889 	-0.000132365 	-0.228866
0.00469858 	-1.92159e-05 	-0.011236 	-0.233682
0.00479094 	0.00586395 	8.20345e-05 	-0.226381
0.00479094 	0.000129358 	-0.00987371 	-0.230521
0.00488168 	0.00608254 	0.000108265 	-0.223548
0.00488168 	0.00103065 	-0.00930878 	-0.225084
0.00497081 	0.00637481 	-4.30788e-05 	-0.220509
0.00497081 	0.00248088 	-0.00976118 	-0.21874
0.00505838 	0.00665336 	-0.000176774 	-0.217518
0.00505838 	0.00381049 	-0.010416 	-0.213732
0.0051444 	0.00685279 	-0.00013739 	-0.214655
0.0051444 	0.00459848 	-0.0101523 	-0.210212
0.00522891 	0.00697958 	9.16866e-06 	-0.211923
0.00522891 	0.00490186 	-0.00931918 	-0.207356
0.00531193 	0.00504387 	-0.0089815 	-0.204594
0.00531193 	0.00706617 	3.82033e-05 	-0.209261
0.00539348 	0.00712339 	-6.92466e-06 	-0.206604
0.00539348 	0.00518056 	-0.00883483 	-0.201792
0.0054736 	0.00716091 	-2.86376e-05 	-0.203921
0.0054736 	0.00530238 	-0.00872829 	-0.199029
0.00555231 	0.00717548 	-4.10311e-05 	-0.201203
0.00555231 	0.00533117 	-0.00864622 	-0.196391
0.00562963 	0.00716323 	-1.28715e-05 	-0.198428
0.00562963 	0.00524588 	-0.00822689 	-0.193774
0.00570559 	0.00714967 	4.77293e-05 	-0.195509
0.00570559 	0.00522711 	-0.00757153 	-0.190648
0.00578022 	0.00716979 	7.73656e-05 	-0.192346
0.00578022 	0.00553021 	-0.00711311 	-0.186479
0.00585352 	0.00722213 	4.71627e-05 	-0.188981
0.00585352 	0.00617429 	-0.00707244 	-0.181714
0.00592554 	0.00726461 	-9.96678e-06 	-0.185535
0.00592554 	0.00689022 	-0.00721957 	-0.177286
0.00599629 	0.00725435 	-2.20936e-05 	-0.182036
0.00599629 	0.00738647 	-0.00704178 	-0.17341
0.00606579 	0.00760533 	-0.00658397 	-0.169788
0.00606579 	0.00718299 	4.85857e-06 	-0.178427
0.00613406 	0.00706893 	9.8479e-06 	-0.174647
0.00613406 	0.00767423 	-0.00627118 	-0.166165
0.00620114 	0.00692386 	3.73753e-08 	-0.170652
0.00620114 	0.00767093 	-0.00605259 	-0.162453
0.00626703 	0.00674951 	-3.06439e-06 	-0.1664
0.00626703 	0.00760004 	-0.00578168 	-0.158632
0.00633176 	0.00654843 	-4.3997e-06 	-0.161844
0.00633176 	0.00747414 	-0.00549291 	-0.154646
0.00639535 	0.00632523 	-7.28e-06 	-0.15694
0.00639535 	0.00732477 	-0.00520965 	-0.150403
0.00645783 	0.00608513 	-1.11649e-05 	-0.151655
0.00645783 	0.00718901 	-0.00492852 	-0.145791
0.0065192 	0.0058324 	-1.47819e-05 	-0.145968
0.0065192 	0.00709705 	-0.00464322 	-0.140706
0.00657949 	0.00556914 	-1.71724e-05 	-0.139859
0.00657949 	0.00706666 	-0.00435348 	-0.135077
0.00663871 	0.00529443 	-1.89099e-05 	-0.133314
0.00663871 	0.00709952 	-0.00406147 	-0.128866
0.0066969 	0.00500473 	-2.14858e-05 	-0.126322
0.0066969 	0.0071722 	-0.00377056 	-0.122081
0.00675406 	0.00469431 	-2.43053e-05 	-0.11888
0.00675406 	0.00723298 	-0.00347639 	-0.11479
0.00681021 	0.00435861 	-2.51393e-05 	-0.110994
0.00681021 	0.00722546 	-0.00317128 	-0.107066
0.00686537 	0.00399885 	-2.28612e-05 	-0.10268
0.00686537 	0.00711787 	-0.00285417 	-0.098927
0.00691956 	0.00362273 	-1.91383e-05 	-0.093984
0.00691956 	0.00691894 	-0.00253529 	-0.0903803
0.0069728 	0.00324286 	-1.58744e-05 	-0.0849955
0.0069728 	0.00667005 	-0.00222768 	-0.0814924
0.0070251 	0.00287265 	-1.30052e-05 	-0.0758463
0.0070251 	0.00641199 	-0.00193509 	-0.0723918
0.00707647 	0.00252183 	-1.0361e-05 	-0.0666952
0.00707647 	0.00616327 	-0.00165859 	-0.0632493
0.00712695 	0.00219397 	-8.31922e-06 	-0.0577033
0.00712695 	0.0059146 	-0.00140164 	-0.0542412
0.00717653 	0.00188505 	-6.98903e-06 	-0.0490048
0.00717653 	0.00562464 	-0.00116585 	-0.0455167
0.00722524 	0.00158304 	-6.23443e-06 	-0.040691
0.00722524 	0.00521826 	-0.000947336 	-0.0371921
0.00727309 	0.00126695 	-5.8897e-06 	-0.0328139
0.00727309 	0.00458005 	-0.000748792 	-0.02938
0.0073201 	0.000903275 	-5.93194e-06 	-0.025407
0.0073201 	0.00352941 	-0.000588218 	-0.0222468
0.00736628 	0.000437566 	-4.98555e-06 	-0.0185086
0.00736628 	0.00176598 	-0.000357777 	-0.0160892
0.00741165 	-5.09997e-05 	-3.88776e-06 	-0.0121037
0.00741165 	-0.000344665 	-0.000234428 	-0.0109396
0.00745622 	-0.000255404 	-2.43344e-06 	-0.00601977
0.00745622 	-0.00125208 	-0.00011742 	-0.0059391
0.0075 	0 	0 	0
0.0075 	0 	0 	0
