/*--------------------------------*- C++ -*----------------------------------*\
| =========                 |                                                 |
| \\      /  F ield         | OpenFOAM: The Open Source CFD Toolbox           |
|  \\    /   O peration     | Version:  v1912                                 |
|   \\  /    A nd           | Website:  www.openfoam.com                      |
|    \\/     M anipulation  |                                                 |
\*---------------------------------------------------------------------------*/
FoamFile
{
    version     2.0;
    format      ascii;
    class       volScalarField;
    location    "199.2";
    object      omega;
}
// * * * * * * * * * * * * * * * * * * * * * * * * * * * * * * * * * * * * * //

dimensions      [0 0 -1 0 0 0 0];


internalField   nonuniform List<scalar> 
10147
(
156509
156509
156509
156509
156509
156509
156509
156509
156509
156509
156509
156509
156509
156509
156509
156509
26939.1
26886.1
26493.4
27045.5
27042.4
27044.2
27043.9
27044.2
27044
27044.3
27043.9
27044.3
27042.4
27045.6
26500.2
26890
9170.11
9202.46
9129.35
9244.38
9241.47
9243.02
9242.62
9242.86
9242.67
9242.9
9242.67
9243.09
9241.51
9244.45
9130.97
9203.47
4385.93
4426.73
4415.48
4449.63
4446.78
4448.03
4447.58
4447.72
4447.55
4447.77
4447.64
4448.12
4446.84
4449.71
4416.13
4427.24
2551.19
2592
2599.92
2610.48
2607.57
2608.59
2608.08
2608.13
2607.95
2608.19
2608.16
2608.7
2607.66
2610.58
2600.31
2592.37
1685.32
1724.49
1740.08
1741.59
1738.65
1739.46
1738.88
1738.86
1738.68
1738.93
1738.98
1739.59
1738.75
1741.7
1740.38
1724.81
1217.46
1254.2
1272.93
1270.25
1267.39
1268
1267.36
1267.28
1267.1
1267.35
1267.47
1268.14
1267.51
1270.38
1273.18
1254.49
938.553
972.341
991.922
986.99
984.315
984.692
984.022
983.872
983.703
983.95
984.143
984.847
984.452
987.126
992.155
972.616
758.69
789.304
808.473
802.126
799.71
799.84
799.141
798.93
798.772
799.01
799.27
800.004
799.858
802.267
808.688
789.565
634.709
662.172
680.238
672.882
670.762
670.624
669.899
669.629
669.483
669.709
670.034
670.795
670.919
673.026
680.437
662.421
544.209
568.722
585.381
577.24
575.418
574.993
574.24
573.909
573.777
573.989
574.379
575.17
575.583
577.386
585.566
568.96
474.897
496.78
512.003
503.218
501.664
500.936
500.149
499.755
499.635
499.835
500.292
501.119
501.837
503.366
512.176
497.008
419.73
439.384
453.217
443.971
442.638
441.594
440.763
440.304
440.194
440.382
440.91
441.782
442.819
444.123
453.379
439.602
374.509
392.321
404.74
395.31
394.171
392.83
391.96
391.442
391.342
391.52
392.111
393.022
394.36
395.466
404.892
392.53
336.626
352.885
363.849
354.495
353.538
351.941
351.047
350.483
350.393
350.56
351.2
352.135
353.731
354.653
363.991
353.084
304.394
319.238
328.79
319.72
318.923
317.116
316.211
315.614
315.533
315.689
316.363
317.311
319.121
319.88
328.925
319.426
276.666
290.144
298.387
289.769
289.114
287.148
286.245
285.631
285.559
285.704
286.395
287.341
289.313
289.93
298.515
290.32
252.625
264.747
271.814
263.782
263.251
261.187
260.304
259.691
259.627
259.761
260.45
261.376
263.451
263.944
271.936
264.911
231.699
242.432
248.463
241.122
240.704
238.62
237.783
237.191
237.137
237.258
237.923
238.802
240.9
241.283
248.58
242.581
213.356
222.766
227.871
221.313
220.998
218.987
218.219
217.65
217.603
217.713
218.35
219.158
221.188
221.47
227.984
222.906
197.182
205.432
209.671
203.987
203.768
201.879
201.174
200.625
200.585
200.685
201.299
202.041
203.947
204.138
209.779
205.562
182.84
190.134
193.573
188.833
188.692
186.921
186.269
185.745
185.711
185.803
186.387
187.075
188.862
188.975
193.675
190.251
170.067
176.613
179.36
175.547
175.455
173.802
173.196
172.694
172.661
172.749
173.306
173.947
175.617
175.681
179.456
176.719
158.728
164.613
166.782
163.783
163.72
162.193
161.63
161.15
161.119
161.202
161.734
162.329
163.874
163.91
166.871
164.708
148.629
153.887
155.655
153.335
153.287
151.888
151.359
150.905
150.876
150.955
151.458
152.017
153.434
153.455
155.738
153.971
139.607
144.264
145.73
144.025
143.989
142.704
142.207
141.781
141.753
141.828
142.3
142.826
144.127
144.139
145.808
144.338
131.52
135.605
136.827
135.686
135.673
134.489
134.022
133.623
133.597
133.668
134.11
134.604
135.804
135.794
136.9
135.669
124.247
127.787
128.806
128.182
128.199
127.109
126.675
126.302
126.278
126.344
126.758
127.217
128.322
128.285
128.874
127.842
117.686
120.707
121.551
121.398
121.45
120.453
120.052
119.707
119.683
119.746
120.129
120.553
121.564
121.494
121.614
120.753
111.746
114.274
114.959
115.237
115.326
114.423
114.057
113.74
113.717
113.776
114.128
114.515
115.433
115.327
115.017
114.311
106.35
108.409
108.942
109.616
109.745
108.935
108.606
108.317
108.296
108.351
108.67
109.019
109.843
109.7
108.995
108.438
101.431
103.043
103.425
104.465
104.633
103.917
103.626
103.368
103.348
103.398
103.685
103.993
104.723
104.543
103.472
103.064
96.9315
98.1179
98.341
99.7213
99.9302
99.3089
99.056
98.828
98.8098
98.8554
99.1083
99.3769
100.012
99.7925
98.3833
98.1313
92.8003
93.5805
93.634
95.331
95.5811
95.0555
94.8417
94.6447
94.6283
94.669
94.8877
95.1153
95.6546
95.3955
93.6711
93.5867
88.9945
89.3865
89.2548
91.2467
91.5387
91.1103
90.9365
90.7708
90.7565
90.7921
90.9763
91.162
91.6037
91.3044
89.2868
89.3857
85.4767
85.4967
85.1615
87.4265
87.7611
87.4325
87.2996
87.1657
87.1537
87.184
87.3331
87.4761
87.8172
87.4773
85.1883
85.4893
82.2149
81.8742
81.3182
83.8337
84.2111
83.9861
83.8952
83.7937
83.7842
83.8089
83.9225
84.0216
84.2582
83.8776
81.3399
81.8605
79.1807
78.4864
77.6946
80.4362
80.8563
80.7396
80.6921
80.6238
80.6169
80.6359
80.7132
80.7669
80.8944
80.4733
77.7113
78.4667
76.3491
75.3044
74.2653
77.2063
77.669
77.6651
77.6626
77.6286
77.6246
77.6377
77.6774
77.6842
77.6981
77.2363
74.277
75.2791
73.6982
72.3032
71.0089
74.1209
74.6258
74.7389
74.7832
74.7847
74.7838
74.7907
74.7917
74.7497
74.6461
74.1439
71.0159
72.2727
71.2088
69.4611
67.908
71.1648
71.7099
71.942
72.0345
72.0728
72.0752
72.0758
72.0368
71.9447
71.7214
71.1804
67.9105
69.4258
68.8639
66.7592
64.9483
68.326
68.909
69.2568
69.3977
69.4736
69.4794
69.4736
69.3938
69.2516
68.9119
68.3342
64.9464
66.7196
66.649
64.1813
62.1182
65.594
66.2128
66.6704
66.8588
66.9716
66.9809
66.9688
66.849
66.6578
66.2072
65.5949
62.1121
64.1378
64.5518
61.7138
59.4085
62.9589
63.6114
64.1716
64.4075
64.5571
64.5701
64.5515
64.392
64.1517
63.5972
62.9528
59.3986
61.6668
62.5622
59.3443
56.8119
60.4087
61.093
61.7503
62.0353
62.2237
62.2405
62.2155
62.0143
61.7232
61.0701
60.3955
56.7983
59.2944
60.6726
57.0622
54.3227
57.9327
58.6463
59.3996
59.7384
59.9703
59.991
59.9596
59.7119
59.3655
58.6147
57.9128
54.3058
57.0098
58.8697
54.8575
51.9365
55.5236
56.263
57.1178
57.513
57.7858
57.8105
57.7727
57.4814
57.0767
56.2231
55.4971
51.9164
54.8032
57.1356
52.7216
49.6498
53.1779
53.9395
54.9046
55.3515
55.6623
55.691
55.6469
55.3151
54.8571
53.8919
53.1451
49.6269
52.6659
55.4564
50.6469
47.4572
50.8963
51.6778
52.7553
53.2489
53.5944
53.6269
53.577
53.2082
52.702
51.6234
50.8579
47.432
50.5903
53.8211
48.6269
45.3546
48.6827
49.4847
50.6673
51.2024
51.5788
51.6151
51.5596
51.1578
50.609
49.4245
48.6393
45.3273
48.57
52.22
46.6693
43.3417
46.5407
47.3665
48.6392
49.21
49.6136
49.6534
49.5927
49.1621
48.5766
47.3012
46.4926
43.3128
46.6126
50.644
44.7876
41.4191
44.4715
45.3222
46.6694
47.27
47.6963
47.7395
47.674
47.2192
46.6031
45.2523
44.42
41.3889
44.7316
49.0843
42.9818
39.5871
42.4813
43.3434
44.756
45.3798
45.8243
45.8707
45.8009
45.3266
44.6868
43.2703
42.4278
39.5561
42.9267
47.5331
41.2486
37.8455
40.5792
41.436
42.8969
43.5368
43.9946
44.044
43.9703
43.4818
42.8253
41.3612
40.5251
37.8139
41.1945
45.9846
39.5849
36.193
38.7724
39.6098
41.0946
41.7399
42.2047
42.2564
42.1796
41.6836
41.0217
39.5349
38.7185
36.1612
39.5321
44.435
37.9884
34.6277
37.0617
37.8726
39.3474
39.9958
40.4587
40.5117
40.4333
39.9391
39.2746
37.7984
37.0084
34.5958
37.937
42.8823
36.4566
33.1461
35.443
36.2254
37.6702
38.3089
38.7687
38.8211
38.7433
38.2526
37.5982
36.1523
35.3905
33.1144
36.4069
41.3252
34.9875
31.7442
33.9096
34.6639
36.0683
36.691
37.1412
37.1922
37.116
36.6355
35.9976
34.5922
33.8579
31.7129
34.9396
39.7638
33.5795
30.4187
32.4545
33.1818
34.5392
35.1434
35.5812
35.6306
35.5565
35.0889
34.4699
33.1115
32.4037
30.3879
33.5336
38.2037
32.2316
29.1662
31.0709
31.7719
33.0777
33.6621
34.0862
34.134
34.0618
33.6087
33.0098
31.7033
31.021
29.1362
32.1877
36.6691
30.9434
27.9843
29.7527
30.428
31.6758
32.2402
32.6492
32.696
32.6253
32.188
31.6094
30.361
29.7039
27.9552
30.9017
35.193
29.7155
26.8708
28.4951
29.1455
30.3409
30.8858
31.2782
31.3243
31.2549
30.8352
30.2764
29.0805
28.4475
26.8428
29.6761
33.7928
28.5493
25.8244
27.2943
27.9252
29.0679
29.5936
29.9701
30.0155
29.9473
29.5445
29.0054
27.8621
27.2481
25.7976
28.5122
32.4726
27.4464
24.8443
26.1477
26.762
27.852
28.3582
28.7186
28.7635
28.6965
28.3106
27.7914
26.701
26.1031
24.8188
27.4117
31.2345
26.4079
23.9304
25.0538
25.6532
26.6898
27.1758
27.52
27.5644
27.4984
27.1299
26.6314
25.5944
25.0111
23.9064
26.3755
30.0652
25.4338
23.0833
24.0158
24.5972
25.5794
26.0443
26.3716
26.4154
26.3507
26.0001
25.5232
24.5409
23.9748
23.0608
25.4037
28.9535
24.5241
22.3038
23.0426
23.5945
24.52
24.9625
25.2724
25.3155
25.2522
24.9202
24.4661
23.541
23.0048
22.283
24.4962
27.9006
23.6785
21.5929
22.1564
22.6529
23.5115
23.9298
24.2212
24.2637
24.2019
23.8895
23.4602
22.6038
22.1231
21.5738
23.6529
26.9045
22.898
20.9516
21.3709
21.7966
22.5594
22.9522
23.2259
23.2671
23.2076
22.9143
22.5117
21.7537
21.3421
20.9343
22.8747
25.9642
22.1844
20.3807
20.6856
21.0444
21.6899
22.043
22.2947
22.3345
22.2776
22.0086
21.6481
21.0083
20.6608
20.3653
22.1634
25.0797
21.5402
19.8813
20.0975
20.3995
20.935
21.2365
21.4539
21.4904
21.439
21.2071
20.8999
20.3695
20.0764
19.8677
21.5215
24.2515
20.9676
19.4545
19.6045
19.8604
20.3024
20.5573
20.7382
20.7706
20.7258
20.5331
20.2731
19.836
19.5867
19.4426
20.9511
23.4809
20.4682
19.1016
19.2049
19.4251
19.7878
20.0027
20.1525
20.1808
20.1423
19.983
19.7639
19.4057
19.19
19.0915
20.4537
22.7707
20.0438
18.8241
18.8975
19.091
19.3867
19.5656
19.6888
19.7131
19.6805
19.5496
19.3672
19.0749
18.8853
18.8157
20.0314
22.1276
19.6967
18.624
18.6817
18.8534
19.0946
19.2411
19.3409
19.3614
19.3343
19.2284
19.079
18.8401
18.6719
18.6172
19.6861
21.5676
19.4293
18.5032
18.5573
18.7123
18.9088
19.0258
19.1052
19.1218
19.1001
19.0159
18.8966
18.7016
18.5496
18.4981
19.4205
21.1066
19.2445
18.4654
18.5249
18.6682
18.8278
18.9181
18.979
18.9918
18.9752
18.9107
18.8184
18.6598
18.519
18.4618
19.2374
20.7506
19.1455
18.5134
18.5863
18.7206
18.8493
18.9154
18.9608
18.9701
18.9582
18.9101
18.8424
18.7143
18.5821
18.5112
19.1401
20.5017
19.1359
18.6492
18.742
18.8702
18.973
19.0174
19.0495
19.0555
19.0479
19.014
18.9684
18.8656
18.7392
18.6481
19.1321
156509
156509
156509
156509
156509
156509
156509
156509
156509
156509
156509
156509
156509
156509
156509
156509
27060.2
26994.1
26955.2
26975.3
26977.8
26979.8
26980.5
26981
26980.9
26981.1
26980.7
26980.1
26978.1
26975.6
26955.4
26994.2
9261.27
9203.4
9168.46
9186.14
9188.37
9190.08
9190.68
9191.06
9191.05
9191.16
9190.87
9190.36
9188.66
9186.39
9168.62
9203.47
4470.22
4419.02
4386.93
4402.56
4404.69
4406.21
4406.75
4407.06
4407.06
4407.15
4406.93
4406.45
4404.94
4402.81
4387.09
4419.1
2634.54
2587.63
2556.8
2571.3
2573.39
2574.8
2575.3
2575.57
2575.57
2575.66
2575.49
2575.05
2573.64
2571.54
2556.97
2587.72
1767.09
1724.56
1694.95
1708.44
1710.46
1711.77
1712.22
1712.43
1712.43
1712.53
1712.41
1712.02
1710.71
1708.69
1695.13
1724.67
1294.65
1257.54
1229.89
1242.08
1243.93
1245.07
1245.45
1245.59
1245.6
1245.69
1245.64
1245.33
1244.19
1242.33
1230.08
1257.66
1008.07
977.322
952.508
963.009
964.596
965.502
965.769
965.831
965.837
965.927
965.963
965.749
964.848
963.256
952.697
977.451
818.471
794.49
773.137
781.671
782.934
783.557
783.7
783.674
783.677
783.767
783.886
783.795
783.179
781.91
773.323
794.625
683.977
666.587
648.981
655.434
656.353
656.677
656.691
656.576
656.576
656.666
656.867
656.903
656.587
655.66
649.161
666.726
583.354
571.921
558.009
562.429
563.021
563.06
562.951
562.755
562.751
562.841
563.117
563.274
563.245
562.641
558.18
572.063
505.12
498.752
488.213
490.78
491.086
490.873
490.657
490.392
490.384
490.474
490.814
491.075
491.3
490.979
488.375
498.897
442.578
440.34
432.714
433.688
433.763
433.341
433.037
432.717
432.705
432.796
433.186
433.534
433.968
433.875
432.866
440.489
391.451
392.603
387.364
387.048
386.949
386.365
385.993
385.631
385.616
385.707
386.136
386.549
387.146
387.225
387.508
392.758
348.911
352.796
349.533
348.241
348.011
347.31
346.891
346.502
346.485
346.576
347.027
347.487
348.201
348.408
349.67
352.945
313.069
319.018
317.482
315.441
315.114
314.335
313.886
313.487
313.467
313.558
314.016
314.503
315.295
315.599
317.612
319.162
282.58
290.005
289.96
287.34
286.945
286.123
285.663
285.265
285.244
285.333
285.786
286.283
287.118
287.49
290.084
290.143
256.466
264.848
266.046
263.021
262.583
261.752
261.297
260.912
260.889
260.977
261.413
261.903
262.748
263.162
266.164
264.981
233.908
242.891
245.077
241.81
241.351
240.574
240.127
239.758
239.733
239.82
240.236
240.717
241.507
241.942
245.188
243.013
214.332
223.627
226.557
223.208
222.749
222.018
221.582
221.23
221.203
221.289
221.684
222.152
222.896
223.333
226.662
223.739
197.27
206.627
210.107
206.774
206.33
205.649
205.226
204.893
204.863
204.949
205.323
205.775
206.47
206.892
210.206
206.729
182.317
191.547
195.42
192.173
191.757
191.122
190.714
190.399
190.367
190.451
190.805
191.241
191.889
192.284
195.514
191.64
169.13
178.107
182.23
179.129
178.75
178.153
177.769
177.472
177.441
177.522
177.855
178.266
178.875
179.233
182.318
178.191
157.452
166.08
170.376
167.48
167.141
166.589
166.229
165.952
165.921
166
166.31
166.696
167.259
167.577
170.458
166.156
147.071
155.295
159.688
157.033
156.736
156.232
155.897
155.64
155.609
155.685
155.973
156.332
156.847
157.125
159.765
155.363
137.815
145.592
150.02
147.628
147.372
146.917
146.606
146.369
146.339
146.411
146.677
147.01
147.477
147.714
150.092
145.652
129.536
136.832
141.245
139.125
138.913
138.503
138.216
137.998
137.969
138.038
138.283
138.59
139.011
139.206
141.311
136.885
122.095
128.894
133.252
131.407
131.239
130.872
130.609
130.411
130.383
130.447
130.672
130.954
131.332
131.483
133.313
128.94
115.375
121.677
125.945
124.373
124.251
123.924
123.685
123.505
123.478
123.539
123.743
124
124.337
124.444
126.002
121.716
109.285
115.093
119.243
117.938
117.862
117.573
117.358
117.196
117.171
117.227
117.411
117.642
117.942
118.004
119.294
115.124
103.746
109.066
113.072
112.027
111.997
111.745
111.554
111.409
111.386
111.438
111.603
111.808
112.072
112.089
113.119
109.091
98.6911
103.531
107.37
106.578
106.594
106.376
106.209
106.083
106.061
106.109
106.254
106.434
106.662
106.635
107.412
103.549
94.063
98.4331
102.082
101.534
101.596
101.413
101.271
101.161
101.142
101.185
101.311
101.465
101.658
101.586
102.119
98.4451
89.812
93.7236
97.1601
96.8473
96.9551
96.8075
96.6905
96.5986
96.5816
96.6196
96.7257
96.8534
97.0117
96.8952
97.1929
93.7296
85.895
89.3616
92.5621
92.4774
92.6306
92.5196
92.4282
92.3538
92.3395
92.3721
92.4588
92.5594
92.6811
92.5207
92.5904
89.3617
82.2746
85.3072
88.2516
88.3879
88.5863
88.5137
88.4488
88.3921
88.3806
88.4077
88.4746
88.5473
88.6305
88.4263
88.2754
85.3018
78.918
81.4943
84.1968
84.5474
84.791
84.7595
84.722
84.6836
84.6751
84.6964
84.743
84.7869
84.8288
84.5809
84.2162
81.484
75.7965
77.9022
80.3701
80.929
81.218
81.231
81.2221
81.2025
81.1972
81.2126
81.2382
81.2521
81.2493
80.9574
80.3852
77.8872
72.8849
74.5154
76.7478
77.5097
77.8452
77.9064
77.9273
77.9273
77.9254
77.9347
77.9385
77.9211
77.8697
77.533
76.7588
74.4961
70.161
71.322
73.3096
74.2705
74.6542
74.768
74.8203
74.8407
74.8423
74.8453
74.8264
74.7762
74.6719
74.2884
73.3164
71.2986
67.6052
68.3117
70.0378
71.1959
71.6311
71.8021
71.8872
71.9292
71.9344
71.931
71.8881
71.8036
71.6418
71.2083
70.0407
68.2844
65.2002
65.4705
66.9177
68.2735
68.7458
68.9645
69.0823
69.148
69.1576
69.1467
69.0776
68.9588
68.7492
68.2802
66.9168
65.4399
62.9307
62.7793
63.9371
65.4816
65.9698
66.2225
66.3748
66.465
66.4789
66.4607
66.3645
66.2096
65.9657
65.4822
63.9325
62.7457
60.7836
60.2221
61.0859
62.8006
63.2821
63.5796
63.7681
63.8838
63.9019
63.8767
63.7523
63.5595
63.2704
62.7949
61.0778
60.1859
58.7472
57.789
58.3555
60.2164
60.6861
61.0394
61.2649
61.4068
61.4288
61.397
61.2438
61.0125
60.6667
60.2041
58.344
57.7504
56.8114
55.4714
55.7385
57.7189
58.1854
58.6008
58.8611
59.0277
59.0534
59.0156
58.8353
58.5679
58.1586
57.7002
55.7239
55.4307
54.9667
53.2626
53.2287
55.3099
55.7792
56.2512
56.5438
56.7333
56.7625
56.7191
56.514
56.2132
55.7461
55.2849
53.2111
53.2202
53.2038
51.1569
50.8203
52.9851
53.4568
53.9801
54.3036
54.515
54.5475
54.4989
54.2702
53.9373
53.4183
52.9546
50.7999
51.113
51.5137
49.1501
48.5092
50.7347
51.2094
51.7853
52.1381
52.37
52.4056
52.3523
52.1014
51.7383
51.166
50.6992
48.4863
49.105
49.8877
47.2393
46.2929
48.5537
49.0367
49.6654
50.0453
50.2963
50.3347
50.2771
50.0057
49.6147
48.9889
48.5136
46.2678
47.1932
48.3177
45.4078
44.1718
46.4426
46.9389
47.6194
48.0237
48.2918
48.3327
48.2714
47.9815
47.5653
46.8873
46.3981
44.1448
45.3609
46.7956
43.6329
42.1498
44.4023
44.9162
45.6461
46.0718
46.355
46.3981
46.3334
46.0274
45.5892
44.8614
44.3542
42.1213
43.5855
45.3134
41.9117
40.2338
42.4379
42.9688
43.7445
44.1881
44.4839
44.5289
44.4614
44.1418
43.6853
42.9113
42.3875
40.2044
41.8643
43.8592
40.2465
38.4307
40.5548
41.0971
41.9135
42.3711
42.6769
42.7233
42.6536
42.3233
41.8523
41.0375
40.5032
38.4009
40.1995
42.4244
38.6387
36.742
38.7567
39.302
40.1524
40.6202
40.9332
40.9808
40.9095
40.5715
40.0902
39.241
38.7047
36.7122
38.5923
41.0061
37.089
35.1525
37.0443
37.5851
38.4629
38.938
39.256
39.3043
39.2321
38.889
38.4002
37.5234
36.9925
35.1227
37.0436
39.6029
35.5978
33.6449
35.4147
35.9473
36.8464
37.3265
37.6478
37.6967
37.6239
37.2775
36.7836
35.8852
35.3638
33.6153
35.5536
38.2151
34.1652
32.2145
33.8617
34.3879
35.3026
35.7855
36.1087
36.1579
36.085
35.7369
35.2402
34.326
33.8121
32.1853
34.1224
36.8452
32.7912
30.8597
32.3821
32.9057
33.8307
34.3145
34.6379
34.6873
34.6144
34.2664
33.769
32.8443
32.3339
30.831
32.7501
35.4981
31.4763
29.5782
30.9752
31.4987
32.4293
32.912
33.2341
33.2837
33.211
32.8646
32.3684
31.4381
30.9285
29.5502
31.437
34.1818
30.2209
28.3674
29.6394
30.1649
31.0986
31.5775
31.8974
31.9465
31.8746
31.5307
31.0388
30.1053
29.5942
28.3403
30.1835
32.9053
29.0257
27.225
28.3732
28.9001
29.8195
30.291
30.608
30.6563
30.5854
30.2448
29.7605
28.8415
28.3295
27.1988
28.9902
31.6766
27.8916
26.1487
27.1751
27.6948
28.5896
29.0502
29.3608
29.4083
29.3385
29.0048
28.5319
27.6376
27.1329
26.1235
27.8582
30.5011
26.8197
25.1373
26.0443
26.5486
27.4094
27.8553
28.1567
28.2033
28.1348
27.811
27.3532
26.4932
26.0036
25.1133
26.7885
29.3821
25.8111
24.1908
24.9814
25.4621
26.2802
26.7075
26.9966
27.0422
26.9754
26.6645
26.2259
25.409
24.9422
24.168
25.7821
28.3204
24.867
23.3106
23.9863
24.4383
25.2057
25.61
25.884
25.928
25.8635
25.5688
25.1538
24.3882
23.9499
23.2893
24.8401
27.3161
23.9882
22.4994
23.0635
23.4827
24.193
24.5713
24.8281
24.8701
24.8086
24.5323
24.144
23.4361
23.0298
22.4796
23.9635
26.3694
23.1761
21.7588
22.219
22.6016
23.2491
23.5996
23.8382
23.8781
23.82
23.5632
23.2036
22.559
22.1885
21.7407
23.1535
25.4809
22.4318
21.09
21.4575
21.8015
22.3804
22.7013
22.9208
22.9582
22.9039
22.6678
22.3387
21.7633
21.4302
21.0735
22.4113
24.6514
21.757
20.4935
20.7816
21.0898
21.5947
21.8839
22.0829
22.1178
22.0675
21.8537
21.5573
21.0559
20.7576
20.4787
21.7386
23.8823
21.1533
19.9705
20.193
20.4675
20.9001
21.1564
21.3336
21.3656
21.3199
21.1297
20.8672
20.4374
20.172
19.9574
21.1369
23.1756
20.6225
19.5221
19.6926
19.9353
20.3022
20.5261
20.6814
20.7103
20.6695
20.5031
20.2738
19.9089
19.6745
19.5106
20.608
22.5343
20.1662
19.1497
19.2809
19.4944
19.8039
19.9972
20.1319
20.1576
20.1218
19.9778
19.7799
19.4713
19.2655
19.1397
20.1535
21.9624
19.7862
18.855
18.9587
19.1463
19.4093
19.5713
19.6872
19.7097
19.6788
19.5551
19.3895
19.1272
18.9458
18.8466
19.7753
21.4653
19.4847
18.64
18.7266
18.8941
19.1177
19.2515
19.3478
19.3672
19.3411
19.2384
19.1015
18.8786
18.716
18.633
19.4754
21.0495
19.2635
18.5068
18.5855
18.7382
18.9283
19.0385
19.1174
19.1332
19.1121
19.0281
18.9154
18.7256
18.5769
18.5012
19.2558
20.7214
19.1253
18.4582
18.5368
18.679
18.8413
18.9315
18.9954
19.008
18.9914
18.9236
18.8313
18.6691
18.53
18.4539
19.119
20.4863
19.0731
18.4954
18.5818
18.7172
18.856
18.9285
18.9802
18.9898
18.9774
18.9228
18.8485
18.7094
18.5766
18.4923
19.0682
20.3484
19.1089
18.6225
18.7221
18.8539
18.9733
19.0296
19.0704
19.0771
19.0686
19.0258
18.968
18.8482
18.7185
18.6207
19.1053
156509
156509
156509
156509
156509
156509
156509
156509
156509
156509
156509
156509
156509
156509
156509
156509
25915.5
26356.5
26394.7
26967.3
26930.4
26934.2
26935.8
26930
26932.8
26931.9
26938
26937
26933.4
26970.2
26400
26361.5
8941.74
9088.22
9111.34
9231.95
9222.85
9225.1
9225.3
9224.34
9224.8
9224.76
9225.73
9225.65
9223.38
9232.52
9112.62
9089.53
4310.13
4391.34
4413.17
4447.76
4443.05
4444.81
4444.63
4444.41
4444.45
4444.61
4444.86
4445.11
4443.32
4448.05
4413.71
4391.92
2520.76
2580.27
2603.16
2612.81
2609.33
2610.84
2610.49
2610.46
2610.36
2610.59
2610.67
2611.07
2609.53
2613.02
2603.49
2580.64
1672.6
1722.16
1745.9
1746.29
1743.33
1744.63
1744.17
1744.17
1744.02
1744.29
1744.33
1744.82
1743.5
1746.46
1746.17
1722.46
1213.17
1256.26
1279.95
1276.31
1273.68
1274.74
1274.21
1274.2
1274.02
1274.29
1274.35
1274.92
1273.84
1276.46
1280.18
1256.53
938.985
976.635
999.316
993.72
991.39
992.175
991.592
991.532
991.347
991.624
991.729
992.35
991.54
993.866
999.533
976.888
762.17
794.763
815.717
809.065
807.032
807.512
806.885
806.77
806.589
806.857
807.02
807.685
807.184
809.209
815.919
795.002
640.334
668.229
687.02
679.722
677.983
678.134
677.468
677.293
677.121
677.375
677.603
678.305
678.137
679.866
687.209
668.454
551.378
575.013
591.533
583.775
582.308
582.116
581.414
581.174
581.015
581.252
581.549
582.288
582.468
583.922
591.709
575.225
483.115
503.031
517.45
509.302
508.071
507.526
506.786
506.478
506.334
506.553
506.922
507.699
508.237
509.452
517.615
503.23
428.537
445.351
457.901
449.498
448.454
447.551
446.767
446.391
446.26
446.463
446.905
447.727
448.628
449.652
458.056
445.538
383.47
397.814
408.626
400.19
399.305
398.08
397.264
396.826
396.709
396.897
397.402
398.257
399.486
400.349
408.772
397.988
345.346
357.764
366.943
358.673
357.933
356.453
355.628
355.148
355.044
355.217
355.765
356.63
358.118
358.836
367.08
357.934
312.528
323.441
331.127
323.185
322.569
320.912
320.101
319.6
319.51
319.667
320.234
321.086
322.758
323.35
331.257
323.604
283.928
293.663
300.017
292.55
292.045
290.332
289.567
289.073
288.997
289.137
289.695
290.5
292.233
292.714
300.141
293.818
258.867
267.636
272.798
266
265.594
263.953
263.247
262.767
262.703
262.828
263.369
264.112
265.777
266.16
272.916
267.779
236.776
244.776
248.88
242.975
242.658
241.109
240.463
239.999
239.947
240.058
240.579
241.258
242.83
243.127
248.992
244.912
217.232
224.655
227.87
222.988
222.731
221.221
220.597
220.135
220.088
220.191
220.708
221.365
222.893
223.132
227.976
224.78
199.901
206.965
209.463
205.449
205.234
203.759
203.157
202.7
202.658
202.754
203.264
203.896
205.389
205.587
209.563
207.076
184.539
191.359
193.251
189.982
189.802
188.37
187.792
187.344
187.306
187.396
187.894
188.501
189.951
190.114
193.344
191.46
170.939
177.479
178.933
176.293
176.143
174.762
174.211
173.776
173.741
173.825
174.308
174.887
176.286
176.419
179.02
177.57
158.891
165.093
166.218
164.137
164.014
162.693
162.17
161.749
161.718
161.796
162.262
162.812
164.151
164.257
166.3
165.175
148.211
154.008
154.878
153.305
153.209
151.955
151.461
151.058
151.029
151.103
151.548
152.068
153.34
153.419
154.955
154.083
138.732
144.062
144.727
143.622
143.552
142.371
141.907
141.524
141.497
141.567
141.99
142.478
143.676
143.73
144.799
144.128
130.303
135.111
135.61
134.936
134.892
133.789
133.356
132.994
132.969
133.035
133.433
133.89
135.01
135.038
135.677
135.169
122.786
127.032
127.392
127.115
127.099
126.077
125.676
125.337
125.314
125.375
125.749
126.172
127.21
127.212
127.455
127.083
116.056
119.719
119.957
120.049
120.061
119.123
118.754
118.439
118.417
118.474
118.822
119.211
120.165
120.139
120.016
119.762
110.002
113.078
113.207
113.639
113.681
112.829
112.492
112.201
112.181
112.234
112.554
112.91
113.777
113.723
113.261
113.114
104.524
107.028
107.056
107.801
107.874
107.109
106.804
106.539
106.52
106.57
106.862
107.184
107.963
107.879
107.106
107.057
99.5351
101.497
101.43
102.463
102.568
101.89
101.619
101.379
101.361
101.407
101.671
101.958
102.65
102.535
101.475
101.52
94.9713
96.4221
96.2624
97.56
97.698
97.1076
96.8699
96.656
96.6403
96.6819
96.9175
97.1695
97.7731
97.6265
96.3028
96.4389
90.7835
91.7479
91.4985
93.0379
93.2095
92.7065
92.5029
92.3152
92.3013
92.3386
92.5454
92.7618
93.2773
93.0984
91.5343
91.7587
86.9287
87.4247
87.0888
88.8482
89.0538
88.638
88.4689
88.308
88.296
88.3289
88.5063
88.6867
89.1142
88.9026
87.1201
87.43
83.3696
83.4137
82.9907
84.9489
85.1884
84.8596
84.7258
84.592
84.582
84.6103
84.758
84.9017
85.2414
84.9971
83.0175
83.4135
80.0742
79.7128
79.1672
81.3034
81.5763
81.3345
81.2365
81.1302
81.1224
81.1459
81.2636
81.3699
81.6219
81.3455
79.1895
79.7072
77.0147
76.2874
75.586
77.88
78.1849
78.0301
77.9687
77.8905
77.885
77.9036
77.9906
78.0588
78.2231
77.9159
75.604
76.2766
74.1674
73.1004
72.2195
74.6508
74.9858
74.918
74.894
74.8443
74.8413
74.8548
74.9107
74.9401
75.0164
74.6806
72.2332
73.0848
71.5122
70.1205
69.0436
71.5918
71.9537
71.9732
71.9874
71.9668
71.9665
71.9747
71.9989
71.9885
71.9768
71.6154
69.0531
70.1003
69.032
67.3203
66.0378
68.682
69.0651
69.1716
69.2252
69.2349
69.2375
69.2401
69.2314
69.1802
69.0806
68.6994
66.0431
67.2959
66.7132
64.6762
63.1845
65.8982
66.3133
66.5191
66.6141
66.6535
66.6586
66.6564
66.6154
66.5212
66.3213
65.9091
63.1859
64.6479
64.5447
62.1672
60.469
63.2326
63.6969
64.0176
64.1541
64.2238
64.2315
64.2242
64.1504
64.0132
63.6974
63.2373
60.4665
62.1354
62.508
59.7749
57.8791
60.6816
61.2131
61.643
61.8208
61.9208
61.9314
61.9187
61.8121
61.6321
61.2061
60.6803
57.8729
59.74
60.5731
57.4833
55.4045
58.2412
58.8428
59.3755
59.5936
59.7235
59.7372
59.7189
59.58
59.358
58.8283
58.2339
55.3947
57.4457
58.7151
55.2788
53.037
55.9082
56.5702
57.1983
57.4555
57.6142
57.6313
57.6072
57.4371
57.1746
56.5486
55.8949
53.0239
55.2388
56.9187
53.1497
50.7701
53.6701
54.3824
55.0974
55.3919
55.578
55.5985
55.5685
55.3687
55.0677
54.3539
53.6511
50.7539
53.1078
55.1737
51.0981
48.5989
51.5157
52.2686
53.0612
53.3904
53.6021
53.6262
53.5903
53.3628
53.0257
52.2337
51.4914
48.5798
51.0546
53.4724
49.1274
46.518
49.4358
50.2201
51.0802
51.4412
51.6762
51.704
51.6622
51.4095
51.0394
50.1793
49.4068
46.4963
49.0826
51.8088
47.2374
44.5226
47.4238
48.2304
49.147
49.5363
49.792
49.8235
49.7758
49.5008
49.1012
48.1842
47.3908
44.4987
47.1916
50.1778
45.4244
42.6108
45.475
46.2945
47.2557
47.6695
47.9428
47.978
47.9247
47.6306
47.2056
46.2435
45.4386
42.585
45.378
48.5749
43.6812
40.782
43.5864
44.4091
45.4023
45.8362
46.1237
46.1626
46.1038
45.7942
45.3483
44.3539
43.5471
40.7546
43.6345
46.9963
42.0022
39.0359
41.7529
42.572
43.5837
44.0331
44.3311
44.3737
44.3097
43.9884
43.5264
42.5133
41.7109
39.0071
41.9554
45.4384
40.3832
37.3719
39.9751
40.7834
41.7991
42.264
42.5722
42.6176
42.5496
42.2173
41.7392
40.7222
39.931
37.3422
40.3366
43.8981
38.8215
35.7887
38.2617
39.0507
40.0614
40.5395
40.8567
40.9044
40.8334
40.4915
39.9998
38.9882
38.2164
35.7584
38.7754
42.3729
37.3154
34.2835
36.6222
37.3867
38.3839
38.8692
39.1924
39.2417
39.1686
38.8206
38.3218
37.324
36.5765
34.2528
37.27
40.8609
35.8635
32.853
35.061
35.7998
36.7788
37.2646
37.5895
37.6395
37.5657
37.216
36.7169
35.7376
35.0153
32.8222
35.8191
39.3613
34.4655
31.4943
33.5789
34.2906
35.2511
35.7337
36.0572
36.1068
36.0335
35.6856
35.1899
34.2292
33.5332
31.4637
34.4222
37.8755
33.1211
30.205
32.1713
32.8547
33.7997
34.2775
34.5982
34.6472
34.5749
34.2301
33.7393
32.7942
32.1259
30.1748
33.0792
36.4109
31.8308
28.9833
30.8317
31.4857
32.4208
32.8928
33.21
33.2582
33.1871
32.8462
32.3614
31.4261
30.7866
28.9537
31.7904
34.986
30.5952
27.8275
29.554
30.1854
31.1108
31.5752
31.8884
31.9357
31.8659
31.5293
31.0525
30.1267
29.5094
27.7987
30.5566
33.6239
29.4154
26.7363
28.3334
28.9494
29.8633
30.32
30.6279
30.6741
30.6058
30.275
29.8061
28.8917
28.2895
26.7085
29.3786
32.3395
28.2927
25.7091
27.1653
27.7721
28.672
29.1208
29.4235
29.4689
29.4018
29.0768
28.6159
27.7155
27.1223
25.6823
28.2579
31.1398
27.2284
24.7453
26.0503
26.6496
27.5324
27.9729
28.2699
28.3145
28.2485
27.9297
27.4775
26.5942
26.008
24.7198
27.1956
30.0111
26.2236
23.8454
24.9889
25.579
26.4417
26.8728
27.1635
27.2075
27.1426
26.8307
26.3881
25.5249
24.9474
23.8212
26.1928
28.9391
25.279
23.0098
23.9808
24.5586
25.3981
25.8189
26.1027
26.146
26.0823
25.7779
25.3459
24.5059
23.9404
22.9872
25.2501
27.9235
24.3949
22.2397
23.0309
23.5882
24.4009
24.8106
25.0869
25.1296
25.0671
24.7709
24.3503
23.5373
22.9931
22.2188
24.3681
26.9638
23.572
21.5363
22.1617
22.6748
23.4504
23.8482
24.1165
24.1586
24.0973
23.8099
23.4017
22.627
22.1278
21.517
23.5473
26.0589
22.8116
20.9007
21.3866
21.8411
22.5508
22.9332
23.1928
23.2343
23.1744
22.8966
22.5048
21.798
21.3568
20.8832
22.7889
25.2079
22.1156
20.3342
20.706
21.1027
21.7249
22.0768
22.321
22.3613
22.3036
22.043
21.6837
21.065
20.68
20.3185
22.0951
24.4105
21.4864
19.8381
20.1185
20.4648
20.9996
21.3091
21.5266
21.564
21.511
21.2795
20.9639
20.4322
20.096
19.8242
21.4681
23.6672
20.9263
19.4138
19.623
19.9246
20.3818
20.6499
20.8374
20.8708
20.824
20.6245
20.3512
19.8966
19.6037
19.4017
20.91
22.9802
20.4372
19.0629
19.219
19.4814
19.8704
20.1
20.2599
20.2892
20.2485
20.0784
19.8442
19.4577
19.2028
19.0526
20.4229
22.3546
20.0214
18.7872
18.9065
19.135
19.4618
19.6586