/*--------------------------------*- C++ -*----------------------------------*\
| =========                 |                                                 |
| \\      /  F ield         | OpenFOAM: The Open Source CFD Toolbox           |
|  \\    /   O peration     | Version:  v1912                                 |
|   \\  /    A nd           | Website:  www.openfoam.com                      |
|    \\/     M anipulation  |                                                 |
\*---------------------------------------------------------------------------*/
FoamFile
{
    version     2.0;
    format      ascii;
    class       volVectorField;
    location    "199.2";
    object      U;
}
// * * * * * * * * * * * * * * * * * * * * * * * * * * * * * * * * * * * * * //

dimensions      [0 1 -1 0 0 0 0];


internalField   nonuniform List<vector> 
10147
(
(3.18308e-07 5.90851e-07 0.00658578)
(-0.000229432 6.09467e-08 0.00754737)
(-8.27598e-05 -2.76951e-07 0.00824858)
(-2.96151e-05 -1.07797e-07 0.0080428)
(-1.48929e-05 -4.1529e-08 0.00795385)
(-7.67065e-06 -1.50736e-08 0.00795704)
(-2.38488e-06 -4.81038e-10 0.0079374)
(-9.01337e-07 7.77705e-09 0.00793204)
(3.55878e-07 9.65579e-09 0.0079271)
(1.53758e-06 8.90151e-09 0.00793343)
(2.89369e-06 1.47513e-09 0.00793926)
(7.88676e-06 -1.28347e-08 0.00795946)
(1.49319e-05 -4.05173e-08 0.00795599)
(2.95497e-05 -1.07741e-07 0.00804532)
(8.27288e-05 -2.75637e-07 0.00825319)
(0.000229524 5.98482e-08 0.00755346)
(1.45394e-06 7.06674e-06 0.0190081)
(-0.000661012 1.22266e-06 0.0217412)
(-0.000235336 -2.78343e-06 0.0237716)
(-8.56529e-05 -8.08814e-07 0.023186)
(-4.27629e-05 -4.47109e-08 0.0229295)
(-2.15597e-05 3.6606e-07 0.0229359)
(-6.60737e-06 5.4867e-07 0.0228791)
(-2.65158e-06 6.73309e-07 0.0228629)
(5.61161e-07 6.83998e-07 0.022849)
(3.57998e-06 6.72561e-07 0.0228673)
(7.33976e-06 5.45157e-07 0.0228851)
(2.17961e-05 3.61518e-07 0.0229437)
(4.29246e-05 -5.4634e-08 0.0229364)
(8.58598e-05 -8.19447e-07 0.0231939)
(0.00023594 -2.78961e-06 0.0237853)
(0.000662214 1.20574e-06 0.0217589)
(2.81629e-06 1.97588e-05 0.0308334)
(-0.00107017 3.45538e-06 0.0352029)
(-0.00037757 -7.78544e-06 0.0384972)
(-0.000139633 -2.20308e-06 0.0375611)
(-6.95474e-05 -9.27354e-08 0.037146)
(-3.46707e-05 1.08643e-06 0.0371528)
(-1.06655e-05 1.59218e-06 0.0370604)
(-4.48531e-06 1.94817e-06 0.0370331)
(4.38062e-07 1.97668e-06 0.037011)
(5.11639e-06 1.94534e-06 0.0370405)
(1.12422e-05 1.57982e-06 0.0370708)
(3.47983e-05 1.06868e-06 0.0371662)
(6.99338e-05 -1.24993e-07 0.037158)
(0.000140348 -2.23611e-06 0.0375743)
(0.000379149 -7.80633e-06 0.0385197)
(0.00107292 3.40458e-06 0.0352317)
(4.19711e-06 3.88396e-05 0.0420974)
(-0.00145655 6.80988e-06 0.0479653)
(-0.000510146 -1.525e-05 0.0524512)
(-0.00019182 -4.25755e-06 0.0511956)
(-9.54178e-05 -1.66812e-07 0.0506315)
(-4.71787e-05 2.19523e-06 0.0506357)
(-1.46098e-05 3.19492e-06 0.0505095)
(-6.29006e-06 3.90638e-06 0.0504708)
(2.24114e-07 3.96068e-06 0.0504411)
(6.47023e-06 3.89871e-06 0.0504811)
(1.49543e-05 3.16453e-06 0.0505242)
(4.7203e-05 2.1512e-06 0.0506546)
(9.60896e-05 -2.3801e-07 0.0506484)
(0.000193113 -4.3273e-06 0.0512139)
(0.000512747 -1.52973e-05 0.0524821)
(0.00146087 6.70452e-06 0.0480046)
(5.58506e-06 6.39235e-05 0.0528299)
(-0.00181859 1.11161e-05 0.0600595)
(-0.000633049 -2.51344e-05 0.0656605)
(-0.000242025 -6.9897e-06 0.0641153)
(-0.000120179 -3.50483e-07 0.0634123)
(-5.89796e-05 3.586e-06 0.0634111)
(-1.8359e-05 5.23683e-06 0.0632527)
(-8.00483e-06 6.41839e-06 0.0632022)
(-4.61028e-08 6.50508e-06 0.0631656)
(7.63293e-06 6.40211e-06 0.0632154)
(1.84066e-05 5.179e-06 0.0632716)
(5.88972e-05 3.50355e-06 0.0634353)
(0.000121181 -4.74639e-07 0.0634341)
(0.000243951 -7.10917e-06 0.0641386)
(0.000636696 -2.52178e-05 0.0656994)
(0.00182448 1.09378e-05 0.0601087)
(7.00446e-06 9.47556e-05 0.0630548)
(-0.00215455 1.62884e-05 0.0715205)
(-0.000746261 -3.7353e-05 0.0781595)
(-0.000290012 -1.03932e-05 0.0763506)
(-0.000143615 -6.88459e-07 0.0755183)
(-6.99624e-05 5.20617e-06 0.0755093)
(-2.18449e-05 7.66338e-06 0.0753202)
(-9.62068e-06 9.42634e-06 0.0752578)
(-4.00921e-07 9.55246e-06 0.0752148)
(8.54202e-06 9.39779e-06 0.0752738)
(2.14896e-05 7.5682e-06 0.0753433)
(6.97516e-05 5.0721e-06 0.0755388)
(0.000144997 -8.80459e-07 0.0755449)
(0.00029265 -1.05754e-05 0.0763787)
(0.000751015 -3.74824e-05 0.078206)
(0.00216206 1.60175e-05 0.071579)
(8.45045e-06 0.000131104 0.0727921)
(-0.00246299 2.22516e-05 0.082388)
(-0.00084999 -5.18519e-05 0.0899901)
(-0.000335636 -1.44777e-05 0.0879354)
(-0.000165574 -1.2306e-06 0.0869834)
(-8.00635e-05 6.99418e-06 0.0869645)
(-2.50177e-05 1.04087e-05 0.0867461)
(-1.11212e-05 1.286e-05 0.0866717)
(-8.40018e-07 1.30324e-05 0.0866229)
(9.18191e-06 1.2815e-05 0.0866903)
(2.41538e-05 1.02654e-05 0.0867732)
(7.97037e-05 6.79443e-06 0.0869992)
(0.000167387 -1.50669e-06 0.0870148)
(0.000339064 -1.47356e-05 0.0879684)
(0.000855914 -5.20372e-05 0.0900438)
(0.00247215 2.18685e-05 0.0824552)
(9.9117e-06 0.000172744 0.0820561)
(-0.00274248 2.89549e-05 0.0926941)
(-0.000944459 -6.85664e-05 0.101184)
(-0.000378748 -1.92589e-05 0.0988923)
(-0.000185923 -2.02669e-06 0.0978306)
(-8.92328e-05 8.88745e-06 0.0977998)
(-2.78345e-05 1.34052e-05 0.0975534)
(-1.24889e-05 1.66467e-05 0.097467)
(-1.35582e-06 1.6872e-05 0.0974128)
(9.54931e-06 1.65805e-05 0.0974882)
(2.63657e-05 1.32023e-05 0.0975845)
(8.87078e-05 8.6072e-06 0.0978395)
(0.000188215 -2.40315e-06 0.0978667)
(0.000383039 -1.9605e-05 0.0989299)
(0.000951606 -6.88176e-05 0.101245)
(0.00275334 2.84396e-05 0.0927695)
(1.1375e-05 0.000219428 0.0908509)
(-0.00299144 3.63549e-05 0.10245)
(-0.00102976 -8.7407e-05 0.11175)
(-0.000419145 -2.4758e-05 0.109219)
(-0.000204525 -3.13026e-06 0.108059)
(-9.74229e-05 1.08118e-05 0.108014)
(-3.02578e-05 1.65708e-05 0.107741)
(-1.37065e-05 2.0697e-05 0.107643)
(-1.93751e-06 2.09816e-05 0.107584)
(9.64753e-06 2.06048e-05 0.107666)
(2.81011e-05 1.62965e-05 0.107776)
(9.67206e-05 1.04359e-05 0.108059)
(0.000207338 -3.62298e-06 0.1081)
(0.000424361 -2.52047e-05 0.109261)
(0.00103818 -8.77339e-05 0.111817)
(0.00300402 3.56873e-05 0.102533)
(1.2825e-05 0.00027085 0.0991685)
(-0.00320825 4.44003e-05 0.111646)
(-0.00110593 -0.000108263 0.121675)
(-0.000456598 -3.10079e-05 0.118895)
(-0.000221256 -4.60597e-06 0.11765)
(-0.0001046 1.2673e-05 0.117588)
(-3.22621e-05 1.98004e-05 0.117289)
(-1.47607e-05 2.48964e-05 0.117179)
(-2.57106e-06 2.52459e-05 0.117116)
(9.48941e-06 2.47729e-05 0.117205)
(2.93515e-05 1.94429e-05 0.117328)
(0.000103712 1.2186e-05 0.117637)
(0.000224624 -5.2305e-06 0.117695)
(0.000462786 -3.15668e-05 0.11894)
(0.00111564 -0.000108675 0.121747)
(0.00322256 4.35606e-05 0.111736)
(1.42451e-05 0.000326619 0.106996)
(-0.00339185 5.30264e-05 0.120266)
(-0.00117305 -0.000131012 0.130944)
(-0.000490929 -3.80585e-05 0.127902)
(-0.000236051 -6.53367e-06 0.126586)
(-0.00011076 1.4357e-05 0.126503)
(-3.3841e-05 2.29679e-05 0.126179)
(-1.56446e-05 2.91077e-05 0.126057)
(-3.2398e-06 2.95281e-05 0.12599)
(9.09937e-06 2.89478e-05 0.126085)
(3.0131e-05 2.25154e-05 0.126222)
(0.000109685 1.3744e-05 0.126556)
(0.000239996 -7.30469e-06 0.126635)
(0.000498115 -3.874e-05 0.127951)
(0.00118407 -0.00013152 0.131021)
(0.00340787 5.1995e-05 0.120362)
(1.56183e-05 0.000386272 0.114325)
(-0.00354207 6.2155e-05 0.128304)
(-0.0012314 -0.0001555 0.139557)
(-0.000522063 -4.59683e-05 0.136241)
(-0.000248919 -8.99985e-06 0.134866)
(-0.000115938 1.57436e-05 0.134757)
(-3.5009e-05 2.59413e-05 0.134409)
(-1.63593e-05 3.31889e-05 0.134275)
(-3.92622e-06 3.36849e-05 0.134204)
(8.51142e-06 3.29872e-05 0.134305)
(3.04765e-05 2.53824e-05 0.134455)
(0.000114679 1.49901e-05 0.134815)
(0.000253453 -9.93112e-06 0.13492)
(0.000530259 -4.67822e-05 0.136294)
(0.00124373 -0.000156111 0.139638)
(0.00355977 6.09133e-05 0.128406)
(1.69299e-05 0.000449256 0.12116)
(-0.00365971 7.17007e-05 0.13577)
(-0.00128152 -0.000181571 0.147548)
(-0.000550039 -5.47866e-05 0.143933)
(-0.000259941 -1.20882e-05 0.14251)
(-0.000120203 1.67148e-05 0.142369)
(-3.57984e-05 2.85918e-05 0.141997)
(-1.6913e-05 3.70018e-05 0.14185)
(-4.61334e-06 3.75788e-05 0.141776)
(7.7654e-06 3.67532e-05 0.141882)
(3.04415e-05 2.79157e-05 0.142046)
(0.00011877 1.5807e-05 0.142431)
(0.000265066 -1.31921e-05 0.142567)
(0.000559236 -5.57412e-05 0.143989)
(0.00129515 -0.000182296 0.147634)
(0.00367905 7.02306e-05 0.135877)
(1.81679e-05 0.000514997 0.127515)
(-0.00374634 8.15343e-05 0.142688)
(-0.0013241 -0.000209127 0.154978)
(-0.000575028 -6.45641e-05 0.15103)
(-0.00026926 -1.58732e-05 0.149561)
(-0.000123648 1.71656e-05 0.149377)
(-3.62529e-05 3.08027e-05 0.14898)
(-1.73194e-05 4.04195e-05 0.148817)
(-5.28633e-06 4.10826e-05 0.14874)
(6.90241e-06 4.01191e-05 0.14885)
(3.00891e-05 2.99992e-05 0.149032)
(0.000122052 1.60907e-05 0.149444)
(0.00027497 -1.71611e-05 0.149623)
(0.000585206 -6.56672e-05 0.15109)
(0.00133899 -0.000209973 0.155067)
(0.00376726 7.98182e-05 0.142801)
(1.93239e-05 0.00058288 0.133415)
(-0.00380411 9.15453e-05 0.149105)
(-0.00135967 -0.000238016 0.161892)
(-0.000597244 -7.53568e-05 0.157595)
(-0.00027705 -2.04332e-05 0.156083)
(-0.000126373 1.69979e-05 0.155844)
(-3.6421e-05 3.24702e-05 0.155416)
(-1.75956e-05 4.33354e-05 0.155235)
(-5.93519e-06 4.40882e-05 0.155155)
(5.95807e-06 4.29778e-05 0.15527)
(2.94806e-05 3.15288e-05 0.155473)
(0.000124632 1.57426e-05 0.155916)
(0.000283332 -2.19169e-05 0.15615)
(0.000608378 -7.66162e-05 0.157659)
(0.00137581 -0.000238992 0.161984)
(0.00382656 8.95682e-05 0.149222)
(2.03923e-05 0.000652296 0.138892)
(-0.00383527 0.000101622 0.155072)
(-0.00138867 -0.000268047 0.168319)
(-0.000616851 -8.72494e-05 0.163674)
(-0.000283465 -2.58851e-05 0.162124)
(-0.000128474 1.60715e-05 0.16182)
(-3.63495e-05 3.34483e-05 0.16136)
(-1.77585e-05 4.55989e-05 0.161158)
(-6.55214e-06 4.64466e-05 0.161076)
(4.96343e-06 4.51787e-05 0.161196)
(2.86728e-05 3.23589e-05 0.161421)
(0.000126605 1.4623e-05 0.161897)
(0.000290304 -2.75753e-05 0.162195)
(0.000628905 -8.86723e-05 0.163742)
(0.00140602 -0.00026916 0.168414)
(0.00385917 9.93695e-05 0.155195)
(2.13699e-05 0.000722636 0.14398)
(-0.00384193 0.000111645 0.160624)
(-0.00141152 -0.0002991 0.174287)
(-0.000633982 -0.000100305 0.169301)
(-0.000288646 -3.23268e-05 0.167717)
(-0.000130035 1.42601e-05 0.167339)
(-3.60851e-05 3.36023e-05 0.166846)
(-1.78253e-05 4.70708e-05 0.166621)
(-7.12978e-06 4.80172e-05 0.166536)
(3.94906e-06 4.65825e-05 0.166661)
(2.77214e-05 3.23546e-05 0.166911)
(0.000128058 1.26056e-05 0.167422)
(0.00029602 -3.42344e-05 0.167794)
(0.000646913 -0.000101898 0.169373)
(0.00143004 -0.00030036 0.174386)
(0.00386722 0.000109105 0.160752)
(2.22556e-05 0.000793292 0.148712)
(-0.00382625 0.000121516 0.16579)
(-0.00142863 -0.000331059 0.179827)
(-0.000648775 -0.000114618 0.17451)
(-0.000292731 -3.98791e-05 0.172896)
(-0.000131137 1.14218e-05 0.172434)
(-3.56735e-05 3.27842e-05 0.171905)
(-1.78131e-05 4.75979e-05 0.171656)
(-7.6618e-06 4.86472e-05 0.171568)
(2.94357e-06 4.7036e-05 0.171697)
(2.66802e-05 3.13689e-05 0.171975)
(0.000129072 9.54913e-06 0.172522)
(0.000300615 -4.2014e-05 0.172978)
(0.000662534 -0.00011639 0.174586)
(0.00144826 -0.000332473 0.179929)
(0.00385284 0.000118679 0.165924)
(2.30499e-05 0.000863715 0.153124)
(-0.00379043 0.000131148 0.170597)
(-0.00144038 -0.000363834 0.184968)
(-0.000661372 -0.000130252 0.179333)
(-0.000295854 -4.86276e-05 0.177691)
(-0.000131858 7.45144e-06 0.177135)
(-3.51581e-05 3.08843e-05 0.17657)
(-1.77381e-05 4.70665e-05 0.176294)
(-8.14268e-06 4.82231e-05 0.176204)
(1.97329e-06 4.64261e-05 0.176338)
(2.55995e-05 2.92924e-05 0.176644)
(0.000129728 5.34924e-06 0.17723)
(0.000304219 -5.09987e-05 0.17778)
(0.000675906 -0.000132209 0.179414)
(0.00146108 -0.00036541 0.185073)
(0.00381823 0.000128005 0.170735)
(2.37545e-05 0.000933408 0.157247)
(-0.0037367 0.000140463 0.17507)
(-0.00144717 -0.000397318 0.189737)
(-0.000671916 -0.000147237 0.183802)
(-0.000298139 -5.8622e-05 0.182135)
(-0.000132268 2.2892e-06 0.181478)
(-3.45781e-05 2.78381e-05 0.180875)
(-1.76152e-05 4.54036e-05 0.180577)
(-8.56904e-06 4.66714e-05 0.180484)
(1.05931e-06 4.46798e-05 0.180622)
(2.45246e-05 2.60614e-05 0.180954)
(0.000130096 -5.36474e-08 0.181578)
(0.000306957 -6.12377e-05 0.18223)
(0.000687168 -0.000149385 0.183888)
(0.00146887 -0.000399064 0.189845)
(0.00376562 0.000137009 0.175213)
(2.4372e-05 0.00100195 0.161111)
(-0.00366725 0.000149398 0.179235)
(-0.00144934 -0.000431389 0.194164)
(-0.00068055 -0.000165567 0.187948)
(-0.000299705 -6.9878e-05 0.186257)
(-0.00013243 -4.1025e-06 0.185504)
(-3.39636e-05 2.35948e-05 0.184869)
(-1.74566e-05 4.25528e-05 0.184551)
(-8.94028e-06 4.3936e-05 0.184458)
(2.14748e-07 4.17411e-05 0.184598)
(2.34875e-05 2.16262e-05 0.184952)
(0.000130242 -6.69506e-06 0.185609)
(0.000308943 -7.27471e-05 0.186359)
(0.000696461 -0.000167912 0.188039)
(0.00147199 -0.000433312 0.194275)
(0.0036972 0.000145627 0.179382)
(2.49053e-05 0.00106896 0.164742)
(-0.0035842 0.000157896 0.183116)
(-0.00144725 -0.00046591 0.198272)
(-0.000687417 -0.000185191 0.191803)
(-0.000300657 -8.23781e-05 0.190093)
(-0.000132392 -1.176e-05 0.189258)
(-3.3338e-05 1.81125e-05 0.188598)
(-1.72724e-05 3.84707e-05 0.18826)
(-9.25671e-06 3.99737e-05 0.188165)
(-5.51085e-07 3.75666e-05 0.188308)
(2.25111e-05 1.59452e-05 0.188684)
(0.000130213 -1.46105e-05 0.189369)
(0.000310285 -8.55054e-05 0.190201)
(0.000703928 -0.000187741 0.191899)
(0.00147078 -0.000468016 0.198387)
(0.00361507 0.000153805 0.183268)
(2.53577e-05 0.00113411 0.168164)
(-0.00348945 0.00016591 0.186742)
(-0.00144123 -0.000500732 0.202089)
(-0.000692653 -0.000206091 0.195407)
(-0.000301079 -9.61332e-05 0.193685)
(-0.000132192 -2.07022e-05 0.192778)
(-3.27235e-05 1.13699e-05 0.192092)
(-1.70726e-05 3.31271e-05 0.191732)
(-9.51888e-06 3.47544e-05 0.191636)
(-1.22973e-06 3.21265e-05 0.191782)
(2.16166e-05 8.99803e-06 0.192182)
(0.000130047 -2.38191e-05 0.192893)
(0.000311068 -9.95228e-05 0.193798)
(0.000709706 -0.000208848 0.195508)
(0.00146557 -0.000503025 0.202206)
(0.00352117 0.000161495 0.186898)
(2.57324e-05 0.00119709 0.1714)
(-0.00338453 0.000173419 0.190149)
(-0.00143159 -0.000535656 0.205638)
(-0.000696358 -0.000228258 0.198801)
(-0.000301038 -0.000111142 0.19707)
(-0.000131865 -3.09364e-05 0.196089)
(-3.21396e-05 3.34709e-06 0.195376)
(-1.68655e-05 2.64965e-05 0.194995)
(-9.72744e-06 2.82527e-05 0.194897)
(-1.81405e-06 2.53958e-05 0.195047)
(2.08226e-05 7.65772e-07 0.19547)
(0.000129779 -3.43263e-05 0.196209)
(0.000311362 -0.0001148 0.197188)
(0.0007139 -0.000231225 0.198906)
(0.00145668 -0.000538143 0.205758)
(0.00341702 0.000168681 0.190307)
(2.60331e-05 0.00125765 0.174469)
(-0.00327079 0.000180406 0.193366)
(-0.00141861 -0.000570514 0.208953)
(-0.000698611 -0.000251633 0.202009)
(-0.000300594 -0.000127367 0.20027)
(-0.000131442 -4.24706e-05 0.199215)
(-3.16025e-05 -5.97079e-06 0.198475)
(-1.66585e-05 1.85593e-05 0.198072)
(-9.88308e-06 2.04491e-05 0.197973)
(-2.29826e-06 1.73548e-05 0.198125)
(2.01448e-05 -8.76593e-06 0.198572)
(0.000129439 -4.61394e-05 0.199339)
(0.000311228 -0.000131297 0.200393)
(0.000716592 -0.000254815 0.202119)
(0.00144438 -0.000573196 0.209076)
(0.00330395 0.000175345 0.193527)
(2.62635e-05 0.00131554 0.177391)
(-0.00314963 0.000186848 0.196411)
(-0.0014025 -0.000605229 0.212073)
(-0.000699487 -0.00027616 0.205054)
(-0.000299801 -0.000144791 0.203306)
(-0.000130949 -5.531e-05 0.202176)
(-3.11257e-05 -1.6595e-05 0.201409)
(-1.64576e-05 9.29908e-06 0.200983)
(-9.98671e-06 1.13276e-05 0.200883)
(-2.67812e-06 7.98754e-06 0.201038)
(1.95957e-05 -1.96077e-05 0.20151)
(0.000129054 -5.92631e-05 0.202304)
(0.000310721 -0.000148992 0.203435)
(0.000717858 -0.000279557 0.205167)
(0.00142888 -0.000608109 0.212199)
(0.0031834 0.000181465 0.196575)
(2.64273e-05 0.00137057 0.18018)
(-0.00302238 0.000192736 0.199303)
(-0.00138341 -0.000639661 0.215025)
(-0.000699063 -0.000301782 0.207952)
(-0.000298703 -0.000163379 0.206197)
(-0.000130407 -6.94502e-05 0.20499)
(-3.07196e-05 -2.85331e-05 0.204196)
(-1.62676e-05 -1.29621e-06 0.203748)
(-1.00394e-05 8.76017e-07 0.203646)
(-2.95075e-06 -2.71806e-06 0.203804)
(1.91848e-05 -3.17657e-05 0.204301)
(0.000128644 -7.36891e-05 0.205124)
(0.000309886 -0.000167849 0.20633)
(0.000717778 -0.000305394 0.208069)
(0.00141035 -0.000642743 0.215153)
(0.00305665 0.000187033 0.199469)
(2.65279e-05 0.00142256 0.182852)
(-0.00289022 0.000198072 0.202056)
(-0.00136153 -0.000673632 0.217826)
(-0.00069741 -0.000328423 0.21072)
(-0.000297339 -0.000183084 0.208958)
(-0.000129835 -8.48642e-05 0.207675)
(-3.03926e-05 -4.17666e-05 0.206854)
(-1.60926e-05 -1.32204e-05 0.206383)
(-1.00422e-05 -1.08991e-05 0.20628)
(-3.11441e-06 -1.47542e-05 0.206441)
(1.89191e-05 -4.52193e-05 0.206962)
(0.000128229 -8.93889e-05 0.207813)
(0.000308764 -0.000187817 0.209096)
(0.000716423 -0.000332246 0.210842)
(0.00138896 -0.000676919 0.217957)
(0.00292494 0.000192053 0.202224)
(2.65688e-05 0.00147134 0.185419)
(-0.00275431 0.000202862 0.204684)
(-0.00133703 -0.000707033 0.220489)
(-0.000694595 -0.000355987 0.213372)
(-0.000295742 -0.000203836 0.211603)
(-0.000129249 -0.000101505 0.210246)
(-3.01509e-05 -5.62601e-05 0.209398)
(-1.59358e-05 -2.64439e-05 0.208903)
(-9.99646e-06 -2.39681e-05 0.208799)
(-3.16816e-06 -2.80907e-05 0.208963)
(1.88037e-05 -5.99314e-05 0.209509)
(0.000127824 -0.000106312 0.210388)
(0.000307389 -0.000208827 0.211747)
(0.000713864 -0.000360018 0.213498)
(0.0013649 -0.000710525 0.220622)
(0.00278939 0.000196529 0.204854)
(2.65532e-05 0.00151675 0.187894)
(-0.00261566 0.000207119 0.207199)
(-0.00131009 -0.000739751 0.223027)
(-0.00069068 -0.000384366 0.215921)
(-0.000293939 -0.000225552 0.214146)
(-0.000128661 -0.000119299 0.212715)
(-2.9999e-05 -7.19451e-05 0.21184)
(-1.57997e-05 -4.09088e-05 0.211323)
(-9.90329e-06 -3.82733e-05 0.211218)
(-3.11171e-06 -4.26679e-05 0.211384)
(1.8842e-05 -7.58313e-05 0.211955)
(0.000127441 -0.000124382 0.212862)
(0.000305791 -0.000230794 0.214295)
(0.000710164 -0.000388602 0.216051)
(0.00133833 -0.000743449 0.223162)
(0.00265103 0.000200478 0.20737)
(2.64841e-05 0.00155866 0.190286)
(-0.00247523 0.000210864 0.209613)
(-0.00128086 -0.000771667 0.225451)
(-0.000685726 -0.000413439 0.218377)
(-0.000291954 -0.000248135 0.216598)
(-0.000128081 -0.000138152 0.215095)
(-2.99398e-05 -8.87325e-05 0.214193)
(-1.56862e-05 -5.65293e-05 0.213654)
(-9.76393e-06 -5.37288e-05 0.213547)
(-2.94557e-06 -5.83995e-05 0.213716)
(1.90352e-05 -9.28293e-05 0.214311)
(0.000127092 -0.000143507 0.215246)
(0.000303994 -0.000253621 0.216752)
(0.000705385 -0.000417876 0.218512)
(0.00130943 -0.000775574 0.225589)
(0.00251082 0.00020392 0.209785)
(2.63645e-05 0.00159698 0.192604)
(-0.00233391 0.000214123 0.211934)
(-0.00124951 -0.000802665 0.227772)
(-0.000679786 -0.000443074 0.220752)
(-0.000289804 -0.000271477 0.218969)
(-0.000127518 -0.00015796 0.217395)
(-2.99738e-05 -0.000106519 0.216467)
(-1.55964e-05 -7.32021e-05 0.215906)
(-9.5796e-06 -7.02316e-05 0.215798)
(-2.67102e-06 -7.51819e-05 0.215971)
(1.93828e-05 -0.000110821 0.216589)
(0.000126783 -0.000163581 0.217551)
(0.000302016 -0.000277203 0.219127)
(0.000699583 -0.00044771 0.220891)
(0.00127834 -0.000806781 0.227911)
(0.00236965 0.000206882 0.212107)
(2.61971e-05 0.00163165 0.194858)
(-0.00219249 0.000216931 0.214172)
(-0.00121621 -0.000832629 0.229997)
(-0.000672915 -0.000473129 0.223052)
(-0.000287505 -0.000295462 0.221267)
(-0.000126975 -0.000178605 0.219625)
(-3.01003e-05 -0.000125188 0.218673)
(-1.55306e-05 -9.08105e-05 0.21809)
(-9.35153e-06 -8.76652e-05 0.217981)
(-2.29009e-06 -9.28985e-05 0.218156)
(1.98824e-05 -0.000129691 0.218797)
(0.00012652 -0.000184485 0.219785)
(0.000299875 -0.00030142 0.22143)
(0.000692814 -0.00047796 0.223195)
(0.00124525 -0.000836954 0.230138)
(0.00222831 0.0002094 0.214347)
(2.59843e-05 0.00166261 0.197054)
(-0.00205171 0.000219327 0.216336)
(-0.00118112 -0.000861445 0.232134)
(-0.000665161 -0.000503451 0.225287)
(-0.000285066 -0.000319961 0.2235)
(-0.000126457 -0.000199957 0.221794)
(-3.03165e-05 -0.000144611 0.220817)
(-1.54884e-05 -0.000109226 0.220214)
(-9.08097e-06 -0.000105901 0.220103)
(-1.80548e-06 -0.00011142 0.220281)
(2.053e-05 -0.00014931 0.220945)
(0.000126306 -0.00020609 0.221958)
(0.000297583 -0.000326145 0.223668)
(0.000685128 -0.000508474 0.225434)
(0.00121031 -0.000865981 0.232278)
(0.00208755 0.000211511 0.21651)
(2.57286e-05 0.00168986 0.199199)
(-0.00191224 0.000221356 0.218431)
(-0.0011444 -0.000889008 0.234191)
(-0.000656573 -0.00053388 0.227462)
(-0.000282497 -0.000344837 0.225675)
(-0.000125964 -0.000221876 0.223908)
(-3.06186e-05 -0.00016465 0.222908)
(-1.54688e-05 -0.000128308 0.222285)
(-8.76916e-06 -0.000124799 0.222173)
(-1.22051e-06 -0.000130607 0.222354)
(2.13202e-05 -0.00016954 0.223038)
(0.000126141 -0.000228255 0.224075)
(0.000295147 -0.000351241 0.225847)
(0.000676575 -0.000539091 0.227612)
(0.00117368 -0.000893754 0.234336)
(0.00194802 0.000213263 0.218606)
(2.54322e-05 0.0017134 0.201298)
(-0.00177465 0.000223069 0.220464)
(-0.00110621 -0.000915216 0.236173)
(-0.000647193 -0.000564248 0.229582)
(-0.000279801 -0.000369947 0.227798)
(-0.000125496 -0.000244214 0.225973)
(-3.10012e-05 -0.000185155 0.224951)
(-1.54704e-05 -0.000147906 0.22431)
(-8.41733e-06 -0.000144209 0.224196)
(-5.39071e-07 -0.000150307 0.22438)
(2.22464e-05 -0.00019023 0.225084)
(0.000126026 -0.000250832 0.226144)
(0.000292576 -0.000376563 0.227974)
(0.0006672 -0.000569641 0.229737)
(0.00113553 -0.000920173 0.23632)
(0.00181032 0.000214706 0.22064)
(2.50972e-05 0.00173325 0.203357)
(-0.00163949 0.000224521 0.222442)
(-0.0010667 -0.000939979 0.238085)
(-0.000637065 -0.000594379 0.231654)
(-0.000276982 -0.000395138 0.229873)
(-0.000125049 -0.000266814 0.227995)
(-3.14577e-05 -0.000205971 0.226953)
(-1.5491e-05 -0.000167862 0.226294)
(-8.02671e-06 -0.000163973 0.226179)
(2.34444e-07 -0.000170363 0.226364)
(2.33004e-05 -0.000211225 0.227088)
(0.000125956 -0.000273663 0.228169)
(0.000289872 -0.000401959 0.230053)
(0.000657047 -0.000599948 0.231812)
(0.001096 -0.000945146 0.238234)
(0.00167499 0.000215896 0.222616)
(2.47254e-05 0.00174946 0.20538)
(-0.00150722 0.000225774 0.224367)
(-0.00102603 -0.000963213 0.239932)
(-0.000626226 -0.000624097 0.23368)
(-0.000274038 -0.000420255 0.231905)
(-0.000124621 -0.000289513 0.229979)
(-3.19804e-05 -0.000226933 0.228916)
(-1.55281e-05 -0.000188009 0.228241)
(-7.59855e-06 -0.000183924 0.228125)
(1.09514e-06 -0.000190607 0.228313)
(2.44731e-05 -0.00023236 0.229055)
(0.000125929 -0.000296585 0.230155)
(0.000287038 -0.000427271 0.232089)
(0.000646155 -0.000629835 0.233841)
(0.00105527 -0.00096859 0.240082)
(0.00154249 0.000216894 0.224541)
(2.43186e-05 0.00176212 0.207371)
(-0.00137826 0.000226898 0.226245)
(-0.000984364 -0.000984849 0.241717)
(-0.00061471 -0.000653224 0.235663)
(-0.000270969 -0.000445137 0.233896)
(-0.000124205 -0.000312145 0.231926)
(-3.25606e-05 -0.000247872 0.230847)
(-1.55788e-05 -0.000208174 0.230156)
(-7.1341e-06 -0.000203889 0.230039)
(2.03767e-06 -0.000210867 0.230229)
(2.57544e-05 -0.000253467 0.230987)
(0.000125937 -0.000319431 0.232106)
(0.000284071 -0.000452337 0.234083)
(0.000634561 -0.000659121 0.235827)
(0.00101348 -0.000990434 0.241869)
(0.00141323 0.00021777 0.226419)
(2.38784e-05 0.00177131 0.209334)
(-0.00125295 0.000227968 0.228079)
(-0.000941835 -0.00100483 0.243444)
(-0.000602549 -0.000681584 0.237606)
(-0.000267769 -0.000469625 0.23585)
(-0.000123794 -0.000334541 0.233842)
(-3.31886e-05 -0.000268618 0.232746)
(-1.56396e-05 -0.000228183 0.232042)
(-6.63459e-06 -0.000223695 0.231923)
(3.05625e-06 -0.000230968 0.232116)
(2.71329e-05 -0.000274374 0.232888)
(0.000125975 -0.000342033 0.234024)
(0.000280969 -0.000476997 0.23604)
(0.000622295 -0.000687632 0.237773)
(0.000970771 -0.00101062 0.243596)
(0.00128758 0.0002186 0.228252)
(2.34065e-05 0.00177716 0.211271)
(-0.00113159 0.000229059 0.229872)
(-0.000898592 -0.0010231 0.245115)
(-0.00058977 -0.000709013 0.23951)
(-0.000264433 -0.000493561 0.237767)
(-0.000123379 -0.000356533 0.235726)
(-3.38538e-05 -0.000289 0.234617)
(-1.57066e-05 -0.000247858 0.233901)
(-6.10131e-06 -0.000243164 0.233781)
(4.14465e-06 -0.000250731 0.233976)
(2.85966e-05 -0.00029491 0.234761)
(0.000126032 -0.000364224 0.23591)
(0.000277726 -0.000501092 0.23796)
(0.000609387 -0.000715203 0.239679)
(0.000927302 -0.0010291 0.245268)
(0.00116582 0.000219459 0.230043)
(2.29042e-05 0.0017798 0.213185)
(-0.00101442 0.000230223 0.231625)
(-0.000854774 -0.00103965 0.246733)
(-0.000576393 -0.000735359 0.241377)
(-0.000260951 -0.000516794 0.239649)
(-0.000122949 -0.000377956 0.237582)
(-3.45448e-05 -0.000308846 0.236461)
(-1.57758e-05 -0.000267022 0.235735)
(-5.53555e-06 -0.000262119 0.235613)
(5.29622e-06 -0.000269981 0.23581)
(3.01323e-05 -0.000314904 0.236606)
(0.000126098 -0.000385836 0.237768)
(0.000274335 -0.000524472 0.239844)
(0.000595858 -0.000741682 0.241548)
(0.000883208 -0.00104585 0.246887)
(0.00104819 0.000220399 0.231794)
(2.2373e-05 0.00177939 0.215078)
(-0.000901652 0.000231459 0.23334)
(-0.000810515 -0.00105445 0.248299)
(-0.000562435 -0.000760484 0.243206)
(-0.000257312 -0.000539181 0.241497)
(-0.000122493 -0.000398646 0.23941)
(-3.52493e-05 -0.000327986 0.238279)
(-1.58425e-05 -0.000285499 0.237544)
(-4.93864e-06 -0.000280384 0.237421)
(6.50389e-06 -0.00028854 0.237619)
(3.1726e-05 -0.000334188 0.238425)
(0.000126161 -0.000406708 0.239597)
(0.000270785 -0.000546996 0.241694)
(0.000581725 -0.000766933 0.24338)
(0.000838622 -0.00106085 0.248454)
(0.000934909 0.00022142 0.233508)
(2.18142e-05 0.00177611 0.216951)
(-0.000793446 0.000232726 0.235019)
(-0.000765936 -0.00106751 0.249815)
(-0.000547904 -0.000784264 0.244999)
(-0.000253499 -0.000560589 0.243311)
(-0.000121996 -0.000418438 0.241209)
(-3.59543e-05 -0.000346253 0.240071)
(-1.5902e-05 -0.000303111 0.239329)
(-4.31195e-06 -0.000297783 0.239205)
(7.76019e-06 -0.000306231 0.239405)
(3.33632e-05 -0.000352591 0.240218)
(0.000126206 -0.000426675 0.241397)
(0.00026706 -0.00056853 0.243509)
(0.000566997 -0.000790833 0.245174)
(0.000793669 -0.00107411 0.24997)
(0.000826138 0.000222482 0.235185)
(2.12287e-05 0.00177014 0.218806)
(-0.000689944 0.00023395 0.236663)
(-0.000721151 -0.00107884 0.251284)
(-0.000532805 -0.000806582 0.246754)
(-0.000249495 -0.000580884 0.24509)
(-0.000121443 -0.000437173 0.24298)
(-3.66463e-05 -0.000363483 0.241837)
(-1.5949e-05 -0.000319693 0.241089)
(-3.65684e-06 -0.000314151 0.240965)
(9.05735e-06 -0.000322887 0.241166)
(3.50282e-05 -0.000369953 0.241984)
(0.000126217 -0.000445577 0.243169)
(0.000263144 -0.000588944 0.24529)
(0.000551681 -0.000813266 0.24693)
(0.000748461 -0.00108564 0.251439)
(0.000722019 0.000223508 0.236827)
(2.06161e-05 0.00176172 0.220643)
(-0.000591255 0.000235084 0.238273)
(-0.000676256 -0.00108848 0.252705)
(-0.000517137 -0.000827321 0.248472)
(-0.00024528 -0.000599938 0.246834)
(-0.000120816 -0.000454719 0.244721)
(-3.73112e-05 -0.000379559 0.243575)
(-1.59782e-05 -0.00033513 0.242825)
(-2.9747e-06 -0.000329373 0.2427)
(1.03874e-05 -0.000338394 0.242902)
(3.67053e-05 -0.000386151 0.243724)
(0.000126175 -0.000463279 0.244911)
(0.000259017 -0.000608109 0.247034)
(0.000535776 -0.000834117 0.248649)
(0.000703098 -0.00109546 0.25286)
(0.000622659 0.000224451 0.238435)
(1.9974e-05 0.00175107 0.22247)
(-0.000497447 0.000236091 0.23985)
(-0.000631341 -0.00109644 0.25408)
(-0.000500896 -0.000846369 0.25015)
(-0.00024083 -0.000617654 0.248541)
(-0.000120095 -0.000471019 0.246432)
(-3.79357e-05 -0.000394426 0.245286)
(-1.59844e-05 -0.00034937 0.244535)
(-2.26684e-06 -0.000343396 0.244409)
(1.17426e-05 -0.000352698 0.244612)
(3.83792e-05 -0.000401131 0.245435)
(0.000126061 -0.000479722 0.246622)
(0.000254657 -0.000625926 0.248742)
(0.000519279 -0.000853276 0.250327)
(0.000657669 -0.00110361 0.254235)
(0.000528129 0.000225275 0.240009)
(1.92996e-05 0.00173837 0.224301)
(-0.000408551 0.000236968 0.241395)
(-0.00058648 -0.00110277 0.255411)
(-0.000484067 -0.000863657 0.251787)
(-0.000236126 -0.000634006 0.250209)
(-0.000119264 -0.000486063 0.248111)
(-3.85069e-05 -0.000408087 0.246968)
(-1.59628e-05 -0.000362419 0.246217)
(-1.53453e-06 -0.000356227 0.246092)
(1.31158e-05 -0.000365805 0.246294)
(4.00357e-05 -0.000414894 0.247116)
(0.000125857 -0.000494895 0.248301)
(0.000250043 -0.000642371 0.25041)
(0.000502177 -0.000870671 0.251964)
(0.000612252 -0.00111012 0.255565)
(0.000438461 0.000225976 0.241551)
(1.85928e-05 0.00172386 0.226141)
(-0.000324568 0.000237708 0.242908)
(-0.000541746 -0.0011075 0.256697)
(-0.000466636 -0.000879173 0.253381)
(-0.000231149 -0.000649021 0.251837)
(-0.000118307 -0.000499921 0.249756)
(-3.90126e-05 -0.000420607 0.248619)
(-1.59087e-05 -0.000374339 0.247871)
(-7.79032e-07 -0.000367928 0.247746)
(1.45e-05 -0.000377778 0.247948)
(4.16608e-05 -0.000427507 0.248766)
(0.000125545 -0.000508868 0.249945)
(0.000245156 -0.000657467 0.252037)
(0.000484455 -0.000886289 0.253558)
(0.000566918 -0.00111502 0.256851)
(0.000353655 0.000226548 0.243061)
(1.78546e-05 0.00170773 0.227996)
(-0.000245471 0.000238296 0.244388)
(-0.000497201 -0.00111065 0.25794)
(-0.000448588 -0.000892966 0.25493)
(-0.000225883 -0.000662808 0.253422)
(-0.000117208 -0.000512691 0.251365)
(-3.94412e-05 -0.000432081 0.250237)
(-1.58176e-05 -0.000385217 0.249495)
(-1.54217e-09 -0.000378584 0.24937)
(1.58884e-05 -0.000388705 0.249572)
(4.32413e-05 -0.000439063 0.250384)
(0.000125111 -0.000521742 0.251554)
(0.000239982 -0.000671328 0.253621)
(0.0004661 -0.00090018 0.255106)
(0.000521732 -0.00111834 0.258092)
(0.000273686 0.000226975 0.244537)
(1.70859e-05 0.00169017 0.229864)
(-0.000171202 0.000238709 0.245835)
(-0.000452909 -0.00111225 0.25914)
(-0.00042992 -0.000905155 0.256433)
(-0.000220314 -0.000675514 0.254964)
(-0.000115953 -0.000524498 0.252939)
(-3.97814e-05 -0.000442624 0.251823)
(-1.56851e-05 -0.000395161 0.251088)
(7.968e-07 -0.000388303 0.250964)
(1.72746e-05 -0.000398693 0.251165)
(4.47648e-05 -0.000449681 0.251969)
(0.00012454 -0.000533642 0.253126)
(0.000234506 -0.000684101 0.255161)
(0.000447108 -0.000912462 0.256607)
(0.000476759 -0.0011201 0.259291)