
400
(
0.00938652
0.00928155
0.00982758
0.00980536
0.00915715
0.00983565
0.00901995
0.00982972
0.00887676
0.00981101
0.0087374
0.00978266
0.00861645
0.00974753
0.00852331
0.00970668
0.00843121
0.00966034
0.00832518
0.00960979
0.00821768
0.00955557
0.00809936
0.00949596
0.00801196
0.00942978
0.00797839
0.00935708
0.00795995
0.00927821
0.00794104
0.00919348
0.00791538
0.00910336
0.00744013
0.00856965
0.00662165
0.00775218
0.00627162
0.00745194
0.00688584
0.00805952
0.00753809
0.00861504
0.00761097
0.00855141
0.00760456
0.00846048
0.00752632
0.00835313
0.0074311
0.00822877
0.00733167
0.00808752
0.00723246
0.00793029
0.0071199
0.00775864
0.00698361
0.00757447
0.00682319
0.00737947
0.00663718
0.00717483
0.00643174
0.00696089
0.00614578
0.00666926
0.00576123
0.00628532
0.00539803
0.00593347
0.00516201
0.00570973
0.00505754
0.00560198
0.00497671
0.00549389
0.00482953
0.00529847
0.00461992
0.00502934
0.00438079
0.0047295
0.00414029
0.00443356
0.00392067
0.0041655
0.00373049
0.00393243
0.00355719
0.00371965
0.00338042
0.00350397
0.00316897
0.00325336
0.00292019
0.00296656
0.00267704
0.00268706
0.00247341
0.00244947
0.00231281
0.00225984
0.00217275
0.00209768
0.00202597
0.00193372
0.00186279
0.00175496
0.00169133
0.00156823
0.00152412
0.00138853
0.00136672
0.00122415
0.00121818
0.00107428
0.00107621
0.000935912
0.000939103
0.000806691
0.000801813
0.000684364
0.000664618
0.000568753
0.000535229
0.000460419
0.000417775
0.000361025
0.000311812
0.000271101
0.000219634
0.000192318
0.000145636
0.000128611
9.01198e-05
8.03073e-05
5.15571e-05
4.63395e-05
2.70283e-05
2.44709e-05
1.28666e-05
1.17145e-05
5.49593e-06
5.02349e-06
2.06533e-06
1.89281e-06
6.59709e-07
6.05894e-07
1.68775e-07
1.5548e-07
3.12091e-08
2.90357e-08
3.52215e-09
3.53023e-09
2.90168e-10
5.54774e-10
0
8.58622e-26
0.00958913
0.00958753
0.00957617
0.00955067
0.00951433
0.0094703
0.00942123
0.00936908
0.00931549
0.00926227
0.00885509
0.0078785
0.00711766
0.00708355
0.00767692
0.00866072
0.00920372
0.00921156
0.00913887
0.00857018
0.00782247
0.00758295
0.00778011
0.00827609
0.00867966
0.00873439
0.00848726
0.00787785
0.00727006
0.0070981
0.00728888
0.00757175
0.00760146
0.0074146
0.00720355
0.00698138
0.00675015
0.00651148
0.00626697
0.00601802
0.0057656
0.00551047
0.00525339
0.00499494
0.00473575
0.0044765
0.00421624
0.00395504
0.00369473
0.00343628
0.0031807
0.00292899
0.00268198
0.00244056
0.00220436
0.00197269
0.00174845
0.0015351
0.00133346
0.00114382
0.000967376
0.00080534
0.000656383
0.000518923
0.000395558
0.000289597
0.000202164
0.000133414
8.24627e-05
4.72831e-05
2.4907e-05
1.19271e-05
5.12255e-06
1.93296e-06
6.19386e-07
1.59213e-07
2.99676e-08
3.85971e-09
8.04243e-10
0
0.0090431
0.00916869
0.00889766
0.0087409
0.00858009
0.00842504
0.00829015
0.00818571
0.00808636
0.00797766
0.0075172
0.0064819
0.00569984
0.00570487
0.00635866
0.00740828
0.00801575
0.00808203
0.00800833
0.00738987
0.00664879
0.00650601
0.00683967
0.00742017
0.00785285
0.00793671
0.00773141
0.00718002
0.00663132
0.00650724
0.0067326
0.0070341
0.00707231
0.00689111
0.00667946
0.00644594
0.00620243
0.00596705
0.00574979
0.00554908
0.00535618
0.00516176
0.00496011
0.00475011
0.00453381
0.00431403
0.00409269
0.00387065
0.00364836
0.00342626
0.00320464
0.00298196
0.00275706
0.00253281
0.00231219
0.00209579
0.00188405
0.00167767
0.00147735
0.00128412
0.00109979
0.00092279
0.000752248
0.000593733
0.000452307
0.000330309
0.000229479
0.00015044
9.22751e-05
5.25007e-05
2.74644e-05
1.30792e-05
5.59499e-06
2.10548e-06
6.73201e-07
1.72508e-07
3.21411e-08
3.85163e-09
5.39637e-10
0
0.00928155
0.00938652
0.00915715
0.00901995
0.00887676
0.0087374
0.00861645
0.00852331
0.00843121
0.00832518
0.00821768
0.00809936
0.00801196
0.00797839
0.00795995
0.00794104
0.00791538
0.00744013
0.00662165
0.00627162
0.00688584
0.00753809
0.00761097
0.00760456
0.00752632
0.0074311
0.00733167
0.00723246
0.0071199
0.00698361
0.00682319
0.00663718
0.00643174
0.00614578
0.00576123
0.00539803
0.00516201
0.00505754
0.00497671
0.00482953
0.00461992
0.00438079
0.00414029
0.00392067
0.00373049
0.00355719
0.00338042
0.00316897
0.00292019
0.00267704
0.00247341
0.00231281
0.00217275
0.00202597
0.00186279
0.00169133
0.00152412
0.00136672
0.00121818
0.00107621
0.000939103
0.000801813
0.000664618
0.000535229
0.000417775
0.000311812
0.000219634
0.000145636
9.01198e-05
5.15571e-05
2.70283e-05
1.28666e-05
5.49593e-06
2.06533e-06
6.59709e-07
1.68775e-07
3.12091e-08
3.52215e-09
2.90168e-10
0
)
