0 	0 	0 	0
0 	0 	0 	0
0.00752508 	0.000869918 	0.00025619 	-0.282842
0.00752508 	0.000869918 	0.00025619 	-0.282842
0.00757525 	0.000865948 	0.000250861 	-0.282638
0.00762542 	0.000861978 	0.000245533 	-0.282434
0.00762542 	0.000861978 	0.000245533 	-0.282434
0.00767559 	0.000858039 	0.000240177 	-0.28223
0.00772575 	0.000857392 	0.000231715 	-0.282025
0.00777592 	0.000856746 	0.000223253 	-0.281821
0.00782609 	0.000856099 	0.000214792 	-0.281617
0.00782609 	0.000856099 	0.000214792 	-0.281617
0.00787625 	0.000854439 	0.000210925 	-0.281398
0.00792642 	0.000852045 	0.00021039 	-0.281169
0.00797659 	0.00084965 	0.000209856 	-0.280941
0.00802676 	0.000846584 	0.000208824 	-0.280703
0.00802676 	0.000846584 	0.000208824 	-0.280703
0.00807692 	0.000840997 	0.000205924 	-0.280431
0.00812709 	0.000835411 	0.000203023 	-0.280159
0.00812709 	0.000835411 	0.000203023 	-0.280159
0.00817726 	0.000829824 	0.000200123 	-0.279888
0.00822742 	0.000798782 	0.000175994 	-0.279499
0.00822742 	0.000798782 	0.000175994 	-0.279499
0.00827759 	0.000764938 	0.000149528 	-0.279098
0.00832776 	0.000731094 	0.000123063 	-0.278697
0.00832776 	0.000731094 	0.000123063 	-0.278697
0.00837793 	0.000653062 	0.000110632 	-0.278111
0.00842809 	0.00055118 	0.000105776 	-0.277425
0.00842809 	0.00055118 	0.000105776 	-0.277425
0.00847826 	0.000449298 	0.000100921 	-0.276739
0.00847826 	0.000449298 	0.000100921 	-0.276739
0.00852843 	0.000304212 	0.000128344 	-0.275868
0.00852843 	0.000304212 	0.000128344 	-0.275868
0.0085786 	0.000107447 	0.000194379 	-0.274774
0.0085786 	0.000107447 	0.000194379 	-0.274774
0.00862876 	-8.9319e-05 	0.000260415 	-0.273681
0.00867893 	-0.00027178 	0.000318664 	-0.272627
0.00867893 	-0.00027178 	0.000318664 	-0.272627
0.0087291 	-0.000423488 	0.000360172 	-0.271657
0.00877926 	-0.000575196 	0.000401681 	-0.270687
0.00877926 	-0.000575196 	0.000401681 	-0.270687
0.00882943 	-0.00067868 	0.000421685 	-0.269893
0.0088796 	-0.000625095 	0.000371645 	-0.269674
0.0088796 	-0.000625095 	0.000371645 	-0.269674
0.00897993 	-0.000497241 	0.000271484 	-0.269312
0.00897993 	-0.000497241 	0.000271484 	-0.269312
0.0090301 	-0.000343554 	0.000221044 	-0.26947
0.00908027 	-0.000189867 	0.000170604 	-0.269628
0.00908027 	-0.000189867 	0.000170604 	-0.269628
0.00913043 	-4.62312e-05 	0.000132155 	-0.269748
0.0091806 	6.40764e-05 	0.000133466 	-0.269741
0.0091806 	6.40764e-05 	0.000133466 	-0.269741
0.00923077 	0.000174384 	0.000134776 	-0.269734
0.00928094 	0.000265466 	0.000144443 	-0.269649
0.00928094 	0.000265466 	0.000144443 	-0.269649
0.0093311 	0.000313592 	0.000172783 	-0.269388
0.00938127 	0.000361719 	0.000201122 	-0.269127
0.00938127 	0.000361719 	0.000201122 	-0.269127
0.00943144 	0.000395768 	0.000226143 	-0.2688
0.00943144 	0.000395768 	0.000226143 	-0.2688
0.00948161 	0.000411765 	0.00024691 	-0.268389
0.00948161 	0.000411765 	0.00024691 	-0.268389
0.00953177 	0.000427762 	0.000267677 	-0.267978
0.00953177 	0.000427762 	0.000267677 	-0.267978
0.00958194 	0.000438906 	0.000278404 	-0.267536
0.00958194 	0.000438906 	0.000278404 	-0.267536
0.00963211 	0.000447048 	0.000282917 	-0.267075
0.00963211 	0.000447048 	0.000282917 	-0.267075
0.00968227 	0.000455189 	0.00028743 	-0.266613
0.00968227 	0.000455189 	0.00028743 	-0.266613
0.00973244 	0.000461605 	0.000289543 	-0.266136
0.00978261 	0.000467708 	0.000291223 	-0.265656
0.00983278 	0.000473497 	0.000293179 	-0.265174
0.00988294 	0.000477088 	0.000297077 	-0.264678
0.00988294 	0.000477088 	0.000297077 	-0.264678
0.00993311 	0.000480678 	0.000300975 	-0.264182
0.00998328 	0.00048312 	0.000304756 	-0.263678
0.00998328 	0.00048312 	0.000304756 	-0.263678
0.0100334 	0.000484165 	0.000308396 	-0.263165
0.0100334 	0.000484165 	0.000308396 	-0.263165
0.0100836 	0.000485209 	0.000312036 	-0.262652
0.0101338 	0.000484842 	0.000315086 	-0.262125
0.0101338 	0.000484842 	0.000315086 	-0.262125
0.0102341 	0.000483411 	0.000320853 	-0.261061
0.0102341 	0.000483411 	0.000320853 	-0.261061
0.0102843 	0.000482362 	0.000323452 	-0.260514
0.0103344 	0.000481314 	0.00032605 	-0.259966
0.0103344 	0.000481314 	0.00032605 	-0.259966
0.0103846 	0.000480603 	0.000328989 	-0.259407
0.0103846 	0.000480603 	0.000328989 	-0.259407
0.0104348 	0.000480031 	0.000332068 	-0.258842
0.0104849 	0.00047975 	0.000335502 	-0.258273
0.0104849 	0.00047975 	0.000335502 	-0.258273
0.0105351 	0.000480514 	0.000340214 	-0.257692
0.0105853 	0.000481278 	0.000344925 	-0.257112
0.0105853 	0.000481278 	0.000344925 	-0.257112
0.0106355 	0.000484372 	0.000347582 	-0.256523
0.0106856 	0.000488159 	0.000349629 	-0.255931
0.0106856 	0.000488159 	0.000349629 	-0.255931
0.0107358 	0.000493371 	0.000352655 	-0.255337
0.0107358 	0.000493371 	0.000352655 	-0.255337
0.010786 	0.000501034 	0.000357364 	-0.254737
0.010786 	0.000501034 	0.000357364 	-0.254737
0.0108361 	0.00050872 	0.000362082 	-0.254137
0.0108361 	0.00050872 	0.000362082 	-0.254137
0.0108863 	0.000520111 	0.000368112 	-0.253523
0.0109365 	0.000531501 	0.000374142 	-0.252908
0.0109365 	0.000531501 	0.000374142 	-0.252908
0.0109866 	0.000541553 	0.000363802 	-0.252245
0.0109866 	0.000541553 	0.000363802 	-0.252245
0.0110368 	0.000550995 	0.000345994 	-0.25156
0.011087 	0.000546972 	0.00032779 	-0.250772
0.011087 	0.000546972 	0.00032779 	-0.250772
0.0111371 	0.000523412 	0.000309013 	-0.249834
0.0111873 	0.000486346 	0.000297901 	-0.248808
0.0111873 	0.000486346 	0.000297901 	-0.248808
0.0112375 	0.000383056 	0.000324376 	-0.247357
0.0112876 	0.000279766 	0.000350851 	-0.245906
0.0112876 	0.000279766 	0.000350851 	-0.245906
0.0113378 	8.46074e-05 	0.000436519 	-0.243805
0.011388 	-0.00011337 	0.000524003 	-0.241685
0.011388 	-0.00011337 	0.000524003 	-0.241685
0.0114883 	-0.000372548 	0.000594247 	-0.238034
0.0114883 	-0.000372548 	0.000594247 	-0.238034
0.0115385 	-0.000368584 	0.000549267 	-0.237025
0.0115886 	-0.000307165 	0.000470368 	-0.236374
0.0115886 	-0.000307165 	0.000470368 	-0.236374
0.0116388 	-0.000218799 	0.00040554 	-0.235974
0.011689 	-0.000112652 	0.000349996 	-0.235742
0.011689 	-0.000112652 	0.000349996 	-0.235742
0.0117391 	-3.05662e-05 	0.000327176 	-0.235408
0.0117893 	3.21657e-05 	0.000330678 	-0.234994
0.0117893 	3.21657e-05 	0.000330678 	-0.234994
0.0118395 	7.51497e-05 	0.000346713 	-0.23445
0.0118896 	0.000101449 	0.000373336 	-0.233798
0.0118896 	0.000101449 	0.000373336 	-0.233798
0.0119398 	0.000119844 	0.000393071 	-0.233036
0.0119398 	0.000119844 	0.000393071 	-0.233036
0.01199 	0.00013216 	0.00040751 	-0.232189
0.01199 	0.00013216 	0.00040751 	-0.232189
0.0120401 	0.000133656 	0.000407846 	-0.231121
0.0120401 	0.000133656 	0.000407846 	-0.231121
0.0120903 	0.000128617 	0.000399663 	-0.229919
0.0120903 	0.000128617 	0.000399663 	-0.229919
0.0121405 	9.18074e-05 	0.000392528 	-0.228253
0.0121405 	9.18074e-05 	0.000392528 	-0.228253
0.0121906 	4.23799e-05 	0.000385807 	-0.226402
0.0121906 	4.23799e-05 	0.000385807 	-0.226402
0.0122408 	-5.14522e-05 	0.000394032 	-0.224012
0.0122408 	-5.14522e-05 	0.000394032 	-0.224012
0.012291 	-0.000153622 	0.000405068 	-0.22152
0.012291 	-0.000153622 	0.000405068 	-0.22152
0.0123411 	-0.000227023 	0.000413676 	-0.219388
0.0123411 	-0.000227023 	0.000413676 	-0.219388
0.0123913 	-0.000281998 	0.000417604 	-0.217475
0.0123913 	-0.000281998 	0.000417604 	-0.217475
0.0124415 	-0.0002594 	0.00040183 	-0.216487
0.0124916 	-0.000220461 	0.000381794 	-0.215712
0.0124916 	-0.000220461 	0.000381794 	-0.215712
0.012592 	-0.000110709 	0.000339406 	-0.214587
0.012592 	-0.000110709 	0.000339406 	-0.214587
0.0126421 	-6.9906e-05 	0.00032784 	-0.213853
0.0126923 	-5.38358e-05 	0.000328686 	-0.212732
0.0126923 	-5.38358e-05 	0.000328686 	-0.212732
0.0127425 	-4.19918e-05 	0.000329121 	-0.211525
0.0127425 	-4.19918e-05 	0.000329121 	-0.211525
0.0127926 	-3.84016e-05 	0.000326866 	-0.210135
0.0128428 	-3.58609e-05 	0.000320731 	-0.20867
0.0128428 	-3.58609e-05 	0.000320731 	-0.20867
0.012893 	-3.39755e-05 	0.000312174 	-0.207159
0.0129431 	-3.15926e-05 	0.000302541 	-0.205559
0.0129431 	-3.15926e-05 	0.000302541 	-0.205559
0.0129933 	-2.8919e-05 	0.000293032 	-0.203922
0.0130435 	-2.58041e-05 	0.000283733 	-0.202227
0.0130435 	-2.58041e-05 	0.000283733 	-0.202227
0.0130936 	-2.19998e-05 	0.000273981 	-0.200445
0.0131438 	-1.78854e-05 	0.000264077 	-0.198612
0.0131438 	-1.78854e-05 	0.000264077 	-0.198612
0.013194 	-1.33579e-05 	0.000254037 	-0.196697
0.0132441 	-8.78607e-06 	0.000244071 	-0.194685
0.0132441 	-8.78607e-06 	0.000244071 	-0.194685
0.0132943 	-4.22574e-06 	0.00023416 	-0.192603
0.0133445 	2.71096e-07 	0.000224336 	-0.190421
0.0133445 	2.71096e-07 	0.000224336 	-0.190421
0.0133946 	5.06805e-06 	0.00021446 	-0.188109
0.0134448 	1.03102e-05 	0.000204475 	-0.185699
0.0134448 	1.03102e-05 	0.000204475 	-0.185699
0.013495 	1.61599e-05 	0.000194331 	-0.183179
0.0135452 	2.33167e-05 	0.000183963 	-0.180461
0.0135452 	2.33167e-05 	0.000183963 	-0.180461
0.0136455 	4.00072e-05 	0.000163315 	-0.1746
0.0136455 	4.00072e-05 	0.000163315 	-0.1746
0.0136957 	4.95453e-05 	0.000153079 	-0.171398
0.0137458 	5.96794e-05 	0.000142592 	-0.167944
0.0137458 	5.96794e-05 	0.000142592 	-0.167944
0.013796 	6.9887e-05 	0.000131847 	-0.164278
0.0138462 	7.98025e-05 	0.000120958 	-0.160383
0.0138462 	7.98025e-05 	0.000120958 	-0.160383
0.0138963 	8.89502e-05 	0.00011014 	-0.15624
0.0138963 	8.89502e-05 	0.00011014 	-0.15624
0.0139465 	9.60366e-05 	9.99893e-05 	-0.151745
0.0139967 	0.000100972 	9.03881e-05 	-0.146955
0.0139967 	0.000100972 	9.03881e-05 	-0.146955
0.0140468 	0.00010371 	8.10747e-05 	-0.141853
0.0140468 	0.00010371 	8.10747e-05 	-0.141853
0.014097 	0.000104336 	7.1869e-05 	-0.136417
0.0141472 	0.000103182 	6.26972e-05 	-0.130624
0.0141973 	0.000100914 	5.36594e-05 	-0.124456
0.0141973 	0.000100914 	5.36594e-05 	-0.124456
0.0142475 	9.90484e-05 	4.49269e-05 	-0.11784
0.0142977 	9.96248e-05 	3.67245e-05 	-0.110844
0.0143478 	0.000104682 	2.91191e-05 	-0.10349
0.0143478 	0.000104682 	2.91191e-05 	-0.10349
0.014398 	0.000116207 	2.20306e-05 	-0.0958195
0.014398 	0.000116207 	2.20306e-05 	-0.0958195
0.0144482 	0.000135874 	1.55619e-05 	-0.0878985
0.0144983 	0.000164702 	9.88267e-06 	-0.0798178
0.0144983 	0.000164702 	9.88267e-06 	-0.0798178
0.0145485 	0.00020252 	5.1246e-06 	-0.0716817
0.0145987 	0.000247356 	1.46833e-06 	-0.0635874
0.0145987 	0.000247356 	1.46833e-06 	-0.0635874
0.0146488 	0.000294984 	-9.03657e-07 	-0.0555987
0.014699 	0.000338662 	-1.92703e-06 	-0.0477231
0.014699 	0.000338662 	-1.92703e-06 	-0.0477231
0.0147492 	0.000368507 	-1.68075e-06 	-0.0398967
0.0147993 	0.000369478 	-5.22197e-07 	-0.0319666
0.0147993 	0.000369478 	-5.22197e-07 	-0.0319666
0.0148495 	0.000316911 	1.35209e-06 	-0.0237126
0.0148495 	0.000316911 	1.35209e-06 	-0.0237126
0.0148997 	0.000194252 	2.28979e-06 	-0.0151221
0.0148997 	0.000194252 	2.28979e-06 	-0.0151221
0.0149498 	5.21094e-05 	1.62891e-06 	-0.00684379
0.0149498 	5.21094e-05 	1.62891e-06 	-0.00684379
0.015 	0 	0 	0
