/*--------------------------------*- C++ -*----------------------------------*\
| =========                 |                                                 |
| \\      /  F ield         | OpenFOAM: The Open Source CFD Toolbox           |
|  \\    /   O peration     | Version:  v1912                                 |
|   \\  /    A nd           | Website:  www.openfoam.com                      |
|    \\/     M anipulation  |                                                 |
\*---------------------------------------------------------------------------*/
FoamFile
{
    version     2.0;
    format      ascii;
    class       volScalarField;
    location    "198.4";
    object      T;
}
// * * * * * * * * * * * * * * * * * * * * * * * * * * * * * * * * * * * * * //

dimensions      [0 0 0 1 0 0 0];


internalField   nonuniform List<scalar> 
10147
(
347.176
347.018
346.805
346.682
346.639
346.636
346.644
346.654
346.655
346.651
346.639
346.63
346.632
346.676
346.799
347.014
346.965
346.923
346.891
346.872
346.865
346.869
346.886
346.916
346.959
346.989
346.974
346.822
346.585
346.575
346.578
346.623
346.745
346.978
346.786
347.124
346.968
346.758
346.634
346.589
346.584
346.592
346.601
346.602
346.598
346.587
346.578
346.583
346.628
346.752
346.965
347.072
346.919
346.711
346.586
346.539
346.533
346.54
346.549
346.55
346.546
346.535
346.527
346.533
346.58
346.705
346.915
347.021
346.87
346.664
346.539
346.491
346.483
346.489
346.497
346.499
346.495
346.485
346.478
346.485
346.533
346.659
346.866
346.97
346.821
346.618
346.492
346.443
346.434
346.439
346.447
346.448
346.445
346.435
346.428
346.437
346.487
346.613
346.817
346.919
346.772
346.572
346.446
346.395
346.385
346.39
346.397
346.398
346.395
346.386
346.38
346.39
346.441
346.567
346.768
346.869
346.723
346.526
346.401
346.349
346.338
346.341
346.348
346.349
346.346
346.337
346.332
346.343
346.395
346.521
346.72
346.819
346.675
346.481
346.356
346.303
346.291
346.294
346.3
346.301
346.298
346.289
346.285
346.297
346.35
346.476
346.672
346.769
346.627
346.436
346.311
346.257
346.244
346.246
346.253
346.253
346.25
346.242
346.239
346.252
346.306
346.431
346.624
346.72
346.58
346.391
346.267
346.212
346.198
346.2
346.206
346.206
346.204
346.196
346.193
346.207
346.261
346.386
346.576
346.671
346.532
346.346
346.223
346.167
346.152
346.154
346.159
346.16
346.157
346.15
346.148
346.162
346.218
346.341
346.529
346.622
346.485
346.302
346.179
346.123
346.107
346.108
346.113
346.114
346.111
346.104
346.103
346.118
346.174
346.297
346.482
346.573
346.438
346.257
346.136
346.079
346.063
346.063
346.068
346.068
346.066
346.059
346.058
346.074
346.131
346.253
346.435
346.525
346.391
346.213
346.093
346.036
346.019
346.019
346.023
346.023
346.021
346.015
346.014
346.031
346.088
346.209
346.388
346.476
346.345
346.17
346.05
345.993
345.975
345.974
345.979
345.979
345.977
345.971
345.97
345.988
346.045
346.165
346.341
346.429
346.298
346.126
346.008
345.95
345.932
345.931
345.935
345.935
345.933
345.927
345.927
345.945
346.003
346.122
346.295
346.381
346.252
346.083
345.965
345.907
345.889
345.887
345.891
345.891
345.889
345.884
345.884
345.902
345.961
346.079
346.249
346.333
346.207
346.04
345.923
345.865
345.846
345.844
345.848
345.848
345.846
345.841
345.841
345.86
345.919
346.036
346.204
346.286
346.161
345.997
345.881
345.823
345.803
345.801
345.805
345.804
345.803
345.798
345.799
345.818
345.877
345.993
346.158
346.239
346.116
345.954
345.839
345.781
345.761
345.759
345.762
345.761
345.76
345.755
345.756
345.776
345.835
345.95
346.113
346.193
346.07
345.911
345.798
345.739
345.718
345.716
345.719
345.719
345.717
345.713
345.714
345.734
345.793
345.907
346.067
346.146
346.025
345.868
345.756
345.697
345.676
345.674
345.676
345.676
345.675
345.67
345.672
345.692
345.751
345.864
346.022
346.099
345.98
345.825
345.714
345.654
345.634
345.631
345.634
345.633
345.632
345.628
345.63
345.65
345.709
345.821
345.977
346.053
345.935
345.782
345.671
345.611
345.591
345.588
345.591
345.59
345.589
345.585
345.586
345.607
345.667
345.778
345.932
346.006
345.889
345.739
345.628
345.568
345.547
345.544
345.547
345.546
345.545
345.541
345.543
345.563
345.623
345.735
345.887
345.96
345.844
345.695
345.584
345.524
345.503
345.5
345.503
345.502
345.501
345.497
345.499
345.519
345.58
345.691
345.841
345.914
345.799
345.65
345.54
345.479
345.458
345.456
345.459
345.458
345.457
345.453
345.455
345.475
345.536
345.646
345.796
345.868
345.753
345.605
345.496
345.435
345.414
345.411
345.414
345.413
345.412
345.408
345.41
345.431
345.491
345.601
345.751
345.821
345.708
345.56
345.451
345.39
345.369
345.367
345.369
345.369
345.368
345.364
345.366
345.386
345.447
345.556
345.705
345.775
345.662
345.515
345.407
345.346
345.325
345.322
345.325
345.324
345.323
345.319
345.321
345.342
345.403
345.511
345.659
345.729
345.616
345.469
345.362
345.301
345.28
345.277
345.28
345.279
345.278
345.274
345.277
345.297
345.358
345.465
345.613
345.682
345.57
345.423
345.317
345.256
345.236
345.233
345.235
345.234
345.234
345.23
345.232
345.253
345.313
345.42
345.567
345.635
345.523
345.378
345.272
345.212
345.191
345.188
345.19
345.189
345.189
345.185
345.187
345.208
345.268
345.374
345.52
345.588
345.476
345.331
345.227
345.166
345.146
345.143
345.145
345.144
345.144
345.14
345.142
345.163
345.223
345.328
345.473
345.54
345.428
345.285
345.181
345.121
345.1
345.097
345.1
345.099
345.098
345.095
345.097
345.117
345.177
345.281
345.426
345.492
345.381
345.238
345.135
345.075
345.054
345.052
345.054
345.053
345.052
345.049
345.051
345.071
345.131
345.234
345.378
345.444
345.333
345.191
345.089
345.028
345.008
345.005
345.008
345.007
345.006
345.002
345.004
345.025
345.085
345.187
345.33
345.395
345.284
345.143
345.041
344.981
344.961
344.958
344.961
344.96
344.959
344.955
344.957
344.977
345.037
345.139
345.281
345.346
345.234
345.094
344.993
344.933
344.913
344.91
344.913
344.912
344.911
344.908
344.909
344.929
344.989
345.09
345.232
345.297
345.184
345.044
344.944
344.884
344.864
344.862
344.865
344.863
344.863
344.859
344.861
344.88
344.94
345.041
345.182
345.247
345.133
344.994
344.894
344.834
344.814
344.813
344.815
344.814
344.814
344.81
344.811
344.831
344.891
344.99
345.131
345.196
345.082
344.943
344.844
344.784
344.764
344.762
344.765
344.764
344.764
344.76
344.761
344.78
344.84
344.939
345.079
345.144
345.029
344.891
344.792
344.732
344.713
344.711
344.714
344.713
344.712
344.708
344.71
344.729
344.788
344.887
345.026
345.092
344.976
344.837
344.739
344.68
344.661
344.659
344.662
344.661
344.661
344.656
344.657
344.676
344.736
344.834
344.973
345.038
344.922
344.783
344.686
344.626
344.607
344.606
344.609
344.608
344.608
344.604
344.604
344.623
344.682
344.78
344.919
344.984
344.866
344.728
344.631
344.572
344.553
344.552
344.555
344.554
344.554
344.55
344.55
344.568
344.628
344.725
344.863
344.929
344.81
344.672
344.576
344.516
344.498
344.497
344.5
344.499
344.499
344.495
344.495
344.513
344.572
344.668
344.807
344.873
344.752
344.615
344.519
344.46
344.442
344.441
344.444
344.443
344.443
344.439
344.439
344.456
344.515
344.611
344.75
344.816
344.694
344.556
344.461
344.402
344.384
344.384
344.387
344.386
344.386
344.381
344.381
344.399
344.458
344.552
344.691
344.758
344.634
344.496
344.402
344.343
344.326
344.326
344.329
344.328
344.328
344.323
344.323
344.34
344.399
344.493
344.631
344.699
344.573
344.435
344.342
344.283
344.266
344.266
344.27
344.268
344.268
344.263
344.263
344.28
344.338
344.432
344.571
344.639
344.511
344.373
344.28
344.221
344.205
344.205
344.209
344.207
344.207
344.203
344.202
344.218
344.277
344.37
344.508
344.578
344.448
344.309
344.217
344.159
344.142
344.143
344.147
344.145
344.145
344.14
344.139
344.155
344.213
344.306
344.445
344.515
344.382
344.244
344.152
344.094
344.078
344.079
344.083
344.081
344.082
344.077
344.075
344.091
344.149
344.241
344.379
344.451
344.316
344.177
344.086
344.028
344.013
344.014
344.018
344.016
344.017
344.011
344.01
344.025
344.083
344.174
344.313
344.385
344.247
344.109
344.018
343.96
343.945
343.947
343.951
343.949
343.95
343.944
343.942
343.957
344.015
344.105
344.244
344.317
344.176
344.038
343.948
343.89
343.876
343.878
343.882
343.88
343.881
343.875
343.873
343.887
343.944
344.034
344.173
344.248
344.103
343.965
343.875
343.818
343.804
343.806
343.811
343.809
343.81
343.804
343.801
343.815
343.872
343.961
344.1
344.176
344.027
343.889
343.8
343.743
343.73
343.732
343.737
343.735
343.736
343.73
343.727
343.74
343.797
343.885
344.024
344.101
343.948
343.81
343.721
343.665
343.652
343.655
343.66
343.658
343.658
343.652
343.649
343.662
343.718
343.806
343.944
344.022
343.864
343.727
343.638
343.582
343.57
343.573
343.579
343.576
343.577
343.571
343.567
343.579
343.635
343.723
343.86
343.939
343.774
343.637
343.549
343.494
343.482
343.486
343.492
343.489
343.49
343.483
343.479
343.491
343.546
343.634
343.771
343.849
343.676
343.541
343.453
343.398
343.386
343.391
343.397
343.395
343.396
343.388
343.384
343.395
343.449
343.537
343.673
343.75
343.568
343.433
343.345
343.292
343.28
343.285
343.292
343.29
343.291
343.283
343.277
343.288
343.341
343.429
343.564
343.636
343.443
343.31
343.221
343.169
343.158
343.164
343.171
343.169
343.17
343.162
343.155
343.166
343.218
343.306
343.439
343.5
343.293
343.163
343.073
343.022
343.012
343.019
343.027
343.024
343.025
343.016
343.009
343.019
343.069
343.159
343.289
343.329
343.103
342.977
342.885
342.835
342.827
342.834
342.843
342.841
342.842
342.832
342.824
342.832
342.881
342.973
343.099
343.098
342.848
342.728
342.632
342.585
342.578
342.587
342.596
342.594
342.595
342.584
342.575
342.582
342.628
342.723
342.844
342.764
342.481
342.37
342.269
342.225
342.22
342.231
342.242
342.239
342.24
342.228
342.217
342.222
342.266
342.365
342.477
342.248
341.923
341.825
341.718
341.677
341.675
341.689
341.702
341.698
341.7
341.687
341.673
341.675
341.715
341.821
341.919
341.421
341.047
340.967
340.853
340.817
340.819
340.837
340.85
340.847
340.849
340.835
340.817
340.815
340.85
340.963
341.042
340.106
339.685
339.631
339.509
339.482
339.487
339.509
339.523
339.52
339.522
339.507
339.486
339.48
339.507
339.627
339.681
338.149
337.704
337.677
337.552
337.535
337.543
337.567
337.58
337.579
337.579
337.566
337.542
337.534
337.55
337.674
337.701
335.534
335.101
335.098
334.976
334.969
334.976
335.001
335.012
335.012
335.011
335
334.975
334.969
334.975
335.096
335.098
332.404
332.016
332.029
331.918
331.918
331.923
331.947
331.954
331.956
331.954
331.946
331.923
331.919
331.917
332.027
332.013
328.964
328.64
328.66
328.565
328.57
328.572
328.593
328.598
328.6
328.597
328.592
328.572
328.57
328.564
328.658
328.638
325.384
325.131
325.151
325.076
325.083
325.082
325.1
325.102
325.105
325.102
325.099
325.083
325.083
325.076
325.151
325.13
321.777
321.598
321.614
321.56
321.566
321.565
321.578
321.579
321.581
321.579
321.578
321.565
321.566
321.56
321.614
321.597
318.212
318.105
318.115
318.083
318.087
318.086
318.094
318.094
318.096
318.094
318.093
318.086
318.087
318.083
318.115
318.105
314.719
314.684
314.687
314.676
314.678
314.677
314.68
314.68
314.681
314.68
314.68
314.677
314.678
314.676
314.687
314.684
346.667
346.769
346.916
346.932
346.903
346.86
346.829
346.809
346.803
346.807
346.824
346.854
346.896
346.927
346.912
346.767
346.619
346.715
346.856
346.87
346.841
346.799
346.767
346.748
346.741
346.745
346.763
346.793
346.835
346.865
346.852
346.714
346.572
346.663
346.797
346.81
346.781
346.739
346.708
346.689
346.682
346.686
346.703
346.733
346.775
346.805
346.793
346.662
346.526
346.612
346.739
346.752
346.722
346.681
346.65
346.63
346.624
346.628
346.645
346.675
346.717
346.747
346.736
346.611
346.481
346.562
346.683
346.694
346.665
346.623
346.593
346.574
346.567
346.571
346.588
346.618
346.659
346.689
346.68
346.561
346.437
346.513
346.628
346.638
346.608
346.567
346.537
346.518
346.512
346.516
346.532
346.562
346.603
346.633
346.624
346.512
346.393
346.465
346.573
346.582
346.553
346.512
346.482
346.464
346.457
346.461
346.478
346.507
346.547
346.577
346.57
346.464
346.35
346.418
346.52
346.527
346.498
346.458
346.428
346.41
346.404
346.408
346.424
346.453
346.493
346.523
346.517
346.416
346.307
346.371
346.467
346.474
346.444
346.405
346.376
346.357
346.351
346.355
346.371
346.4
346.439
346.469
346.464
346.37
346.264
346.325
346.415
346.42
346.391
346.352
346.323
346.305
346.299
346.303
346.319
346.347
346.386
346.416
346.413
346.323
346.222
346.279
346.364
346.368
346.339
346.301
346.272
346.254
346.248
346.252
346.268
346.296
346.334
346.364
346.361
346.277
346.179
346.233
346.314
346.316
346.288
346.25
346.221
346.204
346.198
346.202
346.217
346.245
346.283
346.312
346.311
346.232
346.137
346.188
346.264
346.265
346.237
346.199
346.171
346.154
346.148
346.152
346.167
346.194
346.232
346.261
346.261
346.186
346.095
346.143
346.215
346.215
346.187
346.149
346.122
346.105
346.099
346.103
346.118
346.145
346.182
346.211
346.212
346.141
346.052
346.098
346.166
346.165
346.137
346.1
346.073
346.056
346.05
346.054
346.069
346.096
346.132
346.161
346.163
346.097
346.01
346.053
346.117
346.116
346.088
346.051
346.024
346.008
346.002
346.006
346.021
346.047
346.083
346.112
346.115
346.052
345.968
346.008
346.069
346.067
346.039
346.003
345.976
345.96
345.954
345.958
345.973
345.998
346.034
346.063
346.067
346.007
345.925
345.964
346.021
346.018
345.99
345.955
345.929
345.912
345.906
345.91
345.925
345.95
345.986
346.014
346.019
345.963
345.882
345.919
345.974
345.97
345.942
345.907
345.881
345.865
345.859
345.863
345.878
345.903
345.938
345.966
345.971
345.918
345.839
345.874
345.926
345.922
345.894
345.859
345.834
345.818
345.812
345.816
345.83
345.855
345.89
345.918
345.924
345.873
345.796
345.83
345.879
345.874
345.846
345.812
345.787
345.771
345.765
345.769
345.783
345.808
345.842
345.87
345.877
345.829
345.752
345.785
345.832
345.826
345.798
345.764
345.739
345.724
345.718
345.722
345.736
345.76
345.794
345.822
345.83
345.784
345.709
345.74
345.785
345.778
345.75
345.717
345.692
345.677
345.671
345.675
345.689
345.713
345.746
345.774
345.783
345.739
345.664
345.695
345.738
345.73
345.703
345.669
345.645
345.63
345.624
345.628
345.642
345.666
345.699
345.727
345.736
345.694
345.62
345.649
345.69
345.682
345.655
345.622
345.598
345.582
345.577
345.581
345.595
345.618
345.651
345.679
345.688
345.648
345.575
345.604
345.643
345.634
345.607
345.574
345.55
345.535
345.53
345.533
345.547
345.571
345.603
345.631
345.641
345.603
345.53
345.558
345.596
345.586
345.559
345.527
345.503
345.488
345.483
345.486
345.5
345.523
345.555
345.583
345.593
345.557
345.485
345.512
345.548
345.538
345.511
345.479
345.456
345.44
345.435
345.439
345.452
345.475
345.507
345.535
345.546
345.511
345.439
345.465
345.5
345.489
345.463
345.431
345.408
345.393
345.388
345.391
345.405
345.428
345.459
345.486
345.498
345.464
345.392
345.419
345.452
345.441
345.415
345.383
345.36
345.345
345.34
345.343
345.357
345.38
345.411
345.438
345.45
345.418
345.345
345.371
345.404
345.393
345.366
345.335
345.312
345.297
345.292
345.296
345.309
345.332
345.363
345.39
345.402
345.371
345.298
345.324
345.355
345.344
345.318
345.287
345.264
345.249
345.244
345.247
345.261
345.283
345.314
345.341
345.353
345.323
345.25
345.276
345.307
345.295
345.269
345.238
345.216
345.201
345.196
345.199
345.213
345.235
345.265
345.292
345.305
345.275
345.202
345.228
345.258
345.246
345.22
345.189
345.167
345.152
345.147
345.15
345.164
345.186
345.217
345.243
345.256
345.227
345.153
345.179
345.208
345.196
345.17
345.14
345.118
345.103
345.098
345.101
345.115
345.137
345.167
345.193
345.206
345.178
345.103
345.129
345.159
345.146
345.121
345.091
345.069
345.054
345.049
345.052
345.066
345.087
345.118
345.144
345.157
345.129
345.053
345.08
345.108
345.096
345.071
345.041
345.019
345.004
344.999
345.002
345.016
345.038
345.068
345.093
345.107
345.079
345.003
345.029
345.058
345.045
345.02
344.99
344.968
344.954
344.949
344.952
344.966
344.987
345.017
345.043
345.056
345.028
344.951
344.978
345.007
344.994
344.969
344.94
344.918
344.903
344.898
344.901
344.915
344.936
344.966
344.991
345.005
344.977
344.899
344.927
344.955
344.942
344.918
344.888
344.866
344.852
344.847
344.85
344.864
344.885
344.915
344.94
344.954
344.926
344.847
344.874
344.903
344.89
344.866
344.836
344.815
344.8
344.795
344.798
344.812
344.833
344.863
344.888
344.902
344.874
344.793
344.821
344.851
344.837
344.813
344.784
344.762
344.747
344.743
344.746
344.759
344.781
344.81
344.835
344.849
344.821
344.739
344.768
344.797
344.784
344.76
344.731
344.709
344.694
344.689
344.693
344.706
344.727
344.757
344.781
344.796
344.767
344.684
344.713
344.743
344.729
344.706
344.677
344.655
344.64
344.635
344.639
344.652
344.674
344.703
344.727
344.742
344.713
344.628
344.658
344.689
344.674
344.651
344.622
344.6
344.585
344.581
344.584
344.598
344.619
344.648
344.672
344.687
344.657
344.571
344.602
344.633
344.618
344.595
344.566
344.545
344.53
344.525
344.528
344.542
344.563
344.592
344.616
344.631
344.601
344.513
344.544
344.576
344.561
344.538
344.509
344.488
344.473
344.468
344.471
344.485
344.506
344.536
344.559
344.575
344.544
344.454
344.486
344.518
344.503
344.481
344.451
344.43
344.415
344.41
344.413
344.427
344.448
344.478
344.501
344.517
344.485
344.393
344.426
344.459
344.444
344.421
344.392
344.371
344.356
344.351
344.354
344.368
344.389
344.419
344.441
344.458
344.426
344.331
344.364
344.398
344.382
344.36
344.331
344.31
344.295
344.29
344.293
344.307
344.328
344.358
344.38
344.397
344.364
344.267
344.301
344.336
344.319
344.298
344.269
344.247
344.232
344.228
344.231
344.245
344.266
344.295
344.317
344.334
344.301
344.201
344.235
344.271
344.254
344.233
344.204
344.182
344.167
344.163
344.166
344.18
344.201
344.23
344.252
344.27
344.235
344.132
344.167
344.203
344.187
344.165
344.136
344.115
344.1
344.095
344.098
344.113
344.133
344.163
344.185
344.202
344.167
344.059
344.095
344.133
344.116
344.095
344.065
344.044
344.029
344.025
344.027
344.042
344.063
344.092
344.114
344.132
344.095
343.983
344.02
344.058
344.04
344.02
343.99
343.969
343.954
343.95
343.953
343.967
343.988
344.017
344.038
344.057
344.02
343.901
343.938
343.978
343.959
343.939
343.91
343.889
343.873
343.869
343.872
343.886
343.907
343.936
343.957
343.977
343.938
343.811
343.849
343.889
343.87
343.85
343.82
343.8
343.784
343.78
343.783
343.798
343.818
343.847
343.868
343.888
343.849
343.71
343.749
343.79
343.77
343.75
343.721
343.701
343.685
343.681
343.683
343.699
343.719
343.748
343.768
343.789
343.749
343.597
343.635
343.678
343.658
343.638
343.609
343.589
343.573
343.569
343.571
343.587
343.607
343.636
343.656
343.678
343.635
343.466
343.506
343.55
343.529
343.51
343.481
343.461
343.444
343.441
343.443
343.459
343.478
343.508
343.527
343.549
343.506
343.314
343.354
343.401
343.379
343.36
343.331
343.312
343.295
343.292
343.294
343.31
343.329
343.358
343.377
343.4
343.354
343.133
343.175
343.223
343.201
343.183
343.154
343.135
343.118
343.115
343.117
343.133
343.152
343.181
343.2
343.223
343.175
342.914
342.957
343.009
342.986
342.968
342.94
342.922
342.904
342.901
342.903
342.92
342.938
342.967
342.985
343.009
342.958
342.645
342.689
342.744
342.721
342.704
342.677
342.659
342.64
342.638
342.639
342.657
342.675
342.703
342.72
342.744
342.69
342.306
342.352
342.411
342.388
342.372
342.345
342.328
342.309
342.307
342.308
342.327
342.344
342.371
342.387
342.411
342.353
341.864
341.914
341.977
341.955
341.94
341.915
341.9
341.879
341.877
341.878
341.899
341.914
341.94
341.955
341.979
341.915
341.268
341.322
341.393
341.372
341.359
341.336
341.322
341.299
341.299
341.299
341.322
341.336
341.359
341.373
341.395
341.324
340.449
340.506
340.587
340.567
340.556
340.537
340.525
340.5
340.5
340.5
340.525
340.537
340.558
340.569
340.59
340.508
339.316
339.375
339.466
339.448
339.44
339.424
339.416
339.388
339.39
339.389
339.416
339.426
339.443
339.451
339.469
339.377
337.776
337.832
337.933
337.917
337.912
337.901
337.896
337.867
337.87
337.868
337.897
337.904
337.916
337.921
337.938
337.836
335.783
335.83
335.935
335.92
335.918
335.912
335.91
335.881
335.885
335.882
335.912
335.916
335.923
335.925
335.941
335.833
333.381
333.415
333.518
333.502
333.503
333.501
333.502
333.473
333.477
333.474
333.504
333.505
333.508
333.508
333.524
333.418
330.704
330.724
330.819
330.803
330.804
330.804
330.807
330.78
330.785
330.781
330.809
330.808
330.809
330.808
330.824
330.727
327.899
327.91
327.991
327.976
327.978
327.979
327.982
327.959
327.963
327.96
327.984
327.982
327.982
327.981
327.996
327.913
325.073
325.079
325.145
325.132
325.133
325.134
325.137
325.118
325.122
325.119
325.139
325.137
325.137
325.135
325.148
325.081
322.284
322.287
322.337
322.327
322.327
322.329
322.331
322.316
322.32
322.317
322.332
322.331
322.33
322.329
322.34
322.288
319.554
319.555
319.59
319.583
319.583
319.585
319.586
319.576
319.578
319.576
319.587
319.586
319.585
319.585
319.592
319.557
316.888
316.889
316.909
316.905
316.905
316.906
316.907
316.901
316.902
316.901
316.907
316.907
316.906
316.906
316.91
316.889
314.283
314.284
314.29
314.289
314.289
314.289
314.29
314.288
314.288
314.288
314.29
314.29
314.289
314.289
314.291
314.284
347.082
346.932
346.703
346.582
346.535
346.53
346.538
346.547
346.549
346.545
346.534
346.525
346.529
346.576
346.698
346.929
347.031
346.883
346.657
346.534
346.486
346.48
346.487
346.496
346.497
346.493
346.483
346.475
346.48
346.528
346.652
346.88
346.98
346.834
346.611
346.488
346.438
346.431
346.437
346.445
346.447
346.443
346.433
346.425
346.432
346.482
346.606
346.831
346.929
346.785
346.565
346.441
346.39
346.382
346.387
346.395
346.397
346.393
346.383
346.376
346.384
346.436
346.56
346.782
346.879
346.736
346.519
346.395
346.343
346.333
346.338
346.346
346.347
346.343
346.334
346.328
346.337
346.39
346.514
346.733
346.828
346.687
346.474
346.35
346.296
346.286
346.29
346.297
346.298
346.295
346.286
346.281
346.291
346.345
346.469
346.684
346.778
346.639
346.428
346.305
346.25
346.239
346.242
346.249
346.25
346.246
346.238
346.233
346.245
346.299
346.423
346.635
346.727
346.59
346.383
346.26
346.204
346.192
346.195
346.201
346.202
346.199
346.191
346.187
346.199
346.255
346.378
346.587
346.677
346.542
346.338
346.215
346.159
346.145
346.148
346.154
346.154
346.151
346.144
346.141
346.154
346.21
346.333
346.538
346.627
346.493
346.293
346.171
346.114
346.1
346.101
346.107
346.107
346.105
346.097
346.095
346.109
346.166
346.288
346.49
346.577
346.445
346.248
346.127
346.069
346.054
346.055
346.06
346.061
346.058
346.052
346.049
346.064
346.122
346.243
346.442
346.527
346.397
346.203
346.083
346.025
346.009
346.01
346.014
346.015
346.012
346.006
346.004
346.02
346.078
346.199
346.394
346.478
346.349
346.159
346.04
345.981
345.964
345.964
345.969
345.969
345.967
345.961
345.96
345.976
346.035
346.154
346.346
346.428
346.302
346.115
345.996
345.937
345.92
345.92
345.924
345.924
345.922
345.916
345.915
345.932
345.992
346.11
346.299
346.379
346.254
346.07
345.953
345.893
345.876
345.875
345.879
345.879
345.877
345.871
345.871
345.888
345.948
346.066
346.251
346.33
346.207
346.026
345.91
345.85
345.832
345.831
345.834
345.835
345.832
345.827
345.827
345.845
345.905
346.022
346.204
346.282
346.16
345.982
345.867
345.806
345.788
345.787
345.79
345.79
345.788
345.783
345.784
345.802
345.862
345.978
346.157
346.233
346.114
345.938
345.824
345.763
345.744
345.743
345.746
345.746
345.744
345.739
345.74
345.759
345.82
345.934
346.111
346.185
346.067
345.895
345.781
345.72
345.701
345.699
345.702
345.702
345.7
345.696
345.697
345.716
345.777
345.89
346.064
346.137
346.021
345.851
345.738
345.677
345.658
345.655
345.658
345.658
345.657
345.652
345.653
345.673
345.734
345.847
346.018
346.09
345.975
345.807
345.695
345.634
345.614
345.612
345.615
345.615
345.613
345.609
345.61
345.63
345.691
345.803
345.972
346.042
345.929
345.763
345.652
345.591
345.571
345.568
345.571
345.571
345.569
345.565
345.567
345.586
345.648
345.759
345.926
345.995
345.883
345.719
345.609
345.547
345.527
345.525
345.528
345.527
345.526
345.522
345.523
345.543
345.605
345.715
345.88
345.948
345.837
345.675
345.566
345.504
345.484
345.481
345.484
345.483
345.482
345.478
345.48
345.5
345.562
345.671
345.834
345.901
345.791
345.631
345.523
345.461
345.441
345.438
345.44
345.44
345.439
345.435
345.437
345.457
345.519
345.627
345.788
345.854
345.745
345.586
345.479
345.417
345.397
345.394
345.397
345.396
345.395
345.391
345.393
345.413
345.475
345.583
345.742
345.808
345.699
345.542
345.436
345.374
345.353
345.351
345.353
345.352
345.351
345.348
345.35
345.37
345.432
345.538
345.696
345.761
345.653
345.498
345.392
345.33
345.31
345.307
345.309
345.308
345.307
345.304
345.306
345.326
345.388
345.494
345.65
345.715
345.607
345.453
345.348
345.286
345.266
345.263
345.265
345.264
345.263
345.26
345.262
345.282
345.344
345.449
345.605
345.668
345.561
345.408
345.304
345.242
345.222
345.219
345.221
345.22
345.219
345.216
345.218
345.238
345.3
345.404
345.559
345.622
345.515
345.363
345.26
345.198
345.177
345.175
345.177
345.176
345.175
345.172
345.174
345.194
345.256
345.359
345.512
345.575
345.469
345.318
345.216
345.153
345.133
345.13
345.132
345.131
345.131
345.127
345.129
345.15
345.212
345.314
345.466
345.529
345.423
345.272
345.171
345.108
345.088
345.085
345.088
345.087
345.086
345.083
345.085
345.105
345.167
345.269
345.42
345.482
345.376
345.227
345.126
345.063
345.043
345.041
345.043
345.042
345.041
345.038
345.04
345.06
345.122
345.223
345.373
345.436
345.329
345.181
345.08
345.018
344.998
344.995
344.998
344.997
344.996
344.993
344.995
345.015
345.077
345.177
345.327
345.389
345.282
345.134
345.035
344.972
344.953
344.95
344.952
344.951
344.951
344.947
344.949
344.969
345.031
345.131
345.28
345.342
345.235
345.088
344.989
344.926
344.907
344.904
344.906
344.906
344.905
344.902
344.903
344.923
344.985
345.084
345.232
345.295
345.188
345.041
344.942
344.88
344.86
344.858
344.86
344.859
344.859
344.855
344.857
344.877
344.939
345.037
345.185
345.247
345.14
344.993
344.895
344.833
344.814
344.812
344.814
344.813
344.812
344.809
344.811
344.83
344.892
344.99
345.137
345.2
345.091
344.945
344.848
344.786
344.767
344.765
344.767
344.766
344.765
344.762
344.763
344.782
344.844
344.942
345.088
345.152
345.042
344.897
344.8
344.738
344.719
344.717
344.719
344.718
344.718
344.714
344.716
344.734
344.796
344.893
345.04
345.103
344.993
344.847
344.751
344.689
344.671
344.669
344.671
344.67
344.67
344.666
344.667
344.686
344.748
344.844
344.99
345.054
344.943
344.797
344.702
344.64
344.621
344.62
344.622
344.621
344.621
344.617
344.618
344.636
344.698
344.794
344.94
345.004
344.892
344.746
344.651
344.589
344.571
344.57
344.573
344.571
344.571
344.567
344.568
344.586
344.648
344.743
344.889
344.954
344.84
344.694
344.6
344.538
344.52
344.519
344.522
344.521
344.52
344.517
344.517
344.535
344.596
344.691
344.837
344.902
344.786
344.641
344.547
344.485
344.468
344.467
344.47
344.468
344.468
344.464
344.465
344.482
344.544
344.637
344.784
344.849
344.732
344.586
344.493
344.431
344.414
344.413
344.416
344.415
344.415
344.411
344.411
344.428
344.489
344.582
344.729
344.794
344.675
344.529
344.437
344.375
344.358
344.358
344.361
344.36
344.359
344.356
344.355
344.372
344.433
344.526
344.672
344.737
344.617
344.471
344.379
344.317
344.3
344.301
344.304
344.302
344.302
344.298
344.297
344.314
344.375
344.467
344.614
344.678
344.556
344.409
344.318
344.256
344.24
344.241
344.244
344.242
344.242
344.238
344.237
344.253
344.315
344.406
344.553
344.616
344.492
344.345
344.254
344.192
344.177
344.177
344.18
344.179
344.179
344.175
344.174
344.189
344.251
344.341
344.489
344.549
344.423
344.275
344.185
344.124
344.108
344.11
344.113
344.111
344.111
344.107
344.106
344.121
344.182
344.272
344.42
344.476
344.348
344.2
344.111
344.049
344.034
344.036
344.039
344.038
344.038
344.034
344.032
344.046
344.108
344.196
344.345
344.397
344.266
344.118
344.029
343.967
343.953
343.955
343.958
343.957
343.957
343.953
343.95
343.965
344.026
344.114
344.263
344.31
344.176
344.027
343.939
343.877
343.863
343.866
343.869
343.868
343.868
343.864
343.861
343.874
343.936
344.023
344.173
344.212
344.076
343.925
343.838
343.776
343.763
343.767
343.769
343.768
343.768
343.764
343.76
343.773
343.835
343.921
344.073
344.102
343.962
343.81
343.724
343.662
343.65
343.654
343.657
343.656
343.655
343.652
343.647
343.659
343.721
343.807
343.959
343.977
343.834
343.679
343.594
343.532
343.521
343.526
343.528
343.528
343.527
343.524
343.518
343.529
343.591
343.676
343.831
343.834
343.686
343.529
343.444
343.382
343.372
343.378
343.381
343.38
343.38
343.376
343.37
343.38
343.442
343.526
343.683
343.667
343.514
343.355
343.271
343.209
343.2
343.207
343.21
343.209
343.208
343.205
343.198
343.207
343.268
343.352
343.511
343.471
343.313
343.151
343.068
343.005
342.998
343.007
343.009
343.009
343.008
343.005
342.996
343.003
343.065
343.148
343.31
343.239
343.075
342.909
342.827
342.764
342.758
342.769
342.771
342.771
342.77
342.767
342.757
342.762
342.825
342.906
343.072
342.961
342.79
342.62
342.539
342.475
342.472
342.484
342.486
342.487
342.485
342.483
342.471
342.474
342.537
342.617
342.787
342.625
342.446
342.27
342.191
342.127
342.126
342.14
342.142
342.143
342.141
342.139
342.125
342.126
342.189
342.267
342.443
342.213
342.025
341.842
341.765
341.7
341.703
341.719
341.72
341.722
341.72
341.718
341.702
341.7
341.763
341.84
342.022
341.697
341.495
341.304
341.228
341.163
341.17
341.189
341.19
341.193
341.19
341.189
341.17
341.163
341.228
341.302
341.492
341.023
340.804
340.6
340.526
340.459
340.472
340.496
340.497
340.5
340.497
340.496
340.473
340.461
340.526
340.598
340.801
340.12
339.878
339.658
339.588
339.519
339.539
339.569
339.57
339.574
339.57
339.57
339.541
339.522
339.588
339.657
339.875
338.898
338.629
338.391
338.324
338.255
338.283
338.319
338.321
338.326
338.322
338.321
338.286
338.258
338.326
338.39
338.626
337.266
336.97
336.716
336.654
336.584
336.622
336.664
336.665
336.673
336.667
336.667
336.626
336.589
336.657
336.716
336.967
335.185
334.87
334.609
334.552
334.483
334.528
334.575
334.577
334.586
334.579
334.579