-0.0075 	0 	0 	0
-0.0075 	2.01096e-34 	2.8145e-36 	-8.60218e-33
-0.00745622 	0.000264301 	3.69909e-06 	-0.0113058
-0.00745622 	0.000264301 	3.69909e-06 	-0.0113058
-0.00741165 	0.000318324 	7.29243e-06 	-0.0224081
-0.00741165 	0.000318324 	7.29243e-06 	-0.0224081
-0.00736628 	0.000259891 	1.14362e-05 	-0.0335283
-0.00736628 	0.000259891 	1.14362e-05 	-0.0335283
-0.0073201 	0.000199606 	1.4823e-05 	-0.0447188
-0.0073201 	0.000199606 	1.4823e-05 	-0.0447188
-0.00727309 	0.000149931 	1.82119e-05 	-0.055853
-0.00727309 	0.000149931 	1.82119e-05 	-0.055853
-0.00722524 	9.42487e-05 	2.1391e-05 	-0.0667946
-0.00722524 	9.42487e-05 	2.1391e-05 	-0.0667946
-0.00717653 	2.92277e-05 	2.4253e-05 	-0.0774407
-0.00717653 	2.92277e-05 	2.4253e-05 	-0.0774407
-0.00712695 	-4.3822e-05 	2.6704e-05 	-0.0877005
-0.00712695 	-4.3822e-05 	2.6704e-05 	-0.0877005
-0.00707647 	-0.000122065 	2.86506e-05 	-0.0974958
-0.00707647 	-0.000122065 	2.86506e-05 	-0.0974958
-0.0070251 	-0.000202041 	3.00968e-05 	-0.10677
-0.0070251 	-0.000202041 	3.00968e-05 	-0.10677
-0.0069728 	-0.00028028 	3.10203e-05 	-0.115497
-0.0069728 	-0.00028028 	3.10203e-05 	-0.115497
-0.00691956 	-0.000354507 	3.13903e-05 	-0.123687
-0.00691956 	-0.000354507 	3.13903e-05 	-0.123687
-0.00686537 	-0.000424052 	3.12803e-05 	-0.131376
-0.00686537 	-0.000424052 	3.12803e-05 	-0.131376
-0.00681021 	-0.000489316 	3.07611e-05 	-0.138608
-0.00681021 	-0.000489316 	3.07611e-05 	-0.138608
-0.00675406 	-0.000550862 	2.98806e-05 	-0.145417
-0.00675406 	-0.000550862 	2.98806e-05 	-0.145417
-0.0066969 	-0.000608689 	2.86383e-05 	-0.151836
-0.0066969 	-0.000608689 	2.86383e-05 	-0.151836
-0.00663871 	-0.000662538 	2.69683e-05 	-0.15789
-0.00663871 	-0.000662538 	2.69683e-05 	-0.15789
-0.00657949 	-0.00071229 	2.48691e-05 	-0.163603
-0.00657949 	-0.00071229 	2.48691e-05 	-0.163603
-0.0065192 	-0.00075799 	2.23658e-05 	-0.168999
-0.0065192 	-0.00075799 	2.23658e-05 	-0.168999
-0.00645783 	-0.000799933 	1.94237e-05 	-0.174094
-0.00645783 	-0.000799933 	1.94237e-05 	-0.174094
-0.00639535 	-0.000838722 	1.60164e-05 	-0.178902
-0.00639535 	-0.000838722 	1.60164e-05 	-0.178902
-0.00633176 	-0.000875079 	1.20717e-05 	-0.183432
-0.00633176 	-0.000875079 	1.20717e-05 	-0.183432
-0.00626703 	-0.000909339 	7.55904e-06 	-0.187696
-0.00626703 	-0.000909339 	7.55904e-06 	-0.187696
-0.00620114 	-0.000940929 	2.31874e-06 	-0.191714
-0.00620114 	-0.000940929 	2.31874e-06 	-0.191714
-0.00613406 	-0.000968319 	-4.09964e-06 	-0.195522
-0.00613406 	-0.000968319 	-4.09964e-06 	-0.195522
-0.00606579 	-0.000989555 	-1.13598e-05 	-0.199164
-0.00606579 	-0.000989555 	-1.13598e-05 	-0.199164
-0.00599629 	-0.00100262 	-1.82774e-05 	-0.202685
-0.00599629 	-0.00100262 	-1.82774e-05 	-0.202685
-0.00592554 	-0.00100555 	-2.42542e-05 	-0.206109
-0.00592554 	-0.00100555 	-2.42542e-05 	-0.206109
-0.00585352 	-0.000996728 	-3.03196e-05 	-0.209419
-0.00585352 	-0.000996728 	-3.03196e-05 	-0.209419
-0.00578022 	-0.00097528 	-3.86316e-05 	-0.212564
-0.00578022 	-0.00097528 	-3.86316e-05 	-0.212564
-0.00570559 	-0.000941122 	-4.95309e-05 	-0.215518
-0.00570559 	-0.000941122 	-4.95309e-05 	-0.215518
-0.00562963 	-0.000894675 	-6.10467e-05 	-0.218317
-0.00562963 	-0.000894675 	-6.10467e-05 	-0.218317
-0.00555231 	-0.000836425 	-7.2582e-05 	-0.221038
-0.00555231 	-0.000836425 	-7.2582e-05 	-0.221038
-0.0054736 	-0.000767318 	-8.35213e-05 	-0.223743
-0.0054736 	-0.000767318 	-8.35213e-05 	-0.223743
-0.00539348 	-0.000683746 	-9.06113e-05 	-0.22644
-0.00539348 	-0.000683746 	-9.06113e-05 	-0.22644
-0.00531193 	-0.000568547 	-9.51511e-05 	-0.229113
-0.00531193 	-0.000568547 	-9.51511e-05 	-0.229113
-0.00522891 	-0.000396607 	-0.000104968 	-0.231776
-0.00522891 	-0.000396607 	-0.000104968 	-0.231776
-0.0051444 	-0.00015249 	-0.00012437 	-0.234495
-0.0051444 	-0.00015249 	-0.00012437 	-0.234495
-0.00505838 	0.000135311 	-0.000143722 	-0.237248
-0.00505838 	0.000135311 	-0.000143722 	-0.237248
-0.00497081 	0.0003845 	-0.000146676 	-0.239824
-0.00497081 	0.0003845 	-0.000146676 	-0.239824
-0.00488168 	0.000551034 	-0.000138172 	-0.242093
-0.00488168 	0.000551034 	-0.000138172 	-0.242093
-0.00479094 	0.00067193 	-0.00013577 	-0.244154
-0.00479094 	0.00067193 	-0.00013577 	-0.244154
-0.00469858 	0.000792576 	-0.000142596 	-0.246125
-0.00469858 	0.000792576 	-0.000142596 	-0.246125
-0.00460456 	0.000924909 	-0.000150865 	-0.248036
-0.00460456 	0.000924909 	-0.000150865 	-0.248036
-0.00450886 	0.00106076 	-0.000154326 	-0.249883
-0.00450886 	0.00106076 	-0.000154326 	-0.249883
-0.00441144 	0.00119481 	-0.000154393 	-0.251673
-0.00441144 	0.00119481 	-0.000154393 	-0.251673
-0.00431227 	0.00132771 	-0.000153978 	-0.253419
-0.00431227 	0.00132771 	-0.000153978 	-0.253419
-0.00421133 	0.00146075 	-0.000153204 	-0.255127
-0.00421133 	0.00146075 	-0.000153204 	-0.255127
-0.00410857 	0.00159442 	-0.000151513 	-0.256802
-0.00410857 	0.00159442 	-0.000151513 	-0.256802
-0.00400397 	0.00172884 	-0.000148708 	-0.258441
-0.00400397 	0.00172884 	-0.000148708 	-0.258441
-0.0038975 	0.00186404 	-0.000145324 	-0.260044
-0.0038975 	0.00186404 	-0.000145324 	-0.260044
-0.00378912 	0.0019995 	-0.000141807 	-0.261607
-0.00378912 	0.0019995 	-0.000141807 	-0.261607
-0.00367879 	0.00213383 	-0.000138274 	-0.26314
-0.00367879 	0.00213383 	-0.000138274 	-0.26314
-0.00356649 	0.00226661 	-0.000135609 	-0.264716
-0.00356649 	0.00226661 	-0.000135609 	-0.264716
-0.00345217 	0.00240215 	-0.000127899 	-0.266523
-0.00345217 	0.00240215 	-0.000127899 	-0.266523
-0.0033358 	0.00255247 	-0.000104114 	-0.268826
-0.0033358 	0.00255247 	-0.000104114 	-0.268826
-0.00321735 	0.00272632 	-7.35442e-05 	-0.271636
-0.00321735 	0.00272632 	-7.35442e-05 	-0.271636
-0.00309677 	0.00290781 	-6.45828e-05 	-0.274304
-0.00309677 	0.00290781 	-6.45828e-05 	-0.274304
-0.00297403 	0.00306841 	-7.35615e-05 	-0.276373
-0.00297403 	0.00306841 	-7.35615e-05 	-0.276373
-0.00284909 	0.00319583 	-6.72138e-05 	-0.278184
-0.00284909 	0.00319583 	-6.72138e-05 	-0.278184
-0.0027219 	0.00329622 	-4.20523e-05 	-0.280003
-0.0027219 	0.00329622 	-4.20523e-05 	-0.280003
-0.00259244 	0.00338216 	-1.81431e-05 	-0.281677
-0.00259244 	0.00338216 	-1.81431e-05 	-0.281677
-0.00246065 	0.0034608 	-4.81393e-07 	-0.283083
-0.00246065 	0.0034608 	-4.81393e-07 	-0.283083
-0.00232651 	0.00353237 	1.61355e-05 	-0.284299
-0.00232651 	0.00353237 	1.61355e-05 	-0.284299
-0.00218995 	0.00359462 	3.41876e-05 	-0.285416
-0.00218995 	0.00359462 	3.41876e-05 	-0.285416
-0.00205095 	0.00364546 	5.42434e-05 	-0.286473
-0.00205095 	0.00364546 	5.42434e-05 	-0.286473
-0.00190946 	0.00368392 	7.58089e-05 	-0.28748
-0.00190946 	0.00368392 	7.58089e-05 	-0.28748
-0.00176543 	0.00370946 	9.88534e-05 	-0.288438
-0.00176543 	0.00370946 	9.88534e-05 	-0.288438
-0.00161881 	0.00372173 	0.000123474 	-0.289347
-0.00161881 	0.00372173 	0.000123474 	-0.289347
-0.00146957 	0.0037207 	0.000149684 	-0.290208
-0.00146957 	0.0037207 	0.000149684 	-0.290208
-0.00131765 	0.00370677 	0.000177257 	-0.29102
-0.00131765 	0.00370677 	0.000177257 	-0.29102
-0.001163 	0.00368029 	0.000205493 	-0.291783
-0.001163 	0.00368029 	0.000205493 	-0.291783
-0.00100559 	0.00364112 	0.000235253 	-0.292493
-0.00100559 	0.00364112 	0.000235253 	-0.292493
-0.000845345 	0.00359324 	0.000268199 	-0.293169
-0.000845345 	0.00359324 	0.000268199 	-0.293169
-0.000682232 	0.00354938 	0.000303564 	-0.293868
-0.000682232 	0.00354938 	0.000303564 	-0.293868
-0.000516194 	0.00351407 	0.000336627 	-0.294598
-0.000516194 	0.00351407 	0.000336627 	-0.294598
-0.000347178 	0.00346768 	0.000367376 	-0.295259
-0.000347178 	0.00346768 	0.000367376 	-0.295259
-0.000175132 	0.00339204 	0.000406693 	-0.295761
-0.000175132 	0.00339204 	0.000406693 	-0.295761
0 	0.00328865 	0.000449802 	-0.296089
0 	0.00328865 	0.000449802 	-0.296089
0 	0.00328865 	0.000449802 	-0.296089
0 	0.00328865 	0.000449802 	-0.296089
0.000175132 	0.0031665 	0.000488778 	-0.296245
0.000175132 	0.0140485 	0.00314427 	-0.30377
0.000347178 	0.00303308 	0.000528249 	-0.296251
0.000347178 	0.0130434 	0.00317794 	-0.302594
0.000516194 	0.00289213 	0.000562539 	-0.296137
0.000516194 	0.0120202 	0.00319437 	-0.301147
0.000682232 	0.00274614 	0.000592467 	-0.295923
0.000682232 	0.0109895 	0.00320082 	-0.29948
0.000845345 	0.0025986 	0.000623037 	-0.295626
0.000845345 	0.0099605 	0.00320589 	-0.297628
0.00100559 	0.00245266 	0.000653402 	-0.295254
0.00100559 	0.00894506 	0.00321772 	-0.29562
0.001163 	0.00230748 	0.000683975 	-0.294798
0.001163 	0.00795801 	0.00322625 	-0.293456
0.00131765 	0.00216029 	0.000715719 	-0.294236
0.00131765 	0.00701739 	0.00322214 	-0.291204
0.00146957 	0.00200959 	0.00075486 	-0.293573
0.00146957 	0.00613073 	0.00323939 	-0.289243
0.00161881 	0.00185381 	0.000794595 	-0.292855
0.00161881 	0.0052864 	0.00326924 	-0.288286
0.00176543 	0.00168289 	0.000804749 	-0.29205
0.00176543 	0.00440231 	0.00316262 	-0.287973
0.00190946 	0.00147354 	0.000782348 	-0.29084
0.00190946 	0.00329229 	0.0028668 	-0.285312
0.00205095 	0.00122488 	0.000800873 	-0.288875
0.00205095 	0.0019221 	0.00284462 	-0.277501
0.00218995 	0.000996027 	0.000865628 	-0.286737
0.00218995 	0.000678256 	0.00313253 	-0.268743
0.00232651 	0.000821013 	0.000901068 	-0.285106
0.00232651 	-0.000227524 	0.003224 	-0.26376
0.00246065 	0.000669541 	0.000901873 	-0.283828
0.00246065 	-0.00101793 	0.00310706 	-0.261599
0.00259244 	0.000521661 	0.00089822 	-0.282618
0.00259244 	-0.0018279 	0.00299627 	-0.260664
0.0027219 	0.000376363 	0.000901821 	-0.281293
0.0027219 	-0.00264393 	0.00295427 	-0.260048
0.00284909 	0.000231874 	0.000910798 	-0.279879
0.00284909 	-0.00344927 	0.00292858 	-0.259446
0.00297403 	8.40021e-05 	0.00092304 	-0.278527
0.00297403 	-0.00424843 	0.00288763 	-0.258828
0.00309677 	-7.04329e-05 	0.000934611 	-0.277266
0.00309677 	-0.00504564 	0.00284238 	-0.258187
0.00321735 	-0.000232582 	0.000941967 	-0.276016
0.00321735 	-0.00584049 	0.00280683 	-0.257508
0.0033358 	-0.000400747 	0.000941729 	-0.274709
0.0033358 	-0.00662714 	0.00277028 	-0.256766
0.00345217 	-0.000570952 	0.000941068 	-0.273335
0.00345217 	-0.00739393 	0.00274533 	-0.255929
0.00356649 	-0.000743669 	0.000959023 	-0.271875
0.00356649 	-0.0081528 	0.00276711 	-0.25506
0.00367879 	-0.000927478 	0.000986397 	-0.270208
0.00367879 	-0.00895114 	0.00275274 	-0.254445
0.00378912 	-0.00981131 	0.00257603 	-0.25419
0.00378912 	-0.00112604 	0.00098162 	-0.268109
0.0038975 	-0.00132605 	0.000937728 	-0.265552
0.0038975 	-0.0106714 	0.00232873 	-0.25341
0.00400397 	-0.0015063 	0.000914723 	-0.262865
0.00400397 	-0.0114204 	0.00229284 	-0.250911
0.00410857 	-0.00166137 	0.000935455 	-0.260428
0.00410857 	-0.0120224 	0.0024468 	-0.247554
0.00421133 	-0.00181109 	0.000956303 	-0.258354
0.00421133 	-0.012581 	0.00253122 	-0.245016
0.00431227 	-0.00198048 	0.000946865 	-0.2565
0.00431227 	-0.0132618 	0.00244235 	-0.243473
0.00441144 	-0.0021693 	0.000922452 	-0.254702
0.00441144 	-0.0140875 	0.002303 	-0.242406
0.00450886 	-0.00236033 	0.000909363 	-0.252886
0.00450886 	-0.0149528 	0.0022522 	-0.241401
0.00460456 	-0.00254687 	0.000899708 	-0.251032
0.00460456 	-0.015817 	0.00222368 	-0.240307
0.00469858 	-0.00273001 	0.000885105 	-0.249133
0.00469858 	-0.0166894 	0.00217216 	-0.239127
0.00479094 	-0.00291076 	0.000869187 	-0.247185
0.00479094 	-0.0175718 	0.00212283 	-0.237881
0.00488168 	-0.00309002 	0.000852435 	-0.245183
0.00488168 	-0.018462 	0.00207622 	-0.236588
0.00497081 	-0.00326859 	0.000834546 	-0.243126
0.00497081 	-0.0193568 	0.0020294 	-0.235259
0.00505838 	-0.00344696 	0.000815258 	-0.241009
0.00505838 	-0.020254 	0.00198111 	-0.233892
0.0051444 	-0.00362537 	0.000794581 	-0.238827
0.0051444 	-0.0211523 	0.00193153 	-0.232479
0.00522891 	-0.00380392 	0.000772558 	-0.236576
0.00522891 	-0.0220513 	0.00188068 	-0.231006
0.00531193 	-0.0229506 	0.00182866 	-0.229463
0.00531193 	-0.00398265 	0.000749225 	-0.234248
0.00539348 	-0.00416155 	0.000724703 	-0.231839
0.00539348 	-0.0238496 	0.00177557 	-0.227846
0.0054736 	-0.00434059 	0.000699287 	-0.229341
0.0054736 	-0.024747 	0.00172159 	-0.226148
0.00555231 	-0.00451998 	0.00067326 	-0.226746
0.00555231 	-0.0256414 	0.00166673 	-0.224365
0.00562963 	-0.00470019 	0.00064671 	-0.224043
0.00562963 	-0.0265315 	0.00161095 	-0.222487
0.00570559 	-0.00488153 	0.000619533 	-0.221221
0.00570559 	-0.0274162 	0.00155428 	-0.220502
0.00578022 	-0.00506398 	0.000591623 	-0.218263
0.00578022 	-0.0282935 	0.00149681 	-0.2184
0.00585352 	-0.00524727 	0.000563048 	-0.215152
0.00585352 	-0.029161 	0.0014386 	-0.21617
0.00592554 	-0.00543086 	0.000534019 	-0.211866
0.00592554 	-0.0300153 	0.00137969 	-0.213798
0.00599629 	-0.00561373 	0.000504719 	-0.208378
0.00599629 	-0.030852 	0.0013203 	-0.211272
0.00606579 	-0.0316659 	0.00126109 	-0.208575
0.00606579 	-0.00579424 	0.000475199 	-0.204661
0.00613406 	-0.00597026 	0.000445407 	-0.200692
0.00613406 	-0.0324515 	0.00120226 	-0.20569
0.00620114 	-0.00613945 	0.000415365 	-0.196448
0.00620114 	-0.0332019 	0.00114333 	-0.202594
0.00626703 	-0.00629919 	0.000385258 	-0.191907
0.00626703 	-0.0339064 	0.00108393 	-0.19925
0.00633176 	-0.00644621 	0.000355341 	-0.187041
0.00633176 	-0.0345486 	0.00102429 	-0.195603
0.00639535 	-0.00657626 	0.000325868 	-0.18182
0.00639535 	-0.0351049 	0.000965148 	-0.19159
0.00645783 	-0.00668427 	0.000297009 	-0.176212
0.00645783 	-0.0355468 	0.000906857 	-0.187145
0.0065192 	-0.00676464 	0.00026884 	-0.170182
0.0065192 	-0.0358429 	0.000849124 	-0.182199
0.00657949 	-0.00681133 	0.000241489 	-0.163697
0.00657949 	-0.0359596 	0.000791973 	-0.176682
0.00663871 	-0.00681819 	0.000215157 	-0.156727
0.00663871 	-0.0358636 	0.000735876 	-0.170532
0.0066969 	-0.00677946 	0.000190012 	-0.149243
0.0066969 	-0.0355253 	0.000680962 	-0.163701
0.00675406 	-0.0066898 	0.000166078 	-0.14122
0.00675406 	-0.0349186 	0.000626706 	-0.156146
0.00681021 	-0.00654339 	0.000143354 	-0.132633
0.00681021 	-0.0340142 	0.000572386 	-0.147814
0.00686537 	-0.00633375 	0.00012204 	-0.123467
0.00686537 	-0.0327782 	0.000518058 	-0.138636
0.00691956 	-0.00605459 	0.000102502 	-0.11374
0.00691956 	-0.031178 	0.000464608 	-0.128573
0.0069728 	-0.00570154 	8.4908e-05 	-0.103514
0.0069728 	-0.0291961 	0.000412335 	-0.117661
0.0070251 	-0.00527468 	6.91733e-05 	-0.0929005
0.0070251 	-0.026844 	0.000361218 	-0.106023
0.00707647 	-0.00478039 	5.52546e-05 	-0.0820712
0.00707647 	-0.0241704 	0.00031173 	-0.0938766
0.00712695 	-0.00423204 	4.31052e-05 	-0.0712323
0.00712695 	-0.0212593 	0.000264446 	-0.0815106
0.00717653 	-0.00364896 	3.2602e-05 	-0.0605915
0.00717653 	-0.0182187 	0.000219742 	-0.0692264
0.00722524 	-0.00305396 	2.36106e-05 	-0.050322
0.00722524 	-0.015165 	0.000177042 	-0.0572837
0.00727309 	-0.00247154 	1.60893e-05 	-0.0405419
0.00727309 	-0.0122148 	0.000137226 	-0.0458789
0.0073201 	-0.00192902 	1.0015e-05 	-0.0313179
0.0073201 	-0.00949512 	0.00010418 	-0.0351749
0.00736628 	-0.00146156 	5.08376e-06 	-0.0226931
0.00736628 	-0.00717272 	5.97271e-05 	-0.0253728
0.00741165 	-0.00105077 	1.99697e-06 	-0.0146724
0.00741165 	-0.00515215 	3.78789e-05 	-0.0165411
0.00745622 	-0.000586222 	3.75758e-07 	-0.00716287
0.00745622 	-0.00287481 	1.7949e-05 	-0.00827474
0.0075 	0 	0 	0
0.0075 	0 	0 	0
