-0.0075 	0 	0 	0
-0.0075 	2.03131e-34 	4.35217e-36 	-7.75448e-33
-0.00745622 	0.000266976 	5.72006e-06 	-0.0101917
-0.00745622 	0.000266976 	5.72006e-06 	-0.0101917
-0.00741165 	0.000313925 	1.02314e-05 	-0.0196865
-0.00741165 	0.000313925 	1.02314e-05 	-0.0196865
-0.00736628 	0.00027776 	1.37647e-05 	-0.0291811
-0.00736628 	0.00027776 	1.37647e-05 	-0.0291811
-0.0073201 	0.000270673 	1.486e-05 	-0.0390721
-0.0073201 	0.000270673 	1.486e-05 	-0.0390721
-0.00727309 	0.00029799 	1.59681e-05 	-0.049183
-0.00727309 	0.00029799 	1.59681e-05 	-0.049183
-0.00722524 	0.000335968 	1.69321e-05 	-0.0592842
-0.00722524 	0.000335968 	1.69321e-05 	-0.0592842
-0.00717653 	0.000374139 	1.81957e-05 	-0.0692442
-0.00717653 	0.000374139 	1.81957e-05 	-0.0692442
-0.00712695 	0.000407412 	1.98293e-05 	-0.0789574
-0.00712695 	0.000407412 	1.98293e-05 	-0.0789574
-0.00707647 	0.000433204 	2.17443e-05 	-0.0883378
-0.00707647 	0.000433204 	2.17443e-05 	-0.0883378
-0.0070251 	0.000450558 	2.40342e-05 	-0.0973235
-0.0070251 	0.000450558 	2.40342e-05 	-0.0973235
-0.0069728 	0.000459728 	2.66121e-05 	-0.105886
-0.0069728 	0.000459728 	2.66121e-05 	-0.105886
-0.00691956 	0.00046144 	2.95423e-05 	-0.114026
-0.00691956 	0.00046144 	2.95423e-05 	-0.114026
-0.00686537 	0.000455974 	3.30236e-05 	-0.121759
-0.00686537 	0.000455974 	3.30236e-05 	-0.121759
-0.00681021 	0.000443123 	3.70034e-05 	-0.1291
-0.00681021 	0.000443123 	3.70034e-05 	-0.1291
-0.00675406 	0.00042287 	4.14503e-05 	-0.136068
-0.00675406 	0.00042287 	4.14503e-05 	-0.136068
-0.0066969 	0.000395564 	4.63307e-05 	-0.142683
-0.0066969 	0.000395564 	4.63307e-05 	-0.142683
-0.00663871 	0.000361747 	5.16311e-05 	-0.148963
-0.00663871 	0.000361747 	5.16311e-05 	-0.148963
-0.00657949 	0.000322204 	5.73726e-05 	-0.154924
-0.00657949 	0.000322204 	5.73726e-05 	-0.154924
-0.0065192 	0.000277885 	6.34608e-05 	-0.160588
-0.0065192 	0.000277885 	6.34608e-05 	-0.160588
-0.00645783 	0.000229491 	6.9911e-05 	-0.165981
-0.00645783 	0.000229491 	6.9911e-05 	-0.165981
-0.00639535 	0.000176864 	7.69426e-05 	-0.17113
-0.00639535 	0.000176864 	7.69426e-05 	-0.17113
-0.00633176 	0.000118666 	8.46507e-05 	-0.176039
-0.00633176 	0.000118666 	8.46507e-05 	-0.176039
-0.00626703 	5.3055e-05 	9.26986e-05 	-0.18069
-0.00626703 	5.3055e-05 	9.26986e-05 	-0.18069
-0.00620114 	-2.06887e-05 	0.000100491 	-0.18505
-0.00620114 	-2.06887e-05 	0.000100491 	-0.18505
-0.00613406 	-0.000100945 	0.000107735 	-0.18911
-0.00613406 	-0.000100945 	0.000107735 	-0.18911
-0.00606579 	-0.00018429 	0.000114785 	-0.192902
-0.00606579 	-0.00018429 	0.000114785 	-0.192902
-0.00599629 	-0.00026731 	0.0001222 	-0.196475
-0.00599629 	-0.00026731 	0.0001222 	-0.196475
-0.00592554 	-0.000348003 	0.000130505 	-0.199868
-0.00592554 	-0.000348003 	0.000130505 	-0.199868
-0.00585352 	-0.000425683 	0.000137878 	-0.203103
-0.00585352 	-0.000425683 	0.000137878 	-0.203103
-0.00578022 	-0.00049908 	0.000141222 	-0.206221
-0.00578022 	-0.00049908 	0.000141222 	-0.206221
-0.00570559 	-0.000566291 	0.00014304 	-0.209323
-0.00570559 	-0.000566291 	0.00014304 	-0.209323
-0.00562963 	-0.000628183 	0.000149698 	-0.212553
-0.00562963 	-0.000628183 	0.000149698 	-0.212553
-0.00555231 	-0.000687181 	0.000162742 	-0.215962
-0.00555231 	-0.000687181 	0.000162742 	-0.215962
-0.0054736 	-0.000743954 	0.000172819 	-0.219344
-0.0054736 	-0.000743954 	0.000172819 	-0.219344
-0.00539348 	-0.000798428 	0.000173357 	-0.222409
-0.00539348 	-0.000798428 	0.000173357 	-0.222409
-0.00531193 	-0.000850315 	0.0001727 	-0.225108
-0.00531193 	-0.000850315 	0.0001727 	-0.225108
-0.00522891 	-0.000898426 	0.000177604 	-0.227582
-0.00522891 	-0.000898426 	0.000177604 	-0.227582
-0.0051444 	-0.000941033 	0.000185624 	-0.229936
-0.0051444 	-0.000941033 	0.000185624 	-0.229936
-0.00505838 	-0.000977893 	0.000191745 	-0.23219
-0.00505838 	-0.000977893 	0.000191745 	-0.23219
-0.00497081 	-0.00101039 	0.000195922 	-0.234336
-0.00497081 	-0.00101039 	0.000195922 	-0.234336
-0.00488168 	-0.00103915 	0.000201731 	-0.236369
-0.00488168 	-0.00103915 	0.000201731 	-0.236369
-0.00479094 	-0.00106408 	0.00020639 	-0.238285
-0.00479094 	-0.00106408 	0.00020639 	-0.238285
-0.00469858 	-0.00108628 	0.000206454 	-0.240103
-0.00469858 	-0.00108628 	0.000206454 	-0.240103
-0.00460456 	-0.00110787 	0.000203516 	-0.241893
-0.00460456 	-0.00110787 	0.000203516 	-0.241893
-0.00450886 	-0.0011309 	0.000204154 	-0.24374
-0.00450886 	-0.0011309 	0.000204154 	-0.24374
-0.00441144 	-0.00115615 	0.000213049 	-0.245644
-0.00441144 	-0.00115615 	0.000213049 	-0.245644
-0.00431227 	-0.00118167 	0.00022412 	-0.247481
-0.00431227 	-0.00118167 	0.00022412 	-0.247481
-0.00421133 	-0.00120485 	0.000231848 	-0.249157
-0.00421133 	-0.00120485 	0.000231848 	-0.249157
-0.00410857 	-0.00122586 	0.000234483 	-0.250688
-0.00410857 	-0.00122586 	0.000234483 	-0.250688
-0.00400397 	-0.00124436 	0.000231817 	-0.252156
-0.00400397 	-0.00124436 	0.000231817 	-0.252156
-0.0038975 	-0.00125958 	0.000234958 	-0.253703
-0.0038975 	-0.00125958 	0.000234958 	-0.253703
-0.00378912 	-0.00127848 	0.000256248 	-0.255424
-0.00378912 	-0.00127848 	0.000256248 	-0.255424
-0.00367879 	-0.00130168 	0.000279933 	-0.257167
-0.00367879 	-0.00130168 	0.000279933 	-0.257167
-0.00356649 	-0.00131755 	0.000282352 	-0.258643
-0.00356649 	-0.00131755 	0.000282352 	-0.258643
-0.00345217 	-0.00132858 	0.000279171 	-0.259865
-0.00345217 	-0.00132858 	0.000279171 	-0.259865
-0.0033358 	-0.00134202 	0.000290974 	-0.261083
-0.0033358 	-0.00134202 	0.000290974 	-0.261083
-0.00321735 	-0.00135537 	0.000308953 	-0.262367
-0.00321735 	-0.00135537 	0.000308953 	-0.262367
-0.00309677 	-0.00136841 	0.000325946 	-0.26368
-0.00309677 	-0.00136841 	0.000325946 	-0.26368
-0.00297403 	-0.00138176 	0.00034287 	-0.26503
-0.00297403 	-0.00138176 	0.00034287 	-0.26503
-0.00284909 	-0.00139293 	0.000356388 	-0.266406
-0.00284909 	-0.00139293 	0.000356388 	-0.266406
-0.0027219 	-0.00139909 	0.000365826 	-0.267736
-0.0027219 	-0.00139909 	0.000365826 	-0.267736
-0.00259244 	-0.00140194 	0.000378537 	-0.268958
-0.00259244 	-0.00140194 	0.000378537 	-0.268958
-0.00246065 	-0.00140269 	0.000395882 	-0.270052
-0.00246065 	-0.00140269 	0.000395882 	-0.270052
-0.00232651 	-0.00139747 	0.000409971 	-0.271053
-0.00232651 	-0.00139747 	0.000409971 	-0.271053
-0.00218995 	-0.00138762 	0.000419266 	-0.272107
-0.00218995 	-0.00138762 	0.000419266 	-0.272107
-0.00205095 	-0.0013847 	0.000431421 	-0.273455
-0.00205095 	-0.0013847 	0.000431421 	-0.273455
-0.00190946 	-0.00139028 	0.000453662 	-0.275114
-0.00190946 	-0.00139028 	0.000453662 	-0.275114
-0.00176543 	-0.00136912 	0.000483523 	-0.276801
-0.00176543 	-0.00136912 	0.000483523 	-0.276801
-0.00161881 	-0.00127357 	0.000503205 	-0.278454
-0.00161881 	-0.00127357 	0.000503205 	-0.278454
-0.00146957 	-0.0010929 	0.000497481 	-0.280254
-0.00146957 	-0.0010929 	0.000497481 	-0.280254
-0.00131765 	-0.000894104 	0.000503437 	-0.281937
-0.00131765 	-0.000894104 	0.000503437 	-0.281937
-0.001163 	-0.00076082 	0.000546349 	-0.283037
-0.001163 	-0.00076082 	0.000546349 	-0.283037
-0.00100559 	-0.000675865 	0.000584718 	-0.283683
-0.00100559 	-0.000675865 	0.000584718 	-0.283683
-0.000845345 	-0.000576906 	0.000601516 	-0.284248
-0.000845345 	-0.000576906 	0.000601516 	-0.284248
-0.000682232 	-0.000452387 	0.000617529 	-0.284768
-0.000682232 	-0.000452387 	0.000617529 	-0.284768
-0.000516194 	-0.000323053 	0.000638369 	-0.285159
-0.000516194 	-0.000323053 	0.000638369 	-0.285159
-0.000347178 	-0.000201963 	0.000655629 	-0.285433
-0.000347178 	-0.000201963 	0.000655629 	-0.285433
-0.000175132 	-9.02609e-05 	0.000682418 	-0.285591
-0.000175132 	-9.02609e-05 	0.000682418 	-0.285591
0 	1.05316e-05 	0.000713037 	-0.285592
0 	1.05316e-05 	0.000713037 	-0.285592
0 	1.05316e-05 	0.000713037 	-0.285592
0 	1.05316e-05 	0.000713037 	-0.285592
0.000175132 	9.79715e-05 	0.000734323 	-0.285416
0.000175132 	0.0048481 	0.00630396 	-0.277272
0.000347178 	0.000174129 	0.000757789 	-0.285095
0.000347178 	0.0052753 	0.00640116 	-0.278492
0.000516194 	0.000244628 	0.000773012 	-0.284681
0.000516194 	0.00569066 	0.00647135 	-0.279669
0.000682232 	0.000313157 	0.000782454 	-0.284222
0.000682232 	0.00610202 	0.00652731 	-0.280882
0.000845345 	0.000380379 	0.000795439 	-0.283751
0.000845345 	0.00650243 	0.0065851 	-0.28212
0.00100559 	0.000445847 	0.000806697 	-0.283271
0.00100559 	0.00688424 	0.00663914 	-0.283363
0.001163 	0.000509342 	0.000816795 	-0.282762
0.001163 	0.00724557 	0.00668792 	-0.28457
0.00131765 	0.000571585 	0.000826361 	-0.282203
0.00131765 	0.00759045 	0.00673532 	-0.285693
0.00146957 	0.000634179 	0.000837009 	-0.281585
0.00146957 	0.00791916 	0.00677974 	-0.286717
0.00161881 	0.00069732 	0.000848049 	-0.280884
0.00161881 	0.00822657 	0.00681325 	-0.287664
0.00176543 	0.000758249 	0.000860094 	-0.280044
0.00176543 	0.00850804 	0.00683627 	-0.288544
0.00190946 	0.000816095 	0.000879174 	-0.278999
0.00190946 	0.00876081 	0.00685397 	-0.289356
0.00205095 	0.000872331 	0.000903368 	-0.27773
0.00205095 	0.00898324 	0.00686682 	-0.290086
0.00218995 	0.000924966 	0.000917237 	-0.276357
0.00218995 	0.00917272 	0.00687312 	-0.290706
0.00232651 	0.000967943 	0.000921559 	-0.275054
0.00232651 	0.00932387 	0.00687455 	-0.291185
0.00246065 	0.00100789 	0.000939692 	-0.273734
0.00246065 	0.00943063 	0.0068706 	-0.291502
0.00259244 	0.00106725 	0.000958886 	-0.272093
0.00259244 	0.00949104 	0.00685745 	-0.291641
0.0027219 	0.00114057 	0.000952219 	-0.270119
0.0027219 	0.00950793 	0.00683339 	-0.291588
0.00284909 	0.00119117 	0.000946803 	-0.268191
0.00284909 	0.00948451 	0.00680217 	-0.29133
0.00297403 	0.00119875 	0.00096202 	-0.266527
0.00297403 	0.00941932 	0.00676489 	-0.29085
0.00309677 	0.0011723 	0.000977962 	-0.265001
0.00309677 	0.00930253 	0.00675777 	-0.290056
0.00321735 	0.00113391 	0.000993687 	-0.26346
0.00321735 	0.00914074 	0.00682525 	-0.289056
0.0033358 	0.00110231 	0.00100763 	-0.261916
0.0033358 	0.00901335 	0.00682673 	-0.288641
0.00345217 	0.00107904 	0.00099276 	-0.260336
0.00345217 	0.00899446 	0.00656081 	-0.289121
0.00356649 	0.00103316 	0.000956601 	-0.258422
0.00356649 	0.00890588 	0.00620585 	-0.288257
0.00367879 	0.00093456 	0.000958724 	-0.256003
0.00367879 	0.00847216 	0.00621467 	-0.283542
0.00378912 	0.0078642 	0.00644641 	-0.277327
0.00378912 	0.00081823 	0.000989922 	-0.253526
0.0038975 	0.000729905 	0.000994809 	-0.251428
0.0038975 	0.00738618 	0.00646333 	-0.273086
0.00400397 	0.000667871 	0.000974878 	-0.249619
0.00400397 	0.00704243 	0.00628646 	-0.270882
0.00410857 	0.000617446 	0.000954639 	-0.247891
0.00410857 	0.00675115 	0.00611986 	-0.269556
0.00421133 	0.000570614 	0.000943193 	-0.246128
0.00421133 	0.0064627 	0.00603022 	-0.268289
0.00431227 	0.000526008 	0.000930607 	-0.24432
0.00431227 	0.00616764 	0.00594309 	-0.266927
0.00441144 	0.000483797 	0.000914056 	-0.242474
0.00441144 	0.00586718 	0.00583507 	-0.265497
0.00450886 	0.000443986 	0.000896817 	-0.240588
0.00450886 	0.00556111 	0.00572609 	-0.263993
0.00460456 	0.000406442 	0.000878673 	-0.238659
0.00460456 	0.00524909 	0.00561595 	-0.262409
0.00469858 	0.000370965 	0.000859139 	-0.236682
0.00469858 	0.00493102 	0.00550174 	-0.260744
0.00479094 	0.000337352 	0.00083808 	-0.234654
0.00479094 	0.00460691 	0.00538202 	-0.258994
0.00488168 	0.000305603 	0.000815667 	-0.232568
0.00488168 	0.00427673 	0.00525711 	-0.257157
0.00497081 	0.000275848 	0.00079089 	-0.230422
0.00497081 	0.0039404 	0.00511972 	-0.255226
0.00505838 	0.000247552 	0.000768268 	-0.228207
0.00505838 	0.00359785 	0.00499938 	-0.25319
0.0051444 	0.000219602 	0.000752417 	-0.225929
0.0051444 	0.00325026 	0.00492336 	-0.251119
0.00522891 	0.000192394 	0.000733019 	-0.22361
0.00522891 	0.00290639 	0.00481751 	-0.249209
0.00531193 	0.00256684 	0.00460648 	-0.247382
0.00531193 	0.000165496 	0.000698792 	-0.221235
0.00539348 	0.000132425 	0.000657293 	-0.218687
0.00539348 	0.00219177 	0.00434738 	-0.244847
0.0054736 	8.68182e-05 	0.000628546 	-0.215855
0.0054736 	0.00173897 	0.00418228 	-0.240889
0.00555231 	3.51726e-05 	0.000615116 	-0.21283
0.00555231 	0.00125203 	0.00412855 	-0.23619
0.00562963 	-1.0966e-05 	0.000600447 	-0.209782
0.00562963 	0.000809063 	0.00407106 	-0.232
0.00570559 	-5.04856e-05 	0.000571273 	-0.206747
0.00570559 	0.00041747 	0.00391778 	-0.22861
0.00578022 	-8.81366e-05 	0.000533565 	-0.20366
0.00578022 	4.61033e-05 	0.00370926 	-0.225632
0.00585352 	-0.000126196 	0.000501719 	-0.200454
0.00585352 	-0.000319487 	0.00354337 	-0.222709
0.00592554 	-0.000164672 	0.00047339 	-0.197096
0.00592554 	-0.000679855 	0.00340055 	-0.219716
0.00599629 	-0.000203011 	0.000443663 	-0.193569
0.00599629 	-0.0010334 	0.00324493 	-0.216655
0.00606579 	-0.00137867 	0.00308733 	-0.213517
0.00606579 	-0.000240477 	0.000413873 	-0.189851
0.00613406 	-0.000276312 	0.000384529 	-0.185916
0.00613406 	-0.00171426 	0.00293018 	-0.210275
0.00620114 	-0.000309537 	0.000356106 	-0.181734
0.00620114 	-0.00203833 	0.00277344 	-0.206888
0.00626703 	-0.000338614 	0.000328693 	-0.177271
0.00626703 	-0.00234835 	0.00261699 	-0.203307
0.00633176 	-0.000361537 	0.00030208 	-0.172494
0.00633176 	-0.00264151 	0.00246084 	-0.199471
0.00639535 	-0.000376469 	0.00027613 	-0.167371
0.00639535 	-0.00291529 	0.0023054 	-0.195308
0.00645783 	-0.000382539 	0.000250977 	-0.161873
0.00645783 	-0.00316764 	0.0021509 	-0.190732
0.0065192 	-0.000380156 	0.000226857 	-0.155974
0.0065192 	-0.00339647 	0.00199751 	-0.185653
0.00657949 	-0.000370575 	0.00020397 	-0.149653
0.00657949 	-0.00359926 	0.00184569 	-0.179982
0.00663871 	-0.000355151 	0.000182522 	-0.142889
0.00663871 	-0.00377299 	0.00169608 	-0.173646
0.0066969 	-0.000334975 	0.000162512 	-0.135666
0.0066969 	-0.00391339 	0.00154935 	-0.166596
0.00675406 	-0.000311393 	0.000143766 	-0.127968
0.00675406 	-0.00401408 	0.00140549 	-0.15881
0.00681021 	-0.000286405 	0.000126329 	-0.119786
0.00681021 	-0.00406643 	0.00126413 	-0.150262
0.00686537 	-0.00026208 	0.000110242 	-0.111128
0.00686537 	-0.00406174 	0.0011252 	-0.140878
0.00691956 	-0.000239733 	9.55346e-05 	-0.102017
0.00691956 	-0.00399469 	0.00098982 	-0.130558
0.0069728 	-0.000219229 	8.21548e-05 	-0.0925222
0.0069728 	-0.00386403 	0.00085999 	-0.119261
0.0070251 	-0.000199424 	6.97772e-05 	-0.08276
0.0070251 	-0.00367246 	0.00073671 	-0.107066
0.00707647 	-0.000179511 	5.82355e-05 	-0.0728899
0.00707647 	-0.0034274 	0.000620381 	-0.0941828
0.00712695 	-0.000159459 	4.74132e-05 	-0.063091
0.00712695 	-0.00314056 	0.000511781 	-0.0809439
0.00717653 	-0.000140184 	3.7175e-05 	-0.0535326
0.00717653 	-0.00282528 	0.0004116 	-0.0677482
0.00722524 	-0.000123897 	2.74948e-05 	-0.0443499
0.00722524 	-0.00249354 	0.000319234 	-0.0549921
0.00727309 	-0.000114269 	1.8492e-05 	-0.0356376
0.00727309 	-0.00215396 	0.000235841 	-0.0430302
0.0073201 	-0.000116811 	1.05507e-05 	-0.0274641
0.0073201 	-0.00181114 	0.000166917 	-0.0322046
0.00736628 	-0.000139989 	3.72667e-06 	-0.0199268
0.00736628 	-0.00146568 	8.91923e-05 	-0.0229615
0.00741165 	-0.000162242 	1.20789e-07 	-0.0130368
0.00741165 	-0.00107402 	5.01757e-05 	-0.0153362
0.00745622 	-0.000122393 	-9.29623e-07 	-0.00651058
0.00745622 	-0.000571188 	2.07861e-05 	-0.00816054
0.0075 	0 	0 	0
0.0075 	0 	0 	0
