0 	0 	0 	0
5.01672e-05 	-2.77336e-05 	-5.14055e-06 	0.0205095
0.000100334 	-5.54673e-05 	-1.02811e-05 	0.041019
0.000150502 	-8.32009e-05 	-1.54217e-05 	0.0615285
0.000200669 	-0.000110935 	-2.05622e-05 	0.0820379
0.000250836 	-0.000138668 	-2.57028e-05 	0.102547
0.000301003 	-0.000166402 	-3.08433e-05 	0.123057
0.000351171 	-0.000191355 	-3.67344e-05 	0.141419
0.000401338 	-0.000205796 	-4.54635e-05 	0.151662
0.000451505 	-0.000220237 	-5.41927e-05 	0.161905
0.000501672 	-0.000234677 	-6.29218e-05 	0.172148
0.000551839 	-0.000249118 	-7.1651e-05 	0.182391
0.000602007 	-0.000263559 	-8.03801e-05 	0.192633
0.000652174 	-0.000277999 	-8.91092e-05 	0.202876
0.000702341 	-0.00029244 	-9.78384e-05 	0.213119
0.000752508 	-0.000303619 	-0.000106764 	0.221954
0.000802676 	-0.000306711 	-0.000116177 	0.227299
0.000852843 	-0.000309802 	-0.000125591 	0.232644
0.00090301 	-0.000312894 	-0.000135004 	0.237989
0.000953177 	-0.000315985 	-0.000144417 	0.243334
0.00100334 	-0.000319077 	-0.00015383 	0.248679
0.00105351 	-0.000322168 	-0.000163244 	0.254024
0.00110368 	-0.00032526 	-0.000172657 	0.259369
0.00115385 	-0.000328351 	-0.00018207 	0.264714
0.00120401 	-0.000331214 	-0.000191429 	0.269953
0.00125418 	-0.000329385 	-0.000199668 	0.273019
0.00130435 	-0.000327556 	-0.000207907 	0.276084
0.00135452 	-0.000325727 	-0.000216146 	0.27915
0.00140468 	-0.000323898 	-0.000224385 	0.282216
0.00145485 	-0.000322069 	-0.000232624 	0.285281
0.00150502 	-0.00032024 	-0.000240862 	0.288347
0.00155518 	-0.000318411 	-0.000249101 	0.291413
0.00160535 	-0.000316582 	-0.00025734 	0.294478
0.00165552 	-0.000314753 	-0.000265579 	0.297544
0.00170569 	-0.000312924 	-0.000273818 	0.30061
0.00175585 	-0.000310827 	-0.000281584 	0.303382
0.00180602 	-0.000307993 	-0.000288049 	0.30535
0.00185619 	-0.000305159 	-0.000294514 	0.307317
0.00190635 	-0.000302325 	-0.000300979 	0.309285
0.00195652 	-0.000299492 	-0.000307443 	0.311252
0.00200669 	-0.000296658 	-0.000313908 	0.313219
0.00205686 	-0.000293824 	-0.000320373 	0.315187
0.00210702 	-0.00029099 	-0.000326838 	0.317154
0.00215719 	-0.000288156 	-0.000333303 	0.319122
0.00220736 	-0.000285323 	-0.000339767 	0.321089
0.00225753 	-0.000282489 	-0.000346232 	0.323056
0.00230769 	-0.000279655 	-0.000352697 	0.325024
0.00235786 	-0.000276821 	-0.000359162 	0.326991
0.00240803 	-0.000274332 	-0.000364333 	0.328516
0.00245819 	-0.000271996 	-0.000368928 	0.329843
0.00250836 	-0.00026966 	-0.000373522 	0.33117
0.00255853 	-0.000267324 	-0.000378117 	0.332496
0.0026087 	-0.000264989 	-0.000382712 	0.333823
0.00265886 	-0.000262653 	-0.000387307 	0.33515
0.00270903 	-0.000260317 	-0.000391901 	0.336477
0.0027592 	-0.000257981 	-0.000396496 	0.337804
0.00280936 	-0.000255646 	-0.000401091 	0.339131
0.00285953 	-0.00025331 	-0.000405685 	0.340458
0.0029097 	-0.000250974 	-0.00041028 	0.341785
0.00295987 	-0.000248638 	-0.000414875 	0.343112
0.00301003 	-0.000246303 	-0.000419469 	0.344439
0.0030602 	-0.000243967 	-0.000424064 	0.345766
0.00311037 	-0.000241648 	-0.000428627 	0.347083
0.00316054 	-0.00024008 	-0.00043181 	0.347969
0.0032107 	-0.000238511 	-0.000434992 	0.348856
0.00326087 	-0.000236942 	-0.000438175 	0.349742
0.00331104 	-0.000235373 	-0.000441357 	0.350629
0.0033612 	-0.000233804 	-0.00044454 	0.351516
0.00341137 	-0.000232235 	-0.000447723 	0.352402
0.00346154 	-0.000230666 	-0.000450905 	0.353289
0.00351171 	-0.000229098 	-0.000454088 	0.354175
0.00356187 	-0.000227529 	-0.000457271 	0.355062
0.00361204 	-0.00022596 	-0.000460453 	0.355949
0.00366221 	-0.000224391 	-0.000463636 	0.356835
0.00371237 	-0.000222822 	-0.000466819 	0.357722
0.00376254 	-0.000221253 	-0.000470001 	0.358608
0.00381271 	-0.000219684 	-0.000473184 	0.359495
0.00386288 	-0.000218116 	-0.000476367 	0.360382
0.00391304 	-0.000216547 	-0.000479549 	0.361268
0.00396321 	-0.000214978 	-0.000482732 	0.362155
0.00401338 	-0.000213878 	-0.000485069 	0.362736
0.00406355 	-0.000212825 	-0.000487324 	0.363286
0.00411371 	-0.000211771 	-0.000489578 	0.363837
0.00416388 	-0.000210718 	-0.000491833 	0.364388
0.00421405 	-0.000209664 	-0.000494087 	0.364939
0.00426421 	-0.00020861 	-0.000496342 	0.365489
0.00431438 	-0.000207557 	-0.000498597 	0.36604
0.00436455 	-0.000206503 	-0.000500851 	0.366591
0.00441472 	-0.00020545 	-0.000503106 	0.367142
0.00446488 	-0.000204396 	-0.00050536 	0.367693
0.00451505 	-0.000203342 	-0.000507615 	0.368243
0.00456522 	-0.000202289 	-0.000509869 	0.368794
0.00461538 	-0.000201235 	-0.000512124 	0.369345
0.00466555 	-0.000200182 	-0.000514378 	0.369896
0.00471572 	-0.000199128 	-0.000516633 	0.370447
0.00476589 	-0.000198075 	-0.000518888 	0.370997
0.00481605 	-0.000197021 	-0.000521142 	0.371548
0.00486622 	-0.000195967 	-0.000523397 	0.372099
0.00491639 	-0.000194914 	-0.000525651 	0.37265
0.00496656 	-0.00019386 	-0.000527906 	0.373201
0.00501672 	-0.000193029 	-0.000529422 	0.373497
0.00506689 	-0.00019221 	-0.000530899 	0.37378
0.00511706 	-0.000191391 	-0.000532376 	0.374063
0.00516722 	-0.000190572 	-0.000533854 	0.374346
0.00521739 	-0.000189753 	-0.000535331 	0.374629
0.00526756 	-0.000188934 	-0.000536808 	0.374912
0.00531773 	-0.000188115 	-0.000538285 	0.375195
0.00536789 	-0.000187296 	-0.000539762 	0.375478
0.00541806 	-0.000186477 	-0.000541239 	0.375761
0.00546823 	-0.000185657 	-0.000542716 	0.376044
0.00551839 	-0.000184838 	-0.000544193 	0.376327
0.00556856 	-0.000184019 	-0.00054567 	0.37661
0.00561873 	-0.0001832 	-0.000547147 	0.376893
0.0056689 	-0.000182381 	-0.000548624 	0.377176
0.00571906 	-0.000181562 	-0.000550101 	0.377459
0.00576923 	-0.000180743 	-0.000551578 	0.377742
0.0058194 	-0.000179924 	-0.000553055 	0.378025
0.00586957 	-0.000179105 	-0.000554533 	0.378308
0.00591973 	-0.000178286 	-0.00055601 	0.378591
0.0059699 	-0.000177467 	-0.000557487 	0.378874
0.00602007 	-0.000176648 	-0.000558964 	0.379157
0.00607023 	-0.000175828 	-0.000560441 	0.37944
0.0061204 	-0.000175009 	-0.000561918 	0.379723
0.00617057 	-0.000174289 	-0.000562853 	0.379858
0.00622074 	-0.000173619 	-0.000563512 	0.379919
0.0062709 	-0.000172949 	-0.000564172 	0.37998
0.00632107 	-0.00017228 	-0.000564831 	0.380041
0.00637124 	-0.00017161 	-0.000565491 	0.380101
0.0064214 	-0.00017094 	-0.000566151 	0.380162
0.00647157 	-0.00017027 	-0.00056681 	0.380223
0.00652174 	-0.0001696 	-0.00056747 	0.380284
0.00657191 	-0.00016893 	-0.000568129 	0.380345
0.00662207 	-0.00016826 	-0.000568789 	0.380405
0.00667224 	-0.00016759 	-0.000569449 	0.380466
0.00672241 	-0.00016692 	-0.000570108 	0.380527
0.00677258 	-0.000166251 	-0.000570768 	0.380588
0.00682274 	-0.000165581 	-0.000571427 	0.380649
0.00687291 	-0.000164911 	-0.000572087 	0.380709
0.00692308 	-0.000164241 	-0.000572747 	0.38077
0.00697324 	-0.000163571 	-0.000573406 	0.380831
0.00702341 	-0.000162901 	-0.000574066 	0.380892
0.00707358 	-0.000162231 	-0.000574725 	0.380953
0.00712375 	-0.000161561 	-0.000575385 	0.381013
0.00717391 	-0.000160891 	-0.000576045 	0.381074
0.00722408 	-0.000160222 	-0.000576704 	0.381135
0.00727425 	-0.000159552 	-0.000577364 	0.381196
0.00732441 	-0.000158882 	-0.000578023 	0.381257
0.00737458 	-0.000158212 	-0.000578683 	0.381317
0.00742475 	-0.000157542 	-0.000579343 	0.381378
0.00747492 	-0.000156872 	-0.000580002 	0.381439
0.00752508 	-0.000156261 	-0.000580248 	0.3814
0.00757525 	-0.000155709 	-0.000580079 	0.38126
0.00762542 	-0.000155157 	-0.000579911 	0.381121
0.00767559 	-0.000154605 	-0.000579743 	0.380982
0.00772575 	-0.000154053 	-0.000579574 	0.380842
0.00777592 	-0.000153501 	-0.000579406 	0.380703
0.00782609 	-0.000152949 	-0.000579237 	0.380564
0.00787625 	-0.000152397 	-0.000579069 	0.380424
0.00792642 	-0.000151845 	-0.000578901 	0.380285
0.00797659 	-0.000151292 	-0.000578732 	0.380145
0.00802676 	-0.00015074 	-0.000578564 	0.380006
0.00807692 	-0.000150188 	-0.000578395 	0.379867
0.00812709 	-0.000149636 	-0.000578227 	0.379727
0.00817726 	-0.000149084 	-0.000578059 	0.379588
0.00822742 	-0.000148532 	-0.00057789 	0.379448
0.00827759 	-0.00014798 	-0.000577722 	0.379309
0.00832776 	-0.000147428 	-0.000577554 	0.37917
0.00837793 	-0.000146876 	-0.000577385 	0.37903
0.00842809 	-0.000146324 	-0.000577217 	0.378891
0.00847826 	-0.000145772 	-0.000577048 	0.378752
0.00852843 	-0.00014522 	-0.00057688 	0.378612
0.0085786 	-0.000144668 	-0.000576712 	0.378473
0.00862876 	-0.000144116 	-0.000576543 	0.378333
0.00867893 	-0.000143563 	-0.000576375 	0.378194
0.0087291 	-0.000143011 	-0.000576206 	0.378055
0.00877926 	-0.000142459 	-0.000576038 	0.377915
0.00882943 	-0.000141907 	-0.00057587 	0.377776
0.0088796 	-0.000141414 	-0.000575356 	0.377554
0.00892977 	-0.000141037 	-0.000574162 	0.377171
0.00897993 	-0.00014066 	-0.000572968 	0.376787
0.0090301 	-0.000140283 	-0.000571775 	0.376404
0.00908027 	-0.000139906 	-0.000570581 	0.37602
0.00913043 	-0.000139529 	-0.000569387 	0.375637
0.0091806 	-0.000139152 	-0.000568193 	0.375253
0.00923077 	-0.000138776 	-0.000566999 	0.37487
0.00928094 	-0.000138399 	-0.000565805 	0.374486
0.0093311 	-0.000138022 	-0.000564611 	0.374103
0.00938127 	-0.000137645 	-0.000563418 	0.373719
0.00943144 	-0.000137268 	-0.000562224 	0.373336
0.00948161 	-0.000136891 	-0.00056103 	0.372952
0.00953177 	-0.000136514 	-0.000559836 	0.372569
0.00958194 	-0.000136137 	-0.000558642 	0.372185
0.00963211 	-0.00013576 	-0.000557448 	0.371802
0.00968227 	-0.000135383 	-0.000556255 	0.371418
0.00973244 	-0.000135006 	-0.000555061 	0.371035
0.00978261 	-0.000134629 	-0.000553867 	0.370651
0.00983278 	-0.000134252 	-0.000552673 	0.370268
0.00988294 	-0.000133875 	-0.000551479 	0.369884
0.00993311 	-0.000133498 	-0.000550285 	0.369501
0.00998328 	-0.000133121 	-0.000549091 	0.369117
0.0100334 	-0.000132765 	-0.00054784 	0.368719
0.0100836 	-0.000132794 	-0.000545507 	0.368047
0.0101338 	-0.000132823 	-0.000543174 	0.367374
0.0101839 	-0.000132851 	-0.000540841 	0.366702
0.0102341 	-0.00013288 	-0.000538508 	0.366029
0.0102843 	-0.000132909 	-0.000536175 	0.365357
0.0103344 	-0.000132937 	-0.000533842 	0.364685
0.0103846 	-0.000132966 	-0.000531509 	0.364012
0.0104348 	-0.000132995 	-0.000529177 	0.36334
0.0104849 	-0.000133023 	-0.000526844 	0.362667
0.0105351 	-0.000133052 	-0.000524511 	0.361995
0.0105853 	-0.000133081 	-0.000522178 	0.361323
0.0106355 	-0.000133109 	-0.000519845 	0.36065
0.0106856 	-0.000133138 	-0.000517512 	0.359978
0.0107358 	-0.000133167 	-0.000515179 	0.359305
0.010786 	-0.000133195 	-0.000512846 	0.358633
0.0108361 	-0.000133224 	-0.000510514 	0.357961
0.0108863 	-0.000133253 	-0.000508181 	0.357288
0.0109365 	-0.000133282 	-0.000505848 	0.356616
0.0109866 	-0.00013331 	-0.000503515 	0.355943
0.0110368 	-0.000133407 	-0.000501041 	0.355238
0.011087 	-0.000134192 	-0.000497126 	0.354191
0.0111371 	-0.000134978 	-0.000493211 	0.353144
0.0111873 	-0.000135764 	-0.000489296 	0.352097
0.0112375 	-0.00013655 	-0.00048538 	0.351051
0.0112876 	-0.000137335 	-0.000481465 	0.350004
0.0113378 	-0.000138121 	-0.00047755 	0.348957
0.011388 	-0.000138907 	-0.000473635 	0.347911
0.0114381 	-0.000139693 	-0.00046972 	0.346864
0.0114883 	-0.000140479 	-0.000465805 	0.345817
0.0115385 	-0.000141264 	-0.00046189 	0.34477
0.0115886 	-0.00014205 	-0.000457975 	0.343724
0.0116388 	-0.000142836 	-0.00045406 	0.342677
0.011689 	-0.000143622 	-0.000450145 	0.34163
0.0117391 	-0.000144408 	-0.00044623 	0.340584
0.0117893 	-0.000145193 	-0.000442315 	0.339537
0.0118395 	-0.000145979 	-0.0004384 	0.33849
0.0118896 	-0.000146765 	-0.000434485 	0.337443
0.0119398 	-0.000148637 	-0.000428133 	0.335849
0.01199 	-0.000150535 	-0.000421725 	0.334241
0.0120401 	-0.000152432 	-0.000415316 	0.332633
0.0120903 	-0.000154329 	-0.000408908 	0.331026
0.0121405 	-0.000156227 	-0.0004025 	0.329418
0.0121906 	-0.000158124 	-0.000396092 	0.327811
0.0122408 	-0.000160022 	-0.000389683 	0.326203
0.012291 	-0.000161919 	-0.000383275 	0.324596
0.0123411 	-0.000163816 	-0.000376867 	0.322988
0.0123913 	-0.000165714 	-0.000370459 	0.32138
0.0124415 	-0.000167611 	-0.000364051 	0.319773
0.0124916 	-0.000169509 	-0.000357642 	0.318165
0.0125418 	-0.000171406 	-0.000351234 	0.316558
0.012592 	-0.000173303 	-0.000344826 	0.31495
0.0126421 	-0.00017551 	-0.00033748 	0.313052
0.0126923 	-0.000178412 	-0.000328033 	0.310502
0.0127425 	-0.000181313 	-0.000318585 	0.307951
0.0127926 	-0.000184214 	-0.000309138 	0.305401
0.0128428 	-0.000187116 	-0.00029969 	0.302851
0.012893 	-0.000190017 	-0.000290242 	0.3003
0.0129431 	-0.000192918 	-0.000280795 	0.29775
0.0129933 	-0.00019582 	-0.000271347 	0.2952
0.0130435 	-0.000198721 	-0.000261899 	0.29265
0.0130936 	-0.000201622 	-0.000252452 	0.290099
0.0131438 	-0.000204524 	-0.000243004 	0.287549
0.013194 	-0.000207425 	-0.000233557 	0.284999
0.0132441 	-0.000210326 	-0.000224109 	0.282448
0.0132943 	-0.00021278 	-0.000213204 	0.278659
0.0133445 	-0.000215072 	-0.000201769 	0.274419
0.0133946 	-0.000217363 	-0.000190333 	0.270178
0.0134448 	-0.000219654 	-0.000178898 	0.265938
0.013495 	-0.000221946 	-0.000167463 	0.261698
0.0135452 	-0.000224237 	-0.000156028 	0.257458
0.0135953 	-0.000226528 	-0.000144593 	0.253218
0.0136455 	-0.00022882 	-0.000133158 	0.248977
0.0136957 	-0.000231111 	-0.000121723 	0.244737
0.0137458 	-0.000233402 	-0.000110288 	0.240497
0.013796 	-0.000235694 	-9.88525e-05 	0.236257
0.0138462 	-0.000232886 	-8.93219e-05 	0.228755
0.0138963 	-0.000229829 	-7.98842e-05 	0.221093
0.0139465 	-0.000226773 	-7.04465e-05 	0.213432
0.0139967 	-0.000223716 	-6.10088e-05 	0.205771
0.0140468 	-0.00022066 	-5.15711e-05 	0.19811
0.014097 	-0.000217603 	-4.21333e-05 	0.190449
0.0141472 	-0.000214547 	-3.26956e-05 	0.182788
0.0141973 	-0.00021149 	-2.32579e-05 	0.175127
0.0142475 	-0.000208434 	-1.38202e-05 	0.167465
0.0142977 	-0.000198588 	-9.09067e-06 	0.157008
0.0143478 	-0.000186003 	-6.26001e-06 	0.145423
0.014398 	-0.000173419 	-3.42935e-06 	0.133837
0.0144482 	-0.000160834 	-5.98695e-07 	0.122252
0.0144983 	-0.00014825 	2.23197e-06 	0.110667
0.0145485 	-0.000135666 	5.06262e-06 	0.0990818
0.0145987 	-0.000123081 	7.89328e-06 	0.0874965
0.0146488 	-0.000110497 	1.07239e-05 	0.0759113
0.014699 	-9.53031e-05 	9.99809e-06 	0.0649299
0.0147492 	-7.94192e-05 	8.33174e-06 	0.0541083
0.0147993 	-6.35354e-05 	6.66539e-06 	0.0432866
0.0148495 	-4.76515e-05 	4.99904e-06 	0.032465
0.0148997 	-3.17677e-05 	3.3327e-06 	0.0216433
0.0149498 	-1.58838e-05 	1.66635e-06 	0.0108217
0.015 	0 	0 	0
