-0.0075 	373
-0.00715932 	361.188
-0.00676191 	359.346
-0.00629832 	358.607
-0.00575752 	358.15
-0.00512667 	357.789
-0.00439077 	357.464
-0.00353231 	357.149
-0.00253089 	356.825
-0.00136271 	356.476
0 	356.088
0.00136271 	355.664
0.00253089 	355.219
0.00353231 	354.761
0.00439077 	354.276
0.00512667 	353.724
0.00575752 	353.024
0.00629832 	351.988
0.00676191 	349.758
0.00715932 	338.494
0.0075 	313
