-0.0075 	373
-0.00715932 	361.451
-0.00676191 	359.651
-0.00629832 	358.927
-0.00575752 	358.478
-0.00512667 	358.123
-0.00439077 	357.802
-0.00353231 	357.49
-0.00253089 	357.168
-0.00136271 	356.819
0 	356.432
0.00136271 	356.009
0.00253089 	355.563
0.00353231 	355.105
0.00439077 	354.617
0.00512667 	354.063
0.00575752 	353.359
0.00629832 	352.317
0.00676191 	350.073
0.00715932 	338.72
0.0075 	313
