-0.0075 	0 	0 	0
-0.0075 	-5.71724e-36 	-1.61916e-36 	1.84986e-31
-0.00745622 	-4.69636e-07 	-1.33004e-07 	0.0151954
-0.00745622 	-4.69636e-07 	-1.33004e-07 	0.0151954
-0.00741165 	-4.98938e-07 	-5.91902e-07 	0.0295963
-0.00741165 	-4.98938e-07 	-5.91902e-07 	0.0295963
-0.00736628 	-4.44379e-07 	-1.41725e-06 	0.0432987
-0.00736628 	-4.44379e-07 	-1.41725e-06 	0.0432987
-0.0073201 	-4.70849e-07 	-2.64631e-06 	0.0563257
-0.0073201 	-4.70849e-07 	-2.64631e-06 	0.0563257
-0.00727309 	-5.52017e-07 	-4.26913e-06 	0.0687015
-0.00727309 	-5.52017e-07 	-4.26913e-06 	0.0687015
-0.00722524 	-6.44149e-07 	-6.29789e-06 	0.0804472
-0.00722524 	-6.44149e-07 	-6.29789e-06 	0.0804472
-0.00717653 	-7.31752e-07 	-8.74238e-06 	0.0915718
-0.00717653 	-7.31752e-07 	-8.74238e-06 	0.0915718
-0.00712695 	-8.10068e-07 	-1.16216e-05 	0.102062
-0.00712695 	-8.10068e-07 	-1.16216e-05 	0.102062
-0.00707647 	-8.78004e-07 	-1.49701e-05 	0.111889
-0.00707647 	-8.78004e-07 	-1.49701e-05 	0.111889
-0.0070251 	-9.35083e-07 	-1.88427e-05 	0.121025
-0.0070251 	-9.35083e-07 	-1.88427e-05 	0.121025
-0.0069728 	-9.80408e-07 	-2.3309e-05 	0.129463
-0.0069728 	-9.80408e-07 	-2.3309e-05 	0.129463
-0.00691956 	-1.01269e-06 	-2.84408e-05 	0.137222
-0.00691956 	-1.01269e-06 	-2.84408e-05 	0.137222
-0.00686537 	-1.03053e-06 	-3.43026e-05 	0.144339
-0.00686537 	-1.03053e-06 	-3.43026e-05 	0.144339
-0.00681021 	-1.03275e-06 	-4.09596e-05 	0.150872
-0.00681021 	-1.03275e-06 	-4.09596e-05 	0.150872
-0.00675406 	-1.01845e-06 	-4.84806e-05 	0.156881
-0.00675406 	-1.01845e-06 	-4.84806e-05 	0.156881
-0.0066969 	-9.86862e-07 	-5.69286e-05 	0.162421
-0.0066969 	-9.86862e-07 	-5.69286e-05 	0.162421
-0.00663871 	-9.37588e-07 	-6.63463e-05 	0.167537
-0.00663871 	-9.37588e-07 	-6.63463e-05 	0.167537
-0.00657949 	-8.71053e-07 	-7.67369e-05 	0.172273
-0.00657949 	-8.71053e-07 	-7.67369e-05 	0.172273
-0.0065192 	-7.88277e-07 	-8.80671e-05 	0.176668
-0.0065192 	-7.88277e-07 	-8.80671e-05 	0.176668
-0.00645783 	-6.90404e-07 	-0.000100288 	0.180765
-0.00645783 	-6.90404e-07 	-0.000100288 	0.180765
-0.00639535 	-5.78471e-07 	-0.000113349 	0.184603
-0.00639535 	-5.78471e-07 	-0.000113349 	0.184603
-0.00633176 	-4.5339e-07 	-0.000127196 	0.188214
-0.00633176 	-4.5339e-07 	-0.000127196 	0.188214
-0.00626703 	-3.1603e-07 	-0.000141775 	0.191626
-0.00626703 	-3.1603e-07 	-0.000141775 	0.191626
-0.00620114 	-1.67289e-07 	-0.000157028 	0.194861
-0.00620114 	-1.67289e-07 	-0.000157028 	0.194861
-0.00613406 	-8.08172e-09 	-0.000172897 	0.197941
-0.00613406 	-8.08172e-09 	-0.000172897 	0.197941
-0.00606579 	1.60608e-07 	-0.000189319 	0.200882
-0.00606579 	1.60608e-07 	-0.000189319 	0.200882
-0.00599629 	3.37722e-07 	-0.000206227 	0.203702
-0.00599629 	3.37722e-07 	-0.000206227 	0.203702
-0.00592554 	5.22356e-07 	-0.000223553 	0.206417
-0.00592554 	5.22356e-07 	-0.000223553 	0.206417
-0.00585352 	7.13969e-07 	-0.000241218 	0.20904
-0.00585352 	7.13969e-07 	-0.000241218 	0.20904
-0.00578022 	9.12314e-07 	-0.000259132 	0.211585
-0.00578022 	9.12314e-07 	-0.000259132 	0.211585
-0.00570559 	1.11723e-06 	-0.000277195 	0.214059
-0.00570559 	1.11723e-06 	-0.000277195 	0.214059
-0.00562963 	1.32854e-06 	-0.00029531 	0.216473
-0.00562963 	1.32854e-06 	-0.00029531 	0.216473
-0.00555231 	1.54609e-06 	-0.000313375 	0.218832
-0.00555231 	1.54609e-06 	-0.000313375 	0.218832
-0.0054736 	1.7698e-06 	-0.000331288 	0.221142
-0.0054736 	1.7698e-06 	-0.000331288 	0.221142
-0.00539348 	1.99967e-06 	-0.000348945 	0.223407
-0.00539348 	1.99967e-06 	-0.000348945 	0.223407
-0.00531193 	2.23577e-06 	-0.000366243 	0.225632
-0.00531193 	2.23577e-06 	-0.000366243 	0.225632
-0.00522891 	2.47826e-06 	-0.000383079 	0.227819
-0.00522891 	2.47826e-06 	-0.000383079 	0.227819
-0.0051444 	2.72737e-06 	-0.000399353 	0.229971
-0.0051444 	2.72737e-06 	-0.000399353 	0.229971
-0.00505838 	2.98345e-06 	-0.000414971 	0.232089
-0.00505838 	2.98345e-06 	-0.000414971 	0.232089
-0.00497081 	3.24691e-06 	-0.000429841 	0.234172
-0.00497081 	3.24691e-06 	-0.000429841 	0.234172
-0.00488168 	3.5183e-06 	-0.000443879 	0.236222
-0.00488168 	3.5183e-06 	-0.000443879 	0.236222
-0.00479094 	3.79824e-06 	-0.000457002 	0.238237
-0.00479094 	3.79824e-06 	-0.000457002 	0.238237
-0.00469858 	4.08738e-06 	-0.000469135 	0.240217
-0.00469858 	4.08738e-06 	-0.000469135 	0.240217
-0.00460456 	4.38648e-06 	-0.000480208 	0.242159
-0.00460456 	4.38648e-06 	-0.000480208 	0.242159
-0.00450886 	4.6964e-06 	-0.000490175 	0.244062
-0.00450886 	4.6964e-06 	-0.000490175 	0.244062
-0.00441144 	5.0182e-06 	-0.000499022 	0.245924
-0.00441144 	5.0182e-06 	-0.000499022 	0.245924
-0.00431227 	5.3531e-06 	-0.000506768 	0.247743
-0.00431227 	5.3531e-06 	-0.000506768 	0.247743
-0.00421133 	5.70254e-06 	-0.000513459 	0.249518
-0.00421133 	5.70254e-06 	-0.000513459 	0.249518
-0.00410857 	6.06782e-06 	-0.000519164 	0.251247
-0.00410857 	6.06782e-06 	-0.000519164 	0.251247
-0.00400397 	6.44948e-06 	-0.000523966 	0.252926
-0.00400397 	6.44948e-06 	-0.000523966 	0.252926
-0.0038975 	6.84729e-06 	-0.000527957 	0.254556
-0.0038975 	6.84729e-06 	-0.000527957 	0.254556
-0.00378912 	7.26117e-06 	-0.000531223 	0.25614
-0.00378912 	7.26117e-06 	-0.000531223 	0.25614
-0.00367879 	7.69203e-06 	-0.000533835 	0.25768
-0.00367879 	7.69203e-06 	-0.000533835 	0.25768
-0.00356649 	8.14118e-06 	-0.000535853 	0.259175
-0.00356649 	8.14118e-06 	-0.000535853 	0.259175
-0.00345217 	8.60923e-06 	-0.000537332 	0.260623
-0.00345217 	8.60923e-06 	-0.000537332 	0.260623
-0.0033358 	9.09582e-06 	-0.000538332 	0.262023
-0.0033358 	9.09582e-06 	-0.000538332 	0.262023
-0.00321735 	9.60015e-06 	-0.000538916 	0.263373
-0.00321735 	9.60015e-06 	-0.000538916 	0.263373
-0.00309677 	1.01211e-05 	-0.000539153 	0.264668
-0.00309677 	1.01211e-05 	-0.000539153 	0.264668
-0.00297403 	1.06575e-05 	-0.000539116 	0.265908
-0.00297403 	1.06575e-05 	-0.000539116 	0.265908
-0.00284909 	1.12073e-05 	-0.000538879 	0.26709
-0.00284909 	1.12073e-05 	-0.000538879 	0.26709
-0.0027219 	1.17687e-05 	-0.000538519 	0.26821
-0.0027219 	1.17687e-05 	-0.000538519 	0.26821
-0.00259244 	1.23394e-05 	-0.000538109 	0.269267
-0.00259244 	1.23394e-05 	-0.000538109 	0.269267
-0.00246065 	1.29165e-05 	-0.000537718 	0.270259
-0.00246065 	1.29165e-05 	-0.000537718 	0.270259
-0.00232651 	1.34971e-05 	-0.000537406 	0.271183
-0.00232651 	1.34971e-05 	-0.000537406 	0.271183
-0.00218995 	1.40777e-05 	-0.000537226 	0.272036
-0.00218995 	1.40777e-05 	-0.000537226 	0.272036
-0.00205095 	1.46542e-05 	-0.000537216 	0.272818
-0.00205095 	1.46542e-05 	-0.000537216 	0.272818
-0.00190946 	1.5222e-05 	-0.0005374 	0.273526
-0.00190946 	1.5222e-05 	-0.0005374 	0.273526
-0.00176543 	1.57756e-05 	-0.000537786 	0.274159
-0.00176543 	1.57756e-05 	-0.000537786 	0.274159
-0.00161881 	1.63089e-05 	-0.000538365 	0.274718
-0.00161881 	1.63089e-05 	-0.000538365 	0.274718
-0.00146957 	1.68148e-05 	-0.000539106 	0.275202
-0.00146957 	1.68148e-05 	-0.000539106 	0.275202
-0.00131765 	1.72864e-05 	-0.000539965 	0.27561
-0.00131765 	1.72864e-05 	-0.000539965 	0.27561
-0.001163 	1.7716e-05 	-0.000540888 	0.275944
-0.001163 	1.7716e-05 	-0.000540888 	0.275944
-0.00100559 	1.80949e-05 	-0.000541815 	0.276203
-0.00100559 	1.80949e-05 	-0.000541815 	0.276203
-0.000845345 	1.84128e-05 	-0.00054272 	0.276386
-0.000845345 	1.84128e-05 	-0.00054272 	0.276386
-0.000682232 	1.86572e-05 	-0.000543518 	0.276491
-0.000682232 	1.86572e-05 	-0.000543518 	0.276491
-0.000516194 	1.88143e-05 	-0.000544111 	0.276519
-0.000516194 	1.88143e-05 	-0.000544111 	0.276519
-0.000347178 	1.8869e-05 	-0.000544499 	0.276465
-0.000347178 	1.8869e-05 	-0.000544499 	0.276465
-0.000175132 	1.88089e-05 	-0.000544527 	0.276329
-0.000175132 	1.88089e-05 	-0.000544527 	0.276329
0 	1.86266e-05 	-0.0005442 	0.276107
0 	1.86266e-05 	-0.0005442 	0.276107
0 	1.86266e-05 	-0.0005442 	0.276107
0 	1.86266e-05 	-0.0005442 	0.276107
0.000175132 	1.83206e-05 	-0.000543585 	0.275802
0.000175132 	2.03463e-05 	-0.000447146 	0.272569
0.000347178 	1.79023e-05 	-0.000542561 	0.275421
0.000347178 	2.12648e-05 	-0.000447773 	0.272253
0.000516194 	1.73853e-05 	-0.000541225 	0.274968
0.000516194 	2.20002e-05 	-0.000448243 	0.271859
0.000682232 	1.67827e-05 	-0.000539576 	0.274447
0.000682232 	2.25686e-05 	-0.000448524 	0.271391
0.000845345 	1.61111e-05 	-0.000537543 	0.273862
0.000845345 	2.29884e-05 	-0.000448362 	0.270855
0.00100559 	1.53849e-05 	-0.000535187 	0.273216
0.00100559 	2.32766e-05 	-0.000447884 	0.270252
0.001163 	1.46168e-05 	-0.000532526 	0.272511
0.001163 	2.34495e-05 	-0.000447098 	0.269588
0.00131765 	1.38175e-05 	-0.000529576 	0.271749
0.00131765 	2.3522e-05 	-0.000446012 	0.268864
0.00146957 	1.29962e-05 	-0.000526355 	0.270933
0.00146957 	2.35076e-05 	-0.000444638 	0.268083
0.00161881 	1.21608e-05 	-0.000522879 	0.270065
0.00161881 	2.34178e-05 	-0.000442985 	0.267247
0.00176543 	1.1318e-05 	-0.000519157 	0.269145
0.00176543 	2.32628e-05 	-0.000441059 	0.266359
0.00190946 	1.04732e-05 	-0.0005152 	0.268177
0.00190946 	2.30516e-05 	-0.000438868 	0.265419
0.00205095 	9.63112e-06 	-0.000511015 	0.26716
0.00205095 	2.27918e-05 	-0.000436413 	0.26443
0.00218995 	8.79543e-06 	-0.000506608 	0.266096
0.00218995 	2.249e-05 	-0.000433697 	0.263393
0.00232651 	7.96924e-06 	-0.000501981 	0.264987
0.00232651 	2.2152e-05 	-0.00043072 	0.262308
0.00246065 	7.15508e-06 	-0.000497136 	0.263832
0.00246065 	2.17826e-05 	-0.000427477 	0.261176
0.00259244 	6.35497e-06 	-0.00049207 	0.262632
0.00259244 	2.13859e-05 	-0.000423964 	0.259999
0.0027219 	5.57054e-06 	-0.000486781 	0.261388
0.0027219 	2.09653e-05 	-0.000420172 	0.258777
0.00284909 	4.80303e-06 	-0.000481263 	0.2601
0.00284909 	2.05237e-05 	-0.000416092 	0.25751
0.00297403 	4.05343e-06 	-0.00047551 	0.258768
0.00297403 	2.00633e-05 	-0.000411713 	0.256199
0.00309677 	3.32254e-06 	-0.000469514 	0.257392
0.00309677 	1.95861e-05 	-0.000407019 	0.254843
0.00321735 	2.61094e-06 	-0.000463266 	0.255971
0.00321735 	1.90936e-05 	-0.000401996 	0.253443
0.0033358 	1.9191e-06 	-0.000456757 	0.254507
0.0033358 	1.8587e-05 	-0.000396629 	0.251998
0.00345217 	1.80673e-05 	-0.000390908 	0.250507
0.00345217 	1.24738e-06 	-0.00044998 	0.252996
0.00356649 	5.9607e-07 	-0.000442929 	0.25144
0.00356649 	1.75353e-05 	-0.000384834 	0.248969
0.00367879 	-3.46186e-08 	-0.000435591 	0.249837
0.00367879 	1.69922e-05 	-0.000378405 	0.247384
0.00378912 	-6.4457e-07 	-0.000427947 	0.248186
0.00378912 	1.64405e-05 	-0.000371605 	0.245752
0.0038975 	-1.23366e-06 	-0.000419977 	0.246485
0.0038975 	1.58828e-05 	-0.000364414 	0.244073
0.00400397 	-1.80199e-06 	-0.000411636 	0.244731
0.00400397 	1.53202e-05 	-0.000356774 	0.242342
0.00410857 	1.47514e-05 	-0.000348576 	0.240544
0.00410857 	-2.35029e-06 	-0.00040286 	0.242919
0.00421133 	-2.87984e-06 	-0.00039357 	0.241041
0.00421133 	1.41733e-05 	-0.000339711 	0.238669
0.00431227 	-3.39219e-06 	-0.00038368 	0.239091
0.00431227 	1.35828e-05 	-0.000330098 	0.236711
0.00441144 	-3.88852e-06 	-0.000373124 	0.237064
0.00441144 	1.29772e-05 	-0.000319692 	0.234665
0.00450886 	-4.36913e-06 	-0.000361867 	0.234951
0.00450886 	1.23539e-05 	-0.000308493 	0.232528
0.00460456 	-4.83389e-06 	-0.000349906 	0.232747
0.00460456 	1.17107e-05 	-0.00029654 	0.230295
0.00469858 	-5.28281e-06 	-0.00033726 	0.230449
0.00469858 	1.10455e-05 	-0.000283883 	0.227963
0.00479094 	-5.71597e-06 	-0.000323951 	0.22805
0.00479094 	1.03563e-05 	-0.000270577 	0.225527
0.00488168 	-6.13343e-06 	-0.000310008 	0.225547
0.00488168 	9.64105e-06 	-0.000256679 	0.222983
0.00497081 	-6.53517e-06 	-0.000295469 	0.222936
0.00497081 	8.89801e-06 	-0.000242254 	0.220327
0.00505838 	-6.92104e-06 	-0.000280384 	0.220211
0.00505838 	8.12553e-06 	-0.000227375 	0.217555
0.0051444 	-7.29074e-06 	-0.000264817 	0.217369
0.0051444 	7.32226e-06 	-0.000212129 	0.214663
0.00522891 	-7.64388e-06 	-0.000248849 	0.214406
0.00522891 	6.48729e-06 	-0.000196617 	0.211649
0.00531193 	-7.9799e-06 	-0.000232575 	0.21132
0.00531193 	5.62024e-06 	-0.000180957 	0.20851
0.00539348 	-8.29811e-06 	-0.000216109 	0.208107
0.00539348 	4.72133e-06 	-0.000165282 	0.205244
0.0054736 	-8.59771e-06 	-0.000199573 	0.204763
0.0054736 	3.79136e-06 	-0.000149733 	0.20185
0.00555231 	-8.87778e-06 	-0.000183099 	0.201285
0.00555231 	2.8317e-06 	-0.000134455 	0.198325
0.00562963 	-9.13726e-06 	-0.000166821 	0.19767
0.00562963 	1.84427e-06 	-0.000119589 	0.194666
0.00570559 	-9.37498e-06 	-0.000150869 	0.193913
0.00570559 	8.31496e-07 	-0.000105269 	0.190872
0.00578022 	-9.58965e-06 	-0.000135371 	0.190009
0.00578022 	-2.03677e-07 	-9.1616e-05 	0.186937
0.00585352 	-9.77984e-06 	-0.000120441 	0.185953
0.00585352 	-1.25776e-06 	-7.87338e-05 	0.182858
0.00592554 	-9.94398e-06 	-0.000106182 	0.181737
0.00592554 	-2.32668e-06 	-6.67069e-05 	0.178629
0.00599629 	-1.00804e-05 	-9.26843e-05 	0.177354
0.00599629 	-3.40576e-06 	-5.55994e-05 	0.174243
0.00606579 	-1.01875e-05 	-8.002e-05 	0.172796
0.00606579 	-4.48969e-06 	-4.54553e-05 	0.169691
0.00613406 	-1.02636e-05 	-6.82522e-05 	0.16805
0.00613406 	-5.57258e-06 	-3.63e-05 	0.164962
0.00620114 	-6.64802e-06 	-2.81422e-05 	0.160039
0.00620114 	-1.03068e-05 	-5.74296e-05 	0.163102
0.00626703 	-1.03149e-05 	-4.7588e-05 	0.157933
0.00626703 	-7.70854e-06 	-2.09789e-05 	0.154905
0.00633176 	-8.74474e-06 	-1.47981e-05 	0.149545
0.00633176 	-1.02853e-05 	-3.87563e-05 	0.152527
0.00639535 	-9.74536e-06 	-9.57269e-06 	0.143943
0.00639535 	-1.02154e-05 	-3.09469e-05 	0.146868
0.00645783 	-1.01029e-05 	-2.41513e-05 	0.14094
0.00645783 	-1.06975e-05 	-5.25849e-06 	0.138083
0.0065192 	-9.94511e-06 	-1.83451e-05 	0.134726
0.0065192 	-1.15866e-05 	-1.79837e-06 	0.131946
0.00657949 	-9.73972e-06 	-1.34907e-05 	0.128209
0.00657949 	-1.23961e-05 	8.74172e-07 	0.125517
0.00663871 	-9.48473e-06 	-9.53675e-06 	0.121372
0.00663871 	-1.31078e-05 	2.83231e-06 	0.118776
0.0066969 	-9.17885e-06 	-6.40527e-06 	0.114198
0.0066969 	-1.37017e-05 	4.15996e-06 	0.111704
0.00675406 	-1.41567e-05 	4.94595e-06 	0.104266
0.00675406 	-8.8201e-06 	-4.0037e-06 	0.106653
0.00681021 	-1.44496e-05 	5.28007e-06 	0.0964336
0.00681021 	-8.4054e-06 	-2.23115e-06 	0.0987046
0.00686537 	-1.45543e-05 	5.25207e-06 	0.0882218
0.00686537 	-7.93289e-06 	-9.9081e-07 	0.0903598
0.00691956 	-1.44458e-05 	4.94896e-06 	0.0796969
0.00691956 	-7.40376e-06 	-1.97499e-07 	0.0816826
0.0069728 	-1.41059e-05 	4.45696e-06 	0.0709759
0.0069728 	-6.82281e-06 	2.42535e-07 	0.0727901
0.0070251 	-6.19816e-06 	4.26144e-07 	0.0638507
0.0070251 	-1.35283e-05 	3.85686e-06 	0.0622244
0.00707647 	-5.54056e-06 	4.45178e-07 	0.0550656
0.00707647 	-1.27224e-05 	3.21798e-06 	0.0536364
0.00712695 	-4.86227e-06 	3.77208e-07 	0.0466332
0.00712695 	-1.17125e-05 	2.59357e-06 	0.0454019
0.00717653 	-4.17588e-06 	2.7839e-07 	0.0387109
0.00717653 	-1.05337e-05 	2.0183e-06 	0.0376702
0.00722524 	-3.49355e-06 	1.81741e-07 	0.0313921
0.00722524 	-9.22406e-06 	1.50957e-06 	0.0305303
0.00727309 	-7.81992e-06 	1.073e-06 	0.024013
0.00727309 	-2.82816e-06 	1.01952e-07 	0.0247094
0.0073201 	-6.3548e-06 	7.09883e-07 	0.0181103
0.0073201 	-2.19696e-06 	4.39462e-08 	0.0186538
0.00736628 	-4.86329e-06 	4.15313e-07 	0.012793
0.00736628 	-1.62988e-06 	1.93873e-09 	0.013195
0.00741165 	-1.13237e-06 	-1.2723e-08 	0.0082949
0.00741165 	-3.34333e-06 	2.00764e-07 	0.00802462
0.00745622 	-6.23542e-07 	-1.28677e-08 	0.0039153
0.00745622 	-1.72993e-06 	6.40207e-08 	0.00376798
0.0075 	0 	0 	0
0.0075 	0 	0 	0
