0 	0 	0 	0
0 	1.20605e-35 	-2.42817e-36 	1.86457e-31
5.01672e-05 	1.09606e-06 	-2.71452e-07 	0.0173904
5.01672e-05 	1.09606e-06 	-2.71452e-07 	0.0173904
0.000100334 	1.90658e-06 	-9.33725e-07 	0.0334259
0.000150502 	2.67372e-06 	-2.04014e-06 	0.0482801
0.000150502 	2.67372e-06 	-2.04014e-06 	0.0482801
0.000200669 	3.47371e-06 	-3.59067e-06 	0.0620445
0.000200669 	3.47371e-06 	-3.59067e-06 	0.0620445
0.000250836 	4.28342e-06 	-5.58145e-06 	0.0748031
0.000301003 	5.08209e-06 	-8.00088e-06 	0.0866288
0.000301003 	5.08209e-06 	-8.00088e-06 	0.0866288
0.000351171 	5.85883e-06 	-1.08423e-05 	0.0975722
0.000401338 	6.60411e-06 	-1.41086e-05 	0.107661
0.000451505 	7.31031e-06 	-1.78188e-05 	0.116913
0.000451505 	7.31031e-06 	-1.78188e-05 	0.116913
0.000501672 	7.97329e-06 	-2.20056e-05 	0.125356
0.000551839 	8.59258e-06 	-2.67054e-05 	0.133037
0.000551839 	8.59258e-06 	-2.67054e-05 	0.133037
0.000602007 	9.17042e-06 	-3.19469e-05 	0.140014
0.000602007 	9.17042e-06 	-3.19469e-05 	0.140014
0.000652174 	9.71051e-06 	-3.77492e-05 	0.146356
0.000652174 	9.71051e-06 	-3.77492e-05 	0.146356
0.000702341 	1.02171e-05 	-4.4126e-05 	0.152136
0.000702341 	1.02171e-05 	-4.4126e-05 	0.152136
0.000752508 	1.06943e-05 	-5.10897e-05 	0.15742
0.000802676 	1.11454e-05 	-5.86534e-05 	0.162265
0.000852843 	1.15702e-05 	-6.69127e-05 	0.166663
0.000852843 	1.15702e-05 	-6.69127e-05 	0.166663
0.00090301 	1.19747e-05 	-7.5744e-05 	0.170726
0.00090301 	1.19747e-05 	-7.5744e-05 	0.170726
0.000953177 	1.23615e-05 	-8.50992e-05 	0.174492
0.00100334 	1.27325e-05 	-9.49278e-05 	0.177999
0.00100334 	1.27325e-05 	-9.49278e-05 	0.177999
0.00105351 	1.30897e-05 	-0.000105181 	0.181277
0.00105351 	1.30897e-05 	-0.000105181 	0.181277
0.00110368 	1.34343e-05 	-0.000115823 	0.18435
0.00115385 	1.37645e-05 	-0.000126898 	0.187195
0.00120401 	1.40851e-05 	-0.000138253 	0.189889
0.00120401 	1.40851e-05 	-0.000138253 	0.189889
0.00130435 	1.47004e-05 	-0.000161666 	0.194885
0.00130435 	1.47004e-05 	-0.000161666 	0.194885
0.00135452 	1.49941e-05 	-0.000173712 	0.197179
0.00135452 	1.49941e-05 	-0.000173712 	0.197179
0.00140468 	1.52802e-05 	-0.000185915 	0.199364
0.00145485 	1.55603e-05 	-0.000198224 	0.201466
0.00145485 	1.55603e-05 	-0.000198224 	0.201466
0.00150502 	1.58348e-05 	-0.000210621 	0.20349
0.00150502 	1.58348e-05 	-0.000210621 	0.20349
0.00155518 	1.61016e-05 	-0.000223104 	0.205406
0.00155518 	1.61016e-05 	-0.000223104 	0.205406
0.00160535 	1.6364e-05 	-0.000235606 	0.207262
0.00160535 	1.6364e-05 	-0.000235606 	0.207262
0.00165552 	1.66225e-05 	-0.000248114 	0.209066
0.00165552 	1.66225e-05 	-0.000248114 	0.209066
0.00170569 	1.68756e-05 	-0.000260595 	0.210799
0.00170569 	1.68756e-05 	-0.000260595 	0.210799
0.00175585 	1.71244e-05 	-0.000273001 	0.212477
0.00175585 	1.71244e-05 	-0.000273001 	0.212477
0.00180602 	1.73702e-05 	-0.00028534 	0.214118
0.00180602 	1.73702e-05 	-0.00028534 	0.214118
0.00185619 	1.76117e-05 	-0.000297547 	0.215705
0.00185619 	1.76117e-05 	-0.000297547 	0.215705
0.00190635 	1.78496e-05 	-0.000309586 	0.217248
0.00190635 	1.78496e-05 	-0.000309586 	0.217248
0.00195652 	1.80852e-05 	-0.000321507 	0.218763
0.00195652 	1.80852e-05 	-0.000321507 	0.218763
0.00200669 	1.83171e-05 	-0.000333185 	0.220231
0.00200669 	1.83171e-05 	-0.000333185 	0.220231
0.00205686 	1.85464e-05 	-0.000344646 	0.221668
0.00210702 	1.87741e-05 	-0.000355964 	0.223083
0.00210702 	1.87741e-05 	-0.000355964 	0.223083
0.00215719 	1.89982e-05 	-0.000366875 	0.224449
0.00220736 	1.92211e-05 	-0.000377608 	0.225798
0.00225753 	1.9442e-05 	-0.000388056 	0.227119
0.00225753 	1.9442e-05 	-0.000388056 	0.227119
0.00230769 	1.96608e-05 	-0.00039813 	0.228408
0.00230769 	1.96608e-05 	-0.00039813 	0.228408
0.00235786 	1.98787e-05 	-0.000408041 	0.229683
0.00235786 	1.98787e-05 	-0.000408041 	0.229683
0.00240803 	2.00943e-05 	-0.000417422 	0.230919
0.00240803 	2.00943e-05 	-0.000417422 	0.230919
0.00245819 	2.03092e-05 	-0.000426607 	0.232142
0.00245819 	2.03092e-05 	-0.000426607 	0.232142
0.00250836 	2.05226e-05 	-0.000435395 	0.233338
0.00250836 	2.05226e-05 	-0.000435395 	0.233338
0.00255853 	2.07351e-05 	-0.000443817 	0.234511
0.0026087 	2.09469e-05 	-0.000451979 	0.235668
0.0026087 	2.09469e-05 	-0.000451979 	0.235668
0.00265886 	2.11575e-05 	-0.000459613 	0.236793
0.00270903 	2.13679e-05 	-0.000467121 	0.237912
0.00270903 	2.13679e-05 	-0.000467121 	0.237912
0.0027592 	2.15773e-05 	-0.000473952 	0.238992
0.00280936 	2.17866e-05 	-0.000480672 	0.240067
0.00280936 	2.17866e-05 	-0.000480672 	0.240067
0.00285953 	2.19954e-05 	-0.000486806 	0.241109
0.00285953 	2.19954e-05 	-0.000486806 	0.241109
0.0029097 	2.22042e-05 	-0.00049274 	0.242141
0.0029097 	2.22042e-05 	-0.00049274 	0.242141
0.00295987 	2.24129e-05 	-0.000498171 	0.243146
0.00295987 	2.24129e-05 	-0.000498171 	0.243146
0.00301003 	2.26218e-05 	-0.000503341 	0.244137
0.0030602 	2.28308e-05 	-0.00050808 	0.245104
0.00311037 	2.30401e-05 	-0.000512529 	0.246055
0.00311037 	2.30401e-05 	-0.000512529 	0.246055
0.00316054 	2.32498e-05 	-0.000516602 	0.246985
0.00316054 	2.32498e-05 	-0.000516602 	0.246985
0.00326087 	2.36707e-05 	-0.000523837 	0.24879
0.00326087 	2.36707e-05 	-0.000523837 	0.24879
0.00331104 	2.3882e-05 	-0.000527029 	0.249665
0.0033612 	2.40939e-05 	-0.000529902 	0.25052
0.0033612 	2.40939e-05 	-0.000529902 	0.25052
0.00341137 	2.43066e-05 	-0.00053257 	0.25136
0.00341137 	2.43066e-05 	-0.00053257 	0.25136
0.00346154 	2.45203e-05 	-0.000534926 	0.252177
0.00346154 	2.45203e-05 	-0.000534926 	0.252177
0.00351171 	2.47347e-05 	-0.00053714 	0.252983
0.00356187 	2.49509e-05 	-0.000539042 	0.253762
0.00356187 	2.49509e-05 	-0.000539042 	0.253762
0.00361204 	2.51676e-05 	-0.000540868 	0.254536
0.00366221 	2.53866e-05 	-0.000542373 	0.25528
0.00366221 	2.53866e-05 	-0.000542373 	0.25528
0.00371237 	2.56058e-05 	-0.000543867 	0.256024
0.00371237 	2.56058e-05 	-0.000543867 	0.256024
0.00376254 	2.58278e-05 	-0.000545023 	0.256735
0.00376254 	2.58278e-05 	-0.000545023 	0.256735
0.00381271 	2.60498e-05 	-0.00054618 	0.257447
0.00381271 	2.60498e-05 	-0.00054618 	0.257447
0.00386288 	2.62738e-05 	-0.000547082 	0.258132
0.00391304 	2.64982e-05 	-0.000547931 	0.258812
0.00391304 	2.64982e-05 	-0.000547931 	0.258812
0.00396321 	2.67237e-05 	-0.00054862 	0.259472
0.00401338 	2.69499e-05 	-0.0005492 	0.26012
0.00401338 	2.69499e-05 	-0.0005492 	0.26012
0.00406355 	2.71766e-05 	-0.000549706 	0.260757
0.00406355 	2.71766e-05 	-0.000549706 	0.260757
0.00411371 	2.74041e-05 	-0.000550052 	0.261373
0.00411371 	2.74041e-05 	-0.000550052 	0.261373
0.00421405 	2.78601e-05 	-0.00055055 	0.262571
0.00421405 	2.78601e-05 	-0.00055055 	0.262571
0.00426421 	2.80886e-05 	-0.0005507 	0.263154
0.00426421 	2.80886e-05 	-0.0005507 	0.263154
0.00431438 	2.83171e-05 	-0.000550752 	0.263717
0.00431438 	2.83171e-05 	-0.000550752 	0.263717
0.00436455 	2.85457e-05 	-0.000550746 	0.264267
0.00436455 	2.85457e-05 	-0.000550746 	0.264267
0.00441472 	2.87742e-05 	-0.000550714 	0.26481
0.00441472 	2.87742e-05 	-0.000550714 	0.26481
0.00446488 	2.90022e-05 	-0.00055059 	0.265328
0.00446488 	2.90022e-05 	-0.00055059 	0.265328
0.00451505 	2.92303e-05 	-0.000550466 	0.265845
0.00451505 	2.92303e-05 	-0.000550466 	0.265845
0.00456522 	2.94572e-05 	-0.00055028 	0.266338
0.00456522 	2.94572e-05 	-0.00055028 	0.266338
0.00461538 	2.96838e-05 	-0.000550077 	0.266823
0.00461538 	2.96838e-05 	-0.000550077 	0.266823
0.00466555 	2.99098e-05 	-0.000549862 	0.267298
0.00471572 	3.0134e-05 	-0.000549616 	0.26775
0.00476589 	3.03583e-05 	-0.00054937 	0.268202
0.00476589 	3.03583e-05 	-0.00054937 	0.268202
0.00486622 	3.08008e-05 	-0.000548864 	0.269048
0.00486622 	3.08008e-05 	-0.000548864 	0.269048
0.00491639 	3.10209e-05 	-0.000548614 	0.269462
0.00496656 	3.12373e-05 	-0.000548382 	0.269848
0.00496656 	3.12373e-05 	-0.000548382 	0.269848
0.00501672 	3.14537e-05 	-0.000548151 	0.270234
0.00506689 	3.1667e-05 	-0.000547946 	0.270602
0.00511706 	3.18778e-05 	-0.000547762 	0.270956
0.00511706 	3.18778e-05 	-0.000547762 	0.270956
0.00521739 	3.22935e-05 	-0.000547455 	0.271634
0.00521739 	3.22935e-05 	-0.000547455 	0.271634
0.00526756 	3.24975e-05 	-0.00054734 	0.271955
0.00526756 	3.24975e-05 	-0.00054734 	0.271955
0.00531773 	3.27003e-05 	-0.000547238 	0.272271
0.00536789 	3.28963e-05 	-0.000547205 	0.27256
0.00536789 	3.28963e-05 	-0.000547205 	0.27256
0.00541806 	3.30923e-05 	-0.000547173 	0.272849
0.00546823 	3.32847e-05 	-0.000547174 	0.273125
0.00551839 	3.34714e-05 	-0.000547231 	0.273382
0.00551839 	3.34714e-05 	-0.000547231 	0.273382
0.00556856 	3.3658e-05 	-0.000547289 	0.273639
0.00556856 	3.3658e-05 	-0.000547289 	0.273639
0.0056689 	3.40147e-05 	-0.000547545 	0.274105
0.0056689 	3.40147e-05 	-0.000547545 	0.274105
0.00571906 	3.41906e-05 	-0.000547694 	0.274331
0.00576923 	3.43582e-05 	-0.000547901 	0.274536
0.00576923 	3.43582e-05 	-0.000547901 	0.274536
0.0058194 	3.45219e-05 	-0.000548135 	0.274731
0.0058194 	3.45219e-05 	-0.000548135 	0.274731
0.00591973 	3.48387e-05 	-0.000548658 	0.2751
0.00591973 	3.48387e-05 	-0.000548658 	0.2751
0.0059699 	3.49885e-05 	-0.000548965 	0.275267
0.0059699 	3.49885e-05 	-0.000548965 	0.275267
0.00602007 	3.51383e-05 	-0.000549271 	0.275433
0.00607023 	3.52754e-05 	-0.000549621 	0.275577
0.0061204 	3.54093e-05 	-0.000549983 	0.275716
0.0061204 	3.54093e-05 	-0.000549983 	0.275716
0.00617057 	3.55432e-05 	-0.000550344 	0.275854
0.00622074 	3.56634e-05 	-0.000550732 	0.275971
0.00622074 	3.56634e-05 	-0.000550732 	0.275971
0.0062709 	3.57795e-05 	-0.000551127 	0.276083
0.00632107 	3.58955e-05 	-0.000551523 	0.276194
0.00632107 	3.58955e-05 	-0.000551523 	0.276194
0.00637124 	3.59981e-05 	-0.000551926 	0.276287
0.00637124 	3.59981e-05 	-0.000551926 	0.276287
0.0064214 	3.60943e-05 	-0.000552333 	0.276372
0.0064214 	3.60943e-05 	-0.000552333 	0.276372
0.00647157 	3.61906e-05 	-0.000552741 	0.276456
0.00647157 	3.61906e-05 	-0.000552741 	0.276456
0.00652174 	3.62749e-05 	-0.000553139 	0.276527
0.00657191 	3.63492e-05 	-0.000553528 	0.276587
0.00657191 	3.63492e-05 	-0.000553528 	0.276587
0.00662207 	3.64235e-05 	-0.000553918 	0.276646
0.00667224 	3.64892e-05 	-0.000554297 	0.276696
0.00672241 	3.65391e-05 	-0.000554656 	0.276731
0.00672241 	3.65391e-05 	-0.000554656 	0.276731
0.00677258 	3.6589e-05 	-0.000555014 	0.276765
0.00682274 	3.66362e-05 	-0.000555369 	0.276797
0.00682274 	3.66362e-05 	-0.000555369 	0.276797
0.00687291 	3.66591e-05 	-0.000555687 	0.276807
0.00687291 	3.66591e-05 	-0.000555687 	0.276807
0.00692308 	3.6682e-05 	-0.000556005 	0.276816
0.00697324 	3.67048e-05 	-0.000556323 	0.276826
0.00702341 	3.67044e-05 	-0.000556585 	0.276816
0.00707358 	3.66976e-05 	-0.000556833 	0.276802
0.00707358 	3.66976e-05 	-0.000556833 	0.276802
0.00717391 	3.66705e-05 	-0.000557303 	0.276763
0.00717391 	3.66705e-05 	-0.000557303 	0.276763
0.00722408 	3.66313e-05 	-0.000557487 	0.276724
0.00722408 	3.66313e-05 	-0.000557487 	0.276724
0.00727425 	3.6592e-05 	-0.000557672 	0.276685
0.00727425 	3.6592e-05 	-0.000557672 	0.276685
0.00732441 	3.65527e-05 	-0.000557857 	0.276646
0.00732441 	3.65527e-05 	-0.000557857 	0.276646
0.00737458 	3.6479e-05 	-0.000557951 	0.276583
0.00737458 	3.6479e-05 	-0.000557951 	0.276583
0.00742475 	3.64049e-05 	-0.000558044 	0.276521
0.00747492 	3.63308e-05 	-0.000558138 	0.276458
0.00752508 	3.62391e-05 	-0.000558168 	0.276383
0.00752508 	3.62391e-05 	-0.000558168 	0.276383
0.00757525 	3.61297e-05 	-0.000558137 	0.276296
0.00762542 	3.60203e-05 	-0.000558105 	0.276209
0.00767559 	3.59106e-05 	-0.000558072 	0.276122
0.00767559 	3.59106e-05 	-0.000558072 	0.276122
0.00772575 	3.57667e-05 	-0.000557928 	0.276011
0.00777592 	3.56227e-05 	-0.000557784 	0.2759
0.00777592 	3.56227e-05 	-0.000557784 	0.2759
0.00782609 	3.54788e-05 	-0.00055764 	0.275789
0.00787625 	3.5317e-05 	-0.000557418 	0.275665
0.00787625 	3.5317e-05 	-0.000557418 	0.275665
0.00792642 	3.51422e-05 	-0.000557137 	0.27553
0.00797659 	3.49675e-05 	-0.000556857 	0.275396
0.00802676 	3.4787e-05 	-0.000556548 	0.275256
0.00802676 	3.4787e-05 	-0.000556548 	0.275256
0.00807692 	3.45853e-05 	-0.000556133 	0.275099
0.00807692 	3.45853e-05 	-0.000556133 	0.275099
0.00812709 	3.43835e-05 	-0.000555717 	0.274941
0.00817726 	3.41818e-05 	-0.000555302 	0.274784
0.00817726 	3.41818e-05 	-0.000555302 	0.274784
0.00822742 	3.39585e-05 	-0.000554782 	0.274605
0.00827759 	3.37329e-05 	-0.000554251 	0.274425
0.00827759 	3.37329e-05 	-0.000554251 	0.274425
0.00832776 	3.35072e-05 	-0.00055372 	0.274245
0.00832776 	3.35072e-05 	-0.00055372 	0.274245
0.00837793 	3.3268e-05 	-0.000553108 	0.274049
0.00842809 	3.30215e-05 	-0.000552451 	0.273846
0.00842809 	3.30215e-05 	-0.000552451 	0.273846
0.00847826 	3.2775e-05 	-0.000551795 	0.273643
0.00847826 	3.2775e-05 	-0.000551795 	0.273643
0.0085786 	3.22559e-05 	-0.000550302 	0.273204
0.0085786 	3.22559e-05 	-0.000550302 	0.273204
0.00862876 	3.19914e-05 	-0.000549521 	0.272979
0.00867893 	3.17221e-05 	-0.000548702 	0.272746
0.0087291 	3.14424e-05 	-0.000547799 	0.272497
0.00877926 	3.11627e-05 	-0.000546896 	0.272249
0.00882943 	3.08799e-05 	-0.000545965 	0.271996
0.0088796 	3.05874e-05 	-0.00054494 	0.271725
0.0088796 	3.05874e-05 	-0.00054494 	0.271725
0.00892977 	3.02948e-05 	-0.000543916 	0.271454
0.00892977 	3.02948e-05 	-0.000543916 	0.271454
0.00897993 	3.00001e-05 	-0.000542867 	0.271178
0.00897993 	3.00001e-05 	-0.000542867 	0.271178
0.0090301 	2.96969e-05 	-0.000541722 	0.270885
0.00908027 	2.93937e-05 	-0.000540577 	0.270591
0.00908027 	2.93937e-05 	-0.000540577 	0.270591
0.00913043 	2.90885e-05 	-0.000539404 	0.270292
0.0091806 	2.87767e-05 	-0.000538139 	0.269976
0.0091806 	2.87767e-05 	-0.000538139 	0.269976
0.00923077 	2.84649e-05 	-0.000536875 	0.269659
0.00928094 	2.8151e-05 	-0.000535573 	0.269336
0.00928094 	2.8151e-05 	-0.000535573 	0.269336
0.0093311 	2.78322e-05 	-0.000534188 	0.268996
0.00938127 	2.75135e-05 	-0.000532804 	0.268657
0.00938127 	2.75135e-05 	-0.000532804 	0.268657
0.00943144 	2.71924e-05 	-0.000531366 	0.268307
0.00943144 	2.71924e-05 	-0.000531366 	0.268307
0.00948161 	2.68683e-05 	-0.000529861 	0.267945
0.00948161 	2.68683e-05 	-0.000529861 	0.267945
0.00953177 	2.65441e-05 	-0.000528356 	0.267582
0.00953177 	2.65441e-05 	-0.000528356 	0.267582
0.00958194 	2.62175e-05 	-0.000526776 	0.267205
0.00958194 	2.62175e-05 	-0.000526776 	0.267205
0.00963211 	2.58892e-05 	-0.000525149 	0.266818
0.00968227 	2.5561e-05 	-0.000523523 	0.266432
0.00968227 	2.5561e-05 	-0.000523523 	0.266432
0.00973244 	2.52303e-05 	-0.000521792 	0.266025
0.00978261 	2.48991e-05 	-0.000520042 	0.265615
0.00978261 	2.48991e-05 	-0.000520042 	0.265615
0.00983278 	2.45676e-05 	-0.000518276 	0.265201
0.00983278 	2.45676e-05 	-0.000518276 	0.265201
0.00988294 	2.42345e-05 	-0.0005164 	0.264766
0.00993311 	2.39013e-05 	-0.000514524 	0.264331
0.00993311 	2.39013e-05 	-0.000514524 	0.264331
0.00998328 	2.35676e-05 	-0.00051259 	0.263885
0.0100334 	2.32333e-05 	-0.000510585 	0.263425
0.0100836 	2.2899e-05 	-0.00050858 	0.262965
0.0100836 	2.2899e-05 	-0.00050858 	0.262965
0.0101338 	2.25644e-05 	-0.000506465 	0.262484
0.0101839 	2.22297e-05 	-0.000504326 	0.261999
0.0101839 	2.22297e-05 	-0.000504326 	0.261999
0.0102341 	2.18951e-05 	-0.000502154 	0.261507
0.0102341 	2.18951e-05 	-0.000502154 	0.261507
0.0102843 	2.15607e-05 	-0.000499876 	0.260995
0.0103344 	2.12262e-05 	-0.000497599 	0.260483
0.0103344 	2.12262e-05 	-0.000497599 	0.260483
0.0103846 	2.08924e-05 	-0.00049522 	0.259952
0.0103846 	2.08924e-05 	-0.00049522 	0.259952
0.0104348 	2.05587e-05 	-0.000492798 	0.259414
0.0104348 	2.05587e-05 	-0.000492798 	0.259414
0.0104849 	2.02254e-05 	-0.000490344 	0.258869
0.0104849 	2.02254e-05 	-0.000490344 	0.258869
0.0105351 	1.9893e-05 	-0.000487771 	0.258302
0.0105853 	1.95607e-05 	-0.000485198 	0.257735
0.0105853 	1.95607e-05 	-0.000485198 	0.257735
0.0106856 	1.88989e-05 	-0.000479774 	0.256551
0.0106856 	1.88989e-05 	-0.000479774 	0.256551
0.0107358 	1.85689e-05 	-0.000476983 	0.255945
0.010786 	1.82402e-05 	-0.000474087 	0.25532
0.010786 	1.82402e-05 	-0.000474087 	0.25532
0.0108361 	1.79116e-05 	-0.000471191 	0.254694
0.0108863 	1.75851e-05 	-0.000468123 	0.254038
0.0108863 	1.75851e-05 	-0.000468123 	0.254038
0.0109365 	1.72587e-05 	-0.000465055 	0.253382
0.0109365 	1.72587e-05 	-0.000465055 	0.253382
0.0109866 	1.6934e-05 	-0.000461863 	0.252704
0.0110368 	1.66102e-05 	-0.000458614 	0.252015
0.0110368 	1.66102e-05 	-0.000458614 	0.252015
0.011087 	1.62874e-05 	-0.000455287 	0.251313
0.011087 	1.62874e-05 	-0.000455287 	0.251313
0.0111371 	1.59663e-05 	-0.000451845 	0.250591
0.0111873 	1.56457e-05 	-0.000448369 	0.249863
0.0111873 	1.56457e-05 	-0.000448369 	0.249863
0.0112375 	1.53276e-05 	-0.00044472 	0.249106
0.0112876 	1.50095e-05 	-0.000441072 	0.24835
0.0112876 	1.50095e-05 	-0.000441072 	0.24835
0.0113378 	1.46946e-05 	-0.000437203 	0.247557
0.0113378 	1.46946e-05 	-0.000437203 	0.247557
0.011388 	1.43797e-05 	-0.000433327 	0.246762
0.0114381 	1.40674e-05 	-0.000429242 	0.245936
0.0114381 	1.40674e-05 	-0.000429242 	0.245936
0.0114883 	1.37557e-05 	-0.000425107 	0.245101
0.0115385 	1.34461e-05 	-0.000420765 	0.244237
0.0115385 	1.34461e-05 	-0.000420765 	0.244237
0.0115886 	1.31375e-05 	-0.000416329 	0.243358
0.0116388 	1.28306e-05 	-0.000411682 	0.242451
0.0116388 	1.28306e-05 	-0.000411682 	0.242451
0.011689 	1.25249e-05 	-0.000406896 	0.241524
0.0117391 	1.22205e-05 	-0.000401888 	0.240568
0.0117893 	1.19171e-05 	-0.000396701 	0.239589
0.0118395 	1.16145e-05 	-0.000391275 	0.238577
0.0118395 	1.16145e-05 	-0.000391275 	0.238577
0.0118896 	1.13126e-05 	-0.000385645 	0.237539
0.0119398 	1.10112e-05 	-0.000379751 	0.236466
0.0119398 	1.10112e-05 	-0.000379751 	0.236466
0.01199 	1.07102e-05 	-0.000373654 	0.235365
0.0120401 	1.04095e-05 	-0.000367256 	0.234222
0.0120401 	1.04095e-05 	-0.000367256 	0.234222
0.0120903 	1.0109e-05 	-0.000360678 	0.233054
0.0120903 	1.0109e-05 	-0.000360678 	0.233054
0.0121906 	9.5084e-06 	-0.000346686 	0.230593
0.0121906 	9.5084e-06 	-0.000346686 	0.230593
0.0122408 	9.20818e-06 	-0.000339209 	0.229288
0.012291 	8.90796e-06 	-0.000331654 	0.227971
0.012291 	8.90796e-06 	-0.000331654 	0.227971
0.0123411 	8.60762e-06 	-0.000323612 	0.226572
0.0123913 	8.30723e-06 	-0.000315479 	0.225157
0.0123913 	8.30723e-06 	-0.000315479 	0.225157
0.0124415 	8.0066e-06 	-0.000306958 	0.223671
0.0124415 	8.0066e-06 	-0.000306958 	0.223671
0.0124916 	7.70581e-06 	-0.000298246 	0.222148
0.0124916 	7.70581e-06 	-0.000298246 	0.222148
0.0125418 	7.40477e-06 	-0.000289264 	0.220571
0.012592 	7.10339e-06 	-0.000279991 	0.218929
0.0126421 	6.80186e-06 	-0.000270574 	0.217256
0.0126421 	6.80186e-06 	-0.000270574 	0.217256
0.0126923 	6.49983e-06 	-0.00026078 	0.215485
0.0127425 	6.19767e-06 	-0.000250875 	0.213682
0.0127425 	6.19767e-06 	-0.000250875 	0.213682
0.0127926 	5.89517e-06 	-0.000240719 	0.2118
0.0128428 	5.5925e-06 	-0.000230389 	0.20985
0.0128428 	5.5925e-06 	-0.000230389 	0.20985
0.0129431 	4.98683e-06 	-0.000209309 	0.205747
0.0129431 	4.98683e-06 	-0.000209309 	0.205747
0.0129933 	4.68404e-06 	-0.000198615 	0.203588
0.0130435 	4.38139e-06 	-0.000187843 	0.201354
0.0130435 	4.38139e-06 	-0.000187843 	0.201354
0.0131438 	3.77748e-06 	-0.000166241 	0.196614
0.0131438 	3.77748e-06 	-0.000166241 	0.196614
0.013194 	3.47651e-06 	-0.000155479 	0.194115
0.0132441 	3.1768e-06 	-0.000144823 	0.191506
0.0132441 	3.1768e-06 	-0.000144823 	0.191506
0.0132943 	2.87811e-06 	-0.000134261 	0.188822
0.0133445 	2.58109e-06 	-0.000123862 	0.186029
0.0133445 	2.58109e-06 	-0.000123862 	0.186029
0.0133946 	2.28659e-06 	-0.000113713 	0.183104
0.0133946 	2.28659e-06 	-0.000113713 	0.183104
0.0134448 	1.99416e-06 	-0.000103766 	0.180084
0.0134448 	1.99416e-06 	-0.000103766 	0.180084
0.013495 	1.70416e-06 	-9.40532e-05 	0.17696
0.0135452 	1.41902e-06 	-8.47791e-05 	0.173658
0.0135452 	1.41902e-06 	-8.47791e-05 	0.173658
0.0135953 	1.13755e-06 	-7.58186e-05 	0.170235
0.0135953 	1.13755e-06 	-7.58186e-05 	0.170235
0.0136455 	8.60151e-07 	-6.71987e-05 	0.166682
0.0136455 	8.60151e-07 	-6.71987e-05 	0.166682
0.0136957 	5.88169e-07 	-5.90181e-05 	0.162963
0.0136957 	5.88169e-07 	-5.90181e-05 	0.162963
0.0137458 	3.23401e-07 	-5.13894e-05 	0.159036
0.013796 	6.49768e-08 	-4.42127e-05 	0.154936
0.013796 	6.49768e-08 	-4.42127e-05 	0.154936
0.0138462 	-1.86271e-07 	-3.75173e-05 	0.150652
0.0138462 	-1.86271e-07 	-3.75173e-05 	0.150652
0.0138963 	-4.29368e-07 	-3.1333e-05 	0.146167
0.0139465 	-6.59803e-07 	-2.58491e-05 	0.141395
0.0139465 	-6.59803e-07 	-2.58491e-05 	0.141395
0.0139967 	-8.78714e-07 	-2.09214e-05 	0.136377
0.0139967 	-8.78714e-07 	-2.09214e-05 	0.136377
0.0140468 	-1.08487e-06 	-1.6548e-05 	0.131101
0.0140468 	-1.08487e-06 	-1.6548e-05 	0.131101
0.014097 	-1.27656e-06 	-1.27363e-05 	0.125545
0.0141472 	-1.45179e-06 	-9.48504e-06 	0.119686
0.0141472 	-1.45179e-06 	-9.48504e-06 	0.119686
0.0141973 	-1.60835e-06 	-6.77826e-06 	0.113498
0.0142475 	-1.74057e-06 	-4.65535e-06 	0.106881
0.0142977 	-1.84964e-06 	-2.98469e-06 	0.0998542
0.0142977 	-1.84964e-06 	-2.98469e-06 	0.0998542
0.0143478 	-1.93367e-06 	-1.72054e-06 	0.0924106
0.014398 	-1.99033e-06 	-8.22104e-07 	0.0845715
0.014398 	-1.99033e-06 	-8.22104e-07 	0.0845715
0.0144482 	-2.01705e-06 	-2.39459e-07 	0.0763967
0.0144983 	-2.01125e-06 	8.76352e-08 	0.0679907
0.0144983 	-2.01125e-06 	8.76352e-08 	0.0679907
0.0145485 	-1.97078e-06 	2.25956e-07 	0.0595016
0.0145485 	-1.97078e-06 	2.25956e-07 	0.0595016
0.0145987 	-1.89424e-06 	2.42489e-07 	0.0511048
0.0146488 	-1.78117e-06 	1.96294e-07 	0.0429751
0.014699 	-1.63184e-06 	1.31563e-07 	0.0352543
0.014699 	-1.63184e-06 	1.31563e-07 	0.0352543
0.0147492 	-1.44631e-06 	7.50346e-08 	0.028033
0.0147993 	-1.22191e-06 	3.78824e-08 	0.0213535
0.0147993 	-1.22191e-06 	3.78824e-08 	0.0213535
0.0148495 	-9.46676e-07 	2.06762e-08 	0.015225
0.0148495 	-9.46676e-07 	2.06762e-08 	0.015225
0.0148997 	-6.11485e-07 	1.43106e-08 	0.0096391
0.0148997 	-6.11485e-07 	1.43106e-08 	0.0096391
0.0149498 	-2.6383e-07 	1.03757e-08 	0.00457769
0.0149498 	-2.6383e-07 	1.03757e-08 	0.00457769
0.015 	0 	0 	0
0.015 	0 	0 	0
