/*--------------------------------*- C++ -*----------------------------------*\
| =========                 |                                                 |
| \\      /  F ield         | OpenFOAM: The Open Source CFD Toolbox           |
|  \\    /   O peration     | Version:  v1912                                 |
|   \\  /    A nd           | Website:  www.openfoam.com                      |
|    \\/     M anipulation  |                                                 |
\*---------------------------------------------------------------------------*/
FoamFile
{
    version     2.0;
    format      ascii;
    class       volVectorField;
    location    "198.4";
    object      wallShearStress;
}
// * * * * * * * * * * * * * * * * * * * * * * * * * * * * * * * * * * * * * //

dimensions      [1 -1 -2 0 0 0 0];


internalField   uniform (0 0 0);

boundaryField
{
    leftWall
    {
        type            calculated;
        value           nonuniform 0();
    }
    rightWall
    {
        type            calculated;
        value           nonuniform List<vector> 
128
(
(2.32899e-05 -1.74708e-05 -0.233863)
(2.26924e-05 6.41986e-06 -0.22859)
(-2.10406e-05 -2.38495e-05 -0.234704)
(-3.00543e-05 7.35148e-06 -0.23168)
(-2.40215e-05 -5.16582e-05 -0.236)
(-5.15131e-05 -3.61774e-05 -0.257395)
(6.01378e-05 -0.000538303 -0.238323)
(1.01458e-05 -0.00127344 -0.660284)
(-0.00108782 -1.13748e-05 -0.230163)
(0.000829608 -1.08564e-07 -0.231821)
(-0.00126504 -1.38304e-05 -0.230621)
(0.000944687 5.65976e-07 -0.236139)
(-0.00169643 -3.36149e-05 -0.231456)
(0.00043115 -2.79659e-05 -0.263598)
(-0.00280071 -0.000500666 -0.232648)
(-0.00321194 -0.00121371 -0.67029)
(-0.00048812 -6.01454e-06 -0.227168)
(0.000448404 -2.3469e-06 -0.233678)
(-0.000467502 -1.11587e-05 -0.227551)
(0.000269842 1.54344e-06 -0.238045)
(-0.000468884 -4.11503e-05 -0.227824)
(-0.000714088 -1.71752e-05 -0.26569)
(-0.00018656 -0.000540501 -0.227247)
(-0.00316781 -0.00119933 -0.67469)
(-0.000332418 -7.55309e-06 -0.22788)
(0.000571105 -3.56541e-06 -0.235541)
(-0.000466692 -1.02453e-05 -0.228178)
(0.000612108 2.16223e-06 -0.240131)
(-0.00104579 -3.8787e-05 -0.228677)
(-0.000178117 6.08365e-06 -0.268143)
(-0.00227165 -0.000538729 -0.228405)
(-0.00226675 -0.00113894 -0.677975)
(-4.10422e-05 -7.53407e-06 -0.227429)
(0.000210504 -2.34166e-06 -0.236372)
(-2.58065e-05 -1.16201e-05 -0.227609)
(0.000116708 3.12013e-06 -0.24107)
(-0.000178174 -4.51798e-05 -0.227579)
(-0.000163088 4.9563e-07 -0.269416)
(-0.000228317 -0.000530245 -0.225936)
(0.000679682 -0.00125477 -0.681009)
(0.000218321 -9.11705e-06 -0.228344)
(0.000249353 -3.23786e-06 -0.23675)
(0.000157541 -1.12917e-05 -0.228564)
(0.00018112 2.53643e-06 -0.24151)
(-0.00026819 -4.0058e-05 -0.228963)
(-0.00018496 1.5152e-07 -0.269753)
(-0.000268527 -0.000527397 -0.228102)
(-0.00153594 -0.00123285 -0.67982)
(0.00017757 -1.08537e-05 -0.229318)
(4.46979e-05 -2.24564e-06 -0.236971)
(0.000239605 -1.39436e-05 -0.229391)
(-3.3449e-05 3.42973e-06 -0.241447)
(0.000141607 -4.47866e-05 -0.229482)
(-0.000213324 2.35074e-07 -0.269277)
(0.000667853 -0.000551519 -0.228595)
(-0.000527886 -0.00120433 -0.679413)
(7.51267e-05 -1.13409e-05 -0.229692)
(5.15611e-05 -3.73545e-06 -0.236843)
(9.87303e-05 -1.32453e-05 -0.230005)
(5.11608e-05 2.81935e-06 -0.241525)
(-5.25334e-05 -4.12312e-05 -0.230528)
(-0.000108481 5.13717e-06 -0.269397)
(-6.80657e-05 -0.000544405 -0.230068)
(-0.000245229 -0.00120731 -0.679295)
(-4.55794e-05 -1.13912e-05 -0.229795)
(-1.56191e-05 -2.152e-06 -0.236855)
(3.85038e-06 -1.48742e-05 -0.229937)
(2.12652e-05 3.40796e-06 -0.241431)
(1.09584e-05 -4.45838e-05 -0.230156)
(3.78938e-06 2.04274e-06 -0.26925)
(-1.81821e-05 -0.000546515 -0.229437)
(-3.94236e-05 -0.00122701 -0.679483)
(-0.000156082 -1.11137e-05 -0.22973)
(-7.57725e-05 -3.62637e-06 -0.236878)
(-9.22577e-05 -1.34929e-05 -0.230049)
(-8.43027e-06 2.81079e-06 -0.24158)
(7.30602e-05 -4.14022e-05 -0.230596)
(0.000125447 5.35482e-06 -0.269467)
(3.57659e-05 -0.000544323 -0.230143)
(0.000178784 -0.00120675 -0.679335)
(-0.000234235 -1.03459e-05 -0.229389)
(-6.56525e-05 -2.51995e-06 -0.237051)
(-0.000234545 -1.41548e-05 -0.229479)
(6.46171e-05 2.99139e-06 -0.241565)
(-0.000127787 -4.5061e-05 -0.229619)
(0.000236853 1.2677e-07 -0.269428)
(-0.000709001 -0.000551458 -0.228747)
(0.000485967 -0.00120397 -0.679498)
(-0.00024285 -8.54531e-06 -0.228459)
(-0.00028324 -3.55722e-06 -0.236881)
(-0.000147905 -1.13987e-05 -0.228699)
(-0.000175751 1.83203e-06 -0.241694)
(0.000291524 -4.02898e-05 -0.229157)
(0.000194009 -3.68004e-07 -0.269985)
(0.000224585 -0.000527028 -0.228319)
(0.0014965 -0.00123315 -0.679953)
(4.24394e-05 -6.83328e-06 -0.227584)
(-0.000253754 -2.00208e-06 -0.236545)
(2.84322e-05 -1.19495e-05 -0.227772)
(-0.000137152 2.56809e-06 -0.241298)
(0.000197905 -4.6174e-05 -0.227804)
(0.000160707 2.72815e-07 -0.269711)
(0.000176417 -0.000529453 -0.226184)
(-0.000711974 -0.00125424 -0.681179)
(0.000354106 -7.19199e-06 -0.228017)
(-0.000594742 -2.59832e-06 -0.235727)
(0.000452027 -1.084e-05 -0.228304)
(-0.000648277 1.81434e-06 -0.24037)
(0.00102461 -4.10061e-05 -0.228855)
(0.000174752 6.34954e-06 -0.268471)
(0.00223346 -0.000537341 -0.228596)
(0.00228321 -0.00113803 -0.678194)
(0.000520064 -5.85088e-06 -0.227245)
(-0.000434988 -1.35947e-06 -0.233857)
(0.000430479 -1.16815e-05 -0.227599)
(-0.000316787 1.24231e-06 -0.238267)
(0.00040047 -4.29002e-05 -0.227898)
(0.000693383 -1.75115e-05 -0.265989)
(0.000187816 -0.000538951 -0.227323)
(0.0032147 -0.00119908 -0.674925)
(0.00112587 -1.14886e-05 -0.230159)
(-0.000791347 3.97181e-07 -0.23193)
(0.00121698 -1.41509e-05 -0.230594)
(-0.00100146 4.76108e-07 -0.236283)
(0.00162568 -3.38456e-05 -0.231431)
(-0.00050068 -2.8906e-05 -0.263792)
(0.00286415 -0.000498747 -0.232621)
(0.00324503 -0.00121431 -0.670478)
)
;
    }
    leftSides_periodic0
    {
        type            cyclic;
    }
    leftSides_periodic1
    {
        type            cyclic;
    }
    rightSides_periodic0
    {
        type            cyclic;
    }
    rightSides_periodic1
    {
        type            cyclic;
    }
    leftInOut_periodic0
    {
        type            cyclic;
    }
    leftInOut_periodic1
    {
        type            cyclic;
    }
    rightInOut_periodic0
    {
        type            cyclic;
    }
    rightInOut_periodic1
    {
        type            cyclic;
    }
    procBoundary3to1
    {
        type            processor;
        value           uniform (0 0 0);
    }
    procBoundary3to1throughrightSides_periodic1
    {
        type            processorCyclic;
        value           uniform (0 0 0);
    }
    procBoundary3to2
    {
        type            processor;
        value           uniform (0 0 0);
    }
    procBoundary3to2throughrightInOut_periodic0
    {
        type            processorCyclic;
        value           uniform (0 0 0);
    }
}


// ************************************************************************* //
