0 	-1.23553e-19 	-5.89752e-22 	7.67675e-19
0 	0 	0 	0
0 	0 	0 	0
0 	1.21479e-33 	5.79851e-36 	-7.54786e-33
5.01672e-05 	0.000908347 	1.5294e-05 	-0.0146789
5.01672e-05 	0.00175197 	1.03697e-05 	-0.0111301
5.01672e-05 	0.00175197 	1.03697e-05 	-0.0111301
0.000100334 	0.00286373 	3.50065e-05 	-0.0202502
0.000100334 	0.000536833 	6.07297e-05 	-0.0304757
0.000100334 	0.00286373 	3.50065e-05 	-0.0202502
0.000150502 	0.00351441 	7.30292e-05 	-0.0276566
0.000150502 	0.00351441 	7.30292e-05 	-0.0276566
0.000150502 	-0.000744145 	0.000141892 	-0.0460088
0.000200669 	0.00383849 	0.000122498 	-0.0335937
0.000200669 	0.00383849 	0.000122498 	-0.0335937
0.000200669 	0.00383849 	0.000122498 	-0.0335937
0.000250836 	0.00393769 	0.00018184 	-0.0382895
0.000250836 	0.00393769 	0.00018184 	-0.0382895
0.000250836 	0.00393769 	0.00018184 	-0.0382895
0.000301003 	0.00388639 	0.000249737 	-0.0419455
0.000301003 	0.00388639 	0.000249737 	-0.0419455
0.000301003 	0.00388639 	0.000249737 	-0.0419455
0.000351171 	0.00373759 	0.000325209 	-0.0447335
0.000351171 	0.00373759 	0.000325209 	-0.0447335
0.000401338 	0.0035284 	0.000407466 	-0.0467958
0.000401338 	0.0035284 	0.000407466 	-0.0467958
0.000401338 	0.0035284 	0.000407466 	-0.0467958
0.000451505 	0.00328466 	0.000495893 	-0.0482483
0.000451505 	0.00328466 	0.000495893 	-0.0482483
0.000451505 	-0.0108235 	0.00120482 	-0.0934751
0.000501672 	0.00302436 	0.000590008 	-0.0491853
0.000501672 	0.00302436 	0.000590008 	-0.0491853
0.000501672 	0.00302436 	0.000590008 	-0.0491853
0.000551839 	0.00276015 	0.000689429 	-0.049683
0.000551839 	-0.0107478 	0.00155194 	-0.0881576
0.000551839 	0.00276015 	0.000689429 	-0.049683
0.000602007 	0.00250105 	0.000793848 	-0.0498037
0.000602007 	0.00250105 	0.000793848 	-0.0498037
0.000602007 	0.00250105 	0.000793848 	-0.0498037
0.000652174 	0.00225358 	0.000903018 	-0.0495977
0.000652174 	0.00225358 	0.000903018 	-0.0495977
0.000702341 	0.00202259 	0.00101674 	-0.0491055
0.000702341 	0.00202259 	0.00101674 	-0.0491055
0.000702341 	0.00202259 	0.00101674 	-0.0491055
0.000752508 	0.00181167 	0.00113486 	-0.0483593
0.000752508 	0.00181167 	0.00113486 	-0.0483593
0.000802676 	0.00162373 	0.00125729 	-0.0473826
0.000802676 	0.00162373 	0.00125729 	-0.0473826
0.000802676 	-0.0322927 	0.00448862 	-0.121523
0.000852843 	0.00146546 	0.00138468 	-0.046162
0.000852843 	0.00146546 	0.00138468 	-0.046162
0.000852843 	0.00146546 	0.00138468 	-0.046162
0.00090301 	0.0013347 	0.00151636 	-0.0447441
0.00090301 	0.0013347 	0.00151636 	-0.0447441
0.000953177 	-0.0188167 	0.00410514 	-0.0786739
0.000953177 	0.00123232 	0.00165234 	-0.0431364
0.000953177 	0.00123232 	0.00165234 	-0.0431364
0.00100334 	0.00115884 	0.00179265 	-0.0413429
0.00100334 	0.00115884 	0.00179265 	-0.0413429
0.00100334 	0.00115884 	0.00179265 	-0.0413429
0.00105351 	0.00111445 	0.00193735 	-0.039365
0.00105351 	-0.0058984 	0.00293257 	-0.0503177
0.00110368 	0.00109987 	0.00208663 	-0.0371976
0.00110368 	0.00109987 	0.00208663 	-0.0371976
0.00110368 	0.00109987 	0.00208663 	-0.0371976
0.00115385 	0.00112406 	0.00224217 	-0.0347732
0.00115385 	0.00112406 	0.00224217 	-0.0347732
0.00115385 	-0.0293636 	0.00688121 	-0.0799422
0.00120401 	0.00117758 	0.00240278 	-0.0321408
0.00120401 	0.00117758 	0.00240278 	-0.0321408
0.00120401 	0.00117758 	0.00240278 	-0.0321408
0.00125418 	0.00125947 	0.00256861 	-0.0292945
0.00125418 	0.00125947 	0.00256861 	-0.0292945
0.00125418 	0.00125947 	0.00256861 	-0.0292945
0.00130435 	0.00136867 	0.00273977 	-0.02623
0.00130435 	0.00136867 	0.00273977 	-0.02623
0.00130435 	0.00136867 	0.00273977 	-0.02623
0.00135452 	0.00151259 	0.00291839 	-0.0228586
0.00135452 	0.00151259 	0.00291839 	-0.0228586
0.00140468 	0.00168508 	0.00310416 	-0.0191943
0.00140468 	0.00168508 	0.00310416 	-0.0191943
0.00140468 	-0.0221583 	0.00780726 	-0.0518707
0.00145485 	0.00187986 	0.00329619 	-0.015273
0.00145485 	0.00187986 	0.00329619 	-0.015273
0.00145485 	-0.010743 	0.00594769 	-0.0329911
0.00150502 	0.00209526 	0.00349448 	-0.0110956
0.00150502 	0.00209526 	0.00349448 	-0.0110956
0.00155518 	0.00233894 	0.0037035 	-0.00648002
0.00155518 	0.00233894 	0.0037035 	-0.00648002
0.00160535 	0.0025967 	0.0039198 	-0.00156789
0.00160535 	0.0025967 	0.0039198 	-0.00156789
0.00160535 	0.0025967 	0.0039198 	-0.00156789
0.00165552 	0.00286599 	0.00414291 	0.00362074
0.00165552 	0.00286599 	0.00414291 	0.00362074
0.00165552 	0.00286599 	0.00414291 	0.00362074
0.00170569 	0.00314782 	0.00437626 	0.00922526
0.00170569 	0.00314782 	0.00437626 	0.00922526
0.00175585 	0.00343453 	0.00461888 	0.0152069
0.00175585 	0.00343453 	0.00461888 	0.0152069
0.00175585 	0.00343453 	0.00461888 	0.0152069
0.00180602 	0.00372267 	0.00486811 	0.0214588
0.00180602 	0.00372267 	0.00486811 	0.0214588
0.00180602 	-0.00290378 	0.00680954 	0.00805015
0.00185619 	0.00400922 	0.00512727 	0.0281185
0.00185619 	0.00400922 	0.00512727 	0.0281185
0.00185619 	0.00400922 	0.00512727 	0.0281185
0.00190635 	0.00428837 	0.00539535 	0.0351539
0.00190635 	0.00428837 	0.00539535 	0.0351539
0.00195652 	0.00456162 	0.00566896 	0.0424257
0.00195652 	0.00456162 	0.00566896 	0.0424257
0.00200669 	0.00482088 	0.00595194 	0.0501116
0.00200669 	0.00482088 	0.00595194 	0.0501116
0.00205686 	0.00506734 	0.0062407 	0.0580808
0.00205686 	0.00506734 	0.0062407 	0.0580808
0.00205686 	-0.0109925 	0.0121372 	0.0123157
0.00210702 	0.00530529 	0.00653326 	0.0662378
0.00210702 	0.00530529 	0.00653326 	0.0662378
0.00210702 	0.00530529 	0.00653326 	0.0662378
0.00215719 	0.00552141 	0.00683287 	0.0748105
0.00215719 	0.00552141 	0.00683287 	0.0748105
0.00220736 	0.00572997 	0.00713411 	0.0835232
0.00220736 	0.00572997 	0.00713411 	0.0835232
0.00220736 	0.00572997 	0.00713411 	0.0835232
0.00225753 	0.00592644 	0.00743797 	0.0924599
0.00225753 	0.00592644 	0.00743797 	0.0924599
0.00230769 	0.00611279 	0.00774245 	0.101616
0.00230769 	-0.0112207 	0.0158442 	0.0298559
0.00230769 	0.00611279 	0.00774245 	0.101616
0.00235786 	0.00629513 	0.00804703 	0.110863
0.00235786 	0.00629513 	0.00804703 	0.110863
0.00235786 	0.00629513 	0.00804703 	0.110863
0.00240803 	0.00647214 	0.00834904 	0.120333
0.00240803 	0.00647214 	0.00834904 	0.120333
0.00245819 	0.00665053 	0.00864905 	0.129858
0.00245819 	-0.000547116 	0.01261 	0.0916467
0.00245819 	0.00665053 	0.00864905 	0.129858
0.00250836 	0.00683173 	0.00894498 	0.139493
0.00250836 	0.00683173 	0.00894498 	0.139493
0.00250836 	0.00683173 	0.00894498 	0.139493
0.00255853 	0.00702126 	0.00923559 	0.149188
0.00255853 	0.00702126 	0.00923559 	0.149188
0.00255853 	-0.00513699 	0.0164857 	0.076373
0.0026087 	0.00721671 	0.0095224 	0.158924
0.0026087 	0.00721671 	0.0095224 	0.158924
0.0026087 	0.00721671 	0.0095224 	0.158924
0.00265886 	-0.00856581 	0.0201156 	0.0610651
0.00265886 	0.00743119 	0.00979986 	0.168692
0.00265886 	0.00743119 	0.00979986 	0.168692
0.00270903 	0.0076502 	0.0100751 	0.178467
0.0027592 	0.00790029 	0.0103369 	0.188225
0.0027592 	0.00790029 	0.0103369 	0.188225
0.00280936 	0.00532155 	0.0127143 	0.174313
0.00280936 	0.00815619 	0.0105965 	0.197971
0.00280936 	0.00815619 	0.0105965 	0.197971
0.00285953 	-0.0122926 	0.026336 	0.0346001
0.00285953 	0.00844284 	0.0108438 	0.207659
0.00285953 	0.00844284 	0.0108438 	0.207659
0.0029097 	0.00874079 	0.0110869 	0.217313
0.0029097 	0.00874079 	0.0110869 	0.217313
0.0029097 	0.00874079 	0.0110869 	0.217313
0.00295987 	0.00906719 	0.0113192 	0.226884
0.00295987 	0.00906719 	0.0113192 	0.226884
0.00301003 	0.00940896 	0.0115459 	0.236395
0.00301003 	0.00940896 	0.0115459 	0.236395
0.00301003 	0.00940896 	0.0115459 	0.236395
0.0030602 	0.00977616 	0.011763 	0.245808
0.0030602 	0.00977616 	0.011763 	0.245808
0.00311037 	0.0101607 	0.0119736 	0.255135
0.00311037 	0.0101607 	0.0119736 	0.255135
0.00311037 	0.0101607 	0.0119736 	0.255135
0.00316054 	0.0105678 	0.0121755 	0.264351
0.00316054 	0.0105678 	0.0121755 	0.264351
0.00316054 	0.0105678 	0.0121755 	0.264351
0.0032107 	0.0109917 	0.0123706 	0.273463
0.0032107 	0.0109917 	0.0123706 	0.273463
0.00326087 	0.0114357 	0.0125575 	0.28245
0.00326087 	0.0114357 	0.0125575 	0.28245
0.00326087 	0.0114357 	0.0125575 	0.28245
0.00331104 	0.0118941 	0.0127379 	0.29132
0.00331104 	0.0118941 	0.0127379 	0.29132
0.0033612 	0.0123704 	0.0129101 	0.300046
0.0033612 	0.0123704 	0.0129101 	0.300046
0.0033612 	0.0123704 	0.0129101 	0.300046
0.00341137 	0.0128572 	0.0130764 	0.308657
0.00341137 	0.0128572 	0.0130764 	0.308657
0.00341137 	0.0128572 	0.0130764 	0.308657
0.00346154 	0.0133599 	0.013234 	0.317094
0.00346154 	0.0133599 	0.013234 	0.317094
0.00346154 	0.0133599 	0.013234 	0.317094
0.00351171 	0.0138686 	0.0133869 	0.325433
0.00351171 	0.0138686 	0.0133869 	0.325433
0.00351171 	0.0138686 	0.0133869 	0.325433
0.00356187 	0.0143906 	0.0135298 	0.333556
0.00356187 	0.0143906 	0.0135298 	0.333556
0.00361204 	0.0124444 	0.0163562 	0.307405
0.00361204 	0.0149147 	0.01367 	0.341615
0.00361204 	0.0149147 	0.01367 	0.341615
0.00366221 	0.0154477 	0.0137983 	0.349403
0.00366221 	0.0154477 	0.0137983 	0.349403
0.00366221 	0.0154477 	0.0137983 	0.349403
0.00371237 	0.0159808 	0.0139262 	0.35718
0.00376254 	0.0165162 	0.0140399 	0.364614
0.00376254 	0.0165162 	0.0140399 	0.364614
0.00376254 	0.00344151 	0.0285516 	0.18047
0.00381271 	0.0170516 	0.0141536 	0.372049
0.00381271 	0.0170516 	0.0141536 	0.372049
0.00381271 	0.0170516 	0.0141536 	0.372049
0.00386288 	0.0175814 	0.0142551 	0.379181
0.00386288 	0.0175814 	0.0142551 	0.379181
0.00386288 	0.0175814 	0.0142551 	0.379181
0.00391304 	0.0181102 	0.0143542 	0.386251
0.00391304 	0.0181102 	0.0143542 	0.386251
0.00396321 	0.0186298 	0.0144448 	0.393102
0.00396321 	0.0186298 	0.0144448 	0.393102
0.00396321 	0.0186298 	0.0144448 	0.393102
0.00401338 	0.0191431 	0.0145294 	0.399802
0.00401338 	0.0191431 	0.0145294 	0.399802
0.00401338 	0.0191431 	0.0145294 	0.399802
0.00406355 	0.0196489 	0.0146097 	0.406387
0.00406355 	0.0196489 	0.0146097 	0.406387
0.00411371 	0.0201383 	0.0146802 	0.412717
0.00411371 	0.0201383 	0.0146802 	0.412717
0.00411371 	0.00431278 	0.0329679 	0.190339
0.00416388 	0.0206277 	0.0147508 	0.419048
0.00416388 	-0.00724832 	0.0469638 	0.0273361
0.00421405 	0.0210858 	0.0148079 	0.425018
0.00421405 	0.0210858 	0.0148079 	0.425018
0.00421405 	0.0210858 	0.0148079 	0.425018
0.00426421 	0.0215438 	0.014865 	0.430986
0.00426421 	0.0215438 	0.014865 	0.430986
0.00431438 	0.0219776 	0.0149141 	0.436732
0.00431438 	0.0219776 	0.0149141 	0.436732
0.00431438 	0.0219776 	0.0149141 	0.436732
0.00436455 	0.0223974 	0.0149585 	0.44235
0.00436455 	0.0223974 	0.0149585 	0.44235
0.00441472 	0.0228072 	0.0150004 	0.447891
0.00441472 	0.0228072 	0.0150004 	0.447891
0.00441472 	0.0228072 	0.0150004 	0.447891
0.00446488 	0.0231833 	0.0150335 	0.453175
0.00446488 	0.0231833 	0.0150335 	0.453175
0.00451505 	-0.00191823 	0.0456003 	0.119812
0.00451505 	0.0235594 	0.0150666 	0.458459
0.00451505 	0.0235594 	0.0150666 	0.458459
0.00456522 	0.0238978 	0.0150919 	0.463499
0.00456522 	0.0238978 	0.0150919 	0.463499
0.00456522 	0.0238978 	0.0150919 	0.463499
0.00461538 	0.0242257 	0.0151151 	0.468471
0.00461538 	0.0242257 	0.0151151 	0.468471
0.00466555 	0.0245387 	0.0151358 	0.473358
0.00466555 	0.0245387 	0.0151358 	0.473358
0.00466555 	0.0245387 	0.0151358 	0.473358
0.00471572 	0.0248151 	0.0151508 	0.47804
0.00471572 	0.0248151 	0.0151508 	0.47804
0.00476589 	0.0250915 	0.0151658 	0.482722
0.00476589 	0.0250915 	0.0151658 	0.482722
0.00476589 	0.000313513 	0.0461762 	0.167493
0.00481605 	0.025327 	0.015176 	0.487203
0.00481605 	0.025327 	0.015176 	0.487203
0.00481605 	0.025327 	0.015176 	0.487203
0.00486622 	0.0255495 	0.0151846 	0.491619
0.00486622 	0.0255495 	0.0151846 	0.491619
0.00486622 	0.0255495 	0.0151846 	0.491619
0.00491639 	0.0257621 	0.0151925 	0.495992
0.00491639 	0.0257621 	0.0151925 	0.495992
0.00496656 	0.0259292 	0.0151969 	0.500165
0.00496656 	0.0259292 	0.0151969 	0.500165
0.00501672 	0.0260962 	0.0152013 	0.504337
0.00501672 	0.0260962 	0.0152013 	0.504337
0.00501672 	0.0260962 	0.0152013 	0.504337
0.00506689 	0.0262325 	0.0152046 	0.508385
0.00511706 	0.0120206 	0.0357303 	0.334421
0.00511706 	0.0263435 	0.0152069 	0.512333
0.00511706 	0.0263435 	0.0152069 	0.512333
0.00516722 	0.0264546 	0.0152093 	0.51628
0.00516722 	0.00288536 	0.0489816 	0.223516
0.00516722 	0.0264546 	0.0152093 	0.51628
0.00521739 	0.0265173 	0.0152119 	0.520043
0.00521739 	0.0265173 	0.0152119 	0.520043
0.00521739 	0.0265173 	0.0152119 	0.520043
0.00526756 	0.0106391 	0.0398582 	0.322053
0.00526756 	0.026573 	0.0152145 	0.52378
0.00526756 	0.026573 	0.0152145 	0.52378
0.00531773 	0.0266206 	0.0152176 	0.527487
0.00531773 	0.0266206 	0.0152176 	0.527487
0.00531773 	0.0254542 	0.0172121 	0.512076
0.00536789 	0.0266229 	0.0152229 	0.531027
0.00536789 	0.0266229 	0.0152229 	0.531027
0.00541806 	0.0266253 	0.0152283 	0.534567
0.00541806 	0.0266253 	0.0152283 	0.534567
0.00546823 	0.0266084 	0.0152356 	0.538034
0.00546823 	0.0266084 	0.0152356 	0.538034
0.00546823 	0.0266084 	0.0152356 	0.538034
0.00551839 	0.0265606 	0.0152461 	0.541385
0.00551839 	0.0265606 	0.0152461 	0.541385
0.00556856 	0.0265127 	0.0152565 	0.544735
0.00556856 	0.0265127 	0.0152565 	0.544735
0.00556856 	0.0265127 	0.0152565 	0.544735
0.00561873 	0.0264393 	0.0152712 	0.547985
0.00561873 	0.0264393 	0.0152712 	0.547985
0.0056689 	0.0178138 	0.0352458 	0.413216
0.0056689 	0.026346 	0.015289 	0.551155
0.0056689 	0.026346 	0.015289 	0.551155
0.00571906 	0.0262527 	0.0153069 	0.554325
0.00571906 	0.0262527 	0.0153069 	0.554325
0.00571906 	0.0122576 	0.0480414 	0.328068
0.00576923 	0.0261323 	0.0153311 	0.557377
0.00576923 	0.0261323 	0.0153311 	0.557377
0.00576923 	0.023237 	0.0240597 	0.500038
0.0058194 	0.0259996 	0.0153581 	0.560376
0.0058194 	0.0259996 	0.0153581 	0.560376
0.0058194 	0.0259996 	0.0153581 	0.560376
0.00586957 	0.025867 	0.0153852 	0.563374
0.00586957 	0.025867 	0.0153852 	0.563374
0.00586957 	0.025867 	0.0153852 	0.563374
0.00591973 	0.0257097 	0.0154204 	0.566245
0.00591973 	0.0257097 	0.0154204 	0.566245
0.0059699 	0.0255449 	0.0154582 	0.569076
0.0059699 	0.0255449 	0.0154582 	0.569076
0.0059699 	0.0255449 	0.0154582 	0.569076
0.00602007 	0.0253801 	0.0154959 	0.571908
0.00602007 	0.0253801 	0.0154959 	0.571908
0.00602007 	0.0176175 	0.0500312 	0.355088
0.00607023 	0.025196 	0.015543 	0.574603
0.00607023 	0.025196 	0.015543 	0.574603
0.0061204 	0.025007 	0.0155925 	0.577263
0.0061204 	0.025007 	0.0155925 	0.577263
0.00617057 	0.0248179 	0.015642 	0.579923
0.00617057 	0.0248179 	0.015642 	0.579923
0.00622074 	0.0246163 	0.0157011 	0.582438
0.00622074 	0.0246163 	0.0157011 	0.582438
0.0062709 	0.0244108 	0.0157631 	0.584909
0.0062709 	0.0244108 	0.0157631 	0.584909
0.0062709 	0.024832 	0.0370854 	0.459443
0.00632107 	0.0242054 	0.0158251 	0.58738
0.00632107 	0.0248651 	0.0492273 	0.390832
0.00637124 	0.0239939 	0.0158955 	0.589699
0.00637124 	0.0239939 	0.0158955 	0.589699
0.00637124 	0.0239939 	0.0158955 	0.589699
0.0064214 	0.0237796 	0.0159699 	0.591948
0.0064214 	0.0237796 	0.0159699 	0.591948
0.00647157 	0.0235652 	0.0160443 	0.594197
0.00647157 	0.0235652 	0.0160443 	0.594197
0.00647157 	0.0235652 	0.0160443 	0.594197
0.00652174 	0.0233497 	0.016125 	0.5963
0.00652174 	0.0233497 	0.016125 	0.5963
0.00657191 	0.0231333 	0.0162112 	0.598281
0.00657191 	0.0231333 	0.0162112 	0.598281
0.00662207 	0.0317266 	0.0456912 	0.429251
0.00662207 	0.0229169 	0.0162973 	0.600261
0.00667224 	0.022702 	0.0163869 	0.602129
0.00667224 	0.0244776 	0.0203231 	0.578723
0.00667224 	0.022702 	0.0163869 	0.602129
0.00672241 	0.0224899 	0.0164831 	0.603787
0.00672241 	0.029331 	0.0316477 	0.513612
0.00677258 	0.0222779 	0.0165793 	0.605445
0.00677258 	0.0222779 	0.0165793 	0.605445
0.00677258 	0.0222779 	0.0165793 	0.605445
0.00682274 	0.0227236 	0.0177538 	0.600379
0.00682274 	0.0220669 	0.0166762 	0.607065
0.00682274 	0.0220669 	0.0166762 	0.607065
0.00687291 	0.0218661 	0.0167795 	0.608345
0.00687291 	0.0218661 	0.0167795 	0.608345
0.00687291 	0.0291454 	0.0287234 	0.534232
0.00692308 	0.0216652 	0.0168827 	0.609625
0.00692308 	0.0216652 	0.0168827 	0.609625
0.00692308 	0.0216652 	0.0168827 	0.609625
0.00697324 	0.0214644 	0.016986 	0.610905
0.00697324 	0.0214644 	0.016986 	0.610905
0.00702341 	0.0212771 	0.017092 	0.61185
0.00702341 	0.0212771 	0.017092 	0.61185
0.00707358 	0.0210934 	0.0171988 	0.612704
0.00707358 	0.0210934 	0.0171988 	0.612704
0.00707358 	0.0210934 	0.0171988 	0.612704
0.00712375 	0.0209097 	0.0173056 	0.613559
0.00712375 	0.0209097 	0.0173056 	0.613559
0.00717391 	0.0207352 	0.0174125 	0.614221
0.00717391 	0.0207352 	0.0174125 	0.614221
0.00722408 	0.0205733 	0.0175196 	0.614617
0.00722408 	0.0205733 	0.0175196 	0.614617
0.00727425 	0.0433939 	0.04192 	0.44107
0.00727425 	0.0204114 	0.0176266 	0.615014
0.00727425 	0.0204114 	0.0176266 	0.615014
0.00732441 	0.0202495 	0.0177336 	0.61541
0.00732441 	0.0202495 	0.0177336 	0.61541
0.00737458 	0.0201137 	0.017837 	0.615342
0.00737458 	0.0201137 	0.017837 	0.615342
0.00742475 	0.0199782 	0.0179403 	0.615269
0.00742475 	0.0199782 	0.0179403 	0.615269
0.00742475 	0.0199782 	0.0179403 	0.615269
0.00747492 	0.0198426 	0.0180435 	0.615197
0.00747492 	0.0198426 	0.0180435 	0.615197
0.00747492 	0.0198426 	0.0180435 	0.615197
0.00752508 	0.0197211 	0.0181437 	0.614899
0.00752508 	0.0197211 	0.0181437 	0.614899
0.00757525 	0.0196136 	0.0182407 	0.614376
0.00757525 	0.0196136 	0.0182407 	0.614376
0.00757525 	0.0377699 	0.0321305 	0.49328
0.00762542 	0.0195061 	0.0183377 	0.613852
0.00762542 	0.0195061 	0.0183377 	0.613852
0.00762542 	0.0195061 	0.0183377 	0.613852
0.00767559 	0.0193989 	0.0184347 	0.613325
0.00767559 	0.0193989 	0.0184347 	0.613325
0.00767559 	0.0193989 	0.0184347 	0.613325
0.00772575 	0.01932 	0.0185234 	0.612384
0.00772575 	0.01932 	0.0185234 	0.612384
0.00777592 	0.019241 	0.0186122 	0.611442
0.00777592 	0.019241 	0.0186122 	0.611442
0.00777592 	0.019241 	0.0186122 	0.611442
0.00782609 	0.0191621 	0.018701 	0.610501
0.00782609 	0.0191621 	0.018701 	0.610501
0.00787625 	0.0190997 	0.0187838 	0.60935
0.00787625 	0.0190997 	0.0187838 	0.60935
0.00792642 	0.0190493 	0.0188623 	0.608046
0.00792642 	0.0190493 	0.0188623 	0.608046
0.00797659 	0.0189989 	0.0189407 	0.606742
0.00797659 	0.0189989 	0.0189407 	0.606742
0.00802676 	0.0223179 	0.0208327 	0.58369
0.00802676 	0.0189542 	0.0190169 	0.605374
0.00802676 	0.0189542 	0.0190169 	0.605374
0.00807692 	0.0382715 	0.0295248 	0.479086
0.00807692 	0.018931 	0.0190845 	0.603764
0.00807692 	0.018931 	0.0190845 	0.603764
0.00812709 	0.0189078 	0.0191521 	0.602154
0.00812709 	0.0189078 	0.0191521 	0.602154
0.00812709 	0.0189078 	0.0191521 	0.602154
0.00817726 	0.0188846 	0.0192197 	0.600544
0.00817726 	0.0188846 	0.0192197 	0.600544
0.00817726 	0.0701787 	0.0469089 	0.269877
0.00822742 	0.0188845 	0.0192775 	0.598706
0.00822742 	0.0341666 	0.0268121 	0.499135
0.00827759 	0.018887 	0.0193343 	0.596843
0.00827759 	0.018887 	0.0193343 	0.596843
0.00827759 	0.018887 	0.0193343 	0.596843
0.00832776 	0.0188894 	0.0193911 	0.59498
0.00832776 	0.0188894 	0.0193911 	0.59498
0.00837793 	0.0189075 	0.0194413 	0.592984
0.00837793 	0.0189075 	0.0194413 	0.592984
0.00837793 	0.0189075 	0.0194413 	0.592984
0.00842809 	0.0189342 	0.0194879 	0.590915
0.00842809 	0.0189342 	0.0194879 	0.590915
0.00842809 	0.0189342 	0.0194879 	0.590915
0.00847826 	0.0189608 	0.0195345 	0.588847
0.00847826 	0.0189608 	0.0195345 	0.588847
0.00847826 	0.0189608 	0.0195345 	0.588847
0.00852843 	0.0189979 	0.0195769 	0.586703
0.00852843 	0.0189979 	0.0195769 	0.586703
0.0085786 	0.0190477 	0.0196143 	0.584468
0.0085786 	0.0190477 	0.0196143 	0.584468
0.0085786 	0.0458904 	0.0309552 	0.402118
0.00862876 	0.0190974 	0.0196518 	0.582233
0.00862876 	0.0190974 	0.0196518 	0.582233
0.00862876 	0.0190974 	0.0196518 	0.582233
0.00867893 	0.0191543 	0.0196866 	0.579956
0.00867893 	0.0191543 	0.0196866 	0.579956
0.0087291 	0.0192267 	0.0197158 	0.577588
0.0087291 	0.0192267 	0.0197158 	0.577588
0.00877926 	0.0192991 	0.019745 	0.57522
0.00877926 	0.0192991 	0.019745 	0.57522
0.00877926 	0.0192991 	0.019745 	0.57522
0.00882943 	0.0193769 	0.0197725 	0.572827
0.00882943 	0.0193769 	0.0197725 	0.572827
0.0088796 	0.0433523 	0.0286654 	0.398526
0.00892977 	0.0195675 	0.0198161 	0.56788
0.00892977 	0.0195675 	0.0198161 	0.56788
0.00892977 	0.0627852 	0.0358709 	0.25691
0.00897993 	0.0196678 	0.0198365 	0.56539
0.00897993 	0.0196678 	0.0198365 	0.56539
0.00897993 	0.0196678 	0.0198365 	0.56539
0.0090301 	0.0197872 	0.0198514 	0.562836
0.0090301 	0.0197872 	0.0198514 	0.562836
0.0090301 	0.0197872 	0.0198514 	0.562836
0.00908027 	0.0199066 	0.0198663 	0.560283
0.00908027 	0.0199066 	0.0198663 	0.560283
0.00913043 	0.0200321 	0.0198798 	0.557716
0.00913043 	0.0200321 	0.0198798 	0.557716
0.00913043 	0.0200321 	0.0198798 	0.557716
0.0091806 	0.0201778 	0.0198884 	0.555107
0.0091806 	0.0201778 	0.0198884 	0.555107
0.00923077 	0.0646207 	0.0345789 	0.215869
0.00923077 	0.0203235 	0.019897 	0.552497
0.00923077 	0.0203235 	0.019897 	0.552497
0.00928094 	0.0204784 	0.0199038 	0.549877
0.00928094 	0.0266784 	0.0218491 	0.501869
0.0093311 	0.0206538 	0.0199063 	0.547234
0.0093311 	0.0206538 	0.0199063 	0.547234
0.00938127 	0.0208292 	0.0199089 	0.54459
0.00938127 	0.0671334 	0.0344373 	0.186046
0.00938127 	0.0208292 	0.0199089 	0.54459
0.00943144 	0.0210193 	0.0199084 	0.541938
0.00943144 	0.0210193 	0.0199084 	0.541938
0.00943144 	0.0299025 	0.0225471 	0.472545
0.00948161 	0.0212284 	0.0199042 	0.539275
0.00948161 	0.0212284 	0.0199042 	0.539275
0.00948161 	0.0212284 	0.0199042 	0.539275
0.00953177 	0.0214375 	0.0198999 	0.536612
0.00953177 	0.0214375 	0.0198999 	0.536612
0.00953177 	0.0214375 	0.0198999 	0.536612
0.00958194 	0.0216699 	0.0198911 	0.533941
0.00958194 	0.0216699 	0.0198911 	0.533941
0.00958194 	0.0216699 	0.0198911 	0.533941
0.00963211 	0.0219167 	0.0198794 	0.531263
0.00963211 	0.0219167 	0.0198794 	0.531263
0.00963211 	0.0219167 	0.0198794 	0.531263
0.00968227 	0.0221635 	0.0198677 	0.528586
0.00968227 	0.0221635 	0.0198677 	0.528586
0.00968227 	0.0221635 	0.0198677 	0.528586
0.00973244 	0.022445 	0.0198492 	0.525886
0.00973244 	0.022445 	0.0198492 	0.525886
0.00978261 	0.0227328 	0.0198295 	0.523182
0.00978261 	0.0227328 	0.0198295 	0.523182
0.00983278 	0.0230259 	0.0198087 	0.52047
0.00983278 	0.0230259 	0.0198087 	0.52047
0.00983278 	0.0230259 	0.0198087 	0.52047
0.00988294 	0.0233562 	0.0197802 	0.517703
0.00988294 	0.0233562 	0.0197802 	0.517703
0.00993311 	0.0690274 	0.0311651 	0.179701
0.00993311 	0.0236865 	0.0197516 	0.514935
0.00993311 	0.0236865 	0.0197516 	0.514935
0.00998328 	0.0338824 	0.0220716 	0.442585
0.00998328 	0.0240356 	0.0197187 	0.51211
0.00998328 	0.0240356 	0.0197187 	0.51211
0.0100334 	0.0244077 	0.0196805 	0.509215
0.0100334 	0.0244077 	0.0196805 	0.509215
0.0100334 	0.0244077 	0.0196805 	0.509215
0.0100836 	0.0247797 	0.0196422 	0.50632
0.0100836 	0.0247797 	0.0196422 	0.50632
0.0101338 	0.0251832 	0.0195954 	0.503242
0.0101338 	0.0251832 	0.0195954 	0.503242
0.0101338 	0.0436032 	0.0237965 	0.380263
0.0101839 	0.0255935 	0.0195467 	0.500125
0.0101839 	0.0255935 	0.0195467 	0.500125
0.0101839 	0.0255935 	0.0195467 	0.500125
0.0102341 	0.0260114 	0.0194952 	0.496924
0.0102341 	0.0260114 	0.0194952 	0.496924
0.0102341 	0.0315654 	0.0207153 	0.46203
0.0102843 	0.0264531 	0.0194354 	0.493462
0.0102843 	0.0264531 	0.0194354 	0.493462
0.0103344 	0.0268948 	0.0193755 	0.49
0.0103344 	0.0268948 	0.0193755 	0.49
0.0103344 	0.0268948 	0.0193755 	0.49
0.0103846 	0.0273514 	0.0193074 	0.486189
0.0103846 	0.0273514 	0.0193074 	0.486189
0.0104348 	0.0278141 	0.0192359 	0.482236
0.0104348 	0.0278141 	0.0192359 	0.482236
0.0104348 	0.0278141 	0.0192359 	0.482236
0.0104849 	0.0282782 	0.0191616 	0.47814
0.0104849 	0.0282782 	0.0191616 	0.47814
0.0104849 	0.0282782 	0.0191616 	0.47814
0.0105351 	0.0287473 	0.0190778 	0.473533
0.0105853 	0.0292164 	0.0189941 	0.468927
0.0105853 	0.0292164 	0.0189941 	0.468927
0.0105853 	0.0292164 	0.0189941 	0.468927
0.0106355 	0.0296755 	0.0189004 	0.463695
0.0106856 	0.0301315 	0.0188038 	0.458278
0.0106856 	0.0301315 	0.0188038 	0.458278
0.0106856 	0.0301315 	0.0188038 	0.458278
0.0107358 	0.0305735 	0.0187024 	0.452512
0.0107358 	0.0305735 	0.0187024 	0.452512
0.0107358 	0.0305735 	0.0187024 	0.452512
0.010786 	0.0309913 	0.0185929 	0.446148
0.010786 	0.0309913 	0.0185929 	0.446148
0.0108361 	0.0314086 	0.0184832 	0.439778
0.0108361 	0.0314086 	0.0184832 	0.439778
0.0108361 	0.0314086 	0.0184832 	0.439778
0.0108863 	0.0317547 	0.0183598 	0.432349
0.0108863 	0.0317547 	0.0183598 	0.432349
0.0109365 	0.0321007 	0.0182364 	0.424921
0.0109365 	0.0321007 	0.0182364 	0.424921
0.0109866 	0.0323682 	0.0181017 	0.416682
0.0109866 	0.0323682 	0.0181017 	0.416682
0.0110368 	0.0325999 	0.0179619 	0.408074
0.0110368 	0.0325999 	0.0179619 	0.408074
0.0110368 	0.0325999 	0.0179619 	0.408074
0.011087 	0.0327648 	0.0178147 	0.398946
0.011087 	0.0327648 	0.0178147 	0.398946
0.0111371 	0.0542704 	0.0247434 	0.236565
0.0111371 	0.032833 	0.0176569 	0.389063
0.0111371 	0.032833 	0.0176569 	0.389063
0.0111873 	0.0328647 	0.017496 	0.378953
0.0111873 	0.0328647 	0.017496 	0.378953
0.0111873 	0.0328647 	0.017496 	0.378953
0.0112375 	0.0327176 	0.0173195 	0.367727
0.0112375 	0.0327176 	0.0173195 	0.367727
0.0112375 	0.0327176 	0.0173195 	0.367727
0.0112876 	0.0325705 	0.0171429 	0.356501
0.0112876 	0.0325705 	0.0171429 	0.356501
0.0112876 	0.0325705 	0.0171429 	0.356501
0.0113378 	0.0321658 	0.0169467 	0.343905
0.0113378 	0.0321658 	0.0169467 	0.343905
0.011388 	0.0317532 	0.0167499 	0.331266
0.011388 	0.0452896 	0.0267416 	0.127011
0.011388 	0.0317532 	0.0167499 	0.331266
0.0114381 	0.0310913 	0.0165356 	0.317421
0.0114381 	0.0310913 	0.0165356 	0.317421
0.0114381 	0.0324314 	0.0206407 	0.235585
0.0114883 	0.0303709 	0.016317 	0.303291
0.0114883 	0.0303709 	0.016317 	0.303291
0.0114883 	0.0333659 	0.0254915 	0.1204
0.0115385 	0.029419 	0.0160825 	0.288103
0.0115385 	0.029419 	0.0160825 	0.288103
0.0115385 	0.029419 	0.0160825 	0.288103
0.0115886 	0.0283617 	0.0158407 	0.272432
0.0115886 	0.0283617 	0.0158407 	0.272432
0.0116388 	0.0270958 	0.0155835 	0.255875
0.0116388 	0.0270958 	0.0155835 	0.255875
0.0116388 	0.0209253 	0.0186007 	0.200363
0.011689 	0.0256922 	0.015316 	0.238731
0.011689 	0.0256922 	0.015316 	0.238731
0.011689 	0.0256922 	0.015316 	0.238731
0.0117391 	0.0241076 	0.0150335 	0.220919
0.0117391 	0.0241076 	0.0150335 	0.220919
0.0117391 	0.0241076 	0.0150335 	0.220919
0.0117893 	0.0223775 	0.0147388 	0.202569
0.0117893 	-0.00344788 	0.0224237 	0.0712177
0.0117893 	0.0223775 	0.0147388 	0.202569
0.0118395 	0.00799123 	0.0170673 	0.143648
0.0118395 	0.0204999 	0.0144296 	0.183837
0.0118896 	0.0184979 	0.014108 	0.16478
0.0118896 	0.0184979 	0.014108 	0.16478
0.0118896 	0.0184979 	0.014108 	0.16478
0.0119398 	0.0163897 	0.0137716 	0.1457
0.0119398 	0.0163897 	0.0137716 	0.1457
0.0119398 	0.0163897 	0.0137716 	0.1457
0.01199 	0.0141998 	0.0134238 	0.126602
0.01199 	0.0141998 	0.0134238 	0.126602
0.0120401 	0.0119593 	0.0130597 	0.107924
0.0120401 	0.0119593 	0.0130597 	0.107924
0.0120401 	0.0119593 	0.0130597 	0.107924
0.0120903 	0.00968834 	0.0126858 	0.0894997
0.0120903 	0.00968834 	0.0126858 	0.0894997
0.0121405 	0.00744411 	0.0122944 	0.0720111
0.0121405 	0.00744411 	0.0122944 	0.0720111
0.0121405 	0.00744411 	0.0122944 	0.0720111
0.0121906 	0.00521052 	0.011896 	0.054894
0.0121906 	0.00521052 	0.011896 	0.054894
0.0122408 	0.00310147 	0.0114793 	0.0391867
0.0122408 	0.00310147 	0.0114793 	0.0391867
0.0122408 	0.00310147 	0.0114793 	0.0391867
0.012291 	0.00101599 	0.0110592 	0.0237456
0.012291 	0.00101599 	0.0110592 	0.0237456
0.0123411 	-0.0553858 	0.0153261 	0.0202088
0.0123411 	-0.000833029 	0.0106207 	0.00996413
0.0123411 	-0.000833029 	0.0106207 	0.00996413
0.0123913 	-0.00262471 	0.0101793 	-0.00357643
0.0123913 	-0.00262471 	0.0101793 	-0.00357643
0.0123913 	-0.00262471 	0.0101793 	-0.00357643
0.0124415 	-0.00417502 	0.00972618 	-0.0161026
0.0124415 	-0.00417502 	0.00972618 	-0.0161026
0.0124916 	-0.00558485 	0.00926871 	-0.0283959
0.0124916 	-0.00558485 	0.00926871 	-0.0283959
0.0124916 	-0.00558485 	0.00926871 	-0.0283959
0.0125418 	-0.0067968 	0.00880516 	-0.0403613
0.0125418 	-0.0067968 	0.00880516 	-0.0403613
0.012592 	-0.00776592 	0.00833791 	-0.0524877
0.012592 	-0.00776592 	0.00833791 	-0.0524877
0.012592 	-0.00776592 	0.00833791 	-0.0524877
0.0126421 	-0.00861529 	0.00786883 	-0.0646935
0.0126923 	-0.00910438 	0.00739948 	-0.0778342
0.0126923 	-0.00910438 	0.00739948 	-0.0778342
0.0126923 	-0.00910438 	0.00739948 	-0.0778342
0.0127425 	-0.00947308 	0.00693155 	-0.0914231
0.0127425 	-0.00947308 	0.00693155 	-0.0914231
0.0127926 	-0.00956286 	0.00646744 	-0.106102
0.0127926 	-0.00956286 	0.00646744 	-0.106102
0.0127926 	-0.00956286 	0.00646744 	-0.106102
0.0128428 	-0.00942318 	0.00601018 	-0.121806
0.0128428 	-0.00942318 	0.00601018 	-0.121806
0.0128428 	-0.00942318 	0.00601018 	-0.121806
0.012893 	-0.00914019 	0.0055572 	-0.138148
0.012893 	-0.00914019 	0.0055572 	-0.138148
0.0129431 	-0.00851613 	0.00512067 	-0.155962
0.0129431 	-0.00851613 	0.00512067 	-0.155962
0.0129431 	-0.00851613 	0.00512067 	-0.155962
0.0129933 	-0.00777234 	0.00469271 	-0.174196
0.0129933 	-0.00777234 	0.00469271 	-0.174196
0.0129933 	-0.00777234 	0.00469271 	-0.174196
0.0130435 	-0.00684889 	0.00427772 	-0.193057
0.0130936 	-0.00573629 	0.00388353 	-0.212267
0.0130936 	-0.00573629 	0.00388353 	-0.212267
0.0130936 	-0.00573629 	0.00388353 	-0.212267
0.0131438 	-0.00454029 	0.00350168 	-0.231489
0.0131438 	-0.00454029 	0.00350168 	-0.231489
0.0131438 	-0.00454029 	0.00350168 	-0.231489
0.013194 	-0.00323518 	0.00313994 	-0.250557
0.013194 	-0.00323518 	0.00313994 	-0.250557
0.0132441 	-0.0018747 	0.002801 	-0.26902
0.0132441 	-0.0018747 	0.002801 	-0.26902
0.0132441 	-0.0018747 	0.002801 	-0.26902
0.0132943 	-0.000498133 	0.00247746 	-0.286955