
400
(
(1.40994e-06 0 0 1.40994e-06 0 1.40994e-06)
(1.05472e-06 -3.01225e-26 -3.00513e-28 1.05472e-06 8.11866e-25 1.05472e-06)
(7.05002e-07 -1.94628e-10 -1.94167e-12 7.0501e-07 5.24563e-09 7.05e-07)
(2.25314e-06 -5.13582e-10 -2.05195e-12 2.2531e-06 1.19664e-08 2.25313e-06)
(8.4327e-07 -1.42931e-09 -3.24254e-11 8.43526e-07 3.87106e-08 8.43246e-07)
(2.97802e-07 -1.0946e-09 -8.20492e-12 2.97849e-07 1.70464e-08 2.97792e-07)
(2.86911e-06 -8.97013e-09 -3.27007e-10 2.86836e-06 2.54554e-07 2.86894e-06)
(2.51419e-06 -1.14789e-08 -1.20654e-10 2.51575e-06 1.66017e-07 2.51414e-06)
(7.53239e-06 -3.4618e-08 -1.85825e-09 7.53976e-06 1.0452e-06 7.53162e-06)
(8.01917e-06 -6.53984e-08 -1.00988e-09 8.00812e-06 9.74398e-07 8.01916e-06)
(1.58323e-05 -9.58417e-08 -7.13458e-09 1.58468e-05 3.08045e-06 1.58299e-05)
(1.84823e-05 -2.18203e-07 -4.67446e-09 1.85384e-05 3.4296e-06 1.84835e-05)
(2.84417e-05 -2.08308e-07 -2.07257e-08 2.84783e-05 7.16227e-06 2.84359e-05)
(3.49176e-05 -5.37178e-07 -1.47705e-08 3.49356e-05 8.75575e-06 3.4924e-05)
(4.54825e-05 -3.75472e-07 -4.89016e-08 4.55741e-05 1.39193e-05 4.54713e-05)
(5.72914e-05 -1.05955e-06 -3.60561e-08 5.74736e-05 1.78687e-05 5.7313e-05)
(6.6429e-05 -5.83769e-07 -9.82705e-08 6.66039e-05 2.34958e-05 6.64109e-05)
(8.4728e-05 -1.76742e-06 -7.32298e-08 8.50883e-05 3.08864e-05 8.47826e-05)
(9.01749e-05 -8.06321e-07 -1.74008e-07 9.04733e-05 3.54271e-05 9.01499e-05)
(0.000115367 -2.58405e-06 -1.29707e-07 0.000116055 4.69412e-05 0.00011548)
(0.000115313 -1.01284e-06 -2.78605e-07 0.000115775 4.8799e-05 0.000115283)
(0.000146989 -3.39976e-06 -2.06958e-07 0.000148111 6.44819e-05 0.000147193)
(0.000140468 -1.17902e-06 -4.12062e-07 0.000141129 6.24837e-05 0.000140436)
(0.000177527 -4.1099e-06 -3.04646e-07 0.000179229 8.1887e-05 0.000177855)
(0.000164551 -1.28244e-06 -5.71374e-07 0.000165427 7.53068e-05 0.00016452)
(0.000205525 -4.60543e-06 -4.17048e-07 0.000207909 9.72964e-05 0.00020601)
(0.000186835 -1.30935e-06 -7.4722e-07 0.000187945 8.65243e-05 0.000186815)
(0.000230214 -4.78678e-06 -5.30544e-07 0.00023334 0.00010866 0.000230878)
(0.000206951 -1.27665e-06 -9.34196e-07 0.000208325 9.62373e-05 0.000206955)
(0.000251372 -4.74447e-06 -6.53721e-07 0.000255316 0.000117818 0.000252234)
(0.000224811 -1.20646e-06 -1.13176e-06 0.00022647 0.0001047 0.000224853)
(0.000269202 -4.55551e-06 -7.94744e-07 0.000274039 0.000125953 0.000270275)
(0.000240457 -1.10754e-06 -1.33845e-06 0.000242421 0.000112026 0.000240553)
(0.00028399 -4.23944e-06 -9.52039e-07 0.000289777 0.000132874 0.00028529)
(0.00025398 -9.87004e-07 -1.55392e-06 0.000256269 0.000118366 0.000254147)
(0.000295956 -3.82822e-06 -1.12518e-06 0.00030274 0.000138605 0.0002975)
(0.000265501 -8.48886e-07 -1.77625e-06 0.000268137 0.000123779 0.000265758)
(0.000305385 -3.33573e-06 -1.31149e-06 0.000313211 0.000143181 0.000307192)
(0.000275166 -6.97753e-07 -2.0034e-06 0.00027817 0.000128336 0.000275532)
(0.000312593 -2.76982e-06 -1.5092e-06 0.000321507 0.000146758 0.00031468)
(0.000283135 -5.39889e-07 -2.23348e-06 0.000286519 0.000132108 0.000283629)
(0.000317904 -2.15111e-06 -1.71602e-06 0.000327939 0.000149511 0.000320292)
(0.000289568 -3.79749e-07 -2.46509e-06 0.000293331 0.000135162 0.00029021)
(0.000321635 -1.49917e-06 -1.92863e-06 0.000332769 0.000151536 0.000324343)
(0.000294617 -2.20684e-07 -2.69787e-06 0.000298748 0.000137571 0.000295423)
(0.000324068 -8.1994e-07 -2.14237e-06 0.000336253 0.000152991 0.000327118)
(0.000298421 -6.5239e-08 -2.93248e-06 0.000302907 0.000139401 0.000299403)
(0.000325434 -1.26873e-07 -2.35085e-06 0.00033864 0.000153945 0.000328845)
(0.000301099 8.88648e-08 -3.17023e-06 0.000305929 0.000140711 0.000302268)
(0.000325923 5.7342e-07 -2.54989e-06 0.000340144 0.000154431 0.000329719)
(0.000302762 2.46933e-07 -3.41341e-06 0.000307918 0.000141538 0.000304126)
(0.000325689 1.29286e-06 -2.73924e-06 0.000340922 0.000154551 0.000329893)
(0.000303514 4.13409e-07 -3.66518e-06 0.000308974 0.000141931 0.00030508)
(0.000324869 2.03779e-06 -2.91864e-06 0.000341082 0.000154306 0.000329501)
(0.000303455 5.89603e-07 -3.92704e-06 0.000309203 0.000141956 0.000305227)
(0.000323563 2.81132e-06 -3.08422e-06 0.000340735 0.000153813 0.000328642)
(0.000302681 7.71594e-07 -4.19455e-06 0.000308714 0.000141633 0.000304663)
(0.000321845 3.59957e-06 -3.23152e-06 0.000339994 0.000153118 0.000327378)
(0.000301289 9.49827e-07 -4.45548e-06 0.000307602 0.000140999 0.000303478)
(0.000319784 4.36726e-06 -3.35829e-06 0.000338903 0.000152184 0.000325773)
(0.000299356 1.11352e-06 -4.6918e-06 0.000305935 0.000140111 0.000301747)
(0.000317448 5.07114e-06 -3.471e-06 0.000337445 0.000151164 0.000323887)
(0.000296929 1.25945e-06 -4.88813e-06 0.000303749 0.000138988 0.000299514)
(0.00031489 5.68635e-06 -3.58468e-06 0.000335602 0.000150042 0.000321778)
(0.000294016 1.39532e-06 -5.04518e-06 0.000301051 0.000137641 0.000296787)
(0.000312146 6.23345e-06 -3.71738e-06 0.000333405 0.000148776 0.000319494)
(0.000290596 1.53288e-06 -5.1849e-06 0.000297831 0.000136052 0.00029355)
(0.000309249 6.75957e-06 -3.87473e-06 0.000330967 0.000147445 0.00031708)
(0.000286658 1.6795e-06 -5.34204e-06 0.000294094 0.000134216 0.000289799)
(0.000306242 7.29605e-06 -4.0393e-06 0.000328449 0.000146024 0.000314582)
(0.000282259 1.83397e-06 -5.55061e-06 0.000289873 0.000132118 0.000285587)
(0.000303197 7.84931e-06 -4.17765e-06 0.00032595 0.000144571 0.000312058)
(0.000277529 1.98575e-06 -5.827e-06 0.000285264 0.000129702 0.000281037)
(0.000300201 8.37942e-06 -4.23758e-06 0.000323419 0.000142838 0.000309555)
(0.000272623 2.13203e-06 -6.16476e-06 0.000280424 0.000127086 0.000276294)
(0.000297274 8.83436e-06 -4.18107e-06 0.000320754 0.000140462 0.000307045)
(0.000267657 2.28181e-06 -6.52661e-06 0.000275503 0.000124418 0.000271472)
(0.000294297 9.2446e-06 -4.03779e-06 0.000317943 0.000138121 0.000304428)
(0.0002627 2.44575e-06 -6.85264e-06 0.00027059 0.00012171 0.00026663)
(0.000291187 9.63787e-06 -3.84584e-06 0.000314982 0.000135604 0.00030162)
(0.000257792 2.63218e-06 -7.10451e-06 0.000265686 0.000118951 0.000261805)
(0.000287929 1.00591e-05 -3.66838e-06 0.000311869 0.000132845 0.000298621)
(0.000252965 2.85121e-06 -7.288e-06 0.000260781 0.000116042 0.00025703)
(0.000284644 1.05197e-05 -3.53603e-06 0.000308435 0.000129972 0.000295568)
(0.000248205 3.12138e-06 -7.42938e-06 0.000255945 0.000112744 0.0002523)
(0.000281352 1.10694e-05 -3.41697e-06 0.000304748 0.000126753 0.000292484)
(0.000243501 3.4493e-06 -7.5419e-06 0.000251252 0.000108914 0.000247601)
(0.000277906 1.17662e-05 -3.2787e-06 0.00030122 0.000123155 0.000289207)
(0.000238874 3.82291e-06 -7.62645e-06 0.000246661 0.000105143 0.000242954)
(0.000274366 1.25655e-05 -3.14635e-06 0.000297862 0.000119611 0.000285788)
(0.000234317 4.21757e-06 -7.68155e-06 0.000242029 0.000103035 0.000238359)
(0.000270922 1.34137e-05 -3.04713e-06 0.000294433 0.000116079 0.00028242)
(0.00022971 4.59326e-06 -7.43469e-06 0.00023722 0.000101297 0.000233683)
(0.000267756 1.42063e-05 -2.97666e-06 0.000290836 0.000111334 0.000279297)
(0.000224868 4.94185e-06 -6.96666e-06 0.00023216 9.83749e-05 0.000228773)
(0.000264941 1.48696e-05 -3.1959e-06 0.000287336 0.00010645 0.000276562)
(0.000219774 5.27493e-06 -6.77101e-06 0.000226876 9.51577e-05 0.000223661)
(0.000262455 1.54034e-05 -3.61711e-06 0.000284428 0.000102575 0.000274214)
(0.000214837 5.61421e-06 -6.97008e-06 0.00022105 9.17882e-05 0.000218725)
(0.000260377 1.58017e-05 -3.74464e-06 0.000282084 9.88551e-05 0.000272235)
(0.000210294 6.22492e-06 -7.39748e-06 0.000214532 8.77988e-05 0.000214132)
(0.000260264 1.63703e-05 -3.45655e-06 0.000276861 9.49733e-05 0.000272082)
(0.000205194 7.38171e-06 -7.66476e-06 0.000209248 8.12853e-05 0.000208891)
(0.000261004 1.87225e-05 -2.96014e-06 0.000270685 8.85451e-05 0.000272669)
(0.000198648 8.49149e-06 -7.76156e-06 0.000207124 7.27193e-05 0.000202136)
(0.000256832 2.2716e-05 -2.69731e-06 0.000275038 7.51784e-05 0.000268272)
(0.000192264 8.47613e-06 -7.86213e-06 0.000205085 6.77558e-05 0.000195516)
(0.000248117 2.40361e-05 -2.60779e-06 0.000289128 5.7798e-05 0.000259236)
(0.000189295 6.62297e-06 -7.26404e-06 0.000196125 6.83066e-05 0.000192386)
(0.000246188 2.05268e-05 -2.13349e-06 0.000289339 6.25036e-05 0.000256884)
(0.000187437 4.74081e-06 -6.27665e-06 0.000183739 7.50658e-05 0.000190373)
(0.00026197 1.43734e-05 -2.73636e-07 0.000252638 9.01572e-05 0.000270124)
(0.000181891 3.73837e-06 -6.58074e-06 0.000177354 7.88207e-05 0.000183645)
(0.000265383 1.21384e-05 3.91758e-07 0.000230673 0.000136798 0.000272305)
(0.00017294 3.86514e-06 -7.92467e-06 0.000175243 7.40431e-05 0.000173304)
(0.000241363 5.40693e-06 2.09886e-06 0.000252212 0.000128313 0.00024723)
(0.000164304 5.87723e-06 -8.4722e-06 0.00017062 6.63327e-05 0.000164627)
(0.000215098 7.12775e-06 1.98887e-06 0.000264172 0.000147965 0.000223663)
(0.000158539 7.99773e-06 -8.1461e-06 0.000161704 5.57535e-05 0.000159439)
(0.000211053 1.67852e-05 1.13454e-06 0.000237832 9.64933e-05 0.000220674)
(0.000153536 8.49923e-06 -7.95303e-06 0.000154027 4.47787e-05 0.000154649)
(0.000211278 2.28653e-05 -3.45146e-07 0.000209343 5.18814e-05 0.000221244)
(0.000148052 8.06165e-06 -7.92293e-06 0.000149963 3.69492e-05 0.000149011)
(0.0002012 1.9357e-05 -4.5895e-07 0.000206754 2.36175e-05 0.000210536)
(0.000143532 8.0412e-06 -7.86747e-06 0.000146205 3.21552e-05 0.000144365)
(0.000192455 1.84173e-05 -3.6622e-07 0.000205632 1.44097e-05 0.000201541)
(0.000140126 8.26558e-06 -7.79361e-06 0.000142393 2.79112e-05 0.000140859)
(0.00018848 1.93039e-05 -3.18804e-07 0.000199117 7.40616e-06 0.000197345)
(0.000137393 8.51219e-06 -7.70532e-06 0.000139397 2.36414e-05 0.000138048)
(0.00018534 1.99909e-05 -3.02531e-07 0.000195053 -5.74124e-07 0.000194004)
(0.000135373 8.82719e-06 -7.61752e-06 0.000137154 1.9401e-05 0.000135958)
(0.000183441 2.08317e-05 -2.99299e-07 0.000192868 -8.56719e-06 0.000191903)
(0.000134101 9.24015e-06 -7.55367e-06 0.000135533 1.5206e-05 0.000134621)
(0.000183125 2.19407e-05 -3.33394e-07 0.000191823 -1.65263e-05 0.000191358)
(0.000133536 9.69889e-06 -7.50614e-06 0.000134514 1.1035e-05 0.000134008)
(0.000184264 2.32966e-05 -4.59325e-07 0.000191861 -2.43748e-05 0.000192263)
(0.000133615 1.00876e-05 -7.36577e-06 0.000134136 6.83213e-06 0.000134061)
(0.000186646 2.4563e-05 -5.43216e-07 0.000193052 -3.21303e-05 0.000194466)
(0.000134309 1.03801e-05 -6.97498e-06 0.00013443 2.49363e-06 0.000134715)
(0.000190106 2.54388e-05 -7.83254e-08 0.000195502 -3.98804e-05 0.000197738)
(0.000135597 1.0597e-05 -6.44006e-06 0.000135389 -2.0437e-06 0.000135949)
(0.000194581 2.62233e-05 1.2214e-06 0.000199186 -4.76782e-05 0.000201878)
(0.00013746 1.07498e-05 -5.99359e-06 0.000136977 -6.76317e-06 0.000137779)
(0.000199928 2.67949e-05 2.21104e-06 0.00020395 -5.53693e-05 0.000206905)
(0.000139931 1.09044e-05 -5.66022e-06 0.000139104 -1.16704e-05 0.00014023)
(0.00020609 2.73134e-05 2.70351e-06 0.000209573 -6.28836e-05 0.000212799)
(0.000143013 1.10931e-05 -5.36878e-06 0.000141768 -1.67789e-05 0.000143281)
(0.000213262 2.80021e-05 2.9551e-06 0.000215496 -7.00951e-05 0.000219627)
(0.000146737 1.12738e-05 -5.06527e-06 0.000144901 -2.19979e-05 0.000146957)
(0.000221199 2.87829e-05 3.14576e-06 0.000221963 -7.65577e-05 0.000227119)
(0.000150792 1.13242e-05 -4.73308e-06 0.000149149 -2.79191e-05 0.000150952)
(0.000230273 2.94655e-05 3.32447e-06 0.000228036 -8.12938e-05 0.000235665)
(0.000154922 1.15086e-05 -4.37386e-06 0.000155099 -3.65237e-05 0.000155011)
(0.000236968 2.92581e-05 3.49135e-06 0.000240884 -9.00891e-05 0.000241735)
(0.000160655 1.23768e-05 -3.98121e-06 0.000159557 -4.58329e-05 0.000160727)
(0.000242961 3.06826e-05 3.73586e-06 0.000257596 -0.000115036 0.000246843)
(0.0001677 1.35562e-05 -3.19047e-06 0.000162403 -5.22269e-05 0.00016797)
(0.000262374 3.57597e-05 4.13038e-06 0.000249202 -0.000142935 0.000264977)
(0.000173255 1.39017e-05 -1.95117e-06 0.000168334 -5.62446e-05 0.000173693)
(0.000280021 4.10094e-05 4.48977e-06 0.000243023 -0.000165205 0.000281602)
(7.05702e-07 0 0 7.05702e-07 0 7.05702e-07)
(4.86381e-07 -6.6511e-11 -1.69452e-12 4.86379e-07 2.86779e-09 4.86381e-07)
(7.03688e-07 -6.7701e-10 -3.45377e-11 7.03673e-07 2.53078e-08 7.03694e-07)
(2.5085e-06 -4.61727e-09 -3.57537e-10 2.50847e-06 1.8763e-07 2.50857e-06)
(6.69771e-06 -1.87461e-08 -2.04581e-09 6.69774e-06 8.39507e-07 6.69818e-06)
(1.4236e-05 -5.43637e-08 -7.88174e-09 1.42366e-05 2.62319e-06 1.42379e-05)
(2.57907e-05 -1.2346e-07 -2.29268e-08 2.57932e-05 6.32999e-06 2.57966e-05)
(4.14973e-05 -2.319e-07 -5.40403e-08 4.15044e-05 1.2573e-05 4.15112e-05)
(6.08583e-05 -3.74977e-07 -1.08257e-07 6.08743e-05 2.14679e-05 6.08861e-05)
(8.28342e-05 -5.38041e-07 -1.90818e-07 8.2864e-05 3.25415e-05 8.28827e-05)
(0.000106101 -7.01663e-07 -3.03946e-07 0.00010615 4.49357e-05 0.000106177)
(0.000129361 -8.53978e-07 -4.47275e-07 0.00012943 5.75341e-05 0.000129469)
(0.000151625 -9.7542e-07 -6.14745e-07 0.000151714 6.92957e-05 0.000151768)
(0.000172275 -1.05984e-06 -7.97778e-07 0.000172387 7.96622e-05 0.000172458)
(0.000190952 -1.12576e-06 -9.94442e-07 0.000191089 8.86708e-05 0.000191184)
(0.0002075 -1.17784e-06 -1.20416e-06 0.000207659 9.64838e-05 0.000207789)
(0.000221898 -1.21223e-06 -1.42561e-06 0.00022208 0.00010319 0.000222252)
(0.000234193 -1.22739e-06 -1.65869e-06 0.000234397 0.000108918 0.000234617)
(0.000244468 -1.22353e-06 -1.90204e-06 0.000244692 0.000113707 0.000244968)
(0.000252837 -1.20088e-06 -2.15419e-06 0.000253082 0.000117614 0.000253417)
(0.000259434 -1.15909e-06 -2.41363e-06 0.0002597 0.000120698 0.000260096)
(0.0002644 -1.09757e-06 -2.67884e-06 0.000264688 0.000123025 0.000265145)
(0.000267879 -1.01692e-06 -2.94841e-06 0.00026819 0.00012466 0.000268708)
(0.00027001 -9.19858e-07 -3.22164e-06 0.000270345 0.000125675 0.000270919)
(0.000270923 -8.13316e-07 -3.4998e-06 0.000271278 0.000126131 0.000271908)
(0.000270736 -7.09426e-07 -3.78825e-06 0.000271099 0.000126061 0.000271789)
(0.000269563 -6.1911e-07 -4.0978e-06 0.00026991 0.000125511 0.000270676)
(0.000267528 -5.4202e-07 -4.44067e-06 0.000267833 0.000124557 0.000268699)
(0.00026477 -4.57766e-07 -4.81902e-06 0.000265027 0.000123258 0.000266005)
(0.000261439 -3.32631e-07 -5.21362e-06 0.000261689 0.000121684 0.000262749)
(0.000257688 -1.42437e-07 -5.58508e-06 0.00025801 0.000119919 0.000259086)
(0.000253663 1.08788e-07 -5.88323e-06 0.000254117 0.000117871 0.00025514)
(0.000249459 3.99774e-07 -6.11208e-06 0.000250032 0.000115678 0.000250982)
(0.000245082 7.0801e-07 -6.32197e-06 0.000245711 0.000113524 0.000246609)
(0.000240483 1.0169e-06 -6.55157e-06 0.000241141 0.000111278 0.000241999)
(0.000235681 1.3247e-06 -6.83315e-06 0.000236378 0.000108873 0.000237195)
(0.000230799 1.64039e-06 -7.18429e-06 0.000231531 0.000106259 0.00023232)
(0.000226006 1.97199e-06 -7.59713e-06 0.000226745 0.000103452 0.000227528)
(0.000221422 2.31864e-06 -8.02873e-06 0.000222162 0.000100624 0.000222941)
(0.000217104 2.67549e-06 -8.41697e-06 0.000217863 9.79088e-05 0.000218619)
(0.000213077 3.03981e-06 -8.72246e-06 0.000213874 9.53002e-05 0.000214577)
(0.000209355 3.41059e-06 -8.95364e-06 0.000210203 9.27298e-05 0.000210834)
(0.000205953 3.78641e-06 -9.13962e-06 0.000206865 9.00191e-05 0.000207403)
(0.000202847 4.16297e-06 -9.28888e-06 0.000203912 8.69889e-05 0.000204263)
(0.000200057 4.53059e-06 -9.39331e-06 0.000201245 8.40698e-05 0.000201435)
(0.000197627 5.03439e-06 -9.44821e-06 0.000198597 8.31513e-05 0.00019896)
(0.000195269 5.95716e-06 -9.115e-06 0.00019616 8.41475e-05 0.000196524)
(0.000192514 6.67482e-06 -8.07427e-06 0.000194282 8.3914e-05 0.000193658)
(0.000189357 6.86537e-06 -7.01024e-06 0.000192222 8.20845e-05 0.000190407)
(0.000186014 7.20205e-06 -6.84834e-06 0.000188795 7.97984e-05 0.000187001)
(0.000182535 7.94436e-06 -7.88796e-06 0.000183817 7.67418e-05 0.000183436)
(0.000178598 7.62442e-06 -8.87826e-06 0.00017904 6.89456e-05 0.00017936)
(0.000174193 6.77335e-06 -9.07024e-06 0.000175599 6.13855e-05 0.000174797)
(0.000169995 7.06684e-06 -9.13194e-06 0.000172359 5.96133e-05 0.000170458)
(0.000166303 7.60087e-06 -9.16498e-06 0.00016864 5.82488e-05 0.000166639)
(0.000162904 7.82285e-06 -9.10832e-06 0.000164898 5.52069e-05 0.000163085)
(0.000159633 7.86031e-06 -8.96922e-06 0.00016158 5.13578e-05 0.000159582)
(0.000156549 7.86501e-06 -8.79813e-06 0.000158656 4.76692e-05 0.000156186)
(0.000153711 7.88448e-06 -8.60736e-06 0.000155963 4.43393e-05 0.000153046)
(0.00015113 7.9297e-06 -8.39624e-06 0.000153423 4.12868e-05 0.00015024)
(0.000148818 7.99101e-06 -8.13252e-06 0.000151042 3.83597e-05 0.000147756)
(0.000146774 8.05798e-06 -7.753e-06 0.000148871 3.54913e-05 0.000145566)
(0.000144999 8.11239e-06 -7.2148e-06 0.000146958 3.26623e-05 0.000143659)
(0.000143509 8.12752e-06 -6.64436e-06 0.000145318 2.98797e-05 0.000142028)
(0.000142313 8.07806e-06 -6.21346e-06 0.000143948 2.71449e-05 0.00014067)
(0.000141417 7.96064e-06 -5.89606e-06 0.000142847 2.44572e-05 0.000139596)
(0.000140827 7.80469e-06 -5.59135e-06 0.000142017 2.17921e-05 0.000138822)
(0.00014055 7.63961e-06 -5.26683e-06 0.000141474 1.90958e-05 0.000138359)
(0.0001406 7.46781e-06 -4.93769e-06 0.000141242 1.63276e-05 0.000138218)
(0.000141003 7.27384e-06 -4.61914e-06 0.000141334 1.34095e-05 0.000138423)
(0.000141785 7.04937e-06 -4.3105e-06 0.000141768 1.02805e-05 0.000139)
(0.000142964 6.7994e-06 -4.00612e-06 0.000142581 6.93039e-06 0.000139972)
(0.00014456 6.52728e-06 -3.69937e-06 0.000143819 3.29501e-06 0.00014136)
(0.000146559 6.22557e-06 -3.37707e-06 0.000145576 -7.58e-07 0.000143162)
(0.000148968 5.9164e-06 -3.02603e-06 0.000147892 -4.81713e-06 0.000145389)
(0.000151877 5.74796e-06 -2.63459e-06 0.000150602 -7.47316e-06 0.000148139)
(0.000155526 5.77622e-06 -2.16919e-06 0.000153172 -1.05937e-05 0.000151689)
(0.000159825 5.31168e-06 -1.51043e-06 0.000155932 -2.32898e-05 0.000155985)
(0.000163563 4.0148e-06 -4.92215e-07 0.000160642 -3.84862e-05 0.000160365)
(0.000166944 2.99398e-06 7.83624e-07 0.000165771 -4.60984e-05 0.000164402)
(1.06092e-06 0 0 1.06092e-06 0 1.06092e-06)
(6.83137e-07 -7.6307e-11 -1.93145e-12 6.83137e-07 4.02378e-09 6.8314e-07)
(6.82002e-07 -9.02121e-10 -3.03485e-11 6.81993e-07 2.54491e-08 6.82042e-07)
(2.30281e-06 -6.06522e-09 -3.07616e-10 2.30273e-06 1.82312e-07 2.3032e-06)
(6.11696e-06 -2.41686e-08 -1.75548e-09 6.11672e-06 8.1001e-07 6.11912e-06)
(1.29688e-05 -6.96223e-08 -6.73831e-09 1.29684e-05 2.50722e-06 1.29768e-05)
(2.34245e-05 -1.58729e-07 -1.94895e-08 2.34245e-05 5.9785e-06 2.34464e-05)
(3.75648e-05 -3.01286e-07 -4.56471e-08 3.75672e-05 1.17298e-05 3.76135e-05)
(5.49177e-05 -4.9427e-07 -9.09494e-08 5.49266e-05 1.98066e-05 5.50105e-05)
(7.45529e-05 -7.20791e-07 -1.59782e-07 7.45742e-05 2.97513e-05 7.47089e-05)
(9.53026e-05 -9.54495e-07 -2.54326e-07 9.5344e-05 4.08027e-05 9.55401e-05)
(0.000116019 -1.17348e-06 -3.74999e-07 0.000116086 5.19753e-05 0.000116351)
(0.000135824 -1.34897e-06 -5.16845e-07 0.000135919 6.23321e-05 0.000136257)
(0.000154178 -1.46794e-06 -6.73171e-07 0.000154311 7.14045e-05 0.000154714)
(0.000170771 -1.54831e-06 -8.45374e-07 0.00017095 7.93332e-05 0.000171412)
(0.000185437 -1.59859e-06 -1.03566e-06 0.000185671 8.62858e-05 0.000186185)
(0.000198123 -1.61763e-06 -1.24299e-06 0.000198421 9.22313e-05 0.000198975)
(0.000208859 -1.60607e-06 -1.46739e-06 0.000209229 9.72476e-05 0.000209812)
(0.000217731 -1.56698e-06 -1.70888e-06 0.00021818 0.000101398 0.00021878)
(0.00022486 -1.50591e-06 -1.96751e-06 0.000225395 0.000104738 0.000225997)
(0.000230389 -1.42927e-06 -2.2436e-06 0.000231018 0.000107331 0.000231606)
(0.000234477 -1.34032e-06 -2.53738e-06 0.000235209 0.000109254 0.000235763)
(0.000237288 -1.23474e-06 -2.84744e-06 0.000238136 0.000110575 0.000238633)
(0.000238992 -1.09754e-06 -3.16539e-06 0.000239959 0.000111227 0.000240382)
(0.000239748 -9.15858e-07 -3.48181e-06 0.000240821 0.000111187 0.000241166)
(0.000239688 -7.0445e-07 -3.80266e-06 0.00024085 0.000110729 0.000241116)
(0.000238919 -4.95273e-07 -4.14124e-06 0.00024015 0.000110046 0.000240341)
(0.000237543 -3.0565e-07 -4.50741e-06 0.000238825 0.000109114 0.000238949)
(0.000235669 -1.22384e-07 -4.90533e-06 0.000236997 0.000107946 0.00023706)
(0.00023341 9.09783e-08 -5.32445e-06 0.00023481 0.000106613 0.0002348)
(0.000230889 3.63175e-07 -5.74055e-06 0.000232414 0.000105186 0.000232298)
(0.000228241 6.92139e-07 -6.11832e-06 0.000229925 0.000103565 0.000229675)
(0.000225579 1.05748e-06 -6.46269e-06 0.000227387 0.000101885 0.000227019)
(0.000222944 1.43677e-06 -6.8036e-06 0.000224806 0.000100349 0.000224358)
(0.000220314 1.81234e-06 -7.144e-06 0.000222205 9.88328e-05 0.000221687)
(0.000217683 2.18026e-06 -7.47946e-06 0.000219621 9.72563e-05 0.000219023)
(0.000215085 2.54692e-06 -7.8046e-06 0.000217071 9.55399e-05 0.000216398)
(0.000212563 2.91817e-06 -8.1162e-06 0.000214568 9.36288e-05 0.000213842)
(0.000210134 3.29224e-06 -8.41186e-06 0.00021214 9.16411e-05 0.000211383)
(0.000207809 3.66472e-06 -8.68916e-06 0.000209818 8.96959e-05 0.000209038)
(0.000205602 4.03346e-06 -8.94557e-06 0.00020762 8.77966e-05 0.000206822)
(0.000203535 4.39682e-06 -9.17861e-06 0.000205562 8.59476e-05 0.000204757)
(0.000201626 4.75135e-06 -9.3861e-06 0.000203663 8.41524e-05 0.000202858)
(0.00019986 5.09078e-06 -9.5662e-06 0.000201981 8.23717e-05 0.00020111)
(0.000198282 5.40481e-06 -9.71684e-06 0.000200448 8.05478e-05 0.000199553)
(0.000196997 5.83937e-06 -9.83647e-06 0.000198884 7.91025e-05 0.000198294)
(0.000195867 6.68648e-06 -9.85611e-06 0.000197619 7.92746e-05 0.000197184)
(0.000194589 7.31377e-06 -9.37322e-06 0.000197166 7.93955e-05 0.000195892)
(0.000193168 7.39155e-06 -8.57807e-06 0.000196836 7.81889e-05 0.000194416)
(0.00019168 7.62918e-06 -8.27616e-06 0.000195297 7.67107e-05 0.000192846)
(0.000190085 8.31416e-06 -8.93735e-06 0.000192225 7.47847e-05 0.000191169)
(0.000188046 7.96452e-06 -9.70612e-06 0.000189313 6.91448e-05 0.000189082)
(0.00018548 7.10062e-06 -9.84156e-06 0.000187669 6.38936e-05 0.000186492)
(0.000182954 7.39789e-06 -9.78444e-06 0.000186095 6.3538e-05 0.000183935)
(0.000180703 7.92432e-06 -9.67635e-06 0.000183785 6.32571e-05 0.000181662)
(0.000178463 8.12564e-06 -9.53493e-06 0.000181068 6.13619e-05 0.000179459)
(0.000176014 8.17929e-06 -9.38013e-06 0.000178319 5.85746e-05 0.000177141)
(0.000173396 8.23603e-06 -9.21952e-06 0.000175498 5.53099e-05 0.000174744)
(0.000170718 8.27704e-06 -9.04884e-06 0.000172595 5.16119e-05 0.000172264)
(0.000168037 8.29764e-06 -8.85423e-06 0.000169735 4.76223e-05 0.000169669)
(0.00016539 8.33336e-06 -8.60869e-06 0.000166967 4.35397e-05 0.000167024)
(0.000162823 8.39683e-06 -8.25981e-06 0.000164302 3.94448e-05 0.000164423)
(0.000160377 8.46593e-06 -7.76596e-06 0.000161771 3.53222e-05 0.000161933)
(0.000158098 8.511e-06 -7.24766e-06 0.000159424 3.11964e-05 0.000159593)
(0.000156034 8.50696e-06 -6.86793e-06 0.000157294 2.7119e-05 0.000157433)
(0.00015422 8.45032e-06 -6.59219e-06 0.000155404 2.31261e-05 0.000155492)
(0.000152678 8.37e-06 -6.31225e-06 0.000153775 1.92342e-05 0.000153806)
(0.000151427 8.29419e-06 -5.98948e-06 0.000152429 1.54341e-05 0.000152393)
(0.000150483 8.22557e-06 -5.6355e-06 0.000151386 1.17291e-05 0.000151267)
(0.000149857 8.15164e-06 -5.26598e-06 0.000150657 8.12823e-06 0.00015044)
(0.000149559 8.06453e-06 -4.88878e-06 0.000150247 4.64005e-06 0.00014992)
(0.000149592 7.96521e-06 -4.51064e-06 0.000150162 1.25968e-06 0.000149715)
(0.000149953 7.85462e-06 -4.13242e-06 0.000150412 -2.05328e-06 0.000149825)
(0.000150633 7.72736e-06 -3.74624e-06 0.000151007 -5.36324e-06 0.000150252)
(0.000151594 7.61128e-06 -3.34441e-06 0.000151997 -8.19971e-06 0.000150967)
(0.000152842 7.65838e-06 -2.91914e-06 0.000153335 -9.11965e-06 0.000151984)
(0.000154674 7.91803e-06 -2.44059e-06 0.000154395 -9.85301e-06 0.000153597)
(0.000156955 7.70179e-06 -1.78919e-06 0.000155612 -1.91386e-05 0.000155688)
(0.000158577 6.56714e-06 -1.01982e-06 0.000158624 -3.14114e-05 0.000157683)
(0.000159972 5.55562e-06 -1.40832e-07 0.000161564 -3.80256e-05 0.000159489)
(1.40994e-06 0 0 1.40994e-06 0 1.40994e-06)
(9.01759e-07 -2.04424e-10 -2.17861e-12 9.01768e-07 6.40162e-09 9.01758e-07)
(8.21584e-07 -1.65442e-09 -2.82362e-11 8.21846e-07 3.88518e-08 8.21594e-07)
(2.66342e-06 -1.04181e-08 -2.77086e-10 2.66263e-06 2.49236e-07 2.66357e-06)
(6.95163e-06 -4.00404e-08 -1.56792e-09 6.95874e-06 1.0157e-06 6.95256e-06)
(1.45651e-05 -1.111e-07 -5.99115e-09 1.45787e-05 2.96448e-06 1.45687e-05)
(2.60755e-05 -2.43577e-07 -1.72884e-08 2.61096e-05 6.81079e-06 2.60857e-05)
(4.155e-05 -4.44858e-07 -4.05084e-08 4.16369e-05 1.30761e-05 4.15737e-05)
(6.04883e-05 -7.03061e-07 -8.09634e-08 6.06562e-05 2.18345e-05 6.05353e-05)
(8.18936e-05 -9.89071e-07 -1.42971e-07 8.21836e-05 3.26369e-05 8.19761e-05)
(0.000104515 -1.26567e-06 -2.28986e-07 0.000104969 4.4666e-05 0.000104646)
(0.000127127 -1.49852e-06 -3.39786e-07 0.000127785 5.69249e-05 0.000127318)
(0.00014875 -1.65598e-06 -4.73475e-07 0.000149632 6.83432e-05 0.000149009)
(0.000168738 -1.71744e-06 -6.22613e-07 0.000169868 7.82665e-05 0.000169071)
(0.00018677 -1.6992e-06 -7.85128e-07 0.000188186 8.68997e-05 0.000187184)
(0.000202748 -1.62722e-06 -9.63267e-07 0.000204482 9.45017e-05 0.000203249)
(0.000216681 -1.51293e-06 -1.15584e-06 0.000218762 0.000101067 0.000217276)
(0.000228646 -1.36569e-06 -1.36262e-06 0.000231102 0.000106696 0.000229342)
(0.000238764 -1.19234e-06 -1.58308e-06 0.000241625 0.00011147 0.00023957)
(0.000247189 -1.00279e-06 -1.81672e-06 0.000250483 0.000115461 0.000248112)
(0.00025409 -8.10072e-07 -2.06345e-06 0.000257837 0.000118741 0.00025514)
(0.000259645 -6.22503e-07 -2.32363e-06 0.000263852 0.000121392 0.000260828)
(0.000264026 -4.38505e-07 -2.5969e-06 0.000268693 0.000123486 0.000265349)
(0.000267402 -2.42925e-07 -2.87623e-06 0.00027252 0.000124953 0.000268866)
(0.000269924 -1.36772e-08 -3.15225e-06 0.000275472 0.000125768 0.000271527)
(0.000271714 2.51909e-07 -3.42781e-06 0.000277669 0.000126206 0.000273454)
(0.00027287 5.37246e-07 -3.70861e-06 0.000279214 0.000126467 0.000274745)
(0.00027347 8.25972e-07 -3.99378e-06 0.000280195 0.000126513 0.000275477)
(0.00027358 1.10698e-06 -4.28086e-06 0.000280684 0.00012632 0.000275718)
(0.00027326 1.37344e-06 -4.56631e-06 0.000280722 0.000125928 0.000275528)
(0.000272557 1.61913e-06 -4.84727e-06 0.000280339 0.000125378 0.000274959)
(0.000271508 1.84281e-06 -5.12322e-06 0.000279557 0.000124682 0.000274049)
(0.000270136 2.05302e-06 -5.39579e-06 0.000278406 0.000123848 0.000272824)
(0.000268458 2.26164e-06 -5.66653e-06 0.000276926 0.000122877 0.000271298)
(0.000266489 2.47494e-06 -5.93446e-06 0.000275158 0.000121771 0.000269487)
(0.000264261 2.68952e-06 -6.19692e-06 0.000273116 0.000120501 0.000267416)
(0.000261815 2.89227e-06 -6.4473e-06 0.000270805 0.000118983 0.000265115)
(0.000259179 3.07821e-06 -6.68383e-06 0.000268246 0.000117263 0.000262609)
(0.000256369 3.25541e-06 -6.90974e-06 0.000265481 0.000115435 0.000259914)
(0.000253404 3.43498e-06 -7.12482e-06 0.000262544 0.000113498 0.000257049)
(0.000250318 3.62583e-06 -7.32762e-06 0.000259432 0.000111447 0.000254049)
(0.000247144 3.83743e-06 -7.51297e-06 0.00025614 0.00010926 0.000250953)
(0.000243878 4.08632e-06 -7.67586e-06 0.000252743 0.000106877 0.000247755)
(0.000240515 4.37712e-06 -7.81922e-06 0.000249321 0.000104296 0.000244448)
(0.000237098 4.69714e-06 -7.94998e-06 0.000245863 0.000101621 0.000241073)
(0.000233687 5.02255e-06 -8.0698e-06 0.000242316 9.89864e-05 0.000237693)
(0.000230308 5.32258e-06 -8.1758e-06 0.00023868 9.64246e-05 0.000234342)
(0.000226943 5.5808e-06 -8.26561e-06 0.000235044 9.38564e-05 0.000231007)
(0.000223585 5.80112e-06 -8.33885e-06 0.00023149 9.12621e-05 0.00022767)
(0.000220503 6.04134e-06 -8.3979e-06 0.000227552 8.87006e-05 0.00022457)
(0.000217844 6.59472e-06 -8.44688e-06 0.000222939 8.58417e-05 0.000221864)
(0.000214642 7.72181e-06 -8.49262e-06 0.000219521 8.14845e-05 0.000218612)
(0.000209935 8.81876e-06 -8.53287e-06 0.000219194 7.52273e-05 0.000213831)
(0.000205223 8.80718e-06 -8.51464e-06 0.000218821 7.16805e-05 0.000208994)
(0.000203695 6.94642e-06 -7.77542e-06 0.00021127 7.33149e-05 0.000207409)
(0.000202996 5.0436e-06 -6.70327e-06 0.000199909 8.12208e-05 0.000206747)
(0.000198272 4.05735e-06 -6.99165e-06 0.000194093 8.60376e-05 0.000201205)
(0.000189786 4.23616e-06 -8.34605e-06 0.000192085 8.16838e-05 0.000191862)
(0.000181312 6.26979e-06 -8.91367e-06 0.000187252 7.36053e-05 0.000183845)
(0.000175445 8.36567e-06 -8.60409e-06 0.000178016 6.2089e-05 0.000178868)
(0.000170108 8.84157e-06 -8.4292e-06 0.000169952 4.99587e-05 0.000173917)
(0.000164101 8.4005e-06 -8.42974e-06 0.000165394 4.09028e-05 0.000167868)
(0.00015891 8.39473e-06 -8.41864e-06 0.000161018 3.48151e-05 0.00016264)
(0.000154715 8.64906e-06 -8.39692e-06 0.000156499 2.92279e-05 0.000158423)
(0.000151114 8.9411e-06 -8.3598e-06 0.000152743 2.36155e-05 0.00015481)
(0.000148175 9.31688e-06 -8.31365e-06 0.000149711 1.80699e-05 0.000151854)
(0.000145952 9.80546e-06 -8.27458e-06 0.000147291 1.26481e-05 0.000149604)
(0.000144413 1.03535e-05 -8.22879e-06 0.000145469 7.37335e-06 0.000148042)
(0.000143498 1.08454e-05 -8.06358e-06 0.00014428 2.23361e-06 0.00014711)
(0.000143163 1.12579e-05 -7.62183e-06 0.000143753 -2.78759e-06 0.000146732)
(0.000143371 1.16122e-05 -7.01833e-06 0.000143868 -7.68411e-06 0.000146869)
(0.000144088 1.19156e-05 -6.49811e-06 0.000144558 -1.24339e-05 0.000147522)
(0.000145325 1.22317e-05 -6.09328e-06 0.000145697 -1.70187e-05 0.000148695)
(0.000147086 1.25949e-05 -5.73795e-06 0.000147199 -2.13842e-05 0.000150371)
(0.000149362 1.29687e-05 -5.38365e-06 0.000149005 -2.53805e-05 0.000152536)
(0.000151757 1.32346e-05 -5.01763e-06 0.000151882 -2.95656e-05 0.000154797)
(0.00015407 1.36504e-05 -4.64526e-06 0.000156321 -3.5783e-05 0.000156918)
(0.000157786 1.47669e-05 -4.25998e-06 0.000159237 -4.16818e-05 0.00016043)
(0.000162714 1.61086e-05 -3.71807e-06 0.000160385 -4.5152e-05 0.000165287)
(0.000166284 1.64633e-05 -2.87563e-06 0.000164127 -4.81717e-05 0.00016878)
)
