-0.0075 	0 	0 	0
-0.0075 	1.96143e-34 	-6.19074e-36 	-8.13864e-33
-0.00745622 	0.000257791 	-8.1365e-06 	-0.0106966
-0.00745622 	0.000257791 	-8.1365e-06 	-0.0106966
-0.00741165 	0.000182621 	-1.55469e-05 	-0.021418
-0.00741165 	0.000182621 	-1.55469e-05 	-0.021418
-0.00736628 	-0.000156738 	-2.30874e-05 	-0.0321317
-0.00736628 	-0.000156738 	-2.30874e-05 	-0.0321317
-0.0073201 	-0.00052788 	-2.81418e-05 	-0.0427902
-0.0073201 	-0.00052788 	-2.81418e-05 	-0.0427902
-0.00727309 	-0.0008571 	-3.35835e-05 	-0.0533785
-0.00727309 	-0.0008571 	-3.35835e-05 	-0.0533785
-0.00722524 	-0.00115839 	-3.89651e-05 	-0.0638218
-0.00722524 	-0.00115839 	-3.89651e-05 	-0.0638218
-0.00717653 	-0.00143677 	-4.4581e-05 	-0.0740197
-0.00717653 	-0.00143677 	-4.4581e-05 	-0.0740197
-0.00712695 	-0.00169275 	-5.04149e-05 	-0.0838798
-0.00712695 	-0.00169275 	-5.04149e-05 	-0.0838798
-0.00707647 	-0.00192443 	-5.59169e-05 	-0.0933235
-0.00707647 	-0.00192443 	-5.59169e-05 	-0.0933235
-0.0070251 	-0.00212849 	-6.08293e-05 	-0.102297
-0.0070251 	-0.00212849 	-6.08293e-05 	-0.102297
-0.0069728 	-0.00230233 	-6.61154e-05 	-0.110777
-0.0069728 	-0.00230233 	-6.61154e-05 	-0.110777
-0.00691956 	-0.00244639 	-7.20546e-05 	-0.118771
-0.00691956 	-0.00244639 	-7.20546e-05 	-0.118771
-0.00686537 	-0.00256349 	-7.76177e-05 	-0.126309
-0.00686537 	-0.00256349 	-7.76177e-05 	-0.126309
-0.00681021 	-0.0026571 	-8.19678e-05 	-0.133425
-0.00681021 	-0.0026571 	-8.19678e-05 	-0.133425
-0.00675406 	-0.00272982 	-8.53742e-05 	-0.140151
-0.00675406 	-0.00272982 	-8.53742e-05 	-0.140151
-0.0066969 	-0.00278299 	-8.85461e-05 	-0.146511
-0.0066969 	-0.00278299 	-8.85461e-05 	-0.146511
-0.00663871 	-0.00281764 	-9.13757e-05 	-0.15253
-0.00663871 	-0.00281764 	-9.13757e-05 	-0.15253
-0.00657949 	-0.00283498 	-9.37223e-05 	-0.15823
-0.00657949 	-0.00283498 	-9.37223e-05 	-0.15823
-0.0065192 	-0.00283626 	-9.58252e-05 	-0.163635
-0.0065192 	-0.00283626 	-9.58252e-05 	-0.163635
-0.00645783 	-0.00282284 	-9.74938e-05 	-0.168774
-0.00645783 	-0.00282284 	-9.74938e-05 	-0.168774
-0.00639535 	-0.00279599 	-9.789e-05 	-0.17367
-0.00639535 	-0.00279599 	-9.789e-05 	-0.17367
-0.00633176 	-0.00275653 	-9.62415e-05 	-0.178333
-0.00633176 	-0.00275653 	-9.62415e-05 	-0.178333
-0.00626703 	-0.00270459 	-9.27071e-05 	-0.182749
-0.00626703 	-0.00270459 	-9.27071e-05 	-0.182749
-0.00620114 	-0.00263981 	-9.01345e-05 	-0.1869
-0.00620114 	-0.00263981 	-9.01345e-05 	-0.1869
-0.00613406 	-0.00256198 	-9.17276e-05 	-0.19079
-0.00613406 	-0.00256198 	-9.17276e-05 	-0.19079
-0.00606579 	-0.00247261 	-9.6514e-05 	-0.194446
-0.00606579 	-0.00247261 	-9.6514e-05 	-0.194446
-0.00599629 	-0.00237548 	-0.000105558 	-0.197908
-0.00599629 	-0.00237548 	-0.000105558 	-0.197908
-0.00592554 	-0.002275 	-0.000117034 	-0.201217
-0.00592554 	-0.002275 	-0.000117034 	-0.201217
-0.00585352 	-0.00217479 	-0.000115406 	-0.204421
-0.00585352 	-0.00217479 	-0.000115406 	-0.204421
-0.00578022 	-0.00207411 	-8.89923e-05 	-0.207562
-0.00578022 	-0.00207411 	-8.89923e-05 	-0.207562
-0.00570559 	-0.00196384 	-5.29907e-05 	-0.210648
-0.00570559 	-0.00196384 	-5.29907e-05 	-0.210648
-0.00562963 	-0.00183295 	-5.2974e-05 	-0.213623
-0.00562963 	-0.00183295 	-5.2974e-05 	-0.213623
-0.00555231 	-0.00168509 	-0.000105323 	-0.216415
-0.00555231 	-0.00168509 	-0.000105323 	-0.216415
-0.0054736 	-0.00154248 	-0.000146392 	-0.219007
-0.0054736 	-0.00154248 	-0.000146392 	-0.219007
-0.00539348 	-0.00142263 	-0.000144077 	-0.221443
-0.00539348 	-0.00142263 	-0.000144077 	-0.221443
-0.00531193 	-0.00132417 	-0.000145273 	-0.223784
-0.00531193 	-0.00132417 	-0.000145273 	-0.223784
-0.00522891 	-0.00124113 	-0.000123771 	-0.226103
-0.00522891 	-0.00124113 	-0.000123771 	-0.226103
-0.0051444 	-0.00115365 	-2.89918e-05 	-0.228473
-0.0051444 	-0.00115365 	-2.89918e-05 	-0.228473
-0.00505838 	-0.00101569 	5.50417e-05 	-0.23091
-0.00505838 	-0.00101569 	5.50417e-05 	-0.23091
-0.00497081 	-0.000795076 	-1.08634e-05 	-0.233378
-0.00497081 	-0.000795076 	-1.08634e-05 	-0.233378
-0.00488168 	-0.00051387 	-0.000239007 	-0.235902
-0.00488168 	-0.00051387 	-0.000239007 	-0.235902
-0.00479094 	-0.000249319 	-0.000386776 	-0.238435
-0.00479094 	-0.000249319 	-0.000386776 	-0.238435
-0.00469858 	-6.9454e-05 	-0.000262471 	-0.240749
-0.00469858 	-6.9454e-05 	-0.000262471 	-0.240749
-0.00460456 	3.55591e-05 	-9.48309e-05 	-0.242742
-0.00460456 	3.55591e-05 	-9.48309e-05 	-0.242742
-0.00450886 	0.000107899 	-0.000114491 	-0.244564
-0.00450886 	0.000107899 	-0.000114491 	-0.244564
-0.00441144 	0.000157578 	-0.000221196 	-0.24644
-0.00441144 	0.000157578 	-0.000221196 	-0.24644
-0.00431227 	0.000178805 	-0.000194094 	-0.248544
-0.00431227 	0.000178805 	-0.000194094 	-0.248544
-0.00421133 	0.000201005 	-1.84139e-06 	-0.250912
-0.00421133 	0.000201005 	-1.84139e-06 	-0.250912
-0.00410857 	0.000299923 	9.11034e-06 	-0.253256
-0.00410857 	0.000299923 	9.11034e-06 	-0.253256
-0.00400397 	0.000489856 	-0.000251941 	-0.255257
-0.00400397 	0.000489856 	-0.000251941 	-0.255257
-0.0038975 	0.000689162 	-0.000433416 	-0.256947
-0.0038975 	0.000689162 	-0.000433416 	-0.256947
-0.00378912 	0.000831494 	-0.000386643 	-0.258449
-0.00378912 	0.000831494 	-0.000386643 	-0.258449
-0.00367879 	0.00091023 	-0.000255882 	-0.259813
-0.00367879 	0.00091023 	-0.000255882 	-0.259813
-0.00356649 	0.000955911 	-0.000234375 	-0.261151
-0.00356649 	0.000955911 	-0.000234375 	-0.261151
-0.00345217 	0.000998718 	-0.000305796 	-0.262926
-0.00345217 	0.000998718 	-0.000305796 	-0.262926
-0.0033358 	0.00105486 	-0.000329583 	-0.265736
-0.0033358 	0.00105486 	-0.000329583 	-0.265736
-0.00321735 	0.00112695 	-0.000267828 	-0.269005
-0.00321735 	0.00112695 	-0.000267828 	-0.269005
-0.00309677 	0.00121753 	-0.000198045 	-0.271844
-0.00309677 	0.00121753 	-0.000198045 	-0.271844
-0.00297403 	0.0013124 	-0.000295616 	-0.274472
-0.00297403 	0.0013124 	-0.000295616 	-0.274472
-0.00284909 	0.001375 	-0.000624862 	-0.277407
-0.00284909 	0.001375 	-0.000624862 	-0.277407
-0.0027219 	0.0013981 	-0.000809428 	-0.280176
-0.0027219 	0.0013981 	-0.000809428 	-0.280176
-0.00259244 	0.00136465 	-0.000645634 	-0.282112
-0.00259244 	0.00136465 	-0.000645634 	-0.282112
-0.00246065 	0.00122433 	-0.000377568 	-0.283775
-0.00246065 	0.00122433 	-0.000377568 	-0.283775
-0.00232651 	0.000945192 	-0.000115768 	-0.285959
-0.00232651 	0.000945192 	-0.000115768 	-0.285959
-0.00218995 	0.000656738 	-8.67179e-05 	-0.288415
-0.00218995 	0.000656738 	-8.67179e-05 	-0.288415
-0.00205095 	0.000579524 	-0.000380709 	-0.290255
-0.00205095 	0.000579524 	-0.000380709 	-0.290255
-0.00190946 	0.00068083 	-0.000638793 	-0.291427
-0.00190946 	0.00068083 	-0.000638793 	-0.291427
-0.00176543 	0.000778869 	-0.00067129 	-0.29247
-0.00176543 	0.000778869 	-0.00067129 	-0.29247
-0.00161881 	0.000805633 	-0.000599428 	-0.293588
-0.00161881 	0.000805633 	-0.000599428 	-0.293588
-0.00146957 	0.000779638 	-0.000556257 	-0.294722
-0.00146957 	0.000779638 	-0.000556257 	-0.294722
-0.00131765 	0.000733608 	-0.000557823 	-0.295784
-0.00131765 	0.000733608 	-0.000557823 	-0.295784
-0.001163 	0.000677468 	-0.000563741 	-0.296731
-0.001163 	0.000677468 	-0.000563741 	-0.296731
-0.00100559 	0.000609339 	-0.000564458 	-0.297544
-0.00100559 	0.000609339 	-0.000564458 	-0.297544
-0.000845345 	0.0005272 	-0.000554779 	-0.298208
-0.000845345 	0.0005272 	-0.000554779 	-0.298208
-0.000682232 	0.000429396 	-0.000539817 	-0.298711
-0.000682232 	0.000429396 	-0.000539817 	-0.298711
-0.000516194 	0.000314763 	-0.000529793 	-0.299037
-0.000516194 	0.000314763 	-0.000529793 	-0.299037
-0.000347178 	0.000182332 	-0.000511814 	-0.299166
-0.000347178 	0.000182332 	-0.000511814 	-0.299166
-0.000175132 	3.37212e-05 	-0.000506097 	-0.299078
-0.000175132 	3.37212e-05 	-0.000506097 	-0.299078
0 	-0.000123094 	-0.000503217 	-0.298763
0 	-0.000123094 	-0.000503217 	-0.298763
0 	-0.000123094 	-0.000503217 	-0.298763
0 	-0.000123094 	-0.000503217 	-0.298763
0.000175132 	-0.000280332 	-0.000484752 	-0.298231
0.000175132 	-0.000350435 	-0.000462798 	-0.28023
0.000347178 	-0.000446832 	-0.000456874 	-0.297456
0.000347178 	-0.000464612 	-0.00048633 	-0.280265
0.000516194 	-0.000627449 	-0.000396177 	-0.296246
0.000516194 	-0.000589979 	-0.00047212 	-0.28012
0.000682232 	-0.000807112 	-0.000368435 	-0.294269
0.000682232 	-0.000730481 	-0.00043277 	-0.279769
0.000845345 	-0.00101525 	-0.000421118 	-0.291522
0.000845345 	-0.000884292 	-0.000383896 	-0.279236
0.00100559 	-0.00130558 	-0.000477129 	-0.28915
0.00100559 	-0.00105725 	-0.00031729 	-0.278552
0.001163 	-0.001631 	-0.000519732 	-0.287818
0.001163 	-0.0012625 	-0.000228792 	-0.277742
0.00131765 	-0.00191608 	-0.000443068 	-0.286864
0.00131765 	-0.00150827 	-0.000126352 	-0.27683
0.00146957 	-0.00213489 	-5.72442e-05 	-0.2857
0.00146957 	-0.00178892 	-3.81464e-06 	-0.275874
0.00161881 	-0.002208 	0.00030429 	-0.283745
0.00161881 	-0.00209286 	0.00013219 	-0.2749
0.00176543 	-0.00208858 	0.000138018 	-0.280782
0.00176543 	-0.00243316 	0.000210544 	-0.273496
0.00190946 	-0.00191653 	-0.00024017 	-0.277514
0.00190946 	-0.00287401 	0.000312322 	-0.270676
0.00205095 	-0.00183127 	-0.000296964 	-0.274446
0.00205095 	-0.0034855 	0.000674061 	-0.26532
0.00218995 	-0.0018101 	-9.80968e-05 	-0.271518
0.00218995 	-0.00413679 	0.00120732 	-0.257997
0.00232651 	-0.00175272 	6.3375e-05 	-0.269038
0.00232651 	-0.00440943 	0.00143904 	-0.252382
0.00246065 	-0.00160686 	9.16086e-05 	-0.267179
0.00246065 	-0.00415461 	0.00132376 	-0.25037
0.00259244 	-0.00140268 	8.08013e-05 	-0.265571
0.00259244 	-0.00367052 	0.00129495 	-0.250131
0.0027219 	-0.00117525 	0.000113772 	-0.263916
0.0027219 	-0.00322349 	0.00150255 	-0.249956
0.00284909 	-0.000916133 	0.000195763 	-0.262133
0.00284909 	-0.00287016 	0.0017627 	-0.248984
0.00297403 	-0.000562752 	0.000267938 	-0.260125
0.00297403 	-0.0024937 	0.00194334 	-0.247358
0.00309677 	-3.79432e-05 	0.000272121 	-0.257665
0.00309677 	-0.00195143 	0.00210282 	-0.245895
0.00321735 	0.000698468 	0.000195473 	-0.254583
0.00321735 	-0.00117713 	0.00230088 	-0.245013
0.0033358 	0.00144744 	0.000146348 	-0.251436
0.0033358 	-0.000339248 	0.00244308 	-0.244281
0.00345217 	0.00190649 	0.000214446 	-0.249011
0.00345217 	0.000240317 	0.00242959 	-0.242923
0.00356649 	0.00208981 	0.000294582 	-0.247185
0.00356649 	0.000518196 	0.00235416 	-0.240939
0.00367879 	0.00218793 	0.000308526 	-0.245434
0.00367879 	0.0006819 	0.00232252 	-0.238816
0.00378912 	0.000857031 	0.00233745 	-0.236796
0.00378912 	0.00229751 	0.000275476 	-0.243561
0.0038975 	0.00241783 	0.000223017 	-0.241611
0.0038975 	0.00106152 	0.00236009 	-0.234847
0.00400397 	0.00252075 	0.000210152 	-0.239661
0.00400397 	0.00126696 	0.00235137 	-0.232906
0.00410857 	0.0026218 	0.000250669 	-0.237692
0.00410857 	0.00146028 	0.00233807 	-0.231025
0.00421133 	0.00278915 	0.000261136 	-0.235562
0.00421133 	0.00165288 	0.0023154 	-0.229353
0.00431227 	0.00307297 	0.000194335 	-0.233072
0.00431227 	0.00188721 	0.0022494 	-0.228016
0.00441144 	0.00343789 	8.61848e-05 	-0.230217
0.00441144 	0.00222963 	0.002197 	-0.226909
0.00450886 	0.00370391 	4.68615e-05 	-0.227534
0.00450886 	0.00270258 	0.00219273 	-0.225763
0.00460456 	0.00374716 	0.000106962 	-0.225415
0.00460456 	0.00324249 	0.0022066 	-0.224498
0.00469858 	0.00366922 	0.000153363 	-0.223543
0.00469858 	0.00366132 	0.00215057 	-0.222885
0.00479094 	0.00360093 	0.000126388 	-0.221569
0.00479094 	0.00383879 	0.0019949 	-0.220711
0.00488168 	0.00357496 	6.61187e-05 	-0.219444
0.00488168 	0.00389676 	0.00185011 	-0.218262
0.00497081 	0.00356369 	3.16454e-05 	-0.217238
0.00497081 	0.00398815 	0.00177571 	-0.215847
0.00505838 	0.00354533 	1.87538e-05 	-0.214986
0.00505838 	0.00414608 	0.0017343 	-0.213527
0.0051444 	0.00351699 	3.93274e-06 	-0.212685
0.0051444 	0.00433387 	0.00167347 	-0.211253
0.00522891 	0.00348024 	-1.36008e-05 	-0.21033
0.00522891 	0.00452401 	0.00159027 	-0.209015
0.00531193 	0.00471226 	0.0015065 	-0.206823
0.00531193 	0.00343627 	-3.21442e-05 	-0.207913
0.00539348 	0.00338572 	-5.02627e-05 	-0.20543
0.00539348 	0.00489765 	0.00142469 	-0.204623
0.0054736 	0.00332894 	-6.73001e-05 	-0.202873
0.0054736 	0.00507764 	0.00134229 	-0.202311
0.00555231 	0.00326607 	-8.28738e-05 	-0.200233
0.00555231 	0.0052514 	0.00125984 	-0.199845
0.00562963 	0.00319693 	-9.67077e-05 	-0.197501
0.00562963 	0.00541964 	0.00117774 	-0.197258
0.00570559 	0.00312093 	-0.000109067 	-0.194666
0.00570559 	0.00558299 	0.00109615 	-0.194593
0.00578022 	0.00303714 	-0.000120368 	-0.191718
0.00578022 	0.00574138 	0.00101511 	-0.191871
0.00585352 	0.00294464 	-0.000131362 	-0.188645
0.00585352 	0.00589439 	0.000934689 	-0.189086
0.00592554 	0.00284296 	-0.000141171 	-0.185432
0.00592554 	0.00604167 	0.000855089 	-0.186229
0.00599629 	0.00273005 	-0.000147626 	-0.182064
0.00599629 	0.00618333 	0.000776752 	-0.183291
0.00606579 	0.00632021 	0.000700212 	-0.18026
0.00606579 	0.00260106 	-0.00015168 	-0.178522
0.00613406 	0.00245374 	-0.000156017 	-0.17478
0.00613406 	0.00645373 	0.000625869 	-0.177117
0.00620114 	0.00229383 	-0.000162271 	-0.170805
0.00620114 	0.00658559 	0.000553904 	-0.173836
0.00626703 	0.00213594 	-0.000168633 	-0.166556
0.00626703 	0.0067171 	0.000484375 	-0.170388
0.00633176 	0.00199777 	-0.000171181 	-0.161998
0.00633176 	0.00684883 	0.000417418 	-0.16674
0.00639535 	0.00188956 	-0.000169483 	-0.157101
0.00639535 	0.00698023 	0.00035321 	-0.162859
0.00645783 	0.00181056 	-0.000165479 	-0.151846
0.00645783 	0.00710922 	0.000292071 	-0.158705
0.0065192 	0.00175351 	-0.000160828 	-0.146212
0.0065192 	0.00723154 	0.000234534 	-0.154229
0.00657949 	0.00170949 	-0.000155881 	-0.140182
0.00657949 	0.00733966 	0.000179475 	-0.149377
0.00663871 	0.00166761 	-0.000150408 	-0.133743
0.00663871 	0.00742126 	0.000126074 	-0.144103
0.0066969 	0.0016142 	-0.000144926 	-0.126889
0.0066969 	0.00745957 	7.68043e-05 	-0.138377
0.00675406 	0.00153906 	-0.000139045 	-0.119616
0.00675406 	0.00743751 	3.36016e-05 	-0.132137
0.00681021 	0.00143967 	-0.000131356 	-0.111912
0.00681021 	0.00734267 	-3.08014e-06 	-0.125282
0.00686537 	0.00132235 	-0.000121339 	-0.10378
0.00686537 	0.00716926 	-3.46816e-05 	-0.11773
0.00691956 	0.00120027 	-0.000110612 	-0.0952625
0.00691956 	0.0069162 	-6.27627e-05 	-0.109442
0.0069728 	0.0010856 	-0.000100519 	-0.0864486
0.0069728 	0.00658514 	-8.55531e-05 	-0.100448
0.0070251 	0.000986446 	-9.04331e-05 	-0.0774688
0.0070251 	0.00618149 	-0.00010203 	-0.0908677
0.00707647 	0.000906142 	-8.0089e-05 	-0.0684768
0.00707647 	0.00571499 	-0.00011251 	-0.0809019
0.00712695 	0.000840481 	-6.97561e-05 	-0.0596236
0.00712695 	0.00519768 	-0.000116762 	-0.0708004
0.00717653 	0.000776458 	-5.94184e-05 	-0.0510306
0.00717653 	0.00464135 	-0.000114717 	-0.0608225
0.00722524 	0.000692236 	-4.90457e-05 	-0.0427761
0.00722524 	0.00405527 	-0.000104846 	-0.0512064
0.00727309 	0.00055581 	-3.88492e-05 	-0.0349
0.00727309 	0.0034446 	-8.96067e-05 	-0.0421754
0.0073201 	0.000318979 	-2.96097e-05 	-0.027421
0.0073201 	0.00280881 	-7.76196e-05 	-0.0339867
0.00736628 	-9.61835e-05 	-1.76801e-05 	-0.0203352
0.00736628 	0.00213871 	-3.13508e-05 	-0.026995
0.00741165 	-0.000563164 	-9.75224e-06 	-0.0135309
0.00741165 	0.00142403 	-2.77218e-05 	-0.0204224
0.00745622 	-0.000617208 	-4.44273e-06 	-0.00679708
0.00745622 	0.000688817 	-1.46119e-05 	-0.0118138
0.0075 	0 	0 	0
0.0075 	0 	0 	0
