0 	0 	0 	0
0 	-1.57585e-35 	-1.35322e-36 	1.86019e-31
5.01672e-05 	-1.38435e-06 	-1.7321e-07 	0.0173521
5.01672e-05 	-1.38435e-06 	-1.7321e-07 	0.0173521
0.000100334 	-2.04353e-06 	-7.54012e-07 	0.0333723
0.000150502 	-2.57197e-06 	-1.77361e-06 	0.0482216
0.000150502 	-2.57197e-06 	-1.77361e-06 	0.0482216
0.000200669 	-3.14594e-06 	-3.24013e-06 	0.0619902
0.000200669 	-3.14594e-06 	-3.24013e-06 	0.0619902
0.000250836 	-3.70822e-06 	-5.13025e-06 	0.0747614
0.000301003 	-4.21144e-06 	-7.43497e-06 	0.0866051
0.000301003 	-4.21144e-06 	-7.43497e-06 	0.0866051
0.000351171 	-4.64269e-06 	-1.01478e-05 	0.097569
0.000401338 	-5.00092e-06 	-1.32762e-05 	0.107678
0.000451505 	-5.28977e-06 	-1.68452e-05 	0.116948
0.000451505 	-5.28977e-06 	-1.68452e-05 	0.116948
0.000501672 	-5.51502e-06 	-2.08927e-05 	0.125408
0.000551839 	-5.68333e-06 	-2.54589e-05 	0.133101
0.000551839 	-5.68333e-06 	-2.54589e-05 	0.133101
0.000602007 	-5.80151e-06 	-3.05752e-05 	0.14009
0.000602007 	-5.80151e-06 	-3.05752e-05 	0.14009
0.000652174 	-5.87599e-06 	-3.6263e-05 	0.146442
0.000652174 	-5.87599e-06 	-3.6263e-05 	0.146442
0.000702341 	-5.91262e-06 	-4.25391e-05 	0.152231
0.000702341 	-5.91262e-06 	-4.25391e-05 	0.152231
0.000752508 	-5.91647e-06 	-4.94187e-05 	0.157524
0.000802676 	-5.89149e-06 	-5.69167e-05 	0.162377
0.000852843 	-5.83767e-06 	-6.51321e-05 	0.166784
0.000852843 	-5.83767e-06 	-6.51321e-05 	0.166784
0.00090301 	-5.76274e-06 	-7.39378e-05 	0.170854
0.00090301 	-5.76274e-06 	-7.39378e-05 	0.170854
0.000953177 	-5.66982e-06 	-8.32833e-05 	0.174627
0.00100334 	-5.56162e-06 	-9.31156e-05 	0.17814
0.00100334 	-5.56162e-06 	-9.31156e-05 	0.17814
0.00105351 	-5.44042e-06 	-0.000103384 	0.181423
0.00105351 	-5.44042e-06 	-0.000103384 	0.181423
0.00110368 	-5.30787e-06 	-0.000114051 	0.184499
0.00115385 	-5.16324e-06 	-0.000125161 	0.187348
0.00120401 	-5.01099e-06 	-0.000136559 	0.190045
0.00120401 	-5.01099e-06 	-0.000136559 	0.190045
0.00130435 	-4.68749e-06 	-0.000160075 	0.195048
0.00130435 	-4.68749e-06 	-0.000160075 	0.195048
0.00135452 	-4.51649e-06 	-0.000172182 	0.197345
0.00135452 	-4.51649e-06 	-0.000172182 	0.197345
0.00140468 	-4.341e-06 	-0.000184453 	0.199534
0.00145485 	-4.16233e-06 	-0.000196835 	0.201638
0.00145485 	-4.16233e-06 	-0.000196835 	0.201638
0.00150502 	-3.98092e-06 	-0.000209309 	0.203665
0.00150502 	-3.98092e-06 	-0.000209309 	0.203665
0.00155518 	-3.79619e-06 	-0.000221875 	0.205584
0.00155518 	-3.79619e-06 	-0.000221875 	0.205584
0.00160535 	-3.60973e-06 	-0.000234464 	0.207443
0.00160535 	-3.60973e-06 	-0.000234464 	0.207443
0.00165552 	-3.42174e-06 	-0.000247062 	0.209249
0.00165552 	-3.42174e-06 	-0.000247062 	0.209249
0.00170569 	-3.23166e-06 	-0.000259636 	0.210984
0.00170569 	-3.23166e-06 	-0.000259636 	0.210984
0.00175585 	-3.03988e-06 	-0.00027214 	0.212665
0.00175585 	-3.03988e-06 	-0.00027214 	0.212665
0.00180602 	-2.84693e-06 	-0.000284577 	0.214307
0.00180602 	-2.84693e-06 	-0.000284577 	0.214307
0.00185619 	-2.65237e-06 	-0.000296889 	0.215897
0.00185619 	-2.65237e-06 	-0.000296889 	0.215897
0.00190635 	-2.45653e-06 	-0.000309035 	0.217441
0.00190635 	-2.45653e-06 	-0.000309035 	0.217441
0.00195652 	-2.25992e-06 	-0.000321066 	0.218958
0.00195652 	-2.25992e-06 	-0.000321066 	0.218958
0.00200669 	-2.06208e-06 	-0.000332858 	0.220427
0.00200669 	-2.06208e-06 	-0.000332858 	0.220427
0.00205686 	-1.86349e-06 	-0.000344437 	0.221865
0.00210702 	-1.6644e-06 	-0.000355875 	0.223281
0.00210702 	-1.6644e-06 	-0.000355875 	0.223281
0.00215719 	-1.46433e-06 	-0.000366911 	0.224648
0.00220736 	-1.26394e-06 	-0.000377771 	0.225997
0.00225753 	-1.06305e-06 	-0.000388349 	0.227318
0.00225753 	-1.06305e-06 	-0.000388349 	0.227318
0.00230769 	-8.61685e-07 	-0.000398558 	0.228608
0.00230769 	-8.61685e-07 	-0.000398558 	0.228608
0.00235786 	-6.60116e-07 	-0.000408605 	0.229883
0.00235786 	-6.60116e-07 	-0.000408605 	0.229883
0.00240803 	-4.58029e-07 	-0.000418127 	0.231119
0.00240803 	-4.58029e-07 	-0.000418127 	0.231119
0.00245819 	-2.55787e-07 	-0.000427456 	0.232341
0.00245819 	-2.55787e-07 	-0.000427456 	0.232341
0.00250836 	-5.32297e-08 	-0.00043639 	0.233537
0.00250836 	-5.32297e-08 	-0.00043639 	0.233537
0.00255853 	1.49583e-07 	-0.000444963 	0.234709
0.0026087 	3.52578e-07 	-0.000453277 	0.235865
0.0026087 	3.52578e-07 	-0.000453277 	0.235865
0.00265886 	5.55914e-07 	-0.000461069 	0.23699
0.00270903 	7.59332e-07 	-0.000468735 	0.238108
0.00270903 	7.59332e-07 	-0.000468735 	0.238108
0.0027592 	9.6316e-07 	-0.00047573 	0.239187
0.00280936 	1.16705e-06 	-0.000482616 	0.24026
0.00280936 	1.16705e-06 	-0.000482616 	0.24026
0.00285953 	1.37129e-06 	-0.000488919 	0.241301
0.00285953 	1.37129e-06 	-0.000488919 	0.241301
0.0029097 	1.57565e-06 	-0.000495025 	0.242331
0.0029097 	1.57565e-06 	-0.000495025 	0.242331
0.00295987 	1.78035e-06 	-0.00050063 	0.243334
0.00295987 	1.78035e-06 	-0.00050063 	0.243334
0.00301003 	1.98527e-06 	-0.000505976 	0.244323
0.0030602 	2.19057e-06 	-0.000510892 	0.245288
0.00311037 	2.39627e-06 	-0.000515521 	0.246237
0.00311037 	2.39627e-06 	-0.000515521 	0.246237
0.00316054 	2.60248e-06 	-0.000519774 	0.247165
0.00316054 	2.60248e-06 	-0.000519774 	0.247165
0.00326087 	3.01687e-06 	-0.000527373 	0.248965
0.00326087 	3.01687e-06 	-0.000527373 	0.248965
0.00331104 	3.22517e-06 	-0.00053075 	0.249838
0.0033612 	3.43441e-06 	-0.000533809 	0.250691
0.0033612 	3.43441e-06 	-0.000533809 	0.250691
0.00341137 	3.64425e-06 	-0.000536664 	0.251528
0.00341137 	3.64425e-06 	-0.000536664 	0.251528
0.00346154 	3.855e-06 	-0.000539208 	0.252342
0.00346154 	3.855e-06 	-0.000539208 	0.252342
0.00351171 	4.06601e-06 	-0.000541611 	0.253145
0.00356187 	4.27758e-06 	-0.000543701 	0.253922
0.00356187 	4.27758e-06 	-0.000543701 	0.253922
0.00361204 	4.4892e-06 	-0.000545715 	0.254692
0.00366221 	4.70101e-06 	-0.000547404 	0.255434
0.00366221 	4.70101e-06 	-0.000547404 	0.255434
0.00371237 	4.91283e-06 	-0.000549084 	0.256175
0.00371237 	4.91283e-06 	-0.000549084 	0.256175
0.00376254 	5.12495e-06 	-0.00055042 	0.256885
0.00376254 	5.12495e-06 	-0.00055042 	0.256885
0.00381271 	5.33707e-06 	-0.000551756 	0.257594
0.00381271 	5.33707e-06 	-0.000551756 	0.257594
0.00386288 	5.54978e-06 	-0.000552832 	0.258276
0.00391304 	5.76261e-06 	-0.000553854 	0.258954
0.00391304 	5.76261e-06 	-0.000553854 	0.258954
0.00396321 	5.97589e-06 	-0.000554712 	0.259612
0.00401338 	6.1895e-06 	-0.000555457 	0.260257
0.00401338 	6.1895e-06 	-0.000555457 	0.260257
0.00406355 	6.40319e-06 	-0.000556125 	0.260892
0.00406355 	6.40319e-06 	-0.000556125 	0.260892
0.00411371 	6.6171e-06 	-0.000556628 	0.261504
0.00411371 	6.6171e-06 	-0.000556628 	0.261504
0.00421405 	7.04454e-06 	-0.00055743 	0.262698
0.00421405 	7.04454e-06 	-0.00055743 	0.262698
0.00426421 	7.25808e-06 	-0.000557728 	0.263279
0.00426421 	7.25808e-06 	-0.000557728 	0.263279
0.00431438 	7.47094e-06 	-0.000557919 	0.263838
0.00431438 	7.47094e-06 	-0.000557919 	0.263838
0.00436455 	7.68339e-06 	-0.000558049 	0.264386
0.00436455 	7.68339e-06 	-0.000558049 	0.264386
0.00441472 	7.89543e-06 	-0.000558149 	0.264927
0.00441472 	7.89543e-06 	-0.000558149 	0.264927
0.00446488 	8.10604e-06 	-0.000558148 	0.265442
0.00446488 	8.10604e-06 	-0.000558148 	0.265442
0.00451505 	8.31665e-06 	-0.000558147 	0.265958
0.00451505 	8.31665e-06 	-0.000558147 	0.265958
0.00456522 	8.52516e-06 	-0.000558072 	0.266448
0.00456522 	8.52516e-06 	-0.000558072 	0.266448
0.00461538 	8.73309e-06 	-0.000557977 	0.266931
0.00461538 	8.73309e-06 	-0.000557977 	0.266931
0.00466555 	8.93999e-06 	-0.000557865 	0.267404
0.00471572 	9.14438e-06 	-0.000557711 	0.267854
0.00476589 	9.34877e-06 	-0.000557558 	0.268304
0.00476589 	9.34877e-06 	-0.000557558 	0.268304
0.00486622 	9.74981e-06 	-0.000557207 	0.269146
0.00486622 	9.74981e-06 	-0.000557207 	0.269146
0.00491639 	9.94887e-06 	-0.000557029 	0.269558
0.00496656 	1.01436e-05 	-0.000556855 	0.269942
0.00496656 	1.01436e-05 	-0.000556855 	0.269942
0.00501672 	1.03383e-05 	-0.000556681 	0.270327
0.00506689 	1.05297e-05 	-0.000556523 	0.270693
0.00511706 	1.07183e-05 	-0.000556378 	0.271045
0.00511706 	1.07183e-05 	-0.000556378 	0.271045
0.00521739 	1.10894e-05 	-0.000556131 	0.271721
0.00521739 	1.10894e-05 	-0.000556131 	0.271721
0.00526756 	1.1271e-05 	-0.000556035 	0.27204
0.00526756 	1.1271e-05 	-0.000556035 	0.27204
0.00531773 	1.14514e-05 	-0.000555949 	0.272355
0.00536789 	1.16251e-05 	-0.000555916 	0.272643
0.00536789 	1.16251e-05 	-0.000555916 	0.272643
0.00541806 	1.17988e-05 	-0.000555883 	0.27293
0.00546823 	1.19691e-05 	-0.000555877 	0.273206
0.00551839 	1.21339e-05 	-0.000555915 	0.273461
0.00551839 	1.21339e-05 	-0.000555915 	0.273461
0.00556856 	1.22986e-05 	-0.000555953 	0.273717
0.00556856 	1.22986e-05 	-0.000555953 	0.273717
0.0056689 	1.26122e-05 	-0.000556141 	0.274181
0.0056689 	1.26122e-05 	-0.000556141 	0.274181
0.00571906 	1.27667e-05 	-0.000556251 	0.274406
0.00576923 	1.29132e-05 	-0.000556408 	0.27461
0.00576923 	1.29132e-05 	-0.000556408 	0.27461
0.0058194 	1.30561e-05 	-0.000556585 	0.274805
0.0058194 	1.30561e-05 	-0.000556585 	0.274805
0.00591973 	1.33317e-05 	-0.000556982 	0.275173
0.00591973 	1.33317e-05 	-0.000556982 	0.275173
0.0059699 	1.34614e-05 	-0.000557215 	0.275339
0.0059699 	1.34614e-05 	-0.000557215 	0.275339
0.00602007 	1.35912e-05 	-0.000557448 	0.275505
0.00607023 	1.37093e-05 	-0.000557712 	0.275648
0.0061204 	1.38243e-05 	-0.000557984 	0.275786
0.0061204 	1.38243e-05 	-0.000557984 	0.275786
0.00617057 	1.39394e-05 	-0.000558256 	0.275924
0.00622074 	1.40421e-05 	-0.000558544 	0.276041
0.00622074 	1.40421e-05 	-0.000558544 	0.276041
0.0062709 	1.41411e-05 	-0.000558836 	0.276151
0.00632107 	1.42401e-05 	-0.000559128 	0.276262
0.00632107 	1.42401e-05 	-0.000559128 	0.276262
0.00637124 	1.43269e-05 	-0.000559419 	0.276354
0.00637124 	1.43269e-05 	-0.000559419 	0.276354
0.0064214 	1.44081e-05 	-0.000559709 	0.276439
0.0064214 	1.44081e-05 	-0.000559709 	0.276439
0.00647157 	1.44893e-05 	-0.00056 	0.276523
0.00647157 	1.44893e-05 	-0.00056 	0.276523
0.00652174 	1.45597e-05 	-0.000560287 	0.276593
0.00657191 	1.46211e-05 	-0.000560572 	0.276652
0.00657191 	1.46211e-05 	-0.000560572 	0.276652
0.00662207 	1.46825e-05 	-0.000560856 	0.276711
0.00667224 	1.47361e-05 	-0.000561127 	0.276761
0.00672241 	1.47751e-05 	-0.000561375 	0.276795
0.00672241 	1.47751e-05 	-0.000561375 	0.276795
0.00677258 	1.4814e-05 	-0.000561623 	0.276829
0.00682274 	1.48505e-05 	-0.000561864 	0.27686
0.00682274 	1.48505e-05 	-0.000561864 	0.27686
0.00687291 	1.48641e-05 	-0.000562041 	0.276869
0.00687291 	1.48641e-05 	-0.000562041 	0.276869
0.00692308 	1.48777e-05 	-0.000562218 	0.276878
0.00697324 	1.48914e-05 	-0.000562395 	0.276888
0.00702341 	1.48824e-05 	-0.000562521 	0.276878
0.00707358 	1.48675e-05 	-0.000562632 	0.276862
0.00707358 	1.48675e-05 	-0.000562632 	0.276862
0.00717391 	1.48247e-05 	-0.000562805 	0.276822
0.00717391 	1.48247e-05 	-0.000562805 	0.276822
0.00722408 	1.47794e-05 	-0.000562796 	0.276783
0.00722408 	1.47794e-05 	-0.000562796 	0.276783
0.00727425 	1.47341e-05 	-0.000562787 	0.276743
0.00727425 	1.47341e-05 	-0.000562787 	0.276743
0.00732441 	1.46887e-05 	-0.000562778 	0.276704
0.00732441 	1.46887e-05 	-0.000562778 	0.276704
0.00737458 	1.46134e-05 	-0.00056266 	0.276641
0.00737458 	1.46134e-05 	-0.00056266 	0.276641
0.00742475 	1.45378e-05 	-0.000562541 	0.276578
0.00747492 	1.44622e-05 	-0.000562422 	0.276515
0.00752508 	1.43712e-05 	-0.000562264 	0.27644
0.00752508 	1.43712e-05 	-0.000562264 	0.27644
0.00757525 	1.42649e-05 	-0.000562066 	0.276353
0.00762542 	1.41585e-05 	-0.000561869 	0.276266
0.00767559 	1.40519e-05 	-0.000561671 	0.276178
0.00767559 	1.40519e-05 	-0.000561671 	0.276178
0.00772575 	1.39157e-05 	-0.000561347 	0.276067
0.00777592 	1.37796e-05 	-0.000561023 	0.275956
0.00777592 	1.37796e-05 	-0.000561023 	0.275956
0.00782609 	1.36435e-05 	-0.000560699 	0.275845
0.00787625 	1.34916e-05 	-0.000560321 	0.27572
0.00787625 	1.34916e-05 	-0.000560321 	0.27572
0.00792642 	1.33281e-05 	-0.000559905 	0.275585
0.00797659 	1.31647e-05 	-0.000559488 	0.275451
0.00802676 	1.2996e-05 	-0.00055905 	0.275311
0.00802676 	1.2996e-05 	-0.00055905 	0.275311
0.00807692 	1.28077e-05 	-0.000558533 	0.275153
0.00807692 	1.28077e-05 	-0.000558533 	0.275153
0.00812709 	1.26195e-05 	-0.000558016 	0.274996
0.00817726 	1.24312e-05 	-0.000557499 	0.274838
0.00817726 	1.24312e-05 	-0.000557499 	0.274838
0.00822742 	1.22243e-05 	-0.00055686 	0.27466
0.00827759 	1.20153e-05 	-0.000556207 	0.274479
0.00827759 	1.20153e-05 	-0.000556207 	0.274479
0.00832776 	1.18064e-05 	-0.000555555 	0.274299
0.00832776 	1.18064e-05 	-0.000555555 	0.274299
0.00837793 	1.15865e-05 	-0.000554827 	0.274104
0.00842809 	1.13606e-05 	-0.000554058 	0.2739
0.00842809 	1.13606e-05 	-0.000554058 	0.2739
0.00847826 	1.11348e-05 	-0.00055329 	0.273697
0.00847826 	1.11348e-05 	-0.00055329 	0.273697
0.0085786 	1.06632e-05 	-0.000551585 	0.273258
0.0085786 	1.06632e-05 	-0.000551585 	0.273258
0.00862876 	1.04237e-05 	-0.000550702 	0.273032
0.00867893 	1.01807e-05 	-0.000549783 	0.272799
0.0087291 	9.93041e-06 	-0.000548786 	0.272551
0.00877926 	9.68008e-06 	-0.000547789 	0.272303
0.00882943 	9.42781e-06 	-0.000546766 	0.272049
0.0088796 	9.16918e-06 	-0.000545658 	0.271778
0.0088796 	9.16918e-06 	-0.000545658 	0.271778
0.00892977 	8.91056e-06 	-0.00054455 	0.271507
0.00892977 	8.91056e-06 	-0.00054455 	0.271507
0.00897993 	8.65068e-06 	-0.00054342 	0.271231
0.00897993 	8.65068e-06 	-0.00054342 	0.271231
0.0090301 	8.38597e-06 	-0.000542202 	0.270937
0.00908027 	8.12126e-06 	-0.000540983 	0.270644
0.00908027 	8.12126e-06 	-0.000540983 	0.270644
0.00913043 	7.85558e-06 	-0.00053974 	0.270345
0.0091806 	7.58672e-06 	-0.000538412 	0.270028
0.0091806 	7.58672e-06 	-0.000538412 	0.270028
0.00923077 	7.31785e-06 	-0.000537084 	0.269712
0.00928094 	7.04822e-06 	-0.000535722 	0.269388
0.00928094 	7.04822e-06 	-0.000535722 	0.269388
0.0093311 	6.77687e-06 	-0.000534285 	0.269048
0.00938127 	6.50553e-06 	-0.000532847 	0.268709
0.00938127 	6.50553e-06 	-0.000532847 	0.268709
0.00943144 	6.23374e-06 	-0.000531361 	0.268359
0.00943144 	6.23374e-06 	-0.000531361 	0.268359
0.00948161 	5.96138e-06 	-0.000529812 	0.267996
0.00948161 	5.96138e-06 	-0.000529812 	0.267996
0.00953177 	5.68902e-06 	-0.000528263 	0.267633
0.00953177 	5.68902e-06 	-0.000528263 	0.267633
0.00958194 	5.4168e-06 	-0.000526645 	0.267256
0.00958194 	5.4168e-06 	-0.000526645 	0.267256
0.00963211 	5.14468e-06 	-0.000524984 	0.266869
0.00968227 	4.87256e-06 	-0.000523323 	0.266483
0.00968227 	4.87256e-06 	-0.000523323 	0.266483
0.00973244 	4.60157e-06 	-0.000521564 	0.266076
0.00978261 	4.33078e-06 	-0.000519788 	0.265665
0.00978261 	4.33078e-06 	-0.000519788 	0.265665
0.00983278 	4.06029e-06 	-0.000517998 	0.265251
0.00983278 	4.06029e-06 	-0.000517998 	0.265251
0.00988294 	3.79181e-06 	-0.000516103 	0.264816
0.00993311 	3.52333e-06 	-0.000514209 	0.264381
0.00993311 	3.52333e-06 	-0.000514209 	0.264381
0.00998328 	3.25628e-06 	-0.00051226 	0.263935
0.0100334 	2.99098e-06 	-0.000510244 	0.263475
0.0100836 	2.72568e-06 	-0.000508227 	0.263015
0.0100836 	2.72568e-06 	-0.000508227 	0.263015
0.0101338 	2.46364e-06 	-0.000506106 	0.262533
0.0101839 	2.20228e-06 	-0.000503963 	0.262048
0.0101839 	2.20228e-06 	-0.000503963 	0.262048
0.0102341 	1.94206e-06 	-0.000501788 	0.261556
0.0102341 	1.94206e-06 	-0.000501788 	0.261556
0.0102843 	1.68532e-06 	-0.000499512 	0.261044
0.0103344 	1.42858e-06 	-0.000497236 	0.260532
0.0103344 	1.42858e-06 	-0.000497236 	0.260532
0.0103846 	1.17553e-06 	-0.000494862 	0.260001
0.0103846 	1.17553e-06 	-0.000494862 	0.260001
0.0104348 	9.24e-07 	-0.000492447 	0.259462
0.0104348 	9.24e-07 	-0.000492447 	0.259462
0.0104849 	6.73712e-07 	-0.00049 	0.258917
0.0104849 	6.73712e-07 	-0.00049 	0.258917
0.0105351 	4.27896e-07 	-0.000487439 	0.25835
0.0105853 	1.8208e-07 	-0.000484878 	0.257783
0.0105853 	1.8208e-07 	-0.000484878 	0.257783
0.0106856 	-2.98602e-07 	-0.000479483 	0.256599
0.0106856 	-2.98602e-07 	-0.000479483 	0.256599
0.0107358 	-5.35803e-07 	-0.000476708 	0.255993
0.010786 	-7.68818e-07 	-0.000473831 	0.255368
0.010786 	-7.68818e-07 	-0.000473831 	0.255368
0.0108361 	-1.00179e-06 	-0.000470953 	0.254742
0.0108863 	-1.22776e-06 	-0.000467906 	0.254086
0.0108863 	-1.22776e-06 	-0.000467906 	0.254086
0.0109365 	-1.45374e-06 	-0.00046486 	0.25343
0.0109365 	-1.45374e-06 	-0.00046486 	0.25343
0.0109866 	-1.67459e-06 	-0.00046169 	0.252752
0.0110368 	-1.89311e-06 	-0.000458465 	0.252063
0.0110368 	-1.89311e-06 	-0.000458465 	0.252063
0.011087 	-2.10842e-06 	-0.000455163 	0.251362
0.011087 	-2.10842e-06 	-0.000455163 	0.251362
0.0111371 	-2.31908e-06 	-0.000451747 	0.25064
0.0111873 	-2.52833e-06 	-0.000448297 	0.249912
0.0111873 	-2.52833e-06 	-0.000448297 	0.249912
0.0112375 	-2.73073e-06 	-0.000444676 	0.249155
0.0112876 	-2.93312e-06 	-0.000441055 	0.248399
0.0112876 	-2.93312e-06 	-0.000441055 	0.248399
0.0113378 	-3.12708e-06 	-0.000437216 	0.247606
0.0113378 	-3.12708e-06 	-0.000437216 	0.247606
0.011388 	-3.32078e-06 	-0.00043337 	0.246813
0.0114381 	-3.50713e-06 	-0.000429317 	0.245987
0.0114381 	-3.50713e-06 	-0.000429317 	0.245987
0.0114883 	-3.69175e-06 	-0.000425216 	0.245153
0.0115385 	-3.87004e-06 	-0.000420912 	0.24429
0.0115385 	-3.87004e-06 	-0.000420912 	0.24429
0.0115886 	-4.04546e-06 	-0.000416514 	0.243412
0.0116388 	-4.21551e-06 	-0.000411909 	0.242506
0.0116388 	-4.21551e-06 	-0.000411909 	0.242506
0.011689 	-4.38204e-06 	-0.000407167 	0.24158
0.0117391 	-4.54386e-06 	-0.000402205 	0.240626
0.0117893 	-4.70191e-06 	-0.000397066 	0.239647
0.0118395 	-4.85538e-06 	-0.00039169 	0.238638
0.0118395 	-4.85538e-06 	-0.00039169 	0.238638
0.0118896 	-5.00497e-06 	-0.000386112 	0.237601
0.0119398 	-5.14951e-06 	-0.000380272 	0.236529
0.0119398 	-5.14951e-06 	-0.000380272 	0.236529
0.01199 	-5.29017e-06 	-0.000374229 	0.23543
0.0120401 	-5.42494e-06 	-0.000367887 	0.234289
0.0120401 	-5.42494e-06 	-0.000367887 	0.234289
0.0120903 	-5.55614e-06 	-0.000361365 	0.233123
0.0120903 	-5.55614e-06 	-0.000361365 	0.233123
0.0121906 	-5.80166e-06 	-0.000347489 	0.230667
0.0121906 	-5.80166e-06 	-0.000347489 	0.230667
0.0122408 	-5.91446e-06 	-0.000340072 	0.229364
0.012291 	-6.02566e-06 	-0.000332578 	0.228049
0.012291 	-6.02566e-06 	-0.000332578 	0.228049
0.0123411 	-6.12638e-06 	-0.000324599 	0.226653
0.0123913 	-6.22503e-06 	-0.000316528 	0.22524
0.0123913 	-6.22503e-06 	-0.000316528 	0.22524
0.0124415 	-6.31496e-06 	-0.000308071 	0.223757
0.0124415 	-6.31496e-06 	-0.000308071 	0.223757
0.0124916 	-6.40025e-06 	-0.000299422 	0.222236
0.0124916 	-6.40025e-06 	-0.000299422 	0.222236
0.0125418 	-6.47903e-06 	-0.000290504 	0.220662
0.012592 	-6.5501e-06 	-0.000281294 	0.219024
0.0126421 	-6.61738e-06 	-0.00027194 	0.217353
0.0126421 	-6.61738e-06 	-0.00027194 	0.217353
0.0126923 	-6.67334e-06 	-0.000262207 	0.215586
0.0127425 	-6.72546e-06 	-0.000252362 	0.213785
0.0127425 	-6.72546e-06 	-0.000252362 	0.213785
0.0127926 	-6.76867e-06 	-0.000242264 	0.211907
0.0128428 	-6.80414e-06 	-0.000231989 	0.20996
0.0128428 	-6.80414e-06 	-0.000231989 	0.20996
0.0129431 	-6.85261e-06 	-0.000211009 	0.205865
0.0129431 	-6.85261e-06 	-0.000211009 	0.205865
0.0129933 	-6.86508e-06 	-0.000200358 	0.20371
0.0130435 	-6.86946e-06 	-0.000189627 	0.20148
0.0130435 	-6.86946e-06 	-0.000189627 	0.20148
0.0131438 	-6.84928e-06 	-0.000168089 	0.196748
0.0131438 	-6.84928e-06 	-0.000168089 	0.196748
0.013194 	-6.82588e-06 	-0.000157351 	0.194253
0.0132441 	-6.79135e-06 	-0.000146713 	0.191649
0.0132441 	-6.79135e-06 	-0.000146713 	0.191649
0.0132943 	-6.74929e-06 	-0.000136165 	0.188969
0.0133445 	-6.69653e-06 	-0.000125772 	0.18618
0.0133445 	-6.69653e-06 	-0.000125772 	0.18618
0.0133946 	-6.63125e-06 	-0.000115622 	0.18326
0.0133946 	-6.63125e-06 	-0.000115622 	0.18326
0.0134448 	-6.55722e-06 	-0.00010567 	0.180245
0.0134448 	-6.55722e-06 	-0.00010567 	0.180245
0.013495 	-6.4736e-06 	-9.59456e-05 	0.177125
0.0135452 	-6.3746e-06 	-8.66508e-05 	0.173827
0.0135452 	-6.3746e-06 	-8.66508e-05 	0.173827
0.0135953 	-6.26586e-06 	-7.76638e-05 	0.170409
0.0135953 	-6.26586e-06 	-7.76638e-05 	0.170409
0.0136455 	-6.14693e-06 	-6.90112e-05 	0.16686
0.0136455 	-6.14693e-06 	-6.90112e-05 	0.16686
0.0136957 	-6.0156e-06 	-6.07903e-05 	0.163146
0.0136957 	-6.0156e-06 	-6.07903e-05 	0.163146
0.0137458 	-5.86966e-06 	-5.31117e-05 	0.159223
0.013796 	-5.71231e-06 	-4.58771e-05 	0.155128
0.013796 	-5.71231e-06 	-4.58771e-05 	0.155128
0.0138462 	-5.54319e-06 	-3.91161e-05 	0.150848
0.0138462 	-5.54319e-06 	-3.91161e-05 	0.150848
0.0138963 	-5.36199e-06 	-3.28584e-05 	0.146367
0.0139465 	-5.16507e-06 	-2.72916e-05 	0.141597
0.0139465 	-5.16507e-06 	-2.72916e-05 	0.141597
0.0139967 	-4.9563e-06 	-2.22743e-05 	0.136581
0.0139967 	-4.9563e-06 	-2.22743e-05 	0.136581
0.0140468 	-4.73624e-06 	-1.7805e-05 	0.131306
0.0140468 	-4.73624e-06 	-1.7805e-05 	0.131306
0.014097 	-4.50545e-06 	-1.38916e-05 	0.125751
0.0141472 	-4.26499e-06 	-1.05333e-05 	0.119891
0.0141472 	-4.26499e-06 	-1.05333e-05 	0.119891
0.0141973 	-4.01647e-06 	-7.71591e-06 	0.113702
0.0142475 	-3.76076e-06 	-5.48031e-06 	0.107083
0.0142977 	-3.49975e-06 	-3.69614e-06 	0.100052
0.0142977 	-3.49975e-06 	-3.69614e-06 	0.100052
0.0143478 	-3.23429e-06 	-2.31955e-06 	0.0926008
0.014398 	-2.9657e-06 	-1.31192e-06 	0.0847503
0.014398 	-2.9657e-06 	-1.31192e-06 	0.0847503
0.0144482 	-2.69564e-06 	-6.25972e-07 	0.0765596
0.0144983 	-2.42545e-06 	-2.04399e-07 	0.068133
0.0144983 	-2.42545e-06 	-2.04399e-07 	0.068133
0.0145485 	-2.15552e-06 	1.68921e-08 	0.0596193
0.0145485 	-2.15552e-06 	1.68921e-08 	0.0596193
0.0145987 	-1.88516e-06 	1.02457e-07 	0.051196
0.0146488 	-1.61343e-06 	1.09189e-07 	0.04304
0.014699 	-1.34083e-06 	7.97978e-08 	0.0352956
0.014699 	-1.34083e-06 	7.97978e-08 	0.0352956
0.0147492 	-1.07184e-06 	4.07315e-08 	0.0280553
0.0147993 	-8.19981e-07 	6.09368e-09 	0.0213619
0.0147993 	-8.19981e-07 	6.09368e-09 	0.0213619
0.0148495 	-6.1937e-07 	-2.1377e-08 	0.0152246
0.0148495 	-6.1937e-07 	-2.1377e-08 	0.0152246
0.0148997 	-4.95542e-07 	-3.02703e-08 	0.00963349
0.0148997 	-4.95542e-07 	-3.02703e-08 	0.00963349
0.0149498 	-3.53803e-07 	-2.21417e-08 	0.00457069
0.0149498 	-3.53803e-07 	-2.21417e-08 	0.00457069
0.015 	0 	0 	0
0.015 	0 	0 	0
