/*--------------------------------*- C++ -*----------------------------------*\
| =========                 |                                                 |
| \\      /  F ield         | OpenFOAM: The Open Source CFD Toolbox           |
|  \\    /   O peration     | Version:  v1912                                 |
|   \\  /    A nd           | Website:  www.openfoam.com                      |
|    \\/     M anipulation  |                                                 |
\*---------------------------------------------------------------------------*/
FoamFile
{
    version     2.0;
    format      ascii;
    class       volScalarField;
    location    "97.6";
    object      pMean;
}
// * * * * * * * * * * * * * * * * * * * * * * * * * * * * * * * * * * * * * //

dimensions      [1 -1 -2 0 0 0 0];


internalField   nonuniform List<scalar> 
2528
(
100000
100031
100000
100020
100000
100031
100000
100020
100000
100031
100000
100020
100000
100031
100000
100020
100000
100031
100000
100020
99999.9
100031
100000
100020
100000
100031
100000
100020
100000
100031
100000
100020
100000
100031
100000
100020
100000
100031
100000
100020
100000
100031
100000
100020
100000
100031
100000
100020
100000
100031
100000
100020
100000
100031
100000
100020
100000
100031
100000
100020
100001
100031
100000
100020
100001
100031
100000
100020
100001
100031
100000
100020
100001
100031
100000
100020
100001
100031
100000
100019
100001
100031
100000
100019
100001
100030
100000
100019
100001
100030
100000
100019
100001
100030
100000
100019
100002
100030
100000
100019
100002
100030
100000
100019
100002
100030
100000
100019
100002
100030
100001
100019
100002
100030
100001
100019
100002
100030
100001
100019
100002
100030
100001
100019
100003
100029
100001
100019
100003
100029
100001
100018
100003
100029
100001
100018
100003
100029
100001
100018
100004
100029
100001
100018
100004
100029
100001
100018
100004
100029
100002
100018
100004
100028
100002
100018
100004
100028
100002
100018
100005
100028
100002
100017
100005
100028
100002
100017
100005
100028
100002
100017
100006
100027
100002
100017
100006
100027
100002
100017
100006
100027
100002
100017
100006
100027
100003
100016
100006
100026
100003
100016
100006
100026
100003
100016
100007
100026
100003
100016
100007
100026
100003
100016
100007
100026
100003
100016
100007
100026
100003
100016
100008
100025
100004
100016
100008
100025
100004
100016
100008
100025
100004
100015
100008
100025
100004
100015
100008
100024
100004
100015
100008
100024
100005
100016
100009
100024
100005
100015
100009
100024
100005
100015
100009
100023
100005
100015
100010
100023
100005
100015
100010
100023
100005
100015
100010
100022
100005
100015
100010
100022
100006
100015
100010
100022
100006
100015
100011
100021
100006
100015
100011
100021
100006
100014
100011
100021
100006
100014
100012
100021
100006
100014
100012
100021
100006
100014
100012
100020
100007
100014
100013
100020
100007
100014
100013
100020
100007
100014
100013
100019
100007
100013
100013
100019
100007
100013
100014
100019
100007
100013
100014
100018
100007
100013
99872.1
99857.4
99872
99857.5
99872.1
99857.4
99872
99857.5
99872.1
99857.4
99872
99857.5
99872.1
99857.4
99872
99857.5
99872.1
99857.4
99872
99857.5
99872.1
99857.4
99872
99857.5
99872.1
99857.4
99872
99857.6
99872.1
99857.4
99872
99857.6
99872.1
99857.4
99872
99857.6
99872.1
99857.4
99872
99857.6
99872.1
99857.7
99872
99857.6
99872.1
99857.7
99872
99857.6
99872.1
99857.7
99872
99857.6
99872.1
99857.7
99872
99857.6
99872.1
99857.7
99872
99857.6
99872.1
99857.7
99871.9
99857.6
99872.1
99857.7
99872
99857.6
99871.8
99857.7
99871.9
99857.9
99871.8
99857.7
99871.7
99857.9
99871.8
99857.8
99871.7
99857.9
99871.8
99857.8
99871.7
99857.9
99871.8
99857.8
99871.6
99857.9
99871.8
99857.8
99871.6
99857.9
99871.8
99858
99871.6
99858
99871.8
99858.1
99871.5
99858.2
99871.7
99858.1
99871.3
99858.2
99871.7
99858.1
99871.3
99858.3
99871.7
99858.1
99871.2
99858.3
99871.7
99858.2
99871.2
99858.3
99871.4
99858.4
99871.2
99858.6
99871.4
99858.4
99870.9
99858.6
99871.4
99858.5
99870.9
99858.7
99871.3
99858.5
99870.9
99858.7
99871.3
99858.5
99870.8
99858.9
99871.3
99858.8
99870.5
99859
99871.3
99858.8
99870.5
99859
99871
99858.8
99870.5
99859.3
99871
99858.8
99870.2
99859.3
99871
99858.9
99870.2
99859.3
99871
99859.1
99869.9
99859.6
99870.9
99859.1
99869.8
99859.7
99870.9
99859.2
99869.8
99860
99870.6
99859.2
99869.5
99860
99870.6
99859.5
99869.5
99860.1
99870.6
99859.5
99869.2
99860.4
99870.6
99859.5
99869.1
99860.4
99870.5
99859.8
99869.1
99860.7
99870.3
99859.8
99868.8
99860.7
99870.3
99859.8
99868.8
99861
99870.3
99859.9
99868.5
99861.1
99870.2
99860.1
99868.4
99861.4
99870.2
99860.1
99868.2
99861.5
99870.2
99860.2
99867.9
99861.8
99870
99860.4
99867.8
99862
99869.9
99860.4
99867.6
99862.1
99869.9
99860.4
99867.5
99862.4
99869.9
99860.7
99867.2
99862.7
99869.9
99860.7
99867.2
99862.7
99869.6
99860.7
99866.9
99863
99869.6
99860.9
99866.9
99863.1
99869.6
99860.9
99866.6
99863.3
99869.6
99860.9
99866.6
99863.4
99869.5
99860.9
99866.3
99863.6
99869.3
99861.2
99866.2
99863.7
99869.3
99861.2
99865.9
99863.9
99869.2
99861.2
99865.6
99864
99869.2
99861.4
99865.6
99864.2
99869.2
99861.4
99865.3
99864.2
99869.2
99861.4
99865.3
99864.5
99868.9
99861.4
99865
99864.5
99868.9
99861.7
99864.9
99864.7
99868.9
99861.7
99864.9
99864.8
99868.9
99861.7
99864.6
99865
99868.9
99861.9
99864.5
99865
99868.9
99861.9
99864.2
99865
99868.9
99861.9
99864.1
99865.2
99868.9
99861.9
99864
99865.2
99868.6
99861.9
99863.7
99865.4
99868.6
99862.2
99863.6
99865.4
99567.9
99564.3
99578.5
99564.8
99567.9
99564.3
99578.5
99564.8
99567.9
99564.3
99578.5
99564.8
99567.9
99564.3
99578.5
99564.8
99567.9
99564.3
99578.5
99564.8
99567.9
99564.3
99578.5
99564.8
99567.9
99564.3
99578.5
99564.8
99567.9
99564.3
99578.5
99564.8
99567.9
99564.3
99578.5
99564.8
99567.9
99564.3
99578.5
99564.8
99567.9
99564.3
99578.5
99564.8
99567.9
99564.3
99578.5
99564.8
99567.9
99564.3
99578.5
99564.8
99567.9
99564.3
99578.5
99564.8
99567.8
99564.3
99578.5
99564.8
99567.8
99564.3
99578.5
99564.8
99567.8
99564.4
99578.5
99564.8
99567.8
99564.4
99578.5
99564.8
99567.8
99564.4
99578.5
99564.8
99567.8
99564.4
99578.5
99564.8
99567.8
99564.4
99578.5
99564.8
99567.7
99564.4
99578.5
99564.8
99567.8
99564.5
99578.5
99564.8
99567.7
99564.5
99578.5
99564.8
99567.7
99564.5
99578.5
99564.9
99567.7
99564.5
99578.5
99564.8
99567.7
99564.6
99578.5
99564.8
99567.7
99564.6
99578.5
99564.9
99567.6
99564.6
99578.5
99564.8
99567.6
99564.6
99578.5
99564.8
99567.6
99564.7
99578.5
99564.8
99567.5
99564.7
99578.5
99564.9
99567.5
99564.7
99578.5
99564.9
99567.4
99564.8
99578.5
99564.9
99567.4
99564.8
99578.4
99564.9
99567.4
99564.9
99578.4
99564.9
99567.3
99564.9
99578.4
99565
99567.3
99564.9
99578.3
99564.9
99567.3
99565
99578.3
99564.9
99567.2
99565.1
99578.3
99564.9
99567.2
99565.2
99578.3
99564.9
99567.2
99565.3
99578.3
99564.9
99567.1
99565.3
99578.3
99564.8
99567.1
99565.4
99578.3
99564.8
99567.1
99565.4
99578.3
99564.7
99567.1
99565.5
99578.3
99564.7
99567.1
99565.6
99578.3
99564.6
99567.1
99565.7
99578.4
99564.5
99567.1
99565.8
99578.4
99564.4
99567.1
99565.9
99578.4
99564.4
99567.1
99565.9
99578.5
99564.4
99567.1
99566
99578.5
99564.3
99567.1
99566.1
99578.5
99564.3
99567.1
99566.2
99578.6
99564.2
99567.1
99566.2
99578.6
99564.2
99567.1
99566.3
99578.7
99564.1
99567.1
99566.4
99578.7
99564
99567.2
99566.5
99578.8
99564
99567.2
99566.6
99578.8
99564
99567.2
99566.6
99578.8
99563.9
99567.3
99566.7
99578.9
99564
99567.3
99566.8
99578.9
99564
99567.3
99567
99579
99563.9
99567.4
99567.1
99579
99563.8
99567.4
99567.2
99579.1
99563.5
99567.4
99567.3
99579
99563.2
99567.5
99567.5
99579.1
99563.2
99567.5
99567.6
99579.1
99563.3
99567.5
99567.7
99579.1
99563.6
99567.5
99567.8
99579.1
99563.8
99567.5
99568
99579.2
99564.1
99567.5
99568.2
99579.2
99564.2
99567.5
99568.3
99579.2
99564.4
99567.5
99568.5
99579.1
99564.5
99567.4
99568.7
99579.1
99564.4
99567.4
99569
99579.1
99564.2
99567.3
99569.2
99579
99564
99567.2
99569.5
99579
99564
99567.1
99569.8
99578.9
99564.2
99223.1
99229.8
99227.4
99227.2
99223.1
99229.8
99227.4
99227.2
99223.1
99229.8
99227.4
99227.2
99223.1
99229.8
99227.4
99227.2
99223.1
99229.8
99227.4
99227.1
99223.1
99229.8
99227.4
99227.1
99223.1
99229.8
99227.4
99227.2
99223.1
99229.8
99227.4
99227.2
99223
99229.8
99227.4
99227.2
99223.1
99229.8
99227.4
99227.2
99223.1
99229.8
99227.4
99227.1
99223.1
99229.8
99227.4
99227.1
99223
99229.8
99227.4
99227.1
99223.1
99229.8
99227.4
99227.1
99223.1
99229.8
99227.4
99227.1
99223.1
99229.8
99227.4
99227.1
99223.1
99229.8
99227.4
99227.1
99223.1
99229.8
99227.4
99227.1
99223.1
99229.8
99227.4
99227.1
99223.1
99229.8
99227.5
99227.1
99223.1
99229.8
99227.5
99227.1
99223.1
99229.8
99227.5
99227
99223.1
99229.8
99227.5
99227
99223.1
99229.8
99227.5
99227
99223.1
99229.8
99227.5
99227
99223.1
99229.8
99227.5
99227
99223.1
99229.8
99227.6
99226.9
99223.1
99229.8
99227.6
99226.9
99223.1
99229.8
99227.6
99226.9
99223.1
99229.7
99227.6
99226.9
99223.1
99229.8
99227.6
99226.8
99223.1
99229.7
99227.6
99226.8
99223.1
99229.7
99227.7
99226.8
99223.2
99229.7
99227.7
99226.7
99223.1
99229.7
99227.7
99226.6
99223.1
99229.7
99227.7
99226.6
99223.2
99229.7
99227.8
99226.6
99223.1
99229.7
99227.8
99226.5
99223.2
99229.7
99227.8
99226.5
99223.2
99229.6
99227.8
99226.4
99223.2
99229.7
99227.9
99226.4
99223.2
99229.6
99227.9
99226.3
99223.2
99229.6
99227.9
99226.3
99223.2
99229.6
99228
99226.2
99223.2
99229.6
99228
99226.1
99223.2
99229.6
99228
99226.1
99223.2
99229.6
99228.1
99226
99223.2
99229.5
99228.1
99225.9
99223.3
99229.5
99228.1
99225.8
99223.3
99229.5
99228.2
99225.8
99223.3
99229.5
99228.2
99225.6
99223.3
99229.5
99228.2
99225.6
99223.3
99229.5
99228.3
99225.5
99223.3
99229.5
99228.3
99225.4
99223.4
99229.4
99228.3
99225.3
99223.4
99229.4
99228.3
99225.2
99223.4
99229.4
99228.3
99225.1
99223.4
99229.4
99228.4
99225.1
99223.4
99229.4
99228.5
99225
99223.4
99229.3
99228.5
99224.9
99223.4
99229.3
99228.6
99224.8
99223.4
99229.3
99228.6
99224.7
99223.5
99229.3
99228.6
99224.6
99223.5
99229.3
99228.7
99224.6
99223.5
99229.3
99228.7
99224.5
99223.6
99229.3
99228.8
99224.4
99223.7
99229.3
99228.8
99224.4
99223.7
99229.2
99228.8
99224.3
99223.7
99229.2
99228.8
99224.2
99223.7
99229.2
99228.9
99224.2
99223.8
99229.2
99228.9
99224.1
99223.8
99229.2
99228.9
99224.1
99223.8
99229.2
99229
99224
99223.8
99229.2
99229
99224
99223.9
99229.1
99229
99223.9
99223.9
99229.1
99229
99223.9
99223.9
99229.1
99229.1
99223.9
99223.9
99229.1
99229.1
99223.8
99223.9
99229.1
99229.1
99223.8
100014
100018
100007
100013
100015
100018
100008
100013
100015
100018
100008
100013
100016
100017
100008
100013
100016
100017
100008
100013
100017
100016
100008
100013
100017
100016
100009
100013
100018
100015
100009
100012
100018
100015
100009
100012
100019
100014
100009
100012
100020
100013
100010
100012
100020
100013
100010
100012
100021
100012
100010
100012
100021
100011
100010
100011
100022
100010
100011
100011
100023
100010
100011
100011
100024
100009
100011
100010
100024
100008
100012
100010
100025
100007
100012
100010
100026
100006
100012
100009
100026
100006
100013
100009
100027
100004
100013
100009
100028
100003
100014
100009
100029
100003
100014
100008
100029
100002
100015
100008
100030
100001
100015
100008
100030
99999.9
100015
100007
100031
99998.9
100016
100007
100032
99997.9
100016
100006
100032
99997.3
100016
100006
100033
99996.4
100017
100006
100034
99995.4
100017
100006
100034
99994.5
100017
100005
100035
99993.6
100017
100005
100035
99993
100018
100005
100036
99992.3
100018
100004
100036
99991.8
100019
100004
100037
99991.1
100019
100004
100037
99990.5
100020
100004
100038
99989.8
100020
100003
100038
99989.3
100020
100003
100039
99988.6
100021
100003
100039
99987.9
100021
100002
100040
99987.3
100021
100002
100040
99986.7
100022
100002
100040
99986.1
100022
100002
100040
99985.8
100022
100002
100041
99985.5
100023
100002
100041
99985
100023
100001
100041
99984.6
100023
100001
100041
99984.2
100023
100001
100042
99983.8
100024
100001
100042
99983.4
100024
100001
100042
99983.1
100024
100001
100043
99982.8
100024
100000
100043
99982.5
100024
100000
100043
99982.5
100024
100000
100043
99982.2
100025
100000
100043
99982
100024
100000
100043
99981.8
100024
100000
100043
99981.6
100024
100000
100043
99981.5
100025
99999.9
100043
99981.3
100025
99999.8
100043
99981.2
100025
99999.8
100043
99981.1
100025
100000
100043
99981
100025
99999.9
100043
99981
100025
99999.9
100043
99980.9
100025
99999.9
100043
99980.9
100025
99999.9
100044
99980.8
100025
99999.8
100044
99980.8
100025
99999.8
100044
99980.7
100025
99999.8
100044
99980.7
100025
99999.7
100044
99980.7
100025
99999.7
100044
99980.7
100025
99999.7
100044
99980.6
100025
99999.7
100044
99980.6
100025
99999.7
100044
99980.6
100025
99999.7
100044
99980.6
100025
99999.7
99868.6
99862.2
99863.3
99865.4
99868.6
99862.2
99863.2
99865.4
99868.6
99862.2
99862.8
99865.6
99868.3
99862.3
99862.5
99865.6
99868.3
99862.3
99862.3
99865.6
99868.3
99862.4
99862
99865.6
99868.3
99862.4
99861.8
99865.9
99868
99862.7
99861.4
99866
99868
99862.8
99861
99866
99867.9
99862.9
99860.6
99866.3
99867.7
99863.1
99860.4
99866.4
99867.6
99863.2
99859.9
99866.5
99867.6
99863.4
99859.5
99866.8
99867.3
99863.7
99859.2
99866.9
99867.2
99863.9
99858.7
99866.9
99867.2
99864.1
99858.2
99867.3
99866.8
99864.4
99857.7
99867.4
99866.7
99864.6
99857.4
99867.5
99866.4
99864.8
99856.9
99867.9
99866.3
99865.3
99856.4
99868
99866.2
99865.6
99855.8
99868.4
99865.8
99865.8
99855.5
99868.5
99865.7
99866.1
99855
99868.7
99865.3
99866.6
99854.5
99869.1
99865.2
99866.9
99854.1
99869.2
99865
99867.2
99853.6
99869.7
99864.6
99867.7
99853
99869.8
99864.4
99868
99852.7
99870
99864.3
99868.3
99852.1
99870.4
99863.8
99868.6
99851.6
99870.6
99863.6
99869.1
99851.2
99871
99863.5
99869.4
99850.7
99871.2
99863
99869.7
99850.1
99871.4
99862.8
99870.2
99849.8
99871.8
99862.7
99870.5
99849.3
99872
99862.3
99870.8
99848.9
99872.2
99862.1
99871.3
99848.4
99872.6
99861.9
99871.6
99848.1
99872.8
99861.5
99871.8
99847.6
99873
99861.3
99872.1
99847.3
99873.4
99861.2
99872.4
99846.8
99873.6
99861
99872.9
99846.6
99873.7
99860.6
99873.1
99846.1
99874.1
99860.4
99873.3
99845.9
99874.2
99860.3
99873.5
99845.4
99874.4
99860.1
99873.7
99845.2
99874.5
99860
99874.2
99845
99874.7
99859.9
99874.4
99844.6
99875
99859.5
99874.5
99844.5
99875.1
99859.4
99874.7
99844.3
99875.2
99859.3
99874.9
99843.9
99875.3
99859.2
99875
99843.8
99875.4
99859.1
99875.1
99843.6
99875.8
99859
99875.2
99843.5
99875.9
99858.9
99875.5
99843.4
99875.9
99858.9
99875.6
99843.1
99876
99858.6
99875.8
99843
99876
99858.5
99875.9
99842.9
99876.1
99858.5
99875.9
99842.9
99876.1
99858.4
99876.1
99842.8
99876.2
99858.4
99876.1
99842.7
99876.2
99858.3
99876.1
99842.7
99876.3
99858.3
99876.2
99842.6
99876.3
99858.3
99876.2
99842.6
99876.3
99858.2
99876.2
99842.3
99876.3
99858.2
99876.2
99842.3
99876.4
99858.2
99876.4
99842.3
99876.6
99858.2
99876.4
99842.2
99876.6
99858.2
99876.4
99842.2
99876.7
99858.1
99876.5
99842.2
99876.7
99858.1
99876.5
99842.2
99876.7
99858.1
99876.5
99842.2
99876.7
99858.1
99876.5
99842.2
99876.7
99858.1
99876.5
99842.2
99876.7
99858.1
99876.5
99842.1
99876.7
99858.1
99876.5
99842.1
99876.7
99858.1
99876.5
99842.1
99876.7
99858.1
99876.5
99842.1
99876.7
99858.1
99876.5
99842.1
99876.7
99567
99570.2
99578.9
99564.4
99566.9
99570.6
99578.7
99564.7
99566.7
99571.1
99578.6
99564.9
99566.6
99571.6
99578.5
99565.2
99566.4
99572
99578.3
99565.5
99566.1
99572.5
99578.1
99565.8
99565.9
99572.9
99577.9
99566.1
99565.7
99573.4
99577.7
99566.4
99565.8
99573.8
99577.5
99566.8
99566
99574.3
99577.2
99567.1
99566.5
99574.8
99577
99567.5
99567
99575.3
99576.7
99567.9
99567.3
99575.8
99576.4
99568.3
99567.2
99576.3
99576.1
99568.8
99566.8
99576.8
99575.8
99569.2
99566.4
99577.3
99575.5
99569.6
99565.9
99577.8
99575.2
99570
99565.5
99578.3
99574.8
99570.6
99565.1
99578.7
99574.5
99571.1
99564.6
99579.3
99574.1
99571.6
99564.2
99579.7
99573.8
99572.1
99563.5
99580.2
99573.4
99572.5
99562.8
99580.7
99573.1
99573
99561.9
99581.2
99572.8
99573.5
99561.2
99581.6
99572.5
99573.9
99560.5
99582.1
99572.1
99574.4
99560.1
99582.6
99571.8
99574.9
99559.6
99583
99571.5
99575.4
99559.1
99583.5
99571.2
99575.8
99558.6
99583.9
99570.9
99576.3
99558.1
99584.4
99570.6
99576.8
99557.6
99584.8
99570.3
99577.2
99557.1
99585.3
99570
99577.7
99556.7
99585.8
99569.7
99578.1
99556.2
99586.2
99569.4
99578.5
99555.8
99586.6
99569.2
99578.9
99555.4
99586.9
99568.9
99579.3
99554.9
99587.3
99568.7
99579.7
99554.3
99587.6
99568.5
99580.1
99553.7
99587.9
99568.3
99580.5
99553.1
99588.3
99568.1
99580.8
99552.6
99588.6
99567.8
99581.2
99552.3
99588.9
99567.7
99581.5
99551.9
99589.2
99567.5
99581.8
99551.6
99589.5
99567.3
99582.1
99551.3
99589.7
99567.1
99582.4
99550.9
99590
99566.9
99582.7
99550.6
99590.3
99566.8
99582.9
99550.3
99590.5
99566.6
99583.1
99550
99590.8
99566.5
99583.4
99549.8
99591
99566.4
99583.6
99549.6
99591.2
99566.2
99583.8
99549.3
99591.4
99566.1
99583.9
99549.1
99591.6
99566
99584.1
99548.9
99591.8
99565.8
99584.3
99548.7
99592
99565.7
99584.4
99548.6
99592.2
99565.6
99584.5
99548.4
99592.3
99565.5
99584.6
99548.3
99592.5
99565.5
99584.7
99548.1
99592.6
99565.4
99584.8
99548
99592.7
99565.3
99584.9
99547.9
99592.8
99565.3
99584.9
99547.8
99592.9
99565.2
99585
99547.8
99593
99565.2
99585.1
99547.7
99593
99565.1
99585.1
99547.6
99593.1
99565.1
99585.2
99547.6
99593.1
99565
99585.2
99547.5
99593.2
99565
99585.2
99547.5
99593.2
99565
99585.2
99547.5
99593.2
99565
99585.3
99547.4
99593.3
99565
99585.3
99547.4
99593.3
99564.9
99585.3
99547.4
99593.3
99564.9
99585.3
99547.4
99593.3
99564.9
99585.4
99547.4
99593.3
99564.9
99585.4
99547.4
99593.3
99564.9
99585.4
99547.3
99593.3
99564.9
99585.4
99547.3
99593.3
99564.9
99585.4
99547.3
99593.3
99564.9
99585.4
99223.9
99229
99229.1
99223.8
99223.9
99229
99229.2
99223.8
99223.9
99228.9
99229.2
99223.7
99223.9
99228.9
99229.2
99223.7
99223.9
99228.9
99229.2
99223.7
99223.9
99228.8
99229.3
99223.7
99223.9
99228.8
99229.4
99223.6
99223.9
99228.8
99229.4
99223.6
99223.9
99228.7
99229.4
99223.6
99223.9
99228.6
99229.3
99223.6
99223.9
99228.6
99229.3
99223.5
99223.9
99228.6
99229.4
99223.5
99223.8
99228.6
99229.4
99223.5
99223.8
99228.5
99229.5
99223.5
99223.8
99228.6
99229.5
99223.5
99223.9
99228.6
99229.5
99223.4
99223.9
99228.7
99229.6
99223.4
99223.9
99228.8
99229.6
99223.4
99223.9
99228.8
99229.7
99223.4
99223.9
99228.8
99229.9
99223.3
99223.9
99228.8
99229.9
99223.3
99223.9
99228.8
99230
99223.4
99223.9
99228.8
99230
99223.4
99223.9
99228.8
99230
99223.4
99223.9
99228.8
99230
99223.4
99223.9
99228.7
99230
99223.3
99223.9
99228.7
99230.1
99223.3
99223.9
99228.7
99230.1
99223.3
99223.9
99228.8
99230.1
99223.3
99223.9
99228.9
99230.2
99223.3
99223.9
99229
99230.2
99223.3
99223.9
99229.1
99230.2
99223.3
99223.9
99229.2
99230.1
99223.3
99223.9
99229.2
99230.1
99223.3
99223.9
99229.2
99230.1
99223.3
99224
99229.2
99230.1
99223.3
99223.9
99229.2
99230.2
99223.3
99223.9
99229.2
99230.2
99223.3
99223.9
99229.1
99230.3
99223.3
99224
99229.1
99230.3
99223.3
99224
99229.1
99230.3
99223.3
99224
99229.1
99230.3
99223.2
99224
99229.2
99230.3
99223.2
99224
99229.2
99230.3
99223.3
99224
99229.3
99230.3
99223.2
99224
99229.3
99230.3
99223.2
99224
99229.3
99230.3
99223.2
99224
99229.3
99230.3
99223.2
99224.1
99229.3
99230.3
99223.2
99224.1
99229.3
99230.3
99223.2
99224.1
99229.3
99230.3
99223.2
99224
99229.3
99230.3
99223.2
99224
99229.3
99230.3
99223.1
99224.1
99229.3
99230.3
99223.2
99224.1
99229.3
99230.3
99223.1
99224.1
99229.3
99230.3
99223.1
99224.1
99229.3
99230.3
99223.1
99224.1
99229.3
99230.3
99223.1
99224.1
99229.4
99230.3
99223.1
99224.1
99229.3
99230.3
99223.1
99224.1
99229.4
99230.3
99223.1
99224.1
99229.4
99230.3
99223.1
99224.1
99229.3
99230.3
99223.1
99224.1
99229.3
99230.3
99223.1
99224.1
99229.3
99230.3
99223.1
99224.1
99229.4
99230.3
99223.1
99224.1
99229.4
99230.3
99223.1
99224.1
99229.4
99230.3
99223.1
99224.1
99229.3
99230.3
99223.1
99224.1
99229.4
99230.3
99223.1
99224.1
99229.4
99230.3
99223.1
99224.1
99229.4
99230.3
99223.1
99224.1
99229.4
99230.3
99223.1
99224.1
99229.4
99230.3
99223.1
99224.1
99229.4
99230.3
99223.1
99224.1
99229.4
99230.3
99223.1
99224.1
99229.4
99230.3
99223.1
99224.1
99229.4
99230.3
99223.1
99224.1
99229.4
99230.3
99223.1
)
;

boundaryField
{
    leftWall
    {
        type            calculated;
        value           nonuniform List<scalar> 
16
(
100000
99872.1
99567.9
99223.1
100031
99857.4
99564.3
99229.8
100000
99872
99578.5
99227.4
100020
99857.5
99564.8
99227.2
)
;
    }
    rightWall
    {
        type            calculated;
        value           nonuniform List<scalar> 
16
(
100044
99858.1
99547.3
99224.1
99980.6
99876.5
99593.3
99229.4
100025
99842.1
99564.9
99230.3
99999.7
99876.7
99585.4
99223.1
)
;
    }
    leftSides_periodic0
    {
        type            cyclic;
    }
    leftSides_periodic1
    {
        type            cyclic;
    }
    rightSides_periodic0
    {
        type            cyclic;
    }
    rightSides_periodic1
    {
        type            cyclic;
    }
    leftInOut_periodic0
    {
        type            cyclic;
    }
    leftInOut_periodic1
    {
        type            cyclic;
    }
    rightInOut_periodic0
    {
        type            cyclic;
    }
    rightInOut_periodic1
    {
        type            cyclic;
    }
}


// ************************************************************************* //
