/*--------------------------------*- C++ -*----------------------------------*\
| =========                 |                                                 |
| \\      /  F ield         | OpenFOAM: The Open Source CFD Toolbox           |
|  \\    /   O peration     | Version:  v1912                                 |
|   \\  /    A nd           | Website:  www.openfoam.com                      |
|    \\/     M anipulation  |                                                 |
\*---------------------------------------------------------------------------*/
FoamFile
{
    version     2.0;
    format      ascii;
    class       volScalarField;
    location    "97.6";
    object      turbulenceProperties:mut;
}
// * * * * * * * * * * * * * * * * * * * * * * * * * * * * * * * * * * * * * //

dimensions      [1 -1 -1 0 0 0 0];


internalField   nonuniform List<scalar> 
2528
(
2.41313e-08
8.82999e-09
1.72825e-08
2.29815e-08
3.26059e-08
1.10235e-08
2.33557e-08
2.93331e-08
2.48735e-07
6.87352e-08
1.71415e-07
2.31067e-07
1.66294e-06
4.59515e-07
1.14638e-06
1.5724e-06
6.80392e-06
1.96361e-06
4.75673e-06
6.51801e-06
1.98208e-05
6.11207e-06
1.418e-05
1.91965e-05
4.56195e-05
1.52785e-05
3.35826e-05
4.45761e-05
8.85647e-05
3.25501e-05
6.72357e-05
8.71355e-05
0.000151402
6.13829e-05
0.000118514
0.00014969
0.000234768
0.000105104
0.000189169
0.000232809
0.000337354
0.000166391
0.000279149
0.000334945
0.000456763
0.00024689
0.000386927
0.000453283
0.000591181
0.000347098
0.000510338
0.000585355
0.0007392
0.000466514
0.000647876
0.000727455
0.000899643
0.000603938
0.000798411
0.000876863
0.00107165
0.000757786
0.000960909
0.00104175
0.0012545
0.000926311
0.00113446
0.00121543
0.00144749
0.00110779
0.00131808
0.00139081
0.00165048
0.00130038
0.00151057
0.00157027
0.00186252
0.00150201
0.00171041
0.00175254
0.00208234
0.0017107
0.00191571
0.00193496
0.00230836
0.00192447
0.00212416
0.00211489
0.00253878
0.00214135
0.00233392
0.00211166
0.00277207
0.0023594
0.00254558
0.0020257
0.00300675
0.00257684
0.00275787
0.00211851
0.00324085
0.00279189
0.00296937
0.00260267
0.00347235
0.00300749
0.00317851
0.00300216
0.00369909
0.00322303
0.00338357
0.00317341
0.00391879
0.0034381
0.00358267
0.00333395
0.00412917
0.0036523
0.00377393
0.00348576
0.00432805
0.0038651
0.00395564
0.00320378
0.00451364
0.00407582
0.00412674
0.00232256
0.00468486
0.00428351
0.00428719
0.0019137
0.00484117
0.00448686
0.00419292
0.00242773
0.0049787
0.00468488
0.00310806
0.00417842
0.00473143
0.00487605
0.00261525
0.00432951
0.00319689
0.0050583
0.00330554
0.00449174
0.00252671
0.0052265
0.00506066
0.00468927
0.0032425
0.00537932
0.00524062
0.00493066
0.00558937
0.0055176
0.00540005
0.00521308
0.00575503
0.0056374
0.00554613
0.0055154
0.00592533
0.00574276
0.00567189
0.00582565
0.00611517
0.00552201
0.00577466
0.00614265
0.00630344
0.00357142
0.00585816
0.00646625
0.00648096
0.00267401
0.00592786
0.00679644
0.00663949
0.00323634
0.00416517
0.00713278
0.00677271
0.00618943
0.00307372
0.00747476
0.00687705
0.00632342
0.00365597
0.00782202
0.00695469
0.00645828
0.0060695
0.00817384
0.00700784
0.00660718
0.0061299
0.00852926
0.00417406
0.00675109
0.00620043
0.00888705
0.00265373
0.00688111
0.00627785
0.00924538
0.00307195
0.00699221
0.0063434
0.0096014
0.00690022
0.00707831
0.00638796
0.00994355
0.00692405
0.00714097
0.00640583
0.0102705
0.00697087
0.0071915
0.0040026
0.0105811
0.00704836
0.0072445
0.00245978
0.0108739
0.00715171
0.00483201
0.00266002
0.0111463
0.00728018
0.00339817
0.00586686
0.0113985
0.0074373
0.0037226
0.00581773
0.0116279
0.00763628
0.00721241
0.00582183
0.011833
0.00787768
0.00722809
0.00587432
0.0120124
0.00813185
0.00728524
0.00597209
0.0121645
0.00838024
0.00739743
0.00611265
0.0122887
0.0086318
0.00756024
0.00629452
0.0123847
0.00888528
0.00777442
0.00651615
0.0124529
0.00913937
0.00803886
0.00674947
0.0124847
0.0093927
0.00835206
0.00695661
0.0124902
0.00964412
0.00872721
0.00713059
0.0124885
0.00989251
0.00914554
0.00727957
0.0124807
0.0101366
0.0095655
0.00740802
0.0124689
0.010376
0.00996679
0.00751152
0.0124534
0.0106113
0.0103325
0.0075978
0.0124352
0.0108426
0.010652
0.00768069
0.0124148
0.0110706
0.0109204
0.00776881
0.0123905
0.0112942
0.0111377
0.00785381
0.0123608
0.0115118
0.011306
0.00792399
0.0123265
0.0117186
0.0114235
0.00797852
0.0122573
0.0119044
0.0114835
0.00652735
0.00704982
1.80912e-09
3.12187e-09
6.74784e-09
5.60897e-09
7.51738e-09
9.28029e-09
1.88175e-08
1.29238e-08
1.21566e-07
1.36682e-07
2.63615e-07
1.67633e-07
8.88394e-07
9.97731e-07
1.8705e-06
1.19759e-06
3.82939e-06
4.31598e-06
7.81453e-06
5.08316e-06
1.18521e-05
1.34084e-05
2.32557e-05
1.54461e-05
2.91534e-05
3.31001e-05
5.46424e-05
3.72009e-05
6.03948e-05
6.8799e-05
0.000107766
7.53999e-05
0.000109385
0.000124961
0.000185823
0.000133766
0.000177922
0.000203708
0.000288643
0.000213677
0.000265426
0.000304363
0.000413331
0.000314083
0.000369435
0.000424028
0.000555593
0.000432204
0.000486498
0.000558676
0.000710856
0.00056442
0.0006118
0.000704109
0.000867448
0.000707338
0.000726475
0.000856915
0.00101987
0.000847796
0.000842561
0.000996073
0.0011756
0.000988065
0.000960176
0.0011377
0.00133412
0.00113324
0.00107898
0.00128031
0.00149415
0.00128235
0.00119853
0.00142243
0.0016548
0.00143431
0.00131867
0.0015625
0.00181598
0.00158777
0.00143892
0.00169928
0.00197827
0.00174231
0.00155811
0.00183303
0.00214218
0.0019005
0.00167494
0.00196643
0.00230718
0.00206862
0.00178847
0.0021035
0.00247119
0.00225392
0.00189818
0.00224538
0.0026302
0.00245989
0.00200361
0.00238648
0.00278455
0.00268292
0.00210345
0.00252204
0.00293363
0.00291548
0.00219218
0.00264735
0.00307622
0.00312825
0.00226889
0.00276327
0.00321062
0.00326378
0.00233201
0.00287901
0.00333414
0.00327312
0.00237794
0.00300966
0.00344294
0.00317126
0.00240137
0.00316483
0.0035321
0.00308139
0.00240186
0.003333
0.0035988
0.00316687
0.00239848
0.00347804
0.00365195
0.00353956
0.00243257
0.00356035
0.00371876
0.00418038
0.00253484
0.00355349
0.00382499
0.00469336
0.00269324
0.0034109
0.00395284
0.00492648
0.00284322
0.00310734
0.00406407
0.00516317
0.00285505
0.00277557
0.00415372
0.00540552
0.00284639
0.00262203
0.0042387
0.00565153
0.00283056
0.00275328
0.00433323
0.00589911
0.00280572
0.00315852
0.00443588
0.00614618
0.00277068
0.00362993
0.00452723
0.00578175
0.00272514
0.00374132
0.00457105
0.00553869
0.00266905
0.0037248
0.0045668
0.00613362
0.00260059
0.00371282
0.00454712
0.00710232
0.00252193
0.00370811
0.0045156
0.00729027
0.0024369
0.00370952
0.00447744
0.00745544
0.00235127
0.00371434
0.00443629
0.00759978
0.002273
0.00371417
0.00439434
0.0077208
0.00221263
0.00369906
0.00435228
0.00781648
0.0021848
0.00363859
0.00430909
0.00788527
0.00220488
0.00291395
0.00426513
0.00792677
0.00227297
0.00214524
0.00422301
0.00794691
0.00237442
0.00170577
0.00418776
0.00794469
0.00249618
0.00163741
0.00416783
0.00791919
0.00262599
0.00187808
0.00417759
0.00786965
0.00275354
0.00227284
0.00422755
0.00779535
0.00287123
0.00226396
0.00431424
0.00769555
0.00297478
0.00205258
0.00442902
0.00756979
0.00307099
0.00189532
0.00456426
0.00741792
0.00315494
0.00180523
0.00471363
0.00724035
0.00322328
0.00178087
0.00487278
0.00703805
0.00327382
0.00181029
0.00503899
0.00680971
0.00330564
0.00187949
0.00521026
0.00655556
0.00332022
0.00197482
0.00538605
0.00627691
0.00331991
0.00208405
0.00556712
0.00597551
0.003308
0.0021969
0.00575469
0.00565342
0.00328882
0.00230513
0.00595028
0.00531145
0.00326732
0.00240242
0.00615556
0.00494835
0.00324819
0.0024846
0.00637165
0.00456036
0.00323531
0.00254975
0.0065982
0.00414063
0.00323127
0.00260573
0.00683265
0.00368014
0.00323711
0.00267137
0.00707007
0.00317474
0.00325225
0.00276133
0.00730889
0.00263257
0.00327486
0.00289028
0.00755164
0.00207367
0.00330227
0.00306961
0.00779878
0.00154088
0.00333141
0.00330399
0.00804752
0.00112944
0.00336022
0.00359031
0.00829142
0.00100617
4.9273e-09
2.45339e-09
3.10016e-09
6.31784e-09
1.91775e-08
5.77839e-09
1.21565e-08
1.79231e-08
2.97814e-07
7.06275e-08
1.90926e-07
2.48079e-07
2.11393e-06
5.0119e-07
1.37263e-06
1.73818e-06
8.77277e-06
2.14144e-06
5.7817e-06
7.13529e-06
2.57631e-05
6.62545e-06
1.72742e-05
2.07252e-05
5.92646e-05
1.63662e-05
4.04815e-05
4.7229e-05
0.000113725
3.40856e-05
7.91241e-05
9.0007e-05
0.000190245
6.20085e-05
0.000134632
0.000149895
0.000286723
0.000101168
0.000205918
0.000225245
0.000391804
0.000151193
0.000289716
0.000306147
0.000496707
0.000210597
0.000368631
0.000385943
0.000609373
0.000270043
0.000452826
0.000470204
0.000730138
0.000329429
0.000541887
0.000557434
0.000859576
0.000391097
0.000636803
0.00064577
0.000993925
0.000455461
0.000738792
0.000734569
0.00112221
0.000527645
0.000845593
0.000829933
0.00123559
0.000615422
0.000947168
0.000948719
0.00135196
0.00072569
0.00103023
0.00110603
0.00151866
0.000855801
0.00109791
0.00127672
0.0017574
0.000947188
0.00118538
0.00136946
0.00202743
0.000965985
0.0013355
0.00133356
0.00228162
0.00090084
0.00155102
0.00128445
0.00250453
0.00089207
0.0017843
0.00136633
0.00270209
0.00101331
0.00197993
0.00161948
0.00290196
0.00126497
0.00212813
0.00196222
0.00310133
0.0015721
0.00227877
0.00210824
0.00329643
0.00170516
0.00242965
0.00221514
0.00348232
0.00184491
0.00257773
0.00231479
0.00365315
0.00199403
0.002719
0.00240369
0.00380355
0.00215076
0.00284864
0.00247994
0.00393302
0.00231253
0.00296251
0.00254937
0.00405132
0.00247554
0.00306052
0.00155458
0.00256255
0.00263487
0.00315011
0.00133646
0.00221543
0.00278487
0.00196985
0.00179666
0.0029735
0.00291974
0.00173219
0.00297032
0.00468321
0.00303495
0.00232584
0.00310348
0.00495675
0.00314959
0.0036875
0.00328485
0.0051602
0.00228078
0.00382901
0.00353954
0.00538444
0.00157126
0.00398976
0.00388122
0.00562716
0.00186256
0.00417135
0.00428316
0.0058823
0.00309899
0.00437151
0.00472428
0.0061447
0.00384022
0.00458337
0.00519454
0.00641015
0.00397645
0.00480015
0.00569024
0.00667522
0.00414543
0.00501654
0.0062018
0.00694193
0.0043465
0.00522828
0.00671859
0.00720844
0.0045757
0.00543186
0.00723088
0.0074726
0.00482723
0.00562433
0.0077282
0.00773311
0.00509464
0.00580372
0.00821529
0.00798945
0.00537246
0.00596985
0.00874185
0.00824183
0.00565564
0.0061228
0.00924645
0.00849112
0.00594066
0.00626192
0.00969523
0.0087386
0.00622552
0.00638678
0.0101493
0.00898563
0.00650945
0.00649709
0.0106002
0.00923318
0.00679255
0.00659279
0.0110203
0.00948168
0.00707478
0.00667411
0.0114035
0.00973102
0.00735553
0.00674171
0.0117498
0.00998056
0.00763373
0.00679667
0.0120556
0.0102295
0.00790859
0.00684007
0.0123156
0.0104764
0.00817975
0.00687218
0.0123457
0.010705
0.00844715
0.00689303
0.00667748
0.0109183
0.00871077
0.00690232
0.00699096
0.0111212
0.00897108
0.0069257
0.0128146
0.011319
0.00922962
0.00696188
0.0127948
0.0115174
0.00948747
0.00700975
0.0127037
0.0117195
0.00974498
0.00706815
0.0125708
0.0119352
0.0100012
0.00713577
0.0124357
0.0121654
0.0102538
0.00721125
0.0123301
0.0124108
0.0104986
0.00729289
0.0122542
0.0126676
0.0107299
0.00737857
0.0121977
0.0129217
0.0109408
0.00746572
0.0121473
0.0131628
0.0111258
0.0075518
0.00639247
0.0133884
0.0112756
0.00763455
0.00418772
0.0135956
0.011386
0.00771386
0.00519769
0.0137807
0.0114734
0.00778456
0.011375
0.0139394
0.0115291
0.00783894
0.0113722
0.0140682
0.0115553
0.00787051
0.0114069
0.0141642
0.0115568
0.00787572
0.0114624
0.0142267
0.0115412
0.00785942
0.01151
8.26627e-09
9.4525e-09
1.30013e-08
8.85792e-09
1.0158e-08
1.41219e-08
2.02737e-08
1.65621e-08
5.53324e-08
1.08224e-07
1.66091e-07
1.50873e-07
3.58475e-07
7.26819e-07
1.10773e-06
9.91302e-07
1.51356e-06
3.04211e-06
4.54915e-06
4.00234e-06
4.65555e-06
9.18952e-06
1.34301e-05
1.17264e-05
1.14556e-05
2.2071e-05
3.14894e-05
2.75075e-05
2.39063e-05
4.47475e-05
6.23747e-05
5.47537e-05
4.3981e-05
7.97427e-05
0.000108794
9.61013e-05
7.33123e-05
0.000128596
0.000172081
0.000152879
0.000113002
0.000191784
0.000252249
0.000225055
0.000163592
0.000268928
0.000348367
0.000311565
0.000225168
0.000358515
0.000459034
0.000410816
0.000297535
0.000449853
0.000574276
0.000513903
0.000380389
0.000550975
0.000698171
0.000623784
0.000473449
0.000662529
0.000833645
0.000743484
0.000574767
0.000785986
0.000981922
0.000873919
0.000684195
0.000924166
0.00114384
0.00101571
0.000804783
0.00108157
0.0013202
0.00116827
0.000936714
0.00125951
0.00151154
0.00133096
0.00107991
0.00145365
0.00171628
0.00150265
0.00123452
0.00166038
0.00192972
0.00168082
0.0013973
0.00187432
0.0021488
0.00185162
0.00156291
0.00207482
0.00237424
0.00202129
0.00173477
0.00227923
0.00259375
0.00219368
0.0019119
0.00248633
0.00281463
0.00236811
0.00209316
0.0026975
0.00303781
0.00254347
0.00227739
0.00291242
0.00326187
0.00271858
0.00246331
0.00312968
0.00348539
0.00289222
0.00264966
0.00334783
0.00370696
0.00306392
0.00283525
0.00356531
0.00392521
0.00323397
0.00301899
0.00378048
0.00413905
0.00340367
0.00320009
0.00399168
0.00434754
0.00357555
0.00337874
0.00419728
0.0045504
0.0037524
0.00356014
0.00439562
0.00475396
0.00393386
0.00374475
0.00458512
0.00496049
0.00411756
0.00393265
0.0047643
0.00517165
0.00430154
0.00412418
0.00493184
0.00538582
0.00448404
0.00432026
0.00508667
0.00559879
0.00465655
0.0045193
0.00522804
0.00580613
0.00481419
0.00471741
0.00536587
0.00600338
0.00495444
0.00491086
0.00550001
0.00618634
0.00507494
0.00509539
0.00562952
0.00635354
0.00517338
0.00526622
0.00575459
0.00650665
0.00524713
0.00541852
0.00587734
0.00664761
0.00529335
0.00555024
0.00600061
0.00677936
0.00530855
0.00566137
0.00612353
0.00690566
0.00529029
0.00575181
0.00624079
0.00703041
0.00523801
0.00582205
0.00634974
0.0071544
0.00515218
0.00576588
0.00644755
0.00727466
0.00503417
0.00540102
0.00653113
0.00738813
0.00488632
0.00503405
0.00659759
0.00749141
0.00471112
0.00490286
0.0066448
0.00758097
0.00451097
0.00505686
0.0066717
0.00765403
0.00428854
0.00536033
0.00667862
0.00770982
0.00404652
0.00567529
0.00666724
0.00775078
0.00378718
0.00591897
0.0066404
0.00619673
0.00351255
0.00601953
0.00660171
0.00509315
0.00322456
0.00599628
0.0065551
0.00506651
0.00292608
0.00595695
0.0065062
0.0060448
0.00262573
0.00590054
0.0064587
0.00751941
0.00233554
0.00582476
0.00640982
0.00828788
0.00206365
0.00572567
0.00635807
0.0084004
0.00182043
0.00473657
0.00630159
0.0085092
0.00161232
0.00363487
0.0062364
0.00861527
0.00144349
0.00304018
0.0061611
0.00871928
0.00132183
0.00313073
0.00607635
0.00882154
0.00126139
0.0039439
0.00598185
0.00892284
0.00127426
0.00474341
0.00587669
0.00902651
0.00136459
0.00462693
0.00575877
0.00913031
0.00153492
0.00453992
0.00562438
0.009227
0.00178553
0.00449194
0.0054693
0.00931555
0.00211301
0.00448263
0.00528808
0.00939957
0.00250791
0.00451076
0.00507894
0.00948227
0.00294833
0.00457435
0.00484216
0.00956551
0.00339359
0.00467055
0.0045803
0.00964832
0.00381501
0.00479606
0.00429765
0.00972743
0.00420006
0.004948
0.00400107
0.00980229
0.0045407
0.00512504
0.00370211
0.00987111
0.00483233
0.0120839
0.0115552
0.00316345
0.00551752
0.0122381
0.0116124
0.00262358
0.00751763
0.0123435
0.0115921
0.00657616
0.0117426
0.0123932
0.0115033
0.00707515
0.0115829
0.0123834
0.0113727
0.00674858
0.0114685
0.0123315
0.0112218
0.00730187
0.0113806
0.0122624
0.0110591
0.00716437
0.0112945
0.012178
0.0108883
0.00703859
0.0112019
0.0120801
0.0107109
0.00557159
0.0110716
0.0119712
0.0105246
0.00638631
0.0108762
0.011855
0.0103244
0.00447424
0.0106269
0.0117343
0.0101052
0.00184097
0.0103307
0.01161
0.00986321
0.00214062
0.0100049
0.0114872
0.00959609
0.00449196
0.00966767
0.0113794
0.00930234
0.00566175
0.0093347
0.0112554
0.00898228
0.00539348
0.00901624
0.0047046
0.00864568
0.00513045
0.00871419
0.00390258
0.00830423
0.00490107
0.00844376
0.00618219
0.00796088
0.00473277
0.00821738
0.011065
0.00761872
0.00462562
0.00796419
0.011003
0.00728153
0.00458484
0.00350217
0.0109311
0.00695354
0.00460636
0.00275185
0.0108464
0.00663927
0.00220422
0.00414404
0.0107365
0.00634338
0.00193179
0.00701448
0.0105914
0.00606922
0.00278105
0.00682743
0.0104076
0.0058165
0.00498119
0.00664873
0.010187
0.00557322
0.00496114
0.00646972
0.00993468
0.00533696
0.00493077
0.0062797
0.00965706
0.00511012
0.00488173
0.00607264
0.00936074
0.00489357
0.0048089
0.00584754
0.00905174
0.00468735
0.00471313
0.00560701
0.00873515
0.00449101
0.0046009
0.00535417
0.00841507
0.00430381
0.00448091
0.0050959
0.00809462
0.00412484
0.00436971
0.00483884
0.00777606
0.00395316
0.00427825
0.00458802
0.00746095
0.00378786
0.00420897
0.00434649
0.00715031
0.0036295
0.00415602
0.00411565
0.0068436
0.00348091
0.00220083
0.00389568
0.00654028
0.00334457
0.00192983
0.00368608
0.00624086
0.00322093
0.0025303
0.0034856
0.00594572
0.00310976
0.00365976
0.00329281
0.00565506
0.00300699
0.00399601
0.00310665
0.00536903
0.00291231
0.00390125
0.00292634
0.00508838
0.00282506
0.00378966
0.00275128
0.00481597
0.00274465
0.00366318
0.002581
0.00454347
0.00267201
0.00352634
0.00241527
0.00382922
0.00260828
0.00337727
0.00225401
0.00254143
0.00227728
0.00260809
0.00209731
0.00233604
0.00158473
0.00229486
0.00194523
0.00271941
0.00144617
0.00239671
0.00179774
0.00322304
0.00167067
0.0026019
0.00165501
0.00317088
0.00201435
0.00264093
0.00151713
0.00294897
0.00214127
0.00248265
0.00138383
0.00272141
0.00202238
0.00231876
0.0011827
0.00249134
0.0018929
0.00215048
0.000992368
0.0022622
0.00175494
0.00190391
0.000865781
0.00203669
0.00161133
0.0016801
0.000786772
0.00181685
0.00143611
0.00149889
0.000723014
0.00155873
0.0012369
0.00134624
0.000651356
0.0013265
0.00106395
0.00120447
0.000568335
0.00113177
0.000924335
0.00106464
0.000482211
0.000965358
0.000807018
0.00092592
0.00039001
0.000815684
0.000698842
0.000790624
0.000304362
0.000677498
0.000593928
0.00066155
0.000228515
0.000535881
0.000492757
0.000526903
0.00016412
0.000400332
0.000392484
0.000395826
0.000112103
0.000282619
0.000287155
0.000280119
7.24281e-05
0.000186349
0.000196125
0.00018435
4.40428e-05
0.000113443
0.000123247
0.000111398
2.5083e-05
6.30759e-05
7.02565e-05
6.11122e-05
1.32979e-05
3.17207e-05
3.58722e-05
3.01531e-05
6.50475e-06
1.42735e-05
1.62164e-05
1.32549e-05
2.89503e-06
5.65115e-06
6.39305e-06
5.11325e-06
1.14689e-06
1.9095e-06
2.13754e-06
1.68124e-06
3.90704e-07
5.20673e-07
5.73982e-07
4.45958e-07
1.08184e-07
1.0336e-07
1.1157e-07
8.61244e-08
2.20895e-08
1.2397e-08
1.30073e-08
9.99826e-09
2.82684e-09
9.38987e-10
9.71764e-10
6.59012e-10
2.88012e-10
4.85279e-10
5.09131e-10
2.86108e-10
1.79102e-10
0.00339238
0.003918
0.00850814
0.00129282
0.00342619
0.00426536
0.00870041
0.00184872
0.00345489
0.00461885
0.00887789
0.00247394
0.00347563
0.00497244
0.00904261
0.00307437
0.00348183
0.00532506
0.00919576
0.00361628
0.00347318
0.00567653
0.00933769
0.00409241
0.00345016
0.00602826
0.00946785
0.00450161
0.00341441
0.00637951
0.00958538
0.00484695
0.00336826
0.00672778
0.0096893
0.00513334
0.00331564
0.00706945
0.00977895
0.00536683
0.00326189
0.00740055
0.00985379
0.00555417
0.00321381
0.00771691
0.00991421
0.00570229
0.0031793
0.00801425
0.00995959
0.00581799
0.0031669
0.00828822
0.00998595
0.00590816
0.00318518
0.0085344
0.00998792
0.00598006
0.00324249
0.00874805
0.00996314
0.00604156
0.00334605
0.00891853
0.00991178
0.00608937
0.00349698
0.00903724
0.00983582
0.00612753
0.003691
0.00910536
0.00973854
0.00616289
0.00390226
0.00912452
0.0096241
0.00620204
0.00411218
0.009097
0.00949756
0.00624967
0.00430833
0.00902586
0.00936461
0.00630709
0.00448209
0.008915
0.00923148
0.00636836
0.00463055
0.00876923
0.00910414
0.00642503
0.00475341
0.00859449
0.00898337
0.00647059
0.00485049
0.00839802
0.00886444
0.00650071
0.00492172
0.00819768
0.00874155
0.00651269
0.00496717
0.00800171
0.00860968
0.00650505
0.004987
0.00781169
0.00846561
0.00647723
0.00498176
0.00762824
0.00830659
0.00642943
0.00495282
0.00738739
0.00813117
0.00636159
0.00490216
0.00715121
0.00793945
0.0062741
0.00483233
0.00701339
0.00773178
0.0061685
0.00474628
0.00692544
0.00750853
0.00604655
0.00464712
0.0067943
0.00727066
0.00591005
0.00453777
0.00663021
0.00701877
0.00576079
0.0044207
0.00645767
0.00675383
0.0056004
0.00429783
0.00627389
0.0064775
0.00543039
0.00417072
0.00607721
0.00619251
0.00525213
0.00404137
0.00586397
0.0059031
0.00506687
0.00390996
0.00563478
0.0056138
0.00487577
0.0037745
0.0053921
0.00532735
0.00467947
0.00363341
0.00511689
0.00504521
0.00446225
0.00348607
0.00481721
0.00476803
0.00422418
0.00333273
0.00452723
0.00449599
0.00398524
0.00317435
0.00425279
0.00422888
0.00374717
0.00301236
0.00398983
0.00396684
0.00351151
0.00284743
0.00372868
0.00371027
0.00328016
0.00268041
0.0034539
0.00345776
0.00305445
0.00251265
0.00315862
0.00318184
0.00283507
0.00234475
0.00286117
0.00291185
0.00262156
0.00217774
0.00258658
0.0026556
0.00241058
0.00201197
0.00234059
0.00241436
0.00220673
0.00184776
0.00211955
0.00217814
0.00201012
0.00167016
0.00191855
0.00195994
0.00181993
0.00147504
0.00173256
0.00175965
0.00163606
0.00129722
0.00155797
0.00157409
0.00145941
0.00113978
0.00139248
0.0014001
0.00129107
0.000998633
0.00123487
0.00123573
0.00113174
0.000868892
0.0010847
0.0010803
0.000981597
0.000747899
0.000942039
0.000933717
0.000840759
0.000634989
0.000807177
0.000796255
0.000708657
0.000530402
0.00068056
0.000668343
0.000579971
0.000433816
0.00056181
0.000549768
0.000452036
0.000333364
0.000441266
0.000427287
0.00033846
0.000243232
0.00032707
0.000316634
0.000241492
0.000167458
0.0002293
0.000222111
0.000162759
0.000107659
0.000150327
0.000145884
0.000102691
6.39702e-05
9.1081e-05
8.86915e-05
6.01482e-05
3.48018e-05
5.04347e-05
4.93574e-05
3.24547e-05
1.7181e-05
2.52571e-05
2.48714e-05
1.60019e-05
7.61424e-06
1.13084e-05
1.12105e-05
7.12834e-06
2.97714e-06
4.44974e-06
4.43985e-06
2.81533e-06
9.95915e-07
1.49317e-06
1.49876e-06
9.5413e-07
2.69886e-07
4.04701e-07
4.08596e-07
2.62248e-07
5.37902e-08
8.03068e-08
8.16759e-08
5.29712e-08
6.85246e-09
9.95262e-09
1.03049e-08
6.78302e-09
9.22309e-10
1.07079e-09
1.23823e-09
8.50536e-10
6.91486e-10
6.99356e-10
8.72463e-10
6.05224e-10
0.014283
0.0115169
0.00783155
0.0115533
0.0143407
0.0115822
0.00779861
0.0115821
0.0143745
0.00520109
0.00776488
0.0115964
0.0143903
0.00425773
0.00773417
0.0115847
0.014392
0.00625342
0.00770836
0.0115399
0.0143806
0.0113528
0.00768781
0.0114596
0.0143535
0.0111372
0.00767373
0.0113431
0.0143067
0.0109388
0.00766537
0.011196
0.0142357
0.0107527
0.00766102
0.0110182
0.0141356
0.0105688
0.00766052
0.0108143
0.0140021
0.0103783
0.00766644
0.0105911
0.0138319
0.010175
0.00766487
0.0103537
0.0136243
0.00995443
0.00765212
0.0101044
0.013383
0.00971531
0.00762562
0.0098467
0.0131189
0.0094564
0.00760701
0.00958686
0.0128547
0.00917729
0.00759722
0.00932894
0.0126134
0.0088682
0.00759781
0.00477397
0.0124021
0.00852132
0.00761323
0.00543773
0.0122012
0.00814496
0.00764948
0.00840457
0.0120124
0.00774664
0.00769386
0.0081605
0.0118309
0.00733763
0.00772854
0.0079314
0.00660216
0.00693055
0.00775408
0.00769628
0.00521465
0.00653888
0.00776999
0.00746277
0.00933929
0.00617653
0.00777556
0.00723439
0.0110165
0.00585623
0.00776994
0.00701264
0.0108547
0.00558879
0.00775254
0.00679723
0.0106785
0.00538531
0.0077225
0.00658748
0.0104628
0.00524013
0.00767929
0.00638248
0.0102061
0.00513493
0.00762282
0.00618091
0.00990073
0.00505436
0.0075539
0.00598061
0.00955351
0.00498863
0.00748156
0.0057847
0.00917223
0.00493488
0.00741239
0.00559229
0.00876949
0.00488703
0.00734182
0.00540273
0.00836139
0.00483796
0.00726051
0.00521562
0.00796559
0.00478229
0.00716794
0.0050307
0.00759972
0.00471557
0.00706379
0.00484776
0.00727143
0.00463657
0.006948
0.00466666
0.00427886
0.00454448
0.00682086
0.00448728
0.00298063
0.0044387
0.0066824
0.00430949
0.00349797
0.0043231
0.0065325
0.00413319
0.00602192
0.00420014
0.0063712
0.0039579
0.00583426
0.00407232
0.00619854
0.00378322
0.00564954
0.00394182
0.00601472
0.0036089
0.00544296
0.00381022
0.00582011
0.0034348
0.00520927
0.00367841
0.00561523
0.00326087
0.00495344
0.00354663
0.00540075
0.00308713
0.0046829
0.00341465
0.00517738
0.00291372
0.00440468
0.0032811
0.00494598
0.00274082
0.00412422
0.00314206
0.00470748
0.00256867
0.0038448
0.00299783
0.00446286
0.00239756
0.00356912
0.0028488
0.00421318
0.00222785
0.00329855
0.00269544
0.0039596
0.00205938
0.00303436
0.00253124
0.00370331
0.00188855
0.00277767
0.00235576
0.0034401
0.00171418
0.0025049
0.00218381
0.00315094
0.00154252
0.00223152
0.00201024
0.00286209
0.00137399
0.00196795
0.00182633
0.00257813
0.00120993
0.00171498
0.00162843
0.00230242
0.00105336
0.00147856
0.0014281
0.00203565
0.00090878
0.00126937
0.00124786
0.0017789
0.000779479
0.00109432
0.00109831
0.00153789
0.000664615
0.000943208
0.000968377
0.00132126
0.000559583
0.000801884
0.000843773
0.0011298
0.000455135
0.000666203
0.000720251
0.000955744
0.00035112
0.000538858
0.000600148
0.000793403
0.000259707
0.00041096
0.000486309
0.00064152
0.000182842
0.000290779
0.000379482
0.00050165
0.000121638
0.000192182
0.000268097
0.000362939
7.59479e-05
0.000117125
0.000174916
0.000238035
4.42375e-05
6.49975e-05
0.000103448
0.000141426
2.39023e-05
3.2452e-05
5.44158e-05
7.45545e-05
1.1903e-05
1.43916e-05
2.5002e-05
3.42185e-05
5.40845e-06
5.56939e-06
9.84936e-06
1.34316e-05
2.20171e-06
1.82685e-06
3.23979e-06
4.39827e-06
7.76374e-07
4.82596e-07
8.47277e-07
1.14552e-06
2.23065e-07
9.35103e-08
1.60064e-07
2.15632e-07
4.6842e-08
1.12692e-08
1.83379e-08
2.44642e-08
6.10473e-09
1.06259e-09
1.51644e-09
1.77485e-09
7.24156e-10
7.12908e-10
9.24214e-10
9.34567e-10
4.71319e-10
0.00531786
0.00342388
0.00993551
0.00507404
0.00551684
0.00320455
0.00999897
0.0052737
0.00570748
0.00309
0.0100599
0.00544033
0.00557209
0.00313712
0.0101202
0.00558685
0.00518971
0.00335558
0.00853905
0.00572175
0.00608228
0.0036976
0.00707091
0.00584803
0.00628734
0.00411564
0.00914408
0.00596734
0.00635941
0.00457257
0.0103928
0.00607991
0.00641275
0.00504303
0.0104131
0.00618487
0.00645216
0.00551033
0.0103988
0.00628178
0.0064794
0.00596371
0.0103465
0.00636823
0.00649633
0.00639505
0.0102716
0.00644408
0.00650465
0.00679923
0.0101888
0.00650904
0.00592227
0.00717244
0.0100857
0.00656325
0.00470903
0.00751204
0.0099383
0.00660719
0.00431109
0.0078165
0.00975597
0.00664156
0.0050727
0.00807623
0.0095503
0.00666862
0.00635355
0.00828781
0.00704233
0.00669055
0.00631059
0.00845527
0.00500131
0.00670811
0.00626623
0.00858203
0.00473858
0.00672155
0.00622179
0.00867071
0.00621218
0.00673098
0.00617988
0.00858326
0.0085861
0.00674751
0.00614359
0.00719666
0.00851339
0.00676568
0.00611384
0.00582887
0.00846552
0.00678107
0.00608755
0.0054868
0.00843277
0.00678937
0.00606005
0.0062689
0.00840064
0.00678688
0.00602724
0.00767192
0.00835861
0.00677016
0.00598584
0.00845752
0.00829872
0.00673649
0.00593352
0.0083255
0.00821543
0.00668405
0.00586872
0.00815688
0.0081059
0.0064434
0.00579078
0.00785601
0.00796426
0.00614919
0.0056986
0.00751401
0.00778961
0.00592488
0.00559196
0.00706965
0.0075909
0.00576404
0.00547235
0.00649402
0.00738069
0.00561466
0.00534185
0.00590269
0.00696433
0.00544635
0.00520285
0.00541712
0.00584626
0.00525653
0.00505794
0.005065
0.00485086
0.00505573
0.00490987
0.00482157
0.0045388
0.00485275
0.00476123
0.00464895
0.00498013
0.00465077
0.00461351
0.00451057
0.00578259
0.00445092
0.00446616
0.00438096
0.00589695
0.00425451
0.00431763
0.00424801
0.0057211
0.00406271
0.00416662
0.00410717
0.00553308
0.00387557
0.00381087
0.00395614
0.00533201
0.00369222
0.00326777
0.00379373
0.00511743
0.00351164
0.00288887
0.00362069
0.00480577
0.00333331
0.00281001
0.00344025
0.00447192
0.00315718
0.00296995
0.00325991
0.00417923
0.0029832
0.00313413
0.00309189
0.00396336
0.00281109
0.00299367
0.00294437
0.00379469
0.00264036
0.00282574
0.00280951
0.00362024
0.00246984
0.00263043
0.00267053
0.00341007
0.00229558
0.00238527
0.00251798
0.00316839
0.00211981
0.00215134
0.00235006
0.00291397
0.00194885
0.00193068
0.00216661
0.00265989
0.00178386
0.00173557
0.00198077
0.00241441
0.00162467
0.00156244
0.00179575
0.00218015
0.00147034
0.00139929
0.00161309
0.00195515
0.00131996
0.00124071
0.00143425
0.0017379
0.00117322
0.00108677
0.00126062
0.00152806
0.00103061
0.000938895
0.00109356
0.00132612
0.000892989
0.000797797
0.000934144
0.00113257
0.000760306
0.000664148
0.000782275
0.000948463
0.00062413
0.000530245
0.000629231
0.000773892
0.000486888
0.000399989
0.000481022
0.000597374
0.000363995
0.000286789
0.000350485
0.000440518
0.000258696
0.000193522
0.000240981
0.000307189
0.000173296
0.000121691
0.000154703
0.00020029
0.000108504
7.06699e-05
9.17887e-05
0.000120732
6.30123e-05
3.76122e-05
4.98824e-05
6.65804e-05
3.37051e-05
1.82126e-05
2.46265e-05
3.32677e-05
1.64792e-05
7.944e-06
1.09322e-05
1.4897e-05
7.2825e-06
3.06676e-06
4.28839e-06
5.87707e-06
2.85372e-06
1.01474e-06
1.43998e-06
1.98073e-06
9.59063e-07
2.71755e-07
3.90946e-07
5.39195e-07
2.60815e-07
5.30579e-08
7.73772e-08
1.06924e-07
5.16929e-08
6.19024e-09
9.25359e-09
1.27212e-08
6.1492e-09
3.55432e-10
6.85152e-10
8.19575e-10
4.0199e-10
1.10604e-10
3.46694e-10
3.26983e-10
1.66179e-10
)
;

boundaryField
{
    leftWall
    {
        type            calculated;
        value           uniform 0;
    }
    rightWall
    {
        type            calculated;
        value           uniform 0;
    }
    leftSides_periodic0
    {
        type            cyclic;
    }
    leftSides_periodic1
    {
        type            cyclic;
    }
    rightSides_periodic0
    {
        type            cyclic;
    }
    rightSides_periodic1
    {
        type            cyclic;
    }
    leftInOut_periodic0
    {
        type            cyclic;
    }
    leftInOut_periodic1
    {
        type            cyclic;
    }
    rightInOut_periodic0
    {
        type            cyclic;
    }
    rightInOut_periodic1
    {
        type            cyclic;
    }
}


// ************************************************************************* //
