/*--------------------------------*- C++ -*----------------------------------*\
| =========                 |                                                 |
| \\      /  F ield         | OpenFOAM: The Open Source CFD Toolbox           |
|  \\    /   O peration     | Version:  v1912                                 |
|   \\  /    A nd           | Website:  www.openfoam.com                      |
|    \\/     M anipulation  |                                                 |
\*---------------------------------------------------------------------------*/
FoamFile
{
    version     2.0;
    format      ascii;
    class       volVectorField;
    location    "97.6";
    object      UMean;
}
// * * * * * * * * * * * * * * * * * * * * * * * * * * * * * * * * * * * * * //

dimensions      [0 1 -1 0 0 0 0];


internalField   nonuniform List<vector> 
2528
(
(0.0001374 -0.0001692 -0.00848813)
(-0.000208578 -8.71303e-06 -0.00561788)
(-0.000138717 6.6639e-06 -0.00765652)
(5.54204e-05 -4.32077e-06 -0.00868312)
(0.000896012 0.000432528 -0.0225848)
(-0.000507815 -2.12295e-05 -0.0145305)
(-0.000899347 1.36422e-05 -0.0201369)
(5.5472e-05 -1.87851e-05 -0.0233235)
(0.00199433 -0.000287064 -0.0350086)
(-0.000635606 -3.94459e-05 -0.0221397)
(-0.0019988 2.36414e-05 -0.0309291)
(-0.000111449 -4.17067e-05 -0.0363604)
(0.0030567 0.000275379 -0.0469255)
(-0.00071935 -5.86881e-05 -0.0294759)
(-0.00306287 3.07973e-05 -0.041263)
(-0.000315607 -7.33126e-05 -0.0487877)
(0.00397808 -1.59264e-05 -0.0584619)
(-0.00082409 -7.42004e-05 -0.036674)
(-0.00398777 3.56268e-05 -0.0513368)
(-0.000493027 -0.000109275 -0.0607129)
(0.00481362 8.28407e-05 -0.0693848)
(-0.000942099 -8.8772e-05 -0.0435466)
(-0.00483009 3.93984e-05 -0.0609448)
(-0.000650908 -0.000150617 -0.0719721)
(0.00558306 7.33125e-05 -0.0796285)
(-0.00106713 -0.000101702 -0.0500456)
(-0.00561043 4.21378e-05 -0.0700353)
(-0.000794938 -0.000196692 -0.0825464)
(0.00629331 7.90154e-05 -0.0891867)
(-0.00119538 -0.000112795 -0.0561716)
(-0.00633591 4.40367e-05 -0.0786041)
(-0.000928104 -0.000247267 -0.0924551)
(0.00694642 7.80996e-05 -0.0980633)
(-0.00132368 -0.000121968 -0.061937)
(-0.00700842 4.52548e-05 -0.0866516)
(-0.00105232 -0.000302213 -0.101709)
(0.00754231 7.92858e-05 -0.10627)
(-0.00144926 -0.000129129 -0.0673505)
(-0.00762774 4.57605e-05 -0.0941747)
(-0.00116842 -0.000361193 -0.110317)
(0.00808027 7.98349e-05 -0.113837)
(-0.00156971 -0.000134233 -0.0724168)
(-0.00819262 4.54517e-05 -0.10118)
(-0.00127658 -0.000423933 -0.118299)
(0.00856156 7.93067e-05 -0.120814)
(-0.00168324 -0.000137238 -0.0771415)
(-0.00870204 4.44628e-05 -0.107693)
(-0.00137705 -0.00049024 -0.125699)
(0.00899041 7.75922e-05 -0.127255)
(-0.00178878 -0.000138094 -0.0815375)
(-0.0091576 4.29179e-05 -0.113757)
(-0.0014704 -0.000559624 -0.132568)
(0.00937281 7.50351e-05 -0.133196)
(-0.00188597 -0.000136789 -0.0856253)
(-0.00956375 4.06329e-05 -0.119406)
(-0.00155732 -0.000631715 -0.138944)
(0.00971515 7.21068e-05 -0.138669)
(-0.00197497 -0.00013333 -0.089432)
(-0.00992668 3.74552e-05 -0.12466)
(-0.00163811 -0.000706362 -0.144863)
(0.0100223 6.87962e-05 -0.143715)
(-0.00205638 -0.000127756 -0.0929889)
(-0.0102518 3.35951e-05 -0.129546)
(-0.00171305 -0.000783522 -0.150356)
(0.0102981 6.50421e-05 -0.148375)
(-0.00213093 -0.000120022 -0.0963279)
(-0.010543 2.94392e-05 -0.134094)
(-0.00178273 -0.000863003 -0.155457)
(0.0105456 6.09432e-05 -0.152687)
(-0.00219929 -0.000110001 -0.0994779)
(-0.0108035 2.50799e-05 -0.138335)
(-0.00184781 -0.000944974 -0.160202)
(0.0107668 5.65531e-05 -0.156689)
(-0.00226185 -9.76639e-05 -0.102463)
(-0.0110352 2.05766e-05 -0.142301)
(-0.00190893 -0.00102856 -0.164621)
(0.0109635 5.2001e-05 -0.160419)
(-0.00231877 -8.2986e-05 -0.105305)
(-0.0112397 1.58712e-05 -0.146021)
(-0.00196673 -0.00111428 -0.168747)
(0.0111371 4.74702e-05 -0.163909)
(-0.00237029 -6.5946e-05 -0.108025)
(-0.0114181 1.11494e-05 -0.149526)
(-0.00202209 -0.00120156 -0.172612)
(0.0112885 4.29608e-05 -0.167193)
(-0.00241679 -4.65034e-05 -0.110643)
(-0.0115714 6.81797e-06 -0.152844)
(-0.00207646 -0.00128769 -0.176267)
(0.0114189 3.84912e-05 -0.1703)
(-0.00245871 -2.45727e-05 -0.113171)
(-0.0117009 2.89563e-06 -0.156003)
(-0.00213238 -0.00137655 -0.179793)
(0.0115296 3.41948e-05 -0.173254)
(-0.00249644 -1.86409e-07 -0.115626)
(-0.0118085 -4.98584e-07 -0.159019)
(-0.0021919 -0.00147114 -0.183268)
(0.0116224 3.01604e-05 -0.17607)
(-0.00253038 2.66466e-05 -0.118019)
(-0.0118962 -3.54172e-06 -0.161903)
(-0.00225298 -0.00156843 -0.18669)
(0.0116991 2.66839e-05 -0.17876)
(-0.00256091 5.59658e-05 -0.120358)
(-0.0119659 -6.20459e-06 -0.164663)
(-0.00230809 -0.00166203 -0.189901)
(0.0117611 2.38022e-05 -0.181334)
(-0.00258827 8.77473e-05 -0.122651)
(-0.0120192 -8.10103e-06 -0.167307)
(-0.00235284 -0.00174993 -0.192774)
(0.0118094 2.15822e-05 -0.183805)
(-0.00261262 0.000121974 -0.124903)
(-0.012057 -9.16551e-06 -0.169847)
(-0.00239238 -0.0018392 -0.195403)
(0.0118447 1.99467e-05 -0.186183)
(-0.00263407 0.000158558 -0.127116)
(-0.01208 -9.72334e-06 -0.172296)
(-0.00243295 -0.00193915 -0.197904)
(0.0118681 1.87435e-05 -0.188478)
(-0.00265278 0.000197449 -0.129291)
(-0.0120888 -9.86455e-06 -0.174666)
(-0.00247599 -0.0020346 -0.20028)
(0.0118802 1.82912e-05 -0.190701)
(-0.00266891 0.000238661 -0.131432)
(-0.0120847 -9.13516e-06 -0.176966)
(-0.00252652 -0.00212329 -0.202601)
(0.011882 1.85987e-05 -0.192859)
(-0.00268262 0.000282138 -0.133541)
(-0.0120692 -2.82587e-06 -0.179192)
(-0.00259521 -0.00222574 -0.205093)
(0.0118745 1.95006e-05 -0.194952)
(-0.00269397 0.000327845 -0.135619)
(-0.0120443 -5.78544e-06 -0.181341)
(-0.00268443 -0.00233896 -0.207927)
(0.0118591 1.70819e-05 -0.196981)
(-0.0027031 0.000375764 -0.137668)
(-0.0119911 -1.3261e-05 -0.183527)
(-0.00277368 -0.00244998 -0.210788)
(0.0118381 2.32899e-05 -0.19894)
(-0.00271031 0.000425877 -0.139689)
(-0.0118798 -3.32629e-07 -0.185985)
(-0.00281841 -0.00253134 -0.212848)
(0.0117902 3.50314e-05 -0.200962)
(-0.00271591 0.000477904 -0.141682)
(-0.0117187 2.17526e-05 -0.188857)
(-0.00283219 -0.00261184 -0.214362)
(0.0116771 3.51149e-05 -0.203365)
(-0.00272024 0.000532266 -0.143651)
(-0.0115585 4.21365e-05 -0.191772)
(-0.00284212 -0.0027057 -0.21582)
(0.0115003 2.95454e-05 -0.206388)
(-0.00272302 0.000586781 -0.145596)
(-0.0114742 3.31536e-05 -0.193855)
(-0.00285698 -0.0028156 -0.217324)
(0.0113153 2.08061e-05 -0.209637)
(-0.00272367 0.000640435 -0.147517)
(-0.0114298 2.14116e-05 -0.195368)
(-0.00287163 -0.00291917 -0.218757)
(0.0112343 2.8858e-05 -0.211796)
(-0.00272096 0.000699086 -0.149409)
(-0.0113652 2.85035e-05 -0.196879)
(-0.00288262 -0.00301257 -0.220065)
(0.0112218 5.32807e-05 -0.213108)
(-0.00271304 0.000764106 -0.151273)
(-0.0112661 5.08622e-05 -0.198513)
(-0.00289193 -0.00311084 -0.221257)
(0.0111957 6.82111e-05 -0.214364)
(-0.00270018 0.000839836 -0.153114)
(-0.0111515 6.65599e-05 -0.20012)
(-0.00290066 -0.0032097 -0.222347)
(0.0111281 7.30556e-05 -0.215817)
(-0.00266936 0.00091155 -0.155058)
(-0.011034 7.79631e-05 -0.201626)
(-0.00290911 -0.00330947 -0.223346)
(0.0110386 7.4252e-05 -0.217325)
(-0.00259603 0.000961786 -0.15743)
(-0.0109151 8.72824e-05 -0.203027)
(-0.00291708 -0.0034095 -0.224262)
(0.0109446 7.98304e-05 -0.218773)
(-0.00247852 0.00100958 -0.160551)
(-0.0107664 8.89299e-05 -0.20456)
(-0.00292434 -0.00350959 -0.225098)
(0.0108458 8.84595e-05 -0.220155)
(-0.00234094 0.00107303 -0.164201)
(-0.0105215 0.000103764 -0.206787)
(-0.00293056 -0.00360964 -0.225855)
(0.0107417 9.50816e-05 -0.221475)
(-0.00227392 0.00116973 -0.166746)
(-0.0101476 0.00013458 -0.210103)
(-0.0029354 -0.00370925 -0.226537)
(0.0106332 9.76339e-05 -0.222725)
(-0.00226352 0.00125335 -0.168178)
(-0.00970674 0.000170094 -0.213981)
(-0.0029387 -0.00380789 -0.227146)
(0.0105229 0.000111017 -0.223886)
(-0.00226328 0.00131737 -0.169434)
(-0.0094596 0.000172097 -0.215905)
(-0.00294075 -0.00390576 -0.227685)
(0.0103808 0.000130944 -0.225207)
(-0.0022535 0.00135968 -0.170925)
(-0.00934961 0.000166053 -0.21642)
(-0.002942 -0.00400343 -0.228159)
(0.0101296 0.000146732 -0.227349)
(-0.0022411 0.00140804 -0.172508)
(-0.00922351 0.000178196 -0.216964)
(-0.00294235 -0.00409874 -0.228572)
(0.00970988 0.000169631 -0.230859)
(-0.00223051 0.00148827 -0.174022)
(-0.00903544 0.000206531 -0.217903)
(-0.0029414 -0.00419758 -0.228929)
(0.00917303 0.000164618 -0.235285)
(-0.00221517 0.00160818 -0.175512)
(-0.00881788 0.000230381 -0.218961)
(-0.00293529 -0.00430948 -0.229226)
(0.00887933 0.000135998 -0.237245)
(-0.00219685 0.00171924 -0.177139)
(-0.00859724 0.000243449 -0.219936)
(-0.00292205 -0.00441957 -0.229427)
(0.00878123 0.000106685 -0.237584)
(-0.00218327 0.0017344 -0.178956)
(-0.0083582 0.00024928 -0.22093)
(-0.00291262 -0.00449884 -0.22952)
(0.00869861 0.000170583 -0.23821)
(-0.00215253 0.0017379 -0.180809)
(-0.00806149 0.000260296 -0.222289)
(-0.00292222 -0.0045358 -0.229631)
(0.00856391 0.0002441 -0.239284)
(-0.00207138 0.00180285 -0.183)
(-0.00768245 0.000298593 -0.224294)
(-0.00293771 -0.00459673 -0.23005)
(0.00839884 0.000247426 -0.240347)
(-0.00192283 0.00190187 -0.186175)
(-0.00721867 0.00035928 -0.226866)
(-0.00292412 -0.0047689 -0.230745)
(0.00820229 0.000221537 -0.241219)
(-0.00169767 0.00197425 -0.190788)
(-0.00683675 0.000351925 -0.228401)
(-0.00291354 -0.00491393 -0.231152)
(0.00798515 0.000217152 -0.241959)
(-0.0014029 0.0020129 -0.195582)
(-0.00655548 0.000333602 -0.228983)
(-0.00292332 -0.00497888 -0.231253)
(0.00776462 0.000220311 -0.242604)
(-0.00120434 0.00208051 -0.197886)
(-0.00628273 0.000349763 -0.229494)
(-0.00292248 -0.00503928 -0.231159)
(0.00754037 0.000217305 -0.24316)
(-0.00113136 0.0021529 -0.198658)
(-0.00597627 0.000382098 -0.230217)
(-0.00290719 -0.00512772 -0.23098)
(0.00731075 0.000212433 -0.24363)
(-0.00109365 0.00220937 -0.199504)
(-0.00565408 0.000403709 -0.23096)
(-0.00289054 -0.00521343 -0.230753)
(0.00707447 0.00020655 -0.244026)
(-0.0010307 0.00226 -0.20081)
(-0.00532855 0.000416057 -0.231611)
(-0.00287146 -0.0052958 -0.230478)
(0.00683046 0.000198509 -0.244358)
(-0.000953864 0.00229581 -0.202225)
(-0.00499121 0.000427159 -0.23226)
(-0.00284944 -0.00537683 -0.230155)
(0.0065775 0.000187829 -0.244635)
(-0.000885836 0.00231177 -0.203521)
(-0.00463217 0.000442844 -0.233003)
(-0.00282382 -0.00545577 -0.229783)
(0.00631413 0.000175223 -0.244867)
(-0.000815355 0.00235287 -0.204672)
(-0.00425281 0.000462889 -0.233784)
(-0.00279359 -0.00553192 -0.229363)
(0.00603911 0.000161835 -0.24506)
(-0.000717978 0.00247943 -0.20577)
(-0.00386772 0.000474669 -0.23445)
(-0.00275774 -0.00560511 -0.228894)
(0.00575246 0.000148093 -0.245221)
(-0.000608145 0.00261955 -0.207109)
(-0.00347924 0.000486134 -0.234989)
(-0.00271547 -0.00567515 -0.228373)
(0.00545547 0.000133373 -0.245354)
(-0.000524678 0.00255505 -0.208897)
(-0.00308085 0.00050745 -0.23546)
(-0.00266593 -0.00574183 -0.2278)
(0.00514877 0.000116944 -0.245462)
(-0.00042416 0.00248534 -0.210596)
(-0.00267504 0.00052779 -0.23586)
(-0.00260847 -0.00580506 -0.227174)
(0.00483158 9.87191e-05 -0.245545)
(-0.000285875 0.00252893 -0.212082)
(-0.00226026 0.000543956 -0.236197)
(-0.00254258 -0.00586475 -0.226492)
(0.00450208 7.94325e-05 -0.245605)
(-0.000140436 0.00258949 -0.213407)
(-0.00182682 0.000562413 -0.236583)
(-0.00246755 -0.00591988 -0.225747)
(0.00415946 5.95951e-05 -0.245635)
(7.31652e-07 0.00261066 -0.214591)
(-0.00137304 0.000576413 -0.23707)
(-0.00238228 -0.00597879 -0.224927)
(0.0038045 3.82697e-05 -0.245622)
(0.000141794 0.00262244 -0.21568)
(-0.00090147 0.000594343 -0.237612)
(-0.00229329 -0.00603065 -0.224113)
(0.00342661 1.72861e-05 -0.245632)
(0.000305907 0.00263051 -0.216873)
(-0.000417327 0.000617947 -0.23815)
(-0.00222427 -0.00605497 -0.223669)
(0.00298955 -8.49919e-07 -0.245909)
(0.0005027 0.0025993 -0.218665)
(7.59574e-05 0.000636513 -0.238644)
(-0.00216721 -0.00610421 -0.22388)
(0.00245251 -2.47973e-05 -0.246659)
(0.000692715 0.00256751 -0.221362)
(0.000578232 0.000660608 -0.239021)
(-0.00205205 -0.00615635 -0.223943)
(0.0018386 -4.98085e-05 -0.247532)
(0.000959656 0.002669 -0.225663)
(0.00109307 0.000665776 -0.239406)
(-0.00173445 -0.0061291 -0.220893)
(-0.000125067 -6.58144e-06 -0.00325375)
(-0.000208945 4.84707e-07 -0.00273758)
(7.84494e-05 -7.6201e-06 -0.00510325)
(0.000170812 1.21435e-06 -0.00427463)
(-0.000308611 -1.68169e-05 -0.00917917)
(-0.000477744 1.62277e-06 -0.00827578)
(0.000169983 -1.92832e-05 -0.0144883)
(0.000364396 2.32058e-06 -0.012525)
(-0.000387865 -3.56472e-05 -0.0149672)
(-0.000519515 -8.70143e-07 -0.0141347)
(0.000157829 -3.93841e-05 -0.02362)
(0.000331797 2.89895e-06 -0.0207711)
(-0.000435465 -5.31662e-05 -0.0210155)
(-0.000483536 -5.4505e-07 -0.0203014)
(0.000115641 -5.99598e-05 -0.032885)
(0.000223809 5.77418e-06 -0.0291589)
(-0.000491552 -7.21467e-05 -0.0273223)
(-0.000457501 -3.38386e-06 -0.0266502)
(8.36526e-05 -7.94431e-05 -0.0422299)
(0.000127949 6.17907e-06 -0.037605)
(-0.000547189 -9.20079e-05 -0.0337501)
(-0.000429682 -6.50249e-06 -0.0331036)
(5.36691e-05 -9.91632e-05 -0.0514832)
(3.32033e-05 6.63776e-06 -0.0459867)
(-0.000597971 -0.00011247 -0.0402092)
(-0.000395417 -1.00183e-05 -0.039599)
(2.19675e-05 -0.000118504 -0.0605324)
(-6.44909e-05 7.07778e-06 -0.0542205)
(-0.0006416 -0.000133168 -0.0466263)
(-0.000353289 -1.3641e-05 -0.0460718)
(-1.30713e-05 -0.000137219 -0.0692832)
(-0.000166095 7.58818e-06 -0.0622361)
(-0.000676865 -0.00015388 -0.052934)
(-0.000303668 -1.69589e-05 -0.0524533)
(-5.19395e-05 -0.000155083 -0.0776503)
(-0.000271033 8.45459e-06 -0.0699693)
(-0.000703274 -0.000174394 -0.0590705)
(-0.000248051 -1.96405e-05 -0.0586747)
(-9.44273e-05 -0.000171851 -0.0855673)
(-0.000377876 9.85189e-06 -0.0773645)
(-0.000720952 -0.000194505 -0.064985)
(-0.000188624 -2.14256e-05 -0.0646786)
(-0.000139669 -0.000187391 -0.093001)
(-0.000484812 1.19133e-05 -0.0843836)
(-0.000730647 -0.000214162 -0.0706451)
(-0.00012788 -2.20752e-05 -0.0704273)
(-0.000186551 -0.000201349 -0.0999544)
(-0.000589719 1.48182e-05 -0.091013)
(-0.000733754 -0.000233207 -0.0760394)
(-6.8414e-05 -2.13795e-05 -0.0759059)
(-0.000234424 -0.00021344 -0.106458)
(-0.000690786 1.84298e-05 -0.0972608)
(-0.000731575 -0.000251403 -0.0811743)
(-1.22937e-05 -1.93701e-05 -0.0811181)
(-0.000283204 -0.00022359 -0.112566)
(-0.000787165 2.25992e-05 -0.10316)
(-0.0007247 -0.000268648 -0.0860712)
(3.92938e-05 -1.60616e-05 -0.08609)
(-0.000332971 -0.000231808 -0.118332)
(-0.000878298 2.74475e-05 -0.108753)
(-0.000713335 -0.000284959 -0.0907522)
(8.55767e-05 -1.12564e-05 -0.090855)
(-0.000383617 -0.000238231 -0.123792)
(-0.00096403 3.31522e-05 -0.114072)
(-0.000697657 -0.000300435 -0.0952343)
(0.000126511 -4.69049e-06 -0.0954356)
(-0.000434916 -0.000242845 -0.128973)
(-0.00104472 3.99109e-05 -0.119136)
(-0.000678126 -0.000314948 -0.0995342)
(0.000162479 3.80302e-06 -0.0998449)
(-0.000486688 -0.000245616 -0.133902)
(-0.00112049 4.76818e-05 -0.123967)
(-0.000655493 -0.000328369 -0.103667)
(0.000193604 1.41774e-05 -0.104096)
(-0.00053875 -0.000246544 -0.138599)
(-0.00119124 5.63702e-05 -0.128579)
(-0.000630397 -0.000340668 -0.107644)
(0.000219897 2.6361e-05 -0.1082)
(-0.000590919 -0.000245597 -0.143085)
(-0.00125695 6.59224e-05 -0.132991)
(-0.000603271 -0.000351901 -0.111474)
(0.000241434 4.03239e-05 -0.112169)
(-0.000643008 -0.000242762 -0.147375)
(-0.00131766 7.62573e-05 -0.137215)
(-0.000574467 -0.000362173 -0.115166)
(0.000258371 5.60714e-05 -0.116011)
(-0.000694859 -0.000238105 -0.151484)
(-0.0013735 8.73503e-05 -0.141264)
(-0.000544255 -0.000371562 -0.118725)
(0.000270836 7.37733e-05 -0.119734)
(-0.000746339 -0.000231746 -0.155424)
(-0.0014245 9.92809e-05 -0.145147)
(-0.000512873 -0.000380154 -0.122161)
(0.000278799 9.36302e-05 -0.123342)
(-0.00079735 -0.000223809 -0.159205)
(-0.00147053 0.000112017 -0.148866)
(-0.000480649 -0.000388055 -0.125476)
(0.000282057 0.000115699 -0.126834)
(-0.000847805 -0.00021444 -0.162837)
(-0.00151137 0.000125237 -0.152425)
(-0.000448182 -0.00039534 -0.12868)
(0.000280444 0.000139881 -0.130211)
(-0.000897597 -0.000203798 -0.166332)
(-0.00154705 0.00013907 -0.155826)
(-0.00041635 -0.000402014 -0.131784)
(0.000274064 0.000165878 -0.133478)
(-0.000946544 -0.000192091 -0.169697)
(-0.00157763 0.000153272 -0.159076)
(-0.000386028 -0.000407902 -0.134802)
(0.00026324 0.000193381 -0.136639)
(-0.000994331 -0.000179531 -0.172943)
(-0.0016033 0.000168249 -0.162182)
(-0.000357468 -0.000412781 -0.137746)
(0.000248224 0.000222109 -0.139702)
(-0.0010405 -0.000166207 -0.17608)
(-0.00162416 0.00018445 -0.165164)
(-0.000329748 -0.000416725 -0.140614)
(0.000229091 0.000251926 -0.142679)
(-0.00108465 -0.000152011 -0.17912)
(-0.00164022 0.000200395 -0.168052)
(-0.000300694 -0.000420518 -0.143387)
(0.00020579 0.000282945 -0.145583)
(-0.00112676 -0.000136711 -0.18207)
(-0.00165259 0.000214529 -0.170891)
(-0.000268446 -0.000426128 -0.14604)
(0.000178255 0.000315629 -0.148425)
(-0.00116762 -0.000120062 -0.184931)
(-0.00166237 0.00022603 -0.173712)
(-0.000233889 -0.000432906 -0.148572)
(0.000146517 0.00035021 -0.151208)
(-0.00120898 -0.000101864 -0.187689)
(-0.00166931 0.00023646 -0.176506)
(-0.000199755 -0.000437292 -0.151012)
(0.000111041 0.000385759 -0.15393)
(-0.00125263 -8.6474e-05 -0.190325)
(-0.00167252 0.000249639 -0.179203)
(-0.000168148 -0.000441132 -0.153386)
(7.25668e-05 0.000421967 -0.156581)
(-0.00129782 -7.25872e-05 -0.192827)
(-0.00167056 0.000267518 -0.181735)
(-0.000142595 -0.000445686 -0.155708)
(3.04966e-05 0.000459478 -0.159154)
(-0.00134174 -5.68298e-05 -0.19521)
(-0.00166391 0.000286478 -0.184089)
(-0.000127685 -0.000447453 -0.15801)
(-1.63109e-05 0.000497542 -0.161657)
(-0.00138208 -4.35859e-05 -0.197506)
(-0.0016547 0.000302361 -0.186291)
(-0.000123555 -0.000445301 -0.160356)
(-6.68498e-05 0.000534382 -0.164135)
(-0.00141585 -2.82268e-05 -0.199751)
(-0.00164301 0.000315555 -0.18837)
(-0.000124114 -0.000440061 -0.162731)
(-0.000120659 0.000569391 -0.166647)
(-0.00144194 -7.51009e-06 -0.201975)
(-0.00162697 0.000327965 -0.190335)
(-0.000113996 -0.000444686 -0.16493)
(-0.000180131 0.000605028 -0.169195)
(-0.00146329 1.72935e-05 -0.204194)
(-0.00160604 0.000340042 -0.192196)
(-8.55853e-05 -0.000460125 -0.166816)
(-0.000248467 0.000646238 -0.171684)
(-0.00148602 4.26294e-05 -0.206349)
(-0.00158037 0.000356867 -0.193967)
(-4.99656e-05 -0.000472192 -0.1685)
(-0.0003257 0.000694521 -0.174007)
(-0.00151594 5.3617e-05 -0.208326)
(-0.0015483 0.000375831 -0.195674)
(-1.90013e-05 -0.000477546 -0.170137)
(-0.000405192 0.000744634 -0.176143)
(-0.00155097 5.72346e-05 -0.210112)
(-0.00151218 0.000384788 -0.197346)
(3.9043e-06 -0.000478138 -0.17177)
(-0.000481285 0.00079123 -0.178157)
(-0.00158439 6.83758e-05 -0.211787)
(-0.00147528 0.000388673 -0.199001)
(2.32225e-05 -0.00047741 -0.173363)
(-0.000556893 0.000833368 -0.180103)
(-0.00161299 8.65599e-05 -0.213421)
(-0.00143027 0.000395994 -0.200595)
(4.3915e-05 -0.000485893 -0.174893)
(-0.000636709 0.000873384 -0.181985)
(-0.0016375 0.000106749 -0.215024)
(-0.00137633 0.000413184 -0.202052)
(5.96253e-05 -0.000500525 -0.176432)
(-0.000720674 0.000912765 -0.183802)
(-0.00166028 0.000118477 -0.216578)
(-0.00132428 0.000431329 -0.203437)
(5.86509e-05 -0.000504726 -0.178145)
(-0.000807784 0.00095204 -0.185564)
(-0.00168172 0.000122081 -0.218078)
(-0.00127555 0.000437905 -0.204844)
(4.04414e-05 -0.000494983 -0.180166)
(-0.00089775 0.00099217 -0.187292)
(-0.00170017 0.000124042 -0.219536)
(-0.00122659 0.000441157 -0.206231)
(1.66105e-05 -0.000480652 -0.182353)
(-0.000990698 0.00103351 -0.189004)
(-0.00171622 0.00012516 -0.220948)
(-0.00117653 0.00045253 -0.207485)
(2.19911e-05 -0.000496818 -0.184024)
(-0.00108839 0.00107541 -0.190701)
(-0.00173093 0.000126668 -0.22231)
(-0.00112456 0.000467305 -0.208597)
(5.54532e-05 -0.000526329 -0.185151)
(-0.00119622 0.00111917 -0.192372)
(-0.00174424 0.000128331 -0.223631)
(-0.00106846 0.000478373 -0.209619)
(9.11835e-05 -0.00054608 -0.186128)
(-0.00131363 0.00116421 -0.194053)
(-0.00175563 0.000129283 -0.224916)
(-0.00100668 0.000484633 -0.210592)
(0.000115039 -0.000556719 -0.187151)
(-0.00143336 0.00120242 -0.195837)
(-0.00176514 0.00012865 -0.226162)
(-0.000938552 0.00048774 -0.211533)
(0.00012914 -0.000567724 -0.188197)
(-0.00156328 0.0012356 -0.197796)
(-0.00177333 0.000126375 -0.227353)
(-0.000864552 0.000491655 -0.212442)
(0.000138063 -0.000583299 -0.189216)
(-0.00172015 0.00127579 -0.199812)
(-0.00178131 0.000122348 -0.228475)
(-0.000785612 0.000497103 -0.213316)
(0.000142561 -0.000598418 -0.190204)
(-0.00189881 0.0013206 -0.201644)
(-0.00178966 0.000115257 -0.22952)
(-0.000701834 0.000501731 -0.214148)
(0.000142721 -0.000612006 -0.191167)
(-0.00207641 0.00136236 -0.203216)
(-0.0017969 0.00010334 -0.230499)
(-0.000612833 0.000504213 -0.214936)
(0.000138695 -0.000624889 -0.192102)
(-0.00224066 0.00139233 -0.204627)
(-0.00179926 8.73764e-05 -0.231439)
(-0.00051885 0.000504687 -0.215682)
(0.000130567 -0.000636979 -0.193007)
(-0.00239697 0.00141085 -0.205981)
(-0.00179542 6.87548e-05 -0.232349)
(-0.000419906 0.000502842 -0.216386)
(0.000118698 -0.000648264 -0.193877)
(-0.00254752 0.00142607 -0.207335)
(-0.00178547 4.83877e-05 -0.233228)
(-0.000315065 0.000498442 -0.217044)
(0.000103728 -0.000658763 -0.194711)
(-0.00268724 0.00144132 -0.208691)
(-0.00176946 2.62761e-05 -0.234076)
(-0.000203457 0.00049343 -0.217654)
(8.62417e-05 -0.000668476 -0.195507)
(-0.00281085 0.00145926 -0.210039)
(-0.00174754 1.9071e-06 -0.234893)
(-8.66962e-05 0.00048475 -0.218216)
(6.65585e-05 -0.000677481 -0.196271)
(-0.00291688 0.00148151 -0.211363)
(-0.00171987 -2.48373e-05 -0.235678)
(3.46459e-05 0.000470523 -0.218725)
(4.49616e-05 -0.000685813 -0.19701)
(-0.00300385 0.00150131 -0.212669)
(-0.00168668 -5.38144e-05 -0.236429)
(0.000161263 0.000454369 -0.219183)
(2.18642e-05 -0.000693472 -0.197734)
(-0.00307091 0.00151277 -0.213967)
(-0.00164843 -8.54248e-05 -0.237146)
(0.000292448 0.000438815 -0.219605)
(-2.31854e-06 -0.000700702 -0.198453)
(-0.00312193 0.001523 -0.215219)
(-0.00160534 -0.000120096 -0.237828)
(0.000427672 0.000421891 -0.219981)
(-2.7389e-05 -0.000707691 -0.199181)
(-0.00316149 0.00154113 -0.216357)
(-0.00155726 -0.000157498 -0.238479)
(0.000566902 0.000404599 -0.220304)
(-5.36095e-05 -0.000714468 -0.19993)
(-0.00319008 0.00156145 -0.217373)
(-0.00150438 -0.000197482 -0.239096)
(0.00070977 0.00038724 -0.220561)
(-8.18268e-05 -0.000721217 -0.200702)
(-0.003207 0.00157482 -0.218316)
(-0.00144724 -0.000240138 -0.239671)
(0.000855457 0.00036928 -0.220741)
(-0.000113496 -0.000727935 -0.201493)
(-0.00321154 0.00158134 -0.219236)
(-0.0013864 -0.000285341 -0.240197)
(0.00100262 0.000348426 -0.22083)
(-0.000150713 -0.00073474 -0.202306)
(-0.00320332 0.00158584 -0.220134)
(-0.00132275 -0.000332802 -0.240669)
(0.00114986 0.000324931 -0.220819)
(-0.000195902 -0.000742005 -0.203149)
(-0.00318201 0.00158832 -0.220996)
(-0.00125767 -0.000382374 -0.241081)
(0.00129542 0.000295111 -0.220696)
(-0.000251396 -0.000749777 -0.204033)
(-0.00314832 0.00158835 -0.221804)
(-0.00119238 -0.000434153 -0.241424)
(0.00143232 0.000255347 -0.220473)
(-0.000319215 -0.000755102 -0.204953)
(-0.00310369 0.00158907 -0.222534)
(-0.00112741 -0.000486473 -0.241695)
(0.00154567 0.000207935 -0.220207)
(-0.000401095 -0.000763909 -0.205885)
(-0.00304985 0.00158401 -0.223164)
(-0.00106272 -0.000544041 -0.241894)
(0.00162217 0.000146215 -0.219936)
(-0.000498148 -0.000774759 -0.206792)
(-0.00298925 0.00157643 -0.223664)
(-0.000998209 -0.000603998 -0.242021)
(0.00165445 7.78079e-05 -0.219651)
(-0.000611191 -0.000788528 -0.207639)
(-0.00292431 0.00156594 -0.223998)
(-0.000933581 -0.000663045 -0.242075)
(0.00164842 9.73556e-06 -0.219291)
(-0.000743391 -0.000812243 -0.20839)
(-0.00285649 0.00153079 -0.224138)
(-0.000865964 -0.000722802 -0.24204)
(0.00162893 -6.91474e-05 -0.218771)
(0.000627525 -1.85351e-06 -0.00409674)
(-0.000256052 3.11153e-06 -0.0015608)
(-0.000628061 -5.096e-06 -0.00333457)
(0.000131605 5.41248e-07 -0.00478727)
(0.00170947 -1.03037e-06 -0.0144864)
(-0.000425611 1.50395e-05 -0.00677824)
(-0.00171548 -6.79697e-06 -0.0122856)
(5.44316e-05 2.63938e-06 -0.0161857)
(0.00257019 -2.21505e-06 -0.0259672)
(-0.000481597 3.78163e-05 -0.0131292)
(-0.00258615 -1.54909e-05 -0.0224765)
(-0.000135276 3.72082e-06 -0.0284041)
(0.00332909 1.38832e-06 -0.0372798)
(-0.00058709 6.84483e-05 -0.0195588)
(-0.00335859 -1.61328e-05 -0.0326224)
(-0.000275356 3.80616e-06 -0.0403615)
(0.00405517 6.24902e-06 -0.0481807)
(-0.000735056 0.000105162 -0.025895)
(-0.00410257 -1.72871e-05 -0.0424516)
(-0.000371397 1.86587e-06 -0.0518579)
(0.00473708 1.31812e-05 -0.0588081)
(-0.000885269 0.000148024 -0.0323031)
(-0.00480651 -1.67652e-05 -0.0521111)
(-0.000461623 -2.14114e-06 -0.0630039)
(0.00536852 2.13942e-05 -0.0691565)
(-0.00102505 0.000196566 -0.0388087)
(-0.00546379 -1.53304e-05 -0.0616015)
(-0.000557344 -8.44987e-06 -0.0737965)
(0.00594659 3.08008e-05 -0.0791654)
(-0.00115202 0.000250275 -0.0453726)
(-0.00607109 -1.32037e-05 -0.0708671)
(-0.000660195 -1.69881e-05 -0.0841945)
(0.00647061 4.11092e-05 -0.0887595)
(-0.00126734 0.000308598 -0.0519321)
(-0.00662727 -1.0166e-05 -0.0798393)
(-0.000768704 -2.78595e-05 -0.0941499)
(0.00694199 5.22594e-05 -0.0978745)
(-0.00137304 0.000371295 -0.058421)
(-0.00713273 -6.35372e-06 -0.0884561)
(-0.000880046 -4.10443e-05 -0.103619)
(0.00736428 6.41178e-05 -0.10647)
(-0.00147084 0.000437782 -0.0647806)
(-0.00758975 -1.75721e-06 -0.0966701)
(-0.000990508 -5.63048e-05 -0.112571)
(0.00774303 7.58944e-05 -0.11454)
(-0.00156369 0.000507628 -0.070963)
(-0.00800259 3.29436e-06 -0.10446)
(-0.00109667 -7.39305e-05 -0.121019)
(0.00808474 8.84007e-05 -0.122114)
(-0.00165413 0.000581093 -0.0769307)
(-0.00837664 8.70409e-06 -0.111839)
(-0.00119652 -9.38992e-05 -0.129002)
(0.00839493 0.000102467 -0.129231)
(-0.00174344 0.000657569 -0.0826655)
(-0.0087166 1.52471e-05 -0.118834)
(-0.00129006 -0.000115917 -0.136544)
(0.00867758 0.000117566 -0.135916)
(-0.00183207 0.000736888 -0.0881769)
(-0.00902558 2.26895e-05 -0.125459)
(-0.00137876 -0.000139585 -0.143665)
(0.00893547 0.000132557 -0.142196)
(-0.00191685 0.000818785 -0.0934809)
(-0.00930601 3.06472e-05 -0.131727)
(-0.00146529 -0.000164772 -0.150388)
(0.00917039 0.000146166 -0.148108)
(-0.00199789 0.000902831 -0.0985763)
(-0.00956041 3.87222e-05 -0.137646)
(-0.0015517 -0.0001927 -0.156731)
(0.0093825 0.000157856 -0.153701)
(-0.00208037 0.000988794 -0.103444)
(-0.00979103 4.59546e-05 -0.14324)
(-0.00163321 -0.000225314 -0.162684)
(0.00957089 0.000172516 -0.159012)
(-0.00217194 0.00107575 -0.10806)
(-0.00999842 5.14115e-05 -0.148551)
(-0.00169633 -0.000261756 -0.168219)
(0.00973772 0.000191387 -0.164029)
(-0.00228256 0.00116462 -0.112415)
(-0.0101811 5.61102e-05 -0.153622)
(-0.0017301 -0.000297673 -0.173333)
(0.00988666 0.000208818 -0.168698)
(-0.00240988 0.00125759 -0.116533)
(-0.0103384 6.36765e-05 -0.158465)
(-0.00174141 -0.000329409 -0.178098)
(0.0100211 0.000223753 -0.173021)
(-0.00253136 0.00135651 -0.120512)
(-0.0104727 7.39735e-05 -0.163035)
(-0.00176138 -0.000359009 -0.182653)
(0.0101434 0.000237253 -0.177051)
(-0.00260781 0.00145702 -0.124491)
(-0.0105871 8.35546e-05 -0.167286)
(-0.00182437 -0.000398823 -0.187103)
(0.0102519 0.000254662 -0.180844)
(-0.00262319 0.00155035 -0.128511)
(-0.0106835 9.00764e-05 -0.171246)
(-0.00192017 -0.000451266 -0.19138)
(0.0103437 0.000277105 -0.184449)
(-0.00261453 0.00163994 -0.132387)
(-0.0107633 9.23147e-05 -0.174964)
(-0.00200777 -0.000503113 -0.195307)
(0.0104183 0.000290766 -0.18789)
(-0.00262571 0.00173724 -0.135933)
(-0.0108262 9.30441e-05 -0.178454)
(-0.00206225 -0.000548772 -0.198847)
(0.0104783 0.000294628 -0.191156)
(-0.00267473 0.00184231 -0.139132)
(-0.0108742 9.12534e-05 -0.181695)
(-0.0020826 -0.000590932 -0.202079)
(0.0105273 0.000303942 -0.194201)
(-0.00274737 0.00194436 -0.142069)
(-0.0109136 8.74059e-05 -0.18467)
(-0.00209287 -0.000641218 -0.205084)
(0.0105675 0.000308091 -0.197016)
(-0.00281942 0.00203911 -0.144839)
(-0.0109481 8.78183e-05 -0.187382)
(-0.00209629 -0.000707937 -0.207884)
(0.0106063 0.000323498 -0.199609)
(-0.00288762 0.00213391 -0.147508)
(-0.0109753 9.77842e-05 -0.189899)
(-0.00205608 -0.00077845 -0.210411)
(0.0106558 0.000350422 -0.201904)
(-0.0029551 0.00223912 -0.150103)
(-0.0109906 0.000127441 -0.192352)
(-0.00195861 -0.00083034 -0.212631)
(0.0107188 0.000371205 -0.203859)
(-0.00301704 0.00235295 -0.152594)
(-0.0109917 0.000147662 -0.194822)
(-0.00186736 -0.000848194 -0.214748)
(0.0107725 0.000378259 -0.20577)
(-0.00306918 0.00246134 -0.154926)
(-0.0109825 0.000119569 -0.197237)
(-0.00192804 -0.00087797 -0.217238)
(0.0107657 0.000361902 -0.208357)
(-0.00310783 0.00256878 -0.157091)
(-0.0109587 4.99808e-05 -0.199547)
(-0.00216908 -0.000986411 -0.220167)
(0.0106923 0.000382896 -0.211781)
(-0.00312373 0.00267198 -0.159117)
(-0.0108944 1.03548e-05 -0.202111)
(-0.00240785 -0.00109871 -0.222706)
(0.0105963 0.000400684 -0.214827)
(-0.00315653 0.00275407 -0.16096)
(-0.010794 6.28906e-05 -0.205077)
(-0.00255599 -0.00117049 -0.224626)
(0.0105048 0.000411307 -0.217125)
(-0.00326072 0.00282255 -0.162551)
(-0.0106838 0.000103978 -0.207654)
(-0.00259138 -0.00121569 -0.226117)
(0.0104432 0.000412964 -0.218912)
(-0.00340098 0.00293853 -0.164093)
(-0.0105699 9.70699e-05 -0.209662)
(-0.00258765 -0.00127655 -0.22741)
(0.0103907 0.000416747 -0.220506)
(-0.00342282 0.00311899 -0.166153)
(-0.0104684 6.59582e-05 -0.211294)
(-0.00259982 -0.00135291 -0.228594)
(0.0103236 0.000425698 -0.222049)
(-0.00319242 0.00322087 -0.169143)
(-0.0103672 5.38523e-05 -0.212783)
(-0.00262469 -0.00142922 -0.229666)
(0.0102431 0.000429718 -0.223539)
(-0.00287285 0.00326174 -0.172121)
(-0.0102496 5.29459e-05 -0.214226)
(-0.0026578 -0.00150603 -0.230629)
(0.0101506 0.000430294 -0.224969)
(-0.00263227 0.00334024 -0.174408)
(-0.0101172 4.47907e-05 -0.215615)
(-0.00269236 -0.00158087 -0.231486)
(0.010047 0.000429548 -0.226339)
(-0.0025299 0.00346347 -0.176124)
(-0.00997186 3.74943e-05 -0.216942)
(-0.00272434 -0.00165703 -0.232239)
(0.00993226 0.000428327 -0.227651)
(-0.00250798 0.00357791 -0.177581)
(-0.00981427 2.96413e-05 -0.218207)
(-0.00275262 -0.00173445 -0.232894)
(0.00980612 0.00042494 -0.228907)