/*--------------------------------*- C++ -*----------------------------------*\
| =========                 |                                                 |
| \\      /  F ield         | OpenFOAM: The Open Source CFD Toolbox           |
|  \\    /   O peration     | Version:  v1906                                 |
|   \\  /    A nd           | Web:      www.OpenFOAM.com                      |
|    \\/     M anipulation  |                                                 |
\*---------------------------------------------------------------------------*/
FoamFile
{
    version     2.0;
    format      ascii;
    class       volVectorField;
    location    "97.6";
    object      UMean;
}
// * * * * * * * * * * * * * * * * * * * * * * * * * * * * * * * * * * * * * //

dimensions      [0 1 -1 0 0 0 0];


internalField   nonuniform List<vector> 
2528
(
(1.28941e-05 -0.000200672 -0.0072402)
(-0.000118434 -1.32165e-06 -0.00765818)
(1.39872e-06 -1.24551e-06 -0.00782011)
(0.000110326 -1.24304e-06 -0.00741751)
(4.87309e-05 0.000347764 -0.0209352)
(-0.000341555 -5.3359e-06 -0.0220929)
(-7.21828e-06 -5.78519e-06 -0.0225796)
(0.000317268 -4.99688e-06 -0.0213918)
(8.86191e-05 -0.0003026 -0.0339957)
(-0.000537087 -1.54164e-05 -0.0357871)
(-2.10973e-05 -1.60436e-05 -0.0366161)
(0.000496507 -1.46847e-05 -0.0346509)
(0.000127525 0.000184685 -0.0464294)
(-0.000709606 -2.72818e-05 -0.0487571)
(-3.5117e-05 -2.89968e-05 -0.0499384)
(0.000652692 -2.60346e-05 -0.0472067)
(0.000163787 -8.19157e-05 -0.0582375)
(-0.000862063 -4.27892e-05 -0.0610308)
(-4.74675e-05 -4.54758e-05 -0.0625582)
(0.000788818 -4.09283e-05 -0.0590882)
(0.000198051 -1.25359e-05 -0.0694353)
(-0.000998117 -6.05198e-05 -0.0726387)
(-5.86632e-05 -6.43782e-05 -0.0744996)
(0.000908757 -5.79141e-05 -0.0703338)
(0.000230929 -3.35709e-05 -0.0800423)
(-0.00111875 -8.02263e-05 -0.0836098)
(-6.92121e-05 -8.54231e-05 -0.08579)
(0.0010138 -7.67548e-05 -0.0809802)
(0.000262966 -4.31466e-05 -0.0900742)
(-0.00122464 -0.000101585 -0.0939609)
(-7.95937e-05 -0.000108317 -0.0964486)
(0.00110499 -9.7139e-05 -0.0910526)
(0.000294523 -5.83132e-05 -0.0995356)
(-0.00131591 -0.000124429 -0.103692)
(-9.01973e-05 -0.000132746 -0.106479)
(0.00118277 -0.000118892 -0.100558)
(0.000325727 -7.17774e-05 -0.108425)
(-0.00139305 -0.000148663 -0.112794)
(-0.000101165 -0.000158334 -0.115878)
(0.00124787 -0.000141931 -0.109492)
(0.000356446 -8.54133e-05 -0.116747)
(-0.00145756 -0.00017408 -0.12127)
(-0.000112342 -0.000185042 -0.124653)
(0.00130192 -0.000166175 -0.117855)
(0.000386394 -9.96288e-05 -0.124522)
(-0.00151128 -0.000200378 -0.129139)
(-0.000123489 -0.000213125 -0.132826)
(0.00134696 -0.000191362 -0.125663)
(0.00041534 -0.000114828 -0.131778)
(-0.00155452 -0.000227391 -0.136437)
(-0.000134596 -0.000242545 -0.140432)
(0.00138372 -0.000217166 -0.132943)
(0.000443309 -0.000130528 -0.138543)
(-0.00158558 -0.000255125 -0.143203)
(-0.000146051 -0.000272781 -0.147503)
(0.00141061 -0.000243536 -0.13973)
(0.000470588 -0.000146004 -0.144845)
(-0.00160191 -0.00028364 -0.149477)
(-0.000158322 -0.000303307 -0.154068)
(0.00142468 -0.000270635 -0.146056)
(0.000497524 -0.000161037 -0.150709)
(-0.00160181 -0.000312798 -0.155296)
(-0.000171617 -0.000334004 -0.160162)
(0.00142361 -0.000298493 -0.151952)
(0.000524389 -0.000175911 -0.156166)
(-0.00158512 -0.000342357 -0.1607)
(-0.000185934 -0.000364889 -0.165821)
(0.00140672 -0.000326872 -0.157453)
(0.000551306 -0.000190881 -0.16125)
(-0.00155303 -0.000372122 -0.165726)
(-0.000201173 -0.000395877 -0.171081)
(0.00137474 -0.000355523 -0.162592)
(0.000578243 -0.000205826 -0.165994)
(-0.00150756 -0.000401933 -0.170414)
(-0.000217136 -0.000426847 -0.175981)
(0.00132923 -0.000384304 -0.167401)
(0.000605096 -0.000220607 -0.170433)
(-0.00145127 -0.000431658 -0.174801)
(-0.000233557 -0.000457601 -0.180558)
(0.00127225 -0.000413119 -0.171913)
(0.000631713 -0.000235479 -0.174601)
(-0.0013869 -0.000461131 -0.178923)
(-0.000250185 -0.000487911 -0.184847)
(0.00120612 -0.000441831 -0.17616)
(0.000657994 -0.000250961 -0.178534)
(-0.00131704 -0.000490145 -0.182813)
(-0.00026676 -0.000517581 -0.188883)
(0.00113324 -0.000470104 -0.180172)
(0.000684095 -0.000266389 -0.182259)
(-0.0012438 -0.00051851 -0.186501)
(-0.000283013 -0.000546535 -0.192695)
(0.00105571 -0.000497865 -0.183976)
(0.000710073 -0.000280969 -0.185799)
(-0.00116875 -0.000546102 -0.190013)
(-0.000298845 -0.000574742 -0.196313)
(0.000975342 -0.000525455 -0.187598)
(0.000735614 -0.000295531 -0.189177)
(-0.00109303 -0.000572891 -0.19337)
(-0.00031434 -0.000602291 -0.19976)
(0.000894149 -0.000552996 -0.191062)
(0.000760562 -0.000310834 -0.192414)
(-0.00101737 -0.000598699 -0.19659)
(-0.000329584 -0.00062937 -0.203058)
(0.000814232 -0.000579959 -0.194393)
(0.00078519 -0.000326243 -0.195527)
(-0.00094188 -0.000623828 -0.19969)
(-0.000344528 -0.000654992 -0.206225)
(0.000736889 -0.000605488 -0.197606)
(0.000810102 -0.000340598 -0.198526)
(-0.000866468 -0.00064862 -0.202683)
(-0.000359544 -0.000678748 -0.209275)
(0.000661086 -0.000629891 -0.200706)
(0.000835249 -0.000354397 -0.20142)
(-0.00079108 -0.000671996 -0.205581)
(-0.000375622 -0.000701926 -0.212224)
(0.000584394 -0.000654596 -0.203694)
(0.000860063 -0.000367902 -0.204221)
(-0.000716633 -0.000693461 -0.208394)
(-0.000393374 -0.000724573 -0.215082)
(0.000505157 -0.000678749 -0.206572)
(0.000884421 -0.00038105 -0.206938)
(-0.000645174 -0.000712802 -0.211128)
(-0.000411963 -0.000746288 -0.217856)
(0.000424152 -0.000699239 -0.209352)
(0.000910141 -0.00039646 -0.209576)
(-0.000577201 -0.000731397 -0.213789)
(-0.00042907 -0.000766173 -0.22055)
(0.000343747 -0.000721411 -0.212048)
(0.000940234 -0.00041194 -0.212144)
(-0.000512518 -0.00075155 -0.216389)
(-0.000443704 -0.000784799 -0.223165)
(0.000268301 -0.000748584 -0.214683)
(0.000974176 -0.000422618 -0.214646)
(-0.000448133 -0.000773113 -0.218931)
(-0.000458168 -0.000801454 -0.225704)
(0.000201978 -0.000775948 -0.217283)
(0.00100719 -0.000428758 -0.217084)
(-0.000388357 -0.000791478 -0.221446)
(-0.000477463 -0.000818413 -0.228183)
(0.000145225 -0.000795098 -0.219869)
(0.00103254 -0.000440106 -0.21951)
(-0.000339752 -0.000802305 -0.223963)
(-0.00050292 -0.00083308 -0.230631)
(0.000103342 -0.000802877 -0.222459)
(0.00104703 -0.000459934 -0.221978)
(-0.00029012 -0.000809979 -0.226406)
(-0.000529437 -0.00084241 -0.233054)
(6.15089e-05 -0.000821092 -0.224943)
(0.00105793 -0.000471238 -0.224442)
(-0.000230609 -0.000821413 -0.22872)
(-0.000549694 -0.000855327 -0.235463)
(1.65988e-05 -0.000844883 -0.227315)
(0.00106637 -0.000481197 -0.226863)
(-0.000163279 -0.000837858 -0.230934)
(-0.000562633 -0.000867184 -0.23788)
(-3.52347e-05 -0.000869987 -0.229595)
(0.00107718 -0.000482843 -0.229234)
(-9.47143e-05 -0.000854504 -0.233103)
(-0.000581574 -0.000882599 -0.240308)
(-9.06812e-05 -0.000890527 -0.231817)
(0.00109017 -0.000495137 -0.23162)
(-3.63463e-05 -0.000864686 -0.235306)
(-0.000614197 -0.000890535 -0.242663)
(-0.00013588 -0.000903512 -0.23405)
(0.001102 -0.000511152 -0.234056)
(4.58183e-06 -0.000870549 -0.23756)
(-0.000645861 -0.00089238 -0.24496)
(-0.000171205 -0.000919355 -0.2363)
(0.00111821 -0.000518058 -0.236547)
(2.51275e-05 -0.000867363 -0.239846)
(-0.000672372 -0.000899122 -0.247235)
(-0.000199563 -0.000935046 -0.238532)
(0.00115322 -0.000521825 -0.238993)
(4.66746e-05 -0.000876268 -0.242066)
(-0.000692204 -0.00091279 -0.249484)
(-0.000215125 -0.000956044 -0.240741)
(0.00120953 -0.000519806 -0.241381)
(7.15144e-05 -0.000886603 -0.24425)
(-0.000712441 -0.000924002 -0.251613)
(-0.000218135 -0.000971819 -0.24291)
(0.00126713 -0.000551428 -0.243792)
(9.24508e-05 -0.00089517 -0.24644)
(-0.000725544 -0.000921799 -0.25366)
(-0.00022549 -0.000983969 -0.244965)
(0.00130534 -0.000567301 -0.246023)
(0.00011286 -0.000892222 -0.248588)
(-0.00073529 -0.000916615 -0.25568)
(-0.000242173 -0.000999242 -0.246899)
(0.00132422 -0.000567031 -0.248042)
(0.000141467 -0.000886146 -0.250617)
(-0.000748799 -0.00092327 -0.257761)
(-0.000271761 -0.00102358 -0.248681)
(0.00133894 -0.000564165 -0.24994)
(0.000177314 -0.000894145 -0.252499)
(-0.000771571 -0.000935934 -0.259835)
(-0.000291627 -0.00104587 -0.25044)
(0.0013607 -0.000562948 -0.251796)
(0.000207509 -0.000902868 -0.254332)
(-0.000787766 -0.000927152 -0.261708)
(-0.000305354 -0.00106421 -0.252224)
(0.00139819 -0.000574336 -0.253641)
(0.000222958 -0.000901439 -0.25619)
(-0.000782565 -0.000923737 -0.263514)
(-0.000312321 -0.00108303 -0.254034)
(0.00143423 -0.000585731 -0.255508)
(0.000240757 -0.00089526 -0.257974)
(-0.000756631 -0.000943465 -0.26534)
(-0.000309345 -0.00108726 -0.255869)
(0.00145843 -0.00060874 -0.257427)
(0.000261477 -0.000889946 -0.25968)
(-0.00074698 -0.000947883 -0.26707)
(-0.000312581 -0.00109478 -0.257595)
(0.0014751 -0.000623223 -0.259233)
(0.000284075 -0.000889958 -0.261304)
(-0.000757968 -0.000934002 -0.268663)
(-0.000326197 -0.00112254 -0.259162)
(0.00148697 -0.000615206 -0.260899)
(0.000305726 -0.000892559 -0.262868)
(-0.000763356 -0.000936291 -0.270242)
(-0.000333169 -0.00115556 -0.260644)
(0.00149469 -0.000612318 -0.262493)
(0.000323888 -0.00088855 -0.264429)
(-0.000750578 -0.000942537 -0.271752)
(-0.000335675 -0.0011754 -0.262068)
(0.00150211 -0.000626488 -0.264024)
(0.000334612 -0.000880836 -0.266007)
(-0.000726059 -0.000941548 -0.273178)
(-0.000333183 -0.00117767 -0.263467)
(0.001506 -0.000637609 -0.265521)
(0.000334335 -0.000875914 -0.267575)
(-0.000707444 -0.000939587 -0.274515)
(-0.000333177 -0.00118994 -0.264794)
(0.00149942 -0.000660122 -0.267013)
(0.000331971 -0.00087624 -0.269145)
(-0.000708311 -0.000936278 -0.275763)
(-0.000334492 -0.00122139 -0.266044)
(0.00148725 -0.000667343 -0.268367)
(0.000344728 -0.000882687 -0.270662)
(-0.000721267 -0.000937039 -0.276972)
(-0.000326999 -0.00124969 -0.267278)
(0.00148586 -0.000669323 -0.269589)
(0.000348117 -0.000878371 -0.272147)
(-0.000729275 -0.000938886 -0.278102)
(-0.000312403 -0.00125861 -0.268498)
(0.00149851 -0.000668788 -0.270778)
(0.000329196 -0.000847311 -0.273699)
(-0.000724317 -0.000944017 -0.279188)
(-0.00030272 -0.0012711 -0.269622)
(0.00151698 -0.000664768 -0.271943)
(0.000322359 -0.000834352 -0.275066)
(-0.000715512 -0.000934503 -0.28028)
(-0.00029051 -0.00129383 -0.270653)
(0.00152973 -0.000679647 -0.273199)
(0.000333027 -0.000849132 -0.276211)
(-0.00070642 -0.000929912 -0.281399)
(-0.000279967 -0.00132126 -0.271568)
(0.00153905 -0.000715846 -0.274487)
(0.000336161 -0.000857698 -0.277298)
(-0.000698493 -0.00094157 -0.282377)
(-0.000274816 -0.00133689 -0.272406)
(0.00153943 -0.000727064 -0.275609)
(0.000337976 -0.000844069 -0.278326)
(-0.000683898 -0.000937439 -0.283133)
(-0.000271669 -0.00135084 -0.273162)
(0.00153985 -0.000712347 -0.276489)
(0.000344097 -0.000826572 -0.279289)
(-0.000660835 -0.000924117 -0.283783)
(-0.000272818 -0.00137439 -0.273799)
(0.00153386 -0.000706734 -0.277307)
(0.00035644 -0.000819749 -0.280154)
(-0.000628648 -0.000925907 -0.284449)
(-0.000276619 -0.00139981 -0.27433)
(0.00151463 -0.000730315 -0.278167)
(0.000364139 -0.000817352 -0.280943)
(-0.000602372 -0.000930563 -0.285052)
(-0.000276066 -0.00141956 -0.274811)
(0.00148621 -0.000753001 -0.278943)
(0.000352281 -0.000822432 -0.281724)
(-0.000584647 -0.000921236 -0.28551)
(-0.000268746 -0.00143266 -0.275263)
(0.00145897 -0.000748517 -0.279558)
(0.000334908 -0.000812353 -0.28245)
(-0.000564804 -0.000912878 -0.285876)
(-0.000260051 -0.00144192 -0.275644)
(0.00143355 -0.000748225 -0.280087)
(0.00033006 -0.000787042 -0.283079)
(-0.000538298 -0.000922006 -0.286206)
(-0.00025831 -0.00145887 -0.275901)
(0.00140514 -0.000763878 -0.280583)
(0.000353575 -0.000783475 -0.283514)
(-0.000504451 -0.000917232 -0.28646)
(-0.000259822 -0.00148008 -0.276033)
(0.00137762 -0.000770182 -0.280948)
(0.000393076 -0.000781784 -0.283793)
(-0.000468907 -0.000901424 -0.286611)
(-0.000254742 -0.0014912 -0.276081)
(0.00134306 -0.000772011 -0.2812)
(0.000410922 -0.000775391 -0.284029)
(-0.00042993 -0.000902755 -0.286708)
(-0.000250989 -0.00151062 -0.276036)
(0.0013099 -0.000778282 -0.281332)
(0.000406496 -0.000762875 -0.284239)
(-0.000396722 -0.000904116 -0.28667)
(-0.000242327 -0.00153417 -0.27596)
(0.00127745 -0.000787809 -0.28139)
(0.000409653 -0.000748383 -0.284342)
(-0.000370584 -0.000900231 -0.286471)
(-0.000226556 -0.00153694 -0.275828)
(0.0012478 -0.000793456 -0.281352)
(0.00043876 -0.000725626 -0.28428)
(-0.000346744 -0.000896647 -0.286081)
(-0.000222962 -0.0015134 -0.275472)
(0.00121992 -0.000799877 -0.281202)
(0.000491492 -0.000715806 -0.284084)
(-0.000323507 -0.000880135 -0.285458)
(-0.000265939 -0.00151702 -0.274598)
(0.00010527 -6.5465e-07 -0.00469463)
(1.18398e-05 -4.28183e-07 -0.00401961)
(-9.3784e-05 -5.10435e-07 -0.00481989)
(-1.87795e-05 -6.15032e-07 -0.00451372)
(0.000292183 -2.6475e-06 -0.0141825)
(2.68929e-05 -2.38446e-06 -0.0123031)
(-0.000258186 -2.65957e-06 -0.0145521)
(-4.70769e-05 -3.56889e-06 -0.0137207)
(0.000448961 -8.0984e-06 -0.0237955)
(3.37025e-05 -6.69357e-06 -0.0208423)
(-0.00039266 -7.49584e-06 -0.0244081)
(-6.67049e-05 -9.95954e-06 -0.0231201)
(0.000584396 -1.40917e-05 -0.0335004)
(3.74772e-05 -1.19992e-05 -0.0295613)
(-0.000505924 -1.35228e-05 -0.034345)
(-8.29711e-05 -1.81083e-05 -0.0326333)
(0.000705395 -2.18707e-05 -0.0432369)
(4.06172e-05 -1.86644e-05 -0.0383864)
(-0.000604783 -2.10559e-05 -0.0442982)
(-9.84194e-05 -2.82905e-05 -0.0421826)
(0.000812113 -3.03507e-05 -0.0529285)
(4.25661e-05 -2.58725e-05 -0.0472456)
(-0.000689309 -2.93255e-05 -0.054186)
(-0.00011264 -3.96239e-05 -0.0516922)
(0.000904784 -3.92071e-05 -0.0624961)
(4.27814e-05 -3.32447e-05 -0.056061)
(-0.000759716 -3.79563e-05 -0.0639263)
(-0.0001252 -5.1685e-05 -0.0610858)
(0.000983726 -4.81249e-05 -0.0718591)
(4.08417e-05 -4.05114e-05 -0.0647501)
(-0.00081638 -4.66788e-05 -0.0734375)
(-0.000135708 -6.41596e-05 -0.0702876)
(0.00104943 -5.68766e-05 -0.0809363)
(3.64843e-05 -4.74715e-05 -0.0732281)
(-0.000859884 -5.53009e-05 -0.0826393)
(-0.00014386 -7.68117e-05 -0.0792223)
(0.00110263 -6.52293e-05 -0.0896544)
(2.96227e-05 -5.39498e-05 -0.0814168)
(-0.000891051 -6.35999e-05 -0.0914606)
(-0.000149472 -8.94426e-05 -0.0878215)
(0.00114421 -7.30657e-05 -0.0979625)
(2.03251e-05 -5.98391e-05 -0.0892569)
(-0.000911 -7.14449e-05 -0.099852)
(-0.000152445 -0.000101856 -0.0960346)
(0.00117537 -8.03839e-05 -0.10584)
(8.65917e-06 -6.50548e-05 -0.0967172)
(-0.000921186 -7.88875e-05 -0.107794)
(-0.000152731 -0.000113853 -0.103837)
(0.00119756 -8.7142e-05 -0.113292)
(-5.3476e-06 -6.94397e-05 -0.103795)
(-0.000923156 -8.59091e-05 -0.115296)
(-0.000150456 -0.000125302 -0.111232)
(0.00121229 -9.31077e-05 -0.120341)
(-2.14726e-05 -7.28442e-05 -0.110508)
(-0.000918441 -9.23098e-05 -0.122386)
(-0.000145978 -0.000136129 -0.118244)
(0.00122087 -9.80524e-05 -0.127016)
(-3.92386e-05 -7.52015e-05 -0.116889)
(-0.000908399 -9.78593e-05 -0.129101)
(-0.000139716 -0.000146251 -0.124904)
(0.00122429 -0.00010192 -0.133348)
(-5.8128e-05 -7.65098e-05 -0.122969)
(-0.000893869 -0.000102504 -0.135475)
(-0.000131939 -0.000155536 -0.131243)
(0.00122329 -0.000104726 -0.139363)
(-7.78271e-05 -7.67064e-05 -0.128774)
(-0.000875384 -0.00010629 -0.141536)
(-0.000122689 -0.000163856 -0.137285)
(0.00121853 -0.000106446 -0.145088)
(-9.82488e-05 -7.56678e-05 -0.134329)
(-0.000853471 -0.000109181 -0.147308)
(-0.000111969 -0.000171134 -0.143052)
(0.00121061 -0.000107011 -0.150543)
(-0.00011935 -7.33175e-05 -0.139653)
(-0.000828641 -0.000111113 -0.152814)
(-9.98817e-05 -0.000177334 -0.148563)
(0.00119999 -0.000106412 -0.155746)
(-0.000141023 -6.96336e-05 -0.144765)
(-0.000801363 -0.000112061 -0.158073)
(-8.65754e-05 -0.000182415 -0.153837)
(0.00118709 -0.000104656 -0.160714)
(-0.000163106 -6.46244e-05 -0.149679)
(-0.000772021 -0.000112046 -0.163103)
(-7.22452e-05 -0.000186319 -0.158888)
(0.00117226 -0.000101622 -0.165461)
(-0.000185425 -5.82985e-05 -0.154408)
(-0.000740952 -0.000111103 -0.16792)
(-5.7177e-05 -0.000189112 -0.163731)
(0.00115578 -9.74298e-05 -0.170003)
(-0.000207856 -5.07099e-05 -0.158963)
(-0.000708455 -0.000109255 -0.172536)
(-4.17097e-05 -0.000190793 -0.168374)
(0.00113805 -9.21409e-05 -0.174358)
(-0.000230324 -4.18825e-05 -0.163353)
(-0.000674738 -0.000106505 -0.176964)
(-2.61454e-05 -0.000191402 -0.172827)
(0.0011196 -8.56357e-05 -0.178543)
(-0.000252705 -3.19825e-05 -0.167586)
(-0.000640066 -0.000102954 -0.181213)
(-1.06473e-05 -0.00019116 -0.177103)
(0.00110085 -7.81081e-05 -0.182575)
(-0.000274842 -2.10718e-05 -0.171673)
(-0.000604776 -9.87466e-05 -0.185296)
(4.79637e-06 -0.000189993 -0.181211)
(0.00108163 -6.9777e-05 -0.186461)
(-0.000296628 -9.19265e-06 -0.175626)
(-0.000569251 -9.38673e-05 -0.189227)
(2.03571e-05 -0.000187851 -0.185167)
(0.00106121 -6.04507e-05 -0.190206)
(-0.000317916 3.56778e-06 -0.179455)
(-0.000533681 -8.81352e-05 -0.193021)
(3.6206e-05 -0.000184778 -0.18898)
(0.00103914 -5.00755e-05 -0.19382)
(-0.000338467 1.7331e-05 -0.18317)
(-0.000497665 -8.17556e-05 -0.196687)
(5.22304e-05 -0.000181015 -0.192655)
(0.00101553 -3.88525e-05 -0.197313)
(-0.000358114 3.2195e-05 -0.186774)
(-0.000460887 -7.5305e-05 -0.200233)
(6.80758e-05 -0.000176689 -0.196194)
(0.000990223 -2.66378e-05 -0.20069)
(-0.000376989 4.78462e-05 -0.190267)
(-0.000422942 -6.86886e-05 -0.203671)
(8.31082e-05 -0.000171246 -0.199603)
(0.000963016 -1.36058e-05 -0.20395)
(-0.00039559 6.36849e-05 -0.193646)
(-0.000382988 -6.09732e-05 -0.207014)
(9.63417e-05 -0.000164783 -0.202889)
(0.000934138 -2.09729e-07 -0.207109)
(-0.000414211 7.92227e-05 -0.196921)
(-0.000340714 -5.184e-05 -0.210273)
(0.000106823 -0.000158468 -0.206057)
(0.000904288 1.32703e-05 -0.210193)
(-0.000432824 9.52099e-05 -0.200106)
(-0.000296742 -4.23069e-05 -0.21345)
(0.000114809 -0.000152864 -0.209119)
(0.000876424 2.79849e-05 -0.213195)
(-0.000451109 0.000112805 -0.20321)
(-0.00025291 -3.33152e-05 -0.216532)
(0.000121711 -0.000146495 -0.212094)
(0.000852962 4.41774e-05 -0.216099)
(-0.000467476 0.000131316 -0.20623)
(-0.000210377 -2.62583e-05 -0.219503)
(0.000129416 -0.000137675 -0.214996)
(0.00083313 6.07866e-05 -0.218936)
(-0.00048042 0.000149166 -0.209159)
(-0.000170723 -1.84798e-05 -0.222351)
(0.000137969 -0.000127931 -0.217816)
(0.000814051 7.57449e-05 -0.221745)
(-0.000490479 0.000165481 -0.212013)
(-0.000135812 -7.52095e-06 -0.225072)
(0.000145577 -0.000119932 -0.220539)
(0.000791947 9.09012e-05 -0.224503)
(-0.000500153 0.000182478 -0.21481)
(-0.000105046 5.32456e-06 -0.227691)
(0.000152066 -0.000113091 -0.223167)
(0.000765182 0.000108745 -0.227157)
(-0.000510771 0.000201451 -0.217542)
(-7.29336e-05 1.58998e-05 -0.230229)
(0.000155892 -0.00010603 -0.225713)
(0.000733257 0.00012607 -0.22969)
(-0.000520492 0.000221208 -0.220173)
(-3.31165e-05 2.09662e-05 -0.232703)
(0.000156189 -9.707e-05 -0.228158)
(0.000697064 0.00014145 -0.232113)
(-0.000527753 0.000236983 -0.222686)
(9.97995e-06 2.76469e-05 -0.235115)
(0.000154127 -8.7651e-05 -0.230494)
(0.000656212 0.000156073 -0.234439)
(-0.000532812 0.000251312 -0.225119)
(4.98472e-05 3.611e-05 -0.237474)
(0.0001504 -7.86077e-05 -0.232744)
(0.000613252 0.000171118 -0.236685)
(-0.000535373 0.000266975 -0.227514)
(8.36988e-05 4.91892e-05 -0.239783)
(0.000145312 -7.17355e-05 -0.234916)
(0.000574509 0.000189287 -0.238832)
(-0.000537083 0.000284444 -0.229871)
(0.000114723 5.59175e-05 -0.242039)
(0.000139904 -6.68865e-05 -0.237018)
(0.000540884 0.000203295 -0.240929)
(-0.00054025 0.00030182 -0.232138)
(0.000145812 5.83724e-05 -0.244228)
(0.00013321 -6.19585e-05 -0.23907)
(0.000509601 0.000209151 -0.243025)
(-0.000542881 0.00031695 -0.2343)
(0.000176348 6.24808e-05 -0.246341)
(0.000125895 -5.3952e-05 -0.24108)
(0.000474701 0.000215257 -0.245074)
(-0.000541811 0.000329025 -0.236376)
(0.000207077 6.90359e-05 -0.248349)
(0.000118681 -4.48619e-05 -0.243032)
(0.000441936 0.000231728 -0.247007)
(-0.000537588 0.000337782 -0.238393)
(0.000238113 7.5397e-05 -0.250256)
(0.0001092 -3.78561e-05 -0.244904)
(0.000412671 0.000249578 -0.248865)
(-0.000533269 0.000346015 -0.240389)
(0.000267993 8.05474e-05 -0.252085)
(9.5321e-05 -3.26343e-05 -0.246699)
(0.000385445 0.000260693 -0.250694)
(-0.00052812 0.000357367 -0.242404)
(0.000294189 8.2347e-05 -0.253882)
(7.46798e-05 -2.92399e-05 -0.24843)
(0.000358764 0.000263167 -0.252481)
(-0.000519741 0.00037055 -0.244426)
(0.000316381 8.47722e-05 -0.255645)
(4.97298e-05 -2.32057e-05 -0.250122)
(0.000334247 0.000268208 -0.254215)
(-0.0005112 0.000381328 -0.246366)
(0.000336768 8.62139e-05 -0.257355)
(2.68177e-05 -1.63137e-05 -0.251788)
(0.000313899 0.000281566 -0.255937)
(-0.000503434 0.000388711 -0.248228)
(0.000357044 8.80073e-05 -0.259022)
(8.69354e-06 -1.31967e-05 -0.253428)
(0.000301418 0.000293396 -0.257653)
(-0.000492419 0.000392955 -0.250034)
(0.000375812 9.22942e-05 -0.260643)
(-8.9293e-06 -1.04083e-05 -0.255031)
(0.00028505 0.000299949 -0.259294)
(-0.000479106 0.000399388 -0.251798)
(0.000388592 9.40163e-05 -0.262213)
(-2.60097e-05 -4.84899e-06 -0.256549)
(0.000262394 0.000304338 -0.260835)
(-0.000467026 0.000409451 -0.25355)
(0.000397019 9.0891e-05 -0.263775)
(-3.97669e-05 -2.0321e-07 -0.258017)
(0.000237136 0.000305799 -0.262337)
(-0.000455661 0.00041999 -0.255283)
(0.000403788 8.87274e-05 -0.265318)
(-5.12592e-05 3.53914e-06 -0.259471)
(0.000216713 0.000310794 -0.263819)
(-0.000449854 0.000422605 -0.256979)
(0.000407623 9.2128e-05 -0.266825)
(-6.46728e-05 7.20065e-06 -0.26089)
(0.000204368 0.000316076 -0.265296)
(-0.000444634 0.000423667 -0.258623)
(0.000409919 9.1348e-05 -0.26828)
(-8.48585e-05 1.01818e-05 -0.262213)
(0.000195295 0.000323056 -0.266715)
(-0.000432636 0.000426857 -0.260206)
(0.000411312 9.07954e-05 -0.269668)
(-0.000108849 1.31085e-05 -0.263421)
(0.000186015 0.000329883 -0.268083)
(-0.00041116 0.000430729 -0.261724)
(0.000413085 9.50403e-05 -0.271008)
(-0.000132707 1.68115e-05 -0.264574)
(0.000176847 0.000333049 -0.269401)
(-0.000389622 0.000432084 -0.263201)
(0.000412542 9.63168e-05 -0.27233)
(-0.00015601 1.83161e-05 -0.265739)
(0.000165465 0.000332084 -0.270673)
(-0.000373727 0.000433628 -0.264667)
(0.000405754 8.78349e-05 -0.273638)
(-0.000176949 1.94176e-05 -0.266948)
(0.000155462 0.000334796 -0.27186)
(-0.000359411 0.000436146 -0.266105)
(0.000396988 8.59941e-05 -0.274889)
(-0.000196054 2.48245e-05 -0.268138)
(0.000146131 0.00033964 -0.273)
(-0.000341743 0.000436225 -0.267495)
(0.000389712 9.00526e-05 -0.276063)
(-0.000213943 2.82418e-05 -0.269225)
(0.000134487 0.000344223 -0.274147)
(-0.000321572 0.000434056 -0.268858)
(0.000380586 9.08491e-05 -0.277179)
(-0.000231524 2.968e-05 -0.270191)
(0.000123122 0.000341728 -0.275318)
(-0.000303374 0.000435485 -0.270189)
(0.000368041 8.79913e-05 -0.278226)
(-0.000249348 3.12876e-05 -0.271066)
(0.000116978 0.000337655 -0.276454)
(-0.000285753 0.000437143 -0.27148)
(0.000353428 8.81249e-05 -0.279167)
(-0.00026942 3.33478e-05 -0.271882)
(0.000117931 0.000339405 -0.277491)
(-0.000264025 0.000438141 -0.272721)
(0.000340569 8.63779e-05 -0.280027)
(-0.000289178 3.31175e-05 -0.272669)
(0.000129713 0.000345554 -0.278387)
(-0.000239807 0.000439636 -0.273921)
(0.000328343 8.66626e-05 -0.280799)
(-0.000303079 3.25804e-05 -0.273389)
(0.000140005 0.00034823 -0.27917)
(-0.000219024 0.0004409 -0.275065)
(0.000316468 8.9198e-05 -0.281471)
(-0.000314127 3.50652e-05 -0.274006)
(0.000141048 0.00034562 -0.279894)
(-0.000208773 0.000443741 -0.276118)
(0.000305518 9.06481e-05 -0.282047)
(-0.000327564 3.99162e-05 -0.274499)
(0.000138811 0.00034534 -0.280525)
(-0.000203058 0.000445379 -0.277041)
(0.000293243 9.10482e-05 -0.282537)
(-0.000345149 4.1975e-05 -0.274855)
(0.000132422 0.000343963 -0.281046)
(-0.000196248 0.000444058 -0.277831)
(0.00027939 9.02124e-05 -0.282922)
(-0.000365176 3.54983e-05 -0.27506)
(0.000120375 0.000343312 -0.281432)
(-0.000186834 0.000445213 -0.278512)
(0.000264779 9.28647e-05 -0.283193)
(-0.000379167 3.06875e-05 -0.275147)
(0.000108839 0.000344184 -0.281672)
(-0.000175162 0.000448926 -0.279083)
(0.00025449 9.98779e-05 -0.283361)
(-0.000381718 3.23866e-05 -0.275133)
(9.99703e-05 0.000340285 -0.281756)
(-0.000164883 0.000450133 -0.27952)
(0.00025771 0.000100857 -0.283434)
(-0.000373274 3.85561e-05 -0.274946)
(0.000101871 0.000336404 -0.281619)
(-0.000159475 0.000451026 -0.279829)
(0.000280977 8.96976e-05 -0.283376)
(-0.000360825 4.21754e-05 -0.274543)
(5.68179e-05 -1.55387e-06 -0.00522372)
(-1.25907e-05 1.10736e-06 -0.00520342)
(-4.20184e-05 -1.55662e-06 -0.00570379)
(6.78619e-06 9.25544e-07 -0.00532114)
(0.000146582 2.18188e-06 -0.0157759)
(-4.38721e-05 7.6323e-06 -0.0157376)
(-0.000102915 2.1064e-06 -0.0171619)
(2.65428e-05 6.43748e-06 -0.0160473)
(0.000210768 4.94392e-06 -0.0264765)
(-8.38405e-05 1.95656e-05 -0.026452)
(-0.00013872 4.32716e-06 -0.0287165)
(5.48956e-05 1.64613e-05 -0.0269046)
(0.000262205 1.32191e-05 -0.0372751)
(-0.000128506 3.53571e-05 -0.0372912)
(-0.000162228 1.19115e-05 -0.0403114)
(8.78824e-05 2.95618e-05 -0.037843)
(0.000307896 2.30028e-05 -0.0480978)
(-0.000174918 5.40775e-05 -0.0481708)
(-0.000180477 2.05041e-05 -0.0518664)
(0.00012258 4.49744e-05 -0.0487805)
(0.000347608 3.50911e-05 -0.0588512)
(-0.000222603 7.54729e-05 -0.0589929)
(-0.000193317 3.10287e-05 -0.0632837)
(0.000158543 6.24449e-05 -0.0596189)
(0.000381202 4.90677e-05 -0.0694383)
(-0.000270921 9.92493e-05 -0.0696579)
(-0.000200729 4.30304e-05 -0.0744658)
(0.000195187 8.17305e-05 -0.0702635)
(0.00040869 6.47102e-05 -0.0797643)
(-0.0003191 0.000125038 -0.0800701)
(-0.00020286 5.62829e-05 -0.085321)
(0.000231847 0.00010249 -0.0806273)
(0.000430141 8.17603e-05 -0.0897437)
(-0.000366298 0.000152635 -0.0901446)
(-0.000199936 7.04982e-05 -0.0957686)
(0.000267818 0.000124576 -0.0906354)
(0.000445626 9.99571e-05 -0.0993097)
(-0.000411752 0.000181833 -0.0998153)
(-0.00019211 8.54457e-05 -0.105747)
(0.000302483 0.000147914 -0.10023)
(0.000455519 0.000119208 -0.108422)
(-0.000454634 0.000212206 -0.109043)
(-0.000179776 0.00010114 -0.115223)
(0.000335366 0.000172166 -0.109377)
(0.00046096 0.00013952 -0.117068)
(-0.000494138 0.000243382 -0.117815)
(-0.000164112 0.000117494 -0.124188)
(0.000365973 0.000196898 -0.118065)
(0.000463551 0.000160707 -0.125255)
(-0.000529807 0.000275425 -0.126144)
(-0.000146812 0.000134249 -0.13266)
(0.000393849 0.000222154 -0.126304)
(0.000464713 0.000182517 -0.133007)
(-0.000561368 0.000308548 -0.134051)
(-0.000129376 0.000151276 -0.140667)
(0.000418578 0.000248279 -0.134116)
(0.00046533 0.000204807 -0.140346)
(-0.000588755 0.000342574 -0.141555)
(-0.00011265 0.000168526 -0.148233)
(0.000439681 0.000275194 -0.141519)
(0.000465693 0.000227632 -0.147292)
(-0.000612109 0.000377129 -0.148674)
(-9.69185e-05 0.000186061 -0.15538)
(0.000456957 0.000302453 -0.148532)
(0.00046611 0.000251 -0.153859)
(-0.000631602 0.00041207 -0.155423)
(-8.24452e-05 0.000203759 -0.162124)
(0.000470425 0.00032988 -0.155169)
(0.000467048 0.000274665 -0.16006)
(-0.000647333 0.000447308 -0.161818)
(-6.96083e-05 0.000221372 -0.168483)
(0.000480049 0.000357452 -0.161445)
(0.000468915 0.000298537 -0.165905)
(-0.000659192 0.000482585 -0.16787)
(-5.87462e-05 0.000238857 -0.174474)
(0.000485771 0.000384961 -0.167372)
(0.000472191 0.000322309 -0.17141)
(-0.000666989 0.000517897 -0.173594)
(-5.00335e-05 0.000256446 -0.180118)
(0.000487653 0.000412158 -0.172965)
(0.000477079 0.000345231 -0.176594)
(-0.000670424 0.000553505 -0.179003)
(-4.36935e-05 0.000273815 -0.185434)
(0.000486103 0.000439179 -0.17824)
(0.000483723 0.000367996 -0.181484)
(-0.000669105 0.000588969 -0.184116)
(-4.00973e-05 0.000290507 -0.190442)
(0.000481495 0.000466058 -0.183218)
(0.000491844 0.000391661 -0.186112)
(-0.000662655 0.000623557 -0.188954)
(-3.92255e-05 0.000306414 -0.195161)
(0.000473714 0.000492292 -0.187917)
(0.000499448 0.000415968 -0.190501)
(-0.000651357 0.000656888 -0.193536)
(-4.02921e-05 0.000322347 -0.199607)
(0.000461933 0.000517152 -0.192349)
(0.000503916 0.000438771 -0.194665)
(-0.00063676 0.000690583 -0.197867)
(-4.26593e-05 0.000338085 -0.203796)
(0.00044496 0.000541409 -0.196519)
(0.00050564 0.000458564 -0.198609)
(-0.000620176 0.000725791 -0.201955)
(-4.63469e-05 0.000352654 -0.207741)
(0.000423418 0.000566776 -0.200447)
(0.000509963 0.000476655 -0.20234)
(-0.000601465 0.000759268 -0.205823)
(-5.00211e-05 0.000366733 -0.211469)
(0.000400246 0.000592316 -0.204173)
(0.000521054 0.000495403 -0.205889)
(-0.000578737 0.000789652 -0.209508)
(-5.15177e-05 0.000381117 -0.215029)
(0.000378457 0.000614585 -0.207743)
(0.000537897 0.00051837 -0.209283)
(-0.000551922 0.000817961 -0.21304)
(-4.83103e-05 0.000395518 -0.218471)
(0.000359116 0.000632541 -0.211171)
(0.000555651 0.000541069 -0.21251)
(-0.000525007 0.000848735 -0.216418)
(-4.178e-05 0.000407169 -0.221809)
(0.00033993 0.000650204 -0.214422)
(0.000569638 0.000558114 -0.215553)
(-0.000503061 0.000882338 -0.219623)
(-3.62342e-05 0.000416604 -0.225023)
(0.000318867 0.000670356 -0.217483)
(0.000576397 0.000568595 -0.218458)
(-0.000486218 0.000912101 -0.222673)
(-3.23949e-05 0.000425974 -0.228063)
(0.000297563 0.000693812 -0.220372)
(0.000578107 0.000579093 -0.221311)
(-0.00046949 0.000937492 -0.22559)
(-3.19926e-05 0.000436546 -0.23095)
(0.000272452 0.00071291 -0.223139)
(0.000577741 0.000598827 -0.224138)
(-0.000449257 0.000961674 -0.228393)
(-3.27127e-05 0.000447064 -0.233757)
(0.000240751 0.000728767 -0.225807)
(0.000577179 0.000619758 -0.226884)
(-0.000426746 0.000989318 -0.231083)
(-2.98215e-05 0.000457224 -0.236497)
(0.000206646 0.000744073 -0.228357)
(0.000580341 0.000633279 -0.229473)
(-0.000401438 0.00101443 -0.233661)
(-2.20014e-05 0.000465909 -0.239121)
(0.000173059 0.000757427 -0.230782)
(0.000588682 0.000638074 -0.231901)
(-0.000374188 0.00103737 -0.236113)
(-1.95342e-05 0.000475223 -0.24159)
(0.000140875 0.000771437 -0.233121)
(0.000601286 0.000645743 -0.234223)
(-0.000343474 0.00106314 -0.238417)
(-2.06847e-05 0.000478139 -0.2439)
(0.000108721 0.000784445 -0.235421)
(0.000611751 0.000659462 -0.236471)
(-0.000309551 0.00108774 -0.240629)
(-2.28019e-05 0.000477008 -0.246091)
(7.6388e-05 0.000801853 -0.237575)
(0.000617057 0.000669893 -0.238621)
(-0.000273967 0.00111079 -0.242786)
(-2.11175e-05 0.000483018 -0.248212)
(3.98215e-05 0.000815233 -0.239579)
(0.000625961 0.00067687 -0.240667)