/*--------------------------------*- C++ -*----------------------------------*\
| =========                 |                                                 |
| \\      /  F ield         | OpenFOAM: The Open Source CFD Toolbox           |
|  \\    /   O peration     | Version:  v1906                                 |
|   \\  /    A nd           | Web:      www.OpenFOAM.com                      |
|    \\/     M anipulation  |                                                 |
\*---------------------------------------------------------------------------*/
FoamFile
{
    version     2.0;
    format      ascii;
    class       volSymmTensorField;
    location    "97.6";
    object      UPrime2Mean;
}
// * * * * * * * * * * * * * * * * * * * * * * * * * * * * * * * * * * * * * //

dimensions      [0 2 -2 0 0 0 0];


internalField   nonuniform List<symmTensor> 
2528
(
(2.73534e-06 4.57119e-08 -1.19545e-07 1.8647e-07 -8.42416e-07 6.70848e-06)
(3.4192e-06 2.48619e-08 1.69266e-06 1.88596e-09 4.00149e-08 5.81896e-06)
(2.71803e-06 -5.71877e-09 1.38979e-07 1.77042e-09 -4.71206e-08 6.48494e-06)
(3.42805e-06 -2.40334e-08 -1.83315e-06 1.97724e-09 4.1517e-08 6.05111e-06)
(1.05152e-05 -4.96705e-08 -8.41762e-07 6.31426e-08 -8.45105e-08 1.34008e-05)
(1.09389e-05 9.23185e-08 1.28934e-06 1.51344e-08 8.10323e-08 1.50827e-05)
(1.03999e-05 -3.08846e-08 9.40503e-07 1.42131e-08 -1.26539e-07 1.2608e-05)
(1.1016e-05 -9.27212e-08 -2.0554e-06 1.55573e-08 9.21929e-08 1.59881e-05)
(1.31242e-05 2.56798e-07 -1.18572e-06 2.40982e-07 2.06636e-07 2.1764e-05)
(1.08536e-05 7.04669e-08 -9.47143e-07 4.72475e-08 -1.00543e-07 3.09424e-05)
(1.29198e-05 -6.44432e-08 1.3363e-06 4.43917e-08 2.82562e-08 2.12374e-05)
(1.10438e-05 -8.02074e-08 -7.03761e-07 4.90861e-08 -7.58341e-08 3.26036e-05)
(1.60726e-05 7.16111e-08 -1.46755e-06 1.32802e-07 2.35613e-07 4.1625e-05)
(1.1131e-05 -3.69028e-09 -9.39376e-07 1.19037e-07 -4.30846e-07 5.83599e-05)
(1.58061e-05 -9.98736e-08 1.66425e-06 1.11347e-07 3.35823e-07 4.12711e-05)
(1.14502e-05 -2.19195e-08 -1.84177e-06 1.24129e-07 -3.93276e-07 6.01832e-05)
(2.07226e-05 2.67449e-07 -1.96097e-06 2.76868e-07 8.86924e-07 6.4059e-05)
(1.31334e-05 -7.15827e-08 -8.91656e-07 2.01544e-07 -6.81971e-07 8.93163e-05)
(2.03853e-05 -1.31029e-07 2.21696e-06 1.88458e-07 6.19297e-07 6.33099e-05)
(1.35903e-05 2.62038e-08 -3.17311e-06 2.10841e-07 -6.30534e-07 9.02222e-05)
(2.57675e-05 2.95087e-07 -2.51003e-06 3.81474e-07 1.0934e-06 8.74704e-05)
(1.54537e-05 -1.32399e-07 -1.14314e-06 3.11533e-07 -8.90844e-07 0.000122356)
(2.53582e-05 -1.63408e-07 2.82887e-06 2.91081e-07 9.05771e-07 8.58717e-05)
(1.60371e-05 6.41434e-08 -4.25172e-06 3.26699e-07 -8.27142e-07 0.000121213)
(3.06771e-05 3.76086e-07 -3.01622e-06 5.34146e-07 1.4419e-06 0.000111754)
(1.76914e-05 -1.94945e-07 -1.49338e-06 4.46197e-07 -1.06209e-06 0.000157045)
(3.01992e-05 -1.9504e-07 3.39017e-06 4.16516e-07 1.21464e-06 0.000108985)
(1.83735e-05 1.01447e-07 -5.19125e-06 4.68934e-07 -9.90571e-07 0.000152787)
(3.51615e-05 4.55301e-07 -3.43949e-06 7.19461e-07 1.83618e-06 0.00013656)
(1.96936e-05 -2.67415e-07 -1.76475e-06 6.04792e-07 -1.20934e-06 0.000192673)
(3.4621e-05 -2.25186e-07 3.84502e-06 5.64014e-07 1.56574e-06 0.000132437)
(2.04354e-05 1.47475e-07 -6.08985e-06 6.3684e-07 -1.13782e-06 0.00018442)
(3.90446e-05 5.36993e-07 -3.77331e-06 9.2896e-07 2.29891e-06 0.000161329)
(2.14022e-05 -3.57331e-07 -1.83405e-06 7.88751e-07 -1.35103e-06 0.000228306)
(3.84483e-05 -2.53735e-07 4.16973e-06 7.3485e-07 1.97691e-06 0.000155803)
(2.21567e-05 2.10945e-07 -7.00351e-06 8.31896e-07 -1.29161e-06 0.000215451)
(4.22309e-05 6.16526e-07 -4.0237e-06 1.16675e-06 2.84258e-06 0.000185506)
(2.28182e-05 -4.69615e-07 -1.62735e-06 9.98453e-07 -1.50079e-06 0.000263043)
(4.15863e-05 -2.80484e-07 4.35766e-06 9.29403e-07 2.45991e-06 0.000178659)
(2.35324e-05 2.98023e-07 -7.96346e-06 1.05442e-06 -1.46924e-06 0.000245259)
(4.46948e-05 6.93662e-07 -4.1976e-06 1.43058e-06 3.47353e-06 0.000208681)
(2.39808e-05 -6.05007e-07 -1.12497e-06 1.23314e-06 -1.66628e-06 0.000296229)
(4.40118e-05 -3.05237e-07 4.40977e-06 1.14674e-06 3.01652e-06 0.000200691)
(2.46018e-05 4.11237e-07 -8.97788e-06 1.30383e-06 -1.6804e-06 0.000273401)
(4.64752e-05 7.67333e-07 -4.3036e-06 1.71585e-06 4.17632e-06 0.000230563)
(2.49446e-05 -7.60317e-07 -3.65756e-07 1.49031e-06 -1.8433e-06 0.000327486)
(4.57667e-05 -3.2804e-07 4.33093e-06 1.38374e-06 3.6317e-06 0.000221626)
(2.54289e-05 5.49119e-07 -1.00218e-05 1.57808e-06 -1.92379e-06 0.000299607)
(4.76605e-05 8.36176e-07 -4.35494e-06 2.01744e-06 4.92141e-06 0.000250875)
(2.57577e-05 -9.30308e-07 5.69154e-07 1.76667e-06 -2.01831e-06 0.000356604)
(4.69427e-05 -3.4905e-07 4.13251e-06 1.63707e-06 4.28247e-06 0.000241178)
(2.60759e-05 7.06803e-07 -1.10399e-05 1.87383e-06 -2.18725e-06 0.00032368)
(4.83623e-05 8.98435e-07 -4.36628e-06 2.33237e-06 5.68472e-06 0.000269419)
(2.64494e-05 -1.1099e-06 1.60138e-06 2.05983e-06 -2.18183e-06 0.000383472)
(4.76551e-05 -3.68261e-07 3.832e-06 1.90537e-06 4.9566e-06 0.000259218)
(2.65875e-05 8.78401e-07 -1.19749e-05 2.18807e-06 -2.45741e-06 0.000345495)
(4.86897e-05 9.53457e-07 -4.34572e-06 2.66025e-06 6.46232e-06 0.000286193)
(2.70313e-05 -1.29561e-06 2.68757e-06 2.36881e-06 -2.33503e-06 0.0004081)
(4.80173e-05 -3.85676e-07 3.44912e-06 2.18889e-06 5.65549e-06 0.000275853)
(2.69911e-05 1.05986e-06 -1.28055e-05 2.51927e-06 -2.72945e-06 0.000365071)
(4.87341e-05 1.00202e-06 -4.29261e-06 3.00106e-06 7.26118e-06 0.000301342)
(2.75083e-05 -1.48557e-06 3.81128e-06 2.69325e-06 -2.48459e-06 0.000430591)
(4.81215e-05 -4.0122e-07 3.00681e-06 2.48747e-06 6.38052e-06 0.00029124)
(2.73025e-05 1.24967e-06 -1.35498e-05 2.86725e-06 -3.00641e-06 0.000382541)
(4.85678e-05 1.04543e-06 -4.2049e-06 3.35408e-06 8.08088e-06 0.000315028)
(2.78862e-05 -1.67896e-06 4.96261e-06 3.03278e-06 -2.63449e-06 0.000451056)
(4.80353e-05 -4.14776e-07 2.5294e-06 2.79958e-06 7.12629e-06 0.000305433)
(2.75335e-05 1.44715e-06 -1.42324e-05 3.23198e-06 -3.29188e-06 0.000398035)
(4.82477e-05 1.08408e-06 -4.08569e-06 3.71861e-06 8.91102e-06 0.000327366)
(2.81723e-05 -1.87466e-06 6.12292e-06 3.38689e-06 -2.7841e-06 0.00046956)
(4.78099e-05 -4.26384e-07 2.0397e-06 3.12356e-06 7.88283e-06 0.000318373)
(2.76935e-05 1.65061e-06 -1.48623e-05 3.61273e-06 -3.58532e-06 0.00041165)
(4.78181e-05 1.11781e-06 -3.942e-06 4.09342e-06 9.74798e-06 0.000338422)
(2.83739e-05 -2.07086e-06 7.26395e-06 3.75487e-06 -2.93057e-06 0.000486124)
(4.74835e-05 -4.36402e-07 1.55793e-06 3.45911e-06 8.64122e-06 0.000329946)
(2.77897e-05 1.85759e-06 -1.54386e-05 4.00854e-06 -3.88305e-06 0.000423451)
(4.73128e-05 1.14644e-06 -3.78326e-06 4.47435e-06 1.05816e-05 0.000348167)
(2.84977e-05 -2.2654e-06 8.35773e-06 4.1359e-06 -3.06973e-06 0.000500757)
(4.7083e-05 -4.45441e-07 1.09863e-06 3.80749e-06 9.40159e-06 0.000340082)
(2.78282e-05 2.06573e-06 -1.59578e-05 4.41864e-06 -4.18103e-06 0.000433493)
(4.67549e-05 1.17041e-06 -3.62111e-06 4.85821e-06 1.13865e-05 0.000356459)
(2.85497e-05 -2.45597e-06 9.3838e-06 4.52919e-06 -3.19723e-06 0.000513504)
(4.66245e-05 -4.54029e-07 6.69641e-07 4.16944e-06 1.0171e-05 0.000348876)
(2.78148e-05 2.27246e-06 -1.64173e-05 4.84258e-06 -4.47477e-06 0.000441842)
(4.61594e-05 1.19118e-06 -3.46413e-06 5.25066e-06 1.2167e-05 0.000363222)
(2.85363e-05 -2.64086e-06 1.03318e-05 4.93427e-06 -3.31157e-06 0.000524463)
(4.61152e-05 -4.61968e-07 2.74509e-07 4.54338e-06 1.09496e-05 0.00035656)
(2.77532e-05 2.47714e-06 -1.68117e-05 5.2804e-06 -4.76597e-06 0.000448589)
(4.55348e-05 1.20954e-06 -3.31512e-06 5.659e-06 1.2938e-05 0.000368751)
(2.84648e-05 -2.81927e-06 1.11984e-05 5.3513e-06 -3.41412e-06 0.000533759)
(4.55563e-05 -4.68979e-07 -8.59882e-08 4.92758e-06 1.17215e-05 0.000363311)
(2.76436e-05 2.68046e-06 -1.71274e-05 5.73269e-06 -5.05385e-06 0.000453851)
(4.4885e-05 1.22469e-06 -3.17298e-06 6.07607e-06 1.37025e-05 0.000373522)
(2.83417e-05 -2.99138e-06 1.19841e-05 5.78116e-06 -3.50598e-06 0.000541518)
(4.49472e-05 -4.75064e-07 -4.13846e-07 5.32256e-06 1.24704e-05 0.000369162)
(2.74825e-05 2.87788e-06 -1.73546e-05 6.20044e-06 -5.32917e-06 0.000457833)
(4.42114e-05 1.23678e-06 -3.03388e-06 6.49125e-06 1.44467e-05 0.000377726)
(2.81732e-05 -3.15606e-06 1.26919e-05 6.22481e-06 -3.58214e-06 0.000547846)
(4.42881e-05 -4.82032e-07 -7.11521e-07 5.72993e-06 1.32074e-05 0.000374086)
(2.72703e-05 3.06219e-06 -1.75076e-05 6.68062e-06 -5.58184e-06 0.00046087)
(4.35147e-05 1.24772e-06 -2.89441e-06 6.91034e-06 1.51799e-05 0.000381385)
(2.79639e-05 -3.312e-06 1.33278e-05 6.68226e-06 -3.63115e-06 0.000552858)
(4.35804e-05 -4.9256e-07 -9.82035e-07 6.15182e-06 1.39364e-05 0.000378169)
(2.70204e-05 3.23131e-06 -1.76313e-05 7.16807e-06 -5.80106e-06 0.000463223)
(4.27963e-05 1.25847e-06 -2.76138e-06 7.34272e-06 1.58951e-05 0.000384373)
(2.77173e-05 -3.45836e-06 1.39016e-05 7.15186e-06 -3.65513e-06 0.000556705)
(4.28278e-05 -5.02801e-07 -1.22676e-06 6.58807e-06 1.46291e-05 0.000381392)
(2.67548e-05 3.4001e-06 -1.77886e-05 7.66754e-06 -6.00047e-06 0.000464825)
(4.20584e-05 1.26726e-06 -2.65661e-06 7.78884e-06 1.65587e-05 0.000386438)
(2.74336e-05 -3.59574e-06 1.44052e-05 7.63404e-06 -3.66951e-06 0.000559562)
(4.20312e-05 -5.12229e-07 -1.4486e-06 7.03024e-06 1.52701e-05 0.000383481)
(2.6481e-05 3.5836e-06 -1.79853e-05 8.18906e-06 -6.20399e-06 0.000465444)
(4.13042e-05 1.27675e-06 -2.57959e-06 8.24127e-06 1.71766e-05 0.000387672)
(2.71115e-05 -3.72135e-06 1.4809e-05 8.13243e-06 -3.66893e-06 0.000561485)
(4.11889e-05 -5.24537e-07 -1.66544e-06 7.47822e-06 1.58626e-05 0.000384826)
(2.61736e-05 3.77104e-06 -1.81261e-05 8.73665e-06 -6.4153e-06 0.000465155)
(4.05394e-05 1.28558e-06 -2.51186e-06 8.70458e-06 1.77948e-05 0.000388451)
(2.67507e-05 -3.83719e-06 1.50893e-05 8.64522e-06 -3.64163e-06 0.000562296)
(4.03061e-05 -5.38843e-07 -1.88922e-06 7.94773e-06 1.6467e-05 0.000385981)
(2.58146e-05 3.9419e-06 -1.81311e-05 9.30852e-06 -6.66281e-06 0.000464213)
(3.97712e-05 1.29481e-06 -2.43033e-06 9.18388e-06 1.8417e-05 0.00038898)
(2.63507e-05 -3.9667e-06 1.52725e-05 9.16671e-06 -3.63742e-06 0.000561938)
(3.93962e-05 -5.49862e-07 -2.10124e-06 8.44102e-06 1.71188e-05 0.000386988)
(2.53908e-05 4.095e-06 -1.79574e-05 9.89153e-06 -6.9352e-06 0.000462294)
(3.90076e-05 1.30395e-06 -2.3467e-06 9.66653e-06 1.89423e-05 0.0003889)
(2.59147e-05 -4.1102e-06 1.54028e-05 9.71932e-06 -3.66683e-06 0.000560627)
(3.84745e-05 -5.6048e-07 -2.27345e-06 8.95603e-06 1.77766e-05 0.000387683)
(2.48925e-05 4.25679e-06 -1.76392e-05 1.04963e-05 -7.08336e-06 0.000458963)
(3.82569e-05 1.32651e-06 -2.30309e-06 1.01873e-05 1.94579e-05 0.000388182)
(2.54523e-05 -4.23142e-06 1.54512e-05 1.03178e-05 -3.6749e-06 0.000558192)
(3.75405e-05 -5.8091e-07 -2.42635e-06 9.48795e-06 1.83729e-05 0.000387731)
(2.43181e-05 4.4066e-06 -1.72993e-05 1.11315e-05 -7.0777e-06 0.000454821)
(3.75124e-05 1.35072e-06 -2.37651e-06 1.07527e-05 2.00379e-05 0.000386818)
(2.49898e-05 -4.2975e-06 1.54383e-05 1.08849e-05 -3.54506e-06 0.000554935)
(3.65867e-05 -5.99618e-07 -2.59701e-06 1.00355e-05 1.88083e-05 0.000386581)
(2.37121e-05 4.46904e-06 -1.71017e-05 1.17145e-05 -6.99666e-06 0.000451311)
(3.67629e-05 1.34772e-06 -2.65962e-06 1.12739e-05 2.05195e-05 0.000383816)
(2.45577e-05 -4.32707e-06 1.54885e-05 1.14156e-05 -3.26851e-06 0.000551924)
(3.56044e-05 -6.09599e-07 -2.66359e-06 1.06142e-05 1.92338e-05 0.000385068)
(2.31042e-05 4.45083e-06 -1.68477e-05 1.22821e-05 -6.94837e-06 0.000448161)
(3.59829e-05 1.31211e-06 -3.07784e-06 1.17322e-05 2.06569e-05 0.000377883)
(2.41769e-05 -4.37592e-06 1.57245e-05 1.1999e-05 -3.12425e-06 0.000549365)
(3.45963e-05 -6.05237e-07 -2.44374e-06 1.12189e-05 1.97279e-05 0.000384034)
(2.25224e-05 4.47973e-06 -1.65581e-05 1.29301e-05 -7.13523e-06 0.000444498)
(3.51702e-05 1.25383e-06 -3.32727e-06 1.22624e-05 2.07278e-05 0.000370612)
(2.38608e-05 -4.46642e-06 1.61757e-05 1.26895e-05 -3.12876e-06 0.000546378)
(3.35335e-05 -5.9793e-07 -2.13387e-06 1.17977e-05 2.0115e-05 0.000381651)
(2.20153e-05 4.64506e-06 -1.63518e-05 1.36924e-05 -7.43381e-06 0.000438279)
(3.42796e-05 1.24678e-06 -3.24111e-06 1.29305e-05 2.10826e-05 0.000365257)
(2.34899e-05 -4.5719e-06 1.64829e-05 1.34678e-05 -3.23594e-06 0.0005415)
(3.23334e-05 -6.0638e-07 -2.16913e-06 1.23414e-05 2.02502e-05 0.000377223)
(2.15358e-05 4.8789e-06 -1.62214e-05 1.45339e-05 -7.87092e-06 0.000431332)
(3.32359e-05 1.28892e-06 -2.95923e-06 1.35876e-05 2.14991e-05 0.000362575)
(2.30073e-05 -4.64053e-06 1.64754e-05 1.42168e-05 -3.20005e-06 0.000534236)
(3.09785e-05 -6.52695e-07 -2.75722e-06 1.29522e-05 2.03257e-05 0.000370953)
(2.10521e-05 5.04117e-06 -1.62365e-05 1.53266e-05 -8.24104e-06 0.000425745)
(3.21604e-05 1.34223e-06 -2.76718e-06 1.41586e-05 2.17507e-05 0.000359131)
(2.24656e-05 -4.65868e-06 1.62552e-05 1.48928e-05 -2.95795e-06 0.000525566)
(2.96579e-05 -7.41658e-07 -3.86737e-06 1.36774e-05 2.06407e-05 0.00036543)
(2.05231e-05 5.10963e-06 -1.59334e-05 1.60814e-05 -8.30069e-06 0.000417675)
(3.12153e-05 1.3365e-06 -2.99818e-06 1.47519e-05 2.1773e-05 0.000353296)
(2.19385e-05 -4.6356e-06 1.59204e-05 1.55331e-05 -2.69478e-06 0.000515739)
(2.86406e-05 -7.83867e-07 -4.36397e-06 1.44306e-05 2.11759e-05 0.000362143)
(1.9921e-05 5.14671e-06 -1.51796e-05 1.68098e-05 -8.22219e-06 0.000405659)
(3.05056e-05 1.3447e-06 -3.0335e-06 1.54979e-05 2.18277e-05 0.00034637)
(2.14983e-05 -4.64398e-06 1.57621e-05 1.62095e-05 -2.53129e-06 0.000506217)
(2.77673e-05 -8.20536e-07 -4.08114e-06 1.51217e-05 2.17522e-05 0.000359808)
(1.93274e-05 5.2413e-06 -1.44123e-05 1.75664e-05 -8.26018e-06 0.000393498)
(2.98912e-05 1.38509e-06 -2.79786e-06 1.63172e-05 2.1989e-05 0.000340306)
(2.12165e-05 -4.71848e-06 1.58914e-05 1.69797e-05 -2.36195e-06 0.000496074)
(2.68625e-05 -8.57425e-07 -3.75466e-06 1.57726e-05 2.20933e-05 0.000355858)
(1.87419e-05 5.33749e-06 -1.37019e-05 1.83487e-05 -8.3544e-06 0.000383385)
(2.93169e-05 1.44384e-06 -2.63103e-06 1.6975e-05 2.23395e-05 0.000338276)
(2.09729e-05 -4.82567e-06 1.61943e-05 1.7849e-05 -2.29915e-06 0.000485609)
(2.58484e-05 -9.05516e-07 -3.57205e-06 1.65071e-05 2.23183e-05 0.000349128)
(1.81375e-05 5.40498e-06 -1.28794e-05 1.91883e-05 -8.48933e-06 0.000373123)
(2.87296e-05 1.48223e-06 -2.86554e-06 1.75177e-05 2.25904e-05 0.00033566)
(2.04859e-05 -4.90258e-06 1.58907e-05 1.86847e-05 -2.17572e-06 0.000472057)
(2.48685e-05 -9.40983e-07 -3.58385e-06 1.73883e-05 2.24118e-05 0.000339345)
(1.74578e-05 5.41822e-06 -1.21712e-05 2.0133e-05 -8.74135e-06 0.00036359)
(2.80725e-05 1.4061e-06 -3.49482e-06 1.81808e-05 2.26498e-05 0.000329231)
(1.96804e-05 -4.86549e-06 1.47116e-05 1.94393e-05 -2.08155e-06 0.000455222)
(2.3927e-05 -8.9866e-07 -3.12867e-06 1.82905e-05 2.23816e-05 0.000326595)
(1.68327e-05 5.45701e-06 -1.22115e-05 2.11321e-05 -9.07204e-06 0.000356473)
(2.74397e-05 1.38667e-06 -3.76723e-06 1.90974e-05 2.24805e-05 0.000318928)
(1.90359e-05 -4.87451e-06 1.40529e-05 2.03005e-05 -2.10315e-06 0.000441481)
(2.30577e-05 -8.73175e-07 -2.50283e-06 1.90428e-05 2.22183e-05 0.000314417)
(1.63724e-05 5.62105e-06 -1.28133e-05 2.22133e-05 -9.31774e-06 0.000349304)
(2.68757e-05 1.38505e-06 -3.71728e-06 2.01345e-05 2.28195e-05 0.000310605)
(1.87494e-05 -4.8774e-06 1.43274e-05 2.13142e-05 -2.28659e-06 0.00043204)
(2.22982e-05 -8.55075e-07 -2.28596e-06 1.9733e-05 2.19874e-05 0.000305508)
(1.60071e-05 5.71437e-06 -1.27942e-05 2.31468e-05 -9.50354e-06 0.000339165)
(2.64589e-05 1.46623e-06 -3.57036e-06 2.10299e-05 2.33612e-05 0.000306474)
(1.85686e-05 -4.84471e-06 1.48176e-05 2.22832e-05 -2.3941e-06 0.000423311)
(2.1678e-05 -7.91533e-07 -2.49784e-06 2.06461e-05 2.21489e-05 0.000301861)
(1.56023e-05 5.70227e-06 -1.19583e-05 2.39877e-05 -9.58721e-06 0.000325725)
(2.60695e-05 1.51035e-06 -3.65887e-06 2.17656e-05 2.348e-05 0.000302603)
(1.83286e-05 -4.75723e-06 1.49711e-05 2.30994e-05 -2.17861e-06 0.000413524)
(2.10879e-05 -7.04311e-07 -2.86039e-06 2.16082e-05 2.21384e-05 0.000298114)
(1.51257e-05 5.60949e-06 -1.07602e-05 2.48501e-05 -9.44961e-06 0.000312495)
(2.57674e-05 1.45115e-06 -3.9259e-06 2.23746e-05 2.28408e-05 0.00029644)
(1.8132e-05 -4.70653e-06 1.51736e-05 2.38672e-05 -1.95072e-06 0.000405861)
(2.03791e-05 -6.50679e-07 -3.16761e-06 2.22872e-05 2.16332e-05 0.000289298)
(1.46103e-05 5.55307e-06 -9.59588e-06 2.56951e-05 -9.19809e-06 0.000301247)
(2.5481e-05 1.32683e-06 -4.41827e-06 2.30672e-05 2.20454e-05 0.000288313)
(1.8014e-05 -4.71334e-06 1.58156e-05 2.47619e-05 -1.85934e-06 0.000400879)
(1.97796e-05 -7.12961e-07 -3.14683e-06 2.30558e-05 2.11549e-05 0.000278142)
(1.41878e-05 5.60571e-06 -8.94916e-06 2.66638e-05 -9.29145e-06 0.000291293)
(2.52668e-05 1.23657e-06 -4.78292e-06 2.39819e-05 2.1788e-05 0.000280861)
(1.79225e-05 -4.76814e-06 1.6749e-05 2.57769e-05 -2.06037e-06 0.000396553)
(1.94393e-05 -8.34512e-07 -2.97813e-06 2.41623e-05 2.12168e-05 0.000268977)
(1.39147e-05 5.7597e-06 -8.83967e-06 2.78285e-05 -9.80971e-06 0.000282701)
(2.52654e-05 1.18482e-06 -4.76044e-06 2.50799e-05 2.24262e-05 0.000275936)
(1.7655e-05 -4.71862e-06 1.7015e-05 2.67497e-05 -1.88648e-06 0.000386878)
(1.91704e-05 -8.91105e-07 -2.34941e-06 2.51868e-05 2.13855e-05 0.000261618)
(1.36941e-05 5.83451e-06 -8.80654e-06 2.90031e-05 -1.03469e-05 0.000275146)
(2.52658e-05 1.14735e-06 -4.23731e-06 2.60636e-05 2.25519e-05 0.000269547)
(1.73472e-05 -4.62711e-06 1.70518e-05 2.76713e-05 -1.67579e-06 0.00037559)
(1.88181e-05 -8.77044e-07 -1.31576e-06 2.59914e-05 2.12128e-05 0.000253563)
(1.34742e-05 5.77919e-06 -8.48012e-06 2.99495e-05 -1.05135e-05 0.000266795)
(2.50901e-05 1.17016e-06 -3.67957e-06 2.68679e-05 2.17768e-05 0.000261337)
(1.71824e-05 -4.54249e-06 1.73573e-05 2.85725e-05 -1.64042e-06 0.000366537)
(1.83786e-05 -8.65834e-07 -3.3278e-07 2.68991e-05 2.09593e-05 0.000245512)
(1.32078e-05 5.68089e-06 -7.67249e-06 3.07836e-05 -1.03784e-05 0.000256732)
(2.47594e-05 1.17135e-06 -4.02646e-06 2.76919e-05 2.11638e-05 0.00025434)
(1.6939e-05 -4.51797e-06 1.73036e-05 2.95716e-05 -1.82822e-06 0.000358908)
(1.78776e-05 -8.70096e-07 5.5934e-07 2.79035e-05 2.07119e-05 0.000238102)
(1.2954e-05 5.65001e-06 -6.68015e-06 3.17553e-05 -1.04087e-05 0.000246763)
(2.43408e-05 1.14848e-06 -4.873e-06 2.85157e-05 2.08824e-05 0.00024772)
(1.64867e-05 -4.5027e-06 1.6531e-05 3.05661e-05 -1.90673e-06 0.000347074)
(1.74503e-05 -8.84977e-07 1.07824e-06 2.88442e-05 2.04319e-05 0.000232394)
(1.28163e-05 5.73652e-06 -6.05786e-06 3.28872e-05 -1.08317e-05 0.000239379)
(2.39688e-05 1.15196e-06 -5.54086e-06 2.93634e-05 2.03495e-05 0.000239675)
(1.61003e-05 -4.43095e-06 1.62126e-05 3.14764e-05 -2.11481e-06 0.00033226)
(1.72145e-05 -9.49415e-07 1.21582e-06 2.97481e-05 1.99004e-05 0.000225509)
(1.26614e-05 5.77175e-06 -5.38136e-06 3.39078e-05 -1.12407e-05 0.000233933)
(2.36752e-05 1.23381e-06 -5.81961e-06 3.04636e-05 1.99342e-05 0.000233852)
(1.595e-05 -4.24221e-06 1.65603e-05 3.23461e-05 -2.25882e-06 0.000317637)
(1.70897e-05 -9.74663e-07 1.5165e-06 3.06565e-05 1.91453e-05 0.000217341)
(1.24885e-05 5.7324e-06 -4.70163e-06 3.47421e-05 -1.14131e-05 0.000229233)
(2.33614e-05 1.33039e-06 -5.84002e-06 3.16179e-05 1.95393e-05 0.000229462)
(1.5892e-05 -4.05917e-06 1.70188e-05 3.312e-05 -2.07167e-06 0.000306501)
(1.69407e-05 -9.33153e-07 2.24133e-06 3.154e-05 1.84412e-05 0.000211666)
(1.2333e-05 5.6573e-06 -4.11675e-06 3.56369e-05 -1.14687e-05 0.000225254)
(2.29997e-05 1.42591e-06 -6.04281e-06 3.26231e-05 1.90884e-05 0.000226183)
(1.58269e-05 -3.96982e-06 1.74028e-05 3.4014e-05 -1.78025e-06 0.000296729)
(1.66865e-05 -8.66533e-07 3.17624e-06 3.24764e-05 1.78283e-05 0.000208051)
(1.23348e-05 5.63406e-06 -3.80299e-06 3.66424e-05 -1.1493e-05 0.000221318)
(2.25935e-05 1.47622e-06 -6.44671e-06 3.33803e-05 1.81335e-05 0.000222443)
(1.56824e-05 -3.92928e-06 1.75617e-05 3.51237e-05 -2.16455e-06 0.000292213)
(1.65097e-05 -8.92504e-07 3.43181e-06 3.34517e-05 1.71477e-05 0.000203785)
(1.24163e-05 5.60777e-06 -3.57139e-06 3.76761e-05 -1.1476e-05 0.000216907)
(2.21607e-05 1.45611e-06 -6.58907e-06 3.38851e-05 1.6589e-05 0.000218244)
(1.54791e-05 -3.88098e-06 1.75814e-05 3.61637e-05 -2.95565e-06 0.000290366)
(1.64236e-05 -8.64992e-07 2.93167e-06 3.42459e-05 1.61863e-05 0.000198467)
(1.24621e-05 5.51643e-06 -3.4452e-06 3.86373e-05 -1.15378e-05 0.000214488)
(2.17258e-05 1.43145e-06 -6.54487e-06 3.46065e-05 1.52176e-05 0.00021653)
(1.52843e-05 -3.77875e-06 1.76564e-05 3.69258e-05 -3.39714e-06 0.000288602)
(1.63226e-05 -7.85965e-07 2.89748e-06 3.50109e-05 1.54435e-05 0.000197095)
(1.25971e-05 5.47986e-06 -3.53418e-06 3.9469e-05 -1.17601e-05 0.000213396)
(2.12458e-05 1.41463e-06 -6.44319e-06 3.58306e-05 1.46025e-05 0.000218514)
(1.5196e-05 -3.5883e-06 1.791e-05 3.74832e-05 -3.26525e-06 0.000286461)
(1.62017e-05 -7.4811e-07 3.15709e-06 3.60078e-05 1.48933e-05 0.000198091)
(1.28343e-05 5.51024e-06 -3.74688e-06 4.01836e-05 -1.21351e-05 0.000213783)
(2.0715e-05 1.36911e-06 -6.29335e-06 3.70583e-05 1.40915e-05 0.000220198)
(1.50942e-05 -3.40251e-06 1.78922e-05 3.81587e-05 -3.2767e-06 0.000282872)
(1.60551e-05 -7.50152e-07 3.48666e-06 3.70213e-05 1.41179e-05 0.000197975)
(1.30479e-05 5.49122e-06 -3.83642e-06 4.09424e-05 -1.26099e-05 0.000215464)
(2.01685e-05 1.26769e-06 -6.10223e-06 3.7882e-05 1.30936e-05 0.000219823)
(1.49053e-05 -3.30727e-06 1.75619e-05 3.90875e-05 -3.71151e-06 0.000277915)
(1.59116e-05 -7.09893e-07 3.69145e-06 3.77477e-05 1.30922e-05 0.000197869)
(1.32593e-05 5.40968e-06 -4.01687e-06 4.18506e-05 -1.29854e-05 0.000218711)
(1.96739e-05 1.18974e-06 -5.51282e-06 3.84216e-05 1.17171e-05 0.000219546)
(1.46099e-05 -3.21252e-06 1.70409e-05 4.00294e-05 -4.21868e-06 0.000273822)
(1.57369e-05 -6.47342e-07 3.95085e-06 3.83907e-05 1.18959e-05 0.000198079)
(1.34866e-05 5.30364e-06 -4.20193e-06 4.2697e-05 -1.30221e-05 0.000221682)
(1.92387e-05 1.21684e-06 -4.82773e-06 3.91274e-05 1.0623e-05 0.000221557)
(1.43003e-05 -3.12955e-06 1.65129e-05 4.07063e-05 -4.6607e-06 0.000271147)
(1.54884e-05 -6.35534e-07 4.04515e-06 3.91011e-05 1.06181e-05 0.000198978)
(1.37138e-05 5.13961e-06 -4.32419e-06 4.32784e-05 -1.28862e-05 0.00022466)
(1.87777e-05 1.27171e-06 -4.55024e-06 4.00631e-05 9.85914e-06 0.000224613)
(1.4134e-05 -2.9689e-06 1.63393e-05 4.10313e-05 -4.92838e-06 0.000273007)
(1.52286e-05 -5.79934e-07 4.16348e-06 3.97359e-05 9.39969e-06 0.00020063)
(1.39472e-05 4.95644e-06 -4.53665e-06 4.36974e-05 -1.27765e-05 0.000228811)
(1.82657e-05 1.27157e-06 -4.75737e-06 4.0932e-05 9.07135e-06 0.000228108)
(1.40401e-05 -2.75156e-06 1.6451e-05 4.13679e-05 -5.10575e-06 0.000279401)
(1.49939e-05 -5.18665e-07 4.21979e-06 4.03661e-05 8.22216e-06 0.000203936)
(1.41692e-05 4.82179e-06 -4.88552e-06 4.4144e-05 -1.27938e-05 0.000233925)
(1.77195e-05 1.22453e-06 -5.0553e-06 4.16475e-05 8.10459e-06 0.000232218)
(1.38936e-05 -2.55501e-06 1.63103e-05 4.18739e-05 -5.1255e-06 0.000285686)
(1.48055e-05 -5.13899e-07 4.08961e-06 4.1074e-05 7.01707e-06 0.000208994)
(1.44107e-05 4.7318e-06 -5.42378e-06 4.46965e-05 -1.30452e-05 0.000240412)
(1.71621e-05 1.21071e-06 -4.99657e-06 4.232e-05 6.83044e-06 0.000237369)
(1.37401e-05 -2.45847e-06 1.61494e-05 4.2558e-05 -5.69472e-06 0.000292025)
(1.46591e-05 -4.86066e-07 3.81483e-06 4.16015e-05 5.63402e-06 0.000214427)
(1.47665e-05 4.64139e-06 -6.18325e-06 4.53168e-05 -1.33629e-05 0.000247635)
(1.6601e-05 1.23376e-06 -4.70172e-06 4.27929e-05 5.37695e-06 0.000243316)
(1.36493e-05 -2.38608e-06 1.59967e-05 4.32227e-05 -6.3269e-06 0.00030032)
(1.45014e-05 -4.36024e-07 3.52287e-06 4.20679e-05 4.16189e-06 0.000222199)
(1.51198e-05 4.53118e-06 -6.92741e-06 4.57896e-05 -1.36504e-05 0.000254654)
(1.60519e-05 1.20905e-06 -4.70064e-06 4.32634e-05 3.80761e-06 0.000249476)
(1.36292e-05 -2.27466e-06 1.57877e-05 4.35544e-05 -6.54409e-06 0.000307574)
(1.43302e-05 -4.52394e-07 3.28635e-06 4.25944e-05 2.59396e-06 0.000230674)
(1.54234e-05 4.33603e-06 -7.50125e-06 4.62082e-05 -1.35704e-05 0.000262118)
(1.55623e-05 1.12677e-06 -4.95163e-06 4.38307e-05 2.09334e-06 0.000255864)
(1.35575e-05 -2.05174e-06 1.53431e-05 4.38317e-05 -6.47922e-06 0.000311614)
(1.42029e-05 -4.13088e-07 3.14144e-06 4.29569e-05 5.605e-07 0.000238466)
(1.57008e-05 3.98883e-06 -7.8388e-06 4.65339e-05 -1.2631e-05 0.000270008)
(1.51549e-05 1.0425e-06 -5.09294e-06 4.41595e-05 1.22858e-07 0.00026234)
(1.33165e-05 -1.68427e-06 1.45064e-05 4.36559e-05 -6.23607e-06 0.000310485)
(1.41259e-05 -3.0597e-07 2.94326e-06 4.29944e-05 -1.82844e-06 0.000245762)
(1.59674e-05 3.52824e-06 -8.05148e-06 4.57123e-05 -1.11599e-05 0.000276628)
(1.47926e-05 1.02378e-06 -4.99075e-06 4.3954e-05 -1.70163e-06 0.000268114)
(1.30872e-05 -1.39014e-06 1.36479e-05 4.26236e-05 -6.51708e-06 0.000304756)
(1.39679e-05 -2.80177e-07 2.725e-06 4.21323e-05 -3.66258e-06 0.000251326)
(1.62459e-05 3.22677e-06 -8.78326e-06 4.42741e-05 -1.08647e-05 0.000283064)
(9.02573e-07 -2.12497e-09 -3.16569e-08 6.34331e-10 -4.13689e-09 4.26194e-06)
(4.07157e-07 3.44839e-09 6.39846e-08 7.64048e-10 1.44379e-08 2.57195e-06)
(8.96704e-07 5.81657e-10 1.18739e-08 5.91786e-10 -2.74701e-09 2.9222e-06)
(3.88058e-07 -2.0668e-09 -4.7944e-08 7.09667e-10 1.59148e-08 3.45518e-06)
(3.80961e-06 -5.85233e-09 -3.81349e-07 3.24459e-09 -1.00549e-08 1.26819e-05)
(1.48752e-06 1.05834e-08 -7.77763e-09 3.89239e-09 2.37798e-08 1.13816e-05)
(3.75997e-06 -3.69167e-10 2.36694e-07 3.03015e-09 -7.89426e-09 9.02034e-06)
(1.33458e-06 -5.44302e-09 2.23335e-07 3.50097e-09 2.95222e-08 1.71247e-05)
(5.09624e-06 -6.2131e-09 -7.65654e-07 1.25166e-08 -4.1676e-09 2.23431e-05)
(1.86047e-06 1.27649e-08 -8.24702e-08 1.46981e-08 -1.6453e-08 2.46613e-05)
(4.95757e-06 -5.2392e-09 5.84651e-07 1.16436e-08 -4.91077e-09 1.62146e-05)
(1.48863e-06 -3.2658e-09 5.93805e-07 1.36802e-08 1.02341e-09 3.85429e-05)
(6.4342e-06 -2.40305e-09 -1.17125e-06 2.82873e-08 3.25585e-08 3.79963e-05)
(2.37523e-06 9.18667e-09 -1.09016e-07 3.23861e-08 -6.65488e-08 4.3332e-05)
(6.16071e-06 -1.39215e-08 1.0969e-06 2.6504e-08 2.61126e-08 2.71862e-05)
(1.723e-06 3.78661e-09 9.01515e-07 3.01147e-08 -3.38256e-08 6.80118e-05)
(8.45881e-06 1.88694e-10 -1.60102e-06 4.86559e-08 7.5377e-08 5.65407e-05)
(3.20691e-06 7.80697e-09 -2.01138e-07 5.49966e-08 -9.49808e-08 6.56549e-05)
(8.01367e-06 -2.17894e-08 1.73961e-06 4.57544e-08 5.76589e-08 4.00498e-05)
(2.21275e-06 9.7633e-09 1.25349e-06 5.14298e-08 -3.81694e-08 0.00010272)
(1.07614e-05 2.25555e-09 -1.98366e-06 7.52407e-08 1.23604e-07 7.65739e-05)
(4.1688e-06 8.32397e-09 -3.47857e-07 8.43236e-08 -1.02202e-07 9.06383e-05)
(1.01111e-05 -3.01514e-08 2.44859e-06 7.09991e-08 9.15265e-08 5.39853e-05)
(2.7901e-06 1.52543e-08 1.61475e-06 7.90015e-08 -1.44334e-08 0.000140848)
(1.31564e-05 4.88393e-09 -2.27868e-06 1.07677e-07 1.80412e-07 9.74212e-05)
(5.18233e-06 9.50667e-09 -5.29189e-07 1.2004e-07 -9.19899e-08 0.000117415)
(1.22715e-05 -3.90781e-08 3.18192e-06 1.01902e-07 1.30516e-07 6.8551e-05)
(3.39624e-06 2.07859e-08 1.94712e-06 1.12542e-07 3.41584e-08 0.000180937)
(1.55254e-05 9.2704e-09 -2.46564e-06 1.45943e-07 2.4914e-07 0.00011845)
(6.19658e-06 1.02952e-08 -7.28805e-07 1.62101e-07 -6.9272e-08 0.000144974)
(1.43824e-05 -4.87959e-08 3.90818e-06 1.38422e-07 1.77791e-07 8.33012e-05)
(3.99968e-06 2.68319e-08 2.22614e-06 1.52092e-07 1.02565e-07 0.000221559)
(1.77816e-05 1.64371e-08 -2.54307e-06 1.9019e-07 3.31804e-07 0.000139026)
(7.17344e-06 9.77248e-09 -9.33095e-07 2.10522e-07 -3.83483e-08 0.000172243)
(1.6363e-05 -5.94874e-08 4.60401e-06 1.80711e-07 2.36334e-07 9.77766e-05)
(4.57999e-06 3.37446e-08 2.43887e-06 1.97797e-07 1.86668e-07 0.000261346)
(1.98623e-05 2.68919e-08 -2.52605e-06 2.40481e-07 4.29769e-07 0.000158626)
(8.08553e-06 7.29889e-09 -1.13106e-06 2.65129e-07 -2.76694e-09 0.000198286)
(1.81574e-05 -7.11682e-08 5.25207e-06 2.28843e-07 3.07892e-07 0.000111587)
(5.12434e-06 4.17996e-08 2.58326e-06 2.4973e-07 2.83157e-07 0.000299175)
(2.17299e-05 4.03595e-08 -2.4358e-06 2.96618e-07 5.43589e-07 0.000176947)
(8.91641e-06 2.66628e-09 -1.31567e-06 3.25659e-07 3.559e-08 0.000222493)
(1.97342e-05 -8.3551e-08 5.84159e-06 2.82832e-07 3.93779e-07 0.00012449)
(5.62634e-06 5.10614e-08 2.66684e-06 3.07818e-07 3.90031e-07 0.000334361)
(2.33694e-05 5.60057e-08 -2.29576e-06 3.57834e-07 6.7005e-07 0.000193906)
(9.65979e-06 -3.89253e-09 -1.48355e-06 3.91617e-07 7.66405e-08 0.000244638)
(2.10865e-05 -9.60565e-08 6.36884e-06 3.42129e-07 4.9335e-07 0.000136381)
(6.08394e-06 6.11959e-08 2.70529e-06 3.71518e-07 5.08251e-07 0.00036667)
(2.47804e-05 7.2958e-08 -2.12272e-06 4.23336e-07 8.03902e-07 0.00020954)
(1.03167e-05 -1.17862e-08 -1.63377e-06 4.62265e-07 1.22768e-07 0.000264813)
(2.22222e-05 -1.07916e-07 6.83263e-06 4.05939e-07 6.01948e-07 0.000147254)
(6.49704e-06 7.17146e-08 2.71942e-06 4.40014e-07 6.42066e-07 0.000396352)
(2.59673e-05 9.09444e-08 -1.92153e-06 4.92822e-07 9.40949e-07 0.000223905)
(1.0891e-05 -2.03146e-08 -1.77033e-06 5.36903e-07 1.79394e-07 0.000283262)
(2.31529e-05 -1.18838e-07 7.23285e-06 4.73847e-07 7.15235e-07 0.000157162)
(6.86581e-06 8.22471e-08 2.72369e-06 5.12879e-07 7.94055e-07 0.000423813)
(2.69371e-05 1.09685e-07 -1.69272e-06 5.66374e-07 1.08073e-06 0.000237053)
(1.13862e-05 -2.89805e-08 -1.89677e-06 6.15153e-07 2.50287e-07 0.000300194)
(2.38906e-05 -1.2906e-07 7.56386e-06 5.45901e-07 8.32621e-07 0.000166169)
(7.19066e-06 9.2655e-08 2.72373e-06 5.9035e-07 9.61551e-07 0.000449173)
(2.77014e-05 1.28581e-07 -1.43483e-06 6.44114e-07 1.2244e-06 0.000249029)
(1.18047e-05 -3.75153e-08 -2.01047e-06 6.97059e-07 3.3456e-07 0.000315729)
(2.44462e-05 -1.38575e-07 7.81587e-06 6.22447e-07 9.55816e-07 0.000174324)
(7.47283e-06 1.03005e-07 2.72215e-06 6.7272e-07 1.14052e-06 0.000472383)
(2.82741e-05 1.47173e-07 -1.14938e-06 7.26115e-07 1.37132e-06 0.000259865)
(1.21492e-05 -4.57696e-08 -2.10603e-06 7.82843e-07 4.29428e-07 0.000329926)
(2.48318e-05 -1.47161e-07 7.98598e-06 7.03711e-07 1.08565e-06 0.000181658)
(7.71478e-06 1.13295e-07 2.72181e-06 7.60103e-07 1.32867e-06 0.0004934)
(2.86708e-05 1.65282e-07 -8.43198e-07 8.12475e-07 1.52009e-06 0.000269571)
(1.2424e-05 -5.35901e-08 -2.17989e-06 8.7264e-07 5.34259e-07 0.000342811)
(2.50628e-05 -1.54726e-07 8.07747e-06 7.89802e-07 1.22083e-06 0.000188177)
(7.91975e-06 1.23489e-07 2.72644e-06 8.52615e-07 1.5251e-06 0.000512208)