/*--------------------------------*- C++ -*----------------------------------*\
| =========                 |                                                 |
| \\      /  F ield         | OpenFOAM: The Open Source CFD Toolbox           |
|  \\    /   O peration     | Version:  v1912                                 |
|   \\  /    A nd           | Website:  www.openfoam.com                      |
|    \\/     M anipulation  |                                                 |
\*---------------------------------------------------------------------------*/
FoamFile
{
    version     2.0;
    format      ascii;
    class       volSymmTensorField;
    location    "97.6";
    object      UPrime2Mean;
}
// * * * * * * * * * * * * * * * * * * * * * * * * * * * * * * * * * * * * * //

dimensions      [0 2 -2 0 0 0 0];


internalField   nonuniform List<symmTensor> 
2528
(
(1.07383e-07 -2.95036e-08 4.22987e-08 2.22624e-08 6.83426e-08 1.93317e-05)
(1.07064e-07 2.67027e-09 2.3399e-07 2.47599e-10 -5.1663e-09 8.80561e-06)
(1.02258e-07 -9.31192e-10 4.77679e-08 1.62662e-10 4.1235e-09 1.65449e-05)
(6.38109e-08 -1.70699e-09 -1.44815e-07 1.96773e-10 -8.91179e-09 1.88049e-05)
(7.673e-07 1.08225e-07 -3.30438e-06 4.31723e-08 -2.06814e-06 0.000115851)
(5.88317e-07 2.118e-08 1.39675e-06 1.54509e-09 3.85977e-08 4.68283e-05)
(7.19459e-07 -1.31803e-08 3.5498e-06 1.1896e-09 -1.03587e-08 9.40656e-05)
(2.99395e-07 -1.63343e-08 -3.33349e-07 1.66592e-09 5.39637e-08 0.000120358)
(2.13846e-06 -1.22675e-07 -1.35553e-05 1.95751e-08 2.18465e-06 0.000267005)
(1.01294e-06 5.07152e-08 3.25821e-06 4.68702e-09 2.2213e-07 0.000106119)
(1.98794e-06 -4.84855e-08 1.32325e-05 3.79613e-09 -1.08501e-07 0.000209588)
(4.39223e-07 -4.0092e-08 4.13289e-07 5.83257e-09 3.38543e-07 0.000286616)
(4.30601e-06 3.30464e-07 -2.89644e-05 2.96747e-08 -2.6328e-06 0.000477336)
(1.4214e-06 9.09905e-08 5.42645e-06 1.03319e-08 5.10529e-07 0.000190351)
(3.99644e-06 -1.15768e-07 2.74874e-05 8.84589e-09 -2.36357e-07 0.000369397)
(5.52547e-07 -7.03177e-08 2.35998e-06 1.4138e-08 8.83551e-07 0.000515896)
(6.94728e-06 2.09932e-07 -4.73414e-05 1.92421e-08 4.01852e-07 0.000740647)
(1.90246e-06 1.28365e-07 7.86576e-06 1.60365e-08 8.1755e-07 0.000295579)
(6.44735e-06 -1.89546e-07 4.44775e-05 1.45976e-08 -3.47004e-07 0.000570898)
(6.88162e-07 -9.90924e-08 5.13516e-06 2.53133e-08 1.6275e-06 0.000798975)
(9.8527e-06 4.3177e-07 -6.82497e-05 3.26978e-08 -9.40371e-07 0.00104307)
(2.39906e-06 1.68871e-07 1.0682e-05 2.28019e-08 1.1616e-06 0.000416851)
(9.1497e-06 -2.73411e-07 6.3819e-05 2.19284e-08 -4.4727e-07 0.000804304)
(8.19122e-07 -1.29363e-07 8.50513e-06 4.09214e-08 2.6172e-06 0.00112267)
(1.28703e-05 5.59416e-07 -9.12077e-05 4.60461e-08 -8.67999e-07 0.00137341)
(2.87383e-06 2.0992e-07 1.39087e-05 3.01747e-08 1.53169e-06 0.000550604)
(1.19689e-05 -3.61938e-07 8.51232e-05 3.05854e-08 -5.38767e-07 0.00106201)
(9.36803e-07 -1.59358e-07 1.23211e-05 6.12552e-08 3.86986e-06 0.00147669)
(1.5882e-05 7.12777e-07 -0.000115666 6.25122e-08 -1.03763e-06 0.00172234)
(3.30343e-06 2.50165e-07 1.75259e-05 3.79331e-08 1.91818e-06 0.000693969)
(1.48011e-05 -4.51709e-07 0.000107953 4.04739e-08 -6.24933e-07 0.00133763)
(1.04034e-06 -1.88197e-07 1.64755e-05 8.6791e-08 5.40093e-06 0.00185241)
(1.87944e-05 8.59904e-07 -0.000141031 8.08861e-08 -1.08978e-06 0.00208156)
(3.67352e-06 2.88927e-07 2.14726e-05 4.59866e-08 2.31143e-06 0.000844474)
(1.75647e-05 -5.40771e-07 0.000131817 5.16238e-08 -7.08546e-07 0.00162528)
(1.13225e-06 -2.15477e-07 2.08865e-05 1.18119e-07 7.21991e-06 0.00224167)
(2.15399e-05 1.01051e-06 -0.000166687 1.01699e-07 -1.18626e-06 0.00244385)
(3.97589e-06 3.25334e-07 2.56653e-05 5.42048e-08 2.70025e-06 0.000999794)
(2.01945e-05 -6.2743e-07 0.000156194 6.40263e-08 -7.88596e-07 0.00191935)
(1.21598e-06 -2.40636e-07 2.5474e-05 1.55621e-07 9.3222e-06 0.00263694)
(2.40748e-05 1.15912e-06 -0.000192052 1.24845e-07 -1.2702e-06 0.0028036)
(4.20751e-06 3.58596e-07 3.0009e-05 6.24623e-08 3.07352e-06 0.00115768)
(2.26436e-05 -7.09937e-07 0.00018056 7.75816e-08 -8.5999e-07 0.00221505)
(1.29471e-06 -2.63061e-07 3.01617e-05 1.99615e-07 1.16937e-05 0.00303199)
(2.63688e-05 1.30365e-06 -0.000216671 1.504e-07 -1.32407e-06 0.00315726)
(4.37031e-06 3.88e-07 3.441e-05 7.06172e-08 3.41995e-06 0.00131606)
(2.48834e-05 -7.87194e-07 0.000204446 9.2222e-08 -9.19158e-07 0.00250893)
(1.37148e-06 -2.82326e-07 3.48955e-05 2.5027e-07 1.43151e-05 0.00342265)
(2.83997e-05 1.44111e-06 -0.000240303 1.78265e-07 -1.34012e-06 0.00350245)
(4.47071e-06 4.12978e-07 3.87872e-05 7.85214e-08 3.72858e-06 0.00147329)
(2.68914e-05 -8.58062e-07 0.00022752 1.07916e-07 -9.6128e-07 0.00279906)
(1.44775e-06 -2.97837e-07 3.96384e-05 3.07275e-07 1.71582e-05 0.00380618)
(3.01567e-05 1.56753e-06 -0.00026287 2.07797e-07 -1.33033e-06 0.0038366)
(4.51804e-06 4.33148e-07 4.30773e-05 8.60606e-08 3.9899e-06 0.00162816)
(2.86524e-05 -9.19367e-07 0.0002496 1.24209e-07 -9.76962e-07 0.00308364)
(1.52335e-06 -3.09062e-07 4.43459e-05 3.7048e-07 2.0206e-05 0.00418035)
(3.16485e-05 1.68102e-06 -0.000284404 2.38537e-07 -1.31685e-06 0.00415779)
(4.52262e-06 4.4844e-07 4.7237e-05 9.31753e-08 4.19631e-06 0.00177997)
(3.01686e-05 -9.69497e-07 0.000270658 1.40772e-07 -9.65365e-07 0.00336078)
(1.59885e-06 -3.16112e-07 4.89617e-05 4.4023e-07 2.34545e-05 0.00454336)
(3.28928e-05 1.78196e-06 -0.000304937 2.70742e-07 -1.3071e-06 0.00446522)
(4.49456e-06 4.58808e-07 5.12413e-05 9.98402e-08 4.34184e-06 0.00192845)
(3.14499e-05 -1.00934e-06 0.000290716 1.57795e-07 -9.35605e-07 0.00362935)
(1.67496e-06 -3.19185e-07 5.34481e-05 5.17026e-07 2.68982e-05 0.00489393)
(3.39173e-05 1.87078e-06 -0.000324467 3.04601e-07 -1.30237e-06 0.0047587)
(4.44283e-06 4.64369e-07 5.50817e-05 1.06079e-07 4.42103e-06 0.00207359)
(3.25158e-05 -1.04052e-06 0.000309765 1.75578e-07 -8.98405e-07 0.00388883)
(1.7524e-06 -3.1833e-07 5.77928e-05 6.01144e-07 3.05249e-05 0.00523138)
(3.47502e-05 1.94754e-06 -0.000342986 3.39955e-07 -1.30732e-06 0.00503851)
(4.37428e-06 4.65544e-07 5.87549e-05 1.11956e-07 4.4278e-06 0.00221558)
(3.33917e-05 -1.06348e-06 0.000327779 1.94052e-07 -8.55093e-07 0.00413916)
(1.83247e-06 -3.12985e-07 6.1998e-05 6.92014e-07 3.43295e-05 0.00555557)
(3.5417e-05 2.01257e-06 -0.000360467 3.76614e-07 -1.3223e-06 0.00530535)
(4.29417e-06 4.62655e-07 6.22594e-05 1.17526e-07 4.35855e-06 0.00235461)
(3.40995e-05 -1.07789e-06 0.000344729 2.12957e-07 -8.05282e-07 0.00438057)
(1.9164e-06 -3.04619e-07 6.60685e-05 7.90443e-07 3.82784e-05 0.00586657)
(3.59404e-05 2.06692e-06 -0.000376888 4.14534e-07 -1.3487e-06 0.00556022)
(4.20687e-06 4.5612e-07 6.55853e-05 1.22858e-07 4.21028e-06 0.00249096)
(3.46589e-05 -1.08498e-06 0.000360587 2.32412e-07 -7.4574e-07 0.00461355)
(2.00536e-06 -2.92811e-07 7.00161e-05 8.95947e-07 4.23787e-05 0.00616488)
(3.63419e-05 2.11153e-06 -0.000392242 4.53505e-07 -1.38967e-06 0.00580427)
(4.11584e-06 4.46224e-07 6.87271e-05 1.28039e-07 3.97974e-06 0.00262495)
(3.50893e-05 -1.08557e-06 0.000375332 2.52387e-07 -6.78176e-07 0.00483884)
(2.10117e-06 -2.78987e-07 7.38667e-05 1.00908e-06 4.66033e-05 0.00645122)
(3.66406e-05 2.14815e-06 -0.000406514 4.93607e-07 -1.43878e-06 0.00603881)
(4.02369e-06 4.33219e-07 7.16888e-05 1.33181e-07 3.66393e-06 0.00275696)
(3.54065e-05 -1.08035e-06 0.000388956 2.72735e-07 -6.11269e-07 0.00505724)
(2.20716e-06 -2.67715e-07 7.77024e-05 1.13254e-06 5.08421e-05 0.00672787)
(3.68516e-05 2.17869e-06 -0.000419709 5.35032e-07 -1.48992e-06 0.00626512)
(3.93216e-06 4.17512e-07 7.44786e-05 1.38426e-07 3.25969e-06 0.00288727)
(3.56211e-05 -1.07038e-06 0.000401476 2.9355e-07 -5.4263e-07 0.00526962)
(2.32951e-06 -2.54624e-07 8.16818e-05 1.26019e-06 5.51613e-05 0.00699905)
(3.69855e-05 2.20456e-06 -0.00043186 5.77933e-07 -1.5418e-06 0.00648429)
(3.8424e-06 3.99312e-07 7.71057e-05 1.4389e-07 2.76524e-06 0.00301623)
(3.57417e-05 -1.05632e-06 0.000412945 3.14867e-07 -4.75215e-07 0.00547647)
(2.47341e-06 -2.37169e-07 8.59606e-05 1.38709e-06 5.96106e-05 0.00726948)
(3.70478e-05 2.22677e-06 -0.000443029 6.2263e-07 -1.59602e-06 0.00669688)
(3.75513e-06 3.78761e-07 7.958e-05 1.49702e-07 2.17825e-06 0.00314413)
(3.5775e-05 -1.03857e-06 0.000423427 3.36804e-07 -4.05658e-07 0.00567803)
(2.6317e-06 -2.19125e-07 9.04638e-05 1.5183e-06 6.41182e-05 0.0075397)
(3.7042e-05 2.24538e-06 -0.000453275 6.69017e-07 -1.66294e-06 0.00690319)
(3.67065e-06 3.56071e-07 8.19121e-05 1.56026e-07 1.4962e-06 0.00327119)
(3.57288e-05 -1.01711e-06 0.000432976 3.59325e-07 -3.373e-07 0.00587433)
(2.77857e-06 -2.05176e-07 9.46636e-05 1.66414e-06 6.86095e-05 0.00779918)
(3.69703e-05 2.25983e-06 -0.000462654 7.16955e-07 -1.74285e-06 0.00710365)
(3.58894e-06 3.31467e-07 8.41111e-05 1.63024e-07 7.17841e-07 0.00339765)
(3.561e-05 -9.91992e-07 0.000441637 3.82199e-07 -2.84213e-07 0.00606544)
(2.89739e-06 -1.94599e-07 9.8151e-05 1.82744e-06 7.31177e-05 0.00803775)
(3.68352e-05 2.26963e-06 -0.000471207 7.66124e-07 -1.83593e-06 0.00729875)
(3.50977e-06 3.05231e-07 8.61821e-05 1.7089e-07 -1.57437e-07 0.0035236)
(3.54235e-05 -9.63771e-07 0.000449452 4.05531e-07 -2.49242e-07 0.00625183)
(3.00435e-06 -1.78811e-07 0.00010124 1.9963e-06 7.78233e-05 0.00826096)
(3.66394e-05 2.27397e-06 -0.000478975 8.16061e-07 -1.93856e-06 0.00748901)
(3.43298e-06 2.77656e-07 8.81306e-05 1.79808e-07 -1.12817e-06 0.00364913)
(3.51733e-05 -9.33209e-07 0.00045646 4.29711e-07 -2.22751e-07 0.00643422)
(3.12035e-06 -1.46755e-07 0.00010433 2.15471e-06 8.29593e-05 0.00847583)
(3.63877e-05 2.27251e-06 -0.000486004 8.66658e-07 -2.04478e-06 0.00767497)
(3.35845e-06 2.48963e-07 8.996e-05 1.89979e-07 -2.19415e-06 0.00377426)
(3.48628e-05 -9.00532e-07 0.0004627 4.54874e-07 -2.00742e-07 0.00661322)
(3.25007e-06 -1.24267e-07 0.000107455 2.33156e-06 8.797e-05 0.00868169)
(3.60871e-05 2.26724e-06 -0.000492348 9.18236e-07 -2.16902e-06 0.00785727)
(3.28613e-06 2.19337e-07 9.16763e-05 2.01613e-07 -3.3562e-06 0.00389905)
(3.44984e-05 -8.65341e-07 0.000468218 4.80606e-07 -1.97373e-07 0.00678911)
(3.40862e-06 -1.22197e-07 0.000110887 2.53054e-06 9.26919e-05 0.00888343)
(3.5745e-05 2.26011e-06 -0.000498049 9.71837e-07 -2.31386e-06 0.0080362)
(3.21603e-06 1.88985e-07 9.32842e-05 2.14948e-07 -4.61416e-06 0.0040236)
(3.40876e-05 -8.27254e-07 0.000473064 5.04166e-07 -3.50014e-07 0.00696154)
(3.63314e-06 -1.20073e-07 0.000115448 2.70898e-06 9.76726e-05 0.00909922)
(3.53671e-05 2.25209e-06 -0.000503143 1.0286e-06 -2.4748e-06 0.00821176)
(3.14845e-06 1.58048e-07 9.47882e-05 2.30179e-07 -5.96886e-06 0.00414795)
(3.36387e-05 -7.86225e-07 0.000477299 5.33869e-07 -2.52031e-07 0.00713003)
(3.9457e-06 -1.22053e-07 0.000121776 2.8721e-06 0.000102719 0.00934648)
(3.4956e-05 2.23208e-06 -0.00050769 1.09105e-06 -2.49967e-06 0.00838374)
(3.08335e-06 1.26446e-07 9.61918e-05 2.47341e-07 -7.42416e-06 0.00427215)
(3.31301e-05 -7.47213e-07 0.000480471 5.68089e-07 1.62706e-08 0.00730194)
(4.28228e-06 -1.28257e-07 0.000128696 3.04704e-06 0.000107674 0.00960392)
(3.45142e-05 2.22363e-06 -0.000511772 1.14885e-06 -2.86801e-06 0.00855151)
(3.01992e-06 9.40256e-08 9.74991e-05 2.66434e-07 -8.98386e-06 0.00439617)
(3.25048e-05 -7.28726e-07 0.000481821 5.91347e-07 -1.64296e-07 0.00749346)
(4.43822e-06 -1.59627e-07 0.000132215 3.28777e-06 0.000111986 0.00979346)
(3.40249e-05 2.24274e-06 -0.000514644 1.20515e-06 -3.35715e-06 0.00872575)
(2.95787e-06 6.10079e-08 9.87145e-05 2.87733e-07 -1.06418e-05 0.00452005)
(3.17762e-05 -7.20145e-07 0.000481477 6.12957e-07 -4.83002e-07 0.00771663)
(4.45888e-06 -1.63524e-07 0.000133247 3.54081e-06 0.000116752 0.00993361)
(3.34351e-05 2.28021e-06 -0.000514958 1.27047e-06 -2.99563e-06 0.00893298)
(2.8981e-06 2.57866e-08 9.9847e-05 3.10085e-07 -1.24299e-05 0.00464381)
(3.10489e-05 -6.99541e-07 0.000480616 6.38572e-07 -8.27868e-07 0.0079483)
(4.46614e-06 -1.35484e-07 0.000134146 3.77227e-06 0.000122155 0.0100698)
(3.27411e-05 2.34143e-06 -0.000512652 1.33898e-06 -1.79217e-06 0.00919738)
(2.84251e-06 -5.4339e-09 0.000100897 3.38208e-07 -1.42247e-05 0.00476741)
(3.03976e-05 -6.51645e-07 0.000481736 6.75783e-07 -3.95582e-07 0.00812044)
(4.49644e-06 -8.34915e-08 0.000135514 3.97325e-06 0.000128176 0.0102111)
(3.20236e-05 2.39768e-06 -0.000509496 1.41773e-06 -1.53797e-07 0.00949086)
(2.79465e-06 -2.89688e-08 0.000101873 3.75069e-07 -1.59631e-05 0.00489077)
(2.97902e-05 -5.79266e-07 0.000483759 7.177e-07 -5.37741e-08 0.00824911)
(4.5267e-06 -4.97562e-08 0.00013686 4.1951e-06 0.000133908 0.0103466)
(3.13414e-05 2.39921e-06 -0.000510559 1.4894e-06 -1.45193e-07 0.0096879)
(2.7546e-06 -5.68017e-08 0.000102743 4.10471e-07 -1.79484e-05 0.00501334)
(2.91514e-05 -5.06423e-07 0.00048478 7.52163e-07 -4.0604e-07 0.00837845)
(4.54301e-06 -3.72688e-08 0.000137925 4.44743e-06 0.000139222 0.0104709)
(3.0731e-05 2.36156e-06 -0.000514109 1.54709e-06 -1.56358e-06 0.00980663)
(2.71659e-06 -1.03882e-07 0.000103443 4.31339e-07 -2.04071e-05 0.00513542)
(2.84522e-05 -4.46878e-07 0.000484456 7.80624e-07 -1.26068e-06 0.00851833)
(4.55357e-06 -1.61753e-08 0.000138826 4.69575e-06 0.000144799 0.0105846)
(3.01265e-05 2.2991e-06 -0.000516609 1.61908e-06 -2.55793e-06 0.00992194)
(2.67901e-06 -1.39034e-07 0.000104011 4.65187e-07 -2.30297e-05 0.00525836)
(2.77301e-05 -3.84158e-07 0.00048333 8.14648e-07 -1.87481e-06 0.0086568)
(4.56198e-06 4.18142e-09 0.000139624 4.94994e-06 0.000150433 0.0106889)
(2.94515e-05 2.2301e-06 -0.000517189 1.70287e-06 -2.90837e-06 0.0100569)
(2.67152e-06 -1.38174e-07 0.000104242 5.27222e-07 -2.52785e-05 0.00538647)
(2.70183e-05 -3.09657e-07 0.000481765 8.5314e-07 -2.36862e-06 0.00878758)
(4.56907e-06 2.3612e-08 0.00014033 5.2094e-06 0.000156138 0.0107848)
(2.87106e-05 2.15238e-06 -0.000516766 1.79183e-06 -3.0289e-06 0.0101976)
(2.73732e-06 -1.15995e-07 0.000103393 5.88311e-07 -2.73154e-05 0.00553013)
(2.63287e-05 -2.26517e-07 0.000479798 8.92057e-07 -2.84102e-06 0.00891009)
(4.57388e-06 4.08966e-08 0.000140934 5.47502e-06 0.00016188 0.0108731)
(2.79384e-05 2.07095e-06 -0.000515977 1.87903e-06 -3.35682e-06 0.0103336)
(2.9129e-06 -9.23211e-08 0.000100667 6.37317e-07 -2.99967e-05 0.00570632)
(2.555e-05 -1.43807e-07 0.000476826 9.33815e-07 -2.89755e-06 0.00904486)
(4.57504e-06 5.54666e-08 0.000141426 5.74735e-06 0.000167648 0.0109539)
(2.71469e-05 1.97874e-06 -0.000514754 1.96474e-06 -3.84603e-06 0.0104642)
(3.20535e-06 -7.99547e-08 9.60586e-05 6.79486e-07 -3.36232e-05 0.00591823)
(2.43871e-05 -1.17408e-07 0.000471263 9.74305e-07 -2.94475e-06 0.00924168)
(4.57151e-06 6.7308e-08 0.00014179 6.02651e-06 0.00017344 0.0110274)
(2.63456e-05 1.86712e-06 -0.000513059 2.06104e-06 -4.2684e-06 0.0105899)
(3.29514e-06 -2.69421e-08 9.41116e-05 7.64729e-07 -3.76077e-05 0.00608426)
(2.27007e-05 -1.79805e-07 0.000461818 1.01707e-06 -2.84643e-06 0.00954293)
(4.56242e-06 7.61601e-08 0.000142015 6.31255e-06 0.000179236 0.0110939)
(2.55482e-05 1.7287e-06 -0.000510913 2.16734e-06 -4.53686e-06 0.0107098)
(3.18254e-06 -1.92347e-09 9.48058e-05 8.48772e-07 -4.06264e-05 0.00619189)
(2.08729e-05 -2.81776e-07 0.000448951 1.06827e-06 -2.59103e-06 0.00991285)
(4.54736e-06 8.20173e-08 0.000142095 6.60468e-06 0.00018501 0.0111535)
(2.47704e-05 1.59828e-06 -0.000508404 2.26223e-06 -5.36429e-06 0.0108219)
(3.05963e-06 -1.0983e-08 9.57215e-05 9.20836e-07 -4.2979e-05 0.00629022)
(1.9876e-05 -2.18656e-07 0.000441401 1.10717e-06 -2.33253e-06 0.0100951)
(4.52691e-06 8.67735e-08 0.000142055 6.8998e-06 0.000190768 0.0112065)
(2.39135e-05 1.4952e-06 -0.000504561 2.35052e-06 -6.35463e-06 0.0109498)
(2.99103e-06 6.91949e-09 9.60809e-05 1.02505e-06 -4.4601e-05 0.00640142)
(1.93982e-05 -4.04875e-08 0.000438203 1.1521e-06 -2.66151e-06 0.0101349)
(4.50129e-06 9.27924e-08 0.000141922 7.19477e-06 0.000196531 0.0112535)
(2.26949e-05 1.48034e-06 -0.000496792 2.53636e-06 -6.35423e-06 0.0111586)
(2.95025e-06 5.69136e-08 9.62694e-05 1.16572e-06 -4.64441e-05 0.00651691)
(1.89115e-05 1.31752e-07 0.000434024 1.2018e-06 -3.75513e-06 0.01018)
(4.46762e-06 1.04523e-07 0.000141702 7.46993e-06 0.000202196 0.0112947)
(2.09294e-05 1.59579e-06 -0.000482243 2.80658e-06 -5.04414e-06 0.0115116)
(2.89979e-06 5.81816e-08 9.64065e-05 1.24942e-06 -4.98689e-05 0.00662748)
(1.82463e-05 2.60385e-07 0.000427462 1.253e-06 -5.267e-06 0.010266)
(4.42354e-06 1.06685e-07 0.000141381 7.79213e-06 0.000208052 0.0113308)
(1.89392e-05 1.67408e-06 -0.000461075 2.96929e-06 -8.17292e-07 0.0119827)
(2.82587e-06 -5.76841e-08 9.63256e-05 1.20305e-06 -5.5452e-05 0.00673846)
(1.75202e-05 3.82826e-07 0.000419663 1.31135e-06 -6.42102e-06 0.0103653)
(4.38168e-06 6.1714e-08 0.000140796 8.2639e-06 0.000214544 0.0113613)
(1.76592e-05 1.35248e-06 -0.000449686 2.7845e-06 1.53082e-06 0.0121908)
(2.75915e-06 -1.44244e-07 9.65379e-05 1.20329e-06 -6.03613e-05 0.00686631)
(1.6843e-05 5.25455e-07 0.000411459 1.37737e-06 -7.08429e-06 0.0104571)
(4.35657e-06 -1.39176e-08 0.000139922 8.74201e-06 0.000220747 0.0113824)
(1.69978e-05 9.29042e-07 -0.000447351 2.57205e-06 1.4682e-06 0.0122117)
(2.75101e-06 -6.67754e-09 9.76517e-05 1.43249e-06 -6.0044e-05 0.00701753)
(1.61694e-05 6.8471e-07 0.000402235 1.45407e-06 -7.42719e-06 0.010551)
(4.31252e-06 -7.92198e-09 0.000139336 8.92043e-06 0.000225082 0.0113928)
(1.65359e-05 8.65997e-07 -0.000445682 3.08571e-06 -3.13202e-06 0.0122636)
(2.73811e-06 1.77276e-07 9.80658e-05 1.75358e-06 -5.90217e-05 0.00717223)
(1.53582e-05 8.27275e-07 0.000390649 1.53662e-06 -7.94986e-06 0.0106803)
(4.18999e-06 1.80303e-07 0.000139601 8.68198e-06 0.000227506 0.0114053)
(1.60042e-05 9.47376e-07 -0.000441199 3.77382e-06 -7.61833e-06 0.0123695)
(2.71714e-06 2.60487e-07 9.59488e-05 1.93115e-06 -6.19726e-05 0.00734238)
(1.43803e-05 9.19664e-07 0.000375365 1.61343e-06 -9.74902e-06 0.0108788)
(4.03728e-06 3.56575e-07 0.000139571 8.69152e-06 0.000232771 0.0114509)
(1.54118e-05 9.10968e-07 -0.000434699 3.97944e-06 -8.13733e-06 0.0124784)
(2.79797e-06 3.35911e-07 9.04521e-05 1.96841e-06 -6.83685e-05 0.00757097)
(1.34095e-05 1.01518e-06 0.000354485 1.69312e-06 -1.30309e-05 0.0111539)
(3.97198e-06 2.05531e-07 0.000137475 9.82479e-06 0.00024584 0.0115306)
(1.4713e-05 6.94824e-07 -0.000426185 3.94422e-06 -6.9683e-06 0.0125687)
(3.10218e-06 5.61475e-07 8.02615e-05 2.06467e-06 -7.54053e-05 0.00790248)
(1.26918e-05 1.16694e-06 0.000336475 1.78079e-06 -1.25066e-05 0.0113202)
(3.87436e-06 1.35325e-07 0.000136041 1.07627e-05 0.000256563 0.0115821)
(1.39772e-05 4.50335e-07 -0.000416342 4.09668e-06 -6.75214e-06 0.0126457)
(3.7368e-06 8.86623e-07 6.53767e-05 2.19093e-06 -8.13926e-05 0.00827008)
(1.2051e-05 1.32665e-06 0.000324245 1.88002e-06 -1.13568e-05 0.0113712)
(3.68996e-06 3.35607e-07 0.000136397 1.08578e-05 0.000261168 0.0115995)
(1.32861e-05 2.13558e-07 -0.000406056 4.35291e-06 -6.92395e-06 0.012713)
(4.1861e-06 1.14998e-06 5.59914e-05 2.34938e-06 -8.57861e-05 0.00846281)
(1.14398e-05 1.48681e-06 0.000312395 1.97273e-06 -1.23771e-05 0.0114148)
(3.52821e-06 5.01517e-07 0.000136468 1.09129e-05 0.000264579 0.0115942)
(1.26349e-05 -3.8092e-08 -0.000395318 4.58934e-06 -6.83026e-06 0.012771)
(4.18268e-06 1.27579e-06 5.40693e-05 2.52725e-06 -8.87146e-05 0.00853556)
(1.08325e-05 1.63632e-06 0.000298468 2.05989e-06 -1.43499e-05 0.0114852)
(3.39359e-06 5.6796e-07 0.000135804 1.12846e-05 0.000269416 0.0115791)
(1.20132e-05 -2.97878e-07 -0.000384069 4.83356e-06 -6.66076e-06 0.0128203)
(4.03635e-06 1.3208e-06 5.35076e-05 2.67803e-06 -9.10457e-05 0.00861412)
(1.02393e-05 1.79094e-06 0.000283535 2.15382e-06 -1.56787e-05 0.011559)
(3.24356e-06 6.57942e-07 0.000135155 1.16398e-05 0.000274 0.011559)
(1.14138e-05 -5.65149e-07 -0.000372271 5.09335e-06 -6.44089e-06 0.0128619)
(3.96322e-06 1.38606e-06 5.10876e-05 2.82396e-06 -9.37121e-05 0.00872902)
(9.67401e-06 1.95652e-06 0.000268323 2.25861e-06 -1.64485e-05 0.0116224)
(3.08227e-06 7.67636e-07 0.000134461 1.19713e-05 0.00027827 0.0115336)
(1.08327e-05 -8.41823e-07 -0.000359897 5.36547e-06 -6.10005e-06 0.012897)
(3.92746e-06 1.52719e-06 4.78759e-05 3.0581e-06 -9.58832e-05 0.00885239)
(9.13075e-06 2.12744e-06 0.000252363 2.36961e-06 -1.71341e-05 0.0116864)
(2.91227e-06 8.92421e-07 0.000133688 1.23035e-05 0.000282349 0.0115028)
(1.02673e-05 -1.1307e-06 -0.000346914 5.64832e-06 -5.60196e-06 0.0129265)
(3.89252e-06 1.73187e-06 4.51054e-05 3.40192e-06 -9.71165e-05 0.00896556)
(8.60268e-06 2.29507e-06 0.000235114 2.47504e-06 -1.80937e-05 0.0117628)
(2.7349e-06 1.03286e-06 0.000132801 1.26295e-05 0.000286193 0.0114668)
(9.71818e-06 -1.4377e-06 -0.000333283 5.94433e-06 -4.97063e-06 0.0129513)
(3.82426e-06 1.84276e-06 4.20995e-05 3.61352e-06 -9.9708e-05 0.00906598)
(8.10361e-06 2.46474e-06 0.000216642 2.57637e-06 -1.93318e-05 0.0118447)
(2.55111e-06 1.18892e-06 0.000131739 1.29433e-05 0.00028976 0.0114254)
(9.18958e-06 -1.76916e-06 -0.00031898 6.25809e-06 -4.24783e-06 0.0129723)
(3.61927e-06 1.65686e-06 3.78585e-05 3.38595e-06 -0.000106401 0.00916248)
(7.66118e-06 2.65614e-06 0.000197777 2.692e-06 -2.00817e-05 0.0119128)
(2.36224e-06 1.35991e-06 0.000130443 1.32447e-05 0.000293048 0.0113787)
(8.68614e-06 -2.12405e-06 -0.000304035 6.58951e-06 -3.44235e-06 0.0129899)
(3.38726e-06 1.43709e-06 3.37604e-05 3.13083e-06 -0.000113094 0.00928393)
(7.27858e-06 2.86934e-06 0.000178632 2.82775e-06 -2.08438e-05 0.0119651)
(2.17079e-06 1.54478e-06 0.000128861 1.35331e-05 0.000296055 0.0113264)
(8.20856e-06 -2.49131e-06 -0.000288535 6.92979e-06 -2.51177e-06 0.0130046)
(3.32755e-06 1.78876e-06 3.20937e-05 3.77913e-06 -0.000108286 0.00945406)
(6.93465e-06 3.09063e-06 0.000158758 2.98051e-06 -2.22545e-05 0.0120093)
(1.9796e-06 1.74242e-06 0.000126943 1.38071e-05 0.000298773 0.0112686)
(7.75379e-06 -2.86038e-06 -0.000272528 7.26898e-06 -1.40912e-06 0.0130167)
(3.23454e-06 2.13646e-06 2.93577e-05 4.60072e-06 -0.000102771 0.00961955)
(6.61833e-06 3.31638e-06 0.000138283 3.15134e-06 -2.36504e-05 0.0120449)
(1.79227e-06 1.95205e-06 0.000124648 1.40628e-05 0.000301194 0.0112052)
(7.31961e-06 -3.22768e-06 -0.000255989 7.60327e-06 -1.23752e-07 0.0130262)
(3.02682e-06 2.1624e-06 2.408e-05 4.75598e-06 -0.000104281 0.00976341)
(6.32957e-06 3.53999e-06 0.000117149 3.32949e-06 -2.48447e-05 0.0120738)
(1.61322e-06 2.17258e-06 0.000121945 1.4299e-05 0.000303316 0.011136)
(6.90757e-06 -3.59672e-06 -0.000238842 7.93609e-06 1.31547e-06 0.0130332)
(2.84948e-06 2.1693e-06 1.80911e-05 4.70301e-06 -0.000107453 0.00989094)
(6.07044e-06 3.7462e-06 9.48979e-05 3.49068e-06 -2.6199e-05 0.0121097)
(1.44684e-06 2.40291e-06 0.000118796 1.45198e-05 0.000305109 0.0110606)
(6.52019e-06 -3.96831e-06 -0.000221055 8.27056e-06 2.88622e-06 0.0130372)
(2.76872e-06 2.30167e-06 1.20581e-05 4.8886e-06 -0.000108436 0.0100048)
(5.8473e-06 3.94261e-06 7.14752e-05 3.65257e-06 -2.72775e-05 0.0121587)
(1.29778e-06 2.65132e-06 0.000115143 1.46877e-05 0.000306896 0.0109782)
(6.16015e-06 -4.34781e-06 -0.000202685 8.62486e-06 4.63691e-06 0.0130366)
(2.71929e-06 2.43138e-06 5.78303e-06 5.1201e-06 -0.000108865 0.0101101)
(5.68401e-06 4.15783e-06 4.70073e-05 3.84978e-06 -2.85183e-05 0.0122149)
(1.17778e-06 2.90554e-06 0.000111269 1.48788e-05 0.00030828 0.0108952)
(5.82784e-06 -4.70698e-06 -0.000183137 8.94806e-06 6.54317e-06 0.0130391)
(2.77108e-06 2.62118e-06 -1.74863e-06 5.39051e-06 -0.000109294 0.0102224)
(5.58671e-06 4.39384e-06 2.18156e-05 4.09021e-06 -3.00161e-05 0.0122716)
(1.11466e-06 3.1278e-06 0.000108364 1.49793e-05 0.000308146 0.0108434)
(5.53533e-06 -5.00692e-06 -0.000160281 9.26187e-06 8.80713e-06 0.0130737)
(2.98847e-06 2.97461e-06 -1.18403e-05 5.89207e-06 -0.000108927 0.0103774)
(5.55608e-06 4.60467e-06 -3.8278e-06 4.30188e-06 -3.12007e-05 0.0123243)
(1.09132e-06 3.28731e-06 0.000106054 1.54052e-05 0.000308823 0.0108508)
(5.37524e-06 -5.19519e-06 -0.00013122 9.52092e-06 1.2135e-05 0.0131681)
(3.12092e-06 3.2204e-06 -2.43485e-05 6.26741e-06 -0.000111441 0.0106076)
(5.64092e-06 4.79627e-06 -2.98419e-05 4.44345e-06 -3.26825e-05 0.0123641)
(1.0885e-06 3.60262e-06 0.000100799 1.587e-05 0.00030843 0.0108483)
(5.52711e-06 -5.26707e-06 -9.63417e-05 9.59744e-06 1.56052e-05 0.0132863)
(3.39191e-06 3.26469e-06 -4.48267e-05 5.70903e-06 -0.000125305 0.011016)
(5.87618e-06 5.02191e-06 -5.64459e-05 4.61959e-06 -3.29885e-05 0.0124073)
(1.38365e-06 4.32338e-06 8.62171e-05 1.48021e-05 0.000303441 0.0105554)
(3.22888e-08 9.5867e-10 3.10227e-07 5.76045e-11 7.45591e-09 4.39106e-06)
(8.62523e-08 5.47556e-10 6.40696e-08 9.0749e-12 1.61128e-10 1.82836e-06)
(3.51709e-08 -1.31331e-09 -2.41016e-07 8.10481e-11 1.31563e-08 6.44096e-06)
(7.52168e-08 1.21613e-10 -1.46169e-07 5.50121e-12 -5.03754e-10 4.05917e-06)
(9.23112e-08 3.82323e-09 1.07792e-06 2.85843e-10 3.6211e-08 2.32118e-05)
(3.78844e-07 1.14119e-09 3.09628e-07 1.4456e-11 -4.53613e-09 1.57439e-05)
(1.07742e-07 -5.1453e-09 -7.58996e-07 4.15194e-10 6.71533e-08 4.64734e-05)
(3.08905e-07 1.37679e-09 -7.2034e-07 1.44544e-11 -5.9086e-09 3.4187e-05)
(7.50683e-08 6.12008e-09 1.52319e-06 1.13967e-09 1.04314e-07 5.21308e-05)
(4.65972e-07 3.27517e-09 5.95256e-07 5.69394e-11 -7.73013e-09 4.577e-05)
(1.07462e-07 -7.07447e-09 -8.22039e-07 1.56982e-09 1.89233e-07 0.000121358)
(3.57396e-07 1.69852e-09 -1.07868e-06 5.56597e-11 -1.83972e-08 9.54353e-05)
(6.92857e-08 6.23819e-09 2.17172e-06 2.17236e-09 2.19347e-07 9.81503e-05)
(5.2333e-07 1.82581e-09 8.71308e-07 4.68807e-11 -7.22443e-09 9.37666e-05)
(1.2731e-07 -5.85285e-09 -7.49977e-07 3.31792e-09 3.88276e-07 0.000234722)
(4.12103e-07 3.77084e-09 -1.17203e-06 1.47899e-10 -3.77993e-08 0.000188962)
(8.75024e-08 6.70409e-09 3.13136e-06 3.63214e-09 3.96623e-07 0.000163832)
(6.71507e-07 2.0943e-09 1.09885e-06 6.56566e-11 1.02184e-08 0.000160171)
(1.81609e-07 -4.15676e-09 -6.58701e-07 5.40772e-09 6.65595e-07 0.000386658)
(5.7049e-07 4.03341e-09 -1.08233e-06 2.54063e-10 -5.00841e-08 0.000313662)
(1.15286e-07 7.35115e-09 4.28078e-06 5.52435e-09 6.38844e-07 0.000248661)
(8.81822e-07 2.62237e-09 1.23558e-06 1.08809e-10 4.07778e-08 0.00024533)
(2.55102e-07 -2.5094e-09 -4.61607e-07 8.01513e-09 1.02385e-06 0.000574221)
(8.06115e-07 3.92039e-09 -7.40642e-07 4.09002e-10 -6.1223e-08 0.000467804)
(1.48483e-07 7.88745e-09 5.55251e-06 7.89926e-09 9.45878e-07 0.000351903)
(1.14075e-06 3.79465e-09 1.25259e-06 1.86813e-10 8.55224e-08 0.000349042)
(3.4231e-07 -6.79159e-10 -1.16031e-07 1.10858e-08 1.45016e-06 0.000793401)
(1.10687e-06 3.11752e-09 -1.06869e-07 6.01076e-10 -7.20047e-08 0.000648803)
(1.85032e-07 8.05468e-09 6.88582e-06 1.07798e-08 1.31457e-06 0.000472269)
(1.44018e-06 5.87416e-09 1.12902e-06 3.05833e-10 1.42713e-07 0.000470347)
(4.39454e-07 1.42786e-09 4.08333e-07 1.46029e-08 1.93115e-06 0.00103902)
(1.46457e-06 1.54723e-09 8.39443e-07 8.19193e-10 -8.36538e-08 0.00085319)
(2.23244e-07 7.69556e-09 8.22148e-06 1.41739e-08 1.74045e-06 0.00060785)
(1.77352e-06 9.1496e-09 8.5489e-07 4.76672e-10 2.08197e-07 0.000607477)
(5.42817e-07 3.83056e-09 1.13036e-06 1.85256e-08 2.45156e-06 0.00130485)
(1.87088e-06 -9.23352e-10 2.09979e-06 1.06605e-09 -1.00298e-07 0.0010767)
(2.61453e-07 6.72857e-09 9.50482e-06 1.8077e-08 2.21681e-06 0.000756184)
(2.13435e-06 1.40158e-08 4.33854e-07 7.15399e-10 2.76415e-07 0.00075794)
(6.48694e-07 6.40606e-09 2.05538e-06 2.28161e-08 2.99446e-06 0.00158432)
(2.31614e-06 -4.4833e-09 3.6563e-06 1.34641e-09 -1.25719e-07 0.00131456)
(2.98039e-07 5.16186e-09 1.0691e-05 2.24692e-08 2.73532e-06 0.000914518)
(2.51639e-06 2.09039e-08 -1.1829e-07 1.04316e-09 3.40867e-07 0.000918853)
(7.53756e-07 8.87325e-09 3.17142e-06 2.74358e-08 3.5456e-06 0.00187148)
(2.78984e-06 -9.3182e-09 5.47523e-06 1.66549e-09 -1.64574e-07 0.0015621)
(3.31568e-07 3.10953e-09 1.17505e-05 2.73391e-08 3.28937e-06 0.00108021)
(2.91346e-06 3.02638e-08 -7.77125e-07 1.49102e-09 3.942e-07 0.0010874)
(8.55435e-07 1.08021e-08 4.45567e-06 3.22283e-08 4.08828e-06 0.00216179)
(3.28059e-06 -1.55941e-08 7.51151e-06 2.04174e-09 -2.22041e-07 0.00181531)
(3.60932e-07 7.55594e-10 1.2674e-05 3.26875e-08 3.87107e-06 0.00125105)
(3.31999e-06 4.23089e-08 -1.51283e-06 2.10295e-09 4.29186e-07 0.0012612)
(9.51905e-07 1.18069e-08 5.88999e-06 3.70924e-08 4.60905e-06 0.00245227)
(3.77991e-06 -2.28356e-08 9.7177e-06 2.46949e-09 -2.99298e-07 0.00207118)
(3.85343e-07 -1.71483e-09 1.3461e-05 3.84623e-08 4.47141e-06 0.00142544)
(3.733e-06 5.7013e-08 -2.3014e-06 2.90409e-09 4.40921e-07 0.00143846)
(1.04234e-06 1.16842e-08 7.46768e-06 4.20112e-08 5.09822e-06 0.00274178)
(4.28359e-06 -3.07967e-08 1.20602e-05 2.92051e-09 -3.96443e-07 0.00232802)
(4.04437e-07 -4.17311e-09 1.41077e-05 4.46465e-08 5.0849e-06 0.00160243)
(4.14982e-06 7.47565e-08 -3.11918e-06 3.92487e-09 4.24466e-07 0.00161832)
(1.12648e-06 1.03785e-08 9.18651e-06 4.70451e-08 5.54648e-06 0.00302998)
(4.78492e-06 -3.98402e-08 1.44966e-05 3.40151e-09 -5.16678e-07 0.00258519)
(4.18183e-07 -6.50164e-09 1.46086e-05 5.12721e-08 5.70875e-06 0.0017814)
(4.56527e-06 9.58963e-08 -3.92588e-06 5.224e-09 3.72054e-07 0.00180049)
(1.20389e-06 7.96416e-09 1.10386e-05 5.22839e-08 5.94995e-06 0.00331619)
(5.27764e-06 -5.01062e-08 1.69845e-05 3.93371e-09 -6.66132e-07 0.00284213)
(4.26746e-07 -8.50943e-09 1.49589e-05 5.83343e-08 6.34028e-06 0.00196172)
(4.97475e-06 1.2043e-07 -4.69562e-06 6.87239e-09 2.74243e-07 0.00198462)
(1.27438e-06 4.52573e-09 1.30133e-05 5.77093e-08 6.30258e-06 0.0035998)
(5.75752e-06 -6.17088e-08 1.95037e-05 4.55715e-09 -8.51341e-07 0.00309812)
(4.30638e-07 -1.00358e-08 1.51597e-05 6.58237e-08 6.97252e-06 0.00214293)
(5.37396e-06 1.4826e-07 -5.42362e-06 8.95781e-09 1.23096e-07 0.00217019)
(1.33816e-06 1.01811e-10 1.50991e-05 6.3378e-08 6.59814e-06 0.00388038)
(6.21958e-06 -7.45645e-08 2.20355e-05 5.28284e-09 -1.07388e-06 0.00335256)
(4.30645e-07 -1.09377e-08 1.52222e-05 7.36795e-08 7.59877e-06 0.00232468)
(5.75853e-06 1.79139e-07 -6.10295e-06 1.15349e-08 -8.58337e-08 0.00235684)
(1.39556e-06 -5.28178e-09 1.7285e-05 6.93893e-08 6.832e-06 0.00415761)
(6.65976e-06 -8.86437e-08 2.456e-05 6.10975e-09 -1.33396e-06 0.00360497)
(4.27699e-07 -1.10447e-08 1.51587e-05 8.18526e-08 8.21363e-06 0.00250652)
(6.12535e-06 2.12756e-07 -6.7277e-06 1.46491e-08 -3.56306e-07 0.00254423)
(1.447e-06 -1.15776e-08 1.95591e-05 7.58179e-08 6.9987e-06 0.0044313)
(7.0749e-06 -1.03693e-07 2.70589e-05 7.05539e-09 -1.63195e-06 0.00385497)