/*--------------------------------*- C++ -*----------------------------------*\
| =========                 |                                                 |
| \\      /  F ield         | OpenFOAM: The Open Source CFD Toolbox           |
|  \\    /   O peration     | Version:  v1906                                 |
|   \\  /    A nd           | Web:      www.OpenFOAM.com                      |
|    \\/     M anipulation  |                                                 |
\*---------------------------------------------------------------------------*/
FoamFile
{
    version     2.0;
    format      ascii;
    class       volScalarField;
    location    "96.4";
    object      T;
}
// * * * * * * * * * * * * * * * * * * * * * * * * * * * * * * * * * * * * * //

dimensions      [0 0 0 1 0 0 0];


internalField   nonuniform List<scalar> 
634
(
371.687
372.029
371.816
371.51
369.036
370.078
369.431
368.521
366.31
368.106
366.999
365.498
363.506
366.115
364.526
362.472
360.689
364.119
362.053
359.531
358.033
362.153
359.69
356.845
355.757
360.281
357.592
354.589
353.969
358.588
355.868
352.829
352.626
357.137
354.526
351.507
351.624
355.942
353.499
350.514
350.863
354.98
352.71
349.755
350.266
354.209
352.088
349.148
349.779
353.587
351.579
348.644
349.369
353.074
351.151
348.218
349.02
352.64
350.786
347.853
348.717
352.267
350.472
347.538
348.452
351.944
350.199
347.263
348.219
351.661
349.96
347.022
348.011
351.412
349.75
346.808
347.825
351.191
349.564
346.619
347.657
350.993
349.4
346.45
347.504
350.816
349.253
346.298
347.364
350.655
349.122
346.163
347.236
350.508
349.005
346.04
347.117
350.374
348.901
345.929
347.007
350.251
348.807
345.827
346.905
350.139
348.723
345.734
346.81
350.036
348.648
345.647
346.723
349.942
348.581
345.568
346.643
349.855
348.522
345.495
346.568
349.772
348.47
345.432
346.498
349.692
348.426
345.376
346.432
349.617
348.387
345.328
346.368
349.547
348.352
345.283
346.306
349.481
348.322
345.242
346.246
349.418
348.294
345.203
346.187
349.357
348.269
345.166
346.13
349.297
348.247
345.131
346.074
349.239
348.228
345.096
346.018
349.183
348.21
345.063
345.963
349.127
348.194
345.032
345.908
349.073
348.179
345.001
345.854
349.019
348.166
344.972
345.799
348.966
348.154
344.943
345.743
348.913
348.144
344.916
345.687
348.861
348.134
344.889
345.628
348.809
348.125
344.863
345.567
348.758
348.116
344.837
345.493
348.706
348.108
344.812
345.399
348.655
348.101
344.787
345.309
348.603
348.093
344.762
345.237
348.552
348.085
344.736
345.175
348.499
348.076
344.711
345.114
348.447
348.067
344.686
345.053
348.394
348.059
344.661
344.991
348.341
348.051
344.635
344.929
348.287
348.043
344.609
344.868
348.232
348.034
344.583
344.806
348.176
348.025
344.556
344.744
348.119
348.015
344.529
344.683
348.057
348.004
344.501
344.622
347.978
347.992
344.473
344.561
347.864
347.979
344.445
344.501
347.75
347.965
344.416
344.442
347.665
347.95
344.387
344.384
347.597
347.933
344.357
344.326
347.533
347.915
344.327
344.27
347.469
347.895
344.296
344.214
347.404
347.874
344.264
344.159
347.34
347.85
344.231
344.105
347.275
347.824
344.197
344.051
347.21
347.795
344.162
343.998
347.145
347.765
344.126
343.946
347.08
347.736
344.089
343.894
347.015
347.706
344.05
343.842
346.947
347.677
344.009
343.791
346.876
347.647
343.966
343.739
346.781
347.617
343.914
343.687
346.641
347.587
343.839
371.798
371.828
371.516
371.585
369.387
369.48
368.53
368.729
366.954
367.12
365.492
365.806
364.52
364.771
362.432
362.834
362.132
362.477
359.452
359.898
359.881
360.321
356.752
357.169
357.885
358.42
354.535
354.842
356.236
356.862
352.867
353.019
354.954
355.666
351.668
351.664
353.991
354.78
350.813
350.674
353.273
354.13
350.191
349.945
352.733
353.647
349.727
349.397
352.318
353.28
349.369
348.972
351.991
352.994
349.082
348.631
351.726
352.763
348.846
348.351
351.505
352.571
348.648
348.117
351.317
352.41
348.48
347.919
351.154
352.271
348.336
347.75
351.01
352.149
348.21
347.604
350.881
352.042
348.098
347.475
350.765
351.944
347.999
347.362
350.658
351.855
347.908
347.262
350.56
351.772
347.826
347.171
350.468
351.693
347.75
347.09
350.38
351.618
347.679
347.015
350.297
351.545
347.613
346.946
350.218
351.475
347.55
346.88
350.141
351.406
347.489
346.816
350.066
351.338
347.431
346.755
349.993
351.271
347.374
346.696
349.922
351.205
347.319
346.638
349.853
351.139
347.265
346.581
349.784
351.073
347.211
346.525
349.717
351.006
347.158
346.47
349.65
350.94
347.105
346.415
349.584
350.873
347.052
346.36
349.519
350.806
347
346.306
349.455
350.738
346.947
346.251
349.391
350.67
346.894
346.197
349.328
350.602
346.84
346.143
349.266
350.533
346.787
346.088
349.204
350.463
346.732
346.034
349.142
350.393
346.678
345.979
349.081
350.323
346.622
345.924
349.021
350.252
346.566
345.868
348.96
350.18
346.51
345.812
348.901
350.108
346.452
345.755
348.841
350.036
346.394
345.697
348.783
349.963
346.335
345.639
348.724
349.889
346.275
345.58
348.665
349.815
346.214
345.519
348.605
349.74
346.152
345.458
348.544
349.665
346.089
345.395
348.482
349.588
346.025
345.332
348.419
349.512
345.96
345.267
348.356
349.435
345.894
345.201
348.294
349.358
345.828
345.135
348.233
349.282
345.76
345.069
348.173
349.205
345.692
345.003
348.115
349.129
345.622
344.94
348.058
349.052
345.551
344.878
348.003
348.976
345.48
344.818
347.95
348.899
345.407
344.76
347.898
348.821
345.333
344.704
347.848
348.741
345.258
344.651
347.8
348.659
345.181
344.6
347.753
348.574
345.103
344.551
347.707
348.487
345.025
344.503
347.663
348.398
344.945
344.458
347.62
348.307
344.865
344.414
347.578
348.215
344.784
344.371
347.537
348.123
344.703
344.329
347.496
348.031
344.622
344.289
347.456
347.939
344.542
344.249
347.415
347.847
344.463
344.21
347.375
347.755
344.385
344.173
347.334
347.663
344.309
344.136
347.292
347.571
344.234
344.1
347.249
347.477
344.16
344.064
347.204
347.381
)
;

boundaryField
{
    leftWall
    {
        type            fixedValue;
        value           uniform 373;
    }
    rightWall
    {
        type            fixedValue;
        value           nonuniform 0();
    }
    leftSides_periodic0
    {
        type            cyclic;
    }
    leftSides_periodic1
    {
        type            cyclic;
    }
    rightSides_periodic0
    {
        type            cyclic;
    }
    rightSides_periodic1
    {
        type            cyclic;
    }
    leftInOut_periodic0
    {
        type            cyclic;
    }
    leftInOut_periodic1
    {
        type            cyclic;
    }
    rightInOut_periodic0
    {
        type            cyclic;
    }
    rightInOut_periodic1
    {
        type            cyclic;
    }
    procBoundary2to0
    {
        type            processor;
        value           nonuniform List<scalar> 
316
(
371.938
371.989
371.578
371.541
369.803
369.95
368.728
368.627
367.634
367.863
365.856
365.708
365.434
365.73
362.994
362.819
363.227
363.581
360.235
360.048
361.081
361.503
357.757
357.56
359.113
359.626
355.734
355.52
357.434
358.059
354.205
353.968
356.09
356.824
353.083
352.823
355.048
355.874
352.252
351.97
354.243
355.14
351.617
351.315
353.612
354.56
351.112
350.794
353.105
354.09
350.698
350.364
352.689
353.697
350.345
349.999
352.337
353.359
350.034
349.68
352.031
353.061
349.756
349.394
351.76
352.793
349.505
349.135
351.518
352.551
349.276
348.898
351.299
352.33
349.064
348.68
351.102
352.128
348.868
348.478
350.921
351.941
348.686
348.289
350.756
351.768
348.515
348.112
350.604
351.607
348.354
347.946
350.464
351.458
348.203
347.79
350.334
351.319
348.059
347.643
350.214
351.19
347.923
347.504
350.103
351.071
347.794
347.373
349.999
350.961
347.671
347.25
349.904
350.858
347.554
347.135
349.815
350.761
347.442
347.026
349.732
350.666
347.336
346.921
349.655
350.571
347.234
346.818
349.583
350.476
347.136
346.714
349.516
350.383
347.043
346.609
349.453
350.296
346.954
346.507
349.395
350.218
346.868
346.411
349.34
350.147
346.786
346.325
349.289
350.083
346.707
346.249
349.241
350.021
346.631
346.18
349.196
349.962
346.558
346.117
349.154
349.905
346.488
346.056
349.114
349.851
346.42
345.998
349.076
349.799
346.355
345.942
349.04
349.748
346.292
345.889
349.005
349.699
346.232
345.836
348.971
349.652
346.173
345.781
348.937
349.606
346.116
345.72
348.902
349.56
346.061
345.652
348.866
349.515
346.005
345.586
348.83
349.468
345.95
345.531
348.794
349.422
345.893
345.484
348.761
349.379
345.835
345.438
348.732
349.34
345.775
345.393
348.707
349.302
345.715
345.349
348.685
349.265
345.656
345.304
348.665
349.227
345.599
345.261
348.645
349.186
345.543
345.218
348.624
349.144
345.487
345.178
348.602
349.098
345.431
345.138
348.579
349.049
345.375
345.098
348.555
348.996
345.317
345.059
348.53
348.94
345.259
345.02
348.504
348.881
345.2
344.981
348.476
348.821
345.14
344.942
348.446
348.762
345.079
344.904
348.415
348.705
345.017
344.865
348.383
348.649
344.953
344.826
348.349
348.595
344.888
344.787
348.313
348.541
344.821
344.748
348.275
348.486
344.753
344.709
348.236
348.428
344.683
344.669
348.195
348.364
344.612
344.629
348.151
348.297
344.54
344.589
348.105
348.226
344.467
344.548
348.057
348.15
344.394
344.506
348.006
348.07
344.32
344.463
347.952
347.984
344.246
344.419
347.894
347.891
344.171
344.373
347.833
347.792
344.097
344.324
)
;
    }
    procBoundary2to0throughleftSides_periodic1
    {
        type            processorCyclic;
        value           nonuniform List<scalar> 
314
(
371.572
368.676
365.692
362.669
359.729
357.082
354.925
353.299
352.109
351.231
350.561
350.03
349.594
349.222
348.897
348.605
348.341
348.099
347.876
347.668
347.474
347.292
347.12
346.958
346.805
346.659
346.521
346.39
346.265
346.145
346.03
345.92
345.813
345.711
345.612
345.517
345.425
345.336
345.25
345.167
345.087
345.009
344.934
344.862
344.792
344.724
344.658
344.594
344.531
344.47
344.41
344.352
344.295
344.231
344.151
344.063
343.996
343.945
343.9
343.857
343.816
343.778
343.741
343.707
343.674
343.642
343.612
343.583
343.554
343.527
343.5
343.474
343.448
343.421
343.395
343.368
343.341
343.313
343.284
371.924
369.769
367.601
365.428
363.284
361.236
359.39
357.835
356.595
355.632
354.882
354.288
353.805
353.402
353.057
352.755
352.487
352.244
352.022
351.818
351.627
351.448
351.279
351.119
350.967
350.822
350.684
350.551
350.423
350.299
350.18
350.065
349.954
349.847
349.743
349.642
349.545
349.45
349.358
349.268
349.18
349.09
349.002
348.918
348.839
348.763
348.689
348.618
348.55
348.484
348.421
348.358
348.288
348.203
348.109
348.032
347.97
347.914
347.859
347.806
347.755
347.705
347.656
347.609
347.563
347.518
347.474
347.423
347.351
347.259
347.188
347.136
347.09
347.046
347.002
346.959
346.917
346.875
346.828
371.509
368.522
365.528
362.587
359.813
357.371
355.412
353.967
352.948
352.234
351.719
351.334
351.034
350.791
350.586
350.408
350.25
350.108
349.978
349.859
349.748
349.645
349.547
349.455
349.368
349.285
349.205
349.128
349.055
348.984
348.916
348.85
348.786
348.724
348.664
348.605
348.549
348.494
348.442
348.391
348.341
348.293
348.247
348.203
348.16
348.119
348.079
348.04
348.003
347.967
347.932
347.899
347.866
347.835
347.805
347.777
347.75
347.725
347.701
347.678
347.656
347.636
347.617
347.6
347.584
347.568
347.554
347.54
347.527
347.514
347.502
347.49
347.478
347.467
347.455
347.443
347.43
347.417
371.01
367.041
363.105
359.331
355.945
353.201
351.22
349.902
349.046
348.478
348.08
347.786
347.555
347.364
347.199
347.054
346.923
346.802
346.69
346.585
346.485
346.39
346.299
346.21
346.124
346.039
345.957
345.877
345.798
345.721
345.645
345.571
345.498
345.426
345.355
345.286
345.219
345.152
345.087
345.024
344.961
344.9
344.839
344.78
344.721
344.664
344.607
344.55
344.495
344.441
344.388
344.335
344.284
344.234
344.181
344.117
344.03
343.938
343.884
343.846
343.812
343.781
343.752
343.724
343.698
343.672
343.648
343.623
343.599
343.575
343.55
343.525
343.499
343.473
343.446
343.418
343.39
343.36
)
;
    }
    procBoundary2to1throughleftSides_periodic1
    {
        type            processorCyclic;
        value           nonuniform List<scalar> 2(347.403 343.323);
    }
    procBoundary2to1throughrightSides_periodic1
    {
        type            processorCyclic;
        value           nonuniform List<scalar> 2(343.255 346.762);
    }
    procBoundary2to3
    {
        type            processor;
        value           nonuniform List<scalar> 
11
(
343.635
346.529
347.555
343.767
344.088
344.029
343.635
346.529
347.159
344.088
347.284
)
;
    }
    procBoundary2to3throughrightInOut_periodic1
    {
        type            processorCyclic;
        value           uniform 344.029;
    }
}


// ************************************************************************* //
