0 	0 	0 	0
0 	0 	0 	0
0.00752508 	-0.000961939 	0.000417339 	-0.271617
0.00752508 	-0.000961939 	0.000417339 	-0.271617
0.00757525 	-0.000944048 	0.000445281 	-0.271447
0.00762542 	-0.000926156 	0.000473223 	-0.271276
0.00762542 	-0.000926156 	0.000473223 	-0.271276
0.00767559 	-0.00090852 	0.000500752 	-0.271104
0.00772575 	-0.00091883 	0.00048302 	-0.270827
0.00777592 	-0.000929141 	0.000465287 	-0.27055
0.00782609 	-0.000939451 	0.000447555 	-0.270273
0.00782609 	-0.000939451 	0.000447555 	-0.270273
0.00787625 	-0.000941956 	0.000417736 	-0.269887
0.00792642 	-0.000938799 	0.00037915 	-0.26942
0.00797659 	-0.000935642 	0.000340565 	-0.268954
0.00802676 	-0.000915691 	0.000311619 	-0.268393
0.00802676 	-0.000915691 	0.000311619 	-0.268393
0.00807692 	-0.000832765 	0.000318823 	-0.267478
0.00812709 	-0.000749839 	0.000326027 	-0.266563
0.00812709 	-0.000749839 	0.000326027 	-0.266563
0.00817726 	-0.000666913 	0.000333231 	-0.265648
0.00822742 	-0.00055521 	0.000366972 	-0.264596
0.00822742 	-0.00055521 	0.000366972 	-0.264596
0.00827759 	-0.00044034 	0.000403635 	-0.263529
0.00832776 	-0.00032547 	0.000440297 	-0.262462
0.00832776 	-0.00032547 	0.000440297 	-0.262462
0.00837793 	-0.000247973 	0.000450962 	-0.261695
0.00842809 	-0.00019065 	0.000447595 	-0.26109
0.00842809 	-0.00019065 	0.000447595 	-0.26109
0.00847826 	-0.000133326 	0.000444227 	-0.260485
0.00847826 	-0.000133326 	0.000444227 	-0.260485
0.00852843 	-9.63315e-05 	0.000434129 	-0.260061
0.00852843 	-9.63315e-05 	0.000434129 	-0.260061
0.0085786 	-8.36544e-05 	0.00041598 	-0.259854
0.0085786 	-8.36544e-05 	0.00041598 	-0.259854
0.00862876 	-7.09773e-05 	0.000397831 	-0.259646
0.00867893 	-6.88229e-05 	0.0003858 	-0.259522
0.00867893 	-6.88229e-05 	0.0003858 	-0.259522
0.0087291 	-8.92906e-05 	0.000386923 	-0.259577
0.00877926 	-0.000109758 	0.000388045 	-0.259633
0.00877926 	-0.000109758 	0.000388045 	-0.259633
0.00882943 	-0.000131494 	0.000388126 	-0.25962
0.0088796 	-0.000157358 	0.000384816 	-0.259387
0.0088796 	-0.000157358 	0.000384816 	-0.259387
0.00897993 	-0.000204207 	0.000377112 	-0.258834
0.00897993 	-0.000204207 	0.000377112 	-0.258834
0.0090301 	-0.000206455 	0.000368555 	-0.258181
0.00908027 	-0.000208702 	0.000359998 	-0.257527
0.00908027 	-0.000208702 	0.000359998 	-0.257527
0.00913043 	-0.000209267 	0.000353055 	-0.256893
0.0091806 	-0.000204253 	0.000351462 	-0.25632
0.0091806 	-0.000204253 	0.000351462 	-0.25632
0.00923077 	-0.000199238 	0.000349869 	-0.255747
0.00928094 	-0.000197862 	0.000347955 	-0.255257
0.00928094 	-0.000197862 	0.000347955 	-0.255257
0.0093311 	-0.000204616 	0.000345323 	-0.254953
0.00938127 	-0.00021137 	0.000342691 	-0.254649
0.00938127 	-0.00021137 	0.000342691 	-0.254649
0.00943144 	-0.000222373 	0.00033903 	-0.254417
0.00943144 	-0.000222373 	0.00033903 	-0.254417
0.00948161 	-0.000238826 	0.000334048 	-0.254278
0.00948161 	-0.000238826 	0.000334048 	-0.254278
0.00953177 	-0.000255278 	0.000329066 	-0.254138
0.00953177 	-0.000255278 	0.000329066 	-0.254138
0.00958194 	-0.00027272 	0.000325333 	-0.253995
0.00958194 	-0.00027272 	0.000325333 	-0.253995
0.00963211 	-0.000290775 	0.000322373 	-0.253849
0.00963211 	-0.000290775 	0.000322373 	-0.253849
0.00968227 	-0.00030883 	0.000319413 	-0.253703
0.00968227 	-0.00030883 	0.000319413 	-0.253703
0.00973244 	-0.000328998 	0.000318525 	-0.253523
0.00978261 	-0.000349549 	0.000318012 	-0.253338
0.00983278 	-0.000371182 	0.000317052 	-0.253153
0.00988294 	-0.0004004 	0.000312956 	-0.252968
0.00988294 	-0.0004004 	0.000312956 	-0.252968
0.00993311 	-0.000429618 	0.000308861 	-0.252783
0.00998328 	-0.000462105 	0.000304386 	-0.252594
0.00998328 	-0.000462105 	0.000304386 	-0.252594
0.0100334 	-0.000498573 	0.000299449 	-0.252402
0.0100334 	-0.000498573 	0.000299449 	-0.252402
0.0100836 	-0.000535041 	0.000294512 	-0.252211
0.0101338 	-0.000568435 	0.000292063 	-0.251972
0.0101338 	-0.000568435 	0.000292063 	-0.251972
0.0102341 	-0.000632494 	0.000286452 	-0.25146
0.0102341 	-0.000632494 	0.000286452 	-0.25146
0.0102843 	-0.000659414 	0.000277236 	-0.251154
0.0103344 	-0.000686334 	0.00026802 	-0.250848
0.0103344 	-0.000686334 	0.00026802 	-0.250848
0.0103846 	-0.000713233 	0.000259068 	-0.25055
0.0103846 	-0.000713233 	0.000259068 	-0.25055
0.0104348 	-0.000740122 	0.000250225 	-0.250255
0.0104849 	-0.000766125 	0.000246194 	-0.249954
0.0104849 	-0.000766125 	0.000246194 	-0.249954
0.0105351 	-0.000788944 	0.000259449 	-0.249632
0.0105853 	-0.000811762 	0.000272704 	-0.24931
0.0105853 	-0.000811762 	0.000272704 	-0.24931
0.0106355 	-0.000826631 	0.000294303 	-0.24876
0.0106856 	-0.00083914 	0.00031838 	-0.248144
0.0106856 	-0.00083914 	0.00031838 	-0.248144
0.0107358 	-0.000849751 	0.00033218 	-0.247371
0.0107358 	-0.000849751 	0.00033218 	-0.247371
0.010786 	-0.000857098 	0.000328294 	-0.24633
0.010786 	-0.000857098 	0.000328294 	-0.24633
0.0108361 	-0.000864466 	0.000324286 	-0.245288
0.0108361 	-0.000864466 	0.000324286 	-0.245288
0.0108863 	-0.000875007 	0.000301158 	-0.244182
0.0109365 	-0.000885549 	0.000278031 	-0.243075
0.0109365 	-0.000885549 	0.000278031 	-0.243075
0.0109866 	-0.000901043 	0.000266428 	-0.242138
0.0109866 	-0.000901043 	0.000266428 	-0.242138
0.0110368 	-0.000918797 	0.000260082 	-0.241279
0.011087 	-0.000939491 	0.000259474 	-0.240496
0.011087 	-0.000939491 	0.000259474 	-0.240496
0.0111371 	-0.000964453 	0.000267189 	-0.239826
0.0111873 	-0.000989896 	0.000274691 	-0.239166
0.0111873 	-0.000989896 	0.000274691 	-0.239166
0.0112375 	-0.0010177 	0.000281148 	-0.238555
0.0112876 	-0.0010455 	0.000287605 	-0.237944
0.0112876 	-0.0010455 	0.000287605 	-0.237944
0.0113378 	-0.0010722 	0.000287937 	-0.237314
0.011388 	-0.00109886 	0.000288081 	-0.236683
0.011388 	-0.00109886 	0.000288081 	-0.236683
0.0114883 	-0.00114963 	0.000286797 	-0.235361
0.0114883 	-0.00114963 	0.000286797 	-0.235361
0.0115385 	-0.0011745 	0.000286497 	-0.234674
0.0115886 	-0.00119919 	0.00028639 	-0.233976
0.0115886 	-0.00119919 	0.00028639 	-0.233976
0.0116388 	-0.00122358 	0.000287368 	-0.233256
0.011689 	-0.00124775 	0.000289062 	-0.232521
0.011689 	-0.00124775 	0.000289062 	-0.232521
0.0117391 	-0.00127139 	0.000288013 	-0.231759
0.0117893 	-0.00129459 	0.000284758 	-0.230977
0.0117893 	-0.00129459 	0.000284758 	-0.230977
0.0118395 	-0.00131758 	0.000274405 	-0.23017
0.0118896 	-0.00134039 	0.000258056 	-0.229344
0.0118896 	-0.00134039 	0.000258056 	-0.229344
0.0119398 	-0.00136375 	0.000246519 	-0.228514
0.0119398 	-0.00136375 	0.000246519 	-0.228514
0.01199 	-0.00138752 	0.000238681 	-0.227681
0.01199 	-0.00138752 	0.000238681 	-0.227681
0.0120401 	-0.00141092 	0.000246899 	-0.22683
0.0120401 	-0.00141092 	0.000246899 	-0.22683
0.0120903 	-0.0014341 	0.000264817 	-0.225968
0.0120903 	-0.0014341 	0.000264817 	-0.225968
0.0121405 	-0.00145487 	0.000291811 	-0.224917
0.0121405 	-0.00145487 	0.000291811 	-0.224917
0.0121906 	-0.0014747 	0.00032241 	-0.223793
0.0121906 	-0.0014747 	0.00032241 	-0.223793
0.0122408 	-0.00149156 	0.000326473 	-0.22226
0.0122408 	-0.00149156 	0.000326473 	-0.22226
0.012291 	-0.00150786 	0.000325524 	-0.220651
0.012291 	-0.00150786 	0.000325524 	-0.220651
0.0123411 	-0.00152175 	0.000290996 	-0.218877
0.0123411 	-0.00152175 	0.000290996 	-0.218877
0.0123913 	-0.00153553 	0.000258507 	-0.217149
0.0123913 	-0.00153553 	0.000258507 	-0.217149
0.0124415 	-0.00154883 	0.000234602 	-0.215615
0.0124916 	-0.00156315 	0.00022119 	-0.214169
0.0124916 	-0.00156315 	0.00022119 	-0.214169
0.012592 	-0.00159664 	0.000229726 	-0.211568
0.012592 	-0.00159664 	0.000229726 	-0.211568
0.0126421 	-0.00161527 	0.000239758 	-0.210314
0.0126923 	-0.00163378 	0.000236867 	-0.209027
0.0126923 	-0.00163378 	0.000236867 	-0.209027
0.0127425 	-0.00165179 	0.000232489 	-0.207718
0.0127425 	-0.00165179 	0.000232489 	-0.207718
0.0127926 	-0.00166851 	0.000225749 	-0.206357
0.0128428 	-0.00168381 	0.000222017 	-0.204947
0.0128428 	-0.00168381 	0.000222017 	-0.204947
0.012893 	-0.00169823 	0.000220165 	-0.203506
0.0129431 	-0.00170999 	0.000217756 	-0.201978
0.0129431 	-0.00170999 	0.000217756 	-0.201978
0.0129933 	-0.0017208 	0.000214924 	-0.20041
0.0130435 	-0.00173019 	0.000211448 	-0.198784
0.0130435 	-0.00173019 	0.000211448 	-0.198784
0.0130936 	-0.00173819 	0.000207317 	-0.19707
0.0131438 	-0.00174554 	0.000202905 	-0.195305
0.0131438 	-0.00174554 	0.000202905 	-0.195305
0.013194 	-0.00175195 	0.000198136 	-0.193456
0.0132441 	-0.00175726 	0.000192988 	-0.19151
0.0132441 	-0.00175726 	0.000192988 	-0.19151
0.0132943 	-0.00176179 	0.000187692 	-0.189496
0.0133445 	-0.00176519 	0.000182311 	-0.187386
0.0133445 	-0.00176519 	0.000182311 	-0.187386
0.0133946 	-0.00176721 	0.000176983 	-0.185155
0.0134448 	-0.00176824 	0.000171557 	-0.182837
0.0134448 	-0.00176824 	0.000171557 	-0.182837
0.013495 	-0.00176817 	0.000165955 	-0.18042
0.0135452 	-0.00176629 	0.000159852 	-0.17783
0.0135452 	-0.00176629 	0.000159852 	-0.17783
0.0136455 	-0.00175831 	0.00014721 	-0.172275
0.0136455 	-0.00175831 	0.00014721 	-0.172275
0.0136957 	-0.00175131 	0.000140991 	-0.16926
0.0137458 	-0.00174079 	0.000135243 	-0.166017
0.0137458 	-0.00174079 	0.000135243 	-0.166017
0.013796 	-0.00172677 	0.00012969 	-0.162577
0.0138462 	-0.00170853 	0.000124183 	-0.158915
0.0138462 	-0.00170853 	0.000124183 	-0.158915
0.0138963 	-0.00168522 	0.000118538 	-0.155002
0.0138963 	-0.00168522 	0.000118538 	-0.155002
0.0139465 	-0.00165378 	0.000112931 	-0.150713
0.0139967 	-0.00161535 	0.000107574 	-0.146104
0.0139967 	-0.00161535 	0.000107574 	-0.146104
0.0140468 	-0.00156984 	0.000102314 	-0.141161
0.0140468 	-0.00156984 	0.000102314 	-0.141161
0.014097 	-0.00151704 	9.7059e-05 	-0.135867
0.0141472 	-0.00145682 	9.18137e-05 	-0.130208
0.0141973 	-0.00138901 	8.67611e-05 	-0.124165
0.0141973 	-0.00138901 	8.67611e-05 	-0.124165
0.0142475 	-0.00131251 	8.2036e-05 	-0.117652
0.0142977 	-0.00122884 	7.73876e-05 	-0.110709
0.0143478 	-0.00113821 	7.24783e-05 	-0.103326
0.0143478 	-0.00113821 	7.24783e-05 	-0.103326
0.014398 	-0.00104063 	6.72548e-05 	-0.0955103
0.014398 	-0.00104063 	6.72548e-05 	-0.0955103
0.0144482 	-0.000936371 	6.18702e-05 	-0.0872981
0.0144983 	-0.000826385 	5.63304e-05 	-0.0787606
0.0144983 	-0.000826385 	5.63304e-05 	-0.0787606
0.0145485 	-0.000712549 	5.04578e-05 	-0.0700039
0.0145987 	-0.000597579 	4.41227e-05 	-0.0611584
0.0145987 	-0.000597579 	4.41227e-05 	-0.0611584
0.0146488 	-0.000484759 	3.72907e-05 	-0.0523605
0.014699 	-0.000377489 	2.99627e-05 	-0.0437342
0.014699 	-0.000377489 	2.99627e-05 	-0.0437342
0.0147492 	-0.000278801 	2.22566e-05 	-0.035384
0.0147993 	-0.000191029 	1.46183e-05 	-0.0274071
0.0147993 	-0.000191029 	1.46183e-05 	-0.0274071
0.0148495 	-0.00011573 	7.24893e-06 	-0.019933
0.0148495 	-0.00011573 	7.24893e-06 	-0.019933
0.0148997 	-5.67683e-05 	2.1595e-06 	-0.0130602
0.0148997 	-5.67683e-05 	2.1595e-06 	-0.0130602
0.0149498 	-2.04042e-05 	5.47187e-08 	-0.00657638
0.0149498 	-2.04042e-05 	5.47187e-08 	-0.00657638
0.015 	0 	0 	0
