-0.0075 	0 	0 	0
-0.0075 	3.5217e-36 	-2.22589e-36 	-6.95673e-33
-0.00745622 	4.62857e-06 	-2.92549e-06 	-0.00914323
-0.00745622 	4.62857e-06 	-2.92549e-06 	-0.00914323
-0.00741165 	-1.08549e-05 	-5.37195e-06 	-0.0191874
-0.00741165 	-1.08549e-05 	-5.37195e-06 	-0.0191874
-0.00736628 	-4.36988e-05 	-6.91334e-06 	-0.0295647
-0.00736628 	-4.36988e-05 	-6.91334e-06 	-0.0295647
-0.0073201 	-7.43101e-05 	-7.11066e-06 	-0.0399141
-0.0073201 	-7.43101e-05 	-7.11066e-06 	-0.0399141
-0.00727309 	-9.45933e-05 	-7.33452e-06 	-0.0501566
-0.00727309 	-9.45933e-05 	-7.33452e-06 	-0.0501566
-0.00722524 	-0.000104489 	-7.12147e-06 	-0.060274
-0.00722524 	-0.000104489 	-7.12147e-06 	-0.060274
-0.00717653 	-0.000104034 	-6.61239e-06 	-0.0702117
-0.00717653 	-0.000104034 	-6.61239e-06 	-0.0702117
-0.00712695 	-9.34256e-05 	-5.77317e-06 	-0.0798992
-0.00712695 	-9.34256e-05 	-5.77317e-06 	-0.0798992
-0.00707647 	-7.30996e-05 	-4.47414e-06 	-0.089266
-0.00707647 	-7.30996e-05 	-4.47414e-06 	-0.089266
-0.0070251 	-4.37075e-05 	-2.65086e-06 	-0.0982527
-0.0070251 	-4.37075e-05 	-2.65086e-06 	-0.0982527
-0.0069728 	-6.10206e-06 	-1.29095e-07 	-0.10682
-0.0069728 	-6.10206e-06 	-1.29095e-07 	-0.10682
-0.00691956 	3.86132e-05 	3.1776e-06 	-0.114959
-0.00691956 	3.86132e-05 	3.1776e-06 	-0.114959
-0.00686537 	8.9096e-05 	7.23468e-06 	-0.122686
-0.00686537 	8.9096e-05 	7.23468e-06 	-0.122686
-0.00681021 	0.00014369 	1.2029e-05 	-0.130027
-0.00681021 	0.00014369 	1.2029e-05 	-0.130027
-0.00675406 	0.000200635 	1.75153e-05 	-0.137004
-0.00675406 	0.000200635 	1.75153e-05 	-0.137004
-0.0066969 	0.000258596 	2.37226e-05 	-0.143643
-0.0066969 	0.000258596 	2.37226e-05 	-0.143643
-0.00663871 	0.000316688 	3.07268e-05 	-0.149964
-0.00663871 	0.000316688 	3.07268e-05 	-0.149964
-0.00657949 	0.000374173 	3.85445e-05 	-0.155986
-0.00657949 	0.000374173 	3.85445e-05 	-0.155986
-0.0065192 	0.000430377 	4.71435e-05 	-0.161724
-0.0065192 	0.000430377 	4.71435e-05 	-0.161724
-0.00645783 	0.000484714 	5.64941e-05 	-0.167194
-0.00645783 	0.000484714 	5.64941e-05 	-0.167194
-0.00639535 	0.000536692 	6.65693e-05 	-0.17241
-0.00639535 	0.000536692 	6.65693e-05 	-0.17241
-0.00633176 	0.000585924 	7.72802e-05 	-0.177383
-0.00633176 	0.000585924 	7.72802e-05 	-0.177383
-0.00626703 	0.00063214 	8.84783e-05 	-0.182128
-0.00626703 	0.00063214 	8.84783e-05 	-0.182128
-0.00620114 	0.000675154 	0.000100057 	-0.186663
-0.00620114 	0.000675154 	0.000100057 	-0.186663
-0.00613406 	0.000714695 	0.000111958 	-0.191009
-0.00613406 	0.000714695 	0.000111958 	-0.191009
-0.00606579 	0.00075022 	0.00012454 	-0.195187
-0.00606579 	0.00075022 	0.00012454 	-0.195187
-0.00599629 	0.000780973 	0.000138314 	-0.199195
-0.00599629 	0.000780973 	0.000138314 	-0.199195
-0.00592554 	0.00080704 	0.000152607 	-0.203007
-0.00592554 	0.00080704 	0.000152607 	-0.203007
-0.00585352 	0.000830074 	0.000166255 	-0.206591
-0.00585352 	0.000830074 	0.000166255 	-0.206591
-0.00578022 	0.00085255 	0.000179206 	-0.209955
-0.00578022 	0.00085255 	0.000179206 	-0.209955
-0.00570559 	0.000877534 	0.000192439 	-0.213149
-0.00570559 	0.000877534 	0.000192439 	-0.213149
-0.00562963 	0.00090665 	0.000206829 	-0.216241
-0.00562963 	0.00090665 	0.000206829 	-0.216241
-0.00555231 	0.00093587 	0.00022195 	-0.219279
-0.00555231 	0.00093587 	0.00022195 	-0.219279
-0.0054736 	0.000954488 	0.000236329 	-0.222287
-0.0054736 	0.000954488 	0.000236329 	-0.222287
-0.00539348 	0.000952271 	0.000248595 	-0.225277
-0.00539348 	0.000952271 	0.000248595 	-0.225277
-0.00531193 	0.000933254 	0.000258979 	-0.228198
-0.00531193 	0.000933254 	0.000258979 	-0.228198
-0.00522891 	0.000914345 	0.00026973 	-0.230938
-0.00522891 	0.000914345 	0.00026973 	-0.230938
-0.0051444 	0.000906298 	0.00028252 	-0.233443
-0.0051444 	0.000906298 	0.00028252 	-0.233443
-0.00505838 	0.000908172 	0.000296441 	-0.235757
-0.00505838 	0.000908172 	0.000296441 	-0.235757
-0.00497081 	0.00091485 	0.000309494 	-0.237946
-0.00497081 	0.00091485 	0.000309494 	-0.237946
-0.00488168 	0.00092211 	0.000321264 	-0.24005
-0.00488168 	0.00092211 	0.000321264 	-0.24005
-0.00479094 	0.000928772 	0.000332161 	-0.242081
-0.00479094 	0.000928772 	0.000332161 	-0.242081
-0.00469858 	0.000934756 	0.000341568 	-0.244047
-0.00469858 	0.000934756 	0.000341568 	-0.244047
-0.00460456 	0.000939485 	0.000349025 	-0.245957
-0.00460456 	0.000939485 	0.000349025 	-0.245957
-0.00450886 	0.000942766 	0.000355742 	-0.247817
-0.00450886 	0.000942766 	0.000355742 	-0.247817
-0.00441144 	0.000944969 	0.000363666 	-0.249629
-0.00441144 	0.000944969 	0.000363666 	-0.249629
-0.00431227 	0.000946589 	0.000372168 	-0.251388
-0.00431227 	0.000946589 	0.000372168 	-0.251388
-0.00421133 	0.000946986 	0.000379791 	-0.253101
-0.00421133 	0.000946986 	0.000379791 	-0.253101
-0.00410857 	0.000944696 	0.000387957 	-0.254826
-0.00410857 	0.000944696 	0.000387957 	-0.254826
-0.00400397 	0.000943258 	0.000396448 	-0.256665
-0.00400397 	0.000943258 	0.000396448 	-0.256665
-0.0038975 	0.000947728 	0.000402818 	-0.258641
-0.0038975 	0.000947728 	0.000402818 	-0.258641
-0.00378912 	0.000953478 	0.000406093 	-0.260529
-0.00378912 	0.000953478 	0.000406093 	-0.260529
-0.00367879 	0.000954002 	0.000407954 	-0.262126
-0.00367879 	0.000954002 	0.000407954 	-0.262126
-0.00356649 	0.000950822 	0.000410494 	-0.263513
-0.00356649 	0.000950822 	0.000410494 	-0.263513
-0.00345217 	0.000947327 	0.000413649 	-0.264834
-0.00345217 	0.000947327 	0.000413649 	-0.264834
-0.0033358 	0.000944611 	0.000417145 	-0.266125
-0.0033358 	0.000944611 	0.000417145 	-0.266125
-0.00321735 	0.000943532 	0.000420838 	-0.267368
-0.00321735 	0.000943532 	0.000420838 	-0.267368
-0.00309677 	0.00094515 	0.000424607 	-0.268553
-0.00309677 	0.00094515 	0.000424607 	-0.268553
-0.00297403 	0.000950047 	0.000428526 	-0.269679
-0.00297403 	0.000950047 	0.000428526 	-0.269679
-0.00284909 	0.000958615 	0.000432552 	-0.270748
-0.00284909 	0.000958615 	0.000432552 	-0.270748
-0.0027219 	0.000971174 	0.000436582 	-0.27176
-0.0027219 	0.000971174 	0.000436582 	-0.27176
-0.00259244 	0.000987993 	0.000440569 	-0.272718
-0.00259244 	0.000987993 	0.000440569 	-0.272718
-0.00246065 	0.00100933 	0.000444546 	-0.273623
-0.00246065 	0.00100933 	0.000444546 	-0.273623
-0.00232651 	0.00103548 	0.000448585 	-0.27448
-0.00232651 	0.00103548 	0.000448585 	-0.27448
-0.00218995 	0.00106673 	0.000452545 	-0.275293
-0.00218995 	0.00106673 	0.000452545 	-0.275293
-0.00205095 	0.00110321 	0.000456124 	-0.276066
-0.00205095 	0.00110321 	0.000456124 	-0.276066
-0.00190946 	0.00114464 	0.000459821 	-0.276799
-0.00190946 	0.00114464 	0.000459821 	-0.276799
-0.00176543 	0.00118925 	0.000464386 	-0.277489
-0.00176543 	0.00118925 	0.000464386 	-0.277489
-0.00161881 	0.00123142 	0.000468457 	-0.278122
-0.00161881 	0.00123142 	0.000468457 	-0.278122
-0.00146957 	0.00126118 	0.000469108 	-0.278656
-0.00146957 	0.00126118 	0.000469108 	-0.278656
-0.00131765 	0.00127506 	0.000466523 	-0.279026
-0.00131765 	0.00127506 	0.000466523 	-0.279026
-0.001163 	0.0012904 	0.000461967 	-0.27925
-0.001163 	0.0012904 	0.000461967 	-0.27925
-0.00100559 	0.00132612 	0.000454092 	-0.279407
-0.00100559 	0.00132612 	0.000454092 	-0.279407
-0.000845345 	0.0013817 	0.000448086 	-0.279515
-0.000845345 	0.0013817 	0.000448086 	-0.279515
-0.000682232 	0.00144923 	0.000444128 	-0.279557
-0.000682232 	0.00144923 	0.000444128 	-0.279557
-0.000516194 	0.00152357 	0.000436345 	-0.279526
-0.000516194 	0.00152357 	0.000436345 	-0.279526
-0.000347178 	0.00160159 	0.000427714 	-0.279424
-0.000347178 	0.00160159 	0.000427714 	-0.279424
-0.000175132 	0.00168069 	0.000410075 	-0.279261
-0.000175132 	0.00168069 	0.000410075 	-0.279261
0 	0.00175977 	0.000389448 	-0.279067
0 	0.00175977 	0.000389448 	-0.279067
0 	0.00175977 	0.000389448 	-0.279067
0 	0.00175977 	0.000389448 	-0.279067
0.000175132 	0.00183934 	0.000376398 	-0.278866
0.000175132 	0.000866893 	0.00190263 	-0.287447
0.000347178 	0.00192015 	0.000361095 	-0.278639
0.000347178 	0.000859095 	0.00193711 	-0.285925
0.000516194 	0.0019988 	0.000348805 	-0.278323
0.000516194 	0.000806217 	0.00197348 	-0.284507
0.000682232 	0.00206616 	0.000342723 	-0.277847
0.000682232 	0.000719649 	0.00200388 	-0.283177
0.000845345 	0.00211911 	0.000336283 	-0.277209
0.000845345 	0.00061997 	0.00203477 	-0.282013
0.00100559 	0.0021615 	0.000328404 	-0.276461
0.00100559 	0.000525521 	0.00208718 	-0.281119
0.001163 	0.0021938 	0.000321321 	-0.275633
0.001163 	0.000414024 	0.00214923 	-0.280472
0.00131765 	0.00221365 	0.000315624 	-0.274735
0.00131765 	0.000221337 	0.00217854 	-0.279786
0.00146957 	0.00221909 	0.000309431 	-0.273779
0.00146957 	-5.96135e-05 	0.00218305 	-0.278867
0.00161881 	0.00220822 	0.000304269 	-0.272787
0.00161881 	-0.000367447 	0.00220413 	-0.277799
0.00176543 	0.00218214 	0.000302944 	-0.27178
0.00176543 	-0.000667195 	0.00224747 	-0.276677
0.00190946 	0.00214866 	0.000305642 	-0.27076
0.00190946 	-0.000962072 	0.00229606 	-0.275523
0.00205095 	0.00211358 	0.000310854 	-0.269722
0.00205095 	-0.00126398 	0.00233857 	-0.274329
0.00218995 	0.00207637 	0.000316874 	-0.268661
0.00218995 	-0.0015778 	0.00237447 	-0.273093
0.00232651 	0.00203665 	0.000322355 	-0.267571
0.00232651 	-0.00189998 	0.00240981 	-0.271795
0.00246065 	0.00199584 	0.000327363 	-0.266437
0.00246065 	-0.00222782 	0.00244884 	-0.270367
0.00259244 	0.001956 	0.000333507 	-0.265231
0.00259244 	-0.00257113 	0.00248511 	-0.268716
0.0027219 	0.00191806 	0.000340195 	-0.263929
0.0027219 	-0.00294702 	0.00251463 	-0.266862
0.00284909 	0.00188048 	0.000344749 	-0.262542
0.00284909 	-0.00335791 	0.00252918 	-0.265111
0.00297403 	0.0018407 	0.000346865 	-0.261134
0.00297403 	-0.00376118 	0.00252829 	-0.263696
0.00309677 	0.00179851 	0.000347305 	-0.259758
0.00309677 	-0.00411449 	0.00252313 	-0.262501
0.00321735 	0.00175567 	0.000347173 	-0.258403
0.00321735 	-0.00443461 	0.00251132 	-0.261373
0.0033358 	0.00171358 	0.000348031 	-0.257031
0.0033358 	-0.00474979 	0.00249666 	-0.260257
0.00345217 	0.00167272 	0.000350233 	-0.255619
0.00345217 	-0.00506319 	0.00248539 	-0.259169
0.00356649 	0.0016332 	0.000352889 	-0.254166
0.00356649 	-0.00536815 	0.00247731 	-0.258135
0.00367879 	0.00159505 	0.000355401 	-0.252673
0.00367879 	-0.00566096 	0.00247213 	-0.25714
0.00378912 	-0.00594195 	0.00246464 	-0.256149
0.00378912 	0.00155824 	0.000357505 	-0.251144
0.0038975 	0.00152274 	0.000358695 	-0.249579
0.0038975 	-0.00621023 	0.0024518 	-0.255138
0.00400397 	0.00148871 	0.000361877 	-0.247979
0.00400397 	-0.00646254 	0.00243664 	-0.254092
0.00410857 	0.00145751 	0.000368329 	-0.246308
0.00410857 	-0.00669528 	0.00242109 	-0.252995
0.00421133 	0.00143121 	0.000370479 	-0.244489
0.00421133 	-0.00690398 	0.00240363 	-0.251855
0.00431227 	0.00140944 	0.000363809 	-0.242441
0.00431227 	-0.00708369 	0.0023854 	-0.250714
0.00441144 	0.00138905 	0.000354826 	-0.240243
0.00441144 	-0.007232 	0.00236832 	-0.249641
0.00450886 	0.00136646 	0.000355288 	-0.238148
0.00450886 	-0.00735041 	0.00235074 	-0.248653
0.00460456 	0.00134093 	0.000363787 	-0.236241
0.00460456 	-0.00744508 	0.00232772 	-0.247612
0.00469858 	0.00131556 	0.000367615 	-0.234356
0.00469858 	-0.00752203 	0.00229975 	-0.246363
0.00479094 	0.00129328 	0.000362846 	-0.232372
0.00479094 	-0.00757978 	0.00226457 	-0.244922
0.00488168 	0.00127425 	0.000354016 	-0.230272
0.00488168 	-0.0076157 	0.00221844 	-0.243323
0.00497081 	0.0012571 	0.000349266 	-0.228043
0.00497081 	-0.007636 	0.00218202 	-0.241406
0.00505838 	0.00124149 	0.000350098 	-0.225635
0.00505838 	-0.00764578 	0.00216426 	-0.238899
0.0051444 	0.00122879 	0.000350546 	-0.223043
0.0051444 	-0.00763405 	0.00214318 	-0.235949
0.00522891 	0.0012204 	0.000343444 	-0.220362
0.00522891 	-0.00757923 	0.00208874 	-0.233359
0.00531193 	-0.0074707 	0.00200113 	-0.231543
0.00531193 	0.00121584 	0.000327289 	-0.217664
0.00539348 	0.00121237 	0.000310898 	-0.214925
0.00539348 	-0.00732057 	0.00191954 	-0.23001
0.0054736 	0.00120625 	0.000300747 	-0.212139
0.0054736 	-0.00714867 	0.00185841 	-0.228232
0.00555231 	0.00119573 	0.000293843 	-0.209308
0.00555231 	-0.00696523 	0.00180132 	-0.226115
0.00562963 	0.00118187 	0.000284793 	-0.206407
0.00562963 	-0.00677027 	0.00173532 	-0.223806
0.00570559 	0.00116642 	0.000272423 	-0.20339
0.00570559 	-0.0065598 	0.00166164 	-0.2214
0.00578022 	0.00115017 	0.000258583 	-0.200217
0.00578022 	-0.00633132 	0.00158811 	-0.218891
0.00585352 	0.00113269 	0.000244803 	-0.196866
0.00585352 	-0.00608565 	0.00151522 	-0.216265
0.00592554 	0.00111294 	0.000231445 	-0.193329
0.00592554 	-0.00582478 	0.00144024 	-0.213509
0.00599629 	0.00108983 	0.000218238 	-0.189599
0.00599629 	-0.0055499 	0.00136305 	-0.210591
0.00606579 	-0.00526122 	0.001285 	-0.207446
0.00606579 	0.00106261 	0.000205076 	-0.185666
0.00613406 	0.00103142 	0.000191694 	-0.181506
0.00613406 	-0.00495838 	0.00120686 	-0.203991
0.00620114 	0.000997162 	0.000177982 	-0.177091
0.00620114 	-0.00464179 	0.00112809 	-0.200169
0.00626703 	0.000960931 	0.000164123 	-0.172397
0.00626703 	-0.00431383 	0.00104788 	-0.19598
0.00633176 	0.00092363 	0.00015027 	-0.167402
0.00633176 	-0.0039781 	0.000966289 	-0.191436
0.00639535 	0.000885825 	0.000136701 	-0.162085
0.00639535 	-0.00363825 	0.000884838 	-0.186525
0.00645783 	0.000847645 	0.000123565 	-0.156427
0.00645783 	-0.00329764 	0.000804587 	-0.181215
0.0065192 	0.000808793 	0.000110813 	-0.150411
0.0065192 	-0.00295943 	0.000725664 	-0.175471
0.00657949 	0.000768825 	9.84666e-05 	-0.144022
0.00657949 	-0.00262707 	0.000648561 	-0.169257
0.00663871 	0.000727301 	8.66236e-05 	-0.137246
0.00663871 	-0.00230404 	0.000574089 	-0.162538
0.0066969 	0.000683818 	7.53175e-05 	-0.130065
0.0066969 	-0.00199334 	0.000502463 	-0.155276
0.00675406 	0.000638217 	6.45434e-05 	-0.122464
0.00675406 	-0.0016976 	0.000433972 	-0.147443
0.00681021 	0.0005909 	5.43608e-05 	-0.114434
0.00681021 	-0.00141952 	0.000369031 	-0.139025
0.00686537 	0.000543073 	4.48477e-05 	-0.105999
0.00686537 	-0.00116222 	0.000307945 	-0.13003
0.00691956 	0.000496401 	3.60999e-05 	-0.0972214
0.00691956 	-0.000929168 	0.000251503 	-0.120504
0.0069728 	0.000452336 	2.82208e-05 	-0.0882039
0.0069728 	-0.00072336 	0.000200122 	-0.110543
0.0070251 	0.000411921 	2.12908e-05 	-0.0790801
0.0070251 	-0.000546669 	0.000154113 	-0.100291
0.00707647 	0.00037566 	1.54111e-05 	-0.0699967
0.00707647 	-0.000399484 	0.000114011 	-0.0899213
0.00712695 	0.000343255 	1.06724e-05 	-0.0610869
0.00712695 	-0.00028068 	8.0126e-05 	-0.0795993
0.00717653 	0.000313435 	7.11082e-06 	-0.0524456
0.00717653 	-0.000188013 	5.26504e-05 	-0.0694415
0.00722524 	0.000283736 	4.727e-06 	-0.0441182
0.00722524 	-0.000118889 	3.18582e-05 	-0.0594852
0.00727309 	0.000249921 	3.39431e-06 	-0.0361029
0.00727309 	-7.13633e-05 	1.71553e-05 	-0.0496752
0.0073201 	0.000204681 	2.81464e-06 	-0.0283584
0.0073201 	-4.52977e-05 	7.12509e-06 	-0.0398522
0.00736628 	0.000135323 	3.00533e-06 	-0.0208137
0.00736628 	-4.37261e-05 	5.45486e-06 	-0.0297315
0.00741165 	4.8214e-05 	2.38328e-06 	-0.0134611
0.00741165 	-5.60902e-05 	1.36612e-06 	-0.01923
0.00745622 	-9.42632e-06 	1.29775e-06 	-0.0064629
0.00745622 	-4.80848e-05 	5.11969e-08 	-0.0089979
0.0075 	0 	0 	0
0.0075 	0 	0 	0
