/*--------------------------------*- C++ -*----------------------------------*\
| =========                 |                                                 |
| \\      /  F ield         | OpenFOAM: The Open Source CFD Toolbox           |
|  \\    /   O peration     | Version:  v1906                                 |
|   \\  /    A nd           | Web:      www.OpenFOAM.com                      |
|    \\/     M anipulation  |                                                 |
\*---------------------------------------------------------------------------*/
FoamFile
{
    version     2.0;
    format      ascii;
    class       volScalarField;
    location    "98.4";
    object      p;
}
// * * * * * * * * * * * * * * * * * * * * * * * * * * * * * * * * * * * * * //

dimensions      [1 -1 -2 0 0 0 0];


internalField   nonuniform List<scalar> 
634
(
99896.2
99902.6
99892.1
99897.3
99895.5
99903.5
99890.7
99898.3
99894.8
99904.5
99889.4
99899.4
99894.1
99905.5
99888.2
99900.4
99893.4
99906.6
99887.4
99901.4
99892.6
99907.7
99886.7
99902.3
99891.7
99908.8
99885.7
99902.9
99890.8
99909.9
99884.2
99903.3
99889.9
99911.1
99882.4
99904
99889
99912.3
99880.6
99904.9
99888
99913.5
99878.8
99906
99887
99914.8
99876.9
99907.1
99885.9
99916
99875
99908.2
99884.8
99917.2
99873.1
99909.3
99883.7
99918.5
99871.2
99910.4
99882.6
99919.7
99869.2
99911.4
99881.4
99921
99867.3
99912.5
99880.2
99922.2
99865.3
99913.5
99879
99923.5
99863.3
99914.5
99877.7
99924.7
99861.3
99915.5
99876.5
99925.9
99859.3
99916.5
99875.2
99927.1
99857.3
99917.5
99873.9
99928.3
99855.3
99918.4
99872.6
99929.4
99853.3
99919.4
99871.3
99930.5
99851.3
99920.3
99870
99931.7
99849.4
99921.2
99868.8
99932.7
99847.5
99922.1
99867.5
99933.8
99845.7
99922.9
99866.3
99934.8
99843.8
99923.8
99865
99935.8
99842.1
99924.6
99863.8
99936.8
99840.3
99925.4
99862.7
99937.8
99838.6
99926.3
99861.5
99938.7
99837
99927.1
99860.4
99939.5
99835.4
99927.9
99859.3
99940.1
99833.9
99928.5
99858.3
99940.5
99832.4
99928.9
99857.3
99940.9
99831.1
99929.3
99856.3
99941.5
99829.9
99929.7
99855.4
99942.1
99829
99930.4
99854.5
99942.8
99828.1
99931.1
99853.7
99943.5
99827.2
99931.9
99852.8
99944.2
99826.1
99932.6
99852
99944.8
99825.1
99933.3
99851.3
99945.3
99824.1
99933.9
99850.5
99945.9
99823.2
99934.6
99849.9
99946.4
99822.4
99935.2
99849.3
99946.8
99821.6
99935.8
99848.8
99947.3
99821
99936.3
99848.3
99947.7
99820.4
99936.8
99847.8
99948.1
99819.8
99937.3
99847.3
99948.4
99819.2
99937.7
99846.9
99948.7
99818.7
99938.1
99846.4
99949
99818.2
99938.4
99846
99949.3
99817.8
99938.8
99845.6
99949.5
99817.4
99939.1
99845.3
99949.7
99817
99939.4
99845
99950
99816.7
99939.7
99844.7
99950.1
99816.4
99939.9
99844.5
99950.3
99816.1
99940.1
99844.2
99950.5
99815.8
99940.3
99844
99950.6
99815.6
99940.5
99843.8
99950.8
99815.4
99940.7
99843.7
99950.9
99815.2
99940.8
99843.5
99951
99815.1
99941
99843.4
99951.1
99814.9
99941.1
99843.3
99951.2
99814.8
99941.2
99843.2
99951.3
99814.7
99941.3
99843.1
99951.4
99814.6
99941.4
99843
99951.5
99814.5
99941.4
99843
99951.5
99814.5
99941.5
99842.9
99951.6
99814.4
99941.5
99842.9
99951.6
99814.3
99941.6
99842.8
99951.7
99814.3
99941.6
99842.8
99951.7
99814.2
99941.6
99842.8
99951.8
99814.2
99941.7
99842.7
99951.8
99814.1
99941.7
99842.7
99951.8
99814.1
99941.7
99842.7
99951.9
99814.1
99941.7
99842.7
99951.9
99814.1
99941.7
99842.7
99951.9
99461
99462.1
99463.4
99461.2
99461
99462.1
99463.5
99461.2
99461
99462
99463.6
99461.2
99461.1
99462
99463.7
99461.2
99461.1
99462
99463.8
99461.2
99461.1
99462
99464
99461.2
99461.1
99462
99464.1
99461.2
99461.1
99462
99464.3
99461.1
99461.2
99462
99464.4
99461.1
99461.2
99462
99464.6
99461.1
99461.3
99461.9
99464.8
99461
99461.4
99461.9
99464.9
99461
99461.4
99461.8
99465
99460.9
99461.5
99461.8
99465.2
99460.8
99461.6
99461.7
99465.3
99460.8
99461.7
99461.6
99465.5
99460.7
99461.9
99461.6
99465.7
99460.6
99462
99461.5
99466
99460.5
99462.2
99461.4
99466.3
99460.4
99462.3
99461.3
99466.6
99460.3
99462.5
99461.2
99466.9
99460.2
99462.6
99461
99467.2
99460.1
99462.8
99460.9
99467.5
99459.9
99463
99460.8
99467.8
99459.8
99463.2
99460.7
99468.1
99459.7
99463.4
99460.6
99468.5
99459.5
99463.6
99460.5
99468.8
99459.4
99463.8
99460.4
99469.1
99459.3
99463.9
99460.3
99469.4
99459.1
99464.1
99460.1
99469.7
99459
99464.3
99460
99470
99458.8
99464.5
99459.8
99470.3
99458.7
99464.7
99459.7
99470.6
99458.5
99464.9
99459.5
99471
99458.4
99465.1
99459.4
99471.3
99458.3
99465.3
99459.2
99471.6
99458.1
99465.5
99459.1
99471.9
99458
99465.7
99458.9
99472.1
99457.8
99465.8
99458.8
99472.4
99457.7
99466
99458.6
99472.7
99457.6
99466.2
99458.5
99473
99457.5
99466.3
99458.3
99473.2
99457.3
99466.5
99458.2
99473.4
99457.2
99466.6
99458.1
99473.7
99457.1
99466.8
99458
99473.9
99457
99466.9
99457.8
99474.1
99456.9
99467
99457.7
99474.3
99456.8
99467.2
99457.6
99474.5
99456.7
99467.3
99457.5
99474.7
99456.6
99467.4
99457.4
99474.8
99456.6
99467.5
99457.3
99475
99456.5
99467.6
99457.2
99475.1
99456.4
99467.7
99457.2
99475.3
99456.4
99467.8
99457.1
99475.4
99456.3
99467.9
99457
99475.5
99456.3
99467.9
99457
99475.6
99456.2
99468
99456.9
99475.7
99456.2
99468
99456.9
99475.7
99456.1
99468.1
99456.8
99475.8
99456.1
99468.1
99456.8
99475.9
99456.1
99468.2
99456.7
99475.9
99456
99468.2
99456.7
99476
99456
99468.3
99456.7
99476
99456
99468.3
99456.7
99476.1
99456
99468.3
99456.6
99476.1
99455.9
99468.4
99456.6
99476.1
99455.9
99468.4
99456.6
99476.2
99455.9
99468.4
99456.6
99476.2
99455.9
99468.4
99456.6
99476.2
99455.9
99468.4
99456.6
99476.2
99455.9
99468.4
99456.6
99476.2
99455.9
99468.5
99456.6
99476.2
99455.9
99468.5
99456.6
99476.3
99455.9
99468.5
99456.5
99476.3
99455.8
99468.5
99456.5
99476.3
99455.8
99468.5
99456.5
99476.3
99455.8
99468.5
99456.5
99476.3
99455.8
99468.5
99456.5
99476.3
99455.8
99468.5
99456.5
99476.3
99455.8
)
;

boundaryField
{
    leftWall
    {
        type            calculated;
        value           nonuniform 0();
    }
    rightWall
    {
        type            calculated;
        value           nonuniform List<scalar> 8(99814.1 99468.5 99941.7 99456.5 99842.7 99476.3 99951.9 99455.8);
    }
    leftSides_periodic0
    {
        type            cyclic;
    }
    leftSides_periodic1
    {
        type            cyclic;
    }
    rightSides_periodic0
    {
        type            cyclic;
    }
    rightSides_periodic1
    {
        type            cyclic;
    }
    leftInOut_periodic0
    {
        type            cyclic;
    }
    leftInOut_periodic1
    {
        type            cyclic;
    }
    rightInOut_periodic0
    {
        type            cyclic;
    }
    rightInOut_periodic1
    {
        type            cyclic;
    }
    procBoundary1to0
    {
        type            processor;
        value           nonuniform List<scalar> 
11
(
99896.8
99901.9
99893.5
99896.4
99896.4
99463.3
99461.2
99461
99462.1
99463.3
99461.2
)
;
    }
    procBoundary1to0throughleftInOut_periodic0
    {
        type            processorCyclic;
        value           uniform 99893.5;
    }
    procBoundary1to2throughleftSides_periodic0
    {
        type            processorCyclic;
        value           nonuniform List<scalar> 2(99044 99050.6);
    }
    procBoundary1to2throughrightSides_periodic0
    {
        type            processorCyclic;
        value           nonuniform List<scalar> 2(99049.6 99046.2);
    }
    procBoundary1to3
    {
        type            processor;
        value           nonuniform List<scalar> 
316
(
99221.4
99211.9
99213.4
99213.5
99220.9
99212.2
99213.4
99213.7
99220.3
99212.5
99213.3
99213.9
99219.7
99212.8
99213.3
99214.3
99219.1
99213.2
99213.2
99214.8
99218.5
99213.6
99213.1
99215.3
99217.9
99214
99213
99215.8
99217.2
99214.4
99212.9
99216.3
99216.5
99214.8
99212.7
99216.9
99215.8
99215.3
99212.6
99217.4
99215
99215.7
99212.5
99218
99214.3
99216.2
99212.3
99218.6
99213.5
99216.7
99212.2
99219.1
99212.7
99217.2
99212.1
99219.7
99211.9
99217.7
99212
99220.3
99211.3
99218.2
99211.9
99221
99210.9
99218.7
99211.6
99221.6
99210.6
99219.2
99211.3
99222
99210.2
99219.7
99211
99222.4
99209.5
99220.2
99210.7
99222.6
99208.5
99220.8
99210.4
99222.9
99207.5
99221.3
99210
99223.4
99206.4
99221.8
99209.6
99224.1
99205.4
99222.3
99209.3
99224.8
99204.4
99222.8
99208.9
99225.5
99203.3
99223.3
99208.5
99226.2
99202.3
99223.9
99208.1
99226.9
99201.2
99224.4
99207.6
99227.6
99200.2
99224.8
99207.2
99228.3
99199.2
99225.1
99206.8
99229
99198.2
99225.3
99206.3
99229.7
99197.2
99225.7
99205.9
99230.4
99196.2
99226.1
99205.4
99231.1
99195.3
99226.7
99204.9
99231.8
99194.3
99227.3
99204.5
99232.4
99193.4
99227.8
99204
99233.1
99192.5
99228.4
99203.6
99233.7
99191.7
99228.9
99203.1
99234.4
99191.1
99229.4
99202.7
99234.9
99190.6
99229.8
99202.2
99235.4
99190.1
99230.1
99201.8
99235.8
99189.5
99230.6
99201.4
99236.1
99188.9
99231
99201
99236.5
99188.2
99231.5
99200.6
99237
99187.6
99231.9
99200.2
99237.5
99187
99232.4
99199.8
99237.9
99186.4
99232.8
99199.4
99238.3
99185.8
99233.2
99199.1
99238.7
99185.3
99233.6
99198.8
99239.1
99184.8
99234
99198.5
99239.5
99184.4
99234.3
99198.2
99239.8
99184
99234.6
99197.9
99240.1
99183.6
99234.9
99197.7
99240.4
99183.2
99235.2
99197.4
99240.7
99182.9
99235.5
99197.2
99240.9
99182.6
99235.7
99197
99241.2
99182.3
99235.9
99196.8
99241.4
99182.1
99236.1
99196.7
99241.5
99181.9
99236.3
99196.5
99241.7
99181.7
99236.4
99196.4
99241.8
99181.5
99236.6
99196.3
99242
99181.3
99236.7
99196.2
99242.1
99181.2
99236.8
99196.1
99242.2
99181.1
99236.9
99196
99242.3
99181
99237
99195.9
99242.3
99180.9
99237.1
99195.9
99242.4
99180.8
99237.1
99195.8
99242.5
99180.8
99237.2
99195.8
99242.5
99180.7
99237.2
99195.7
99242.6
99180.7
99237.3
99195.7
99242.6
99180.6
99237.3
99195.7
99242.6
99180.6
99237.3
99195.7
99242.7
99180.6
99237.3
99195.6
99242.7
99180.5
99237.4
99195.6
99242.7
99180.5
99237.4
99195.6
99242.8
99180.5
99237.4
99195.6
99242.8
99180.5
99237.4
99195.6
99242.8
99180.5
99237.4
99195.6
99242.8
99180.4
99237.4
99195.6
99242.8
)
;
    }
    procBoundary1to3throughrightSides_periodic0
    {
        type            processorCyclic;
        value           nonuniform List<scalar> 
314
(
99049.6
99049.6
99049.6
99049.6
99049.6
99049.6
99049.6
99049.5
99049.5
99049.5
99049.5
99049.5
99049.5
99049.5
99049.5
99049.6
99049.6
99049.6
99049.6
99049.6
99049.6
99049.6
99049.7
99049.7
99049.7
99049.7
99049.8
99049.8
99049.8
99049.8
99049.9
99049.9
99049.9
99050
99050
99050
99050
99050.1
99050.1
99050.1
99050.2
99050.2
99050.2
99050.2
99050.3
99050.3
99050.3
99050.3
99050.3
99050.4
99050.4
99050.4
99050.4
99050.4
99050.4
99050.4
99050.5
99050.5
99050.5
99050.5
99050.5
99050.5
99050.5
99050.5
99050.5
99050.5
99050.5
99050.5
99050.5
99050.5
99050.5
99050.5
99050.5
99050.5
99050.5
99050.5
99050.5
99050.5
99046.3
99046.3
99046.4
99046.4
99046.5
99046.5
99046.6
99046.6
99046.7
99046.7
99046.7
99046.8
99046.8
99046.9
99046.9
99047
99047
99047
99047.1
99047.1
99047.1
99047.2
99047.2
99047.2
99047.2
99047.3
99047.3
99047.3
99047.3
99047.3
99047.4
99047.4
99047.4
99047.4
99047.4
99047.4
99047.4
99047.5
99047.5
99047.5
99047.5
99047.5
99047.5
99047.5
99047.5
99047.5
99047.5
99047.5
99047.6
99047.6
99047.6
99047.6
99047.6
99047.6
99047.6
99047.6
99047.6
99047.6
99047.6
99047.6
99047.6
99047.6
99047.6
99047.6
99047.6
99047.6
99047.6
99047.6
99047.6
99047.6
99047.6
99047.6
99047.6
99047.6
99047.6
99047.6
99047.6
99047.6
99044
99043.9
99043.8
99043.8
99043.7
99043.6
99043.6
99043.5
99043.5
99043.4
99043.4
99043.3
99043.3
99043.2
99043.2
99043.1
99043.1
99043
99043
99043
99042.9
99042.9
99042.8
99042.8
99042.8
99042.7
99042.7
99042.7
99042.6
99042.6
99042.6
99042.6
99042.5
99042.5
99042.5
99042.5
99042.4
99042.4
99042.4
99042.4
99042.4
99042.4
99042.4
99042.3
99042.3
99042.3
99042.3
99042.3
99042.3
99042.3
99042.3
99042.3
99042.3
99042.3
99042.3
99042.3
99042.2
99042.2
99042.2
99042.2
99042.2
99042.2
99042.2
99042.2
99042.2
99042.2
99042.2
99042.2
99042.2
99042.2
99042.2
99042.2
99042.2
99042.2
99042.2
99042.2
99042.2
99042.2
99042.2
99050.6
99050.6
99050.6
99050.6
99050.6
99050.7
99050.7
99050.7
99050.7
99050.7
99050.7
99050.7
99050.7
99050.7
99050.7
99050.7
99050.7
99050.7
99050.7
99050.7
99050.7
99050.7
99050.7
99050.7
99050.7
99050.7
99050.7
99050.6
99050.6
99050.6
99050.6
99050.6
99050.6
99050.5
99050.5
99050.5
99050.5
99050.5
99050.5
99050.4
99050.4
99050.4
99050.4
99050.4
99050.3
99050.3
99050.3
99050.3
99050.3
99050.3
99050.3
99050.2
99050.2
99050.2
99050.2
99050.2
99050.2
99050.2
99050.2
99050.2
99050.2
99050.2
99050.2
99050.2
99050.2
99050.1
99050.1
99050.1
99050.1
99050.1
99050.1
99050.1
99050.1
99050.1
99050.1
99050.1
99050.1
99050.1
99050.1
)
;
    }
}


// ************************************************************************* //
