/*--------------------------------*- C++ -*----------------------------------*\
| =========                 |                                                 |
| \\      /  F ield         | OpenFOAM: The Open Source CFD Toolbox           |
|  \\    /   O peration     | Version:  v1906                                 |
|   \\  /    A nd           | Web:      www.OpenFOAM.com                      |
|    \\/     M anipulation  |                                                 |
\*---------------------------------------------------------------------------*/
FoamFile
{
    version     2.0;
    format      ascii;
    class       volSymmTensorField;
    location    "98.4";
    object      UPrime2Mean;
}
// * * * * * * * * * * * * * * * * * * * * * * * * * * * * * * * * * * * * * //

dimensions      [0 2 -2 0 0 0 0];


internalField   nonuniform List<symmTensor> 
634
(
(1.3866e-05 -2.72916e-07 2.70346e-06 4.20416e-05 -3.60361e-06 0.00025052)
(1.62994e-05 3.20322e-06 -9.33419e-06 4.42881e-05 -1.10337e-05 0.000284758)
(1.43738e-05 1.06184e-06 -5.12524e-06 4.40978e-05 -2.25625e-06 0.000272684)
(1.30371e-05 -1.30989e-06 1.36061e-05 4.25347e-05 -7.55151e-06 0.00030256)
(1.36405e-05 -3.77565e-07 2.52791e-06 4.20841e-05 -4.28514e-06 0.000250938)
(1.66148e-05 3.28627e-06 -1.04162e-05 4.41348e-05 -1.32125e-05 0.000294103)
(1.40781e-05 1.16073e-06 -5.52276e-06 4.52588e-05 -1.91137e-06 0.000272903)
(1.30013e-05 -1.50903e-06 1.31385e-05 4.32026e-05 -1.04294e-05 0.000303705)
(1.349e-05 -4.49727e-07 2.48861e-06 4.33067e-05 -4.07856e-06 0.000246061)
(1.71091e-05 3.61832e-06 -1.0986e-05 4.49623e-05 -1.62464e-05 0.000297467)
(1.38618e-05 1.29108e-06 -6.12563e-06 4.61138e-05 -1.0126e-06 0.00027167)
(1.31441e-05 -1.74501e-06 1.30519e-05 4.32864e-05 -1.32386e-05 0.000306157)
(1.34784e-05 -5.45912e-07 2.1523e-06 4.3699e-05 -3.09683e-06 0.00024236)
(1.7535e-05 4.03723e-06 -1.11969e-05 4.53964e-05 -1.93775e-05 0.000296491)
(1.37813e-05 1.47424e-06 -6.50759e-06 4.59812e-05 -3.96591e-07 0.000269959)
(1.34084e-05 -1.99119e-06 1.30132e-05 4.32023e-05 -1.55075e-05 0.000304747)
(1.35925e-05 -6.73755e-07 1.73597e-06 4.35938e-05 -1.95464e-06 0.000241657)
(1.77919e-05 4.28368e-06 -1.11277e-05 4.52508e-05 -2.19397e-05 0.000292812)
(1.38386e-05 1.67208e-06 -6.66045e-06 4.57802e-05 3.2419e-07 0.000269495)
(1.36109e-05 -2.15432e-06 1.25862e-05 4.30806e-05 -1.75109e-05 0.000301469)
(1.38062e-05 -7.68058e-07 1.56222e-06 4.32694e-05 -1.27213e-06 0.000242236)
(1.80359e-05 4.35976e-06 -1.10714e-05 4.47961e-05 -2.36734e-05 0.000288011)
(1.39716e-05 1.73563e-06 -7.03338e-06 4.55528e-05 1.1088e-06 0.000268806)
(1.38022e-05 -2.28599e-06 1.20628e-05 4.26885e-05 -1.9177e-05 0.000298947)
(1.41231e-05 -8.40323e-07 1.51199e-06 4.27383e-05 -9.74509e-07 0.000242769)
(1.83663e-05 4.39738e-06 -1.12483e-05 4.4099e-05 -2.4701e-05 0.000282574)
(1.42326e-05 1.83986e-06 -7.40266e-06 4.52767e-05 1.68952e-06 0.000266673)
(1.41314e-05 -2.38121e-06 1.18549e-05 4.20668e-05 -2.06431e-05 0.000297166)
(1.45541e-05 -9.54406e-07 1.35847e-06 4.24029e-05 -7.41533e-07 0.000243623)
(1.87416e-05 4.44745e-06 -1.15169e-05 4.34302e-05 -2.55164e-05 0.000275997)
(1.46389e-05 2.08177e-06 -7.70413e-06 4.50365e-05 1.99685e-06 0.000262228)
(1.43828e-05 -2.31414e-06 1.10433e-05 4.14585e-05 -2.17703e-05 0.000292616)
(1.50107e-05 -1.05326e-06 1.32256e-06 4.21651e-05 -2.63365e-07 0.000244506)
(1.91744e-05 4.53693e-06 -1.18619e-05 4.29201e-05 -2.658e-05 0.000271459)
(1.51144e-05 2.23501e-06 -8.05437e-06 4.45051e-05 2.35878e-06 0.000258345)
(1.45003e-05 -2.22713e-06 1.00776e-05 4.08738e-05 -2.26258e-05 0.000288634)
(1.55153e-05 -1.14035e-06 1.36673e-06 4.16362e-05 2.83031e-07 0.000243849)
(1.95715e-05 4.59454e-06 -1.19346e-05 4.24117e-05 -2.78155e-05 0.000268856)
(1.55931e-05 2.33384e-06 -8.68416e-06 4.38437e-05 2.69131e-06 0.000255419)
(1.46832e-05 -2.24754e-06 9.50239e-06 4.02512e-05 -2.39272e-05 0.000287945)
(1.61376e-05 -1.19994e-06 1.21889e-06 4.0994e-05 5.54736e-07 0.000242166)
(1.98735e-05 4.65004e-06 -1.17541e-05 4.16729e-05 -2.89332e-05 0.000266105)
(1.61414e-05 2.45681e-06 -9.42881e-06 4.32961e-05 3.14337e-06 0.000254377)
(1.4909e-05 -2.28607e-06 8.94769e-06 3.95395e-05 -2.53566e-05 0.000287786)
(1.68925e-05 -1.27241e-06 8.38975e-07 4.05345e-05 7.48009e-07 0.000241122)
(2.00702e-05 4.74129e-06 -1.16166e-05 4.09317e-05 -3.00758e-05 0.00026367)
(1.68249e-05 2.53241e-06 -9.93067e-06 4.28192e-05 4.07597e-06 0.000256976)
(1.51011e-05 -2.34604e-06 7.99614e-06 3.88561e-05 -2.63162e-05 0.000285612)
(1.7676e-05 -1.33801e-06 8.47245e-07 3.99856e-05 1.17655e-06 0.000243367)
(2.01817e-05 4.80431e-06 -1.16677e-05 4.02234e-05 -3.10874e-05 0.000263765)
(1.75767e-05 2.66546e-06 -1.02487e-05 4.22186e-05 4.79102e-06 0.000260154)
(1.53114e-05 -2.46727e-06 7.02072e-06 3.80944e-05 -2.72671e-05 0.000284918)
(1.84609e-05 -1.40528e-06 1.18512e-06 3.92018e-05 1.5015e-06 0.000245508)
(2.03353e-05 4.86378e-06 -1.17596e-05 3.93897e-05 -3.21451e-05 0.000265262)
(1.83445e-05 2.81318e-06 -1.06851e-05 4.13859e-05 5.22755e-06 0.000261293)
(1.55761e-05 -2.5955e-06 6.43873e-06 3.72893e-05 -2.83947e-05 0.000286559)
(1.92555e-05 -1.48985e-06 1.57683e-06 3.83655e-05 1.63724e-06 0.000247411)
(2.05261e-05 4.90095e-06 -1.18025e-05 3.85234e-05 -3.31534e-05 0.000266282)
(1.91652e-05 2.89828e-06 -1.11495e-05 4.05668e-05 5.67945e-06 0.000261797)
(1.59401e-05 -2.63092e-06 6.00808e-06 3.65762e-05 -2.93427e-05 0.000288984)
(2.00983e-05 -1.54563e-06 1.96349e-06 3.7689e-05 1.89083e-06 0.000250945)
(2.08183e-05 4.94014e-06 -1.21965e-05 3.78187e-05 -3.40396e-05 0.000266625)
(2.0042e-05 2.96023e-06 -1.16005e-05 3.97919e-05 6.15458e-06 0.000263097)
(1.63576e-05 -2.61554e-06 5.32991e-06 3.58203e-05 -2.99826e-05 0.000289654)
(2.10139e-05 -1.52956e-06 2.25978e-06 3.70414e-05 2.35478e-06 0.000257146)
(2.10822e-05 4.90802e-06 -1.24458e-05 3.7064e-05 -3.46072e-05 0.000265723)
(2.09285e-05 3.02562e-06 -1.20541e-05 3.89197e-05 6.41015e-06 0.000265527)
(1.68194e-05 -2.5872e-06 4.58361e-06 3.48458e-05 -3.04328e-05 0.000291818)
(2.19508e-05 -1.5487e-06 2.46591e-06 3.61896e-05 2.57109e-06 0.000262652)
(2.12573e-05 4.82731e-06 -1.25385e-05 3.60646e-05 -3.50425e-05 0.00026716)
(2.17686e-05 3.0672e-06 -1.27226e-05 3.79217e-05 6.38804e-06 0.000267018)
(1.74072e-05 -2.59192e-06 4.02126e-06 3.38083e-05 -3.0823e-05 0.000295775)
(2.28728e-05 -1.62361e-06 2.71839e-06 3.52461e-05 2.53737e-06 0.000266878)
(2.14034e-05 4.78786e-06 -1.27272e-05 3.50347e-05 -3.53347e-05 0.000270971)
(2.25871e-05 3.04548e-06 -1.35825e-05 3.68887e-05 6.2708e-06 0.000269342)
(1.81191e-05 -2.66576e-06 3.77024e-06 3.28828e-05 -3.14103e-05 0.00030089)
(2.37654e-05 -1.68981e-06 3.14889e-06 3.43431e-05 2.58045e-06 0.000272551)
(2.16119e-05 4.83296e-06 -1.31725e-05 3.41187e-05 -3.57297e-05 0.00027596)
(2.34655e-05 3.04761e-06 -1.42377e-05 3.58872e-05 6.09646e-06 0.000274181)
(1.88386e-05 -2.76512e-06 3.71923e-06 3.2017e-05 -3.21195e-05 0.00030712)
(2.46291e-05 -1.70441e-06 3.80231e-06 3.34513e-05 2.79136e-06 0.000280204)
(2.18838e-05 4.86409e-06 -1.36936e-05 3.32441e-05 -3.62481e-05 0.000281435)
(2.4384e-05 3.0755e-06 -1.48704e-05 3.48525e-05 5.97678e-06 0.000279363)
(1.9543e-05 -2.83717e-06 3.44894e-06 3.11533e-05 -3.24697e-05 0.000312234)
(2.55013e-05 -1.76295e-06 4.37524e-06 3.25716e-05 2.91768e-06 0.000286251)
(2.21884e-05 4.82184e-06 -1.39881e-05 3.22967e-05 -3.64928e-05 0.000286907)
(2.53595e-05 3.09178e-06 -1.56584e-05 3.37581e-05 6.07851e-06 0.000284616)
(2.02801e-05 -2.85576e-06 2.97341e-06 3.02486e-05 -3.25725e-05 0.000317726)
(2.63825e-05 -1.82767e-06 4.96591e-06 3.16586e-05 2.89175e-06 0.00029114)
(2.24798e-05 4.74057e-06 -1.39677e-05 3.12761e-05 -3.63886e-05 0.000293232)
(2.6422e-05 3.10588e-06 -1.62086e-05 3.27665e-05 6.45608e-06 0.000290643)
(2.1111e-05 -2.83537e-06 2.4978e-06 2.92523e-05 -3.25104e-05 0.000323993)
(2.72459e-05 -1.84266e-06 5.63942e-06 3.07167e-05 2.91231e-06 0.000296109)
(2.26836e-05 4.67151e-06 -1.40138e-05 3.02793e-05 -3.62181e-05 0.000298217)
(2.74858e-05 3.11751e-06 -1.65647e-05 3.18315e-05 6.88025e-06 0.000297587)
(2.20484e-05 -2.81564e-06 2.22767e-06 2.82634e-05 -3.24606e-05 0.000330727)
(2.80743e-05 -1.87064e-06 6.57417e-06 2.97797e-05 2.96503e-06 0.000300437)
(2.28817e-05 4.59393e-06 -1.42992e-05 2.93158e-05 -3.61332e-05 0.000302836)
(2.85207e-05 3.14235e-06 -1.68946e-05 3.08623e-05 7.09898e-06 0.000303716)
(2.30512e-05 -2.79298e-06 2.10302e-06 2.73212e-05 -3.24245e-05 0.000338491)
(2.88943e-05 -1.9024e-06 7.44149e-06 2.88504e-05 3.04849e-06 0.000305748)
(2.31067e-05 4.49714e-06 -1.4622e-05 2.83415e-05 -3.59634e-05 0.000307903)
(2.95309e-05 3.15872e-06 -1.72799e-05 2.98001e-05 7.05412e-06 0.000308886)
(2.40686e-05 -2.77095e-06 1.87588e-06 2.63714e-05 -3.22818e-05 0.000346408)
(2.9717e-05 -1.94637e-06 8.1646e-06 2.7924e-05 3.095e-06 0.000312105)
(2.33745e-05 4.40351e-06 -1.48177e-05 2.73529e-05 -3.55491e-05 0.000313346)
(3.0528e-05 3.15812e-06 -1.77142e-05 2.8634e-05 6.7594e-06 0.000313935)
(2.50901e-05 -2.74979e-06 1.55754e-06 2.54109e-05 -3.20007e-05 0.000354577)
(3.0595e-05 -2.00125e-06 8.76988e-06 2.70147e-05 3.02634e-06 0.000320584)
(2.36918e-05 4.28831e-06 -1.49228e-05 2.63935e-05 -3.52119e-05 0.000318537)
(3.1507e-05 3.12507e-06 -1.82384e-05 2.74985e-05 6.44828e-06 0.000320003)
(2.61517e-05 -2.68296e-06 1.0791e-06 2.44881e-05 -3.18078e-05 0.000363564)
(3.14974e-05 -2.04186e-06 9.41604e-06 2.6124e-05 2.85881e-06 0.000327888)
(2.40246e-05 4.15902e-06 -1.49963e-05 2.54016e-05 -3.48492e-05 0.000322745)
(3.24622e-05 3.07027e-06 -1.88422e-05 2.64632e-05 6.34936e-06 0.00032775)
(2.73964e-05 -2.57858e-06 6.02002e-07 2.35836e-05 -3.15091e-05 0.000370461)
(3.23531e-05 -2.06493e-06 1.01156e-05 2.51566e-05 2.61624e-06 0.000334302)
(2.4394e-05 4.0565e-06 -1.51363e-05 2.44254e-05 -3.44558e-05 0.000326969)
(3.34036e-05 3.06413e-06 -1.93433e-05 2.54778e-05 6.10681e-06 0.000335053)
(2.90409e-05 -2.48407e-06 2.47032e-07 2.26626e-05 -3.10815e-05 0.000374758)
(3.30769e-05 -2.06728e-06 1.08081e-05 2.41293e-05 2.39743e-06 0.000341856)
(2.47809e-05 4.01543e-06 -1.54526e-05 2.35428e-05 -3.40428e-05 0.000332353)
(3.4318e-05 3.04555e-06 -1.98345e-05 2.44563e-05 5.7678e-06 0.000342239)
(3.10653e-05 -2.4553e-06 7.92944e-08 2.17261e-05 -3.05034e-05 0.000377407)
(3.35609e-05 -2.11906e-06 1.15771e-05 2.31027e-05 2.32488e-06 0.000351247)
(2.50958e-05 3.94238e-06 -1.56498e-05 2.26644e-05 -3.35746e-05 0.000338342)
(3.51947e-05 2.97488e-06 -2.03747e-05 2.33797e-05 5.47541e-06 0.000350344)
(3.2868e-05 -2.41426e-06 -9.86969e-08 2.08258e-05 -3.00294e-05 0.000381481)
(3.39522e-05 -2.20906e-06 1.23802e-05 2.22279e-05 2.13391e-06 0.000359676)
(2.53101e-05 3.81388e-06 -1.57611e-05 2.16666e-05 -3.29922e-05 0.000344863)
(3.60594e-05 2.88934e-06 -2.08156e-05 2.23492e-05 5.30365e-06 0.000358729)
(3.43911e-05 -2.32577e-06 -3.45683e-07 1.99783e-05 -2.95942e-05 0.000387211)
(3.45153e-05 -2.20916e-06 1.31561e-05 2.13938e-05 1.86614e-06 0.000367559)
(2.55459e-05 3.64525e-06 -1.61387e-05 2.06318e-05 -3.22408e-05 0.000352218)
(3.68807e-05 2.86333e-06 -2.08533e-05 2.14252e-05 5.06855e-06 0.000364836)
(3.59055e-05 -2.23358e-06 -5.69885e-07 1.91272e-05 -2.89801e-05 0.000393002)
(3.51995e-05 -2.11786e-06 1.4134e-05 2.04822e-05 1.45944e-06 0.000374504)
(2.60136e-05 3.55369e-06 -1.66482e-05 1.97436e-05 -3.14952e-05 0.000359967)
(3.76515e-05 2.82285e-06 -2.06207e-05 2.04974e-05 4.71726e-06 0.000368024)
(3.77142e-05 -2.20935e-06 -6.57321e-07 1.82442e-05 -2.82006e-05 0.00039831)
(3.59451e-05 -2.00757e-06 1.51404e-05 1.94801e-05 1.21282e-06 0.000381267)
(2.67111e-05 3.54911e-06 -1.7147e-05 1.89562e-05 -3.08054e-05 0.000367849)
(3.83997e-05 2.72465e-06 -2.03959e-05 1.94774e-05 4.43943e-06 0.000370307)
(4.0013e-05 -2.24296e-06 -6.0493e-07 1.73761e-05 -2.73969e-05 0.00040361)
(3.66856e-05 -1.94888e-06 1.61742e-05 1.85193e-05 1.04537e-06 0.000387653)
(2.72563e-05 3.48814e-06 -1.70244e-05 1.80962e-05 -3.00057e-05 0.000374294)
(3.91359e-05 2.59562e-06 -2.02099e-05 1.84079e-05 4.22586e-06 0.00037255)
(4.23769e-05 -2.21361e-06 -7.29827e-07 1.65345e-05 -2.6613e-05 0.000408585)
(3.74099e-05 -1.93698e-06 1.72298e-05 1.76938e-05 9.39787e-07 0.000393727)
(2.73859e-05 3.38044e-06 -1.58555e-05 1.71423e-05 -2.89815e-05 0.000377764)
(3.98853e-05 2.49234e-06 -2.00701e-05 1.7416e-05 4.04598e-06 0.00037475)
(4.44011e-05 -2.16884e-06 -8.09464e-07 1.56974e-05 -2.55908e-05 0.000411982)
(3.81028e-05 -1.91276e-06 1.82043e-05 1.688e-05 8.70726e-07 0.000400173)
(2.73537e-05 3.23454e-06 -1.39942e-05 1.62285e-05 -2.79395e-05 0.00038195)
(4.06367e-05 2.41453e-06 -1.98171e-05 1.65585e-05 3.94332e-06 0.000377454)
(4.59751e-05 -2.10625e-06 -6.22366e-07 1.48748e-05 -2.44328e-05 0.000413612)
(3.87454e-05 -1.83824e-06 1.91322e-05 1.59928e-05 7.738e-07 0.000405261)
(2.76714e-05 3.13941e-06 -1.24283e-05 1.53942e-05 -2.7171e-05 0.00038871)
(4.13808e-05 2.30332e-06 -1.95322e-05 1.57443e-05 3.82658e-06 0.000379032)
(4.74435e-05 -1.99091e-06 -3.89103e-07 1.4072e-05 -2.35483e-05 0.000415244)
(3.93018e-05 -1.76573e-06 2.01698e-05 1.51227e-05 6.34071e-07 0.000408926)
(2.80986e-05 2.98546e-06 -1.1104e-05 1.45964e-05 -2.65398e-05 0.000396866)
(4.2054e-05 2.19994e-06 -1.93626e-05 1.48699e-05 3.5318e-06 0.000377917)
(4.90026e-05 -1.76749e-06 -5.02617e-07 1.32411e-05 -2.26709e-05 0.000415912)
(3.97154e-05 -1.71989e-06 2.13249e-05 1.4337e-05 5.07731e-07 0.000412441)
(2.83933e-05 2.70143e-06 -9.87657e-06 1.38116e-05 -2.58929e-05 0.000405457)
(4.26883e-05 2.12581e-06 -1.923e-05 1.39496e-05 3.20572e-06 0.00037804)
(5.03424e-05 -1.5166e-06 -8.88262e-07 1.24743e-05 -2.19084e-05 0.000416781)
(4.00714e-05 -1.7489e-06 2.22282e-05 1.35636e-05 5.47835e-07 0.00041623)
(2.85562e-05 2.39685e-06 -9.10861e-06 1.29843e-05 -2.49977e-05 0.000412173)
(4.32204e-05 2.03993e-06 -1.91314e-05 1.3045e-05 2.95171e-06 0.000382787)
(5.16723e-05 -1.38796e-06 -1.10767e-06 1.17852e-05 -2.11095e-05 0.000418905)
(4.04463e-05 -1.78242e-06 2.28643e-05 1.27297e-05 6.25395e-07 0.000419421)
(2.88838e-05 2.19118e-06 -9.07139e-06 1.21446e-05 -2.39834e-05 0.00041587)
(4.36075e-05 1.92282e-06 -1.90277e-05 1.21795e-05 2.79704e-06 0.000390264)
(5.30252e-05 -1.3581e-06 -9.2794e-07 1.11259e-05 -2.04917e-05 0.000422785)
(4.08647e-05 -1.77456e-06 2.33186e-05 1.18823e-05 6.49371e-07 0.000421842)
(2.94773e-05 2.15126e-06 -9.76113e-06 1.13724e-05 -2.30407e-05 0.000417733)
(4.38883e-05 1.77994e-06 -1.89837e-05 1.13877e-05 2.75967e-06 0.00039712)
(5.44113e-05 -1.4024e-06 -3.10029e-07 1.04634e-05 -1.9876e-05 0.000424749)
(4.13095e-05 -1.71668e-06 2.39226e-05 1.11075e-05 5.35175e-07 0.000422412)
(2.99659e-05 2.19065e-06 -1.08558e-05 1.07239e-05 -2.23312e-05 0.000419219)
(4.41039e-05 1.6603e-06 -1.89023e-05 1.0689e-05 2.86287e-06 0.000401139)
(5.55805e-05 -1.42116e-06 3.07745e-07 9.7659e-06 -1.90899e-05 0.000424813)
(4.16848e-05 -1.59522e-06 2.44424e-05 1.04125e-05 4.88144e-07 0.000421748)
(3.00906e-05 2.20875e-06 -1.17309e-05 1.01007e-05 -2.1593e-05 0.000419552)
(4.43277e-05 1.58732e-06 -1.85363e-05 1.00266e-05 2.94691e-06 0.00040135)
(5.64017e-05 -1.39404e-06 4.62739e-07 9.11616e-06 -1.83689e-05 0.000425272)
(4.19611e-05 -1.51433e-06 2.42999e-05 9.767e-06 5.94916e-07 0.000421149)
(3.0037e-05 2.17579e-06 -1.22033e-05 9.42505e-06 -2.07144e-05 0.000420494)
(4.45493e-05 1.51478e-06 -1.7839e-05 9.34085e-06 2.90221e-06 0.000398434)
(5.69837e-05 -1.33548e-06 2.4135e-07 8.51431e-06 -1.75775e-05 0.00042564)
(4.21293e-05 -1.46981e-06 2.36467e-05 9.14483e-06 8.45706e-07 0.000421419)
(3.00131e-05 2.12499e-06 -1.24125e-05 8.76394e-06 -1.98166e-05 0.000422884)
(4.47176e-05 1.42352e-06 -1.69429e-05 8.63965e-06 2.73644e-06 0.000394309)
(5.74769e-05 -1.25082e-06 -1.26843e-07 7.91462e-06 -1.67141e-05 0.000424945)
(4.21536e-05 -1.41554e-06 2.3163e-05 8.52776e-06 1.0565e-06 0.000422221)
(3.00288e-05 2.06528e-06 -1.245e-05 8.14712e-06 -1.88698e-05 0.000424866)
(4.47913e-05 1.31394e-06 -1.60791e-05 7.9764e-06 2.57975e-06 0.000390983)
(5.79277e-05 -1.18632e-06 -4.59387e-07 7.33852e-06 -1.58189e-05 0.000423299)
(4.20439e-05 -1.33105e-06 2.3036e-05 7.89707e-06 1.07851e-06 0.000422555)
(3.00153e-05 1.97107e-06 -1.23665e-05 7.54669e-06 -1.78551e-05 0.000425582)
(4.47461e-05 1.20912e-06 -1.53094e-05 7.35629e-06 2.47719e-06 0.000389187)
(5.82911e-05 -1.1176e-06 -6.87748e-07 6.78798e-06 -1.48959e-05 0.000421877)
(4.1849e-05 -1.24086e-06 2.29592e-05 7.27697e-06 9.98745e-07 0.000422013)
(2.99351e-05 1.84524e-06 -1.22736e-05 6.95416e-06 -1.6768e-05 0.000426712)
(4.45778e-05 1.11958e-06 -1.46309e-05 6.75884e-06 2.36747e-06 0.000388443)
(5.85078e-05 -1.04204e-06 -7.53998e-07 6.25506e-06 -1.39832e-05 0.000420777)
(4.16075e-05 -1.16729e-06 2.27125e-05 6.69484e-06 9.0966e-07 0.000420494)
(2.98031e-05 1.70961e-06 -1.21674e-05 6.38084e-06 -1.56751e-05 0.000428806)
(4.4282e-05 1.03687e-06 -1.40303e-05 6.18088e-06 2.22818e-06 0.000387774)
(5.86238e-05 -9.71893e-07 -6.3817e-07 5.74025e-06 -1.30642e-05 0.00041959)
(4.13147e-05 -1.09339e-06 2.23156e-05 6.14107e-06 8.55421e-07 0.000418093)
(2.96301e-05 1.57113e-06 -1.19109e-05 5.83551e-06 -1.46323e-05 0.000431089)
(4.3852e-05 9.5558e-07 -1.34869e-05 5.6271e-06 2.06833e-06 0.000386369)
(5.87002e-05 -9.0571e-07 -4.73502e-07 5.24786e-06 -1.21754e-05 0.000417743)
(4.09406e-05 -1.01223e-06 2.18469e-05 5.60922e-06 8.17879e-07 0.000414976)
(2.93956e-05 1.44007e-06 -1.148e-05 5.3169e-06 -1.3626e-05 0.000432266)
(4.32885e-05 8.75492e-07 -1.29512e-05 5.10166e-06 1.938e-06 0.000383727)
(5.87252e-05 -8.4329e-07 -3.97491e-07 4.77516e-06 -1.13063e-05 0.000414663)
(4.04586e-05 -9.26806e-07 2.13117e-05 5.09763e-06 7.84349e-07 0.000411105)
(2.90925e-05 1.32504e-06 -1.09585e-05 4.82265e-06 -1.26392e-05 0.000431442)
(4.25873e-05 7.97603e-07 -1.23665e-05 4.6048e-06 1.84169e-06 0.000379465)
(5.86303e-05 -7.82031e-07 -4.17778e-07 4.31853e-06 -1.04328e-05 0.000410138)
(3.98534e-05 -8.44609e-07 2.06795e-05 4.60718e-06 7.60742e-07 0.000406249)
(2.8725e-05 1.22325e-06 -1.04148e-05 4.35303e-06 -1.16676e-05 0.000428377)
(4.17401e-05 7.23704e-07 -1.17008e-05 4.13355e-06 1.75838e-06 0.000373425)
(5.83314e-05 -7.25022e-07 -4.36948e-07 3.88413e-06 -9.56499e-06 0.000404094)
(3.91173e-05 -7.67415e-07 1.99313e-05 4.14039e-06 7.55154e-07 0.000400054)
(2.82871e-05 1.1276e-06 -9.85054e-06 3.90764e-06 -1.07285e-05 0.000423089)
(4.07347e-05 6.54224e-07 -1.09607e-05 3.68616e-06 1.68705e-06 0.000365638)
(5.77796e-05 -6.75108e-07 -3.88351e-07 3.47504e-06 -8.72448e-06 0.000396387)
(3.82406e-05 -6.93261e-07 1.90674e-05 3.69818e-06 7.67947e-07 0.000392166)
(2.77647e-05 1.03318e-06 -9.24652e-06 3.48507e-06 -9.82452e-06 0.000415553)
(3.95599e-05 5.88169e-07 -1.01723e-05 3.26434e-06 1.63389e-06 0.000356148)
(5.69489e-05 -6.30116e-07 -2.57713e-07 3.08929e-06 -7.92356e-06 0.000386773)
(3.721e-05 -6.22603e-07 1.80938e-05 3.28122e-06 8.06562e-07 0.000382287)
(2.71445e-05 9.41028e-07 -8.60817e-06 3.08453e-06 -8.94378e-06 0.000405602)
(3.82079e-05 5.26983e-07 -9.36039e-06 2.86983e-06 1.60362e-06 0.000344871)
(5.58105e-05 -5.87268e-07 -6.04285e-08 2.7252e-06 -7.1578e-06 0.000374965)
(3.60167e-05 -5.55897e-07 1.70245e-05 2.88933e-06 8.63175e-07 0.000370172)
(2.64179e-05 8.52915e-07 -7.95336e-06 2.7076e-06 -8.0883e-06 0.000393013)
(3.66706e-05 4.70544e-07 -8.53788e-06 2.50305e-06 1.58905e-06 0.000331606)
(5.43301e-05 -5.45154e-07 1.76816e-07 2.38272e-06 -6.42303e-06 0.000360739)
(3.4657e-05 -4.93814e-07 1.58734e-05 2.52208e-06 9.23185e-07 0.000355663)
(2.55816e-05 7.69183e-07 -7.296e-06 2.35639e-06 -7.26251e-06 0.000377622)
(3.49414e-05 4.18783e-07 -7.70618e-06 2.16308e-06 1.57843e-06 0.000316167)
(5.24742e-05 -5.03278e-07 4.34674e-07 2.063e-06 -5.71876e-06 0.000344031)
(3.3127e-05 -4.36411e-07 1.46467e-05 2.18017e-06 9.80705e-07 0.000338777)
(2.46335e-05 6.89175e-07 -6.64187e-06 2.03106e-06 -6.47e-06 0.000359412)
(3.30171e-05 3.71039e-07 -6.86819e-06 1.84829e-06 1.56256e-06 0.000298495)
(5.02194e-05 -4.61272e-07 7.06815e-07 1.76716e-06 -5.0502e-06 0.000324895)
(3.14208e-05 -3.83422e-07 1.33563e-05 1.86367e-06 1.03255e-06 0.00031961)
(2.35643e-05 6.12128e-07 -5.99181e-06 1.72969e-06 -5.71093e-06 0.000338471)
(3.08949e-05 3.26775e-07 -6.03253e-06 1.55739e-06 1.5368e-06 0.000278672)
(4.75446e-05 -4.19606e-07 9.91417e-07 1.49414e-06 -4.41697e-06 0.000303401)
(2.953e-05 -3.34876e-07 1.20249e-05 1.57095e-06 1.07357e-06 0.00029822)
(2.23533e-05 5.37898e-07 -5.35407e-06 1.45098e-06 -4.98386e-06 0.000314865)
(2.85655e-05 2.86636e-07 -5.20799e-06 1.29068e-06 1.50449e-06 0.000256757)
(4.44174e-05 -3.79499e-07 1.28024e-06 1.24207e-06 -3.81434e-06 0.000279574)
(2.74422e-05 -2.91209e-07 1.06721e-05 1.30138e-06 1.10078e-06 0.000274593)
(2.09717e-05 4.68222e-07 -4.76553e-06 1.19618e-06 -4.29862e-06 0.000288586)
(2.60203e-05 2.51883e-07 -4.38683e-06 1.05034e-06 1.47571e-06 0.000232713)
(4.08039e-05 -3.427e-07 1.57673e-06 1.01146e-06 -3.24894e-06 0.000253301)
(2.51397e-05 -2.53903e-07 9.29226e-06 1.05697e-06 1.11939e-06 0.000248659)
(1.93952e-05 4.06434e-07 -4.28188e-06 9.67862e-07 -3.67541e-06 0.000259764)
(2.32613e-05 2.23263e-07 -3.54047e-06 8.3837e-07 1.46002e-06 0.000206681)
(3.67041e-05 -3.11428e-07 1.92247e-06 8.05538e-07 -2.74252e-06 0.000224665)
(2.26115e-05 -2.2359e-07 7.86e-06 8.40945e-07 1.14233e-06 0.000220599)
(1.76193e-05 3.55425e-07 -3.95513e-06 7.67812e-07 -3.13019e-06 0.000228968)
(2.0319e-05 2.00163e-07 -2.64402e-06 6.55474e-07 1.45968e-06 0.000179367)
(3.21941e-05 -2.8735e-07 2.36556e-06 6.27332e-07 -2.31643e-06 0.000194461)
(1.98734e-05 -1.99446e-07 6.36302e-06 6.54913e-07 1.17565e-06 0.000191227)
(1.56708e-05 3.16036e-07 -3.825e-06 5.96391e-07 -2.66705e-06 0.000197401)
(1.72705e-05 1.81384e-07 -1.69094e-06 5.01162e-07 1.46479e-06 0.000152185)
(2.74427e-05 -2.70112e-07 2.92281e-06 4.77338e-07 -1.97239e-06 0.000164226)
(1.69869e-05 -1.79757e-07 4.81418e-06 4.98408e-07 1.21163e-06 0.000162063)
(1.36163e-05 2.86753e-07 -3.9088e-06 4.52898e-07 -2.2783e-06 0.000166829)
(1.42401e-05 1.65354e-07 -6.9573e-07 3.73824e-07 1.45743e-06 0.000126982)
(2.26948e-05 -2.56646e-07 3.58106e-06 3.54218e-07 -1.69793e-06 0.000135991)
(1.40691e-05 -1.62826e-07 3.24733e-06 3.69966e-07 1.23446e-06 0.000135036)
(1.15592e-05 2.6421e-07 -4.19956e-06 3.35679e-07 -1.9518e-06 0.000139175)
(1.13797e-05 1.50166e-07 3.02805e-07 2.71022e-07 1.41794e-06 0.000105431)
(1.82265e-05 -2.4265e-07 4.29961e-06 2.55686e-07 -1.47413e-06 0.000111718)
(1.12757e-05 -1.46924e-07 1.71712e-06 2.6717e-07 1.2264e-06 0.000111892)
(9.61975e-06 2.44042e-07 -4.65758e-06 2.42182e-07 -1.67186e-06 0.000115909)
(8.82852e-06 1.34071e-07 1.24025e-06 1.89923e-07 1.33017e-06 8.83523e-05)
(1.42704e-05 -2.24378e-07 5.00501e-06 1.78803e-07 -1.27724e-06 9.24908e-05)
(8.75808e-06 -1.30389e-07 2.9879e-07 1.86891e-07 1.17251e-06 9.34919e-05)
(7.89909e-06 2.2224e-07 -5.19722e-06 1.694e-07 -1.4209e-06 9.75008e-05)
(6.67132e-06 1.15794e-07 2.02765e-06 1.27591e-07 1.186e-06 7.52943e-05)
(1.09436e-05 -1.99351e-07 5.58243e-06 1.20321e-07 -1.08513e-06 7.79467e-05)
(6.6162e-06 -1.12203e-07 -9.11565e-07 1.25788e-07 1.06475e-06 7.93635e-05)
(6.43573e-06 1.96022e-07 -5.68008e-06 1.14202e-07 -1.18417e-06 8.31926e-05)
(4.91692e-06 9.41566e-08 2.54761e-06 8.02965e-08 9.80709e-07 6.454e-05)
(8.21281e-06 -1.65776e-07 5.8613e-06 7.62648e-08 -8.78133e-07 6.62838e-05)
(4.87167e-06 -9.13558e-08 -1.79081e-06 7.97438e-08 8.97841e-07 6.77245e-05)
(5.17618e-06 1.63087e-07 -5.90931e-06 7.27342e-08 -9.45649e-07 7.11243e-05)
(3.51311e-06 7.05763e-08 2.64571e-06 4.71675e-08 7.37217e-07 5.3408e-05)
(5.91673e-06 -1.26121e-07 5.60061e-06 4.54643e-08 -6.60288e-07 5.46589e-05)
(3.47945e-06 -6.8988e-08 -2.17869e-06 4.75644e-08 6.91301e-07 5.58091e-05)
(3.98311e-06 1.25054e-07 -5.62181e-06 4.37766e-08 -7.09605e-07 5.86091e-05)
(2.43249e-06 4.83397e-08 2.14788e-06 2.71422e-08 4.96395e-07 3.88689e-05)
(3.88777e-06 -8.56612e-08 4.51163e-06 2.677e-08 -4.52488e-07 3.98757e-05)
(2.41389e-06 -4.75435e-08 -1.89524e-06 2.80591e-08 4.79773e-07 4.05042e-05)
(2.73678e-06 8.59186e-08 -4.51444e-06 2.61791e-08 -4.92589e-07 4.26503e-05)
(1.97537e-06 1.37623e-08 1.01491e-06 5.2412e-09 1.36716e-07 1.95732e-05)
(2.37454e-06 -2.68625e-08 2.46625e-06 5.59302e-09 -1.41163e-07 2.03398e-05)
(1.97361e-06 -1.3336e-08 -8.97978e-07 5.76304e-09 1.43881e-07 2.04089e-05)
(1.74202e-06 2.67346e-08 -2.45862e-06 5.59135e-09 -1.59745e-07 2.17962e-05)
(1.8467e-06 9.23983e-09 1.17438e-07 5.40851e-09 7.10197e-08 4.50486e-06)
(1.70555e-06 -8.14082e-09 5.72754e-07 5.47728e-09 -6.3596e-08 4.79582e-06)
(1.85129e-06 -7.21452e-09 -7.36371e-08 5.80711e-09 7.11245e-08 4.7127e-06)
(1.44179e-06 6.91403e-09 -5.74859e-07 5.60348e-09 -7.45909e-08 5.1325e-06)
(4.80124e-07 -4.19568e-10 -3.81432e-09 7.56593e-11 -1.01667e-09 2.96239e-07)
(4.51099e-07 -7.04671e-10 1.23471e-08 4.66752e-11 2.7407e-10 2.72469e-07)
(4.81073e-07 6.07336e-10 9.46991e-09 5.2771e-11 -9.15282e-10 3.00647e-07)
(4.18159e-07 4.99879e-10 -1.53456e-08 5.71055e-11 3.35599e-10 2.57193e-07)
(1.11027e-05 5.68842e-07 -3.85871e-06 1.86272e-05 -1.72785e-06 0.000224751)
(6.61675e-06 2.89825e-07 1.97039e-06 1.92492e-05 -2.94932e-06 0.000308593)
(1.25831e-05 -1.0486e-06 -4.91179e-06 1.79599e-05 -1.85043e-06 0.000187237)
(7.3008e-06 -8.06542e-07 3.63705e-06 1.98352e-05 -6.1841e-06 0.00039043)
(1.13074e-05 7.05367e-07 -3.8761e-06 1.93597e-05 -1.94553e-06 0.00022496)
(6.55219e-06 2.70026e-07 1.82362e-06 2.00605e-05 -3.68846e-06 0.000302591)
(1.26535e-05 -1.14339e-06 -4.78586e-06 1.84549e-05 -2.02649e-06 0.000187199)
(7.17272e-06 -8.55265e-07 3.79847e-06 2.06005e-05 -7.29179e-06 0.0003873)
(1.14887e-05 8.41343e-07 -4.37982e-06 1.96849e-05 -1.94534e-06 0.000220912)
(6.47075e-06 2.35865e-07 1.7821e-06 2.05991e-05 -4.43685e-06 0.000296606)
(1.27398e-05 -1.24189e-06 -4.86669e-06 1.86531e-05 -2.0053e-06 0.00018499)
(7.05618e-06 -8.23263e-07 3.89452e-06 2.11693e-05 -8.2486e-06 0.00038249)
(1.17505e-05 9.79978e-07 -4.87362e-06 1.98821e-05 -1.86937e-06 0.0002146)
(6.39257e-06 1.89282e-07 1.88428e-06 2.08029e-05 -5.1557e-06 0.000290526)
(1.27331e-05 -1.30507e-06 -4.87214e-06 1.8923e-05 -1.89971e-06 0.000181193)
(6.94964e-06 -7.90655e-07 3.91783e-06 2.15512e-05 -9.49195e-06 0.000377378)
(1.20131e-05 1.11398e-06 -5.29997e-06 2.00168e-05 -1.95048e-06 0.000207894)
(6.33475e-06 1.33928e-07 2.07861e-06 2.10484e-05 -5.87061e-06 0.000283988)
(1.26958e-05 -1.34368e-06 -4.67375e-06 1.91661e-05 -1.85803e-06 0.00017687)
(6.85188e-06 -7.7499e-07 3.87881e-06 2.18582e-05 -1.07219e-05 0.000371806)
(1.22275e-05 1.21972e-06 -5.75551e-06 2.02062e-05 -2.03488e-06 0.00020164)
(6.29678e-06 9.27959e-08 2.16804e-06 2.1312e-05 -6.45567e-06 0.000276551)
(1.26648e-05 -1.3916e-06 -4.29311e-06 1.93334e-05 -1.89581e-06 0.00017242)
(6.77444e-06 -7.52605e-07 3.82376e-06 2.20696e-05 -1.16632e-05 0.000366855)
(1.24304e-05 1.3055e-06 -6.25375e-06 2.03618e-05 -2.07284e-06 0.000195515)
(6.2755e-06 6.62893e-08 2.19949e-06 2.14896e-05 -6.79778e-06 0.000269175)
(1.26368e-05 -1.44152e-06 -3.83322e-06 1.94227e-05 -1.95152e-06 0.00016733)
(6.72463e-06 -7.221e-07 3.73721e-06 2.22738e-05 -1.24064e-05 0.000362118)
(1.26394e-05 1.38803e-06 -6.71866e-06 2.03532e-05 -2.10881e-06 0.000189692)
(6.27942e-06 2.56163e-08 2.26722e-06 2.16114e-05 -7.15292e-06 0.000263588)
(1.26007e-05 -1.4735e-06 -3.38637e-06 1.94662e-05 -2.03186e-06 0.000161653)
(6.69706e-06 -6.97481e-07 3.66187e-06 2.24243e-05 -1.30427e-05 0.000356617)
(1.28876e-05 1.48944e-06 -7.1807e-06 2.02373e-05 -2.17617e-06 0.000184383)
(6.31296e-06 -1.56889e-08 2.50474e-06 2.1741e-05 -7.81094e-06 0.000260609)
(1.2562e-05 -1.45381e-06 -2.95244e-06 1.94358e-05 -2.14725e-06 0.00015623)
(6.68782e-06 -6.77064e-07 3.5526e-06 2.24354e-05 -1.35469e-05 0.000350548)
(1.31682e-05 1.55734e-06 -7.70154e-06 2.01993e-05 -2.18818e-06 0.000179752)
(6.37881e-06 -5.6132e-08 2.89619e-06 2.1788e-05 -8.53131e-06 0.000258579)
(1.25496e-05 -1.42262e-06 -2.53666e-06 1.93305e-05 -2.13228e-06 0.000151983)
(6.70641e-06 -6.59152e-07 3.2821e-06 2.2323e-05 -1.3935e-05 0.000345452)
(1.34609e-05 1.5712e-06 -8.24081e-06 2.02369e-05 -2.0788e-06 0.00017609)
(6.47404e-06 -1.12533e-07 3.24159e-06 2.16828e-05 -8.99965e-06 0.000255871)
(1.26364e-05 -1.49618e-06 -2.18065e-06 1.92967e-05 -2.00993e-06 0.000148732)
(6.75457e-06 -6.14503e-07 2.77816e-06 2.22728e-05 -1.44487e-05 0.000342349)
(1.37698e-05 1.59112e-06 -8.77946e-06 2.0173e-05 -1.97265e-06 0.000172852)
(6.60638e-06 -1.89465e-07 3.42547e-06 2.14528e-05 -9.27932e-06 0.000251763)
(1.27514e-05 -1.58093e-06 -1.75802e-06 1.92505e-05 -1.94216e-06 0.000146248)
(6.80889e-06 -5.42234e-07 2.19355e-06 2.22473e-05 -1.49631e-05 0.000339806)
(1.41273e-05 1.64554e-06 -9.20355e-06 2.00143e-05 -1.94757e-06 0.000169815)
(6.80381e-06 -2.85091e-07 3.52863e-06 2.13228e-05 -9.59492e-06 0.000247006)
(1.27993e-05 -1.57124e-06 -1.21754e-06 1.90852e-05 -2.0066e-06 0.000144523)
(6.86035e-06 -4.99222e-07 1.71507e-06 2.22172e-05 -1.54477e-05 0.000336563)
(1.44547e-05 1.7008e-06 -9.4952e-06 1.98547e-05 -1.92328e-06 0.00016686)
(7.02979e-06 -3.63817e-07 3.75166e-06 2.1328e-05 -1.00138e-05 0.000244309)
(1.28002e-05 -1.5412e-06 -6.09589e-07 1.88365e-05 -2.07899e-06 0.000143187)
(6.92412e-06 -4.80471e-07 1.46552e-06 2.21651e-05 -1.58661e-05 0.000332431)
(1.47238e-05 1.75774e-06 -9.74224e-06 1.96466e-05 -1.91213e-06 0.000163584)
(7.24585e-06 -4.45113e-07 4.10069e-06 2.12856e-05 -1.05909e-05 0.000243989)
(1.27848e-05 -1.55789e-06 -7.82775e-08 1.86043e-05 -2.04633e-06 0.000141913)
(7.03108e-06 -4.47087e-07 1.3353e-06 2.20143e-05 -1.62169e-05 0.000328318)
(1.497e-05 1.80967e-06 -9.94961e-06 1.93149e-05 -1.92759e-06 0.000160123)
(7.4523e-06 -5.04259e-07 4.34822e-06 2.10258e-05 -1.11398e-05 0.000244673)
(1.27605e-05 -1.58209e-06 4.53162e-07 1.84026e-05 -1.9195e-06 0.000140085)
(7.18309e-06 -3.9121e-07 1.19217e-06 2.17269e-05 -1.65256e-05 0.000324631)
(1.52585e-05 1.8304e-06 -1.01923e-05 1.8895e-05 -1.91633e-06 0.000157364)
(7.70467e-06 -5.24934e-07 4.40641e-06 2.05959e-05 -1.14717e-05 0.000245417)
(1.27383e-05 -1.57591e-06 1.04397e-06 1.81609e-05 -1.78947e-06 0.000138517)
(7.37902e-06 -3.27232e-07 9.81328e-07 2.13573e-05 -1.67689e-05 0.000321935)
(1.55761e-05 1.83299e-06 -1.04626e-05 1.8502e-05 -1.83821e-06 0.000155897)
(8.03476e-06 -5.49161e-07 4.37123e-06 2.02122e-05 -1.16523e-05 0.000246072)