/*--------------------------------*- C++ -*----------------------------------*\
| =========                 |                                                 |
| \\      /  F ield         | OpenFOAM: The Open Source CFD Toolbox           |
|  \\    /   O peration     | Version:  v1912                                 |
|   \\  /    A nd           | Website:  www.openfoam.com                      |
|    \\/     M anipulation  |                                                 |
\*---------------------------------------------------------------------------*/
FoamFile
{
    version     2.0;
    format      ascii;
    class       volScalarField;
    location    "10";
    object      alphat;
}
// * * * * * * * * * * * * * * * * * * * * * * * * * * * * * * * * * * * * * //

dimensions      [1 -1 -1 0 0 0 0];


internalField   nonuniform List<scalar> 
34128
(
4.85223e-09
4.86752e-09
5.01662e-09
5.21286e-09
5.08824e-09
4.80182e-09
4.88162e-09
5.05007e-09
5.23133e-09
5.44266e-09
5.25847e-09
5.08193e-09
4.75555e-09
4.7824e-09
4.94356e-09
5.14162e-09
5.009e-09
4.72601e-09
4.80774e-09
4.97603e-09
5.1606e-09
5.36602e-09
5.17061e-09
4.98604e-09
8.09265e-09
8.36853e-09
8.92978e-09
9.36515e-09
8.93767e-09
8.4197e-09
8.62647e-09
8.9668e-09
9.4004e-09
9.7083e-09
9.09966e-09
8.57534e-09
3.24965e-08
3.44474e-08
3.7745e-08
3.98021e-08
3.73631e-08
3.52176e-08
3.62979e-08
3.78245e-08
3.99343e-08
4.09535e-08
3.75559e-08
3.47399e-08
1.25471e-07
1.33825e-07
1.47501e-07
1.55468e-07
1.45462e-07
1.37496e-07
1.41908e-07
1.47774e-07
1.55972e-07
1.59372e-07
1.45601e-07
1.34293e-07
3.75478e-07
4.01079e-07
4.42301e-07
4.65127e-07
4.35265e-07
4.13076e-07
4.26384e-07
4.43276e-07
4.66891e-07
4.75573e-07
4.34809e-07
4.01458e-07
9.04999e-07
9.66707e-07
1.06444e-06
1.11581e-06
1.04583e-06
9.97405e-07
1.02911e-06
1.0676e-06
1.12145e-06
1.13864e-06
1.04348e-06
9.6572e-07
1.84159e-06
1.96527e-06
2.15771e-06
2.25334e-06
2.11754e-06
2.03069e-06
2.09356e-06
2.16661e-06
2.26921e-06
2.2966e-06
2.11162e-06
1.96041e-06
3.27884e-06
3.49315e-06
3.82016e-06
3.97345e-06
3.74637e-06
3.61406e-06
3.72244e-06
3.84207e-06
4.01181e-06
4.04806e-06
3.73637e-06
3.48157e-06
5.24842e-06
5.57817e-06
6.0723e-06
6.29065e-06
5.95429e-06
5.77856e-06
5.94542e-06
6.11942e-06
6.37069e-06
6.41112e-06
5.94269e-06
5.55998e-06
7.71401e-06
8.17458e-06
8.85462e-06
9.13825e-06
8.68673e-06
8.4798e-06
8.71472e-06
8.9444e-06
9.28477e-06
9.32249e-06
8.67993e-06
8.15609e-06
1.05849e-05
1.11786e-05
1.19772e-05
1.23009e-05
1.18319e-05
1.16142e-05
1.1912e-05
1.21459e-05
1.25589e-05
1.2613e-05
1.18391e-05
1.11745e-05
1.33031e-05
1.38915e-05
1.4791e-05
1.51671e-05
1.46398e-05
1.44605e-05
1.47723e-05
1.50364e-05
1.55094e-05
1.55583e-05
1.47012e-05
1.39954e-05
1.60348e-05
1.66944e-05
1.77291e-05
1.8154e-05
1.75743e-05
1.7414e-05
1.77766e-05
1.80659e-05
1.85897e-05
1.86272e-05
1.76543e-05
1.68568e-05
1.88629e-05
1.95875e-05
2.07539e-05
2.12215e-05
2.05991e-05
2.04727e-05
2.08868e-05
2.11947e-05
2.17601e-05
2.17805e-05
2.06993e-05
1.98159e-05
2.17563e-05
2.25391e-05
2.38333e-05
2.43362e-05
2.36801e-05
2.36033e-05
2.407e-05
2.43888e-05
2.49863e-05
2.49845e-05
2.38032e-05
2.28399e-05
2.46907e-05
2.55244e-05
2.69439e-05
2.74752e-05
2.67932e-05
2.6781e-05
2.73023e-05
2.76238e-05
2.82423e-05
2.82134e-05
2.69412e-05
2.59036e-05
2.76506e-05
2.85271e-05
3.00722e-05
3.06279e-05
2.99259e-05
2.99914e-05
3.05707e-05
3.08873e-05
3.15122e-05
3.14506e-05
3.0097e-05
2.89909e-05
3.06301e-05
3.15414e-05
3.32168e-05
3.37969e-05
3.30784e-05
3.32314e-05
3.38747e-05
3.41801e-05
3.47924e-05
3.46899e-05
3.32641e-05
3.20951e-05
3.36341e-05
3.45736e-05
3.63896e-05
3.69981e-05
3.62639e-05
3.65111e-05
3.72266e-05
3.75166e-05
3.80927e-05
3.79375e-05
3.64468e-05
3.52216e-05
3.66801e-05
3.76435e-05
3.96161e-05
4.026e-05
3.95085e-05
3.9855e-05
4.0652e-05
4.09249e-05
4.1437e-05
4.12115e-05
3.96608e-05
3.83894e-05
3.97981e-05
4.07823e-05
4.29332e-05
4.36217e-05
4.28499e-05
4.33002e-05
4.41882e-05
4.44439e-05
4.48605e-05
4.45399e-05
4.29321e-05
4.16306e-05
4.30266e-05
4.40277e-05
4.6383e-05
4.71281e-05
4.63318e-05
4.68897e-05
4.78774e-05
4.81174e-05
4.8405e-05
4.79565e-05
4.62933e-05
4.49864e-05
4.64051e-05
4.7418e-05
5.00087e-05
5.08256e-05
4.99979e-05
5.06656e-05
5.17605e-05
5.19891e-05
5.21141e-05
5.14974e-05
4.9779e-05
4.84978e-05
4.99679e-05
5.09904e-05
5.38523e-05
5.47616e-05
5.38897e-05
5.46647e-05
5.58735e-05
5.6101e-05
5.60326e-05
5.52008e-05
5.34225e-05
5.2202e-05
5.37458e-05
5.47803e-05
5.79597e-05
5.89899e-05
5.8051e-05
5.89204e-05
6.0252e-05
6.04994e-05
6.02123e-05
5.91099e-05
5.72578e-05
5.61321e-05
5.77682e-05
5.88286e-05
6.23891e-05
6.35796e-05
6.25366e-05
6.34733e-05
6.49435e-05
6.52486e-05
6.47219e-05
6.328e-05
6.13249e-05
6.03245e-05
6.20742e-05
6.31914e-05
6.7223e-05
6.86281e-05
6.74272e-05
6.83881e-05
7.00243e-05
7.04476e-05
6.96609e-05
6.7786e-05
6.56791e-05
6.48334e-05
6.67273e-05
6.79545e-05
7.25807e-05
7.42746e-05
7.28472e-05
7.3775e-05
7.56197e-05
7.6248e-05
7.51727e-05
7.27309e-05
7.04016e-05
6.97505e-05
7.18318e-05
7.32472e-05
7.86326e-05
8.07152e-05
7.89846e-05
7.9814e-05
8.19273e-05
8.28751e-05
8.14636e-05
7.82563e-05
7.5613e-05
7.52277e-05
7.75534e-05
7.92637e-05
8.56106e-05
8.8213e-05
8.61148e-05
8.6788e-05
8.9232e-05
9.06192e-05
8.87862e-05
8.45503e-05
8.14913e-05
8.15118e-05
8.4148e-05
8.62651e-05
9.3775e-05
9.70699e-05
9.45782e-05
9.50406e-05
9.78434e-05
9.97987e-05
9.74345e-05
9.18379e-05
8.82652e-05
8.89405e-05
9.18512e-05
9.44944e-05
0.000103445
0.00010768
0.000104773
0.000104967
0.000108174
0.000110872
0.000107815
0.000100388
9.61736e-05
9.78676e-05
0.000101065
0.000104367
0.000115137
0.000120669
0.000117336
0.000117193
0.000120896
0.000124565
0.000120561
0.000110641
0.000105634
0.000108863
0.000112378
0.000116507
0.000129616
0.000136978
0.000133232
0.00013267
0.000137043
0.000141983
0.000136624
0.000123256
0.000117274
0.00012279
0.000126652
0.000131839
0.000148032
0.000158038
0.000153933
0.000152859
0.00015821
0.000164827
0.000157454
0.000139225
0.000132029
0.000140975
0.000145197
0.000151771
0.000172148
0.000186065
0.000181729
0.000180057
0.000186969
0.000195795
0.000185299
0.000160055
0.00015134
0.000165527
0.000170055
0.00017851
0.000204673
0.000224386
0.000220324
0.000218044
0.000227534
0.000239298
0.000223673
0.000187992
0.00017745
0.000199958
0.000204567
0.00021545
0.000246349
0.000269075
0.000274554
0.00027291
0.000278497
0.000296079
0.000273148
0.000221163
0.000210132
0.000249852
0.000253844
0.000259031
0.000289953
0.000319948
0.000328104
0.0003338
0.000332898
0.000356074
0.000324393
0.000258112
0.000244027
0.000298789
0.000304944
0.000308078
0.000347677
0.000387385
0.000399671
0.000406851
0.000404385
0.000433133
0.000391898
0.000306916
0.000288889
0.000363604
0.000369743
0.000372852
0.000421397
0.00047179
0.000489553
0.000498128
0.000492166
0.000526834
0.000475819
0.000370672
0.000348203
0.000446935
0.00045227
0.000454619
0.000512087
0.000575142
0.000599766
0.000609424
0.000598119
0.000639451
0.000578236
0.000450373
0.000423439
0.000550334
0.000553789
0.000554982
0.000622315
0.000700077
0.00073281
0.000742763
0.000724273
0.00077313
0.000701721
0.000547736
0.000515914
0.000676751
0.000677089
0.000676693
0.000754431
0.000848327
0.000889943
0.000898734
0.00087211
0.000929243
0.000848019
0.000665249
0.000628181
0.000828083
0.000824222
0.000821687
0.000909693
0.0010201
0.00107053
0.00107602
0.00104156
0.00110726
0.00101747
0.000804665
0.000762058
0.00100434
0.000995727
0.000990362
0.00108765
0.00121357
0.00127163
0.00127124
0.00123062
0.00130498
0.00120857
0.000966451
0.000917984
0.00120315
0.00118999
0.00118102
0.00128572
0.00142466
0.00148801
0.00147931
0.00143592
0.00151752
0.0014177
0.00114935
0.00109457
0.00142007
0.00140295
0.0013896
0.00149907
0.00164725
0.00171284
0.0016944
0.00165119
0.00173788
0.00163942
0.00135021
0.00128849
0.00165077
0.00162833
0.00161
0.00172111
0.00187394
0.0019388
0.00191106
0.0018707
0.00195849
0.00186696
0.00156414
0.00149481
0.00188619
0.00185851
0.00183489
0.0019443
0.00209733
0.00215874
0.00212423
0.00208892
0.00217218
0.00209314
0.00178508
0.00170767
0.00211695
0.0020856
0.00205704
0.00216122
0.00231077
0.00236589
0.0023282
0.00230033
0.00237725
0.00231123
0.00200655
0.00192119
0.00233414
0.00230155
0.00226962
0.00236556
0.00250821
0.00253409
0.00248878
0.00249899
0.00256863
0.00251575
0.00222241
0.0021288
0.00224605
0.00229068
0.00242697
0.00255167
0.0026841
0.00244119
0.00246012
0.00254033
0.00274248
0.00270275
0.00242732
0.00203288
0.0021562
0.00214565
0.00220812
0.00260126
0.00263033
0.00237207
0.00246377
0.00260349
0.00289625
0.00286955
0.00261674
0.00195391
0.00214362
0.00207262
0.00205326
0.00236712
0.00251532
0.00234262
0.00251429
0.00269749
0.00302891
0.00301463
0.00278753
0.00195137
0.00219774
0.00206484
0.00198006
0.00219177
0.00242491
0.00234854
0.00260178
0.00281449
0.00313823
0.00313768
0.00278334
0.00200431
0.00230015
0.00210308
0.00196085
0.00208899
0.00236472
0.00238789
0.00272058
0.00294039
0.00320629
0.00323953
0.00279262
0.00209904
0.00243613
0.0021778
0.00197677
0.00203642
0.0023298
0.00246006
0.00286491
0.00306228
0.0032843
0.003322
0.00287564
0.00222771
0.00259503
0.00228412
0.00201707
0.00201727
0.00231514
0.00256653
0.00302821
0.0031697
0.0033623
0.00338766
0.00301458
0.00238498
0.00276924
0.00241862
0.00207506
0.00202179
0.00231753
0.00271081
0.0032045
0.00325631
0.00341695
0.0034394
0.0031983
0.00256549
0.00295397
0.00257809
0.0021459
0.00204432
0.00233572
0.00289793
0.00337912
0.00332086
0.00345518
0.00348007
0.00339541
0.00276311
0.00314803
0.00275921
0.00222556
0.00208133
0.00237017
0.00313798
0.0034313
0.00336495
0.00348559
0.00351043
0.00343681
0.00297567
0.00333683
0.00295733
0.00231062
0.00213028
0.00242224
0.00340664
0.00345194
0.00339141
0.00350996
0.0035331
0.00346833
0.00319935
0.00339989
0.00316488
0.00239834
0.00218918
0.00249174
0.00341835
0.00346697
0.00340508
0.00352955
0.00355004
0.0034911
0.00340078
0.00341841
0.0033782
0.00248676
0.00225632
0.0025761
0.00342643
0.0034774
0.00341141
0.00354524
0.00356218
0.00350737
0.00342522
0.00343476
0.00349551
0.00257489
0.00233011
0.00267142
0.00343185
0.00348403
0.00341559
0.00355774
0.00357013
0.00351816
0.00344524
0.00344961
0.00351455
0.00266253
0.00240881
0.00277205
0.00343524
0.00348755
0.00342234
0.00356723
0.00357428
0.00352422
0.00346175
0.00346342
0.00353197
0.00275058
0.00249031
0.00286957
0.00343709
0.00348852
0.00343608
0.00357295
0.00357483
0.00352626
0.00347541
0.00347645
0.0035479
0.00284098
0.00257211
0.00295318
0.00343783
0.00348752
0.00346063
0.00357553
0.00357193
0.00352484
0.00348665
0.0034888
0.00356241
0.00293636
0.00265158
0.00301234
0.00343784
0.00348506
0.00349924
0.0035753
0.00356576
0.00352045
0.00349579
0.00350043
0.0035755
0.00304016
0.00272632
0.0030397
0.00343748
0.00348168
0.00351994
0.00357239
0.00355647
0.0035136
0.00350306
0.00351119
0.00358715
0.0031557
0.00279464
0.00303174
0.00343704
0.00347788
0.00351268
0.00356685
0.00354438
0.00350478
0.00350867
0.00352084
0.00359736
0.0032856
0.00285594
0.00298853
0.00343679
0.00347379
0.00350393
0.00355901
0.00352989
0.00349466
0.00351279
0.00352917
0.00360612
0.00344185
0.00291116
0.00291429
0.0034369
0.00346963
0.00349413
0.00354944
0.00351358
0.00348395
0.00351558
0.00353595
0.00361345
0.00359211
0.00296273
0.00281654
0.00343747
0.00346574
0.0034838
0.00353868
0.00349614
0.00347333
0.00351718
0.00354105
0.00361938
0.00360282
0.0030129
0.00270411
0.00343844
0.00346246
0.00347381
0.00352739
0.00347844
0.00346343
0.00351774
0.00354439
0.00362395
0.00361191
0.00306162
0.00258626
0.00343957
0.00346008
0.00346484
0.00351618
0.0034614
0.00345473
0.00351733
0.00354596
0.00362717
0.00361929
0.00310557
0.00247328
0.00344042
0.0034586
0.00345745
0.0035056
0.0034459
0.00344746
0.00351599
0.00354586
5.13732e-09
5.19962e-09
5.39633e-09
5.58822e-09
5.4062e-09
5.10148e-09
5.20608e-09
5.38869e-09
5.59819e-09
5.81866e-09
5.56231e-09
5.33502e-09
4.92331e-09
4.99758e-09
5.19354e-09
5.37105e-09
5.17693e-09
4.87894e-09
4.98595e-09
5.17237e-09
5.38538e-09
5.59676e-09
5.33713e-09
5.10793e-09
6.42102e-09
6.80104e-09
7.20193e-09
7.31468e-09
6.68847e-09
6.19802e-09
6.4701e-09
6.92158e-09
7.41268e-09
7.67552e-09
7.07719e-09
6.56754e-09
1.7232e-08
1.98058e-08
2.18958e-08
2.13216e-08
1.76316e-08
1.58539e-08
1.72433e-08
1.95242e-08
2.20934e-08
2.2645e-08
1.95511e-08
1.7148e-08
5.8321e-08
6.91057e-08
7.75673e-08
7.4228e-08
5.91776e-08
5.27773e-08
5.83302e-08
6.73743e-08
7.75501e-08
7.89178e-08
6.66354e-08
5.73893e-08
1.67802e-07
2.00287e-07
2.25421e-07
2.14118e-07
1.69459e-07
1.51541e-07
1.6804e-07
1.94711e-07
2.2434e-07
2.26956e-07
1.91049e-07
1.64537e-07
3.9774e-07
4.7505e-07
5.33771e-07
5.04436e-07
3.99697e-07
3.59618e-07
3.98609e-07
4.61217e-07
5.2948e-07
5.3256e-07
4.49554e-07
3.89344e-07
8.01645e-07
9.5549e-07
1.06932e-06
1.00615e-06
8.00977e-07
7.26e-07
8.03215e-07
9.26539e-07
1.05796e-06
1.05794e-06
8.97802e-07
7.839e-07
1.41786e-06
1.6838e-06
1.87448e-06
1.75691e-06
1.40771e-06
1.28598e-06
1.41902e-06
1.63063e-06
1.85036e-06
1.84024e-06
1.57226e-06
1.38571e-06
2.25845e-06
2.66921e-06
2.95322e-06
2.75871e-06
2.22773e-06
2.05111e-06
2.25619e-06
2.58168e-06
2.90987e-06
2.87891e-06
2.47859e-06
2.20731e-06
3.30762e-06
3.88682e-06
4.27185e-06
3.9797e-06
3.24236e-06
3.00784e-06
3.29687e-06
3.7557e-06
4.20285e-06
4.13764e-06
3.59206e-06
3.2348e-06
4.52771e-06
5.2749e-06
5.72244e-06
5.31977e-06
4.39855e-06
4.10889e-06
4.47183e-06
5.05444e-06
5.61333e-06
5.52886e-06
4.86542e-06
4.43346e-06
5.65218e-06
6.51426e-06
7.03167e-06
6.53582e-06
5.45246e-06
5.11955e-06
5.55308e-06
6.25314e-06
6.88979e-06
6.75509e-06
5.9974e-06
5.52691e-06
6.8192e-06
7.80951e-06
8.38722e-06
7.79703e-06
6.56645e-06
6.19678e-06
6.69723e-06
7.51304e-06
8.20933e-06
8.00813e-06
7.16954e-06
6.68216e-06
8.03645e-06
9.14419e-06
9.76991e-06
9.08675e-06
7.72961e-06
7.33069e-06
7.89174e-06
8.8191e-06
9.55331e-06
9.26817e-06
8.3705e-06
7.89458e-06
9.29368e-06
1.05045e-05
1.1164e-05
1.03925e-05
8.93401e-06
8.51318e-06
9.1262e-06
1.01592e-05
1.09067e-05
1.05195e-05
9.588e-06
9.15558e-06
1.05839e-05
1.18806e-05
1.25589e-05
1.17074e-05
1.01758e-05
9.73901e-06
1.03934e-05
1.15254e-05
1.22593e-05
1.17518e-05
1.0814e-05
1.04598e-05
1.19042e-05
1.32677e-05
1.39499e-05
1.30306e-05
1.14557e-05
1.10063e-05
1.16898e-05
1.29147e-05
1.36074e-05
1.29615e-05
1.20456e-05
1.18056e-05
1.32561e-05
1.46669e-05
1.53393e-05
1.4368e-05
1.27792e-05
1.23174e-05
1.30162e-05
1.4329e-05
1.49539e-05
1.41526e-05
1.32854e-05
1.31959e-05
1.46466e-05
1.60861e-05
1.67371e-05
1.57319e-05
1.41569e-05
1.36795e-05
1.43791e-05
1.57768e-05
1.63101e-05
1.53369e-05
1.45429e-05
1.46393e-05
1.60891e-05
1.75409e-05
1.81615e-05
1.7142e-05
1.56055e-05
1.51056e-05
1.57913e-05
1.72736e-05
1.76956e-05
1.65347e-05
1.58343e-05
1.61509e-05
1.76035e-05
1.90548e-05
1.96382e-05
1.86245e-05
1.71472e-05
1.66151e-05
1.72725e-05
1.88415e-05
1.91377e-05
1.77738e-05
1.71831e-05
1.77525e-05
1.92155e-05
2.06572e-05
2.11992e-05
2.02124e-05
1.88101e-05
1.82332e-05
1.88482e-05
2.05093e-05
2.06706e-05
1.90895e-05
1.86197e-05
1.94716e-05
2.09557e-05
2.23828e-05
2.28827e-05
2.19451e-05
2.06282e-05
1.99905e-05
2.05498e-05
2.23117e-05
2.23353e-05
2.05245e-05
2.01806e-05
2.13411e-05
2.28596e-05
2.42714e-05
2.47348e-05
2.38707e-05
2.26434e-05
2.19244e-05
2.24167e-05
2.42927e-05
2.41825e-05
2.2131e-05
2.19094e-05
2.33996e-05
2.49695e-05
2.63716e-05
2.68145e-05
2.60514e-05
2.49105e-05
2.40843e-05
2.45014e-05
2.65113e-05
2.62784e-05
2.39732e-05
2.38593e-05
2.56958e-05
2.73414e-05
2.87482e-05
2.92005e-05
2.85715e-05
2.75074e-05
2.65416e-05
2.68785e-05
2.90516e-05
2.87134e-05
2.61333e-05
2.60988e-05
2.82977e-05
3.00565e-05
3.14926e-05
3.20015e-05
3.1549e-05
3.05488e-05
2.94032e-05
2.96566e-05
3.20345e-05
3.16136e-05
2.8719e-05
2.87196e-05
3.13063e-05
3.32359e-05
3.47375e-05
3.53688e-05
3.51494e-05
3.42051e-05
3.28298e-05
3.29936e-05
3.56337e-05
3.51546e-05
3.18735e-05
3.18481e-05
3.48739e-05
3.70606e-05
3.86738e-05
3.95115e-05
3.96047e-05
3.87256e-05
3.70586e-05
3.71165e-05
4.00943e-05
3.95797e-05
3.57897e-05
3.56603e-05
3.92263e-05
4.17966e-05
4.35746e-05
4.47183e-05
4.52385e-05
4.44699e-05
4.2433e-05
4.23482e-05
4.57583e-05
4.52241e-05
4.07294e-05
4.04026e-05
4.46915e-05
4.78271e-05
4.98249e-05
5.13848e-05
5.25001e-05
5.19525e-05
4.94463e-05
4.9146e-05
5.31018e-05
5.25494e-05
4.70496e-05
4.64195e-05
5.17381e-05
5.54826e-05
5.77583e-05
5.98629e-05
6.18405e-05
6.17381e-05
5.86233e-05
5.79722e-05
6.2619e-05
6.20288e-05
5.50509e-05
5.39807e-05
6.08374e-05
6.53403e-05
6.79506e-05
7.07403e-05
7.40051e-05
7.47682e-05
7.08469e-05
6.96063e-05
7.51262e-05
7.4438e-05
6.52476e-05
6.35689e-05
7.27852e-05
7.83086e-05
8.13082e-05
8.4937e-05
9.01743e-05
9.2567e-05
8.75512e-05
8.53054e-05
9.19247e-05
9.10001e-05
7.84455e-05
7.59526e-05
8.88637e-05
9.58124e-05
9.92554e-05
0.000103883
0.000112202
0.000117606
0.000111055
0.000107055
0.000115048
0.000113638
9.58928e-05
9.2336e-05
0.000111158
0.000120144
0.00012403
0.000129741
0.000141603
0.000151237
0.000141295
0.000133142
0.00014311
0.000143978
0.000119457
0.000114533
0.000141479
0.000154514
0.000155432
0.000159617
0.000174503
0.000189394
0.000176084
0.000163914
0.000176039
0.000177867
0.000145812
0.000138049
0.000174868
0.000192593
0.000192296
0.000197081
0.000217951
0.000240504
0.000222412
0.000204375
0.00021934
0.000222647
0.000178664
0.000168365
0.000219425
0.000243922
0.00024141
0.000246617
0.000275525
0.000309038
0.00028408
0.000257769
0.00027656
0.000282029
0.000221497
0.000208098
0.000279147
0.000313354
0.000307012
0.000312315
0.000351332
0.000398425
0.000364588
0.000327781
0.000350993
0.000359765
0.000277641
0.000260525
0.000358317
0.000404958
0.00039234
0.000397003
0.000447567
0.000512014
0.000466256
0.000416126
0.000444522
0.000458136
0.000350303
0.000329302
0.00045925
0.000522266
0.000500018
0.00050339
0.000567787
0.000653412
0.000592138
0.000525781
0.000559991
0.000580659
0.000441038
0.000415763
0.000585675
0.000669887
0.000633592
0.000634826
0.000714818
0.00082444
0.000743882
0.000658984
0.000699299
0.000729915
0.000552852
0.000522665
0.000740054
0.000850928
0.00079525
0.000793396
0.000889651
0.0010241
0.000920976
0.000816449
0.000862829
0.000906601
0.0006883
0.00065235
0.000922406
0.0010657
0.000984884
0.000979017
0.00109063
0.00124797
0.00112033
0.000996853
0.00104913
0.00110884
0.000848692
0.000805784
0.0011294
0.00130994
0.00119947
0.00118879
0.00131311
0.00148829
0.00133626
0.0011966
0.0012548
0.00133202
0.00103346
0.000981951
0.00135405
0.00157422
0.0014331
0.00141692
0.00154971
0.00173446
0.00156082
0.00140978
0.00147458
0.00156921
0.00123974
0.00117752
0.00158597
0.0018454
0.00167732
0.00165532
0.0017911
0.00182517
0.00164333
0.00153112
0.00170178
0.00181219
0.00146238
0.00138698
0.00181085
0.00210909
0.00192223
0.00189476
0.00202689
0.00178119
0.00162963
0.00149408
0.00192849
0.00205257
0.00169446
0.00160327
0.00173952
0.00225491
0.00215736
0.00212598
0.00198655
0.00175774
0.0016449
0.0014859
0.00188485
0.00228269
0.00192814
0.00181877
0.00162343
0.00214257
0.00205253
0.00231656
0.00192253
0.00176557
0.00169967
0.00152203
0.0018281
0.00249605
0.00215567
0.00172335
0.0015585
0.00204526
0.00192169
0.00217792
0.0018788
0.00180108
0.00179153
0.00159907
0.0018121
0.0025194
0.00235977
0.00163043
0.00154734
0.00199912
0.00183701
0.0020388
0.00186144
0.00186378
0.00192153
0.00171479
0.00184054
0.00249285
0.0022809
0.00159568
0.00158124
0.00200399
0.00180852
0.0019488
0.00187123
0.00195308
0.00208933
0.00186646
0.00191075
0.00250589
0.00222093
0.00160905
0.00164988
0.00205316
0.00182854
0.00191071
0.00190753
0.00206682
0.00229087
0.0020481
0.00201896
0.00257664
0.00222128
0.00165665
0.00174419
0.00213927
0.00188534
0.00191356
0.00196685
0.00220286
0.00251806
0.00224945
0.00216011
0.0027103
0.00228036
0.00172914
0.00185713
0.00225776
0.00197101
0.00194543
0.00204438
0.00235989
0.00275905
0.00245635
0.00232676
0.00290645
0.00238753
0.00182052
0.00198295
0.0024061
0.00208115
0.00199932
0.00213596
0.00253792
0.00299975
0.0026527
0.00250851
0.00315566
0.00253223
0.00192674
0.00211647
0.00258202
0.00221305
0.00207183
0.00223864
0.0027377
0.00322641
0.00282344
0.00269283
0.00342237
0.00270664
0.00204514
0.00225307
0.00278286
0.00236342
0.00216095
0.00235062
0.00295953
0.00342106
0.00295737
0.0028684
0.00349267
0.00290439
0.00217431
0.00238953
0.00300589
0.00252657
0.00226455
0.00247069
0.00320885
0.00345284
0.00304899
0.00302496
0.00352229
0.00311826
0.00231395
0.00252563
0.00325422
0.0026954
0.00237897
0.00259798
0.00344411
0.00347733
0.00309846
0.00315269
0.00354615
0.00333183
0.00246405
0.00266458
0.00350637
0.00286351
0.00249886
0.00272942
0.00345423
0.00349582
0.00311116
0.00324584
0.00356492
0.00348655
0.00262469
0.00281047
0.00352152
0.0030255
0.00261864
0.00285903
0.00346114
0.00350928
0.00309579
0.00330369
0.00357882
0.00350125
0.00279615
0.00296635
0.00353556
0.00317681
0.00273325
0.00298027
0.00346539
0.00351846
0.00306219
0.00333029
0.00358837
0.00351122
0.00297788
0.00313852
0.0035488
0.0033147
0.00283818
0.00308666
0.0034674
0.003524
0.00301986
0.00333349
0.00359402
0.00351644
0.00317163
0.00332488
0.00356127
0.00343791
0.00292967
0.00317167
0.00346757
0.00352646
0.00297683
0.00332352
0.00359594
0.00351715
0.00337187
0.00343203
0.00357296
0.00354557
0.00300522
0.00322908
0.00346626
0.00352631
0.00293929
0.00331131
0.00359413
0.00351403
0.00344061
0.0034458
0.00358386
0.00355643
0.00306384
0.00325429
0.00346381
0.00352401
0.0029118
0.00330709
0.00358861
0.00350751
0.00345103
0.00345938
0.00359393
0.00356715
0.0031062
0.0032454
0.00346055
0.00351995
0.00289779
0.00331959
0.00357922
0.00349789
0.00345982
0.0034726
0.00360312
0.00357774
0.00313455
0.00320359
0.00345682
0.00351456
0.00290027
0.00335568
0.00356623
0.0034856
0.00346702
0.00348515
0.00361142
0.00358813
0.00315243
0.00313292
0.0034529
0.00350826
0.00292258
0.00341993
0.00354992
0.00342293
0.00347265
0.00349673
0.0036188
0.00359816
0.00316426
0.00303954
0.00344918
0.00350157
0.00296892
0.00351238
0.00353062
0.00332124
0.00347676
0.00350698
0.00362527
0.00360767
0.00317477
0.00293076
0.00344591
0.0034951
0.00304486
0.00356654
0.00350909
0.00325097
0.00347943
0.0035156
0.00363085
0.00361656
0.0031886
0.00281473
0.00344337
0.00348929
0.00315688
0.00355376
0.0034861
0.00322673
0.0034808
0.00352237
0.00363561
0.00362558
0.00320982
0.0026999
0.00344139
0.00348456
0.00330681
0.00354065
0.00346275
0.00325428
0.00348107
0.00352713
0.00363994
0.00363457
0.00324153
0.00259416
0.00343989
0.00348135
0.00347398
0.00352797
0.00344032
0.0033287
0.0034805
0.00352989
0.00364351
0.00364164
0.00328509
0.00250442
0.00343872
0.00348001
0.0034671
0.00351641
0.00337812
0.00339566
0.00347923
0.00353067
5.46933e-09
5.5933e-09
5.85656e-09
6.05228e-09
5.8246e-09
5.52415e-09
5.65521e-09
5.83074e-09
6.03674e-09
6.23926e-09
5.92527e-09
5.67638e-09
5.32948e-09
5.4579e-09
5.7227e-09
5.91347e-09
5.69121e-09
5.40811e-09
5.53895e-09
5.70835e-09
5.90497e-09
6.09123e-09
5.78108e-09
5.54e-09
8.50232e-09
8.85333e-09
9.43372e-09
9.73162e-09
9.36848e-09
9.10681e-09
9.37528e-09
9.61213e-09
9.8347e-09
9.90458e-09
9.33791e-09
8.9948e-09
3.20712e-08
3.39279e-08
3.66973e-08
3.77836e-08
3.64295e-08
3.6217e-08
3.7435e-08
3.81778e-08
3.85882e-08
3.78982e-08
3.55584e-08
3.45104e-08
1.21658e-07
1.29044e-07
1.39903e-07
1.43907e-07
1.39113e-07
1.39339e-07
1.44007e-07
1.46546e-07
1.47294e-07
1.43347e-07
1.34679e-07
1.314e-07
3.61428e-07
3.82894e-07
4.14413e-07
4.25861e-07
4.13161e-07
4.15581e-07
4.28875e-07
4.35705e-07
4.36117e-07
4.2223e-07
3.98098e-07
3.90411e-07
8.66292e-07
9.15246e-07
9.8719e-07
1.01329e-06
9.87527e-07
9.97084e-07
1.02681e-06
1.04124e-06
1.03817e-06
1.00091e-06
9.48055e-07
9.34888e-07
1.75363e-06
1.84597e-06
1.98216e-06
2.03205e-06
1.99068e-06
2.01733e-06
2.07228e-06
2.09708e-06
2.08316e-06
2.00146e-06
1.90574e-06
1.88997e-06
3.10785e-06
3.25744e-06
3.47963e-06
3.56305e-06
3.51062e-06
3.56969e-06
3.65705e-06
3.69267e-06
3.65563e-06
3.50218e-06
3.35309e-06
3.34475e-06
4.95555e-06
5.16947e-06
5.49267e-06
5.61941e-06
5.56905e-06
5.67939e-06
5.8028e-06
5.84598e-06
5.76939e-06
5.51598e-06
5.31032e-06
5.3262e-06
7.26214e-06
7.5377e-06
7.96795e-06
8.14804e-06
8.12086e-06
8.30117e-06
8.46012e-06
8.50373e-06
8.36858e-06
7.99124e-06
7.73434e-06
7.796e-06
9.94464e-06
1.02594e-05
1.07555e-05
1.09977e-05
1.1033e-05
1.12843e-05
1.14721e-05
1.14671e-05
1.12546e-05
1.08293e-05
1.05341e-05
1.06574e-05
1.2406e-05
1.26995e-05
1.32856e-05
1.35955e-05
1.36794e-05
1.3999e-05
1.42182e-05
1.41942e-05
1.39007e-05
1.33873e-05
1.3121e-05
1.32307e-05
1.4957e-05
1.526e-05
1.59365e-05
1.63191e-05
1.64618e-05
1.68578e-05
1.71087e-05
1.70603e-05
1.66732e-05
1.60518e-05
1.57792e-05
1.59423e-05
1.76082e-05
1.79107e-05
1.86783e-05
1.9138e-05
1.93483e-05
1.98283e-05
2.01121e-05
2.00339e-05
1.954e-05
1.88021e-05
1.85324e-05
1.87622e-05
2.03356e-05
2.06261e-05
2.14874e-05
2.20299e-05
2.23152e-05
2.28845e-05
2.32025e-05
2.30904e-05
2.24752e-05
2.16122e-05
2.13543e-05
2.16656e-05
2.31223e-05
2.33892e-05
2.43494e-05
2.49827e-05
2.53492e-05
2.60092e-05
2.6363e-05
2.6215e-05
2.54632e-05
2.44657e-05
2.42266e-05
2.46361e-05
2.59608e-05
2.6193e-05
2.72608e-05
2.79958e-05
2.84478e-05
2.91954e-05
2.95856e-05
2.94033e-05
2.85009e-05
2.7357e-05
2.71404e-05
2.7667e-05
2.88534e-05
2.90423e-05
3.02292e-05
3.10788e-05
3.16195e-05
3.24474e-05
3.28726e-05
3.26615e-05
3.1598e-05
3.02923e-05
3.00968e-05
3.07631e-05
3.18154e-05
3.19552e-05
3.32735e-05
3.42526e-05
3.48855e-05
3.5783e-05
3.62375e-05
3.60068e-05
3.47775e-05
3.32886e-05
3.31078e-05
3.39419e-05
3.4875e-05
3.49625e-05
3.64233e-05
3.75483e-05
3.82796e-05
3.92333e-05
3.97054e-05
3.94683e-05
3.80734e-05
3.63735e-05
3.61966e-05
3.72341e-05
3.80721e-05
3.81049e-05
3.97175e-05
4.10059e-05
4.18471e-05
4.28415e-05
4.33121e-05
4.30849e-05
4.15292e-05
3.95827e-05
3.93965e-05
4.06823e-05
4.14544e-05
4.14302e-05
4.32019e-05
4.46726e-05
4.56424e-05
4.66588e-05
4.71005e-05
4.69022e-05
4.51957e-05
4.29586e-05
4.27466e-05
4.43364e-05
4.50738e-05
4.499e-05
4.69278e-05
4.86036e-05
4.97287e-05
5.0743e-05
5.11182e-05
5.09717e-05
4.91308e-05
4.65488e-05
4.629e-05
4.82507e-05
4.89861e-05
4.88414e-05
5.09537e-05
5.28652e-05
5.41828e-05
5.5162e-05
5.54205e-05
5.5354e-05
5.3404e-05
5.04079e-05
5.0074e-05
5.24855e-05
5.32581e-05
5.30538e-05
5.53515e-05
5.75429e-05
5.91084e-05
6.0006e-05
6.00784e-05
6.01273e-05
5.8105e-05
5.46034e-05
5.41546e-05
5.71174e-05
5.79811e-05
5.77216e-05
6.02167e-05
6.27532e-05
6.46557e-05
6.54065e-05
6.51919e-05
6.54005e-05
6.33556e-05
5.92237e-05
5.86047e-05
6.22552e-05
6.32904e-05
6.29798e-05
6.56805e-05
6.86588e-05
7.10442e-05
7.15591e-05
7.09062e-05
7.13258e-05
6.93229e-05
6.43881e-05
6.35258e-05
6.80602e-05
6.93858e-05
6.90212e-05
7.19233e-05
7.54831e-05
7.8585e-05
7.87458e-05
7.74288e-05
7.81132e-05
7.62318e-05
7.02596e-05
6.90609e-05
7.47648e-05
7.655e-05
7.61123e-05
7.91871e-05
8.35269e-05
8.77024e-05
8.73572e-05
8.5049e-05
8.60434e-05
8.43765e-05
7.70566e-05
7.54097e-05
8.26925e-05
8.51639e-05
8.46072e-05
8.77896e-05
9.31816e-05
9.89432e-05
9.78915e-05
9.41415e-05
9.54664e-05
9.41236e-05
8.5067e-05
8.28456e-05
9.2262e-05
9.57014e-05
9.49498e-05
9.81313e-05
0.000104949
0.000113035
0.000110998
0.000105187
0.000106831
0.000105932
9.46563e-05
9.17238e-05
0.000103984
0.000108769
0.000107713
0.000110745
0.000119575
0.000131139
0.000127707
0.000118922
0.000120826
0.000120492
0.000106285
0.000102467
0.000118607
0.000125337
0.00012382
0.000126499
0.000138262
0.000155152
0.000149703
0.000136543
0.000138546
0.00013889
0.000120706
0.000115775
0.000137334
0.000146911
0.000144715
0.00014674
0.000162922
0.000188223
0.000179787
0.000159996
0.00016172
0.000162804
0.000139079
0.000132739
0.0001621
0.000175846
0.00017267
0.000173599
0.000196645
0.00023557
0.00022266
0.000192406
0.000193063
0.000194887
0.000163197
0.000155085
0.000196131
0.000215923
0.000211412
0.00021038
0.000241564
0.00029362
0.00027711
0.000231948
0.000232514
0.000239146
0.000195724
0.000185386
0.000244434
0.000273249
0.00026659
0.000254171
0.000286043
0.000355999
0.000332379
0.000272187
0.000271791
0.000287591
0.00023218
0.00021482
0.000289862
0.000347979
0.000322392
0.000303211
0.000344825
0.000438044
0.000405766
0.000325471
0.000323394
0.000345312
0.000274969
0.000252053
0.000349901
0.0004305
0.000396563
0.000368132
0.000420513
0.000540961
0.000498248
0.000394922
0.000390566
0.000419921
0.000331652
0.000301187
0.000427479
0.000534198
0.000490775
0.000450265
0.00051419
0.000666985
0.000611374
0.000480827
0.000473592
0.000512152
0.000405139
0.000365488
0.000523187
0.000661986
0.000608195
0.000551805
0.000628599
0.000817502
0.000746616
0.000585521
0.000575095
0.00062484
0.000496897
0.000445858
0.000639403
0.000816448
0.000752316
0.000675874
0.000765756
0.000991738
0.000903764
0.000710737
0.000697604
0.000760416
0.000609964
0.000544554
0.000777461
0.000998776
0.000925264
0.000824811
0.000926265
0.00118648
0.00108069
0.000857025
0.000842752
0.000920192
0.000747094
0.000664088
0.00093705
0.00120937
0.00112687
0.000999458
0.00110884
0.00139665
0.00127372
0.00102343
0.00101063
0.00110377
0.000909797
0.000806077
0.00111591
0.00145135
0.0013541
0.00119851
0.00131014
0.00161673
0.00147858
0.0012075
0.00119927
0.0013086
0.00109763
0.000970699
0.00130998
0.001714
0.00160155
0.00141817
0.00152521
0.00184076
0.00169014
0.00140568
0.00140459
0.00152993
0.0013077
0.00115625
0.00151398
0.00198122
0.00186509
0.00165223
0.00174845
0.002015
0.00176558
0.00161305
0.00162091
0.00176112
0.00153458
0.00135902
0.00172261
0.00224101
0.00213231
0.00189295
0.00197355
0.00191528
0.00170864
0.00161041
0.00184193
0.00199455
0.00177087
0.00157368
0.00193056
0.00248556
0.00239316
0.00213238
0.0021521
0.00185956
0.00170736
0.00155224
0.00206041
0.00222279
0.00200827
0.001794
0.00201709
0.00270831
0.00263598
0.00236272
0.00203585
0.0018644
0.00177583
0.00154999
0.00198284
0.00243947
0.00223907
0.00201258
0.00185906
0.00290266
0.0026644
0.00257585
0.001961
0.00192098
0.00190934
0.00160286
0.0018726
0.00263919
0.00245632
0.00212539
0.00176714
0.00306527
0.00252463
0.0026027
0.00193939
0.00202061
0.00210766
0.00170277
0.00182404
0.00281698