/*--------------------------------*- C++ -*----------------------------------*\
| =========                 |                                                 |
| \\      /  F ield         | OpenFOAM: The Open Source CFD Toolbox           |
|  \\    /   O peration     | Version:  v1912                                 |
|   \\  /    A nd           | Website:  www.openfoam.com                      |
|    \\/     M anipulation  |                                                 |
\*---------------------------------------------------------------------------*/
FoamFile
{
    version     2.0;
    format      ascii;
    class       surfaceScalarField;
    location    "10";
    object      phi;
}
// * * * * * * * * * * * * * * * * * * * * * * * * * * * * * * * * * * * * * //

dimensions      [1 0 -1 0 0 0 0];
oriented        oriented;


internalField   nonuniform List<scalar> 
97428
(
-4.33589e-10
9.36486e-09
-2.46877e-07
-1.62454e-09
9.1546e-09
-2.47924e-07
-9.33972e-10
8.59239e-09
-2.52215e-07
2.32287e-10
8.29821e-09
-2.56845e-07
2.18558e-10
8.37078e-09
-2.53102e-07
-2.71809e-10
8.39283e-09
-2.45868e-07
-2.33636e-10
8.23345e-09
-2.48167e-07
4.14879e-10
7.65417e-09
-2.52462e-07
1.35623e-09
7.63653e-09
-2.57184e-07
1.83104e-09
8.12395e-09
-2.62252e-07
-6.18511e-11
9.09234e-09
-2.56987e-07
8.29482e-09
-2.52089e-07
-1.5483e-09
3.7359e-08
-7.64436e-07
-5.0002e-09
3.6144e-08
-7.67857e-07
-2.57936e-09
3.36632e-08
-7.81188e-07
1.08436e-09
3.2626e-08
-7.95155e-07
7.05913e-10
3.34194e-08
-7.83689e-07
-1.23168e-09
3.37188e-08
-7.62078e-07
-1.10759e-09
3.26081e-08
-7.69146e-07
7.63802e-10
3.0354e-08
-7.81966e-07
3.72718e-09
3.00243e-08
-7.95858e-07
5.44474e-09
3.17723e-08
-8.10751e-07
3.80883e-10
3.53618e-08
-7.9488e-07
3.30955e-08
-7.80237e-07
-2.83358e-09
8.39764e-08
-1.31307e-06
-8.44022e-09
8.06897e-08
-1.31945e-06
-4.01015e-09
7.47654e-08
-1.34268e-06
2.22335e-09
7.26252e-08
-1.36614e-06
1.1906e-09
7.51314e-08
-1.34638e-06
-2.49268e-09
7.61511e-08
-1.31029e-06
-2.30055e-09
7.30564e-08
-1.32246e-06
8.13197e-10
6.79558e-08
-1.34386e-06
5.96206e-09
6.68018e-08
-1.36678e-06
9.20871e-09
7.03574e-08
-1.39122e-06
1.30431e-09
7.82009e-08
-1.3643e-06
7.43921e-08
-1.33971e-06
-4.19944e-09
1.48986e-07
-1.89053e-06
-1.18395e-08
1.42354e-07
-1.90065e-06
-5.20901e-09
1.31336e-07
-1.93481e-06
3.53675e-09
1.2779e-07
-1.96783e-06
1.57601e-09
1.33235e-07
-1.93904e-06
-4.00651e-09
1.35582e-07
-1.88852e-06
-3.73739e-09
1.29364e-07
-1.90614e-06
6.96267e-10
1.20125e-07
-1.93616e-06
8.18585e-09
1.1744e-07
-1.96788e-06
1.31689e-08
1.23137e-07
-2.00137e-06
2.62304e-09
1.36954e-07
-1.96289e-06
1.31935e-07
-1.9281e-06
-5.5684e-09
2.31988e-07
-2.49431e-06
-1.51194e-08
2.20554e-07
-2.50912e-06
-6.17309e-09
2.02668e-07
-2.55531e-06
4.92186e-09
1.9744e-07
-2.59781e-06
1.75844e-09
2.07225e-07
-2.55921e-06
-5.77163e-09
2.1166e-07
-2.49444e-06
-5.32956e-09
2.01098e-07
-2.51786e-06
5.70936e-10
1.86317e-07
-2.55648e-06
1.05301e-08
1.81256e-07
-2.59667e-06
1.73212e-08
1.8926e-07
-2.63854e-06
4.2465e-09
2.10875e-07
-2.58796e-06
2.05262e-07
-2.54271e-06
-6.85725e-09
3.32442e-07
-3.12174e-06
-1.82146e-08
3.14595e-07
-3.14226e-06
-6.92069e-09
2.87924e-07
-3.20156e-06
6.26453e-09
2.8072e-07
-3.25331e-06
1.63057e-09
2.96383e-07
-3.2041e-06
-7.7903e-09
3.03798e-07
-3.12545e-06
-6.9799e-09
2.87603e-07
-3.155e-06
5.9632e-10
2.65799e-07
-3.20219e-06
1.31351e-08
2.57414e-07
-3.25039e-06
2.1645e-08
2.6781e-07
-3.29973e-06
6.07172e-09
2.99141e-07
-3.23657e-06
2.93735e-07
-3.18067e-06
-7.97822e-09
4.49696e-07
-3.77013e-06
-2.10715e-08
4.23708e-07
-3.79739e-06
-7.49106e-09
3.86171e-07
-3.87071e-06
7.44025e-09
3.76637e-07
-3.93132e-06
1.08891e-09
3.99807e-07
-3.87076e-06
-1.00611e-08
4.11213e-07
-3.7788e-06
-8.58557e-09
3.88028e-07
-3.81475e-06
9.77587e-10
3.57631e-07
-3.87044e-06
1.61399e-08
3.45013e-07
-3.92612e-06
2.60975e-08
3.57853e-07
-3.98184e-06
7.96943e-09
4.00885e-07
-3.90572e-06
3.96603e-07
-3.83903e-06
-8.84057e-09
5.83023e-07
-4.43683e-06
-2.3646e-08
5.47094e-07
-4.47187e-06
-7.94216e-09
4.96436e-07
-4.5599e-06
8.3182e-09
4.84104e-07
-4.62877e-06
4.23888e-11
5.16453e-07
-4.55623e-06
-1.25723e-08
5.32976e-07
-4.45173e-06
-1.00399e-08
5.0138e-07
-4.49429e-06
1.87794e-09
4.60752e-07
-4.55841e-06
1.96758e-08
4.43093e-07
-4.621e-06
3.06131e-08
4.58505e-07
-4.68187e-06
9.78291e-09
5.15255e-07
-4.59252e-06
5.13054e-07
-4.51498e-06
-9.35272e-09
7.31658e-07
-5.11942e-06
-2.59017e-08
6.83965e-07
-5.16326e-06
-8.34696e-09
6.17767e-07
-5.26643e-06
8.7664e-09
6.02006e-07
-5.34276e-06
-1.58136e-09
6.45203e-07
-5.25772e-06
-1.5297e-08
6.68083e-07
-5.14166e-06
-1.12349e-08
6.26596e-07
-5.19099e-06
3.47373e-09
5.74026e-07
-5.26346e-06
2.38611e-08
5.5072e-07
-5.3324e-06
3.51061e-08
5.68993e-07
-5.39707e-06
1.1331e-08
6.41457e-07
-5.29434e-06
6.42292e-07
-5.20605e-06
-9.42471e-09
8.94842e-07
-5.81588e-06
-2.78083e-08
8.33572e-07
-5.86949e-06
-8.7889e-09
7.49284e-07
-5.98797e-06
8.65694e-09
7.29267e-07
-6.07073e-06
-3.83806e-09
7.84937e-07
-5.97279e-06
-1.81909e-08
8.1552e-07
-5.84636e-06
-1.2065e-08
7.6262e-07
-5.90262e-06
5.93283e-09
6.96295e-07
-5.9833e-06
2.87974e-08
6.67029e-07
-6.05813e-06
3.94738e-08
6.88683e-07
-6.12523e-06
1.24134e-08
7.78802e-07
-6.00903e-06
7.83592e-07
-5.91023e-06
-8.97052e-09
1.07187e-06
-6.52458e-06
-2.9339e-08
9.95227e-07
-6.58893e-06
-9.35703e-09
8.90219e-07
-6.72269e-06
7.8702e-09
8.64914e-07
-6.81064e-06
-6.74451e-09
9.34609e-07
-6.69951e-06
-2.11916e-08
9.74347e-07
-6.56412e-06
-1.24296e-08
9.08458e-07
-6.62746e-06
9.39802e-09
8.26454e-07
-6.71616e-06
3.45658e-08
7.91239e-07
-6.79651e-06
4.3601e-08
8.17086e-07
-6.86463e-06
1.28169e-08
9.26724e-07
-6.73495e-06
9.36328e-07
-6.6261e-06
-7.9104e-09
1.2621e-06
-7.24443e-06
-3.04689e-08
1.16831e-06
-7.32037e-06
-1.01418e-08
1.03992e-06
-7.46924e-06
6.29798e-09
1.00813e-06
-7.56105e-06
-1.02996e-08
1.09333e-06
-7.43654e-06
-2.42191e-08
1.14372e-06
-7.29374e-06
-1.22366e-08
1.06322e-06
-7.36434e-06
1.39848e-08
9.63489e-07
-7.46081e-06
4.12237e-08
9.22642e-07
-7.54637e-06
4.73631e-08
9.53836e-07
-7.61408e-06
1.23223e-08
1.08478e-06
-7.471e-06
1.09998e-06
-7.35282e-06
-6.17341e-09
1.465e-06
-7.97483e-06
-3.11738e-08
1.35224e-06
-8.06307e-06
-1.12314e-08
1.19784e-06
-8.22678e-06
3.84538e-09
1.15827e-06
-8.32108e-06
-1.44746e-08
1.26037e-06
-8.18318e-06
-2.71769e-08
1.32292e-06
-8.03464e-06
-1.1405e-08
1.22612e-06
-8.11268e-06
1.97751e-08
1.1065e-06
-8.21661e-06
4.88017e-08
1.06058e-06
-8.30704e-06
5.06297e-08
1.09865e-06
-8.37285e-06
1.07115e-08
1.25262e-06
-8.21657e-06
1.27412e-06
-8.09012e-06
-3.7005e-09
1.68009e-06
-8.71555e-06
-3.14288e-08
1.54651e-06
-8.81655e-06
-1.27086e-08
1.36351e-06
-8.99475e-06
4.33723e-10
1.31487e-06
-9.09024e-06
-1.92149e-08
1.43524e-06
-8.93919e-06
-2.99533e-08
1.51129e-06
-8.78661e-06
-9.86729e-09
1.39643e-06
-8.87224e-06
2.68115e-08
1.25471e-06
-8.98326e-06
5.72963e-08
1.20442e-06
-9.07803e-06
5.32671e-08
1.25132e-06
-9.14036e-06
7.77561e-09
1.42999e-06
-8.97131e-06
1.45834e-06
-8.83805e-06
-4.49749e-10
1.90694e-06
-9.46647e-06
-3.12087e-08
1.75061e-06
-9.58036e-06
-1.46473e-08
1.53658e-06
-9.77257e-06
-3.99231e-09
1.47764e-06
-9.86818e-06
-2.44399e-08
1.61757e-06
-9.70454e-06
-3.24233e-08
1.70824e-06
-9.54956e-06
-7.57342e-09
1.57347e-06
-9.64283e-06
3.50876e-08
1.4074e-06
-9.76054e-06
6.66632e-08
1.35355e-06
-9.85886e-06
5.51421e-08
1.4117e-06
-9.91599e-06
3.32739e-09
1.61666e-06
-9.73488e-06
1.65222e-06
-9.59674e-06
3.59749e-09
2.14509e-06
-1.02276e-05
-3.049e-08
1.9641e-06
-1.03541e-05
-1.71096e-08
1.71673e-06
-1.05597e-05
-9.49705e-09
1.64641e-06
-1.06546e-05
-3.00458e-08
1.80705e-06
-1.04793e-05
-3.44529e-08
1.91314e-06
-1.03235e-05
-4.49505e-09
1.75656e-06
-1.04243e-05
4.45414e-08
1.56392e-06
-1.05483e-05
7.68126e-08
1.50742e-06
-1.0649e-05
5.61293e-08
1.57973e-06
-1.06991e-05
-2.74967e-09
1.8124e-06
-1.05069e-05
1.85529e-06
-1.03663e-05
8.44642e-09
2.39402e-06
-1.09987e-05
-2.92532e-08
2.18654e-06
-1.11373e-05
-2.01428e-08
1.90369e-06
-1.13556e-05
-1.60775e-08
1.82104e-06
-1.14493e-05
-3.59084e-08
2.00337e-06
-1.12636e-05
-3.5906e-08
2.12527e-06
-1.11082e-05
-6.29745e-10
1.9449e-06
-1.12163e-05
5.50486e-08
1.72356e-06
-1.13461e-05
8.76051e-08
1.66547e-06
-1.14478e-05
5.6118e-08
1.75543e-06
-1.14889e-05
-1.06804e-08
2.01713e-06
-1.1287e-05
2.06683e-06
-1.11467e-05
1.40472e-08
2.65303e-06
-1.17796e-05
-2.74864e-08
2.41745e-06
-1.19292e-05
-2.37759e-08
2.09721e-06
-1.21593e-05
-2.37189e-08
2.00129e-06
-1.22515e-05
-4.1889e-08
2.206e-06
-1.20572e-05
-3.66521e-08
2.34372e-06
-1.19034e-05
3.99464e-09
2.13756e-06
-1.20182e-05
6.64196e-08
1.88554e-06
-1.21535e-05
9.88499e-08
1.82715e-06
-1.22545e-05
5.50211e-08
1.93888e-06
-1.22844e-05
-2.04123e-08
2.23062e-06
-1.20745e-05
2.28603e-06
-1.19376e-05
2.03249e-08
2.92122e-06
-1.25698e-05
-2.51892e-08
2.65629e-06
-1.27292e-05
-2.80174e-08
2.29697e-06
-1.29697e-05
-3.23819e-08
2.18681e-06
-1.30604e-05
-4.7842e-08
2.41419e-06
-1.28594e-05
-3.6578e-08
2.56733e-06
-1.27083e-05
9.31356e-09
2.33343e-06
-1.28291e-05
7.8399e-08
2.04891e-06
-1.29693e-05
1.10306e-07
1.99185e-06
-1.30679e-05
5.27831e-08
2.13018e-06
-1.30846e-05
-3.19234e-08
2.45259e-06
-1.28685e-05
2.51185e-06
-1.27384e-05
2.7163e-08
3.19745e-06
-1.33683e-05
-2.23773e-08
2.90242e-06
-1.3536e-05
-3.28541e-08
2.50255e-06
-1.37854e-05
-4.19928e-08
2.37704e-06
-1.38746e-05
-5.36264e-08
2.62685e-06
-1.36692e-05
-3.56e-08
2.79465e-06
-1.35217e-05
1.52318e-08
2.5312e-06
-1.36475e-05
9.06725e-08
2.21256e-06
-1.3792e-05
1.21689e-07
2.15889e-06
-1.38866e-05
4.93881e-08
2.32936e-06
-1.38881e-05
-4.50938e-08
2.68268e-06
-1.36678e-05
2.74299e-06
-1.35481e-05
3.4404e-08
3.48026e-06
-1.41741e-05
-1.9087e-08
3.15501e-06
-1.43484e-05
-3.82514e-08
2.71344e-06
-1.46047e-05
-5.24497e-08
2.57118e-06
-1.46924e-05
-5.91193e-08
2.84254e-06
-1.44853e-05
-3.36772e-08
3.02394e-06
-1.43423e-05
2.16175e-08
2.72933e-06
-1.44716e-05
1.02879e-07
2.37523e-06
-1.46198e-05
1.32678e-07
2.32744e-06
-1.47088e-05
4.48646e-08
2.53632e-06
-1.46933e-05
-5.97058e-08
2.92036e-06
-1.44711e-05
2.97789e-06
-1.43654e-05
4.18523e-08
3.76791e-06
-1.49855e-05
-1.53789e-08
3.41306e-06
-1.51645e-05
-4.41565e-08
2.92895e-06
-1.54256e-05
-6.36287e-08
2.76826e-06
-1.55118e-05
-6.42311e-08
3.05953e-06
-1.53056e-05
-3.08242e-08
3.25316e-06
-1.51679e-05
2.83089e-08
2.92611e-06
-1.52993e-05
1.14631e-07
2.53554e-06
-1.54503e-05
1.42935e-07
2.4965e-06
-1.55324e-05
3.92893e-08
2.75075e-06
-1.54985e-05
-7.54473e-08
3.16492e-06
-1.52768e-05
3.21472e-06
-1.51884e-05
4.92817e-08
4.05834e-06
-1.58009e-05
-1.13404e-08
3.67533e-06
-1.59825e-05
-5.05031e-08
3.14826e-06
-1.62458e-05
-7.53923e-08
2.96708e-06
-1.63305e-05
-6.89193e-08
3.27575e-06
-1.6128e-05
-2.71208e-08
3.48e-06
-1.59963e-05
3.51213e-08
3.11967e-06
-1.61281e-05
1.25534e-07
2.69199e-06
-1.62809e-05
1.52122e-07
2.66492e-06
-1.63551e-05
3.27858e-08
2.97214e-06
-1.63018e-05
-9.19218e-08
3.41546e-06
-1.60831e-05
3.45141e-06
-1.6015e-05
5.64452e-08
4.3492e-06
-1.66183e-05
-7.08671e-09
3.94033e-06
-1.68002e-05
-5.72177e-08
3.37041e-06
-1.70629e-05
-8.75991e-08
3.16632e-06
-1.71462e-05
-7.32006e-08
3.48894e-06
-1.695e-05
-2.27182e-08
3.7019e-06
-1.68249e-05
4.18558e-08
3.30799e-06
-1.69553e-05
1.35221e-07
2.84306e-06
-1.71089e-05
1.59921e-07
2.83139e-06
-1.71743e-05
2.55197e-08
3.19966e-06
-1.71013e-05
-1.08667e-07
3.67082e-06
-1.68879e-05
3.68566e-06
-1.68429e-05
6.30881e-08
4.63783e-06
-1.74352e-05
-2.75928e-09
4.20637e-06
-1.76153e-05
-6.42267e-08
3.5943e-06
-1.78745e-05
-1.00114e-07
3.36451e-06
-1.79562e-05
-7.71579e-08
3.6966e-06
-1.77689e-05
-1.78398e-08
3.9161e-06
-1.76509e-05
4.83084e-08
3.48894e-06
-1.77781e-05
1.43368e-07
2.9872e-06
-1.79313e-05
1.66057e-07
2.99451e-06
-1.79875e-05
1.76903e-08
3.43225e-06
-1.78949e-05
-1.2518e-07
3.92961e-06
-1.76894e-05
3.91498e-06
-1.76692e-05
6.8963e-08
4.92135e-06
-1.82493e-05
1.47712e-09
4.47157e-06
-1.84254e-05
-7.14628e-08
3.81876e-06
-1.86783e-05
-1.12816e-07
3.56013e-06
-1.87581e-05
-8.09413e-08
3.8961e-06
-1.85818e-05
-1.27763e-08
4.11966e-06
-1.84714e-05
5.42797e-08
3.66031e-06
-1.85937e-05
1.49724e-07
3.12288e-06
-1.87451e-05
1.70314e-07
3.15279e-06
-1.87919e-05
9.51802e-09
3.66855e-06
-1.8681e-05
-1.40944e-07
4.19018e-06
-1.84855e-05
4.13672e-06
-1.84913e-05
7.38451e-08
5.19666e-06
-1.90582e-05
5.44496e-09
4.73385e-06
-1.9228e-05
-7.88705e-08
4.04252e-06
-1.9472e-05
-1.25607e-07
3.75161e-06
-1.95496e-05
-8.47625e-08
4.08474e-06
-1.9386e-05
-7.87476e-09
4.30957e-06
-1.92834e-05
5.95829e-08
3.81984e-06
-1.93994e-05
1.5412e-07
3.24867e-06
-1.95477e-05
1.7255e-07
3.30475e-06
-1.95853e-05
1.22347e-09
3.90696e-06
-1.94576e-05
-1.55466e-07
4.45065e-06
-1.92742e-05
4.34817e-06
-1.93061e-05
7.75464e-08
5.46053e-06
-1.98591e-05
8.96429e-09
4.99105e-06
-2.00209e-05
-8.64086e-08
4.26429e-06
-2.02535e-05
-1.38414e-07
3.93737e-06
-2.03284e-05
-8.88827e-08
4.25982e-06
-2.01786e-05
-3.52129e-09
4.48276e-06
-2.0084e-05
6.40495e-08
3.96528e-06
-2.01925e-05
1.5648e-07
3.36324e-06
-2.03363e-05
1.72698e-07
3.4489e-06
-2.03652e-05
-6.95637e-09
4.14559e-06
-2.02233e-05
-1.68299e-07
4.70894e-06
-2.00535e-05
4.54662e-06
-2.01106e-05
7.99282e-08
5.70971e-06
-2.06495e-05
1.18517e-08
5.24091e-06
-2.08018e-05
-9.40511e-08
4.48275e-06
-2.10208e-05
-1.5119e-07
4.11586e-06
-2.10925e-05
-9.35933e-08
4.41871e-06
-2.0957e-05
-1.1961e-10
4.63624e-06
-2.08703e-05
6.7533e-08
4.09439e-06
-2.09706e-05
1.56816e-07
3.4654e-06
-2.11087e-05
1.70774e-07
3.58384e-06
-2.11296e-05
-1.48052e-08
4.38235e-06
-2.09766e-05
-1.79076e-07
4.96277e-06
-2.08218e-05
4.72946e-06
-2.09022e-05
8.09095e-08
5.94096e-06
-2.14272e-05
1.39423e-08
5.48119e-06
-2.15687e-05
-1.01785e-07
4.69657e-06
-2.17726e-05
-1.63911e-07
4.28565e-06
-2.18401e-05
-9.91928e-08
4.559e-06
-2.17187e-05
1.93446e-09
4.76717e-06
-2.164e-05
6.99109e-08
4.20507e-06
-2.17318e-05
1.55218e-07
3.55416e-06
-2.1863e-05
1.6686e-07
3.7083e-06
-2.18769e-05
-2.21882e-08
4.61496e-06
-2.17162e-05
-1.87523e-07
5.2097e-06
-2.15773e-05
4.89426e-06
-2.16781e-05
8.04717e-08
6.15125e-06
-2.21898e-05
1.50939e-08
5.7097e-06
-2.23199e-05
-1.09604e-07
4.90446e-06
-2.25075e-05
-1.76568e-07
4.44541e-06
-2.257e-05
-1.05959e-07
4.67855e-06
-2.24617e-05
2.27968e-09
4.87296e-06
-2.23908e-05
7.10839e-08
4.29532e-06
-2.24743e-05
1.51839e-07
3.62871e-06
-2.25977e-05
1.61098e-07
3.82116e-06
-2.26057e-05
-2.89721e-08
4.84104e-06
-2.24411e-05
-1.93477e-07
5.44721e-06
-2.23187e-05
5.0389e-06
-2.24362e-05
7.86586e-08
6.33779e-06
-2.29356e-05
1.52069e-08
5.9244e-06
-2.30538e-05
-1.17507e-07
5.10521e-06
-2.32246e-05
-1.89158e-07
4.59397e-06
-2.32812e-05
-1.14123e-07
4.77562e-06
-2.31844e-05
6.15018e-10
4.95139e-06
-2.31211e-05
7.09756e-08
4.36339e-06
-2.31968e-05
1.46871e-07
3.68848e-06
-2.33119e-05
1.53672e-07
3.92151e-06
-2.33151e-05
-3.50803e-08
5.05816e-06
-2.31505e-05
-1.96884e-07
5.67272e-06
-2.30447e-05
5.16165e-06
-2.31747e-05
7.55722e-08
6.4982e-06
-2.3663e-05
1.42264e-08
6.12344e-06
-2.37696e-05
-1.25483e-07
5.29768e-06
-2.39235e-05
-2.01676e-07
4.73041e-06
-2.3973e-05
-1.23837e-07
4.84891e-06
-2.38859e-05
-3.27621e-09
5.00069e-06
-2.38298e-05
6.95305e-08
4.40775e-06
-2.38987e-05
1.40524e-07
3.73311e-06
-2.4005e-05
1.44788e-07
4.00868e-06
-2.40047e-05
-4.04877e-08
5.26392e-06
-2.3844e-05
-1.97797e-07
5.88372e-06
-2.37544e-05
5.26124e-06
-2.38921e-05
7.13641e-08
6.63058e-06
-2.43711e-05
1.21432e-08
6.30527e-06
-2.44665e-05
-1.33508e-07
5.48086e-06
-2.4604e-05
-2.14095e-07
4.854e-06
-2.46455e-05
-1.35159e-07
4.89762e-06
-2.45655e-05
-9.50501e-09
5.01958e-06
-2.45162e-05
6.67144e-08
4.42719e-06
-2.45796e-05
1.33004e-07
3.76244e-06
-2.46771e-05
1.34658e-07
4.08224e-06
-2.46746e-05
-4.52176e-08
5.45602e-06
-2.45212e-05
-1.96362e-07
6.07782e-06
-2.44473e-05
5.3369e-06
-2.45879e-05
6.62245e-08
6.73361e-06
-2.50594e-05
9.01872e-09
6.46864e-06
-2.51444e-05
-1.41536e-07
5.65389e-06
-2.52664e-05
-2.2636e-07
4.96426e-06
-2.5299e-05
-1.48026e-07
4.92148e-06
-2.52236e-05
-1.80612e-08
5.00738e-06
-2.51804e-05
6.25157e-08
4.42086e-06
-2.52397e-05
1.24496e-07
3.7765e-06
-2.53289e-05
1.23484e-07
4.14203e-06
-2.53252e-05
-4.93364e-08
5.63237e-06
-2.51822e-05
-1.92802e-07
6.25281e-06
-2.5123e-05
5.3884e-06
-2.52619e-05
6.03689e-08
6.80658e-06
-2.57278e-05
4.94503e-09
6.61268e-06
-2.58036e-05
-1.49488e-07
5.81606e-06
-2.59114e-05
-2.38375e-07
5.06093e-06
-2.59343e-05
-1.62248e-07
4.92068e-06
-2.58608e-05
-2.88049e-08
4.96397e-06
-2.58231e-05
5.69512e-08
4.38829e-06
-2.58796e-05
1.15159e-07
3.77551e-06
-2.59613e-05
1.11448e-07
4.18815e-06
-2.59576e-05
-5.29449e-08
5.79114e-06
-2.58275e-05
-1.87398e-07
6.40673e-06
-2.57817e-05
5.41601e-06
-2.59145e-05
5.4025e-08
6.84948e-06
-2.6377e-05
1.02763e-10
6.73689e-06
-2.64448e-05
-1.57251e-07
5.96687e-06
-2.65401e-05
-2.49993e-07
5.144e-06
-2.65526e-05
-1.77506e-07
4.89593e-06
-2.64786e-05
-4.14651e-08
4.88986e-06
-2.64455e-05
5.00629e-08
4.32956e-06
-2.65007e-05
1.05116e-07
3.75989e-06
-2.65758e-05
9.87094e-08
4.22095e-06
-2.65731e-05
-5.61694e-08
5.93084e-06
-2.64578e-05
-1.8047e-07
6.53797e-06
-2.64238e-05
5.4205e-06
-2.65467e-05
4.74194e-08
6.86276e-06
-2.7008e-05
-5.32512e-09
6.84122e-06
-2.70692e-05
-1.64674e-07
6.10607e-06
-2.71538e-05
-2.61015e-07
5.21384e-06
-2.71557e-05
-1.93355e-07
4.84855e-06
-2.7079e-05
-5.5642e-08
4.78639e-06
-2.70496e-05
4.19521e-08
4.24546e-06
-2.71045e-05
9.44672e-08
3.73049e-06
-2.71745e-05
8.5403e-08
4.2412e-06
-2.71737e-05
-5.91516e-08
6.0505e-06
-2.70741e-05
-1.72364e-07
6.64542e-06
-2.70503e-05
5.40329e-06
-2.71603e-05
4.07695e-08
6.84776e-06
-2.76225e-05
-1.10925e-08
6.92614e-06
-2.76786e-05
-1.71578e-07
6.23368e-06
-2.77545e-05
-2.71198e-07
5.27107e-06
-2.77458e-05
-2.09239e-07
4.78035e-06
-2.76644e-05
-7.08167e-08
4.65568e-06
-2.76377e-05
3.2761e-08
4.13744e-06
-2.76931e-05
8.32973e-08
3.68843e-06
-2.77596e-05
7.16383e-08
4.24994e-06
-2.77614e-05
-6.20415e-08
6.14958e-06
-2.76779e-05
-1.63444e-07
6.72849e-06
-2.76625e-05
5.36635e-06
-2.77575e-05
3.42676e-08
6.80645e-06
-2.82226e-05
-1.6944e-08
6.99245e-06
-2.8275e-05
-1.7777e-07
6.34973e-06
-2.8344e-05
-2.80283e-07
5.31625e-06
-2.83251e-05
-2.24567e-07
4.69329e-06
-2.82376e-05
-8.64343e-08
4.50029e-06
-2.82124e-05
2.26366e-08
4.00742e-06
-2.8269e-05
7.16365e-08
3.63488e-06
-2.83335e-05
5.74753e-08
4.24824e-06
-2.83386e-05
-6.49867e-08
6.22784e-06
-2.82711e-05
-1.54047e-07
6.78686e-06
-2.8262e-05
5.31179e-06
-2.83408e-05
2.80555e-08
6.74109e-06
-2.88107e-05
-2.26264e-08
7.04106e-06
-2.88607e-05
-1.83033e-07
6.45436e-06
-2.89247e-05
-2.87984e-07
5.35001e-06
-2.8896e-05
-2.38758e-07
4.58931e-06
-2.88016e-05
-1.01938e-07
4.32302e-06
-2.87768e-05
1.1749e-08
3.8575e-06
-2.88348e-05
5.94927e-08
3.57095e-06
-2.8899e-05
4.29623e-08
4.23716e-06
-2.8908e-05
-6.81253e-08
6.28544e-06
-2.88553e-05
-1.44482e-07
6.82057e-06
-2.88507e-05
5.2417e-06
-2.8913e-05
2.22357e-08
6.65415e-06
-2.93895e-05
-2.78778e-08
7.07308e-06
-2.94382e-05
-1.87135e-07
6.54782e-06
-2.94987e-05
-2.94007e-07
5.37307e-06
-2.94611e-05
-2.51241e-07
4.47043e-06
-2.93592e-05
-1.16762e-07
4.12683e-06
-2.93338e-05
3.19351e-10
3.69009e-06
-2.93932e-05
4.69147e-08
3.49774e-06
-2.94586e-05
2.81471e-08
4.21786e-06
-2.94719e-05
-7.1587e-08
6.32295e-06
-2.94327e-05
-1.35065e-07
6.83007e-06
-2.94306e-05
5.15826e-06
-2.9477e-05
1.688e-08
6.54823e-06
-2.99617e-05
-3.24545e-08
7.08973e-06
-3.00098e-05
-1.89866e-07
6.63045e-06
-3.00682e-05
-2.98096e-07
5.38617e-06
-3.00227e-05
-2.61518e-07
4.33864e-06
-2.99133e-05
-1.30397e-07
3.91482e-06
-2.98863e-05
-1.14267e-08
3.50785e-06
-2.99468e-05
3.39254e-08
3.41648e-06
-3.0015e-05
1.30785e-08
4.19153e-06
-3.00327e-05
-7.5487e-08
6.34128e-06
-3.00053e-05
-1.26079e-07
6.81623e-06
-3.0004e-05
5.06361e-06
-3.00356e-05
1.20166e-08
6.42602e-06
-3.05299e-05
-3.61538e-08
7.09228e-06
-3.05781e-05
-1.91047e-07
6.70264e-06
-3.06357e-05
-3.00046e-07
5.39e-06
-3.05833e-05
-2.69212e-07
4.1958e-06
-3.04666e-05
-1.42425e-07
3.69004e-06
-3.04373e-05
-2.32624e-08
3.3135e-06
-3.04985e-05
2.05813e-08
3.32839e-06
-3.05705e-05
-2.25055e-09
4.15934e-06
-3.05929e-05
-7.99232e-08
6.34157e-06
-3.05752e-05
-1.17768e-07
6.7802e-06
-3.05732e-05
4.95969e-06
-3.05916e-05
7.63444e-09
6.29001e-06
-3.10967e-05
-3.88202e-08
7.08189e-06
-3.11454e-05
-1.90541e-07
6.76476e-06
-3.12031e-05
-2.99717e-07
5.38524e-06
-3.11451e-05
-2.74074e-07
4.04353e-06
-3.10215e-05
-1.52529e-07
3.45534e-06
-3.09891e-05
-3.49657e-08
3.10976e-06
-3.10506e-05
6.94024e-09
3.23465e-06
-3.11274e-05
-1.77608e-08
4.12236e-06
-3.11546e-05
-8.49748e-08
6.32519e-06
-3.11447e-05
-1.10331e-07
6.72334e-06
-3.11404e-05
4.8482e-06
-3.11477e-05
3.69021e-09
6.14245e-06
-3.16644e-05
-4.03488e-08
7.05955e-06
-3.17139e-05
-1.88252e-07
6.81712e-06
-3.17726e-05
-2.97027e-07
5.37243e-06
-3.17101e-05
-2.75977e-07
3.88322e-06
-3.158e-05
-1.60492e-07
3.21325e-06
-3.15441e-05
-4.63271e-08
2.89922e-06
-3.16053e-05
-6.93243e-09
3.13644e-06
-3.16876e-05
-3.34394e-08
4.08155e-06
-3.17196e-05
-9.0703e-08
6.29357e-06
-3.17156e-05
-1.03921e-07
6.6471e-06
-3.1708e-05
4.73047e-06
-3.1706e-05
1.06515e-10
5.98523e-06
-3.22352e-05
-4.06839e-08
7.02599e-06
-3.22854e-05
-1.84126e-07
6.85993e-06
-3.23457e-05
-2.91941e-07
5.352e-06
-3.22798e-05
-2.74883e-07
3.71601e-06
-3.21438e-05
-1.66183e-07
2.96602e-06
-3.21041e-05
-5.71564e-08
2.68431e-06
-3.21647e-05
-2.09683e-08
3.03493e-06
-3.22528e-05
-4.92695e-08
4.03775e-06
-3.22897e-05
-9.71529e-08
6.24817e-06
-3.22898e-05
-9.86458e-08
6.55298e-06
-3.2278e-05
4.60749e-06
-3.22687e-05
-3.23672e-09
5.8199e-06
-3.28106e-05
-3.98122e-08
6.98164e-06
-3.28616e-05
-1.78135e-07
6.89328e-06
-3.2924e-05
-2.84444e-07
5.32425e-06
-3.28557e-05
-2.70801e-07
3.54279e-06
-3.27144e-05
-1.69523e-07
2.71556e-06
-3.26706e-05
-6.72866e-08
2.46736e-06
-3.27302e-05
-3.50873e-08
2.93124e-06
-3.28243e-05
-6.52397e-08
3.99169e-06
-3.28659e-05
-1.04355e-07
6.19039e-06
-3.28688e-05
-9.4577e-08
6.44238e-06
-3.28521e-05
4.47991e-06
-3.28372e-05
-6.24516e-09
5.64742e-06
-3.3392e-05
-3.77498e-08
6.9268e-06
-3.34438e-05
-1.70255e-07
6.91706e-06
-3.35088e-05
-2.74511e-07
5.28933e-06
-3.34388e-05
-2.63734e-07
3.3642e-06
-3.32927e-05
-1.70461e-07
2.46345e-06
-3.32448e-05
-7.6579e-08
2.25048e-06
-3.33031e-05
-4.92146e-08
2.82654e-06
-3.34033e-05
-8.13421e-08
3.94398e-06
-3.34496e-05
-1.1233e-07
6.12155e-06
-3.3454e-05
-9.17696e-08
6.31666e-06
-3.3432e-05
4.34813e-06
-3.34128e-05
-9.20279e-09
5.46859e-06
-3.39807e-05
-3.45287e-08
6.86135e-06
-3.40331e-05
-1.60459e-07
6.93099e-06
-3.41008e-05
-2.62073e-07
5.24728e-06
-3.40301e-05
-2.53642e-07
3.18039e-06
-3.38793e-05
-1.68946e-07
2.21081e-06
-3.38271e-05
-8.49276e-08
2.03526e-06
-3.3884e-05
-6.32824e-08
2.722e-06
-3.39907e-05
-9.75673e-08
3.89511e-06
-3.40414e-05
-1.21087e-07
6.04285e-06
-3.40465e-05
-9.02773e-08
6.17706e-06
-3.40187e-05
4.21188e-06
-3.39959e-05
-1.21485e-08
5.28378e-06
-3.45772e-05
-3.01812e-08
6.78497e-06
-3.46303e-05
-1.48697e-07
6.9346e-06
-3.47009e-05
-2.47008e-07
5.19775e-06
-3.463e-05
-2.40427e-07
2.99118e-06
-3.44746e-05
-1.64907e-07
1.95854e-06
-3.44183e-05
-9.22371e-08
1.82298e-06
-3.44733e-05
-7.72319e-08
2.61854e-06
-3.4587e-05
-1.13897e-07
3.84553e-06
-3.46421e-05
-1.30633e-07
5.95538e-06
-3.46471e-05
-9.01458e-08
6.0247e-06
-3.46133e-05
4.07011e-06
-3.45868e-05
-1.51268e-08
5.09273e-06
-3.51819e-05
-2.47327e-08
6.69681e-06
-3.52356e-05
-1.34894e-07
6.92721e-06
-3.53097e-05
-2.29171e-07
5.1399e-06
-3.52386e-05
-2.24005e-07
2.79638e-06
-3.50791e-05
-1.58277e-07
1.70768e-06
-3.50192e-05
-9.83947e-08
1.61508e-06
-3.50721e-05
-9.09974e-08
2.51673e-06
-3.51922e-05
-1.30301e-07
3.79566e-06
-3.52523e-05
-1.4098e-07
5.86018e-06
-3.52565e-05
-9.14131e-08
5.86016e-06
-3.52161e-05
3.9215e-06
-3.51859e-05
-1.82425e-08
4.89464e-06
-3.57949e-05
-1.82358e-08
6.59533e-06
-3.58491e-05
-1.18974e-07
6.90753e-06
-3.59272e-05
-2.08466e-07
5.07269e-06
-3.58562e-05
-2.04372e-07
2.59597e-06
-3.56935e-05
-1.49032e-07
1.45942e-06
-3.56305e-05
-1.0327e-07
1.41321e-06
-3.56812e-05
-1.04476e-07
2.41715e-06
-3.58069e-05
-1.46729e-07
3.74578e-06
-3.58724e-05
-1.52107e-07
5.75821e-06
-3.58754e-05
-9.41547e-08
5.68365e-06
-3.58273e-05
3.76499e-06
-3.57941e-05
-2.16027e-08
4.68886e-06
-3.64167e-05
-1.08006e-08
6.4789e-06
-3.6471e-05
-1.00918e-07
6.87392e-06
-3.65532e-05
-1.84639e-07
4.995e-06
-3.64832e-05
-1.81189e-07
2.39021e-06
-3.63183e-05
-1.37e-07
1.2154e-06
-3.6253e-05
-1.06714e-07
1.21931e-06
-3.63016e-05
-1.17529e-07
2.32063e-06
-3.64319e-05
-1.63112e-07
3.69607e-06
-3.65025e-05
-1.64133e-07
5.65036e-06
-3.65039e-05
-9.86379e-08
5.49614e-06
-3.64474e-05
3.60019e-06
-3.64119e-05
-2.5206e-08
4.47533e-06
-3.70475e-05
-2.34841e-09
6.34644e-06
-3.71018e-05
-8.05892e-08
6.82513e-06
-3.71881e-05
-1.57273e-07
4.90585e-06
-3.71201e-05
-1.54055e-07
2.17979e-06
-3.6954e-05
-1.22039e-07
9.77811e-07
-3.68872e-05
-1.0858e-07
1.03556e-06
-3.69341e-05
-1.29989e-07
2.22817e-06
-3.70677e-05
-1.79309e-07
3.64668e-06
-3.71431e-05
-1.77083e-07
5.53766e-06
-3.71422e-05
-1.05034e-07
5.29926e-06
-3.70772e-05
3.42719e-06
-3.70406e-05
-2.92371e-08
4.25441e-06
-3.76883e-05
7.22573e-09
6.19719e-06
-3.77418e-05
-5.76141e-08
6.75995e-06
-3.78319e-05
-1.26134e-07
4.80475e-06
-3.7767e-05
-1.23179e-07
1.96599e-06
-3.76011e-05
-1.04362e-07
7.49004e-07
-3.75339e-05
-1.08784e-07
8.63976e-07
-3.75792e-05
-1.41673e-07
2.14095e-06
-3.77152e-05
-1.95124e-07
3.59789e-06
-3.77947e-05
-1.90586e-07
5.42125e-06
-3.77909e-05
-1.13116e-07
5.09481e-06
-3.77178e-05
3.24637e-06
-3.7681e-05
-3.4168e-08
4.0266e-06
-3.83399e-05
1.76341e-08
6.03038e-06
-3.8392e-05
-3.18614e-08
6.67699e-06
-3.84852e-05
-9.12457e-08
4.69159e-06
-3.84245e-05
-8.89833e-08
1.75055e-06
-3.82602e-05
-8.43202e-08
5.31181e-07
-3.81936e-05
-1.07312e-07
7.06238e-07
-3.82374e-05
-1.5239e-07
2.06015e-06
-3.8375e-05
-2.10347e-07
3.55011e-06
-3.8458e-05
-2.04284e-07
5.30213e-06
-3.84507e-05
-1.22563e-07
4.88441e-06
-3.83704e-05
3.05822e-06
-3.8334e-05
-4.03732e-08
3.7924e-06
-3.90031e-05
2.83717e-08
5.84519e-06
-3.90533e-05
-3.65167e-09
6.57475e-06
-3.91485e-05
-5.29065e-08
4.56632e-06
-3.90929e-05
-5.20123e-08
1.53541e-06
-3.89318e-05
-6.23067e-08
3.26254e-07
-3.88667e-05
-1.04181e-07
5.63611e-07
-3.89093e-05
-1.61954e-07
1.98684e-06
-3.90476e-05
-2.24664e-07
3.5038e-06
-3.91336e-05
-2.17813e-07
5.18127e-06
-3.91221e-05
-1.33058e-07
4.66949e-06
-3.90357e-05
2.86323e-06
-3.90002e-05
-4.80781e-08
3.55228e-06
-3.96787e-05
3.896e-08
5.64093e-06
-3.97265e-05
2.65607e-08
6.45166e-06
-3.98226e-05
-1.1588e-08
4.42889e-06
-3.97726e-05
-1.2868e-08
1.32249e-06
-3.96161e-05
-3.8714e-08
1.35748e-07
-3.95535e-05
-9.94218e-08
4.369e-07
-3.9595e-05
-1.70186e-07
1.92196e-06
-3.97335e-05
-2.37713e-07
3.45938e-06
-3.98219e-05
-2.30759e-07
5.05949e-06
-3.98058e-05
-1.44261e-07
4.45137e-06
-3.97144e-05
2.66196e-06
-3.96802e-05
-5.73679e-08
3.30674e-06
-4.03673e-05
4.89824e-08
5.41707e-06
-4.04122e-05
5.82057e-08
6.30623e-06
-4.05081e-05
3.21074e-08
4.27921e-06
-4.0464e-05
2.78102e-08
1.1136e-06
-4.03136e-05
-1.39089e-08
-3.92562e-08
-4.02543e-05
-9.30784e-08
3.26491e-07
-4.02948e-05
-1.76921e-07
1.86624e-06
-4.0433e-05
-2.49189e-07
3.41713e-06
-4.05235e-05
-2.42711e-07
4.93739e-06
-4.05027e-05
-1.55799e-07
4.23129e-06
-4.0407e-05
2.45502e-06
-4.03742e-05
-6.82007e-08
3.0564e-06
-4.10695e-05
5.80815e-08
5.17336e-06
-4.11112e-05
9.06729e-08
6.13719e-06
-4.12057e-05
7.74684e-08
4.11719e-06
-4.11674e-05
6.93652e-08
9.10329e-07
-4.10246e-05
1.17589e-08
-1.98137e-07
-4.09693e-05
-8.52037e-08
2.32371e-07
-4.10088e-05
-1.82002e-07
1.82016e-06
-4.11465e-05
-2.58831e-07
3.37711e-06
-4.12384e-05
-2.53283e-07
4.81537e-06
-4.1213e-05
-1.67266e-07
4.01042e-06
-4.11139e-05
2.2432e-06
-4.10827e-05
-8.04201e-08
2.80196e-06
-4.17858e-05
6.59558e-08
4.90992e-06
-4.1824e-05
1.2329e-07
5.94361e-06
-4.1916e-05
1.23696e-07
3.94278e-06
-4.18832e-05
1.11145e-07
7.13974e-07
-4.17493e-05
3.80499e-08
-3.40822e-07
-4.16986e-05
-7.58661e-08
1.54277e-07
-4.17374e-05
-1.85282e-07
1.78392e-06
-4.18742e-05
-2.66416e-07
3.33923e-06
-4.1967e-05
-2.62112e-07
4.69363e-06
-4.19373e-05
-1.78237e-07
3.78984e-06
-4.18354e-05
2.02743e-06
-4.18057e-05
-9.377e-08
2.54432e-06
-4.25166e-05
7.23592e-08
4.62728e-06
-4.2551e-05
1.55336e-07
5.72497e-06
-4.26395e-05
1.69917e-07
3.75603e-06
-4.26117e-05
1.52646e-07
5.25316e-07
-4.24881e-05
6.47594e-08
-4.67629e-07
-4.24425e-05
-6.51568e-08
9.17701e-08
-4.24806e-05
-1.86621e-07
1.75749e-06
-4.26164e-05
-2.71716e-07
3.30332e-06
-4.27095e-05
-2.68851e-07
4.57222e-06
-4.26759e-05
-1.88326e-07
3.57058e-06
-4.25717e-05
1.80876e-06
-4.25436e-05
-1.0791e-07
2.28456e-06
-4.32624e-05
7.71027e-08
4.32637e-06
-4.32928e-05
1.86062e-07
5.48128e-06
-4.33769e-05
2.15194e-07
3.55709e-06
-4.33533e-05
1.93501e-07
3.4434e-07
-4.32411e-05
9.18354e-08
-5.79189e-07
-4.3201e-05
-5.31859e-08
4.4432e-08
-4.32388e-05
-1.85884e-07
1.74049e-06
-4.33734e-05
-2.74423e-07
3.26906e-06
-4.34664e-05
-2.73158e-07
4.45109e-06
-4.34287e-05
-1.97278e-07
3.35388e-06
-4.3323e-05
1.5884e-06
-4.32966e-05
-1.22432e-07
2.02388e-06
-4.40235e-05
8.00561e-08
4.00863e-06
-4.40498e-05
2.14722e-07
5.21307e-06
-4.41286e-05
2.58807e-07
3.34594e-06
-4.41085e-05
2.33472e-07
1.70347e-07
-4.40086e-05
1.19054e-07
-6.76101e-07
-4.39744e-05
-4.00889e-08
1.17283e-08
-4.40123e-05
-1.82947e-07
1.7323e-06
-4.41453e-05
-2.74208e-07
3.23594e-06
-4.42378e-05
-2.74782e-07
4.33029e-06
-4.4196e-05
-2.04862e-07
3.14121e-06
-4.40894e-05
1.36776e-06
-4.40649e-05
-1.36885e-07
1.76352e-06
-4.48002e-05
8.11438e-08
3.6759e-06
-4.48224e-05
2.40614e-07
4.9214e-06
-4.48952e-05
3.00196e-07
3.12231e-06
-4.48777e-05
2.72311e-07
2.2083e-09
-4.47905e-05
1.46086e-07
-7.58909e-07
-4.4763e-05
-2.60365e-08
-7.054e-09
-4.48011e-05
-1.77703e-07
1.73196e-06
-4.49325e-05
-2.70745e-07
3.20322e-06
-4.50241e-05
-2.73501e-07
4.21006e-06
-4.49779e-05
-2.10818e-07
2.93411e-06
-4.48711e-05
1.14836e-06
-4.48486e-05
-1.50797e-07
1.5047e-06
-4.55927e-05
8.03374e-08
3.3305e-06
-4.56111e-05
2.631e-07
4.60785e-06
-4.56772e-05
3.38708e-07
2.88574e-06
-4.56616e-05
3.09556e-07
-1.61426e-07
-4.55873e-05
1.7257e-07
-8.28302e-07
-4.5567e-05
-1.12333e-08
-1.28052e-08
-4.56057e-05
-1.70069e-07
1.73819e-06
-4.57352e-05
-2.63711e-07
3.16988e-06
-4.58255e-05
-2.68986e-07
4.09062e-06
-4.57746e-05
-2.14895e-07
2.73414e-06