/*--------------------------------*- C++ -*----------------------------------*\
| =========                 |                                                 |
| \\      /  F ield         | OpenFOAM: The Open Source CFD Toolbox           |
|  \\    /   O peration     | Version:  v1912                                 |
|   \\  /    A nd           | Website:  www.openfoam.com                      |
|    \\/     M anipulation  |                                                 |
\*---------------------------------------------------------------------------*/
FoamFile
{
    version     2.0;
    format      ascii;
    class       volScalarField;
    location    "10";
    object      T;
}
// * * * * * * * * * * * * * * * * * * * * * * * * * * * * * * * * * * * * * //

dimensions      [0 0 0 1 0 0 0];


internalField   nonuniform List<scalar> 
34128
(
371.825
371.837
371.857
371.857
371.854
371.871
371.873
371.857
371.827
371.797
371.807
371.827
369.467
369.5
369.556
369.557
369.551
369.603
369.606
369.559
369.466
369.377
369.41
369.471
367.086
367.133
367.22
367.22
367.215
367.304
367.304
367.227
367.07
366.92
366.982
367.083
364.694
364.746
364.853
364.852
364.854
364.982
364.971
364.866
364.646
364.435
364.532
364.673
362.309
362.356
362.467
362.464
362.482
362.646
362.618
362.49
362.21
361.939
362.077
362.255
359.956
359.988
360.085
360.077
360.119
360.317
360.263
360.12
359.787
359.463
359.644
359.853
357.663
357.676
357.74
357.724
357.793
358.019
357.937
357.787
357.415
357.048
357.27
357.502
355.465
355.461
355.478
355.446
355.542
355.791
355.679
355.53
355.14
354.745
355
355.243
353.399
353.384
353.345
353.29
353.407
353.676
353.539
353.394
353.012
352.608
352.882
353.125
351.5
351.484
351.389
351.303
351.431
351.717
351.564
351.425
351.078
350.683
350.96
351.193
349.8
349.789
349.646
349.524
349.652
349.954
349.794
349.66
349.37
349.002
349.267
349.483
348.318
348.316
348.139
347.98
348.1
348.415
348.259
348.127
347.906
347.579
347.82
348.015
347.062
347.066
346.868
346.682
346.79
347.113
346.966
346.836
346.682
346.404
346.616
346.792
346.027
346.03
345.827
345.627
345.723
346.042
345.911
345.783
345.684
345.458
345.642
345.801
345.201
345.195
345
344.806
344.893
345.192
345.078
344.957
344.895
344.718
344.877
345.022
344.562
344.541
344.367
344.195
344.275
344.54
344.445
344.335
344.293
344.159
344.295
344.428
344.084
344.048
343.9
343.764
343.838
344.058
343.981
343.886
343.85
343.754
343.868
343.988
343.738
343.689
343.573
343.475
343.542
343.714
343.652
343.576
343.54
343.475
343.567
343.672
343.495
343.44
343.354
343.291
343.35
343.474
343.427
343.37
343.336
343.294
343.364
343.45
343.329
343.276
343.217
343.181
343.228
343.313
343.278
343.238
343.21
343.185
343.232
343.299
343.22
343.174
343.136
343.118
343.152
343.207
343.182
343.156
343.138
343.124
343.152
343.199
343.15
343.115
343.092
343.083
343.105
343.139
343.123
343.108
343.099
343.093
343.105
343.134
343.106
343.083
343.07
343.064
343.076
343.096
343.088
343.081
343.079
343.076
343.078
343.094
343.081
343.067
343.058
343.052
343.058
343.071
343.068
343.065
343.067
343.065
343.062
343.069
343.065
343.058
343.051
343.045
343.047
343.056
343.057
343.056
343.059
343.057
343.052
343.054
343.056
343.052
343.046
343.04
343.041
343.048
343.05
343.05
343.052
343.05
343.045
343.044
343.049
343.046
343.041
343.035
343.036
343.043
343.045
343.044
343.045
343.042
343.038
343.037
343.043
343.041
343.035
343.031
343.033
343.039
343.039
343.038
343.038
343.035
343.033
343.031
343.037
343.035
343.03
343.026
343.029
343.035
343.034
343.031
343.03
343.029
343.028
343.026
343.031
343.029
343.024
343.021
343.024
343.029
343.028
343.025
343.023
343.023
343.023
343.021
343.025
343.024
343.019
343.017
343.02
343.024
343.022
343.019
343.017
343.017
343.019
343.016
343.019
343.018
343.014
343.013
343.015
343.019
343.017
343.014
343.012
343.013
343.015
343.012
343.014
343.014
343.01
343.009
343.011
343.014
343.013
343.01
343.008
343.009
343.011
343.008
343.01
343.009
343.007
343.006
343.008
343.01
343.009
343.006
343.005
343.006
343.008
343.005
343.007
343.006
343.005
343.004
343.005
343.006
343.006
343.004
343.002
343.003
343.005
343.003
343.004
343.004
343.003
343.003
343.003
343.004
343.004
343.002
343.001
343.002
343.003
343.002
343.002
343.002
343.002
343.002
343.002
343.002
343.003
343.001
343
343.001
343.002
343.001
343.001
343.001
343.001
343.001
343.001
343.001
343.001
343
342.999
343
343.001
343
343
343
343
343
343
343
343.001
343
342.999
342.999
343
343
343
343
343
343
343
343
343
342.999
342.999
342.999
342.999
342.999
343
342.999
343
343
343
343
343
342.999
342.999
342.999
342.999
342.999
342.999
342.999
343
342.999
343
342.999
342.999
342.999
342.999
342.999
342.999
342.999
342.999
342.999
342.999
342.999
342.999
342.999
342.999
342.999
342.999
342.999
342.999
342.999
342.999
342.999
342.999
342.999
342.999
342.999
342.999
342.999
342.999
342.999
342.999
342.999
342.999
342.999
342.999
342.999
342.999
342.999
342.999
342.999
342.999
342.999
342.999
342.999
342.999
342.999
342.999
342.999
342.999
342.999
342.999
342.999
342.999
342.999
342.999
342.999
342.999
342.999
342.999
342.999
343
343
342.999
342.999
342.999
342.999
342.999
342.999
343
342.999
342.999
343
343
343
343
343
342.999
342.999
342.999
343
343
342.999
342.999
343
343
343
343
343
343
342.999
342.999
343
343
342.999
343
343
343
343
343
343
343
342.999
342.999
343
343
343
343
343
343
343
343
343
343
343
343
343
343
343
343
343
343
343
343
343
343
343
343
343
343
343
343
343
343
343
343
343
343
343
343
343
343
343
343
343
343
343
343
343
343
343
343
343
343
343
343
343
343
343
343
343
343
343
343
343
343
343
343
343
343
343
343
343
343
343
343
343
343
343
343
343
343
343
343
343
343
343
343
343
343
343
343
343
343
343
343
343
343
343
343
343
343
343
343
343
343
343
343
343
343
343
343
343
343
343
343
343
343
343
343
343
343
343
343
343
343
343
343
343
343
343
343
343
343
343
343
343
343
343
343
343
343
343
343
343
343
343
343
343
343
343
343
343
343
343
343
343
343
343
343
343
343
343
343
343
343
343
343
343
343
343
343
343
343
343
343
343
343
343
343
343
343
343
343
343
343
343
343
343
343
343
343
343
343
343
343
343
343
343
343
343
343
343
343
343
343
343
343
343
343
343
343
343
343
343
343
343
343
343
343
343
343
343
343
343
343
343
343
343
343
343
343
343
343
343
343
343
343
343
343
343
343
343
343
343
343
343
343
343
343
343
343
343
343
343
343
343
343
343
343
343
343
343
343
343
343
343
343
343
343
343
343
343
343
343
343
343
343
343
343
343
343
343
343
343
343
343
343
343
343
343
343
343
343
343
343
343
343
343
343
343
343
343
343
343
343
343
343
343
343
343
343
343
343
343
343
343
343
343
343
343
343
343
343
343
343
343
343
343
343
343
343
343
343
343
343
343
343
343
343
343
343
343
343
343
343
343
343
343
343
343
343
343
371.805
371.813
371.83
371.83
371.83
371.848
371.847
371.832
371.8
371.769
371.783
371.803
369.408
369.429
369.477
369.476
369.477
369.533
369.527
369.483
369.387
369.294
369.337
369.398
366.99
367.018
367.087
367.085
367.092
367.186
367.17
367.099
366.939
366.784
366.862
366.963
364.565
364.591
364.667
364.663
364.684
364.815
364.782
364.688
364.467
364.25
364.369
364.507
362.152
362.169
362.234
362.225
362.266
362.434
362.377
362.265
361.989
361.715
361.878
362.05
359.775
359.777
359.813
359.793
359.862
360.063
359.977
359.853
359.535
359.211
359.419
359.619
357.462
357.451
357.441
357.402
357.499
357.733
357.617
357.486
357.144
356.782
357.029
357.248
355.248
355.227
355.16
355.094
355.215
355.481
355.336
355.202
354.86
354.476
354.752
354.982
353.168
353.144
353.018
352.914
353.051
353.35
353.184
353.047
352.731
352.342
352.632
352.865
351.257
351.236
351.057
350.909
351.052
351.383
351.204
351.064
350.795
350.42
350.709
350.94
349.546
349.531
349.311
349.119
349.26
349.617
349.436
349.292
349.083
348.736
349.014
349.237
348.057
348.046
347.8
347.576
347.71
348.081
347.906
347.759
347.609
347.301
347.56
347.776
346.8
346.784
346.532
346.292
346.418
346.786
346.623
346.479
346.375
346.111
346.35
346.559
345.769
345.742
345.499
345.268
345.386
345.731
345.585
345.448
345.372
345.155
345.373
345.575
344.952
344.909
344.69
344.487
344.6
344.9
344.774
344.651
344.587
344.414
344.611
344.803
344.324
344.267
344.082
343.922
344.026
344.269
344.163
344.06
343.999
343.867
344.038
344.215
343.858
343.793
343.646
343.534
343.627
343.807
343.72
343.64
343.58
343.486
343.626
343.782
343.523
343.459
343.352
343.282
343.359
343.479
343.411
343.355
343.301
343.238
343.345
343.474
343.291
343.238
343.165
343.128
343.185
343.257
343.206
343.17
343.127
343.091
343.165
343.262
343.137
343.1
343.055
343.039
343.077
343.112
343.077
343.058
343.029
343.012
343.056
343.124
343.041
343.021
342.998
342.993
343.012
343.023
343.004
342.995
342.979
342.975
342.997
343.038
342.986
342.981
342.971
342.971
342.977
342.975
342.968
342.966
342.958
342.961
342.969
342.991
342.959
342.964
342.963
342.964
342.961
342.955
342.955
342.956
342.953
342.958
342.96
342.968
342.95
342.959
342.963
342.965
342.958
342.951
342.957
342.958
342.955
342.961
342.959
342.961
342.951
342.961
342.968
342.97
342.962
342.957
342.965
342.965
342.961
342.965
342.964
342.963
342.957
342.966
342.973
342.977
342.969
342.966
342.974
342.972
342.967
342.971
342.971
342.969
342.965
342.972
342.979
342.983
342.976
342.976
342.982
342.979
342.973
342.977
342.979
342.976
342.973
342.977
342.984
342.987
342.982
342.983
342.988
342.984
342.978
342.983
342.986
342.983
342.98
342.982
342.988
342.991
342.986
342.988
342.992
342.987
342.982
342.988
342.991
342.988
342.985
342.986
342.991
342.993
342.988
342.991
342.995
342.99
342.986
342.991
342.995
342.991
342.989
342.989
342.993
342.994
342.99
342.992
342.996
342.992
342.989
342.994
342.998
342.993
342.992
342.991
342.995
342.995
342.992
342.993
342.997
342.994
342.991
342.996
342.999
342.995
342.994
342.993
342.996
342.996
342.993
342.994
342.998
342.995
342.993
342.997
343
342.996
342.995
342.994
342.997
342.997
342.994
342.995
342.998
342.996
342.994
342.997
343
342.996
342.996
342.996
342.998
342.997
342.995
342.996
342.999
342.997
342.996
342.998
343
342.997
342.997
342.996
342.998
342.998
342.996
342.997
342.999
342.998
342.996
342.998
342.999
342.997
342.998
342.997
342.998
342.998
342.997
342.998
342.999
342.998
342.997
342.998
342.999
342.998
342.998
342.998
342.999
342.998
342.998
342.998
342.999
342.998
342.998
342.998
342.999
342.998
342.998
342.998
342.999
342.999
342.998
342.998
342.999
342.998
342.998
342.998
342.998
342.998
342.999
342.998
342.999
342.999
342.999
342.999
342.999
342.999
342.998
342.998
342.998
342.998
342.999
342.999
342.999
342.999
342.999
342.999
342.999
342.999
342.999
342.998
342.998
342.999
342.999
342.999
342.999
342.999
342.999
342.999
342.999
342.999
342.999
342.999
342.998
342.999
342.999
342.999
342.999
342.999
342.999
342.999
342.999
342.999
342.999
342.999
342.998
342.999
342.999
342.999
342.999
342.999
342.999
342.999
342.999
342.999
342.999
342.999
342.999
342.999
342.999
342.999
342.999
342.999
342.999
342.999
342.999
342.999
342.999
342.999
342.999
342.999
342.999
342.999
342.999
342.999
342.999
342.999
342.999
342.999
342.999
342.999
342.999
342.999
342.999
342.999
342.999
342.999
343
343
342.999
342.999
342.999
342.999
342.999
342.999
343
342.999
342.999
342.999
343
343
342.999
342.999
342.999
342.999
342.999
342.999
343
342.999
342.999
342.999
343
343
342.999
342.999
343
342.999
342.999
342.999
343
343
343
343
343
343
343
342.999
343
342.999
342.999
343
343
343
343
343
343
343
343
343
343
343
342.999
343
343
343
343
343
343
343
343
343
343
343
343
343
343
343
343
343
343
343
343
343
343
343
343
343
343
343
343
343
343
343
343
343
343
343
343
343
343
343
343
343
343
343
343
343
343
343
343
343
343
343
343
343
343
343
343
343
343
343
343
343
343
343
343
343
343
343
343
343
343
343
343
343
343
343
343
343
343
343
343
343
343
343
343
343
343
343
343
343
343
343
343
343
343
343
343
343
343
343
343
343
343
343
343
343
343
343
343
343
343
343
343
343
343
343
343
343
343
343
343
343
343
343
343
343
343
343
343
343
343
343
343
343
343
343
343
343
343
343
343
343
343
343
343
343
343
343
343
343
343
343
343
343
343
343
343
343
343
343
343
343
343
343
343
343
343
343
343
343
343
343
343
343
343
343
343
343
343
343
343
343
343
343
343
343
343
343
343
343
343
343
343
343
343
343
343
343
343
343
343
343
343
343
343
343
343
343
343
343
343
343
343
343
343
343
343
343
343
343
343
343
343
343
343
343
343
343
343
343
343
343
343
343
343
343
343
343
343
343
343
343
343
343
343
343
343
343
343
343
343
343
343
343
343
343
343
343
343
343
343
343
343
343
343
343
343
343
343
343
343
343
343
343
343
343
343
343
343
343
343
343
343
343
343
343
343
343
343
343
343
343
343
343
343
343
343
343
343
343
343
343
343
343
343
343
343
343
343
343
343
343
343
343
343
343
343
343
343
343
343
343
343
343
343
343
343
343
343
343
343
343
343
343
343
343
343
343
371.768
371.772
371.785
371.784
371.786
371.804
371.8
371.787
371.756
371.725
371.742
371.762
369.296
369.306
369.34
369.338
369.344
369.4
369.386
369.349
369.256
369.163
369.216
369.273
366.803
366.813
366.858
366.853
366.868
366.962
366.933
366.874
366.721
366.567
366.66
366.754
364.304
364.309
364.349
364.336
364.366
364.498
364.448
364.372
364.166
363.954
364.091
364.217
361.819
361.815
361.831
361.804
361.854
362.023
361.948
361.86
361.611
361.347
361.529
361.684
359.374
359.361
359.336
359.285
359.357
359.565
359.461
359.365
359.091
358.784
359.01
359.187
357.003
356.984
356.904
356.819
356.911
357.159
357.028
356.926
356.649
356.313
356.575
356.767
354.747
354.725
354.587
354.455
354.563
354.853
354.7
354.591
354.334
353.987
354.274
354.476
352.648
352.627
352.433
352.25
352.368
352.7
352.531
352.413
352.195
351.853
352.155
352.362
350.748
350.726
350.487
350.256
350.379
350.747
350.571
350.442
350.272
349.95
350.258
350.468
349.077
349.049
348.782
348.516
348.643
349.033
348.859
348.719
348.594
348.302
348.609
348.823
347.654
347.611
347.334
347.058
347.19
347.581
347.413
347.268
347.172
346.919
347.22
347.437
346.478
346.411
346.144
345.883
346.021
346.388
346.231
346.088
346.005
345.793
346.085
346.303
345.533
345.442
345.199
344.977
345.119
345.44
345.297
345.164
345.081
344.911
345.185
345.398
344.797
344.687
344.48
344.311
344.452
344.71
344.583
344.468
344.383
344.253
344.499
344.697
344.241
344.123
343.959
343.845
343.976
344.166
344.058
343.965
343.882
343.791
343.998
344.17
343.835
343.722
343.6
343.533
343.646
343.774
343.685
343.615
343.545
343.487
343.647
343.785
343.547
343.452
343.367
343.333
343.422
343.501
343.432
343.383
343.332
343.301
343.413
343.514
343.352
343.279
343.224
343.21
343.273
343.317
343.268
343.237
343.206
343.195
343.264
343.329
343.225
343.175
343.142
343.136
343.177
343.2
343.169
343.151
343.137
343.136
343.173
343.209
343.148
343.116
343.097
343.093
343.118
343.13
343.114
343.104
343.101
343.103
343.119
343.136
343.103
343.085
343.074
343.069
343.084
343.092
343.086
343.081
343.082
343.083
343.087
343.094
343.08
343.068
343.061
343.057
343.066
343.074
343.073
343.071
343.072
343.069
343.068
343.071
343.069
343.06
343.055
343.051
343.057
343.066
343.067
343.065
343.065
343.059
343.056
343.06
343.063
343.054
343.05
343.047
343.052
343.061
343.063
343.061
343.059
343.052
343.048
343.053
343.058
343.051
343.046
343.044
343.048
343.056
343.057
343.055
343.052
343.045
343.043
343.048
343.053
343.046
343.042
343.04
343.042
343.05
343.05
343.048
343.045
343.04
343.039
343.043
343.047
343.042
343.038
343.035
343.036
343.042
343.042
343.041
343.038
343.034
343.034
343.037
343.039
343.036
343.033
343.029
343.029
343.033
343.035
343.033
343.03
343.028
343.03
343.03
343.032
343.03
343.027
343.024
343.023
343.026
343.028
343.026
343.023
343.022
343.025
343.023
343.024
343.024
343.022
343.019
343.017
343.019
343.022
343.02
343.017
343.017
343.02
343.017
343.017
343.018
343.017
343.014
343.012
343.014
343.016
343.015
343.012
343.012
343.015
343.012
343.012
343.013
343.013
343.01
343.009
343.01
343.012
343.011
343.008
343.008
343.011
343.008
343.008
343.009
343.009
343.007
343.006
343.007
343.009
343.008
343.005
343.005
343.007
343.005
343.004
343.006
343.006
343.005
343.004
343.004
343.006
343.005
343.003
343.003
343.004
343.003
343.002
343.003
343.004
343.003
343.003
343.003
343.004
343.003
343.001
343.001
343.002
343.001
343.001
343.002
343.002
343.002
343.002
343.002
343.002
343.002
343
343
343.001
343
343
343.001
343.001
343.001
343.001
343.001
343.001
343
343
343
343
342.999
343
343
343
343
343
343
343
343
343
342.999
342.999
342.999
342.999
343
343
343
343
343
343
342.999
342.999
342.999
342.999
342.999
342.999
342.999
343
342.999
343
343
342.999
342.999
342.999
342.999
342.999
342.999
342.999
342.999
342.999
342.999
343
342.999
342.999
342.999
342.999
342.999
342.999
342.999
342.999
342.999
342.999
342.999
342.999
342.999
342.999
342.999
342.999
342.999
342.999
342.999
342.999
342.999
342.999
342.999
342.999
342.999
342.999
342.999
342.999
342.999
342.999
342.999
342.999
342.999
342.999
342.999
342.999
342.999
342.999
342.999
342.999
342.999
342.999
342.999
343
342.999
342.999
342.999
343
342.999
342.999
342.999
342.999
342.999
342.999
342.999
343
342.999
342.999
342.999
343
342.999
342.999
342.999
342.999
342.999
342.999
342.999
343
343
342.999
342.999
343
343
342.999
342.999
342.999
342.999
342.999
342.999
343
343
342.999
342.999
343
343
342.999
342.999
343
342.999
342.999
342.999
343
343
343
343
343
343
343
342.999
343
343
342.999
342.999
343
343
343
343
343
343
343
343
343
343
342.999
343
343
343
343
343
343
343
343
343
343
343
342.999
343
343
343
343
343
343
343
343
343
343
343
343
343
343
343
343
343
343
343
343
343
343
343
343
343
343
343
343
343
343
343
343
343
343
343
343
343
343
343
343
343
343
343
343
343
343
343
343
343
343
343
343
343
343
343
343
343
343
343
343
343
343
343
343
343
343
343
343
343
343
343
343
343
343
343
343
343
343
343
343
343
343
343
343
343
343
343
343
343
343
343
343
343
343
343
343
343
343
343
343
343
343
343
343
343
343
343
343
343
343
343
343
343
343
343
343
343
343
343
343
343
343
343
343
343
343
343
343
343
343
343
343
343
343
343
343
343
343
343
343
343
343
343
343
343
343
343
343
343
343
343
343
343
343
343
343
343
343
343
343
343
343
343
343
343
343
343
343
343
343
343
343
343
343
343
343
343
343
343
343
343
343
343
343
343
343
343
343
343
343
343
343
343
343
343
343
343
343
343
343
343
343
343
343
343
343
343
343
343
343
343
343
343
343
343
343
343
343
343
343
343
343
343
343
343
343
343
343
343
343
343
343
343
343
343
343
343
343
343
343
343
343
343
343
343
343
343
343
343
343
343
343
343
343
343
343
343
343
343
343
343
343
343
343
343
343
343
343
343
343
343
343
343
343
343
343
343
343
343
343
343
343
343
343
343
343
343
343
343
343
343
343
343
343
343
343
343
343
343
343
343
343
343
343
343
343
343
343
343
343
343
343
343
343
343
343
343
343
343
343
343
343
343
343
343
371.744
371.745
371.752
371.751
371.754
371.773
371.766
371.756
371.725
371.694
371.714
371.732
369.225
369.227
369.242
369.237
369.25
369.306
369.283
369.254
369.164
369.07
369.131
369.185
366.685
366.684
366.698
366.684
366.709
366.804
366.762
366.716
366.572
366.418
366.523
366.61
364.14
364.135
364.131
364.102
364.143
364.278
364.213
364.153
363.964
363.754
363.907
364.022
361.613
361.603
361.565
361.511
361.569
361.749
361.658
361.585
361.365
361.109
361.309
361.448
359.132
359.118
359.032
358.942
359.018
359.246
359.129
359.043
358.812
358.52
358.764
358.924
356.734
356.718
356.577
356.437
356.53
356.81
356.67
356.569
356.346
356.033
356.316
356.492
354.46
354.44
354.244
354.05
354.157
354.491
354.333
354.213
354.014
353.695
354.01
354.201
352.352
352.325
352.083
351.837
351.957
352.337
352.167
352.027
351.859
351.549
351.889
352.094
350.449
350.407
350.133
349.851
349.984
350.394
350.219
350.061
349.92
349.63
349.989
350.209
348.78
348.714
348.428
348.135
348.281
348.695
348.52
348.352
348.227
347.965
348.335
348.569
347.36
347.265
346.987
346.71
346.869
347.256
347.088
346.92
346.799
346.572
346.942
347.182
346.186
346.067
345.813
345.578
345.743
346.076
345.919
345.763
345.64
345.454
345.807
346.042
345.246
345.113
344.897
344.718
344.877
345.138
344.998
344.863
344.743
344.6
344.917
345.132
344.516
344.385
344.214
344.092
344.234
344.417
344.299
344.191
344.084
343.985
344.249
344.429
343.97
343.857
343.73
343.656
343.77
343.883
343.789
343.71
343.627
343.569
343.77
343.905
343.577
343.493
343.405
343.364
343.444
343.503
343.435
343.383
343.329
343.304
343.442
343.53
343.308
343.255
343.199
343.177
343.225
343.246
343.204
343.173
343.147
343.145
343.228
343.275
343.133
343.109
343.076
343.062
343.085
343.085
343.064
343.049
343.042
343.052
343.096
343.112
343.029
343.025
343.007
342.998
343.004
342.994
342.989
342.983
342.985
342.999
343.018
343.017
342.974
342.98
342.972
342.967
342.965
342.952
342.956
342.956
342.959
342.969
342.976
342.969
342.95
342.96
342.958
342.956
342.952
342.939
342.947
342.948
342.949
342.953
342.955
342.951
342.944
342.955
342.955
342.957
342.953
342.942
342.95
342.951
342.949
342.948
342.949
342.95
342.948
342.957
342.959
342.964
342.961
342.95
342.956
342.957
342.953
342.95
342.952
342.957
342.955
342.962
342.966
342.972
342.968
342.959
342.963
342.963
342.959
342.957
342.959
342.966
342.963
342.969
342.973
342.979
342.974
342.967
342.969
342.969
342.965
342.965
342.968
342.974
342.969
342.975
342.98
342.985
342.978
342.972
342.975
342.974
342.971
342.973
342.977
342.98
342.974
342.979
342.985
342.988
342.981
342.976
342.979
342.978
342.976
342.98
342.984
342.984
342.978
342.983
342.989
342.991
342.983
342.979
342.983
342.982
342.98
342.985
342.99
342.987
342.981
342.985
342.992
342.992
342.985
342.982
342.986
342.986
342.984
342.989
342.993
342.989
342.983
342.987
342.993
342.994
342.987
342.985
342.989
342.988
342.987
342.992
342.996
342.991
342.986
342.989
342.995
342.994
342.989
342.988
342.992
342.991
342.99
342.994
342.997
342.992
342.989
342.991
342.995
342.995
342.991
342.991
342.993
342.993
342.992
342.995
342.998
342.994
342.991
342.992
342.996
342.996
342.993
342.993
342.995
342.994
342.994
342.996
342.998
342.995
342.993
342.994
342.997
342.996
342.994
342.994
342.996
342.995
342.995
342.997
342.998
342.996
342.995
342.995
342.997
342.997
342.995
342.996
342.997
342.996
342.997
342.998
342.999
342.997
342.996
342.996
342.997
342.997
342.996
342.997
342.997
342.997
342.997
342.998
342.999
342.997
342.997
342.997
342.998
342.998
342.997
342.997
342.998
342.997
342.998
342.998
342.998
342.998
342.998
342.998
342.998
342.998
342.998
342.998
342.998
342.998
342.998
342.998
342.998
342.998
342.999
342.998
342.998
342.998
342.998
342.998
342.998
342.998
342.999
342.999
342.998
342.998
342.999
342.998
342.998
342.998
342.998
342.999
342.998
342.998
342.999
342.999
342.998
342.998
342.999
342.999
342.998
342.998
342.999
342.999
342.999
342.998
342.999
342.999
342.998
342.998
342.999
342.999
342.998
342.999
342.999
342.999
342.999
342.999
342.999
342.999
342.998
342.998
342.999
342.999
342.999
342.999
342.999
342.999
342.999
342.999
342.999
342.999
342.998
342.999
342.999
342.999
342.999
342.999
342.999
342.999
342.999
342.999
342.999
342.999
342.999
342.999
343
342.999
342.999
342.999
342.999
342.999
342.999
342.999
342.999
342.999
342.999
342.999
343
342.999
342.999
342.999
342.999
342.999
342.999
342.999
342.999
342.999
342.999
342.999
343
342.999
342.999
342.999
343
343
342.999
342.999
342.999
342.999
342.999
342.999
343
342.999
342.999
342.999
343
343
342.999
342.999
343
342.999
342.999
342.999
343
343
342.999
343
343
343
343
342.999
343
343
342.999
342.999
343
343
343
343
343
343
343
343
343
343
342.999
342.999
343
343
343
343
343
343
343
343
343
343
342.999
343
343
343
343
343
343
343
343
343
343
343
343
343
343
343
343
343
343
343
343
343
343
343
343
343
343
343
343
343
343
343
343
343
343
343
343
343
343
343
343
343
343
343
343
343
343
343
343
343
343
343
343
343
343
343
343
343
343
343
343
343
343
343
343
343
343
343
343
343
343
343
343
343
343
343
343
343
343
343
343
343
343
343
343
343
343
343
343
343
343
343
343
343
343
343
343
343
343
343
343
343
343
343
343
343
343
343
343
343
343
343
343
343
343
343
343
343
343
343
343
343
343
343
343
343
343
343
343
343
343
343
343
343
343
343
343
343
343
343
343
343
343
343
343
343
343
343
343
343
343
343
343
343
343
343
343
343
343
343
343
343
343
343
343
343
343
343
343
343
343
343
343
343
343
343
343
343
343
343
343
343
343
343
343
343
343
343
343
343
343
343
343
343
343
343
343
343
343
343
343
343
343
343
343
343
343
343
343
343
343
343
343
343
343
343
343
343
343
343
343
343
343
343
343
343
343
343
343
343
343
343
343
343
343
343
343
343
343
343
343
343
343
343
343
343
343
343
343
343
343
343
343
343
343
343
343
343
343
343
343
343
343
343
343
343
343
343
343
343
343
343
343
343
343
343
343
343
343
343
343
343
343
343
343
343
343
343
343
343
343
343
343
343
343
343
343
343
343
343
343
343
343
343
343
343
343
343
343
343
343
343
343
343
343
343
343
343
343
343
343
343
343
343
343
343
371.699
371.698
371.698
371.695
371.7
371.719
371.709
371.702
371.675
371.644
371.667
371.683
369.089
369.086
369.082
369.07
369.085
369.143
369.114
369.093
369.014
368.924
368.991
369.039
366.456
366.45
366.433
366.405
366.432
366.531
366.481
366.447
366.324
366.177
366.293
366.368
363.817
363.81
363.766
363.712
363.75
363.896
363.824
363.776
363.621
363.427
363.592
363.691
361.2
361.191
361.107
361.013
361.063
361.262
361.169
361.106
360.935
360.703
360.917
361.037
358.636
358.626
358.495
358.348
358.409
358.668
358.555
358.473
358.303
358.046
358.308
358.446
356.171
356.157
355.976
355.771
355.843
356.161
356.033
355.928
355.771
355.505
355.812
355.966
353.854
353.827
353.605
353.344
353.43
353.8
353.661
353.53
353.39
353.129
353.479
353.65
351.732
351.685
351.433
351.135
351.237
351.64
351.496
351.341
351.213
350.969
351.356
351.545
349.848
349.77
349.508
349.2
349.321
349.727
349.583
349.412
349.284
349.068
349.484
349.685
348.225
348.116
347.862
347.575
347.714
348.09
347.951
347.775
347.64
347.461
347.887
348.091
346.873
346.738
346.51
346.27
346.418
346.736
346.609
346.438
346.298
346.162
346.575
346.766
345.781
345.635
345.445
345.264
345.406
345.65
345.542
345.388
345.252
345.164
345.538
345.698
344.927
344.789
344.642
344.519
344.64
344.81
344.725
344.596
344.478
344.437
344.75
344.864
344.285
344.17
344.065
343.988
344.079
344.184
344.126
344.023
343.935
343.937
344.176
344.236
343.822
343.738
343.67
343.624
343.681
343.74
343.71
343.631
343.576
343.608
343.775
343.785
343.506
343.453
343.412
343.384
343.412
343.444
343.437
343.379
343.351
343.398
343.504
343.478
343.303
343.273
343.252
343.233
343.242
343.26
343.27
343.228
343.215
343.264
343.327
343.282
343.182
343.166
343.156
343.143
343.145
343.158
343.177
343.145
343.138
343.178
343.214
343.167
343.118
343.106
343.102
343.094
343.096
343.108
343.128
343.104
343.097
343.122
343.142
343.106
343.087
343.075
343.074
343.071
343.077
343.087
343.103
343.085
343.077
343.086
343.098
343.078
343.075
343.062
343.06
343.061
343.071
343.08
343.089
343.076
343.068
343.065
343.073
343.068
343.071
343.057
343.055
343.058
343.068
343.076
343.079
343.069
343.064
343.055
343.059
343.064
343.069
343.056
343.053
343.056
343.065
343.071
343.069
343.063
343.062
343.051
343.051
343.062
343.066
343.056
343.052
343.052
343.058
343.064
343.06
343.057
343.059
343.049
343.048
343.058
343.06
343.053
343.05
343.048
343.05
343.055
343.051
343.05
343.054
343.047
343.045
343.052
343.053
343.049
343.046
343.042
343.042
343.046
343.043
343.043
343.048
343.044
343.041
343.045
343.045
343.043
343.041
343.036
343.034
343.038
343.035
343.036
343.04
343.04
343.037
343.038
343.037
343.037
343.034
343.029
343.027
343.031
343.028
343.029
343.033
343.034
343.032
343.03
343.029
343.03
343.028
343.023
343.021
343.024
343.022
343.023
343.026
343.027
343.026
343.024
343.022
343.024
343.022
343.018
343.016
343.018
343.017
343.017
343.02
343.021
343.021
343.018
343.016
343.018
343.016
343.013
343.012
343.014
343.012
343.013
343.014
343.016
343.016
343.013
343.012
343.013
343.012
343.009
343.009
343.01
343.009
343.009
343.01
343.011
343.012
343.01
343.008
343.009
343.008
343.006
343.007
343.007
343.006
343.006
343.006
343.007
343.008
343.007
343.006
343.006
343.005
343.004
343.005
343.005
343.004
343.004
343.004
343.005
343.005
343.004
343.004
343.004
343.003
343.002
343.003
343.003
343.002
343.002
343.002
343.003
343.003
343.003
343.002
343.002
343.001
343.001
343.002
343.002
343.001
343.001
343.001
343.001
343.002
343.001
343.001
343.001
343
343
343.001
343.001
343
343
343
343
343.001
343
343.001
343
343
343
343
343.001
343
343
343
343
343
343
343
343
342.999
342.999
343
343
343
343
343
342.999
342.999
342.999
343
342.999
342.999
342.999
343
343
342.999
342.999
342.999
342.999
342.999
342.999
343
342.999
342.999
342.999
342.999
343
342.999
342.999
342.999
342.999
342.999
342.999
343
342.999
342.999
342.999
342.999
342.999
342.999
342.999
342.999
342.999
342.999
342.999
343
342.999
342.999
342.999
342.999
342.999
342.999
342.999
342.999
342.999
342.999
342.999
343
342.999
342.999
342.999
342.999
342.999
342.999
342.999
342.999
342.999
342.999
342.999
343
342.999
342.999
342.999
342.999
342.999
342.999
342.999
342.999
342.999
342.999
342.999
343
342.999
342.999
342.999
342.999
342.999
342.999
342.999
343
342.999
342.999
342.999
343
342.999
342.999
342.999
343
343
343
343
343
342.999
342.999
342.999
343
343
342.999
342.999
343
343
343
343
343
342.999
342.999
342.999
343
343
342.999
343
343
343
343
343
343
343
342.999
342.999
343
343
343
343
343
343
343
343
343
343
342.999
342.999
343
343
343
343
343
343
343
343
343
343
343
343
343
343
343
343
343
343
343
343
343
343
343
343
343
343
343
343
343
343
343
343
343
343
343
343
343
343
343
343
343
343
343
343
343
343
343
343
343
343
343
343
343
343
343
343
343
343
343
343
343
343
343
343
343
343
343
343
343
343
343
343
343
343
343
343
343
343
343
343
343
343
343
343
343
343
343
343
343
343
343
343
343
343
343
343
343
343
343
343
343
343
343
343
343
343
343
343
343
343
343
343
343
343
343
343
343
343
343
343
343
343
343
343
343
343
343
343
343