-0.0075 	373
-0.00715932 	358.95
-0.00676191 	356.752
-0.00629832 	355.888
-0.00575752 	355.365
-0.00512667 	354.961
-0.00439077 	354.606
-0.00353231 	354.27
-0.00253089 	353.933
-0.00136271 	353.576
0 	353.185
0.00136271 	352.759
0.00253089 	352.317
0.00353231 	351.866
0.00439077 	351.394
0.00512667 	350.862
0.00575752 	350.193
0.00629832 	349.206
0.00676191 	347.08
0.00715932 	336.538
0.0075 	313
