0 	0 	0 	0
0 	0 	0 	0
0.00752508 	-1.46369e-05 	-3.01542e-05 	-0.280033
0.00752508 	-1.46369e-05 	-3.01542e-05 	-0.280033
0.00757525 	-1.82758e-05 	-3.52911e-05 	-0.279925
0.00762542 	-2.19146e-05 	-4.04279e-05 	-0.279817
0.00762542 	-2.19146e-05 	-4.04279e-05 	-0.279817
0.00767559 	-2.55485e-05 	-4.55682e-05 	-0.279708
0.00772575 	-2.86304e-05 	-5.10869e-05 	-0.279559
0.00777592 	-3.17122e-05 	-5.66057e-05 	-0.27941
0.00782609 	-3.47941e-05 	-6.21245e-05 	-0.279262
0.00782609 	-3.47941e-05 	-6.21245e-05 	-0.279262
0.00787625 	-3.78943e-05 	-6.89696e-05 	-0.279088
0.00792642 	-4.10078e-05 	-7.67768e-05 	-0.278897
0.00797659 	-4.41212e-05 	-8.45839e-05 	-0.278706
0.00802676 	-4.73934e-05 	-9.39374e-05 	-0.278508
0.00802676 	-4.73934e-05 	-9.39374e-05 	-0.278508
0.00807692 	-5.12608e-05 	-0.000109089 	-0.278286
0.00812709 	-5.51281e-05 	-0.000124242 	-0.278063
0.00812709 	-5.51281e-05 	-0.000124242 	-0.278063
0.00817726 	-5.89955e-05 	-0.000139394 	-0.27784
0.00822742 	-6.45635e-05 	-0.000146031 	-0.27759
0.00822742 	-6.45635e-05 	-0.000146031 	-0.27759
0.00827759 	-7.03186e-05 	-0.000151732 	-0.277336
0.00832776 	-7.60738e-05 	-0.000157433 	-0.277083
0.00832776 	-7.60738e-05 	-0.000157433 	-0.277083
0.00837793 	-8.12666e-05 	-0.000132226 	-0.276743
0.00842809 	-8.61557e-05 	-9.03363e-05 	-0.276358
0.00842809 	-8.61557e-05 	-9.03363e-05 	-0.276358
0.00847826 	-9.10449e-05 	-4.84467e-05 	-0.275973
0.00847826 	-9.10449e-05 	-4.84467e-05 	-0.275973
0.00852843 	-8.94636e-05 	-8.56737e-07 	-0.275408
0.00852843 	-8.94636e-05 	-8.56737e-07 	-0.275408
0.0085786 	-8.01422e-05 	5.35521e-05 	-0.274628
0.0085786 	-8.01422e-05 	5.35521e-05 	-0.274628
0.00862876 	-7.08208e-05 	0.000107961 	-0.273847
0.00867893 	-5.33234e-05 	0.000134748 	-0.272895
0.00867893 	-5.33234e-05 	0.000134748 	-0.272895
0.0087291 	-1.82492e-05 	0.000102155 	-0.271572
0.00877926 	1.6825e-05 	6.95608e-05 	-0.270248
0.00877926 	1.6825e-05 	6.95608e-05 	-0.270248
0.00882943 	5.18187e-05 	2.89596e-05 	-0.268923
0.0088796 	8.655e-05 	-3.77218e-05 	-0.26759
0.0088796 	8.655e-05 	-3.77218e-05 	-0.26759
0.00897993 	0.000150594 	-0.000157641 	-0.265038
0.00897993 	0.000150594 	-0.000157641 	-0.265038
0.0090301 	0.0001591 	-0.000159263 	-0.26425
0.00908027 	0.000167607 	-0.000160884 	-0.263462
0.00908027 	0.000167607 	-0.000160884 	-0.263462
0.00913043 	0.000172539 	-0.000155782 	-0.262764
0.0091806 	0.000165618 	-0.000128381 	-0.262364
0.0091806 	0.000165618 	-0.000128381 	-0.262364
0.00923077 	0.000158697 	-0.000100981 	-0.261964
0.00928094 	0.000151469 	-7.77283e-05 	-0.261586
0.00928094 	0.000151469 	-7.77283e-05 	-0.261586
0.0093311 	0.000143557 	-6.37429e-05 	-0.261259
0.00938127 	0.000135644 	-4.97576e-05 	-0.260932
0.00938127 	0.000135644 	-4.97576e-05 	-0.260932
0.00943144 	0.00012949 	-4.13564e-05 	-0.260578
0.00943144 	0.00012949 	-4.13564e-05 	-0.260578
0.00948161 	0.00012559 	-4.01158e-05 	-0.260191
0.00948161 	0.00012559 	-4.01158e-05 	-0.260191
0.00953177 	0.000121691 	-3.88752e-05 	-0.259804
0.00953177 	0.000121691 	-3.88752e-05 	-0.259804
0.00958194 	0.00011931 	-3.67926e-05 	-0.259383
0.00958194 	0.00011931 	-3.67926e-05 	-0.259383
0.00963211 	0.000117868 	-3.41888e-05 	-0.258941
0.00963211 	0.000117868 	-3.41888e-05 	-0.258941
0.00968227 	0.000116427 	-3.15851e-05 	-0.258499
0.00968227 	0.000116427 	-3.15851e-05 	-0.258499
0.00973244 	0.000116459 	-2.69849e-05 	-0.258028
0.00978261 	0.000116757 	-2.20239e-05 	-0.257551
0.00983278 	0.000117418 	-1.72137e-05 	-0.25707
0.00988294 	0.000120622 	-1.34597e-05 	-0.256559
0.00988294 	0.000120622 	-1.34597e-05 	-0.256559
0.00993311 	0.000123826 	-9.70574e-06 	-0.256048
0.00998328 	0.000128832 	-6.463e-06 	-0.255522
0.00998328 	0.000128832 	-6.463e-06 	-0.255522
0.0100334 	0.000136032 	-3.84272e-06 	-0.254977
0.0100334 	0.000136032 	-3.84272e-06 	-0.254977
0.0100836 	0.000143231 	-1.22244e-06 	-0.254432
0.0101338 	0.000153345 	8.56374e-07 	-0.25386
0.0101338 	0.000153345 	8.56374e-07 	-0.25386
0.0102341 	0.000175266 	4.74772e-06 	-0.252697
0.0102341 	0.000175266 	4.74772e-06 	-0.252697
0.0102843 	0.000187851 	6.56693e-06 	-0.252088
0.0103344 	0.000200436 	8.38614e-06 	-0.25148
0.0103344 	0.000200436 	8.38614e-06 	-0.25148
0.0103846 	0.000213079 	1.08114e-05 	-0.250849
0.0103846 	0.000213079 	1.08114e-05 	-0.250849
0.0104348 	0.000225746 	1.34864e-05 	-0.25021
0.0104849 	0.000238141 	1.61125e-05 	-0.249564
0.0104849 	0.000238141 	1.61125e-05 	-0.249564
0.0105351 	0.000249556 	1.85632e-05 	-0.248896
0.0105853 	0.000260971 	2.10138e-05 	-0.248227
0.0105853 	0.000260971 	2.10138e-05 	-0.248227
0.0106355 	0.000271577 	2.06081e-05 	-0.247534
0.0106856 	0.000281943 	1.93544e-05 	-0.246832
0.0106856 	0.000281943 	1.93544e-05 	-0.246832
0.0107358 	0.000292858 	1.78007e-05 	-0.246106
0.0107358 	0.000292858 	1.78007e-05 	-0.246106
0.010786 	0.000304718 	1.57307e-05 	-0.245337
0.010786 	0.000304718 	1.57307e-05 	-0.245337
0.0108361 	0.00031662 	1.37021e-05 	-0.244567
0.0108361 	0.00031662 	1.37021e-05 	-0.244567
0.0108863 	0.000334996 	1.81604e-05 	-0.243661
0.0109365 	0.000353373 	2.26186e-05 	-0.242755
0.0109365 	0.000353373 	2.26186e-05 	-0.242755
0.0109866 	0.000380598 	3.2797e-05 	-0.241719
0.0109866 	0.000380598 	3.2797e-05 	-0.241719
0.0110368 	0.000411859 	4.55846e-05 	-0.240624
0.011087 	0.000445158 	5.64629e-05 	-0.2395
0.011087 	0.000445158 	5.64629e-05 	-0.2395
0.0111371 	0.000481414 	6.45707e-05 	-0.238333
0.0111873 	0.000515079 	7.00298e-05 	-0.23719
0.0111873 	0.000515079 	7.00298e-05 	-0.23719
0.0112375 	0.00053604 	6.2501e-05 	-0.236163
0.0112876 	0.000557001 	5.49723e-05 	-0.235135
0.0112876 	0.000557001 	5.49723e-05 	-0.235135
0.0113378 	0.000558345 	4.38752e-05 	-0.234255
0.011388 	0.000559087 	3.26686e-05 	-0.23338
0.011388 	0.000559087 	3.26686e-05 	-0.23338
0.0114883 	0.000543478 	2.39295e-05 	-0.231676
0.0114883 	0.000543478 	2.39295e-05 	-0.231676
0.0115385 	0.000534754 	2.48067e-05 	-0.230791
0.0115886 	0.000526021 	2.77427e-05 	-0.22989
0.0115886 	0.000526021 	2.77427e-05 	-0.22989
0.0116388 	0.000518613 	3.12855e-05 	-0.228957
0.011689 	0.000512077 	3.52287e-05 	-0.228002
0.011689 	0.000512077 	3.52287e-05 	-0.228002
0.0117391 	0.000505956 	3.70473e-05 	-0.227026
0.0117893 	0.000500167 	3.71569e-05 	-0.226034
0.0117893 	0.000500167 	3.71569e-05 	-0.226034
0.0118395 	0.000494391 	3.63902e-05 	-0.225023
0.0118896 	0.000488627 	3.4883e-05 	-0.223998
0.0118896 	0.000488627 	3.4883e-05 	-0.223998
0.0119398 	0.0004829 	3.36091e-05 	-0.222952
0.0119398 	0.0004829 	3.36091e-05 	-0.222952
0.01199 	0.0004772 	3.25144e-05 	-0.22189
0.01199 	0.0004772 	3.25144e-05 	-0.22189
0.0120401 	0.00047153 	3.11357e-05 	-0.220804
0.0120401 	0.00047153 	3.11357e-05 	-0.220804
0.0120903 	0.000465877 	2.95854e-05 	-0.219704
0.0120903 	0.000465877 	2.95854e-05 	-0.219704
0.0121405 	0.000460196 	2.75811e-05 	-0.218576
0.0121405 	0.000460196 	2.75811e-05 	-0.218576
0.0121906 	0.000454504 	2.53963e-05 	-0.217436
0.0121906 	0.000454504 	2.53963e-05 	-0.217436
0.0122408 	0.000448693 	2.28718e-05 	-0.216261
0.0122408 	0.000448693 	2.28718e-05 	-0.216261
0.012291 	0.000442859 	2.02833e-05 	-0.21508
0.012291 	0.000442859 	2.02833e-05 	-0.21508
0.0123411 	0.000436736 	1.7658e-05 	-0.213855
0.0123411 	0.000436736 	1.7658e-05 	-0.213855
0.0123913 	0.000430512 	1.5092e-05 	-0.21262
0.0123913 	0.000430512 	1.5092e-05 	-0.21262
0.0124415 	0.000423867 	1.27754e-05 	-0.211346
0.0124916 	0.00041688 	1.06466e-05 	-0.210051
0.0124916 	0.00041688 	1.06466e-05 	-0.210051
0.012592 	0.000401146 	7.00057e-06 	-0.207359
0.012592 	0.000401146 	7.00057e-06 	-0.207359
0.0126421 	0.00039249 	5.2596e-06 	-0.205975
0.0126923 	0.000382327 	3.26374e-06 	-0.204534
0.0126923 	0.000382327 	3.26374e-06 	-0.204534
0.0127425 	0.000371559 	1.16638e-06 	-0.203073
0.0127425 	0.000371559 	1.16638e-06 	-0.203073
0.0127926 	0.000359355 	-1.17235e-06 	-0.201565
0.0128428 	0.000345705 	-3.7046e-06 	-0.200015
0.0128428 	0.000345705 	-3.7046e-06 	-0.200015
0.012893 	0.000331153 	-6.35771e-06 	-0.198439
0.0129431 	0.000313903 	-9.18191e-06 	-0.19679
0.0129431 	0.000313903 	-9.18191e-06 	-0.19679
0.0129933 	0.000295404 	-1.21761e-05 	-0.195109
0.0130435 	0.000275017 	-1.54303e-05 	-0.19338
0.0130435 	0.000275017 	-1.54303e-05 	-0.19338
0.0130936 	0.000251662 	-1.94398e-05 	-0.19158
0.0131438 	0.000226475 	-2.37019e-05 	-0.189739
0.0131438 	0.000226475 	-2.37019e-05 	-0.189739
0.013194 	0.000198247 	-2.81952e-05 	-0.18783
0.0132441 	0.000166276 	-3.19921e-05 	-0.185844
0.0132441 	0.000166276 	-3.19921e-05 	-0.185844
0.0132943 	0.000131616 	-3.51749e-05 	-0.183802
0.0133445 	9.29583e-05 	-3.73235e-05 	-0.181679
0.0133445 	9.29583e-05 	-3.73235e-05 	-0.181679
0.0133946 	4.92764e-05 	-3.94382e-05 	-0.179452
0.0134448 	2.20879e-06 	-4.22104e-05 	-0.177146
0.0134448 	2.20879e-06 	-4.22104e-05 	-0.177146
0.013495 	-4.85142e-05 	-4.60484e-05 	-0.174751
0.0135452 	-0.000103844 	-5.11236e-05 	-0.172195
0.0135452 	-0.000103844 	-5.11236e-05 	-0.172195
0.0136455 	-0.000218439 	-5.94254e-05 	-0.166718
0.0136455 	-0.000218439 	-5.94254e-05 	-0.166718
0.0136957 	-0.000275689 	-6.13798e-05 	-0.163746
0.0137458 	-0.000329927 	-6.21591e-05 	-0.160551
0.0137458 	-0.000329927 	-6.21591e-05 	-0.160551
0.013796 	-0.00038069 	-6.2877e-05 	-0.157166
0.0138462 	-0.000427391 	-6.38117e-05 	-0.153574
0.0138462 	-0.000427391 	-6.38117e-05 	-0.153574
0.0138963 	-0.000469537 	-6.51354e-05 	-0.149755
0.0138963 	-0.000469537 	-6.51354e-05 	-0.149755
0.0139465 	-0.00050604 	-6.64986e-05 	-0.14561
0.0139967 	-0.000539039 	-6.71119e-05 	-0.14119
0.0139967 	-0.000539039 	-6.71119e-05 	-0.14119
0.0140468 	-0.000569124 	-6.67823e-05 	-0.13648
0.0140468 	-0.000569124 	-6.67823e-05 	-0.13648
0.014097 	-0.000596964 	-6.55662e-05 	-0.131456
0.0141472 	-0.000623567 	-6.37065e-05 	-0.126096
0.0141973 	-0.000650529 	-6.13883e-05 	-0.120375
0.0141973 	-0.000650529 	-6.13883e-05 	-0.120375
0.0142475 	-0.000679187 	-5.84376e-05 	-0.114211
0.0142977 	-0.000707631 	-5.47817e-05 	-0.107644
0.0143478 	-0.000731479 	-5.05485e-05 	-0.100671
0.0143478 	-0.000731479 	-5.05485e-05 	-0.100671
0.014398 	-0.00074423 	-4.61163e-05 	-0.0933056
0.014398 	-0.00074423 	-4.61163e-05 	-0.0933056
0.0144482 	-0.000738958 	-4.1728e-05 	-0.0855924
0.0144983 	-0.000710073 	-3.73578e-05 	-0.0776029
0.0144983 	-0.000710073 	-3.73578e-05 	-0.0776029
0.0145485 	-0.000654661 	-3.2901e-05 	-0.0694335
0.0145987 	-0.000573697 	-2.83256e-05 	-0.0611919
0.0145987 	-0.000573697 	-2.83256e-05 	-0.0611919
0.0146488 	-0.000473197 	-2.36232e-05 	-0.0529803
0.014699 	-0.000364968 	-1.88068e-05 	-0.0448794
0.014699 	-0.000364968 	-1.88068e-05 	-0.0448794
0.0147492 	-0.000267891 	-1.39749e-05 	-0.0369452
0.0147993 	-0.000212048 	-9.42224e-06 	-0.0292163
0.0147993 	-0.000212048 	-9.42224e-06 	-0.0292163
0.0148495 	-0.000248592 	-4.87121e-06 	-0.0217157
0.0148495 	-0.000248592 	-4.87121e-06 	-0.0217157
0.0148997 	-0.000371079 	-1.68474e-06 	-0.0144212
0.0148997 	-0.000371079 	-1.68474e-06 	-0.0144212
0.0149498 	-0.000365153 	-3.01681e-07 	-0.00724348
0.0149498 	-0.000365153 	-3.01681e-07 	-0.00724348
0.015 	0 	0 	0
