0 	0 	0 	0
0 	0 	0 	0
0.00752508 	0.00052806 	-0.0007328 	-0.279009
0.00752508 	0.00052806 	-0.0007328 	-0.279009
0.00757525 	0.000486281 	-0.000727216 	-0.278883
0.00762542 	0.000444501 	-0.000721632 	-0.278756
0.00762542 	0.000444501 	-0.000721632 	-0.278756
0.00767559 	0.000402685 	-0.000716075 	-0.278629
0.00772575 	0.000356832 	-0.000713518 	-0.278448
0.00777592 	0.000310979 	-0.000710961 	-0.278268
0.00782609 	0.000265126 	-0.000708404 	-0.278088
0.00782609 	0.000265126 	-0.000708404 	-0.278088
0.00787625 	0.000217973 	-0.000694813 	-0.277878
0.00792642 	0.000169878 	-0.000673219 	-0.277646
0.00797659 	0.000121782 	-0.000651625 	-0.277415
0.00802676 	7.24438e-05 	-0.000627499 	-0.277171
0.00802676 	7.24438e-05 	-0.000627499 	-0.277171
0.00807692 	1.84425e-05 	-0.000593878 	-0.276881
0.00812709 	-3.55588e-05 	-0.000560257 	-0.27659
0.00812709 	-3.55588e-05 	-0.000560257 	-0.27659
0.00817726 	-8.95601e-05 	-0.000526636 	-0.2763
0.00822742 	-0.000144545 	-0.000535423 	-0.275896
0.00822742 	-0.000144545 	-0.000535423 	-0.275896
0.00827759 	-0.000199637 	-0.000548878 	-0.275479
0.00832776 	-0.00025473 	-0.000562334 	-0.275063
0.00832776 	-0.00025473 	-0.000562334 	-0.275063
0.00837793 	-0.000291526 	-0.000601463 	-0.274449
0.00842809 	-0.000318447 	-0.00065445 	-0.273729
0.00842809 	-0.000318447 	-0.00065445 	-0.273729
0.00847826 	-0.000345368 	-0.000707437 	-0.273009
0.00847826 	-0.000345368 	-0.000707437 	-0.273009
0.00852843 	-0.000353997 	-0.000730679 	-0.272104
0.00852843 	-0.000353997 	-0.000730679 	-0.272104
0.0085786 	-0.000340745 	-0.000718339 	-0.270978
0.0085786 	-0.000340745 	-0.000718339 	-0.270978
0.00862876 	-0.000327494 	-0.000705999 	-0.269851
0.00867893 	-0.000314424 	-0.000677666 	-0.268743
0.00867893 	-0.000314424 	-0.000677666 	-0.268743
0.0087291 	-0.000301745 	-0.000614949 	-0.267673
0.00877926 	-0.000289066 	-0.000552231 	-0.266603
0.00877926 	-0.000289066 	-0.000552231 	-0.266603
0.00882943 	-0.000282263 	-0.000500458 	-0.26563
0.0088796 	-0.000294596 	-0.000484328 	-0.264973
0.0088796 	-0.000294596 	-0.000484328 	-0.264973
0.00897993 	-0.000322005 	-0.000458949 	-0.263707
0.00897993 	-0.000322005 	-0.000458949 	-0.263707
0.0090301 	-0.000347617 	-0.00047612 	-0.263285
0.00908027 	-0.000373229 	-0.000493291 	-0.262863
0.00908027 	-0.000373229 	-0.000493291 	-0.262863
0.00913043 	-0.00040051 	-0.000507018 	-0.262463
0.0091806 	-0.000433325 	-0.000509325 	-0.262132
0.0091806 	-0.000433325 	-0.000509325 	-0.262132
0.00923077 	-0.000466141 	-0.000511633 	-0.261801
0.00928094 	-0.000499793 	-0.000511741 	-0.261469
0.00928094 	-0.000499793 	-0.000511741 	-0.261469
0.0093311 	-0.000535314 	-0.000506936 	-0.261138
0.00938127 	-0.000570836 	-0.000502131 	-0.260806
0.00938127 	-0.000570836 	-0.000502131 	-0.260806
0.00943144 	-0.000607306 	-0.000506707 	-0.260466
0.00943144 	-0.000607306 	-0.000506707 	-0.260466
0.00948161 	-0.000644992 	-0.000523313 	-0.260116
0.00948161 	-0.000644992 	-0.000523313 	-0.260116
0.00953177 	-0.000682679 	-0.000539919 	-0.259765
0.00953177 	-0.000682679 	-0.000539919 	-0.259765
0.00958194 	-0.000722564 	-0.000555416 	-0.25943
0.00958194 	-0.000722564 	-0.000555416 	-0.25943
0.00963211 	-0.000763809 	-0.000570229 	-0.259104
0.00963211 	-0.000763809 	-0.000570229 	-0.259104
0.00968227 	-0.000805055 	-0.000585041 	-0.258778
0.00968227 	-0.000805055 	-0.000585041 	-0.258778
0.00973244 	-0.000854453 	-0.000552727 	-0.258464
0.00978261 	-0.000905325 	-0.000511895 	-0.258153
0.00983278 	-0.000960198 	-0.000465286 	-0.257816
0.00988294 	-0.00104309 	-0.000378225 	-0.257295
0.00988294 	-0.00104309 	-0.000378225 	-0.257295
0.00993311 	-0.00112599 	-0.000291164 	-0.256775
0.00998328 	-0.00122614 	-0.000243862 	-0.256035
0.00998328 	-0.00122614 	-0.000243862 	-0.256035
0.0100334 	-0.0013473 	-0.000244969 	-0.25503
0.0100334 	-0.0013473 	-0.000244969 	-0.25503
0.0100836 	-0.00146847 	-0.000246076 	-0.254025
0.0101338 	-0.0015798 	-0.000310109 	-0.252898
0.0101338 	-0.0015798 	-0.000310109 	-0.252898
0.0102341 	-0.00178813 	-0.000452096 	-0.250663
0.0102341 	-0.00178813 	-0.000452096 	-0.250663
0.0102843 	-0.00185578 	-0.00047636 	-0.249803
0.0103344 	-0.00192343 	-0.000500624 	-0.248942
0.0103344 	-0.00192343 	-0.000500624 	-0.248942
0.0103846 	-0.00197648 	-0.000489435 	-0.248247
0.0103846 	-0.00197648 	-0.000489435 	-0.248247
0.0104348 	-0.0020235 	-0.000463641 	-0.247618
0.0104849 	-0.00206895 	-0.000436937 	-0.247011
0.0104849 	-0.00206895 	-0.000436937 	-0.247011
0.0105351 	-0.00210868 	-0.00040697 	-0.246481
0.0105853 	-0.00214841 	-0.000377002 	-0.24595
0.0105853 	-0.00214841 	-0.000377002 	-0.24595
0.0106355 	-0.00218559 	-0.000365467 	-0.245421
0.0106856 	-0.00222201 	-0.000359405 	-0.244892
0.0106856 	-0.00222201 	-0.000359405 	-0.244892
0.0107358 	-0.00225749 	-0.000351913 	-0.244353
0.0107358 	-0.00225749 	-0.000351913 	-0.244353
0.010786 	-0.00229135 	-0.000341962 	-0.243796
0.010786 	-0.00229135 	-0.000341962 	-0.243796
0.0108361 	-0.00232519 	-0.000332031 	-0.24324
0.0108361 	-0.00232519 	-0.000332031 	-0.24324
0.0108863 	-0.00235711 	-0.000325179 	-0.242649
0.0109365 	-0.00238902 	-0.000318327 	-0.242059
0.0109365 	-0.00238902 	-0.000318327 	-0.242059
0.0109866 	-0.00241957 	-0.000335983 	-0.241448
0.0109866 	-0.00241957 	-0.000335983 	-0.241448
0.0110368 	-0.0024495 	-0.000364818 	-0.240828
0.011087 	-0.00247785 	-0.000391087 	-0.24021
0.011087 	-0.00247785 	-0.000391087 	-0.24021
0.0111371 	-0.00250393 	-0.00041363 	-0.239596
0.0111873 	-0.00253106 	-0.00042227 	-0.238982
0.0111873 	-0.00253106 	-0.00042227 	-0.238982
0.0112375 	-0.00256339 	-0.00036274 	-0.238368
0.0112876 	-0.00259573 	-0.000303211 	-0.237755
0.0112876 	-0.00259573 	-0.000303211 	-0.237755
0.0113378 	-0.00266616 	-0.000162924 	-0.23696
0.011388 	-0.00273776 	-2.01596e-05 	-0.236161
0.011388 	-0.00273776 	-2.01596e-05 	-0.236161
0.0114883 	-0.00298795 	8.09185e-05 	-0.233798
0.0114883 	-0.00298795 	8.09185e-05 	-0.233798
0.0115385 	-0.00312246 	3.81325e-06 	-0.232454
0.0115886 	-0.00325868 	-0.000126922 	-0.231053
0.0115886 	-0.00325868 	-0.000126922 	-0.231053
0.0116388 	-0.00335875 	-0.000263135 	-0.229665
0.011689 	-0.00343496 	-0.000402963 	-0.228286
0.011689 	-0.00343496 	-0.000402963 	-0.228286
0.0117391 	-0.00347509 	-0.000446312 	-0.226789
0.0117893 	-0.00348621 	-0.000412054 	-0.225196
0.0117893 	-0.00348621 	-0.000412054 	-0.225196
0.0118395 	-0.00348384 	-0.000320411 	-0.223603
0.0118896 	-0.00347009 	-0.000180285 	-0.222008
0.0118896 	-0.00347009 	-0.000180285 	-0.222008
0.0119398 	-0.0034616 	-9.31657e-05 	-0.220582
0.0119398 	-0.0034616 	-9.31657e-05 	-0.220582
0.01199 	-0.00345717 	-4.68045e-05 	-0.219286
0.01199 	-0.00345717 	-4.68045e-05 	-0.219286
0.0120401 	-0.00346026 	-4.53679e-05 	-0.218122
0.0120401 	-0.00346026 	-4.53679e-05 	-0.218122
0.0120903 	-0.00346789 	-7.10678e-05 	-0.217038
0.0120903 	-0.00346789 	-7.10678e-05 	-0.217038
0.0121405 	-0.00348131 	-9.60357e-05 	-0.21601
0.0121405 	-0.00348131 	-9.60357e-05 	-0.21601
0.0121906 	-0.00349703 	-0.000120713 	-0.215004
0.0121906 	-0.00349703 	-0.000120713 	-0.215004
0.0122408 	-0.00351263 	-0.000120615 	-0.213988
0.0122408 	-0.00351263 	-0.000120615 	-0.213988
0.012291 	-0.00352822 	-0.000115854 	-0.212969
0.012291 	-0.00352822 	-0.000115854 	-0.212969
0.0123411 	-0.00354197 	-0.000106499 	-0.211907
0.0123411 	-0.00354197 	-0.000106499 	-0.211907
0.0123913 	-0.00355589 	-9.8901e-05 	-0.210837
0.0123913 	-0.00355589 	-9.8901e-05 	-0.210837
0.0124415 	-0.00357054 	-9.86985e-05 	-0.20973
0.0124916 	-0.00358587 	-9.75767e-05 	-0.208602
0.0124916 	-0.00358587 	-9.75767e-05 	-0.208602
0.012592 	-0.00361867 	-9.17101e-05 	-0.206249
0.012592 	-0.00361867 	-9.17101e-05 	-0.206249
0.0126421 	-0.00363529 	-8.77513e-05 	-0.205036
0.0126923 	-0.00364989 	-8.39257e-05 	-0.203766
0.0126923 	-0.00364989 	-8.39257e-05 	-0.203766
0.0127425 	-0.00366344 	-8.02228e-05 	-0.202476
0.0127425 	-0.00366344 	-8.02228e-05 	-0.202476
0.0127926 	-0.00367438 	-7.68342e-05 	-0.201138
0.0128428 	-0.00368336 	-7.33968e-05 	-0.199758
0.0128428 	-0.00368336 	-7.33968e-05 	-0.199758
0.012893 	-0.00369112 	-6.99289e-05 	-0.198351
0.0129431 	-0.00369619 	-6.6564e-05 	-0.19687
0.0129431 	-0.00369619 	-6.6564e-05 	-0.19687
0.0129933 	-0.0037002 	-6.33917e-05 	-0.195355
0.0130435 	-0.00370261 	-6.05154e-05 	-0.193791
0.0130435 	-0.00370261 	-6.05154e-05 	-0.193791
0.0130936 	-0.00370286 	-5.80236e-05 	-0.192154
0.0131438 	-0.00370192 	-5.56525e-05 	-0.190474
0.0131438 	-0.00370192 	-5.56525e-05 	-0.190474
0.013194 	-0.00369912 	-5.33793e-05 	-0.188726
0.0132441 	-0.00369436 	-5.12862e-05 	-0.186895
0.0132441 	-0.00369436 	-5.12862e-05 	-0.186895
0.0132943 	-0.00368829 	-4.93598e-05 	-0.185007
0.0133445 	-0.0036804 	-4.77209e-05 	-0.183032
0.0133445 	-0.0036804 	-4.77209e-05 	-0.183032
0.0133946 	-0.00367045 	-4.63874e-05 	-0.180946
0.0134448 	-0.00365909 	-4.52766e-05 	-0.178777
0.0134448 	-0.00365909 	-4.52766e-05 	-0.178777
0.013495 	-0.00364617 	-4.44148e-05 	-0.176517
0.0135452 	-0.0036306 	-4.38964e-05 	-0.174094
0.0135452 	-0.0036306 	-4.38964e-05 	-0.174094
0.0136455 	-0.00359304 	-4.2864e-05 	-0.168897
0.0136455 	-0.00359304 	-4.2864e-05 	-0.168897
0.0136957 	-0.0035696 	-4.20186e-05 	-0.166069
0.0137458 	-0.00354093 	-4.04701e-05 	-0.163018
0.0137458 	-0.00354093 	-4.04701e-05 	-0.163018
0.013796 	-0.00350768 	-3.85173e-05 	-0.159774
0.0138462 	-0.0034695 	-3.6408e-05 	-0.156316
0.0138462 	-0.0034695 	-3.6408e-05 	-0.156316
0.0138963 	-0.00342604 	-3.44921e-05 	-0.152626
0.0138963 	-0.00342604 	-3.44921e-05 	-0.152626
0.0139465 	-0.00337525 	-3.27363e-05 	-0.148603
0.0139967 	-0.00331804 	-3.09208e-05 	-0.144295
0.0139967 	-0.00331804 	-3.09208e-05 	-0.144295
0.0140468 	-0.00325387 	-2.92382e-05 	-0.139684
0.0140468 	-0.00325387 	-2.92382e-05 	-0.139684
0.014097 	-0.00318209 	-2.76414e-05 	-0.134746
0.0141472 	-0.00310204 	-2.58387e-05 	-0.129453
0.0141973 	-0.00301274 	-2.33509e-05 	-0.123781
0.0141973 	-0.00301274 	-2.33509e-05 	-0.123781
0.0142475 	-0.00291083 	-1.98254e-05 	-0.117633
0.0142977 	-0.00279644 	-1.59569e-05 	-0.111044
0.0143478 	-0.00266826 	-1.24094e-05 	-0.104002
0.0143478 	-0.00266826 	-1.24094e-05 	-0.104002
0.014398 	-0.00252526 	-9.22956e-06 	-0.0965119
0.014398 	-0.00252526 	-9.22956e-06 	-0.0965119
0.0144482 	-0.00236716 	-6.27372e-06 	-0.0886084
0.0144983 	-0.0021947 	-3.61222e-06 	-0.0803599
0.0144983 	-0.0021947 	-3.61222e-06 	-0.0803599
0.0145485 	-0.00200967 	-1.47099e-06 	-0.0718668
0.0145987 	-0.00181489 	7.14703e-09 	-0.0632504
0.0145987 	-0.00181489 	7.14703e-09 	-0.0632504
0.0146488 	-0.00161383 	7.86035e-07 	-0.0546331
0.014699 	-0.00141014 	8.72915e-07 	-0.0461176
0.014699 	-0.00141014 	8.72915e-07 	-0.0461176
0.0147492 	-0.00120766 	3.13455e-07 	-0.0377801
0.0147993 	-0.00101111 	-7.01432e-07 	-0.0296822
0.0147993 	-0.00101111 	-7.01432e-07 	-0.0296822
0.0148495 	-0.000827884 	-1.9709e-06 	-0.0218972
0.0148495 	-0.000827884 	-1.9709e-06 	-0.0218972
0.0148997 	-0.00064168 	-2.38472e-06 	-0.0144752
0.0148997 	-0.00064168 	-2.38472e-06 	-0.0144752
0.0149498 	-0.000379455 	-1.5452e-06 	-0.00728933
0.0149498 	-0.000379455 	-1.5452e-06 	-0.00728933
0.015 	0 	0 	0
