-0.0075 	0 	0 	0
-0.0075 	-3.9938e-22 	-3.57531e-22 	1.39356e-18
-0.00745622 	2.5789e-06 	2.30867e-06 	-0.00899857
-0.00745622 	2.5789e-06 	2.30867e-06 	-0.00899857
-0.00741165 	4.50851e-06 	8.25898e-06 	-0.0181943
-0.00741165 	4.50851e-06 	8.25898e-06 	-0.0181943
-0.00736628 	4.92486e-06 	1.82082e-05 	-0.0275733
-0.00736628 	4.92486e-06 	1.82082e-05 	-0.0275733
-0.0073201 	3.0792e-06 	3.20728e-05 	-0.0370796
-0.0073201 	3.0792e-06 	3.20728e-05 	-0.0370796
-0.00727309 	-1.62363e-06 	4.96544e-05 	-0.0466558
-0.00727309 	-1.62363e-06 	4.96544e-05 	-0.0466558
-0.00722524 	-9.60656e-06 	7.07519e-05 	-0.0562458
-0.00722524 	-9.60656e-06 	7.07519e-05 	-0.0562458
-0.00717653 	-2.11088e-05 	9.51713e-05 	-0.0657967
-0.00717653 	-2.11088e-05 	9.51713e-05 	-0.0657967
-0.00712695 	-3.6182e-05 	0.000122702 	-0.0752611
-0.00712695 	-3.6182e-05 	0.000122702 	-0.0752611
-0.00707647 	-5.46969e-05 	0.000153129 	-0.0845997
-0.00707647 	-5.46969e-05 	0.000153129 	-0.0845997
-0.0070251 	-7.63578e-05 	0.00018625 	-0.0937827
-0.0070251 	-7.63578e-05 	0.00018625 	-0.0937827
-0.0069728 	-0.000100722 	0.000221883 	-0.10279
-0.0069728 	-0.000100722 	0.000221883 	-0.10279
-0.00691956 	-0.00012722 	0.000259877 	-0.11161
-0.00691956 	-0.00012722 	0.000259877 	-0.11161
-0.00686537 	-0.000155172 	0.000300117 	-0.120239
-0.00686537 	-0.000155172 	0.000300117 	-0.120239
-0.00681021 	-0.000183795 	0.000342518 	-0.128677
-0.00681021 	-0.000183795 	0.000342518 	-0.128677
-0.00675406 	-0.000212216 	0.000387022 	-0.136924
-0.00675406 	-0.000212216 	0.000387022 	-0.136924
-0.0066969 	-0.000239489 	0.000433588 	-0.14498
-0.0066969 	-0.000239489 	0.000433588 	-0.14498
-0.00663871 	-0.000264614 	0.000482173 	-0.152844
-0.00663871 	-0.000264614 	0.000482173 	-0.152844
-0.00657949 	-0.000286566 	0.00053272 	-0.160512
-0.00657949 	-0.000286566 	0.00053272 	-0.160512
-0.0065192 	-0.000304336 	0.000585137 	-0.167975
-0.0065192 	-0.000304336 	0.000585137 	-0.167975
-0.00645783 	-0.000316978 	0.000639288 	-0.175222
-0.00645783 	-0.000316978 	0.000639288 	-0.175222
-0.00639535 	-0.000323659 	0.000694981 	-0.182237
-0.00639535 	-0.000323659 	0.000694981 	-0.182237
-0.00633176 	-0.000323711 	0.000751966 	-0.189004
-0.00633176 	-0.000323711 	0.000751966 	-0.189004
-0.00626703 	-0.000316669 	0.000809935 	-0.195503
-0.00626703 	-0.000316669 	0.000809935 	-0.195503
-0.00620114 	-0.0003023 	0.000868523 	-0.201716
-0.00620114 	-0.0003023 	0.000868523 	-0.201716
-0.00613406 	-0.000280613 	0.000927319 	-0.207623
-0.00613406 	-0.000280613 	0.000927319 	-0.207623
-0.00606579 	-0.000251854 	0.00098587 	-0.213207
-0.00606579 	-0.000251854 	0.00098587 	-0.213207
-0.00599629 	-0.000216478 	0.00104369 	-0.218453
-0.00599629 	-0.000216478 	0.00104369 	-0.218453
-0.00592554 	-0.000175115 	0.00110026 	-0.223346
-0.00592554 	-0.000175115 	0.00110026 	-0.223346
-0.00585352 	-0.000128529 	0.00115507 	-0.227876
-0.00585352 	-0.000128529 	0.00115507 	-0.227876
-0.00578022 	-7.75607e-05 	0.0012076 	-0.232035
-0.00578022 	-7.75607e-05 	0.0012076 	-0.232035
-0.00570559 	-2.3091e-05 	0.00125735 	-0.235821
-0.00570559 	-2.3091e-05 	0.00125735 	-0.235821
-0.00562963 	3.40067e-05 	0.00130384 	-0.239233
-0.00562963 	3.40067e-05 	0.00130384 	-0.239233
-0.00555231 	9.28979e-05 	0.00134664 	-0.242276
-0.00555231 	9.28979e-05 	0.00134664 	-0.242276
-0.0054736 	0.000152809 	0.00138538 	-0.244959
-0.0054736 	0.000152809 	0.00138538 	-0.244959
-0.00539348 	0.000213033 	0.00141974 	-0.247295
-0.00539348 	0.000213033 	0.00141974 	-0.247295
-0.00531193 	0.000272934 	0.00144946 	-0.249301
-0.00531193 	0.000272934 	0.00144946 	-0.249301
-0.00522891 	0.000331924 	0.00147439 	-0.250997
-0.00522891 	0.000331924 	0.00147439 	-0.250997
-0.0051444 	0.000389453 	0.00149444 	-0.252405
-0.0051444 	0.000389453 	0.00149444 	-0.252405
-0.00505838 	0.000445056 	0.0015096 	-0.253552
-0.00505838 	0.000445056 	0.0015096 	-0.253552
-0.00497081 	0.000498373 	0.00151999 	-0.254467
-0.00497081 	0.000498373 	0.00151999 	-0.254467
-0.00488168 	0.000549032 	0.00152573 	-0.25518
-0.00488168 	0.000549032 	0.00152573 	-0.25518
-0.00479094 	0.000596641 	0.001527 	-0.255718
-0.00479094 	0.000596641 	0.001527 	-0.255718
-0.00469858 	0.000640865 	0.00152402 	-0.256108
-0.00469858 	0.000640865 	0.00152402 	-0.256108
-0.00460456 	0.000681449 	0.00151706 	-0.256377
-0.00460456 	0.000681449 	0.00151706 	-0.256377
-0.00450886 	0.000718213 	0.00150638 	-0.256549
-0.00450886 	0.000718213 	0.00150638 	-0.256549
-0.00441144 	0.000751056 	0.00149225 	-0.256644
-0.00441144 	0.000751056 	0.00149225 	-0.256644
-0.00431227 	0.000779948 	0.00147494 	-0.256681
-0.00431227 	0.000779948 	0.00147494 	-0.256681
-0.00421133 	0.000804915 	0.00145467 	-0.256674
-0.00421133 	0.000804915 	0.00145467 	-0.256674
-0.00410857 	0.000826008 	0.00143165 	-0.256635
-0.00410857 	0.000826008 	0.00143165 	-0.256635
-0.00400397 	0.000843269 	0.00140602 	-0.256574
-0.00400397 	0.000843269 	0.00140602 	-0.256574
-0.0038975 	0.0008567 	0.00137784 	-0.256495
-0.0038975 	0.0008567 	0.00137784 	-0.256495
-0.00378912 	0.000866211 	0.00134743 	-0.256405
-0.00378912 	0.000866211 	0.00134743 	-0.256405
-0.00367879 	0.000871587 	0.00131488 	-0.256305
-0.00367879 	0.000871587 	0.00131488 	-0.256305
-0.00356649 	0.000872315 	0.00127983 	-0.256197
-0.00356649 	0.000872315 	0.00127983 	-0.256197
-0.00345217 	0.000867546 	0.00124236 	-0.256082
-0.00345217 	0.000867546 	0.00124236 	-0.256082
-0.0033358 	0.000856408 	0.00120284 	-0.255963
-0.0033358 	0.000856408 	0.00120284 	-0.255963
-0.00321735 	0.00083823 	0.00116138 	-0.255843
-0.00321735 	0.00083823 	0.00116138 	-0.255843
-0.00309677 	0.000812549 	0.00111802 	-0.255725
-0.00309677 	0.000812549 	0.00111802 	-0.255725
-0.00297403 	0.000779123 	0.0010729 	-0.25561
-0.00297403 	0.000779123 	0.0010729 	-0.25561
-0.00284909 	0.000737939 	0.00102618 	-0.2555
-0.00284909 	0.000737939 	0.00102618 	-0.2555
-0.0027219 	0.000689205 	0.000978025 	-0.255394
-0.0027219 	0.000689205 	0.000978025 	-0.255394
-0.00259244 	0.000633351 	0.000928608 	-0.255295
-0.00259244 	0.000633351 	0.000928608 	-0.255295
-0.00246065 	0.000571049 	0.000878125 	-0.255201
-0.00246065 	0.000571049 	0.000878125 	-0.255201
-0.00232651 	0.000503236 	0.000826766 	-0.255114
-0.00232651 	0.000503236 	0.000826766 	-0.255114
-0.00218995 	0.00043115 	0.000774829 	-0.255034
-0.00218995 	0.00043115 	0.000774829 	-0.255034
-0.00205095 	0.000356176 	0.000722793 	-0.25496
-0.00205095 	0.000356176 	0.000722793 	-0.25496
-0.00190946 	0.000279553 	0.00067088 	-0.254893
-0.00190946 	0.000279553 	0.00067088 	-0.254893
-0.00176543 	0.000202505 	0.000619106 	-0.254832
-0.00176543 	0.000202505 	0.000619106 	-0.254832
-0.00161881 	0.000126595 	0.000567801 	-0.254778
-0.00161881 	0.000126595 	0.000567801 	-0.254778
-0.00146957 	5.36032e-05 	0.000517307 	-0.25473
-0.00146957 	5.36032e-05 	0.000517307 	-0.25473
-0.00131765 	-1.46923e-05 	0.000467794 	-0.25469
-0.00131765 	-1.46923e-05 	0.000467794 	-0.25469
-0.001163 	-7.65633e-05 	0.000419429 	-0.254657
-0.001163 	-7.65633e-05 	0.000419429 	-0.254657
-0.00100559 	-0.000130369 	0.000372321 	-0.254633
-0.00100559 	-0.000130369 	0.000372321 	-0.254633
-0.000845345 	-0.000174575 	0.000326606 	-0.254617
-0.000845345 	-0.000174575 	0.000326606 	-0.254617
-0.000682232 	-0.000207852 	0.000282438 	-0.254611
-0.000682232 	-0.000207852 	0.000282438 	-0.254611
-0.000516194 	-0.000229183 	0.000239935 	-0.254615
-0.000516194 	-0.000229183 	0.000239935 	-0.254615
-0.000347178 	-0.000237944 	0.000199205 	-0.254629
-0.000347178 	-0.000237944 	0.000199205 	-0.254629
-0.000175132 	-0.000233958 	0.000160346 	-0.254655
-0.000175132 	-0.000233958 	0.000160346 	-0.254655
0 	-0.000217627 	0.000123592 	-0.254693
0 	-0.000217627 	0.000123592 	-0.254693
0.000175132 	-0.000190294 	8.94195e-05 	-0.254742
0.000175132 	-0.000190294 	8.94195e-05 	-0.254742
0.000347178 	-0.000154009 	5.81387e-05 	-0.254802
0.000347178 	-0.000154009 	5.81387e-05 	-0.254802
0.000516194 	-0.000110741 	2.96249e-05 	-0.254872
0.000516194 	-0.000110741 	2.96249e-05 	-0.254872
0.000682232 	-6.23564e-05 	3.58265e-06 	-0.254952
0.000682232 	-6.23564e-05 	3.58265e-06 	-0.254952
0.000845345 	-1.06844e-05 	-2.03016e-05 	-0.255041
0.000845345 	-1.06844e-05 	-2.03016e-05 	-0.255041
0.00100559 	4.28368e-05 	-4.23679e-05 	-0.255137
0.00100559 	4.28368e-05 	-4.23679e-05 	-0.255137
0.001163 	9.73544e-05 	-6.3019e-05 	-0.255241
0.001163 	9.73544e-05 	-6.3019e-05 	-0.255241
0.00131765 	0.000152524 	-8.27546e-05 	-0.255354
0.00131765 	0.000152524 	-8.27546e-05 	-0.255354
0.00146957 	0.000208167 	-0.000102055 	-0.255475
0.00146957 	0.000208167 	-0.000102055 	-0.255475
0.00161881 	0.000264072 	-0.000121354 	-0.255605
0.00161881 	0.000264072 	-0.000121354 	-0.255605
0.00176543 	0.000320043 	-0.000141104 	-0.255743
0.00176543 	0.000320043 	-0.000141104 	-0.255743
0.00190946 	0.00037588 	-0.00016175 	-0.25589
0.00190946 	0.00037588 	-0.00016175 	-0.25589
0.00205095 	0.000431306 	-0.000183682 	-0.256045
0.00205095 	0.000431306 	-0.000183682 	-0.256045
0.00218995 	0.000485873 	-0.000207218 	-0.256208
0.00218995 	0.000485873 	-0.000207218 	-0.256208
0.00232651 	0.000538916 	-0.000232603 	-0.256379
0.00232651 	0.000538916 	-0.000232603 	-0.256379
0.00246065 	0.000589534 	-0.000259998 	-0.256556
0.00246065 	0.000589534 	-0.000259998 	-0.256556
0.00259244 	0.000636614 	-0.000289478 	-0.256739
0.00259244 	0.000636614 	-0.000289478 	-0.256739
0.0027219 	0.000678895 	-0.000321035 	-0.256926
0.0027219 	0.000678895 	-0.000321035 	-0.256926
0.00284909 	0.000715064 	-0.000354577 	-0.257117
0.00284909 	0.000715064 	-0.000354577 	-0.257117
0.00297403 	0.000743869 	-0.000389938 	-0.257309
0.00297403 	0.000743869 	-0.000389938 	-0.257309
0.00309677 	0.000764225 	-0.000426889 	-0.257501
0.00309677 	0.000764225 	-0.000426889 	-0.257501
0.00321735 	0.000775317 	-0.000465158 	-0.257691
0.00321735 	0.000775317 	-0.000465158 	-0.257691
0.0033358 	0.000776698 	-0.000504471 	-0.257876
0.0033358 	0.000776698 	-0.000504471 	-0.257876
0.00345217 	0.000768397 	-0.000544501 	-0.258051
0.00345217 	0.000768397 	-0.000544501 	-0.258051
0.00356649 	0.000751025 	-0.000584794 	-0.258213
0.00356649 	0.000751025 	-0.000584794 	-0.258213
0.00367879 	0.000725588 	-0.000624903 	-0.258359
0.00367879 	0.000725588 	-0.000624903 	-0.258359
0.00378912 	0.000692818 	-0.000664745 	-0.258489
0.00378912 	0.000692818 	-0.000664745 	-0.258489
0.0038975 	0.000652759 	-0.000704435 	-0.258604
0.0038975 	0.000652759 	-0.000704435 	-0.258604
0.00400397 	0.000605177 	-0.000743784 	-0.2587
0.00400397 	0.000605177 	-0.000743784 	-0.2587
0.00410857 	0.000549913 	-0.000782485 	-0.258773
0.00410857 	0.000549913 	-0.000782485 	-0.258773
0.00421133 	0.000486902 	-0.000820331 	-0.258813
0.00421133 	0.000486902 	-0.000820331 	-0.258813
0.00431227 	0.000416278 	-0.000857072 	-0.258808
0.00431227 	0.000416278 	-0.000857072 	-0.258808
0.00441144 	0.000338529 	-0.00089237 	-0.258743
0.00441144 	0.000338529 	-0.00089237 	-0.258743
0.00450886 	0.000254616 	-0.000925809 	-0.258596
0.00450886 	0.000254616 	-0.000925809 	-0.258596
0.00460456 	0.000166044 	-0.000956912 	-0.258342
0.00460456 	0.000166044 	-0.000956912 	-0.258342
0.00469858 	7.48658e-05 	-0.000985155 	-0.257951
0.00469858 	7.48658e-05 	-0.000985155 	-0.257951
0.00479094 	-1.63721e-05 	-0.00100998 	-0.257389
0.00479094 	-1.63721e-05 	-0.00100998 	-0.257389
0.00488168 	-0.000104794 	-0.00103079 	-0.25662
0.00488168 	-0.000104794 	-0.00103079 	-0.25662
0.00497081 	-0.000187508 	-0.00104703 	-0.255605
0.00497081 	-0.000187508 	-0.00104703 	-0.255605
0.00505838 	-0.000261812 	-0.00105819 	-0.254301
0.00505838 	-0.000261812 	-0.00105819 	-0.254301
0.0051444 	-0.000325228 	-0.00106378 	-0.25267
0.0051444 	-0.000325228 	-0.00106378 	-0.25267
0.00522891 	-0.000375652 	-0.00106347 	-0.250675
0.00522891 	-0.000375652 	-0.00106347 	-0.250675
0.00531193 	-0.000411593 	-0.00105704 	-0.248285
0.00531193 	-0.000411593 	-0.00105704 	-0.248285
0.00539348 	-0.000432268 	-0.00104442 	-0.245473
0.00539348 	-0.000432268 	-0.00104442 	-0.245473
0.0054736 	-0.000437612 	-0.00102567 	-0.242218
0.0054736 	-0.000437612 	-0.00102567 	-0.242218
0.00555231 	-0.000428271 	-0.001001 	-0.238506
0.00555231 	-0.000428271 	-0.001001 	-0.238506
0.00562963 	-0.000405548 	-0.000970737 	-0.23433
0.00562963 	-0.000405548 	-0.000970737 	-0.23433
0.00570559 	-0.000371316 	-0.000935338 	-0.229691
0.00570559 	-0.000371316 	-0.000935338 	-0.229691
0.00578022 	-0.000327893 	-0.00089537 	-0.224594
0.00578022 	-0.000327893 	-0.00089537 	-0.224594
0.00585352 	-0.000277893 	-0.000851479 	-0.219054
0.00585352 	-0.000277893 	-0.000851479 	-0.219054
0.00592554 	-0.000224057 	-0.000804363 	-0.21309
0.00592554 	-0.000224057 	-0.000804363 	-0.21309
0.00599629 	-0.000169082 	-0.000754739 	-0.206723
0.00599629 	-0.000169082 	-0.000754739 	-0.206723
0.00606579 	-0.000115474 	-0.000703326 	-0.19998
0.00606579 	-0.000115474 	-0.000703326 	-0.19998
0.00613406 	-6.54291e-05 	-0.000650825 	-0.192889
0.00613406 	-6.54291e-05 	-0.000650825 	-0.192889
0.00620114 	-2.07323e-05 	-0.000597915 	-0.185482
0.00620114 	-2.07323e-05 	-0.000597915 	-0.185482
0.00626703 	1.73117e-05 	-0.000545241 	-0.177794
0.00626703 	1.73117e-05 	-0.000545241 	-0.177794
0.00633176 	4.7914e-05 	-0.000493401 	-0.16986
0.00633176 	4.7914e-05 	-0.000493401 	-0.16986
0.00639535 	7.07947e-05 	-0.000442941 	-0.161718
0.00639535 	7.07947e-05 	-0.000442941 	-0.161718
0.00645783 	8.6138e-05 	-0.000394345 	-0.153405
0.00645783 	8.6138e-05 	-0.000394345 	-0.153405
0.0065192 	9.45182e-05 	-0.00034803 	-0.144959
0.0065192 	9.45182e-05 	-0.00034803 	-0.144959
0.00657949 	9.6805e-05 	-0.000304342 	-0.136415
0.00657949 	9.6805e-05 	-0.000304342 	-0.136415
0.00663871 	9.40612e-05 	-0.000263555 	-0.127813
0.00663871 	9.40612e-05 	-0.000263555 	-0.127813
0.0066969 	8.74413e-05 	-0.000225874 	-0.119188
0.0066969 	8.74413e-05 	-0.000225874 	-0.119188
0.00675406 	7.80995e-05 	-0.000191427 	-0.110577
0.00675406 	7.80995e-05 	-0.000191427 	-0.110577
0.00681021 	6.71133e-05 	-0.000160272 	-0.102016
0.00681021 	6.71133e-05 	-0.000160272 	-0.102016
0.00686537 	5.54297e-05 	-0.000132409 	-0.0935404
0.00686537 	5.54297e-05 	-0.000132409 	-0.0935404
0.00691956 	4.38305e-05 	-0.000107783 	-0.085184
0.00691956 	4.38305e-05 	-0.000107783 	-0.085184
0.0069728 	3.29154e-05 	-8.62902e-05 	-0.0769783
0.0069728 	3.29154e-05 	-8.62902e-05 	-0.0769783
0.0070251 	2.31045e-05 	-6.77794e-05 	-0.0689488
0.0070251 	2.31045e-05 	-6.77794e-05 	-0.0689488
0.00707647 	1.4657e-05 	-5.20651e-05 	-0.0611151
0.00707647 	1.4657e-05 	-5.20651e-05 	-0.0611151
0.00712695 	7.69949e-06 	-3.89358e-05 	-0.0534902
0.00712695 	7.69949e-06 	-3.89358e-05 	-0.0534902
0.00717653 	2.25818e-06 	-2.81648e-05 	-0.0460809
0.00717653 	2.25818e-06 	-2.81648e-05 	-0.0460809
0.00722524 	-1.70932e-06 	-1.95192e-05 	-0.0388891
0.00722524 	-1.70932e-06 	-1.95192e-05 	-0.0388891
0.00727309 	-4.28744e-06 	-1.27662e-05 	-0.0319127
0.00727309 	-4.28744e-06 	-1.27662e-05 	-0.0319127
0.0073201 	-5.58183e-06 	-7.6837e-06 	-0.0251465
0.0073201 	-5.58183e-06 	-7.6837e-06 	-0.0251465
0.00736628 	-5.7046e-06 	-4.05333e-06 	-0.0185833
0.00736628 	-5.7046e-06 	-4.05333e-06 	-0.0185833
0.00741165 	-4.75721e-06 	-1.70847e-06 	-0.0122149
0.00741165 	-4.75721e-06 	-1.70847e-06 	-0.0122149
0.00745622 	-2.82549e-06 	-4.40209e-07 	-0.00603245
0.00745622 	-2.82549e-06 	-4.40209e-07 	-0.00603245
0.0075 	0 	0 	0
0.0075 	0 	0 	0
