/*--------------------------------*- C++ -*----------------------------------*\
| =========                 |                                                 |
| \\      /  F ield         | OpenFOAM: The Open Source CFD Toolbox           |
|  \\    /   O peration     | Version:  v1912                                 |
|   \\  /    A nd           | Website:  www.openfoam.com                      |
|    \\/     M anipulation  |                                                 |
\*---------------------------------------------------------------------------*/
FoamFile
{
    version     2.0;
    format      ascii;
    class       volScalarField;
    location    "10";
    object      heatTransferCoeff(T);
}
// * * * * * * * * * * * * * * * * * * * * * * * * * * * * * * * * * * * * * //

dimensions      [1 0 -3 -1 0 0 0];


internalField   uniform 0;

boundaryField
{
    leftWall
    {
        type            calculated;
        value           nonuniform List<scalar> 
216
(
-166.443
-168.49
-169.106
-171.163
-172.449
-174.594
-176.535
-178.816
-181.416
-183.887
-187.165
-189.878
-193.875
-196.893
-201.696
-205.14
-210.926
-215.028
-164.639
-166.699
-167.353
-169.439
-170.763
-172.95
-174.918
-177.226
-179.83
-182.28
-185.522
-188.145
-192.057
-194.908
-199.589
-202.815
-208.48
-212.37
-163.094
-165.218
-165.862
-167.982
-169.296
-171.482
-173.413
-175.677
-178.204
-180.559
-183.7
-186.179
-189.99
-192.658
-197.223
-200.204
-205.672
-209.195
-163.327
-165.462
-166.043
-168.131
-169.363
-171.465
-173.289
-175.442
-177.846
-180.092
-183.131
-185.55
-189.331
-192.047
-196.702
-199.86
-205.522
-209.287
-164.966
-167.193
-167.788
-169.994
-171.297
-173.555
-175.526
-177.89
-180.518
-183.036
-186.348
-189.08
-193.138
-196.176
-201.076
-204.531
-210.383
-214.386
-166.859
-169.009
-169.573
-171.715
-172.972
-175.196
-177.141
-179.531
-182.192
-184.827
-188.246
-191.195
-195.419
-198.729
-203.778
-207.455
-213.316
-217.361
-168.35
-170.361
-170.879
-172.857
-173.986
-176.022
-177.751
-179.916
-182.28
-184.653
-187.715
-190.383
-194.222
-197.281
-201.995
-205.547
-211.235
-215.386
-167.857
-169.871
-170.426
-172.408
-173.572
-175.607
-177.341
-179.463
-181.77
-184.018
-186.924
-189.365
-192.94
-195.69
-200.079
-203.325
-208.742
-212.715
-164.364
-166.265
-166.867
-168.769
-170.029
-172.013
-173.91
-176.028
-178.58
-180.899
-184.16
-186.777
-190.843
-193.889
-198.896
-202.52
-208.609
-212.923
-161.767
-163.773
-164.434
-166.478
-167.848
-169.987
-172.06
-174.346
-177.139
-179.64
-183.208
-186.018
-190.451
-193.682
-199.085
-202.849
-209.314
-213.703
-164.016
-166.419
-167.145
-169.586
-171.062
-173.584
-175.773
-178.392
-181.264
-183.987
-187.528
-190.377
-194.612
-197.653
-202.669
-206.051
-212.035
-216.016
-167.663
-170.196
-170.911
-173.441
-174.901
-177.482
-179.615
-182.262
-185.024
-187.735
-191.112
-193.915
-197.956
-200.952
-205.798
-209.199
-215.084
-219.167
)
;
    }
    rightWall
    {
        type            calculated;
        value           nonuniform List<scalar> 
216
(
-166.441
-168.35
-168.724
-170.712
-171.461
-173.56
-174.688
-176.904
-178.407
-180.753
-182.637
-185.128
-187.428
-190.085
-192.861
-195.725
-199.065
-202.219
-167.16
-169.245
-169.587
-171.753
-172.479
-174.74
-175.869
-178.23
-179.761
-182.242
-184.173
-186.795
-189.147
-191.93
-194.757
-197.73
-201.115
-204.342
-167.068
-169.121
-169.442
-171.558
-172.256
-174.457
-175.556
-177.863
-179.382
-181.825
-183.785
-186.403
-188.841
-191.674
-194.653
-197.753
-201.369
-204.812
-167.29
-169.369
-169.695
-171.796
-172.487
-174.64
-175.693
-177.921
-179.354
-181.683
-183.531
-185.996
-188.31
-190.961
-193.817
-196.729
-200.229
-203.505
-166.442
-168.529
-168.902
-171.007
-171.771
-173.94
-175.079
-177.332
-178.856
-181.213
-183.151
-185.635
-188.029
-190.684
-193.604
-196.504
-200.052
-203.311
-164.196
-166.192
-166.588
-168.635
-169.459
-171.614
-172.866
-175.159
-176.857
-179.314
-181.482
-184.129
-186.801
-189.672
-192.896
-196.051
-199.912
-203.441
-163.163
-165.068
-165.427
-167.398
-168.174
-170.258
-171.47
-173.705
-175.378
-177.799
-179.965
-182.611
-185.311
-188.222
-191.509
-194.742
-198.696
-202.337
-164.408
-166.339
-166.675
-168.673
-169.403
-171.501
-172.647
-174.872
-176.453
-178.836
-180.88
-183.457
-186.008
-188.818
-191.928
-195.023
-198.773
-202.234
-166.588
-168.67
-168.991
-171.122
-171.808
-174.009
-175.07
-177.352
-178.799
-181.177
-183.032
-185.532
-187.832
-190.488
-193.292
-196.158
-199.559
-202.735
-167.345
-169.369
-169.686
-171.75
-172.42
-174.556
-175.581
-177.803
-179.196
-181.523
-183.307
-185.765
-187.982
-190.603
-193.316
-196.158
-199.465
-202.619
-167.732
-169.578
-169.88
-171.769
-172.409
-174.381
-175.368
-177.454
-178.815
-181.05
-182.833
-185.263
-187.531
-190.206
-193.036
-196.018
-199.505
-202.883
-167.681
-169.438
-169.745
-171.559
-172.192
-174.1
-175.078
-177.106
-178.463
-180.649
-182.442
-184.842
-187.152
-189.831
-192.753
-195.798
-199.446
-202.981
)
;
    }
    leftSides_periodic0
    {
        type            cyclic;
    }
    leftSides_periodic1
    {
        type            cyclic;
    }
    rightSides_periodic0
    {
        type            cyclic;
    }
    rightSides_periodic1
    {
        type            cyclic;
    }
    leftInOut_periodic0
    {
        type            calculated;
        value           uniform 0;
    }
    leftInOut_periodic1
    {
        type            calculated;
        value           nonuniform 0();
    }
    rightInOut_periodic0
    {
        type            calculated;
        value           uniform 0;
    }
    rightInOut_periodic1
    {
        type            calculated;
        value           nonuniform 0();
    }
    procBoundary1to0
    {
        type            processor;
        value           uniform 0;
    }
    procBoundary1to2
    {
        type            processor;
        value           uniform 0;
    }
    procBoundary1to4
    {
        type            processor;
        value           uniform 0;
    }
}


// ************************************************************************* //
