/*--------------------------------*- C++ -*----------------------------------*\
| =========                 |                                                 |
| \\      /  F ield         | OpenFOAM: The Open Source CFD Toolbox           |
|  \\    /   O peration     | Version:  v1912                                 |
|   \\  /    A nd           | Website:  www.openfoam.com                      |
|    \\/     M anipulation  |                                                 |
\*---------------------------------------------------------------------------*/
FoamFile
{
    version     2.0;
    format      ascii;
    class       volScalarField;
    location    "10";
    object      k;
}
// * * * * * * * * * * * * * * * * * * * * * * * * * * * * * * * * * * * * * //

dimensions      [0 2 -2 0 0 0 0];


internalField   nonuniform List<scalar> 
34128
(
2.66077e-07
2.54937e-07
2.47731e-07
2.49986e-07
2.63766e-07
2.7551e-07
2.75359e-07
2.6666e-07
2.5549e-07
2.50564e-07
2.60636e-07
2.78102e-07
5.19489e-08
4.99187e-08
4.85134e-08
4.89445e-08
5.15429e-08
5.37844e-08
5.39026e-08
5.23696e-08
5.03641e-08
4.91067e-08
5.05405e-08
5.3984e-08
8.64644e-08
8.38721e-08
8.15568e-08
8.2201e-08
8.60209e-08
8.94576e-08
9.0386e-08
8.86991e-08
8.63351e-08
8.27768e-08
8.23936e-08
8.82207e-08
2.64353e-07
2.57039e-07
2.49977e-07
2.51766e-07
2.63006e-07
2.73262e-07
2.76534e-07
2.71981e-07
2.6553e-07
2.53886e-07
2.50951e-07
2.68614e-07
6.51932e-07
6.34516e-07
6.17064e-07
6.20954e-07
6.48085e-07
6.731e-07
6.81377e-07
6.70648e-07
6.55504e-07
6.26819e-07
6.18729e-07
6.61637e-07
1.33277e-06
1.29844e-06
1.26264e-06
1.26924e-06
1.32331e-06
1.37383e-06
1.39112e-06
1.37019e-06
1.34069e-06
1.28266e-06
1.26513e-06
1.35111e-06
2.38536e-06
2.32667e-06
2.26237e-06
2.27126e-06
2.36477e-06
2.4537e-06
2.48555e-06
2.45038e-06
2.40057e-06
2.29815e-06
2.26495e-06
2.41486e-06
3.86645e-06
3.77674e-06
3.6723e-06
3.68115e-06
3.8259e-06
3.9668e-06
4.02044e-06
3.96817e-06
3.89299e-06
3.72979e-06
3.67264e-06
3.90751e-06
5.79459e-06
5.66963e-06
5.51311e-06
5.51688e-06
5.72124e-06
5.9261e-06
6.01041e-06
5.94085e-06
5.83745e-06
5.59778e-06
5.50663e-06
5.84401e-06
8.13866e-06
7.97814e-06
7.75875e-06
7.74929e-06
8.01549e-06
8.29246e-06
8.41762e-06
8.33451e-06
8.20316e-06
7.87435e-06
7.73849e-06
8.18876e-06
1.08168e-05
1.0625e-05
1.03344e-05
1.03005e-05
1.06231e-05
1.09747e-05
1.11515e-05
1.10632e-05
1.09074e-05
1.04819e-05
1.02917e-05
1.08556e-05
1.37059e-05
1.34916e-05
1.3125e-05
1.30528e-05
1.34185e-05
1.38408e-05
1.40799e-05
1.39989e-05
1.38248e-05
1.33017e-05
1.30506e-05
1.37184e-05
1.66587e-05
1.64345e-05
1.59908e-05
1.58648e-05
1.62537e-05
1.67369e-05
1.70471e-05
1.69891e-05
1.68049e-05
1.61904e-05
1.58766e-05
1.66287e-05
1.95544e-05
1.93308e-05
1.88074e-05
1.86107e-05
1.90055e-05
1.95423e-05
1.993e-05
1.99075e-05
1.97219e-05
1.90275e-05
1.86544e-05
1.94696e-05
2.23308e-05
2.2119e-05
2.15143e-05
2.123e-05
2.16121e-05
2.21935e-05
2.26634e-05
2.26887e-05
2.25111e-05
2.17528e-05
2.13267e-05
2.21798e-05
2.49359e-05
2.47464e-05
2.40602e-05
2.36719e-05
2.40228e-05
2.46389e-05
2.51933e-05
2.52776e-05
2.51182e-05
2.43158e-05
2.38457e-05
2.47084e-05
2.73298e-05
2.7172e-05
2.64055e-05
2.58986e-05
2.62005e-05
2.68408e-05
2.74794e-05
2.76322e-05
2.7502e-05
2.66784e-05
2.61752e-05
2.70173e-05
2.94841e-05
2.93661e-05
2.8522e-05
2.78847e-05
2.81213e-05
2.87748e-05
2.94947e-05
2.9723e-05
2.96333e-05
2.88143e-05
2.82899e-05
2.90798e-05
3.13813e-05
3.13092e-05
3.03918e-05
2.96158e-05
2.97725e-05
3.04278e-05
3.12234e-05
3.15318e-05
3.14947e-05
3.07083e-05
3.01746e-05
3.08799e-05
3.30125e-05
3.29907e-05
3.20063e-05
3.10873e-05
3.11514e-05
3.17968e-05
3.266e-05
3.30504e-05
3.30785e-05
3.23536e-05
3.1822e-05
3.24103e-05
3.43764e-05
3.44071e-05
3.33637e-05
3.23025e-05
3.22631e-05
3.28863e-05
3.3807e-05
3.42789e-05
3.43847e-05
3.37511e-05
3.32314e-05
3.36709e-05
3.54766e-05
3.556e-05
3.4468e-05
3.32703e-05
3.31184e-05
3.37064e-05
3.46726e-05
3.52233e-05
3.54187e-05
3.49061e-05
3.44066e-05
3.46669e-05
3.63194e-05
3.64538e-05
3.53258e-05
3.4003e-05
3.37312e-05
3.42699e-05
3.52681e-05
3.58931e-05
3.6189e-05
3.58259e-05
3.53533e-05
3.54056e-05
3.69101e-05
3.70927e-05
3.59442e-05
3.45132e-05
3.41159e-05
3.459e-05
3.56054e-05
3.62986e-05
3.67038e-05
3.65157e-05
3.60755e-05
3.58946e-05
3.72506e-05
3.74781e-05
3.63277e-05
3.48114e-05
3.42846e-05
3.46777e-05
3.56939e-05
3.64478e-05
3.69683e-05
3.69765e-05
3.65722e-05
3.61375e-05
3.73374e-05
3.76067e-05
3.64764e-05
3.49033e-05
3.42452e-05
3.45394e-05
3.5539e-05
3.63448e-05
3.69829e-05
3.72021e-05
3.68353e-05
3.61329e-05
3.71614e-05
3.74693e-05
3.63843e-05
3.47885e-05
3.39994e-05
3.41768e-05
3.51417e-05
3.59891e-05
3.67423e-05
3.71787e-05
3.68488e-05
3.58735e-05
3.6702e-05
3.70461e-05
3.60373e-05
3.44591e-05
3.35428e-05
3.35857e-05
3.44969e-05
3.53735e-05
3.62311e-05
3.6875e-05
3.65781e-05
3.53416e-05
3.59119e-05
3.62899e-05
3.53998e-05
3.38907e-05
3.2856e-05
3.2748e-05
3.35849e-05
3.44743e-05
3.54094e-05
3.62232e-05
3.59501e-05
3.44948e-05
3.474e-05
3.5149e-05
3.44227e-05
3.30403e-05
3.19036e-05
3.16338e-05
3.2376e-05
3.32584e-05
3.42306e-05
3.51575e-05
3.48978e-05
3.32872e-05
3.31899e-05
3.36248e-05
3.30931e-05
3.1886e-05
3.06694e-05
3.02382e-05
3.08718e-05
3.17277e-05
3.26971e-05
3.36799e-05
3.34252e-05
3.17262e-05
3.13372e-05
3.17938e-05
3.14693e-05
3.0467e-05
2.91934e-05
2.86078e-05
2.91253e-05
2.99407e-05
3.08797e-05
3.18766e-05
3.16208e-05
2.98844e-05
2.92195e-05
2.9692e-05
2.95692e-05
2.87762e-05
2.748e-05
2.67636e-05
2.71658e-05
2.79289e-05
2.88121e-05
2.97808e-05
2.95199e-05
2.77995e-05
2.69063e-05
2.7388e-05
2.74532e-05
2.68668e-05
2.55769e-05
2.47582e-05
2.50517e-05
2.57539e-05
2.65593e-05
2.74622e-05
2.71941e-05
2.55401e-05
2.44807e-05
2.49641e-05
2.51943e-05
2.48019e-05
2.35448e-05
2.26562e-05
2.28522e-05
2.34875e-05
2.41995e-05
2.50067e-05
2.47319e-05
2.31875e-05
2.20272e-05
2.25039e-05
2.28694e-05
2.26495e-05
2.14488e-05
2.05242e-05
2.06372e-05
2.12025e-05
2.18118e-05
2.25039e-05
2.22252e-05
2.08234e-05
1.9624e-05
2.00852e-05
2.05517e-05
2.04766e-05
1.93523e-05
1.84253e-05
1.84712e-05
1.89658e-05
1.94702e-05
2.00384e-05
1.97612e-05
1.85236e-05
1.73386e-05
1.77753e-05
1.83065e-05
1.83452e-05
1.73132e-05
1.64146e-05
1.64096e-05
1.6835e-05
1.72382e-05
1.76841e-05
1.74155e-05
1.63523e-05
1.52242e-05
1.56275e-05
1.61883e-05
1.63091e-05
1.53811e-05
1.45371e-05
1.44967e-05
1.48557e-05
1.51666e-05
1.55004e-05
1.52483e-05
1.43594e-05
1.33185e-05
1.36806e-05
1.42386e-05
1.44122e-05
1.35953e-05
1.28262e-05
1.2764e-05
1.30609e-05
1.32918e-05
1.35301e-05
1.33022e-05
1.25791e-05
1.16443e-05
1.19585e-05
1.24865e-05
1.2687e-05
1.19842e-05
1.13043e-05
1.12317e-05
1.14713e-05
1.16365e-05
1.17994e-05
1.16028e-05
1.10313e-05
1.02115e-05
1.04724e-05
1.09487e-05
1.11552e-05
1.05658e-05
9.98327e-06
9.90931e-06
1.0097e-05
1.02111e-05
1.032e-05
1.01608e-05
9.72303e-06
9.01989e-06
9.22306e-06
9.63173e-06
9.82864e-06
9.34888e-06
8.86671e-06
8.79822e-06
8.93928e-06
9.01646e-06
9.09216e-06
8.97502e-06
8.65222e-06
8.06224e-06
8.20417e-06
8.53445e-06
8.71067e-06
8.33512e-06
7.95224e-06
7.89417e-06
7.99351e-06
8.04647e-06
8.1081e-06
8.0367e-06
7.81061e-06
7.32773e-06
7.40512e-06
7.65039e-06
7.79879e-06
7.52099e-06
7.23375e-06
7.18973e-06
7.25156e-06
7.29131e-06
7.35558e-06
7.33277e-06
7.18678e-06
6.80424e-06
6.81375e-06
6.9705e-06
7.08684e-06
6.90018e-06
6.70366e-06
6.67653e-06
6.70407e-06
6.73973e-06
6.82077e-06
6.84872e-06
6.76827e-06
6.47999e-06
6.41824e-06
6.48542e-06
6.56725e-06
6.46539e-06
6.35444e-06
6.34687e-06
6.34212e-06
6.38093e-06
6.49001e-06
6.57009e-06
6.54226e-06
6.34255e-06
6.20767e-06
6.18698e-06
6.23273e-06
6.20931e-06
6.17865e-06
6.19322e-06
6.15736e-06
6.20462e-06
6.34913e-06
6.48115e-06
6.49138e-06
6.33419e-06
6.16332e-06
6.06669e-06
6.07593e-06
6.12157e-06
6.14797e-06
6.17096e-06
6.12373e-06
6.17962e-06
6.3416e-06
6.50731e-06
6.54712e-06
6.43074e-06
6.22465e-06
6.05799e-06
6.05772e-06
6.1368e-06
6.21718e-06
6.25062e-06
6.19259e-06
6.25891e-06
6.43866e-06
6.62336e-06
6.68009e-06
6.58968e-06
6.36955e-06
6.15037e-06
6.1371e-06
6.245e-06
6.36414e-06
6.40397e-06
6.34251e-06
6.41356e-06
6.59042e-06
6.76166e-06
6.82072e-06
6.75334e-06
6.5545e-06
6.32026e-06
6.29506e-06
6.41443e-06
6.54104e-06
6.57816e-06
6.52667e-06
6.59177e-06
6.73863e-06
6.87927e-06
6.93443e-06
6.8955e-06
6.72655e-06
6.5204e-06
6.49111e-06
6.59428e-06
6.69954e-06
6.73002e-06
6.69376e-06
6.74818e-06
6.86265e-06
6.97611e-06
7.0263e-06
7.02115e-06
6.87594e-06
6.70145e-06
6.67317e-06
6.74966e-06
6.83311e-06
6.85925e-06
6.83632e-06
6.88187e-06
6.96915e-06
7.05899e-06
7.10378e-06
7.13477e-06
7.00897e-06
6.85854e-06
6.82902e-06
6.88384e-06
6.94935e-06
6.97288e-06
6.96146e-06
6.99945e-06
7.06331e-06
7.1322e-06
7.17163e-06
7.23874e-06
7.1295e-06
6.99786e-06
6.96553e-06
7.00276e-06
7.05331e-06
7.07523e-06
7.07363e-06
7.10479e-06
7.14803e-06
7.19817e-06
7.23263e-06
7.33406e-06
7.23945e-06
7.12318e-06
7.08743e-06
7.11013e-06
7.14789e-06
7.16857e-06
7.17511e-06
7.19984e-06
7.22475e-06
7.2581e-06
7.28821e-06
7.42093e-06
7.33955e-06
7.23647e-06
7.19743e-06
7.20798e-06
7.23456e-06
7.25392e-06
7.26691e-06
7.28543e-06
7.29404e-06
7.31252e-06
7.33903e-06
7.49924e-06
7.4299e-06
7.33859e-06
7.29691e-06
7.29732e-06
7.31395e-06
7.3316e-06
7.34936e-06
7.36186e-06
7.3561e-06
7.36159e-06
7.38533e-06
7.56884e-06
7.51045e-06
7.42988e-06
7.3865e-06
7.37854e-06
7.38628e-06
7.40165e-06
7.42256e-06
7.42926e-06
7.41102e-06
7.40539e-06
7.4272e-06
7.62969e-06
7.58115e-06
7.51048e-06
7.46647e-06
7.45182e-06
7.45159e-06
7.46406e-06
7.48659e-06
7.48777e-06
7.45893e-06
7.44403e-06
7.46467e-06
7.68193e-06
7.64214e-06
7.58059e-06
7.53701e-06
7.51725e-06
7.50995e-06
7.51888e-06
7.54166e-06
7.53768e-06
7.50007e-06
7.47765e-06
7.49782e-06
7.72585e-06
7.69368e-06
7.64051e-06
7.59833e-06
7.57497e-06
7.56147e-06
7.56629e-06
7.5881e-06
7.5794e-06
7.5348e-06
7.5065e-06
7.52678e-06
7.76191e-06
7.73623e-06
7.69066e-06
7.65073e-06
7.62517e-06
7.60633e-06
7.60654e-06
7.62637e-06
7.61348e-06
7.56354e-06
7.5309e-06
7.55174e-06
7.79072e-06
7.77033e-06
7.73158e-06
7.69459e-06
7.66812e-06
7.64478e-06
7.64001e-06
7.65707e-06
7.64055e-06
7.58686e-06
7.55123e-06
7.573e-06
7.81298e-06
7.79668e-06
7.76392e-06
7.73036e-06
7.70414e-06
7.67714e-06
7.66715e-06
7.68086e-06
7.66134e-06
7.60535e-06
7.56797e-06
7.59087e-06
7.82947e-06
7.81603e-06
7.78839e-06
7.75858e-06
7.73362e-06
7.70381e-06
7.68853e-06
7.6985e-06
7.67665e-06
7.61969e-06
7.58164e-06
7.60578e-06
7.84109e-06
7.82924e-06
7.8058e-06
7.77987e-06
7.75703e-06
7.72525e-06
7.70475e-06
7.71083e-06
7.68735e-06
7.63063e-06
7.59284e-06
7.61821e-06
7.84878e-06
7.83722e-06
7.81703e-06
7.79493e-06
7.77491e-06
7.74199e-06
7.71652e-06
7.71876e-06
7.69436e-06
7.63894e-06
7.6022e-06
7.62871e-06
7.85354e-06
7.84097e-06
7.82301e-06
7.80455e-06
7.78788e-06
7.75465e-06
7.72462e-06
7.72326e-06
7.69867e-06
7.64548e-06
7.61044e-06
7.63789e-06
7.85638e-06
7.84153e-06
7.82478e-06
7.80963e-06
7.79668e-06
7.76394e-06
7.72991e-06
7.72537e-06
7.70128e-06
7.6511e-06
7.61829e-06
7.64642e-06
7.85835e-06
7.84001e-06
7.82342e-06
7.81114e-06
7.80214e-06
7.77063e-06
7.73332e-06
7.72616e-06
7.70326e-06
7.65671e-06
7.62651e-06
7.65501e-06
7.86044e-06
7.83753e-06
7.82009e-06
7.81019e-06
7.8052e-06
7.77562e-06
7.73584e-06
7.72676e-06
7.70566e-06
7.66321e-06
7.63591e-06
7.6644e-06
7.86362e-06
7.83521e-06
7.81597e-06
7.80794e-06
7.80692e-06
7.77987e-06
7.73852e-06
7.72829e-06
7.70952e-06
7.67148e-06
7.64726e-06
7.67536e-06
7.86876e-06
7.83417e-06
7.8123e-06
7.80563e-06
7.80844e-06
7.78441e-06
7.74243e-06
7.73188e-06
7.71585e-06
7.68237e-06
7.6613e-06
7.68863e-06
7.8766e-06
7.83544e-06
7.81028e-06
7.80455e-06
7.81096e-06
7.79033e-06
7.74866e-06
7.7386e-06
7.7256e-06
7.69665e-06
7.67874e-06
7.70495e-06
7.88776e-06
7.84001e-06
7.81111e-06
7.80601e-06
7.81575e-06
7.79876e-06
7.75828e-06
7.74945e-06
7.73962e-06
7.71499e-06
7.70019e-06
7.72498e-06
7.90264e-06
7.84872e-06
7.81591e-06
7.81126e-06
7.82406e-06
7.81081e-06
7.7723e-06
7.76534e-06
7.7586e-06
7.73794e-06
7.72617e-06
7.7493e-06
7.92148e-06
7.86226e-06
7.82571e-06
7.82152e-06
7.83712e-06
7.82755e-06
7.79163e-06
7.78699e-06
7.78308e-06
7.76587e-06
7.75703e-06
7.77838e-06
2.84883e-07
2.73551e-07
2.65644e-07
2.6773e-07
2.83384e-07
2.96627e-07
2.96024e-07
2.86466e-07
2.74788e-07
2.68714e-07
2.78754e-07
2.98369e-07
5.35e-08
5.15963e-08
4.99296e-08
5.00167e-08
5.27412e-08
5.52237e-08
5.54002e-08
5.38703e-08
5.18468e-08
5.0484e-08
5.20002e-08
5.56604e-08
7.81743e-08
7.66299e-08
7.3232e-08
7.17022e-08
7.45051e-08
7.80838e-08
7.98621e-08
7.90555e-08
7.70897e-08
7.39793e-08
7.41837e-08
7.93115e-08
2.32427e-07
2.28784e-07
2.18008e-07
2.12193e-07
2.19599e-07
2.30149e-07
2.3646e-07
2.35104e-07
2.30153e-07
2.20327e-07
2.19484e-07
2.34302e-07
5.70876e-07
5.62543e-07
5.35764e-07
5.20618e-07
5.381e-07
5.63821e-07
5.79685e-07
5.76935e-07
5.6567e-07
5.41887e-07
5.39151e-07
5.74568e-07
1.16567e-06
1.14961e-06
1.09462e-06
1.0623e-06
1.09668e-06
1.14868e-06
1.18136e-06
1.17659e-06
1.15531e-06
1.10815e-06
1.10191e-06
1.1718e-06
2.08451e-06
2.05772e-06
1.95898e-06
1.89852e-06
1.95706e-06
2.04875e-06
2.10771e-06
2.10098e-06
2.06638e-06
1.98522e-06
1.97296e-06
2.09259e-06
3.37556e-06
3.33586e-06
3.17565e-06
3.07298e-06
3.1618e-06
3.30728e-06
3.40384e-06
3.3966e-06
3.34689e-06
3.22152e-06
3.19983e-06
3.38304e-06
5.0529e-06
4.9998e-06
4.76009e-06
4.59881e-06
4.72085e-06
4.93265e-06
5.07925e-06
5.07509e-06
5.01103e-06
4.83374e-06
4.79847e-06
5.05444e-06
7.08677e-06
7.02204e-06
6.68689e-06
6.44959e-06
6.60301e-06
6.88965e-06
7.09864e-06
7.10372e-06
7.02913e-06
6.79669e-06
6.74384e-06
7.07415e-06
9.40303e-06
9.33072e-06
8.8885e-06
8.55869e-06
8.73613e-06
9.10022e-06
9.38238e-06
9.40523e-06
9.32679e-06
9.04189e-06
8.9688e-06
9.36597e-06
1.18921e-05
1.1818e-05
1.1263e-05
1.0827e-05
1.10161e-05
1.14535e-05
1.18165e-05
1.18672e-05
1.17935e-05
1.14654e-05
1.13722e-05
1.18198e-05
1.44241e-05
1.43548e-05
1.3688e-05
1.31368e-05
1.33215e-05
1.38216e-05
1.42687e-05
1.43573e-05
1.42979e-05
1.39422e-05
1.38324e-05
1.43066e-05
1.69003e-05
1.6839e-05
1.60611e-05
1.53878e-05
1.55563e-05
1.61106e-05
1.66412e-05
1.67735e-05
1.67387e-05
1.63766e-05
1.62577e-05
1.67329e-05
1.92667e-05
1.92153e-05
1.833e-05
1.75312e-05
1.76715e-05
1.82697e-05
1.88802e-05
1.90603e-05
1.90606e-05
1.87168e-05
1.85983e-05
1.90468e-05
2.14779e-05
2.14373e-05
2.04507e-05
1.95269e-05
1.96284e-05
2.0259e-05
2.09426e-05
2.11722e-05
2.12177e-05
2.09194e-05
2.08124e-05
2.12053e-05
2.34993e-05
2.34683e-05
2.23896e-05
2.13457e-05
2.13993e-05
2.20499e-05
2.27969e-05
2.30749e-05
2.31754e-05
2.29513e-05
2.28677e-05
2.31761e-05
2.53059e-05
2.52821e-05
2.41228e-05
2.29688e-05
2.2967e-05
2.36242e-05
2.44224e-05
2.47455e-05
2.49098e-05
2.47888e-05
2.47406e-05
2.49367e-05
2.68819e-05
2.68608e-05
2.56355e-05
2.4386e-05
2.43231e-05
2.49732e-05
2.58084e-05
2.61707e-05
2.64064e-05
2.64168e-05
2.6415e-05
2.64726e-05
2.82187e-05
2.8195e-05
2.69205e-05
2.55952e-05
2.54668e-05
2.60952e-05
2.69519e-05
2.73461e-05
2.7659e-05
2.78269e-05
2.7881e-05
2.77771e-05
2.9314e-05
2.92815e-05
2.79772e-05
2.66e-05
2.6403e-05
2.69944e-05
2.78567e-05
2.8274e-05
2.86682e-05
2.90157e-05
2.91334e-05
2.88484e-05
3.017e-05
3.01229e-05
2.88101e-05
2.74086e-05
2.7141e-05
2.76791e-05
2.85307e-05
2.89624e-05
2.94395e-05
2.99833e-05
3.017e-05
2.96889e-05
3.07907e-05
3.07248e-05
2.94266e-05
2.80314e-05
2.76916e-05
2.81594e-05
2.89847e-05
2.9422e-05
2.99811e-05
3.07309e-05
3.0989e-05
3.03021e-05
3.11807e-05
3.1094e-05
2.9835e-05
2.84791e-05
2.80658e-05
2.84455e-05
2.92296e-05
2.96644e-05
3.03016e-05
3.12589e-05
3.15867e-05
3.06908e-05
3.13426e-05
3.12359e-05
3.00423e-05
2.87601e-05
2.82721e-05
2.85452e-05
2.92748e-05
2.97001e-05
3.04077e-05
3.15647e-05
3.19565e-05
3.08551e-05
3.12759e-05
3.11532e-05
3.00525e-05
2.88787e-05
2.83149e-05
2.84632e-05
2.91263e-05
2.95366e-05
3.0303e-05
3.16415e-05
3.20873e-05
3.07917e-05
3.09766e-05
3.08456e-05
2.98658e-05
2.88341e-05
2.81935e-05
2.81998e-05
2.87869e-05
2.91783e-05
2.99874e-05
3.14785e-05
3.19633e-05
3.04938e-05
3.04346e-05
3.03074e-05
2.94779e-05
2.86191e-05
2.79013e-05
2.77513e-05
2.82551e-05
2.86259e-05
2.9456e-05
3.10533e-05
3.15539e-05
2.99475e-05
2.96243e-05
2.95186e-05
2.88728e-05
2.82128e-05
2.74192e-05
2.71041e-05
2.75202e-05
2.78702e-05
2.86903e-05
3.03209e-05
3.08038e-05
2.91213e-05
2.85197e-05
2.84552e-05
2.80242e-05
2.75793e-05
2.67152e-05
2.62368e-05
2.65637e-05
2.68939e-05
2.76672e-05
2.92456e-05
2.96765e-05
2.79897e-05
2.7135e-05
2.71271e-05
2.69261e-05
2.67002e-05
2.57753e-05
2.5146e-05
2.53872e-05
2.56989e-05
2.63936e-05
2.78472e-05
2.82009e-05
2.65724e-05
2.55312e-05
2.55914e-05
2.5621e-05
2.56066e-05
2.46327e-05
2.38679e-05
2.40292e-05
2.43251e-05
2.49213e-05
2.62018e-05
2.64634e-05
2.49345e-05
2.37391e-05
2.38718e-05
2.41121e-05
2.42732e-05
2.32757e-05
2.241e-05
2.25022e-05
2.27838e-05
2.32702e-05
2.43449e-05
2.45076e-05
2.3113e-05
2.18172e-05
2.20203e-05
2.2442e-05
2.27434e-05
2.17435e-05
2.08122e-05
2.08481e-05
2.11163e-05
2.1489e-05
2.23414e-05
2.24064e-05
2.11708e-05
1.98334e-05
2.00993e-05
2.06658e-05
2.10693e-05
2.00874e-05
1.9127e-05
1.91196e-05
1.93745e-05
1.96372e-05
2.02666e-05
2.02422e-05
1.91794e-05
1.78553e-05
1.81714e-05
1.88417e-05
1.93091e-05
1.83643e-05
1.741e-05
1.7372e-05
1.76128e-05
1.77752e-05
1.81958e-05
1.80963e-05
1.72093e-05
1.59443e-05
1.62946e-05
1.70259e-05
1.75213e-05
1.66313e-05
1.57147e-05
1.56575e-05
1.58826e-05
1.59593e-05
1.61968e-05
1.60405e-05
1.53232e-05
1.41514e-05
1.45176e-05
1.52692e-05
1.57616e-05
1.49413e-05
1.40888e-05
1.40218e-05
1.4229e-05
1.42375e-05
1.43255e-05
1.4133e-05
1.35717e-05
1.2515e-05
1.28786e-05
1.36139e-05
1.40789e-05
1.33404e-05
1.25714e-05
1.25017e-05
1.26889e-05
1.26477e-05
1.26233e-05
1.24151e-05
1.1992e-05
1.10612e-05
1.14045e-05
1.20931e-05
1.2514e-05
1.18654e-05
1.1192e-05
1.11248e-05
1.129e-05
1.12168e-05
1.11172e-05
1.09122e-05
1.06072e-05
9.80405e-06
1.01115e-05
1.073e-05
1.10972e-05
1.05431e-05
9.97086e-06
9.90908e-06
1.00508e-05
9.96153e-06
9.82081e-06
9.63562e-06
9.42869e-06
8.74872e-06
9.00701e-06
9.53906e-06
9.84944e-06
9.39094e-06
8.91942e-06
8.86448e-06
8.98178e-06
8.89003e-06
8.73764e-06
8.58583e-06
8.45878e-06
7.89368e-06
8.09182e-06
8.527e-06
8.78244e-06
8.41804e-06
8.04255e-06
7.99461e-06
8.08727e-06
8.00372e-06
7.86387e-06
7.75626e-06
7.69362e-06
7.23386e-06
7.3625e-06
7.69508e-06
7.90078e-06
7.62732e-06
7.34045e-06
7.29881e-06
7.36706e-06
7.2999e-06
7.19189e-06
7.13689e-06
7.12643e-06
6.76328e-06
6.81383e-06
7.04113e-06
7.20404e-06
7.01782e-06
6.81093e-06
6.77435e-06
6.81873e-06
6.77402e-06
6.71322e-06
6.71722e-06
6.75003e-06
6.47717e-06
6.44085e-06
6.56171e-06
6.68925e-06
6.58698e-06
6.45136e-06
6.41832e-06
6.43946e-06
6.42165e-06
6.42078e-06
6.48808e-06
6.55834e-06
6.37022e-06
6.23983e-06
6.2542e-06
6.35325e-06
6.3325e-06
6.25966e-06
6.22851e-06
6.22722e-06
6.23928e-06
6.30782e-06
6.4348e-06
6.5279e-06
6.37244e-06
6.19475e-06
6.11683e-06
6.194e-06
6.24954e-06
6.21797e-06
6.18613e-06
6.17124e-06
6.20337e-06
6.3041e-06
6.48914e-06
6.60311e-06
6.47691e-06
6.24833e-06
6.09798e-06
6.17664e-06
6.26711e-06
6.27456e-06
6.24282e-06
6.21293e-06
6.26648e-06
6.40191e-06
6.62561e-06
6.75098e-06
6.64736e-06
6.39278e-06
6.18423e-06
6.26373e-06
6.38675e-06
6.41681e-06
6.38448e-06
6.34677e-06
6.41572e-06
6.56571e-06
6.77987e-06
6.89769e-06
6.8162e-06
6.58663e-06
6.35637e-06
6.43518e-06
6.5689e-06
6.59742e-06
6.56484e-06
6.53412e-06
6.60548e-06
6.7305e-06
6.90459e-06
7.01004e-06
6.95598e-06
6.76658e-06
6.56729e-06
6.6393e-06
6.74705e-06
6.75717e-06
6.7262e-06
6.71253e-06
6.7765e-06
6.86588e-06
7.00393e-06
7.09761e-06
7.07603e-06
6.91945e-06
6.75664e-06
6.81627e-06
6.89212e-06
6.88853e-06
6.86212e-06
6.86361e-06
6.92031e-06
6.98017e-06
7.08751e-06
7.17018e-06
7.1834e-06
7.05445e-06
6.91775e-06
6.96295e-06
7.01417e-06
7.0019e-06
6.98199e-06
6.99654e-06
7.04595e-06
7.08058e-06
7.16109e-06
7.23356e-06
7.28169e-06
7.17695e-06
7.05927e-06
7.08946e-06
7.12136e-06
7.10367e-06
7.09124e-06
7.11695e-06
7.15871e-06
7.171e-06
7.22771e-06
7.29083e-06
7.37227e-06
7.28935e-06
7.18615e-06
7.20189e-06
7.21828e-06
7.19716e-06
7.19238e-06
7.22744e-06
7.26108e-06
7.25322e-06
7.28869e-06
7.3434e-06
7.45532e-06
7.3923e-06
7.30077e-06
7.30337e-06
7.30709e-06
7.28372e-06
7.28618e-06
7.32881e-06
7.35392e-06
7.32784e-06
7.34444e-06
7.39173e-06
7.53056e-06
7.48564e-06
7.40404e-06
7.39526e-06
7.3886e-06
7.36366e-06
7.3725e-06
7.42096e-06
7.43734e-06
7.39494e-06
7.39494e-06
7.43589e-06
7.59764e-06
7.56902e-06
7.49622e-06
7.47802e-06
7.46298e-06
7.43685e-06
7.45093e-06
7.5035e-06
7.51121e-06
7.45444e-06
7.44013e-06
7.47581e-06
7.65639e-06
7.64219e-06
7.57736e-06
7.55181e-06
7.53014e-06
7.50303e-06
7.52106e-06
7.57615e-06
7.57546e-06
7.50638e-06
7.47999e-06
7.51145e-06
7.70685e-06
7.70516e-06
7.64764e-06
7.61671e-06
7.59005e-06
7.56206e-06
7.58269e-06
7.63878e-06
7.63019e-06
7.55092e-06
7.51461e-06
7.54283e-06
7.74927e-06
7.75814e-06
7.70735e-06
7.67287e-06
7.6427e-06
7.61388e-06
7.63577e-06
7.69154e-06
7.6757e-06
7.58837e-06
7.54422e-06
7.57007e-06
7.78406e-06
7.80159e-06
7.75696e-06
7.72056e-06
7.68822e-06
7.65859e-06
7.68049e-06
7.73475e-06
7.71246e-06
7.61917e-06
7.56911e-06
7.59336e-06
7.81179e-06
7.83608e-06
7.79706e-06
7.76011e-06
7.72679e-06
7.69639e-06
7.71714e-06
7.7689e-06
7.74107e-06
7.64388e-06
7.5897e-06
7.61298e-06
7.83314e-06
7.86234e-06
7.82834e-06
7.79195e-06
7.75868e-06
7.72755e-06
7.74619e-06
7.79464e-06
7.76224e-06
7.66311e-06
7.60646e-06
7.62928e-06
7.84888e-06
7.88117e-06
7.85155e-06
7.81656e-06
7.78419e-06
7.75245e-06
7.76816e-06
7.8127e-06
7.77679e-06
7.67755e-06
7.61991e-06
7.64267e-06
7.85986e-06
7.89345e-06
7.86753e-06
7.83447e-06
7.8037e-06
7.77152e-06
7.7837e-06
7.82394e-06
7.78561e-06
7.68795e-06
7.63065e-06
7.65363e-06
7.867e-06
7.90015e-06
7.87715e-06
7.84632e-06
7.81767e-06
7.78527e-06
7.79352e-06
7.82929e-06
7.78965e-06
7.69511e-06
7.63931e-06
7.66268e-06
7.87128e-06
7.90228e-06
7.88135e-06
7.85278e-06
7.82663e-06
7.79428e-06
7.79842e-06
7.82979e-06
7.78993e-06
7.69986e-06
7.64655e-06
7.67041e-06
7.87369e-06
7.90093e-06
7.88114e-06
7.85465e-06
7.83119e-06
7.79923e-06
7.79928e-06
7.82652e-06
7.78751e-06
7.70305e-06
7.65309e-06
7.67745e-06
7.87525e-06
7.89721e-06
7.87758e-06
7.85281e-06
7.83208e-06
7.80085e-06
7.79705e-06
7.82064e-06
7.7835e-06
7.70556e-06
7.65965e-06
7.68445e-06
7.87696e-06
7.89227e-06
7.87178e-06
7.84822e-06
7.83014e-06
7.79999e-06
7.79276e-06
7.81336e-06
7.77899e-06
7.70826e-06
7.66694e-06
7.69208e-06
7.87976e-06
7.88726e-06
7.8649e-06
7.84196e-06
7.82629e-06
7.79756e-06
7.78747e-06
7.8059e-06
7.77508e-06
7.71199e-06
7.67569e-06
7.70103e-06
7.88452e-06
7.88332e-06
7.85812e-06
7.83516e-06
7.82159e-06
7.79457e-06
7.7823e-06
7.79945e-06
7.77284e-06
7.71757e-06
7.68657e-06
7.71199e-06
7.89198e-06
7.88153e-06
7.85262e-06
7.82903e-06
7.81716e-06
7.79206e-06
7.77837e-06
7.79519e-06
7.77325e-06
7.72574e-06
7.70024e-06
7.72562e-06
7.90276e-06
7.8829e-06
7.84959e-06
7.82483e-06
7.81423e-06
7.79117e-06
7.77682e-06
7.79422e-06
7.77721e-06
7.73717e-06
7.71729e-06
7.74256e-06
7.91732e-06
7.88834e-06
7.85017e-06
7.82383e-06
7.81406e-06
7.79304e-06
7.77873e-06
7.79755e-06
7.7855e-06
7.75242e-06
7.73822e-06
7.76338e-06
7.93592e-06
7.89864e-06
7.85542e-06
7.82727e-06
7.81792e-06
7.79882e-06
7.78515e-06
7.80604e-06
7.79874e-06
7.77193e-06
7.76343e-06
7.7886e-06
7.95866e-06
7.91443e-06
7.86634e-06
7.83636e-06
7.82707e-06
7.80964e-06
7.79702e-06
7.82041e-06
7.81738e-06
7.79598e-06
7.79321e-06
7.81862e-06
2.8875e-07
2.77562e-07
2.68598e-07
2.69625e-07
2.85394e-07
2.99019e-07
2.98552e-07
2.89259e-07
2.78318e-07
2.73029e-07
2.83336e-07
3.02182e-07
5.43622e-08
5.24043e-08
5.05657e-08
5.05305e-08
5.33179e-08
5.58651e-08
5.59854e-08
5.44398e-08
5.26319e-08
5.1601e-08
5.32115e-08
5.65721e-08
8.01419e-08
7.8076e-08
7.45715e-08
7.32857e-08
7.64028e-08
8.00355e-08
8.12918e-08
8.01068e-08
7.88675e-08
7.72314e-08
7.78108e-08
8.16752e-08
2.38707e-07
2.33175e-07
2.2221e-07
2.17487e-07
2.25999e-07
2.36663e-07
2.411e-07
2.38347e-07
2.35821e-07
2.31061e-07
2.315e-07
2.42024e-07
5.86281e-07
5.73069e-07
5.45977e-07
5.33904e-07
5.54224e-07
5.80149e-07
5.91231e-07
5.84856e-07
5.79578e-07
5.68475e-07
5.68962e-07
5.93759e-07
1.19671e-06
1.17031e-06
1.115e-06
1.08978e-06
1.13015e-06
1.18239e-06
1.20506e-06
1.19257e-06
1.18336e-06
1.16218e-06
1.16258e-06
1.21105e-06
2.13899e-06
2.09295e-06
1.99439e-06
1.94832e-06
2.01798e-06
2.10967e-06
2.15029e-06
2.12915e-06
2.11567e-06
2.08088e-06
2.08062e-06
2.16269e-06
3.46172e-06
3.38956e-06
3.23106e-06
3.15493e-06
3.26241e-06
3.40708e-06
3.4732e-06
3.44154e-06
3.42501e-06
3.37429e-06
3.37213e-06
3.49619e-06
5.17823e-06
5.07457e-06
4.83994e-06
4.7238e-06
4.87483e-06
5.08401e-06
5.18391e-06
5.14147e-06
5.12507e-06
5.0583e-06
5.05236e-06
5.22291e-06
7.2568e-06
7.11843e-06
6.79447e-06
6.62886e-06
6.8244e-06
7.1052e-06
7.24713e-06
7.19602e-06
7.18473e-06
7.1046e-06
7.09281e-06
7.3087e-06
9.62041e-06
9.44697e-06
9.02567e-06
8.80282e-06
9.03808e-06
9.3914e-06
9.58266e-06
9.52765e-06
9.52739e-06
9.43953e-06
9.42054e-06
9.67438e-06
1.21561e-05
1.19503e-05
1.14303e-05
1.11452e-05
1.14098e-05
1.18297e-05
1.20756e-05
1.20238e-05
1.20403e-05
1.19528e-05
1.19269e-05
1.22057e-05
1.47307e-05
1.44979e-05
1.38849e-05
1.35359e-05
1.38151e-05
1.42893e-05
1.45925e-05
1.45523e-05
1.459e-05
1.45124e-05
1.44825e-05
1.47693e-05
1.72436e-05
1.69863e-05
1.62853e-05
1.58729e-05
1.61557e-05
1.66742e-05
1.7034e-05
1.70101e-05
1.70732e-05
1.70186e-05
1.6991e-05
1.72696e-05
1.96396e-05
1.93605e-05
1.85794e-05
1.81063e-05
1.83813e-05
1.89322e-05
1.93463e-05
1.93425e-05
1.94346e-05
1.94164e-05
1.93985e-05
1.96524e-05
2.18727e-05
2.15752e-05
2.0724e-05
2.01948e-05
2.0451e-05
2.10214e-05
2.14855e-05
2.15049e-05
2.16286e-05
2.16595e-05
2.16599e-05
2.18726e-05
2.39084e-05
2.35958e-05
2.26864e-05
2.21078e-05
2.2335e-05
2.29116e-05
2.34198e-05
2.3464e-05
2.36213e-05
2.3713e-05
2.37397e-05
2.3896e-05
2.57222e-05
2.53982e-05
2.44441e-05
2.38249e-05
2.40136e-05
2.45826e-05
2.51277e-05
2.51974e-05
2.53896e-05
2.55521e-05
2.56119e-05
2.5698e-05
2.72995e-05
2.69675e-05
2.59835e-05
2.53345e-05
2.54763e-05
2.60235e-05
2.65975e-05
2.66927e-05
2.69204e-05
2.71614e-05
2.72588e-05
2.72628e-05
2.86333e-05
2.8297e-05
2.72989e-05
2.66327e-05
2.67196e-05
2.72307e-05
2.78251e-05
2.79455e-05
2.82084e-05
2.85334e-05
2.867e-05
2.85821e-05
2.97232e-05
2.93868e-05
2.83911e-05
2.77215e-05
2.77459e-05
2.82066e-05
2.8813e-05
2.8958e-05
2.92551e-05
2.96663e-05
2.98412e-05
2.96535e-05
3.05731e-05
3.02415e-05
2.92652e-05
2.86071e-05
2.8562e-05
2.89574e-05
2.95678e-05
2.97372e-05
3.00664e-05
3.05626e-05
3.07724e-05
3.04789e-05
3.11891e-05
3.08687e-05
2.99295e-05
2.92984e-05
2.91764e-05
2.94915e-05
3.00985e-05
3.02926e-05
3.06507e-05
3.12268e-05
3.14656e-05
3.10625e-05
3.15771e-05
3.1276e-05
3.03924e-05
2.98038e-05
2.95978e-05
2.98175e-05
3.04143e-05
3.06339e-05
3.10162e-05
3.1663e-05
3.1922e-05
3.14087e-05
3.17405e-05
3.14688e-05
3.06601e-05
3.01297e-05
2.98321e-05
2.99417e-05
3.05222e-05
3.07688e-05
3.11688e-05
3.18729e-05
3.21407e-05
3.15193e-05
3.16794e-05
3.14488e-05
3.07355e-05
3.0278e-05
2.98817e-05
2.98673e-05
3.04256e-05
3.07013e-05
3.1111e-05
3.18543e-05
3.21175e-05
3.1393e-05
3.139e-05
3.12142e-05
3.06165e-05
3.02453e-05
2.97439e-05
2.95936e-05
3.01244e-05
3.04315e-05
3.08415e-05
3.16015e-05
3.18448e-05
3.10261e-05
3.08633e-05
3.07571e-05
3.02961e-05
3.00216e-05
2.94104e-05
2.9116e-05
2.9614e-05
2.99545e-05
3.03538e-05
3.11021e-05
3.13071e-05
3.04097e-05
3.00758e-05
3.00557e-05
2.97533e-05
2.95809e-05
2.88599e-05
2.84206e-05
2.88794e-05
2.92536e-05
2.96282e-05
3.03272e-05
3.04718e-05
2.95225e-05
2.90013e-05
2.9081e-05
2.89553e-05
2.88828e-05
2.806e-05
2.7486e-05
2.78986e-05
2.83032e-05
2.86386e-05
2.92486e-05
2.93137e-05
2.83468e-05
2.76494e-05
2.78339e-05
2.78901e-05
2.79096e-05
2.69994e-05
2.63108e-05
2.66722e-05
2.71009e-05
2.73865e-05
2.78799e-05
2.78552e-05
2.69012e-05
2.60753e-05
2.63637e-05
2.65973e-05
2.66994e-05
2.57177e-05
2.49333e-05
2.52412e-05
2.56884e-05
2.59194e-05
2.6283e-05
2.6166e-05
2.52431e-05
2.43073e-05
2.46893e-05
2.50773e-05
2.52403e-05
2.42177e-05
2.33679e-05
2.36231e-05
2.40802e-05
2.42563e-05
2.44887e-05
2.42857e-05
2.34113e-05
2.24021e-05
2.28607e-05
2.3375e-05
2.35793e-05
2.25433e-05
2.16598e-05
2.18651e-05
2.23223e-05
2.24466e-05
2.25558e-05
2.22798e-05
2.1468e-05
2.04259e-05
2.09399e-05
2.15477e-05
2.17743e-05
2.07518e-05
1.98661e-05
2.00256e-05
2.04728e-05
2.05512e-05
2.05527e-05
2.02211e-05
1.94822e-05
1.84453e-05
1.89907e-05
1.96571e-05
1.98887e-05
1.89051e-05
1.80462e-05
1.8165e-05
1.85926e-05
1.86328e-05
1.85472e-05
1.81803e-05
1.75208e-05
1.65213e-05
1.70735e-05
1.77638e-05
1.79862e-05
1.70639e-05
1.6256e-05
1.63399e-05
1.67393e-05
1.67502e-05
1.6601e-05
1.622e-05
1.56426e-05
1.47052e-05
1.52408e-05
1.5923e-05
1.61261e-05
1.52831e-05
1.45449e-05
1.45997e-05
1.49642e-05
1.49547e-05
1.47657e-05
1.43905e-05
1.38952e-05
1.30371e-05
1.35355e-05
1.41821e-05
1.43597e-05
1.3609e-05
1.29527e-05
1.29841e-05
1.33089e-05
1.32874e-05
1.30806e-05
1.27291e-05
1.23133e-05
1.15446e-05
1.1989e-05
1.25783e-05
1.27286e-05
1.20776e-05
1.1509e-05
1.15222e-05
1.18049e-05
1.17788e-05
1.15731e-05
1.12596e-05
1.09194e-05
1.02444e-05
1.06222e-05
1.11388e-05
1.12629e-05
1.0714e-05
1.02334e-05
1.02329e-05
1.04732e-05
1.04485e-05
1.02589e-05
9.99458e-06
9.72508e-06
9.1437e-06
9.44638e-06
9.88075e-06
9.98224e-06
9.53338e-06
9.1367e-06
9.12638e-06
9.32581e-06
9.307e-06
9.14461e-06
8.93747e-06
8.73335e-06
8.24271e-06
8.46539e-06
8.81287e-06
8.89669e-06
8.54248e-06
8.22276e-06
8.20558e-06
8.3671e-06
8.35754e-06
8.22982e-06
8.08543e-06
7.94136e-06
7.53696e-06
7.67759e-06
7.93728e-06
8.00894e-06
7.74199e-06
7.49047e-06
7.46881e-06
7.59628e-06
7.59812e-06
7.50952e-06
7.43188e-06
7.34259e-06
7.01937e-06
7.07804e-06
7.25161e-06
7.31666e-06
7.12861e-06
6.93586e-06
6.91158e-06
7.00933e-06
7.02371e-06
6.97615e-06
6.96842e-06
6.92854e-06
6.6817e-06
6.66025e-06
6.75082e-06
6.81446e-06
6.69697e-06
6.55369e-06
6.52826e-06
6.60074e-06
6.62791e-06
6.62099e-06
6.68614e-06
6.68968e-06
6.51493e-06
6.41706e-06
6.42853e-06
6.49524e-06