/*--------------------------------*- C++ -*----------------------------------*\
| =========                 |                                                 |
| \\      /  F ield         | OpenFOAM: The Open Source CFD Toolbox           |
|  \\    /   O peration     | Version:  v1912                                 |
|   \\  /    A nd           | Website:  www.openfoam.com                      |
|    \\/     M anipulation  |                                                 |
\*---------------------------------------------------------------------------*/
FoamFile
{
    version     2.0;
    format      ascii;
    class       volVectorField;
    location    "10";
    object      UMean;
}
// * * * * * * * * * * * * * * * * * * * * * * * * * * * * * * * * * * * * * //

dimensions      [0 1 -1 0 0 0 0];


internalField   nonuniform List<vector> 
34128
(
(3.07098e-07 1.62385e-07 -0.00332425)
(5.88869e-07 1.63829e-07 -0.00331005)
(3.27297e-07 1.672e-07 -0.00328865)
(-5.22167e-07 1.68066e-07 -0.00328393)
(-1.04297e-06 1.65553e-07 -0.00330038)
(-9.31635e-07 1.62184e-07 -0.00332269)
(-2.55867e-07 1.60479e-07 -0.00333489)
(4.44833e-07 1.62529e-07 -0.00331898)
(2.71527e-07 1.66342e-07 -0.00329022)
(-6.47312e-07 1.66334e-07 -0.00329296)
(-8.10891e-07 1.61677e-07 -0.0033286)
(1.99443e-07 1.59644e-07 -0.00334424)
(8.8255e-07 1.45456e-06 -0.0101073)
(1.69154e-06 1.47551e-06 -0.0100655)
(9.28101e-07 1.51486e-06 -0.0100026)
(-1.52853e-06 1.52625e-06 -0.00998871)
(-3.03206e-06 1.49529e-06 -0.0100371)
(-2.70841e-06 1.45254e-06 -0.0101028)
(-7.52906e-07 1.43179e-06 -0.0101386)
(1.27805e-06 1.45701e-06 -0.0100918)
(7.86909e-07 1.5033e-06 -0.0100073)
(-1.85803e-06 1.50208e-06 -0.0100153)
(-2.32741e-06 1.44746e-06 -0.0101199)
(5.74302e-07 1.42474e-06 -0.010166)
(1.43087e-06 3.84145e-06 -0.017117)
(2.73538e-06 3.90196e-06 -0.0170483)
(1.48463e-06 4.01201e-06 -0.0169451)
(-2.50696e-06 4.04419e-06 -0.0169223)
(-4.94626e-06 3.95695e-06 -0.0170019)
(-4.41943e-06 3.83597e-06 -0.0171098)
(-1.24409e-06 3.77742e-06 -0.0171684)
(2.05814e-06 3.84821e-06 -0.0170917)
(1.27302e-06 3.97822e-06 -0.0169531)
(-3.00595e-06 3.97462e-06 -0.0169661)
(-3.76351e-06 3.82242e-06 -0.0171375)
(9.2237e-07 3.7591e-06 -0.0172132)
(1.95522e-06 7.47876e-06 -0.024335)
(3.72416e-06 7.59996e-06 -0.0242403)
(2.00004e-06 7.81643e-06 -0.0240981)
(-3.45743e-06 7.87998e-06 -0.0240668)
(-6.78712e-06 7.70774e-06 -0.0241765)
(-6.06561e-06 7.46825e-06 -0.0243252)
(-1.72883e-06 7.35236e-06 -0.0244058)
(2.78735e-06 7.49172e-06 -0.0243003)
(1.73191e-06 7.74795e-06 -0.0241096)
(-4.09067e-06 7.74068e-06 -0.0241272)
(-5.1191e-06 7.44233e-06 -0.0243629)
(1.24615e-06 7.31824e-06 -0.0244673)
(2.45921e-06 1.2236e-05 -0.031735)
(4.66185e-06 1.24386e-05 -0.0316152)
(2.4775e-06 1.27959e-05 -0.0314361)
(-4.37991e-06 1.29008e-05 -0.0313966)
(-8.55645e-06 1.26159e-05 -0.0315352)
(-7.64862e-06 1.2219e-05 -0.0317228)
(-2.20773e-06 1.20267e-05 -0.0318242)
(3.46629e-06 1.22566e-05 -0.0316913)
(2.16407e-06 1.26799e-05 -0.0314511)
(-5.11309e-06 1.26679e-05 -0.0314731)
(-6.39524e-06 1.21772e-05 -0.0317697)
(1.5468e-06 1.19729e-05 -0.0319016)
(2.94663e-06 1.81406e-05 -0.0392861)
(5.55242e-06 1.84453e-05 -0.0391425)
(2.92015e-06 1.89771e-05 -0.0389284)
(-5.27426e-06 1.9133e-05 -0.0388813)
(-1.02562e-05 1.87082e-05 -0.0390474)
(-9.17061e-06 1.81158e-05 -0.0392718)
(-2.68246e-06 1.78281e-05 -0.0393927)
(4.0941e-06 1.81699e-05 -0.039234)
(2.56856e-06 1.88004e-05 -0.0389472)
(-6.07522e-06 1.87828e-05 -0.0389731)
(-7.59395e-06 1.8055e-05 -0.039327)
(1.82428e-06 1.77514e-05 -0.039485)
(3.42117e-06 2.51701e-05 -0.0469539)
(6.39973e-06 2.55977e-05 -0.0467879)
(3.33108e-06 2.63374e-05 -0.0465413)
(-6.14015e-06 2.65535e-05 -0.0464871)
(-1.18881e-05 2.59619e-05 -0.046679)
(-1.06339e-05 2.51362e-05 -0.0469378)
(-3.15521e-06 2.47341e-05 -0.0470766)
(4.66914e-06 2.52086e-05 -0.0468941)
(2.94383e-06 2.60862e-05 -0.0465641)
(-6.97934e-06 2.60622e-05 -0.0465935)
(-8.71732e-06 2.50534e-05 -0.0470003)
(2.07825e-06 2.46315e-05 -0.0471827)
(3.88638e-06 3.33116e-05 -0.0547023)
(7.2076e-06 3.38831e-05 -0.0545152)
(3.71344e-06 3.4864e-05 -0.0542387)
(-6.97705e-06 3.51492e-05 -0.0541781)
(-1.3454e-05 3.4364e-05 -0.0543939)
(-1.2041e-05 3.32675e-05 -0.0546844)
(-3.62858e-06 3.27317e-05 -0.0548395)
(5.1892e-06 3.33597e-05 -0.0546353)
(3.28786e-06 3.45239e-05 -0.0542658)
(-7.82799e-06 3.44932e-05 -0.0542983)
(-9.76764e-06 3.31599e-05 -0.0547534)
(2.30813e-06 3.26008e-05 -0.0549583)
(4.34565e-06 4.25505e-05 -0.0624947)
(7.97989e-06 4.32871e-05 -0.0622882)
(4.07051e-06 4.45421e-05 -0.0619844)
(-7.78423e-06 4.49052e-05 -0.0619182)
(-1.49554e-05 4.38996e-05 -0.062156)
(-1.33945e-05 4.2495e-05 -0.0624754)
(-4.10543e-06 4.18063e-05 -0.0626451)
(5.65185e-06 4.2608e-05 -0.0624212)
(3.59848e-06 4.40985e-05 -0.0620162)
(-8.62398e-06 4.40607e-05 -0.0620515)
(-1.07473e-05 4.236e-05 -0.0625499)
(2.51338e-06 4.16447e-05 -0.0627753)
(4.80222e-06 5.28733e-05 -0.0702972)
(8.7206e-06 5.37966e-05 -0.0700728)
(4.40584e-06 5.53586e-05 -0.0697446)
(-8.56082e-06 5.5808e-05 -0.0696734)
(-1.63944e-05 5.45552e-05 -0.0699313)
(-1.46974e-05 5.28056e-05 -0.0702767)
(-4.58869e-06 5.19445e-05 -0.0704591)
(6.05493e-06 5.294e-05 -0.0702179)
(3.87367e-06 5.47964e-05 -0.0697813)
(-9.37021e-06 5.47513e-05 -0.0698189)
(-1.16589e-05 5.26406e-05 -0.0703559)
(2.69375e-06 5.17502e-05 -0.0705997)
(5.25922e-06 6.42664e-05 -0.0780802)
(9.43391e-06 6.53981e-05 -0.0778393)
(4.72323e-06 6.73e-05 -0.0774894)
(-9.30584e-06 6.78439e-05 -0.0774138)
(-1.77728e-05 6.63171e-05 -0.0776899)
(-1.59528e-05 6.41856e-05 -0.0780586)
(-5.08115e-06 6.31327e-05 -0.0782522)
(6.39678e-06 6.43416e-05 -0.0779957)
(4.11193e-06 6.66035e-05 -0.0775313)
(-1.00695e-05 6.65513e-05 -0.077571)
(-1.25048e-05 6.39883e-05 -0.0781418)
(2.84951e-06 6.29036e-05 -0.0784019)
(5.71968e-06 7.67119e-05 -0.0858194)
(1.01241e-05 7.80741e-05 -0.0855635)
(5.02678e-06 8.03488e-05 -0.0851943)
(-1.00182e-05 8.09951e-05 -0.085115)
(-1.90928e-05 7.91675e-05 -0.0854076)
(-1.7164e-05 7.66174e-05 -0.0857969)
(-5.58535e-06 7.5353e-05 -0.0860002)
(6.67652e-06 7.67948e-05 -0.0857303)
(4.31242e-06 7.95017e-05 -0.0852417)
(-1.07244e-05 7.94426e-05 -0.0852831)
(-1.32873e-05 7.63854e-05 -0.0858834)
(2.98163e-06 7.50872e-05 -0.086158)
(6.18661e-06 9.02055e-05 -0.0934979)
(1.07958e-05 9.18203e-05 -0.0932282)
(5.32086e-06 9.45002e-05 -0.0928419)
(-1.06966e-05 9.52568e-05 -0.0927595)
(-2.03567e-05 9.31018e-05 -0.0930669)
(-1.83345e-05 9.00972e-05 -0.0934747)
(-6.10337e-06 8.86019e-05 -0.0936864)
(6.89423e-06 9.02952e-05 -0.0934048)
(4.47529e-06 9.3486e-05 -0.092895)
(-1.13367e-05 9.34202e-05 -0.092938)
(-1.40079e-05 8.9828e-05 -0.0935639)
(3.09196e-06 8.82977e-05 -0.0938513)
(6.66314e-06 0.000104739 -0.101106)
(1.14538e-05 0.000106629 -0.100824)
(5.61019e-06 0.000109747 -0.100422)
(-1.13398e-05 0.000110622 -0.100337)
(-2.1567e-05 0.000108112 -0.100658)
(-1.94678e-05 0.000104616 -0.101082)
(-6.63706e-06 0.00010287 -0.101301)
(7.0507e-06 0.000104834 -0.101009)
(4.60127e-06 0.000108548 -0.100481)
(-1.19081e-05 0.000108476 -0.100526)
(-1.46679e-05 0.000104308 -0.101174)
(3.18287e-06 0.000102526 -0.101472)
(7.15228e-06 0.00012026 -0.108634)
(1.21027e-05 0.000122449 -0.10834)
(5.89939e-06 0.000126038 -0.107925)
(-1.19461e-05 0.000127039 -0.107838)
(-2.27253e-05 0.000124147 -0.108171)
(-2.05667e-05 0.000120123 -0.10861)
(-7.18781e-06 0.000118107 -0.108835)
(7.14668e-06 0.000120359 -0.108535)
(4.69111e-06 0.000124636 -0.107991)
(-1.24397e-05 0.000124558 -0.108036)
(-1.52679e-05 0.000119773 -0.108703)
(3.25666e-06 0.000117721 -0.109012)
(7.65674e-06 0.000136729 -0.116072)
(1.27467e-05 0.000139239 -0.115767)
(6.19285e-06 0.000143332 -0.115341)
(-1.25128e-05 0.000144466 -0.115252)
(-2.3832e-05 0.000141165 -0.115596)
(-2.16328e-05 0.000136578 -0.116047)
(-7.75634e-06 0.000134272 -0.116278)
(7.18301e-06 0.00013683 -0.11597)
(4.74564e-06 0.000141706 -0.115413)
(-1.29317e-05 0.000141624 -0.115459)
(-1.58076e-05 0.000136184 -0.116142)
(3.31588e-06 0.000133845 -0.116459)
(8.17914e-06 0.000154106 -0.12341)
(1.33894e-05 0.000156961 -0.123096)
(6.4948e-06 0.000161589 -0.122659)
(-1.30372e-05 0.000162864 -0.122569)
(-2.48866e-05 0.000159128 -0.122923)
(-2.2667e-05 0.000153942 -0.123385)
(-8.34281e-06 0.000151327 -0.12362)
(7.16087e-06 0.000154206 -0.123306)
(4.76603e-06 0.000159718 -0.122737)
(-1.33835e-05 0.000159632 -0.122784)
(-1.62854e-05 0.000153502 -0.123481)
(3.36341e-06 0.000150857 -0.123806)
(8.72204e-06 0.000172349 -0.130641)
(1.40343e-05 0.000175572 -0.130318)
(6.80931e-06 0.000180766 -0.129872)
(-1.35158e-05 0.000182189 -0.129781)
(-2.5888e-05 0.000177991 -0.130144)
(-2.36693e-05 0.000172172 -0.130616)
(-8.94681e-06 0.00016923 -0.130855)
(7.08155e-06 0.000172446 -0.130536)
(4.75364e-06 0.000178627 -0.129957)
(-1.37938e-05 0.000178539 -0.130004)
(-1.66989e-05 0.000171685 -0.130713)
(3.40231e-06 0.000168719 -0.131044)
(9.28792e-06 0.000191415 -0.137758)
(1.46846e-05 0.000195029 -0.137428)
(7.14014e-06 0.00020082 -0.136974)
(-1.39449e-05 0.000202398 -0.136882)
(-2.68342e-05 0.000197712 -0.137252)
(-2.46391e-05 0.000191226 -0.137733)
(-9.56743e-06 0.00018794 -0.137976)
(6.94646e-06 0.000191505 -0.137652)
(4.70994e-06 0.000198387 -0.137064)
(-1.41604e-05 0.000198298 -0.137112)
(-1.70451e-05 0.000190691 -0.137831)
(3.43576e-06 0.000187388 -0.138168)
(9.87923e-06 0.000211261 -0.144756)
(1.5343e-05 0.000215289 -0.144418)
(7.49073e-06 0.000221706 -0.143957)
(-1.43204e-05 0.000223446 -0.143865)
(-2.77226e-05 0.000218247 -0.144242)
(-2.55748e-05 0.000211061 -0.144731)
(-1.02032e-05 0.000207411 -0.144977)
(6.75703e-06 0.000211338 -0.14465)
(4.63646e-06 0.000218952 -0.144054)
(-1.44807e-05 0.000218864 -0.144102)
(-1.73198e-05 0.000210475 -0.144829)
(3.46698e-06 0.000206822 -0.145171)
(1.04983e-05 0.000231843 -0.151628)
(1.60117e-05 0.000236308 -0.151284)
(7.86403e-06 0.000243379 -0.150817)
(-1.46378e-05 0.000245288 -0.150724)
(-2.85493e-05 0.00023955 -0.151108)
(-2.6474e-05 0.000231633 -0.151603)
(-1.08522e-05 0.000227602 -0.151852)
(6.51467e-06 0.000231902 -0.151522)
(4.5348e-06 0.000240275 -0.150919)
(-1.47512e-05 0.00024019 -0.150967)
(-1.75184e-05 0.000230996 -0.151702)
(3.49913e-06 0.000226979 -0.152049)
(1.11474e-05 0.000253114 -0.158369)
(1.66923e-05 0.000258038 -0.158019)
(8.26245e-06 0.000265792 -0.157547)
(-1.48923e-05 0.000267876 -0.157454)
(-2.93101e-05 0.000261577 -0.157843)
(-2.73334e-05 0.000252895 -0.158344)
(-1.15117e-05 0.000248466 -0.158595)
(6.22082e-06 0.000253147 -0.158263)
(4.40657e-06 0.000262307 -0.157655)
(-1.49677e-05 0.000262226 -0.157703)
(-1.76353e-05 0.000252205 -0.158443)
(3.53523e-06 0.000247814 -0.158794)
(1.18285e-05 0.000275025 -0.164972)
(1.73858e-05 0.000280432 -0.164618)
(8.68772e-06 0.000288895 -0.164141)
(-1.50791e-05 0.000291163 -0.164048)
(-2.99993e-05 0.000284277 -0.164441)
(-2.81487e-05 0.000274799 -0.164947)
(-1.21785e-05 0.000269954 -0.1652)
(5.87692e-06 0.000275025 -0.164867)
(4.2534e-06 0.000284994 -0.164255)
(-1.51255e-05 0.00028492 -0.164302)
(-1.76647e-05 0.000274056 -0.165046)
(3.57809e-06 0.00026928 -0.1654)
(1.25434e-05 0.000297524 -0.17143)
(1.80925e-05 0.000303436 -0.171072)
(9.14077e-06 0.000312636 -0.170592)
(-1.51928e-05 0.000315093 -0.170498)
(-3.06109e-05 0.000307598 -0.170895)
(-2.89147e-05 0.000297292 -0.171404)
(-1.28487e-05 0.000292013 -0.171659)
(5.48454e-06 0.00029748 -0.171325)
(4.07702e-06 0.000308282 -0.17071)
(-1.52194e-05 0.000308218 -0.170757)
(-1.76e-05 0.000296495 -0.171503)
(3.63019e-06 0.000291324 -0.17186)
(1.32937e-05 0.000320551 -0.177733)
(1.88118e-05 0.000326991 -0.177373)
(9.62165e-06 0.000336955 -0.176891)
(-1.52284e-05 0.00033961 -0.176797)
(-3.11376e-05 0.000331482 -0.177196)
(-2.96252e-05 0.000320316 -0.177707)
(-1.35175e-05 0.000314585 -0.177964)
(5.04549e-06 0.000320454 -0.17763)
(3.87933e-06 0.00033211 -0.177013)
(-1.52435e-05 0.000332058 -0.177059)
(-1.74346e-05 0.000319464 -0.177806)
(3.69365e-06 0.000313891 -0.178165)
(1.40804e-05 0.000344043 -0.183873)
(1.95422e-05 0.000351033 -0.183511)
(1.01295e-05 0.000361787 -0.183028)
(-1.51808e-05 0.000364648 -0.182934)
(-3.15718e-05 0.000355866 -0.183335)
(-3.0273e-05 0.000343807 -0.183847)
(-1.41793e-05 0.000337604 -0.184104)
(4.56198e-06 0.000343879 -0.183772)
(3.66248e-06 0.00035641 -0.183155)
(-1.51917e-05 0.000356374 -0.183199)
(-1.7162e-05 0.000342898 -0.183946)
(3.7702e-06 0.000336915 -0.184305)
(1.49043e-05 0.000367926 -0.189839)
(2.02813e-05 0.00037549 -0.189477)
(1.06624e-05 0.00038706 -0.188994)
(-1.50451e-05 0.000390136 -0.188901)
(-3.19052e-05 0.000380678 -0.189301)
(-3.08502e-05 0.000367692 -0.189812)
(-1.48276e-05 0.000360998 -0.19007)
(4.03684e-06 0.000367683 -0.18974)
(3.42901e-06 0.000381108 -0.189124)
(-1.50575e-05 0.00038109 -0.189168)
(-1.67757e-05 0.000366725 -0.18991)
(3.86113e-06 0.000360325 -0.190269)
(1.57661e-05 0.000392119 -0.19562)
(2.10262e-05 0.00040028 -0.195259)
(1.12179e-05 0.000412694 -0.194778)
(-1.48168e-05 0.000415994 -0.194685)
(-3.21289e-05 0.000405837 -0.195085)
(-3.1348e-05 0.00039189 -0.195592)
(-1.5455e-05 0.000384683 -0.19585)
(3.47373e-06 0.000391782 -0.195523)
(3.18208e-06 0.000406119 -0.194912)
(-1.48341e-05 0.000406123 -0.194954)
(-1.62696e-05 0.000390864 -0.19569)
(3.96743e-06 0.00038404 -0.196047)
(1.66661e-05 0.000416529 -0.201207)
(2.17733e-05 0.00042531 -0.200848)
(1.17925e-05 0.000438594 -0.20037)
(-1.44919e-05 0.000442129 -0.200278)
(-3.22342e-05 0.000431252 -0.200675)
(-3.17573e-05 0.000416308 -0.201178)
(-1.60529e-05 0.000408567 -0.201434)
(2.87739e-06 0.000416081 -0.201112)
(2.92562e-06 0.000431349 -0.200507)
(-1.45149e-05 0.000431378 -0.200547)
(-1.56381e-05 0.00041522 -0.201275)
(4.08994e-06 0.000407968 -0.201629)
(1.7605e-05 0.000441051 -0.206589)
(2.2519e-05 0.000450475 -0.206234)
(1.23825e-05 0.000464656 -0.205762)
(-1.40666e-05 0.000468437 -0.205671)
(-3.22122e-05 0.000456819 -0.206063)
(-3.20683e-05 0.000440841 -0.20656)
(-1.66121e-05 0.000432543 -0.206814)
(2.25391e-06 0.000440475 -0.206498)
(2.6646e-06 0.00045669 -0.2059)
(-1.40926e-05 0.000456747 -0.205939)
(-1.4876e-05 0.000439689 -0.206657)
(4.22958e-06 0.000432005 -0.207006)
(1.85837e-05 0.000465567 -0.211761)
(2.32597e-05 0.000475658 -0.211411)
(1.2984e-05 0.000490762 -0.210946)
(-1.35378e-05 0.0004948 -0.210856)
(-3.2054e-05 0.000482421 -0.211242)
(-3.22708e-05 0.000465373 -0.211731)
(-1.7122e-05 0.000456494 -0.211982)
(1.61077e-06 0.000464845 -0.211673)
(2.40505e-06 0.000482023 -0.211086)
(-1.35603e-05 0.00048211 -0.211123)
(-1.39786e-05 0.000464154 -0.211826)
(4.38738e-06 0.000456034 -0.212169)
(1.96037e-05 0.000489926 -0.216715)
(2.39923e-05 0.000500707 -0.216372)
(1.35933e-05 0.00051676 -0.215915)
(-1.29027e-05 0.00052107 -0.215826)
(-3.17509e-05 0.00050791 -0.216205)
(-3.23543e-05 0.000489749 -0.216683)
(-1.75712e-05 0.000480264 -0.21693)
(9.57088e-07 0.000489037 -0.216631)
(2.15408e-06 0.000507193 -0.216056)
(-1.29112e-05 0.000507314 -0.216091)
(-1.29424e-05 0.00048846 -0.216778)
(4.56441e-06 0.000479902 -0.217113)
(2.06662e-05 0.000513946 -0.221443)
(2.47134e-05 0.000525441 -0.221108)
(1.42063e-05 0.000542468 -0.220663)
(-1.2159e-05 0.000547061 -0.220576)
(-3.12943e-05 0.000533101 -0.220944)
(-3.23076e-05 0.000513789 -0.22141)
(-1.79466e-05 0.000503674 -0.221652)
(3.037e-07 0.000512869 -0.221363)
(1.91979e-06 0.000532016 -0.220804)
(-1.21391e-05 0.000532173 -0.220837)
(-1.17653e-05 0.000512428 -0.221503)
(4.76154e-06 0.000503432 -0.22183)
(2.17726e-05 0.000537444 -0.225937)
(2.54196e-05 0.000549675 -0.225613)
(1.48189e-05 0.000567698 -0.225181)
(-1.1305e-05 0.000572586 -0.225096)
(-3.06757e-05 0.000557809 -0.225453)
(-3.21189e-05 0.000537308 -0.225904)
(-1.8234e-05 0.000526539 -0.226139)
(-3.36782e-07 0.000536154 -0.225863)
(1.71121e-06 0.000556301 -0.225323)
(-1.12385e-05 0.000556498 -0.225353)
(-1.04465e-05 0.000535873 -0.225996)
(4.97927e-06 0.000526441 -0.226311)
(2.29243e-05 0.000560225 -0.230191)
(2.61077e-05 0.000573212 -0.229879)
(1.54267e-05 0.000592249 -0.229463)
(-1.03401e-05 0.000597445 -0.22938)
(-2.98871e-05 0.000581838 -0.229724)
(-3.17756e-05 0.000560111 -0.230157)
(-1.84177e-05 0.000548663 -0.230385)
(-9.49731e-07 0.000558695 -0.230122)
(1.53844e-06 0.000579846 -0.229603)
(-1.02052e-05 0.000580086 -0.229631)
(-8.98715e-06 0.000558601 -0.230247)
(5.21796e-06 0.000548737 -0.23055)
(2.41225e-05 0.000582084 -0.234198)
(2.67752e-05 0.000595845 -0.233899)
(1.60256e-05 0.000615909 -0.233501)
(-9.26481e-06 0.000621425 -0.233421)
(-2.89212e-05 0.000604977 -0.233749)
(-3.1265e-05 0.00058199 -0.234162)
(-1.84803e-05 0.00056984 -0.234382)
(-1.51837e-06 0.000580285 -0.234134)
(1.41276e-06 0.00060244 -0.23364)
(-9.0359e-06 0.000602726 -0.233665)
(-7.39052e-06 0.000580402 -0.234251)
(5.4779e-06 0.000570118 -0.23454)
(2.53684e-05 0.00060281 -0.23795)
(2.74198e-05 0.00061736 -0.237667)
(1.66119e-05 0.00063846 -0.23729)
(-8.08065e-06 0.000644306 -0.237213)
(-2.77718e-05 0.000627012 -0.237523)
(-3.05738e-05 0.000602733 -0.237914)
(-1.84036e-05 0.00058986 -0.238124)
(-2.02376e-06 0.000600711 -0.237892)
(1.34659e-06 0.000623863 -0.237425)
(-7.72919e-06 0.000624196 -0.237448)
(-5.66218e-06 0.000601068 -0.238001)
(5.75933e-06 0.000590375 -0.238274)
(2.66624e-05 0.000622195 -0.241445)
(2.80401e-05 0.000637548 -0.241178)
(1.71822e-05 0.000659684 -0.240823)
(-6.7907e-06 0.000665868 -0.24075)
(-2.64341e-05 0.000647726 -0.24104)
(-2.96891e-05 0.000622129 -0.241407)
(-1.81682e-05 0.000608515 -0.241606)
(-2.44482e-06 0.000619762 -0.241393)
(1.35339e-06 0.000643897 -0.240955)
(-6.28547e-06 0.000644281 -0.240976)
(-3.81052e-06 0.000620388 -0.241493)
(6.06251e-06 0.000609307 -0.241749)
(2.8004e-05 0.000640043 -0.244676)
(2.8635e-05 0.000656206 -0.244427)
(1.77339e-05 0.000679371 -0.244097)
(-5.39966e-06 0.000685898 -0.244028)
(-2.49048e-05 0.000666912 -0.244297)
(-2.8598e-05 0.000639979 -0.244637)
(-1.77538e-05 0.000625609 -0.244825)
(-2.75863e-06 0.000637238 -0.244631)
(1.44749e-06 0.000662334 -0.244225)
(-4.70745e-06 0.000662772 -0.244243)
(-1.84685e-06 0.000638166 -0.244722)
(6.38769e-06 0.000626722 -0.24496)
(2.93915e-05 0.000656172 -0.247643)
(2.92041e-05 0.000673151 -0.247413)
(1.82647e-05 0.000697328 -0.247109)
(-3.91418e-06 0.000704201 -0.247045)
(-2.31831e-05 0.000684381 -0.247291)
(-2.72886e-05 0.000656098 -0.247603)
(-1.71402e-05 0.000640961 -0.247779)
(-2.94083e-06 0.000652958 -0.247604)
(1.64379e-06 0.000678981 -0.247231)
(-3.00027e-06 0.000679476 -0.247247)
(2.14433e-07 0.00065422 -0.247687)
(6.73504e-06 0.00064244 -0.247906)
(3.08208e-05 0.000670398 -0.250345)
(2.97474e-05 0.000688194 -0.250135)
(1.87732e-05 0.00071336 -0.249858)
(-2.34312e-06 0.00072058 -0.249798)
(-2.12707e-05 0.000699943 -0.250021)
(-2.57505e-05 0.000670296 -0.250304)
(-1.63079e-05 0.000654381 -0.250467)
(-2.96609e-06 0.000666731 -0.250312)
(1.95753e-06 0.000693651 -0.249974)
(-1.17192e-06 0.000694203 -0.249987)
(2.3554e-06 0.000668357 -0.250387)
(7.10431e-06 0.00065628 -0.250586)
(3.22861e-05 0.000682567 -0.252784)
(3.02654e-05 0.000701173 -0.252595)
(1.92586e-05 0.000727289 -0.252345)
(-6.97623e-07 0.00073485 -0.252291)
(-1.91731e-05 0.000713414 -0.252489)
(-2.3976e-05 0.000682415 -0.252743)
(-1.52387e-05 0.000665726 -0.252892)
(-2.80868e-06 0.000678407 -0.252758)
(2.4043e-06 0.000706166 -0.252455)
(7.66261e-07 0.000706778 -0.252466)
(4.55497e-06 0.000680436 -0.252824)
(7.4952e-06 0.000668113 -0.253003)
(3.37777e-05 0.000692609 -0.254965)
(3.0759e-05 0.000712013 -0.254796)
(1.97211e-05 0.000739023 -0.254575)
(1.00813e-06 0.000746911 -0.254526)
(-1.68997e-05 0.000724712 -0.2547)
(-2.19605e-05 0.000692378 -0.254923)
(-1.3917e-05 0.000674923 -0.255058)
(-2.44323e-06 0.000687908 -0.254945)
(2.99908e-06 0.000716442 -0.254678)
(2.80031e-06 0.000717115 -0.254686)
(6.7885e-06 0.000690373 -0.255004)
(7.90751e-06 0.000677856 -0.255163)
(3.52826e-05 0.000700438 -0.256894)
(3.12288e-05 0.000720627 -0.256746)
(2.01616e-05 0.00074847 -0.256554)
(2.75787e-06 0.000756668 -0.25651)
(-1.44646e-05 0.000733742 -0.256659)
(-1.97041e-05 0.000700095 -0.256852)
(-1.2331e-05 0.000681885 -0.256973)
(-1.84624e-06 0.000695152 -0.25688)
(3.75542e-06 0.000724395 -0.256648)
(4.91349e-06 0.000725131 -0.256655)
(9.02925e-06 0.000698088 -0.256932)
(8.34108e-06 0.000685434 -0.257071)
(3.67828e-05 0.000706002 -0.258582)
(3.16741e-05 0.000726955 -0.258455)
(2.05808e-05 0.000755559 -0.25829)
(4.53314e-06 0.000764045 -0.258251)
(-1.18855e-05 0.000740431 -0.258376)
(-1.72113e-05 0.000705504 -0.25854)
(-1.04744e-05 0.00068656 -0.258647)
(-9.98552e-07 0.000700085 -0.258573)
(4.68425e-06 0.000729963 -0.258375)
(7.08701e-06 0.000730762 -0.25838)
(1.12493e-05 0.000703525 -0.258619)
(8.79564e-06 0.0006908 -0.258739)
(3.82555e-05 0.000709285 -0.26004)
(3.20924e-05 0.000730978 -0.259932)
(2.09791e-05 0.000760261 -0.259794)
(6.31363e-06 0.000769003 -0.259761)
(-9.18432e-06 0.000744747 -0.259862)
(-1.44925e-05 0.000708583 -0.259998)
(-8.34808e-06 0.000688934 -0.260092)
(1.12615e-07 0.000702691 -0.260036)
(5.7925e-06 0.000733126 -0.259871)
(9.30009e-06 0.000733988 -0.259874)
(1.34201e-05 0.00070667 -0.260076)
(9.27065e-06 0.000693942 -0.260178)
(3.96724e-05 0.000710299 -0.261282)
(3.24781e-05 0.000732704 -0.261193)
(2.13559e-05 0.000762575 -0.26108)
(8.07764e-06 0.000771538 -0.261051)
(-6.38689e-06 0.000746684 -0.261131)
(-1.15649e-05 0.000709338 -0.26124)
(-5.96207e-06 0.000689019 -0.261321)
(1.49132e-06 0.000702986 -0.261282)
(7.08191e-06 0.000733895 -0.261148)
(1.15302e-05 0.000734822 -0.26115)
(1.55138e-05 0.000707534 -0.261317)
(9.76498e-06 0.000694873 -0.261403)
(4.10001e-05 0.000709077 -0.262323)
(3.28225e-05 0.000732163 -0.262251)
(2.17091e-05 0.000762526 -0.262162)
(9.8032e-06 0.000771666 -0.262138)
(-3.52195e-06 0.000746262 -0.262197)
(-8.45273e-06 0.000707794 -0.262281)
(-3.33712e-06 0.000686849 -0.26235)
(3.13038e-06 0.000701006 -0.262326)
(8.54722e-06 0.000732308 -0.262221)
(1.37534e-05 0.000733301 -0.262222)
(1.75042e-05 0.000706153 -0.262358)
(1.02768e-05 0.000693631 -0.262428)
(4.22022e-05 0.000705704 -0.26318)
(3.31131e-05 0.000729432 -0.263124)
(2.20346e-05 0.00076018 -0.263057)
(1.14696e-05 0.000769447 -0.263037)
(-6.19146e-07 0.000743543 -0.263078)
(-5.18686e-06 0.000704029 -0.263138)
(-5.04989e-07 0.000682511 -0.263196)
(5.00892e-06 0.000696834 -0.263186)
(1.01732e-05 0.000728441 -0.263107)
(1.59451e-05 0.000729502 -0.263107)
(1.93714e-05 0.000702612 -0.263215)
(1.08061e-05 0.00069031 -0.263271)
(4.32464e-05 0.000700338 -0.263872)
(3.33383e-05 0.000724664 -0.263831)
(2.23273e-05 0.000755687 -0.263783)
(1.30603e-05 0.000765026 -0.263766)
(2.29231e-06 0.000738674 -0.263791)
(-1.80502e-06 0.000698199 -0.263831)
(2.49415e-06 0.000676169 -0.263879)
(7.09585e-06 0.000690639 -0.263881)
(1.19348e-05 0.000722463 -0.263824)
(1.80799e-05 0.000723596 -0.263824)
(2.11013e-05 0.000697073 -0.263907)
(1.13544e-05 0.000685062 -0.263952)
(4.41118e-05 0.000693137 -0.264423)
(3.34959e-05 0.000718017 -0.264394)
(2.25908e-05 0.000749205 -0.264362)
(1.45643e-05 0.000758557 -0.264348)
(5.18257e-06 0.000731803 -0.264359)
(1.65269e-06 0.000690458 -0.264382)
(5.62054e-06 0.000667984 -0.264421)
(9.36258e-06 0.000682584 -0.264433)
(1.38098e-05 0.000714545 -0.264395)
(2.01401e-05 0.000715751 -0.264395)
(2.26871e-05 0.000689695 -0.264457)
(1.19214e-05 0.000678047 -0.264493)
(4.47818e-05 0.00068428 -0.264853)
(3.35848e-05 0.000709668 -0.264835)
(2.28286e-05 0.000740916 -0.264816)
(1.59734e-05 0.000750217 -0.264805)
(8.02371e-06 0.000723106 -0.264804)
(5.14753e-06 0.000680984 -0.264813)
(8.83401e-06 0.000658135 -0.264844)
(1.17767e-05 0.000672852 -0.264864)
(1.57782e-05 0.000704879 -0.264842)
(2.21158e-05 0.000706161 -0.264842)
(2.41266e-05 0.000680661 -0.264887)
(1.2502e-05 0.000669439 -0.264915)
(4.52425e-05 0.000673932 -0.265182)
(3.36001e-05 0.000699786 -0.265173)
(2.30369e-05 0.000730992 -0.265164)
(1.72813e-05 0.000740179 -0.265155)
(1.07909e-05 0.000712749 -0.265145)
(8.6381e-06 0.000669943 -0.265142)
(1.20883e-05 0.000646791 -0.265167)
(1.4296e-05 0.000661621 -0.265193)
(1.78127e-05 0.000693649 -0.265185)
(2.39972e-05 0.000695013 -0.265184)
(2.54211e-05 0.000670141 -0.265216)
(1.309e-05 0.000659399 -0.265238)
(4.54858e-05 0.000662246 -0.265427)
(3.35375e-05 0.000688523 -0.265425)
(2.32134e-05 0.000719595 -0.265425)
(1.84854e-05 0.000728603 -0.265418)
(1.34621e-05 0.000700884 -0.2654)
(1.20842e-05 0.00065749 -0.265388)
(1.53373e-05 0.00063411 -0.265408)
(1.68757e-05 0.00064905 -0.265439)
(1.98823e-05 0.000681029 -0.265441)
(2.57767e-05 0.000682477 -0.26544)
(2.65772e-05 0.000658292 -0.265461)
(1.36813e-05 0.000648075 -0.265478)
(4.55103e-05 0.000649363 -0.265605)
(3.33946e-05 0.000676022 -0.265608)
(2.3356e-05 0.000706878 -0.265615)
(1.95862e-05 0.000715641 -0.265609)
(1.6019e-05 0.000687659 -0.265586)
(1.54484e-05 0.000643768 -0.265566)
(1.85382e-05 0.000620234 -0.265582)
(1.94728e-05 0.000635288 -0.265616)
(2.19575e-05 0.000667176 -0.265626)
(2.74505e-05 0.000668714 -0.265626)
(2.76052e-05 0.000645262 -0.265638)
(1.42715e-05 0.000635607 -0.265651)
(4.53211e-05 0.000635413 -0.265728)
(3.31704e-05 0.000662415 -0.265736)
(2.34628e-05 0.000692979 -0.265747)
(2.05861e-05 0.000701436 -0.265742)
(1.84462e-05 0.000673211 -0.265715)
(1.86975e-05 0.000628914 -0.26569)
(2.16532e-05 0.000605298 -0.265703)
(2.2048e-05 0.000620471 -0.265739)
(2.40114e-05 0.000652239 -0.265755)
(2.90178e-05 0.000653871 -0.265755)
(2.85169e-05 0.000631185 -0.265761)
(1.48564e-05 0.00062212 -0.265771)
(4.49282e-05 0.000620506 -0.265808)
(3.28666e-05 0.000647815 -0.26582)
(2.35327e-05 0.000678025 -0.265835)
(2.14891e-05 0.000686114 -0.265829)
(2.07315e-05 0.000657659 -0.2658)
(2.18031e-05 0.000613043 -0.265772)
(2.46509e-05 0.000589417 -0.265781)
(2.45679e-05 0.00060472 -0.265819)
(2.60207e-05 0.000636344 -0.26584)
(3.048e-05 0.000638078 -0.26584)
(2.93244e-05 0.000616179 -0.265841)
(1.54323e-05 0.000607723 -0.265849)
(4.43454e-05 0.000604738 -0.265856)
(3.24864e-05 0.000632318 -0.26587)
(2.35659e-05 0.000662119 -0.265887)
(2.22994e-05 0.000669785 -0.265882)
(2.28647e-05 0.000641109 -0.265851)
(2.47412e-05 0.000596256 -0.26582)
(2.75064e-05 0.000572688 -0.265827)
(2.70062e-05 0.000588135 -0.265866)
(2.79674e-05 0.000619602 -0.26589)
(3.18399e-05 0.000621446 -0.26589)
(3.0039e-05 0.000600345 -0.265887)
(1.5996e-05 0.000592507 -0.265893)
(4.35885e-05 0.000588185 -0.265878)
(3.20347e-05 0.000616004 -0.265894)
(2.35634e-05 0.000645351 -0.265912)
(2.30212e-05 0.00065254 -0.265907)
(2.48371e-05 0.00062365 -0.265875)
(2.74918e-05 0.000578638 -0.265843)
(3.02005e-05 0.000555193 -0.265849)
(2.93433e-05 0.000570798 -0.265887)
(2.9838e-05 0.000602103 -0.265914)
(3.31011e-05 0.000604065 -0.265914)
(3.06706e-05 0.000583764 -0.265908)
(1.65457e-05 0.000576548 -0.265913)
(4.26737e-05 0.000570907 -0.26588)
(3.15172e-05 0.000598935 -0.265898)
(2.35269e-05 0.000627791 -0.265916)
(2.36574e-05 0.000634456 -0.265912)
(2.66405e-05 0.000605353 -0.26588)
(3.00377e-05 0.000560253 -0.265847)
(3.27183e-05 0.000536994 -0.265852)
(3.15657e-05 0.000552775 -0.26589)
(3.16237e-05 0.000583919 -0.265918)
(3.42672e-05 0.000586007 -0.265917)
(3.12269e-05 0.000566502 -0.26591)
(1.70805e-05 0.000559903 -0.265914)
(4.16164e-05 0.000552948 -0.265869)
(3.09402e-05 0.000581156 -0.265887)
(2.34585e-05 0.000609494 -0.265906)
(2.42094e-05 0.000615591 -0.265902)
(2.82662e-05 0.000586277 -0.26587)
(3.23635e-05 0.000541156 -0.265837)
(3.5048e-05 0.000518138 -0.26584)
(3.36636e-05 0.000534114 -0.265878)
(3.33183e-05 0.000565105 -0.265907)
(3.53412e-05 0.00056733 -0.265907)
(3.17136e-05 0.000548609 -0.265898)
(1.76007e-05 0.000542616 -0.265901)
(4.04308e-05 0.000534342 -0.265847)
(3.03099e-05 0.000562703 -0.265866)
(2.33603e-05 0.000590502 -0.265884)
(2.46771e-05 0.000595994 -0.26588)
(2.97051e-05 0.000566467 -0.265849)
(3.44543e-05 0.000521384 -0.265816)
(3.71785e-05 0.000498661 -0.265819)
(3.56299e-05 0.000514851 -0.265856)
(3.49178e-05 0.000545704 -0.265885)
(3.63247e-05 0.000548077 -0.265885)
(3.21348e-05 0.000530124 -0.265875)
(1.81074e-05 0.00052472 -0.265877)
(3.91295e-05 0.000515111 -0.265817)
(2.96324e-05 0.0005436 -0.265836)
(2.32343e-05 0.000570847 -0.265854)
(2.50589e-05 0.000575703 -0.26585)
(3.09468e-05 0.00054596 -0.26582)
(3.62951e-05 0.000500967 -0.265788)
(3.9099e-05 0.000478586 -0.26579)
(3.74578e-05 0.000495013 -0.265826)
(3.64187e-05 0.000525745 -0.265855)
(3.72184e-05 0.000528279 -0.265855)
(3.24927e-05 0.000511073 -0.265845)
(1.86018e-05 0.000506235 -0.265846)
(3.77239e-05 0.000495269 -0.265782)
(2.89136e-05 0.000523862 -0.265802)
(2.30819e-05 0.000550553 -0.265819)
(2.53517e-05 0.000554747 -0.265815)
(3.19805e-05 0.000524784 -0.265786)
(3.78706e-05 0.000479926 -0.265755)
(4.07972e-05 0.000457927 -0.265757)
(3.91401e-05 0.000474614 -0.265791)
(3.78169e-05 0.000505249 -0.26582)
(3.80214e-05 0.00050796 -0.26582)
(3.2788e-05 0.000491475 -0.265809)
(1.90854e-05 0.000487175 -0.26581)
(3.62244e-05 0.000474824 -0.265744)
(2.81594e-05 0.000503499 -0.265763)
(2.29048e-05 0.000529636 -0.26578)
(2.55517e-05 0.00053315 -0.265776)
(3.27945e-05 0.000502962 -0.265748)
(3.91646e-05 0.000458276 -0.265718)
(4.22596e-05 0.000436694 -0.26572)
(4.06679e-05 0.000453665 -0.265753)
(3.91077e-05 0.000484234 -0.265781)
(3.87314e-05 0.000487135 -0.265781)
(3.30208e-05 0.000471343 -0.26577)
(1.95591e-05 0.000467547 -0.26577)
(3.46411e-05 0.000453781 -0.265704)
(2.73756e-05 0.000482519 -0.265723)
(2.27042e-05 0.000508113 -0.265739)
(2.56552e-05 0.000510936 -0.265735)
(3.33778e-05 0.000480517 -0.265708)
(4.01611e-05 0.000436029 -0.26568)
(4.34714e-05 0.000414891 -0.265681)
(4.2031e-05 0.000432171 -0.265713)
(4.02849e-05 0.000462708 -0.265741)
(3.93458e-05 0.000465818 -0.265741)
(3.31905e-05 0.000450685 -0.26573)
(2.00237e-05 0.000447355 -0.265728)
(3.29843e-05 0.00043214 -0.265663)
(2.65686e-05 0.000460925 -0.265682)
(2.24823e-05 0.000485993 -0.265697)
(2.56588e-05 0.000488123 -0.265693)
(3.37204e-05 0.000457466 -0.265668)
(4.08447e-05 0.000413194 -0.265641)
(4.44169e-05 0.000392518 -0.265642)
(4.32177e-05 0.000410132 -0.265672)
(4.13417e-05 0.000440678 -0.265699)
(3.98612e-05 0.000444016 -0.2657)
(3.32968e-05 0.000429507 -0.265689)
(2.04799e-05 0.000426598 -0.265687)