0 	0 	0 	0
0 	-1.62389e-35 	-1.38687e-36 	1.85533e-31
5.01672e-05 	-1.43479e-06 	-1.75443e-07 	0.017308
5.01672e-05 	-1.43479e-06 	-1.75443e-07 	0.017308
0.000100334 	-2.18194e-06 	-7.50704e-07 	0.033299
0.000150502 	-2.80321e-06 	-1.75843e-06 	0.048135
0.000150502 	-2.80321e-06 	-1.75843e-06 	0.048135
0.000200669 	-3.47306e-06 	-3.2067e-06 	0.0619004
0.000200669 	-3.47306e-06 	-3.2067e-06 	0.0619004
0.000250836 	-4.14456e-06 	-5.07328e-06 	0.0746756
0.000301003 	-4.7758e-06 	-7.35147e-06 	0.0865284
0.000301003 	-4.7758e-06 	-7.35147e-06 	0.0865284
0.000351171 	-5.35407e-06 	-1.00367e-05 	0.0975036
0.000401338 	-5.87569e-06 	-1.31377e-05 	0.107624
0.000451505 	-6.34031e-06 	-1.66792e-05 	0.116903
0.000451505 	-6.34031e-06 	-1.66792e-05 	0.116903
0.000501672 	-6.74939e-06 	-2.06995e-05 	0.12537
0.000551839 	-7.10571e-06 	-2.52389e-05 	0.133069
0.000551839 	-7.10571e-06 	-2.52389e-05 	0.133069
0.000602007 	-7.4129e-06 	-3.03293e-05 	0.140061
0.000602007 	-7.4129e-06 	-3.03293e-05 	0.140061
0.000652174 	-7.67505e-06 	-3.59929e-05 	0.146417
0.000652174 	-7.67505e-06 	-3.59929e-05 	0.146417
0.000702341 	-7.89634e-06 	-4.22475e-05 	0.152208
0.000702341 	-7.89634e-06 	-4.22475e-05 	0.152208
0.000752508 	-8.08073e-06 	-4.91086e-05 	0.157504
0.000802676 	-8.23135e-06 	-5.65912e-05 	0.162359
0.000852843 	-8.34659e-06 	-6.47948e-05 	0.166769
0.000852843 	-8.34659e-06 	-6.47948e-05 	0.166769
0.00090301 	-8.43469e-06 	-7.35915e-05 	0.170841
0.00090301 	-8.43469e-06 	-7.35915e-05 	0.170841
0.000953177 	-8.49871e-06 	-8.29312e-05 	0.174617
0.00100334 	-8.54147e-06 	-9.27616e-05 	0.178131
0.00100334 	-8.54147e-06 	-9.27616e-05 	0.178131
0.00105351 	-8.56544e-06 	-0.000103033 	0.181416
0.00105351 	-8.56544e-06 	-0.000103033 	0.181416
0.00110368 	-8.57241e-06 	-0.000113707 	0.184495
0.00115385 	-8.56031e-06 	-0.000124831 	0.187345
0.00120401 	-8.53552e-06 	-0.000136247 	0.190044
0.00120401 	-8.53552e-06 	-0.000136247 	0.190044
0.00130435 	-8.45275e-06 	-0.000159813 	0.195051
0.00130435 	-8.45275e-06 	-0.000159813 	0.195051
0.00135452 	-8.39411e-06 	-0.000171953 	0.197351
0.00135452 	-8.39411e-06 	-0.000171953 	0.197351
0.00140468 	-8.32624e-06 	-0.000184261 	0.199541
0.00145485 	-8.25138e-06 	-0.000196683 	0.201647
0.00145485 	-8.25138e-06 	-0.000196683 	0.201647
0.00150502 	-8.17018e-06 	-0.000209201 	0.203677
0.00150502 	-8.17018e-06 	-0.000209201 	0.203677
0.00155518 	-8.08016e-06 	-0.000221816 	0.205598
0.00155518 	-8.08016e-06 	-0.000221816 	0.205598
0.00160535 	-7.9851e-06 	-0.000234455 	0.207459
0.00160535 	-7.9851e-06 	-0.000234455 	0.207459
0.00165552 	-7.8855e-06 	-0.000247104 	0.209268
0.00165552 	-7.8855e-06 	-0.000247104 	0.209268
0.00170569 	-7.7796e-06 	-0.000259732 	0.211006
0.00170569 	-7.7796e-06 	-0.000259732 	0.211006
0.00175585 	-7.66846e-06 	-0.000272289 	0.212689
0.00175585 	-7.66846e-06 	-0.000272289 	0.212689
0.00180602 	-7.55368e-06 	-0.000284781 	0.214334
0.00180602 	-7.55368e-06 	-0.000284781 	0.214334
0.00185619 	-7.43366e-06 	-0.000297146 	0.215925
0.00185619 	-7.43366e-06 	-0.000297146 	0.215925
0.00190635 	-7.30908e-06 	-0.000309347 	0.217471
0.00190635 	-7.30908e-06 	-0.000309347 	0.217471
0.00195652 	-7.18166e-06 	-0.000321432 	0.21899
0.00195652 	-7.18166e-06 	-0.000321432 	0.21899
0.00200669 	-7.04935e-06 	-0.000333278 	0.22046
0.00200669 	-7.04935e-06 	-0.000333278 	0.22046
0.00205686 	-6.91369e-06 	-0.00034491 	0.221899
0.00210702 	-6.7758e-06 	-0.000356401 	0.223316
0.00210702 	-6.7758e-06 	-0.000356401 	0.223316
0.00215719 	-6.63276e-06 	-0.000367488 	0.224683
0.00220736 	-6.48785e-06 	-0.000378399 	0.226033
0.00225753 	-6.33991e-06 	-0.000389027 	0.227355
0.00225753 	-6.33991e-06 	-0.000389027 	0.227355
0.00230769 	-6.18859e-06 	-0.000399284 	0.228644
0.00230769 	-6.18859e-06 	-0.000399284 	0.228644
0.00235786 	-6.03581e-06 	-0.000409378 	0.22992
0.00235786 	-6.03581e-06 	-0.000409378 	0.22992
0.00240803 	-5.87879e-06 	-0.000418946 	0.231155
0.00240803 	-5.87879e-06 	-0.000418946 	0.231155
0.00245819 	-5.72036e-06 	-0.000428318 	0.232377
0.00245819 	-5.72036e-06 	-0.000428318 	0.232377
0.00250836 	-5.55907e-06 	-0.000437295 	0.233571
0.00250836 	-5.55907e-06 	-0.000437295 	0.233571
0.00255853 	-5.39536e-06 	-0.000445907 	0.234743
0.0026087 	-5.22995e-06 	-0.00045426 	0.235898
0.0026087 	-5.22995e-06 	-0.00045426 	0.235898
0.00265886 	-5.06129e-06 	-0.000462086 	0.237021
0.00270903 	-4.89187e-06 	-0.000469786 	0.238137
0.00270903 	-4.89187e-06 	-0.000469786 	0.238137
0.0027592 	-4.71858e-06 	-0.00047681 	0.239215
0.00280936 	-4.54469e-06 	-0.000483723 	0.240286
0.00280936 	-4.54469e-06 	-0.000483723 	0.240286
0.00285953 	-4.36766e-06 	-0.00049005 	0.241325
0.00285953 	-4.36766e-06 	-0.00049005 	0.241325
0.0029097 	-4.18958e-06 	-0.000496178 	0.242353
0.0029097 	-4.18958e-06 	-0.000496178 	0.242353
0.00295987 	-4.00888e-06 	-0.000501805 	0.243354
0.00295987 	-4.00888e-06 	-0.000501805 	0.243354
0.00301003 	-3.8268e-06 	-0.000507172 	0.24434
0.0030602 	-3.64243e-06 	-0.00051211 	0.245303
0.00311037 	-3.4564e-06 	-0.000516762 	0.246249
0.00311037 	-3.4564e-06 	-0.000516762 	0.246249
0.00316054 	-3.26821e-06 	-0.00052104 	0.247173
0.00316054 	-3.26821e-06 	-0.00052104 	0.247173
0.00326087 	-2.88592e-06 	-0.000528697 	0.248967
0.00326087 	-2.88592e-06 	-0.000528697 	0.248967
0.00331104 	-2.69179e-06 	-0.000532105 	0.249837
0.0033612 	-2.49531e-06 	-0.000535199 	0.250685
0.0033612 	-2.49531e-06 	-0.000535199 	0.250685
0.00341137 	-2.29726e-06 	-0.00053809 	0.251519
0.00341137 	-2.29726e-06 	-0.00053809 	0.251519
0.00346154 	-2.09683e-06 	-0.000540673 	0.25233
0.00346154 	-2.09683e-06 	-0.000540673 	0.25233
0.00351171 	-1.89539e-06 	-0.000543115 	0.253129
0.00356187 	-1.69172e-06 	-0.000545246 	0.253903
0.00356187 	-1.69172e-06 	-0.000545246 	0.253903
0.00361204 	-1.48754e-06 	-0.000547301 	0.254669
0.00366221 	-1.28118e-06 	-0.000549033 	0.255408
0.00366221 	-1.28118e-06 	-0.000549033 	0.255408
0.00371237 	-1.07475e-06 	-0.000550755 	0.256145
0.00371237 	-1.07475e-06 	-0.000550755 	0.256145
0.00376254 	-8.65648e-07 	-0.000552134 	0.256851
0.00376254 	-8.65648e-07 	-0.000552134 	0.256851
0.00381271 	-6.56547e-07 	-0.000553513 	0.257557
0.00381271 	-6.56547e-07 	-0.000553513 	0.257557
0.00386288 	-4.44868e-07 	-0.000554631 	0.258236
0.00391304 	-2.32663e-07 	-0.000555695 	0.258909
0.00391304 	-2.32663e-07 	-0.000555695 	0.258909
0.00396321 	-1.86196e-08 	-0.000556594 	0.259564
0.00401338 	1.96691e-07 	-0.000557378 	0.260205
0.00401338 	1.96691e-07 	-0.000557378 	0.260205
0.00406355 	4.12819e-07 	-0.000558086 	0.260837
0.00406355 	4.12819e-07 	-0.000558086 	0.260837
0.00411371 	6.30742e-07 	-0.000558625 	0.261446
0.00411371 	6.30742e-07 	-0.000558625 	0.261446
0.00421405 	1.0685e-06 	-0.000559496 	0.262633
0.00421405 	1.0685e-06 	-0.000559496 	0.262633
0.00426421 	1.28834e-06 	-0.000559826 	0.26321
0.00426421 	1.28834e-06 	-0.000559826 	0.26321
0.00431438 	1.50893e-06 	-0.000560047 	0.263767
0.00431438 	1.50893e-06 	-0.000560047 	0.263767
0.00436455 	1.72994e-06 	-0.000560203 	0.264311
0.00436455 	1.72994e-06 	-0.000560203 	0.264311
0.00441472 	1.95104e-06 	-0.000560328 	0.264849
0.00441472 	1.95104e-06 	-0.000560328 	0.264849
0.00446488 	2.17241e-06 	-0.000560347 	0.265361
0.00446488 	2.17241e-06 	-0.000560347 	0.265361
0.00451505 	2.39379e-06 	-0.000560366 	0.265873
0.00451505 	2.39379e-06 	-0.000560366 	0.265873
0.00456522 	2.61476e-06 	-0.000560305 	0.26636
0.00456522 	2.61476e-06 	-0.000560305 	0.26636
0.00461538 	2.83561e-06 	-0.000560221 	0.26684
0.00461538 	2.83561e-06 	-0.000560221 	0.26684
0.00466555 	3.05604e-06 	-0.000560118 	0.26731
0.00471572 	3.27543e-06 	-0.000559967 	0.267757
0.00476589 	3.49481e-06 	-0.000559817 	0.268205
0.00476589 	3.49481e-06 	-0.000559817 	0.268205
0.00486622 	3.92932e-06 	-0.000559452 	0.269042
0.00486622 	3.92932e-06 	-0.000559452 	0.269042
0.00491639 	4.14568e-06 	-0.000559264 	0.26945
0.00496656 	4.3592e-06 	-0.000559071 	0.269832
0.00496656 	4.3592e-06 	-0.000559071 	0.269832
0.00501672 	4.57273e-06 	-0.000558877 	0.270214
0.00506689 	4.78378e-06 	-0.000558693 	0.270578
0.00511706 	4.9928e-06 	-0.000558516 	0.270928
0.00511706 	4.9928e-06 	-0.000558516 	0.270928
0.00521739 	5.40593e-06 	-0.000558193 	0.271599
0.00521739 	5.40593e-06 	-0.000558193 	0.271599
0.00526756 	5.60933e-06 	-0.000558052 	0.271917
0.00526756 	5.60933e-06 	-0.000558052 	0.271917
0.00531773 	5.81169e-06 	-0.000557919 	0.272229
0.00536789 	6.00829e-06 	-0.000557827 	0.272515
0.00536789 	6.00829e-06 	-0.000557827 	0.272515
0.00541806 	6.20488e-06 	-0.000557735 	0.2728
0.00546823 	6.39835e-06 	-0.000557665 	0.273074
0.00551839 	6.58678e-06 	-0.000557631 	0.273328
0.00551839 	6.58678e-06 	-0.000557631 	0.273328
0.00556856 	6.77522e-06 	-0.000557596 	0.273582
0.00556856 	6.77522e-06 	-0.000557596 	0.273582
0.0056689 	7.1369e-06 	-0.000557619 	0.274043
0.0056689 	7.1369e-06 	-0.000557619 	0.274043
0.00571906 	7.31562e-06 	-0.000557643 	0.274267
0.00576923 	7.48644e-06 	-0.000557704 	0.27447
0.00576923 	7.48644e-06 	-0.000557704 	0.27447
0.0058194 	7.65374e-06 	-0.000557783 	0.274663
0.0058194 	7.65374e-06 	-0.000557783 	0.274663
0.00591973 	7.97821e-06 	-0.000557974 	0.275029
0.00591973 	7.97821e-06 	-0.000557974 	0.275029
0.0059699 	8.13234e-06 	-0.000558097 	0.275193
0.0059699 	8.13234e-06 	-0.000558097 	0.275193
0.00602007 	8.28647e-06 	-0.000558219 	0.275358
0.00607023 	8.4288e-06 	-0.000558365 	0.275501
0.0061204 	8.56805e-06 	-0.000558516 	0.275638
0.0061204 	8.56805e-06 	-0.000558516 	0.275638
0.00617057 	8.7073e-06 	-0.000558668 	0.275775
0.00622074 	8.83387e-06 	-0.000558828 	0.275891
0.00622074 	8.83387e-06 	-0.000558828 	0.275891
0.0062709 	8.95653e-06 	-0.000558991 	0.276001
0.00632107 	9.0792e-06 	-0.000559154 	0.276111
0.00632107 	9.0792e-06 	-0.000559154 	0.276111
0.00637124 	9.18927e-06 	-0.000559312 	0.276203
0.00637124 	9.18927e-06 	-0.000559312 	0.276203
0.0064214 	9.29347e-06 	-0.000559467 	0.276287
0.0064214 	9.29347e-06 	-0.000559467 	0.276287
0.00647157 	9.39768e-06 	-0.000559622 	0.276371
0.00647157 	9.39768e-06 	-0.000559622 	0.276371
0.00652174 	9.49064e-06 	-0.000559771 	0.276441
0.00657191 	9.57419e-06 	-0.000559914 	0.2765
0.00657191 	9.57419e-06 	-0.000559914 	0.2765
0.00662207 	9.65774e-06 	-0.000560058 	0.276558
0.00667224 	9.73313e-06 	-0.000560187 	0.276608
0.00672241 	9.79339e-06 	-0.000560291 	0.276641
0.00672241 	9.79339e-06 	-0.000560291 	0.276641
0.00677258 	9.85365e-06 	-0.000560394 	0.276675
0.00682274 	9.91133e-06 	-0.000560491 	0.276706
0.00682274 	9.91133e-06 	-0.000560491 	0.276706
0.00687291 	9.94548e-06 	-0.000560523 	0.276715
0.00687291 	9.94548e-06 	-0.000560523 	0.276715
0.00692308 	9.97963e-06 	-0.000560555 	0.276724
0.00697324 	1.00138e-05 	-0.000560587 	0.276733
0.00702341 	1.00249e-05 	-0.000560569 	0.276723
0.00707358 	1.003e-05 	-0.000560537 	0.276708
0.00707358 	1.003e-05 	-0.000560537 	0.276708
0.00717391 	1.00271e-05 	-0.000560426 	0.276668
0.00717391 	1.00271e-05 	-0.000560426 	0.276668
0.00722408 	1.00015e-05 	-0.000560281 	0.276628
0.00722408 	1.00015e-05 	-0.000560281 	0.276628
0.00727425 	9.9758e-06 	-0.000560135 	0.276589
0.00727425 	9.9758e-06 	-0.000560135 	0.276589
0.00732441 	9.95013e-06 	-0.000559989 	0.27655
0.00732441 	9.95013e-06 	-0.000559989 	0.27655
0.00737458 	9.89419e-06 	-0.000559742 	0.276487
0.00737458 	9.89419e-06 	-0.000559742 	0.276487
0.00742475 	9.83797e-06 	-0.000559495 	0.276423
0.00747492 	9.78175e-06 	-0.000559247 	0.27636
0.00752508 	9.71012e-06 	-0.000558963 	0.276285
0.00752508 	9.71012e-06 	-0.000558963 	0.276285
0.00757525 	9.62307e-06 	-0.000558643 	0.276198
0.00762542 	9.53602e-06 	-0.000558323 	0.276111
0.00767559 	9.4487e-06 	-0.000558002 	0.276023
0.00767559 	9.4487e-06 	-0.000558002 	0.276023
0.00772575 	9.33178e-06 	-0.00055756 	0.275912
0.00777592 	9.21487e-06 	-0.000557118 	0.275801
0.00777592 	9.21487e-06 	-0.000557118 	0.275801
0.00782609 	9.09796e-06 	-0.000556676 	0.275689
0.00787625 	8.96503e-06 	-0.000556183 	0.275565
0.00787625 	8.96503e-06 	-0.000556183 	0.275565
0.00792642 	8.82048e-06 	-0.000555653 	0.27543
0.00797659 	8.67593e-06 	-0.000555123 	0.275295
0.00802676 	8.52604e-06 	-0.000554574 	0.275156
0.00802676 	8.52604e-06 	-0.000554574 	0.275156
0.00807692 	8.35611e-06 	-0.000553952 	0.274998
0.00807692 	8.35611e-06 	-0.000553952 	0.274998
0.00812709 	8.18619e-06 	-0.00055333 	0.27484
0.00817726 	8.01626e-06 	-0.000552708 	0.274683
0.00817726 	8.01626e-06 	-0.000552708 	0.274683
0.00822742 	7.82705e-06 	-0.000551972 	0.274505
0.00827759 	7.63571e-06 	-0.000551223 	0.274324
0.00827759 	7.63571e-06 	-0.000551223 	0.274324
0.00832776 	7.44437e-06 	-0.000550475 	0.274144
0.00832776 	7.44437e-06 	-0.000550475 	0.274144
0.00837793 	7.24146e-06 	-0.000549658 	0.273949
0.00842809 	7.03232e-06 	-0.000548803 	0.273745
0.00842809 	7.03232e-06 	-0.000548803 	0.273745
0.00847826 	6.82317e-06 	-0.000547948 	0.273542
0.00847826 	6.82317e-06 	-0.000547948 	0.273542
0.0085786 	6.38362e-06 	-0.000546085 	0.273104
0.0085786 	6.38362e-06 	-0.000546085 	0.273104
0.00862876 	6.15986e-06 	-0.000545125 	0.272878
0.00867893 	5.93238e-06 	-0.000544132 	0.272645
0.0087291 	5.69688e-06 	-0.000543069 	0.272397
0.00877926 	5.46139e-06 	-0.000542006 	0.272149
0.00882943 	5.22374e-06 	-0.00054092 	0.271896
0.0088796 	4.97906e-06 	-0.000539756 	0.271625
0.0088796 	4.97906e-06 	-0.000539756 	0.271625
0.00892977 	4.73439e-06 	-0.000538593 	0.271355
0.00892977 	4.73439e-06 	-0.000538593 	0.271355
0.00897993 	4.48829e-06 	-0.000537409 	0.271079
0.00897993 	4.48829e-06 	-0.000537409 	0.271079
0.0090301 	4.23671e-06 	-0.000536146 	0.270786
0.00908027 	3.98513e-06 	-0.000534883 	0.270493
0.00908027 	3.98513e-06 	-0.000534883 	0.270493
0.00913043 	3.73242e-06 	-0.000533598 	0.270195
0.0091806 	3.47594e-06 	-0.000532236 	0.269879
0.0091806 	3.47594e-06 	-0.000532236 	0.269879
0.00923077 	3.21946e-06 	-0.000530875 	0.269563
0.00928094 	2.96201e-06 	-0.000529482 	0.26924
0.00928094 	2.96201e-06 	-0.000529482 	0.26924
0.0093311 	2.70239e-06 	-0.000528022 	0.268901
0.00938127 	2.44278e-06 	-0.000526561 	0.268562
0.00938127 	2.44278e-06 	-0.000526561 	0.268562
0.00943144 	2.18247e-06 	-0.000525057 	0.268213
0.00943144 	2.18247e-06 	-0.000525057 	0.268213
0.00948161 	1.92129e-06 	-0.000523496 	0.267851
0.00948161 	1.92129e-06 	-0.000523496 	0.267851
0.00953177 	1.6601e-06 	-0.000521936 	0.267489
0.00953177 	1.6601e-06 	-0.000521936 	0.267489
0.00958194 	1.3988e-06 	-0.000520313 	0.267112
0.00958194 	1.3988e-06 	-0.000520313 	0.267112
0.00963211 	1.13744e-06 	-0.00051865 	0.266727
0.00968227 	8.76071e-07 	-0.000516988 	0.266341
0.00968227 	8.76071e-07 	-0.000516988 	0.266341
0.00973244 	6.15591e-07 	-0.000515237 	0.265935
0.00978261 	3.55271e-07 	-0.000513471 	0.265526
0.00978261 	3.55271e-07 	-0.000513471 	0.265526
0.00983278 	9.52162e-08 	-0.000511691 	0.265113
0.00983278 	9.52162e-08 	-0.000511691 	0.265113
0.00988294 	-1.62981e-07 	-0.000509816 	0.26468
0.00993311 	-4.21178e-07 	-0.000507941 	0.264246
0.00993311 	-4.21178e-07 	-0.000507941 	0.264246
0.00998328 	-6.77988e-07 	-0.000506016 	0.2638
0.0100334 	-9.33109e-07 	-0.000504028 	0.263342
0.0100836 	-1.18823e-06 	-0.000502041 	0.262883
0.0100836 	-1.18823e-06 	-0.000502041 	0.262883
0.0101338 	-1.44012e-06 	-0.000499957 	0.262403
0.0101839 	-1.69132e-06 	-0.000497852 	0.261919
0.0101839 	-1.69132e-06 	-0.000497852 	0.261919
0.0102341 	-1.94138e-06 	-0.000495717 	0.261428
0.0102341 	-1.94138e-06 	-0.000495717 	0.261428
0.0102843 	-2.1879e-06 	-0.000493488 	0.260918
0.0103344 	-2.43442e-06 	-0.000491258 	0.260407
0.0103344 	-2.43442e-06 	-0.000491258 	0.260407
0.0103846 	-2.67716e-06 	-0.000488937 	0.259878
0.0103846 	-2.67716e-06 	-0.000488937 	0.259878
0.0104348 	-2.91833e-06 	-0.000486576 	0.25934
0.0104348 	-2.91833e-06 	-0.000486576 	0.25934
0.0104849 	-3.15821e-06 	-0.000484186 	0.258797
0.0104849 	-3.15821e-06 	-0.000484186 	0.258797
0.0105351 	-3.39342e-06 	-0.000481687 	0.258232
0.0105853 	-3.62864e-06 	-0.000479188 	0.257667
0.0105853 	-3.62864e-06 	-0.000479188 	0.257667
0.0106856 	-4.08753e-06 	-0.00047393 	0.256486
0.0106856 	-4.08753e-06 	-0.00047393 	0.256486
0.0107358 	-4.31365e-06 	-0.000471226 	0.255882
0.010786 	-4.53532e-06 	-0.000468424 	0.255259
0.010786 	-4.53532e-06 	-0.000468424 	0.255259
0.0108361 	-4.75694e-06 	-0.000465621 	0.254635
0.0108863 	-4.97108e-06 	-0.000462654 	0.253981
0.0108863 	-4.97108e-06 	-0.000462654 	0.253981
0.0109365 	-5.18521e-06 	-0.000459688 	0.253327
0.0109365 	-5.18521e-06 	-0.000459688 	0.253327
0.0109866 	-5.39383e-06 	-0.000456602 	0.252651
0.0110368 	-5.59993e-06 	-0.000453462 	0.251965
0.0110368 	-5.59993e-06 	-0.000453462 	0.251965
0.011087 	-5.80256e-06 	-0.000450247 	0.251265
0.011087 	-5.80256e-06 	-0.000450247 	0.251265
0.0111371 	-6.00015e-06 	-0.000446922 	0.250546
0.0111873 	-6.19621e-06 	-0.000443564 	0.249821
0.0111873 	-6.19621e-06 	-0.000443564 	0.249821
0.0112375 	-6.38483e-06 	-0.00044004 	0.249066
0.0112876 	-6.57344e-06 	-0.000436517 	0.248312
0.0112876 	-6.57344e-06 	-0.000436517 	0.248312
0.0113378 	-6.75288e-06 	-0.000432782 	0.247522
0.0113378 	-6.75288e-06 	-0.000432782 	0.247522
0.011388 	-6.93203e-06 	-0.000429041 	0.246731
0.0114381 	-7.10312e-06 	-0.000425101 	0.245908
0.0114381 	-7.10312e-06 	-0.000425101 	0.245908
0.0114883 	-7.27232e-06 	-0.000421114 	0.245077
0.0115385 	-7.43444e-06 	-0.000416929 	0.244217
0.0115385 	-7.43444e-06 	-0.000416929 	0.244217
0.0115886 	-7.59336e-06 	-0.000412654 	0.243343
0.0116388 	-7.74609e-06 	-0.000408177 	0.24244
0.0116388 	-7.74609e-06 	-0.000408177 	0.24244
0.011689 	-7.89475e-06 	-0.000403567 	0.241518
0.0117391 	-8.0378e-06 	-0.000398741 	0.240567
0.0117893 	-8.17635e-06 	-0.000393742 	0.239593
0.0118395 	-8.30928e-06 	-0.000388509 	0.238588
0.0118395 	-8.30928e-06 	-0.000388509 	0.238588
0.0118896 	-8.43748e-06 	-0.000383078 	0.237556
0.0119398 	-8.55947e-06 	-0.000377386 	0.236488
0.0119398 	-8.55947e-06 	-0.000377386 	0.236488
0.01199 	-8.67666e-06 	-0.000371493 	0.235394
0.0120401 	-8.78653e-06 	-0.000365304 	0.234257
0.0120401 	-8.78653e-06 	-0.000365304 	0.234257
0.0120903 	-8.89197e-06 	-0.000358934 	0.233096
0.0120903 	-8.89197e-06 	-0.000358934 	0.233096
0.0121906 	-9.08158e-06 	-0.000345366 	0.23065
0.0121906 	-9.08158e-06 	-0.000345366 	0.23065
0.0122408 	-9.16371e-06 	-0.000338103 	0.229352
0.012291 	-9.24377e-06 	-0.000330763 	0.228042
0.012291 	-9.24377e-06 	-0.000330763 	0.228042
0.0123411 	-9.31031e-06 	-0.000322938 	0.22665
0.0123913 	-9.37415e-06 	-0.00031502 	0.225243
0.0123913 	-9.37415e-06 	-0.00031502 	0.225243
0.0124415 	-9.42661e-06 	-0.000306715 	0.223765
0.0124415 	-9.42661e-06 	-0.000306715 	0.223765
0.0124916 	-9.47298e-06 	-0.000298217 	0.222249
0.0124916 	-9.47298e-06 	-0.000298217 	0.222249
0.0125418 	-9.51079e-06 	-0.000289448 	0.22068
0.012592 	-9.53844e-06 	-0.000280383 	0.219047
0.0126421 	-9.56107e-06 	-0.000271173 	0.217381
0.0126421 	-9.56107e-06 	-0.000271173 	0.217381
0.0126923 	-9.56871e-06 	-0.000261577 	0.215619
0.0127425 	-9.57127e-06 	-0.000251867 	0.213823
0.0127425 	-9.57127e-06 	-0.000251867 	0.213823
0.0127926 	-9.56203e-06 	-0.000241896 	0.21195
0.0128428 	-9.54256e-06 	-0.000231744 	0.210007
0.0128428 	-9.54256e-06 	-0.000231744 	0.210007
0.0129431 	-9.47399e-06 	-0.000210986 	0.205921
0.0129431 	-9.47399e-06 	-0.000210986 	0.205921
0.0129933 	-9.42428e-06 	-0.000200436 	0.203771
0.0130435 	-9.364e-06 	-0.000189797 	0.201545
0.0130435 	-9.364e-06 	-0.000189797 	0.201545
0.0131438 	-9.20604e-06 	-0.000168414 	0.196821
0.0131438 	-9.20604e-06 	-0.000168414 	0.196821
0.013194 	-9.11002e-06 	-0.00015774 	0.194331
0.0132441 	-8.99995e-06 	-0.000147155 	0.191731
0.0132441 	-8.99995e-06 	-0.000147155 	0.191731
0.0132943 	-8.88046e-06 	-0.000136653 	0.189056
0.0133445 	-8.74768e-06 	-0.000126297 	0.186271
0.0133445 	-8.74768e-06 	-0.000126297 	0.186271
0.0133946 	-8.59963e-06 	-0.000116173 	0.183355
0.0133946 	-8.59963e-06 	-0.000116173 	0.183355
0.0134448 	-8.44105e-06 	-0.000106239 	0.180344
0.0134448 	-8.44105e-06 	-0.000106239 	0.180344
0.013495 	-8.27097e-06 	-9.65262e-05 	0.177228
0.0135452 	-8.08283e-06 	-8.72316e-05 	0.173935
0.0135452 	-8.08283e-06 	-8.72316e-05 	0.173935
0.0135953 	-7.88344e-06 	-7.82386e-05 	0.170521
0.0135953 	-7.88344e-06 	-7.82386e-05 	0.170521
0.0136455 	-7.67242e-06 	-6.95739e-05 	0.166977
0.0136455 	-7.67242e-06 	-6.95739e-05 	0.166977
0.0136957 	-7.44743e-06 	-6.13342e-05 	0.163268
0.0136957 	-7.44743e-06 	-6.13342e-05 	0.163268
0.0137458 	-7.20637e-06 	-5.36293e-05 	0.15935
0.013796 	-6.9531e-06 	-4.63638e-05 	0.15526
0.013796 	-6.9531e-06 	-4.63638e-05 	0.15526
0.0138462 	-6.68744e-06 	-3.95676e-05 	0.150984
0.0138462 	-6.68744e-06 	-3.95676e-05 	0.150984
0.0138963 	-6.40935e-06 	-3.32713e-05 	0.146507
0.0139465 	-6.1157e-06 	-2.76633e-05 	0.141742
0.0139465 	-6.1157e-06 	-2.76633e-05 	0.141742
0.0139967 	-5.8109e-06 	-2.2604e-05 	0.13673
0.0139967 	-5.8109e-06 	-2.2604e-05 	0.13673
0.0140468 	-5.49593e-06 	-1.80931e-05 	0.131458
0.0140468 	-5.49593e-06 	-1.80931e-05 	0.131458
0.014097 	-5.17183e-06 	-1.41394e-05 	0.125904
0.0141472 	-4.84017e-06 	-1.07432e-05 	0.120046
0.0141472 	-4.84017e-06 	-1.07432e-05 	0.120046
0.0141973 	-4.50309e-06 	-7.89112e-06 	0.113858
0.0142475 	-4.16242e-06 	-5.62584e-06 	0.107238
0.0142977 	-3.82008e-06 	-3.81686e-06 	0.100204
0.0142977 	-3.82008e-06 	-3.81686e-06 	0.100204
0.0143478 	-3.47761e-06 	-2.4203e-06 	0.0927474
0.014398 	-3.1373e-06 	-1.39769e-06 	0.0848861
0.014398 	-3.1373e-06 	-1.39769e-06 	0.0848861
0.0144482 	-2.80196e-06 	-7.01304e-07 	0.0766792
0.0144983 	-2.47425e-06 	-2.72713e-07 	0.068231
0.0144983 	-2.47425e-06 	-2.72713e-07 	0.068231
0.0145485 	-2.15587e-06 	-4.6338e-08 	0.0596915
0.0145485 	-2.15587e-06 	-4.6338e-08 	0.0596915
0.0145987 	-1.84729e-06 	4.39761e-08 	0.0512405
0.0146488 	-1.54834e-06 	5.65746e-08 	0.043058
0.014699 	-1.25964e-06 	3.4962e-08 	0.0352912
0.014699 	-1.25964e-06 	3.4962e-08 	0.0352912
0.0147492 	-9.85158e-07 	5.54215e-09 	0.0280347
0.0147993 	-7.36899e-07 	-1.85054e-08 	0.0213322
0.0147993 	-7.36899e-07 	-1.85054e-08 	0.0213322
0.0148495 	-5.45595e-07 	-3.53295e-08 	0.0151922
0.0148495 	-5.45595e-07 	-3.53295e-08 	0.0151922
0.0148997 	-4.33906e-07 	-3.61969e-08 	0.00960478
0.0148997 	-4.33906e-07 	-3.61969e-08 	0.00960478
0.0149498 	-3.13134e-07 	-2.34025e-08 	0.00455338
0.0149498 	-3.13134e-07 	-2.34025e-08 	0.00455338
0.015 	0 	0 	0
0.015 	0 	0 	0
