0 	0 	0 	0
0 	0 	0 	0
0.00752508 	0.0022646 	0.00123979 	-0.285877
0.00752508 	0.0022646 	0.00123979 	-0.285877
0.00757525 	0.00225276 	0.0012334 	-0.285744
0.00762542 	0.00224092 	0.00122702 	-0.285611
0.00762542 	0.00224092 	0.00122702 	-0.285611
0.00767559 	0.00222905 	0.00122061 	-0.285478
0.00772575 	0.002213 	0.00121215 	-0.285296
0.00777592 	0.00219695 	0.00120368 	-0.285114
0.00782609 	0.0021809 	0.00119521 	-0.284932
0.00782609 	0.0021809 	0.00119521 	-0.284932
0.00787625 	0.0021631 	0.00118358 	-0.28472
0.00792642 	0.00214404 	0.00116965 	-0.284486
0.00797659 	0.00212497 	0.00115571 	-0.284252
0.00802676 	0.0021058 	0.00114263 	-0.284002
0.00802676 	0.0021058 	0.00114263 	-0.284002
0.00807692 	0.00208624 	0.00113274 	-0.283693
0.00812709 	0.00206668 	0.00112285 	-0.283384
0.00812709 	0.00206668 	0.00112285 	-0.283384
0.00817726 	0.00204712 	0.00111296 	-0.283075
0.00822742 	0.00202869 	0.00111233 	-0.282673
0.00822742 	0.00202869 	0.00111233 	-0.282673
0.00827759 	0.00201039 	0.00111272 	-0.282261
0.00832776 	0.00199209 	0.00111311 	-0.281849
0.00832776 	0.00199209 	0.00111311 	-0.281849
0.00837793 	0.00197331 	0.0011121 	-0.281386
0.00842809 	0.00195427 	0.00111034 	-0.280895
0.00842809 	0.00195427 	0.00111034 	-0.280895
0.00847826 	0.00193524 	0.00110859 	-0.280405
0.00847826 	0.00193524 	0.00110859 	-0.280405
0.00852843 	0.00191437 	0.00110275 	-0.279912
0.00852843 	0.00191437 	0.00110275 	-0.279912
0.0085786 	0.00189132 	0.00109204 	-0.279417
0.0085786 	0.00189132 	0.00109204 	-0.279417
0.00862876 	0.00186827 	0.00108132 	-0.278922
0.00867893 	0.00184353 	0.00106852 	-0.278439
0.00867893 	0.00184353 	0.00106852 	-0.278439
0.0087291 	0.00181516 	0.00105121 	-0.277982
0.00877926 	0.0017868 	0.00103391 	-0.277525
0.00877926 	0.0017868 	0.00103391 	-0.277525
0.00882943 	0.00175742 	0.00101624 	-0.277072
0.0088796 	0.00172474 	0.000997393 	-0.276633
0.0088796 	0.00172474 	0.000997393 	-0.276633
0.00897993 	0.00165898 	0.000961131 	-0.27575
0.00897993 	0.00165898 	0.000961131 	-0.27575
0.0090301 	0.0016243 	0.00094922 	-0.275286
0.00908027 	0.00158963 	0.000937308 	-0.274822
0.00908027 	0.00158963 	0.000937308 	-0.274822
0.00913043 	0.00155478 	0.000927851 	-0.274346
0.0091806 	0.00151933 	0.00092653 	-0.273834
0.0091806 	0.00151933 	0.00092653 	-0.273834
0.00923077 	0.00148387 	0.00092521 	-0.273321
0.00928094 	0.00144763 	0.000924069 	-0.272796
0.00928094 	0.00144763 	0.000924069 	-0.272796
0.0093311 	0.00140964 	0.00092333 	-0.272247
0.00938127 	0.00137164 	0.00092259 	-0.271697
0.00938127 	0.00137164 	0.00092259 	-0.271697
0.00943144 	0.00133152 	0.000916258 	-0.271145
0.00943144 	0.00133152 	0.000916258 	-0.271145
0.00948161 	0.00128867 	0.000902753 	-0.270589
0.00948161 	0.00128867 	0.000902753 	-0.270589
0.00953177 	0.00124582 	0.000889248 	-0.270033
0.00953177 	0.00124582 	0.000889248 	-0.270033
0.00958194 	0.00120119 	0.000869473 	-0.269478
0.00958194 	0.00120119 	0.000869473 	-0.269478
0.00963211 	0.00115547 	0.000845817 	-0.268923
0.00963211 	0.00115547 	0.000845817 	-0.268923
0.00968227 	0.00110974 	0.000822162 	-0.268368
0.00968227 	0.00110974 	0.000822162 	-0.268368
0.00973244 	0.00106593 	0.000802448 	-0.267798
0.00978261 	0.00102245 	0.000783448 	-0.267225
0.00983278 	0.00097962 	0.00076564 	-0.266649
0.00988294 	0.000941251 	0.00075619 	-0.266047
0.00988294 	0.000941251 	0.00075619 	-0.266047
0.00993311 	0.000902882 	0.00074674 	-0.265445
0.00998328 	0.000866593 	0.000736997 	-0.264829
0.00998328 	0.000866593 	0.000736997 	-0.264829
0.0100334 	0.000832837 	0.0007269 	-0.264196
0.0100334 	0.000832837 	0.0007269 	-0.264196
0.0100836 	0.000799081 	0.000716802 	-0.263563
0.0101338 	0.000768752 	0.000700819 	-0.262899
0.0101338 	0.000768752 	0.000700819 	-0.262899
0.0102341 	0.000710662 	0.0006691 	-0.261543
0.0102341 	0.000710662 	0.0006691 	-0.261543
0.0102843 	0.000685607 	0.000663205 	-0.260812
0.0103344 	0.000660551 	0.000657311 	-0.260081
0.0103344 	0.000660551 	0.000657311 	-0.260081
0.0103846 	0.000638887 	0.000673576 	-0.259298
0.0103846 	0.000638887 	0.000673576 	-0.259298
0.0104348 	0.000618621 	0.000698971 	-0.258492
0.0104849 	0.000599445 	0.000724066 	-0.257682
0.0104849 	0.000599445 	0.000724066 	-0.257682
0.0105351 	0.000584188 	0.000748085 	-0.256852
0.0105853 	0.000568931 	0.000772104 	-0.256021
0.0105853 	0.000568931 	0.000772104 	-0.256021
0.0106355 	0.000555311 	0.000750755 	-0.255225
0.0106856 	0.000542176 	0.000715937 	-0.254437
0.0106856 	0.000542176 	0.000715937 	-0.254437
0.0107358 	0.000525654 	0.000656085 	-0.253649
0.0107358 	0.000525654 	0.000656085 	-0.253649
0.010786 	0.000503303 	0.000553155 	-0.252857
0.010786 	0.000503303 	0.000553155 	-0.252857
0.0108361 	0.000480805 	0.000450391 	-0.252064
0.0108361 	0.000480805 	0.000450391 	-0.252064
0.0108863 	0.000435344 	0.000373655 	-0.251134
0.0109365 	0.000389882 	0.00029692 	-0.250203
0.0109365 	0.000389882 	0.00029692 	-0.250203
0.0109866 	0.000339473 	0.000296092 	-0.249194
0.0109866 	0.000339473 	0.000296092 	-0.249194
0.0110368 	0.000286806 	0.000329891 	-0.248149
0.011087 	0.000240926 	0.000392088 	-0.247115
0.011087 	0.000240926 	0.000392088 	-0.247115
0.0111371 	0.000204893 	0.000495493 	-0.246097
0.0111873 	0.000164419 	0.000595289 	-0.245069
0.0111873 	0.000164419 	0.000595289 	-0.245069
0.0112375 	0.000102169 	0.000677389 	-0.243997
0.0112876 	3.99181e-05 	0.000759488 	-0.242924
0.0112876 	3.99181e-05 	0.000759488 	-0.242924
0.0113378 	-0.000112865 	0.000725571 	-0.2416
0.011388 	-0.000268427 	0.000688094 	-0.240269
0.011388 	-0.000268427 	0.000688094 	-0.240269
0.0114883 	-0.000659085 	0.000494231 	-0.237403
0.0114883 	-0.000659085 	0.000494231 	-0.237403
0.0115385 	-0.000822779 	0.000429661 	-0.236068
0.0115886 	-0.00097019 	0.000382647 	-0.234784
0.0115886 	-0.00097019 	0.000382647 	-0.234784
0.0116388 	-0.00107198 	0.000369196 	-0.233596
0.011689 	-0.00114366 	0.000377893 	-0.232472
0.011689 	-0.00114366 	0.000377893 	-0.232472
0.0117391 	-0.00118556 	0.000390817 	-0.231378
0.0117893 	-0.00120349 	0.000407139 	-0.230307
0.0117893 	-0.00120349 	0.000407139 	-0.230307
0.0118395 	-0.00121422 	0.000407681 	-0.229215
0.0118896 	-0.00121886 	0.000394891 	-0.228103
0.0118896 	-0.00121886 	0.000394891 	-0.228103
0.0119398 	-0.00122804 	0.000381861 	-0.22695
0.0119398 	-0.00122804 	0.000381861 	-0.22695
0.01199 	-0.00124071 	0.000368645 	-0.225765
0.01199 	-0.00124071 	0.000368645 	-0.225765
0.0120401 	-0.00125768 	0.000369266 	-0.224546
0.0120401 	-0.00125768 	0.000369266 	-0.224546
0.0120903 	-0.00127724 	0.000378246 	-0.223305
0.0120903 	-0.00127724 	0.000378246 	-0.223305
0.0121405 	-0.00129636 	0.000386246 	-0.222038
0.0121405 	-0.00129636 	0.000386246 	-0.222038
0.0121906 	-0.00131529 	0.000393857 	-0.220762
0.0121906 	-0.00131529 	0.000393857 	-0.220762
0.0122408 	-0.00132932 	0.000389573 	-0.219459
0.0122408 	-0.00132932 	0.000389573 	-0.219459
0.012291 	-0.00134243 	0.000383045 	-0.218152
0.012291 	-0.00134243 	0.000383045 	-0.218152
0.0123411 	-0.00134874 	0.000367053 	-0.216806
0.0123411 	-0.00134874 	0.000367053 	-0.216806
0.0123913 	-0.00135388 	0.0003514 	-0.215452
0.0123913 	-0.00135388 	0.0003514 	-0.215452
0.0124415 	-0.00135402 	0.000337176 	-0.21406
0.0124916 	-0.00135227 	0.00032676 	-0.212647
0.0124916 	-0.00135227 	0.00032676 	-0.212647
0.012592 	-0.00134288 	0.000321197 	-0.209716
0.012592 	-0.00134288 	0.000321197 	-0.209716
0.0126421 	-0.00133764 	0.000322924 	-0.208207
0.0126923 	-0.0013362 	0.000321846 	-0.206622
0.0126923 	-0.0013362 	0.000321846 	-0.206622
0.0127425 	-0.00133641 	0.000317586 	-0.205012
0.0127425 	-0.00133641 	0.000317586 	-0.205012
0.0127926 	-0.00134058 	0.000305099 	-0.203343
0.0128428 	-0.00134511 	0.000289206 	-0.201633
0.0128428 	-0.00134511 	0.000289206 	-0.201633
0.012893 	-0.00134988 	0.000271185 	-0.199898
0.0129431 	-0.00134839 	0.000258686 	-0.198106
0.0129431 	-0.00134839 	0.000258686 	-0.198106
0.0129933 	-0.00134326 	0.000249212 	-0.196287
0.0130435 	-0.00133257 	0.000244327 	-0.194428
0.0130435 	-0.00133257 	0.000244327 	-0.194428
0.0130936 	-0.00131621 	0.000240088 	-0.192502
0.0131438 	-0.00129771 	0.000234886 	-0.190534
0.0131438 	-0.00129771 	0.000234886 	-0.190534
0.013194 	-0.00127683 	0.000226893 	-0.188496
0.0132441 	-0.00125479 	0.000217484 	-0.186375
0.0132441 	-0.00125479 	0.000217484 	-0.186375
0.0132943 	-0.00123202 	0.000207716 	-0.184194
0.0133445 	-0.00120825 	0.000198118 	-0.181928
0.0133445 	-0.00120825 	0.000198118 	-0.181928
0.0133946 	-0.00118307 	0.000188757 	-0.179554
0.0134448 	-0.00115674 	0.000179368 	-0.177098
0.0134448 	-0.00115674 	0.000179368 	-0.177098
0.013495 	-0.00112907 	0.000169852 	-0.174551
0.0135452 	-0.0010987 	0.000160225 	-0.171838
0.0135452 	-0.0010987 	0.000160225 	-0.171838
0.0136455 	-0.00103237 	0.000141822 	-0.166045
0.0136455 	-0.00103237 	0.000141822 	-0.166045
0.0136957 	-0.00099614 	0.000133111 	-0.162917
0.0137458 	-0.000958188 	0.000124329 	-0.159578
0.0137458 	-0.000958188 	0.000124329 	-0.159578
0.013796 	-0.000919352 	0.000115442 	-0.156066
0.0138462 	-0.000879735 	0.000106572 	-0.152367
0.0138462 	-0.000879735 	0.000106572 	-0.152367
0.0138963 	-0.000839379 	9.79294e-05 	-0.148467
0.0138963 	-0.000839379 	9.79294e-05 	-0.148467
0.0139465 	-0.000797758 	8.97936e-05 	-0.144271
0.0139967 	-0.000754582 	8.2156e-05 	-0.139823
0.0139967 	-0.000754582 	8.2156e-05 	-0.139823
0.0140468 	-0.000709223 	7.50625e-05 	-0.135104
0.0140468 	-0.000709223 	7.50625e-05 	-0.135104
0.014097 	-0.000661035 	6.8406e-05 	-0.130091
0.0141472 	-0.00060934 	6.19402e-05 	-0.124756
0.0141973 	-0.000553346 	5.53865e-05 	-0.119069
0.0141973 	-0.000553346 	5.53865e-05 	-0.119069
0.0142475 	-0.000491515 	4.91249e-05 	-0.11294
0.0142977 	-0.00042561 	4.38877e-05 	-0.106413
0.0143478 	-0.000358581 	3.97544e-05 	-0.0994831
0.0143478 	-0.000358581 	3.97544e-05 	-0.0994831
0.014398 	-0.00029566 	3.61626e-05 	-0.0921597
0.014398 	-0.00029566 	3.61626e-05 	-0.0921597
0.0144482 	-0.000243747 	3.26136e-05 	-0.084479
0.0144983 	-0.000209495 	2.91037e-05 	-0.0765063
0.0144983 	-0.000209495 	2.91037e-05 	-0.0765063
0.0145485 	-0.000197303 	2.57866e-05 	-0.068334
0.0145987 	-0.000207777 	2.25609e-05 	-0.0600707
0.0145987 	-0.000207777 	2.25609e-05 	-0.0600707
0.0146488 	-0.000236379 	1.92397e-05 	-0.0518248
0.014699 	-0.000272139 	1.57361e-05 	-0.0436884
0.014699 	-0.000272139 	1.57361e-05 	-0.0436884
0.0147492 	-0.000295754 	1.20832e-05 	-0.0357297
0.0147993 	-0.000274599 	8.50827e-06 	-0.0279992
0.0147993 	-0.000274599 	8.50827e-06 	-0.0279992
0.0148495 	-0.000151057 	4.80725e-06 	-0.0205618
0.0148495 	-0.000151057 	4.80725e-06 	-0.0205618
0.0148997 	8.11566e-05 	1.95203e-06 	-0.0134893
0.0148997 	8.11566e-05 	1.95203e-06 	-0.0134893
0.0149498 	0.00021515 	5.06592e-07 	-0.00671318
0.0149498 	0.00021515 	5.06592e-07 	-0.00671318
0.015 	0 	0 	0
