0 	0 	0 	0
5.01672e-05 	-2.17867e-05 	-4.4445e-06 	0.0203386
0.000100334 	-4.35734e-05 	-8.88901e-06 	0.0406771
0.000150502 	-6.53601e-05 	-1.33335e-05 	0.0610157
0.000200669 	-8.71469e-05 	-1.7778e-05 	0.0813543
0.000250836 	-0.000108934 	-2.22225e-05 	0.101693
0.000301003 	-0.00013072 	-2.6667e-05 	0.122031
0.000351171 	-0.000150524 	-3.18181e-05 	0.140263
0.000401338 	-0.000162828 	-3.9641e-05 	0.15053
0.000451505 	-0.000175132 	-4.74639e-05 	0.160796
0.000501672 	-0.000187436 	-5.52868e-05 	0.171062
0.000551839 	-0.00019974 	-6.31097e-05 	0.181328
0.000602007 	-0.000212044 	-7.09326e-05 	0.191594
0.000652174 	-0.000224348 	-7.87555e-05 	0.20186
0.000702341 	-0.000236652 	-8.65785e-05 	0.212127
0.000752508 	-0.000246227 	-9.46294e-05 	0.220962
0.000802676 	-0.000249034 	-0.000103246 	0.226248
0.000852843 	-0.000251841 	-0.000111862 	0.231534
0.00090301 	-0.000254649 	-0.000120478 	0.236821
0.000953177 	-0.000257456 	-0.000129095 	0.242107
0.00100334 	-0.000260264 	-0.000137711 	0.247394
0.00105351 	-0.000263071 	-0.000146328 	0.25268
0.00110368 	-0.000265878 	-0.000154944 	0.257967
0.00115385 	-0.000268686 	-0.00016356 	0.263253
0.00120401 	-0.000271296 	-0.000172136 	0.268434
0.00125418 	-0.000269862 	-0.000179875 	0.271448
0.00130435 	-0.000268427 	-0.000187614 	0.274462
0.00135452 	-0.000266992 	-0.000195352 	0.277476
0.00140468 	-0.000265558 	-0.000203091 	0.280489
0.00145485 	-0.000264123 	-0.00021083 	0.283503
0.00150502 	-0.000262689 	-0.000218569 	0.286517
0.00155518 	-0.000261254 	-0.000226308 	0.289531
0.00160535 	-0.00025982 	-0.000234047 	0.292545
0.00165552 	-0.000258385 	-0.000241786 	0.295559
0.00170569 	-0.000256951 	-0.000249525 	0.298572
0.00175585 	-0.000255263 	-0.000256865 	0.301297
0.00180602 	-0.000252881 	-0.000263108 	0.303228
0.00185619 	-0.000250498 	-0.000269352 	0.305158
0.00190635 	-0.000248115 	-0.000275595 	0.307088
0.00195652 	-0.000245733 	-0.000281838 	0.309019
0.00200669 	-0.00024335 	-0.000288082 	0.310949
0.00205686 	-0.000240967 	-0.000294325 	0.312879
0.00210702 	-0.000238585 	-0.000300569 	0.31481
0.00215719 	-0.000236202 	-0.000306812 	0.31674
0.00220736 	-0.00023382 	-0.000313055 	0.318671
0.00225753 	-0.000231437 	-0.000319299 	0.320601
0.00230769 	-0.000229054 	-0.000325542 	0.322531
0.00235786 	-0.000226672 	-0.000331785 	0.324462
0.00240803 	-0.000224524 	-0.000336877 	0.325959
0.00245819 	-0.000222482 	-0.000341454 	0.327264
0.00250836 	-0.00022044 	-0.000346032 	0.328569
0.00255853 	-0.000218397 	-0.000350609 	0.329873
0.0026087 	-0.000216355 	-0.000355187 	0.331178
0.00265886 	-0.000214313 	-0.000359765 	0.332483
0.00270903 	-0.000212271 	-0.000364342 	0.333787
0.0027592 	-0.000210228 	-0.00036892 	0.335092
0.00280936 	-0.000208186 	-0.000373498 	0.336397
0.00285953 	-0.000206144 	-0.000378075 	0.337701
0.0029097 	-0.000204101 	-0.000382653 	0.339006
0.00295987 	-0.000202059 	-0.00038723 	0.340311
0.00301003 	-0.000200017 	-0.000391808 	0.341615
0.0030602 	-0.000197974 	-0.000396386 	0.34292
0.00311037 	-0.000195946 	-0.000400933 	0.344215
0.00316054 	-0.000194515 	-0.000404174 	0.345091
0.0032107 	-0.000193084 	-0.000407414 	0.345968
0.00326087 	-0.000191653 	-0.000410655 	0.346844
0.00331104 	-0.000190223 	-0.000413895 	0.347721
0.0033612 	-0.000188792 	-0.000417136 	0.348598
0.00341137 	-0.000187361 	-0.000420377 	0.349474
0.00346154 	-0.00018593 	-0.000423617 	0.350351
0.00351171 	-0.000184499 	-0.000426858 	0.351227
0.00356187 	-0.000183068 	-0.000430099 	0.352104
0.00361204 	-0.000181637 	-0.000433339 	0.35298
0.00366221 	-0.000180207 	-0.00043658 	0.353857
0.00371237 	-0.000178776 	-0.00043982 	0.354733
0.00376254 	-0.000177345 	-0.000443061 	0.35561
0.00381271 	-0.000175914 	-0.000446302 	0.356486
0.00386288 	-0.000174483 	-0.000449542 	0.357363
0.00391304 	-0.000173052 	-0.000452783 	0.358239
0.00396321 	-0.000171621 	-0.000456024 	0.359116
0.00401338 	-0.00017059 	-0.000458422 	0.359695
0.00406355 	-0.000169598 	-0.000460738 	0.360245
0.00411371 	-0.000168606 	-0.000463053 	0.360795
0.00416388 	-0.000167614 	-0.000465369 	0.361344
0.00421405 	-0.000166621 	-0.000467685 	0.361894
0.00426421 	-0.000165629 	-0.00047 	0.362444
0.00431438 	-0.000164637 	-0.000472316 	0.362994
0.00436455 	-0.000163645 	-0.000474632 	0.363543
0.00441472 	-0.000162653 	-0.000476948 	0.364093
0.00446488 	-0.00016166 	-0.000479263 	0.364643
0.00451505 	-0.000160668 	-0.000481579 	0.365193
0.00456522 	-0.000159676 	-0.000483895 	0.365743
0.00461538 	-0.000158684 	-0.00048621 	0.366292
0.00466555 	-0.000157692 	-0.000488526 	0.366842
0.00471572 	-0.0001567 	-0.000490842 	0.367392
0.00476589 	-0.000155707 	-0.000493157 	0.367942
0.00481605 	-0.000154715 	-0.000495473 	0.368491
0.00486622 	-0.000153723 	-0.000497789 	0.369041
0.00491639 	-0.000152731 	-0.000500105 	0.369591
0.00496656 	-0.000151739 	-0.00050242 	0.370141
0.00501672 	-0.000150951 	-0.000504019 	0.370441
0.00506689 	-0.000150175 	-0.000505579 	0.370729
0.00511706 	-0.000149399 	-0.00050714 	0.371016
0.00516722 	-0.000148623 	-0.0005087 	0.371303
0.00521739 	-0.000147847 	-0.00051026 	0.371591
0.00526756 	-0.000147071 	-0.000511821 	0.371878
0.00531773 	-0.000146295 	-0.000513381 	0.372165
0.00536789 	-0.000145519 	-0.000514941 	0.372453
0.00541806 	-0.000144742 	-0.000516502 	0.37274
0.00546823 	-0.000143966 	-0.000518062 	0.373027
0.00551839 	-0.00014319 	-0.000519622 	0.373314
0.00556856 	-0.000142414 	-0.000521183 	0.373602
0.00561873 	-0.000141638 	-0.000522743 	0.373889
0.0056689 	-0.000140862 	-0.000524303 	0.374176
0.00571906 	-0.000140086 	-0.000525864 	0.374464
0.00576923 	-0.000139309 	-0.000527424 	0.374751
0.0058194 	-0.000138533 	-0.000528984 	0.375038
0.00586957 	-0.000137757 	-0.000530545 	0.375326
0.00591973 	-0.000136981 	-0.000532105 	0.375613
0.0059699 	-0.000136205 	-0.000533665 	0.3759
0.00602007 	-0.000135429 	-0.000535226 	0.376187
0.00607023 	-0.000134653 	-0.000536786 	0.376475
0.0061204 	-0.000133876 	-0.000538346 	0.376762
0.00617057 	-0.000133197 	-0.000539392 	0.376903
0.00622074 	-0.000132567 	-0.000540178 	0.37697
0.0062709 	-0.000131937 	-0.000540963 	0.377037
0.00632107 	-0.000131307 	-0.000541749 	0.377104
0.00637124 	-0.000130677 	-0.000542534 	0.377171
0.0064214 	-0.000130047 	-0.000543319 	0.377238
0.00647157 	-0.000129416 	-0.000544105 	0.377305
0.00652174 	-0.000128786 	-0.00054489 	0.377372
0.00657191 	-0.000128156 	-0.000545676 	0.377439
0.00662207 	-0.000127526 	-0.000546461 	0.377506
0.00667224 	-0.000126896 	-0.000547246 	0.377573
0.00672241 	-0.000126266 	-0.000548032 	0.37764
0.00677258 	-0.000125636 	-0.000548817 	0.377707
0.00682274 	-0.000125006 	-0.000549602 	0.377774
0.00687291 	-0.000124375 	-0.000550388 	0.377841
0.00692308 	-0.000123745 	-0.000551173 	0.377908
0.00697324 	-0.000123115 	-0.000551959 	0.377976
0.00702341 	-0.000122485 	-0.000552744 	0.378043
0.00707358 	-0.000121855 	-0.000553529 	0.37811
0.00712375 	-0.000121225 	-0.000554315 	0.378177
0.00717391 	-0.000120595 	-0.0005551 	0.378244
0.00722408 	-0.000119965 	-0.000555885 	0.378311
0.00727425 	-0.000119335 	-0.000556671 	0.378378
0.00732441 	-0.000118704 	-0.000557456 	0.378445
0.00737458 	-0.000118074 	-0.000558242 	0.378512
0.00742475 	-0.000117444 	-0.000559027 	0.378579
0.00747492 	-0.000116814 	-0.000559812 	0.378646
0.00752508 	-0.000116241 	-0.000560214 	0.378614
0.00757525 	-0.000115726 	-0.000560231 	0.378482
0.00762542 	-0.000115211 	-0.000560248 	0.378351
0.00767559 	-0.000114695 	-0.000560265 	0.37822
0.00772575 	-0.00011418 	-0.000560282 	0.378089
0.00777592 	-0.000113664 	-0.000560299 	0.377958
0.00782609 	-0.000113149 	-0.000560316 	0.377827
0.00787625 	-0.000112634 	-0.000560333 	0.377696
0.00792642 	-0.000112118 	-0.00056035 	0.377564
0.00797659 	-0.000111603 	-0.000560367 	0.377433
0.00802676 	-0.000111088 	-0.000560383 	0.377302
0.00807692 	-0.000110572 	-0.0005604 	0.377171
0.00812709 	-0.000110057 	-0.000560417 	0.37704
0.00817726 	-0.000109541 	-0.000560434 	0.376909
0.00822742 	-0.000109026 	-0.000560451 	0.376777
0.00827759 	-0.000108511 	-0.000560468 	0.376646
0.00832776 	-0.000107995 	-0.000560485 	0.376515
0.00837793 	-0.00010748 	-0.000560502 	0.376384
0.00842809 	-0.000106965 	-0.000560519 	0.376253
0.00847826 	-0.000106449 	-0.000560536 	0.376122
0.00852843 	-0.000105934 	-0.000560553 	0.37599
0.0085786 	-0.000105418 	-0.00056057 	0.375859
0.00862876 	-0.000104903 	-0.000560587 	0.375728
0.00867893 	-0.000104388 	-0.000560604 	0.375597
0.0087291 	-0.000103872 	-0.000560621 	0.375466
0.00877926 	-0.000103357 	-0.000560638 	0.375335
0.00882943 	-0.000102842 	-0.000560655 	0.375204
0.0088796 	-0.00010238 	-0.000560356 	0.374992
0.00892977 	-0.000102024 	-0.000559434 	0.374621
0.00897993 	-0.000101667 	-0.000558511 	0.37425
0.0090301 	-0.000101311 	-0.000557589 	0.373879
0.00908027 	-0.000100955 	-0.000556666 	0.373508
0.00913043 	-0.000100599 	-0.000555744 	0.373137
0.0091806 	-0.000100243 	-0.000554821 	0.372766
0.00923077 	-9.98865e-05 	-0.000553899 	0.372395
0.00928094 	-9.95303e-05 	-0.000552977 	0.372024
0.0093311 	-9.91742e-05 	-0.000552054 	0.371653
0.00938127 	-9.8818e-05 	-0.000551132 	0.371282
0.00943144 	-9.84618e-05 	-0.000550209 	0.370911
0.00948161 	-9.81056e-05 	-0.000549287 	0.37054
0.00953177 	-9.77494e-05 	-0.000548364 	0.370169
0.00958194 	-9.73933e-05 	-0.000547442 	0.369798
0.00963211 	-9.70371e-05 	-0.000546519 	0.369427
0.00968227 	-9.66809e-05 	-0.000545597 	0.369056
0.00973244 	-9.63247e-05 	-0.000544674 	0.368685
0.00978261 	-9.59686e-05 	-0.000543752 	0.368314
0.00983278 	-9.56124e-05 	-0.00054283 	0.367943
0.00988294 	-9.52562e-05 	-0.000541907 	0.367572
0.00993311 	-9.49e-05 	-0.000540985 	0.367201
0.00998328 	-9.45439e-05 	-0.000540062 	0.36683
0.0100334 	-9.42051e-05 	-0.000539084 	0.366445
0.0100836 	-9.41921e-05 	-0.00053706 	0.36579
0.0101338 	-9.4179e-05 	-0.000535037 	0.365136
0.0101839 	-9.4166e-05 	-0.000533014 	0.364481
0.0102341 	-9.41529e-05 	-0.00053099 	0.363827
0.0102843 	-9.41399e-05 	-0.000528967 	0.363173
0.0103344 	-9.41269e-05 	-0.000526944 	0.362518
0.0103846 	-9.41138e-05 	-0.00052492 	0.361864
0.0104348 	-9.41008e-05 	-0.000522897 	0.361209
0.0104849 	-9.40877e-05 	-0.000520874 	0.360555
0.0105351 	-9.40747e-05 	-0.00051885 	0.3599
0.0105853 	-9.40616e-05 	-0.000516827 	0.359246
0.0106355 	-9.40486e-05 	-0.000514804 	0.358592
0.0106856 	-9.40355e-05 	-0.00051278 	0.357937
0.0107358 	-9.40225e-05 	-0.000510757 	0.357283
0.010786 	-9.40094e-05 	-0.000508734 	0.356628
0.0108361 	-9.39964e-05 	-0.00050671 	0.355974
0.0108863 	-9.39834e-05 	-0.000504687 	0.355319
0.0109365 	-9.39703e-05 	-0.000502664 	0.354665
0.0109866 	-9.39573e-05 	-0.00050064 	0.35401
0.0110368 	-9.39991e-05 	-0.000498475 	0.353323
0.011087 	-9.46005e-05 	-0.000494858 	0.352302
0.0111371 	-9.52019e-05 	-0.000491242 	0.35128
0.0111873 	-9.58032e-05 	-0.000487625 	0.350259
0.0112375 	-9.64046e-05 	-0.000484009 	0.349237
0.0112876 	-9.7006e-05 	-0.000480393 	0.348216
0.0113378 	-9.76074e-05 	-0.000476776 	0.347195
0.011388 	-9.82088e-05 	-0.00047316 	0.346173
0.0114381 	-9.88102e-05 	-0.000469543 	0.345152
0.0114883 	-9.94115e-05 	-0.000465927 	0.34413
0.0115385 	-0.000100013 	-0.00046231 	0.343109
0.0115886 	-0.000100614 	-0.000458694 	0.342087
0.0116388 	-0.000101216 	-0.000455077 	0.341066
0.011689 	-0.000101817 	-0.000451461 	0.340045
0.0117391 	-0.000102418 	-0.000447845 	0.339023
0.0117893 	-0.00010302 	-0.000444228 	0.338002
0.0118395 	-0.000103621 	-0.000440612 	0.33698
0.0118896 	-0.000104223 	-0.000436995 	0.335959
0.0119398 	-0.000105693 	-0.000430892 	0.334401
0.01199 	-0.000107183 	-0.000424731 	0.33283
0.0120401 	-0.000108674 	-0.00041857 	0.33126
0.0120903 	-0.000110164 	-0.000412408 	0.329689
0.0121405 	-0.000111654 	-0.000406247 	0.328118
0.0121906 	-0.000113145 	-0.000400086 	0.326548
0.0122408 	-0.000114635 	-0.000393925 	0.324977
0.012291 	-0.000116126 	-0.000387764 	0.323407
0.0123411 	-0.000117616 	-0.000381603 	0.321836
0.0123913 	-0.000119106 	-0.000375442 	0.320266
0.0124415 	-0.000120597 	-0.000369281 	0.318695
0.0124916 	-0.000122087 	-0.00036312 	0.317124
0.0125418 	-0.000123577 	-0.000356959 	0.315554
0.012592 	-0.000125068 	-0.000350798 	0.313983
0.0126421 	-0.000126808 	-0.000343675 	0.312129
0.0126923 	-0.000129109 	-0.000334394 	0.309638
0.0127425 	-0.000131409 	-0.000325113 	0.307146
0.0127926 	-0.00013371 	-0.000315832 	0.304655
0.0128428 	-0.000136011 	-0.000306551 	0.302164
0.012893 	-0.000138312 	-0.00029727 	0.299673
0.0129431 	-0.000140612 	-0.000287989 	0.297182
0.0129933 	-0.000142913 	-0.000278708 	0.29469
0.0130435 	-0.000145214 	-0.000269428 	0.292199
0.0130936 	-0.000147514 	-0.000260147 	0.289708
0.0131438 	-0.000149815 	-0.000250866 	0.287217
0.013194 	-0.000152116 	-0.000241585 	0.284725
0.0132441 	-0.000154416 	-0.000232304 	0.282234
0.0132943 	-0.000156416 	-0.000221431 	0.278531
0.0133445 	-0.000158305 	-0.000209978 	0.274386
0.0133946 	-0.000160195 	-0.000198526 	0.270242
0.0134448 	-0.000162084 	-0.000187074 	0.266097
0.013495 	-0.000163974 	-0.000175621 	0.261953
0.0135452 	-0.000165863 	-0.000164169 	0.257808
0.0135953 	-0.000167753 	-0.000152717 	0.253664
0.0136455 	-0.000169642 	-0.000141265 	0.24952
0.0136957 	-0.000171532 	-0.000129812 	0.245375
0.0137458 	-0.000173421 	-0.00011836 	0.241231
0.013796 	-0.000175311 	-0.000106908 	0.237086
0.0138462 	-0.000173315 	-9.70695e-05 	0.229649
0.0138963 	-0.000171131 	-8.73098e-05 	0.22205
0.0139465 	-0.000168947 	-7.755e-05 	0.214452
0.0139967 	-0.000166762 	-6.77903e-05 	0.206854
0.0140468 	-0.000164578 	-5.80306e-05 	0.199256
0.014097 	-0.000162394 	-4.82708e-05 	0.191658
0.0141472 	-0.000160209 	-3.85111e-05 	0.18406
0.0141973 	-0.000158025 	-2.87513e-05 	0.176461
0.0142475 	-0.00015584 	-1.89916e-05 	0.168863
0.0142977 	-0.000148425 	-1.38733e-05 	0.158319
0.0143478 	-0.000138901 	-1.06269e-05 	0.146586
0.014398 	-0.000129377 	-7.38051e-06 	0.134853
0.0144482 	-0.000119852 	-4.13412e-06 	0.12312
0.0144983 	-0.000110328 	-8.8773e-07 	0.111387
0.0145485 	-0.000100803 	2.35866e-06 	0.0996542
0.0145987 	-9.1279e-05 	5.60505e-06 	0.0879213
0.0146488 	-8.17546e-05 	8.85144e-06 	0.0761884
0.014699 	-7.04735e-05 	8.42047e-06 	0.0651475
0.0147492 	-5.8728e-05 	7.01706e-06 	0.0542896
0.0147993 	-4.69824e-05 	5.61365e-06 	0.0434316
0.0148495 	-3.52368e-05 	4.21024e-06 	0.0325737
0.0148997 	-2.34912e-05 	2.80682e-06 	0.0217158
0.0149498 	-1.17456e-05 	1.40341e-06 	0.0108579
0.015 	0 	0 	0
