-0.0075 	373
-0.00715932 	360.518
-0.00676191 	358.569
-0.00629832 	357.792
-0.00575752 	357.314
-0.00512667 	356.94
-0.00439077 	356.606
-0.00353231 	356.284
-0.00253089 	355.956
-0.00136271 	355.603
0 	355.214
0.00136271 	354.79
0.00253089 	354.346
0.00353231 	353.89
0.00439077 	353.409
0.00512667 	352.863
0.00575752 	352.173
0.00629832 	351.152
0.00676191 	348.954
0.00715932 	337.903
0.0075 	313
