/*--------------------------------*- C++ -*----------------------------------*\
| =========                 |                                                 |
| \\      /  F ield         | OpenFOAM: The Open Source CFD Toolbox           |
|  \\    /   O peration     | Version:  v1912                                 |
|   \\  /    A nd           | Website:  www.openfoam.com                      |
|    \\/     M anipulation  |                                                 |
\*---------------------------------------------------------------------------*/
FoamFile
{
    version     2.0;
    format      ascii;
    class       volScalarField;
    location    "99.6";
    object      pMean;
}
// * * * * * * * * * * * * * * * * * * * * * * * * * * * * * * * * * * * * * //

dimensions      [1 -1 -2 0 0 0 0];


internalField   nonuniform List<scalar> 
2528
(
100000
99977.6
99989
99969.7
100000
99977.6
99989
99969.7
100000
99977.7
99989
99969.7
99999.9
99977.7
99989
99969.7
100000
99977.7
99989
99969.7
99999.9
99977.7
99989
99969.7
100000
99977.7
99989
99969.8
100000
99977.7
99989
99969.8
100000
99977.8
99988.9
99969.9
100000
99977.8
99988.9
99969.9
99999.8
99977.8
99988.8
99969.9
99999.8
99977.8
99988.9
99969.9
99999.7
99977.9
99988.8
99970
99999.6
99977.9
99988.8
99970
99999.5
99977.9
99988.8
99970
99999.5
99978
99988.7
99970.1
99999.4
99978
99988.7
99970.2
99999.3
99978.1
99988.6
99970.3
99999.1
99978.1
99988.5
99970.4
99999
99978.2
99988.5
99970.4
99998.9
99978.3
99988.5
99970.5
99998.8
99978.3
99988.3
99970.7
99998.5
99978.4
99988.2
99970.7
99998.3
99978.5
99988.2
99970.8
99998.2
99978.6
99988.1
99971
99997.8
99978.8
99988
99971
99997.5
99978.7
99987.9
99971.2
99997.2
99979
99987.6
99971.3
99997
99979
99987.6
99971.5
99996.8
99979.1
99987.5
99971.7
99996.4
99979.4
99987.3
99971.9
99996.3
99979.4
99987.1
99972.1
99995.9
99979.5
99987
99972.2
99995.5
99979.8
99986.8
99972.5
99995.2
99980
99986.6
99972.4
99994.9
99980.1
99986.5
99972.7
99994.5
99980.3
99986.3
99972.8
99994.1
99980.3
99986.3
99973.1
99993.7
99980.5
99986
99973.4
99993.3
99980.6
99985.9
99973.6
99993
99980.8
99985.6
99973.8
99992.8
99981
99985.4
99973.9
99992.6
99981.2
99985.2
99974.4
99992.4
99981.3
99984.9
99974.6
99992.1
99981.7
99984.7
99974.9
99991.5
99981.9
99984.4
99975.1
99991
99982.2
99984.3
99975.3
99990.3
99982.3
99984
99975.5
99989.7
99982.6
99983.8
99975.8
99989.1
99982.8
99983.6
99976.1
99988.9
99982.7
99983.3
99976.5
99988.9
99982.8
99983.1
99976.7
99988.8
99982.9
99982.8
99977
99988.7
99983
99982.6
99977.3
99988.4
99983.1
99982.3
99977.6
99988
99983.3
99982.2
99977.8
99987.6
99983.5
99981.9
99978.1
99987.3
99983.6
99981.8
99978.5
99986.8
99983.9
99981.7
99978.9
99986.5
99983.9
99981.6
99979.1
99986.4
99984.1
99981.4
99979.5
99986
99984.1
99981.3
99979.8
99985.8
99984.3
99981.2
99980
99985.6
99984.4
99980.9
99980.3
99985.5
99984.5
99980.8
99980.5
99985.2
99984.6
99980.6
99980.8
99985
99984.7
99980.5
99981.1
99984.9
99984.8
99980.3
99981.4
99984.6
99985.1
99980.2
99981.5
99984.3
99985.2
99980
99981.8
99983.8
99985.4
99979.7
99982.1
99983.4
99985.5
99979.6
99982.4
99983
99985.7
99979.5
99982.6
99983
99985.7
99979.4
99982.8
99982.8
99985.8
99979.3
99982.9
99982.5
99985.7
99979.1
99983.1
99982.4
99985.8
99979
99983
99982.2
99985.6
99978.9
99983.2
99982.1
99985.6
99978.9
99983.3
99735.6
99730.2
99736.6
99729.7
99735.6
99730.2
99736.6
99729.7
99735.6
99730.2
99736.6
99729.7
99735.6
99730.2
99736.6
99729.7
99735.6
99730.2
99736.6
99729.7
99735.6
99730.2
99736.6
99729.7
99735.6
99730.3
99736.6
99729.7
99735.6
99730.3
99736.6
99729.7
99735.6
99730.3
99736.5
99729.7
99735.6
99730.3
99736.5
99729.7
99735.7
99730.4
99736.5
99729.7
99735.7
99730.4
99736.6
99729.7
99735.7
99730.4
99736.6
99729.7
99735.7
99730.4
99736.5
99729.8
99735.7
99730.4
99736.5
99729.8
99735.7
99730.4
99736.5
99729.8
99735.7
99730.4
99736.6
99729.8
99735.6
99730.4
99736.5
99729.9
99735.6
99730.4
99736.4
99729.9
99735.6
99730.4
99736.4
99729.9
99735.6
99730.4
99736.4
99729.9
99735.6
99730.4
99736.4
99729.9
99735.6
99730.4
99736.4
99729.9
99735.6
99730.5
99736.4
99729.9
99735.6
99730.5
99736.4
99730
99735.5
99730.5
99736.3
99730
99735.5
99730.4
99736.3
99730
99735.5
99730.4
99736.3
99729.9
99735.6
99730.5
99736.3
99729.9
99735.4
99730.6
99736.3
99730.1
99735.5
99730.6
99736.2
99730
99735.5
99730.6
99736.2
99730.1
99735.5
99730.6
99736.2
99730.1
99735.5
99730.6
99736.2
99730.2
99735.5
99730.7
99736
99730.2
99735.4
99730.7
99736
99730.2
99735.3
99730.6
99736
99730.3
99735.3
99730.7
99735.9
99730.3
99735.3
99730.7
99735.9
99730.3
99735.4
99730.8
99735.8
99730.4
99735.4
99730.8
99735.8
99730.5
99735.4
99730.7
99735.8
99730.6
99735.3
99730.7
99735.7
99730.6
99735.2
99730.8
99735.7
99730.6
99735.2
99730.9
99735.4
99730.7
99735.2
99730.9
99735.4
99730.7
99735.2
99731
99735.4
99730.8
99735.1
99731
99735.3
99730.9
99735.1
99731
99735.3
99731
99735
99730.9
99735.2
99731
99735
99731
99735.2
99731.1
99735.1
99731.1
99735
99731.1
99735.1
99731.1
99734.9
99731.2
99735
99731.1
99734.9
99731.3
99735
99731.1
99734.8
99731.4
99735
99731.1
99734.8
99731.5
99735
99731.2
99734.6
99731.6
99734.9
99731.2
99734.6
99731.6
99734.8
99731.2
99734.6
99731.7
99734.8
99731.3
99734.6
99731.7
99734.8
99731.2
99734.4
99731.8
99734.8
99731.2
99734.4
99731.8
99734.8
99731.2
99734.2
99732.1
99734.7
99731.4
99734.2
99732
99734.7
99731.4
99734
99732.1
99734.7
99731.3
99733.9
99732.1
99734.6
99731.4
99733.8
99732.2
99734.6
99731.4
99733.7
99732.3
99734.6
99731.3
99733.7
99732.4
99734.4
99731.3
99733.5
99732.3
99734.4
99731.4
99733.4
99732.5
99734.4
99731.4
99733.4
99732.5
99734.4
99731.4
99733.3
99732.6
99734.4
99731.5
99733.2
99732.6
99734.4
99731.5
99733.1
99732.5
99734.4
99731.5
99733
99732.6
99734.4
99731.5
99732.9
99732.6
99734.2
99731.5
99732.8
99732.7
99734.2
99731.6
99732.7
99732.7
99455.8
99439.6
99455.9
99439.6
99455.8
99439.6
99455.9
99439.6
99455.8
99439.6
99455.9
99439.6
99455.8
99439.6
99455.9
99439.6
99455.8
99439.6
99455.9
99439.6
99455.8
99439.7
99455.9
99439.6
99455.8
99439.7
99455.9
99439.6
99455.8
99439.7
99455.9
99439.6
99455.8
99439.7
99455.9
99439.6
99455.8
99439.7
99455.8
99439.6
99455.8
99439.7
99455.8
99439.7
99455.8
99439.7
99455.8
99439.7
99455.8
99439.7
99455.8
99439.7
99455.8
99439.7
99455.8
99439.7
99455.7
99439.7
99455.8
99439.7
99455.7
99439.8
99455.8
99439.7
99455.7
99439.8
99455.7
99439.7
99455.6
99439.8
99455.7
99439.7
99455.6
99439.8
99455.7
99439.8
99455.6
99439.8
99455.7
99439.8
99455.5
99439.9
99455.7
99439.8
99455.5
99439.9
99455.6
99439.9
99455.4
99440
99455.6
99439.9
99455.4
99440
99455.6
99439.9
99455.3
99440
99455.5
99440
99455.3
99440.1
99455.5
99440
99455.2
99440.1
99455.4
99440.1
99455.2
99440.2
99455.4
99440.1
99455.1
99440.2
99455.3
99440.1
99455.1
99440.3
99455.3
99440.2
99455
99440.4
99455.2
99440.2
99454.9
99440.4
99455.2
99440.3
99454.8
99440.5
99455.1
99440.4
99454.7
99440.6
99455.1
99440.5
99454.6
99440.7
99454.9
99440.5
99454.5
99440.8
99454.9
99440.6
99454.4
99440.9
99454.8
99440.7
99454.3
99441
99454.7
99440.7
99454.1
99441.1
99454.6
99440.8
99454
99441.2
99454.5
99440.9
99453.9
99441.3
99454.4
99441
99453.8
99441.4
99454.3
99441.1
99453.7
99441.5
99454.3
99441.1
99453.6
99441.6
99454.2
99441.2
99453.4
99441.7
99454.1
99441.3
99453.3
99441.9
99454
99441.3
99453.2
99442
99453.9
99441.4
99453
99442.2
99453.9
99441.5
99452.9
99442.3
99453.8
99441.5
99452.8
99442.5
99453.7
99441.6
99452.6
99442.6
99453.7
99441.7
99452.5
99442.8
99453.6
99441.8
99452.3
99442.9
99453.6
99441.9
99452.2
99443.1
99453.5
99442
99452.1
99443.2
99453.5
99442.1
99452
99443.4
99453.4
99442.2
99451.8
99443.5
99453.4
99442.3
99451.7
99443.7
99453.4
99442.4
99451.5
99443.9
99453.4
99442.6
99451.3
99444
99453.3
99442.7
99451.1
99444.1
99453.3
99442.8
99450.9
99444.3
99453.3
99442.9
99450.7
99444.5
99453.3
99443.1
99450.6
99444.7
99453.3
99443.2
99450.4
99444.8
99453.3
99443.1
99450.2
99445
99453.2
99443.1
99450
99445.2
99453.2
99443.3
99449.8
99445.3
99453.3
99443.5
99449.7
99445.5
99453.3
99443.8
99449.5
99445.6
99453.3
99444
99449.3
99445.8
99453.3
99444.3
99449.1
99446
99453.3
99444.5
99448.9
99446.2
99453.2
99444.7
99448.7
99446.4
99453.2
99444.9
99448.5
99446.6
99453.2
99445
99448.3
99446.8
99453.1
99445.1
99448
99447
99453.1
99445.1
99447.8
99447.2
99453.1
99445.2
99447.6
99447.5
99453
99445.3
99150.3
99154.6
99150.2
99153.8
99150.3
99154.6
99150.2
99153.8
99150.3
99154.6
99150.2
99153.8
99150.3
99154.6
99150.2
99153.8
99150.3
99154.6
99150.2
99153.8
99150.3
99154.6
99150.2
99153.8
99150.3
99154.6
99150.2
99153.8
99150.3
99154.6
99150.2
99153.9
99150.3
99154.6
99150.2
99153.9
99150.3
99154.6
99150.2
99153.8
99150.4
99154.6
99150.2
99153.8
99150.4
99154.6
99150.2
99153.8
99150.4
99154.6
99150.3
99153.8
99150.4
99154.6
99150.3
99153.8
99150.4
99154.6
99150.3
99153.8
99150.4
99154.6
99150.3
99153.8
99150.4
99154.6
99150.3
99153.8
99150.4
99154.6
99150.3
99153.8
99150.4
99154.6
99150.3
99153.8
99150.4
99154.6
99150.4
99153.8
99150.4
99154.6
99150.4
99153.7
99150.4
99154.5
99150.4
99153.7
99150.5
99154.5
99150.4
99153.7
99150.5
99154.5
99150.4
99153.7
99150.5
99154.5
99150.4
99153.7
99150.5
99154.5
99150.5
99153.7
99150.5
99154.5
99150.5
99153.6
99150.5
99154.5
99150.5
99153.6
99150.5
99154.4
99150.6
99153.6
99150.5
99154.4
99150.6
99153.6
99150.6
99154.4
99150.7
99153.5
99150.6
99154.4
99150.7
99153.5
99150.6
99154.4
99150.7
99153.5
99150.7
99154.3
99150.8
99153.4
99150.7
99154.3
99150.8
99153.4
99150.7
99154.3
99150.9
99153.4
99150.7
99154.3
99150.9
99153.3
99150.7
99154.3
99151
99153.3
99150.8
99154.2
99151
99153.3
99150.8
99154.2
99151.1
99153.2
99150.8
99154.2
99151.1
99153.2
99150.9
99154.1
99151.2
99153.1
99150.9
99154.1
99151.3
99153.1
99150.9
99154.1
99151.3
99153
99151
99154
99151.4
99153
99151
99154
99151.4
99152.9
99151
99154
99151.5
99152.8
99151
99153.9
99151.5
99152.8
99151.1
99153.9
99151.6
99152.7
99151.1
99153.8
99151.7
99152.7
99151.1
99153.8
99151.7
99152.6
99151.1
99153.8
99151.8
99152.5
99151.2
99153.7
99151.9
99152.5
99151.2
99153.7
99151.9
99152.4
99151.2
99153.6
99152
99152.4
99151.3
99153.6
99152
99152.3
99151.3
99153.6
99152.1
99152.2
99151.3
99153.5
99152.1
99152.2
99151.3
99153.5
99152.2
99152.1
99151.4
99153.5
99152.3
99152.1
99151.4
99153.5
99152.4
99152
99151.4
99153.4
99152.4
99151.9
99151.4
99153.4
99152.5
99151.9
99151.5
99153.3
99152.5
99151.8
99151.5
99153.3
99152.6
99151.8
99151.5
99153.3
99152.6
99151.8
99151.6
99153.3
99152.7
99151.7
99151.6
99153.3
99152.7
99151.7
99151.6
99153.2
99152.8
99151.6
99151.7
99153.2
99152.8
99151.6
99151.7
99153.2
99152.9
99151.6
99151.7
99153.2
99152.9
99151.6
99151.7
99153.2
99152.9
99151.6
99151.7
99153.2
99153
99151.5
99151.7
99153.2
99153
99151.5
99151.7
99153.1
99153
99151.5
99151.7
99153.1
99153
99151.5
99151.8
99153.1
99153.1
99151.5
99151.8
99153.1
99153.1
99151.5
99981.9
99985.7
99978.7
99983.4
99981.7
99985.8
99978.7
99983.7
99981.5
99985.9
99978.6
99983.8
99981.4
99985.8
99978.6
99983.9
99981.3
99985.9
99978.6
99984
99981.2
99985.8
99978.4
99984.2
99981.2
99985.7
99978.3
99984.4
99981.1
99985.6
99978.4
99984.5
99980.9
99985.4
99978.3
99984.7
99980.8
99985.3
99978.3
99984.8
99980.7
99985.2
99978.2
99984.8
99980.4
99984.9
99978.2
99985
99980.3
99984.9
99978.1
99985.1
99980.2
99984.7
99978.1
99985.2
99980.1
99984.5
99978.1
99985.4
99980
99984.3
99978.1
99985.3
99980.1
99984.2
99978.1
99985.4
99979.9
99983.9
99978.2
99985.5
99979.9
99983.6
99978.1
99985.5
99979.8
99983.4
99978.1
99985.5
99979.6
99983.3
99978.1
99985.6
99979.5
99982.9
99978.1
99985.5
99979.3
99982.5
99978.2
99985.5
99979.3
99982.3
99978.1
99985.7
99979.3
99981.9
99978.3
99985.6
99979.5
99981.5
99978.3
99985.6
99979.5
99981.2
99978.4
99985.5
99979.6
99980.8
99978.3
99985.4
99979.6
99980.7
99978.3
99985.3
99979.3
99980.7
99978.4
99985.5
99979.1
99980.5
99978.3
99985.8
99979.1
99980.3
99978.2
99985.9
99978.8
99980.1
99978.3
99985.9
99978.7
99979.8
99978.3
99986
99978.8
99979.6
99978.4
99985.9
99978.7
99979.4
99978.4
99985.8
99978.5
99979.2
99978.6
99985.9
99978.6
99979.1
99978.8
99985.8
99978.6
99978.9
99978.9
99986
99978.6
99978.6
99978.9
99985.9
99978.6
99978.6
99979
99985.9
99978.7
99978.3
99979.1
99985.8
99978.7
99978.1
99979.2
99985.9
99978.7
99977.9
99979.3
99985.9
99978.4
99977.7
99979.4
99985.8
99978.5
99977.6
99979.5
99986
99978.5
99977.5
99979.5
99986
99978.6
99977.4
99979.6
99986
99978.5
99977.2
99979.7
99986
99978.5
99977.1
99979.7
99986
99978.5
99977.1
99979.8
99985.9
99978.5
99976.9
99979.9
99985.9
99978.7
99976.8
99979.9
99986
99978.7
99976.7
99979.9
99985.9
99978.7
99976.6
99980.1
99985.9
99978.8
99976.5
99979.9
99985.9
99978.7
99976.6
99980
99985.9
99978.7
99976.5
99980.1
99985.9
99978.6
99976.4
99980
99985.9
99978.5
99976.3
99980
99985.9
99978.7
99976.3
99980
99985.9
99978.6
99976.3
99980.1
99985.8
99978.6
99976.2
99980
99985.9
99978.6
99976.2
99980
99985.9
99978.6
99976.2
99980.2
99986
99978.6
99976.2
99980.2
99985.9
99978.6
99976.1
99980.2
99986
99978.6
99976.1
99980.1
99986
99978.6
99976
99980.1
99986
99978.8
99976.1
99980.2
99986
99978.7
99976.1
99980.2
99986
99978.7
99976.1
99980.1
99986
99978.7
99976.1
99980.1
99986
99978.7
99976
99980.2
99985.9
99978.7
99976.1
99980.2
99985.9
99978.7
99976.1
99980.2
99985.9
99978.7
99976
99980.2
99985.9
99978.7
99976
99980.2
99985.9
99978.7
99976
99980.2
99985.9
99734.2
99731.6
99732.5
99732.7
99734.2
99731.6
99732.5
99732.7
99734.2
99731.6
99732.3
99732.8
99734.1
99731.7
99732.2
99732.8
99734.2
99731.7
99732.1
99732.9
99734.2
99731.8
99731.9
99732.9
99734.2
99731.8
99731.9
99733
99733.9
99732
99731.7
99733.1
99734
99732
99731.5
99733.1
99734
99732.1
99731.3
99733.3
99733.9
99732.2
99731.2
99733.3
99733.9
99732.3
99730.9
99733.4
99733.8
99732.4
99730.7
99733.5
99733.7
99732.6
99730.5
99733.6
99733.7
99732.7
99730.3
99733.7
99733.7
99732.8
99730.1
99733.8
99733.5
99732.9
99729.9
99733.9
99733.5
99733.1
99729.8
99734
99733.4
99733.2
99729.5
99734.2
99733.3
99733.5
99729.3
99734.2
99733.3
99733.6
99728.9
99734.4
99733.2
99733.8
99728.8
99734.5
99733
99733.9
99728.6
99734.6
99732.9
99734.2
99728.4
99734.8
99732.9
99734.3
99728.2
99734.8
99732.8
99734.5
99728
99735
99732.6
99734.8
99727.7
99735.1
99732.6
99734.9
99727.5
99735.3
99732.5
99735.1
99727.3
99735.5
99732.4
99735.2
99727
99735.6
99732.3
99735.5
99726.9
99735.8
99732.2
99735.6
99726.6
99735.9
99732
99735.8
99726.3
99736
99732
99736.1
99726.2
99736.2
99731.9
99736.3
99725.9
99736.3
99731.7
99736.4
99725.8
99736.3
99731.7
99736.6
99725.6
99736.6
99731.6
99736.8
99725.5
99736.6
99731.4
99736.9
99725.2
99736.7
99731.4
99737
99725
99736.9
99731.2
99737.2
99724.8
99737.1
99731.2
99737.4
99724.7
99737.1
99731
99737.5
99724.5
99737.3
99731
99737.6
99724.4
99737.4
99731
99737.8
99724.2
99737.5
99730.9
99737.9
99724.1
99737.5
99730.8
99738.1
99723.9
99737.6
99730.8
99738.2
99723.8
99737.7
99730.7
99738.3
99723.7
99737.8
99730.6
99738.4
99723.6
99737.9
99730.5
99738.5
99723.5
99737.9
99730.5
99738.5
99723.4
99737.9
99730.5
99738.6
99723.4
99738.1
99730.4
99738.6
99723.3
99738.1
99730.4
99738.8
99723.3
99738.2
99730.4
99738.8
99723.1
99738.2
99730.3
99738.9
99723.1
99738.2
99730.3
99738.9
99723
99738.2
99730.3
99738.9
99723
99738.3
99730.1
99739.1
99723
99738.3
99730.1
99739.1
99723
99738.3
99730.1
99739.1
99722.9
99738.3
99730.1
99739.1
99722.8
99738.4
99730.1
99739.1
99722.8
99738.5
99730.1
99739.1
99722.7
99738.4
99730.1
99739.1
99722.7
99738.5
99730.1
99739.2
99722.6
99738.6
99730.1
99739.2
99722.6
99738.6
99730.1
99739.2
99722.6
99738.6
99730.1
99739.2
99722.6
99738.6
99730.1
99739.2
99722.6
99738.6
99730.1
99739.2
99722.6
99738.6
99730.1
99739.2
99722.6
99738.6
99730.1
99739.2
99722.6
99738.6
99730.1
99739.2
99722.6
99738.6
99730.1
99739.2
99722.6
99738.6
99730.1
99739.2
99722.6
99738.6
99730.1
99739.2
99722.6
99738.6
99730.1
99739.2
99722.6
99738.6
99447.4
99447.7
99453
99445.5
99447.1
99448
99452.9
99445.8
99446.8
99448.3
99452.9
99446.1
99446.5
99448.6
99452.8
99446.4
99446.2
99448.9
99452.7
99446.8
99445.9
99449.2
99452.6
99447.1
99445.6
99449.5
99452.5
99447.5
99445.2
99449.8
99452.4
99447.8
99445
99450.1
99452.3
99448.2
99444.9
99450.5
99452.1
99448.6
99444.9
99450.8
99452
99449
99445
99451.1
99451.8
99449.4
99445
99451.4
99451.7
99449.8
99444.9
99451.7
99451.5
99450.2
99444.6
99452.1
99451.3
99450.7
99444.1
99452.4
99451
99451.1
99443.6
99452.8
99450.7
99451.6
99443.1
99453.2
99450.5
99452
99442.6
99453.6
99450.3
99452.4
99442.1
99454.1
99450.1
99452.7
99441.5
99454.5
99449.8
99453.1
99440.9
99454.9
99449.6
99453.6
99440.2
99455.3
99449.3
99454.1
99439.4
99455.7
99449.1
99454.6
99438.7
99456.1
99448.9
99455.1
99438.1
99456.5
99448.6
99455.6
99437.6
99457
99448.4
99456.1
99437.2
99457.3
99448.1
99456.6
99436.7
99457.7
99447.9
99457
99436.1
99458
99447.6
99457.5
99435.5
99458.3
99447.4
99458.1
99434.9
99458.7
99447.1
99458.6
99434.3
99459.1
99446.8
99459.1
99433.8
99459.5
99446.6
99459.5
99433.3
99460
99446.3
99459.9
99432.8
99460.3
99446.1
99460.4
99432.4
99460.6
99445.8
99460.8
99431.9
99460.9
99445.6
99461.2
99431.5
99461.2
99445.3
99461.6
99431
99461.5
99445.1
99462
99430.5
99461.8
99444.9
99462.3
99430
99462.1
99444.7
99462.7
99429.6
99462.3
99444.5
99463
99429.3
99462.6
99444.3
99463.3
99429
99462.9
99444.1
99463.7
99428.6
99463.1
99443.8
99464
99428.3
99463.3
99443.6
99464.2
99428
99463.6
99443.5
99464.5
99427.7
99463.8
99443.3
99464.7
99427.4
99464
99443.2
99465
99427.2
99464.2
99443
99465.2
99427
99464.4
99442.8
99465.4
99426.7
99464.6
99442.7
99465.6
99426.5
99464.7
99442.6
99465.8
99426.4
99464.9
99442.4
99465.9
99426.2
99465
99442.3
99466.1
99426
99465.2
99442.2
99466.2
99425.9
99465.3
99442.1
99466.3
99425.8
99465.4
99442.1
99466.4
99425.6
99465.5
99442
99466.5
99425.6
99465.6
99441.9
99466.6
99425.5
99465.7
99441.9
99466.6
99425.4
99465.7
99441.8
99466.7
99425.3
99465.8
99441.7
99466.8
99425.3
99465.9
99441.7
99466.8
99425.2
99465.9
99441.7
99466.9
99425.2
99465.9
99441.6
99466.9
99425.1
99466
99441.6
99466.9
99425.1
99466
99441.6
99467
99425.1
99466
99441.6
99467
99425
99466.1
99441.5
99467
99425
99466.1
99441.5
99467
99425
99466.1
99441.5
99467
99425
99466.1
99441.5
99467.1
99424.9
99466.1
99441.5
99467.1
99424.9
99466.1
99441.5
99467.1
99424.9
99466.1
99441.5
99467.1
99424.9
99466.1
99441.5
99467.1
99424.9
99466.1
99441.5
99467.1
99151.8
99153.1
99153.1
99151.4
99151.8
99153.1
99153.1
99151.4
99151.8
99153
99153.1
99151.4
99151.8
99153
99153.1
99151.4
99151.7
99153
99153.2
99151.4
99151.8
99153
99153.2
99151.4
99151.8
99152.9
99153.2
99151.3
99151.7
99152.9
99153.2
99151.3
99151.7
99152.9
99153.2
99151.3
99151.7
99152.9
99153.2
99151.3
99151.7
99152.8
99153.2
99151.2
99151.7
99152.8
99153.2
99151.2
99151.7
99152.8
99153.2
99151.2
99151.7
99152.8
99153.3
99151.2
99151.7
99152.8
99153.3
99151.1
99151.7
99152.8
99153.3
99151.1
99151.7
99152.8
99153.4
99151.1
99151.7
99152.8
99153.4
99151
99151.7
99152.8
99153.4
99151
99151.7
99152.8
99153.5
99151
99151.7
99152.8
99153.6
99151
99151.7
99152.8
99153.6
99151
99151.7
99152.8
99153.6
99151
99151.7
99152.8
99153.6
99151
99151.8
99152.7
99153.6
99150.9
99151.8
99152.7
99153.7
99150.9
99151.8
99152.6
99153.7
99150.9
99151.8
99152.6
99153.7
99150.8
99151.8
99152.7
99153.8
99150.8
99151.8
99152.7
99153.8
99150.8
99151.8
99152.7
99153.8
99150.7
99151.9
99152.8
99153.8
99150.7
99151.9
99152.8
99153.8
99150.7
99151.9
99152.8
99153.8
99150.7
99151.9
99152.8
99153.8
99150.7
99152
99152.7
99153.8
99150.7
99152
99152.7
99153.9
99150.6
99152
99152.7
99153.9
99150.6
99152
99152.7
99154
99150.6
99152
99152.7
99154
99150.6
99152
99152.6
99154
99150.5
99152
99152.6
99154
99150.5
99152.1
99152.6
99154
99150.5
99152.1
99152.6
99154
99150.5
99152.1
99152.6
99154
99150.4
99152.1
99152.6
99154.1
99150.4
99152.1
99152.6
99154
99150.4
99152.1
99152.6
99154.1
99150.4
99152.2
99152.6
99154.1
99150.4
99152.2
99152.6
99154.1
99150.3
99152.2
99152.6
99154.1
99150.3
99152.2
99152.6
99154.1
99150.3
99152.2
99152.6
99154.1
99150.3
99152.2
99152.6
99154.1
99150.3
99152.3
99152.6
99154.2
99150.3
99152.2
99152.6
99154.1
99150.2
99152.3
99152.6
99154.1
99150.2
99152.3
99152.5
99154.1
99150.2
99152.3
99152.6
99154.1
99150.2
99152.3
99152.5
99154.1
99150.2
99152.3
99152.5
99154.2
99150.2
99152.3
99152.5
99154.2
99150.2
99152.3
99152.5
99154.2
99150.2
99152.3
99152.5
99154.2
99150.2
99152.3
99152.5
99154.2
99150.2
99152.3
99152.5
99154.2
99150.2
99152.3
99152.5
99154.2
99150.2
99152.3
99152.5
99154.2
99150.2
99152.3
99152.5
99154.2
99150.2
99152.3
99152.5
99154.2
99150.1
99152.3
99152.5
99154.2
99150.1
99152.3
99152.5
99154.2
99150.1
99152.3
99152.5
99154.2
99150.1
99152.3
99152.5
99154.2
99150.1
99152.3
99152.5
99154.2
99150.1
99152.3
99152.5
99154.2
99150.1
99152.3
99152.5
99154.2
99150.1
99152.3
99152.5
99154.2
99150.1
99152.3
99152.5
99154.2
99150.1
)
;

boundaryField
{
    leftWall
    {
        type            calculated;
        value           nonuniform List<scalar> 
16
(
100000
99735.6
99455.8
99150.3
99977.6
99730.2
99439.6
99154.6
99989
99736.6
99455.9
99150.2
99969.7
99729.7
99439.6
99153.8
)
;
    }
    rightWall
    {
        type            calculated;
        value           nonuniform List<scalar> 
16
(
99978.7
99730.1
99424.9
99152.3
99976
99739.2
99466.1
99152.5
99980.2
99722.6
99441.5
99154.2
99985.9
99738.6
99467.1
99150.1
)
;
    }
    leftSides_periodic0
    {
        type            cyclic;
    }
    leftSides_periodic1
    {
        type            cyclic;
    }
    rightSides_periodic0
    {
        type            cyclic;
    }
    rightSides_periodic1
    {
        type            cyclic;
    }
    leftInOut_periodic0
    {
        type            cyclic;
    }
    leftInOut_periodic1
    {
        type            cyclic;
    }
    rightInOut_periodic0
    {
        type            cyclic;
    }
    rightInOut_periodic1
    {
        type            cyclic;
    }
}


// ************************************************************************* //
