/*--------------------------------*- C++ -*----------------------------------*\
| =========                 |                                                 |
| \\      /  F ield         | OpenFOAM: The Open Source CFD Toolbox           |
|  \\    /   O peration     | Version:  v1912                                 |
|   \\  /    A nd           | Website:  www.openfoam.com                      |
|    \\/     M anipulation  |                                                 |
\*---------------------------------------------------------------------------*/
FoamFile
{
    version     2.0;
    format      ascii;
    class       volScalarField;
    location    "99.6";
    object      turbulenceProperties:I;
}
// * * * * * * * * * * * * * * * * * * * * * * * * * * * * * * * * * * * * * //

dimensions      [0 0 0 0 0 0 0];


internalField   nonuniform List<scalar> 
2528
(
0.151308
0.156841
0.151619
0.155815
0.0299258
0.0288429
0.0298966
0.0278764
0.0362867
0.0329156
0.0364064
0.0305225
0.0481551
0.0440814
0.0484428
0.040489
0.0594484
0.0550137
0.0599066
0.0502612
0.0695822
0.065041
0.070152
0.0591625
0.0783635
0.0739331
0.0789502
0.0670092
0.0856672
0.0815225
0.0861638
0.0736943
0.0914395
0.0877066
0.0917563
0.0791631
0.0957383
0.0924831
0.0958053
0.0834271
0.0987245
0.0959492
0.0984938
0.0865712
0.100618
0.0982782
0.100055
0.0887316
0.101653
0.0996757
0.100728
0.0900743
0.102045
0.10035
0.100727
0.090764
0.101969
0.100489
0.100235
0.0909671
0.101563
0.100248
0.0993856
0.0908069
0.100928
0.0997432
0.0982772
0.0903759
0.100136
0.0990605
0.0969799
0.0897451
0.0992422
0.0982658
0.0955457
0.0889696
0.0982859
0.0974043
0.0940114
0.0880922
0.0972933
0.0965046
0.0924024
0.0871445
0.0962817
0.0955865
0.09074
0.0861517
0.0952612
0.0946602
0.0890489
0.085131
0.0942403
0.0937299
0.0873549
0.084095
0.0932227
0.0927995
0.0856799
0.0830523
0.0922116
0.0918685
0.0840258
0.0820082
0.0912087
0.0909369
0.0823713
0.0809663
0.0902149
0.0900044
0.080696
0.0799265
0.0892313
0.0890697
0.0790107
0.0788884
0.0882598
0.0881329
0.0773601
0.077851
0.0873032
0.0871931
0.0757617
0.0768125
0.0863661
0.0862466
0.0742189
0.0757719
0.0854532
0.0852905
0.0727367
0.0747278
0.0845716
0.0843225
0.0713216
0.0736805
0.0837279
0.0833444
0.0699803
0.0726287
0.0829295
0.082359
0.0687181
0.0715724
0.0821793
0.0813683
0.0675394
0.0705116
0.0814768
0.0803682
0.0664604
0.0694474
0.08083
0.0793444
0.0654432
0.0683783
0.0802548
0.0782729
0.0642813
0.0672982
0.0796343
0.0771342
0.0626072
0.0661929
0.0785898
0.0759332
0.0604322
0.0650526
0.0766502
0.0747114
0.0584526
0.0638875
0.0742097
0.0735214
0.0567481
0.0627169
0.0721641
0.0723865
0.0552042
0.0615475
0.0704491
0.0712949
0.0537815
0.0603768
0.0689094
0.0702336
0.0524522
0.0592059
0.0675104
0.0691982
0.0511979
0.0580364
0.066216
0.0681875
0.0500088
0.0568715
0.0650144
0.0672004
0.0488792
0.0557152
0.0638979
0.0662315
0.0478044
0.0545741
0.0628595
0.0652717
0.0467775
0.0534562
0.0618936
0.0643095
0.0457902
0.0523691
0.0609972
0.0633433
0.0448329
0.0513187
0.0601696
0.0623976
0.0438941
0.0503116
0.0594134
0.0613989
0.0429613
0.0493541
0.0587338
0.0600685
0.0420232
0.0484529
0.0581366
0.0582115
0.0410755
0.0476142
0.057627
0.0563981
0.0401233
0.0468462
0.0572086
0.0548871
0.0391769
0.0461575
0.0568846
0.0535648
0.0382479
0.0455547
0.0566576
0.0523502
0.0373457
0.0450441
0.0565292
0.0512233
0.0364785
0.0446307
0.0565006
0.0501729
0.0356529
0.0443187
0.0565721
0.0491962
0.034873
0.0441116
0.0567426
0.0482922
0.0341413
0.0440107
0.057011
0.0474629
0.03346
0.0440166
0.0573748
0.0467154
0.0328282
0.0441277
0.0578309
0.0460606
0.0322436
0.0443408
0.0583757
0.04551
0.0317027
0.0446516
0.0590055
0.0450714
0.031204
0.0450539
0.0597157
0.0447486
0.0307477
0.0455407
0.0605013
0.0445433
0.0303338
0.0461039
0.0613576
0.0444562
0.0299623
0.0467344
0.0622803
0.0444862
0.029633
0.0474234
0.0632635
0.0446321
0.029347
0.0481615
0.0643017
0.0448931
0.0291062
0.0489413
0.0653874
0.0452698
0.0289128
0.0497564
0.0665083
0.0457612
0.0287663
0.050599
0.155331
0.14908
0.148706
0.149077
0.0449009
0.0313091
0.0295839
0.0288142
0.059563
0.0396839
0.0361745
0.0347923
0.0750778
0.0523647
0.0474915
0.0456863
0.0886647
0.0640693
0.0579477
0.0558415
0.100172
0.0744926
0.0672137
0.0649626
0.109912
0.0835942
0.0752566
0.0730555
0.118107
0.0913167
0.0820412
0.0801114
0.124864
0.0976095
0.087541
0.0861028
0.13022
0.102483
0.0917752
0.0910147
0.134214
0.106032
0.0948281
0.0948691
0.136922
0.108424
0.0968423
0.097736
0.138469
0.109857
0.0979877
0.0997234
0.139019
0.110531
0.0984282
0.100961
0.138755
0.110615
0.0983436
0.101579
0.137834
0.110257
0.0978715
0.101696
0.136427
0.109572
0.0971124
0.101434
0.134662
0.108644
0.0961412
0.100877
0.132634
0.107533
0.0950163
0.100091
0.130411
0.106284
0.0937808
0.0991234
0.128048
0.104935
0.0924688
0.0980154
0.125587
0.103509
0.0911063
0.0967956
0.123056
0.102029
0.0897133
0.0954881
0.12048
0.100509
0.0883055
0.094112
0.117879
0.0989625
0.0868951
0.092681
0.115273
0.097399
0.085493
0.0912084
0.112679
0.0958269
0.0841054
0.0897037
0.110113
0.0942543
0.0827361
0.0881745
0.107577
0.0926874
0.0813845
0.0866289
0.105071
0.0911322
0.0800517
0.0850713
0.102583
0.0895934
0.0787389
0.083509
0.1001
0.088075
0.0774498
0.0819472
0.0976143
0.086579
0.0761893
0.0803917
0.0951302
0.0851068
0.0749621
0.078848
0.0926766
0.083658
0.0737724
0.07732
0.090306
0.0822267
0.0726273
0.0758112
0.0880822
0.0808012
0.071536
0.0743219
0.0860461
0.0793642
0.0705105
0.0728504
0.0841982
0.0778989
0.0695605
0.0713861
0.0825268
0.0764011
0.0686903
0.0699108
0.0810076
0.0748898
0.0678958
0.0684003
0.0795668
0.0733937
0.0671688
0.0668318
0.078068
0.0719323
0.0664945
0.0652082
0.0764065
0.070512
0.0658588
0.0635627
0.0746569
0.0691303
0.0652524
0.0619337
0.0730245
0.0677875
0.0646735
0.0603427
0.071596
0.0664917
0.0641223
0.0588004
0.0703357
0.0652611
0.0635994
0.0573134
0.0692097
0.0641068
0.0631038
0.0558834
0.0682072
0.0630238
0.062635
0.0545071
0.0673209
0.0619832
0.062194
0.0531732
0.0665539
0.060916
0.0617825
0.0518617
0.0659077
0.0597241
0.0613993
0.0505534
0.0652812
0.0583777
0.0610166
0.0492451
0.0643969
0.0570168
0.0605378
0.0479561
0.0628509
0.0558207
0.0597732
0.0467144
0.0606235
0.0547738
0.0585417
0.0455297
0.0583312
0.0538225
0.0569638
0.0443887
0.0564448
0.052945
0.0554224
0.0432751
0.0548351
0.0521274
0.054121
0.0421828
0.0533462
0.0513645
0.0529806
0.0411107
0.0519456
0.050657
0.0519181
0.0400585
0.0506141
0.0500068
0.050915
0.0390255
0.0493422
0.0494213
0.0499604
0.0380106
0.0481254
0.048915
0.0490493
0.0370133
0.046967
0.0484345
0.0481789
0.0360352
0.0458677
0.0477742
0.0473502
0.0350831
0.0448243
0.0465719
0.0465711
0.0341673
0.0438331
0.0449355
0.0457986
0.0332986
0.0428917
0.0435671
0.0449613
0.0324891
0.0419973
0.0424371
0.0440906
0.031758
0.0411501
0.0413928
0.0432926
0.0311329
0.0403504
0.0403931
0.042575
0.0306465
0.0396025
0.0394271
0.041922
0.0303318
0.0389145
0.0385001
0.0413413
0.0302167
0.0383006
0.0376161
0.0408441
0.0303204
0.0377824
0.0367843
0.0404442
0.0306512
0.0373911
0.0360175
0.0401568
0.0312067
0.0371649
0.0353313
0.039994
0.0319749
0.142545
0.141897
0.141566
0.142938
0.0308387
0.0281551
0.0286762
0.0286093
0.0389807
0.0336776
0.0346754
0.0342799
0.0518366
0.0450661
0.0460976
0.0457241
0.0635369
0.0556336
0.0567055
0.0563167
0.0737808
0.0651326
0.0662203
0.0657786
0.0824406
0.0735096
0.0745545
0.0740544
0.0894184
0.0806745
0.0816099
0.0810791
0.0947103
0.0865518
0.0873269
0.0868113
0.0984346
0.0911284
0.091722
0.0912675
0.100804
0.0944707
0.0948943
0.0945333
0.102061
0.096707
0.0969965
0.0967429
0.102473
0.0979972
0.0981996
0.0980523
0.102283
0.0985503
0.0987295
0.0986515
0.10166
0.0985568
0.098761
0.0987187
0.100729
0.0981567
0.0984219
0.0983857
0.0995767
0.0974538
0.0978069
0.0977508
0.0982706
0.0965247
0.0969873
0.0968876
0.0968589
0.0954289
0.0960152
0.0958521
0.0953813
0.0942119
0.0949307
0.0946854
0.093869
0.0929088
0.0937602
0.0934207
0.0923483
0.0915473
0.0925272
0.0920809
0.0908314
0.0901498
0.0912581
0.090688
0.0893162
0.0887267
0.0899902
0.0892618
0.0877912
0.0872866
0.0887643
0.0878246
0.0862575
0.0858411
0.0876026
0.0863927
0.0847516
0.0844237
0.0864825
0.0849681
0.0833305
0.0830808
0.0853402
0.0835418
0.0820248
0.0818435
0.0841064
0.0821115
0.0808187
0.0807123
0.082765
0.0807045
0.0796948
0.0796864
0.0813851
0.0793642
0.0786538
0.078777
0.0800701
0.0781068
0.0776894
0.0779959
0.0788572
0.0769286
0.0767525
0.0773506
0.0777229
0.0758396
0.0756921
0.0768474
0.0766338
0.0748568
0.0743292
0.0764867
0.0755798
0.0739933
0.0727584
0.0762186
0.0745593
0.0732594
0.0713401
0.0758594
0.0735684
0.0726617
0.0701682
0.0749563
0.072602
0.0721925
0.069095
0.0732314
0.0716563
0.0717703
0.0680467
0.0712333
0.0707284
0.0711426
0.0670367
0.0695848
0.0698177
0.0697545
0.0660701
0.0682403
0.0689258
0.0674424
0.0651434
0.067022
0.0680556
0.0652257
0.064253
0.0658963
0.067213
0.0635511
0.0633939
0.0648762
0.0664074
0.0620889
0.0625631
0.0639532
0.0656491
0.0606644
0.0617584
0.0631099
0.0649508
0.0593191
0.0609791
0.0623281
0.0643257
0.0580706
0.0602262
0.0615924
0.0637863
0.0569167
0.0595018
0.0608912
0.0633442
0.0558479
0.0588091
0.060215
0.0630083
0.0548552
0.0581532
0.0595571
0.0627821
0.0539294
0.0575397
0.0589129
0.0626123
0.0530603
0.0569753
0.058277
0.0623059
0.0522389
0.0564668
0.0576451
0.0612328
0.0514593
0.05602
0.0570151
0.0586784
0.0507188
0.0556408
0.0563853
0.0561779
0.0500165
0.0553355
0.0557557
0.0544813
0.0493538
0.0551106
0.0551257
0.053089
0.0487329
0.0549722
0.054495
0.0517296
0.0481561
0.0549247
0.0538632
0.0504482
0.0476275
0.0549722
0.0532295
0.0492589
0.0471506
0.0551175
0.0525923
0.048152
0.0467297
0.0553622
0.0519501
0.0471158
0.0463689
0.0557073
0.0513046
0.0461396
0.0460722
0.056152
0.0506619
0.0452153
0.0458429
0.0566959
0.0500336
0.0443367
0.0456842
0.0573377
0.0494299
0.0435001
0.0455985
0.0580754
0.0488564
0.0427026
0.0455878
0.0589074
0.0483207
0.041942
0.045654
0.0598328
0.0478325
0.0412147
0.0457979
0.0608512
0.0474032
0.0405218
0.0460211
0.0619629
0.047044
0.0398646
0.0463256
0.0631681
0.0467673
0.0392415
0.0467135
0.064454
0.0465865
0.0386522
0.0471884
0.0658095
0.0465157
0.038098
0.0477536
0.0672421
0.0465698
0.0375823
0.0484121
0.0687697
0.0467698
0.0371137
0.0491695
0.142278
0.146452
0.146762
0.146055
0.0223374
0.0266116
0.0281037
0.0256781
0.0170783
0.0295282
0.0326163
0.0260504
0.0217162
0.0395381
0.0436409
0.034326
0.02709
0.04936
0.0542499
0.0426764
0.032292
0.058418
0.0638562
0.0504766
0.037162
0.0665311
0.0722479
0.0575824
0.0416218
0.0735583
0.0792846
0.0638963
0.0456151
0.0794067
0.0849109
0.0693441
0.0491039
0.0840581
0.0891789
0.0738864
0.0520722
0.0875813
0.0922315
0.0775273
0.0545267
0.0901059
0.0942637
0.080316
0.0564944
0.0917929
0.0954786
0.0823365
0.0580193
0.0928002
0.096063
0.083692
0.0591564
0.0932993
0.0961847
0.0844878
0.0599662
0.093419
0.0959649
0.084836
0.0605069
0.093254
0.0954933
0.0848384
0.0608348
0.0928774
0.094837
0.0845728
0.0609992
0.092345
0.0940472
0.0841002
0.0610422
0.0916996
0.0931622
0.0834676
0.0609998
0.0909752
0.0922113
0.0827139
0.0609029
0.0901978
0.0912172
0.0818698
0.0607751
0.0893886
0.0901957
0.0809597
0.0606355
0.0885644
0.0891566
0.0800033
0.0604991
0.0877359
0.0881066
0.0790155
0.0603762
0.0869095
0.0870488
0.0780089
0.0602732
0.0860874
0.0859846
0.0769928
0.0601918
0.0852682
0.0849165
0.0759736
0.0601314
0.0844506
0.0838465
0.0749541
0.0600901
0.0836349
0.0827756
0.0739343
0.060067
0.0828194
0.0817046
0.0729119
0.0600608
0.0820035
0.0806308
0.0718865
0.0600719
0.0811873
0.0795531
0.0708561
0.060103
0.0803712
0.0784689
0.0698202
0.0601581
0.0795562
0.0773762
0.0687782
0.0602403
0.078745
0.0762721
0.0677302
0.0603452
0.0779407
0.0751546
0.0666786
0.0604571
0.0771483
0.0740196
0.065627
0.0605541
0.0763722
0.0728625
0.0645817
0.0606129
0.0756136
0.0716779
0.0635518
0.06061
0.0748674
0.0704615
0.0625498
0.060525
0.0741239
0.0692137
0.0615884
0.0603485
0.0733753
0.0679414
0.0606723
0.0600912
0.0726159
0.0666507
0.0597905
0.0597805
0.0718419
0.0653455
0.0589265
0.0594424
0.0710506
0.0640284
0.058067
0.0590959
0.0702409
0.0627019
0.0572036
0.0587566
0.0694121
0.0613672
0.0563301
0.0584378
0.0685635
0.0600269
0.0554438
0.058153
0.0676944
0.0586849
0.0545435
0.0579149
0.0668045
0.0573458
0.0536295
0.0577355
0.0658928
0.056016
0.0527035
0.0576202
0.0649584
0.0547029
0.0517674
0.057538
0.0639999
0.0534157
0.050823
0.0573674
0.0630165
0.0521668
0.0498723
0.0567986
0.0620068
0.05097
0.0489184
0.0555212
0.0609703
0.049835
0.0479641
0.0538658
0.0599085
0.0487548
0.0470132
0.052425
0.0588277
0.0477177
0.04607
0.0512313
0.057737
0.0467165
0.0451381
0.0501271
0.0566423
0.0457473
0.0442203
0.0490623
0.0555496
0.0448082
0.0433188
0.0480429
0.0544627
0.0438988
0.0424367
0.0470535
0.0533852
0.0430209
0.0415767
0.0460764
0.0523201
0.0421776
0.0407406
0.0450972
0.0512688
0.0413734
0.0399299
0.0441054
0.0502323
0.0406137
0.0391455
0.0430922
0.0492123
0.0399067
0.0383896
0.0420501
0.0482096
0.0392621
0.0376669
0.0409721
0.0472248
0.0386883
0.0369833
0.0398547
0.0462589
0.0381943
0.0363462
0.0386999
0.0453121
0.0377887
0.0357647
0.037514
0.0443849
0.03748
0.0352482
0.0362831
0.0434785
0.0372759
0.0348084
0.0349076
0.0425941
0.0371822
0.0344597
0.0331975
0.0417349
0.0372034
0.0342195
0.0310897
0.0409061
0.0373417
0.0341102
0.0287419
0.0401166
0.0375968
0.034157
0.026218
0.0393809
0.0379673
0.0343859
0.0676412
0.0463656
0.0286621
0.0514576
0.0687675
0.0470806
0.0285919
0.0523247
0.0698833
0.0478932
0.0285444
0.0532071
0.0709899
0.0488023
0.0285132
0.0541153
0.0720815
0.0498209
0.0284963
0.0550511
0.0731517
0.0509585
0.0284938
0.0560139
0.0741961
0.0522233
0.0285059
0.0570094
0.0752117
0.0536199
0.0285312
0.0580459
0.0761951
0.0551509
0.0285687
0.0591322
0.0771423
0.0568151
0.0286169
0.0602788
0.0780487
0.0586525
0.0286748
0.061496
0.0789096
0.0607454
0.0287432
0.062795
0.0797208
0.0633169
0.0288252
0.0641858
0.0804821
0.0659614
0.0289312
0.065677
0.0811961
0.0666505
0.0290761
0.0672739
0.081868
0.0662049
0.0292712
0.0689838
0.082502
0.0656313
0.0295195
0.0708556
0.0831033
0.0651097
0.0298238
0.0729939
0.0836758
0.0646671
0.0301897
0.0755847
0.0842242
0.0643174
0.0306304
0.078078
0.0847516
0.0640789
0.0311539
0.0785381
0.0852619
0.0639598
0.0317595
0.0781954
0.0857588
0.0639594
0.0324421
0.0777823
0.0862461
0.0640737
0.0331885
0.0773983
0.0867276
0.0642963
0.0339809
0.0770401
0.0872074
0.0646194
0.0348095
0.0767269
0.0876898
0.0650346
0.0356713
0.0764855
0.0881796
0.0655339
0.0365644
0.0763295
0.0886829
0.0661087
0.0374888
0.0762648
0.0892057
0.0667525
0.0384473
0.0762944
0.0897568
0.0674585
0.0394435
0.0764188
0.0903457
0.0682222
0.0404813
0.0766361
0.090993
0.0690394
0.041565
0.0769449
0.0917329
0.0699078
0.042698
0.0773434
0.0925697
0.0708261
0.043883
0.0778302
0.0934397
0.0717941
0.0451215
0.0784037
0.0941729
0.0728148
0.0464148
0.0790637
0.0947011
0.0738898
0.0477656
0.0798112
0.0951569
0.075024
0.0491773
0.0806474
0.0956889
0.0762223
0.0506525
0.0815736
0.096366
0.0774923
0.0521928
0.082594
0.0971761
0.0788445
0.0538
0.0837119
0.0980839
0.0802906
0.0554759
0.0849333
0.0990191
0.0818466
0.0572222
0.0862665
0.0999052
0.0835367
0.0590411
0.0877229
0.100728
0.085389
0.0609391
0.0893162
0.101525
0.0874323
0.0629286
0.0910683
0.102336
0.0896533
0.0650197
0.0930077
0.103181
0.091891
0.067209
0.0951668
0.104061
0.0939044
0.0694832
0.0975418
0.104955
0.0956841
0.0718315
0.0999915
0.105843
0.097395
0.0742507
0.102336
0.106688
0.0991943
0.0767418
0.104543
0.107458
0.101153
0.0793036
0.106708
0.10813
0.103262
0.0819333
0.10894
0.108672
0.105499
0.0846271
0.11129
0.109054
0.107803
0.0873827
0.113734
0.109232
0.110109
0.0901901
0.116212
0.109155
0.11236
0.0930354
0.118656
0.108756
0.114508
0.0958959
0.121009
0.107943
0.1165
0.0987416
0.12321
0.106614
0.118262
0.10153
0.12518
0.104701
0.119695
0.104201
0.126812
0.102151
0.120661
0.10667
0.127962
0.0989455
0.120971
0.108814
0.128423
0.0951028
0.120355
0.110461
0.12791
0.0906777
0.118576
0.111364
0.126171
0.0857493
0.115413
0.111137
0.122967
0.0804014
0.110743
0.109381
0.118167
0.0747012
0.104593
0.105776
0.111793
0.0686819
0.097139
0.100163
0.104021
0.0623365
0.088621
0.0926393
0.0950887
0.0556171
0.0792375
0.0834981
0.0851869
0.0484525
0.0690796
0.0730582
0.0744014
0.0407843
0.0581443
0.061544
0.0627244
0.0326569
0.0464221
0.0491388
0.0501468
0.0246124
0.0342505
0.0363799
0.0370051
0.0219156
0.0268575
0.0280822
0.0282698
0.13671
0.138831
0.14424
0.13787
0.037148
0.0347483
0.0399655
0.0329271
0.0373787
0.0342928
0.0400739
0.0340177
0.0378843
0.0339841
0.0403141
0.0352069
0.0386799
0.0338353
0.0406769
0.0364748
0.0397629
0.0338547
0.0411501
0.0378017
0.0411172
0.0340477
0.0417206
0.0391709
0.0427165
0.0344145
0.0423758
0.0405671
0.0445197
0.034952
0.0431044
0.0419774
0.0464757
0.0356504
0.0438953
0.0433911
0.0485263
0.036496
0.0447361
0.0447993
0.0506088
0.0374779
0.0456149
0.046196
0.0526581
0.0385854
0.0465247
0.0475773
0.0545747
0.0398052
0.0474614
0.0489431
0.0562746
0.0411169
0.0484232
0.0502931
0.0577683
0.0424855
0.0494088
0.0516264
0.0591032
0.0438865
0.0504189
0.0529459
0.0603261
0.0453143
0.0514545
0.0542611
0.0614713
0.0467639
0.0525197
0.0555824
0.0625633
0.0482275
0.0536217
0.0569197
0.0636168
0.049697
0.0547719
0.0582825
0.064639
0.0511646
0.0559816
0.0596631
0.0656338
0.0526242
0.0573599
0.0610133
0.0666008
0.0540707
0.059071
0.0622885
0.067538
0.0555002
0.060946
0.0634905
0.0684429
0.0569099
0.0624806
0.0646368
0.0693094
0.0582973
0.0635403
0.0657382
0.0701319
0.0596597
0.064345
0.0667989
0.0709026
0.0609938
0.0650892
0.0678209
0.0716127
0.0622975
0.0658507
0.0688076
0.0722566
0.0635668
0.0666419
0.0697601
0.0728357
0.0647933
0.0674599
0.0706814
0.0733563
0.065973
0.068306
0.0715731
0.0738276
0.0671141
0.0691809
0.0724355
0.07426
0.0682272
0.0700869
0.0732704
0.0746646
0.06932
0.0710257
0.0740783
0.0750523
0.0703977
0.0719914
0.0748612
0.0754295
0.0714647
0.0729761
0.0756197
0.0758015
0.072525
0.0739786
0.0763558
0.07617
0.073581
0.0750022
0.0770705
0.0765364
0.0746356
0.076049
0.0777656
0.0769046
0.0756905
0.0771178
0.0784431
0.0772788
0.0767479
0.0782071
0.0791039
0.0776646
0.0778104
0.0793156
0.0797503
0.0780676
0.0788805
0.0804429
0.0803834
0.0784937
0.0799619
0.0815878
0.0810059
0.0789456
0.0810581
0.0827504
0.0816192
0.079427
0.0821733
0.0839286
0.0822265
0.0799386
0.0833097
0.0851205
0.0828298
0.0804814
0.0844714
0.0863235
0.0834314
0.0810553
0.0856622
0.0875366
0.084032
0.0816599
0.0868808
0.0887585
0.0846311
0.0822918
0.0881211
0.0899876
0.0852244
0.0829455
0.0893741
0.0912213
0.0858044
0.0836136
0.0906281
0.092453
0.0863554
0.0842831
0.0918713
0.0936733
0.0868586
0.0849337
0.0930875
0.0948683
0.0872907
0.0855357
0.0942581
0.0960191
0.0876243
0.0860514
0.0953581
0.0971001
0.0878265
0.0864291
0.0963557
0.0980788
0.087857
0.0866111
0.0972082
0.0989134
0.0876652
0.08653
0.0978601
0.0995489
0.0871883
0.0861041
0.0982397
0.099915
0.0863494
0.0852343
0.0982534
0.0999199
0.0850434
0.0837851
0.0977802
0.099444
0.0831739
0.0816573
0.0966539
0.0983219
0.0806649
0.0787717
0.0946949
0.0963739
0.0774694
0.0750956
0.091757
0.0934535
0.0735825
0.0706623
0.0877404
0.0894592
0.0690531
0.065574
0.0826375
0.0843765
0.0639797
0.0599848
0.0765525
0.0782998
0.0584931
0.0540637
0.0696836
0.0714154
0.0527272
0.0479538
0.0622629
0.0639433
0.0467935
0.0417514
0.0544889
0.0560747
0.040766
0.0355055
0.0464895
0.0479366
0.0346818
0.0292389
0.0383306
0.0396016
0.0285578
0.0230262
0.0300888
0.0311616
0.022462
0.0175506
0.022312
0.0231838
0.0170745
0.0210212
0.0223636
0.0228818
0.0206243
0.147027
0.143596
0.146031
0.142774
0.0704011
0.0471357
0.0367085
0.0500209
0.072126
0.0476716
0.0363759
0.0509418
0.0739277
0.0483555
0.0361118
0.0519018
0.0758126
0.0491628
0.0359069
0.0528865
0.0777985
0.0500895
0.0357546
0.0538915
0.0799083
0.0511405
0.0356487
0.0549197
0.0821661
0.0523213
0.035584
0.0559769
0.0845923
0.0536408
0.035557
0.0570685
0.0871691
0.0551093
0.0355653
0.0581991
0.0898213
0.0567202
0.0356083
0.0593739
0.0929556
0.0584324
0.035687
0.0605987
0.0975728
0.0605021
0.0358043
0.0618807
0.103391
0.0636321
0.0359654
0.0632282
0.107208
0.067561
0.0361782
0.0646486
0.108415
0.0696601
0.0364535
0.0661519
0.108621
0.07018
0.0368037
0.0677497
0.108634
0.0702148
0.037239
0.0694429
0.108752
0.0701694
0.0377617
0.0712022
0.109059
0.0702015
0.0383781
0.073164
0.109554
0.0703512
0.0391061
0.0758487
0.110237
0.0706192
0.0399642
0.0796253
0.111103
0.0710065
0.0409583
0.0830731
0.112149
0.0715135
0.0420712
0.0847374
0.113369
0.0721415
0.0434227
0.0853289
0.114735
0.0728906
0.0454276
0.0855752
0.116184
0.073759
0.0480667
0.0857599
0.117823
0.0747254
0.0497489
0.0859895
0.119993
0.0757731
0.0503586
0.0862884
0.122638
0.0770657
0.0506178
0.0866583
0.124869
0.0788607
0.0508614
0.0870971
0.126206
0.0807332
0.0512077
0.087599
0.126997
0.0819461
0.0516865
0.0881582
0.127652
0.0826597
0.0522993
0.0887691
0.128334
0.0832348
0.0530423
0.0894264
0.129086
0.0838239
0.0539072
0.0901244
0.129894
0.0844759
0.0548836
0.0908573
0.130747
0.0851947
0.0559596
0.0916207
0.131631
0.0859783
0.0571235
0.0924087
0.132533
0.0868218
0.0583652
0.0932177
0.133438
0.0877189
0.0596761
0.0940432
0.134333
0.0886629
0.0610496
0.0948836
0.135201
0.0896462
0.0624821
0.0957362
0.136035
0.0906618
0.0639708
0.0965997
0.136822
0.0917025
0.0655124
0.0974717
0.137553
0.0927633
0.0671037
0.0983507
0.138217
0.0938389
0.068772
0.0992337
0.138806
0.0949242
0.070557
0.10012
0.139307
0.0960161
0.0724199
0.101005
0.139714
0.0971118
0.074264
0.101889
0.140012
0.0982078
0.0760381
0.102767
0.140191
0.0993027
0.0777748
0.103638
0.140238
0.100393
0.0795393
0.104498
0.140139
0.101477
0.0813764
0.105343
0.139873
0.102551
0.083291
0.106166
0.139422
0.103611
0.0852618
0.106965
0.138759
0.104652
0.087263
0.107732
0.137854
0.105663
0.0892777
0.108456
0.136671
0.10663
0.0912949
0.10912
0.135166
0.107528
0.0933003
0.109699
0.133286
0.108326
0.0952713
0.110156
0.130968
0.108973
0.0971756
0.110435
0.128142
0.109396
0.0989661
0.110461
0.124733
0.109496
0.10058
0.110126
0.120668
0.109141
0.101929
0.109291
0.115893
0.108151
0.102892
0.107775
0.110384
0.106325
0.103301
0.105413
0.104164
0.103478
0.102918
0.102046
0.0973066
0.0994518
0.101403
0.0975604
0.08993
0.0941676
0.0984277
0.0919285
0.0821768
0.0876811
0.0937794
0.0852488
0.0741878
0.0801908
0.087415
0.0777365
0.0660788
0.0719869
0.0795417
0.06966
0.0579231
0.0633497
0.070555
0.0612565
0.0497422
0.0544664
0.0608599
0.0526692
0.0414967
0.0453926
0.0507121
0.0439236
0.0331035
0.0360716
0.0401912
0.0349483
0.0248885
0.0267251
0.0295516
0.025986
0.0253841
0.025286
0.0256502
0.0251626
0.152771
0.149955
0.150271
0.150119
0.0234348
0.0387254
0.0384465
0.0348169
0.0203832
0.0381781
0.0390176
0.0354445
0.0171231
0.0377575
0.0396588
0.0362446
0.0136402
0.0374776
0.040356
0.0371912
0.00982814
0.0373532
0.0410984
0.0382551
0.00551829
0.0373975
0.0418776
0.0394137
0.00253346
0.0376196
0.0426863
0.0406508
0.00560473
0.0380233
0.043519
0.0419531
0.00555048
0.0386067
0.0443713
0.0433091
0.00565093
0.0393558
0.0452403
0.0447093
0.00584608
0.0402498
0.0461228
0.0461452
0.00197404
0.0412667
0.0470172
0.0476088
0.0115861
0.042387
0.047922
0.0490928
0.0183603
0.0435853
0.0488364
0.0505918
0.0239471
0.0448312
0.0497601
0.0521005
0.0286597
0.0460967
0.0506932
0.0536159
0.0327364
0.0473572
0.0516359
0.0551248
0.0363447
0.0486
0.052589
0.0566087
0.0396045
0.0498281
0.0535531
0.0580905
0.0426057
0.0510489
0.0545296
0.0595936
0.0454171
0.0522686
0.0555203
0.0610454
0.04809
0.0534913
0.0565273
0.0623615
0.0506573
0.054721
0.0575545
0.0635582
0.0531588
0.0559611
0.058607
0.0647254
0.0556433
0.0572166
0.0596911
0.0659172
0.0581311
0.0584917
0.060817
0.0671519
0.0606115
0.0597921
0.0619971
0.0684295
0.0630668
0.0611226
0.0632362
0.0697486
0.0655221
0.0624892
0.0645292
0.0711068
0.0680216
0.0638991
0.0658701
0.0725042
0.0705871
0.0653591
0.0672518
0.0739454
0.0732496
0.0668733
0.068669
0.0754346
0.076029
0.0684414
0.0701166
0.076976
0.0789066
0.0700607
0.0715898
0.0785716
0.081842
0.071734
0.0730848
0.0802374
0.0847984
0.0734752
0.0746168
0.082004
0.0877533
0.0752895
0.076218
0.0838825
0.0907028
0.0771635
0.0778925
0.0858527
0.0936551
0.079072
0.0796135
0.087867
0.0966261
0.0809958
0.0813426
0.0898812
0.099629
0.0829283
0.0830579
0.0918761
0.10267
0.0848747
0.0847595
0.0938571
0.105751
0.0868441
0.0864593
0.0958438
0.108871
0.088844
0.0881683
0.0978571
0.112028
0.090879
0.0898933
0.0999098
0.11522
0.0929496
0.0916364
0.102009
0.118446
0.0950539
0.0933981
0.104151
0.121712
0.0971876
0.0951797
0.106332
0.125016
0.0993417
0.0969825
0.108544
0.128358
0.101508
0.0988071
0.110778
0.131737
0.103681
0.100651
0.113022
0.135151
0.105859
0.10251
0.115262
0.138602
0.108042
0.104379
0.117487
0.142085
0.110227
0.106251
0.11969
0.145576
0.112411
0.108119
0.121853
0.149048
0.114584
0.109974
0.123956
0.152465
0.116735
0.111804
0.125972
0.155786
0.11884
0.113591
0.127862
0.158955
0.120869
0.115305
0.129576
0.1619
0.122778
0.116912
0.131054
0.164518
0.124514
0.118359
0.132206
0.166671
0.126001
0.11958
0.132926
0.168239
0.127137
0.12048
0.133059
0.169081
0.127781
0.12093
0.132477
0.169053
0.127729
0.120754
0.131033
0.168035
0.126774
0.119728
0.128596
0.16595
0.124701
0.117646
0.125088
0.162785
0.121326
0.114305
0.120505
0.158562
0.116553
0.109582
0.114924
0.153307
0.110423
0.103487
0.108479
0.147002
0.103096
0.0961763
0.101305
0.139562
0.0947811
0.0878947
0.0934878
0.130826
0.0856418
0.0788712
0.0850356
0.120517
0.0757328
0.0692255
0.0758684
0.108142
0.0649878
0.0589352
0.0658156
0.0926929
0.0532307
0.0478488
0.0546032
0.0722021
0.0404213
0.0359533
0.0420436
0.0494313
0.0315827
0.0288883
0.0329226
0.150501
0.154136
0.149803
0.156585
)
;

boundaryField
{
    leftWall
    {
        type            calculated;
        value           uniform 1;
    }
    rightWall
    {
        type            calculated;
        value           uniform 1;
    }
    leftSides_periodic0
    {
        type            cyclic;
    }
    leftSides_periodic1
    {
        type            cyclic;
    }
    rightSides_periodic0
    {
        type            cyclic;
    }
    rightSides_periodic1
    {
        type            cyclic;
    }
    leftInOut_periodic0
    {
        type            cyclic;
    }
    leftInOut_periodic1
    {
        type            cyclic;
    }
    rightInOut_periodic0
    {
        type            cyclic;
    }
    rightInOut_periodic1
    {
        type            cyclic;
    }
}


// ************************************************************************* //
