/*--------------------------------*- C++ -*----------------------------------*\
| =========                 |                                                 |
| \\      /  F ield         | OpenFOAM: The Open Source CFD Toolbox           |
|  \\    /   O peration     | Version:  v1912                                 |
|   \\  /    A nd           | Website:  www.openfoam.com                      |
|    \\/     M anipulation  |                                                 |
\*---------------------------------------------------------------------------*/
FoamFile
{
    version     2.0;
    format      ascii;
    class       volVectorField;
    location    "99.6";
    object      UMean;
}
// * * * * * * * * * * * * * * * * * * * * * * * * * * * * * * * * * * * * * //

dimensions      [0 1 -1 0 0 0 0];


internalField   nonuniform List<vector> 
2528
(
(-5.96923e-06 -0.000383878 -0.00814691)
(0.000609207 2.21338e-06 -0.00574247)
(-1.53848e-05 -2.69881e-06 -0.00780346)
(-0.000655245 5.39569e-06 -0.00839103)
(0.000361517 0.000629313 -0.0229913)
(0.00124179 8.83182e-06 -0.0161391)
(-0.000423703 -1.21052e-05 -0.0219173)
(-0.00137454 1.1874e-05 -0.0237359)
(0.00102842 -0.000588745 -0.036806)
(0.00133341 1.11883e-05 -0.0257607)
(-0.0011297 -2.14432e-05 -0.0349503)
(-0.00155196 1.27234e-05 -0.0380096)
(0.00168626 0.000286794 -0.0499869)
(0.00129366 2.02636e-05 -0.0349584)
(-0.00182587 -3.82199e-05 -0.0473784)
(-0.0016038 1.60978e-05 -0.0515351)
(0.0022386 -0.000217136 -0.0625805)
(0.00123883 2.511e-05 -0.0438159)
(-0.00241646 -5.34545e-05 -0.0593131)
(-0.00165189 9.78115e-06 -0.0643807)
(0.00272961 -0.000107906 -0.0745003)
(0.00109708 3.08967e-05 -0.0522892)
(-0.00294645 -7.09412e-05 -0.0706855)
(-0.00163051 6.49239e-07 -0.0765156)
(0.00317581 -0.000161818 -0.0857223)
(0.0008563 3.70109e-05 -0.06037)
(-0.00343275 -9.01863e-05 -0.0814771)
(-0.00153135 -1.19344e-05 -0.087956)
(0.00358368 -0.000195877 -0.0962408)
(0.000524779 4.34617e-05 -0.0680576)
(-0.00388168 -0.00011124 -0.0916795)
(-0.00136414 -2.79239e-05 -0.0987236)
(0.00395598 -0.000238567 -0.106047)
(0.000119168 5.05309e-05 -0.0753483)
(-0.00429534 -0.000134154 -0.101279)
(-0.00114468 -4.69455e-05 -0.108825)
(0.00429372 -0.000277173 -0.115138)
(-0.000340906 5.81081e-05 -0.082233)
(-0.00467387 -0.000159208 -0.110263)
(-0.000889572 -6.91023e-05 -0.118263)
(0.00459697 -0.000314425 -0.123532)
(-0.000837183 6.58493e-05 -0.0887034)
(-0.00501653 -0.000187092 -0.118637)
(-0.000612424 -9.40253e-05 -0.127045)
(0.0048665 -0.000351107 -0.131273)
(-0.00135396 7.39057e-05 -0.0947603)
(-0.00532291 -0.000217658 -0.126431)
(-0.000327664 -0.000121064 -0.135203)
(0.00510468 -0.000387133 -0.138418)
(-0.00187502 8.28449e-05 -0.100418)
(-0.00559448 -0.000250492 -0.133686)
(-5.09861e-05 -0.000150632 -0.142779)
(0.00531497 -0.000421162 -0.145006)
(-0.002382 9.25711e-05 -0.105699)
(-0.00583433 -0.000285136 -0.140443)
(0.000206128 -0.000183128 -0.149821)
(0.00550125 -0.000452133 -0.151077)
(-0.00285593 0.000102307 -0.110628)
(-0.00604631 -0.000321485 -0.146737)
(0.000434957 -0.000218407 -0.156373)
(0.00566652 -0.000480669 -0.156677)
(-0.00328235 0.000111882 -0.115233)
(-0.00623378 -0.000359733 -0.152607)
(0.00063201 -0.000255635 -0.162472)
(0.00581317 -0.000507787 -0.161853)
(-0.00365416 0.000121874 -0.119542)
(-0.00639942 -0.000399599 -0.15809)
(0.000797192 -0.000294353 -0.168153)
(0.0059431 -0.000533807 -0.166645)
(-0.00396984 0.000132844 -0.123584)
(-0.00654554 -0.000441013 -0.163219)
(0.000929448 -0.00033505 -0.17345)
(0.00605779 -0.000558468 -0.171095)
(-0.00422964 0.000144826 -0.127386)
(-0.00667403 -0.000483788 -0.168026)
(0.00102825 -0.000377202 -0.178396)
(0.00615846 -0.000581411 -0.175242)
(-0.00443444 0.000157656 -0.130971)
(-0.00678646 -0.000527479 -0.172536)
(0.00109408 -0.000420904 -0.183022)
(0.00624623 -0.000602948 -0.179121)
(-0.00458685 0.000171293 -0.134364)
(-0.0068839 -0.000571076 -0.176773)
(0.00112789 -0.000465629 -0.187356)
(0.00632197 -0.000623235 -0.182769)
(-0.0046914 0.000185756 -0.137587)
(-0.00696666 -0.000613764 -0.180766)
(0.00113059 -0.000510069 -0.191438)
(0.00638641 -0.000642805 -0.186215)
(-0.0047543 0.000201275 -0.140663)
(-0.00703454 -0.000656121 -0.184547)
(0.00110298 -0.000556435 -0.195321)
(0.00644054 -0.000661827 -0.189484)
(-0.00478225 0.000218072 -0.14361)
(-0.00708755 -0.000700173 -0.188152)
(0.00104669 -0.000606235 -0.199057)
(0.00648544 -0.000680311 -0.192595)
(-0.00478107 0.000236346 -0.146447)
(-0.00712675 -0.000747419 -0.191609)
(0.000965968 -0.000657569 -0.202659)
(0.00652216 -0.000697656 -0.195565)
(-0.00475496 0.000256169 -0.149189)
(-0.00715496 -0.000794398 -0.194927)
(0.00086797 -0.000706358 -0.206055)
(0.0065515 -0.000714025 -0.198409)
(-0.00470688 0.000277142 -0.151845)
(-0.00717613 -0.000835451 -0.19809)
(0.000757735 -0.000751468 -0.209184)
(0.00657402 -0.000730351 -0.20114)
(-0.00463956 0.000299117 -0.154426)
(-0.00719286 -0.000869708 -0.201087)
(0.000635298 -0.000798643 -0.212104)
(0.00659016 -0.000746545 -0.203771)
(-0.00455595 0.000322453 -0.156938)
(-0.00720432 -0.000905104 -0.20392)
(0.000501905 -0.000852654 -0.214889)
(0.00660057 -0.000762832 -0.206314)
(-0.00445868 0.0003474 -0.159388)
(-0.00720795 -0.000945623 -0.20661)
(0.000361714 -0.000899647 -0.217561)
(0.00660591 -0.000778367 -0.208777)
(-0.00434967 0.000374039 -0.16178)
(-0.00720256 -0.000986361 -0.209185)
(0.000211752 -0.000939131 -0.220156)
(0.00660682 -0.000792836 -0.211168)
(-0.00423011 0.000402008 -0.164121)
(-0.00718902 -0.00102249 -0.211662)
(4.38736e-05 -0.000991368 -0.222773)
(0.00660405 -0.000806782 -0.21349)
(-0.00410102 0.00043112 -0.166412)
(-0.00716873 -0.00106119 -0.214045)
(-0.000138486 -0.00106171 -0.225511)
(0.00659854 -0.000827993 -0.215747)
(-0.00396379 0.000461672 -0.168658)
(-0.00713135 -0.00110168 -0.216389)
(-0.000309326 -0.00113508 -0.228248)
(0.0065902 -0.000848187 -0.217932)
(-0.00381967 0.00049384 -0.170861)
(-0.00706185 -0.00112828 -0.218821)
(-0.00043301 -0.0011726 -0.230578)
(0.00656667 -0.000858033 -0.220107)
(-0.00366913 0.000527616 -0.173021)
(-0.00696967 -0.00114121 -0.221449)
(-0.000528661 -0.0011947 -0.232585)
(0.00651056 -0.000861376 -0.22246)
(-0.00351178 0.000563276 -0.175142)
(-0.00689129 -0.0011605 -0.224142)
(-0.00062982 -0.00123258 -0.234475)
(0.00643117 -0.000882381 -0.225177)
(-0.00334666 0.000598708 -0.177225)
(-0.00686531 -0.00120563 -0.226443)
(-0.000748196 -0.00129134 -0.236309)
(0.00636867 -0.000939836 -0.228109)
(-0.00317272 0.000632943 -0.179273)
(-0.00685909 -0.00124628 -0.228368)
(-0.000878569 -0.00135213 -0.238048)
(0.00637464 -0.000977147 -0.230495)
(-0.00298836 0.000671161 -0.181287)
(-0.00683583 -0.00126508 -0.230215)
(-0.00101039 -0.00140114 -0.239681)
(0.00641217 -0.000951695 -0.232345)
(-0.00279139 0.000712228 -0.183269)
(-0.00678795 -0.00126836 -0.232131)
(-0.0011387 -0.00144901 -0.24122)
(0.00643551 -0.000859462 -0.234206)
(-0.00258322 0.000768567 -0.185216)
(-0.00673016 -0.00129034 -0.234051)
(-0.0012612 -0.00149841 -0.242673)
(0.00642818 -0.000878226 -0.236397)
(-0.00236137 0.00080747 -0.187178)
(-0.00667158 -0.00131891 -0.235839)
(-0.00137535 -0.00154654 -0.244046)
(0.00640191 -0.000979532 -0.23867)
(-0.00215808 0.000815774 -0.18936)
(-0.00661115 -0.00133774 -0.23748)
(-0.00148105 -0.00159463 -0.245335)
(0.00636941 -0.000982105 -0.240664)
(-0.00203941 0.000852817 -0.19205)
(-0.00653164 -0.00135295 -0.239131)
(-0.00158059 -0.00164412 -0.246541)
(0.00632528 -0.000990489 -0.242511)
(-0.00201172 0.000962429 -0.195278)
(-0.0063976 -0.00136253 -0.241103)
(-0.001674 -0.00169514 -0.247665)
(0.00626286 -0.00106945 -0.244432)
(-0.00199438 0.00111365 -0.198022)
(-0.00619242 -0.00136472 -0.243608)
(-0.00175876 -0.00174844 -0.248709)
(0.00618845 -0.00130254 -0.246455)
(-0.00177411 0.00113716 -0.199791)
(-0.00595092 -0.00136163 -0.246382)
(-0.00183371 -0.00180023 -0.249676)
(0.00613701 -0.00131643 -0.248093)
(-0.0013759 0.0010922 -0.201141)
(-0.00581154 -0.00137371 -0.248132)
(-0.00190576 -0.00184839 -0.250567)
(0.00609734 -0.00107683 -0.249362)
(-0.000947711 0.00103002 -0.202544)
(-0.00574754 -0.00138714 -0.249141)
(-0.00198884 -0.00189615 -0.251378)
(0.00600822 -0.00089514 -0.250989)
(-0.000664543 0.00102286 -0.204145)
(-0.00567876 -0.00139064 -0.250146)
(-0.00209093 -0.00194352 -0.252108)
(0.00582497 -0.000863202 -0.253577)
(-0.000587251 0.0011538 -0.205938)
(-0.00557741 -0.00138695 -0.251331)
(-0.00220978 -0.00199388 -0.252763)
(0.00557008 -0.00107876 -0.256896)
(-0.00056466 0.00133914 -0.207716)
(-0.00545691 -0.00138329 -0.252547)
(-0.00233215 -0.00204925 -0.25334)
(0.00543731 -0.00129721 -0.258904)
(-0.00048555 0.00145294 -0.209405)
(-0.00533031 -0.0013756 -0.253682)
(-0.00244641 -0.0021031 -0.253823)
(0.0054064 -0.00135305 -0.259893)
(-0.000329461 0.0014446 -0.211053)
(-0.00519098 -0.00137966 -0.254791)
(-0.00255505 -0.00214317 -0.254207)
(0.00538544 -0.00131669 -0.260878)
(-0.000111759 0.00141666 -0.212654)
(-0.0050208 -0.00140184 -0.256039)
(-0.00266634 -0.00216234 -0.254556)
(0.00533837 -0.00125735 -0.262008)
(0.000123203 0.00144778 -0.214439)
(-0.00480947 -0.00139494 -0.257537)
(-0.00277353 -0.00219412 -0.25502)
(0.00527499 -0.00127508 -0.263092)
(0.000352189 0.00152695 -0.216766)
(-0.00455388 -0.00131553 -0.25924)
(-0.00285774 -0.00228304 -0.255585)
(0.00519399 -0.00133057 -0.26405)
(0.000598929 0.00158601 -0.219807)
(-0.00433408 -0.00120689 -0.260447)
(-0.00293439 -0.0023578 -0.25596)
(0.00510045 -0.00137768 -0.264914)
(0.00086736 0.00160579 -0.223015)
(-0.00415462 -0.00118475 -0.2615)
(-0.00301309 -0.00239143 -0.256137)
(0.0050022 -0.0014441 -0.26569)
(0.0010494 0.00165574 -0.225198)
(-0.0039734 -0.00127732 -0.262848)
(-0.00308025 -0.00242353 -0.256175)
(0.00490073 -0.0014894 -0.266349)
(0.00115591 0.00172218 -0.22655)
(-0.00378102 -0.00130852 -0.264153)
(-0.00313604 -0.00247114 -0.25613)
(0.00479699 -0.00147238 -0.266929)
(0.00126385 0.00176784 -0.22771)
(-0.00358258 -0.00123927 -0.265131)
(-0.00318739 -0.00251803 -0.256024)
(0.00467718 -0.0014129 -0.26763)
(0.00140975 0.00180053 -0.228948)
(-0.00337372 -0.00116994 -0.265809)
(-0.00323217 -0.00256353 -0.255858)
(0.00452195 -0.00152264 -0.268639)
(0.00157889 0.00182826 -0.23016)
(-0.00315043 -0.00113995 -0.266377)
(-0.00326784 -0.00260857 -0.255633)
(0.00437083 -0.0016651 -0.269459)
(0.00174523 0.0018481 -0.23128)
(-0.00291071 -0.0011065 -0.266945)
(-0.00329288 -0.00265225 -0.25535)
(0.00423078 -0.00169136 -0.269991)
(0.00191175 0.0018792 -0.232307)
(-0.00265519 -0.00106316 -0.267488)
(-0.00330797 -0.00269314 -0.25501)
(0.00409232 -0.00160768 -0.270376)
(0.00209227 0.00195326 -0.233288)
(-0.0023917 -0.00102248 -0.267932)
(-0.0033142 -0.00272926 -0.254617)
(0.00394416 -0.00168748 -0.270824)
(0.00227626 0.00203393 -0.234373)
(-0.00212227 -0.000980443 -0.268274)
(-0.00330808 -0.00278847 -0.25417)
(0.00377284 -0.00193047 -0.271386)
(0.00243983 0.00200804 -0.235668)
(-0.00184594 -0.000931184 -0.26855)
(-0.00326597 -0.00288392 -0.253718)
(0.00360658 -0.00199702 -0.271755)
(0.00260521 0.00197815 -0.236897)
(-0.00156861 -0.000877176 -0.268757)
(-0.00318347 -0.00289727 -0.253313)
(0.00345314 -0.0018278 -0.271689)
(0.00278727 0.00200552 -0.237999)
(-0.00129392 -0.000825684 -0.268899)
(-0.00311362 -0.00276448 -0.252774)
(0.00328199 -0.00181314 -0.271558)
(0.00297334 0.00204474 -0.239004)
(-0.00101862 -0.000756812 -0.269066)
(-0.00312998 -0.00272175 -0.251535)
(0.00309897 -0.00194917 -0.271471)
(0.00315447 0.00207328 -0.239917)
(-0.000736766 -0.000685531 -0.269351)
(-0.00330677 -0.00311481 -0.249055)
(0.00290951 -0.00203569 -0.271353)
(0.00332656 0.00209443 -0.240734)
(-0.000439769 -0.00065235 -0.269677)
(-0.00338512 -0.00310657 -0.247179)
(0.00270916 -0.0020787 -0.271192)
(0.00350491 0.00207902 -0.241583)
(-0.000133518 -0.00065577 -0.269697)
(-0.0033782 -0.0029855 -0.245803)
(0.00247961 -0.00212899 -0.271113)
(0.00371093 0.00199409 -0.242888)
(0.000143015 -0.000522621 -0.269141)
(-0.00332558 -0.00304782 -0.244591)
(0.002197 -0.00218042 -0.271222)
(0.00392221 0.00202923 -0.245004)
(0.000413803 -0.000366062 -0.2687)
(-0.00325232 -0.00306451 -0.243649)
(0.00187151 -0.00222889 -0.271349)
(0.00414649 0.00213899 -0.247823)
(0.000711214 -0.000335009 -0.268566)
(-0.00310953 -0.00304889 -0.241025)
(-7.58854e-05 -1.9954e-06 -0.00253012)
(-0.000140912 3.22585e-08 -0.00340261)
(3.34681e-05 -2.91149e-06 -0.00491228)
(0.000131373 5.25926e-07 -0.00418239)
(-0.000180384 -6.20381e-06 -0.00794997)
(-0.000330136 -9.97803e-07 -0.0104104)
(5.44748e-05 -9.04464e-06 -0.0147218)
(0.000301517 -1.10032e-06 -0.0125144)
(-0.000229832 -1.44512e-05 -0.0137785)
(-0.000406937 -4.73807e-06 -0.0176641)
(2.12236e-05 -1.9573e-05 -0.0246223)
(0.000359473 -3.46573e-06 -0.0208741)
(-0.000267927 -2.26069e-05 -0.0198976)
(-0.000441134 -8.54285e-06 -0.0251273)
(-2.20542e-05 -3.17409e-05 -0.0346018)
(0.000376087 -7.206e-06 -0.0293347)
(-0.000313912 -3.21641e-05 -0.0262064)
(-0.000467094 -1.42546e-05 -0.0327197)
(-5.60447e-05 -4.42688e-05 -0.0445707)
(0.00038591 -1.24698e-05 -0.0378463)
(-0.000360769 -4.24181e-05 -0.0326604)
(-0.000477475 -2.06261e-05 -0.0403698)
(-8.73408e-05 -5.75702e-05 -0.0544307)
(0.000382216 -1.85685e-05 -0.0463093)
(-0.000405066 -5.31798e-05 -0.0392021)
(-0.000470567 -2.75311e-05 -0.048009)
(-0.000118952 -7.11939e-05 -0.0640933)
(0.000363783 -2.52574e-05 -0.0546466)
(-0.000444898 -6.42156e-05 -0.0457673)
(-0.000447035 -3.46993e-05 -0.0555629)
(-0.000152311 -8.48827e-05 -0.0734706)
(0.000331574 -3.23785e-05 -0.0627905)
(-0.000479063 -7.53842e-05 -0.05229)
(-0.000408805 -4.18443e-05 -0.0629534)
(-0.000188036 -9.8427e-05 -0.082478)
(0.000287464 -3.97198e-05 -0.07068)
(-0.000506813 -8.65635e-05 -0.0587066)
(-0.000358665 -4.87326e-05 -0.0701057)
(-0.000226218 -0.00011159 -0.0910448)
(0.000233815 -4.71201e-05 -0.0782618)
(-0.000527817 -9.75992e-05 -0.0649608)
(-0.00029997 -5.51528e-05 -0.0769593)
(-0.000266479 -0.000124245 -0.0991284)
(0.000173238 -5.44715e-05 -0.0854959)
(-0.000542218 -0.000108468 -0.0710107)
(-0.000236266 -6.09112e-05 -0.0834778)
(-0.000308232 -0.000136156 -0.10672)
(0.000108539 -6.15908e-05 -0.0923617)
(-0.000550632 -0.000119048 -0.0768328)
(-0.000171103 -6.5862e-05 -0.0896505)
(-0.000351049 -0.000147091 -0.113839)
(4.23511e-05 -6.85391e-05 -0.0988579)
(-0.000553765 -0.000129126 -0.0824202)
(-0.00010762 -6.99202e-05 -0.0954866)
(-0.00039474 -0.000157009 -0.12053)
(-2.3241e-05 -7.53112e-05 -0.105003)
(-0.000552111 -0.000138617 -0.0877815)
(-4.81553e-05 -7.29991e-05 -0.101019)
(-0.000439237 -0.000165897 -0.126845)
(-8.64308e-05 -8.17206e-05 -0.110829)
(-0.000546069 -0.00014751 -0.0929306)
(5.64523e-06 -7.49499e-05 -0.106291)
(-0.000484457 -0.000173772 -0.132821)
(-0.000145905 -8.76779e-05 -0.116371)
(-0.000535994 -0.000155815 -0.0978812)
(5.28446e-05 -7.55948e-05 -0.111332)
(-0.000530268 -0.000180587 -0.138489)
(-0.000200943 -9.30285e-05 -0.121657)
(-0.000522293 -0.000163321 -0.102647)
(9.28075e-05 -7.48291e-05 -0.11616)
(-0.000576509 -0.000186307 -0.143874)
(-0.000250846 -9.78143e-05 -0.126707)
(-0.000505492 -0.000169852 -0.107241)
(0.000124963 -7.2615e-05 -0.120792)
(-0.000623001 -0.000190939 -0.149)
(-0.000294936 -0.000102047 -0.131537)
(-0.000486108 -0.00017541 -0.111671)
(0.000148954 -6.89316e-05 -0.125243)
(-0.000669557 -0.000194491 -0.153887)
(-0.00033277 -0.000105692 -0.136163)
(-0.000464526 -0.000180067 -0.115947)
(0.000164648 -6.37736e-05 -0.129528)
(-0.00071599 -0.000196957 -0.158554)
(-0.000364126 -0.00010879 -0.1406)
(-0.000441011 -0.000183892 -0.120081)
(0.000172104 -5.71182e-05 -0.13366)
(-0.00076213 -0.000198381 -0.163016)
(-0.000388948 -0.000111329 -0.14486)
(-0.000415696 -0.000186911 -0.124084)
(0.000171502 -4.88755e-05 -0.137647)
(-0.000807824 -0.000198856 -0.16729)
(-0.000407268 -0.000113251 -0.148953)
(-0.000388714 -0.000188673 -0.127964)
(0.000163047 -3.89464e-05 -0.141499)
(-0.000852948 -0.000198507 -0.171387)
(-0.000419129 -0.000114562 -0.152885)
(-0.000360485 -0.000189021 -0.131713)
(0.00014694 -2.73039e-05 -0.145219)
(-0.000897398 -0.000197472 -0.17532)
(-0.00042465 -0.000115438 -0.156663)
(-0.000331872 -0.000188515 -0.135317)
(0.000123455 -1.40102e-05 -0.148813)
(-0.000941063 -0.000195853 -0.179102)
(-0.000424171 -0.000115836 -0.160291)
(-0.000303842 -0.00018757 -0.138775)
(9.30391e-05 7.40718e-07 -0.152286)
(-0.000983785 -0.000193712 -0.182741)
(-0.000418141 -0.000115898 -0.163777)
(-0.000276899 -0.00018618 -0.142106)
(5.62993e-05 1.67216e-05 -0.155646)
(-0.00102531 -0.000191096 -0.186247)
(-0.000407168 -0.000115445 -0.167127)
(-0.00025088 -0.00018372 -0.145334)
(1.39426e-05 3.36991e-05 -0.1589)
(-0.00106527 -0.000188077 -0.189626)
(-0.000391858 -0.00011429 -0.170354)
(-0.000225101 -0.000179779 -0.148477)
(-3.31963e-05 5.15131e-05 -0.16206)
(-0.00110334 -0.000184761 -0.192888)
(-0.000372802 -0.000113207 -0.17348)
(-0.000198629 -0.000174004 -0.151525)
(-8.41845e-05 7.01734e-05 -0.165138)
(-0.00113937 -0.000181272 -0.196042)
(-0.000351179 -0.000112997 -0.17653)
(-0.000171338 -0.000168055 -0.154444)
(-0.000138133 8.9905e-05 -0.168143)
(-0.00117366 -0.00017761 -0.199093)
(-0.000328059 -0.00011398 -0.179524)
(-0.000144816 -0.000164359 -0.15721)
(-0.000194429 0.000110812 -0.171079)
(-0.00120706 -0.000173546 -0.202042)
(-0.000303611 -0.000115198 -0.182456)
(-0.000120612 -0.000162282 -0.159861)
(-0.000252693 0.000132351 -0.173942)
(-0.0012405 -0.00017078 -0.204878)
(-0.00027757 -0.00011468 -0.185291)
(-9.79404e-05 -0.000160561 -0.162488)
(-0.000312544 0.00015426 -0.176728)
(-0.00127369 -0.000168721 -0.207594)
(-0.000249856 -0.000111582 -0.187999)
(-7.59988e-05 -0.000153151 -0.165161)
(-0.000373936 0.000176874 -0.179437)
(-0.00130524 -0.000166547 -0.210191)
(-0.00022211 -0.000108019 -0.190581)
(-5.74571e-05 -0.000139687 -0.167843)
(-0.00043674 0.000199942 -0.182084)
(-0.00133409 -0.000166255 -0.212686)
(-0.000196854 -0.000106231 -0.193056)
(-4.55654e-05 -0.000126935 -0.170461)
(-0.000499821 0.000222582 -0.184698)
(-0.00135867 -0.000164505 -0.215104)
(-0.000174242 -0.000105956 -0.195435)
(-3.84633e-05 -0.000114181 -0.173006)
(-0.000562277 0.000244505 -0.187319)
(-0.00137819 -0.000159863 -0.217455)
(-0.000151488 -0.000106196 -0.197706)
(-2.63098e-05 -0.000105049 -0.175447)
(-0.000623559 0.00026701 -0.189962)
(-0.00139369 -0.000154299 -0.219751)
(-0.000126407 -0.000106738 -0.19986)
(-3.48072e-06 -9.75221e-05 -0.177749)
(-0.000681831 0.000293201 -0.192598)
(-0.00140811 -0.000151295 -0.221977)
(-9.92506e-05 -0.000104923 -0.201914)
(2.25346e-05 -8.90462e-05 -0.179894)
(-0.000734357 0.000324546 -0.19518)
(-0.00142484 -0.000157813 -0.224109)
(-7.0909e-05 -0.000102004 -0.203898)
(4.31354e-05 -8.17138e-05 -0.181874)
(-0.000781839 0.000359027 -0.197665)
(-0.00144359 -0.000166694 -0.226165)
(-4.43154e-05 -0.000104235 -0.205843)
(5.63512e-05 -7.37485e-05 -0.183734)
(-0.000830142 0.00039286 -0.200022)
(-0.00146136 -0.00016853 -0.22817)
(-2.1351e-05 -0.000108866 -0.207758)
(6.68539e-05 -6.64922e-05 -0.185546)
(-0.000885977 0.000423876 -0.202244)
(-0.0014762 -0.000166063 -0.230128)
(3.31102e-06 -0.000111408 -0.209612)
(8.0992e-05 -6.10296e-05 -0.187391)
(-0.000950065 0.000452614 -0.204348)
(-0.00148804 -0.000164759 -0.232051)
(3.3878e-05 -0.000108374 -0.21135)
(9.73578e-05 -5.13978e-05 -0.189322)
(-0.00101964 0.000479993 -0.206359)
(-0.00149803 -0.000170485 -0.233967)
(6.61794e-05 -0.000104375 -0.212997)
(0.000106349 -3.72318e-05 -0.191316)
(-0.00109229 0.000506862 -0.208295)
(-0.00150739 -0.000181517 -0.235889)
(9.86551e-05 -0.000106006 -0.214601)
(0.000104175 -2.17254e-05 -0.193377)
(-0.00116652 0.000533859 -0.210175)
(-0.00151696 -0.000191143 -0.237806)
(0.000132039 -0.000109116 -0.216147)
(9.65554e-05 -7.15509e-06 -0.195424)
(-0.00124319 0.00056201 -0.212011)
(-0.00152631 -0.000199815 -0.239675)
(0.000166309 -0.000107824 -0.217594)
(0.000102901 -7.72644e-06 -0.197147)
(-0.00132416 0.000591679 -0.213813)
(-0.00153396 -0.000207329 -0.241469)
(0.000201763 -0.000105251 -0.218948)
(0.000123728 -1.26754e-05 -0.198599)
(-0.0014113 0.000622683 -0.21559)
(-0.00153954 -0.000213607 -0.243194)
(0.000238882 -0.000106189 -0.220233)
(0.000147744 -8.76506e-06 -0.200055)
(-0.0015024 0.000653218 -0.217372)
(-0.00154304 -0.00022242 -0.244838)
(0.000277029 -0.000110606 -0.221464)
(0.000169161 2.83908e-06 -0.201672)
(-0.00159249 0.000678673 -0.219199)
(-0.00154507 -0.000232592 -0.246433)
(0.000315258 -0.000115695 -0.22264)
(0.000185894 1.10349e-05 -0.203376)
(-0.00168641 0.000701326 -0.22107)
(-0.00154594 -0.000244751 -0.248025)
(0.00035234 -0.000119001 -0.223766)
(0.000196455 8.22965e-06 -0.20498)
(-0.00179298 0.000729292 -0.222924)
(-0.00154479 -0.000258119 -0.249602)
(0.000387458 -0.000121146 -0.224843)
(0.000203686 7.2855e-06 -0.206482)
(-0.00190366 0.000762134 -0.22472)
(-0.0015411 -0.000272435 -0.251122)
(0.000421225 -0.000124397 -0.225872)
(0.000209594 1.41892e-05 -0.20791)
(-0.00199748 0.000794634 -0.226472)
(-0.00153667 -0.000290555 -0.252613)
(0.000454167 -0.000128972 -0.226855)
(0.000213128 2.34808e-05 -0.209264)
(-0.00207331 0.00081741 -0.228128)
(-0.00153441 -0.000309326 -0.254193)
(0.000485851 -0.000134353 -0.227799)
(0.00021266 3.12484e-05 -0.210543)
(-0.00214591 0.000831384 -0.229675)
(-0.00153689 -0.000322491 -0.255903)
(0.000515892 -0.000140872 -0.228704)
(0.000207582 3.76765e-05 -0.21175)
(-0.00222519 0.000846614 -0.231151)
(-0.00153996 -0.000331848 -0.257548)
(0.000544562 -0.000148567 -0.229571)
(0.000199773 4.4312e-05 -0.212935)
(-0.00230892 0.000865246 -0.23262)
(-0.00153578 -0.000346741 -0.258928)
(0.000572133 -0.000156465 -0.230399)
(0.000195682 5.46648e-05 -0.214181)
(-0.00238961 0.000883293 -0.234125)
(-0.00152298 -0.000370233 -0.260107)
(0.000597411 -0.0001661 -0.231191)
(0.000199809 7.22953e-05 -0.215535)
(-0.00246158 0.000898621 -0.235625)
(-0.00150461 -0.000397279 -0.261186)
(0.000619478 -0.000178408 -0.231946)
(0.000208153 9.2716e-05 -0.216886)
(-0.00252246 0.000912476 -0.237059)
(-0.00148332 -0.000422286 -0.262218)
(0.000638103 -0.000191466 -0.232668)
(0.00021309 0.000110206 -0.218101)
(-0.00257196 0.000926357 -0.238434)
(-0.00145918 -0.000447108 -0.263215)
(0.000652484 -0.000204071 -0.23337)
(0.000211692 0.000123304 -0.219182)
(-0.00260743 0.000942078 -0.239795)
(-0.00143184 -0.000473123 -0.264178)
(0.000662274 -0.000217181 -0.234055)
(0.000205799 0.000135186 -0.220183)
(-0.00262033 0.000961033 -0.241176)
(-0.00140071 -0.00049953 -0.2651)
(0.000667553 -0.000230033 -0.234725)
(0.000197503 0.000147725 -0.221144)
(-0.00261414 0.000979843 -0.242524)
(-0.00136517 -0.000527187 -0.265985)
(0.000668135 -0.000242573 -0.235388)
(0.000186513 0.00016249 -0.222079)
(-0.00260546 0.000995351 -0.243751)
(-0.00132529 -0.000557048 -0.266876)
(0.000663967 -0.000254338 -0.236052)
(0.000171326 0.000174646 -0.222994)
(-0.00259483 0.00100842 -0.244903)
(-0.00128251 -0.000584938 -0.267804)
(0.000655644 -0.000268032 -0.236725)
(0.000150045 0.000182894 -0.223895)
(-0.00257783 0.00102027 -0.246021)
(-0.00123668 -0.000610278 -0.268684)
(0.00064625 -0.000285092 -0.237411)
(0.000120616 0.00019446 -0.224779)
(-0.00254806 0.00103199 -0.247125)
(-0.00118629 -0.000637386 -0.269438)
(0.00064139 -0.000303309 -0.238107)
(8.12571e-05 0.00020641 -0.22565)
(-0.00250052 0.001045 -0.248231)
(-0.00113103 -0.000666517 -0.27008)
(0.000641028 -0.000321185 -0.238777)
(3.05257e-05 0.000217008 -0.226509)
(-0.00243613 0.00106033 -0.249323)
(-0.0010713 -0.000696347 -0.270629)
(0.000629937 -0.00034092 -0.239348)
(-3.26313e-05 0.000226507 -0.227344)
(-0.00236904 0.00107768 -0.250322)
(-0.00100714 -0.000726573 -0.271095)
(0.000601886 -0.000363168 -0.239796)
(-0.00010897 0.000235525 -0.228135)
(-0.0023066 0.00109803 -0.251177)
(-0.000938557 -0.000754668 -0.271474)
(0.000558113 -0.000384732 -0.240099)
(-0.000199209 0.000241883 -0.228863)
(-0.00224922 0.00111566 -0.251863)
(-0.000865308 -0.000780227 -0.271749)
(0.000506597 -0.000404247 -0.240207)
(-0.000305183 0.000246315 -0.22951)
(-0.00219437 0.00112199 -0.252381)
(-0.000785934 -0.000800614 -0.271903)
(0.000463114 -0.000421491 -0.240063)
(0.000242309 -5.01719e-06 -0.00536533)
(4.10168e-05 4.98808e-06 -0.00311991)
(-0.000258141 -4.65611e-06 -0.00504005)
(-9.92057e-05 4.3253e-06 -0.00561032)
(0.000676493 -5.7814e-06 -0.0168644)
(0.000100382 1.71496e-05 -0.0101857)
(-0.000725519 -6.22486e-06 -0.0159723)
(-0.00027352 1.01867e-05 -0.0174094)
(0.00104419 -1.1691e-05 -0.0288016)
(7.65089e-05 3.87354e-05 -0.0178136)
(-0.00112803 -1.24563e-05 -0.0274399)
(-0.000364536 2.34827e-05 -0.0295136)
(0.00138192 -1.13799e-05 -0.0406707)
(6.70885e-06 6.60625e-05 -0.0256114)
(-0.00150122 -1.2971e-05 -0.0388885)
(-0.000412194 3.53784e-05 -0.0415026)
(0.00171397 -8.86245e-06 -0.0522861)
(-9.20863e-05 9.70526e-05 -0.0334408)
(-0.00186949 -1.24375e-05 -0.050106)
(-0.000434438 4.7944e-05 -0.0532082)
(0.00203695 -3.62954e-06 -0.0636276)
(-0.000223187 0.000132475 -0.041306)
(-0.00222902 -1.03656e-05 -0.0610808)
(-0.000428862 6.0278e-05 -0.0646)
(0.00234718 3.93593e-06 -0.0746405)
(-0.000381039 0.000171715 -0.0491745)
(-0.00257574 -7.2976e-06 -0.0717651)
(-0.000401425 7.21017e-05 -0.0756333)
(0.0026416 1.37684e-05 -0.0852535)
(-0.000557853 0.000214466 -0.0569887)
(-0.00290636 -3.55526e-06 -0.082096)
(-0.000359761 8.33405e-05 -0.0862597)
(0.00291796 2.56653e-05 -0.0953938)
(-0.000745785 0.000260395 -0.0646818)
(-0.00321846 5.64413e-07 -0.0920102)
(-0.00031097 9.38402e-05 -0.0964341)
(0.00317492 3.92739e-05 -0.105003)
(-0.000937527 0.000309302 -0.07219)
(-0.00351032 4.9086e-06 -0.101457)
(-0.000260786 0.000103617 -0.106118)
(0.00341229 5.46243e-05 -0.11405)
(-0.00112548 0.000360963 -0.079461)
(-0.00378115 9.38365e-06 -0.110404)
(-0.000214513 0.000112786 -0.115285)
(0.00363141 7.13743e-05 -0.122539)
(-0.00130395 0.000414978 -0.086459)
(-0.00403167 1.39206e-05 -0.11885)
(-0.00017514 0.000120795 -0.123946)
(0.00383466 8.97202e-05 -0.130509)
(-0.0014713 0.000471214 -0.0931671)
(-0.0042638 1.86474e-05 -0.126826)
(-0.000142158 0.000127608 -0.132135)
(0.00402417 0.000109904 -0.138008)
(-0.00162883 0.000529529 -0.0995872)
(-0.00447936 2.35956e-05 -0.134366)
(-0.000114237 0.000133613 -0.139886)
(0.00420146 0.00013132 -0.145065)
(-0.001779 0.000589959 -0.105733)
(-0.0046795 2.86547e-05 -0.141494)
(-9.01719e-05 0.000138997 -0.147223)
(0.0043673 0.000153556 -0.151706)
(-0.0019215 0.000652323 -0.111619)
(-0.00486497 3.36829e-05 -0.148227)
(-7.11832e-05 0.000143692 -0.154168)
(0.00452203 0.000175912 -0.157966)
(-0.00205582 0.000716272 -0.11725)
(-0.00503658 3.84023e-05 -0.154583)
(-5.90912e-05 0.000146964 -0.160741)
(0.00466526 0.000197898 -0.163882)
(-0.00218397 0.000781642 -0.122623)
(-0.00519515 4.22598e-05 -0.160586)
(-5.14129e-05 0.000147855 -0.166947)
(0.00479621 0.00022206 -0.169483)
(-0.00230997 0.000847886 -0.127732)
(-0.00534066 4.47346e-05 -0.16627)
(-4.12265e-05 0.000146769 -0.17278)
(0.00491575 0.000248895 -0.174774)
(-0.0024398 0.000915287 -0.132577)
(-0.0054721 4.63757e-05 -0.171667)
(-2.28813e-05 0.000145852 -0.178249)
(0.00502564 0.000275131 -0.179737)
(-0.00257425 0.000984974 -0.137173)
(-0.00558901 4.91703e-05 -0.176793)
(3.46273e-07 0.000146826 -0.1834)
(0.00512752 0.000299709 -0.184386)
(-0.00270419 0.00105817 -0.141571)
(-0.0056926 5.31457e-05 -0.18163)
(1.31575e-05 0.000148572 -0.188311)
(0.00522235 0.000322707 -0.188757)
(-0.00281045 0.00113286 -0.145841)
(-0.00578447 5.63321e-05 -0.186162)
(-1.22397e-06 0.000145035 -0.193041)
(0.00530866 0.000348222 -0.19289)
(-0.00288282 0.00120438 -0.150012)
(-0.00586582 5.7004e-05 -0.190415)
(-3.72852e-05 0.00013545 -0.197556)
(0.00538439 0.000378723 -0.196812)
(-0.00293683 0.00127401 -0.154)
(-0.00593716 5.40788e-05 -0.194434)
(-7.47329e-05 0.000126054 -0.201762)
(0.00544896 0.000405636 -0.200534)
(-0.00299352 0.0013467 -0.157712)
(-0.005998 4.89374e-05 -0.198252)
(-9.99035e-05 0.0001195 -0.205635)
(0.00550401 0.00042635 -0.204051)
(-0.00306737 0.00142257 -0.161132)
(-0.00604876 4.26069e-05 -0.201874)
(-0.000110064 0.000113303 -0.209217)
(0.00555235 0.000448543 -0.207347)
(-0.00315866 0.0014977 -0.164288)
(-0.00609276 3.69476e-05 -0.205281)
(-0.000112327 9.9464e-05 -0.212559)
(0.00559663 0.000467637 -0.210428)
(-0.00325681 0.00157042 -0.167235)
(-0.00613276 3.40291e-05 -0.208439)
(-0.000101731 7.9383e-05 -0.215691)
(0.00564177 0.000492342 -0.213298)
(-0.00335523 0.00164355 -0.170027)
(-0.00616837 3.4224e-05 -0.21136)
(-6.66317e-05 6.35181e-05 -0.218612)
(0.00569377 0.000522416 -0.215918)
(-0.00344572 0.00172104 -0.172702)
(-0.00619749 4.13693e-05 -0.214116)
(-2.65488e-05 5.88858e-05 -0.221374)
(0.00575216 0.000545874 -0.218279)
(-0.00351863 0.00180225 -0.17526)
(-0.00621825 4.18666e-05 -0.21677)
(-4.85041e-05 6.38638e-05 -0.224155)
(0.00580366 0.000561149 -0.220557)
(-0.00357 0.00188084 -0.17768)
(-0.00623178 1.82248e-05 -0.21931)
(-0.000209403 4.81883e-05 -0.227182)
(0.00582263 0.00057951 -0.223143)
(-0.00359794 0.00195929 -0.179965)
(-0.00623555 -2.54066e-05 -0.221736)
(-0.000464627 -2.54233e-06 -0.230309)
(0.00580814 0.000619007 -0.226132)
(-0.00359817 0.0020361 -0.182134)
(-0.00621656 -5.28053e-05 -0.224249)
(-0.00067025 -3.93444e-05 -0.232979)
(0.00578046 0.000640247 -0.228919)
(-0.00359118 0.00210126 -0.184173)
(-0.00617739 -3.32119e-05 -0.226924)
(-0.000787432 -5.47457e-05 -0.235138)
(0.00574679 0.000633995 -0.231375)
(-0.00360738 0.0021528 -0.186047)
(-0.00613188 -2.04906e-05 -0.229355)
(-0.000833403 -6.45032e-05 -0.23699)
(0.005717 0.00062781 -0.233758)
(-0.0036304 0.00223786 -0.187863)
(-0.00608297 -3.28149e-05 -0.231452)
(-0.000870074 -8.93905e-05 -0.238697)
(0.00568146 0.000682041 -0.236318)
(-0.00352973 0.00236831 -0.190022)
(-0.00603889 -5.73215e-05 -0.233318)
(-0.000932465 -0.000117664 -0.240303)
(0.00564663 0.000729457 -0.238779)
(-0.00314253 0.00244748 -0.192958)
(-0.00599376 -7.13906e-05 -0.235071)
(-0.0010214 -0.000149896 -0.241811)
(0.00562259 0.000726649 -0.240807)
(-0.00250079 0.00247079 -0.19636)
(-0.0059398 -7.92326e-05 -0.236761)
(-0.00112266 -0.000188091 -0.243223)
(0.00560006 0.000706289 -0.242515)
(-0.00179998 0.00249246 -0.199641)
(-0.00587841 -8.70893e-05 -0.238381)
(-0.00124394 -0.000217522 -0.244586)
(0.00557153 0.000694246 -0.244114)
(-0.00139685 0.00260063 -0.201998)
(-0.00581069 -8.57263e-05 -0.239917)