/*--------------------------------*- C++ -*----------------------------------*\
| =========                 |                                                 |
| \\      /  F ield         | OpenFOAM: The Open Source CFD Toolbox           |
|  \\    /   O peration     | Version:  v1912                                 |
|   \\  /    A nd           | Website:  www.openfoam.com                      |
|    \\/     M anipulation  |                                                 |
\*---------------------------------------------------------------------------*/
FoamFile
{
    version     2.0;
    format      ascii;
    class       surfaceScalarField;
    location    "99.2";
    object      phi;
}
// * * * * * * * * * * * * * * * * * * * * * * * * * * * * * * * * * * * * * //

dimensions      [1 0 -1 0 0 0 0];
oriented        oriented;


internalField   nonuniform List<scalar> 
5500
(
3.32017e-05
0.000957419
3.37801e-05
1.33423e-05
-4.43223e-06
8.29979e-05
2.01377e-06
-2.06083e-05
0.00011042
1.8305e-06
-3.20976e-05
0.000120547
4.66135e-07
-3.04491e-05
0.000123165
-4.69807e-07
-3.07868e-05
0.000124049
-1.83324e-06
-3.04514e-05
0.000123165
-2.01252e-06
-3.21044e-05
0.00012055
-1.33379e-05
-2.06142e-05
0.00011043
-4.44215e-06
8.30167e-05
7.15671e-05
0.000872852
7.83045e-05
5.16373e-05
1.30996e-05
0.000234955
2.6344e-05
-1.70289e-05
0.000294923
1.36619e-05
-4.45232e-05
0.000314594
4.40937e-06
-4.53893e-05
0.00031969
-4.40514e-06
-4.59666e-05
0.000321246
-1.36595e-05
-4.53912e-05
0.00031969
-2.63417e-05
-4.45334e-05
0.000314598
-5.16314e-05
-1.70437e-05
0.000294941
1.30782e-05
0.000234996
7.06627e-05
0.000833956
0.000143888
6.18099e-05
4.50724e-05
0.000396621
3.67244e-05
2.71966e-06
0.000472034
1.92221e-05
-3.87432e-05
0.000495004
6.29628e-06
-4.37615e-05
0.000502248
-6.28584e-06
-4.46269e-05
0.000504283
-1.92152e-05
-4.37609e-05
0.000502247
-3.67212e-05
-3.8753e-05
0.000495008
-6.18058e-05
2.69674e-06
0.000472056
4.50333e-05
0.000396674
5.15887e-05
0.000879598
0.000253437
5.88407e-05
7.01104e-05
0.000574852
3.93556e-05
2.33233e-05
0.000653816
2.06528e-05
-2.60142e-05
0.000677666
6.80133e-06
-3.5944e-05
0.000686779
-6.78763e-06
-3.71147e-05
0.000689251
-2.06433e-05
-3.59398e-05
0.000686777
-3.93517e-05
-2.60214e-05
0.00067767
-5.88379e-05
2.32936e-05
0.00065384
7.00536e-05
0.00057491
6.94655e-05
0.00089685
0.000436965
5.96817e-05
0.000108842
0.000769877
3.97563e-05
4.36213e-05
0.000850822
2.08544e-05
-1.2893e-05
0.00087607
6.89206e-06
-2.80537e-05
0.000886986
-6.87724e-06
-2.94769e-05
0.000889935
-2.08437e-05
-2.8046e-05
0.000886984
-3.97515e-05
-1.2897e-05
0.000876075
-5.96802e-05
4.35879e-05
0.000850847
0.000108772
0.000769936
6.8217e-05
0.000900557
0.000690429
5.86126e-05
0.000137041
0.000988182
4.03184e-05
5.88748e-05
0.00106911
2.12753e-05
-1.77853e-06
0.00109785
7.04281e-06
-2.20696e-05
0.00111081
-7.0286e-06
-2.36851e-05
0.00111436
-2.12641e-05
-2.20595e-05
0.00111081
-4.03123e-05
-1.78014e-06
0.00109785
-5.86111e-05
5.88403e-05
0.00106913
0.000136965
0.000988238
6.48588e-05
0.000873066
0.00099907
5.74635e-05
0.00015202
0.00123319
4.19348e-05
6.72791e-05
0.00131586
2.2433e-05
6.58555e-06
0.00134975
7.40822e-06
-1.83936e-05
0.00136507
-7.39649e-06
-2.02159e-05
0.00136936
-2.24221e-05
-1.83837e-05
0.00136507
-4.1927e-05
6.58406e-06
0.00134975
-5.74611e-05
6.72451e-05
0.00131589
0.000151946
0.00123325
6.36895e-05
0.00080107
0.00134151
5.71944e-05
0.000156898
0.00151119
4.45965e-05
6.79419e-05
0.00159736
2.43898e-05
1.11268e-05
0.00163707
8.00449e-06
-1.76955e-05
0.00165505
-7.99688e-06
-1.98429e-05
0.00166024
-2.43797e-05
-1.76897e-05
0.00165505
-4.45861e-05
1.11215e-05
0.00163709
-5.71897e-05
6.79087e-05
0.00159739
0.000156832
0.00151125
6.39599e-05
0.000688426
0.00170785
5.78141e-05
0.000152466
0.00183006
4.79032e-05
5.87857e-05
0.00191726
2.71253e-05
9.01003e-06
0.00196208
8.82337e-06
-2.20548e-05
0.00198285
-8.81994e-06
-2.47401e-05
0.00198909
-2.71158e-05
-2.20573e-05
0.00198285
-4.78895e-05
8.99615e-06
0.00196209
-5.7806e-05
5.87523e-05
0.00191729
0.00015241
0.00183012
6.34297e-05
0.00210346
0.000547392
5.92131e-05
0.00219359
0.000134692
5.14087e-05
0.00227563
3.64106e-05
3.05282e-05
0.00232355
-4.16404e-06
9.86503e-06
0.00234714
-3.48597e-05
-9.86304e-06
0.00235454
-3.82418e-05
-3.05176e-05
0.00234714
-3.4874e-05
-5.13912e-05
0.00232356
-4.19004e-06
-5.92011e-05
0.00227566
3.63758e-05
0.00219364
0.000134649
-2.90427e-05
5.22648e-05
3.96063e-05
-2.79577e-05
-2.02096e-05
0.000102123
-1.69825e-05
-2.33076e-05
0.000122752
-9.98059e-06
-1.63007e-05
0.000129846
-3.16102e-06
-1.73576e-05
0.000133703
3.15709e-06
-1.70063e-05
0.000134737
9.97902e-06
-1.73607e-05
0.000133704
1.69842e-05
-1.63037e-05
0.000129848
2.79641e-05
-2.33108e-05
0.000122761
-2.02053e-05
0.000102138
-2.23033e-05
5.33309e-05
0.000121856
-2.00346e-05
-6.07744e-05
0.000273251
-1.46299e-05
-4.94129e-05
0.000315623
-7.36697e-06
-3.85536e-05
0.000329584
-2.33087e-06
-3.83272e-05
0.000335624
2.33513e-06
-3.77345e-05
0.000337309
7.371e-06
-3.8331e-05
0.000335624
1.46319e-05
-3.85538e-05
0.000329587
2.00375e-05
-4.94136e-05
0.000315638
-6.07708e-05
0.000273285
-1.31593e-05
6.20768e-06
0.000217343
-7.74964e-06
-9.7327e-05
0.000427764
-6.03697e-06
-6.70749e-05
0.000487984
-1.76086e-06
-5.51491e-05
0.000507324
-5.77608e-07
-5.22311e-05
0.000514969
5.90311e-07
-5.18004e-05
0.000517181
1.77182e-06
-5.22338e-05
0.000514969
6.04009e-06
-5.51402e-05
0.000507326
7.74936e-06
-6.7069e-05
0.000488002
-9.733e-05
0.00042781
-6.64042e-06
-6.37748e-05
0.000336699
-3.9545e-07
-0.000117942
0.000589222
-9.57373e-07
-7.51168e-05
0.00066242
1.51216e-06
-6.56929e-05
0.000685741
5.62626e-07
-5.97103e-05
0.000695208
-5.40925e-07
-5.94066e-05
0.000697961
-1.49738e-06
-5.97061e-05
0.000695206
9.71938e-07
-6.5682e-05
0.000685743
3.93907e-07
-7.50927e-05
0.000662442
-0.00011794
0.000589276
-4.07235e-06
-0.00011692
0.000498248
5.17814e-06
-0.000131507
0.000774192
1.8258e-06
-7.58575e-05
0.000854915
2.85289e-06
-7.23099e-05
0.000881661
1.16043e-06
-6.42001e-05
0.000893168
-1.13484e-06
-6.36793e-05
0.000896503
-2.83449e-06
-6.41882e-05
0.000893166
-1.81833e-06
-7.22858e-05
0.000881663
-5.17913e-06
-7.58237e-05
0.000854939
-0.000131496
0.000774248
-4.76352e-06
-0.000135579
0.000718602
5.67157e-06
-0.000141811
0.000988051
2.70134e-06
-7.57028e-05
0.00107192
3.27465e-06
-7.7821e-05
0.00110279
1.40482e-06
-6.81723e-05
0.00111666
-1.37635e-06
-6.7209e-05
0.00112067
-3.25343e-06
-6.81523e-05
0.00111665
-2.69058e-06
-7.77838e-05
0.00110279
-5.67105e-06
-7.56572e-05
0.00107195
-0.000141784
0.000988106
-6.03387e-06
-0.000122407
0.000997947
3.91416e-06
-0.000150584
0.00123202
2.81955e-06
-7.70928e-05
0.00131835
3.40136e-06
-8.29957e-05
0.00135434
1.54155e-06
-7.21986e-05
0.00137096
-1.5119e-06
-7.0604e-05
0.00137581
-3.37781e-06
-7.21716e-05
0.00137096
-2.80376e-06
-8.29477e-05
0.00135434
-3.91045e-06
-7.70323e-05
0.00131838
-0.00015053
0.00123207
-5.27626e-06
-9.52394e-05
0.00132487
2.32069e-06
-0.000155912
0.00150892
3.21807e-06
-7.94786e-05
0.00159885
3.59501e-06
-8.70253e-05
0.00164073
1.69298e-06
-7.56645e-05
0.00166042
-1.66441e-06
-7.33061e-05
0.0016663
-3.56945e-06
-7.56335e-05
0.00166042
-3.19496e-06
-8.69714e-05
0.00164073
-2.31332e-06
-7.93981e-05
0.00159888
-0.00015582
0.00150897
-2.50916e-06
-6.75417e-05
0.00168514
2.80712e-06
-0.000156056
0.00182489
4.39602e-06
-8.05272e-05
0.00191672
4.01307e-06
-8.85183e-05
0.00196396
1.87746e-06
-7.76164e-05
0.00198694
-1.85349e-06
-7.45414e-05
0.00199406
-3.98603e-06
-7.75878e-05
0.00198694
-4.36209e-06
-8.84672e-05
0.00196396
-2.78442e-06
-8.04291e-05
0.00191675
-0.000155897
0.00182494
1.6215e-06
0.00207755
-4.4926e-05
4.47253e-06
0.0021832
-0.000148521
6.5936e-06
0.00227175
-7.8769e-05
4.80103e-06
0.00232247
-8.56494e-05
2.01858e-06
0.00234881
-7.6508e-05
-2.00121e-06
0.00235735
-7.33303e-05
-4.77359e-06
0.00234881
-7.6489e-05
-6.5442e-06
0.00232248
-8.56155e-05
-4.36776e-06
0.00227178
-7.87164e-05
0.00218324
-0.00014819
-1.55969e-05
3.63435e-06
6.71759e-05
-1.42209e-05
-1.25416e-05
0.000113288
-9.59919e-06
-6.5219e-06
0.000124653
-6.25376e-06
-3.03174e-06
0.000129532
-1.98579e-06
-3.41944e-06
0.000132855
1.98164e-06
-2.90622e-06
0.000133676
6.25088e-06
-3.42019e-06
0.000132855
9.59974e-06
-3.03461e-06
0.000129534
1.42252e-05
-6.52373e-06
0.000124659
-1.25471e-05
0.000113304
-2.65631e-05
-9.61537e-06
0.000188248
-2.84796e-05
-3.49785e-05
0.000297604
-1.83368e-05
-2.40526e-05
0.000323011
-1.06516e-05
-1.38288e-05
0.000332696
-3.56928e-06
-1.30893e-05
0.000338211
3.56684e-06
-1.242e-05
0.000339687
1.06502e-05
-1.30908e-05
0.000338212
1.83377e-05
-1.38335e-05
0.000332699
2.84838e-05
-2.40542e-05
0.000323023
-3.49933e-05
0.000297636
-2.58166e-05
-4.04716e-05
0.000299847
-2.88562e-05
-5.77796e-05
0.000453605
-1.87171e-05
-4.2944e-05
0.000496736
-1.03261e-05
-2.63891e-05
0.000511493
-3.54327e-06
-2.34862e-05
0.000518583
3.54503e-06
-2.29927e-05
0.000520666
1.03279e-05
-2.34878e-05
0.000518583
1.87184e-05
-2.63932e-05
0.000511496
2.88592e-05
-4.29439e-05
0.000496751
-5.78024e-05
0.000453647
-2.31987e-05
-7.95079e-05
0.000422145
-2.57341e-05
-7.56103e-05
0.000609588
-1.74387e-05
-5.77712e-05
0.000668952
-9.35819e-06
-3.73132e-05
0.000688585
-3.2284e-06
-3.17984e-05
0.00069739
3.23374e-06
-3.15634e-05
0.00070007
9.36267e-06
-3.17992e-05
0.000697389
1.74406e-05
-3.73145e-05
0.000688587
2.57367e-05
-5.77691e-05
0.000668971
-7.56397e-05
0.000609639
-2.14107e-05
-0.000115547
0.000577119
-2.28402e-05
-8.73416e-05
0.000787353
-1.67843e-05
-6.74868e-05
0.000858575
-8.93759e-06
-4.6255e-05
0.000882756
-3.05141e-06
-3.8007e-05
0.000893491
3.05879e-06
-3.79448e-05
0.000896775
8.9438e-06
-3.80067e-05
0.000893489
1.6787e-05
-4.62525e-05
0.000882758
2.28433e-05
-6.74835e-05
0.000858597
-8.73763e-05
0.000787407
-2.0838e-05
-0.00013607
0.000780809
-2.15457e-05
-9.46569e-05
0.000996074
-1.71806e-05
-7.38914e-05
0.00107396
-9.22244e-06
-5.43087e-05
0.00110288
-3.08195e-06
-4.33337e-05
0.00111584
3.08958e-06
-4.32339e-05
0.00111979
9.22932e-06
-4.33324e-05
0.00111584
1.71844e-05
-5.43025e-05
0.00110288
2.15502e-05
-7.38878e-05
0.00107399
-9.46949e-05
0.000996129
-2.0947e-05
-0.000136754
0.00104053
-2.14538e-05
-0.000100423
0.00123829
-1.81222e-05
-7.85545e-05
0.00131968
-9.92565e-06
-6.19015e-05
0.00135374
-3.22804e-06
-4.83524e-05
0.00136928
3.23407e-06
-4.78876e-05
0.001374
9.93216e-06
-4.83512e-05
0.00136928
1.81277e-05
-6.18936e-05
0.00135374
2.14602e-05
-7.85514e-05
0.00131971
-0.000100461
0.00123835
-2.0479e-05
-0.000122901
0.00135198
-2.11454e-05
-0.000105679
0.00151484
-1.86994e-05
-8.13595e-05
0.00159921
-1.05898e-05
-6.80996e-05
0.00163882
-3.35039e-06
-5.24753e-05
0.0016573
3.35329e-06
-5.1253e-05
0.00166296
1.05952e-05
-5.24759e-05
0.0016573
1.87073e-05
-6.80937e-05
0.00163882
2.11545e-05
-8.13576e-05
0.00159923
-0.000105714
0.00151489
-1.86676e-05
-0.000104586
0.00170417
-1.96421e-05
-0.000109691
0.00182988
-1.80462e-05
-8.14497e-05
0.00191521
-1.08027e-05
-7.13045e-05
0.00195992
-3.34601e-06
-5.46033e-05
0.00198161
3.34544e-06
-5.22753e-05
0.00198839
1.08068e-05
-5.46079e-05
0.00198161
1.80578e-05
-7.13058e-05
0.00195993
1.96547e-05
-8.145e-05
0.00191524
-0.000109721
0.00182993
-1.50614e-05
0.00209123
-8.81351e-05
-1.66495e-05
0.00218608
-0.00011098
-1.56771e-05
0.00226777
-7.84457e-05
-1.03445e-05
0.00231583
-6.99915e-05
-3.18065e-06
0.00234085
-5.38031e-05
3.1788e-06
0.00234891
-5.01977e-05
1.03488e-05
0.00234085
-5.38129e-05
1.5692e-05
0.00231584
-7.00037e-05
1.66654e-05
0.0022678
-7.84502e-05
0.00218612
-0.000111006
-5.26997e-06
-4.63987e-06
8.23638e-05
-3.63001e-06
-6.29494e-06
0.000117943
-3.04261e-06
-3.02156e-06
0.000127087
-2.30435e-06
-2.20596e-06
0.000131
-7.09088e-07
-2.60192e-06
0.000133861
7.08099e-07
-2.22594e-06
0.000134485
2.30299e-06
-2.60088e-06
0.000133861
3.04224e-06
-2.20617e-06
0.000131001
3.63222e-06
-3.02308e-06
0.000127092
-6.29957e-06
0.000117958
-1.1456e-05
-2.07065e-05
0.000227237
-1.16014e-05
-1.73853e-05
0.00030884
-8.11575e-06
-1.23055e-05
0.00032881
-5.17294e-06
-8.83594e-06
0.000336383
-1.81084e-06
-9.12717e-06
0.000341375
1.81285e-06
-8.74451e-06
0.000342582
5.17382e-06
-9.12416e-06
0.000341374
8.11659e-06
-8.8352e-06
0.000336385
1.16042e-05
-1.2307e-05
0.000328819
-1.73937e-05
0.000308868
-1.21392e-05
-4.84223e-05
0.00035185
-1.33255e-05
-3.18129e-05
0.000469218
-8.9711e-06
-2.45703e-05
0.000504646
-5.28563e-06
-1.77045e-05
0.000516676
-1.94466e-06
-1.72073e-05
0.000523323
1.95148e-06
-1.71573e-05
0.000525182
5.29021e-06
-1.72016e-05
0.000523322
8.97328e-06
-1.77009e-05
0.000516678
1.33273e-05
-2.45691e-05
0.000504659
-3.18225e-05
0.000469256
-1.12224e-05
-8.24476e-05
0.000478621
-1.20689e-05
-4.64274e-05
0.000625049
-7.9965e-06
-3.62059e-05
0.000676515
-4.37991e-06
-2.63465e-05
0.00069361
-1.65984e-06
-2.45585e-05
0.000702022
1.67132e-06
-2.49773e-05
0.000704559
4.38812e-06
-2.45493e-05
0.00070202
7.99998e-06
-2.6338e-05
0.000693612
1.20698e-05
-3.62e-05
0.000676532
-4.64364e-05
0.000625094
-1.02062e-05
-0.00011479
0.000629877
-1.01243e-05
-5.80426e-05
0.000798886
-6.79649e-06
-4.49988e-05
0.000864041
-3.44117e-06
-3.33265e-05
0.000886381
-1.32214e-06
-2.99355e-05
0.000896749
1.33738e-06
-3.08266e-05
0.000899965
3.45251e-06
-2.99222e-05
0.000896747
6.80139e-06
-3.33116e-05
0.000886383
1.01252e-05
-4.49875e-05
0.000864061
-5.80503e-05
0.000798936
-9.58055e-06
-0.000136468
0.000821651
-8.65937e-06
-6.55239e-05
0.00100263
-6.12627e-06
-5.12309e-05
0.00107766
-2.90793e-06
-3.88838e-05
0.00110522
-1.10227e-06
-3.37197e-05
0.00111782
1.11983e-06
-3.49979e-05
0.00112174
2.92164e-06
-3.37026e-05
0.00111782
6.1329e-06
-3.88619e-05
0.00110522
8.66146e-06
-5.12142e-05
0.00107768
-6.55304e-05
0.00100269
-9.52318e-06
-0.000142839
0.00106595
-8.13018e-06
-7.05774e-05
0.00124195
-6.20154e-06
-5.63406e-05
0.00132286
-2.892e-06
-4.41874e-05
0.00135573
-1.04452e-06
-3.71899e-05
0.0013709
1.06271e-06
-3.87102e-05
0.00137561
2.90714e-06
-3.71698e-05
0.0013709
6.21035e-06
-4.41593e-05
0.00135574
8.13477e-06
-5.63192e-05
0.00132289
-7.05829e-05
0.00124201
-9.717e-06
-0.000136568
0.00136515
-8.18608e-06
-7.56307e-05
0.00151837
-6.76225e-06
-6.10093e-05
0.00160245
-3.24382e-06
-4.97838e-05
0.00164089
-1.09539e-06
-4.10856e-05
0.00165905
1.11242e-06
-4.2664e-05
0.00166471
3.25935e-06
-4.10641e-05
0.00165905
6.77378e-06
-4.97517e-05
0.0016409
8.19466e-06
-6.09846e-05
0.00160248
-7.56354e-05
0.00151842
-9.58033e-06
-0.000125291
0.00171207
-8.11666e-06
-8.12628e-05
0.00183405
-7.36288e-06
-6.50409e-05
0.00191849
-3.73457e-06
-5.55693e-05
0.00196207
-1.17557e-06
-4.55432e-05
0.00198351
1.18952e-06
-4.69497e-05
0.00199031
3.74939e-06
-4.55227e-05
0.00198351
7.37771e-06
-5.55373e-05
0.00196208
8.13082e-06
-6.50155e-05
0.00191852
-8.1268e-05
0.00183409
-8.63556e-06
0.00209849
-0.000115258
-7.50069e-06
0.00219035
-8.66625e-05
-7.59924e-06
0.00227088
-6.80499e-05
-4.17431e-06
0.00231798
-6.11525e-05
-1.23833e-06
0.00234277
-5.04016e-05
1.24758e-06
0.00235088
-5.14058e-05
4.18735e-06
0.00234277
-5.03851e-05
7.61781e-06
0.00231799
-6.11261e-05
7.52162e-06
0.00227091
-6.80277e-05
0.00219039
-8.66713e-05
-4.50991e-06
-7.08589e-06
9.84759e-05
-3.33733e-06
-3.24612e-06
0.000120017
-1.91028e-06
-1.83005e-06
0.00012749
-1.26242e-06
-3.2731e-07
0.000130679
-3.03211e-07
-1.55786e-07
0.000133058
3.02464e-07
3.22811e-07
0.000133556
1.26172e-06
-1.55406e-07
0.000133057
1.91024e-06
-3.26892e-07
0.000130679
3.33845e-06
-1.82956e-06
0.000127493
-3.2494e-06
0.000120029
-1.20143e-05
-1.53093e-05
0.000259502
-1.25486e-05
-7.77496e-06
0.000313903
-7.0073e-06
-8.28857e-06
0.000329727
-4.56657e-06
-2.02397e-06
0.000335639
-1.47255e-06
-1.77768e-06
0.000339902
1.47169e-06
-8.9208e-07
0.000340852
4.5659e-06
-1.7768e-06
0.000339901
7.008e-06
-2.02345e-06
0.000335639
1.25515e-05
-8.28784e-06
0.000329734
-7.7849e-06
0.000313927
-1.56744e-05
-2.51107e-05
0.000393015
-1.86549e-05
-1.42016e-05
0.000478625
-1.09513e-05
-1.84556e-05
0.00050711
-6.93535e-06
-5.93139e-06
0.000516568
-2.38697e-06
-5.47222e-06
0.000522469
2.3871e-06
-4.47132e-06
0.000523988
6.93562e-06
-5.47087e-06
0.000522467
1.09528e-05
-5.93082e-06
0.000516569
1.86592e-05
-1.84548e-05
0.00050712
-1.42183e-05
0.000478659
-1.67784e-05
-3.81132e-05
0.000525195
-2.11736e-05
-2.17621e-05
0.000637005
-1.32066e-05
-3.00778e-05
0.000680171
-8.14739e-06
-1.16359e-05
0.000694255
-2.87527e-06
-1.06418e-05
0.000701919
2.87665e-06
-9.75979e-06
0.000704095
8.14886e-06
-1.064e-05
0.000701917
1.3209e-05
-1.16352e-05
0.000694256
2.11788e-05
-3.00771e-05
0.000680184
-2.17846e-05
0.000637046
-1.66038e-05
-5.29729e-05
0.000677959
-2.13987e-05
-2.87488e-05
0.000810667
-1.43477e-05
-4.07964e-05
0.000867708
-8.64733e-06
-1.81035e-05
0.000887148
-3.08624e-06
-1.61958e-05
0.000896742
3.08856e-06
-1.55839e-05
0.000899614
8.64986e-06
-1.6194e-05
0.000896739
1.4351e-05
-1.81026e-05
0.000887149
2.14049e-05
-4.07959e-05
0.000867726
-2.87761e-05
0.000810714
-1.58083e-05
-6.5514e-05
0.000865822
-2.03472e-05
-3.34918e-05
0.00101192
-1.49086e-05
-4.90758e-05
0.0010805
-8.81476e-06
-2.44351e-05
0.00110546
-3.15913e-06
-2.1252e-05
0.00111722
3.16151e-06
-2.09702e-05
0.00112081
8.81795e-06
-2.12506e-05
0.00111722
1.4913e-05
-2.44347e-05
0.00110546
2.03547e-05
-4.90759e-05
0.00108052
-3.35229e-05
0.00101197
-1.48253e-05
-7.04107e-05
0.00110051
-1.88265e-05
-3.54935e-05
0.00124796
-1.52742e-05
-5.45309e-05
0.00132476
-8.91091e-06
-3.03327e-05
0.00135526
-3.18983e-06
-2.5575e-05
0.0013695
3.19098e-06
-2.55954e-05
0.00137385
8.91411e-06
-2.55752e-05
0.0013695
1.52802e-05
-3.03341e-05
0.00135527
1.88357e-05
-5.45319e-05
0.00132479
-3.55271e-05
0.00124801
-1.37709e-05
-6.55876e-05
0.00138789
-1.72159e-05
-3.60182e-05
0.00152234
-1.55167e-05
-5.73509e-05
0.00160357
-9.01346e-06
-3.57277e-05
0.00163979
-3.20967e-06
-2.92142e-05
0.00165689
3.20837e-06
-2.94309e-05
0.00166213
9.01601e-06
-2.92177e-05
0.00165689
1.55244e-05
-3.5733e-05
0.00163979
1.72275e-05
-5.73531e-05
0.0016036
-3.60525e-05
0.00152238
-1.23728e-05
-5.38444e-05
0.00172508
-1.53029e-05
-3.61517e-05
0.00183711
-1.53505e-05
-5.75525e-05
0.00191874
-9.03779e-06
-4.00078e-05
0.00196004
-3.19329e-06
-3.18359e-05
0.00198029
3.18945e-06
-3.20703e-05
0.00198657
9.03957e-06
-3.18442e-05
0.00198028
1.53599e-05
-4.00192e-05
0.00196005
1.53169e-05
-5.7556e-05
0.00191877
-3.61848e-05
0.00183715
-1.01878e-05
0.00210493
-3.98938e-05
-1.27052e-05
0.00219221
-3.55026e-05
-1.43976e-05
0.00226967
-5.46551e-05
-8.92964e-06
0.00231427
-4.17585e-05
-3.11206e-06
0.00233773
-3.26114e-05
3.10796e-06
0.00234517
-3.2579e-05
8.9316e-06
0.00233773
-3.26247e-05
1.44086e-05
0.00231428
-4.1777e-05
1.27214e-05
0.0022697
-5.46596e-05
0.00219225
-3.55333e-05
-4.89084e-07
-1.75806e-06
0.000101215
-1.07892e-06
-1.28149e-06
0.000121888
-1.3725e-06
-1.89673e-06
0.00012968
-9.00558e-07
-2.6338e-06
0.000132841
-2.96755e-07
-2.78376e-06
0.000135238
2.97777e-07
-2.87659e-06
0.000135838
9.0118e-07
-2.78335e-06
0.000135237
1.37236e-06
-2.63253e-06
0.000132841
1.07953e-06
-1.89664e-06
0.000129683
-1.28098e-06
0.000121897
-2.05364e-06
-1.0398e-05
0.000272256
-3.03184e-06
-5.7782e-06
0.000319378
-2.21527e-06
-7.28855e-06
0.000334302
-1.6317e-06
-7.32054e-06
0.000339742
-5.27891e-07
-7.79331e-06
0.000343808
5.3151e-07
-7.89124e-06
0.000344807
1.6341e-06
-7.7916e-06
0.000343807
2.21583e-06
-7.31659e-06
0.000339742
3.03316e-06
-7.28773e-06
0.000334307
-5.7773e-06
0.000319397
-3.21291e-06
-2.64321e-05
0.000415481
-4.19387e-06
-1.28497e-05
0.000486678
-2.32801e-06
-1.44158e-05
0.000512371
-1.72933e-06
-1.22523e-05
0.000520901
-5.72841e-07
-1.29569e-05
0.000526476
5.79739e-07
-1.29996e-05
0.000527943
1.73424e-06
-1.29531e-05
0.000526474
2.32983e-06
-1.22446e-05
0.000520901
4.19525e-06
-1.44131e-05
0.00051238
-1.28485e-05
0.000486706
-3.95068e-06
-4.49467e-05
0.000551617
-4.86329e-06
-2.08043e-05
0.000645872
-2.30698e-06
-2.17019e-05
0.0006849
-1.59758e-06
-1.64945e-05
0.000697788
-5.41972e-07
-1.72116e-05
0.000705118
5.52275e-07
-1.71913e-05
0.000707192
1.60516e-06
-1.7205e-05
0.000705116
2.3102e-06
-1.64819e-05
0.000697789
4.86467e-06
-2.16961e-05
0.000684913
-2.08029e-05
0.000645908
-4.41392e-06
-6.26458e-05
0.000704492
-5.21979e-06
-2.80449e-05
0.000818714
-2.25874e-06
-2.84909e-05
0.000871536
-1.37975e-06
-1.98395e-05
0.000889614
-4.72391e-07
-2.0298e-05
0.000898921
4.85992e-07
-2.02213e-05
0.000901686
1.38991e-06
-2.0288e-05
0.000898918
2.26352e-06
-1.98213e-05
0.000889615
5.22155e-06
-2.84812e-05
0.000871552
-2.80437e-05
0.000818756
-4.60864e-06
-7.65865e-05
0.000888986
-5.24089e-06
-3.3429e-05
0.00101793
-2.20776e-06
-3.43962e-05
0.00108337
-1.15456e-06
-2.25051e-05
0.00110707
-3.88829e-07
-2.24547e-05
0.00111861
4.05283e-07
-2.23352e-05
0.00112213
1.16694e-06
-2.24409e-05
0.00111861
2.21437e-06
-2.2481e-05
0.00110707
5.24378e-06
-3.43822e-05
0.00108339
-3.34283e-05
0.00101798
-4.59452e-06
-8.43959e-05
0.00111752
-4.98067e-06
-3.67166e-05
0.00125163
-2.20929e-06
-3.91818e-05
0.00132678
-9.93852e-07
-2.4748e-05
0.00135629
-3.20736e-07
-2.40122e-05
0.00137039
3.39043e-07
-2.38711e-05
0.00137473
1.0078e-06
-2.39943e-05
0.00137039
2.21812e-06
-2.47188e-05
0.0013563
4.98585e-06
-3.91638e-05
0.0013268
-3.67166e-05
0.00125168
-4.52421e-06
-8.62905e-05
0.00139884
-4.60183e-06
-3.88021e-05
0.0015245
-2.31944e-06
-4.28686e-05
0.00160498
-9.30125e-07
-2.68096e-05
0.00164046
-2.86722e-07
-2.52829e-05
0.00165751
3.05166e-07
-2.51557e-05
0.00166282
9.44861e-07
-2.52614e-05
0.00165751
2.33097e-06
-2.67774e-05
0.00164046
4.61069e-06
-4.28481e-05
0.001605
-3.88028e-05
0.00152455
-4.42123e-06
-8.44869e-05
0.00173214
-4.14678e-06
-4.06191e-05
0.00183865
-2.48989e-06
-4.54504e-05
0.00191966
-9.25261e-07
-2.89408e-05
0.00196061
-2.64748e-07
-2.66151e-05
0.00198096
2.80976e-07
-2.65427e-05
0.00198741
9.39879e-07
-2.65923e-05
0.00198096
2.50473e-06
-2.8909e-05
0.00196062
4.1607e-06
-4.54296e-05
0.00191969
-4.0621e-05
0.0018387
-4.13894e-06
0.00210933
-8.05899e-05
-3.48026e-06
0.00219307
-4.2137e-05
-2.52962e-06
0.00227008
-4.68083e-05
-9.02694e-07
0.00231496
-3.12618e-05
-2.31981e-07
0.00233878
-2.83362e-05
2.43641e-07
0.00234654
-2.83836e-05
9.16276e-07
0.00233878
-2.83156e-05
2.54856e-06
0.00231497
-3.12358e-05
3.50014e-06
0.00227011
-4.67897e-05
0.00219311
-4.21412e-05
-2.98407e-06
-6.9266e-07
0.000107878
-1.98049e-06
-7.06023e-07
0.000121591
-7.61159e-07
1.62991e-08
0.000128444
-4.93976e-07
1.66196e-06
0.000130912
-9.18457e-08
1.96494e-06
0.000132871
9.26093e-08
2.3395e-06
0.000133314
4.94699e-07
1.96547e-06
0.000132869
7.61823e-07
1.663e-06
0.000130911
1.9808e-06
1.78053e-08
0.000128446
-7.06866e-07
0.000121599
-8.7447e-06
4.38142e-06
0.00028468
-9.49866e-06
-4.42074e-07
0.000319868
-5.5946e-06
-2.38663e-06
0.000332801
-3.67893e-06
2.36255e-06
0.000337126
-1.17197e-06
2.68384e-06
0.000340582
1.17235e-06
3.4535e-06
0.000341349
3.6795e-06
2.68483e-06
0.00034058
5.59574e-06
2.36455e-06
0.000337124
9.50102e-06
-2.38445e-06
0.000332804
-4.47257e-07
0.000319885
-1.23447e-05
8.33796e-06
0.000436228
-1.55644e-05
-1.97856e-06
0.000491434
-9.83158e-06
-8.93512e-06
0.000513187
-6.42088e-06
-1.80426e-07
0.000520033
-2.14542e-06
-6.17176e-08
0.000524946
2.14531e-06
9.78203e-07
0.000526128
6.42117e-06
-6.05123e-08
0.000524944
9.833e-06
-1.77922e-07
0.000520032
1.55692e-05
-8.93379e-06
0.000513193
-1.98982e-06
0.000491459
-1.37675e-05
6.34561e-06
0.000581161
-1.87223e-05
-6.36892e-06
0.000655217
-1.25076e-05
-1.83024e-05
0.000688053
-8.08814e-06
-5.47742e-06
0.000698666
-2.76448e-06
-5.51888e-06
0.000705252
2.76425e-06
-4.33841e-06
0.00070698
8.08852e-06
-5.51776e-06
0.000705249
1.25096e-05
-5.47489e-06
0.000698665
1.8729e-05
-1.83028e-05
0.000688063
-6.3858e-06
0.00065525
-1.38381e-05
-1.72264e-06
0.000740254
-1.97628e-05
-1.22839e-05
0.000830554
-1.40976e-05
-2.83211e-05
0.00087589
-9.01792e-06
-1.22051e-05
0.000891262
-3.12783e-06
-1.21928e-05
0.000899704
3.12751e-06
-1.09688e-05
0.000902061
9.01856e-06
-1.21921e-05
0.000899702
1.41005e-05
-1.22033e-05
0.000891261
1.97711e-05
-2.83235e-05
0.000875903
-1.23052e-05
0.000830592
-1.33129e-05
-1.27166e-05
0.000926624
-1.95759e-05
-1.76221e-05
0.00102953
-1.5021e-05
-3.71771e-05
0.00108767
-9.51454e-06
-1.91558e-05
0.00110852
-3.33688e-06
-1.88025e-05
0.00111905
3.33602e-06
-1.76047e-05
0.00112209
9.51529e-06
-1.8803e-05
0.00111904
1.50251e-05
-1.91558e-05
0.00110852
1.95858e-05
-3.71818e-05
0.00108769
-1.76468e-05
0.00102958
-1.25309e-05
-2.18243e-05
0.00115171
-1.8771e-05
-2.10661e-05
0.00126131
-1.55817e-05
-4.38065e-05
0.00133022
-9.80757e-06
-2.55484e-05
0.00135691
-3.46491e-06
-2.45835e-05
0.00136983
3.46264e-06
-2.34371e-05
0.00137363
9.80804e-06
-2.4586e-05
0.00136982
1.55873e-05
-2.55517e-05
0.00135691
1.87825e-05
-4.38137e-05
0.00133024
-2.1093e-05
0.00126136
-1.1574e-05
-2.49324e-05
0.00142511
-1.76078e-05
-2.27532e-05
0.00153222
-1.59243e-05
-4.81737e-05
0.00160766
-1.00342e-05
-3.10814e-05
0.0016401
-3.55506e-06
-2.92618e-05
0.00165571
3.55052e-06
-2.81058e-05
0.00166038
1.00339e-05
-2.92676e-05
0.00165571
1.59316e-05
-3.10898e-05
0.0016401
1.76212e-05
-4.8183e-05
0.00160768
-2.27808e-05
0.00153226
-1.03419e-05
-2.15231e-05
0.00174943
-1.60836e-05
-2.35617e-05
0.0018452
-1.59622e-05
-5.01963e-05
0.00192156
-1.02161e-05
-3.49906e-05
0.00195877
-3.61848e-06
-3.21621e-05
0.00197726
3.61201e-06
-3.08415e-05
0.00198291
1.02153e-05
-3.21721e-05
0.00197726
1.59712e-05
-3.50055e-05
0.00195878
1.60989e-05
-5.02066e-05
0.00192159
-2.35884e-05
0.00184524
-8.65242e-06
0.0021201
-1.49647e-05
-1.4103e-05
0.00219864
-2.36807e-05
-1.55032e-05
0.00227007
-4.8785e-05
-1.03356e-05
0.00231012
-3.53162e-05
-3.66313e-06
0.00233151
-3.15628e-05
3.65748e-06
0.00233825
-2.98754e-05
1.03356e-05
0.0023315
-3.15767e-05
1.55138e-05
0.00231012
-3.53372e-05
1.41196e-05
0.00227009
-4.87943e-05
0.00219868
-2.37053e-05
1.82656e-06
-3.67996e-06
0.000107907
1.62914e-06
3.32878e-06
0.000118459
1.76409e-06
7.19005e-07
0.00012759
1.42606e-06
-2.24442e-07
0.000131474
5.02329e-07
-4.76671e-07
0.000134271
-5.00267e-07
-8.07312e-07
0.000135124
-1.42509e-06
-4.76006e-07
0.00013427
-1.76463e-06
-2.24089e-07
0.000131474
-1.62927e-06
7.16941e-07
0.000127594
3.32546e-06
0.000118468
3.02658e-06
-1.75649e-05
0.000292513
4.45959e-06
5.56501e-06
0.000316199
4.72993e-06
1.45024e-06
0.000331799
3.07221e-06
8.03195e-07
0.000337756
1.14383e-06
-7.27861e-08
0.000342107
-1.13741e-06
-5.25477e-07
0.000343349
-3.06775e-06
-7.06113e-08
0.000342105
-4.72891e-06
8.05705e-07
0.000337755
-4.46036e-06
1.44825e-06
0.000331805
5.56035e-06
0.000316215
2.74607e-06
-2.88714e-05
0.000442042
5.13563e-06
7.92492e-06
0.000486685
5.83337e-06
3.51399e-06
0.000510425
3.56381e-06
4.29516e-06
0.000518811
1.35592e-06
2.66774e-06
0.000524413
-1.34594e-06
2.36226e-06
0.000525942
-3.5563e-06
2.67207e-06
0.000524411
-5.83066e-06
4.30146e-06
0.00051881
-5.13689e-06
3.51459e-06
0.000510433
7.92141e-06
0.000486708
1.73212e-06
-3.12084e-05
0.000580032
4.23606e-06
1.0601e-05
0.000650037
5.68657e-06
5.623e-06
0.000684494
3.4906e-06
8.82506e-06
0.000696332
1.34909e-06
6.53176e-06
0.000703529
-1.33612e-06
6.51922e-06
0.000705509
-3.48054e-06
6.53867e-06
0.000703527
-5.6824e-06
8.83632e-06
0.000696332
-4.2374e-06
5.62787e-06
0.000684504
1.05995e-05
0.000650068
3.55553e-07
-2.59988e-05
0.000734332
2.8824e-06
1.30125e-05
0.000825615
5.27585e-06
6.69127e-06
0.000872428
3.38732e-06
1.3227e-05
0.000888749
1.32177e-06
1.04385e-05
0.000897863
-1.30607e-06
1.07592e-05
0.000900449
-3.37492e-06
1.04482e-05
0.000897861
-5.27022e-06
1.32439e-05
0.000888749
-2.88325e-06
6.7014e-06
0.000872442
1.30129e-05
0.000825652
-2.98793e-07
-1.85967e-05
0.000919819
2.09929e-06
1.53649e-05
0.00102478
5.14579e-06
7.20566e-06
0.00108411
3.51843e-06
1.74239e-05
0.00110595
1.36688e-06
1.4332e-05
0.0011173
-1.34869e-06
1.49444e-05
0.00112062
-3.50383e-06
1.43447e-05
0.0011173
-5.13852e-06
1.74468e-05
0.00110595
-2.09903e-06
7.22131e-06
0.00108413
1.53667e-05
0.00102482
-3.44998e-07
-1.29479e-05
0.00114675
2.21421e-06
1.81455e-05
0.00125597
5.44268e-06
8.18011e-06
0.00132602
3.94947e-06
2.1697e-05
0.00135413
1.50423e-06
1.85087e-05
0.0013681
-1.48399e-06
1.92992e-05
0.00137227
-3.93291e-06
1.85243e-05
0.00136809
-5.43349e-06
2.17254e-05
0.00135413
-2.212e-06
8.20063e-06
0.00132604
1.81479e-05
0.00125602
4.48571e-08
-9.78302e-06
0.00142187
3.06227e-06
2.19231e-05
0.00152543
6.06612e-06
1.01139e-05
0.00160272
4.6247e-06
2.58576e-05
0.00163738
1.71222e-06
2.27826e-05
0.00165435
-1.6909e-06
2.35644e-05
0.00165952
-4.60675e-06
2.28005e-05
0.00165435
-6.05455e-06
2.58897e-05
0.00163739
-3.05689e-06
1.01374e-05
0.00160275
2.19244e-05
0.00152547
7.57973e-07
-7.53344e-06
0.00174568
4.37343e-06
2.66747e-05
0.00183684
6.89725e-06
1.25691e-05
0.00191659
5.4856e-06
2.88059e-05
0.00195724
1.97149e-06
2.6004e-05
0.00197755
-1.95076e-06
2.65112e-05
0.00198389
-5.46725e-06
2.60231e-05
0.00197755
-6.88295e-06
2.88386e-05
0.00195724
-4.36342e-06
1.25923e-05
0.00191661
2.66686e-05
0.00183688
1.46637e-06
0.00211438
-4.7311e-06
6.08428e-06
0.00219012
3.05791e-05
7.89826e-06
0.00226681
1.40109e-05
6.51255e-06
0.00231206
2.8254e-05
2.29411e-06
0.00233598
2.57533e-05
-2.27636e-06
0.00234364
2.56935e-05
-6.4952e-06
0.00233597
2.57714e-05
-7.88064e-06
0.00231207
2.82816e-05
-6.06833e-06
0.00226684
1.40289e-05
0.00219016
3.0566e-05
1.19489e-06
1.54742e-05
9.0044e-05
5.04346e-06
4.42918e-06
0.000110181
4.51447e-06
6.60012e-06
0.000121519
2.57403e-06
6.76678e-06
0.000126648
8.93077e-07
6.16047e-06
0.000129791
-8.91632e-07
6.26656e-06
0.000130642
-2.57285e-06
6.16107e-06
0.00012979
-4.51304e-06
6.76698e-06
0.000126647
-5.0437e-06
6.60195e-06
0.000121522
4.42573e-06
0.000110193
-4.00543e-06
3.85899e-05
0.000277415
-4.91535e-06
1.26153e-05
0.000308923
-2.41703e-06
8.8543e-06
0.000327047
-1.35095e-06
9.28977e-06
0.000334167
-3.67978e-07
8.03504e-06
0.000339249
3.68871e-07
8.26645e-06
0.000340612
1.35123e-06
8.03662e-06
0.000339247
2.4178e-06
9.29009e-06
0.000334166
4.9174e-06
8.85542e-06
0.000327051
1.26058e-05
0.00030894
-6.85923e-06
6.4087e-05
0.000430276
-1.03798e-05
1.53549e-05
0.000487466
-6.66562e-06
4.82562e-06
0.00051074
-3.85186e-06
5.96222e-06
0.000519325
-1.17567e-06