/*--------------------------------*- C++ -*----------------------------------*\
| =========                 |                                                 |
| \\      /  F ield         | OpenFOAM: The Open Source CFD Toolbox           |
|  \\    /   O peration     | Version:  v1912                                 |
|   \\  /    A nd           | Website:  www.openfoam.com                      |
|    \\/     M anipulation  |                                                 |
\*---------------------------------------------------------------------------*/
FoamFile
{
    version     2.0;
    format      ascii;
    class       volVectorField;
    location    "99.2";
    object      wallShearStress;
}
// * * * * * * * * * * * * * * * * * * * * * * * * * * * * * * * * * * * * * //

dimensions      [1 -1 -2 0 0 0 0];


internalField   uniform (0 0 0);

boundaryField
{
    leftWall
    {
        type            calculated;
        value           nonuniform List<vector> 
100
(
(-1.25314e-05 -0.160263 0.00175352)
(-5.14361e-06 -0.0171141 -0.174126)
(-8.43736e-06 -0.000547976 -0.14166)
(-6.33786e-06 0.000202702 -0.333848)
(-5.88501e-06 0.000494105 -0.25266)
(-3.25104e-06 -0.000227614 -0.450004)
(-2.24326e-06 0.000374917 -0.276335)
(-2.03426e-06 2.22705e-05 -0.482961)
(-8.21951e-07 -0.000273298 -0.299924)
(9.67533e-06 0.0155323 -0.28009)
(-0.0519803 -0.0104444 -0.189551)
(0.0471128 0.00221598 -0.357904)
(0.0305235 0.00081925 -0.383276)
(0.0102787 0.000285795 -0.425572)
(0.00988132 0.000171106 -0.414587)
(0.00195431 7.2643e-08 -0.439208)
(0.0064359 5.72626e-06 -0.434601)
(-0.00301116 -0.000223716 -0.420866)
(-0.00175146 -0.00109019 -0.444163)
(-0.0653654 -0.00528543 -0.274278)
(0.00195077 0.00283248 -0.300946)
(0.0335127 0.00248065 -0.438877)
(0.0141831 0.000353283 -0.436838)
(0.00266602 9.73791e-05 -0.456441)
(0.00121326 8.35144e-05 -0.448419)
(0.00104805 8.82792e-05 -0.458979)
(0.000290075 -8.03081e-05 -0.466876)
(-0.0024644 1.51724e-05 -0.441788)
(-0.00774961 -0.0013169 -0.481312)
(-0.0464903 -0.00453368 -0.332826)
(-0.00402916 0.00381754 -0.344215)
(0.0158015 0.00162925 -0.468424)
(0.0097505 5.00195e-05 -0.45134)
(0.00383336 3.82489e-05 -0.477995)
(0.00274776 -8.15022e-06 -0.454231)
(0.00199232 0.000193814 -0.476253)
(0.0013058 -0.000230099 -0.470131)
(-0.00190463 0.000121079 -0.458577)
(-0.00484878 -0.00131014 -0.488165)
(-0.0284435 -0.00371783 -0.369149)
(-0.00150014 0.00355024 -0.349913)
(0.00910762 0.00172521 -0.483119)
(0.0059248 0.000132321 -0.460237)
(0.00227923 0.000100934 -0.493447)
(0.00100977 -9.63714e-06 -0.458833)
(0.000696257 0.000212794 -0.489136)
(0.000294913 -0.000253678 -0.472941)
(-0.00154339 0.00013585 -0.471211)
(-0.00230402 -0.00123127 -0.493423)
(-0.0144747 -0.00372361 -0.386145)
(3.28558e-06 0.00357977 -0.351952)
(3.17043e-06 0.00170626 -0.487761)
(3.65821e-06 9.2572e-05 -0.46181)
(8.55089e-07 5.96883e-05 -0.497981)
(9.8356e-07 -5.49389e-05 -0.458621)
(-7.02953e-07 0.000220146 -0.493211)
(-7.79916e-08 -0.000290281 -0.472529)
(-1.74369e-06 0.000172149 -0.47547)
(-5.87027e-07 -0.00123032 -0.494395)
(-5.27571e-06 -0.00370531 -0.391186)
(0.00150328 0.00355036 -0.349909)
(-0.00910503 0.00172557 -0.483122)
(-0.00592097 0.000132375 -0.460239)
(-0.0022781 0.000100844 -0.493448)
(-0.00100952 -9.65448e-06 -0.45883)
(-0.000697569 0.000212772 -0.489135)
(-0.000296765 -0.000253722 -0.472936)
(0.00154131 0.000135779 -0.471208)
(0.00230126 -0.00123131 -0.493418)
(0.0144654 -0.00372364 -0.386143)
(0.00403177 0.00381809 -0.344221)
(-0.0158004 0.00162963 -0.468435)
(-0.00974764 5.0313e-05 -0.451348)
(-0.00383132 3.82845e-05 -0.478002)
(-0.00274641 -8.19762e-06 -0.454232)
(-0.00199251 0.000193716 -0.476255)
(-0.00130617 -0.000230187 -0.470126)
(0.00190417 0.00012108 -0.458575)
(0.0048481 -0.00131018 -0.488163)
(0.0284345 -0.00371789 -0.36915)
(-0.00195581 0.00283322 -0.300975)
(-0.0335189 0.00248087 -0.438915)
(-0.0141874 0.000353481 -0.436859)
(-0.00266737 9.75845e-05 -0.456465)
(-0.00121397 8.34819e-05 -0.448431)
(-0.00104768 8.82896e-05 -0.458994)
(-0.000290829 -8.04261e-05 -0.466878)
(0.00246552 1.53735e-05 -0.441803)
(0.0077493 -0.00131707 -0.481315)
(0.0464888 -0.00453345 -0.332852)
(0.0519724 -0.0104394 -0.189633)
(-0.0471158 0.00221525 -0.357954)
(-0.0305307 0.000819709 -0.383339)
(-0.0102847 0.000286275 -0.425618)
(-0.0098851 0.000171312 -0.41464)
(-0.00195662 3.5872e-08 -0.439239)
(-0.0064367 5.77156e-06 -0.434633)
(0.00300982 -0.000223371 -0.420895)
(0.00175152 -0.0010899 -0.444192)
(0.0653736 -0.00528572 -0.274342)
)
;
    }
    rightWall
    {
        type            calculated;
        value           nonuniform List<vector> 
100
(
(1.31697e-06 0.0077339 -0.671225)
(1.05388e-05 0.0017374 -0.477611)
(9.02481e-07 0.000303082 -0.370616)
(-3.00148e-06 -0.000353485 -0.37164)
(-8.84088e-07 -0.000119198 -0.339902)
(-1.35807e-06 -4.319e-05 -0.377756)
(1.69569e-06 -9.29796e-05 -0.331867)
(-8.20743e-07 5.18737e-05 -0.397303)
(1.51788e-06 -0.00367002 -0.306212)
(4.56487e-06 -0.00581581 -0.774208)
(-0.00675269 0.00815658 -0.658393)
(0.012164 0.00173261 -0.467861)
(0.00636008 0.000176306 -0.355017)
(0.00441216 -0.000320008 -0.373162)
(-0.000981376 -0.000179859 -0.332099)
(0.00336864 -9.87974e-05 -0.387341)
(-0.00309335 -9.37486e-05 -0.326814)
(0.00119128 -0.000113088 -0.411772)
(-0.0102549 -0.00349467 -0.300529)
(-0.0280675 -0.00527793 -0.803096)
(0.00073626 0.0075488 -0.652617)
(0.0204665 0.000607045 -0.489525)
(0.00990461 6.26285e-05 -0.378188)
(0.00522753 -0.00024194 -0.401602)
(-0.000888815 -8.69383e-05 -0.344474)
(0.00341754 -9.17809e-05 -0.406183)
(-0.00302484 4.56298e-05 -0.332134)
(-0.000573172 -0.000141285 -0.428599)
(-0.0118621 -0.00313346 -0.304097)
(-0.037971 -0.0047696 -0.827752)
(0.00248508 0.00713397 -0.66158)
(0.0138143 0.000576165 -0.50763)
(0.00602327 0.000314295 -0.388645)
(0.00367016 -0.000206075 -0.4164)
(-0.00085436 -3.4537e-05 -0.348219)
(0.00332926 -0.000130425 -0.421723)
(-0.00233956 0.000117018 -0.337577)
(6.56264e-06 -0.000203007 -0.446803)
(-0.00996701 -0.00278816 -0.313664)
(-0.0295783 -0.00474048 -0.842417)
(0.000812894 0.00705433 -0.664834)
(0.00772709 0.000444201 -0.518242)
(0.00472213 0.000211437 -0.396483)
(0.00281439 -0.00020093 -0.430467)
(0.00018784 -5.50855e-05 -0.354069)
(0.00172388 -0.000176235 -0.434482)
(-0.00108615 0.000128726 -0.341944)
(-0.000577723 -0.000215992 -0.459872)
(-0.00547139 -0.00264602 -0.318519)
(-0.0160847 -0.00470339 -0.854883)
(3.41357e-06 0.0070078 -0.665592)
(4.18849e-06 0.000326248 -0.522839)
(3.58039e-06 0.000222707 -0.400216)
(3.13619e-06 -0.000188285 -0.434627)
(2.24315e-07 -1.98463e-05 -0.35562)
(4.83113e-07 -0.00015072 -0.437159)
(-1.94933e-06 0.000169663 -0.342661)
(-8.4511e-07 -0.000213123 -0.46301)
(-2.33512e-06 -0.00262769 -0.319756)
(-7.78189e-06 -0.00466502 -0.859162)
(-0.00081167 0.00705387 -0.664832)
(-0.00772872 0.000443662 -0.51826)
(-0.0047183 0.000211465 -0.396486)
(-0.00280916 -0.000200915 -0.430478)
(-0.000187535 -5.50578e-05 -0.354067)
(-0.00172284 -0.000176252 -0.434489)
(0.00108229 0.000128717 -0.341938)
(0.000577124 -0.000215991 -0.459878)
(0.00546581 -0.00264591 -0.318511)
(0.0160747 -0.00470311 -0.854891)
(-0.0024856 0.00713394 -0.661583)
(-0.0138291 0.000575855 -0.507653)
(-0.00602716 0.000314001 -0.38865)
(-0.00366925 -0.000206118 -0.416423)
(0.000854075 -3.46099e-05 -0.348221)
(-0.00332869 -0.000130417 -0.421738)
(0.00233822 0.000117049 -0.337569)
(-6.38996e-06 -0.000203026 -0.446814)
(0.00996409 -0.00278795 -0.313656)
(0.0295733 -0.00474026 -0.84243)
(-0.000740489 0.00754846 -0.652625)
(-0.0204778 0.000609016 -0.489537)
(-0.00991119 6.26968e-05 -0.378174)
(-0.00523235 -0.000241934 -0.401616)
(0.000887696 -8.68371e-05 -0.344472)
(-0.00341975 -9.18234e-05 -0.406201)
(0.00302551 4.58175e-05 -0.332128)
(0.000572086 -0.000141396 -0.428616)
(0.0118648 -0.00313287 -0.304087)
(0.0379738 -0.00476952 -0.827772)
(0.00674827 0.00815691 -0.658404)
(-0.0121557 0.00173481 -0.467869)
(-0.00636132 0.000176512 -0.355009)
(-0.00441889 -0.00032004 -0.373167)
(0.000979936 -0.000179965 -0.332097)
(-0.00337231 -9.877e-05 -0.387347)
(0.00309535 -9.37347e-05 -0.326811)
(-0.00119325 -0.00011317 -0.411776)
(0.0102591 -0.00349485 -0.30053)
(0.0280773 -0.00527782 -0.803101)
)
;
    }
    leftSides_periodic0
    {
        type            cyclic;
    }
    leftSides_periodic1
    {
        type            cyclic;
    }
    rightSides_periodic0
    {
        type            cyclic;
    }
    rightSides_periodic1
    {
        type            cyclic;
    }
    leftInOut_periodic0
    {
        type            cyclic;
    }
    leftInOut_periodic1
    {
        type            cyclic;
    }
    rightInOut_periodic0
    {
        type            cyclic;
    }
    rightInOut_periodic1
    {
        type            cyclic;
    }
}


// ************************************************************************* //
