-0.0075 	0 	0 	0
-0.0075 	1.12397e-34 	3.8858e-36 	-9.52746e-33
-0.00745622 	0.000147723 	5.1071e-06 	-0.0125219
-0.00745622 	0.000147723 	5.1071e-06 	-0.0125219
-0.00741165 	0.000202825 	9.43569e-06 	-0.0237725
-0.00741165 	0.000202825 	9.43569e-06 	-0.0237725
-0.00736628 	0.000204643 	1.31454e-05 	-0.034681
-0.00736628 	0.000204643 	1.31454e-05 	-0.034681
-0.0073201 	0.000205359 	1.45776e-05 	-0.0457293
-0.0073201 	0.000205359 	1.45776e-05 	-0.0457293
-0.00727309 	0.000214151 	1.60991e-05 	-0.0568574
-0.00727309 	0.000214151 	1.60991e-05 	-0.0568574
-0.00722524 	0.00022372 	1.7171e-05 	-0.0678594
-0.00722524 	0.00022372 	1.7171e-05 	-0.0678594
-0.00717653 	0.00023108 	1.8025e-05 	-0.078588
-0.00717653 	0.00023108 	1.8025e-05 	-0.078588
-0.00712695 	0.000235008 	1.87748e-05 	-0.0889336
-0.00712695 	0.000235008 	1.87748e-05 	-0.0889336
-0.00707647 	0.000235064 	1.92826e-05 	-0.0988129
-0.00707647 	0.000235064 	1.92826e-05 	-0.0988129
-0.0070251 	0.000231399 	1.95901e-05 	-0.108173
-0.0070251 	0.000231399 	1.95901e-05 	-0.108173
-0.0069728 	0.0002246 	1.98304e-05 	-0.117
-0.0069728 	0.0002246 	1.98304e-05 	-0.117
-0.00691956 	0.000215261 	1.99026e-05 	-0.125316
-0.00691956 	0.000215261 	1.99026e-05 	-0.125316
-0.00686537 	0.000203834 	1.99899e-05 	-0.133161
-0.00686537 	0.000203834 	1.99899e-05 	-0.133161
-0.00681021 	0.000190562 	2.00413e-05 	-0.14057
-0.00681021 	0.000190562 	2.00413e-05 	-0.14057
-0.00675406 	0.000175528 	1.998e-05 	-0.147573
-0.00675406 	0.000175528 	1.998e-05 	-0.147573
-0.0066969 	0.000158971 	1.9984e-05 	-0.154198
-0.0066969 	0.000158971 	1.9984e-05 	-0.154198
-0.00663871 	0.000141246 	1.99846e-05 	-0.16047
-0.00663871 	0.000141246 	1.99846e-05 	-0.16047
-0.00657949 	0.000122686 	1.99729e-05 	-0.166415
-0.00657949 	0.000122686 	1.99729e-05 	-0.166415
-0.0065192 	0.000103606 	1.99857e-05 	-0.172053
-0.0065192 	0.000103606 	1.99857e-05 	-0.172053
-0.00645783 	8.42933e-05 	1.99958e-05 	-0.177408
-0.00645783 	8.42933e-05 	1.99958e-05 	-0.177408
-0.00639535 	6.49845e-05 	1.99973e-05 	-0.182499
-0.00639535 	6.49845e-05 	1.99973e-05 	-0.182499
-0.00633176 	4.58593e-05 	1.99792e-05 	-0.187344
-0.00633176 	4.58593e-05 	1.99792e-05 	-0.187344
-0.00626703 	2.70702e-05 	1.99581e-05 	-0.191959
-0.00626703 	2.70702e-05 	1.99581e-05 	-0.191959
-0.00620114 	8.83758e-06 	1.99547e-05 	-0.196356
-0.00620114 	8.83758e-06 	1.99547e-05 	-0.196356
-0.00613406 	-8.53444e-06 	1.9839e-05 	-0.200543
-0.00613406 	-8.53444e-06 	1.9839e-05 	-0.200543
-0.00606579 	-2.49034e-05 	1.91924e-05 	-0.204527
-0.00606579 	-2.49034e-05 	1.91924e-05 	-0.204527
-0.00599629 	-4.06556e-05 	1.75918e-05 	-0.208322
-0.00599629 	-4.06556e-05 	1.75918e-05 	-0.208322
-0.00592554 	-5.65796e-05 	1.54571e-05 	-0.211956
-0.00592554 	-5.65796e-05 	1.54571e-05 	-0.211956
-0.00585352 	-7.27068e-05 	1.42818e-05 	-0.215466
-0.00585352 	-7.27068e-05 	1.42818e-05 	-0.215466
-0.00578022 	-8.70937e-05 	1.48882e-05 	-0.218882
-0.00578022 	-8.70937e-05 	1.48882e-05 	-0.218882
-0.00570559 	-9.6831e-05 	1.54978e-05 	-0.22219
-0.00570559 	-9.6831e-05 	1.54978e-05 	-0.22219
-0.00562963 	-0.000101594 	1.26693e-05 	-0.225329
-0.00562963 	-0.000101594 	1.26693e-05 	-0.225329
-0.00555231 	-0.000106114 	6.31552e-06 	-0.228238
-0.00555231 	-0.000106114 	6.31552e-06 	-0.228238
-0.0054736 	-0.000116917 	1.02098e-06 	-0.230916
-0.0054736 	-0.000116917 	1.02098e-06 	-0.230916
-0.00539348 	-0.000135409 	-1.07037e-07 	-0.233425
-0.00539348 	-0.000135409 	-1.07037e-07 	-0.233425
-0.00531193 	-0.000156655 	-6.08884e-07 	-0.235836
-0.00531193 	-0.000156655 	-6.08884e-07 	-0.235836
-0.00522891 	-0.0001758 	-7.75111e-06 	-0.238197
-0.00522891 	-0.0001758 	-7.75111e-06 	-0.238197
-0.0051444 	-0.000194103 	-1.9844e-05 	-0.240561
-0.0051444 	-0.000194103 	-1.9844e-05 	-0.240561
-0.00505838 	-0.000215903 	-2.44114e-05 	-0.243007
-0.00505838 	-0.000215903 	-2.44114e-05 	-0.243007
-0.00497081 	-0.000239465 	-1.62347e-05 	-0.245567
-0.00497081 	-0.000239465 	-1.62347e-05 	-0.245567
-0.00488168 	-0.000255697 	-1.13927e-05 	-0.248065
-0.00488168 	-0.000255697 	-1.13927e-05 	-0.248065
-0.00479094 	-0.000260173 	-2.62235e-05 	-0.250239
-0.00479094 	-0.000260173 	-2.62235e-05 	-0.250239
-0.00469858 	-0.000260562 	-4.84441e-05 	-0.252102
-0.00469858 	-0.000260562 	-4.84441e-05 	-0.252102
-0.00460456 	-0.000265588 	-5.97838e-05 	-0.25387
-0.00460456 	-0.000265588 	-5.97838e-05 	-0.25387
-0.00450886 	-0.000276477 	-6.09329e-05 	-0.255651
-0.00450886 	-0.000276477 	-6.09329e-05 	-0.255651
-0.00441144 	-0.000291084 	-6.28618e-05 	-0.25742
-0.00441144 	-0.000291084 	-6.28618e-05 	-0.25742
-0.00431227 	-0.000308149 	-7.38506e-05 	-0.259124
-0.00431227 	-0.000308149 	-7.38506e-05 	-0.259124
-0.00421133 	-0.000328091 	-8.4194e-05 	-0.260747
-0.00421133 	-0.000328091 	-8.4194e-05 	-0.260747
-0.00410857 	-0.00034214 	-8.03184e-05 	-0.262338
-0.00410857 	-0.00034214 	-8.03184e-05 	-0.262338
-0.00400397 	-0.000326065 	-7.78287e-05 	-0.264052
-0.00400397 	-0.000326065 	-7.78287e-05 	-0.264052
-0.0038975 	-0.000260292 	-0.000106001 	-0.26609
-0.0038975 	-0.000260292 	-0.000106001 	-0.26609
-0.00378912 	-0.000153925 	-0.000157612 	-0.26839
-0.00378912 	-0.000153925 	-0.000157612 	-0.26839
-0.00367879 	-8.85723e-05 	-0.000162351 	-0.270227
-0.00367879 	-8.85723e-05 	-0.000162351 	-0.270227
-0.00356649 	-0.000113301 	-0.000122281 	-0.271285
-0.00356649 	-0.000113301 	-0.000122281 	-0.271285
-0.00345217 	-0.000173142 	-0.000107853 	-0.272181
-0.00345217 	-0.000173142 	-0.000107853 	-0.272181
-0.0033358 	-0.00022045 	-0.000124642 	-0.273384
-0.0033358 	-0.00022045 	-0.000124642 	-0.273384
-0.00321735 	-0.000248815 	-0.000144617 	-0.274878
-0.00321735 	-0.000248815 	-0.000144617 	-0.274878
-0.00309677 	-0.00026403 	-0.000152462 	-0.276325
-0.00309677 	-0.00026403 	-0.000152462 	-0.276325
-0.00297403 	-0.000269446 	-0.000157982 	-0.277509
-0.00297403 	-0.000269446 	-0.000157982 	-0.277509
-0.00284909 	-0.000273182 	-0.000166605 	-0.278476
-0.00284909 	-0.000273182 	-0.000166605 	-0.278476
-0.0027219 	-0.000280262 	-0.000174434 	-0.279332
-0.0027219 	-0.000280262 	-0.000174434 	-0.279332
-0.00259244 	-0.000288057 	-0.000180814 	-0.280129
-0.00259244 	-0.000288057 	-0.000180814 	-0.280129
-0.00246065 	-0.000293125 	-0.000187094 	-0.28087
-0.00246065 	-0.000293125 	-0.000187094 	-0.28087
-0.00232651 	-0.000293347 	-0.000194348 	-0.281557
-0.00232651 	-0.000293347 	-0.000194348 	-0.281557
-0.00218995 	-0.000288318 	-0.000202021 	-0.282193
-0.00218995 	-0.000288318 	-0.000202021 	-0.282193
-0.00205095 	-0.000279524 	-0.000209205 	-0.282773
-0.00205095 	-0.000279524 	-0.000209205 	-0.282773
-0.00190946 	-0.000268526 	-0.000215557 	-0.283298
-0.00190946 	-0.000268526 	-0.000215557 	-0.283298
-0.00176543 	-0.000255681 	-0.000220823 	-0.283767
-0.00176543 	-0.000255681 	-0.000220823 	-0.283767
-0.00161881 	-0.000240662 	-0.000224861 	-0.28418
-0.00161881 	-0.000240662 	-0.000224861 	-0.28418
-0.00146957 	-0.000223752 	-0.000227699 	-0.284536
-0.00146957 	-0.000223752 	-0.000227699 	-0.284536
-0.00131765 	-0.000206022 	-0.000229064 	-0.284834
-0.00131765 	-0.000206022 	-0.000229064 	-0.284834
-0.001163 	-0.000188549 	-0.000227909 	-0.285071
-0.001163 	-0.000188549 	-0.000227909 	-0.285071
-0.00100559 	-0.000172192 	-0.000224841 	-0.28524
-0.00100559 	-0.000172192 	-0.000224841 	-0.28524
-0.000845345 	-0.000159063 	-0.000225464 	-0.285317
-0.000845345 	-0.000159063 	-0.000225464 	-0.285317
-0.000682232 	-0.000151813 	-0.000222633 	-0.285271
-0.000682232 	-0.000151813 	-0.000222633 	-0.285271
-0.000516194 	-0.000148545 	-0.000210293 	-0.285103
-0.000516194 	-0.000148545 	-0.000210293 	-0.285103
-0.000347178 	-0.000144742 	-0.000201928 	-0.284895
-0.000347178 	-0.000144742 	-0.000201928 	-0.284895
-0.000175132 	-0.000142221 	-0.000186106 	-0.284685
-0.000175132 	-0.000142221 	-0.000186106 	-0.284685
0 	-0.000146913 	-0.00016297 	-0.284391
0 	-0.000146913 	-0.00016297 	-0.284391
0 	-0.000146913 	-0.00016297 	-0.284391
0 	-0.000146913 	-0.00016297 	-0.284391
0.000175132 	-0.000160023 	-0.000144458 	-0.283939
0.000175132 	0.00221198 	0.00154691 	-0.278638
0.000347178 	-0.000178073 	-0.00012295 	-0.283361
0.000347178 	0.0016992 	0.00153617 	-0.278807
0.000516194 	-0.000198243 	-0.000109669 	-0.282721
0.000516194 	0.00116011 	0.00151671 	-0.27885
0.000682232 	-0.000219986 	-9.98051e-05 	-0.28204
0.000682232 	0.000599058 	0.00150203 	-0.278797
0.000845345 	-0.000244555 	-7.33022e-05 	-0.28135
0.000845345 	1.38559e-05 	0.00155524 	-0.278961
0.00100559 	-0.000270386 	-3.7959e-05 	-0.280745
0.00100559 	-0.000588792 	0.00165585 	-0.280315
0.001163 	-0.000289929 	-3.97117e-05 	-0.280177
0.001163 	-0.00121284 	0.00152195 	-0.282957
0.00131765 	-0.00031661 	-7.79052e-05 	-0.279089
0.00131765 	-0.00202072 	0.00117575 	-0.283026
0.00146957 	-0.000372592 	-5.3434e-05 	-0.276918
0.00146957 	-0.0031251 	0.00127619 	-0.27548
0.00161881 	-0.000426491 	2.10313e-05 	-0.274583
0.00161881 	-0.00417071 	0.00166768 	-0.26573
0.00176543 	-0.000461549 	6.30857e-05 	-0.272835
0.00176543 	-0.00492079 	0.00172873 	-0.260652
0.00190946 	-0.000498503 	8.06991e-05 	-0.270656
0.00190946 	-0.00557953 	0.00162198 	-0.259065
0.00205095 	-0.000513263 	8.43419e-05 	-0.267413
0.00205095 	-0.00626661 	0.00160166 	-0.258885
0.00218995 	-0.00048654 	8.63155e-05 	-0.264141
0.00218995 	-0.0069598 	0.00164732 	-0.258723
0.00232651 	-0.000446077 	0.000104015 	-0.26185
0.00232651 	-0.00764323 	0.00169336 	-0.258273
0.00246065 	-0.00042135 	0.000126651 	-0.260351
0.00246065 	-0.00831889 	0.00173974 	-0.257607
0.00259244 	-0.000414433 	0.000141633 	-0.259126
0.00259244 	-0.00898351 	0.00178288 	-0.256772
0.0027219 	-0.000413307 	0.000155835 	-0.257834
0.0027219 	-0.00963124 	0.00184023 	-0.255787
0.00284909 	-0.00041321 	0.000177661 	-0.256418
0.00284909 	-0.010276 	0.00196248 	-0.254757
0.00297403 	-0.00041852 	0.000203477 	-0.254962
0.00297403 	-0.0109638 	0.00210786 	-0.254109
0.00309677 	-0.000432861 	0.000217243 	-0.253516
0.00309677 	-0.0117385 	0.00211926 	-0.254262
0.00321735 	-0.000451351 	0.000205937 	-0.251942
0.00321735 	-0.0125856 	0.00190617 	-0.254433
0.0033358 	-0.000458811 	0.000195506 	-0.249828
0.0033358 	-0.0133738 	0.00173694 	-0.251714
0.00345217 	-0.000439339 	0.000224791 	-0.247061
0.00345217 	-0.0139586 	0.00194423 	-0.244599
0.00356649 	-0.000396053 	0.000262096 	-0.244316
0.00356649 	-0.0143531 	0.00226048 	-0.236939
0.00367879 	-0.000354445 	0.000269973 	-0.242129
0.00367879 	-0.0146989 	0.00234179 	-0.232148
0.00378912 	-0.0151187 	0.00227894 	-0.229704
0.00378912 	-0.000337692 	0.000274161 	-0.240355
0.0038975 	-0.000330762 	0.000295797 	-0.238556
0.0038975 	-0.015586 	0.00223629 	-0.228367
0.00400397 	-0.000293923 	0.000306537 	-0.236283
0.00400397 	-0.0160278 	0.00224312 	-0.227151
0.00410857 	-0.000226819 	0.000290708 	-0.233663
0.00410857 	-0.0164463 	0.00224706 	-0.225568
0.00421133 	-0.000162234 	0.000278805 	-0.231159
0.00421133 	-0.0168565 	0.00224308 	-0.22352
0.00431227 	-0.000115798 	0.000284025 	-0.228894
0.00431227 	-0.0172475 	0.00224129 	-0.221207
0.00441144 	-8.33493e-05 	0.000290242 	-0.226766
0.00441144 	-0.0176016 	0.00222554 	-0.218987
0.00450886 	-5.73239e-05 	0.000288338 	-0.224671
0.00450886 	-0.0179217 	0.00221033 	-0.217042
0.00460456 	-3.60076e-05 	0.000287272 	-0.222567
0.00460456 	-0.0182303 	0.00222177 	-0.215306
0.00469858 	-1.91707e-05 	0.000289408 	-0.220429
0.00469858 	-0.0185521 	0.00222598 	-0.213655
0.00479094 	-1.14065e-06 	0.000285613 	-0.218178
0.00479094 	-0.0188827 	0.00217669 	-0.211909
0.00488168 	2.75195e-05 	0.00027448 	-0.21572
0.00488168 	-0.0191688 	0.00210306 	-0.209696
0.00497081 	7.08582e-05 	0.000265481 	-0.213061
0.00497081 	-0.0193522 	0.00207258 	-0.206775
0.00505838 	0.00012162 	0.000262329 	-0.210337
0.00505838 	-0.0194389 	0.00208098 	-0.203541
0.0051444 	0.000167296 	0.000258922 	-0.207668
0.0051444 	-0.0194929 	0.00206942 	-0.200582
0.00522891 	0.00020022 	0.00025058 	-0.20505
0.00522891 	-0.0195703 	0.00201613 	-0.198006
0.00531193 	-0.0196712 	0.00195121 	-0.195596
0.00531193 	0.000222644 	0.000239563 	-0.202412
0.00539348 	0.000241616 	0.000229791 	-0.199702
0.00539348 	-0.0197608 	0.00190308 	-0.19317
0.0054736 	0.00026017 	0.00022007 	-0.196903
0.0054736 	-0.0198211 	0.00185898 	-0.190677
0.00555231 	0.000277484 	0.000209247 	-0.194015
0.00555231 	-0.0198512 	0.00180812 	-0.188139
0.00562963 	0.000292477 	0.000198129 	-0.191034
0.00562963 	-0.0198494 	0.00175447 	-0.185563
0.00570559 	0.000304683 	0.0001869 	-0.187952
0.00570559 	-0.0198138 	0.00169859 	-0.182921
0.00578022 	0.000314096 	0.000175701 	-0.184754
0.00578022 	-0.0197441 	0.00164174 	-0.180185
0.00585352 	0.000320728 	0.000164562 	-0.181427
0.00585352 	-0.019641 	0.00158409 	-0.177338
0.00592554 	0.000324344 	0.000153405 	-0.177959
0.00592554 	-0.0195054 	0.00152502 	-0.174374
0.00599629 	0.000324569 	0.00014226 	-0.174338
0.00599629 	-0.019337 	0.00146463 	-0.171287
0.00606579 	-0.0191339 	0.00140325 	-0.168067
0.00606579 	0.000321117 	0.0001313 	-0.170548
0.00613406 	0.000313892 	0.000120645 	-0.16657
0.00613406 	-0.0188931 	0.00134104 	-0.164695
0.00620114 	0.000302992 	0.000110357 	-0.162386
0.00620114 	-0.0186104 	0.00127819 	-0.161141
0.00626703 	0.00028866 	0.00010052 	-0.157972
0.00626703 	-0.0182813 	0.0012151 	-0.157371
0.00633176 	0.000271166 	9.12104e-05 	-0.153309
0.00633176 	-0.0179014 	0.001152 	-0.153344
0.00639535 	0.000250738 	8.2477e-05 	-0.148373
0.00639535 	-0.0174676 	0.00108886 	-0.149029
0.00645783 	0.000227624 	7.43245e-05 	-0.143144
0.00645783 	-0.0169773 	0.00102568 	-0.144395
0.0065192 	0.00020218 	6.67758e-05 	-0.137601
0.0065192 	-0.016428 	0.000962699 	-0.139405
0.00657949 	0.000174772 	5.98731e-05 	-0.131723
0.00657949 	-0.0158187 	0.000900342 	-0.134025
0.00663871 	0.000145296 	5.36174e-05 	-0.125489
0.00663871 	-0.0151521 	0.000838766 	-0.128238
0.0066969 	0.000113187 	4.80166e-05 	-0.118891
0.0066969 	-0.0144329 	0.000777323 	-0.122053
0.00675406 	7.84768e-05 	4.30319e-05 	-0.111914
0.00675406 	-0.0136618 	0.000715288 	-0.115463
0.00681021 	4.26527e-05 	3.86443e-05 	-0.10455
0.00681021 	-0.0128342 	0.000653306 	-0.108423
0.00686537 	8.71856e-06 	3.48298e-05 	-0.0968098
0.00686537 	-0.011943 	0.000592473 	-0.100899
0.00691956 	-1.95814e-05 	3.14069e-05 	-0.0887401
0.00691956 	-0.0109841 	0.000532944 	-0.0929004
0.0069728 	-3.91535e-05 	2.82229e-05 	-0.0804242
0.0069728 	-0.00996135 	0.000474568 	-0.0844839
0.0070251 	-4.82777e-05 	2.51472e-05 	-0.0719749
0.0070251 	-0.00888792 	0.000417381 	-0.0757501
0.00707647 	-4.68491e-05 	2.20127e-05 	-0.0635206
0.00707647 	-0.00778497 	0.000361481 	-0.0668315
0.00712695 	-3.66821e-05 	1.87042e-05 	-0.055186
0.00712695 	-0.00667988 	0.000306933 	-0.0578765
0.00717653 	-2.15396e-05 	1.51721e-05 	-0.0470747
0.00717653 	-0.00560382 	0.000253848 	-0.0490323
0.00722524 	-7.03147e-06 	1.1433e-05 	-0.0392625
0.00722524 	-0.00459062 	0.000202266 	-0.040441
0.00727309 	-9.72862e-07 	7.6457e-06 	-0.0318042
0.00727309 	-0.00368009 	0.00015321 	-0.0322573
0.0073201 	-1.48433e-05 	4.07294e-06 	-0.0247514
0.0073201 	-0.00292781 	0.000110123 	-0.0246937
0.00736628 	-6.67933e-05 	8.20962e-07 	-0.0181578
0.00736628 	-0.00242256 	6.27285e-05 	-0.0180731
0.00741165 	-0.000136299 	-7.99882e-07 	-0.0120002
0.00741165 	-0.00205101 	3.45027e-05 	-0.0124259
0.00745622 	-0.00013345 	-9.80164e-07 	-0.00606345
0.00745622 	-0.00134219 	1.42097e-05 	-0.0068327
0.0075 	0 	0 	0
0.0075 	0 	0 	0
