/*--------------------------------*- C++ -*----------------------------------*\
| =========                 |                                                 |
| \\      /  F ield         | OpenFOAM: The Open Source CFD Toolbox           |
|  \\    /   O peration     | Version:  v1912                                 |
|   \\  /    A nd           | Website:  www.openfoam.com                      |
|    \\/     M anipulation  |                                                 |
\*---------------------------------------------------------------------------*/
FoamFile
{
    version     2.0;
    format      ascii;
    class       surfaceScalarField;
    location    "8.8";
    object      phi;
}
// * * * * * * * * * * * * * * * * * * * * * * * * * * * * * * * * * * * * * //

dimensions      [1 0 -1 0 0 0 0];
oriented        oriented;


internalField   nonuniform List<scalar> 
97428
(
-4.4167e-10
7.49763e-09
-2.55327e-07
6.46649e-10
7.33349e-09
-2.55021e-07
-2.09455e-10
8.78724e-09
-2.54436e-07
-1.20934e-09
8.93043e-09
-2.56337e-07
-6.19434e-10
8.34866e-09
-2.53781e-07
-2.31356e-10
8.6684e-09
-2.49367e-07
-7.63221e-10
8.8194e-09
-2.46594e-07
-1.17826e-09
8.44488e-09
-2.47411e-07
-8.56471e-10
7.87721e-09
-2.53999e-07
2.83257e-10
7.49724e-09
-2.58739e-07
7.18913e-10
7.86186e-09
-2.55685e-07
8.06844e-09
-2.54432e-07
-1.46003e-09
2.9805e-08
-7.90366e-07
1.64653e-09
2.91842e-08
-7.89614e-07
-5.43913e-10
3.43575e-08
-7.8772e-07
-3.16321e-09
3.48548e-08
-7.93228e-07
-1.47627e-09
3.3079e-08
-7.8575e-07
-5.63547e-10
3.46082e-08
-7.72492e-07
-2.34379e-09
3.51735e-08
-7.63999e-07
-3.61415e-09
3.35203e-08
-7.66473e-07
-2.54659e-09
3.10571e-08
-7.86323e-07
8.09808e-10
2.96616e-08
-8.00643e-07
2.08937e-09
3.11054e-08
-7.91346e-07
3.19164e-08
-7.87535e-07
-2.52084e-09
6.68593e-08
-1.35759e-06
2.60716e-09
6.54576e-08
-1.35669e-06
-7.20453e-10
7.6218e-08
-1.35315e-06
-4.79384e-09
7.71945e-08
-1.36203e-06
-2.10818e-09
7.39997e-08
-1.34996e-06
-8.92821e-10
7.78619e-08
-1.32777e-06
-4.0458e-09
7.90925e-08
-1.31321e-06
-6.12168e-09
7.51494e-08
-1.31739e-06
-4.21565e-09
6.93082e-08
-1.35076e-06
1.33521e-09
6.62742e-08
-1.37493e-06
3.42825e-09
6.95358e-08
-1.35912e-06
7.1351e-08
-1.35265e-06
-3.4977e-09
1.18398e-07
-1.95489e-06
3.73212e-09
1.15847e-07
-1.95429e-06
-6.36493e-10
1.3377e-07
-1.94859e-06
-6.12951e-09
1.35253e-07
-1.96043e-06
-2.60563e-09
1.3073e-07
-1.94437e-06
-1.33316e-09
1.38273e-07
-1.91332e-06
-5.92189e-09
1.40408e-07
-1.8923e-06
-8.65669e-09
1.33085e-07
-1.89822e-06
-5.80727e-09
1.22258e-07
-1.94522e-06
1.89457e-09
1.16933e-07
-1.97949e-06
4.75004e-09
1.22791e-07
-1.95691e-06
1.26008e-07
-1.94769e-06
-4.26224e-09
1.83952e-07
-2.57977e-06
5.19861e-09
1.79848e-07
-2.58006e-06
-1.75944e-10
2.06268e-07
-2.5715e-06
-7.15369e-09
2.08201e-07
-2.58571e-06
-3.03907e-09
2.02726e-07
-2.56656e-06
-2.00304e-09
2.15511e-07
-2.52692e-06
-8.04862e-09
2.18771e-07
-2.49906e-06
-1.1205e-08
2.0691e-07
-2.50668e-06
-7.26812e-09
1.89363e-07
-2.56724e-06
2.51443e-09
1.81063e-07
-2.61178e-06
6.06655e-09
1.90342e-07
-2.58226e-06
1.95347e-07
-2.5702e-06
-4.69325e-09
2.62856e-07
-3.22949e-06
7.18366e-09
2.56756e-07
-3.23138e-06
7.84438e-10
2.92833e-07
-3.21907e-06
-7.84043e-09
2.95113e-07
-3.23489e-06
-3.47016e-09
2.89304e-07
-3.21378e-06
-3.01784e-09
3.09078e-07
-3.1661e-06
-1.05095e-08
3.1367e-07
-3.13104e-06
-1.37677e-08
2.96049e-07
-3.1403e-06
-8.55938e-09
2.69925e-07
-3.21407e-06
3.2135e-09
2.57921e-07
-3.26899e-06
7.38783e-09
2.7151e-07
-3.23246e-06
2.7867e-07
-3.21751e-06
-4.67913e-09
3.54277e-07
-3.90113e-06
9.85601e-09
3.45679e-07
-3.90542e-06
2.36742e-09
3.92486e-07
-3.88829e-06
-8.15719e-09
3.95025e-07
-3.90483e-06
-3.94952e-09
3.89676e-07
-3.88313e-06
-4.4823e-09
4.18332e-07
-3.82821e-06
-1.3385e-08
4.24449e-07
-3.7857e-06
-1.63547e-08
3.99792e-07
-3.79646e-06
-9.6539e-09
3.63131e-07
-3.88286e-06
4.00457e-09
3.46631e-07
-3.94812e-06
8.72404e-09
3.65489e-07
-3.90465e-06
3.75156e-07
-3.8868e-06
-4.12106e-09
4.57273e-07
-4.59182e-06
1.33687e-08
4.45581e-07
-4.59931e-06
4.68706e-09
5.04192e-07
-4.5762e-06
-8.07136e-09
5.07004e-07
-4.59248e-06
-4.51849e-09
5.02988e-07
-4.57169e-06
-6.4857e-09
5.42495e-07
-4.51053e-06
-1.67452e-08
5.5033e-07
-4.46047e-06
-1.89799e-08
5.1734e-07
-4.47261e-06
-1.0535e-08
4.68109e-07
-4.57078e-06
4.89526e-09
4.46219e-07
-4.64619e-06
1.00869e-08
4.71379e-07
-4.59602e-06
4.83887e-07
-4.5753e-06
-2.93546e-09
5.70858e-07
-5.29889e-06
1.78518e-08
5.55348e-07
-5.31037e-06
7.84107e-09
6.26931e-07
-5.28001e-06
-7.55566e-09
6.30202e-07
-5.29513e-06
-5.20995e-09
6.28361e-07
-5.27672e-06
-9.0976e-09
6.80678e-07
-5.21044e-06
-2.06435e-08
6.90446e-07
-5.15292e-06
-2.16576e-08
6.47847e-07
-5.16639e-06
-1.11941e-08
5.83987e-07
-5.2753e-06
5.89035e-09
5.55665e-07
-5.36041e-06
1.14916e-08
5.88225e-07
-5.30393e-06
6.03901e-07
-5.28044e-06
-1.05524e-09
6.9408e-07
-6.02013e-06
2.34073e-08
6.73862e-07
-6.03624e-06
1.19047e-08
7.59754e-07
-5.99737e-06
-6.59248e-09
7.63895e-07
-6.01053e-06
-6.04875e-09
7.6493e-07
-5.99582e-06
-1.23641e-08
8.31919e-07
-5.92553e-06
-2.51127e-08
8.43877e-07
-5.86089e-06
-2.43982e-08
7.90465e-07
-5.87577e-06
-1.16276e-08
7.09943e-07
-5.99431e-06
6.99471e-09
6.73951e-07
-6.0884e-06
1.2959e-08
7.15049e-07
-6.02609e-06
7.34227e-07
-5.99999e-06
1.57158e-09
8.26078e-07
-6.75383e-06
3.01049e-08
8.00085e-07
-6.77509e-06
1.69258e-08
9.01831e-07
-6.72645e-06
-5.17704e-09
9.07482e-07
-6.73703e-06
-7.05196e-09
9.11875e-07
-6.72708e-06
-1.63055e-08
9.95236e-07
-6.65371e-06
-3.01609e-08
1.0097e-06
-6.58257e-06
-2.72051e-08
9.44381e-07
-6.59919e-06
-1.18329e-08
8.4522e-07
-6.72622e-06
8.21673e-09
8.00113e-07
-6.82829e-06
1.45173e-08
8.50892e-07
-6.76068e-06
8.73929e-07
-6.7322e-06
4.97361e-09
9.66125e-07
-7.4989e-06
3.79796e-08
9.33112e-07
-7.52564e-06
2.29212e-08
1.05248e-06
-7.46599e-06
-3.3196e-09
1.06047e-06
-7.47349e-06
-8.22882e-09
1.06846e-06
-7.46903e-06
-2.09142e-08
1.16971e-06
-7.39335e-06
-3.57693e-08
1.18703e-06
-7.31658e-06
-3.00709e-08
1.10883e-06
-7.33553e-06
-1.18049e-08
9.89131e-07
-7.47001e-06
9.57157e-09
9.33277e-07
-7.57875e-06
1.62037e-08
9.94851e-07
-7.50636e-06
1.02215e-06
-7.47581e-06
9.17255e-09
1.11361e-06
-8.25481e-06
4.70293e-08
1.07219e-06
-8.28724e-06
2.98728e-08
1.21117e-06
-8.21531e-06
-1.04235e-09
1.22245e-06
-8.21934e-06
-9.58079e-09
1.23405e-06
-8.22077e-06
-2.61542e-08
1.35454e-06
-8.1433e-06
-4.18906e-08
1.3751e-06
-8.06201e-06
-3.29746e-08
1.28311e-06
-8.08419e-06
-1.15325e-08
1.14102e-06
-8.22514e-06
1.10844e-08
1.07268e-06
-8.33903e-06
1.80659e-08
1.14611e-06
-8.26229e-06
1.1781e-06
-8.2301e-06
1.41679e-08
1.26802e-06
-9.02135e-06
5.72086e-08
1.21671e-06
-9.05958e-06
3.77221e-08
1.37747e-06
-8.97411e-06
1.58787e-09
1.39309e-06
-8.97424e-06
-1.11011e-08
1.40812e-06
-8.98172e-06
-3.1959e-08
1.54912e-06
-8.90284e-06
-4.84458e-08
1.57321e-06
-8.81833e-06
-3.58782e-08
1.46651e-06
-8.84482e-06
-1.09955e-08
1.30023e-06
-8.99133e-06
1.27925e-08
1.21769e-06
-9.1087e-06
2.01622e-08
1.30394e-06
-9.02797e-06
1.3411e-06
-8.99465e-06
1.99396e-08
1.4289e-06
-9.79837e-06
6.8421e-08
1.36614e-06
-9.84244e-06
4.63621e-08
1.55106e-06
-9.74215e-06
4.51634e-09
1.57208e-06
-9.73789e-06
-1.27742e-08
1.59033e-06
-9.75147e-06
-3.8229e-08
1.75306e-06
-9.67145e-06
-5.53201e-08
1.78083e-06
-9.58513e-06
-3.87231e-08
1.65836e-06
-9.61712e-06
-1.01622e-08
1.4661e-06
-9.76829e-06
1.47471e-08
1.36777e-06
-9.88747e-06
2.25616e-08
1.46774e-06
-9.80302e-06
1.51053e-06
-9.76915e-06
2.6445e-08
1.59576e-06
-1.05857e-05
8.05143e-08
1.51998e-06
-1.06356e-05
5.56333e-08
1.73164e-06
-1.05192e-05
7.65072e-09
1.75916e-06
-1.051e-05
-1.45752e-08
1.78043e-06
-1.05297e-05
-4.48312e-08
1.96615e-06
-1.04489e-05
-6.23624e-08
1.99751e-06
-1.03621e-05
-4.14288e-08
1.85798e-06
-1.04008e-05
-8.98781e-09
1.63793e-06
-1.05557e-05
1.70146e-08
1.52246e-06
-1.06751e-05
2.53432e-08
1.63698e-06
-1.05871e-05
1.68585e-06
-1.05533e-05
3.36156e-08
1.76803e-06
-1.13829e-05
9.32742e-08
1.67766e-06
-1.14387e-05
6.53198e-08
1.91892e-06
-1.1305e-05
1.08728e-08
1.95406e-06
-1.12904e-05
-1.64697e-08
1.97822e-06
-1.13162e-05
-5.15984e-08
2.18828e-06
-1.12349e-05
-6.93845e-08
2.22281e-06
-1.11491e-05
-4.38921e-08
2.0646e-06
-1.11954e-05
-7.41354e-09
1.81495e-06
-1.13531e-05
1.96763e-08
1.6813e-06
-1.14712e-05
2.85941e-08
1.81114e-06
-1.138e-05
1.86646e-06
-1.13468e-05
4.13544e-08
1.94502e-06
-1.21893e-05
1.06422e-07
1.8385e-06
-1.22509e-05
7.51479e-08
2.11249e-06
-1.2099e-05
1.40432e-08
2.15645e-06
-1.20783e-05
-1.84132e-08
2.18347e-06
-1.21105e-05
-5.8331e-08
2.41926e-06
-1.20292e-05
-7.61627e-08
2.45624e-06
-1.19455e-05
-4.59875e-08
2.27738e-06
-1.20002e-05
-5.36701e-09
1.99633e-06
-1.21598e-05
2.28271e-08
1.84373e-06
-1.22752e-05
3.24066e-08
1.98963e-06
-1.21809e-05
2.05169e-06
-1.2149e-05
4.95343e-08
2.12586e-06
-1.30038e-05
1.19617e-07
2.00168e-06
-1.30711e-05
8.47899e-08
2.31182e-06
-1.29003e-05
1.70038e-08
2.36588e-06
-1.28731e-05
-2.03519e-08
2.39577e-06
-1.29119e-05
-6.48004e-08
2.65878e-06
-1.28312e-05
-8.24425e-08
2.69714e-06
-1.27508e-05
-4.75699e-08
2.49537e-06
-1.28144e-05
-2.76419e-09
2.18108e-06
-1.29746e-05
2.65724e-08
2.00902e-06
-1.30862e-05
3.68728e-08
2.17174e-06
-1.2989e-05
2.24072e-06
-1.29591e-05
5.79991e-08
2.30952e-06
-1.38247e-05
1.32462e-07
2.16623e-06
-1.38976e-05
9.38728e-08
2.51623e-06
-1.37077e-05
1.95828e-08
2.58173e-06
-1.36737e-05
-2.22234e-08
2.61448e-06
-1.37195e-05
-7.07569e-08
2.90621e-06
-1.364e-05
-8.79477e-08
2.94464e-06
-1.35637e-05
-4.84799e-08
2.71741e-06
-1.36365e-05
4.87138e-10
2.36812e-06
-1.37964e-05
3.10228e-08
2.17628e-06
-1.39027e-05
4.20788e-08
2.35655e-06
-1.3803e-05
2.43256e-06
-1.37756e-05
6.65663e-08
2.49484e-06
-1.46501e-05
1.44521e-07
2.33107e-06
-1.47282e-05
1.01993e-07
2.72485e-06
-1.45197e-05
2.16033e-08
2.80313e-06
-1.44788e-05
-2.39596e-08
2.83863e-06
-1.45319e-05
-7.5941e-08
3.16061e-06
-1.44542e-05
-9.23936e-08
3.19756e-06
-1.4383e-05
-4.85509e-08
2.94219e-06
-1.44649e-05
4.48338e-09
2.55615e-06
-1.46232e-05
3.62871e-08
2.34436e-06
-1.4723e-05
4.80968e-08
2.54295e-06
-1.46212e-05
2.62599e-06
-1.4597e-05
7.5033e-08
2.68057e-06
-1.54777e-05
1.55336e-07
2.49502e-06
-1.55607e-05
1.08737e-07
2.93662e-06
-1.53343e-05
2.28945e-08
3.02896e-06
-1.52868e-05
-2.54892e-08
3.06696e-06
-1.53474e-05
-8.00983e-08
3.42062e-06
-1.52723e-05
-9.5503e-08
3.45444e-06
-1.52067e-05
-4.76201e-08
3.1682e-06
-1.52974e-05
9.30769e-09
2.74374e-06
-1.5453e-05
4.24639e-08
2.51192e-06
-1.55449e-05
5.49777e-08
2.72964e-06
-1.54415e-05
2.81959e-06
-1.54211e-05
8.31827e-08
2.86539e-06
-1.63049e-05
1.64452e-07
2.65687e-06
-1.63922e-05
1.13706e-07
3.15029e-06
-1.61495e-05
2.33032e-08
3.25786e-06
-1.60959e-05
-2.67418e-08
3.29783e-06
-1.6164e-05
-8.29962e-08
3.68455e-06
-1.60921e-05
-9.70257e-08
3.7135e-06
-1.60327e-05
-4.55394e-08
3.3937e-06
-1.61318e-05
1.50463e-08
2.92924e-06
-1.62834e-05
4.9632e-08
2.67747e-06
-1.63661e-05
6.27432e-08
2.91514e-06
-1.62617e-05
3.01177e-06
-1.62458e-05
9.07942e-08
3.04793e-06
-1.71289e-05
1.71443e-07
2.8154e-06
-1.72198e-05
1.16538e-07
3.36448e-06
-1.69629e-05
2.27061e-08
3.48816e-06
-1.6904e-05
-2.7652e-08
3.52931e-06
-1.69798e-05
-8.44407e-08
3.9503e-06
-1.69116e-05
-9.67578e-08
3.97267e-06
-1.68587e-05
-4.21891e-08
3.61679e-06
-1.69653e-05
2.17548e-08
3.11089e-06
-1.71118e-05
5.78402e-08
2.83937e-06
-1.71841e-05
7.13791e-08
3.09783e-06
-1.70791e-05
3.20075e-06
-1.70683e-05
9.76505e-08
3.22689e-06
-1.7947e-05
1.75936e-07
2.96945e-06
-1.80405e-05
1.16938e-07
3.57768e-06
-1.77722e-05
2.10211e-08
3.71799e-06
-1.77091e-05
-2.81626e-08
3.75916e-06
-1.77922e-05
-8.42911e-08
4.21547e-06
-1.77282e-05
-9.45594e-08
4.22962e-06
-1.76819e-05
-3.74893e-08
3.83541e-06
-1.77951e-05
2.94634e-08
3.28684e-06
-1.79353e-05
6.70992e-08
2.99591e-06
-1.79962e-05
8.08307e-08
3.27602e-06
-1.78912e-05
3.38465e-06
-1.78862e-05
1.03548e-07
3.401e-06
-1.87563e-05
1.77639e-07
3.11797e-06
-1.88513e-05
1.14698e-07
3.78827e-06
-1.8575e-05
1.82159e-08
3.94523e-06
-1.8509e-05
-2.82278e-08
3.98488e-06
-1.85991e-05
-8.24723e-08
4.47735e-06
-1.85396e-05
-9.03693e-08
4.48179e-06
-1.84998e-05
-3.1411e-08
4.04739e-06
-1.86183e-05
3.81676e-08
3.4552e-06
-1.87513e-05
7.73738e-08
3.14535e-06
-1.87999e-05
9.10002e-08
3.44798e-06
-1.86953e-05
3.5615e-06
-1.86965e-05
1.08302e-07
3.56911e-06
-1.95542e-05
1.76352e-07
3.26011e-06
-1.96496e-05
1.0971e-07
3.99461e-06
-1.93689e-05
1.43132e-08
4.16758e-06
-1.93015e-05
-2.7815e-08
4.20376e-06
-1.9398e-05
-7.89813e-08
4.73296e-06
-1.93432e-05
-8.42142e-08
4.72643e-06
-1.93094e-05
-2.39827e-08
4.25053e-06
-1.9432e-05
4.78241e-08
3.61406e-06
-1.9557e-05
8.85795e-08
3.28599e-06
-1.95926e-05
1.01747e-07
3.61199e-06
-1.94889e-05
3.72933e-06
-1.94968e-05
1.11759e-07
3.73021e-06
-2.03383e-05
1.71985e-07
3.39519e-06
-2.04327e-05
1.01982e-07
4.19502e-06
-2.01516e-05
9.39278e-09
4.38256e-06
-2.00847e-05
-2.69057e-08
4.41293e-06
-2.01866e-05
-7.38891e-08
4.97917e-06
-2.01364e-05
-7.62116e-08
4.96071e-06
-2.01083e-05
-1.52935e-08
4.44262e-06
-2.02335e-05
5.83493e-08
3.76163e-06
-2.03498e-05
1.00581e-07
3.41619e-06
-2.0372e-05
1.12891e-07
3.76641e-06
-2.02695e-05
3.88619e-06
-2.02845e-05
1.13795e-07
3.88349e-06
-2.11064e-05
1.64559e-07
3.52279e-06
-2.11985e-05
9.16338e-08
4.38783e-06
-2.09212e-05
3.58856e-09
4.58759e-06
-2.08563e-05
-2.54953e-08
4.60943e-06
-2.09627e-05
-6.73365e-08
5.21271e-06
-2.0917e-05
-6.65657e-08
5.18175e-06
-2.08939e-05
-5.49138e-09
4.62154e-06
-2.10203e-05
6.96199e-08
3.8962e-06
-2.11276e-05
1.13195e-07
3.53448e-06
-2.11361e-05
1.24218e-07
3.9097e-06
-2.10352e-05
4.03022e-06
-2.10574e-05
1.14322e-07
4.02833e-06
-2.18569e-05
1.54204e-07
3.64273e-06
-2.19454e-05
7.88926e-08
4.57141e-06
-2.1676e-05
-2.91581e-09
4.78004e-06
-2.16147e-05
-2.35928e-08
4.79031e-06
-2.17242e-05
-5.95246e-08
5.43033e-06
-2.16828e-05
-5.55566e-08
5.38673e-06
-2.16639e-05
5.22364e-09
4.7853e-06
-2.17902e-05
8.14779e-08
4.01626e-06
-2.18882e-05
1.26197e-07
3.63955e-06
-2.18831e-05
1.35492e-07
4.04052e-06
-2.17841e-05
4.15976e-06
-2.18135e-05
1.1329e-07
4.16435e-06
-2.25885e-05
1.41148e-07
3.75503e-06
-2.26723e-05
6.40808e-08
4.74419e-06
-2.24143e-05
-9.91065e-09
4.9573e-06
-2.23581e-05
-2.12193e-08
4.9527e-06
-2.24694e-05
-5.07022e-08
5.62888e-06
-2.24316e-05
-4.35238e-08
5.57299e-06
-2.24163e-05
1.6611e-08
4.93213e-06
-2.25413e-05
9.37376e-08
4.12049e-06
-2.26301e-05
1.39331e-07
3.73034e-06
-2.26116e-05
1.4646e-07
4.15773e-06
-2.25148e-05
4.27332e-06
-2.25513e-05
1.10687e-07
4.29134e-06
-2.33004e-05
1.25705e-07
3.85993e-06
-2.33784e-05
4.75956e-08
4.90471e-06
-2.31352e-05
-1.71626e-08
5.11686e-06
-2.30852e-05
-1.84069e-08
5.09395e-06
-2.31966e-05
-4.1149e-08
5.80543e-06
-2.3162e-05
-3.0845e-08
5.73811e-06
-2.31496e-05
2.84036e-08
5.06047e-06
-2.32724e-05
1.06195e-07
4.20784e-06
-2.33521e-05
1.52323e-07
3.80609e-06
-2.33206e-05
1.5687e-07
4.26044e-06
-2.32263e-05
4.36973e-06
-2.32696e-05
1.06534e-07
4.40934e-06
-2.39924e-05
1.08255e-07
3.9578e-06
-2.40637e-05
2.98853e-08
5.05162e-06
-2.38378e-05
-2.44205e-08
5.25637e-06
-2.37948e-05
-1.5198e-08
5.21172e-06
-2.39047e-05
-3.11578e-08
5.95741e-06
-2.38728e-05
-1.79113e-08
5.88003e-06
-2.38626e-05
4.03251e-08
5.16909e-06
-2.39826e-05
1.18638e-07
4.2775e-06
-2.40536e-05
1.64893e-07
3.86635e-06
-2.40099e-05
1.66481e-07
4.34807e-06
-2.39181e-05
4.44812e-06
-2.39678e-05
1.00887e-07
4.51853e-06
-2.46646e-05
8.92208e-08
4.0491e-06
-2.47286e-05
1.14246e-08
5.18371e-06
-2.4522e-05
-3.14501e-08
5.37378e-06
-2.44863e-05
-1.16445e-08
5.30405e-06
-2.45931e-05
-2.10175e-08
6.08266e-06
-2.45632e-05
-5.10299e-09
5.99709e-06
-2.45548e-05
5.21081e-08
5.25704e-06
-2.46715e-05
1.30858e-07
4.32901e-06
-2.47345e-05
1.76774e-07
3.911e-06
-2.46792e-05
1.75078e-07
4.42034e-06
-2.45904e-05
4.50799e-06
-2.46458e-05
9.3836e-08
4.61922e-06
-2.53178e-05
6.90527e-08
4.13431e-06
-2.53739e-05
-7.30973e-09
5.29996e-06
-2.51877e-05
-3.80424e-08
5.46734e-06
-2.51593e-05
-7.79663e-09
5.36946e-06
-2.52615e-05
-1.09974e-08
6.17959e-06
-2.52331e-05
7.23341e-09
6.08814e-06
-2.52261e-05
6.3512e-08
5.32374e-06
-2.53394e-05
1.42662e-07
4.36217e-06
-2.53949e-05
1.87722e-07
3.94029e-06
-2.53292e-05
1.82481e-07
4.47727e-06
-2.52436e-05
4.54922e-06
-2.5304e-05
8.54986e-08
4.71182e-06
-2.5953e-05
4.82108e-08
4.21388e-06
-2.60011e-05
-2.5857e-08
5.3995e-06
-2.58355e-05
-4.40253e-08
5.53575e-06
-2.58139e-05
-3.72897e-09
5.40702e-06
-2.59102e-05
-1.33517e-09
6.24716e-06
-2.58828e-05
1.88048e-08
6.15251e-06
-2.5877e-05
7.43342e-08
5.36894e-06
-2.59869e-05
1.53879e-07
4.3771e-06
-2.60357e-05
1.97533e-07
3.95475e-06
-2.59609e-05
1.88558e-07
4.51915e-06
-2.58786e-05
4.57207e-06
-2.59432e-05
7.60249e-08
4.79678e-06
-2.65717e-05
2.71514e-08
4.2882e-06
-2.66118e-05
-4.37942e-08
5.48174e-06
-2.64664e-05
-4.92736e-08
5.57819e-06
-2.64506e-05
3.92768e-10
5.41647e-06
-2.654e-05
7.76453e-09
6.28496e-06
-2.65131e-05
2.93911e-08
6.19009e-06
-2.65085e-05
8.44242e-08
5.39273e-06
-2.66154e-05
1.64368e-07
4.37423e-06
-2.66582e-05
2.06051e-07
3.95525e-06
-2.65755e-05
1.9323e-07
4.54655e-06
-2.6497e-05
4.57717e-06
-2.65649e-05
6.55988e-08
4.87469e-06
-2.71757e-05
6.3206e-09
4.3577e-06
-2.72081e-05
-6.07424e-08
5.54641e-06
-2.70816e-05
-5.37175e-08
5.59452e-06
-2.70705e-05
4.5634e-09
5.39825e-06
-2.71521e-05
1.61707e-08
6.29347e-06
-2.71257e-05
3.88445e-08
6.20154e-06
-2.71224e-05
9.36875e-08
5.39574e-06
-2.72264e-05
1.74026e-07
4.35447e-06
-2.72641e-05
2.13183e-07
3.94305e-06
-2.7175e-05
1.96482e-07
4.56036e-06
-2.71004e-05
4.56564e-06
-2.71707e-05
5.44507e-08
4.94625e-06
-2.77672e-05
-1.38474e-08
4.42284e-06
-2.77923e-05
-7.63808e-08
5.5937e-06
-2.7683e-05
-5.73313e-08
5.58525e-06
-2.76752e-05
8.65948e-09
5.35349e-06
-2.77486e-05
2.37708e-08
6.27378e-06
-2.77225e-05
4.70954e-08
6.18811e-06
-2.77205e-05
1.02088e-07
5.37912e-06
-2.78223e-05
1.82792e-07
4.31922e-06
-2.78557e-05
2.18899e-07
3.9198e-06
-2.77616e-05
1.98365e-07
4.56185e-06
-2.76911e-05
4.53911e-06
-2.77629e-05
4.28074e-08
5.01205e-06
-2.83484e-05
-3.30064e-08
4.48376e-06
-2.83669e-05
-9.04899e-08
5.6239e-06
-2.82726e-05
-6.01481e-08
5.55132e-06
-2.82666e-05
1.25823e-08
5.28367e-06
-2.83317e-05
3.05305e-08
6.22738e-06
-2.83059e-05
5.41796e-08
6.15139e-06
-2.83055e-05
1.09662e-07
5.34413e-06
-2.84054e-05
1.90671e-07
4.26989e-06
-2.84353e-05
2.23257e-07
3.88719e-06
-2.83378e-05
1.98994e-07
4.55237e-06
-2.82714e-05
4.49942e-06
-2.83439e-05
3.08765e-08
5.07251e-06
-2.89219e-05
-5.08884e-08
4.54036e-06
-2.89345e-05
-1.02905e-07
5.63744e-06
-2.88527e-05
-6.2233e-08
5.49407e-06
-2.88469e-05
1.62316e-08
5.19066e-06
-2.89038e-05
3.64585e-08
6.15613e-06
-2.88785e-05
6.01882e-08
6.09315e-06
-2.88799e-05
1.16492e-07
5.29207e-06
-2.89784e-05
1.97705e-07
4.2079e-06
-2.90056e-05
2.26374e-07
3.8468e-06
-2.89062e-05
1.98538e-07
4.53328e-06
-2.88439e-05
4.44841e-06
-2.89164e-05
1.88862e-08
5.12791e-06
-2.949e-05
-6.72192e-08
4.59238e-06
-2.94973e-05
-1.13495e-07
5.63496e-06
-2.94254e-05
-6.36734e-08
5.41532e-06
-2.94184e-05
1.95088e-08
5.07674e-06
-2.94676e-05
4.15898e-08
6.06229e-06
-2.94428e-05
6.52679e-08
6.01547e-06
-2.94465e-05
1.22696e-07
5.22442e-06
-2.9544e-05
2.03968e-07
4.13476e-06
-2.95692e-05
2.28416e-07
3.80025e-06
-2.94693e-05
1.97206e-07
4.50589e-06
-2.94111e-05
4.38804e-06
-2.94829e-05
7.068e-09
5.17846e-06
-3.00551e-05
-8.17953e-08
4.63946e-06
-3.00579e-05
-1.22195e-07
5.6173e-06
-2.99933e-05
-6.45694e-08
5.31725e-06
-2.99836e-05
2.23378e-08
4.94447e-06
-3.00256e-05
4.59963e-08
5.94831e-06
-3.00017e-05
6.96062e-08
5.92057e-06
-3.00079e-05
1.2842e-07
5.14276e-06
-3.01048e-05
2.09571e-07
4.0521e-06
-3.01288e-05
2.2959e-07
3.74909e-06
-3.00297e-05
1.95237e-07
4.47155e-06
-2.99755e-05
4.32027e-06
-3.00461e-05
-4.34919e-09
5.22424e-06
-3.06195e-05
-9.44763e-08
4.68117e-06
-3.06184e-05
-1.28995e-07
5.58543e-06
-3.05585e-05
-6.50174e-08
5.20231e-06
-3.05451e-05
2.4671e-08
4.79649e-06
-3.05807e-05
4.97763e-08
5.81672e-06
-3.0558e-05
7.34129e-08
5.81068e-06
-3.05668e-05
1.33827e-07
5.04868e-06
-3.06635e-05
2.14648e-07
3.96146e-06
-3.06869e-05
2.30126e-07
3.69471e-06
-3.05897e-05
1.92876e-07
4.43148e-06
-3.05393e-05
4.24697e-06
-3.06083e-05
-1.5192e-08
5.26521e-06
-3.11851e-05
-1.05181e-07
4.717e-06
-3.11809e-05
-1.33922e-07
5.54035e-06
-3.11236e-05
-6.50984e-08
5.073e-06
-3.11054e-05
2.64909e-08
4.63539e-06
-3.11355e-05
5.30439e-08
5.66996e-06
-3.11141e-05
7.69007e-08
5.68793e-06
-3.11258e-05
1.3908e-07
4.94372e-06
-3.12224e-05
2.19349e-07
3.86436e-06
-3.12459e-05
2.30258e-07
3.63833e-06
-3.11515e-05
1.9036e-07
4.38678e-06
-3.11046e-05
4.16986e-06
-3.11718e-05
-2.53115e-08
5.30124e-06
-3.17539e-05
-1.13882e-07
4.74639e-06
-3.17469e-05
-1.37032e-07
5.48307e-06
-3.16904e-05
-6.48693e-08
4.9318e-06
-3.16668e-05
2.781e-08
4.46365e-06
-3.16921e-05
5.59175e-08
5.51024e-06
-3.16724e-05
8.02673e-08
5.55419e-06
-3.16871e-05
1.44335e-07
4.82928e-06
-3.17837e-05
2.23826e-07
3.76214e-06
-3.18078e-05
2.30203e-07
3.58097e-06
-3.17168e-05
1.87899e-07
4.3384e-06
-3.16733e-05
4.09038e-06
-3.17385e-05
-3.45975e-08
5.33204e-06
-3.23273e-05
-1.20595e-07
4.76871e-06
-3.2318e-05
-1.38398e-07
5.41454e-06
-3.22608e-05
-6.43593e-08
4.78107e-06
-3.22314e-05
2.86687e-08
4.2835e-06
-3.22526e-05
5.85127e-08
5.3395e-06
-3.22348e-05
8.36904e-08
5.4111e-06
-3.22525e-05
1.49733e-07
4.70663e-06
-3.23492e-05
2.28225e-07
3.65598e-06
-3.23742e-05
2.30148e-07
3.52339e-06
-3.22873e-05
1.85668e-07
4.2871e-06
-3.22469e-05
4.00971e-06
-3.23102e-05
-4.29813e-08
5.35719e-06
-3.29065e-05
-1.25364e-07
4.78334e-06
-3.28954e-05
-1.38093e-07
5.33561e-06
-3.28365e-05
-6.3566e-08
4.62297e-06
-3.28009e-05
2.91284e-08
4.09694e-06
-3.28188e-05
6.0943e-08
5.15937e-06
-3.2803e-05
8.73191e-08
5.25994e-06
-3.28236e-05
1.55398e-07
4.57684e-06
-3.29204e-05
2.32677e-07
3.54688e-06
-3.29467e-05
2.30244e-07
3.46616e-06
-3.28642e-05
1.83801e-07
4.23344e-06
-3.28266e-05
3.92874e-06
-3.2888e-05
-5.04297e-08
5.37612e-06
-3.34927e-05
-1.28243e-07
4.78959e-06
-3.34799e-05
-1.36169e-07
5.24701e-06
-3.34186e-05
-6.24478e-08
4.45946e-06
-3.33766e-05
2.92742e-08
3.90556e-06
-3.33915e-05
6.33133e-08
4.97116e-06
-3.33783e-05
9.12812e-08
5.10176e-06
-3.34018e-05
1.61434e-07
4.44083e-06
-3.34984e-05
2.37293e-07
3.43568e-06
-3.35262e-05
2.30604e-07
3.40967e-06
-3.34484e-05
1.82397e-07
4.17781e-06
-3.34135e-05
3.84803e-06
-3.34731e-05
-5.69324e-08
5.38813e-06
-3.40866e-05
-1.29278e-07
4.78674e-06
-3.40725e-05
-1.32636e-07
5.14933e-06
-3.40082e-05
-6.09219e-08
4.29216e-06
-3.39597e-05
2.91978e-08
3.71015e-06
-3.39714e-05
6.5732e-08
4.77562e-06
-3.39614e-05
9.56905e-08
4.93727e-06
-3.39878e-05
1.67923e-07
4.29908e-06
-3.40838e-05
2.4216e-07
3.32304e-06
-3.41136e-05
2.31302e-07
3.35414e-06
-3.40407e-05
1.81518e-07
4.12043e-06
-3.40083e-05
3.7679e-06
-3.40662e-05
-6.24871e-08
5.39235e-06
-3.46888e-05
-1.28484e-07
4.77406e-06
-3.46737e-05
-1.27448e-07
5.04302e-06
-3.46061e-05
-5.88954e-08
4.12196e-06
-3.45502e-05
2.90093e-08
3.51082e-06
-3.45586e-05
6.8306e-08
4.57283e-06
-3.45527e-05
1.00649e-07
4.76667e-06
-3.45822e-05
1.74939e-07
4.15131e-06
-3.46767e-05
2.47334e-07
3.20902e-06
-3.47089e-05
2.32382e-07
3.29976e-06
-3.46418e-05
1.81201e-07
4.06135e-06
-3.46117e-05
3.68842e-06
-3.4668e-05
-6.70848e-08
5.38781e-06
-3.52999e-05
-1.25834e-07
4.75075e-06
-3.52839e-05
-1.20542e-07
4.9281e-06
-3.52125e-05
-5.63004e-08
3.94917e-06
-3.51485e-05
2.87587e-08
3.30749e-06
-3.51539e-05
7.11256e-08
4.3625e-06
-3.51526e-05
1.0623e-07
4.58965e-06
-3.51851e-05
1.82561e-07
3.99674e-06
-3.52771e-05
2.52856e-07
3.09304e-06
-3.53121e-05
2.33861e-07
3.24666e-06
-3.52521e-05
1.81464e-07
4.00056e-06
-3.5224e-05
3.6095e-06
-3.52789e-05
-7.06958e-08
5.37324e-06
-3.592e-05
-1.21275e-07
4.71566e-06
-3.59032e-05
-1.11861e-07
4.80398e-06
-3.58274e-05
-5.3026e-08
3.77404e-06
-3.57552e-05
2.85472e-08
3.10049e-06
-3.57579e-05
7.42763e-08
4.14431e-06
-3.57619e-05
1.12477e-07
4.40586e-06
-3.57972e-05
1.90832e-07
3.83501e-06
-3.58856e-05
2.58769e-07
2.97471e-06
-3.59234e-05
2.35743e-07
3.19484e-06
-3.58718e-05
1.8231e-07
3.93797e-06
-3.58458e-05
3.53073e-06
-3.58992e-05
-7.32534e-08
5.34712e-06
-3.65491e-05
-1.14814e-07
4.66732e-06
-3.65316e-05
-1.01283e-07
4.66991e-06
-3.64511e-05
-4.88265e-08
3.59707e-06
-3.6371e-05
2.84635e-08
2.8909e-06
-3.63716e-05
7.78662e-08
3.91848e-06
-3.6381e-05
1.19537e-07
4.21535e-06
-3.64189e-05
1.99797e-07
3.66667e-06
-3.65025e-05
2.65105e-07
2.85424e-06
-3.65434e-05
2.38017e-07
3.14404e-06
-3.6501e-05
1.83735e-07
3.8734e-06
-3.64772e-05
3.45129e-06
-3.65289e-05
-7.46734e-08
5.30776e-06
-3.71875e-05
-1.06309e-07
4.60429e-06
-3.71692e-05
-8.85011e-08
4.52538e-06
-3.7084e-05
-4.34879e-08
3.41939e-06
-3.69964e-05
2.86954e-08
2.68009e-06
-3.69959e-05
8.19948e-08
3.68588e-06
-3.70107e-05
1.27626e-07
4.01877e-06
-3.7051e-05
2.09547e-07
3.49278e-06
-3.71285e-05
2.71831e-07
2.73231e-06
-3.71724e-05
2.40647e-07
3.09395e-06
-3.71399e-05
1.85707e-07
3.80644e-06
-3.71184e-05
3.37021e-06
-3.71682e-05
-7.48719e-08
5.25354e-06
-3.78355e-05
-9.55409e-08
4.52538e-06
-3.78165e-05
-7.33231e-08
4.3704e-06
-3.77264e-05
-3.69365e-08
3.24254e-06
-3.76326e-05
2.92244e-08
2.46956e-06
-3.76318e-05
8.67179e-08
3.44742e-06
-3.76519e-05
1.36847e-07
3.81686e-06
-3.76939e-05
2.2011e-07
3.31454e-06
-3.77645e-05
2.78857e-07
2.60982e-06
-3.78111e-05
2.43581e-07
3.04423e-06
-3.77889e-05
1.88173e-07
3.73658e-06
-3.77693e-05
3.2866e-06
-3.78173e-05
-7.37895e-08
5.18326e-06
-3.84937e-05
-8.25112e-08
4.42956e-06
-3.84739e-05
-5.59213e-08
4.20527e-06
-3.8379e-05
-2.91317e-08
3.0679e-06
-3.82803e-05
3.03477e-08
2.26054e-06
-3.82803e-05
9.20884e-08
3.20415e-06
-3.83053e-05
1.47202e-07
3.61036e-06
-3.83486e-05
2.31451e-07
3.13309e-06
-3.84115e-05
2.86089e-07
2.48767e-06
-3.84604e-05
2.46761e-07
2.99469e-06
-3.84483e-05
1.9109e-07
3.66347e-06
-3.84303e-05
3.19967e-06
-3.84765e-05
-7.13473e-08
5.09617e-06
-3.91624e-05
-6.72775e-08
4.31603e-06
-3.91417e-05
-3.65601e-08
4.03052e-06
-3.90425e-05
-2.00645e-08
2.89658e-06
-3.89403e-05
3.21706e-08
2.05408e-06
-3.8942e-05
9.81494e-08
2.95696e-06
-3.89715e-05
1.58639e-07
3.39994e-06
-3.90156e-05
2.43475e-07
2.94952e-06
-3.90702e-05
2.93458e-07
2.36657e-06
-3.91207e-05
2.50141e-07
2.94512e-06
-3.91184e-05
1.94394e-07
3.58679e-06
-3.91017e-05
3.10845e-06
-3.9146e-05
-6.74265e-08
4.99194e-06
-3.98422e-05
-5.00375e-08
4.18434e-06
-3.98203e-05
-1.55625e-08
3.84672e-06
-3.97174e-05
-9.76431e-09
2.72939e-06
-3.96131e-05
3.48351e-08
1.851e-06
-3.96175e-05
1.04926e-07
2.70668e-06
-3.9651e-05
1.71039e-07
3.18623e-06
-3.96955e-05
2.56014e-07
2.76492e-06
-3.97415e-05
3.00886e-07
2.24702e-06
-3.97928e-05
2.53689e-07
2.89523e-06
-3.97996e-05
1.97996e-07
3.50624e-06
-3.97837e-05
3.01194e-06
-3.9826e-05
-6.18949e-08
4.87064e-06
-4.05339e-05
-3.11035e-08
4.03448e-06
-4.05103e-05
6.62637e-09
3.6545e-06
-4.0404e-05
1.69825e-09
2.56679e-06
-4.02993e-05
3.84596e-08
1.65193e-06
-4.03073e-05
1.12419e-07
2.45416e-06
-4.03443e-05
1.84207e-07
2.96996e-06
-4.03889e-05
2.68812e-07
2.58042e-06
-4.04261e-05
3.08207e-07
2.12936e-06
-4.04773e-05
2.57307e-07
2.84463e-06
-4.04921e-05
2.01736e-07
3.42155e-06
-4.04767e-05
2.90897e-06
-4.05171e-05
-5.46878e-08
4.73274e-06
-4.1238e-05
-1.08542e-08
3.86684e-06
-4.12123e-05
2.97941e-08
3.45427e-06
-4.11029e-05
1.42066e-08
2.40918e-06
-4.09992e-05
4.31291e-08
1.45731e-06
-4.10116e-05
1.20591e-07
2.20028e-06
-4.10518e-05
1.97866e-07
2.75203e-06
-4.10964e-05
2.81528e-07
2.39722e-06
-4.1125e-05
3.15162e-07
2.01385e-06
-4.1175e-05
2.60794e-07
2.79283e-06
-4.11966e-05
2.05383e-07
3.33238e-06
-4.11811e-05
2.79828e-06
-4.12195e-05
-4.5797e-08
4.57906e-06
-4.19552e-05
1.03072e-08
3.68214e-06
-4.19267e-05
5.33522e-08
3.24663e-06
-4.18144e-05
2.7589e-08
2.25664e-06
-4.17134e-05
4.89388e-08
1.26729e-06
-4.1731e-05
1.29374e-07
1.94588e-06
-4.17737e-05
2.11674e-07
2.53342e-06
-4.18181e-05
2.93761e-07
2.21657e-06
-4.18389e-05
3.21443e-07
1.90067e-06
-4.18865e-05
2.63889e-07
2.73929e-06
-4.19135e-05
2.08667e-07
3.23835e-06
-4.18974e-05
2.67854e-06
-4.19336e-05
-3.52436e-08
4.41069e-06
-4.26859e-05
3.19516e-08
3.48146e-06
-4.26541e-05
7.68915e-08
3.03216e-06
-4.25389e-05
4.16734e-08
2.10906e-06
-4.24422e-05
5.58243e-08
1.08177e-06
-4.24652e-05
1.38649e-07
1.69173e-06
-4.25103e-05
2.25234e-07
2.3151e-06
-4.25545e-05
3.05102e-07
2.03963e-06
-4.25686e-05
3.26747e-07
1.78992e-06
-4.26128e-05
2.66318e-07
2.68344e-06
-4.26435e-05
2.11313e-07
3.13899e-06
-4.26261e-05
2.54845e-06
-4.26597e-05
-2.30565e-08
4.22891e-06
-4.34307e-05
5.37013e-08
3.26621e-06
-4.33949e-05
1.00032e-07
2.81146e-06
-4.32767e-05
5.63915e-08
1.96612e-06
-4.31862e-05
6.39473e-08
9.00261e-07
-4.32144e-05
1.48185e-07
1.43891e-06
-4.3262e-05
2.38085e-07
2.09816e-06
-4.33059e-05
3.15233e-07
1.86719e-06
-4.33147e-05
3.30849e-07
1.68177e-06
-4.33546e-05
2.6784e-07
2.62485e-06
-4.3387e-05
2.1307e-07
3.03391e-06
-4.33676e-05
2.40688e-06
-4.33982e-05
-9.26532e-09
4.03528e-06
-4.41901e-05
7.52534e-08
3.03809e-06
-4.41495e-05
1.22423e-07
2.58524e-06
-4.40285e-05
7.16777e-08
1.82707e-06
-4.39456e-05
7.31779e-08
7.22484e-07
-4.39786e-05
1.57646e-07
1.18868e-06
-4.4029e-05
2.49913e-07
1.88347e-06
-4.40726e-05
3.24061e-07
1.69927e-06
-4.40767e-05
3.33649e-07
1.57668e-06
-4.41126e-05
2.68287e-07
2.56329e-06
-4.41446e-05
2.13748e-07
2.92277e-06
-4.41224e-05
2.25288e-06
-4.41496e-05
6.11451e-09
3.83157e-06
-4.49644e-05
9.63818e-08
2.79908e-06
-4.49185e-05
1.4386e-07
2.35423e-06
-4.47946e-05
8.74718e-08
1.69081e-06
-4.47202e-05
8.32045e-08
5.48511e-07
-4.47584e-05
1.66786e-07
9.42177e-07
-4.48118e-05
2.60595e-07
1.67168e-06
-4.48551e-05
3.31488e-07
1.53563e-06
-4.48545e-05
3.35089e-07
1.47519e-06
-4.48864e-05
2.67569e-07
2.49863e-06
-4.49167e-05
2.13262e-07
2.80539e-06
-4.4891e-05
2.08585e-06
-4.49143e-05
2.30808e-08
3.61959e-06
-4.57538e-05
1.16968e-07
2.55139e-06
-4.57023e-05
1.64222e-07
2.11922e-06
-4.55758e-05
1.03652e-07
1.55624e-06
-4.55104e-05
9.38416e-08
3.78525e-07
-4.55542e-05
1.75461e-07
7.00437e-07
-4.56106e-05
2.69962e-07
1.46335e-06
-4.56535e-05
3.37251e-07
1.37646e-06
-4.56483e-05
3.34979e-07
1.37736e-06
-4.56759e-05
2.65631e-07
2.43059e-06
-4.57035e-05
2.11655e-07
2.6816e-06
-4.56739e-05
1.90557e-06
-4.56931e-05
4.1644e-08
3.40121e-06
-4.65588e-05
1.36987e-07
2.29734e-06
-4.65015e-05
1.83396e-07
1.8812e-06
-4.63726e-05