/*--------------------------------*- C++ -*----------------------------------*\
| =========                 |                                                 |
| \\      /  F ield         | OpenFOAM: The Open Source CFD Toolbox           |
|  \\    /   O peration     | Version:  v1912                                 |
|   \\  /    A nd           | Website:  www.openfoam.com                      |
|    \\/     M anipulation  |                                                 |
\*---------------------------------------------------------------------------*/
FoamFile
{
    version     2.0;
    format      ascii;
    class       volScalarField;
    location    "8.8";
    object      pPrime2Mean;
}
// * * * * * * * * * * * * * * * * * * * * * * * * * * * * * * * * * * * * * //

dimensions      [2 -2 -4 0 0 0 0];


internalField   nonuniform List<scalar> 
34128
(
3761.72
3761.48
3761.27
3761.11
3760.96
3760.84
3760.69
3760.56
3760.44
3760.38
3760.4
3760.47
3757.67
3757.44
3757.23
3757.07
3756.93
3756.8
3756.66
3756.53
3756.42
3756.36
3756.38
3756.45
3751.4
3751.17
3750.97
3750.82
3750.68
3750.56
3750.42
3750.3
3750.19
3750.13
3750.15
3750.22
3747.33
3747.11
3746.92
3746.77
3746.64
3746.52
3746.38
3746.26
3746.15
3746.09
3746.11
3746.18
3746.27
3746.05
3745.86
3745.71
3745.58
3745.46
3745.32
3745.2
3745.09
3745.04
3745.05
3745.12
3746.31
3746.09
3745.9
3745.75
3745.62
3745.5
3745.36
3745.24
3745.13
3745.08
3745.09
3745.16
3746.35
3746.13
3745.94
3745.79
3745.66
3745.54
3745.4
3745.28
3745.17
3745.12
3745.13
3745.2
3746.38
3746.16
3745.97
3745.82
3745.69
3745.57
3745.43
3745.31
3745.2
3745.15
3745.16
3745.23
3746.4
3746.18
3745.99
3745.84
3745.71
3745.59
3745.46
3745.34
3745.23
3745.17
3745.19
3745.26
3746.42
3746.2
3746.01
3745.86
3745.73
3745.61
3745.47
3745.36
3745.25
3745.19
3745.2
3745.27
3746.42
3746.21
3746.02
3745.87
3745.74
3745.62
3745.48
3745.37
3745.26
3745.2
3745.22
3745.28
3746.43
3746.21
3746.02
3745.87
3745.74
3745.62
3745.49
3745.37
3745.26
3745.21
3745.22
3745.29
3746.42
3746.2
3746.01
3745.87
3745.74
3745.62
3745.48
3745.37
3745.26
3745.2
3745.22
3745.28
3746.41
3746.19
3746
3745.86
3745.73
3745.61
3745.47
3745.36
3745.25
3745.19
3745.21
3745.27
3746.39
3746.17
3745.98
3745.84
3745.71
3745.59
3745.46
3745.34
3745.23
3745.18
3745.19
3745.26
3746.36
3746.15
3745.96
3745.82
3745.69
3745.57
3745.44
3745.32
3745.21
3745.16
3745.17
3745.24
3746.33
3746.12
3745.93
3745.79
3745.66
3745.54
3745.41
3745.29
3745.18
3745.13
3745.14
3745.21
3746.3
3746.08
3745.9
3745.75
3745.62
3745.51
3745.37
3745.26
3745.15
3745.1
3745.11
3745.18
3746.25
3746.04
3745.85
3745.71
3745.58
3745.47
3745.33
3745.22
3745.11
3745.06
3745.07
3745.14
3746.2
3745.99
3745.81
3745.66
3745.54
3745.42
3745.29
3745.17
3745.07
3745.01
3745.02
3745.09
3746.15
3745.94
3745.75
3745.61
3745.48
3745.37
3745.24
3745.12
3745.01
3744.96
3744.97
3745.04
3746.09
3745.88
3745.69
3745.55
3745.42
3745.31
3745.18
3745.06
3744.96
3744.91
3744.92
3744.98
3746.02
3745.81
3745.63
3745.49
3745.36
3745.25
3745.12
3745
3744.9
3744.84
3744.85
3744.92
3745.95
3745.74
3745.56
3745.42
3745.29
3745.18
3745.05
3744.93
3744.83
3744.78
3744.79
3744.85
3745.87
3745.66
3745.48
3745.34
3745.22
3745.1
3744.97
3744.86
3744.76
3744.7
3744.71
3744.78
3745.78
3745.58
3745.4
3745.26
3745.14
3745.02
3744.89
3744.78
3744.68
3744.63
3744.64
3744.7
3745.69
3745.49
3745.31
3745.18
3745.05
3744.94
3744.81
3744.7
3744.6
3744.54
3744.55
3744.62
3745.6
3745.4
3745.22
3745.08
3744.96
3744.85
3744.72
3744.61
3744.51
3744.46
3744.47
3744.53
3745.5
3745.3
3745.13
3744.99
3744.87
3744.75
3744.63
3744.52
3744.42
3744.36
3744.37
3744.44
3745.4
3745.2
3745.03
3744.89
3744.77
3744.65
3744.53
3744.42
3744.32
3744.27
3744.28
3744.34
3745.29
3745.09
3744.92
3744.78
3744.66
3744.55
3744.43
3744.32
3744.22
3744.17
3744.18
3744.24
3745.17
3744.98
3744.81
3744.67
3744.56
3744.44
3744.32
3744.21
3744.11
3744.06
3744.07
3744.13
3745.06
3744.86
3744.7
3744.56
3744.44
3744.33
3744.21
3744.1
3744
3743.95
3743.96
3744.02
3744.93
3744.74
3744.58
3744.44
3744.33
3744.21
3744.09
3743.98
3743.89
3743.84
3743.85
3743.91
3744.81
3744.62
3744.45
3744.32
3744.21
3744.09
3743.97
3743.87
3743.77
3743.72
3743.73
3743.79
3744.68
3744.49
3744.33
3744.2
3744.08
3743.97
3743.85
3743.74
3743.65
3743.6
3743.61
3743.67
3744.54
3744.36
3744.2
3744.07
3743.95
3743.84
3743.73
3743.62
3743.53
3743.48
3743.48
3743.55
3744.41
3744.23
3744.07
3743.94
3743.82
3743.71
3743.6
3743.49
3743.4
3743.35
3743.36
3743.42
3744.27
3744.09
3743.93
3743.8
3743.69
3743.58
3743.46
3743.36
3743.27
3743.22
3743.23
3743.29
3744.12
3743.95
3743.79
3743.67
3743.55
3743.44
3743.33
3743.22
3743.14
3743.09
3743.09
3743.16
3743.98
3743.8
3743.65
3743.53
3743.41
3743.31
3743.19
3743.09
3743
3742.95
3742.96
3743.02
3743.83
3743.66
3743.51
3743.38
3743.27
3743.17
3743.05
3742.95
3742.86
3742.81
3742.82
3742.88
3743.68
3743.51
3743.36
3743.24
3743.13
3743.02
3742.91
3742.81
3742.72
3742.68
3742.68
3742.74
3743.53
3743.36
3743.21
3743.09
3742.98
3742.88
3742.77
3742.67
3742.58
3742.53
3742.54
3742.6
3743.37
3743.21
3743.07
3742.95
3742.84
3742.73
3742.62
3742.52
3742.44
3742.39
3742.4
3742.46
3743.22
3743.06
3742.92
3742.8
3742.69
3742.59
3742.48
3742.38
3742.29
3742.25
3742.25
3742.31
3743.06
3742.9
3742.77
3742.65
3742.54
3742.44
3742.33
3742.23
3742.15
3742.1
3742.11
3742.17
3742.91
3742.75
3742.61
3742.5
3742.39
3742.29
3742.18
3742.08
3742
3741.96
3741.96
3742.02
3742.75
3742.6
3742.46
3742.35
3742.24
3742.14
3742.03
3741.94
3741.86
3741.81
3741.82
3741.88
3742.59
3742.44
3742.31
3742.2
3742.09
3741.99
3741.89
3741.79
3741.71
3741.67
3741.67
3741.73
3742.43
3742.29
3742.16
3742.05
3741.94
3741.84
3741.74
3741.64
3741.56
3741.52
3741.53
3741.59
3742.28
3742.13
3742.01
3741.9
3741.8
3741.7
3741.59
3741.5
3741.42
3741.38
3741.38
3741.44
3742.12
3741.98
3741.86
3741.75
3741.65
3741.55
3741.45
3741.35
3741.27
3741.23
3741.24
3741.3
3741.97
3741.83
3741.71
3741.6
3741.5
3741.4
3741.3
3741.21
3741.13
3741.09
3741.1
3741.16
3741.82
3741.68
3741.56
3741.46
3741.36
3741.26
3741.16
3741.06
3740.99
3740.95
3740.96
3741.02
3741.67
3741.53
3741.42
3741.31
3741.22
3741.12
3741.02
3740.92
3740.85
3740.81
3740.82
3740.88
3741.52
3741.39
3741.27
3741.17
3741.08
3740.98
3740.88
3740.79
3740.72
3740.68
3740.69
3740.75
3741.38
3741.25
3741.13
3741.03
3740.94
3740.84
3740.74
3740.65
3740.58
3740.54
3740.55
3740.61
3741.24
3741.11
3741
3740.9
3740.8
3740.71
3740.61
3740.52
3740.45
3740.41
3740.42
3740.48
3741.1
3740.97
3740.87
3740.77
3740.68
3740.58
3740.48
3740.39
3740.32
3740.29
3740.3
3740.36
3740.97
3740.84
3740.74
3740.64
3740.55
3740.45
3740.36
3740.27
3740.2
3740.17
3740.18
3740.24
3740.84
3740.72
3740.62
3740.52
3740.43
3740.33
3740.24
3740.15
3740.08
3740.05
3740.06
3740.12
3740.72
3740.6
3740.5
3740.41
3740.31
3740.22
3740.13
3740.04
3739.97
3739.94
3739.95
3740.01
3740.6
3740.49
3740.39
3740.3
3740.21
3740.11
3740.02
3739.93
3739.87
3739.83
3739.85
3739.91
3740.5
3740.38
3740.29
3740.2
3740.11
3740.01
3739.92
3739.83
3739.77
3739.74
3739.75
3739.81
3740.4
3740.29
3740.2
3740.1
3740.02
3739.92
3739.83
3739.74
3739.68
3739.65
3739.66
3739.72
3740.32
3740.21
3740.11
3740.02
3739.94
3739.84
3739.75
3739.67
3739.6
3739.57
3739.59
3739.65
3740.24
3740.14
3740.04
3739.96
3739.87
3739.78
3739.69
3739.6
3739.54
3739.51
3739.52
3739.59
3740.19
3740.08
3739.99
3739.9
3739.82
3739.73
3739.63
3739.55
3739.49
3739.46
3739.47
3739.54
3740.15
3740.05
3739.96
3739.87
3739.78
3739.69
3739.6
3739.52
3739.46
3739.43
3739.44
3739.51
3740.13
3740.03
3739.94
3739.86
3739.77
3739.68
3739.59
3739.51
3739.45
3739.42
3739.43
3739.5
3740.14
3740.04
3739.95
3739.87
3739.78
3739.69
3739.6
3739.52
3739.46
3739.43
3739.45
3739.51
3740.18
3740.08
3739.99
3739.91
3739.82
3739.73
3739.64
3739.56
3739.5
3739.47
3739.49
3739.55
3740.25
3740.15
3740.06
3739.97
3739.89
3739.8
3739.71
3739.63
3739.57
3739.54
3739.56
3739.62
3740.34
3740.24
3740.16
3740.07
3739.99
3739.9
3739.81
3739.72
3739.66
3739.64
3739.65
3739.71
3740.46
3740.36
3740.28
3740.19
3740.11
3740.02
3739.93
3739.84
3739.78
3739.75
3739.77
3739.83
3740.6
3740.5
3740.41
3740.33
3740.24
3740.15
3740.06
3739.98
3739.92
3739.89
3739.9
3739.96
3740.75
3740.64
3740.56
3740.47
3740.38
3740.29
3740.2
3740.11
3740.05
3740.02
3740.04
3740.1
3740.88
3740.78
3740.69
3740.6
3740.51
3740.42
3740.33
3740.24
3740.18
3740.15
3740.16
3740.22
4173.01
4172.69
4172.4
4172.14
4171.9
4171.67
4171.44
4171.23
4171.06
4170.97
4170.98
4171.07
4168.65
4168.34
4168.05
4167.8
4167.56
4167.34
4167.11
4166.91
4166.74
4166.65
4166.66
4166.75
4161.9
4161.6
4161.32
4161.08
4160.85
4160.64
4160.41
4160.22
4160.06
4159.97
4159.98
4160.07
4157.53
4157.24
4156.97
4156.73
4156.51
4156.3
4156.08
4155.89
4155.73
4155.65
4155.66
4155.74
4156.38
4156.1
4155.82
4155.59
4155.37
4155.16
4154.94
4154.75
4154.6
4154.51
4154.52
4154.61
4156.43
4156.14
4155.87
4155.64
4155.41
4155.21
4154.99
4154.8
4154.64
4154.56
4154.57
4154.65
4156.47
4156.18
4155.91
4155.68
4155.45
4155.25
4155.03
4154.84
4154.68
4154.6
4154.61
4154.69
4156.5
4156.22
4155.94
4155.71
4155.49
4155.28
4155.06
4154.88
4154.72
4154.63
4154.64
4154.73
4156.53
4156.24
4155.97
4155.74
4155.51
4155.31
4155.09
4154.9
4154.74
4154.66
4154.67
4154.75
4156.54
4156.26
4155.99
4155.76
4155.53
4155.33
4155.11
4154.92
4154.76
4154.68
4154.69
4154.77
4156.55
4156.27
4156
4155.77
4155.54
4155.34
4155.12
4154.93
4154.77
4154.69
4154.7
4154.78
4156.55
4156.27
4156
4155.77
4155.55
4155.34
4155.12
4154.94
4154.78
4154.7
4154.71
4154.79
4156.55
4156.26
4155.99
4155.76
4155.54
4155.34
4155.12
4154.93
4154.78
4154.69
4154.7
4154.78
4156.54
4156.25
4155.98
4155.75
4155.53
4155.33
4155.11
4154.92
4154.77
4154.69
4154.69
4154.78
4156.52
4156.23
4155.96
4155.74
4155.51
4155.31
4155.09
4154.91
4154.75
4154.67
4154.68
4154.76
4156.49
4156.21
4155.94
4155.71
4155.49
4155.29
4155.07
4154.89
4154.73
4154.65
4154.66
4154.74
4156.46
4156.17
4155.91
4155.68
4155.46
4155.26
4155.04
4154.86
4154.7
4154.62
4154.63
4154.71
4156.42
4156.14
4155.87
4155.64
4155.42
4155.22
4155.01
4154.82
4154.67
4154.59
4154.59
4154.67
4156.37
4156.09
4155.83
4155.6
4155.38
4155.18
4154.97
4154.78
4154.63
4154.54
4154.55
4154.63
4156.32
4156.04
4155.78
4155.55
4155.33
4155.13
4154.92
4154.73
4154.58
4154.5
4154.5
4154.58
4156.26
4155.98
4155.72
4155.49
4155.28
4155.08
4154.86
4154.68
4154.53
4154.45
4154.45
4154.53
4156.19
4155.92
4155.66
4155.43
4155.22
4155.01
4154.8
4154.62
4154.47
4154.39
4154.39
4154.47
4156.12
4155.85
4155.59
4155.36
4155.15
4154.95
4154.74
4154.56
4154.4
4154.32
4154.33
4154.41
4156.04
4155.77
4155.51
4155.29
4155.08
4154.88
4154.67
4154.49
4154.33
4154.25
4154.26
4154.34
4155.96
4155.69
4155.43
4155.21
4155
4154.8
4154.59
4154.41
4154.26
4154.18
4154.18
4154.26
4155.87
4155.6
4155.35
4155.13
4154.91
4154.71
4154.51
4154.33
4154.18
4154.1
4154.1
4154.18
4155.77
4155.51
4155.25
4155.04
4154.82
4154.63
4154.42
4154.24
4154.09
4154.01
4154.01
4154.09
4155.67
4155.41
4155.16
4154.94
4154.73
4154.53
4154.33
4154.15
4154
4153.92
4153.92
4154
4155.57
4155.3
4155.06
4154.84
4154.63
4154.43
4154.23
4154.05
4153.91
4153.82
4153.83
4153.9
4155.46
4155.19
4154.95
4154.73
4154.53
4154.33
4154.13
4153.95
4153.8
4153.72
4153.72
4153.8
4155.34
4155.08
4154.84
4154.62
4154.42
4154.22
4154.02
4153.84
4153.7
4153.62
4153.62
4153.7
4155.22
4154.96
4154.72
4154.51
4154.3
4154.11
4153.91
4153.73
4153.59
4153.51
4153.51
4153.59
4155.09
4154.84
4154.6
4154.39
4154.18
4153.99
4153.79
4153.62
4153.48
4153.39
4153.39
4153.47
4154.96
4154.71
4154.47
4154.26
4154.06
4153.87
4153.67
4153.5
4153.36
4153.28
4153.28
4153.35
4154.83
4154.58
4154.34
4154.14
4153.94
4153.74
4153.55
4153.38
4153.24
4153.16
4153.15
4153.23
4154.69
4154.44
4154.21
4154.01
4153.81
4153.62
4153.42
4153.25
4153.11
4153.03
4153.03
4153.1
4154.55
4154.31
4154.08
4153.87
4153.67
4153.48
4153.29
4153.12
4152.98
4152.9
4152.9
4152.97
4154.41
4154.16
4153.94
4153.73
4153.54
4153.35
4153.16
4152.99
4152.85
4152.77
4152.77
4152.84
4154.26
4154.02
4153.79
4153.59
4153.4
4153.21
4153.02
4152.85
4152.71
4152.64
4152.63
4152.71
4154.11
4153.87
4153.65
4153.45
4153.25
4153.07
4152.88
4152.71
4152.58
4152.5
4152.5
4152.57
4153.95
4153.72
4153.5
4153.3
4153.11
4152.92
4152.74
4152.57
4152.44
4152.36
4152.36
4152.43
4153.79
4153.56
4153.35
4153.15
4152.96
4152.78
4152.59
4152.43
4152.29
4152.22
4152.21
4152.28
4153.64
4153.41
4153.19
4153
4152.81
4152.63
4152.44
4152.28
4152.15
4152.07
4152.07
4152.14
4153.47
4153.25
4153.04
4152.85
4152.66
4152.48
4152.3
4152.13
4152
4151.93
4151.92
4151.99
4153.31
4153.09
4152.88
4152.69
4152.51
4152.33
4152.15
4151.99
4151.86
4151.78
4151.78
4151.85
4153.15
4152.93
4152.73
4152.54
4152.35
4152.18
4152
4151.84
4151.71
4151.63
4151.63
4151.7
4152.98
4152.77
4152.57
4152.38
4152.2
4152.02
4151.84
4151.68
4151.56
4151.48
4151.48
4151.55
4152.82
4152.61
4152.41
4152.22
4152.04
4151.87
4151.69
4151.53
4151.41
4151.34
4151.33
4151.4
4152.65
4152.44
4152.25
4152.07
4151.89
4151.71
4151.54
4151.38
4151.26
4151.19
4151.18
4151.25
4152.49
4152.28
4152.09
4151.91
4151.73
4151.56
4151.39
4151.23
4151.11
4151.04
4151.03
4151.1
4152.32
4152.12
4151.93
4151.75
4151.58
4151.41
4151.24
4151.08
4150.96
4150.89
4150.88
4150.95
4152.16
4151.96
4151.77
4151.6
4151.43
4151.26
4151.08
4150.93
4150.81
4150.74
4150.74
4150.8
4152
4151.8
4151.62
4151.44
4151.27
4151.11
4150.94
4150.78
4150.67
4150.6
4150.59
4150.66
4151.84
4151.64
4151.46
4151.29
4151.12
4150.96
4150.79
4150.64
4150.52
4150.45
4150.45
4150.51
4151.68
4151.49
4151.31
4151.14
4150.97
4150.81
4150.64
4150.49
4150.38
4150.31
4150.31
4150.37
4151.52
4151.33
4151.16
4150.99
4150.83
4150.66
4150.5
4150.35
4150.24
4150.17
4150.17
4150.23
4151.37
4151.18
4151.01
4150.85
4150.68
4150.52
4150.36
4150.21
4150.1
4150.03
4150.03
4150.09
4151.21
4151.03
4150.87
4150.7
4150.54
4150.38
4150.22
4150.07
4149.96
4149.9
4149.89
4149.96
4151.07
4150.89
4150.72
4150.56
4150.4
4150.24
4150.08
4149.94
4149.83
4149.77
4149.76
4149.83
4150.92
4150.75
4150.59
4150.43
4150.27
4150.11
4149.95
4149.81
4149.7
4149.64
4149.64
4149.7
4150.79
4150.61
4150.45
4150.3
4150.14
4149.98
4149.83
4149.69
4149.58
4149.52
4149.51
4149.58
4150.65
4150.48
4150.33
4150.17
4150.02
4149.86
4149.71
4149.57
4149.46
4149.4
4149.4
4149.46
4150.53
4150.36
4150.21
4150.05
4149.9
4149.75
4149.59
4149.45
4149.35
4149.29
4149.29
4149.35
4150.41
4150.24
4150.09
4149.94
4149.79
4149.64
4149.48
4149.35
4149.24
4149.18
4149.18
4149.25
4150.3
4150.14
4149.99
4149.84
4149.69
4149.53
4149.38
4149.25
4149.14
4149.09
4149.09
4149.15
4150.2
4150.04
4149.89
4149.74
4149.6
4149.44
4149.29
4149.16
4149.05
4149
4149
4149.07
4150.11
4149.95
4149.81
4149.66
4149.51
4149.36
4149.21
4149.08
4148.98
4148.92
4148.92
4148.99
4150.03
4149.88
4149.73
4149.59
4149.45
4149.29
4149.15
4149.01
4148.91
4148.86
4148.86
4148.93
4149.97
4149.82
4149.68
4149.54
4149.39
4149.24
4149.09
4148.96
4148.86
4148.81
4148.81
4148.88
4149.93
4149.78
4149.64
4149.5
4149.36
4149.21
4149.06
4148.93
4148.83
4148.78
4148.79
4148.85
4149.92
4149.77
4149.63
4149.49
4149.35
4149.2
4149.05
4148.92
4148.82
4148.77
4148.78
4148.85
4149.93
4149.78
4149.64
4149.5
4149.36
4149.21
4149.07
4148.94
4148.84
4148.79
4148.8
4148.87
4149.97
4149.82
4149.69
4149.55
4149.41
4149.26
4149.11
4148.98
4148.89
4148.84
4148.84
4148.91
4150.04
4149.9
4149.76
4149.62
4149.48
4149.33
4149.19
4149.06
4148.96
4148.91
4148.92
4148.99
4150.15
4150
4149.86
4149.73
4149.58
4149.44
4149.29
4149.16
4149.07
4149.02
4149.02
4149.09
4150.28
4150.13
4150
4149.86
4149.71
4149.57
4149.42
4149.29
4149.2
4149.15
4149.15
4149.22
4150.43
4150.28
4150.14
4150
4149.86
4149.71
4149.56
4149.44
4149.34
4149.29
4149.29
4149.36
4150.58
4150.43
4150.29
4150.15
4150
4149.86
4149.71
4149.58
4149.48
4149.43
4149.43
4149.5
4150.72
4150.57
4150.43
4150.28
4150.14
4149.99
4149.84
4149.71
4149.61
4149.56
4149.56
4149.62
4608.36
4608.1
4607.86
4607.67
4607.48
4607.31
4607.12
4606.95
4606.8
4606.72
4606.74
4606.83
4603.63
4603.38
4603.15
4602.96
4602.78
4602.61
4602.42
4602.26
4602.11
4602.03
4602.05
4602.14
4596.33
4596.08
4595.86
4595.68
4595.5
4595.34
4595.16
4595
4594.86
4594.78
4594.8
4594.89
4591.59
4591.35
4591.14
4590.96
4590.79
4590.63
4590.46
4590.3
4590.16
4590.09
4590.11
4590.2
4590.35
4590.11
4589.9
4589.72
4589.56
4589.4
4589.22
4589.07
4588.93
4588.86
4588.88
4588.96
4590.4
4590.16
4589.95
4589.77
4589.6
4589.45
4589.27
4589.11
4588.98
4588.91
4588.92
4589.01
4590.44
4590.21
4589.99
4589.81
4589.65
4589.49
4589.32
4589.16
4589.02
4588.95
4588.97
4589.05
4590.48
4590.24
4590.03
4589.85
4589.68
4589.53
4589.35
4589.19
4589.06
4588.99
4589
4589.09
4590.5
4590.27
4590.05
4589.88
4589.71
4589.55
4589.38
4589.22
4589.08
4589.01
4589.03
4589.12
4590.52
4590.28
4590.07
4589.89
4589.73
4589.57
4589.4
4589.24
4589.1
4589.03
4589.05
4589.13
4590.53
4590.29
4590.08
4589.9
4589.74
4589.58
4589.41
4589.25
4589.11
4589.04
4589.06
4589.14
4590.53
4590.29
4590.08
4589.9
4589.74
4589.58
4589.41
4589.25
4589.11
4589.05
4589.06
4589.15
4590.52
4590.29
4590.07
4589.9
4589.73
4589.58
4589.4
4589.25
4589.11
4589.04
4589.05
4589.14
4590.51
4590.27
4590.06
4589.88
4589.72
4589.56
4589.39
4589.23
4589.1
4589.03
4589.04
4589.13
4590.48
4590.25
4590.04
4589.86
4589.7
4589.54
4589.37
4589.21
4589.08
4589.01
4589.02
4589.11
4590.45
4590.22
4590.01
4589.83
4589.67
4589.51
4589.34
4589.18
4589.05
4588.98
4588.99
4589.08
4590.41
4590.18
4589.97
4589.8
4589.64
4589.48
4589.31
4589.15
4589.02
4588.94
4588.96
4589.04
4590.37
4590.14
4589.93
4589.76
4589.59
4589.44
4589.26
4589.11
4588.97
4588.9
4588.92
4589
4590.32
4590.09
4589.88
4589.71
4589.54
4589.39
4589.21
4589.06
4588.93
4588.86
4588.87
4588.95
4590.26
4590.03
4589.82
4589.65
4589.49
4589.33
4589.16
4589
4588.87
4588.8
4588.81
4588.9
4590.19
4589.96
4589.76
4589.58
4589.42
4589.27
4589.1
4588.94
4588.81
4588.74
4588.75
4588.84
4590.12
4589.89
4589.69
4589.51
4589.35
4589.2
4589.03
4588.87
4588.74
4588.67
4588.68
4588.77
4590.04
4589.81
4589.61
4589.44
4589.28
4589.12
4588.95
4588.8
4588.67
4588.6
4588.61
4588.69
4589.95
4589.73
4589.52
4589.35
4589.19
4589.04
4588.87
4588.72
4588.58
4588.51
4588.53
4588.61
4589.86
4589.64
4589.43
4589.26
4589.1
4588.95
4588.78
4588.63
4588.5
4588.43
4588.44
4588.52
4589.76
4589.54
4589.34
4589.17
4589.01
4588.85
4588.69
4588.53
4588.4
4588.33
4588.34
4588.43
4589.65
4589.43
4589.23
4589.07
4588.91
4588.75
4588.59
4588.43
4588.31
4588.24
4588.24
4588.33
4589.54
4589.32
4589.13
4588.96
4588.8
4588.65
4588.48
4588.33
4588.2
4588.13
4588.14
4588.22
4589.42
4589.21
4589.01
4588.85
4588.69
4588.54
4588.37
4588.22
4588.09
4588.02
4588.03
4588.11
4589.3
4589.09
4588.89
4588.73
4588.57
4588.42
4588.25
4588.1
4587.97
4587.9
4587.91
4588
4589.17
4588.96
4588.77
4588.6
4588.45
4588.29
4588.13
4587.98
4587.85
4587.78
4587.79
4587.87
4589.04
4588.83
4588.64
4588.47
4588.32
4588.17
4588
4587.85
4587.73
4587.66
4587.67
4587.75
4588.9
4588.69
4588.5
4588.34
4588.19
4588.03
4587.87
4587.72
4587.6
4587.53
4587.54
4587.62
4588.76
4588.55
4588.36
4588.2
4588.05
4587.9
4587.73
4587.59
4587.46
4587.39
4587.4
4587.48
4588.61
4588.41
4588.22
4588.06
4587.91
4587.76
4587.59
4587.45
4587.32
4587.25
4587.26
4587.34
4588.46
4588.25
4588.07
4587.91
4587.76
4587.61
4587.45
4587.3
4587.18
4587.11
4587.12
4587.2
4588.3
4588.1
4587.92
4587.76
4587.61
4587.46
4587.3
4587.15
4587.03
4586.96
4586.97
4587.05
4588.14
4587.94
4587.76
4587.61
4587.46
4587.31
4587.15
4587
4586.88
4586.81
4586.82
4586.9
4587.97
4587.78
4587.6
4587.45
4587.3
4587.15
4586.99
4586.85
4586.73
4586.66
4586.67
4586.75
4587.81
4587.62
4587.44
4587.29
4587.14
4586.99
4586.83
4586.69
4586.57
4586.5
4586.51
4586.59
4587.64
4587.45
4587.28
4587.12
4586.98
4586.83
4586.67
4586.53
4586.41
4586.34
4586.35
4586.43
4587.46
4587.28
4587.11
4586.96
4586.81
4586.66
4586.51
4586.37
4586.25
4586.18
4586.19
4586.27
4587.29
4587.11
4586.94
4586.79
4586.64
4586.5
4586.34
4586.2
4586.09
4586.02
4586.02
4586.1
4587.11
4586.93
4586.76
4586.62
4586.47
4586.33
4586.17
4586.03
4585.92
4585.85
4585.86
4585.94
4586.93
4586.75
4586.59
4586.44
4586.3
4586.16
4586
4585.87
4585.75
4585.69
4585.69
4585.77
4586.75
4586.58
4586.42
4586.27
4586.13
4585.99
4585.83
4585.7
4585.58
4585.52
4585.52
4585.6
4586.57
4586.4
4586.24
4586.1
4585.96
4585.81
4585.66
4585.52
4585.41
4585.35
4585.35
4585.43
4586.39
4586.22
4586.06
4585.92
4585.78
4585.64
4585.49
4585.35
4585.24
4585.18
4585.18
4585.26
4586.21
4586.04
4585.89
4585.75
4585.61
4585.47
4585.32
4585.18
4585.07
4585.01
4585.02
4585.09
4586.02
4585.86
4585.71
4585.57
4585.43
4585.29
4585.15
4585.01
4584.9
4584.84
4584.85
4584.92
4585.84
4585.68
4585.54
4585.4
4585.26
4585.12
4584.98
4584.84
4584.73
4584.67
4584.68
4584.75
4585.66
4585.51
4585.36
4585.23
4585.09
4584.95
4584.81
4584.67
4584.57
4584.51
4584.51
4584.59
4585.48
4585.33
4585.19
4585.05
4584.92
4584.78
4584.64
4584.51
4584.4
4584.34
4584.35
4584.42
4585.31
4585.16
4585.02
4584.88
4584.75
4584.61
4584.47
4584.34
4584.24
4584.18
4584.18
4584.26
4585.13
4584.98
4584.85
4584.72
4584.59
4584.45
4584.31
4584.18
4584.07
4584.02
4584.02
4584.1
4584.96
4584.82
4584.68
4584.55
4584.42
4584.29
4584.15
4584.02
4583.91
4583.86
4583.86
4583.94
4584.79
4584.65
4584.52
4584.39
4584.26
4584.13
4583.99
4583.86
4583.76
4583.7
4583.71
4583.78
4584.63
4584.49
4584.36
4584.23
4584.1
4583.97
4583.83
4583.7
4583.6
4583.55
4583.56
4583.63
4584.47
4584.33
4584.2
4584.08
4583.95
4583.82
4583.68
4583.55
4583.45
4583.4
4583.41
4583.48
4584.31
4584.17
4584.05
4583.93
4583.8
4583.67
4583.53
4583.41
4583.31
4583.26
4583.27
4583.34
4584.16
4584.03
4583.9
4583.78
4583.66
4583.53
4583.39
4583.27
4583.17
4583.12
4583.13
4583.2
4584.01
4583.88
4583.76
4583.64
4583.52
4583.39
4583.26
4583.13
4583.04
4582.98
4583
4583.07
4583.88
4583.75
4583.63
4583.51
4583.39
4583.26
4583.13
4583
4582.91
4582.86
4582.87
4582.95
4583.75
4583.62
4583.51
4583.39
4583.27
4583.14
4583
4582.88
4582.79
4582.74
4582.75
4582.83
4583.63
4583.5
4583.39
4583.27
4583.15
4583.02
4582.89
4582.77
4582.68
4582.63
4582.64
4582.72
4583.52
4583.39
4583.28
4583.17
4583.05
4582.92
4582.79
4582.67
4582.58
4582.53
4582.54
4582.62
4583.42
4583.3
4583.19
4583.08
4582.96
4582.83
4582.7
4582.58
4582.49
4582.44
4582.46
4582.54
4583.34
4583.22
4583.11
4583
4582.88
4582.75
4582.62
4582.5
4582.41
4582.37
4582.38
4582.47
4583.28
4583.16
4583.05
4582.94
4582.82
4582.69
4582.56
4582.44
4582.35
4582.31
4582.33
4582.41
4583.23
4583.12
4583.01
4582.9
4582.78
4582.65
4582.52
4582.4
4582.32
4582.27
4582.29
4582.38
4583.22
4583.1
4582.99
4582.88
4582.77
4582.64
4582.51
4582.39
4582.3
4582.26
4582.28
4582.37
4583.23
4583.11
4583.01
4582.9
4582.78
4582.65
4582.52
4582.4
4582.32
4582.28
4582.3
4582.38
4583.27
4583.16
4583.05
4582.94
4582.83
4582.7
4582.57
4582.45
4582.36
4582.32
4582.34
4582.43
4583.35
4583.24
4583.13
4583.02
4582.9
4582.78
4582.65
4582.53
4582.44
4582.4
4582.42
4582.51
4583.47
4583.35
4583.24
4583.13
4583.02
4582.89
4582.76
4582.64
4582.55
4582.51
4582.53
4582.62
4583.61
4583.49
4583.39
4583.28
4583.16
4583.03
4582.9
4582.78
4582.69
4582.65
4582.67
4582.75
4583.77
4583.65
4583.55
4583.43
4583.31
4583.18
4583.05
4582.93
4582.84
4582.8
4582.82
4582.91
4583.93
4583.82
4583.71
4583.59
4583.47
4583.34
4583.21
4583.08
4583
4582.95
4582.97
4583.06
4584.08
4583.97
4583.86
4583.74
4583.62
4583.48
4583.35
4583.22
4583.13
4583.09
4583.11
4583.19
5067.15
5066.98
5066.83
5066.73
5066.65
5066.57
5066.46
5066.35
5066.25
5066.21
5066.25
5066.35
5062.01
5061.84
5061.7
5061.6
5061.52
5061.44
5061.33
5061.23
5061.13
5061.09
5061.13
5061.23
5054.05
5053.88
5053.75
5053.66
5053.58
5053.5
5053.4
5053.3
5053.21
5053.17
5053.21
5053.3
5048.89
5048.74
5048.6
5048.51
5048.44
5048.37
5048.26
5048.17
5048.08
5048.04
5048.08
5048.17
5047.54
5047.38
5047.25
5047.16
5047.09
5047.02
5046.92
5046.82
5046.73
5046.69
5046.73
5046.82
5047.59
5047.43
5047.3
5047.22
5047.14
5047.07
5046.97
5046.87
5046.78
5046.74
5046.78
5046.88
5047.64
5047.48
5047.35
5047.26
5047.19
5047.11
5047.01
5046.92
5046.83
5046.79
5046.83
5046.92
5047.67
5047.52
5047.39
5047.3
5047.22
5047.15
5047.05
5046.96
5046.87
5046.83
5046.87
5046.96
5047.7
5047.54
5047.41
5047.33
5047.25
5047.18
5047.08
5046.99
5046.89
5046.86
5046.89
5046.99
5047.72
5047.56
5047.43
5047.35
5047.27
5047.2
5047.1
5047
5046.91
5046.87
5046.91
5047
5047.73
5047.57
5047.44
5047.35
5047.28
5047.21
5047.11
5047.01
5046.92
5046.88
5046.92
5047.01
5047.72
5047.57
5047.44
5047.35
5047.28
5047.21
5047.11
5047.01
5046.92
5046.88
5046.92
5047.01
5047.71
5047.56
5047.43
5047.34
5047.27
5047.2
5047.1
5047
5046.91
5046.88
5046.91
5047
5047.7
5047.54
5047.41
5047.33
5047.25
5047.18
5047.08
5046.99
5046.9
5046.86
5046.89
5046.99
5047.67
5047.52
5047.39
5047.3
5047.23
5047.16
5047.06
5046.96
5046.87
5046.83
5046.87
5046.96
5047.63
5047.48
5047.35
5047.27
5047.19
5047.12
5047.02
5046.93
5046.84
5046.8
5046.84
5046.93
5047.59
5047.44
5047.31
5047.23
5047.15
5047.08
5046.98
5046.89
5046.8
5046.76
5046.79
5046.89
5047.54
5047.39
5047.26
5047.18
5047.1
5047.03
5046.93
5046.84
5046.75
5046.71
5046.75
5046.84
5047.48
5047.33
5047.2
5047.12
5047.04
5046.97
5046.88
5046.78
5046.69
5046.65
5046.69
5046.78
5047.41
5047.26
5047.14
5047.05
5046.98
5046.91
5046.81
5046.72
5046.63
5046.59
5046.62
5046.72
5047.34
5047.19
5047.06
5046.98
5046.91
5046.84
5046.74
5046.65
5046.56
5046.52
5046.55
5046.64
5047.25
5047.11
5046.98
5046.9
5046.83
5046.76
5046.66
5046.57
5046.48
5046.44
5046.47
5046.56
5047.16
5047.02
5046.9
5046.81
5046.74
5046.67
5046.57
5046.48
5046.39
5046.35
5046.39
5046.48
5047.07
5046.92
5046.8
5046.72
5046.65
5046.57
5046.48
5046.39
5046.3
5046.26
5046.29
5046.38
5046.96
5046.82
5046.7
5046.62
5046.54
5046.47
5046.38
5046.28
5046.2
5046.16
5046.19
5046.28
5046.85
5046.71
5046.59
5046.51
5046.44
5046.37
5046.27
5046.18
5046.09
5046.05
5046.08
5046.18
5046.73
5046.59
5046.47
5046.39
5046.32
5046.25
5046.15
5046.06
5045.98
5045.94
5045.97
5046.06
5046.61
5046.47
5046.35
5046.27
5046.2
5046.13
5046.03
5045.94
5045.86
5045.82
5045.85
5045.94
5046.47
5046.34
5046.22
5046.14
5046.07
5046
5045.91
5045.81
5045.73
5045.69
5045.72
5045.81
5046.34
5046.2
5046.09
5046.01
5045.94
5045.87
5045.77
5045.68
5045.6
5045.56
5045.59
5045.68
5046.19
5046.06
5045.95
5045.87
5045.8
5045.73
5045.63
5045.54
5045.46
5045.42
5045.45
5045.54
5046.04
5045.91
5045.8
5045.72
5045.65
5045.58
5045.49
5045.4
5045.32
5045.28
5045.31
5045.4
5045.89
5045.76
5045.65
5045.57
5045.5
5045.43
5045.34
5045.25
5045.17
5045.13
5045.16
5045.25
5045.73
5045.6
5045.49
5045.41
5045.35
5045.28
5045.18
5045.09
5045.01
5044.97
5045
5045.09
5045.56
5045.43
5045.33
5045.25
5045.18
5045.11
5045.02
5044.93
5044.85
5044.82
5044.84
5044.93
5045.39
5045.26
5045.16
5045.09
5045.02
5044.95
5044.86
5044.77
5044.69
5044.65
5044.68
5044.77
5045.21
5045.09
5044.99
5044.92
5044.85
5044.78
5044.69
5044.6
5044.52
5044.48
5044.51
5044.6
5045.03
5044.91
5044.81
5044.74
5044.67
5044.6
5044.51
5044.43
5044.35
5044.31
5044.34
5044.43
5044.85
5044.73
5044.63
5044.56
5044.5
5044.43
5044.34
5044.25
5044.17
5044.13
5044.16
5044.25
5044.66
5044.55
5044.45
5044.38
5044.31
5044.24
5044.16
5044.07
5043.99
5043.95
5043.98
5044.07
5044.47
5044.36
5044.26
5044.19
5044.13
5044.06
5043.97
5043.88
5043.81
5043.77
5043.8
5043.88
5044.28
5044.17
5044.08
5044.01
5043.94
5043.87
5043.78
5043.7
5043.62
5043.59
5043.61
5043.7
5044.08
5043.97
5043.88
5043.82
5043.75
5043.68
5043.59
5043.51
5043.43
5043.4
5043.42
5043.51
5043.88
5043.78
5043.69
5043.62
5043.56
5043.49
5043.4
5043.32
5043.24
5043.21
5043.23
5043.32
5043.68
5043.58
5043.49
5043.43
5043.36
5043.3
5043.21
5043.12
5043.05
5043.02
5043.04
5043.13
5043.48
5043.38
5043.29
5043.23
5043.17
5043.1
5043.01
5042.93
5042.86
5042.82
5042.85
5042.93
5043.27
5043.18
5043.1
5043.03
5042.97
5042.9
5042.82
5042.73
5042.66
5042.63
5042.65
5042.74
5043.07
5042.98
5042.9
5042.84
5042.77
5042.71
5042.62
5042.54
5042.47
5042.43
5042.46
5042.54
5042.86
5042.77
5042.7
5042.64
5042.58
5042.51
5042.42
5042.34
5042.27
5042.24
5042.26
5042.35
5042.66
5042.57
5042.5
5042.44
5042.38
5042.31
5042.23
5042.14
5042.07
5042.04
5042.07
5042.15
5042.46
5042.37
5042.3
5042.24
5042.18
5042.12
5042.03
5041.95
5041.88
5041.85
5041.87
5041.96
5042.26
5042.17
5042.1
5042.05
5041.99
5041.92
5041.84
5041.75
5041.69
5041.65
5041.68
5041.77
5042.06
5041.97
5041.91
5041.85
5041.79
5041.73
5041.64
5041.56
5041.49
5041.46
5041.49
5041.57
5041.86
5041.78
5041.71
5041.66
5041.6
5041.53
5041.45
5041.37
5041.3
5041.27
5041.3
5041.39
5041.66
5041.58
5041.52
5041.47
5041.41
5041.34
5041.26
5041.18
5041.12
5041.09
5041.11
5041.2
5041.47
5041.39
5041.33
5041.28
5041.22
5041.16
5041.07
5040.99
5040.93
5040.9
5040.93
5041.01
5041.28
5041.2
5041.15
5041.1
5041.04
5040.97
5040.89
5040.81
5040.75
5040.72
5040.75
5040.83
5041.09
5041.02
5040.96
5040.92
5040.86
5040.79
5040.71
5040.63
5040.57
5040.54
5040.57
5040.66
5040.91
5040.84
5040.79
5040.74
5040.68
5040.62
5040.54
5040.46
5040.4
5040.37
5040.4
5040.49
5040.73
5040.67
5040.62
5040.57
5040.51
5040.45
5040.37
5040.29
5040.23
5040.2
5040.23
5040.32
5040.56
5040.5
5040.45
5040.4
5040.35
5040.28
5040.2
5040.12
5040.06
5040.04
5040.07
5040.16
5040.4
5040.34
5040.29
5040.24
5040.19
5040.12
5040.04
5039.97
5039.91
5039.88
5039.91
5040
5040.24
5040.18
5040.14
5040.09
5040.04
5039.97
5039.89
5039.82
5039.76
5039.73
5039.77
5039.86
5040.1
5040.04
5040
5039.95
5039.9
5039.83
5039.75
5039.68
5039.62
5039.59
5039.63
5039.72
5039.96
5039.91
5039.86
5039.82
5039.77
5039.7
5039.62
5039.54
5039.49
5039.46
5039.5
5039.59
5039.84
5039.78
5039.74
5039.7
5039.65
5039.58
5039.5
5039.42
5039.37
5039.35
5039.38
5039.48
5039.73
5039.68
5039.64
5039.6
5039.54
5039.48
5039.4
5039.32
5039.26
5039.24
5039.28
5039.37
5039.63
5039.58
5039.55
5039.51
5039.45
5039.39
5039.31
5039.23
5039.17
5039.15
5039.19
5039.29
5039.56
5039.51
5039.48
5039.44
5039.38
5039.31
5039.23
5039.16
5039.1
5039.08
5039.12
5039.22
5039.51
5039.46
5039.43
5039.39
5039.34
5039.27
5039.19
5039.11
5039.05
5039.04
5039.08
5039.17
5039.49
5039.44
5039.41
5039.37
5039.32
5039.25
5039.17
5039.09
5039.03
5039.02
5039.06
5039.16
5039.5
5039.46