/*--------------------------------*- C++ -*----------------------------------*\
| =========                 |                                                 |
| \\      /  F ield         | OpenFOAM: The Open Source CFD Toolbox           |
|  \\    /   O peration     | Version:  v1912                                 |
|   \\  /    A nd           | Website:  www.openfoam.com                      |
|    \\/     M anipulation  |                                                 |
\*---------------------------------------------------------------------------*/
FoamFile
{
    version     2.0;
    format      ascii;
    class       volScalarField;
    location    "8.8";
    object      T;
}
// * * * * * * * * * * * * * * * * * * * * * * * * * * * * * * * * * * * * * //

dimensions      [0 0 0 1 0 0 0];


internalField   nonuniform List<scalar> 
34128
(
371.839
371.85
371.851
371.836
371.847
371.853
371.846
371.843
371.837
371.837
371.833
371.832
369.505
369.539
369.538
369.492
369.529
369.549
369.528
369.519
369.498
369.498
369.488
369.484
367.138
367.197
367.191
367.107
367.177
367.222
367.188
367.166
367.122
367.122
367.112
367.106
364.744
364.83
364.815
364.685
364.799
364.882
364.838
364.795
364.718
364.717
364.715
364.706
362.336
362.452
362.422
362.241
362.41
362.546
362.493
362.421
362.298
362.297
362.312
362.302
359.937
360.081
360.033
359.802
360.033
360.236
360.177
360.067
359.889
359.888
359.929
359.918
357.579
357.747
357.682
357.408
357.702
357.978
357.916
357.764
357.525
357.522
357.598
357.586
355.302
355.487
355.41
355.109
355.459
355.803
355.742
355.55
355.252
355.244
355.359
355.348
353.157
353.346
353.265
352.96
353.346
353.742
353.689
353.466
353.121
353.099
353.254
353.244
351.189
351.369
351.294
351.01
351.404
351.826
351.788
351.552
351.178
351.133
351.322
351.315
349.438
349.596
349.537
349.293
349.664
350.082
350.068
349.84
349.458
349.38
349.594
349.591
347.932
348.058
348.019
347.826
348.148
348.533
348.549
348.351
347.982
347.866
348.09
348.096
346.677
346.768
346.748
346.606
346.86
347.192
347.24
347.087
346.749
346.595
346.816
346.833
345.665
345.723
345.717
345.617
345.797
346.068
346.145
346.043
345.744
345.566
345.771
345.798
344.879
344.91
344.911
344.84
344.954
345.162
345.26
345.204
344.951
344.766
344.945
344.981
344.291
344.303
344.304
344.253
344.314
344.467
344.573
344.552
344.344
344.172
344.32
344.36
343.868
343.866
343.864
343.825
343.85
343.96
344.061
344.061
343.897
343.753
343.869
343.908
343.573
343.564
343.559
343.529
343.533
343.61
343.697
343.705
343.581
343.473
343.559
343.593
343.374
343.363
343.357
343.333
343.329
343.381
343.448
343.456
343.367
343.295
343.357
343.383
343.245
343.234
343.229
343.211
343.203
343.238
343.286
343.29
343.231
343.189
343.23
343.248
343.162
343.156
343.151
343.137
343.131
343.154
343.185
343.185
343.15
343.129
343.155
343.165
343.112
343.11
343.106
343.095
343.09
343.105
343.124
343.122
343.105
343.096
343.111
343.115
343.083
343.084
343.081
343.072
343.068
343.078
343.088
343.087
343.08
343.078
343.085
343.086
343.066
343.069
343.065
343.058
343.057
343.063
343.068
343.067
343.067
343.067
343.069
343.069
343.056
343.058
343.055
343.05
343.05
343.054
343.057
343.056
343.058
343.06
343.058
343.057
343.048
343.048
343.046
343.044
343.046
343.049
343.05
343.049
343.051
343.053
343.05
343.048
343.041
343.039
343.039
343.039
343.042
343.045
343.044
343.043
343.044
343.046
343.043
343.04
343.035
343.031
343.033
343.035
343.037
343.04
343.039
343.036
343.037
343.039
343.035
343.033
343.028
343.023
343.028
343.03
343.032
343.035
343.033
343.03
343.03
343.032
343.029
343.026
343.021
343.017
343.023
343.026
343.027
343.03
343.028
343.024
343.024
343.025
343.022
343.02
343.016
343.012
343.018
343.021
343.022
343.024
343.022
343.018
343.018
343.019
343.017
343.015
343.011
343.009
343.014
343.017
343.017
343.018
343.017
343.013
343.013
343.014
343.012
343.011
343.007
343.006
343.011
343.013
343.012
343.013
343.012
343.009
343.009
343.01
343.008
343.007
343.005
343.004
343.008
343.009
343.009
343.008
343.008
343.006
343.006
343.006
343.005
343.005
343.003
343.003
343.006
343.006
343.006
343.005
343.005
343.004
343.004
343.004
343.003
343.003
343.001
343.002
343.004
343.004
343.003
343.003
343.003
343.002
343.002
343.002
343.002
343.002
343
343.001
343.003
343.003
343.002
343.001
343.001
343.001
343.001
343.001
343.001
343.001
343
343
343.002
343.001
343.001
343
343
343
343
343
343
343.001
343
343
343.001
343.001
343
342.999
342.999
343
343
343
343
343
342.999
343
343
343
342.999
342.999
342.999
342.999
343
342.999
343
343
342.999
343
343
343
342.999
342.999
342.999
342.999
342.999
342.999
342.999
343
342.999
343
343
343
342.999
342.998
342.999
342.999
342.999
342.999
342.999
343
342.999
343
343
342.999
342.999
342.999
342.999
342.999
342.999
342.999
342.999
343
342.999
343
343
342.999
342.999
342.999
342.999
342.999
342.999
342.999
342.999
343
342.999
343
343
342.999
342.999
342.999
342.999
342.999
342.999
342.999
342.999
343
342.999
343
343
343
342.999
342.999
342.999
342.999
342.999
343
343
343
342.999
343
343
343
342.999
342.999
342.999
342.999
342.999
343
343
343
342.999
343
343
343
342.999
342.999
342.999
342.999
343
343
343
343
343
343
343
343
343
342.999
342.999
342.999
343
343
343
343
343
343
343
343
343
342.999
342.999
343
343
343
343
343
343
343
343
343
343
342.999
342.999
343
343
343
343
343
343
343
343
343
343
343
343
343
343
343
343
343
343
343
343
343
343
343
343
343
343
343
343
343
343
343
343
343
343
343
343
343
343
343
343
343
343
343
343
343
343
343
343
343
343
343
343
343
343
343
343
343
343
343
343
343
343
343
343
343
343
343
343
343
343
343
343
343
343
343
343
343
343
343
343
343
343
343
343
343
343
343
343
343
343
343
343
343
343
343
343
343
343
343
343
343
343
343
343
343
343
343
343
343
343
343
343
343
343
343
343
343
343
343
343
343
343
343
343
343
343
343
343
343
343
343
343
343
343
343
343
343
343
343
343
343
343
343
343
343
343
343
343
343
343
343
343
343
343
343
343
343
343
343
343
343
343
343
343
343
343
343
343
343
343
343
343
343
343
343
343
343
343
343
343
343
343
343
343
343
343
343
343
343
343
343
343
343
343
343
343
343
343
343
343
343
343
343
343
343
343
343
343
343
343
343
343
343
343
343
343
343
343
343
343
343
343
343
343
343
343
343
343
343
343
343
343
343
343
343
343
343
343
343
343
343
343
343
343
343
343
343
343
343
343
343
343
343
343
343
343
343
343
343
343
343
343
343
343
343
343
343
343
343
343
343
343
343
343
343
343
343
343
343
343
343
343
343
343
343
343
343
343
343
343
343
343
343
343
343
343
343
343
343
343
343
343
343
343
343
343
343
343
343
343
343
343
343
343
343
343
343
343
343
343
343
343
343
343
343
343
343
343
343
343
343
343
343
343
343
343
343
343
343
343
343
371.815
371.827
371.824
371.805
371.822
371.833
371.826
371.821
371.811
371.811
371.81
371.808
369.431
369.468
369.459
369.401
369.452
369.49
369.47
369.452
369.42
369.42
369.418
369.414
367.013
367.077
367.06
366.957
367.05
367.124
367.092
367.056
366.994
366.994
366.997
366.99
364.569
364.661
364.633
364.482
364.625
364.747
364.705
364.643
364.541
364.542
364.558
364.549
362.114
362.236
362.196
361.996
362.195
362.376
362.327
362.232
362.08
362.081
362.12
362.11
359.674
359.821
359.771
359.528
359.784
360.032
359.98
359.847
359.637
359.637
359.709
359.698
357.283
357.449
357.394
357.121
357.426
357.739
357.69
357.519
357.253
357.244
357.356
357.345
354.983
355.157
355.106
354.823
355.161
355.525
355.486
355.287
354.97
354.943
355.098
355.088
352.822
352.99
352.952
352.684
353.027
353.421
353.401
353.189
352.837
352.78
352.974
352.966
350.846
350.995
350.979
350.743
351.064
351.459
351.468
351.263
350.894
350.796
351.021
351.018
349.093
349.213
349.222
349.032
349.305
349.674
349.717
349.539
349.174
349.03
349.27
349.276
347.589
347.677
347.709
347.565
347.773
348.097
348.175
348.037
347.693
347.507
347.747
347.763
346.343
346.398
346.447
346.344
346.483
346.751
346.858
346.765
346.454
346.242
346.466
346.492
345.347
345.374
345.432
345.36
345.437
345.648
345.771
345.718
345.448
345.231
345.427
345.461
344.579
344.586
344.645
344.595
344.626
344.785
344.91
344.885
344.659
344.46
344.62
344.657
344.011
344.003
344.06
344.026
344.028
344.143
344.255
344.245
344.064
343.901
344.023
344.057
343.605
343.591
343.642
343.621
343.61
343.69
343.78
343.774
343.635
343.516
343.602
343.629
343.329
343.312
343.358
343.348
343.334
343.387
343.451
343.442
343.343
343.265
343.321
343.339
343.15
343.136
343.175
343.172
343.161
343.194
343.233
343.222
343.157
343.111
343.143
343.153
343.042
343.033
343.064
343.065
343.059
343.077
343.097
343.086
343.047
343.023
343.039
343.042
342.985
342.981
343.001
343.005
343.003
343.011
343.018
343.01
342.989
342.978
342.982
342.983
342.96
342.96
342.97
342.974
342.975
342.976
342.977
342.973
342.963
342.957
342.956
342.956
342.955
342.956
342.957
342.96
342.964
342.962
342.96
342.96
342.954
342.951
342.949
342.949
342.96
342.96
342.954
342.957
342.963
342.959
342.957
342.959
342.955
342.953
342.951
342.952
342.968
342.967
342.958
342.96
342.967
342.962
342.961
342.964
342.96
342.957
342.958
342.959
342.976
342.973
342.964
342.966
342.972
342.969
342.969
342.971
342.966
342.964
342.966
342.968
342.983
342.979
342.972
342.973
342.977
342.975
342.976
342.978
342.972
342.97
342.973
342.975
342.987
342.984
342.979
342.98
342.982
342.98
342.982
342.983
342.977
342.975
342.98
342.982
342.99
342.988
342.986
342.986
342.985
342.984
342.987
342.987
342.982
342.98
342.985
342.987
342.992
342.991
342.991
342.99
342.988
342.987
342.99
342.99
342.987
342.984
342.988
342.99
342.994
342.994
342.995
342.993
342.99
342.989
342.992
342.992
342.99
342.988
342.991
342.993
342.995
342.996
342.997
342.995
342.991
342.991
342.994
342.994
342.992
342.99
342.993
342.994
342.996
342.997
342.998
342.996
342.993
342.992
342.995
342.995
342.994
342.992
342.994
342.996
342.996
342.998
342.999
342.997
342.994
342.993
342.995
342.996
342.996
342.994
342.996
342.997
342.997
342.998
342.999
342.998
342.995
342.994
342.996
342.996
342.997
342.996
342.996
342.997
342.997
342.998
342.999
342.998
342.996
342.995
342.996
342.997
342.997
342.997
342.997
342.998
342.998
342.999
342.999
342.998
342.997
342.996
342.997
342.997
342.998
342.998
342.998
342.998
342.998
342.999
342.999
342.999
342.997
342.997
342.997
342.998
342.998
342.998
342.998
342.999
342.998
342.999
342.999
342.999
342.998
342.997
342.998
342.998
342.999
342.999
342.999
342.999
342.998
342.999
342.999
342.999
342.998
342.998
342.998
342.998
342.999
342.999
342.999
342.999
342.999
342.999
342.999
342.999
342.999
342.998
342.998
342.998
342.999
342.999
342.999
342.999
342.999
342.999
342.999
342.999
342.999
342.998
342.998
342.999
342.999
342.999
342.999
342.999
342.999
342.999
342.999
342.999
342.999
342.999
342.999
342.999
342.999
342.999
342.999
342.999
342.999
342.999
342.999
342.999
342.999
342.999
342.999
342.999
342.999
342.999
342.999
343
342.999
342.999
342.999
342.999
342.999
342.999
342.999
342.999
342.999
342.999
342.999
343
342.999
342.999
342.999
342.999
342.999
342.999
342.999
342.999
342.999
342.999
342.999
343
342.999
342.999
342.999
342.999
342.999
342.999
342.999
342.999
342.999
342.999
343
343
342.999
342.999
343
343
342.999
342.999
342.999
342.999
342.999
343
343
343
342.999
343
343
343
343
342.999
342.999
342.999
342.999
343
343
343
342.999
343
343
343
343
343
343
342.999
343
343
343
343
343
343
343
343
343
343
343
343
343
343
343
343
343
343
343
343
343
343
343
343
343
343
343
343
343
343
343
343
343
343
343
343
343
343
343
343
343
343
343
343
343
343
343
343
343
343
343
343
343
343
343
343
343
343
343
343
343
343
343
343
343
343
343
343
343
343
343
343
343
343
343
343
343
343
343
343
343
343
343
343
343
343
343
343
343
343
343
343
343
343
343
343
343
343
343
343
343
343
343
343
343
343
343
343
343
343
343
343
343
343
343
343
343
343
343
343
343
343
343
343
343
343
343
343
343
343
343
343
343
343
343
343
343
343
343
343
343
343
343
343
343
343
343
343
343
343
343
343
343
343
343
343
343
343
343
343
343
343
343
343
343
343
343
343
343
343
343
343
343
343
343
343
343
343
343
343
343
343
343
343
343
343
343
343
343
343
343
343
343
343
343
343
343
343
343
343
343
343
343
343
343
343
343
343
343
343
343
343
343
343
343
343
343
343
343
343
343
343
343
343
343
343
343
343
343
343
343
343
343
343
343
343
343
343
343
343
343
343
343
343
343
343
343
343
343
343
343
343
343
343
343
343
343
343
343
343
343
343
343
343
343
343
343
343
343
343
343
343
343
343
343
343
343
343
343
343
343
343
343
343
343
343
343
343
343
343
343
343
343
343
343
343
343
343
343
343
343
343
343
343
343
343
343
343
343
343
343
343
343
343
343
343
343
343
343
343
343
343
343
343
343
343
343
343
343
343
343
343
343
343
343
343
343
343
343
343
343
343
343
343
343
343
343
343
343
343
343
343
371.77
371.785
371.781
371.758
371.778
371.795
371.789
371.779
371.765
371.766
371.769
371.767
369.298
369.343
369.331
369.26
369.322
369.376
369.357
369.328
369.281
369.285
369.295
369.29
366.79
366.865
366.844
366.724
366.833
366.933
366.904
366.849
366.763
366.768
366.793
366.784
364.255
364.36
364.331
364.162
364.323
364.479
364.442
364.355
364.22
364.226
364.273
364.262
361.712
361.844
361.809
361.597
361.811
362.03
361.989
361.866
361.675
361.676
361.756
361.744
359.19
359.341
359.306
359.065
359.326
359.607
359.569
359.41
359.161
359.149
359.269
359.257
356.732
356.891
356.864
356.611
356.903
357.237
357.211
357.024
356.72
356.683
356.849
356.839
354.39
354.541
354.531
354.289
354.587
354.954
354.951
354.75
354.404
354.328
354.537
354.533
352.218
352.349
352.362
352.148
352.424
352.798
352.828
352.633
352.262
352.135
352.381
352.385
350.268
350.368
350.406
350.23
350.459
350.815
350.883
350.714
350.337
350.156
350.424
350.442
348.576
348.642
348.701
348.564
348.729
349.047
349.154
349.023
348.658
348.43
348.705
348.738
347.161
347.194
347.266
347.162
347.261
347.53
347.667
347.577
347.238
346.983
347.248
347.296
346.016
346.021
346.099
346.021
346.062
346.279
346.431
346.376
346.073
345.818
346.058
346.116
345.121
345.105
345.183
345.124
345.123
345.292
345.441
345.409
345.149
344.92
345.125
345.187
344.445
344.418
344.492
344.447
344.422
344.55
344.681
344.658
344.446
344.261
344.427
344.485
343.953
343.924
343.991
343.958
343.924
344.018
344.121
344.098
343.936
343.802
343.928
343.978
343.61
343.584
343.643
343.62
343.587
343.654
343.725
343.701
343.586
343.498
343.59
343.628
343.381
343.363
343.411
343.395
343.368
343.414
343.458
343.434
343.359
343.308
343.371
343.398
343.238
343.229
343.263
343.252
343.231
343.261
343.285
343.265
343.221
343.194
343.235
343.253
343.154
343.152
343.171
343.163
343.149
343.168
343.18
343.165
343.143
343.13
343.156
343.168
343.109
343.111
343.117
343.11
343.101
343.112
343.118
343.111
343.101
343.096
343.112
343.119
343.087
343.09
343.085
343.079
343.074
343.082
343.085
343.083
343.08
343.078
343.088
343.092
343.075
343.077
343.067
343.062
343.06
343.066
343.069
343.069
343.068
343.068
343.075
343.077
343.067
343.068
343.057
343.053
343.053
343.058
343.061
343.061
343.06
343.062
343.066
343.067
343.059
343.06
343.051
343.048
343.048
343.053
343.056
343.056
343.055
343.057
343.06
343.059
343.051
343.052
343.047
343.044
343.044
343.049
343.051
343.05
343.05
343.052
343.053
343.052
343.043
343.044
343.044
343.041
343.04
343.043
343.045
343.044
343.045
343.046
343.046
343.044
343.035
343.036
343.04
343.037
343.035
343.037
343.038
343.037
343.04
343.04
343.039
343.037
343.028
343.029
343.035
343.032
343.03
343.031
343.031
343.031
343.034
343.033
343.031
343.03
343.022
343.023
343.029
343.027
343.024
343.024
343.024
343.024
343.028
343.027
343.024
343.023
343.017
343.017
343.023
343.021
343.019
343.018
343.017
343.018
343.022
343.021
343.018
343.017
343.012
343.012
343.018
343.016
343.014
343.013
343.012
343.013
343.017
343.015
343.013
343.013
343.009
343.008
343.013
343.012
343.01
343.009
343.008
343.009
343.012
343.011
343.009
343.009
343.006
343.005
343.009
343.008
343.007
343.006
343.005
343.006
343.009
343.007
343.006
343.006
343.004
343.003
343.006
343.005
343.005
343.004
343.002
343.003
343.006
343.005
343.003
343.004
343.002
343.002
343.004
343.003
343.003
343.002
343.001
343.002
343.003
343.003
343.002
343.003
343.001
343.001
343.002
343.002
343.002
343.001
343
343
343.002
343.001
343.001
343.002
343
343
343.001
343.001
343.001
343
342.999
343
343.001
343
343
343.001
343
343
343
343
343
343
342.999
342.999
343
343
343
343
342.999
343
343
343
343
342.999
342.999
342.999
342.999
342.999
343
343
342.999
342.999
343
343
343
342.999
342.999
342.999
342.999
342.999
342.999
343
342.999
342.999
343
342.999
342.999
342.999
342.999
342.999
342.999
342.999
342.999
343
342.999
342.999
342.999
342.999
342.999
342.999
342.999
342.999
342.999
342.999
342.999
343
342.999
342.999
342.999
342.999
342.999
342.999
342.999
342.999
342.999
342.999
342.999
343
342.999
342.999
342.999
342.999
342.999
342.999
342.999
342.999
342.999
342.999
342.999
343
342.999
342.999
343
342.999
342.999
342.999
342.999
342.999
342.999
342.999
343
343
342.999
342.999
343
343
343
343
342.999
342.999
342.999
342.999
343
343
342.999
342.999
343
343
343
343
343
342.999
342.999
343
343
343
342.999
343
343
343
343
343
343
342.999
342.999
343
343
343
342.999
343
343
343
343
343
343
342.999
342.999
343
343
343
343
343
343
343
343
343
343
343
343
343
343
343
343
343
343
343
343
343
343
343
343
343
343
343
343
343
343
343
343
343
343
343
343
343
343
343
343
343
343
343
343
343
343
343
343
343
343
343
343
343
343
343
343
343
343
343
343
343
343
343
343
343
343
343
343
343
343
343
343
343
343
343
343
343
343
343
343
343
343
343
343
343
343
343
343
343
343
343
343
343
343
343
343
343
343
343
343
343
343
343
343
343
343
343
343
343
343
343
343
343
343
343
343
343
343
343
343
343
343
343
343
343
343
343
343
343
343
343
343
343
343
343
343
343
343
343
343
343
343
343
343
343
343
343
343
343
343
343
343
343
343
343
343
343
343
343
343
343
343
343
343
343
343
343
343
343
343
343
343
343
343
343
343
343
343
343
343
343
343
343
343
343
343
343
343
343
343
343
343
343
343
343
343
343
343
343
343
343
343
343
343
343
343
343
343
343
343
343
343
343
343
343
343
343
343
343
343
343
343
343
343
343
343
343
343
343
343
343
343
343
343
343
343
343
343
343
343
343
343
343
343
343
343
343
343
343
343
343
343
343
343
343
343
343
343
343
343
343
343
343
343
343
343
343
343
343
343
343
343
343
343
343
343
343
343
343
343
343
343
343
343
343
343
343
343
343
343
343
343
343
343
343
343
343
343
343
343
343
343
343
343
343
343
343
343
343
343
343
343
343
343
343
343
343
343
343
343
343
343
343
343
343
343
343
343
343
343
343
343
343
343
343
343
343
343
343
343
343
343
343
343
343
343
343
343
343
343
343
371.739
371.754
371.749
371.724
371.748
371.771
371.765
371.753
371.734
371.736
371.741
371.739
369.204
369.249
369.233
369.158
369.232
369.303
369.286
369.247
369.19
369.193
369.212
369.207
366.632
366.707
366.683
366.559
366.685
366.809
366.783
366.715
366.613
366.616
366.655
366.647
364.037
364.137
364.111
363.944
364.119
364.301
364.27
364.171
364.018
364.016
364.083
364.074
361.441
361.56
361.537
361.34
361.556
361.794
361.766
361.636
361.431
361.413
361.518
361.509
358.877
359.004
358.996
358.784
359.026
359.311
359.295
359.142
358.886
358.839
358.989
358.981
356.39
356.513
356.529
356.321
356.564
356.881
356.888
356.725
356.426
356.336
356.531
356.529
354.034
354.139
354.187
354
354.217
354.542
354.583
354.426
354.098
353.953
354.189
354.197
351.86
351.938
352.021
351.864
352.032
352.343
352.425
352.289
351.948
351.745
352.009
352.031
349.914
349.96
350.077
349.953
350.058
350.338
350.457
350.352
350.014
349.763
350.039
350.076
348.23
348.244
348.389
348.295
348.335
348.574
348.72
348.647
348.327
348.049
348.318
348.369
346.82
346.809
346.972
346.905
346.891
347.086
347.241
347.191
346.901
346.627
346.871
346.93
345.68
345.651
345.826
345.78
345.732
345.883
346.028
345.989
345.741
345.498
345.704
345.763
344.791
344.755
344.933
344.906
344.841
344.955
345.072
345.035
344.835
344.642
344.803
344.855
344.126
344.09
344.264
344.254
344.187
344.269
344.35
344.31
344.161
344.023
344.138
344.178
343.652
343.621
343.783
343.787
343.728
343.783
343.829
343.786
343.686
343.598
343.671
343.697
343.333
343.311
343.451
343.465
343.418
343.451
343.469
343.429
343.37
343.319
343.359
343.372
343.133
343.12
343.231
343.251
343.217
343.234
343.234
343.201
343.172
343.145
343.16
343.164
343.021
343.013
343.092
343.114
343.092
343.099
343.089
343.067
343.055
343.042
343.042
343.041
342.965
342.961
343.009
343.031
343.019
343.019
343.007
342.995
342.992
342.985
342.978
342.974
342.945
342.941
342.965
342.984
342.98
342.978
342.967
342.962
342.96
342.956
342.948
342.944
342.942
342.938
342.945
342.961
342.963
342.96
342.953
342.951
342.947
342.945
342.938
342.935
342.947
342.944
342.942
342.953
342.959
342.956
342.951
342.951
342.945
342.945
342.94
342.938
342.955
342.954
342.947
342.954
342.962
342.959
342.956
342.956
342.95
342.949
342.947
342.947
342.963
342.964
342.957
342.96
342.967
342.964
342.963
342.963
342.957
342.956
342.956
342.957
342.971
342.973
342.968
342.968
342.972
342.97
342.969
342.969
342.965
342.963
342.964
342.967
342.978
342.981
342.977
342.974
342.977
342.974
342.974
342.975
342.973
342.97
342.972
342.976
342.984
342.986
342.983
342.98
342.981
342.979
342.978
342.979
342.98
342.976
342.978
342.982
342.989
342.99
342.988
342.984
342.984
342.982
342.981
342.983
342.984
342.98
342.982
342.987
342.993
342.992
342.99
342.987
342.987
342.985
342.983
342.985
342.988
342.984
342.986
342.991
342.995
342.993
342.992
342.99
342.989
342.988
342.986
342.988
342.99
342.987
342.989
342.993
342.996
342.995
342.993
342.991
342.991
342.99
342.988
342.99
342.992
342.989
342.991
342.995
342.997
342.995
342.994
342.993
342.992
342.992
342.99
342.992
342.994
342.991
342.993
342.996
342.998
342.996
342.995
342.994
342.994
342.993
342.992
342.993
342.995
342.993
342.995
342.997
342.998
342.997
342.996
342.996
342.995
342.995
342.994
342.994
342.996
342.995
342.996
342.997
342.998
342.997
342.997
342.997
342.996
342.996
342.995
342.996
342.996
342.996
342.997
342.998
342.998
342.998
342.997
342.997
342.997
342.997
342.996
342.996
342.997
342.997
342.998
342.998
342.998
342.998
342.998
342.998
342.998
342.997
342.997
342.997
342.997
342.998
342.998
342.998
342.998
342.998
342.998
342.998
342.998
342.998
342.998
342.998
342.998
342.998
342.998
342.999
342.998
342.998
342.998
342.999
342.998
342.998
342.998
342.998
342.998
342.998
342.999
342.999
342.998
342.999
342.999
342.999
342.999
342.998
342.998
342.998
342.998
342.999
342.999
342.999
342.998
342.999
342.999
342.999
342.999
342.999
342.999
342.998
342.998
342.999
342.999
342.999
342.999
342.999
342.999
342.999
342.999
342.999
342.999
342.999
342.999
342.999
342.999
342.999
342.999
342.999
342.999
342.999
342.999
342.999
342.999
342.999
342.999
342.999
342.999
342.999
342.999
342.999
342.999
342.999
342.999
342.999
342.999
342.999
342.999
342.999
342.999
342.999
342.999
342.999
342.999
342.999
342.999
342.999
342.999
342.999
342.999
342.999
342.999
342.999
342.999
342.999
342.999
342.999
342.999
342.999
342.999
342.999
342.999
342.999
342.999
342.999
342.999
342.999
342.999
343
342.999
342.999
342.999
342.999
342.999
342.999
343
342.999
342.999
342.999
343
343
343
343
343
342.999
342.999
343
343
343
342.999
342.999
343
343
343
343
343
342.999
342.999
343
343
343
342.999
343
343
343
343
343
343
343
343
343
343
343
342.999
343
343
343
343
343
343
343
343
343
343
343
343
343
343
343
343
343
343
343
343
343
343
343
343
343
343
343
343
343
343
343
343
343
343
343
343
343
343
343
343
343
343
343
343
343
343
343
343
343
343
343
343
343
343
343
343
343
343
343
343
343
343
343
343
343
343
343
343
343
343
343
343
343
343
343
343
343
343
343
343
343
343
343
343
343
343
343
343
343
343
343
343
343
343
343
343
343
343
343
343
343
343
343
343
343
343
343
343
343
343
343
343
343
343
343
343
343
343
343
343
343
343
343
343
343
343
343
343
343
343
343
343
343
343
343
343
343
343
343
343
343
343
343
343
343
343
343
343
343
343
343
343
343
343
343
343
343
343
343
343
343
343
343
343
343
343
343
343
343
343
343
343
343
343
343
343
343
343
343
343
343
343
343
343
343
343
343
343
343
343
343
343
343
343
343
343
343
343
343
343
343
343
343
343
343
343
343
343
343
343
343
343
343
343
343
343
343
343
343
343
343
343
343
343
343
343
343
343
343
343
343
343
343
343
343
343
343
343
343
343
343
343
343
343
343
343
343
343
343
343
343
343
343
343
343
343
343
343
343
343
343
343
343
343
343
343
343
343
343
343
343
343
343
343
343
343
343
343
343
343
343
343
343
343
343
343
343
343
343
343
343
343
343
343
343
343
343
343
343
343
343
343
343
343
343
343
343
343
343
343
343
343
343
343
343
343
343
343
343
343
343
343
343
343
343
343
343
343
343
343
343
343
343
343
343
371.685
371.702
371.697
371.671
371.697
371.724
371.718
371.703
371.681
371.682
371.693
371.691
369.043
369.091
369.079
369.003
369.079
369.16
369.145
369.099
369.031
369.034
369.067
369.062
366.364
366.44
366.427
366.306
366.429
366.565
366.545
366.468
366.351
366.348
366.412
366.404
363.665
363.762
363.754
363.599
363.761
363.95
363.932
363.826
363.657
363.638
363.74
363.731
360.972
361.078
361.086
360.913
361.098
361.332
361.326
361.197
360.977
360.928
361.074
361.068
358.325
358.428
358.463
358.289
358.473
358.738
358.755
358.615
358.351
358.256
358.448
358.449
355.778
355.862
355.935
355.775
355.933
356.21
356.26
356.124
355.826
355.671
355.907
355.92
353.389
353.444
353.56
353.425
353.535
353.803
353.891
353.771
353.455
353.238
353.506
353.535
351.217
351.237
351.395
351.29
351.338
351.582
351.705
351.609
351.288
351.021
351.304
351.351
349.307
349.293
349.488
349.411
349.399
349.608
349.752
349.68
349.372
349.078
349.357
349.419
347.689
347.647
347.87
347.818
347.756
347.927
348.075
348.017
347.737
347.449
347.703
347.776
346.367
346.308
346.548
346.518
346.426
346.558
346.689
346.638
346.398
346.143
346.359
346.433
345.328
345.262
345.506
345.496
345.392
345.489
345.589
345.537
345.347
345.144
345.314
345.381
344.545
344.481
344.716
344.722
344.621
344.688
344.751
344.698
344.561
344.414
344.536
344.592
343.985
343.928
344.139
344.157
344.068
344.11
344.141
344.09
344.002
343.904
343.985
344.026
343.606
343.562
343.734
343.759
343.685
343.708
343.717
343.675
343.625
343.564
343.612
343.642
343.368
343.335
343.46
343.487
343.429
343.439
343.437
343.408
343.384
343.347
343.374
343.394
343.23
343.205
343.284
343.306
343.264
343.267
343.263
343.247
343.237
343.214
343.229
343.243
343.155
343.137
343.175
343.191
343.163
343.163
343.162
343.156
343.151
343.137
343.148
343.157
343.116
343.104
343.113
343.122
343.105
343.105
343.108
343.108
343.103
343.095
343.105
343.112
343.095
343.088
343.081
343.083
343.074
343.076
343.082
343.084
343.077
343.074
343.085
343.09
343.082
343.081
343.068
343.063
343.059
343.063
343.071
343.072
343.065
343.065
343.076
343.08
343.072
343.077
343.064
343.055
343.053
343.059
343.066
343.066
343.06
343.062
343.072
343.075
343.064
343.072
343.063
343.051
343.051
343.057
343.062
343.061
343.059
343.061
343.068
343.071
343.057
343.066
343.061
343.05
343.049
343.055
343.057
343.056
343.057
343.059
343.064
343.066
343.05
343.058
343.058
343.047
343.047
343.052
343.051
343.05
343.055
343.055
343.057
343.059
343.045
343.049
343.051
343.044
343.044
343.048
343.044
343.043
343.05
343.05
343.05
343.051
343.039
343.04
343.043
343.039
343.039
343.042
343.037
343.036
343.044
343.043
343.041
343.043
343.033
343.031
343.034
343.033
343.033
343.035
343.03
343.029
343.036
343.036
343.033
343.034
343.027
343.023
343.026
343.027
343.028
343.029
343.023
343.022
343.029
343.028
343.026
343.026
343.021
343.016
343.019
343.021
343.022
343.023
343.018
343.017
343.022
343.021
343.019
343.019
343.016
343.011
343.013
343.016
343.017
343.017
343.013
343.012
343.016
343.016
343.014
343.014
343.011
343.008
343.009
343.012
343.012
343.012
343.009
343.008
343.011
343.011
343.009
343.009
343.008
343.005
343.006
343.009
343.009
343.008
343.006
343.005
343.008
343.007
343.006
343.006
343.005
343.003
343.004
343.006
343.006
343.005
343.004
343.003
343.005
343.005
343.004
343.004
343.003
343.001
343.002
343.004
343.004
343.003
343.002
343.002
343.003
343.003
343.002
343.002
343.001
343.001
343.001
343.003
343.002
343.001
343.001
343.001
343.001
343.002
343.001
343.001
343
343
343
343.001
343.001
343
343
343
343
343.001
343
343
343
343
343
343.001
343
343
343
343
343
343
343
343
342.999
342.999
343
343
343
342.999
342.999
342.999
342.999
343
343
343
342.999
342.999
343
343
343
342.999
342.999
342.999
342.999
342.999
342.999
342.999
342.999
342.999
342.999
343
342.999
342.999
342.999
342.999
342.999
342.999
342.999
342.999
342.999
342.999
342.999
343
342.999
342.999
342.999
342.999
342.999
342.999
342.999
342.999
342.999
342.999
342.999
343
342.999
342.999
342.999
342.999
342.999
342.999
342.999
342.999
342.999
342.999
342.999
343
342.999
342.999
342.999
342.999
342.999
342.999
342.999
342.999
342.999
342.999
342.999
343
342.999
342.999
342.999
342.999
342.999
342.999
342.999
342.999
342.999
342.999
343
343
342.999
342.999
342.999
342.999
342.999
342.999
342.999
342.999
342.999
342.999
343
343
342.999
342.999
342.999
342.999
342.999
343
343
342.999
342.999
342.999
343
343
342.999
342.999
342.999
342.999
342.999
343
343
343
342.999
343
343
343
342.999
342.999
343
343
343
343
343
343
342.999
343
343
343
343
342.999
343
343
343
343
343
343
343
343
343
343
343
343
343
343
343
343
343
343
343
343
343
343
343
343
343
343
343
343
343
343
343
343
343
343
343
343
343
343
343
343
343
343
343
343
343
343
343
343
343
343
343
343
343
343
343
343
343
343
343
343
343
343
343
343
343
343
343
343
343
343
343
343
343
343
343
343
343
343
343
343
343
343
343
343
343
343
343
343
343
343
343
343
343
343
343
343
343
343
343
343
343
343
343
343
343
343
343
343
343
343
343
343
343
343
343
343
343
343
343
343
343
343
343
343
343
343
343
343
343
343
343
343
343
343
343
343
343
343
343
343
343
343
343
343
343
343
343
343
343
343
343
343
343
343
343
343
343
343
343
343
343
343
343
343
343
343
343
343
343
343
343
343
343
343
343