-0.0075 	0 	0 	0
-0.0075 	-2.78605e-34 	3.52139e-36 	-7.45664e-33
-0.00745622 	-0.00036617 	4.62816e-06 	-0.00980027
-0.00745622 	-0.00036617 	4.62816e-06 	-0.00980027
-0.00741165 	-0.000641531 	9.159e-06 	-0.0185925
-0.00741165 	-0.000641531 	9.159e-06 	-0.0185925
-0.00736628 	-0.000854191 	1.33466e-05 	-0.0272012
-0.00736628 	-0.000854191 	1.33466e-05 	-0.0272012
-0.0073201 	-0.0010504 	1.59764e-05 	-0.0359799
-0.0073201 	-0.0010504 	1.59764e-05 	-0.0359799
-0.00727309 	-0.00123881 	1.9512e-05 	-0.0449018
-0.00727309 	-0.00123881 	1.9512e-05 	-0.0449018
-0.00722524 	-0.001412 	2.33971e-05 	-0.0538083
-0.00722524 	-0.001412 	2.33971e-05 	-0.0538083
-0.00717653 	-0.00156684 	2.7875e-05 	-0.062577
-0.00717653 	-0.00156684 	2.7875e-05 	-0.062577
-0.00712695 	-0.00170225 	3.29703e-05 	-0.0711291
-0.00712695 	-0.00170225 	3.29703e-05 	-0.0711291
-0.00707647 	-0.00181815 	3.85175e-05 	-0.0794073
-0.00707647 	-0.00181815 	3.85175e-05 	-0.0794073
-0.0070251 	-0.00191505 	4.43402e-05 	-0.0873703
-0.0070251 	-0.00191505 	4.43402e-05 	-0.0873703
-0.0069728 	-0.00199385 	5.05173e-05 	-0.0949942
-0.0069728 	-0.00199385 	5.05173e-05 	-0.0949942
-0.00691956 	-0.00205583 	5.71052e-05 	-0.102273
-0.00691956 	-0.00205583 	5.71052e-05 	-0.102273
-0.00686537 	-0.00210241 	6.41757e-05 	-0.109214
-0.00686537 	-0.00210241 	6.41757e-05 	-0.109214
-0.00681021 	-0.0021349 	7.16925e-05 	-0.115829
-0.00681021 	-0.0021349 	7.16925e-05 	-0.115829
-0.00675406 	-0.00215428 	7.95732e-05 	-0.122131
-0.00675406 	-0.00215428 	7.95732e-05 	-0.122131
-0.0066969 	-0.00216117 	8.78841e-05 	-0.128126
-0.0066969 	-0.00216117 	8.78841e-05 	-0.128126
-0.00663871 	-0.00215616 	9.63917e-05 	-0.133825
-0.00663871 	-0.00215616 	9.63917e-05 	-0.133825
-0.00657949 	-0.00214027 	0.000104761 	-0.139247
-0.00657949 	-0.00214027 	0.000104761 	-0.139247
-0.0065192 	-0.00211492 	0.000113285 	-0.144424
-0.0065192 	-0.00211492 	0.000113285 	-0.144424
-0.00645783 	-0.00208128 	0.000122842 	-0.149401
-0.00645783 	-0.00208128 	0.000122842 	-0.149401
-0.00639535 	-0.00203978 	0.000133752 	-0.154197
-0.00639535 	-0.00203978 	0.000133752 	-0.154197
-0.00633176 	-0.00199025 	0.000144806 	-0.158796
-0.00633176 	-0.00199025 	0.000144806 	-0.158796
-0.00626703 	-0.00193274 	0.000154521 	-0.163158
-0.00626703 	-0.00193274 	0.000154521 	-0.163158
-0.00620114 	-0.00186823 	0.000163224 	-0.167283
-0.00620114 	-0.00186823 	0.000163224 	-0.167283
-0.00613406 	-0.00179819 	0.000172393 	-0.171213
-0.00613406 	-0.00179819 	0.000172393 	-0.171213
-0.00606579 	-0.00172361 	0.000182676 	-0.174996
-0.00606579 	-0.00172361 	0.000182676 	-0.174996
-0.00599629 	-0.00164482 	0.000193436 	-0.17865
-0.00599629 	-0.00164482 	0.000193436 	-0.17865
-0.00592554 	-0.00156193 	0.00020372 	-0.182177
-0.00592554 	-0.00156193 	0.00020372 	-0.182177
-0.00585352 	-0.00147499 	0.000213286 	-0.185577
-0.00585352 	-0.00147499 	0.000213286 	-0.185577
-0.00578022 	-0.00138342 	0.000222126 	-0.188859
-0.00578022 	-0.00138342 	0.000222126 	-0.188859
-0.00570559 	-0.00128508 	0.000230151 	-0.192022
-0.00570559 	-0.00128508 	0.000230151 	-0.192022
-0.00562963 	-0.00117645 	0.000240759 	-0.195056
-0.00562963 	-0.00117645 	0.000240759 	-0.195056
-0.00555231 	-0.00105577 	0.000249477 	-0.197949
-0.00555231 	-0.00105577 	0.000249477 	-0.197949
-0.0054736 	-0.000926904 	0.000249004 	-0.200764
-0.0054736 	-0.000926904 	0.000249004 	-0.200764
-0.00539348 	-0.000802 	0.000253882 	-0.203704
-0.00539348 	-0.000802 	0.000253882 	-0.203704
-0.00531193 	-0.000695943 	0.000276925 	-0.207024
-0.00531193 	-0.000695943 	0.000276925 	-0.207024
-0.00522891 	-0.000609919 	0.000307512 	-0.210755
-0.00522891 	-0.000609919 	0.000307512 	-0.210755
-0.0051444 	-0.000525132 	0.000312957 	-0.214361
-0.0051444 	-0.000525132 	0.000312957 	-0.214361
-0.00505838 	-0.000420634 	0.000293088 	-0.217334
-0.00505838 	-0.000420634 	0.000293088 	-0.217334
-0.00497081 	-0.000290094 	0.000290206 	-0.219793
-0.00497081 	-0.000290094 	0.000290206 	-0.219793
-0.00488168 	-0.000143578 	0.000312315 	-0.222049
-0.00488168 	-0.000143578 	0.000312315 	-0.222049
-0.00479094 	5.62631e-06 	0.00033511 	-0.224262
-0.00479094 	5.62631e-06 	0.00033511 	-0.224262
-0.00469858 	0.000148212 	0.000346077 	-0.226458
-0.00469858 	0.000148212 	0.000346077 	-0.226458
-0.00460456 	0.000271846 	0.000351328 	-0.228672
-0.00460456 	0.000271846 	0.000351328 	-0.228672
-0.00450886 	0.000366443 	0.000350947 	-0.231036
-0.00450886 	0.000366443 	0.000350947 	-0.231036
-0.00441144 	0.00043031 	0.000338259 	-0.233685
-0.00441144 	0.00043031 	0.000338259 	-0.233685
-0.00431227 	0.000485097 	0.000327589 	-0.236466
-0.00431227 	0.000485097 	0.000327589 	-0.236466
-0.00421133 	0.000567828 	0.00033987 	-0.238964
-0.00421133 	0.000567828 	0.00033987 	-0.238964
-0.00410857 	0.00068321 	0.000362343 	-0.241013
-0.00410857 	0.00068321 	0.000362343 	-0.241013
-0.00400397 	0.000809651 	0.000371118 	-0.242784
-0.00400397 	0.000809651 	0.000371118 	-0.242784
-0.0038975 	0.000932239 	0.000365421 	-0.24444
-0.0038975 	0.000932239 	0.000365421 	-0.24444
-0.00378912 	0.00104861 	0.000357482 	-0.246021
-0.00378912 	0.00104861 	0.000357482 	-0.246021
-0.00367879 	0.00116329 	0.000355013 	-0.247516
-0.00367879 	0.00116329 	0.000355013 	-0.247516
-0.00356649 	0.00127738 	0.000356671 	-0.248939
-0.00356649 	0.00127738 	0.000356671 	-0.248939
-0.00345217 	0.00138872 	0.000359416 	-0.250351
-0.00345217 	0.00138872 	0.000359416 	-0.250351
-0.0033358 	0.00149111 	0.000358557 	-0.251804
-0.0033358 	0.00149111 	0.000358557 	-0.251804
-0.00321735 	0.0015783 	0.000353487 	-0.253252
-0.00321735 	0.0015783 	0.000353487 	-0.253252
-0.00309677 	0.00165295 	0.000350182 	-0.254614
-0.00309677 	0.00165295 	0.000350182 	-0.254614
-0.00297403 	0.00172184 	0.000350775 	-0.255881
-0.00297403 	0.00172184 	0.000350775 	-0.255881
-0.00284909 	0.0017867 	0.000353369 	-0.257085
-0.00284909 	0.0017867 	0.000353369 	-0.257085
-0.0027219 	0.00184624 	0.000358097 	-0.25825
-0.0027219 	0.00184624 	0.000358097 	-0.25825
-0.00259244 	0.00190006 	0.000364271 	-0.259379
-0.00259244 	0.00190006 	0.000364271 	-0.259379
-0.00246065 	0.00194796 	0.000369495 	-0.260476
-0.00246065 	0.00194796 	0.000369495 	-0.260476
-0.00232651 	0.00198953 	0.000373979 	-0.261542
-0.00232651 	0.00198953 	0.000373979 	-0.261542
-0.00218995 	0.00202425 	0.000379495 	-0.262579
-0.00218995 	0.00202425 	0.000379495 	-0.262579
-0.00205095 	0.00205182 	0.000386991 	-0.263589
-0.00205095 	0.00205182 	0.000386991 	-0.263589
-0.00190946 	0.00207202 	0.000396309 	-0.264572
-0.00190946 	0.00207202 	0.000396309 	-0.264572
-0.00176543 	0.00208347 	0.000407416 	-0.265525
-0.00176543 	0.00208347 	0.000407416 	-0.265525
-0.00161881 	0.00208496 	0.000420516 	-0.266446
-0.00161881 	0.00208496 	0.000420516 	-0.266446
-0.00146957 	0.00207717 	0.000435587 	-0.26733
-0.00146957 	0.00207717 	0.000435587 	-0.26733
-0.00131765 	0.00206097 	0.000452655 	-0.268185
-0.00131765 	0.00206097 	0.000452655 	-0.268185
-0.001163 	0.00203623 	0.000472374 	-0.269018
-0.001163 	0.00203623 	0.000472374 	-0.269018
-0.00100559 	0.00200346 	0.000494808 	-0.269808
-0.00100559 	0.00200346 	0.000494808 	-0.269808
-0.000845345 	0.00196505 	0.000514927 	-0.270523
-0.000845345 	0.00196505 	0.000514927 	-0.270523
-0.000682232 	0.00192745 	0.000534618 	-0.271139
-0.000682232 	0.00192745 	0.000534618 	-0.271139
-0.000516194 	0.00189977 	0.000560355 	-0.2716
-0.000516194 	0.00189977 	0.000560355 	-0.2716
-0.000347178 	0.00187862 	0.000587598 	-0.271925
-0.000347178 	0.00187862 	0.000587598 	-0.271925
-0.000175132 	0.00182796 	0.000621058 	-0.27236
-0.000175132 	0.00182796 	0.000621058 	-0.27236
0 	0.00169699 	0.000660528 	-0.273176
0 	0.00169699 	0.000660528 	-0.273176
0 	0.00169699 	0.000660528 	-0.273176
0 	0.00169699 	0.000660528 	-0.273176
0.000175132 	0.0015222 	0.000698312 	-0.273984
0.000175132 	-0.0019347 	0.00434563 	-0.252354
0.000347178 	0.00137688 	0.000729578 	-0.274303
0.000347178 	-0.0021752 	0.00443045 	-0.251312
0.000516194 	0.00127177 	0.000744363 	-0.274214
0.000516194 	-0.00240085 	0.00446673 	-0.250605
0.000682232 	0.00118932 	0.000754753 	-0.273905
0.000682232 	-0.00261054 	0.00439955 	-0.251211
0.000845345 	0.00110937 	0.00076866 	-0.273502
0.000845345 	-0.00277222 	0.00428287 	-0.252463
0.00100559 	0.00102712 	0.000779166 	-0.273022
0.00100559 	-0.00283057 	0.00437099 	-0.253224
0.001163 	0.000944775 	0.000787601 	-0.272456
0.001163 	-0.00288719 	0.0045365 	-0.253241
0.00131765 	0.000863496 	0.000794509 	-0.271806
0.00131765 	-0.00305016 	0.0045136 	-0.252505
0.00146957 	0.000783901 	0.000803695 	-0.27107
0.00146957 	-0.00325846 	0.00443121 	-0.251399
0.00161881 	0.000706241 	0.000804873 	-0.270242
0.00161881 	-0.00345976 	0.00439414 	-0.250198
0.00176543 	0.000628754 	0.000778507 	-0.269373
0.00176543 	-0.00364917 	0.00438044 	-0.249007
0.00190946 	0.000545744 	0.000758354 	-0.268605
0.00190946 	-0.00383293 	0.00435726 	-0.247845
0.00205095 	0.000449581 	0.000804032 	-0.267919
0.00205095 	-0.00401435 	0.00432502 	-0.246711
0.00218995 	0.000340952 	0.000893495 	-0.266736
0.00218995 	-0.00418786 	0.00429089 	-0.245601
0.00232651 	0.000243659 	0.000884787 	-0.264389
0.00232651 	-0.00433607 	0.0042538 	-0.24451
0.00246065 	0.00016856 	0.00079936 	-0.261651
0.00246065 	-0.00444075 	0.00421424 	-0.243423
0.00259244 	9.93176e-05 	0.000759541 	-0.259541
0.00259244 	-0.0044962 	0.00417237 	-0.242321
0.0027219 	2.64431e-05 	0.000745943 	-0.257992
0.0027219 	-0.00451118 	0.00413704 	-0.241183
0.00284909 	-5.16351e-05 	0.000748483 	-0.256773
0.00284909 	-0.00450518 	0.00411911 	-0.239953
0.00297403 	-0.000134531 	0.000781116 	-0.255651
0.00297403 	-0.00449182 	0.0040968 	-0.238516
0.00309677 	-0.000215682 	0.000829709 	-0.254234
0.00309677 	-0.00446427 	0.00403025 	-0.236876
0.00321735 	-0.00028018 	0.000822236 	-0.252204
0.00321735 	-0.00439753 	0.00392707 	-0.235425
0.0033358 	-0.00032717 	0.000755025 	-0.249909
0.0033358 	-0.00426456 	0.00387538 	-0.234629
0.00345217 	-0.00037097 	0.000710563 	-0.247847
0.00345217 	-0.00407608 	0.00386556 	-0.233982
0.00356649 	-0.00041936 	0.000712269 	-0.246034
0.00356649 	-0.00386972 	0.00384598 	-0.232701
0.00367879 	-0.000470811 	0.000717898 	-0.244307
0.00367879 	-0.0036704 	0.00383117 	-0.230747
0.00378912 	-0.00348852 	0.00384999 	-0.228338
0.00378912 	-0.000520515 	0.000708767 	-0.242549
0.0038975 	-0.000563259 	0.000713565 	-0.240776
0.0038975 	-0.00329959 	0.00389377 	-0.226021
0.00400397 	-0.000593562 	0.000712579 	-0.23909
0.00400397 	-0.00303219 	0.00376407 	-0.224753
0.00410857 	-0.000612471 	0.000664402 	-0.23744
0.00410857 	-0.00263167 	0.00340783 	-0.224372
0.00421133 	-0.000630967 	0.000595485 	-0.235365
0.00421133 	-0.00217093 	0.00310173 	-0.221543
0.00431227 	-0.000662696 	0.000586351 	-0.232445
0.00431227 	-0.00181291 	0.00321748 	-0.21304
0.00441144 	-0.000708929 	0.000623858 	-0.229224
0.00441144 	-0.00161664 	0.00353472 	-0.202614
0.00450886 	-0.000755805 	0.000635996 	-0.226424
0.00450886 	-0.00148779 	0.00360515 	-0.195317
0.00460456 	-0.000786593 	0.000606982 	-0.22403
0.00460456 	-0.00128379 	0.00341214 	-0.19115
0.00469858 	-0.000800481 	0.000562781 	-0.221808
0.00469858 	-0.000976052 	0.00321712 	-0.188528
0.00479094 	-0.000809808 	0.000540229 	-0.219604
0.00479094 	-0.000642033 	0.00327712 	-0.186327
0.00488168 	-0.000819564 	0.000528774 	-0.217429
0.00488168 	-0.00031707 	0.0033656 	-0.184468
0.00497081 	-0.000829007 	0.000508958 	-0.215278
0.00497081 	-5.40517e-06 	0.00320019 	-0.183032
0.00505838 	-0.000837544 	0.000493047 	-0.212881
0.00505838 	0.000272966 	0.00290398 	-0.181091
0.0051444 	-0.000842986 	0.00048204 	-0.209898
0.0051444 	0.000504604 	0.00275052 	-0.177426
0.00522891 	-0.000846095 	0.000459209 	-0.206496
0.00522891 	0.000700929 	0.00278854 	-0.172782
0.00531193 	0.000897586 	0.0028749 	-0.168929
0.00531193 	-0.000850609 	0.000431946 	-0.203202
0.00539348 	-0.000854057 	0.000402998 	-0.200221
0.00539348 	0.00114529 	0.00281937 	-0.166261
0.0054736 	-0.00085486 	0.000376651 	-0.197423
0.0054736 	0.00144106 	0.00265204 	-0.164219
0.00555231 	-0.000856246 	0.000360643 	-0.194641
0.00555231 	0.00173228 	0.00255421 	-0.162299
0.00562963 	-0.000858014 	0.000340187 	-0.191792
0.00562963 	0.00199971 	0.0024909 	-0.160355
0.00570559 	-0.000858562 	0.000315415 	-0.188859
0.00570559 	0.00225031 	0.00240646 	-0.158413
0.00578022 	-0.00085743 	0.000292927 	-0.185831
0.00578022 	0.00248728 	0.00232067 	-0.156478
0.00585352 	-0.000854236 	0.000270752 	-0.182692
0.00585352 	0.00271158 	0.00223483 	-0.154536
0.00592554 	-0.000848782 	0.000248939 	-0.179423
0.00592554 	0.00292361 	0.00214889 	-0.152571
0.00599629 	-0.000841038 	0.000227899 	-0.176
0.00599629 	0.0031234 	0.00206262 	-0.150563
0.00606579 	0.00331144 	0.00197599 	-0.148502
0.00606579 	-0.000830861 	0.000207896 	-0.172408
0.00613406 	-0.000817874 	0.000188735 	-0.168629
0.00613406 	0.00348864 	0.00188743 	-0.146381
0.00620114 	-0.000801727 	0.000170465 	-0.164643
0.00620114 	0.00365492 	0.00179638 	-0.144181
0.00626703 	-0.000782334 	0.000153203 	-0.160423
0.00626703 	0.00380852 	0.00170337 	-0.14184
0.00633176 	-0.00075998 	0.000137186 	-0.155935
0.00633176 	0.00394552 	0.00161033 	-0.139278
0.00639535 	-0.000735189 	0.000122623 	-0.151148
0.00639535 	0.00406043 	0.00151846 	-0.136412
0.00645783 	-0.000708447 	0.000109355 	-0.146032
0.00645783 	0.00414815 	0.00142643 	-0.133164
0.0065192 	-0.00068019 	9.72708e-05 	-0.14056
0.0065192 	0.00420432 	0.00133395 	-0.129466
0.00657949 	-0.000650756 	8.63729e-05 	-0.134708
0.00657949 	0.00422643 	0.00124217 	-0.125269
0.00663871 	-0.000620138 	7.66905e-05 	-0.128467
0.00663871 	0.00421528 	0.00115176 	-0.120559
0.0066969 	-0.000588093 	6.81807e-05 	-0.121829
0.0066969 	0.00417225 	0.00106171 	-0.115351
0.00675406 	-0.000554573 	6.07303e-05 	-0.114776
0.00675406 	0.00409583 	0.000970643 	-0.109638
0.00681021 	-0.000520115 	5.42575e-05 	-0.10729
0.00681021 	0.00398113 	0.000878755 	-0.103384
0.00686537 	-0.000485938 	4.86194e-05 	-0.099384
0.00686537 	0.00382172 	0.000787683 	-0.096551
0.00691956 	-0.000453463 	4.36395e-05 	-0.0911073
0.00691956 	0.00361356 	0.000699087 	-0.0891291
0.0069728 	-0.000423751 	3.90692e-05 	-0.0825486
0.0069728 	0.00335697 	0.000613376 	-0.0811535
0.0070251 	-0.000397357 	3.46057e-05 	-0.07383
0.0070251 	0.00305611 	0.000530867 	-0.072706
0.00707647 	-0.000374147 	3.00233e-05 	-0.0650924
0.00707647 	0.00271941 	0.000452465 	-0.0639151
0.00712695 	-0.000353042 	2.52067e-05 	-0.0564751
0.00712695 	0.00235995 	0.00037885 	-0.0549519
0.00717653 	-0.000331897 	2.01286e-05 	-0.0480961
0.00717653 	0.00199474 	0.000310364 	-0.0460199
0.00722524 	-0.000307424 	1.48301e-05 	-0.0400442
0.00722524 	0.00164408 	0.000246476 	-0.0373491
0.00727309 	-0.000274856 	9.49465e-06 	-0.0323881
0.00727309 	0.00133233 	0.000188217 	-0.0292139
0.0073201 	-0.000227081 	4.48317e-06 	-0.0251969
0.0073201 	0.00109131 	0.000140417 	-0.0219853
0.00736628 	-0.000153044 	2.78477e-07 	-0.0185313
0.00736628 	0.000967001 	7.91532e-05 	-0.0161851
0.00741165 	-6.12619e-05 	-1.59893e-06 	-0.0123249
0.00741165 	0.000888946 	4.82289e-05 	-0.011697
0.00745622 	1.58588e-06 	-1.55806e-06 	-0.00628158
0.00745622 	0.000607924 	2.23153e-05 	-0.00688905
0.0075 	0 	0 	0
0.0075 	0 	0 	0
