/*--------------------------------*- C++ -*----------------------------------*\
| =========                 |                                                 |
| \\      /  F ield         | OpenFOAM: The Open Source CFD Toolbox           |
|  \\    /   O peration     | Version:  v1912                                 |
|   \\  /    A nd           | Website:  www.openfoam.com                      |
|    \\/     M anipulation  |                                                 |
\*---------------------------------------------------------------------------*/
FoamFile
{
    version     2.0;
    format      ascii;
    class       volScalarField;
    location    "10.4";
    object      k;
}
// * * * * * * * * * * * * * * * * * * * * * * * * * * * * * * * * * * * * * //

dimensions      [0 2 -2 0 0 0 0];


internalField   nonuniform List<scalar> 
34128
(
6.82675e-07
6.7174e-07
6.64011e-07
6.51424e-07
6.63255e-07
6.84289e-07
6.95377e-07
6.8779e-07
6.66883e-07
6.47538e-07
6.47996e-07
6.95574e-07
1.11127e-07
1.09443e-07
1.08036e-07
1.05798e-07
1.076e-07
1.10996e-07
1.12629e-07
1.11191e-07
1.08021e-07
1.05382e-07
1.05797e-07
1.13544e-07
6.98905e-08
6.94422e-08
6.76839e-08
6.50364e-08
6.52809e-08
6.72695e-08
6.71464e-08
6.48463e-08
6.43539e-08
6.60681e-08
6.87124e-08
7.35533e-08
1.43018e-07
1.4313e-07
1.38209e-07
1.30789e-07
1.29761e-07
1.33581e-07
1.31439e-07
1.24439e-07
1.25909e-07
1.34984e-07
1.44393e-07
1.54069e-07
3.25717e-07
3.2669e-07
3.14996e-07
2.9707e-07
2.93672e-07
3.02125e-07
2.96144e-07
2.78941e-07
2.83836e-07
3.0786e-07
3.31714e-07
3.53007e-07
6.4606e-07
6.48846e-07
6.25814e-07
5.89827e-07
5.81949e-07
5.98159e-07
5.85389e-07
5.50518e-07
5.61771e-07
6.12381e-07
6.61632e-07
7.01849e-07
1.12892e-06
1.13531e-06
1.09588e-06
1.03311e-06
1.01762e-06
1.04456e-06
1.02097e-06
9.59569e-07
9.8174e-07
1.07435e-06
1.16254e-06
1.22814e-06
1.78442e-06
1.7973e-06
1.73653e-06
1.63836e-06
1.61139e-06
1.65113e-06
1.61179e-06
1.51478e-06
1.55408e-06
1.70671e-06
1.84825e-06
1.9427e-06
2.60241e-06
2.62582e-06
2.5395e-06
2.39891e-06
2.35663e-06
2.40973e-06
2.34924e-06
2.20888e-06
2.27272e-06
2.50367e-06
2.71118e-06
2.83309e-06
3.55255e-06
3.59152e-06
3.47652e-06
3.28926e-06
3.22895e-06
3.2944e-06
3.20767e-06
3.01899e-06
3.11497e-06
3.43965e-06
3.72126e-06
3.86367e-06
4.58912e-06
4.64912e-06
4.50378e-06
4.26893e-06
4.18989e-06
4.26553e-06
4.14864e-06
3.91034e-06
4.04503e-06
4.47292e-06
4.83019e-06
4.98146e-06
5.65804e-06
5.74419e-06
5.56884e-06
5.2889e-06
5.19266e-06
5.27574e-06
5.12671e-06
4.84153e-06
5.01933e-06
5.55172e-06
5.97877e-06
6.12464e-06
6.70637e-06
6.82202e-06
6.61985e-06
6.29886e-06
6.18776e-06
6.27529e-06
6.09469e-06
5.76925e-06
5.99159e-06
6.623e-06
7.11474e-06
7.24236e-06
7.71188e-06
7.85923e-06
7.63552e-06
7.27913e-06
7.15429e-06
7.2431e-06
7.03016e-06
6.6685e-06
6.93751e-06
7.66423e-06
8.21312e-06
8.31071e-06
8.65575e-06
8.83554e-06
8.59779e-06
8.21335e-06
8.07562e-06
8.16218e-06
7.917e-06
7.52421e-06
7.84083e-06
8.65573e-06
9.25223e-06
9.30993e-06
9.52256e-06
9.73403e-06
9.49172e-06
9.08811e-06
8.93794e-06
9.01837e-06
8.74178e-06
8.32375e-06
8.6878e-06
9.58074e-06
1.02138e-05
1.0224e-05
1.02998e-05
1.05408e-05
1.03049e-05
9.89228e-06
9.72991e-06
9.80003e-06
9.49351e-06
9.05671e-06
9.46693e-06
1.04252e-05
1.10826e-05
1.104e-05
1.0978e-05
1.12449e-05
1.10271e-05
1.06165e-05
1.04422e-05
1.04978e-05
1.01634e-05
9.71477e-06
1.01688e-05
1.11775e-05
1.18459e-05
1.17475e-05
1.15499e-05
1.18385e-05
1.16501e-05
1.12531e-05
1.10674e-05
1.11046e-05
1.07451e-05
1.02916e-05
1.07859e-05
1.18287e-05
1.24938e-05
1.23389e-05
1.20113e-05
1.23164e-05
1.21681e-05
1.1796e-05
1.15999e-05
1.16155e-05
1.12341e-05
1.07829e-05
1.13129e-05
1.23718e-05
1.30194e-05
1.28091e-05
1.23604e-05
1.26767e-05
1.25771e-05
1.22409e-05
1.20361e-05
1.20277e-05
1.16283e-05
1.11863e-05
1.17461e-05
1.28024e-05
1.34185e-05
1.31564e-05
1.25981e-05
1.29201e-05
1.28759e-05
1.2585e-05
1.23743e-05
1.23404e-05
1.19274e-05
1.15012e-05
1.20841e-05
1.31182e-05
1.36901e-05
1.33818e-05
1.27277e-05
1.30499e-05
1.30652e-05
1.28273e-05
1.26138e-05
1.25547e-05
1.21329e-05
1.17284e-05
1.23268e-05
1.33196e-05
1.38362e-05
1.34894e-05
1.27547e-05
1.30716e-05
1.31479e-05
1.29679e-05
1.27555e-05
1.26731e-05
1.22478e-05
1.18702e-05
1.24756e-05
1.34091e-05
1.3862e-05
1.34859e-05
1.26862e-05
1.29931e-05
1.31288e-05
1.30088e-05
1.28013e-05
1.26989e-05
1.22762e-05
1.19296e-05
1.25328e-05
1.33915e-05
1.37757e-05
1.33805e-05
1.25313e-05
1.28236e-05
1.30146e-05
1.29539e-05
1.27548e-05
1.2637e-05
1.22233e-05
1.19107e-05
1.25019e-05
1.32742e-05
1.35882e-05
1.31842e-05
1.23003e-05
1.25741e-05
1.28138e-05
1.28092e-05
1.26217e-05
1.24935e-05
1.2095e-05
1.18182e-05
1.23876e-05
1.30668e-05
1.33127e-05
1.29092e-05
1.20043e-05
1.22561e-05
1.25364e-05
1.25828e-05
1.24095e-05
1.22758e-05
1.18983e-05
1.16578e-05
1.21962e-05
1.27808e-05
1.29631e-05
1.2568e-05
1.16542e-05
1.18814e-05
1.21931e-05
1.22843e-05
1.21272e-05
1.19926e-05
1.16406e-05
1.14358e-05
1.19356e-05
1.2428e-05
1.25526e-05
1.21724e-05
1.12604e-05
1.14615e-05
1.17948e-05
1.19242e-05
1.17845e-05
1.1653e-05
1.13299e-05
1.11594e-05
1.16145e-05
1.20198e-05
1.20927e-05
1.17329e-05
1.08319e-05
1.10066e-05
1.13513e-05
1.15122e-05
1.13908e-05
1.12652e-05
1.09741e-05
1.0836e-05
1.1242e-05
1.15658e-05
1.15935e-05
1.12586e-05
1.03769e-05
1.05259e-05
1.08717e-05
1.10565e-05
1.09541e-05
1.08368e-05
1.05801e-05
1.04731e-05
1.08259e-05
1.10749e-05
1.10652e-05
1.07586e-05
9.90412e-06
1.00267e-05
1.03644e-05
1.05656e-05
1.04821e-05
1.03743e-05
1.01484e-05
1.00666e-05
1.03701e-05
1.05599e-05
1.05242e-05
1.02466e-05
9.42994e-06
9.52407e-06
9.84679e-06
1.00587e-05
9.99375e-06
9.89584e-06
9.69351e-06
9.63006e-06
9.89178e-06
1.00412e-05
9.99139e-06
9.74124e-06
8.97301e-06
9.03594e-06
9.33892e-06
9.5584e-06
9.51171e-06
9.4231e-06
9.23475e-06
9.18274e-06
9.41304e-06
9.54134e-06
9.48848e-06
9.26226e-06
8.55218e-06
8.58043e-06
8.86128e-06
9.08769e-06
9.05923e-06
8.97849e-06
8.79267e-06
8.74548e-06
8.95699e-06
9.08227e-06
9.03548e-06
8.8287e-06
8.18555e-06
8.17517e-06
8.43353e-06
8.66833e-06
8.65837e-06
8.58338e-06
8.38752e-06
8.33918e-06
8.54605e-06
8.6843e-06
8.6502e-06
8.45804e-06
7.88995e-06
7.83668e-06
8.07392e-06
8.32043e-06
8.3294e-06
8.25741e-06
8.03837e-06
7.98377e-06
8.20111e-06
8.36607e-06
8.34843e-06
8.16575e-06
7.67984e-06
7.57969e-06
7.79889e-06
8.06229e-06
8.09069e-06
8.01831e-06
7.76274e-06
7.69789e-06
7.94152e-06
8.14435e-06
8.14306e-06
7.96332e-06
7.56459e-06
7.41555e-06
7.6201e-06
7.90669e-06
7.95453e-06
7.87836e-06
7.57538e-06
7.49832e-06
7.78345e-06
8.02938e-06
8.03864e-06
7.85857e-06
7.53826e-06
7.34217e-06
7.54042e-06
7.85055e-06
7.9142e-06
7.83205e-06
7.48167e-06
7.39255e-06
7.72396e-06
7.99521e-06
7.98343e-06
7.81847e-06
7.56949e-06
7.36126e-06
7.54646e-06
7.8498e-06
7.91983e-06
7.84502e-06
7.47664e-06
7.37065e-06
7.75168e-06
7.98167e-06
7.94203e-06
7.79524e-06
7.61284e-06
7.41819e-06
7.58014e-06
7.86115e-06
7.93655e-06
7.86957e-06
7.53066e-06
7.4325e-06
7.80016e-06
7.9802e-06
7.91589e-06
7.78364e-06
7.66627e-06
7.48335e-06
7.62366e-06
7.88486e-06
7.96515e-06
7.90396e-06
7.59225e-06
7.51695e-06
7.85162e-06
7.99255e-06
7.90582e-06
7.78467e-06
7.72939e-06
7.55846e-06
7.67871e-06
7.92042e-06
8.00388e-06
7.94721e-06
7.65719e-06
7.59991e-06
7.90611e-06
8.01715e-06
7.91014e-06
7.79701e-06
7.79974e-06
7.64324e-06
7.74403e-06
7.96508e-06
8.04931e-06
7.99673e-06
7.72587e-06
7.68165e-06
7.96128e-06
8.05063e-06
7.92587e-06
7.8181e-06
7.87397e-06
7.73525e-06
7.81659e-06
8.01534e-06
8.0978e-06
8.04942e-06
7.79698e-06
7.76074e-06
8.01381e-06
8.08916e-06
7.9497e-06
7.84507e-06
7.94871e-06
7.83105e-06
7.89273e-06
8.06786e-06
8.14636e-06
8.10248e-06
7.86839e-06
7.83489e-06
8.06075e-06
8.12923e-06
7.97853e-06
7.87527e-06
8.02104e-06
7.92708e-06
7.96899e-06
8.11997e-06
8.19304e-06
8.15401e-06
7.9378e-06
7.9019e-06
8.10032e-06
8.16817e-06
8.00982e-06
7.90649e-06
8.08878e-06
8.02019e-06
8.04259e-06
8.16972e-06
8.23673e-06
8.20314e-06
8.00356e-06
7.96048e-06
8.13196e-06
8.20429e-06
8.04159e-06
7.93712e-06
8.15051e-06
8.10794e-06
8.11147e-06
8.21569e-06
8.27635e-06
8.24908e-06
8.06491e-06
8.01024e-06
8.15575e-06
8.23662e-06
8.07246e-06
7.96604e-06
8.20532e-06
8.18857e-06
8.17426e-06
8.25654e-06
8.31003e-06
8.2903e-06
8.12139e-06
8.05117e-06
8.17218e-06
8.26424e-06
8.10144e-06
7.99256e-06
8.25213e-06
8.26036e-06
8.22974e-06
8.29061e-06
8.33594e-06
8.32513e-06
8.17223e-06
8.0835e-06
8.18202e-06
8.28633e-06
8.12792e-06
8.01631e-06
8.29026e-06
8.32331e-06
8.27739e-06
8.31699e-06
8.35304e-06
8.35257e-06
8.21623e-06
8.10752e-06
8.18625e-06
8.30257e-06
8.15155e-06
8.03716e-06
8.31955e-06
8.37757e-06
8.31711e-06
8.33554e-06
8.36066e-06
8.37176e-06
8.25303e-06
8.12368e-06
8.18596e-06
8.31283e-06
8.17212e-06
8.05523e-06
8.33907e-06
8.42006e-06
8.34774e-06
8.34534e-06
8.35812e-06
8.38096e-06
8.28281e-06
8.13275e-06
8.18234e-06
8.31675e-06
8.18934e-06
8.07077e-06
8.34847e-06
8.449e-06
8.36823e-06
8.34652e-06
8.34614e-06
8.37959e-06
8.30423e-06
8.13568e-06
8.17645e-06
8.31429e-06
8.20299e-06
8.08412e-06
8.34833e-06
8.46419e-06
8.37882e-06
8.34018e-06
8.32635e-06
8.36809e-06
8.31621e-06
8.13335e-06
8.16917e-06
8.30579e-06
8.21325e-06
8.09572e-06
8.33986e-06
8.46651e-06
8.38059e-06
8.32784e-06
8.3007e-06
8.34758e-06
8.31828e-06
8.12673e-06
8.16114e-06
8.29195e-06
8.22e-06
8.10603e-06
8.3246e-06
8.45744e-06
8.37488e-06
8.31105e-06
8.27112e-06
8.31954e-06
8.31066e-06
8.11688e-06
8.15278e-06
8.27365e-06
8.22349e-06
8.11553e-06
8.30415e-06
8.43874e-06
8.36307e-06
8.29123e-06
8.23935e-06
8.2856e-06
8.29417e-06
8.1048e-06
8.14425e-06
8.25176e-06
8.22415e-06
8.12465e-06
8.28005e-06
8.41222e-06
8.34634e-06
8.26962e-06
8.20686e-06
8.24747e-06
8.27016e-06
8.09143e-06
8.13558e-06
8.22705e-06
8.22244e-06
8.13376e-06
8.25368e-06
8.37968e-06
8.32572e-06
8.24722e-06
8.17484e-06
8.20681e-06
8.24034e-06
8.0776e-06
8.12665e-06
8.20017e-06
8.21872e-06
8.1431e-06
8.22623e-06
8.34289e-06
8.30206e-06
8.22481e-06
8.14413e-06
8.16514e-06
8.20664e-06
8.06395e-06
8.11732e-06
8.17167e-06
8.21315e-06
8.15278e-06
8.19869e-06
8.30352e-06
8.27608e-06
8.20299e-06
8.11533e-06
8.12376e-06
8.17099e-06
8.05097e-06
8.10742e-06
8.14202e-06
8.20575e-06
8.16279e-06
8.17185e-06
8.26313e-06
8.2484e-06
8.18216e-06
8.08874e-06
8.08369e-06
8.1351e-06
8.03895e-06
8.09679e-06
8.11169e-06
8.19634e-06
8.17309e-06
8.14635e-06
8.22309e-06
8.21962e-06
8.16257e-06
8.06447e-06
8.04523e-06
8.10029e-06
8.02815e-06
8.08531e-06
8.08113e-06
8.18471e-06
8.18326e-06
8.12263e-06
8.18453e-06
8.19034e-06
8.14433e-06
8.04247e-06
8.00824e-06
8.06699e-06
8.01868e-06
8.07295e-06
8.05076e-06
8.17064e-06
8.1926e-06
8.10098e-06
8.14833e-06
8.16119e-06
8.12742e-06
8.0225e-06
7.97297e-06
8.03524e-06
8.01046e-06
8.05976e-06
8.02101e-06
8.15397e-06
8.20022e-06
8.08153e-06
8.11511e-06
8.13281e-06
8.11176e-06
8.00446e-06
7.93993e-06
8.00535e-06
8.00329e-06
8.04594e-06
7.99219e-06
8.13471e-06
8.20509e-06
8.06432e-06
8.0852e-06
8.10579e-06
8.09724e-06
7.98828e-06
7.90958e-06
7.9777e-06
7.99683e-06
8.03177e-06
7.96415e-06
8.11307e-06
8.20617e-06
8.04931e-06
8.05845e-06
8.08062e-06
8.08376e-06
7.97386e-06
7.8823e-06
7.95245e-06
7.99065e-06
8.01766e-06
7.93726e-06
8.08947e-06
8.20258e-06
8.03643e-06
8.03444e-06
8.05743e-06
8.07125e-06
7.96108e-06
7.85841e-06
7.9296e-06
7.9843e-06
8.00407e-06
7.91232e-06
8.06459e-06
8.19375e-06
8.02556e-06
8.01341e-06
8.03653e-06
8.05975e-06
7.9498e-06
7.83814e-06
7.90906e-06
7.97745e-06
7.99155e-06
7.89022e-06
8.03936e-06
8.17959e-06
8.01672e-06
7.9959e-06
8.01863e-06
8.04934e-06
7.93991e-06
7.8217e-06
7.89076e-06
7.96983e-06
7.98057e-06
7.87187e-06
8.0149e-06
8.16057e-06
8.01014e-06
7.98239e-06
8.00449e-06
8.04024e-06
7.93136e-06
7.80924e-06
7.87471e-06
7.96151e-06
7.97164e-06
7.85822e-06
7.9925e-06
8.13776e-06
8.00612e-06
7.97325e-06
7.99472e-06
8.03272e-06
7.92421e-06
7.80096e-06
7.86107e-06
7.95285e-06
7.96525e-06
7.85016e-06
7.97347e-06
8.11279e-06
8.00496e-06
7.9687e-06
7.98971e-06
8.02718e-06
7.9187e-06
7.79708e-06
7.85022e-06
7.94453e-06
7.96179e-06
7.84853e-06
7.95914e-06
8.08769e-06
8.00693e-06
7.96885e-06
7.9896e-06
8.02401e-06
7.91523e-06
7.79782e-06
7.84271e-06
7.93746e-06
7.96153e-06
7.85404e-06
7.95084e-06
8.06464e-06
7.29005e-07
7.19155e-07
7.12104e-07
6.96719e-07
7.05863e-07
7.26208e-07
7.33029e-07
7.19249e-07
7.02004e-07
6.95415e-07
7.06637e-07
7.56643e-07
1.15372e-07
1.13826e-07
1.12638e-07
1.10145e-07
1.11618e-07
1.14894e-07
1.15778e-07
1.13302e-07
1.10737e-07
1.10228e-07
1.12291e-07
1.2019e-07
5.18469e-08
5.12457e-08
5.02954e-08
4.87575e-08
4.94379e-08
5.12406e-08
5.0266e-08
4.71488e-08
4.71605e-08
5.06698e-08
5.39597e-08
5.72461e-08
7.10937e-08
7.04787e-08
6.8243e-08
6.5198e-08
6.61034e-08
6.92732e-08
6.47236e-08
5.59397e-08
5.86486e-08
7.22788e-08
8.35664e-08
8.7035e-08
1.43689e-07
1.42544e-07
1.37439e-07
1.30748e-07
1.32447e-07
1.39167e-07
1.27449e-07
1.06455e-07
1.14095e-07
1.48462e-07
1.77089e-07
1.82716e-07
2.75631e-07
2.73345e-07
2.63498e-07
2.50831e-07
2.53838e-07
2.66387e-07
2.42296e-07
2.00571e-07
2.16762e-07
2.86694e-07
3.45339e-07
3.54124e-07
4.75057e-07
4.70804e-07
4.54252e-07
4.33469e-07
4.38293e-07
4.58749e-07
4.15747e-07
3.43452e-07
3.73006e-07
4.96515e-07
6.00199e-07
6.11777e-07
7.44703e-07
7.37397e-07
7.12384e-07
6.82168e-07
6.89405e-07
7.19168e-07
6.49943e-07
5.37151e-07
5.8571e-07
7.81943e-07
9.46003e-07
9.57978e-07
1.07918e-06
1.06744e-06
1.03271e-06
9.93161e-07
1.00369e-06
1.04311e-06
9.40424e-07
7.78599e-07
8.51975e-07
1.13837e-06
1.37581e-06
1.38349e-06
1.46507e-06
1.44716e-06
1.40225e-06
1.35524e-06
1.37041e-06
1.4187e-06
1.27631e-06
1.05962e-06
1.16298e-06
1.55229e-06
1.87124e-06
1.86814e-06
1.8831e-06
1.85675e-06
1.80229e-06
1.7515e-06
1.77318e-06
1.82852e-06
1.64206e-06
1.36822e-06
1.50531e-06
2.00319e-06
2.40523e-06
2.38421e-06
2.31108e-06
2.27337e-06
2.21135e-06
2.16207e-06
2.19241e-06
2.25217e-06
2.01976e-06
1.69036e-06
1.86288e-06
2.4666e-06
2.94617e-06
2.90095e-06
2.72858e-06
2.6756e-06
2.60958e-06
2.56828e-06
2.60871e-06
2.66923e-06
2.39107e-06
2.01149e-06
2.21879e-06
2.92002e-06
3.4687e-06
3.3944e-06
3.12702e-06
3.05416e-06
2.9887e-06
2.9627e-06
3.01453e-06
3.0718e-06
2.74833e-06
2.32422e-06
2.56575e-06
3.35321e-06
3.95986e-06
3.8533e-06
3.49945e-06
3.40156e-06
3.34195e-06
3.33912e-06
3.40352e-06
3.45338e-06
3.08604e-06
2.62421e-06
2.89843e-06
3.75756e-06
4.40895e-06
4.26877e-06
3.84035e-06
3.71215e-06
3.66393e-06
3.6923e-06
3.77032e-06
3.80873e-06
3.39992e-06
2.90803e-06
3.21243e-06
4.12611e-06
4.80745e-06
4.63409e-06
4.14549e-06
3.982e-06
3.9504e-06
4.01774e-06
4.11041e-06
4.13371e-06
3.68682e-06
3.17308e-06
3.50421e-06
4.45336e-06
5.1489e-06
4.94441e-06
4.41184e-06
4.20883e-06
4.19822e-06
4.31148e-06
4.4199e-06
4.42516e-06
3.94452e-06
3.41749e-06
3.77103e-06
4.73523e-06
5.42885e-06
5.19667e-06
4.63763e-06
4.39199e-06
4.40547e-06
4.57023e-06
4.69558e-06
4.68083e-06
4.17178e-06
3.6401e-06
4.01085e-06
4.96904e-06
5.64492e-06
5.38969e-06
4.82244e-06
4.5324e-06
4.57165e-06
4.79139e-06
4.93489e-06
4.8994e-06
4.36824e-06
3.8404e-06
4.22245e-06
5.1537e-06
5.79691e-06
5.52433e-06
4.96721e-06
4.63257e-06
4.69775e-06
4.97339e-06
5.13607e-06
5.08047e-06
4.53448e-06
4.01853e-06
4.40533e-06
5.28982e-06
5.88697e-06
5.60359e-06
5.07428e-06
4.6965e-06
4.7862e-06
5.11589e-06
5.29818e-06
5.22456e-06
4.67186e-06
4.17523e-06
4.55975e-06
5.37972e-06
5.91968e-06
5.63257e-06
5.14725e-06
4.72951e-06
4.84079e-06
5.21996e-06
5.42154e-06
5.33301e-06
4.78243e-06
4.31172e-06
4.68664e-06
5.42744e-06
5.9019e-06
5.61824e-06
5.19088e-06
4.73799e-06
4.86652e-06
5.28807e-06
5.50781e-06
5.40833e-06
4.86881e-06
4.42957e-06
4.78777e-06
5.43868e-06
5.84259e-06
5.56914e-06
5.21089e-06
4.72909e-06
4.86944e-06
5.32416e-06
5.56011e-06
5.45416e-06
4.93405e-06
4.53069e-06
4.86587e-06
5.42063e-06
5.7523e-06
5.4949e-06
5.2138e-06
4.71041e-06
4.85646e-06
5.33368e-06
5.58311e-06
5.47532e-06
4.98188e-06
4.61731e-06
4.92463e-06
5.38174e-06
5.64269e-06
5.40586e-06
5.20664e-06
4.68969e-06
4.83509e-06
5.32351e-06
5.58301e-06
5.47776e-06
5.01672e-06
4.69237e-06
4.96879e-06
5.33131e-06
5.5258e-06
5.31247e-06
5.19668e-06
4.67446e-06
4.81312e-06
5.30167e-06
5.56742e-06
5.46844e-06
5.04365e-06
4.75961e-06
5.00409e-06
5.27909e-06
5.41344e-06
5.22479e-06
5.19103e-06
4.67167e-06
4.79828e-06
5.27689e-06
5.54489e-06
5.45498e-06
5.06829e-06
4.82354e-06
5.03711e-06
5.23463e-06
5.31644e-06
5.15198e-06
5.19629e-06
4.68735e-06
4.79776e-06
5.25804e-06
5.52432e-06
5.44524e-06
5.09664e-06
4.88944e-06
5.07496e-06
5.20683e-06
5.24407e-06
5.10175e-06
5.21819e-06
4.7264e-06
4.81793e-06
5.25359e-06
5.51443e-06
5.44684e-06
5.13483e-06
4.9632e-06
5.12492e-06
5.20333e-06
5.20336e-06
5.07994e-06
5.26131e-06
4.79245e-06
4.86403e-06
5.27119e-06
5.52327e-06
5.4668e-06
5.18895e-06
5.05121e-06
5.19411e-06
5.23003e-06
5.19864e-06
5.0903e-06
5.3118e-06
4.8683e-06
4.9204e-06
5.2985e-06
5.54005e-06
5.49341e-06
5.24316e-06
5.13576e-06
5.2679e-06
5.27474e-06
5.21901e-06
5.1218e-06
5.3663e-06
4.94758e-06
4.9823e-06
5.33406e-06
5.56508e-06
5.52632e-06
5.2943e-06
5.21277e-06
5.34425e-06
5.33516e-06
5.26147e-06
5.17141e-06
5.42682e-06
5.02977e-06
5.05059e-06
5.38143e-06
5.6037e-06
5.5706e-06
5.34585e-06
5.28555e-06
5.42745e-06
5.41354e-06
5.32642e-06
5.23991e-06
5.49779e-06
5.11746e-06
5.12879e-06
5.44586e-06
5.66266e-06
5.63314e-06
5.40451e-06
5.36115e-06
5.52443e-06
5.5136e-06
5.41536e-06
5.32943e-06
5.58433e-06
5.21475e-06
5.22136e-06
5.53237e-06
5.74797e-06
5.72037e-06
5.47794e-06
5.44807e-06
5.6423e-06
5.6386e-06
5.52962e-06
5.44211e-06
5.69126e-06
5.32635e-06
5.33302e-06
5.64485e-06
5.86342e-06
5.83657e-06
5.57311e-06
5.55437e-06
5.7864e-06
5.79022e-06
5.6704e-06
5.58069e-06
5.82787e-06
5.46031e-06
5.47289e-06
5.79048e-06
6.01416e-06
5.9862e-06
5.69589e-06
5.6865e-06
5.96298e-06
5.97366e-06
5.84242e-06
5.75021e-06
6.00227e-06
5.62591e-06
5.64849e-06
5.97379e-06
6.20388e-06
6.17425e-06
5.85535e-06
5.85438e-06
6.17723e-06
6.19277e-06
6.04961e-06
5.95449e-06
6.22238e-06
5.83298e-06
5.86694e-06
6.20126e-06
6.42165e-06
6.39443e-06
6.05903e-06
6.06552e-06
6.43598e-06
6.43814e-06
6.27836e-06
6.18716e-06
6.45578e-06
6.08745e-06
6.1215e-06
6.4279e-06
6.6307e-06
6.60678e-06
6.29666e-06
6.32606e-06
6.69006e-06
6.67336e-06
6.49744e-06
6.41195e-06
6.6806e-06
6.34446e-06
6.37044e-06
6.64609e-06
6.83335e-06
6.81359e-06
6.5274e-06
6.58081e-06
6.92942e-06
6.89922e-06
6.70658e-06
6.62644e-06
6.89776e-06
6.59346e-06
6.61196e-06
6.85675e-06
7.02919e-06
7.01477e-06
6.75315e-06
6.82362e-06
7.15448e-06
7.11484e-06
6.9051e-06
6.82989e-06
7.10608e-06
6.83494e-06
6.84524e-06
7.05837e-06
7.21567e-06
7.20773e-06
6.97352e-06
7.05467e-06
7.36278e-06
7.31768e-06
7.09139e-06
7.02058e-06
7.30315e-06
7.06717e-06
7.06769e-06
7.24829e-06
7.38941e-06
7.38882e-06
7.18549e-06
7.27132e-06
7.55076e-06
7.50479e-06
7.26379e-06
7.19664e-06
7.48626e-06
7.28728e-06
7.27617e-06
7.42374e-06
7.54725e-06
7.55435e-06
7.38485e-06
7.46955e-06
7.71505e-06
7.67363e-06
7.4211e-06
7.35664e-06
7.65308e-06
7.49219e-06
7.46783e-06
7.58262e-06
7.68697e-06
7.70129e-06
7.56718e-06
7.64499e-06
7.85314e-06
7.82245e-06
7.56278e-06
7.49982e-06
7.80189e-06
7.67934e-06
7.64072e-06
7.72377e-06
7.80751e-06
7.82815e-06
7.7283e-06
7.79375e-06
7.96632e-06
7.95023e-06
7.68893e-06
7.62616e-06
7.93162e-06
7.8469e-06
7.79385e-06
7.84699e-06
7.91174e-06
7.93861e-06
7.86723e-06
7.91698e-06
8.05815e-06
8.05881e-06
7.80015e-06
7.73626e-06
8.0426e-06
7.99385e-06
7.92721e-06
7.95372e-06
8.00354e-06
8.0362e-06
7.98726e-06
8.01818e-06
8.13022e-06
8.15168e-06
7.8973e-06
7.83114e-06
8.13851e-06
8.12337e-06
8.04324e-06
8.04785e-06
8.08264e-06
8.11931e-06
8.09076e-06
8.09794e-06
8.1834e-06
8.22978e-06
7.98128e-06
7.91198e-06
8.22183e-06
8.24008e-06
8.14633e-06
8.13116e-06
8.14682e-06
8.18633e-06
8.17734e-06
8.15732e-06
8.21959e-06
8.29214e-06
8.05286e-06
7.98001e-06
8.29032e-06
8.34311e-06
8.23778e-06
8.20123e-06
8.19472e-06
8.23618e-06
8.24689e-06
8.19816e-06
8.24134e-06
8.3385e-06
8.11371e-06
8.03639e-06
8.34227e-06
8.42857e-06
8.31521e-06
8.25678e-06
8.22643e-06
8.26878e-06
8.29942e-06
8.2228e-06
8.25147e-06
8.36935e-06
8.16588e-06
8.08263e-06
8.3775e-06
8.49437e-06
8.37738e-06
8.29804e-06
8.2433e-06
8.28522e-06
8.33517e-06
8.23384e-06
8.25266e-06
8.3859e-06
8.21003e-06
8.12038e-06
8.3972e-06
8.54033e-06
8.42458e-06
8.32619e-06
8.2474e-06
8.28728e-06
8.35484e-06
8.23389e-06
8.24726e-06
8.38985e-06
8.24598e-06
8.15078e-06
8.40335e-06
8.56752e-06
8.45801e-06
8.34283e-06
8.24095e-06
8.277e-06
8.35965e-06
8.22541e-06
8.23712e-06
8.38308e-06
8.27392e-06
8.1749e-06
8.39824e-06
8.57763e-06
8.47915e-06
8.34969e-06
8.22611e-06
8.25643e-06
8.35117e-06
8.21062e-06
8.22357e-06
8.36744e-06
8.29448e-06
8.19383e-06
8.38419e-06
8.57265e-06
8.4895e-06
8.34844e-06
8.20488e-06
8.22755e-06
8.33122e-06
8.19141e-06
8.20748e-06
8.34456e-06
8.30852e-06
8.20871e-06
8.36339e-06
8.55468e-06
8.49035e-06
8.34059e-06
8.17909e-06
8.19231e-06
8.30181e-06
8.16935e-06
8.18934e-06
8.31581e-06
8.31694e-06
8.22061e-06
8.33785e-06
8.52588e-06
8.48276e-06
8.32749e-06
8.15042e-06
8.15269e-06
8.26506e-06
8.1457e-06
8.16942e-06
8.28238e-06
8.32047e-06
8.23049e-06
8.30933e-06
8.48843e-06
8.4676e-06
8.31038e-06
8.12038e-06
8.11066e-06
8.22327e-06
8.1214e-06
8.14787e-06
8.24531e-06
8.31966e-06
8.23919e-06
8.27935e-06
8.44453e-06
8.4456e-06
8.29036e-06
8.09027e-06
8.06826e-06
8.17876e-06
8.09713e-06
8.12483e-06
8.20554e-06
8.31488e-06
8.24733e-06
8.24914e-06
8.39642e-06
8.41753e-06
8.26841e-06
8.0612e-06
8.02686e-06
8.13374e-06
8.07332e-06
8.10051e-06
8.16404e-06
8.30628e-06
8.25532e-06
8.21969e-06
8.3463e-06
8.38428e-06
8.24543e-06
8.034e-06
7.98628e-06
8.09029e-06
8.05026e-06
8.07512e-06
8.12175e-06
8.29391e-06
8.26326e-06
8.19172e-06
8.29625e-06
8.34699e-06
8.22219e-06
8.00883e-06
7.9467e-06
8.04849e-06
8.02782e-06
8.04892e-06
8.07959e-06
8.27778e-06
8.271e-06
8.16579e-06
8.24815e-06
8.30708e-06
8.19931e-06
7.98567e-06
7.90904e-06
8.00845e-06
8.00622e-06
8.02214e-06
8.03838e-06
8.2579e-06
8.27808e-06
8.14226e-06
8.20344e-06
8.26622e-06
8.17727e-06
7.96487e-06
7.87415e-06
7.97108e-06
7.98589e-06
7.99537e-06
7.99859e-06
8.23442e-06
8.28372e-06
8.12138e-06
8.16313e-06
8.22613e-06
8.15646e-06
7.94688e-06
7.84276e-06
7.93723e-06
7.96723e-06
7.96941e-06
7.95993e-06
8.20766e-06
8.28692e-06
8.10329e-06
8.12777e-06
8.18841e-06
8.13722e-06
7.932e-06
7.81548e-06
7.90756e-06
7.95059e-06
7.94518e-06
7.92274e-06
8.17807e-06
8.2865e-06
8.08804e-06
8.09751e-06
8.15436e-06
8.11982e-06
7.92037e-06
7.7928e-06
7.88253e-06
7.93623e-06
7.92362e-06
7.88797e-06
8.14632e-06
8.28135e-06
8.07561e-06
8.0718e-06
8.12485e-06
8.10452e-06
7.91201e-06
7.77507e-06
7.8624e-06
7.92441e-06
7.90565e-06
7.85661e-06
8.1133e-06
8.27059e-06
8.06591e-06
8.05073e-06
8.10038e-06
8.09158e-06
7.90684e-06
7.76249e-06
7.8473e-06
7.9154e-06
7.89208e-06
7.8297e-06
8.08018e-06
8.25381e-06
8.05884e-06
8.0347e-06
8.08094e-06
8.08127e-06
7.90471e-06
7.7552e-06
7.83723e-06
7.90946e-06
7.88353e-06
7.80822e-06
8.04827e-06
8.23126e-06
8.05425e-06
8.02399e-06
8.06718e-06
8.07385e-06
7.90544e-06
7.7532e-06
7.83216e-06
7.90684e-06
7.88038e-06
7.7931e-06
8.01903e-06
8.20393e-06
8.05207e-06
8.01869e-06
8.05978e-06
8.06963e-06
7.90885e-06
7.75648e-06
7.83204e-06
7.90771e-06
7.88267e-06
7.78514e-06
7.99389e-06
8.17357e-06
8.05227e-06
8.01862e-06
8.05891e-06
8.06889e-06
7.91481e-06
7.76495e-06
7.83683e-06
7.91217e-06
7.89011e-06
7.78493e-06
7.97416e-06
8.14251e-06
8.0549e-06
8.02336e-06
8.06408e-06
8.07188e-06
7.92329e-06
7.77855e-06
7.84654e-06
7.92018e-06
7.90204e-06
7.79282e-06
7.96099e-06
8.11339e-06
7.91167e-07
7.80568e-07
7.71661e-07
7.53098e-07
7.59732e-07
7.78388e-07
7.78803e-07
7.58418e-07
7.46841e-07
7.55411e-07
7.78541e-07
8.2729e-07
1.27836e-07
1.26168e-07
1.24583e-07
1.21496e-07
1.22503e-07
1.25426e-07
1.25297e-07
1.21891e-07
1.20284e-07
1.22115e-07
1.2612e-07
1.33742e-07
7.40187e-08
7.33165e-08
7.16185e-08
6.9329e-08
6.93294e-08
7.03621e-08
6.89391e-08
6.61583e-08
6.70388e-08
7.11847e-08
7.54184e-08
7.80758e-08
1.40938e-07
1.40038e-07
1.35645e-07
1.30547e-07
1.29411e-07
1.30123e-07
1.25002e-07
1.18294e-07
1.2322e-07
1.36572e-07
1.48011e-07
1.49854e-07
3.14832e-07
3.13025e-07
3.03068e-07
2.91709e-07
2.88293e-07
2.88865e-07
2.75924e-07
2.60228e-07
2.73295e-07
3.06274e-07
3.33626e-07
3.35465e-07
6.19557e-07
6.16091e-07
5.97408e-07
5.76109e-07
5.68513e-07
5.68317e-07
5.41654e-07
5.10636e-07
5.38083e-07
6.04872e-07
6.59245e-07
6.60371e-07
1.07613e-06
1.07026e-06
1.03993e-06
1.00556e-06
9.91362e-07
9.88748e-07
9.40923e-07
8.87576e-07
9.37531e-07
1.05488e-06
1.14845e-06
1.14623e-06
1.69127e-06
1.68244e-06
1.63836e-06
1.58934e-06
1.56615e-06
1.55836e-06
1.4811e-06
1.39887e-06
1.48062e-06
1.66534e-06
1.80894e-06
1.79841e-06
2.45294e-06
2.44094e-06
2.3823e-06
2.31926e-06
2.28557e-06
2.26906e-06
2.15437e-06
2.03841e-06
2.16113e-06
2.42676e-06
2.62709e-06
2.60132e-06
3.33142e-06
3.31639e-06
3.24404e-06
3.16992e-06
3.12566e-06
3.09682e-06
2.93837e-06
2.78653e-06
2.95765e-06
3.31112e-06
3.56872e-06
3.52026e-06
4.28431e-06
4.26653e-06
4.18334e-06
4.10293e-06
4.04957e-06
4.00546e-06
3.79977e-06
3.61305e-06
3.83683e-06
4.27634e-06
4.58485e-06
4.50779e-06
5.26283e-06
5.24252e-06
5.15366e-06
5.07288e-06
5.01282e-06
4.95172e-06
4.69902e-06
4.48148e-06
4.75808e-06
5.27249e-06
5.61937e-06
5.5113e-06
6.22049e-06
6.1963e-06
6.10923e-06
6.03593e-06
5.97154e-06
5.89165e-06
5.59446e-06
5.35277e-06
5.67791e-06
6.25417e-06
6.62814e-06
6.48824e-06
7.138e-06
7.1083e-06
7.03153e-06
6.97378e-06
6.90735e-06
6.80758e-06
6.46698e-06
6.20518e-06
6.57688e-06
7.20113e-06
7.58981e-06
7.41962e-06
7.99898e-06
7.96228e-06
7.9046e-06
7.87019e-06
7.80385e-06
7.68392e-06
7.30232e-06
7.02477e-06
7.43953e-06
8.09618e-06
8.4868e-06
8.28965e-06
8.78986e-06
8.7452e-06
8.71487e-06
8.71082e-06
8.64663e-06
8.50713e-06
8.08817e-06
7.79937e-06
8.25242e-06
8.92503e-06
9.30494e-06
9.08525e-06
9.49954e-06
9.44686e-06
9.45087e-06
9.48292e-06
9.42293e-06
9.26546e-06
8.81398e-06
8.51854e-06
9.00396e-06
9.6759e-06
1.0033e-05
9.79564e-06
1.01193e-05
1.00596e-05
1.01032e-05
1.01754e-05
1.01217e-05
9.94876e-06
9.47076e-06
9.17339e-06
9.68432e-06
1.03393e-05
1.06623e-05
1.04122e-05
1.06429e-05
1.0578e-05
1.06648e-05
1.07792e-05
1.07337e-05
1.05486e-05
1.00511e-05
9.75661e-06
1.02854e-05
1.09078e-05
1.11868e-05
1.09286e-05
1.10665e-05
1.09992e-05
1.11307e-05
1.12871e-05
1.12515e-05
1.10586e-05
1.05493e-05
1.02625e-05
1.08009e-05
1.13765e-05
1.16033e-05
1.13416e-05
1.13891e-05
1.13228e-05
1.14983e-05
1.16944e-05
1.16697e-05
1.1474e-05
1.09616e-05
1.0687e-05
1.12267e-05
1.17428e-05
1.19113e-05
1.16506e-05
1.16122e-05
1.15507e-05
1.17674e-05
1.19989e-05
1.19856e-05
1.17919e-05
1.12859e-05
1.10279e-05
1.15599e-05
1.20066e-05
1.21137e-05
1.18579e-05
1.17396e-05
1.16867e-05
1.19399e-05
1.22008e-05
1.21987e-05
1.20117e-05
1.15214e-05
1.12842e-05
1.17996e-05
1.21704e-05
1.22157e-05
1.19682e-05
1.1777e-05
1.17363e-05
1.202e-05
1.23028e-05
1.23109e-05
1.21349e-05
1.16685e-05
1.14557e-05
1.19465e-05
1.22389e-05
1.22248e-05
1.19886e-05
1.17319e-05
1.17064e-05
1.20133e-05
1.23102e-05
1.2327e-05
1.21653e-05
1.17297e-05
1.15436e-05
1.20031e-05
1.22186e-05
1.21505e-05
1.19273e-05
1.16131e-05
1.16045e-05
1.1927e-05
1.22303e-05
1.22541e-05
1.21088e-05
1.17088e-05
1.15505e-05
1.1974e-05
1.21182e-05
1.2003e-05
1.17941e-05
1.14302e-05
1.1439e-05
1.17695e-05
1.20727e-05
1.21018e-05
1.19738e-05
1.16118e-05
1.14808e-05
1.18657e-05
1.19471e-05
1.17933e-05
1.15989e-05
1.11929e-05
1.12186e-05
1.155e-05
1.1848e-05
1.18811e-05
1.17702e-05
1.1446e-05
1.13408e-05
1.16866e-05
1.17154e-05
1.15314e-05
1.13516e-05
1.09106e-05
1.09516e-05
1.12778e-05
1.1567e-05
1.16033e-05
1.15085e-05
1.12204e-05
1.11384e-05
1.14461e-05
1.14326e-05
1.12268e-05
1.10613e-05
1.05918e-05
1.06457e-05
1.09615e-05
1.12398e-05
1.12791e-05
1.1199e-05
1.09441e-05
1.08823e-05
1.11541e-05
1.11073e-05
1.08872e-05
1.07361e-05
1.02433e-05
1.03075e-05
1.06084e-05
1.08743e-05
1.09171e-05
1.08504e-05
1.06258e-05
1.05814e-05
1.08191e-05
1.07465e-05
1.05195e-05
1.03824e-05
9.87115e-06
9.94256e-06
1.02244e-05
1.04772e-05
1.05248e-05
1.04706e-05
1.02729e-05
1.02435e-05
1.04488e-05
1.03567e-05
1.01301e-05
1.00064e-05
9.48518e-06
9.5566e-06
9.81802e-06
1.00606e-05
1.0117e-05
1.00741e-05
9.89374e-06
9.87422e-06
1.0054e-05
9.95124e-06
9.73183e-06
9.6204e-06
9.10216e-06
9.16483e-06
9.40607e-06
9.64361e-06
9.71449e-06
9.68243e-06
9.50736e-06
9.49193e-06
9.65528e-06
9.55008e-06
9.34241e-06
9.24215e-06
8.74102e-06
8.78564e-06
9.0083e-06
9.24732e-06
9.33959e-06
9.31863e-06
9.13604e-06
9.11938e-06
9.27627e-06
9.17477e-06
8.98075e-06
8.89078e-06
8.42061e-06
8.43807e-06
8.64479e-06
8.89235e-06
9.01335e-06
9.00473e-06
8.80253e-06
8.78049e-06
8.94102e-06
8.84658e-06
8.66531e-06
8.58496e-06
8.15866e-06
8.14055e-06
8.33475e-06
8.598e-06
8.75474e-06
8.7606e-06
8.52864e-06
8.49886e-06
8.67258e-06
8.58539e-06
8.41322e-06
8.3411e-06
7.96956e-06
7.90988e-06
8.09533e-06
8.38117e-06
8.5792e-06
8.60074e-06
8.33247e-06
8.29494e-06
8.48958e-06
8.40645e-06
8.23712e-06
8.17301e-06
7.86359e-06
7.75965e-06
7.94048e-06
8.2517e-06
8.49221e-06
8.53189e-06
8.23136e-06
8.18671e-06
8.40367e-06
8.31757e-06
8.1446e-06
8.08822e-06
7.84352e-06
7.69184e-06
7.8726e-06
8.19533e-06
8.43161e-06
8.48866e-06
8.22253e-06
8.17736e-06
8.38977e-06
8.28132e-06
8.09845e-06
8.05515e-06
7.85669e-06
7.70834e-06
7.86989e-06
8.15648e-06
8.38297e-06
8.46038e-06
8.24184e-06
8.21687e-06
8.39563e-06
8.26236e-06
8.06582e-06
8.03641e-06
7.88208e-06
7.74813e-06
7.8807e-06
8.12943e-06
8.34773e-06
8.44593e-06
8.2755e-06
8.27291e-06
8.4173e-06
8.26185e-06
8.04821e-06
8.03153e-06
7.92018e-06
7.79685e-06
7.90144e-06
8.11528e-06
8.32428e-06
8.44152e-06
8.32043e-06
8.34022e-06
8.45031e-06
8.27808e-06
8.04547e-06
8.03951e-06
7.96897e-06
7.85523e-06
7.93208e-06
8.11274e-06
8.3097e-06
8.44263e-06
8.37127e-06
8.41193e-06
8.48826e-06
8.30699e-06
8.05538e-06
8.05763e-06
8.02504e-06
7.9218e-06
7.97088e-06
8.11946e-06
8.3011e-06
8.44556e-06
8.42233e-06
8.48056e-06
8.52499e-06
8.34375e-06
8.07474e-06
8.08249e-06
8.08461e-06
7.99384e-06
8.01538e-06
8.13301e-06
8.29629e-06
8.44793e-06
8.46927e-06
8.54022e-06
8.55595e-06
8.38388e-06
8.10023e-06
8.11077e-06