/*--------------------------------*- C++ -*----------------------------------*\
| =========                 |                                                 |
| \\      /  F ield         | OpenFOAM: The Open Source CFD Toolbox           |
|  \\    /   O peration     | Version:  v1912                                 |
|   \\  /    A nd           | Website:  www.openfoam.com                      |
|    \\/     M anipulation  |                                                 |
\*---------------------------------------------------------------------------*/
FoamFile
{
    version     2.0;
    format      ascii;
    class       volScalarField;
    location    "10.4";
    object      nut;
}
// * * * * * * * * * * * * * * * * * * * * * * * * * * * * * * * * * * * * * //

dimensions      [0 2 -1 0 0 0 0];


internalField   nonuniform List<scalar> 
34128
(
4.3619e-12
4.29204e-12
4.24265e-12
4.16223e-12
4.23782e-12
4.37221e-12
4.44306e-12
4.39458e-12
4.261e-12
4.1374e-12
4.14033e-12
4.44432e-12
4.2961e-12
4.231e-12
4.17686e-12
4.09012e-12
4.15923e-12
4.29065e-12
4.35356e-12
4.29762e-12
4.17522e-12
4.07358e-12
4.09044e-12
4.38977e-12
7.84202e-12
7.79192e-12
7.59582e-12
7.29821e-12
7.32332e-12
7.54657e-12
7.5318e-12
7.27256e-12
7.21818e-12
7.41204e-12
7.71153e-12
8.25327e-12
3.33767e-11
3.34063e-11
3.22675e-11
3.05361e-11
3.028e-11
3.11679e-11
3.06605e-11
2.90229e-11
2.93746e-11
3.1503e-11
3.37129e-11
3.59496e-11
1.30302e-10
1.30725e-10
1.26111e-10
1.18974e-10
1.17529e-10
1.20857e-10
1.1842e-10
1.11549e-10
1.13572e-10
1.23232e-10
1.32801e-10
1.41112e-10
3.89662e-10
3.91527e-10
3.77933e-10
3.56532e-10
3.51489e-10
3.60921e-10
3.53062e-10
3.32248e-10
3.39338e-10
3.69922e-10
3.99412e-10
4.22483e-10
9.34835e-10
9.40806e-10
9.09156e-10
8.58627e-10
8.45192e-10
8.66151e-10
8.46318e-10
7.96744e-10
8.16002e-10
8.92084e-10
9.63288e-10
1.0131e-09
1.88898e-09
1.90434e-09
1.84269e-09
1.74349e-09
1.71434e-09
1.75271e-09
1.7111e-09
1.61303e-09
1.65635e-09
1.81368e-09
1.95596e-09
2.04373e-09
3.33439e-09
3.36769e-09
3.26303e-09
3.09453e-09
3.04114e-09
3.10149e-09
3.02587e-09
2.85847e-09
2.94195e-09
3.22261e-09
3.46638e-09
3.5974e-09
5.28589e-09
5.34869e-09
5.18904e-09
4.9337e-09
4.84887e-09
4.93355e-09
4.81202e-09
4.55824e-09
4.69966e-09
5.14231e-09
5.51074e-09
5.68147e-09
7.6899e-09
7.79569e-09
7.57189e-09
7.218e-09
7.09824e-09
7.20786e-09
7.03159e-09
6.6819e-09
6.89704e-09
7.52761e-09
8.03017e-09
8.22917e-09
1.03925e-08
1.05639e-08
1.02696e-08
9.83738e-09
9.70111e-09
9.83572e-09
9.60125e-09
9.15541e-09
9.45465e-09
1.0237e-08
1.07436e-08
1.09367e-08
1.28147e-08
1.30411e-08
1.26984e-08
1.218e-08
1.20417e-08
1.22044e-08
1.19842e-08
1.15528e-08
1.18679e-08
1.26665e-08
1.32513e-08
1.34593e-08
1.53377e-08
1.56275e-08
1.52427e-08
1.46381e-08
1.44728e-08
1.46626e-08
1.44182e-08
1.3933e-08
1.43036e-08
1.52121e-08
1.58724e-08
1.60895e-08
1.79285e-08
1.82911e-08
1.78706e-08
1.71801e-08
1.69853e-08
1.72033e-08
1.69387e-08
1.64025e-08
1.68281e-08
1.78425e-08
1.85751e-08
1.87945e-08
2.05587e-08
2.10043e-08
2.05543e-08
1.97778e-08
1.95516e-08
1.98e-08
1.95204e-08
1.89362e-08
1.94143e-08
2.05302e-08
2.1333e-08
2.15475e-08
2.32077e-08
2.37459e-08
2.32736e-08
2.24103e-08
2.21506e-08
2.24324e-08
2.21433e-08
2.15137e-08
2.20406e-08
2.32545e-08
2.4127e-08
2.43305e-08
2.58635e-08
2.65025e-08
2.60173e-08
2.50656e-08
2.47692e-08
2.50872e-08
2.47937e-08
2.41201e-08
2.46915e-08
2.60023e-08
2.69475e-08
2.71367e-08
2.85241e-08
2.92694e-08
2.87836e-08
2.7742e-08
2.74032e-08
2.77592e-08
2.74652e-08
2.67472e-08
2.73591e-08
2.87706e-08
2.97959e-08
2.99706e-08
3.11985e-08
3.20528e-08
3.15812e-08
3.04498e-08
3.00599e-08
3.04539e-08
3.01598e-08
2.93934e-08
3.00442e-08
3.15678e-08
3.26871e-08
3.2849e-08
3.39063e-08
3.48693e-08
3.44294e-08
3.32107e-08
3.27591e-08
3.31878e-08
3.28889e-08
3.20662e-08
3.27584e-08
3.44152e-08
3.56489e-08
3.57996e-08
3.66768e-08
3.77448e-08
3.73554e-08
3.6056e-08
3.55319e-08
3.59887e-08
3.56728e-08
3.47817e-08
3.55244e-08
3.73441e-08
3.87184e-08
3.88575e-08
3.95435e-08
4.07086e-08
4.039e-08
3.90212e-08
3.84145e-08
3.88907e-08
3.85386e-08
3.75634e-08
3.8372e-08
4.03906e-08
4.19354e-08
4.20613e-08
4.25403e-08
4.37891e-08
4.35621e-08
4.21401e-08
4.14425e-08
4.19284e-08
4.15155e-08
4.04381e-08
4.13323e-08
4.35892e-08
4.53391e-08
4.54506e-08
4.57e-08
4.70115e-08
4.68964e-08
4.5441e-08
4.4647e-08
4.51326e-08
4.46297e-08
4.34322e-08
4.4432e-08
4.69705e-08
4.89693e-08
4.90681e-08
4.90575e-08
5.04003e-08
5.04152e-08
4.89488e-08
4.80557e-08
4.85333e-08
4.79051e-08
4.65663e-08
4.76922e-08
5.05664e-08
5.28748e-08
5.2966e-08
5.26576e-08
5.39855e-08
5.41464e-08
5.2693e-08
5.17013e-08
5.21656e-08
5.13658e-08
4.9859e-08
5.1135e-08
5.44201e-08
5.71256e-08
5.72152e-08
5.65653e-08
5.78118e-08
5.81324e-08
5.67211e-08
5.56348e-08
5.60821e-08
5.50439e-08
5.33313e-08
5.47916e-08
5.86009e-08
6.18254e-08
6.19144e-08
6.08773e-08
6.19473e-08
6.24423e-08
6.11141e-08
5.99423e-08
6.03666e-08
5.89926e-08
5.70203e-08
5.8717e-08
6.32192e-08
6.71234e-08
6.72001e-08
6.57384e-08
6.65009e-08
6.7187e-08
6.60058e-08
6.47642e-08
6.51506e-08
6.32938e-08
6.09862e-08
6.30065e-08
6.84469e-08
7.32195e-08
7.32537e-08
7.13429e-08
7.16211e-08
7.254e-08
7.16109e-08
7.03238e-08
7.0637e-08
6.80777e-08
6.53311e-08
6.78231e-08
7.45113e-08
8.03275e-08
8.0282e-08
7.79043e-08
7.74786e-08
7.86886e-08
7.81813e-08
7.68963e-08
7.7079e-08
7.35416e-08
7.02284e-08
7.34097e-08
8.16507e-08
8.87e-08
8.85326e-08
8.56992e-08
8.42778e-08
8.58552e-08
8.59935e-08
8.47829e-08
8.47549e-08
7.9862e-08
7.58279e-08
8.00027e-08
9.01896e-08
9.87235e-08
9.83739e-08
9.51704e-08
9.23604e-08
9.44111e-08
9.5489e-08
9.44614e-08
9.41146e-08
8.73534e-08
8.24162e-08
8.79925e-08
1.00644e-07
1.10998e-07
1.10373e-07
1.06981e-07
1.02235e-07
1.04907e-07
1.07331e-07
1.06652e-07
1.05835e-07
9.64849e-08
9.04151e-08
9.79607e-08
1.13793e-07
1.26429e-07
1.25381e-07
1.22137e-07
1.14657e-07
1.18163e-07
1.22527e-07
1.22454e-07
1.20939e-07
1.07944e-07
1.00435e-07
1.10776e-07
1.3083e-07
1.46386e-07
1.44681e-07
1.42201e-07
1.30787e-07
1.35447e-07
1.42641e-07
1.43586e-07
1.41008e-07
1.2276e-07
1.13374e-07
1.27765e-07
1.53605e-07
1.72984e-07
1.70238e-07
1.69577e-07
1.52422e-07
1.58776e-07
1.70211e-07
1.7284e-07
1.68565e-07
1.42515e-07
1.30599e-07
1.51031e-07
1.85117e-07
2.09602e-07
2.04841e-07
2.02928e-07
1.8033e-07
1.90372e-07
2.0921e-07
2.14599e-07
2.07477e-07
1.69668e-07
1.54291e-07
1.84079e-07
2.30389e-07
2.59177e-07
2.40736e-07
2.38443e-07
2.08583e-07
2.20517e-07
2.5168e-07
2.61096e-07
2.50297e-07
2.03762e-07
1.87781e-07
2.32125e-07
2.91369e-07
3.09522e-07
2.85024e-07
2.85526e-07
2.46232e-07
2.60633e-07
3.02755e-07
3.16629e-07
3.01984e-07
2.40405e-07
2.22163e-07
2.79766e-07
3.54986e-07
3.74183e-07
3.42641e-07
3.45492e-07
2.96339e-07
3.13602e-07
3.68175e-07
3.87157e-07
3.6846e-07
2.89337e-07
2.66353e-07
3.43293e-07
4.34228e-07
4.53256e-07
4.1371e-07
4.19104e-07
3.59694e-07
3.79827e-07
4.4848e-07
4.73779e-07
4.50548e-07
3.52305e-07
3.24534e-07
4.23375e-07
5.31232e-07
5.48919e-07
5.00295e-07
5.08471e-07
4.37571e-07
4.61084e-07
5.45804e-07
5.78621e-07
5.50478e-07
4.30038e-07
3.97718e-07
5.22087e-07
6.48098e-07
6.63111e-07
6.04436e-07
6.15531e-07
5.32198e-07
5.59703e-07
6.6176e-07
7.02972e-07
6.69931e-07
5.2458e-07
4.87504e-07
6.41748e-07
7.85711e-07
7.96914e-07
7.27362e-07
7.41415e-07
6.45211e-07
6.7727e-07
7.96859e-07
8.46785e-07
8.09321e-07
6.37711e-07
5.96135e-07
7.83491e-07
9.43169e-07
9.49761e-07
8.69076e-07
8.85927e-07
7.77184e-07
8.14144e-07
9.50139e-07
1.00835e-06
9.67283e-07
7.70149e-07
7.24994e-07
9.46636e-07
1.11744e-06
1.11908e-06
1.02805e-06
1.0471e-06
9.2712e-07
9.69084e-07
1.11901e-06
1.18427e-06
1.14043e-06
9.21012e-07
8.74009e-07
1.12829e-06
1.30345e-06
1.30043e-06
1.20118e-06
1.22108e-06
1.09236e-06
1.13912e-06
1.2994e-06
1.3699e-06
1.32368e-06
1.08746e-06
1.04121e-06
1.32357e-06
1.49459e-06
1.48804e-06
1.38398e-06
1.4026e-06
1.26847e-06
1.31973e-06
1.48626e-06
1.56006e-06
1.51115e-06
1.26489e-06
1.22281e-06
1.52612e-06
1.68382e-06
1.67556e-06
1.57109e-06
1.58586e-06
1.45013e-06
1.50543e-06
1.67409e-06
1.74917e-06
1.6966e-06
1.44767e-06
1.41356e-06
1.72849e-06
1.86462e-06
1.8569e-06
1.75689e-06
1.76545e-06
1.63155e-06
1.69051e-06
1.85722e-06
1.93048e-06
1.87309e-06
1.62963e-06
1.607e-06
1.92291e-06
2.03128e-06
2.0269e-06
1.9361e-06
1.93601e-06
1.80618e-06
1.86922e-06
2.02931e-06
2.01289e-06
1.89642e-06
1.80428e-06
1.79611e-06
2.10236e-06
2.02211e-06
2.18179e-06
2.10423e-06
1.84566e-06
1.62763e-06
1.82841e-06
1.912e-06
1.83498e-06
1.71114e-06
1.91952e-06
1.97403e-06
2.17578e-06
1.91307e-06
2.31938e-06
2.25729e-06
1.73182e-06
1.47932e-06
1.66772e-06
1.76341e-06
1.7162e-06
1.57809e-06
1.76354e-06
1.96993e-06
2.20658e-06
1.82374e-06
2.43884e-06
2.39232e-06
1.66213e-06
1.39102e-06
1.56323e-06
1.68414e-06
1.66737e-06
1.50938e-06
1.63298e-06
1.96015e-06
2.24347e-06
1.76831e-06
2.52714e-06
2.50831e-06
1.63218e-06
1.3454e-06
1.50965e-06
1.65548e-06
1.66646e-06
1.48715e-06
1.54943e-06
1.97459e-06
2.28429e-06
1.74473e-06
2.3642e-06
2.60506e-06
1.63238e-06
1.32915e-06
1.48863e-06
1.65906e-06
1.69887e-06
1.49947e-06
1.50746e-06
2.0168e-06
2.31986e-06
1.74904e-06
2.22824e-06
2.68315e-06
1.65559e-06
1.33449e-06
1.48859e-06
1.68471e-06
1.75712e-06
1.54086e-06
1.5015e-06
2.08379e-06
2.34387e-06
1.77495e-06
2.13569e-06
2.744e-06
1.69684e-06
1.35708e-06
1.50333e-06
1.72707e-06
1.83764e-06
1.61019e-06
1.52808e-06
2.17362e-06
2.35499e-06
1.81633e-06
2.07241e-06
2.79153e-06
1.75287e-06
1.39497e-06
1.52989e-06
1.7831e-06
1.93855e-06
1.70931e-06
1.58674e-06
2.28306e-06
2.35702e-06
1.86865e-06
2.02551e-06
2.82776e-06
1.82154e-06
1.448e-06
1.56722e-06
1.8507e-06
2.05834e-06
1.84215e-06
1.67945e-06
2.40672e-06
2.35545e-06
1.92975e-06
1.98675e-06
2.85383e-06
1.90138e-06
1.51725e-06
1.61552e-06
1.92787e-06
2.19497e-06
2.01395e-06
1.80976e-06
2.5369e-06
2.35507e-06
1.99977e-06
1.95211e-06
2.87122e-06
1.99126e-06
1.60457e-06
1.67586e-06
2.01228e-06
2.34544e-06
2.22918e-06
1.98134e-06
2.66466e-06
2.35936e-06
2.08047e-06
1.92057e-06
2.8773e-06
2.09002e-06
1.71221e-06
1.75001e-06
2.10098e-06
2.50544e-06
2.49174e-06
2.19591e-06
2.77844e-06
2.37051e-06
2.1746e-06
1.89414e-06
2.73486e-06
2.19624e-06
1.84244e-06
1.84029e-06
2.19054e-06
2.66787e-06
2.79593e-06
2.45319e-06
2.8224e-06
2.39006e-06
2.28534e-06
1.87559e-06
2.58007e-06
2.30811e-06
1.9971e-06
1.94941e-06
2.27737e-06
2.82435e-06
2.82946e-06
2.73975e-06
2.83317e-06
2.4189e-06
2.41631e-06
1.86658e-06
2.43558e-06
2.42331e-06
2.17667e-06
2.07996e-06
2.35838e-06
2.91724e-06
2.84542e-06
2.79712e-06
2.84148e-06
2.45766e-06
2.57164e-06
1.8689e-06
2.30482e-06
2.53912e-06
2.37938e-06
2.23369e-06
2.4316e-06
2.925e-06
2.86108e-06
2.8129e-06
2.84764e-06
2.50801e-06
2.75329e-06
1.88467e-06
2.19052e-06
2.65272e-06
2.6025e-06
2.41063e-06
2.49672e-06
2.93216e-06
2.87637e-06
2.82762e-06
2.85185e-06
2.57211e-06
2.86903e-06
1.91581e-06
2.09563e-06
2.76148e-06
2.83733e-06
2.60997e-06
2.55517e-06
2.93884e-06
2.89113e-06
2.84116e-06
2.85421e-06
2.65041e-06
2.86741e-06
1.96244e-06
2.02254e-06
2.86296e-06
2.99784e-06
2.82132e-06
2.60871e-06
2.94511e-06
2.90514e-06
2.85338e-06
2.85491e-06
2.74219e-06
2.86388e-06
2.02442e-06
1.97302e-06
2.95224e-06
3.00932e-06
2.96972e-06
2.65835e-06
2.95097e-06
2.91814e-06
2.86408e-06
2.85426e-06
2.84528e-06
2.85868e-06
2.10254e-06
1.94845e-06
3.01217e-06
3.01886e-06
2.97689e-06
2.70346e-06
2.95642e-06
2.93047e-06
2.87306e-06
2.84453e-06
2.8599e-06
2.85226e-06
2.19684e-06
1.95013e-06
3.01371e-06
3.02662e-06
2.98276e-06
2.74186e-06
2.96162e-06
2.94214e-06
2.88019e-06
2.84457e-06
2.85561e-06
2.84497e-06
2.30563e-06
1.97946e-06
3.01451e-06
3.03294e-06
2.9875e-06
2.77128e-06
2.96628e-06
2.95194e-06
2.88544e-06
2.84841e-06
2.85107e-06
2.83716e-06
2.42452e-06
2.03774e-06
3.01488e-06
3.03802e-06
2.99126e-06
2.78958e-06
2.96936e-06
2.95916e-06
2.88897e-06
2.84657e-06
2.84663e-06
2.82916e-06
2.54598e-06
2.12466e-06
3.01499e-06
3.04192e-06
2.9942e-06
2.79417e-06
2.97258e-06
2.96385e-06
2.89159e-06
2.8452e-06
2.84256e-06
2.8213e-06
2.65849e-06
2.23716e-06
3.01481e-06
3.04461e-06
2.9964e-06
2.78217e-06
2.97575e-06
2.96612e-06
2.89292e-06
2.84432e-06
2.83902e-06
2.81384e-06
2.74565e-06
2.36805e-06
4.65793e-12
4.59499e-12
4.54994e-12
4.45164e-12
4.51006e-12
4.64006e-12
4.68364e-12
4.59559e-12
4.48541e-12
4.4433e-12
4.51501e-12
4.83452e-12
4.46316e-12
4.4033e-12
4.35778e-12
4.2613e-12
4.31761e-12
4.44431e-12
4.47851e-12
4.38255e-12
4.28351e-12
4.26357e-12
4.34187e-12
4.64768e-12
5.97666e-12
5.90617e-12
5.80205e-12
5.62819e-12
5.70455e-12
5.9094e-12
5.80506e-12
5.45048e-12
5.45008e-12
5.82385e-12
6.10247e-12
6.50175e-12
1.68946e-11
1.67468e-11
1.62299e-11
1.55149e-11
1.57212e-11
1.64661e-11
1.53981e-11
1.33182e-11
1.3963e-11
1.71445e-11
1.95994e-11
2.04606e-11
5.8162e-11
5.7702e-11
5.56886e-11
5.3021e-11
5.36713e-11
5.63522e-11
5.16367e-11
4.31685e-11
4.62789e-11
6.00477e-11
7.10173e-11
7.33119e-11
1.67343e-10
1.65999e-10
1.60195e-10
1.52693e-10
1.54414e-10
1.61873e-10
1.4731e-10
1.22118e-10
1.3203e-10
1.74125e-10
2.08215e-10
2.13238e-10
3.9429e-10
3.90947e-10
3.77684e-10
3.61111e-10
3.64956e-10
3.81461e-10
3.45979e-10
2.8652e-10
3.11259e-10
4.1269e-10
4.95211e-10
5.03309e-10
7.87493e-10
7.80264e-10
7.54896e-10
7.24815e-10
7.325e-10
7.6297e-10
6.90539e-10
5.72888e-10
6.24506e-10
8.28668e-10
9.94155e-10
1.00274e-09
1.37773e-09
1.36387e-09
1.32148e-09
1.27484e-09
1.28915e-09
1.33798e-09
1.20944e-09
1.00678e-09
1.10007e-09
1.45655e-09
1.74288e-09
1.74511e-09
2.16814e-09
2.14362e-09
2.08023e-09
2.0171e-09
2.04227e-09
2.1124e-09
1.9083e-09
1.59552e-09
1.74584e-09
2.30107e-09
2.74155e-09
2.72679e-09
3.13507e-09
3.09424e-09
3.0078e-09
2.93213e-09
2.97386e-09
3.06633e-09
2.77004e-09
2.32788e-09
2.54846e-09
3.33683e-09
3.95364e-09
3.90966e-09
4.20221e-09
4.14293e-09
4.03334e-09
3.95259e-09
4.02674e-09
4.14848e-09
3.76069e-09
3.17834e-09
3.47813e-09
4.46809e-09
5.21311e-09
5.14043e-09
5.16956e-09
5.08028e-09
4.95863e-09
4.88332e-09
4.97906e-09
5.11629e-09
4.66051e-09
3.9887e-09
4.32867e-09
5.4951e-09
6.38167e-09
6.27717e-09
6.17616e-09
6.04728e-09
5.91889e-09
5.86003e-09
5.97963e-09
6.12705e-09
5.5856e-09
4.80528e-09
5.20833e-09
6.56099e-09
7.58477e-09
7.4424e-09
7.20936e-09
7.02991e-09
6.90092e-09
6.87116e-09
7.01722e-09
7.16858e-09
6.5394e-09
5.65549e-09
6.12197e-09
7.65084e-09
8.80387e-09
8.6179e-09
8.25912e-09
8.01651e-09
7.89395e-09
7.90739e-09
8.08272e-09
8.23104e-09
7.51314e-09
6.5329e-09
7.06166e-09
8.75199e-09
1.00232e-08
9.78929e-09
9.31912e-09
8.9989e-09
8.8907e-09
8.96271e-09
9.17013e-09
9.30784e-09
8.50097e-09
7.43344e-09
8.02203e-09
9.85513e-09
1.12314e-08
1.09474e-08
1.03873e-08
9.97311e-09
9.88776e-09
1.00349e-08
1.02772e-08
1.03963e-08
9.50059e-09
8.35583e-09
9.00077e-09
1.09551e-08
1.24223e-08
1.20891e-08
1.14666e-08
1.09402e-08
1.08862e-08
1.11258e-08
1.14062e-08
1.14986e-08
1.05138e-08
9.30201e-09
9.99928e-09
1.20522e-08
1.35965e-08
1.32173e-08
1.25658e-08
1.19072e-08
1.18924e-08
1.2242e-08
1.25643e-08
1.26221e-08
1.15471e-08
1.02779e-08
1.10236e-08
1.31529e-08
1.47615e-08
1.43415e-08
1.36997e-08
1.28871e-08
1.29184e-08
1.33953e-08
1.37645e-08
1.37805e-08
1.26126e-08
1.12941e-08
1.20854e-08
1.42712e-08
1.59324e-08
1.54775e-08
1.48892e-08
1.38991e-08
1.39817e-08
1.46031e-08
1.50253e-08
1.49932e-08
1.37282e-08
1.23669e-08
1.32017e-08
1.54271e-08
1.71305e-08
1.6647e-08
1.61604e-08
1.49682e-08
1.51049e-08
1.58874e-08
1.63699e-08
1.62842e-08
1.49166e-08
1.35173e-08
1.4395e-08
1.66463e-08
1.83829e-08
1.78779e-08
1.75448e-08
1.61244e-08
1.63155e-08
1.72744e-08
1.78256e-08
1.76821e-08
1.62041e-08
1.47708e-08
1.5692e-08
1.79597e-08
1.97235e-08
1.92051e-08
1.9081e-08
1.74046e-08
1.76473e-08
1.87955e-08
1.94245e-08
1.92209e-08
1.76223e-08
1.6156e-08
1.71245e-08
1.94057e-08
2.11961e-08
2.06738e-08
2.08182e-08
1.88551e-08
1.91433e-08
2.04915e-08
2.12083e-08
2.09438e-08
1.92088e-08
1.7708e-08
1.87316e-08
2.10354e-08
2.28611e-08
2.23447e-08
2.28225e-08
2.05363e-08
2.08616e-08
2.24206e-08
2.32367e-08
2.29108e-08
2.10128e-08
1.94701e-08
2.05655e-08
2.29206e-08
2.48026e-08
2.43012e-08
2.51856e-08
2.25294e-08
2.28828e-08
2.46682e-08
2.5599e-08
2.52098e-08
2.3102e-08
2.15015e-08
2.27015e-08
2.51636e-08
2.71385e-08
2.66578e-08
2.80345e-08
2.49446e-08
2.532e-08
2.73598e-08
2.84288e-08
2.79703e-08
2.55746e-08
2.38869e-08
2.52503e-08
2.79103e-08
3.00312e-08
2.95712e-08
3.15458e-08
2.7932e-08
2.83309e-08
3.06768e-08
3.19215e-08
3.13808e-08
2.85731e-08
2.67523e-08
2.83765e-08
3.13653e-08
3.37021e-08
3.32537e-08
3.59628e-08
3.16964e-08
3.21353e-08
3.48766e-08
3.63567e-08
3.5712e-08
3.23047e-08
3.02846e-08
3.23209e-08
3.58146e-08
3.84511e-08
3.79923e-08
4.16195e-08
3.65182e-08
3.70377e-08
4.03205e-08
4.21294e-08
4.13469e-08
3.70663e-08
3.4759e-08
3.74326e-08
4.16558e-08
4.46833e-08
4.41749e-08
4.88176e-08
4.26083e-08
4.3287e-08
4.73495e-08
4.96411e-08
4.86727e-08
4.31043e-08
4.03847e-08
4.40389e-08
4.92953e-08
5.28231e-08
5.22034e-08
5.80596e-08
5.03381e-08
5.13121e-08
5.6532e-08
5.9559e-08
5.83375e-08
5.08599e-08
4.75595e-08
5.27079e-08
5.93994e-08
6.35478e-08
6.2719e-08
7.013e-08
6.02885e-08
6.17842e-08
6.87605e-08
7.29439e-08
7.13774e-08
6.10365e-08
5.69256e-08
6.43499e-08
7.30256e-08
7.79046e-08
7.67081e-08
8.62486e-08
7.33524e-08
7.57408e-08
8.54416e-08
9.15051e-08
8.94672e-08
7.47461e-08
6.9494e-08
8.04314e-08
9.18681e-08
9.7509e-08
9.56662e-08
1.08238e-07
9.0879e-08
9.45737e-08
1.08552e-07
1.17962e-07
1.15313e-07
9.37818e-08
8.689e-08
1.0331e-07
1.18554e-07
1.24076e-07
1.2035e-07
1.32254e-07
1.11724e-07
1.14887e-07
1.33941e-07
1.4992e-07
1.4822e-07
1.19768e-07
1.10992e-07
1.31254e-07
1.47801e-07
1.53707e-07
1.48495e-07
1.63274e-07
1.36518e-07
1.41314e-07
1.6762e-07
1.90154e-07
1.87761e-07
1.48277e-07
1.37184e-07
1.65779e-07
1.86783e-07
1.92683e-07
1.85288e-07
2.04093e-07
1.68782e-07
1.76055e-07
2.12566e-07
2.44511e-07
2.4101e-07
1.86192e-07
1.72124e-07
2.12424e-07
2.3892e-07
2.44067e-07
2.33406e-07
2.57961e-07
2.11032e-07
2.21903e-07
2.72579e-07
3.17019e-07
3.11959e-07
2.36769e-07
2.18968e-07
2.75513e-07
3.07761e-07
3.10767e-07
2.9562e-07
3.27087e-07
2.66388e-07
2.81809e-07
3.49716e-07
4.10594e-07
4.03097e-07
3.03313e-07
2.81735e-07
3.57558e-07
3.9562e-07
3.94774e-07
3.73304e-07
4.13535e-07
3.36127e-07
3.57198e-07
4.46988e-07
5.29368e-07
5.18098e-07
3.87655e-07
3.62214e-07
4.61986e-07
5.05727e-07
4.98925e-07
4.68726e-07
5.19866e-07
4.22346e-07
4.50655e-07
5.67213e-07
6.76372e-07
6.59489e-07
4.92902e-07
4.63434e-07
5.91926e-07
6.40139e-07
6.25224e-07
5.83696e-07
6.476e-07
5.27299e-07
5.64343e-07
7.11728e-07
8.52317e-07
8.27536e-07
6.21322e-07
5.8805e-07
7.48587e-07
7.98656e-07
7.74024e-07
7.18942e-07
7.96517e-07
6.52347e-07
6.99268e-07
8.79531e-07
1.05452e-06
1.01915e-06
7.73414e-07
7.37078e-07
9.30192e-07
9.77996e-07
9.43457e-07
8.73685e-07
9.64177e-07
7.97372e-07
8.5473e-07
1.06679e-06
1.27585e-06
1.22749e-06
9.47141e-07
9.09022e-07
1.13134e-06
1.17167e-06
1.12927e-06
1.04543e-06
1.14591e-06
9.60313e-07
1.02795e-06
1.26699e-06
1.50523e-06
1.44248e-06
1.13739e-06
1.09918e-06
1.34302e-06
1.37078e-06
1.32527e-06
1.23003e-06
1.33526e-06
1.13698e-06
1.21408e-06
1.47187e-06
1.72977e-06
1.5996e-06
1.33574e-06
1.27349e-06
1.38107e-06
1.56567e-06
1.52426e-06
1.42202e-06
1.52472e-06
1.32129e-06
1.40658e-06
1.67279e-06
1.73603e-06
1.50624e-06
1.36626e-06
1.24232e-06
1.35585e-06
1.58579e-06
1.71902e-06
1.6154e-06
1.64515e-06
1.50584e-06
1.59808e-06
1.82403e-06
1.61172e-06
1.4135e-06
1.30736e-06
1.22171e-06
1.34988e-06
1.49006e-06
1.90324e-06
1.80423e-06
1.52006e-06
1.49106e-06
1.68505e-06
1.67715e-06
1.51264e-06
1.34446e-06
1.25485e-06
1.2211e-06
1.36635e-06
1.41222e-06
2.07193e-06
1.98325e-06
1.40992e-06
1.34938e-06
1.54714e-06
1.55299e-06
1.45142e-06
1.30244e-06
1.21678e-06
1.23744e-06
1.40158e-06
1.36117e-06
2.22149e-06
2.14829e-06
1.3427e-06
1.24541e-06
1.43184e-06
1.47664e-06
1.42666e-06
1.29132e-06
1.19256e-06
1.26916e-06
1.45341e-06
1.33516e-06
2.1794e-06
2.28751e-06
1.31434e-06
1.1851e-06
1.35907e-06
1.43618e-06
1.43218e-06
1.30841e-06
1.185e-06
1.31617e-06
1.51966e-06
1.33249e-06
2.05537e-06
2.29999e-06
1.31605e-06
1.15559e-06
1.31753e-06
1.41957e-06
1.45974e-06
1.34788e-06
1.19616e-06
1.37918e-06
1.59741e-06
1.3499e-06
1.95266e-06
2.31469e-06
1.33995e-06
1.14688e-06
1.29549e-06
1.4192e-06
1.50412e-06
1.40603e-06
1.22604e-06
1.45885e-06
1.68337e-06
1.38345e-06
1.88317e-06
2.33946e-06
1.38087e-06
1.15318e-06
1.28566e-06
1.43102e-06
1.56352e-06
1.48221e-06
1.27447e-06
1.55569e-06
1.77471e-06
1.42983e-06
1.84019e-06
2.37594e-06
1.43621e-06
1.17181e-06
1.28422e-06
1.4531e-06
1.63858e-06
1.57901e-06
1.34249e-06
1.67041e-06
1.87007e-06
1.4871e-06
1.81369e-06
2.42213e-06
1.50507e-06
1.20218e-06
1.28955e-06
1.48475e-06
1.73158e-06
1.70246e-06
1.43315e-06
1.80369e-06
1.96999e-06
1.55492e-06
1.79612e-06
2.47365e-06
1.58734e-06
1.24505e-06
1.30147e-06
1.52596e-06
1.84611e-06
1.86217e-06
1.55212e-06
1.95591e-06
2.07702e-06
1.63434e-06
1.78317e-06
2.52377e-06
1.68295e-06
1.30208e-06
1.32083e-06
1.57704e-06
1.98682e-06
2.07141e-06
1.70784e-06
2.12681e-06
2.19573e-06
1.72758e-06
1.773e-06
2.5639e-06
1.79132e-06
1.37575e-06
1.34941e-06
1.63833e-06
2.1589e-06
2.3499e-06
1.91115e-06
2.31496e-06
2.33243e-06
1.83775e-06
1.7654e-06
2.58558e-06
1.91101e-06
1.46927e-06
1.38982e-06
1.70983e-06
2.36697e-06
2.71032e-06
2.17435e-06
2.51702e-06
2.49313e-06
1.9687e-06
1.76115e-06
2.58362e-06
2.03952e-06
1.58646e-06
1.4455e-06
1.7907e-06
2.61396e-06
2.89669e-06
2.51487e-06
2.73056e-06
2.6812e-06
2.1246e-06
1.76145e-06
2.55687e-06
2.1733e-06
1.73114e-06
1.52065e-06
1.87914e-06
2.88077e-06
2.90924e-06
2.83144e-06
2.89759e-06
2.89442e-06
2.30931e-06
1.76789e-06
2.50598e-06
2.30794e-06
1.90587e-06
1.61995e-06
1.97231e-06
2.96503e-06
2.92066e-06
2.84899e-06
2.90478e-06
2.92293e-06
2.52445e-06
1.78241e-06
2.43438e-06
2.43829e-06
2.10972e-06
1.74792e-06
2.06717e-06
2.9691e-06
2.93087e-06
2.86651e-06
2.91015e-06
2.92678e-06
2.76367e-06
1.80706e-06
2.34961e-06
2.55856e-06
2.33554e-06
1.90748e-06
2.16121e-06
2.97179e-06
2.93983e-06
2.88131e-06
2.91399e-06
2.92926e-06
2.91354e-06
1.84324e-06
2.26076e-06
2.66303e-06
2.57016e-06
2.09773e-06
2.25228e-06
2.97315e-06
2.94754e-06
2.8936e-06
2.91723e-06
2.9304e-06
2.91907e-06
1.88999e-06
2.17636e-06
2.74672e-06
2.80182e-06
2.31134e-06
2.33815e-06
2.97329e-06
2.95402e-06
2.90363e-06
2.91898e-06
2.93016e-06
2.92322e-06
1.94633e-06
2.10349e-06
2.80514e-06
2.97904e-06
2.53441e-06
2.41677e-06
2.97237e-06
2.95924e-06
2.9116e-06
2.91926e-06
2.92856e-06
2.9259e-06
2.01286e-06
2.04793e-06
2.83649e-06
2.98888e-06
2.75219e-06
2.48583e-06
2.97059e-06
2.96314e-06
2.91763e-06
2.91818e-06
2.92564e-06
2.92732e-06
2.08965e-06
2.01443e-06
2.84215e-06
2.99783e-06
2.93497e-06
2.54111e-06
2.96819e-06
2.96513e-06
2.92176e-06
2.91571e-06
2.92153e-06
2.92982e-06
2.17593e-06
2.00713e-06
2.82489e-06
3.00371e-06
2.94364e-06
2.57724e-06
2.96534e-06
2.96499e-06
2.92404e-06
2.91199e-06
2.91648e-06
2.9311e-06
2.26953e-06
2.03e-06
2.78949e-06
3.0081e-06
2.94748e-06
2.58953e-06
2.96276e-06
2.96407e-06
2.9245e-06
2.90724e-06
2.91076e-06
2.93049e-06
2.36627e-06
2.08705e-06
2.74145e-06
3.01147e-06
2.94981e-06
2.57571e-06
2.96173e-06
2.9632e-06
2.92315e-06
2.90184e-06
2.90471e-06
2.92799e-06
2.45988e-06
2.1811e-06
2.6866e-06
3.01385e-06
2.93588e-06
2.53642e-06
2.96083e-06
2.96255e-06
2.91939e-06
2.89608e-06
2.89868e-06
2.92355e-06
2.54262e-06
2.31199e-06
2.62888e-06
2.95875e-06
2.7678e-06
2.47355e-06
2.96016e-06
2.9622e-06
2.91406e-06
2.83189e-06
2.89295e-06
2.91704e-06
2.60603e-06
2.47429e-06
5.0551e-12
4.98738e-12
4.93047e-12
4.81187e-12
4.85425e-12
4.97346e-12
4.9761e-12
4.84586e-12
4.77189e-12
4.82665e-12
4.97443e-12
5.28591e-12
4.93914e-12
4.87468e-12
4.81397e-12
4.69472e-12
4.73271e-12
4.84546e-12
4.84032e-12
4.70845e-12
4.64679e-12
4.71825e-12
4.87378e-12
5.16786e-12
8.29246e-12
8.21387e-12
8.02573e-12
7.76956e-12
7.76626e-12
7.88101e-12
7.72106e-12
7.40893e-12
7.50918e-12
7.97594e-12
8.4529e-12
8.74813e-12
3.27912e-11
3.25841e-11
3.15761e-11
3.0396e-11
3.01114e-11
3.02689e-11
2.90756e-11
2.75161e-11
2.86719e-11
3.17876e-11
3.4458e-11
3.48622e-11
1.25285e-10
1.24595e-10
1.20712e-10
1.16247e-10
1.14792e-10
1.14962e-10
1.09822e-10
1.03621e-10
1.08865e-10
1.2198e-10
1.32836e-10
1.33385e-10
3.70669e-10
3.68783e-10
3.57914e-10
3.45458e-10
3.40618e-10
3.40256e-10
3.24473e-10
3.0628e-10
3.22787e-10
3.6236e-10
3.94376e-10
3.94215e-10
8.8133e-10
8.77328e-10
8.53322e-10
8.26105e-10
8.13878e-10
8.11077e-10
7.72969e-10
7.30966e-10
7.7168e-10
8.65312e-10
9.39146e-10
9.34825e-10
1.76607e-09
1.75939e-09
1.715e-09
1.66574e-09
1.64076e-09
1.63154e-09
1.55506e-09
1.47464e-09
1.55801e-09
1.74148e-09
1.88196e-09
1.86585e-09
3.09433e-09
3.08515e-09
3.01387e-09
2.93716e-09
2.89412e-09
2.87267e-09
2.73996e-09
2.60704e-09
2.75459e-09
3.0637e-09
3.29286e-09
3.25345e-09
4.87593e-09
4.86593e-09
4.76324e-09
4.6563e-09
4.59153e-09
4.55155e-09
4.34716e-09
4.15194e-09
4.3834e-09
4.8442e-09
5.17462e-09
5.09926e-09
7.0624e-09
7.05462e-09
6.91945e-09
6.78201e-09
6.69412e-09
6.63056e-09
6.3451e-09
6.0843e-09
6.41324e-09
7.0349e-09
7.46646e-09
7.34554e-09
9.51285e-09
9.53787e-09
9.36937e-09
9.17401e-09
9.06342e-09
8.9978e-09
8.66276e-09
8.34009e-09
8.77114e-09
9.44177e-09
9.8792e-09
9.75291e-09
1.1736e-08
1.17761e-08
1.15924e-08
1.13651e-08
1.12249e-08
1.11398e-08
1.08073e-08
1.05067e-08
1.09279e-08
1.16617e-08
1.21591e-08
1.20095e-08
1.40607e-08
1.41207e-08
1.39283e-08
1.36719e-08
1.34994e-08
1.3392e-08
1.30163e-08
1.26844e-08
1.31683e-08
1.39923e-08
1.45445e-08
1.43697e-08
1.64604e-08
1.65449e-08
1.63517e-08
1.60694e-08
1.58622e-08
1.57299e-08
1.5311e-08
1.49505e-08
1.5498e-08
1.64082e-08
1.70095e-08
1.6808e-08
1.89141e-08
1.90263e-08
1.88421e-08
1.85382e-08
1.82936e-08
1.81335e-08
1.76702e-08
1.72835e-08
1.78957e-08
1.8889e-08
1.95339e-08
1.93061e-08
2.14089e-08
2.15495e-08
2.13866e-08
2.10668e-08
2.07815e-08
2.05901e-08
2.00793e-08
1.96668e-08
2.03463e-08
2.14219e-08
2.21068e-08
2.18559e-08
2.39406e-08
2.41074e-08
2.39806e-08
2.36524e-08
2.33231e-08
2.30961e-08
2.25309e-08
2.20904e-08
2.28423e-08
2.40038e-08
2.47279e-08
2.44587e-08
2.65147e-08
2.6702e-08
2.66278e-08
2.63015e-08
2.59261e-08
2.56585e-08
2.50265e-08
2.45516e-08
2.5385e-08
2.66423e-08
2.74087e-08
2.71262e-08
2.91461e-08
2.93445e-08
2.93405e-08
2.90303e-08
2.86088e-08
2.82958e-08
2.75779e-08
2.70574e-08
2.79871e-08
2.93567e-08
3.01718e-08
2.98795e-08
3.18592e-08
3.20556e-08
3.21399e-08
3.18656e-08
3.14013e-08
3.1038e-08
3.02083e-08
2.96263e-08
3.06726e-08
3.21769e-08
3.30503e-08
3.27485e-08
3.46863e-08
3.48629e-08
3.50547e-08
3.48427e-08
3.43429e-08
3.39246e-08
3.29504e-08
3.22875e-08
3.34755e-08
3.51413e-08
3.60842e-08
3.57707e-08
3.76652e-08
3.77991e-08
3.81197e-08
3.80029e-08
3.74793e-08
3.70017e-08
3.58433e-08
3.50779e-08
3.6436e-08
3.82935e-08
3.93194e-08
3.89904e-08
4.08382e-08
4.08999e-08
4.13727e-08
4.13907e-08
4.08602e-08
4.03203e-08
3.89294e-08
3.80366e-08
3.95974e-08
4.16813e-08
4.28079e-08
4.24594e-08
4.42542e-08
4.42042e-08
4.48556e-08
4.50567e-08
4.45437e-08
4.39399e-08
4.22545e-08
4.12048e-08
4.30061e-08
4.53607e-08
4.66124e-08
4.62413e-08
4.79741e-08
4.7758e-08
4.86187e-08
4.90653e-08
4.86061e-08
4.79381e-08
4.58731e-08
4.46271e-08
4.67181e-08
4.94033e-08
5.08139e-08
5.04186e-08
5.20799e-08
5.16213e-08
5.27291e-08
5.35059e-08
5.31569e-08
5.24263e-08
4.98593e-08
4.83614e-08
5.08116e-08
5.39082e-08
5.55209e-08
5.51014e-08
5.66847e-08
5.58768e-08
5.72808e-08
5.85072e-08
5.83557e-08
5.75681e-08
5.43225e-08
5.24943e-08
5.54041e-08
5.90138e-08
6.08777e-08
6.04377e-08
6.19431e-08
6.06398e-08
6.24056e-08
6.42489e-08
6.4427e-08
6.35968e-08
5.94262e-08
5.71607e-08
6.06718e-08
6.49095e-08
6.70732e-08
6.66217e-08
6.80619e-08
6.60692e-08
6.82841e-08
7.09719e-08
7.1672e-08
7.08323e-08
6.54065e-08
6.25646e-08
6.68688e-08
7.18459e-08
7.43495e-08
7.39053e-08
7.53045e-08
7.23786e-08
7.51542e-08
7.8977e-08
8.04664e-08
7.96874e-08
7.25924e-08
6.90038e-08
7.43446e-08
8.01387e-08
8.30078e-08
8.26042e-08
8.39944e-08
7.98309e-08
8.32992e-08
8.86141e-08
9.12683e-08
9.0681e-08
8.14065e-08
7.6886e-08
8.35376e-08
9.01824e-08
9.34375e-08
9.3124e-08
9.45969e-08
8.87584e-08
9.30921e-08
1.00386e-07
1.04766e-07
1.04594e-07
9.24001e-08
8.67074e-08
9.50491e-08
1.0258e-07
1.0624e-07
1.06087e-07
1.07857e-07
9.97074e-08
1.05134e-07
1.15082e-07
1.22042e-07
1.22672e-07
1.06463e-07
9.92687e-08
1.09851e-07
1.18294e-07
1.22352e-07
1.22471e-07
1.24935e-07
1.13521e-07
1.2035e-07
1.33914e-07
1.44776e-07
1.46895e-07
1.25011e-07
1.15842e-07
1.29497e-07
1.38834e-07
1.4322e-07
1.43797e-07
1.47663e-07
1.31501e-07
1.4017e-07
1.58763e-07
1.75597e-07
1.80455e-07
1.5036e-07
1.38521e-07
1.5655e-07
1.66646e-07
1.71143e-07
1.72408e-07
1.78863e-07
1.55671e-07
1.66818e-07
1.9267e-07
2.18774e-07
2.28307e-07
1.8612e-07
1.7071e-07
1.95196e-07
2.05668e-07
2.09628e-07
2.07095e-07
2.14931e-07
1.86903e-07
2.01087e-07
2.40131e-07
2.80679e-07
2.84112e-07
2.23551e-07
2.07295e-07
2.41512e-07
2.52221e-07
2.5139e-07
2.43249e-07
2.55551e-07
2.18888e-07
2.36543e-07
2.89874e-07
3.4876e-07
3.50977e-07
2.70506e-07
2.49739e-07
2.94323e-07
3.0536e-07
3.0184e-07
2.90614e-07
3.09267e-07
2.61364e-07
2.83652e-07
3.53075e-07
4.3202e-07
4.37072e-07
3.33998e-07
3.07213e-07
3.64214e-07
3.73917e-07
3.66398e-07
3.51059e-07
3.76624e-07
3.17497e-07
3.44818e-07
4.31706e-07
5.35143e-07
5.4474e-07
4.1515e-07
3.81344e-07
4.51987e-07
4.58418e-07
4.45602e-07
4.25223e-07
4.59152e-07
3.88094e-07
4.20751e-07
5.27841e-07
6.6032e-07
6.76703e-07
5.17013e-07
4.74314e-07
5.60189e-07
5.60911e-07
5.41548e-07
5.1529e-07
5.58879e-07
4.75252e-07
5.13815e-07
6.43495e-07
8.08316e-07
8.3417e-07
6.42508e-07
5.88722e-07
6.90374e-07
6.8256e-07
6.55796e-07
6.23136e-07
6.77095e-07
5.8135e-07
6.26214e-07
7.79634e-07
9.78189e-07
1.01669e-06
7.93001e-07
7.2596e-07
8.42307e-07
8.23109e-07
7.88911e-07
7.49838e-07
8.13896e-07
7.07858e-07
7.59254e-07
9.35718e-07
1.16793e-06
1.22482e-06
9.67343e-07
8.85528e-07
1.01363e-06
9.80622e-07
9.40107e-07
8.95256e-07
9.67847e-07
8.54698e-07
9.12808e-07
1.10942e-06
1.37709e-06
1.4502e-06
1.16143e-06
1.06484e-06
1.20009e-06
1.15154e-06
1.10705e-06
1.05771e-06
1.13587e-06
1.01974e-06
1.08488e-06