/*--------------------------------*- C++ -*----------------------------------*\
| =========                 |                                                 |
| \\      /  F ield         | OpenFOAM: The Open Source CFD Toolbox           |
|  \\    /   O peration     | Version:  v1912                                 |
|   \\  /    A nd           | Website:  www.openfoam.com                      |
|    \\/     M anipulation  |                                                 |
\*---------------------------------------------------------------------------*/
FoamFile
{
    version     2.0;
    format      ascii;
    class       surfaceScalarField;
    location    "10.4";
    object      phi;
}
// * * * * * * * * * * * * * * * * * * * * * * * * * * * * * * * * * * * * * //

dimensions      [1 0 -1 0 0 0 0];
oriented        oriented;


internalField   nonuniform List<scalar> 
97428
(
1.05266e-09
8.5102e-09
-2.53988e-07
8.2622e-10
9.18348e-09
-2.5212e-07
8.71421e-10
8.92155e-09
-2.5076e-07
8.71964e-10
8.38585e-09
-2.48176e-07
8.90852e-10
7.81295e-09
-2.50089e-07
8.43721e-10
7.79808e-09
-2.53834e-07
-8.85784e-10
8.78034e-09
-2.55384e-07
-4.40982e-09
9.48221e-09
-2.53392e-07
-6.80253e-09
8.90822e-09
-2.49962e-07
-6.23814e-09
8.07838e-09
-2.47723e-07
-3.12201e-09
7.39364e-09
-2.48917e-07
7.45569e-09
-2.57711e-07
2.81658e-09
3.34913e-08
-7.86441e-07
2.57695e-09
3.59144e-08
-7.80809e-07
2.97507e-09
3.50811e-08
-7.76784e-07
2.93497e-09
3.32743e-08
-7.68849e-07
2.64348e-09
3.12346e-08
-7.74332e-07
2.24006e-09
3.10147e-08
-7.85639e-07
-2.70085e-09
3.43874e-08
-7.90176e-07
-1.31301e-08
3.72987e-08
-7.8392e-07
-2.05798e-08
3.5541e-08
-7.73746e-07
-1.89441e-08
3.21537e-08
-7.67424e-07
-9.6219e-09
2.94154e-08
-7.71532e-07
2.94071e-08
-7.97999e-07
4.3034e-09
7.46233e-08
-1.35128e-06
4.37753e-09
7.96767e-08
-1.34182e-06
5.31738e-09
7.81441e-08
-1.33516e-06
5.18334e-09
7.46238e-08
-1.32151e-06
4.34768e-09
7.03207e-08
-1.33022e-06
3.42679e-09
6.94918e-08
-1.34925e-06
-4.67621e-09
7.63371e-08
-1.35653e-06
-2.2083e-08
8.30643e-08
-1.34541e-06
-3.48268e-08
7.98937e-08
-1.32869e-06
-3.21114e-08
7.228e-08
-1.31913e-06
-1.64248e-08
6.60661e-08
-1.32715e-06
6.56007e-08
-1.37157e-06
5.52363e-09
1.31434e-07
-1.94653e-06
6.15869e-09
1.39847e-07
-1.93323e-06
7.76372e-09
1.37666e-07
-1.92401e-06
7.48988e-09
1.32265e-07
-1.90424e-06
5.97519e-09
1.24902e-07
-1.91565e-06
4.43321e-09
1.22818e-07
-1.94244e-06
-6.88292e-09
1.34011e-07
-1.95204e-06
-3.14002e-08
1.46251e-07
-1.93528e-06
-4.95778e-08
1.41726e-07
-1.91242e-06
-4.57084e-08
1.28365e-07
-1.90104e-06
-2.34452e-08
1.17187e-07
-1.91435e-06
1.15625e-07
-1.9768e-06
6.48158e-09
2.03276e-07
-2.56983e-06
7.86063e-09
2.15664e-07
-2.5527e-06
1.02017e-08
2.13062e-07
-2.54109e-06
9.76706e-09
2.05881e-07
-2.51483e-06
7.51592e-09
1.94617e-07
-2.52819e-06
5.26846e-09
1.90381e-07
-2.56262e-06
-9.38204e-09
2.06642e-07
-2.57393e-06
-4.118e-08
2.26191e-07
-2.5506e-06
-6.48764e-08
2.20622e-07
-2.52231e-06
-5.96963e-08
2.00132e-07
-2.51105e-06
-3.06067e-08
1.82427e-07
-2.53132e-06
1.78876e-07
-2.6116e-06
7.1899e-09
2.89344e-07
-3.21847e-06
9.42106e-09
3.06247e-07
-3.1976e-06
1.25223e-08
3.036e-07
-3.18384e-06
1.19454e-08
2.94996e-07
-3.15082e-06
8.9769e-09
2.78939e-07
-3.16518e-06
5.95067e-09
2.71417e-07
-3.2069e-06
-1.22248e-08
2.9336e-07
-3.21916e-06
-5.15078e-08
3.22131e-07
-3.18827e-06
-8.07527e-08
3.16015e-07
-3.15553e-06
-7.40282e-08
2.87108e-07
-3.14682e-06
-3.78337e-08
2.61212e-07
-3.17589e-06
2.54532e-07
-3.27346e-06
7.67171e-09
3.88706e-07
-3.88957e-06
1.07762e-08
4.10638e-07
-3.86508e-06
1.46161e-08
4.08405e-07
-3.84952e-06
1.39655e-08
3.98972e-07
-3.80961e-06
1.03761e-08
3.77219e-07
-3.82391e-06
6.50673e-09
3.65077e-07
-3.87228e-06
-1.54473e-08
3.93252e-07
-3.88458e-06
-6.24433e-08
4.33286e-07
-3.84514e-06
-9.72071e-08
4.27236e-07
-3.80923e-06
-8.86371e-08
3.8863e-07
-3.80587e-06
-4.50496e-08
3.52735e-07
-3.84566e-06
3.41567e-07
-3.95956e-06
7.96251e-09
5.0037e-07
-4.58023e-06
1.18616e-08
5.27858e-07
-4.55229e-06
1.63715e-08
5.26494e-07
-4.5353e-06
1.57722e-08
5.17019e-07
-4.48859e-06
1.17372e-08
4.88727e-07
-4.50169e-06
6.97105e-09
4.70507e-07
-4.55586e-06
-1.90675e-08
5.05446e-07
-4.56711e-06
-7.40154e-08
5.58915e-07
-4.51822e-06
-1.14202e-07
5.53555e-07
-4.48066e-06
-1.0343e-07
5.03873e-07
-4.4857e-06
-5.21744e-08
4.55983e-07
-4.53805e-06
4.38769e-07
-4.66691e-06
8.11087e-09
6.23393e-07
-5.28772e-06
1.26131e-08
6.56977e-07
-5.25659e-06
1.76724e-08
6.56827e-07
-5.2385e-06
1.7309e-08
6.48222e-07
-5.18525e-06
1.30838e-08
6.12698e-07
-5.19613e-06
7.38343e-09
5.86919e-07
-5.25503e-06
-2.3085e-08
6.29185e-07
-5.26402e-06
-8.62192e-08
6.98377e-07
-5.20488e-06
-1.31657e-07
6.94239e-07
-5.16735e-06
-1.18283e-07
6.31889e-07
-5.18395e-06
-5.91234e-08
5.69785e-07
-5.25049e-06
5.44821e-07
-5.39258e-06
8.1778e-09
7.5683e-07
-6.00972e-06
1.29673e-08
7.97162e-07
-5.97572e-06
1.83981e-08
7.98375e-07
-5.9567e-06
1.85129e-08
7.91588e-07
-5.89736e-06
1.44335e-08
7.48373e-07
-5.90519e-06
7.78628e-09
7.13643e-07
-5.96768e-06
-2.74817e-08
7.63887e-07
-5.97308e-06
-9.90159e-08
8.51187e-07
-5.90301e-06
-1.49447e-07
8.48587e-07
-5.86729e-06
-1.33041e-07
7.71655e-07
-5.89852e-06
-6.58051e-08
6.92879e-07
-5.98065e-06
6.5838e-07
-6.13385e-06
8.23534e-09
8.99861e-07
-6.74439e-06
1.28626e-08
9.47707e-07
-6.70789e-06
1.84219e-08
9.50192e-07
-6.68794e-06
1.93098e-08
9.46116e-07
-6.62306e-06
1.57929e-08
8.95027e-07
-6.62734e-06
8.22148e-09
8.50145e-07
-6.69228e-06
-3.2223e-08
9.09172e-07
-6.69269e-06
-1.12333e-07
1.01703e-06
-6.61113e-06
-1.67401e-07
1.01596e-06
-6.579e-06
-1.47513e-07
9.22114e-07
-6.62773e-06
-7.21187e-08
8.23974e-07
-6.72651e-06
7.78167e-07
-6.88847e-06
8.36416e-09
1.0518e-06
-7.49044e-06
1.22381e-08
1.10802e-06
-7.45183e-06
1.76106e-08
1.11147e-06
-7.4308e-06
1.96103e-08
1.11088e-06
-7.36098e-06
1.71518e-08
1.052e-06
-7.36152e-06
8.72711e-09
9.96018e-07
-7.42785e-06
-3.72591e-08
1.06485e-06
-7.42184e-06
-1.26063e-07
1.19574e-06
-7.32833e-06
-1.85302e-07
1.19576e-06
-7.3015e-06
-1.61474e-07
1.0822e-06
-7.37033e-06
-7.79509e-08
9.61794e-07
-7.48652e-06
9.03041e-07
-7.65473e-06
8.65074e-09
1.21206e-06
-8.24713e-06
1.10342e-08
1.27761e-06
-8.20675e-06
1.58245e-08
1.28158e-06
-8.18438e-06
1.93067e-08
1.28506e-06
-8.11028e-06
1.8479e-08
1.21868e-06
-8.10721e-06
9.33399e-09
1.15094e-06
-8.17399e-06
-4.2527e-08
1.23088e-06
-8.16011e-06
-1.40067e-07
1.38728e-06
-8.05428e-06
-2.02885e-07
1.38744e-06
-8.03437e-06
-1.7466e-07
1.2508e-06
-8.12554e-06
-8.31737e-08
1.10508e-06
-8.25958e-06
1.03205e-06
-8.43144e-06
9.18357e-09
1.38018e-06
-9.01397e-06
9.19143e-09
1.45605e-06
-8.97208e-06
1.29172e-08
1.46006e-06
-8.9482e-06
1.82699e-08
1.46803e-06
-8.87053e-06
1.97171e-08
1.39451e-06
-8.86419e-06
1.0062e-08
1.31464e-06
-8.93055e-06
-4.79501e-08
1.40732e-06
-8.9074e-06
-1.54164e-07
1.59166e-06
-8.78895e-06
-2.19835e-07
1.59042e-06
-8.77752e-06
-1.86768e-07
1.42678e-06
-8.89283e-06
-8.76389e-08
1.25261e-06
-9.04478e-06
1.16447e-06
-9.21779e-06
1.00482e-08
1.55577e-06
-9.79059e-06
6.65231e-09
1.64295e-06
-9.74725e-06
8.73879e-09
1.64661e-06
-9.72187e-06
1.63491e-08
1.65927e-06
-9.64149e-06
2.07785e-08
1.57899e-06
-9.6323e-06
1.09157e-08
1.48685e-06
-9.69741e-06
-5.34384e-08
1.59429e-06
-9.66366e-06
-1.68134e-07
1.80892e-06
-9.53246e-06
-2.35776e-07
1.80406e-06
-9.53092e-06
-1.97448e-07
1.60893e-06
-9.67168e-06
-9.11767e-08
1.4032e-06
-9.84127e-06
1.2998e-06
-1.00131e-05
1.13209e-08
1.73851e-06
-1.05766e-05
3.36188e-09
1.83801e-06
-1.05317e-05
3.14038e-09
1.84105e-06
-1.05051e-05
1.33725e-08
1.8584e-06
-1.04231e-05
2.1543e-08
1.77161e-06
-1.04115e-05
1.18809e-08
1.66728e-06
-1.04745e-05
-5.88901e-08
1.79191e-06
-1.04289e-05
-1.81711e-07
2.03902e-06
-1.02849e-05
-2.50281e-07
2.02758e-06
-1.02946e-05
-2.06314e-07
1.79596e-06
-1.04616e-05
-9.35964e-08
1.5557e-06
-1.06482e-05
1.43771e-06
-1.08167e-05
1.30613e-08
1.92807e-06
-1.13715e-05
-7.29376e-10
2.04094e-06
-1.13246e-05
-4.01124e-09
2.04322e-06
-1.12975e-05
9.15206e-09
2.06503e-06
-1.12151e-05
2.18566e-08
1.9718e-06
-1.12015e-05
1.29203e-08
1.8556e-06
-1.12615e-05
-6.41947e-08
2.00026e-06
-1.12029e-05
-1.94591e-07
2.28182e-06
-1.10462e-05
-2.62876e-07
2.26005e-06
-1.10683e-05
-2.12947e-07
1.9865e-06
-1.12618e-05
-9.46896e-08
1.70899e-06
-1.14645e-05
1.57801e-06
-1.1628e-05
1.53034e-08
2.12408e-06
-1.21745e-05
-5.66567e-09
2.25152e-06
-1.21253e-05
-1.28638e-08
2.25297e-06
-1.20985e-05
3.49053e-09
2.27867e-06
-1.20171e-05
2.15331e-08
2.17889e-06
-1.2002e-05
1.39707e-08
2.05133e-06
-1.20581e-05
-6.92376e-08
2.21934e-06
-1.19853e-05
-2.06437e-07
2.53703e-06
-1.18163e-05
-2.73057e-07
2.50032e-06
-1.1852e-05
-2.16915e-07
2.17909e-06
-1.20717e-05
-9.42357e-08
1.86201e-06
-1.2289e-05
1.72053e-06
-1.24459e-05
1.80474e-08
2.32608e-06
-1.29847e-05
-1.14776e-08
2.46951e-06
-1.29325e-05
-2.34907e-08
2.47002e-06
-1.2907e-05
-3.80132e-09
2.49867e-06
-1.28285e-05
2.03595e-08
2.39201e-06
-1.28122e-05
1.49409e-08
2.25384e-06
-1.28635e-05
-7.3906e-08
2.44902e-06
-1.27757e-05
-2.16889e-07
2.80412e-06
-1.25948e-05
-2.80309e-07
2.74696e-06
-1.26449e-05
-2.17791e-07
2.37214e-06
-1.28899e-05
-9.20107e-08
2.01368e-06
-1.31202e-05
1.86511e-06
-1.32692e-05
2.12515e-08
2.53351e-06
-1.38006e-05
-1.81815e-08
2.69463e-06
-1.37449e-05
-3.59495e-08
2.69398e-06
-1.3722e-05
-1.29221e-08
2.72417e-06
-1.36481e-05
1.81047e-08
2.61005e-06
-1.36311e-05
1.57119e-08
2.46228e-06
-1.36767e-05
-7.80968e-08
2.68897e-06
-1.35732e-05
-2.25585e-07
3.08234e-06
-1.33809e-05
-2.84131e-07
2.99831e-06
-1.34462e-05
-2.15175e-07
2.56394e-06
-1.3715e-05
-8.77995e-08
2.1629e-06
-1.39562e-05
2.01149e-06
-1.40961e-05
2.48262e-08
2.74561e-06
-1.46205e-05
-2.57758e-08
2.92655e-06
-1.45609e-05
-5.02398e-08
2.9243e-06
-1.45417e-05
-2.40015e-08
2.95405e-06
-1.44742e-05
1.45327e-08
2.83165e-06
-1.44571e-05
1.61391e-08
2.67552e-06
-1.44963e-05
-8.17245e-08
2.93861e-06
-1.43767e-05
-2.32173e-07
3.37064e-06
-1.41739e-05
-2.84067e-07
3.25237e-06
-1.42549e-05
-2.08724e-07
2.75267e-06
-1.45452e-05
-8.14105e-08
2.30858e-06
-1.47948e-05
2.15937e-06
-1.49246e-05
2.86318e-08
2.96147e-06
-1.54425e-05
-3.4238e-08
3.1648e-06
-1.53786e-05
-6.62965e-08
3.16028e-06
-1.53642e-05
-3.71411e-08
3.18696e-06
-1.53049e-05
9.41919e-09
3.05514e-06
-1.52883e-05
1.60581e-08
2.89213e-06
-1.53204e-05
-8.47305e-08
3.19709e-06
-1.51847e-05
-2.36343e-07
3.66763e-06
-1.49725e-05
-2.79744e-07
3.50688e-06
-1.50692e-05
-1.98184e-07
2.93636e-06
-1.53783e-05
-7.26911e-08
2.44959e-06
-1.56334e-05
2.30837e-06
-1.57522e-05
3.24803e-08
3.18003e-06
-1.62642e-05
-4.35215e-08
3.40877e-06
-1.61959e-05
-8.39829e-08
3.40105e-06
-1.61872e-05
-5.23704e-08
3.42136e-06
-1.61378e-05
2.57019e-09
3.27857e-06
-1.61224e-05
1.5292e-08
3.11035e-06
-1.61471e-05
-8.70895e-08
3.46324e-06
-1.59957e-05
-2.37843e-07
3.97157e-06
-1.57753e-05
-2.70904e-07
3.75925e-06
-1.58876e-05
-1.83415e-07
3.11295e-06
-1.62119e-05
-6.1543e-08
2.58481e-06
-1.64691e-05
2.45807e-06
-1.65763e-05
3.61422e-08
3.40004e-06
-1.70832e-05
-5.35544e-08
3.6577e-06
-1.70107e-05
-1.03088e-07
3.64559e-06
-1.70086e-05
-6.96379e-08
3.6555e-06
-1.69703e-05
-6.1657e-09
3.49972e-06
-1.69569e-05
1.36623e-08
3.32811e-06
-1.6974e-05
-8.88163e-08
3.73554e-06
-1.68076e-05
-2.36505e-07
4.28037e-06
-1.65808e-05
-2.57433e-07
4.00665e-06
-1.67078e-05
-1.64418e-07
3.28032e-06
-1.70431e-05
-4.79351e-08
2.71319e-06
-1.7299e-05
2.60808e-06
-1.73943e-05
3.93578e-08
3.62017e-06
-1.78971e-05
-6.42391e-08
3.91066e-06
-1.78207e-05
-1.23327e-07
3.89275e-06
-1.78258e-05
-8.87995e-08
3.88751e-06
-1.77997e-05
-1.68403e-08
3.71615e-06
-1.77888e-05
1.10005e-08
3.54305e-06
-1.77984e-05
-8.99678e-08
4.01217e-06
-1.76186e-05
-2.32262e-07
4.59155e-06
-1.7387e-05
-2.39384e-07
4.246e-06
-1.75275e-05
-1.41344e-07
3.43641e-06
-1.78692e-05
-3.19129e-08
2.83379e-06
-1.81201e-05
2.75798e-06
-1.82036e-05
4.18534e-08
3.83895e-06
-1.87033e-05
-7.54526e-08
4.16653e-06
-1.86238e-05
-1.44352e-07
4.14122e-06
-1.86365e-05
-1.09614e-07
4.11539e-06
-1.86231e-05
-2.94691e-08
3.92524e-06
-1.86153e-05
7.15982e-09
3.75258e-06
-1.86177e-05
-9.06435e-08
4.29096e-06
-1.84264e-05
-2.25163e-07
4.90228e-06
-1.8192e-05
-2.16988e-07
4.47405e-06
-1.83443e-05
-1.14502e-07
3.5792e-06
-1.86872e-05
-1.3603e-08
2.94582e-06
-1.89297e-05
2.90742e-06
-1.90017e-05
4.33588e-08
4.05488e-06
-1.94995e-05
-8.70485e-08
4.42404e-06
-1.94179e-05
-1.65756e-07
4.38956e-06
-1.94384e-05
-1.31746e-07
4.33712e-06
-1.94375e-05
-4.39421e-08
4.12429e-06
-1.94332e-05
2.02584e-09
3.95393e-06
-1.9429e-05
-9.09812e-08
4.56945e-06
-1.92288e-05
-2.15375e-07
5.20941e-06
-1.89937e-05
-1.90657e-07
4.68745e-06
-1.91554e-05
-8.43491e-08
3.70686e-06
-1.94944e-05
6.78551e-09
3.04865e-06
-1.97252e-05
3.05607e-06
-1.97864e-05
4.36273e-08
4.26641e-06
-2.02834e-05
-9.886e-08
4.68174e-06
-2.02011e-05
-1.87097e-07
4.63621e-06
-2.02292e-05
-1.54773e-07
4.55064e-06
-2.02404e-05
-6.00653e-08
4.3106e-06
-2.02397e-05
-4.56513e-09
4.14435e-06
-2.02297e-05
-9.11494e-08
4.84485e-06
-2.00234e-05
-2.0318e-07
5.5095e-06
-1.97898e-05
-1.60964e-07
4.88282e-06
-1.99583e-05
-5.1474e-08
3.81771e-06
-2.02882e-05
2.89767e-08
3.14186e-06
-2.05044e-05
3.20365e-06
-2.05557e-05
4.24539e-08
4.472e-06
-2.10532e-05
-1.10705e-07
4.93799e-06
-2.09717e-05
-2.07913e-07
4.8795e-06
-2.10071e-05
-1.78202e-07
4.75398e-06
-2.10291e-05
-7.75502e-08
4.48154e-06
-2.1032e-05
-1.23393e-08
4.32082e-06
-2.10171e-05
-9.13367e-08
5.11445e-06
-2.08082e-05
-1.88963e-07
5.7989e-06
-2.05781e-05
-1.28626e-07
5.0568e-06
-2.07504e-05
-1.65701e-08
3.91034e-06
-2.10664e-05
5.26188e-08
3.22518e-06
-2.12655e-05
3.34991e-06
-2.1308e-05
3.96908e-08
4.67015e-06
-2.18071e-05
-1.2239e-07
5.19102e-06
-2.17284e-05
-2.27742e-07
5.11768e-06
-2.17702e-05
-2.01491e-07
4.94527e-06
-2.18014e-05
-9.60282e-08
4.63468e-06
-2.18077e-05
-2.15444e-08
4.48072e-06
-2.17889e-05
-9.17388e-08
5.37513e-06
-2.15808e-05
-1.73193e-07
6.07381e-06
-2.13563e-05
-9.44601e-08
5.20617e-06
-2.15291e-05
1.95979e-08
3.98354e-06
-2.18271e-05
7.73114e-08
3.2985e-06
-2.20073e-05
3.49462e-06
-2.20422e-05
3.52592e-08
4.85944e-06
-2.25439e-05
-1.3372e-07
5.43891e-06
-2.24699e-05
-2.46144e-07
5.34893e-06
-2.25171e-05
-2.24075e-07
5.12281e-06
-2.25555e-05
-1.15067e-07
4.76788e-06
-2.25645e-05
-3.19808e-08
4.62158e-06
-2.25429e-05
-9.25426e-08
5.62387e-06
-2.23395e-05
-1.56392e-07
6.33038e-06
-2.21222e-05
-5.93496e-08
5.32794e-06
-2.22922e-05
5.62307e-08
4.03639e-06
-2.25686e-05
1.02618e-07
3.36182e-06
-2.27288e-05
3.63757e-06
-2.27574e-05
2.91561e-08
5.03856e-06
-2.32625e-05
-1.44501e-07
5.67964e-06
-2.31953e-05
-2.62722e-07
5.57143e-06
-2.32469e-05
-2.45391e-07
5.28514e-06
-2.32901e-05
-1.3419e-07
4.87943e-06
-2.3301e-05
-4.35262e-08
4.74134e-06
-2.32776e-05
-9.39103e-08
5.85766e-06
-2.30824e-05
-1.39106e-07
6.56481e-06
-2.2874e-05
-2.41925e-08
5.41941e-06
-2.30378e-05
9.25323e-08
4.06821e-06
-2.329e-05
1.2808e-07
3.41524e-06
-2.34298e-05
3.77858e-06
-2.34534e-05
2.14545e-08
5.20637e-06
-2.39624e-05
-1.54553e-07
5.91113e-06
-2.39041e-05
-2.77138e-07
5.78339e-06
-2.39586e-05
-2.64909e-07
5.43109e-06
-2.40041e-05
-1.52904e-07
4.96808e-06
-2.4016e-05
-5.59711e-08
4.83839e-06
-2.39917e-05
-9.59633e-08
6.07368e-06
-2.38081e-05
-1.21868e-07
6.7735e-06
-2.36099e-05
1.01407e-08
5.47833e-06
-2.37641e-05
1.27745e-07
4.07856e-06
-2.39906e-05
1.53234e-07
3.45887e-06
-2.41103e-05
3.91745e-06
-2.41301e-05
1.22991e-08
5.36189e-06
-2.46436e-05
-1.63711e-07
6.1313e-06
-2.4596e-05
-2.89124e-07
5.9831e-06
-2.46521e-05
-2.82155e-07
5.55979e-06
-2.46973e-05
-1.70722e-07
5.03313e-06
-2.47091e-05
-6.90716e-08
4.9117e-06
-2.46847e-05
-9.87681e-08
6.26938e-06
-2.45157e-05
-1.05169e-07
6.95312e-06
-2.43284e-05
4.28606e-08
5.50291e-06
-2.44702e-05
1.61178e-07
4.06726e-06
-2.46705e-05
1.77626e-07
3.49287e-06
-2.4771e-05
4.05403e-06
-2.47881e-05
1.89604e-09
5.50435e-06
-2.53063e-05
-1.71835e-07
6.33815e-06
-2.5271e-05
-2.98497e-07
6.16897e-06
-2.53274e-05
-2.96737e-07
5.67071e-06
-2.53699e-05
-1.87183e-07
5.07446e-06
-2.53804e-05
-8.25473e-08
4.96087e-06
-2.53566e-05
-1.02324e-07
6.44256e-06
-2.52047e-05
-8.94211e-08
7.10077e-06
-2.50287e-05
7.32746e-08
5.49197e-06
-2.51555e-05
1.92226e-07
4.03437e-06
-2.53301e-05
2.00817e-07
3.51741e-06
-2.5413e-05
4.18813e-06
-2.54283e-05
-9.49935e-09
5.63318e-06
-2.59513e-05
-1.78813e-07
6.52979e-06
-2.59295e-05
-3.05157e-07
6.33961e-06
-2.59849e-05
-3.08354e-07
5.76365e-06
-2.60226e-05
-2.0188e-07
5.09253e-06
-2.60306e-05
-9.60885e-08
4.98611e-06
-2.60078e-05
-1.06555e-07
6.59146e-06
-2.58749e-05
-7.49381e-08
7.21407e-06
-2.57101e-05
1.00825e-07
5.44498e-06
-2.582e-05
2.20386e-07
3.98017e-06
-2.59702e-05
2.22395e-07
3.53263e-06
-2.60374e-05
4.31961e-06
-2.60519e-05
-2.15769e-08
5.74801e-06
-2.65796e-05
-1.84565e-07
6.70456e-06
-2.65721e-05
-3.09089e-07
6.49385e-06
-2.66255e-05
-3.16815e-07
5.83872e-06
-2.66565e-05
-2.14465e-07
5.08835e-06
-2.6661e-05
-1.09363e-07
4.98831e-06
-2.66396e-05
-1.11306e-07
6.71481e-06
-2.65267e-05
-6.1917e-08
7.29126e-06
-2.63727e-05
1.25104e-07
5.36209e-06
-2.64642e-05
2.45263e-07
3.90516e-06
-2.65921e-05
2.41981e-07
3.53872e-06
-2.66461e-05
4.44834e-06
-2.66605e-05
-3.40361e-08
5.84886e-06
-2.71926e-05
-1.89046e-07
6.86114e-06
-2.71999e-05
-3.10364e-07
6.63097e-06
-2.72505e-05
-3.22044e-07
5.89654e-06
-2.72735e-05
-2.24674e-07
5.06352e-06
-2.72735e-05
-1.22026e-07
4.96897e-06
-2.72535e-05
-1.16342e-07
6.81187e-06
-2.71609e-05
-5.04309e-08
7.3313e-06
-2.70169e-05
1.45858e-07
5.24434e-06
-2.70894e-05
2.66568e-07
3.81031e-06
-2.71978e-05
2.59233e-07
3.53607e-06
-2.72411e-05
4.57435e-06
-2.72559e-05
-4.65617e-08
5.93607e-06
-2.77924e-05
-1.92251e-07
6.99863e-06
-2.78143e-05
-3.09136e-07
6.75065e-06
-2.78614e-05
-3.24083e-07
5.93818e-06
-2.78755e-05
-2.3233e-07
5.02029e-06
-2.78705e-05
-1.33731e-07
4.93035e-06
-2.78518e-05
-1.2136e-07
6.88262e-06
-2.77792e-05
-4.0433e-08
7.3341e-06
-2.7644e-05
1.62984e-07
5.09374e-06
-2.76974e-05
2.84123e-07
3.69706e-06
-2.77894e-05
2.7388e-07
3.52531e-06
-2.78247e-05
4.69769e-06
-2.78406e-05
-5.8871e-08
6.01005e-06
-2.8381e-05
-1.94202e-07
7.11638e-06
-2.8417e-05
-3.05615e-07
6.85278e-06
-2.84602e-05
-3.23089e-07
5.96485e-06
-2.8465e-05
-2.37358e-07
4.96116e-06
-2.84544e-05
-1.44148e-07
4.87501e-06
-2.84371e-05
-1.26004e-07
6.92765e-06
-2.83834e-05
-3.17691e-08
7.30056e-06
-2.82556e-05
1.76536e-07
4.91314e-06
-2.82904e-05
2.97897e-07
3.56708e-06
-2.83692e-05
2.8574e-07
3.5069e-06
-2.83992e-05
4.81828e-06
-2.84167e-05
-7.07097e-08
6.07122e-06
-2.89605e-05
-1.94948e-07
7.21401e-06
-2.90097e-05
-3.00044e-07
6.93745e-06
-2.9049e-05
-3.19294e-07
5.97782e-06
-2.90446e-05
-2.39761e-07
4.88865e-06
-2.90284e-05
-1.52972e-07
4.80555e-06
-2.90122e-05
-1.29888e-07
6.94783e-06
-2.89758e-05
-2.41785e-08
7.2322e-06
-2.88539e-05
1.86736e-07
4.70587e-06
-2.88713e-05
3.07983e-07
3.42214e-06
-2.89399e-05
2.94671e-07
3.48131e-06
-2.89671e-05
4.93598e-06
-2.89864e-05
-8.18548e-08
6.12018e-06
-2.95333e-05
-1.94569e-07
7.29156e-06
-2.95944e-05
-2.92707e-07
7.00505e-06
-2.96299e-05
-3.12994e-07
5.97848e-06
-2.96169e-05
-2.39616e-07
4.80532e-06
-2.95952e-05
-1.59928e-07
4.72467e-06
-2.95799e-05
-1.32605e-07
6.94438e-06
-2.95587e-05
-1.73287e-08
7.13113e-06
-2.94412e-05
1.93891e-07
4.47573e-06
-2.9443e-05
3.1453e-07
3.26416e-06
-2.95044e-05
3.00591e-07
3.44909e-06
-2.95308e-05
5.05068e-06
-2.95522e-05
-9.21425e-08
6.15759e-06
-3.01016e-05
-1.93171e-07
7.34942e-06
-3.0173e-05
-2.83912e-07
7.05624e-06
-3.02052e-05
-3.04539e-07
5.9683e-06
-3.01845e-05
-2.37067e-07
4.7137e-06
-3.01576e-05
-1.64785e-07
4.63498e-06
-3.01429e-05
-1.33763e-07
6.91878e-06
-3.01345e-05
-1.08556e-08
7.00011e-06
-3.00202e-05
1.98378e-07
4.22693e-06
-3.00083e-05
3.17758e-07
3.09528e-06
-3.00651e-05
3.03495e-07
3.41091e-06
-3.00926e-05
5.16225e-06
-3.01161e-05
-1.01472e-07
6.18415e-06
-3.06677e-05
-1.90876e-07
7.38826e-06
-3.07478e-05
-2.7396e-07
7.09189e-06
-3.07772e-05
-2.94294e-07
5.94873e-06
-3.07498e-05
-2.32308e-07
4.61612e-06
-3.07182e-05
-1.67376e-07
4.53886e-06
-3.0704e-05
-1.33021e-07
6.87279e-06
-3.0706e-05
-4.39259e-09
6.84239e-06
-3.05936e-05
2.0062e-07
3.96389e-06
-3.05703e-05
3.1794e-07
2.91769e-06
-3.06246e-05
3.03451e-07
3.36751e-06
-3.06545e-05
5.27057e-06
-3.06803e-05
-1.098e-07
6.20053e-06
-3.12338e-05
-1.87815e-07
7.40897e-06
-3.13209e-05
-2.6313e-07
7.11298e-06
-3.1348e-05
-2.82609e-07
5.92114e-06
-3.13153e-05
-2.25558e-07
4.51464e-06
-3.12796e-05
-1.67599e-07
4.43837e-06
-3.12655e-05
-1.3011e-07
6.80819e-06
-3.12756e-05
2.39955e-09
6.66153e-06
-3.11641e-05
2.01049e-07
3.69105e-06
-3.11317e-05
3.15385e-07
2.73362e-06
-3.11852e-05
3.00585e-07
3.3197e-06
-3.12186e-05
5.37546e-06
-3.12467e-05
-1.17136e-07
6.20731e-06
-3.18018e-05
-1.84117e-07
7.41253e-06
-3.18944e-05
-2.51665e-07
7.12053e-06
-3.19199e-05
-2.69797e-07
5.88671e-06
-3.1883e-05
-2.17036e-07
4.41095e-06
-3.18437e-05
-1.65417e-07
4.33514e-06
-3.18296e-05
-1.24848e-07
6.72674e-06
-3.18457e-05
9.8127e-09
6.46115e-06
-3.17343e-05
2.00075e-07
3.41261e-06
-3.1695e-05
3.10402e-07
2.54525e-06
-3.17487e-05
2.9507e-07
3.26828e-06
-3.17866e-05
5.47671e-06
-3.18171e-05
-1.23531e-07
6.20499e-06
-3.23735e-05
-1.79903e-07
7.39995e-06
-3.24701e-05
-2.39759e-07
7.11552e-06
-3.24946e-05
-2.56104e-07
5.84644e-06
-3.24547e-05
-2.06933e-07
4.3064e-06
-3.24124e-05
-1.60848e-07
4.23042e-06
-3.23981e-05
-1.17142e-07
6.63007e-06
-3.24182e-05
1.80718e-08
6.24482e-06
-3.23065e-05
1.98058e-07
3.13249e-06
-3.22622e-05
3.03283e-07
2.35467e-06
-3.23169e-05
2.87101e-07
3.21407e-06
-3.23598e-05
5.57403e-06
-3.23927e-05
-1.29056e-07
6.19395e-06
-3.29502e-05
-1.75273e-07
7.37221e-06
-3.30496e-05
-2.27549e-07
7.09888e-06
-3.30739e-05
-2.41698e-07
5.80106e-06
-3.30318e-05
-1.95375e-07
4.20194e-06
-3.2987e-05
-1.53927e-07
4.12512e-06
-3.29724e-05
-1.06979e-07
6.51968e-06
-3.29952e-05
2.7333e-08
6.01587e-06
-3.28828e-05
1.95288e-07
2.85423e-06
-3.28352e-05
2.94274e-07
2.1638e-06
-3.2891e-05
2.76871e-07
3.15784e-06
-3.29394e-05
5.66709e-06
-3.2975e-05
-1.33793e-07
6.17445e-06
-3.35333e-05
-1.70305e-07
7.33019e-06
-3.36345e-05
-2.15115e-07
7.07135e-06
-3.3659e-05
-2.26656e-07
5.75106e-06
-3.36155e-05
-1.82384e-07
4.09812e-06
-3.35687e-05
-1.44664e-07
4.01982e-06
-3.35536e-05
-9.43856e-08
6.39702e-06
-3.35782e-05
3.76794e-08
5.77745e-06
-3.34649e-05
1.91953e-07
2.58083e-06
-3.3415e-05
2.83555e-07
1.97444e-06
-3.34723e-05
2.6456e-07
3.10027e-06
-3.35265e-05
5.75546e-06
-3.35647e-05
-1.37804e-07
6.14665e-06
-3.41236e-05
-1.65043e-07
7.27466e-06
-3.42258e-05
-2.02482e-07
7.03355e-06
-3.42511e-05
-2.10962e-07
5.69659e-06
-3.42066e-05
-1.67851e-07
3.9948e-06
-3.41577e-05
-1.32977e-07
3.91448e-06
-3.41421e-05
-7.93699e-08
6.26333e-06
-3.41682e-05
4.91521e-08
5.53219e-06
-3.4054e-05
1.88139e-07
2.31458e-06
-3.40023e-05
2.71232e-07
1.78805e-06
-3.40612e-05
2.50312e-07
3.04191e-06
-3.41217e-05
5.83862e-06
-3.41627e-05
-1.41113e-07
6.11052e-06
-3.47218e-05
-1.59501e-07
7.20629e-06
-3.48244e-05
-1.8963e-07
6.98588e-06
-3.48509e-05
-1.94562e-07
5.63748e-06
-3.48058e-05
-1.5166e-07
3.89097e-06
-3.47543e-05
-1.18726e-07
3.80823e-06
-3.4738e-05
-6.18533e-08
6.11931e-06
-3.47657e-05
6.18054e-08
5.28212e-06
-3.46506e-05
1.83886e-07
2.05741e-06
-3.45978e-05
2.5734e-07
1.60557e-06
-3.4658e-05
2.34239e-07
2.98319e-06
-3.47256e-05
5.91596e-06
-3.47697e-05
-1.43701e-07
6.06545e-06
-3.5328e-05
-1.5366e-07
7.12529e-06
-3.54308e-05
-1.76521e-07
6.92842e-06
-3.5459e-05
-1.77473e-07
5.57296e-06
-3.54131e-05
-1.33889e-07
3.78544e-06
-3.53587e-05
-1.01852e-07
3.69965e-06
-3.53417e-05
-4.17287e-08
5.96501e-06
-3.5371e-05
7.56988e-08
5.02903e-06
-3.52554e-05
1.79257e-07
1.8111e-06
-3.5202e-05
2.41929e-07
1.4276e-06
-3.52628e-05
2.16425e-07
2.92446e-06
-3.53387e-05
5.98676e-06
-3.53861e-05
-1.45596e-07
6.01024e-06
-3.5942e-05
-1.47514e-07
7.03101e-06
-3.60446e-05
-1.63164e-07
6.86052e-06
-3.60753e-05
-1.59712e-07
5.50215e-06
-3.60285e-05
-1.14501e-07
3.67734e-06
-3.59714e-05
-8.22654e-08
3.58738e-06
-3.59535e-05
-1.89626e-08
5.80027e-06
-3.59844e-05
9.08659e-08
4.77459e-06
-3.5869e-05
1.74285e-07
1.57741e-06
-3.58156e-05
2.25031e-07
1.25469e-06
-3.5876e-05
1.96933e-07
2.866e-06
-3.59614e-05
6.05022e-06
-3.60124e-05
-1.46578e-07
5.9439e-06
-3.65643e-05
-1.40837e-07
6.92281e-06
-3.66657e-05
-1.49382e-07
6.78151e-06
-3.66995e-05
-1.40931e-07
5.42449e-06
-3.66522e-05
-9.27263e-08
3.56567e-06
-3.65925e-05
-5.95431e-08
3.47095e-06
-3.65738e-05
6.30601e-09
5.62528e-06
-3.66064e-05
1.07294e-07
4.52033e-06
-3.64923e-05
1.68868e-07
1.35822e-06
-3.64391e-05
2.06516e-07
1.08753e-06
-3.6498e-05
1.75816e-07
2.80777e-06
-3.65938e-05
6.10549e-06
-3.6649e-05
-1.46303e-07
5.866e-06
-3.71951e-05
-1.33407e-07
6.80097e-06
-3.7294e-05
-1.35003e-07
6.69134e-06
-3.73316e-05
-1.20936e-07
5.33942e-06
-3.72846e-05
-6.81284e-08
3.44923e-06
-3.72227e-05
-3.30804e-08
3.35007e-06
-3.7203e-05
3.43653e-08
5.44063e-06
-3.72374e-05
1.24923e-07
4.26812e-06
-3.71256e-05
1.62938e-07
1.15542e-06
-3.70731e-05
1.86278e-07
9.26982e-07
-3.71291e-05
1.53118e-07
2.74926e-06
-3.72359e-05
6.15158e-06
-3.7296e-05
-1.44835e-07
5.77639e-06
-3.78352e-05
-1.25406e-07
6.6661e-06
-3.79303e-05
-1.20259e-07
6.5901e-06
-3.79723e-05
-1.00153e-07
5.24636e-06
-3.79261e-05
-4.14051e-08
3.32697e-06
-3.78626e-05
-2.7782e-09
3.22375e-06
-3.78418e-05
6.56395e-08
5.24701e-06
-3.78776e-05
1.43649e-07
4.02045e-06
-3.77695e-05
1.56583e-07
9.70767e-07
-3.77179e-05
1.64441e-07
7.74189e-07
-3.77699e-05
1.28915e-07
2.68984e-06
-3.78879e-05
6.18739e-06
-3.79538e-05
-1.42375e-07
5.67498e-06
-3.84854e-05
-1.17117e-07
6.51878e-06
-3.85757e-05
-1.05498e-07
6.47775e-06
-3.86221e-05
-7.90201e-08
5.14458e-06
-3.85775e-05
-1.32925e-08
3.19784e-06
-3.85132e-05
3.0782e-08
3.09078e-06
-3.84912e-05
9.98087e-08
5.04531e-06
-3.85277e-05
1.63237e-07
3.77978e-06
-3.84244e-05
1.49921e-07
8.05656e-07
-3.83738e-05
1.41153e-07
6.30573e-07
-3.8421e-05
1.03236e-07
2.62911e-06
-3.855e-05
6.21172e-06
-3.86225e-05
-1.39112e-07
5.56163e-06
-3.91466e-05
-1.08768e-07
6.35948e-06
-3.92309e-05
-9.09884e-08
6.35408e-06
-3.92819e-05
-5.78542e-08
5.03313e-06
-3.92396e-05
1.56154e-08
3.06075e-06
-3.91751e-05
6.6804e-08
2.94995e-06
-3.91518e-05
1.36163e-07
4.8365e-06
-3.91882e-05
1.83277e-07
3.54834e-06
-3.90909e-05
1.43037e-07
6.60974e-07
-3.90412e-05
1.16613e-07
4.97601e-07
-3.9083e-05
7.6155e-08
2.56706e-06
-3.92222e-05
6.22326e-06
-3.93024e-05
-1.35198e-07
5.43621e-06
-3.98193e-05
-1.00515e-07
6.18861e-06
-3.98968e-05
-7.69232e-08
6.2187e-06
-3.99521e-05
-3.68864e-08
4.91098e-06
-3.99129e-05
4.48369e-08
2.91468e-06
-3.9849e-05
1.04365e-07
2.80031e-06
-3.98245e-05
1.73769e-07
4.62159e-06
-3.98599e-05
2.03272e-07
3.32795e-06
-3.97693e-05
1.35952e-07
5.37057e-07
-3.97203e-05
9.11656e-08
3.76444e-07
-3.97564e-05
4.79236e-08
2.5039e-06
-3.99052e-05
6.2208e-06
-3.99939e-05
-1.30741e-07
5.29865e-06
-4.05042e-05
-9.24676e-08
6.00652e-06
-4.0574e-05
-6.34513e-08
6.07117e-06
-4.06333e-05
-1.6298e-08
4.77705e-06
-4.05979e-05
7.39536e-08
2.75873e-06
-4.05354e-05
1.42482e-07
2.64126e-06
-4.05099e-05
2.11576e-07
4.40165e-06
-4.05437e-05
2.22669e-07
3.11998e-06
-4.04602e-05
1.28619e-07
4.33729e-07
-4.04114e-05
6.51529e-08
2.67858e-07
-4.04418e-05
1.88498e-08
2.43986e-06
-4.05993e-05
6.20321e-06
-4.06971e-05
-1.25814e-07
5.14887e-06
-4.1202e-05
-8.46943e-08
5.81359e-06
-4.12634e-05
-5.07016e-08
5.91105e-06
-4.1326e-05
3.75577e-09
4.63028e-06
-4.12952e-05
1.02573e-07
2.59219e-06
-4.1235e-05
1.80128e-07
2.47275e-06
-4.12086e-05
2.48472e-07
4.17777e-06
-4.12402e-05
2.40887e-07
2.92522e-06
-4.1164e-05
1.2094e-07
3.50397e-07
-4.11147e-05
3.88897e-08
1.72142e-07
-4.11395e-05
-1.07272e-08
2.37506e-06
-4.13048e-05
6.16949e-06
-4.14124e-05
-1.20456e-07
4.98688e-06
-4.1913e-05
-7.72441e-08
5.61031e-06
-4.19656e-05
-3.87974e-08
5.73795e-06
-4.20307e-05
2.31252e-08
4.46969e-06
-4.20051e-05
1.30309e-07
2.41466e-06
-4.19482e-05
2.16264e-07
2.29533e-06
-4.19215e-05
2.83343e-07
3.95107e-06
-4.19502e-05
2.57347e-07
2.74395e-06
-4.1881e-05
1.12784e-07
2.86089e-07
-4.18307e-05
1.26746e-08
8.91457e-08
-4.18501e-05
-4.04514e-08
2.3095e-06
-4.20221e-05
6.11873e-06
-4.21399e-05
-1.14686e-07
4.81272e-06
-4.2638e-05
-7.01538e-08
5.39728e-06
-4.26814e-05
-2.78638e-08
5.55169e-06
-4.27479e-05
4.16518e-08
4.29442e-06
-4.27283e-05
1.56773e-07
2.22604e-06
-4.26756e-05
2.49872e-07
2.11015e-06
-4.26492e-05
3.15125e-07
3.72267e-06
-4.26744e-05
2.71488e-07
2.57591e-06
-4.26118e-05
1.0401e-07
2.39479e-07
-4.25596e-05
-1.3194e-08
1.82872e-08
-4.25738e-05
-6.99379e-08
2.24309e-06
-4.27513e-05
6.0501e-06
-4.28798e-05
-1.08501e-07
4.62651e-06
-4.33772e-05
-6.34544e-08
5.17534e-06
-4.34115e-05
-1.80309e-08
5.35227e-06
-4.34783e-05
5.91609e-08
4.10379e-06
-4.34652e-05
1.81572e-07
2.02656e-06
-4.34177e-05
2.80022e-07
1.91894e-06
-4.33922e-05
3.42869e-07
3.49373e-06
-4.34137e-05
2.82786e-07
2.4204e-06
-4.33566e-05
9.44784e-08
2.08931e-07
-4.3302e-05
-3.84096e-08
-4.14149e-08
-4.33114e-05
-9.87696e-08
2.17558e-06
-4.34928e-05
5.96281e-06
-4.36324e-05
-1.01884e-07
4.42843e-06
-4.41312e-05
-5.7171e-08
4.94554e-06
-4.41568e-05
-9.4321e-09
5.14003e-06
-4.42225e-05
7.54503e-08
3.8973e-06
-4.42164e-05
2.0433e-07
1.81671e-06
-4.41748e-05
3.05953e-07
1.72372e-06
-4.4151e-05
3.65785e-07
3.26545e-06
-4.41686e-05
2.90764e-07
2.2764e-06
-4.41157e-05
8.40606e-08
1.92533e-07
-4.40584e-05
-6.26574e-08
-9.13218e-08
-4.40631e-05
-1.26417e-07
2.10655e-06
-4.42467e-05
5.85611e-06
-4.43976e-05
-9.48186e-08
4.21877e-06
-4.49005e-05
-5.13225e-08
4.70915e-06
-4.49179e-05
-2.19888e-09
4.9157e-06
-4.49813e-05
9.02857e-08
3.67472e-06
-4.49822e-05
2.24655e-07
1.59719e-06
-4.49475e-05
3.27115e-07
1.52632e-06
-4.49256e-05
3.83271e-07
3.03907e-06
-4.49396e-05
2.94969e-07
2.14272e-06
-4.48896e-05
7.26469e-08
1.88093e-07
-4.48293e-05
-8.5636e-08
-1.33134e-07
-4.48295e-05
-1.52245e-07
2.03529e-06
-4.50135e-05
5.72931e-06
-4.51753e-05
-8.72902e-08
3.99787e-06
-4.56854e-05
-4.59185e-08
4.46764e-06
-4.56955e-05
3.54904e-09
4.68039e-06
-4.57554e-05
1.034e-07
3.43608e-06
-4.57632e-05
2.42274e-07
1.36859e-06
-4.57357e-05
3.43302e-07
1.32832e-06
-4.5716e-05
3.94928e-07
2.81575e-06
-4.5727e-05
2.94989e-07
2.0181e-06
-4.56785e-05
6.01659e-08
1.93106e-07
-4.56151e-05
-1.07065e-07
-1.68844e-07
-4.56112e-05
-1.75658e-07
1.96078e-06