/*--------------------------------*- C++ -*----------------------------------*\
| =========                 |                                                 |
| \\      /  F ield         | OpenFOAM: The Open Source CFD Toolbox           |
|  \\    /   O peration     | Version:  v1912                                 |
|   \\  /    A nd           | Website:  www.openfoam.com                      |
|    \\/     M anipulation  |                                                 |
\*---------------------------------------------------------------------------*/
FoamFile
{
    version     2.0;
    format      ascii;
    class       volVectorField;
    location    "10.4";
    object      UMean;
}
// * * * * * * * * * * * * * * * * * * * * * * * * * * * * * * * * * * * * * //

dimensions      [0 1 -1 0 0 0 0];


internalField   nonuniform List<vector> 
34128
(
(5.46804e-07 -2.76647e-07 -0.00484862)
(9.86214e-07 -2.73814e-07 -0.00483881)
(4.27017e-07 -2.67989e-07 -0.00481951)
(-1.09257e-06 -2.67288e-07 -0.00482345)
(-1.60529e-06 -2.73367e-07 -0.00484835)
(-8.67431e-07 -2.78681e-07 -0.00485856)
(9.39769e-08 -2.79374e-07 -0.00485915)
(9.72051e-07 -2.71848e-07 -0.00484089)
(-1.72562e-07 -2.6526e-07 -0.00481393)
(-1.90903e-06 -2.69823e-07 -0.00482909)
(-1.4914e-06 -2.78076e-07 -0.0048562)
(-6.16921e-07 -2.78343e-07 -0.0048611)
(1.55746e-06 4.65688e-06 -0.0145581)
(2.82436e-06 4.70112e-06 -0.0145296)
(1.21922e-06 4.77252e-06 -0.0144735)
(-3.1751e-06 4.77502e-06 -0.014485)
(-4.64325e-06 4.69864e-06 -0.0145574)
(-2.5275e-06 4.63608e-06 -0.0145871)
(1.95683e-07 4.63131e-06 -0.0145889)
(2.77459e-06 4.71855e-06 -0.0145359)
(-5.0553e-07 4.8029e-06 -0.0144576)
(-5.4965e-06 4.73946e-06 -0.0145014)
(-4.26982e-06 4.63934e-06 -0.0145799)
(-1.7876e-06 4.63114e-06 -0.0145944)
(2.52461e-06 1.06581e-05 -0.0243785)
(4.57729e-06 1.07844e-05 -0.0243324)
(1.9885e-06 1.09877e-05 -0.0242413)
(-5.14838e-06 1.09918e-05 -0.0242599)
(-7.51551e-06 1.07726e-05 -0.0243778)
(-4.10923e-06 1.05975e-05 -0.0244259)
(2.26857e-07 1.05833e-05 -0.024429)
(4.45767e-06 1.0825e-05 -0.024343)
(-8.39134e-07 1.10664e-05 -0.0242158)
(-8.90878e-06 1.08879e-05 -0.0242866)
(-6.88846e-06 1.06104e-05 -0.0244137)
(-2.91711e-06 1.0584e-05 -0.0244375)
(3.44307e-06 2.24864e-05 -0.0342716)
(6.24e-06 2.27347e-05 -0.0342089)
(2.72907e-06 2.31376e-05 -0.0340849)
(-7.01944e-06 2.31444e-05 -0.0341102)
(-1.02295e-05 2.27106e-05 -0.0342709)
(-5.61864e-06 2.23668e-05 -0.0343363)
(1.83693e-07 2.23374e-05 -0.0343408)
(6.01459e-06 2.28117e-05 -0.034224)
(-1.18764e-06 2.32921e-05 -0.0340509)
(-1.2165e-05 2.2936e-05 -0.0341467)
(-9.35712e-06 2.23894e-05 -0.0343191)
(-4.00606e-06 2.23359e-05 -0.0343519)
(4.31124e-06 3.64189e-05 -0.0441917)
(7.8114e-06 3.68259e-05 -0.0441137)
(3.43844e-06 3.74964e-05 -0.0439593)
(-8.79241e-06 3.75062e-05 -0.0439908)
(-1.27904e-05 3.67848e-05 -0.0441914)
(-7.06115e-06 3.6219e-05 -0.0442728)
(6.24604e-08 3.61673e-05 -0.0442787)
(7.43839e-06 3.69476e-05 -0.0441336)
(-1.56376e-06 3.77494e-05 -0.043918)
(-1.5281e-05 3.71566e-05 -0.0440364)
(-1.16833e-05 3.62558e-05 -0.0442504)
(-5.05348e-06 3.61645e-05 -0.044292)
(5.13017e-06 5.40426e-05 -0.0540913)
(9.29331e-06 5.4643e-05 -0.0539994)
(4.11618e-06 5.56479e-05 -0.0538171)
(-1.04696e-05 5.56606e-05 -0.0538544)
(-1.52024e-05 5.45799e-05 -0.0540916)
(-8.44166e-06 5.37415e-05 -0.0541874)
(-1.40197e-07 5.36596e-05 -0.0541948)
(8.7222e-06 5.48163e-05 -0.0540242)
(-1.97873e-06 5.6021e-05 -0.0537698)
(-1.82702e-05 5.51333e-05 -0.0539084)
(-1.38731e-05 5.37945e-05 -0.0541599)
(-6.05815e-06 5.36556e-05 -0.0542099)
(5.90021e-06 7.47281e-05 -0.0639235)
(1.06871e-05 7.55544e-05 -0.0638189)
(4.76069e-06 7.69607e-05 -0.0636117)
(-1.20546e-05 7.69756e-05 -0.0636543)
(-1.74709e-05 7.54634e-05 -0.0639245)
(-9.76661e-06 7.43039e-05 -0.0640331)
(-4.28614e-07 7.41827e-05 -0.0640422)
(9.85874e-06 7.57834e-05 -0.0638489)
(-2.44278e-06 7.74734e-05 -0.0635597)
(-2.11436e-05 7.62331e-05 -0.0637159)
(-1.59308e-05 7.43748e-05 -0.0640007)
(-7.01823e-06 7.41788e-05 -0.0640587)
(6.62105e-06 9.83148e-05 -0.0736453)
(1.19937e-05 9.93973e-05 -0.0735293)
(5.36958e-06 0.000101272 -0.0733001)
(-1.35527e-05 0.000101289 -0.0733475)
(-1.96026e-05 9.92727e-05 -0.0736472)
(-1.10435e-05 9.77455e-05 -0.0737669)
(-8.07585e-07 9.75748e-05 -0.0737777)
(1.08411e-05 9.96843e-05 -0.0735647)
(-2.9651e-06 0.000101942 -0.0732447)
(-2.39109e-05 0.000100293 -0.0734161)
(-1.78593e-05 9.78356e-05 -0.0737301)
(-7.93182e-06 9.75728e-05 -0.0737955)
(7.29186e-06 0.000124585 -0.0832203)
(1.32139e-05 0.000125951 -0.0830941)
(5.94018e-06 0.000128362 -0.0828457)
(-1.49696e-05 0.000128379 -0.0828975)
(-2.16055e-05 0.000125787 -0.0832231)
(-1.22807e-05 0.000123848 -0.0833524)
(-1.2819e-06 0.000123616 -0.083365)
(1.16634e-05 0.000126296 -0.0831351)
(-3.55385e-06 0.000129204 -0.0827881)
(-2.65803e-05 0.00012709 -0.0829723)
(-1.96603e-05 0.000123958 -0.0833116)
(-8.79755e-06 0.000123619 -0.0833841)
(7.91155e-06 0.000153344 -0.0926208)
(1.43483e-05 0.000155021 -0.0924855)
(6.47001e-06 0.000158032 -0.0922203)
(-1.63119e-05 0.000158049 -0.0922763)
(-2.34878e-05 0.000154812 -0.0926246)
(-1.34867e-05 0.000152419 -0.0927621)
(-1.85614e-06 0.000152114 -0.0927765)
(1.23211e-05 0.000155421 -0.0925319)
(-4.21623e-06 0.000159061 -0.0921615)
(-2.9159e-05 0.000156428 -0.0923567)
(-2.13351e-05 0.000152548 -0.0927179)
(-9.61488e-06 0.000152123 -0.0927967)
(8.47896e-06 0.000184403 -0.101828)
(1.53977e-05 0.000186412 -0.101685)
(6.95721e-06 0.00019009 -0.101405)
(-1.7586e-05 0.000190106 -0.101465)
(-2.52578e-05 0.000186153 -0.101833)
(-1.46699e-05 0.000183268 -0.101977)
(-2.53469e-06 0.000182875 -0.101994)
(1.28111e-05 0.000186863 -0.101737)
(-4.95855e-06 0.000191314 -0.101346)
(-3.16534e-05 0.000188111 -0.10155)
(-2.28838e-05 0.000183414 -0.101931)
(-1.03841e-05 0.000182896 -0.102015)
(8.99311e-06 0.000217593 -0.110833)
(1.63628e-05 0.000219957 -0.110682)
(7.40061e-06 0.000224362 -0.110389)
(-1.87976e-05 0.000224377 -0.110453)
(-2.69232e-05 0.000219644 -0.110838)
(-1.5839e-05 0.00021623 -0.110989)
(-3.32195e-06 0.000215733 -0.111007)
(1.31311e-05 0.000220451 -0.110739)
(-5.78639e-06 0.000225789 -0.11033)
(-3.40682e-05 0.000221965 -0.110543)
(-2.43056e-05 0.000216388 -0.11094)
(-1.11063e-05 0.000215768 -0.11103)
(9.45331e-06 0.000252775 -0.119632)
(1.72443e-05 0.000255512 -0.119474)
(7.7998e-06 0.000260704 -0.119171)
(-1.99518e-05 0.000260717 -0.119238)
(-2.84912e-05 0.00025514 -0.119639)
(-1.70023e-05 0.000251166 -0.119794)
(-4.22286e-06 0.000250548 -0.119814)
(1.32789e-05 0.000256039 -0.119536)
(-6.70469e-06 0.000262338 -0.119111)
(-3.64066e-05 0.000257843 -0.119332)
(-2.55985e-05 0.000251328 -0.119744)
(-1.17827e-05 0.000250601 -0.119839)
(9.85914e-06 0.000289828 -0.128227)
(1.80422e-05 0.000292955 -0.128064)
(8.15461e-06 0.000298992 -0.12775)
(-2.10525e-05 0.000299003 -0.12782)
(-2.99672e-05 0.000292524 -0.128235)
(-1.81683e-05 0.000287959 -0.128395)
(-5.24323e-06 0.0002872 -0.128417)
(1.32514e-05 0.000293505 -0.12813)
(-7.71766e-06 0.000300834 -0.12769)
(-3.86687e-05 0.000295621 -0.127918)
(-2.67579e-05 0.000288114 -0.128344)
(-1.24142e-05 0.000287274 -0.128443)
(1.02104e-05 0.000328644 -0.13662)
(1.87559e-05 0.000332177 -0.136451)
(8.46478e-06 0.000339114 -0.136128)
(-2.2102e-05 0.000339121 -0.136201)
(-3.13551e-05 0.000331686 -0.136629)
(-1.93449e-05 0.000326502 -0.136793)
(-6.3896e-06 0.000325581 -0.136817)
(1.30439e-05 0.000332736 -0.136522)
(-8.82845e-06 0.000341162 -0.136067)
(-4.08503e-05 0.000335182 -0.136303)
(-2.77768e-05 0.000326636 -0.136741)
(-1.30006e-05 0.00032568 -0.136845)
(1.05074e-05 0.000369127 -0.144811)
(1.93844e-05 0.000373078 -0.144638)
(8.72971e-06 0.000380969 -0.144305)
(-2.31006e-05 0.000380972 -0.144381)
(-3.26567e-05 0.000372527 -0.144821)
(-2.05402e-05 0.000366701 -0.144988)
(-7.66929e-06 0.000365594 -0.145014)
(1.26504e-05 0.000373631 -0.144712)
(-1.00389e-05 0.000383217 -0.144244)
(-4.29427e-05 0.000376421 -0.144486)
(-2.86448e-05 0.000366793 -0.144937)
(-1.35407e-05 0.00036572 -0.145044)
(1.07507e-05 0.000411173 -0.152798)
(1.9926e-05 0.000415554 -0.152621)
(8.94835e-06 0.00042445 -0.15228)
(-2.40471e-05 0.000424449 -0.152358)
(-3.38721e-05 0.000414947 -0.15281)
(-2.1762e-05 0.000408456 -0.152978)
(-9.09029e-06 0.000407137 -0.153006)
(1.20628e-05 0.000416086 -0.152698)
(-1.13492e-05 0.000426891 -0.152218)
(-4.49318e-05 0.00041923 -0.152467)
(-2.93484e-05 0.00040848 -0.152928)
(-1.40313e-05 0.000407293 -0.153038)
(1.09413e-05 0.000454663 -0.160575)
(2.03792e-05 0.000459483 -0.160396)
(9.1191e-06 0.000469437 -0.160047)
(-2.49384e-05 0.00046943 -0.160128)
(-3.49997e-05 0.000458824 -0.160589)
(-2.30179e-05 0.000451646 -0.160759)
(-1.06609e-05 0.000450087 -0.160788)
(1.12717e-05 0.000459976 -0.160475)
(-1.27574e-05 0.00047206 -0.159985)
(-4.67981e-05 0.000463481 -0.160239)
(-2.98709e-05 0.000451575 -0.160709)
(-1.44678e-05 0.000450278 -0.160822)
(1.10809e-05 0.000499444 -0.168134)
(2.07424e-05 0.00050471 -0.167954)
(9.24005e-06 0.000515775 -0.167599)
(-2.57697e-05 0.000515762 -0.167681)
(-3.60361e-05 0.000504008 -0.16815)
(-2.43149e-05 0.000496124 -0.16832)
(-1.23892e-05 0.000494293 -0.168351)
(1.02668e-05 0.000505145 -0.168035)
(-1.4259e-05 0.000518566 -0.167536)
(-4.85162e-05 0.000509013 -0.167795)
(-3.01927e-05 0.00049592 -0.168272)
(-1.48435e-05 0.000494521 -0.168388)
(1.1172e-05 0.000545323 -0.175462)
(2.10145e-05 0.000551041 -0.175282)
(9.30928e-06 0.000563271 -0.174922)
(-2.6534e-05 0.000563252 -0.175006)
(-3.69768e-05 0.000550306 -0.17548)
(-2.56594e-05 0.000541698 -0.175648)
(-1.42827e-05 0.000539559 -0.175682)
(9.03722e-06 0.000551398 -0.175364)
(-1.58463e-05 0.000566213 -0.174858)
(-5.00554e-05 0.000555627 -0.175121)
(-3.02919e-05 0.00054132 -0.175603)
(-1.51497e-05 0.00053983 -0.17572)
(1.12179e-05 0.000592061 -0.182542)
(2.11954e-05 0.000598235 -0.182364)
(9.3253e-06 0.000611684 -0.182001)
(-2.72225e-05 0.000611659 -0.182086)
(-3.78159e-05 0.00059748 -0.182563)
(-2.70568e-05 0.000588131 -0.182729)
(-1.63471e-05 0.000585646 -0.182764)
(7.57304e-06 0.00059849 -0.182447)
(-1.75086e-05 0.000614755 -0.181937)
(-5.13802e-05 0.000603075 -0.182202)
(-3.01448e-05 0.000587532 -0.182686)
(-1.53761e-05 0.000585965 -0.182805)
(1.12234e-05 0.00063937 -0.189357)
(2.12864e-05 0.000646 -0.189181)
(9.28754e-06 0.000660725 -0.188818)
(-2.78242e-05 0.000660694 -0.188903)
(-3.85465e-05 0.000645242 -0.18938)
(-2.8511e-05 0.000635138 -0.189542)
(-1.85863e-05 0.000632264 -0.189579)
(5.86577e-06 0.000646128 -0.189265)
(-1.92318e-05 0.000663897 -0.188754)
(-5.24517e-05 0.00065106 -0.18902)
(-2.97272e-05 0.000634264 -0.189502)
(-1.55106e-05 0.000632638 -0.189622)
(1.11946e-05 0.000686912 -0.195886)
(2.12904e-05 0.000693997 -0.195715)
(9.19677e-06 0.000710056 -0.195353)
(-2.83261e-05 0.00071002 -0.195438)
(-3.91611e-05 0.000693256 -0.195912)
(-3.00244e-05 0.000682386 -0.196068)
(-2.10009e-05 0.000679078 -0.196107)
(3.90961e-06 0.000693971 -0.195798)
(-2.0998e-05 0.000713295 -0.19529)
(-5.32278e-05 0.000699235 -0.195554)
(-2.90155e-05 0.000681176 -0.196031)
(-1.55395e-05 0.000679514 -0.196151)
(1.11396e-05 0.000734308 -0.20211)
(2.12126e-05 0.000741847 -0.201944)
(9.05555e-06 0.000759295 -0.201587)
(-2.87129e-05 0.000759257 -0.20167)
(-3.96515e-05 0.000741148 -0.202138)
(-3.15969e-05 0.000729503 -0.202286)
(-2.3588e-05 0.000725708 -0.202327)
(1.70244e-06 0.000741634 -0.202026)
(-2.27859e-05 0.000762559 -0.201525)
(-5.3666e-05 0.00074721 -0.201785)
(-2.79874e-05 0.000727888 -0.202254)
(-1.54478e-05 0.000726216 -0.202373)
(1.10684e-05 0.000781145 -0.208008)
(2.10609e-05 0.000789132 -0.207849)
(8.86859e-06 0.000808024 -0.207499)
(-2.89677e-05 0.000807986 -0.207581)
(-4.00089e-05 0.000788503 -0.208039)
(-3.32259e-05 0.00077608 -0.208178)
(-2.63398e-05 0.000771741 -0.20822)
(-7.53054e-07 0.000788695 -0.207929)
(-2.45708e-05 0.000811262 -0.207439)
(-5.37236e-05 0.000794558 -0.207692)
(-2.66238e-05 0.000773984 -0.20815)
(-1.52191e-05 0.000772332 -0.208267)
(1.09939e-05 0.00082698 -0.213562)
(2.08462e-05 0.000835409 -0.213411)
(8.643e-06 0.000855798 -0.213071)
(-2.90721e-05 0.000855762 -0.213152)
(-4.02243e-05 0.000834884 -0.213595)
(-3.49053e-05 0.000821682 -0.213724)
(-2.92432e-05 0.00081674 -0.213767)
(-3.44835e-06 0.000834707 -0.213489)
(-2.63243e-05 0.000858946 -0.213013)
(-5.33606e-05 0.000840826 -0.213258)
(-2.4909e-05 0.000819025 -0.2137)
(-1.48363e-05 0.000817427 -0.213816)
(1.09314e-05 0.000871357 -0.218757)
(2.05825e-05 0.00088022 -0.218615)
(8.38857e-06 0.000902152 -0.218288)
(-2.90068e-05 0.000902125 -0.218366)
(-4.02886e-05 0.000879839 -0.218793)
(-3.66249e-05 0.000865862 -0.21891)
(-3.22785e-05 0.000860251 -0.218953)
(-6.36792e-06 0.000879205 -0.218689)
(-2.80149e-05 0.000905135 -0.218233)
(-5.25406e-05 0.000885541 -0.218467)
(-2.28324e-05 0.000862553 -0.21889)
(-1.42813e-05 0.000861049 -0.219003)
(1.08995e-05 0.000913815 -0.22358)
(2.02878e-05 0.0009231 -0.223448)
(8.11778e-06 0.000946619 -0.223136)
(-2.87523e-05 0.000946604 -0.223212)
(-4.01927e-05 0.00092291 -0.223617)
(-3.837e-05 0.000908167 -0.223722)
(-3.54186e-05 0.000901817 -0.223765)
(-9.48819e-06 0.00092172 -0.223518)
(-2.96077e-05 0.000949345 -0.223084)
(-5.12329e-05 0.000928228 -0.223305)
(-2.03894e-05 0.000904112 -0.223706)
(-1.35355e-05 0.000902745 -0.223816)
(1.092e-05 0.0009539 -0.228021)
(1.99836e-05 0.000963596 -0.227901)
(7.84574e-06 0.000988735 -0.227607)
(-2.82899e-05 0.00098874 -0.227679)
(-3.9928e-05 0.000963647 -0.22806)
(-4.01209e-05 0.000948153 -0.228151)
(-3.86284e-05 0.000940989 -0.228194)
(-1.27765e-05 0.000961787 -0.227966)
(-3.10649e-05 0.000991097 -0.227557)
(-4.94142e-05 0.000968416 -0.227763)
(-1.75818e-05 0.000943251 -0.228139)
(-1.25805e-05 0.000942068 -0.228246)
(1.10177e-05 0.00099118 -0.232076)
(1.96951e-05 0.00100127 -0.231967)
(7.58998e-06 0.00102806 -0.231693)
(-2.76028e-05 0.00102809 -0.231762)
(-3.94871e-05 0.00100162 -0.232116)
(-4.18522e-05 0.000985399 -0.232193)
(-4.18636e-05 0.000977342 -0.232235)
(-1.619e-05 0.000998967 -0.232027)
(-3.23461e-05 0.00102993 -0.231647)
(-4.70702e-05 0.00100566 -0.231836)
(-1.44185e-05 0.000979545 -0.232185)
(-1.13978e-05 0.000978596 -0.232287)
(1.12204e-05 0.00102526 -0.235744)
(1.94511e-05 0.00103573 -0.235646)
(7.37e-06 0.00106417 -0.235395)
(-2.66769e-05 0.00106424 -0.235459)
(-3.88637e-05 0.00103645 -0.235785)
(-4.35332e-05 0.00101952 -0.235847)
(-4.50707e-05 0.00101048 -0.235887)
(-1.96753e-05 0.00103285 -0.2357)
(-3.34084e-05 0.00106542 -0.23535)
(-4.41972e-05 0.00103954 -0.235521)
(-1.09166e-05 0.0010126 -0.235842)
(-9.97016e-06 0.00101194 -0.23594)
(1.15582e-05 0.00105579 -0.239027)
(1.9283e-05 0.00106663 -0.238942)
(7.20673e-06 0.00109672 -0.238714)
(-2.55024e-05 0.00109684 -0.238775)
(-3.80538e-05 0.00106778 -0.239069)
(-4.51278e-05 0.00105016 -0.239117)
(-4.81867e-05 0.00104007 -0.239154)
(-2.31678e-05 0.00106308 -0.238989)
(-3.42075e-05 0.00109717 -0.238672)
(-4.08032e-05 0.00106969 -0.238823)
(-7.10077e-06 0.00104208 -0.239114)
(-8.28197e-06 0.00104176 -0.239207)
(1.20625e-05 0.00108247 -0.241936)
(1.92248e-05 0.00109366 -0.241862)
(7.12191e-06 0.0011254 -0.241659)
(-2.40748e-05 0.00112557 -0.241715)
(-3.7056e-05 0.00109532 -0.241977)
(-4.65953e-05 0.00107706 -0.242011)
(-5.11399e-05 0.00106582 -0.242044)
(-2.65919e-05 0.00108935 -0.241902)
(-3.46983e-05 0.00112487 -0.241617)
(-3.69091e-05 0.00109582 -0.241748)
(-3.00427e-06 0.0010677 -0.242009)
(-6.32011e-06 0.00106778 -0.242099)
(1.27653e-05 0.0011051 -0.244481)
(1.93112e-05 0.00111661 -0.244419)
(7.13718e-06 0.00114997 -0.244241)
(-2.23959e-05 0.0011502 -0.244293)
(-3.58727e-05 0.00111885 -0.244522)
(-4.78915e-05 0.00109998 -0.244542)
(-5.38505e-05 0.00108751 -0.244572)
(-2.98618e-05 0.00111143 -0.244451)
(-3.48359e-05 0.00114826 -0.2442)
(-3.25494e-05 0.00111768 -0.24431)
(1.33174e-06 0.00108925 -0.244542)
(-4.07502e-06 0.00108978 -0.244627)
(1.36967e-05 0.00112351 -0.246682)
(1.95767e-05 0.00113533 -0.24663)
(7.27316e-06 0.00117026 -0.246478)
(-2.04748e-05 0.00117057 -0.246524)
(-3.45103e-05 0.00113824 -0.246721)
(-4.89702e-05 0.00111879 -0.246728)
(-5.62328e-05 0.001105 -0.246754)
(-3.28833e-05 0.00112916 -0.246654)
(-3.45775e-05 0.00116717 -0.246435)
(-2.77724e-05 0.00113511 -0.246525)
(5.85812e-06 0.00110658 -0.246728)
(-1.54193e-06 0.00110762 -0.246809)
(1.48832e-05 0.00113764 -0.248557)
(2.00527e-05 0.00114975 -0.248516)
(7.54814e-06 0.00118619 -0.248388)
(-1.83283e-05 0.00118659 -0.24843)
(-3.29802e-05 0.0011534 -0.248594)
(-4.97848e-05 0.00113341 -0.24859)
(-5.81976e-05 0.00111822 -0.24861)
(-3.55561e-05 0.00114246 -0.24853)
(-3.38843e-05 0.00118148 -0.248343)
(-2.26411e-05 0.00114805 -0.248413)
(1.0518e-05 0.00111964 -0.24859)
(1.27745e-06 0.00112123 -0.248667)
(1.63447e-05 0.0011475 -0.250131)
(2.07657e-05 0.00115988 -0.2501)
(7.97702e-06 0.00119775 -0.249996)
(-1.59811e-05 0.00119825 -0.250033)
(-3.12985e-05 0.00116435 -0.250166)
(-5.02906e-05 0.00114384 -0.250151)
(-5.96564e-05 0.00112718 -0.250166)
(-3.77783e-05 0.00115134 -0.250104)
(-3.27253e-05 0.00119119 -0.249947)
(-1.7232e-05 0.00115649 -0.249999)
(1.52474e-05 0.00112843 -0.250151)
(4.37317e-06 0.00113062 -0.250224)
(1.8092e-05 0.0011532 -0.25143)
(2.17335e-05 0.00116583 -0.251407)
(8.56886e-06 0.00120505 -0.251327)
(-1.34672e-05 0.00120565 -0.251358)
(-2.94846e-05 0.00117118 -0.251462)
(-5.04462e-05 0.00115019 -0.251438)
(-6.05267e-05 0.00113198 -0.251447)
(-3.94522e-05 0.00115589 -0.251403)
(-3.10803e-05 0.00119639 -0.251273)
(-1.16342e-05 0.00116054 -0.251307)
(1.99759e-05 0.00113307 -0.251437)
(7.72558e-06 0.0011359 -0.251506)
(2.01248e-05 0.00115494 -0.252482)
(2.29652e-05 0.0011678 -0.252467)
(9.32632e-06 0.00120826 -0.252408)
(-1.08282e-05 0.00120898 -0.252435)
(-2.75642e-05 0.0011741 -0.252511)
(-5.02183e-05 0.00115265 -0.252479)
(-6.0735e-05 0.00113284 -0.252483)
(-4.04893e-05 0.00115633 -0.252453)
(-2.89391e-05 0.00119728 -0.252348)
(-5.9433e-06 0.00116042 -0.252366)
(2.4632e-05 0.00113376 -0.252476)
(1.13062e-05 0.00113728 -0.252542)
(2.24334e-05 0.001153 -0.253317)
(2.44571e-05 0.00116607 -0.253309)
(1.02473e-05 0.00120767 -0.25327)
(-8.10795e-06 0.00120851 -0.253292)
(-2.55708e-05 0.00117338 -0.253344)
(-4.95904e-05 0.00115147 -0.253305)
(-6.02221e-05 0.00113002 -0.253303)
(-4.08112e-05 0.00115293 -0.253286)
(-2.63026e-05 0.00119414 -0.253203)
(-2.54627e-07 0.00115642 -0.253207)
(2.91489e-05 0.00113079 -0.253301)
(1.50802e-05 0.00113502 -0.253363)
(2.49958e-05 0.0011477 -0.253967)
(2.61927e-05 0.00116096 -0.253965)
(1.13224e-05 0.00120359 -0.253943)
(-5.35223e-06 0.00120455 -0.25396)
(-2.35293e-05 0.00116931 -0.253992)
(-4.85487e-05 0.00114693 -0.253946)
(-5.89527e-05 0.00112381 -0.25394)
(-4.03676e-05 0.001146 -0.253933)
(-2.31897e-05 0.00118728 -0.253868)
(5.33935e-06 0.00114887 -0.253861)
(3.34605e-05 0.00112446 -0.253941)
(1.90011e-05 0.00112943 -0.254)
(2.77748e-05 0.00113934 -0.254459)
(2.81384e-05 0.00115279 -0.254463)
(1.25291e-05 0.00119634 -0.254456)
(-2.61219e-06 0.00119741 -0.254469)
(-2.14579e-05 0.0011622 -0.254481)
(-4.70842e-05 0.00113934 -0.254432)
(-5.69172e-05 0.00111452 -0.25442)
(-3.91431e-05 0.00113587 -0.254423)
(-1.96392e-05 0.00117706 -0.254373)
(1.07496e-05 0.00113811 -0.254356)
(3.75038e-05 0.00111508 -0.254424)
(2.30128e-05 0.0011208 -0.254481)
(3.07226e-05 0.00112829 -0.254822)
(3.02459e-05 0.00114192 -0.25483)
(1.38356e-05 0.00118627 -0.254836)
(6.54103e-08 0.00118745 -0.254844)
(-1.93728e-05 0.00115238 -0.254841)
(-4.52007e-05 0.00112901 -0.254788)
(-5.41296e-05 0.00110249 -0.254772)
(-3.71462e-05 0.00112291 -0.254782)
(-1.57065e-05 0.00116385 -0.254745)
(1.58979e-05 0.00112451 -0.25472)
(4.12285e-05 0.00110299 -0.254779)
(2.70563e-05 0.00110948 -0.254834)
(3.37844e-05 0.0011149 -0.255078)
(3.24611e-05 0.00112871 -0.255091)
(1.52064e-05 0.00117376 -0.255107)
(2.64095e-06 0.00117502 -0.255112)
(-1.72834e-05 0.00114019 -0.255095)
(-4.29104e-05 0.00111628 -0.255038)
(-5.06275e-05 0.00108807 -0.25502)
(-3.44142e-05 0.00110748 -0.255036)
(-1.14576e-05 0.00114804 -0.255008)
(2.07249e-05 0.00110846 -0.254978)
(4.46007e-05 0.00108854 -0.255029)
(3.10721e-05 0.0010958 -0.255081)
(3.69021e-05 0.0010995 -0.255251)
(3.47255e-05 0.00111351 -0.255267)
(1.66026e-05 0.00115914 -0.255292)
(5.08414e-06 0.00116047 -0.255293)
(-1.51909e-05 0.00112596 -0.255265)
(-4.02309e-05 0.00110144 -0.255206)
(-4.64677e-05 0.00107158 -0.255185)
(-3.1009e-05 0.00108993 -0.255206)
(-6.96454e-06 0.00113001 -0.255186)
(2.51922e-05 0.00109032 -0.25515)
(4.76029e-05 0.00107207 -0.255196)
(3.5005e-05 0.00108011 -0.255246)
(4.00191e-05 0.00108242 -0.255358)
(3.69827e-05 0.00109663 -0.255377)
(1.79842e-05 0.00114275 -0.255409)
(7.37579e-06 0.00114412 -0.255406)
(-1.30888e-05 0.00110999 -0.25537)
(-3.71831e-05 0.00108479 -0.255308)
(-4.17181e-05 0.00105333 -0.255285)
(-2.70089e-05 0.00107061 -0.255311)
(-2.29978e-06 0.00111014 -0.255296)
(2.92823e-05 0.00107046 -0.255257)
(5.02339e-05 0.00105387 -0.255298)
(3.88074e-05 0.00106269 -0.255346)
(4.30841e-05 0.00106393 -0.255415)
(3.91828e-05 0.00107836 -0.255437)
(1.93134e-05 0.00112489 -0.255474)
(9.50819e-06 0.00112627 -0.255468)
(-1.09639e-05 0.00109253 -0.255424)
(-3.37886e-05 0.00106658 -0.255361)
(-3.64495e-05 0.00103357 -0.255337)
(-2.24976e-05 0.00104981 -0.255365)
(2.4695e-06 0.00108873 -0.255355)
(3.29959e-05 0.00104915 -0.255314)
(5.25064e-05 0.00103422 -0.255351)
(4.24416e-05 0.00104381 -0.255397)
(4.60525e-05 0.00104426 -0.255434)
(4.12862e-05 0.00105894 -0.255457)
(2.05583e-05 0.00110578 -0.255499)
(1.14839e-05 0.00110713 -0.25549)
(-8.79919e-06 0.0010738 -0.25544)
(-3.00671e-05 0.00104702 -0.255376)
(-3.07267e-05 0.00101253 -0.255351)
(-1.75538e-05 0.00102777 -0.255382)
(7.28683e-06 0.00106607 -0.255375)
(3.6348e-05 0.00102667 -0.255332)
(5.44414e-05 0.00101333 -0.255366)
(4.58798e-05 0.00102369 -0.25541)
(4.88881e-05 0.00102359 -0.255423)
(4.32652e-05 0.00103855 -0.255449)
(2.16965e-05 0.00108563 -0.255494)
(1.33136e-05 0.0010869 -0.255482)
(-6.57445e-06 0.00105395 -0.255427)
(-2.60331e-05 0.00102626 -0.255361)
(-2.46043e-05 0.00099039 -0.255336)
(-1.2242e-05 0.00100471 -0.255371)
(1.21103e-05 0.00104237 -0.255365)
(3.93643e-05 0.00100322 -0.255321)
(5.60623e-05 0.000991387 -0.255353)
(4.91028e-05 0.00100251 -0.255394)
(5.15622e-05 0.00100206 -0.25539)
(4.51049e-05 0.00101733 -0.255418)
(2.272e-05 0.00106458 -0.255466)
(1.50124e-05 0.0010657 -0.255451)
(-4.26879e-06 0.00103311 -0.255392)
(-2.16954e-05 0.00100443 -0.255325)
(-1.81214e-05 0.000967266 -0.2553)
(-6.60494e-06 0.000980756 -0.255337)
(1.69152e-05 0.00101781 -0.255333)
(4.20753e-05 0.000978938 -0.255288)
(5.73934e-05 0.00096852 -0.255317)
(5.20977e-05 0.000980397 -0.255356)
(5.40548e-05 0.000979745 -0.255339)
(4.68065e-05 0.000995369 -0.255369)
(2.36311e-05 0.00104273 -0.255419)
(1.6598e-05 0.00104363 -0.255402)
(-1.86061e-06 0.00101134 -0.25534)
(-1.70482e-05 0.00098157 -0.255271)
(-1.12978e-05 0.00094325 -0.255247)
(-6.76632e-07 0.00095602 -0.255286)
(2.16861e-05 0.000992502 -0.255283)
(4.45097e-05 0.000953942 -0.255238)
(5.84571e-05 0.000944808 -0.255264)
(5.48602e-05 0.000957422 -0.255301)
(5.63535e-05 0.000956702 -0.255274)
(4.83833e-05 0.000972735 -0.255306)
(2.44436e-05 0.00102013 -0.255358)
(1.81017e-05 0.00102075 -0.255339)
(6.54741e-07 0.000988663 -0.255273)
(-1.20749e-05 0.000957756 -0.255203)
(-4.12997e-06 0.000918377 -0.25518)
(5.50892e-06 0.000930588 -0.255222)
(2.64082e-05 0.000966525 -0.25522)
(4.66852e-05 0.000928288 -0.255174)
(5.9262e-05 0.000920281 -0.255197)
(5.73924e-05 0.000933627 -0.255232)
(5.84641e-05 0.000932934 -0.255198)
(4.98531e-05 0.000949414 -0.255231)
(2.518e-05 0.000996818 -0.255285)
(1.95262e-05 0.000997025 -0.255264)
(3.26355e-06 0.000965044 -0.255195)
(-6.76172e-06 0.000932936 -0.255124)
(3.38619e-06 0.000892621 -0.255102)
(1.19378e-05 0.000904463 -0.255146)
(3.1068e-05 0.000939915 -0.255145)
(4.86036e-05 0.000901994 -0.255099)
(5.97841e-05 0.000894931 -0.255119)
(5.96907e-05 0.000908994 -0.255151)
(6.039e-05 0.000908353 -0.255111)
(5.12372e-05 0.000925354 -0.255146)
(2.58782e-05 0.000972741 -0.255202)
(2.08467e-05 0.000972384 -0.255178)
(5.96653e-06 0.000940405 -0.255107)
(-1.11741e-06 0.000906998 -0.255035)
(1.12026e-05 0.00086597 -0.255014)
(1.85998e-05 0.000877601 -0.255062)
(3.56567e-05 0.000912648 -0.255061)
(5.02631e-05 0.000875052 -0.255015)
(6.00064e-05 0.000868756 -0.255032)
(6.17105e-05 0.000883459 -0.25506)
(6.20921e-05 0.000882894 -0.255016)
(5.25348e-05 0.000900528 -0.255052)
(2.66021e-05 0.000947842 -0.25511)
(2.20401e-05 0.000946821 -0.255084)
(8.77962e-06 0.000914742 -0.255011)
(4.82551e-06 0.000879956 -0.254938)
(1.92416e-05 0.00083842 -0.25492)
(2.54699e-05 0.000850036 -0.25497)
(4.01683e-05 0.000884735 -0.25497)
(5.16936e-05 0.00084746 -0.254924)
(5.99658e-05 0.000841719 -0.254937)
(6.33578e-05 0.00085701 -0.254961)
(6.35127e-05 0.000856575 -0.254914)
(5.37065e-05 0.000874945 -0.254952)
(2.7362e-05 0.000922146 -0.25501)
(2.30945e-05 0.000920366 -0.254983)
(1.17141e-05 0.000888082 -0.25491)
(1.10301e-05 0.000851871 -0.254835)
(2.74278e-05 0.000810006 -0.25482)
(3.25048e-05 0.000821844 -0.254873)
(4.45853e-05 0.000856269 -0.254873)
(5.29086e-05 0.000819265 -0.254827)
(5.96997e-05 0.000813825 -0.254835)
(6.45482e-05 0.00082969 -0.254856)
(6.4618e-05 0.00082944 -0.254808)
(5.47052e-05 0.000848657 -0.254848)
(2.81075e-05 0.000895711 -0.254905)
(2.40151e-05 0.000893068 -0.254877)
(1.47599e-05 0.000860442 -0.254805)
(1.74483e-05 0.000822797 -0.25473)
(3.56652e-05 0.000780799 -0.254717)
(3.96315e-05 0.000793089 -0.254772)
(4.88871e-05 0.000827352 -0.254773)
(5.38976e-05 0.000790535 -0.254727)
(5.92123e-05 0.000785179 -0.25473)
(6.5228e-05 0.000801572 -0.254747)
(6.53947e-05 0.000801537 -0.254699)
(5.54829e-05 0.000821711 -0.25474)
(2.87945e-05 0.000868598 -0.254797)
(2.48115e-05 0.000864972 -0.254768)
(1.79195e-05 0.00083184 -0.254697)
(2.40112e-05 0.000792772 -0.254623)
(4.38482e-05 0.000750869 -0.254613)
(4.67615e-05 0.000763836 -0.254671)
(5.30664e-05 0.000798053 -0.254672)
(5.46788e-05 0.00076134 -0.254625)
(5.85002e-05 0.000755867 -0.254624)
(6.53518e-05 0.000772738 -0.254636)
(6.58454e-05 0.000772903 -0.254589)
(5.59962e-05 0.000794134 -0.254632)
(2.93931e-05 0.000840849 -0.254688)
(2.55069e-05 0.000836105 -0.254659)
(2.12279e-05 0.000802308 -0.25459)
(3.064e-05 0.000761836 -0.254516)
(5.18778e-05 0.000720261 -0.25451)
(5.37955e-05 0.000734139 -0.254569)
(5.71161e-05 0.000768425 -0.254572)
(5.52972e-05 0.000731734 -0.254523)
(5.75577e-05 0.000725938 -0.254517)
(6.48843e-05 0.00074324 -0.254526)
(6.59802e-05 0.000743545 -0.254481)
(5.6218e-05 0.000765947 -0.254525)
(2.98838e-05 0.000812481 -0.254578)
(2.61415e-05 0.000806483 -0.25455)
(2.47198e-05 0.000771857 -0.254483)
(3.72593e-05 0.00073003 -0.254412)
(5.96521e-05 0.000689002 -0.254408)
(6.06303e-05 0.00070402 -0.254469)
(6.10151e-05 0.000738502 -0.254473)
(5.58042e-05 0.000701758 -0.254423)
(5.63813e-05 0.000695436 -0.254412)
(6.3812e-05 0.000713114 -0.254417)
(6.58154e-05 0.000713458 -0.254375)
(5.61411e-05 0.000737154 -0.254419)
(3.02612e-05 0.000783492 -0.25447)
(2.67666e-05 0.000776098 -0.254443)
(2.84131e-05 0.000740486 -0.254379)
(4.37945e-05 0.000697388 -0.25431)
(6.70727e-05 0.000657111 -0.25431)
(6.71553e-05 0.000673492 -0.254372)
(6.47152e-05 0.000708305 -0.254377)
(5.62438e-05 0.000671436 -0.254325)
(5.49676e-05 0.000664408 -0.25431)
(6.21441e-05 0.000682388 -0.254312)
(6.53708e-05 0.000682643 -0.254272)
(5.57772e-05 0.000707753 -0.254316)
(3.05259e-05 0.000753871 -0.254364)
(2.7437e-05 0.000744938 -0.254338)
(3.2304e-05 0.0007082 -0.254277)
(5.0175e-05 0.000663938 -0.254212)
(7.40515e-05 0.000624608 -0.254215)
(7.32716e-05 0.000642561 -0.254278)
(6.81626e-05 0.000677837 -0.254285)
(5.66399e-05 0.000640782 -0.254231)
(5.33059e-05 0.00063289 -0.254212)
(5.99116e-05 0.000651092 -0.254211)
(6.46701e-05 0.000651094 -0.254174)
(5.51612e-05 0.000677736 -0.254216)
(3.06684e-05 0.000723601 -0.254262)
(2.81958e-05 0.000712981 -0.254237)
(3.63602e-05 0.000675001 -0.254179)
(5.63287e-05 0.000629712 -0.254118)
(8.05016e-05 0.000591515 -0.254124)
(7.88903e-05 0.000611219 -0.254188)
(7.13288e-05 0.000647081 -0.254196)
(5.69919e-05 0.000609808 -0.254141)
(5.13815e-05 0.000600912 -0.254118)
(5.71672e-05 0.000619242 -0.254114)
(6.37381e-05 0.000618797 -0.254079)
(5.434e-05 0.000647094 -0.254121)
(3.06824e-05 0.000692659 -0.254163)
(2.90545e-05 0.000680203 -0.254141)
(4.0515e-05 0.000640893 -0.254086)
(6.21763e-05 0.000594738 -0.25403)
(8.63317e-05 0.000557839 -0.254039)
(8.3927e-05 0.000579457 -0.254102)
(7.41913e-05 0.000616015 -0.254112)
(5.72759e-05 0.000578522 -0.254055)
(4.91754e-05 0.000568497 -0.254029)
(5.39685e-05 0.000586844 -0.254024)
(6.26026e-05 0.000585747 -0.253991)
(5.33502e-05 0.000615821 -0.25403)
(3.05694e-05 0.000661026 -0.254069)
(2.99971e-05 0.000646577 -0.254049)
(4.4665e-05 0.00060588 -0.253998)
(6.76189e-05 0.000559045 -0.253947)
(9.1447e-05 0.000523581 -0.253958)
(8.83073e-05 0.000547261 -0.254022)
(7.67154e-05 0.000584619 -0.254033)
(5.74473e-05 0.000546921 -0.253975)
(4.66628e-05 0.000535663 -0.253946)
(5.03662e-05 0.000553896 -0.253939)
(6.12985e-05 0.000551932 -0.253908)
(5.2209e-05 0.0005839 -0.253944)
(3.03285e-05 0.000628672 -0.25398)
(3.09909e-05 0.000612079 -0.253962)
(4.86654e-05 0.000569971 -0.253915)
(7.25262e-05 0.000522666 -0.25387)
(9.57507e-05 0.000488759 -0.253883)
(9.19641e-05 0.000514605 -0.253946)
(7.88594e-05 0.000552859 -0.253958)
(5.74393e-05 0.000515007 -0.253901)
(4.38214e-05 0.000502437 -0.253869)
(4.64051e-05 0.000520397 -0.25386)
(5.98559e-05 0.000517337 -0.253831)
(5.09064e-05 0.000551311 -0.253864)
(2.99503e-05 0.000595571 -0.253898)
(3.198e-05 0.000576705 -0.253881)
(5.23335e-05 0.000533194 -0.253838)
(7.67469e-05 0.000485631 -0.2538)
(9.91406e-05 0.000453378 -0.253815)
(9.48289e-05 0.000481451 -0.253876)
(8.05692e-05 0.000520703 -0.253889)
(5.7173e-05 0.000482776 -0.253832)
(4.06328e-05 0.00046882 -0.253799)
(4.21219e-05 0.00048633 -0.253789)
(5.82833e-05 0.000481969 -0.25376)
(4.94144e-05 0.000518047 -0.253791)
(2.94176e-05 0.000561708 -0.253821)
(3.28766e-05 0.000540446 -0.253807)
(5.54792e-05 0.000495577 -0.253767)