0 	0 	0 	0
0 	0 	0 	0
0.00752508 	0.00151832 	0.000595182 	-0.276841
0.00752508 	0.00151832 	0.000595182 	-0.276841
0.00757525 	0.00152211 	0.000640502 	-0.277006
0.00762542 	0.00152589 	0.000685821 	-0.277172
0.00762542 	0.00152589 	0.000685821 	-0.277172
0.00767559 	0.00152976 	0.000730819 	-0.277343
0.00772575 	0.00154306 	0.000740601 	-0.278067
0.00777592 	0.00155635 	0.000750382 	-0.278792
0.00782609 	0.00156965 	0.000760164 	-0.279517
0.00782609 	0.00156965 	0.000760164 	-0.279517
0.00787625 	0.00158769 	0.000744286 	-0.280509
0.00792642 	0.00160916 	0.000709797 	-0.281696
0.00797659 	0.00163063 	0.000675307 	-0.282882
0.00802676 	0.00164791 	0.000649978 	-0.28401
0.00802676 	0.00164791 	0.000649978 	-0.28401
0.00807692 	0.00164945 	0.000659002 	-0.284914
0.00812709 	0.00165099 	0.000668026 	-0.285819
0.00812709 	0.00165099 	0.000668026 	-0.285819
0.00817726 	0.00165253 	0.00067705 	-0.286723
0.00822742 	0.00162429 	0.000769068 	-0.286939
0.00822742 	0.00162429 	0.000769068 	-0.286939
0.00827759 	0.00159277 	0.000870221 	-0.28708
0.00832776 	0.00156126 	0.000971374 	-0.28722
0.00832776 	0.00156126 	0.000971374 	-0.28722
0.00837793 	0.00152458 	0.00104572 	-0.287088
0.00842809 	0.00148512 	0.0011056 	-0.286808
0.00842809 	0.00148512 	0.0011056 	-0.286808
0.00847826 	0.00144566 	0.00116549 	-0.286529
0.00847826 	0.00144566 	0.00116549 	-0.286529
0.00852843 	0.00140655 	0.00117306 	-0.286134
0.00852843 	0.00140655 	0.00117306 	-0.286134
0.0085786 	0.00136786 	0.00111807 	-0.285602
0.0085786 	0.00136786 	0.00111807 	-0.285602
0.00862876 	0.00132917 	0.00106308 	-0.28507
0.00867893 	0.00128414 	0.00101133 	-0.284395
0.00867893 	0.00128414 	0.00101133 	-0.284395
0.0087291 	0.00122548 	0.000966528 	-0.283411
0.00877926 	0.00116682 	0.00092173 	-0.282427
0.00877926 	0.00116682 	0.00092173 	-0.282427
0.00882943 	0.00110318 	0.000901158 	-0.281433
0.0088796 	0.00102335 	0.000959497 	-0.280402
0.0088796 	0.00102335 	0.000959497 	-0.280402
0.00897993 	0.000862607 	0.00108473 	-0.278454
0.00897993 	0.000862607 	0.00108473 	-0.278454
0.0090301 	0.000777542 	0.00118446 	-0.277976
0.00908027 	0.000692477 	0.0012842 	-0.277498
0.00908027 	0.000692477 	0.0012842 	-0.277498
0.00913043 	0.000609481 	0.00137815 	-0.277039
0.0091806 	0.000533347 	0.00145292 	-0.276644
0.0091806 	0.000533347 	0.00145292 	-0.276644
0.00923077 	0.000457212 	0.0015277 	-0.27625
0.00928094 	0.00039701 	0.00157011 	-0.275498
0.00928094 	0.00039701 	0.00157011 	-0.275498
0.0093311 	0.000372404 	0.00154021 	-0.273946
0.00938127 	0.000347798 	0.00151031 	-0.272394
0.00938127 	0.000347798 	0.00151031 	-0.272394
0.00943144 	0.000337593 	0.00146688 	-0.270544
0.00943144 	0.000337593 	0.00146688 	-0.270544
0.00948161 	0.000345855 	0.00140611 	-0.26831
0.00948161 	0.000345855 	0.00140611 	-0.26831
0.00953177 	0.000354116 	0.00134535 	-0.266077
0.00953177 	0.000354116 	0.00134535 	-0.266077
0.00958194 	0.000348005 	0.00133297 	-0.264268
0.00958194 	0.000348005 	0.00133297 	-0.264268
0.00963211 	0.000333 	0.00135055 	-0.262722
0.00963211 	0.000333 	0.00135055 	-0.262722
0.00968227 	0.000317994 	0.00136813 	-0.261175
0.00968227 	0.000317994 	0.00136813 	-0.261175
0.00973244 	0.000299292 	0.00143505 	-0.260353
0.00978261 	0.000279922 	0.00151089 	-0.259662
0.00983278 	0.000262834 	0.00157017 	-0.259038
0.00988294 	0.000261731 	0.00151353 	-0.258883
0.00988294 	0.000261731 	0.00151353 	-0.258883
0.00993311 	0.000260627 	0.00145689 	-0.258728
0.00998328 	0.000251639 	0.00129321 	-0.25848
0.00998328 	0.000251639 	0.00129321 	-0.25848
0.0100334 	0.00023305 	0.000999183 	-0.258118
0.0100334 	0.00023305 	0.000999183 	-0.258118
0.0100836 	0.000214461 	0.000705161 	-0.257756
0.0101338 	0.000113202 	0.000666269 	-0.256712
0.0101338 	0.000113202 	0.000666269 	-0.256712
0.0102341 	-0.000141686 	0.000771621 	-0.254296
0.0102341 	-0.000141686 	0.000771621 	-0.254296
0.0102843 	-0.000330703 	0.00109196 	-0.252959
0.0103344 	-0.000519719 	0.0014123 	-0.251621
0.0103344 	-0.000519719 	0.0014123 	-0.251621
0.0103846 	-0.00066928 	0.00161775 	-0.250534
0.0103846 	-0.00066928 	0.00161775 	-0.250534
0.0104348 	-0.000802587 	0.00177587 	-0.249551
0.0104849 	-0.000908024 	0.00188322 	-0.248509
0.0104849 	-0.000908024 	0.00188322 	-0.248509
0.0105351 	-0.000913326 	0.00180821 	-0.247256
0.0105853 	-0.000918627 	0.0017332 	-0.246002
0.0105853 	-0.000918627 	0.0017332 	-0.246002
0.0106355 	-0.000862222 	0.0015582 	-0.244616
0.0106856 	-0.000787498 	0.00135352 	-0.243189
0.0106856 	-0.000787498 	0.00135352 	-0.243189
0.0107358 	-0.000718696 	0.00121257 	-0.241877
0.0107358 	-0.000718696 	0.00121257 	-0.241877
0.010786 	-0.000660088 	0.00118129 	-0.24076
0.010786 	-0.000660088 	0.00118129 	-0.24076
0.0108361 	-0.000601595 	0.00115085 	-0.239646
0.0108361 	-0.000601595 	0.00115085 	-0.239646
0.0108863 	-0.000561301 	0.00125138 	-0.238984
0.0109365 	-0.000521007 	0.00135192 	-0.238323
0.0109365 	-0.000521007 	0.00135192 	-0.238323
0.0109866 	-0.000475709 	0.00137322 	-0.237853
0.0109866 	-0.000475709 	0.00137322 	-0.237853
0.0110368 	-0.000428128 	0.00135837 	-0.23747
0.011087 	-0.000391998 	0.00127123 	-0.236966
0.011087 	-0.000391998 	0.00127123 	-0.236966
0.0111371 	-0.000372484 	0.0010792 	-0.236287
0.0111873 	-0.000372614 	0.000898984 	-0.235453
0.0111873 	-0.000372614 	0.000898984 	-0.235453
0.0112375 	-0.000469065 	0.00077677 	-0.233866
0.0112876 	-0.000565516 	0.000654556 	-0.232278
0.0112876 	-0.000565516 	0.000654556 	-0.232278
0.0113378 	-0.000786195 	0.000734784 	-0.230376
0.011388 	-0.00101069 	0.000821223 	-0.228464
0.011388 	-0.00101069 	0.000821223 	-0.228464
0.0114883 	-0.00156872 	0.00117039 	-0.2258
0.0114883 	-0.00156872 	0.00117039 	-0.2258
0.0115385 	-0.00179981 	0.00136063 	-0.224827
0.0115886 	-0.00200651 	0.00155379 	-0.223989
0.0115886 	-0.00200651 	0.00155379 	-0.223989
0.0116388 	-0.0020586 	0.00162131 	-0.222868
0.011689 	-0.00200867 	0.00160593 	-0.22156
0.011689 	-0.00200867 	0.00160593 	-0.22156
0.0117391 	-0.00184589 	0.00147596 	-0.219943
0.0117893 	-0.00159233 	0.00125381 	-0.218078
0.0117893 	-0.00159233 	0.00125381 	-0.218078
0.0118395 	-0.00134194 	0.00104415 	-0.21631
0.0118896 	-0.00109423 	0.000845041 	-0.214623
0.0118896 	-0.00109423 	0.000845041 	-0.214623
0.0119398 	-0.000917199 	0.000761694 	-0.213163
0.0119398 	-0.000917199 	0.000761694 	-0.213163
0.01199 	-0.000794508 	0.000767354 	-0.211879
0.01199 	-0.000794508 	0.000767354 	-0.211879
0.0120401 	-0.000747458 	0.000839023 	-0.210734
0.0120401 	-0.000747458 	0.000839023 	-0.210734
0.0120903 	-0.000746098 	0.000950565 	-0.209672
0.0120903 	-0.000746098 	0.000950565 	-0.209672
0.0121405 	-0.000774797 	0.000981889 	-0.208627
0.0121405 	-0.000774797 	0.000981889 	-0.208627
0.0121906 	-0.000815435 	0.000981353 	-0.20759
0.0121906 	-0.000815435 	0.000981353 	-0.20759
0.0122408 	-0.000857733 	0.000946392 	-0.206517
0.0122408 	-0.000857733 	0.000946392 	-0.206517
0.012291 	-0.000900348 	0.000904937 	-0.205438
0.012291 	-0.000900348 	0.000904937 	-0.205438
0.0123411 	-0.000950081 	0.000834403 	-0.204328
0.0123411 	-0.000950081 	0.000834403 	-0.204328
0.0123913 	-0.00100858 	0.000754302 	-0.203226
0.0123913 	-0.00100858 	0.000754302 	-0.203226
0.0124415 	-0.00110397 	0.000633921 	-0.202152
0.0124916 	-0.00123703 	0.000568732 	-0.20113
0.0124916 	-0.00123703 	0.000568732 	-0.20113
0.012592 	-0.00163254 	0.000688837 	-0.199241
0.012592 	-0.00163254 	0.000688837 	-0.199241
0.0126421 	-0.0018534 	0.000843229 	-0.198308
0.0126923 	-0.00194893 	0.000941883 	-0.196941
0.0126923 	-0.00194893 	0.000941883 	-0.196941
0.0127425 	-0.0019775 	0.00099044 	-0.195376
0.0127425 	-0.0019775 	0.00099044 	-0.195376
0.0127926 	-0.00184139 	0.000910936 	-0.193335
0.0128428 	-0.0016287 	0.000742536 	-0.191207
0.0128428 	-0.0016287 	0.000742536 	-0.191207
0.012893 	-0.00136817 	0.000518624 	-0.189024
0.0129431 	-0.00116926 	0.000421004 	-0.18712
0.0129431 	-0.00116926 	0.000421004 	-0.18712
0.0129933 	-0.00102512 	0.000393213 	-0.185307
0.0130435 	-0.000964672 	0.000471359 	-0.18363
0.0130435 	-0.000964672 	0.000471359 	-0.18363
0.0130936 	-0.00097101 	0.000505262 	-0.181985
0.0131438 	-0.000997197 	0.000510557 	-0.180327
0.0131438 	-0.000997197 	0.000510557 	-0.180327
0.013194 	-0.00103754 	0.000467239 	-0.178622
0.0132441 	-0.00108004 	0.000431278 	-0.176848
0.0132441 	-0.00108004 	0.000431278 	-0.176848
0.0132943 	-0.00112294 	0.000401126 	-0.175026
0.0133445 	-0.00116515 	0.00038016 	-0.173135
0.0133445 	-0.00116515 	0.00038016 	-0.173135
0.0133946 	-0.00120506 	0.000356964 	-0.171154
0.0134448 	-0.00124344 	0.000331847 	-0.169104
0.0134448 	-0.00124344 	0.000331847 	-0.169104
0.013495 	-0.0012802 	0.000304438 	-0.166976
0.0135452 	-0.00131583 	0.00027676 	-0.164703
0.0135452 	-0.00131583 	0.00027676 	-0.164703
0.0136455 	-0.00138731 	0.000228219 	-0.159828
0.0136455 	-0.00138731 	0.000228219 	-0.159828
0.0136957 	-0.0014222 	0.000208315 	-0.157173
0.0137458 	-0.00145228 	0.00019002 	-0.154306
0.0137458 	-0.00145228 	0.00019002 	-0.154306
0.013796 	-0.00147623 	0.000171308 	-0.151255
0.0138462 	-0.00149319 	0.000152062 	-0.148
0.0138462 	-0.00149319 	0.000152062 	-0.148
0.0138963 	-0.00150269 	0.000132666 	-0.144519
0.0138963 	-0.00150269 	0.000132666 	-0.144519
0.0139465 	-0.00150434 	0.000116397 	-0.140701
0.0139967 	-0.00150066 	0.000102386 	-0.136584
0.0139967 	-0.00150066 	0.000102386 	-0.136584
0.0140468 	-0.00149173 	8.96223e-05 	-0.132147
0.0140468 	-0.00149173 	8.96223e-05 	-0.132147
0.014097 	-0.00147819 	7.79519e-05 	-0.127362
0.0141472 	-0.00146137 	6.78431e-05 	-0.122211
0.0141973 	-0.00144293 	5.98073e-05 	-0.116687
0.0141973 	-0.00144293 	5.98073e-05 	-0.116687
0.0142475 	-0.00142373 	5.38282e-05 	-0.110724
0.0142977 	-0.00140304 	4.86898e-05 	-0.104368
0.0143478 	-0.00137851 	4.38677e-05 	-0.0976001
0.0143478 	-0.00137851 	4.38677e-05 	-0.0976001
0.014398 	-0.00134772 	3.96835e-05 	-0.0904181
0.014398 	-0.00134772 	3.96835e-05 	-0.0904181
0.0144482 	-0.00130904 	3.62345e-05 	-0.0828452
0.0144983 	-0.00126197 	3.29809e-05 	-0.0749381
0.0144983 	-0.00126197 	3.29809e-05 	-0.0749381
0.0145485 	-0.00120722 	2.92274e-05 	-0.0667842
0.0145987 	-0.00114677 	2.45607e-05 	-0.0584935
0.0145987 	-0.00114677 	2.45607e-05 	-0.0584935
0.0146488 	-0.00108317 	1.87739e-05 	-0.0501851
0.014699 	-0.00101834 	1.18404e-05 	-0.041977
0.014699 	-0.00101834 	1.18404e-05 	-0.041977
0.0147492 	-0.000952233 	4.04455e-06 	-0.0339904
0.0147993 	-0.000881062 	-3.98152e-06 	-0.0263756
0.0147993 	-0.000881062 	-3.98152e-06 	-0.0263756
0.0148495 	-0.000794757 	-9.75191e-06 	-0.019342
0.0148495 	-0.000794757 	-9.75191e-06 	-0.019342
0.0148997 	-0.000654329 	-1.10387e-05 	-0.0129855
0.0148997 	-0.000654329 	-1.10387e-05 	-0.0129855
0.0149498 	-0.000388863 	-7.6101e-06 	-0.00684755
0.0149498 	-0.000388863 	-7.6101e-06 	-0.00684755
0.015 	0 	0 	0
