/*--------------------------------*- C++ -*----------------------------------*\
| =========                 |                                                 |
| \\      /  F ield         | OpenFOAM: The Open Source CFD Toolbox           |
|  \\    /   O peration     | Version:  v1906                                 |
|   \\  /    A nd           | Web:      www.OpenFOAM.com                      |
|    \\/     M anipulation  |                                                 |
\*---------------------------------------------------------------------------*/
FoamFile
{
    version     2.0;
    format      ascii;
    class       volScalarField;
    location    "99.6";
    object      k;
}
// * * * * * * * * * * * * * * * * * * * * * * * * * * * * * * * * * * * * * //

dimensions      [0 2 -2 0 0 0 0];


internalField   nonuniform List<scalar> 
634
(
0.000104321
0.000297563
0.000540465
0.000250277
0.000103839
0.00030586
0.000553988
0.000257628
0.000103719
0.000314453
0.000567243
0.000266196
0.000103837
0.000323358
0.000580131
0.000275985
0.000104101
0.000332651
0.000592537
0.000287199
0.000104472
0.000342356
0.000604348
0.000300022
0.000104938
0.000352475
0.000615464
0.000314622
0.000105495
0.000363089
0.000625803
0.00033113
0.00010613
0.000374311
0.000635278
0.000349626
0.000106831
0.000386275
0.000643799
0.000370146
0.000107583
0.000399135
0.000651267
0.000392659
0.000108378
0.000413061
0.00065759
0.000416567
0.000109218
0.000428228
0.0006627
0.000442047
0.000110127
0.0004448
0.000666607
0.000460764
0.000111182
0.000462904
0.000669386
0.000457306
0.000112497
0.000482619
0.000671136
0.000446608
0.000114158
0.00050402
0.000671954
0.000436531
0.000116195
0.000527005
0.000671927
0.000427137
0.000118634
0.000550799
0.000671134
0.000418789
0.000121526
0.000574004
0.000669645
0.000411781
0.000124981
0.000587096
0.000667526
0.000406208
0.000129073
0.000580329
0.000664841
0.000402051
0.000133805
0.00056949
0.000661649
0.000399236
0.000139148
0.000558685
0.000658006
0.000397659
0.000145009
0.000547772
0.000653966
0.000397205
0.000151258
0.000537362
0.000649581
0.000397752
0.000157822
0.000527857
0.000644908
0.000399176
0.000164682
0.00051946
0.000640005
0.00040136
0.000171827
0.000512233
0.00063494
0.000404191
0.000179265
0.000506169
0.000629786
0.000407569
0.000187033
0.000501228
0.000624632
0.000411407
0.000195177
0.00049735
0.000619594
0.000415629
0.000203739
0.000494467
0.000614783
0.000420173
0.000212762
0.000492505
0.000610053
0.00042499
0.000222275
0.000491397
0.000604194
0.000430043
0.0002323
0.000491078
0.00059568
0.000435311
0.000242845
0.000491491
0.000584561
0.000440789
0.000253916
0.000492588
0.000572851
0.000446473
0.000265525
0.000494326
0.000562006
0.00045237
0.000277695
0.000496669
0.000552038
0.000458497
0.000290436
0.000499584
0.000542605
0.000464887
0.000303748
0.000503048
0.000532984
0.000471588
0.000317622
0.000507039
0.000522265
0.000478664
0.000332043
0.000511547
0.000509997
0.000486212
0.000346987
0.000516572
0.000496402
0.000494332
0.000362416
0.000522128
0.000482013
0.000502939
0.000378296
0.00052825
0.000467181
0.000511401
0.000394605
0.000534966
0.000451967
0.00051841
0.000411273
0.000542126
0.000436252
0.000522531
0.000428106
0.000549089
0.000419832
0.000523304
0.000444802
0.0005548
0.000402358
0.000521871
0.000461052
0.000558052
0.000383625
0.000519413
0.000476582
0.000558381
0.0003636
0.000516347
0.00049112
0.000556313
0.000342364
0.000512567
0.000504345
0.000552441
0.000320039
0.000507406
0.000515884
0.000546801
0.000296756
0.000500167
0.00052531
0.000538919
0.000272653
0.000490192
0.000532143
0.000528147
0.00024789
0.00047699
0.000535837
0.000513918
0.000222656
0.000460216
0.000535781
0.000495819
0.000197172
0.000439601
0.000531315
0.000473545
0.000171653
0.00041493
0.000521746
0.000446855
0.000146375
0.000386071
0.000506375
0.000415603
0.000121889
0.000353034
0.000484533
0.000379797
9.88464e-05
0.000316029
0.000455654
0.000339677
7.7876e-05
0.000275481
0.000419386
0.000295686
5.94872e-05
0.000231984
0.000375741
0.000248527
4.39865e-05
0.000187166
0.000325257
0.000200023
3.14362e-05
0.000143467
0.000268901
0.000152886
2.16712e-05
0.000103688
0.000209408
0.000110184
1.43629e-05
7.0256e-05
0.000151522
7.45016e-05
9.10096e-06
4.44642e-05
0.000100632
4.71257e-05
5.46336e-06
2.61849e-05
6.07855e-05
2.77985e-05
3.06218e-06
1.42319e-05
3.31418e-05
1.51714e-05
1.56552e-06
7.0114e-06
1.61039e-05
7.52286e-06
7.02361e-07
3.02198e-06
6.77303e-06
3.27027e-06
2.5847e-07
1.06602e-06
2.31646e-06
1.16533e-06
6.96003e-08
2.72305e-07
5.69647e-07
3.00369e-07
1.71809e-08
5.51125e-08
1.03753e-07
5.82116e-08
5.61862e-08
1.44829e-07
2.38557e-07
1.37464e-07
0.000127862
0.000143542
0.000218828
0.000108981
0.000130033
0.000140259
0.000220125
0.00011615
0.000134005
0.000138096
0.000222685
0.000124127
0.00013994
0.000137122
0.000226428
0.000132795
0.00014791
0.000137392
0.000231256
0.00014203
0.000157908
0.000138947
0.000237063
0.000151711
0.000169848
0.000141808
0.000243744
0.000161715
0.00018351
0.000145978
0.000251201
0.000171925
0.000198542
0.000151422
0.000259338
0.000182233
0.000214462
0.000158076
0.000268035
0.000192541
0.000230665
0.000165903
0.000277169
0.000202771
0.000246447
0.000174871
0.00028667
0.000212867
0.000260796
0.000184934
0.000296501
0.000222803
0.000272955
0.00019598
0.000306643
0.000232562
0.000283112
0.000207743
0.000317091
0.000242116
0.000291741
0.000220022
0.00032785
0.000251485
0.000299273
0.000232751
0.000338938
0.000260749
0.000306027
0.000245856
0.000350403
0.000270001
0.00031221
0.000259236
0.000362345
0.000279338
0.000317941
0.000272782
0.00037487
0.000288784
0.000323275
0.000286386
0.000387875
0.000298154
0.000328227
0.000299945
0.000402084
0.000307027
0.000332787
0.000313368
0.000418622
0.000315118
0.000336925
0.000326574
0.000435412
0.000322462
0.0003406
0.00033949
0.000448133
0.00032918
0.000343765
0.000352047
0.000456316
0.000335342
0.000346353
0.000364168
0.000462217
0.000340968
0.000348284
0.00037577
0.000467534
0.000346071
0.000349475
0.000386781
0.000472914
0.000350661
0.000349901
0.000397129
0.000478488
0.00035474
0.000349628
0.00040673
0.000484237
0.000358318
0.000348758
0.000415576
0.000490137
0.000361399
0.000347403
0.000423741
0.000496139
0.000363978
0.000345675
0.000431315
0.00050219
0.000366051
0.000343679
0.000438358
0.000508231
0.000367616
0.000341497
0.000444907
0.000514171
0.000368675
0.000339169
0.000450983
0.000519911
0.000369226
0.000336704
0.000456595
0.000525401
0.000369273
0.000334095
0.000461742
0.000530606
0.000368815
0.000331341
0.000466418
0.000535477
0.000367852
0.00032845
0.000470612
0.000539946
0.000366384
0.000325442
0.000474307
0.000543937
0.000364408
0.000322334
0.000477488
0.000547376
0.000361922
0.000319138
0.000480135
0.000550187
0.000358921
0.000315851
0.000482226
0.000552288
0.0003554
0.000312453
0.000483731
0.000553589
0.000351353
0.000308911
0.000484617
0.00055399
0.000346767
0.000305183
0.000484839
0.000553387
0.000341611
0.000301217
0.00048433
0.000551674
0.00033585
0.000296948
0.000482982
0.000548749
0.000329439
0.000292299
0.000480636
0.000544502
0.000322315
0.000287178
0.000477097
0.000538801
0.000314387
0.00028147
0.000472152
0.000531491
0.00030554
0.000275038
0.000465574
0.000522372
0.000295647
0.000267709
0.000457137
0.000511225
0.000284587
0.000259238
0.000446612
0.000497817
0.000272254
0.000249371
0.000433765
0.000481914
0.000258561
0.000237904
0.000418357
0.000463284
0.000243447
0.000224684
0.000400158
0.000441712
0.000226881
0.000209625
0.000378962
0.000417017
0.000208884
0.000192727
0.000354621
0.000389076
0.000189537
0.000174092
0.000327073
0.000357868
0.000168998
0.000153935
0.000296397
0.000323509
0.000147466
0.000132527
0.000262846
0.000286301
0.00012535
0.000110514
0.000226803
0.000246655
0.000103332
8.88051e-05
0.000189086
0.000205449
8.22457e-05
6.84308e-05
0.000151237
0.000164308
6.29485e-05
5.03578e-05
0.000115244
0.000125312
4.61653e-05
3.52781e-05
8.31444e-05
9.05847e-05
3.23441e-05
2.34659e-05
5.65138e-05
6.17587e-05
2.1583e-05
1.47713e-05
3.60415e-05
3.95449e-05
1.36596e-05
8.74513e-06
2.14546e-05
2.36525e-05
8.14069e-06
4.81289e-06
1.18049e-05
1.30829e-05
4.51185e-06
2.41159e-06
5.89031e-06
6.56439e-06
2.27654e-06
1.06145e-06
2.57307e-06
2.88389e-06
1.0088e-06
3.86529e-07
9.24166e-07
1.0414e-06
3.69943e-07
1.10498e-07
2.50389e-07
2.82443e-07
1.07105e-07
5.40174e-08
8.69176e-08
9.35967e-08
5.48851e-08
2.71636e-07
3.75535e-07
3.9088e-07
2.80512e-07
)
;

boundaryField
{
    leftWall
    {
        type            kqRWallFunction;
        value           nonuniform 0();
    }
    rightWall
    {
        type            kqRWallFunction;
        value           nonuniform List<scalar> 8(5.61862e-08 2.71636e-07 1.44829e-07 3.75535e-07 2.38557e-07 3.9088e-07 1.37464e-07 2.80512e-07);
    }
    leftSides_periodic0
    {
        type            cyclic;
    }
    leftSides_periodic1
    {
        type            cyclic;
    }
    rightSides_periodic0
    {
        type            cyclic;
    }
    rightSides_periodic1
    {
        type            cyclic;
    }
    leftInOut_periodic0
    {
        type            cyclic;
    }
    leftInOut_periodic1
    {
        type            cyclic;
    }
    rightInOut_periodic0
    {
        type            cyclic;
    }
    rightInOut_periodic1
    {
        type            cyclic;
    }
    procBoundary1to0
    {
        type            processor;
        value           nonuniform List<scalar> 
11
(
0.000105224
0.0002896
0.000526859
0.000244289
0.000244289
0.000218853
0.000102848
0.000127297
0.00014784
0.000218853
0.000102848
)
;
    }
    procBoundary1to0throughleftInOut_periodic0
    {
        type            processorCyclic;
        value           uniform 0.000526859;
    }
    procBoundary1to2throughleftSides_periodic0
    {
        type            processorCyclic;
        value           nonuniform List<scalar> 2(0.000180381 0.000117293);
    }
    procBoundary1to2throughrightSides_periodic0
    {
        type            processorCyclic;
        value           nonuniform List<scalar> 2(5.30348e-05 0.000179671);
    }
    procBoundary1to3
    {
        type            processor;
        value           nonuniform List<scalar> 
316
(
0.00058088
0.000276859
0.00019317
0.000300101
0.000603477
0.000282935
0.000189891
0.000309114
0.000626984
0.000290536
0.000187188
0.000318437
0.000651622
0.000299473
0.000185009
0.000328004
0.000677693
0.000309761
0.000183298
0.000337797
0.000705546
0.00032153
0.000182002
0.000347855
0.000735528
0.000334923
0.000181079
0.000358245
0.000767822
0.000350107
0.000180501
0.000369025
0.000802323
0.000367238
0.000180252
0.000380254
0.000838588
0.000386386
0.000180334
0.000392001
0.000880951
0.000407383
0.000180763
0.000404349
0.000934774
0.000432763
0.000181574
0.000417408
0.000977858
0.000467482
0.000182829
0.000431297
0.000974937
0.00050107
0.000184618
0.000446134
0.000953159
0.00050885
0.000187062
0.00046205
0.000930449
0.000503349
0.000190306
0.000479163
0.000910846
0.000496268
0.000194475
0.000497549
0.000895277
0.000490318
0.000199613
0.000517179
0.000883404
0.000486067
0.000205816
0.000539507
0.000874767
0.000483501
0.000213299
0.000568307
0.000869002
0.000482541
0.000222283
0.000601468
0.000865786
0.000483122
0.000232907
0.000620578
0.00086481
0.000485187
0.000245149
0.000620953
0.000865747
0.000488683
0.000260186
0.000614303
0.000868236
0.000493548
0.000281326
0.000606987
0.000871996
0.000499702
0.000305332
0.000600381
0.000876588
0.000507033
0.000316965
0.000594771
0.00088036
0.000515542
0.000318502
0.00059015
0.000878052
0.000525853
0.000317998
0.000586442
0.000866908
0.000537574
0.000318312
0.000583531
0.000852279
0.000545364
0.000320094
0.000581276
0.000837143
0.000547038
0.000323436
0.00057954
0.000822608
0.000545788
0.00032831
0.0005782
0.000808969
0.000544406
0.000334631
0.000577145
0.000795998
0.000543547
0.000342277
0.000576273
0.000783394
0.000543258
0.000351098
0.000575488
0.000770905
0.000543465
0.000360937
0.000574702
0.000758323
0.000544064
0.000371638
0.000573834
0.000745467
0.00054493
0.000383054
0.000572813
0.00073218
0.000545931
0.000395056
0.000571576
0.000718313
0.000546931
0.000407535
0.000570069
0.000703751
0.000547798
0.000420403
0.000568238
0.000688425
0.000548406
0.000433578
0.000566032
0.000672277
0.000548641
0.000446979
0.000563396
0.000655263
0.000548397
0.00046055
0.000560273
0.00063735
0.000547577
0.000474377
0.000556604
0.000618512
0.00054609
0.000488455
0.000552327
0.000598731
0.000543854
0.000502064
0.000547378
0.000577992
0.000540788
0.000514301
0.000541688
0.000556282
0.000536812
0.000524922
0.000535186
0.00053359
0.000531843
0.000534318
0.000527793
0.000509904
0.000525793
0.000542895
0.000519419
0.000485214
0.000518562
0.000550676
0.000509964
0.000459507
0.000510029
0.000557312
0.000499298
0.000432778
0.000500055
0.000562293
0.000487277
0.000405023
0.000488463
0.000565131
0.000473731
0.000376254
0.000475042
0.000565392
0.000458455
0.000346503
0.000459534
0.000562644
0.00044121
0.000315836
0.000441632
0.000556403
0.000421722
0.000284376
0.000420998
0.000546127
0.00039969
0.000252328
0.000397293
0.000531225
0.000374814
0.000220008
0.000370213
0.000511096
0.00034684
0.000187877
0.000339547
0.000485166
0.000315632
0.000156555
0.000305251
0.000452953
0.000281265
0.0001268
0.000267507
0.000414172
0.000244004
9.94349e-05
0.000226929
0.000368864
0.000204722
7.52261e-05
0.000184893
0.000317576
0.000164904
5.4729e-05
0.00014346
0.000261347
0.000126539
3.81762e-05
0.000105113
0.000202838
9.18288e-05
2.54474e-05
7.21985e-05
0.000146495
6.26407e-05
1.61317e-05
4.62222e-05
9.72459e-05
3.99733e-05
9.64881e-06
2.74346e-05
5.87515e-05
2.37399e-05
5.37378e-06
1.49687e-05
3.20312e-05
1.3004e-05
2.72614e-06
7.38032e-06
1.55502e-05
6.45338e-06
1.21413e-06
3.1802e-06
6.52904e-06
2.80423e-06
4.45904e-07
1.12572e-06
2.23095e-06
1.00292e-06
1.24915e-07
2.99012e-07
5.57795e-07
2.7076e-07
4.79982e-08
9.66885e-08
1.41153e-07
9.2748e-08
2.14402e-07
4.01302e-07
5.20325e-07
3.9522e-07
)
;
    }
    procBoundary1to3throughrightSides_periodic0
    {
        type            processorCyclic;
        value           nonuniform List<scalar> 
314
(
4.06202e-05
2.89353e-05
1.84718e-05
9.61082e-06
3.02328e-06
6.32872e-07
1e-15
1e-15
1e-15
1e-15
3.53709e-07
1.19581e-05
2.9471e-05
4.91396e-05
6.89189e-05
8.80047e-05
0.000106136
0.000123298
0.000139589
0.000155147
0.00017011
0.000184571
0.00019869
0.000212683
0.000226604
0.000240376
0.000253947
0.000267501
0.000281279
0.000295302
0.000309597
0.000324084
0.000338442
0.000352274
0.000365259
0.000377223
0.000388122
0.000397977
0.000406808
0.000414594
0.00042127
0.000426748
0.000430935
0.000433753
0.000435142
0.000435049
0.000433426
0.000430217
0.00042536
0.000418782
0.000410383
0.000400055
0.000387722
0.000373326
0.000356835
0.000338243
0.000317575
0.000294889
0.000270293
0.000243945
0.000215981
0.000186793
0.00015711
0.000127928
0.000100405
7.56794e-05
5.46357e-05
3.77056e-05
2.48222e-05
1.55287e-05
9.16432e-06
5.03526e-06
2.5186e-06
1.10377e-06
3.95565e-07
1.01325e-07
1.54293e-08
1.57371e-08
0.000175121
0.000171625
0.000169294
0.000168238
0.000168555
0.000170321
0.00017358
0.00017833
0.000184478
0.000191861
0.000200305
0.000209634
0.000219611
0.000229946
0.000240393
0.000250772
0.000261007
0.000271135
0.000281216
0.000291295
0.000301405
0.000311575
0.000321836
0.000332224
0.000342775
0.00035353
0.000364538
0.000375844
0.000387498
0.000399529
0.000411912
0.000424587
0.000437488
0.000450574
0.000463869
0.000477291
0.000490597
0.000503493
0.000515772
0.000527344
0.000538196
0.000548318
0.000557664
0.00056614
0.000573611
0.000579907
0.000584836
0.000588202
0.000589832
0.000589592
0.000587356
0.00058299
0.000576328
0.000567165
0.00055526
0.000540365
0.000522226
0.0005006
0.000475266
0.000446051
0.000412863
0.000375735
0.000334874
0.000290561
0.000243721
0.000196138
0.000150271
0.000108834
7.41034e-05
4.72383e-05
2.80599e-05
1.5391e-05
7.65116e-06
3.32635e-06
1.18292e-06
3.03866e-07
5.88692e-08
1.39444e-07
0.000184614
0.000189675
0.000195413
0.000201726
0.00020853
0.000215752
0.000223333
0.000231223
0.000239381
0.000247773
0.00025637
0.000265147
0.000274085
0.000283169
0.000292388
0.000301737
0.000311214
0.000320819
0.000330559
0.000340445
0.000350497
0.000360748
0.000371246
0.000382058
0.000393264
0.000404971
0.000417265
0.000430128
0.000443469
0.000457183
0.000471163
0.000485309
0.00049952
0.000513708
0.000527802
0.000541896
0.000556158
0.00057044
0.00058432
0.00059737
0.000609386
0.000620361
0.000630354
0.000639381
0.000647397
0.000654315
0.000660032
0.000664441
0.000667417
0.000668807
0.000668432
0.000666096
0.000661592
0.000654707
0.000645212
0.000632847
0.000617331
0.000598367
0.000575649
0.000548875
0.000517776
0.000482151
0.000441917
0.000397166
0.000348172
0.000295611
0.000241205
0.000187582
0.000137918
9.52129e-05
6.13898e-05
3.67768e-05
2.0294e-05
1.01335e-05
4.42225e-06
1.57897e-06
4.09204e-07
8.73556e-08
2.44378e-07
0.000120074
0.00012404
0.000129093
0.000135113
0.000141945
0.000149464
0.000157587
0.000166235
0.000175336
0.000184823
0.000194629
0.000204689
0.000214941
0.00022533
0.0002358
0.000246295
0.000256668
0.000266716
0.000276442
0.000285781
0.00029421
0.00030147
0.000307928
0.000314253
0.000320761
0.000327517
0.000334489
0.000341639
0.000348939
0.000356376
0.000363964
0.000371717
0.000379633
0.000387702
0.000395947
0.000404404
0.000412942
0.00042125
0.000428949
0.000435785
0.000441691
0.000446728
0.000450979
0.000454476
0.000457183
0.000459008
0.000459821
0.000459473
0.000457802
0.000454643
0.000449834
0.000443229
0.000434702
0.000424141
0.000411432
0.000396464
0.000379136
0.000359371
0.000337131
0.000312437
0.000285384
0.000256159
0.000224952
0.000192381
0.000159439
0.000127407
9.77073e-05
7.16381e-05
5.0077e-05
3.32974e-05
2.09913e-05
1.24663e-05
6.88929e-06
3.46645e-06
1.52903e-06
5.52323e-07
1.44098e-07
2.77946e-08
6.28521e-08
)
;
    }
}


// ************************************************************************* //
