/*--------------------------------*- C++ -*----------------------------------*\
| =========                 |                                                 |
| \\      /  F ield         | OpenFOAM: The Open Source CFD Toolbox           |
|  \\    /   O peration     | Version:  v1906                                 |
|   \\  /    A nd           | Web:      www.OpenFOAM.com                      |
|    \\/     M anipulation  |                                                 |
\*---------------------------------------------------------------------------*/
FoamFile
{
    version     2.0;
    format      ascii;
    class       volScalarField;
    location    "99.6";
    object      p;
}
// * * * * * * * * * * * * * * * * * * * * * * * * * * * * * * * * * * * * * //

dimensions      [1 -1 -2 0 0 0 0];


internalField   nonuniform List<scalar> 
634
(
99930.3
99930.9
99927.4
99931.6
99930.3
99931.4
99926.1
99932
99930.2
99931.9
99924.7
99932.3
99930.2
99932.4
99923.2
99932.7
99930.1
99932.9
99921.8
99933
99930
99933.5
99920.3
99933.4
99930
99934
99918.9
99933.8
99929.9
99934.6
99917.4
99934.2
99929.8
99935.2
99915.9
99934.6
99929.7
99935.8
99914.5
99935
99929.6
99936.4
99913
99935.4
99929.5
99937.1
99911.5
99935.8
99929.4
99937.7
99910.1
99936
99929.2
99938.3
99908.6
99936.2
99929.1
99939
99907.2
99936.3
99929
99939.7
99905.8
99936.7
99928.8
99940.3
99904.4
99937.1
99928.7
99941
99903
99937.7
99928.6
99941.6
99901.6
99938.2
99928.4
99942
99900.2
99938.8
99928.3
99942.3
99898.9
99939.4
99928.1
99942.6
99897.6
99940
99927.9
99943.1
99896.3
99940.6
99927.7
99943.8
99895
99941.2
99927.6
99944.6
99893.8
99941.8
99927.4
99945.4
99892.6
99942.4
99927.2
99946.2
99891.4
99942.9
99927
99946.9
99890.3
99943.5
99926.8
99947.7
99889.2
99944.1
99926.6
99948.5
99888.1
99944.7
99926.3
99949.2
99887.1
99945.2
99926.1
99949.9
99886.1
99945.8
99925.9
99950.7
99885.1
99946.3
99925.7
99951.4
99884.2
99946.8
99925.4
99952.1
99883.4
99947.3
99925.2
99952.8
99882.8
99947.8
99925
99953.4
99882.2
99948.3
99924.7
99954
99881.6
99948.8
99924.5
99954.7
99881
99949.2
99924.3
99955.2
99880.3
99949.6
99924
99955.8
99879.7
99950.1
99923.8
99956.3
99879.1
99950.5
99923.6
99956.9
99878.6
99950.8
99923.4
99957.4
99878.2
99951.2
99923.2
99957.8
99877.8
99951.6
99922.9
99958.3
99877.4
99951.9
99922.7
99958.7
99877
99952.2
99922.5
99959.1
99876.7
99952.4
99922.3
99959.5
99876.3
99952.7
99922.1
99959.8
99876
99952.9
99922
99960.1
99875.7
99953.1
99921.8
99960.4
99875.5
99953.3
99921.6
99960.6
99875.3
99953.5
99921.5
99960.8
99875
99953.7
99921.3
99961
99874.9
99953.9
99921.2
99961.3
99874.7
99954
99921.1
99961.5
99874.5
99954.2
99921
99961.6
99874.4
99954.3
99920.9
99961.8
99874.2
99954.4
99920.8
99961.9
99874.1
99954.5
99920.7
99962
99874
99954.6
99920.6
99962.2
99873.9
99954.7
99920.5
99962.3
99873.8
99954.8
99920.5
99962.3
99873.7
99954.8
99920.4
99962.4
99873.6
99954.9
99920.4
99962.5
99873.6
99954.9
99920.3
99962.5
99873.5
99955
99920.3
99962.6
99873.5
99955
99920.2
99962.6
99873.4
99955
99920.2
99962.7
99873.4
99955.1
99920.2
99962.7
99873.3
99955.1
99920.2
99962.7
99873.3
99955.1
99920.2
99962.7
99873.2
99955.1
99920.1
99962.8
99873.2
99955.1
99920.1
99962.8
99873.2
99955.1
99920.1
99962.8
99873.1
99955.2
99920.1
99962.8
99873.1
99955.2
99920.1
99962.8
99873.1
99955.2
99920.1
99962.8
99873.1
99955.2
99920.1
99962.8
99537.2
99540.5
99542.7
99539
99537.2
99540.5
99542.7
99539
99537.3
99540.6
99542.7
99539.1
99537.3
99540.6
99542.7
99539.1
99537.4
99540.7
99542.7
99539.2
99537.4
99540.7
99542.7
99539.2
99537.5
99540.8
99542.7
99539.3
99537.6
99540.8
99542.7
99539.3
99537.6
99540.9
99542.7
99539.3
99537.7
99540.9
99542.7
99539.4
99537.8
99541
99542.7
99539.4
99537.8
99541
99542.7
99539.5
99537.9
99541.1
99542.7
99539.5
99538
99541.1
99542.7
99539.6
99538.1
99541.1
99542.7
99539.6
99538.2
99541.2
99542.7
99539.6
99538.3
99541.2
99542.7
99539.7
99538.4
99541.2
99542.7
99539.7
99538.5
99541.3
99542.7
99539.7
99538.6
99541.3
99542.7
99539.8
99538.7
99541.3
99542.7
99539.8
99538.8
99541.4
99542.7
99539.8
99538.9
99541.4
99542.7
99539.8
99539.1
99541.4
99542.7
99539.8
99539.2
99541.5
99542.6
99539.9
99539.3
99541.5
99542.6
99539.9
99539.4
99541.5
99542.6
99539.9
99539.5
99541.5
99542.6
99539.9
99539.6
99541.6
99542.6
99539.9
99539.7
99541.6
99542.6
99539.9
99539.9
99541.6
99542.6
99539.9
99540
99541.6
99542.6
99540
99540.1
99541.7
99542.6
99540
99540.2
99541.7
99542.6
99540
99540.3
99541.7
99542.6
99540
99540.4
99541.7
99542.6
99540
99540.5
99541.7
99542.6
99540
99540.6
99541.7
99542.6
99540
99540.7
99541.8
99542.6
99540
99540.8
99541.8
99542.5
99540
99540.9
99541.8
99542.5
99540
99541
99541.8
99542.5
99540
99541
99541.8
99542.5
99540
99541.1
99541.8
99542.5
99540
99541.2
99541.8
99542.5
99540
99541.3
99541.8
99542.5
99540
99541.3
99541.9
99542.5
99540
99541.4
99541.9
99542.5
99540
99541.4
99541.9
99542.5
99540
99541.5
99541.9
99542.5
99540
99541.6
99541.9
99542.5
99540
99541.6
99541.9
99542.5
99540
99541.6
99541.9
99542.5
99540
99541.7
99541.9
99542.5
99540
99541.7
99541.9
99542.5
99540
99541.8
99541.9
99542.5
99540
99541.8
99541.9
99542.5
99540
99541.8
99541.9
99542.5
99540
99541.8
99541.9
99542.5
99540
99541.9
99541.9
99542.5
99540
99541.9
99541.9
99542.5
99540
99541.9
99541.9
99542.5
99540
99541.9
99541.9
99542.5
99540
99541.9
99541.9
99542.5
99540
99541.9
99541.9
99542.5
99540
99541.9
99541.9
99542.5
99540
99542
99541.9
99542.5
99540
99542
99541.9
99542.5
99540
99542
99541.9
99542.5
99540
99542
99541.9
99542.5
99540
99542
99541.9
99542.5
99540
99542
99541.9
99542.5
99540
99542
99541.9
99542.5
99540
99542
99541.9
99542.5
99540
99542
99541.9
99542.5
99540
99542
99541.9
99542.5
99540
99542
99541.9
99542.5
99540
99542
99541.9
99542.5
99540
99542
99541.9
99542.5
99540
)
;

boundaryField
{
    leftWall
    {
        type            calculated;
        value           nonuniform 0();
    }
    rightWall
    {
        type            calculated;
        value           nonuniform List<scalar> 8(99873.1 99542 99955.2 99541.9 99920.1 99542.5 99962.8 99540);
    }
    leftSides_periodic0
    {
        type            cyclic;
    }
    leftSides_periodic1
    {
        type            cyclic;
    }
    rightSides_periodic0
    {
        type            cyclic;
    }
    rightSides_periodic1
    {
        type            cyclic;
    }
    leftInOut_periodic0
    {
        type            cyclic;
    }
    leftInOut_periodic1
    {
        type            cyclic;
    }
    rightInOut_periodic0
    {
        type            cyclic;
    }
    rightInOut_periodic1
    {
        type            cyclic;
    }
    procBoundary1to0
    {
        type            processor;
        value           nonuniform List<scalar> 
11
(
99930.3
99930.3
99928.7
99931.3
99931.3
99542.8
99539
99537.2
99540.5
99542.8
99539
)
;
    }
    procBoundary1to0throughleftInOut_periodic0
    {
        type            processorCyclic;
        value           uniform 99928.7;
    }
    procBoundary1to2throughleftSides_periodic0
    {
        type            processorCyclic;
        value           nonuniform List<scalar> 2(99066.9 99069.7);
    }
    procBoundary1to2throughrightSides_periodic0
    {
        type            processorCyclic;
        value           nonuniform List<scalar> 2(99069.3 99067.9);
    }
    procBoundary1to3
    {
        type            processor;
        value           nonuniform List<scalar> 
316
(
99278.7
99274
99275.3
99277.1
99277.6
99274.5
99275.1
99277.7
99276.5
99274.9
99274.9
99278.3
99275.4
99275.4
99274.6
99278.9
99274.2
99275.9
99274.4
99279.5
99273
99276.4
99274.1
99280.2
99271.8
99276.9
99273.8
99280.9
99270.6
99277.4
99273.6
99281.6
99269.3
99277.9
99273.3
99282.3
99268.1
99278.5
99273
99283.1
99267.2
99279
99272.6
99283.8
99266.6
99279.4
99272.3
99284.6
99266.2
99279.7
99272
99285.4
99265.7
99279.8
99271.6
99286.2
99264.8
99280.1
99271.2
99287
99263.5
99280.6
99270.9
99287.9
99261.9
99281.3
99270.5
99288.7
99260.3
99282.1
99270.1
99289.6
99258.7
99283
99269.8
99290.3
99257
99283.9
99269.4
99290.8
99255.4
99284.8
99269
99291.1
99253.7
99285.7
99268.6
99291.5
99252.1
99286.6
99268.2
99292
99250.4
99287.6
99267.9
99292.8
99248.7
99288.5
99267.7
99293.8
99247
99289.5
99267.5
99294.9
99245.6
99290.5
99267.3
99296
99244.6
99291.4
99266.9
99297
99243.9
99292.1
99266.5
99298.1
99243
99292.6
99266
99299.2
99241.9
99293.1
99265.5
99300.2
99240.5
99293.7
99264.9
99301.3
99239.1
99294.5
99264.4
99302.3
99237.7
99295.4
99263.9
99303.3
99236.3
99296.3
99263.4
99304.3
99235
99297.2
99262.8
99305.3
99233.8
99298
99262.3
99306.3
99232.6
99298.8
99261.8
99307.2
99231.4
99299.6
99261.3
99308.1
99230.3
99300.4
99260.8
99309
99229.2
99301.1
99260.3
99309.9
99228.2
99301.8
99259.8
99310.7
99227.2
99302.5
99259.4
99311.5
99226.3
99303.2
99258.9
99312.2
99225.4
99303.8
99258.4
99313
99224.6
99304.4
99258
99313.6
99223.8
99305
99257.6
99314.3
99223
99305.5
99257.3
99314.9
99222.3
99306
99256.9
99315.5
99221.6
99306.5
99256.6
99316.1
99221
99307
99256.2
99316.6
99220.5
99307.4
99255.9
99317.1
99220
99307.8
99255.6
99317.5
99219.5
99308.2
99255.3
99317.9
99219.1
99308.5
99255.1
99318.3
99218.7
99308.8
99254.8
99318.6
99218.3
99309.1
99254.6
99319
99218
99309.4
99254.4
99319.2
99217.7
99309.6
99254.2
99319.5
99217.5
99309.8
99254.1
99319.7
99217.3
99310
99253.9
99319.9
99217.1
99310.1
99253.8
99320.1
99216.9
99310.3
99253.7
99320.2
99216.8
99310.4
99253.6
99320.3
99216.7
99310.5
99253.5
99320.5
99216.6
99310.6
99253.4
99320.6
99216.5
99310.6
99253.3
99320.6
99216.4
99310.7
99253.3
99320.7
99216.3
99310.8
99253.2
99320.8
99216.2
99310.8
99253.2
99320.8
99216.2
99310.8
99253.1
99320.9
99216.1
99310.9
99253.1
99320.9
99216.1
99310.9
99253.1
99320.9
99216
99310.9
99253.1
99321
99216
99311
99253.1
99321
99216
99311
99253
99321
99215.9
99311
99253
99321
99215.9
99311
99253
99321.1
99215.9
99311
99253
99321.1
)
;
    }
    procBoundary1to3throughrightSides_periodic0
    {
        type            processorCyclic;
        value           nonuniform List<scalar> 
314
(
99069.3
99069.3
99069.2
99069.2
99069.2
99069.2
99069.2
99069.2
99069.1
99069.1
99069.1
99069.1
99069.1
99069.1
99069.1
99069.1
99069.1
99069.1
99069.2
99069.2
99069.2
99069.2
99069.3
99069.3
99069.3
99069.3
99069.4
99069.4
99069.4
99069.5
99069.5
99069.6
99069.6
99069.6
99069.7
99069.7
99069.7
99069.8
99069.8
99069.8
99069.8
99069.9
99069.9
99069.9
99070
99070
99070
99070
99070.1
99070.1
99070.1
99070.1
99070.1
99070.2
99070.2
99070.2
99070.2
99070.2
99070.2
99070.2
99070.2
99070.3
99070.3
99070.3
99070.3
99070.3
99070.3
99070.3
99070.3
99070.3
99070.3
99070.3
99070.3
99070.3
99070.3
99070.3
99070.3
99070.3
99067.9
99067.9
99067.9
99068
99068
99068
99068
99068.1
99068.1
99068.1
99068.1
99068.1
99068.2
99068.2
99068.2
99068.2
99068.2
99068.2
99068.3
99068.3
99068.3
99068.3
99068.3
99068.3
99068.3
99068.4
99068.4
99068.4
99068.4
99068.4
99068.4
99068.4
99068.4
99068.4
99068.4
99068.4
99068.4
99068.4
99068.4
99068.4
99068.4
99068.4
99068.4
99068.4
99068.4
99068.4
99068.4
99068.4
99068.4
99068.4
99068.4
99068.4
99068.4
99068.4
99068.4
99068.4
99068.4
99068.4
99068.4
99068.4
99068.4
99068.4
99068.4
99068.4
99068.4
99068.4
99068.4
99068.4
99068.4
99068.4
99068.4
99068.4
99068.4
99068.4
99068.4
99068.4
99068.4
99068.4
99066.9
99066.8
99066.7
99066.6
99066.5
99066.4
99066.3
99066.2
99066.1
99065.9
99065.8
99065.7
99065.6
99065.5
99065.4
99065.2
99065.1
99065
99064.9
99064.8
99064.7
99064.5
99064.4
99064.3
99064.2
99064.1
99064
99063.9
99063.8
99063.8
99063.7
99063.6
99063.5
99063.4
99063.4
99063.3
99063.2
99063.2
99063.1
99063.1
99063
99063
99062.9
99062.9
99062.8
99062.8
99062.7
99062.7
99062.7
99062.6
99062.6
99062.6
99062.6
99062.5
99062.5
99062.5
99062.5
99062.5
99062.5
99062.4
99062.4
99062.4
99062.4
99062.4
99062.4
99062.4
99062.4
99062.4
99062.4
99062.4
99062.4
99062.4
99062.4
99062.4
99062.4
99062.4
99062.4
99062.4
99062.4
99069.8
99069.8
99069.8
99069.8
99069.8
99069.8
99069.8
99069.8
99069.8
99069.8
99069.8
99069.8
99069.8
99069.8
99069.8
99069.8
99069.8
99069.8
99069.7
99069.7
99069.7
99069.7
99069.7
99069.7
99069.7
99069.7
99069.7
99069.6
99069.6
99069.6
99069.6
99069.6
99069.5
99069.5
99069.5
99069.5
99069.5
99069.4
99069.4
99069.4
99069.4
99069.4
99069.3
99069.3
99069.3
99069.3
99069.3
99069.2
99069.2
99069.2
99069.2
99069.2
99069.2
99069.2
99069.1
99069.1
99069.1
99069.1
99069.1
99069.1
99069.1
99069.1
99069.1
99069.1
99069.1
99069.1
99069.1
99069.1
99069.1
99069.1
99069.1
99069.1
99069.1
99069
99069
99069
99069
99069
99069
)
;
    }
}


// ************************************************************************* //
