/*--------------------------------*- C++ -*----------------------------------*\
| =========                 |                                                 |
| \\      /  F ield         | OpenFOAM: The Open Source CFD Toolbox           |
|  \\    /   O peration     | Version:  v1906                                 |
|   \\  /    A nd           | Web:      www.OpenFOAM.com                      |
|    \\/     M anipulation  |                                                 |
\*---------------------------------------------------------------------------*/
FoamFile
{
    version     2.0;
    format      ascii;
    class       volVectorField;
    location    "99.6";
    object      U;
}
// * * * * * * * * * * * * * * * * * * * * * * * * * * * * * * * * * * * * * //

dimensions      [0 1 -1 0 0 0 0];


internalField   nonuniform List<vector> 
634
(
(0.00223019 0.000188445 -0.289897)
(-0.0070352 0.0023464 -0.278258)
(0.00129944 -0.00757141 -0.28052)
(0.00863388 0.000317208 -0.278458)
(0.00201862 0.000347145 -0.290279)
(-0.0068202 0.00235346 -0.277408)
(0.00131032 -0.00773017 -0.279351)
(0.00824227 0.000316291 -0.278239)
(0.00177902 0.00049048 -0.290825)
(-0.0066268 0.00237207 -0.276621)
(0.00131953 -0.00787538 -0.278155)
(0.00786706 0.000297924 -0.27804)
(0.0015149 0.000649848 -0.291476)
(-0.0064557 0.00238165 -0.275862)
(0.00132569 -0.00797947 -0.276908)
(0.00750423 0.000286237 -0.277842)
(0.0012307 0.000797122 -0.292166)
(-0.00629969 0.00237827 -0.275105)
(0.00132845 -0.00808475 -0.275611)
(0.00715187 0.000271576 -0.277645)
(0.000930531 0.000941828 -0.292861)
(-0.00615496 0.00237202 -0.274348)
(0.00132751 -0.00818295 -0.274268)
(0.0068062 0.000257344 -0.277449)
(0.000618364 0.00108275 -0.293539)
(-0.00601856 0.0023625 -0.273591)
(0.00132242 -0.00827235 -0.272879)
(0.00646028 0.000246335 -0.277247)
(0.000298097 0.00121877 -0.294192)
(-0.00588793 0.00234999 -0.272833)
(0.00131257 -0.00835315 -0.271442)
(0.00610238 0.000238058 -0.277027)
(-2.61443e-05 0.00135051 -0.294814)
(-0.00576075 0.00233468 -0.272073)
(0.00129724 -0.00842446 -0.269956)
(0.00571518 0.000224582 -0.276765)
(-0.000349108 0.00147811 -0.295397)
(-0.00563463 0.00231636 -0.271312)
(0.00127576 -0.00848648 -0.26842)
(0.00527956 0.000191029 -0.276438)
(-0.000663391 0.00160146 -0.295935)
(-0.00550661 0.00229493 -0.270548)
(0.00124749 -0.00853955 -0.266834)
(0.00460721 0.000262648 -0.275813)
(-0.000959081 0.00172038 -0.296425)
(-0.00537256 0.00226998 -0.269782)
(0.00121273 -0.00858135 -0.265198)
(0.00341195 0.000360022 -0.274315)
(-0.0012268 0.00183372 -0.296862)
(-0.00522634 0.00224363 -0.269011)
(0.00117454 -0.00860507 -0.263515)
(0.00142574 0.000186894 -0.271121)
(-0.00146217 0.0019349 -0.297245)
(-0.00505889 0.00221975 -0.268229)
(0.00113667 -0.00860632 -0.261789)
(-0.00151803 -0.000118144 -0.265703)
(-0.00165966 0.00201926 -0.29757)
(-0.00485787 0.002196 -0.267424)
(0.00110151 -0.00858779 -0.260026)
(-0.0034466 1.00579e-05 -0.261949)
(-0.00181354 0.0020854 -0.297831)
(-0.00460983 0.0021414 -0.266582)
(0.00106962 -0.00855856 -0.258228)
(-0.00400537 0.000219361 -0.260601)
(-0.00192155 0.00213815 -0.298021)
(-0.00429703 0.00212108 -0.265681)
(0.00104205 -0.00852532 -0.256399)
(-0.00404402 0.000223261 -0.259895)
(-0.00198768 0.0021852 -0.298138)
(-0.00366907 0.00222625 -0.264503)
(0.00101957 -0.00848497 -0.254538)
(-0.00403579 0.000154909 -0.259143)
(-0.00201788 0.00222967 -0.298177)
(-0.00237537 0.00222966 -0.262501)
(0.00100114 -0.0084276 -0.252647)
(-0.00405294 0.000112723 -0.258354)
(-0.00201758 0.00226439 -0.298131)
(-0.000215618 0.00191929 -0.258801)
(0.000986716 -0.0083512 -0.250724)
(-0.00405349 0.000104976 -0.257576)
(-0.00199969 0.00228697 -0.29799)
(0.00274361 0.00157337 -0.253365)
(0.000980178 -0.00826193 -0.24877)
(-0.00405389 0.000100337 -0.256779)
(-0.00198488 0.00229603 -0.29774)
(0.00415312 0.00186145 -0.250403)
(0.000987252 -0.00816887 -0.246784)
(-0.00407323 9.38315e-05 -0.255937)
(-0.0019948 0.00229493 -0.297368)
(0.00438627 0.00202709 -0.249135)
(0.00100901 -0.00807615 -0.244765)
(-0.00411961 8.67542e-05 -0.25504)
(-0.00204058 0.0022889 -0.296866)
(0.0043659 0.00198063 -0.248071)
(0.00104219 -0.0079828 -0.242712)
(-0.00419628 7.92656e-05 -0.25408)
(-0.00212111 0.00227987 -0.296238)
(0.00444429 0.00184235 -0.246854)
(0.00108229 -0.00788734 -0.240623)
(-0.00430426 7.1981e-05 -0.253054)
(-0.00222863 0.00226722 -0.295497)
(0.00455585 0.00176145 -0.245632)
(0.00112707 -0.00778958 -0.238496)
(-0.00444335 6.50306e-05 -0.251959)
(-0.00235655 0.00225191 -0.294655)
(0.00462597 0.00174783 -0.244442)
(0.0011755 -0.00768933 -0.23633)
(-0.00461274 5.83663e-05 -0.250795)
(-0.0024994 0.00223526 -0.293718)
(0.00468824 0.00171093 -0.243254)
(0.00122653 -0.00758707 -0.234123)
(-0.00481116 5.19861e-05 -0.24956)
(-0.00265109 0.00221808 -0.292692)
(0.00476037 0.00167411 -0.242048)
(0.00127943 -0.00748455 -0.231872)
(-0.00503694 4.58973e-05 -0.248256)
(-0.00280556 0.00220028 -0.291587)
(0.00485154 0.00163488 -0.240813)
(0.00133375 -0.00738236 -0.229576)
(-0.00528816 4.00791e-05 -0.246881)
(-0.00295715 0.00218132 -0.290411)
(0.00496617 0.00159476 -0.239539)
(0.00138911 -0.00726123 -0.227232)
(-0.00556264 3.45205e-05 -0.245438)
(-0.00310132 0.00216094 -0.289172)
(0.00510598 0.00155396 -0.238219)
(0.00144485 -0.00716017 -0.224839)
(-0.00585823 2.92803e-05 -0.243925)
(-0.00323509 0.00213921 -0.287871)
(0.00527116 0.00151252 -0.23685)
(0.00150704 -0.0070983 -0.22237)
(-0.00617214 2.44922e-05 -0.242343)
(-0.00335687 0.00211609 -0.286505)
(0.00546047 0.00147056 -0.235426)
(0.00159041 -0.0070016 -0.219726)
(-0.00649952 2.00895e-05 -0.240691)
(-0.00346598 0.00209152 -0.285068)
(0.00567037 0.00142802 -0.233944)
(0.00170511 -0.00682695 -0.216693)
(-0.00683421 1.55886e-05 -0.238968)
(-0.00356206 0.00206527 -0.283555)
(0.00589581 0.0013843 -0.232399)
(0.00184469 -0.00659164 -0.21316)
(-0.00717069 1.07867e-05 -0.237174)
(-0.00364505 0.00203693 -0.28196)
(0.00613188 0.0013391 -0.230789)
(0.00197271 -0.00644022 -0.209517)
(-0.0075062 6.35155e-06 -0.235304)
(-0.00371519 0.00200695 -0.280281)
(0.00637559 0.00129324 -0.22911)
(0.00205821 -0.00640007 -0.206248)
(-0.00784135 3.23064e-06 -0.233358)
(-0.00377266 0.00197638 -0.27851)
(0.00662643 0.00124815 -0.227356)
(0.00211351 -0.00633465 -0.203306)
(-0.00817771 1.68442e-06 -0.231329)
(-0.0038175 0.00194521 -0.276644)
(0.00688429 0.00120469 -0.225522)
(0.00216672 -0.00620721 -0.200375)
(-0.00851583 1.27213e-06 -0.229214)
(-0.00384949 0.00191273 -0.274679)
(0.00714782 0.00116282 -0.223605)
(0.00223895 -0.00603855 -0.197261)
(-0.00885492 1.97728e-06 -0.227007)
(-0.00386843 0.00187886 -0.272613)
(0.00741457 0.00112186 -0.221596)
(0.00233573 -0.00586783 -0.193875)
(-0.00919391 3.87217e-06 -0.224699)
(-0.00387445 0.00184415 -0.270441)
(0.00768231 0.0010814 -0.219491)
(0.00245431 -0.00569617 -0.190139)
(-0.00953239 2.2891e-06 -0.222283)
(-0.00386789 0.00180836 -0.268159)
(0.00795006 0.00104153 -0.217282)
(0.00258511 -0.00552557 -0.186117)
(-0.00986947 2.84271e-06 -0.21975)
(-0.00384953 0.00177038 -0.265761)
(0.00821801 0.00100228 -0.214959)
(0.00271132 -0.0053805 -0.181989)
(-0.0102383 1.87145e-05 -0.217072)
(-0.00382153 0.00173023 -0.263238)
(0.00848683 0.000958371 -0.21251)
(0.00282456 -0.00524095 -0.177865)
(-0.0107419 3.4042e-05 -0.214173)
(-0.00378767 0.0016896 -0.260567)
(0.00875651 0.000921555 -0.209924)
(0.00292849 -0.00508802 -0.173731)
(-0.0114781 2.49049e-05 -0.210873)
(-0.0037519 0.00164952 -0.257711)
(0.0090621 0.000898677 -0.207172)
(0.00302981 -0.00492193 -0.169523)
(-0.012447 -5.25477e-06 -0.206986)
(-0.00371627 0.0016082 -0.254636)
(0.00948703 0.000869041 -0.20418)
(0.00313336 -0.00474729 -0.165183)
(-0.0134806 -2.43851e-05 -0.202665)
(-0.00368063 0.00156255 -0.251332)
(0.0100998 0.000820942 -0.200788)
(0.00324072 -0.0045663 -0.160672)
(-0.0143012 -1.28691e-06 -0.19839)
(-0.0036437 0.00151134 -0.247801)
(0.0108997 0.000756119 -0.196863)
(0.00335058 -0.00437937 -0.15595)
(-0.014842 3.36821e-05 -0.194372)
(-0.00360482 0.0014558 -0.244039)
(0.0117646 0.000704844 -0.192538)
(0.00346002 -0.00418856 -0.150996)
(-0.0152422 4.90504e-05 -0.190453)
(-0.00356497 0.00139765 -0.240031)
(0.0125259 0.000686308 -0.188116)
(0.00356414 -0.00399808 -0.145834)
(-0.0156367 4.99459e-05 -0.186387)
(-0.00352585 0.00133757 -0.235755)
(0.0131444 0.000674784 -0.183741)
(0.00365804 -0.00380782 -0.140492)
(-0.0160899 4.57859e-05 -0.182037)
(-0.00348901 0.00127556 -0.23119)
(0.013701 0.00065015 -0.179322)
(0.00373822 -0.00361534 -0.134986)
(-0.0166042 4.62236e-05 -0.177336)
(-0.00345551 0.00121177 -0.226315)
(0.0142823 0.000612458 -0.174676)
(0.00380175 -0.00342021 -0.129329)
(-0.0171711 4.93357e-05 -0.172233)
(-0.00342597 0.00114637 -0.221103)
(0.0149218 0.00057062 -0.169662)
(0.00384596 -0.00322243 -0.123527)
(-0.017772 5.38463e-05 -0.166745)
(-0.00340068 0.00107919 -0.215518)
(0.0156039 0.000533285 -0.164243)
(0.00386836 -0.00302264 -0.117586)
(-0.018378 6.09041e-05 -0.160906)
(-0.00337951 0.00100988 -0.209532)
(0.0162949 0.000501875 -0.15844)
(0.00386684 -0.0028219 -0.111514)
(-0.0189703 6.688e-05 -0.154734)
(-0.00336195 0.000938319 -0.203112)
(0.0169686 0.000472877 -0.152281)
(0.00383996 -0.00262072 -0.105318)
(-0.0195333 7.15584e-05 -0.148221)
(-0.00334723 0.000864814 -0.196229)
(0.0176076 0.000443686 -0.145771)
(0.00378621 -0.00241892 -0.0990006)
(-0.0200488 7.49889e-05 -0.141348)
(-0.00333422 0.000789726 -0.188848)
(0.0181958 0.000413863 -0.138898)
(0.00370356 -0.00221669 -0.0925556)
(-0.0204931 7.74651e-05 -0.1341)
(-0.00332124 0.000713474 -0.180934)
(0.0187122 0.000383861 -0.131648)
(0.00359009 -0.00201563 -0.0859984)
(-0.0208376 7.93991e-05 -0.126465)
(-0.00330597 0.000636583 -0.172449)
(0.0191307 0.000354483 -0.124011)
(0.00344481 -0.00181736 -0.0793725)
(-0.0210541 8.07218e-05 -0.118439)
(-0.00328522 0.000559747 -0.163358)
(0.0194252 0.000325727 -0.115984)
(0.00326877 -0.00162252 -0.0727301)
(-0.0211099 8.06077e-05 -0.110019)
(-0.00325489 0.000483529 -0.153631)
(0.0195636 0.000296769 -0.107562)
(0.0030654 -0.00143225 -0.066131)
(-0.02096 7.87275e-05 -0.10118)
(-0.00321067 0.000408765 -0.143245)
(0.0195014 0.000267383 -0.0987243)
(0.00283978 -0.00124812 -0.0596385)
(-0.0205503 7.58053e-05 -0.0919357)
(-0.00314771 0.000337221 -0.13219)
(0.0191833 0.000238441 -0.0894907)
(0.00259822 -0.00107183 -0.0533134)
(-0.0198282 7.25231e-05 -0.0823851)
(-0.00305875 0.000270484 -0.120435)
(0.0185563 0.000210791 -0.0799761)
(0.00234732 -0.000905301 -0.0472081)
(-0.0187637 6.88165e-05 -0.0726938)
(-0.00293426 0.000209498 -0.107981)
(0.0175912 0.000184378 -0.0703644)
(0.00209307 -0.000750586 -0.0413639)
(-0.0173644 6.47394e-05 -0.0630863)
(-0.00276441 0.000154921 -0.0949771)
(0.0162967 0.000159461 -0.0608978)
(0.00184015 -0.000609458 -0.0358113)
(-0.0156743 6.04874e-05 -0.0538124)
(-0.00254319 0.00010771 -0.081734)
(0.014719 0.00013655 -0.0518346)
(0.0015918 -0.00048319 -0.0305703)
(-0.0137681 5.6011e-05 -0.0450906)
(-0.00227274 6.87211e-05 -0.0686786)
(0.0129341 0.000115665 -0.0433856)
(0.00135036 -0.000372526 -0.0256516)
(-0.0117348 5.11516e-05 -0.0370601)
(-0.00196396 3.80983e-05 -0.0562602)
(0.0110306 9.66441e-05 -0.0356662)
(0.00111867 -0.000276707 -0.0210532)
(-0.00966539 4.51932e-05 -0.0297674)
(-0.00163438 1.62125e-05 -0.044819)
(0.009096 7.86549e-05 -0.0286925)
(0.000902533 -0.000196993 -0.0167526)
(-0.00765593 3.90048e-05 -0.0231798)
(-0.00130589 1.81976e-06 -0.0345024)
(0.00722103 6.26799e-05 -0.0224052)
(0.000715217 -0.000134823 -0.0126903)
(-0.00583333 3.40296e-05 -0.0171974)
(-0.00100591 -7.22832e-06 -0.0252696)
(0.00552535 5.0357e-05 -0.0166855)
(0.000585484 -6.47953e-05 -0.00873211)
(-0.00440502 1.58211e-05 -0.0116338)
(-0.000774267 -1.75978e-06 -0.0169216)
(0.00420857 2.35824e-05 -0.0113366)
(0.000454492 -4.57203e-05 -0.004862)
(-0.00309481 1.94905e-05 -0.00643104)
(-0.00055274 -1.07501e-05 -0.00934902)
(0.00299401 2.52027e-05 -0.00629242)
(0.000193778 -2.65555e-08 -0.00140237)
(-0.00123211 -4.38901e-07 -0.00186852)
(-0.000220222 1.80275e-06 -0.00275602)
(0.00120539 -3.12696e-07 -0.00183529)
(0.00115897 0.00202073 -0.248525)
(-0.00338373 0.000630758 -0.2815)
(0.000400897 -0.000681985 -0.302217)
(0.00377262 -0.00105247 -0.258837)
(0.00108919 0.00209038 -0.249079)
(-0.00338896 0.000674597 -0.281958)
(0.000504493 -0.000677878 -0.302291)
(0.00359139 -0.00102868 -0.258651)
(0.00101063 0.00215704 -0.24948)
(-0.00337915 0.000719243 -0.282317)
(0.000611462 -0.000670976 -0.302232)
(0.00341427 -0.00100062 -0.258356)
(0.000922682 0.00221023 -0.249701)
(-0.00335465 0.000751996 -0.282557)
(0.000720777 -0.000672689 -0.302043)
(0.00324735 -0.000984225 -0.257938)
(0.000825145 0.00226474 -0.249721)
(-0.00331264 0.00078713 -0.282673)
(0.000831147 -0.000670677 -0.301736)
(0.00309278 -0.000962025 -0.257394)
(0.000717911 0.00231514 -0.249524)
(-0.00324923 0.00081917 -0.282658)
(0.000941397 -0.000669537 -0.301323)
(0.00295086 -0.000939969 -0.256725)
(0.000600834 0.00236151 -0.249097)
(-0.00315943 0.000847896 -0.28251)
(0.00105047 -0.000669271 -0.300815)
(0.00282037 -0.000918025 -0.255933)
(0.000473589 0.00240352 -0.248434)
(-0.00303706 0.000873221 -0.282227)
(0.0011574 -0.000669559 -0.30022)
(0.00269889 -0.000896035 -0.255024)
(0.000335579 0.00243933 -0.247533)
(-0.00287493 0.000894992 -0.281812)
(0.00126136 -0.000670359 -0.299547)
(0.00258306 -0.000874209 -0.254005)
(0.000186057 0.00247167 -0.246394)
(-0.00266537 0.000914049 -0.281268)
(0.00136159 -0.000671355 -0.298804)
(0.00246885 -0.000852548 -0.252884)
(2.43719e-05 0.00250101 -0.245017)
(-0.00240169 0.000929829 -0.2806)
(0.00145744 -0.000672127 -0.297998)
(0.00235173 -0.000831054 -0.25167)
(-0.000149249 0.00251973 -0.243404)
(-0.00207906 0.000941528 -0.279818)
(0.00154842 -0.000672177 -0.297136)
(0.00222685 -0.000809736 -0.250374)
(-0.000331265 0.00252063 -0.241596)
(-0.00170133 0.000951047 -0.278941)
(0.00163421 -0.000670961 -0.296223)
(0.00208897 -0.000788657 -0.249004)
(-0.000512254 0.00250023 -0.239697)
(-0.00129656 0.000958661 -0.277992)
(0.00171466 -0.000668014 -0.295263)
(0.00193228 -0.000767943 -0.247571)
(-0.000683118 0.00246322 -0.237804)
(-0.000922099 0.00096056 -0.276995)
(0.00178971 -0.000663122 -0.294261)
(0.00175079 -0.000747449 -0.246083)
(-0.0008415 0.00241845 -0.235948)
(-0.00060638 0.000954412 -0.275964)
(0.00185926 -0.000656337 -0.293217)
(0.00153913 -0.000726883 -0.24455)
(-0.000988264 0.0023695 -0.23413)
(-0.000350421 0.000943526 -0.274892)
(0.00192327 -0.000647768 -0.292133)
(0.00129316 -0.000706976 -0.242979)
(-0.00112474 0.0023164 -0.232346)
(-0.000147901 0.000930037 -0.273767)
(0.00198183 -0.000636701 -0.291008)
(0.00100989 -0.000686235 -0.241376)
(-0.00125201 0.0022614 -0.230585)
(1.01181e-05 0.000914392 -0.272587)
(0.00203513 -0.000624495 -0.289843)
(0.000692984 -0.000660534 -0.239747)
(-0.0013711 0.00220389 -0.228838)
(0.000132465 0.000896581 -0.27135)
(0.00208394 -0.000610945 -0.288619)
(0.000366811 -0.000629373 -0.238068)
(-0.00148294 0.00214411 -0.2271)
(0.00022667 0.000877263 -0.270059)
(0.00213375 -0.000595227 -0.287238)
(6.75372e-05 -0.000599564 -0.236302)
(-0.0015883 0.00208281 -0.225364)
(0.000299001 0.00085665 -0.268712)
(0.00219786 -0.000578257 -0.285424)
(-0.000194733 -0.000575784 -0.234486)
(-0.00168784 0.00202043 -0.223629)
(0.000354838 0.000834717 -0.267311)
(0.0022883 -0.000558255 -0.282798)
(-0.000412265 -0.00055849 -0.232692)
(-0.00178228 0.00195739 -0.221892)
(0.000398878 0.000811474 -0.265857)
(0.00239252 -0.000533522 -0.279539)
(-0.000584724 -0.00054749 -0.230931)
(-0.00187237 0.00189331 -0.220149)
(0.000435407 0.000787036 -0.264349)
(0.0024753 -0.00051289 -0.276627)
(-0.000718607 -0.000539204 -0.229186)
(-0.00195881 0.00182918 -0.218404)
(0.000468269 0.000761631 -0.262787)
(0.00252787 -0.000499727 -0.274485)
(-0.000822245 -0.000530965 -0.227445)
(-0.00204213 0.00176631 -0.216653)
(0.00050062 0.000735931 -0.261169)
(0.00256503 -0.000491452 -0.272799)
(-0.000902401 -0.000523247 -0.225703)
(-0.00212271 0.00170285 -0.214894)
(0.000534448 0.000709588 -0.259494)
(0.00259807 -0.000487957 -0.271226)
(-0.000964144 -0.000516174 -0.223959)
(-0.00220064 0.00163553 -0.213126)
(0.000570939 0.000681334 -0.257759)
(0.00262948 -0.000485608 -0.269627)
(-0.00101146 -0.000509527 -0.222206)
(-0.00227558 0.00156382 -0.211355)
(0.000611239 0.000651139 -0.255969)
(0.00265803 -0.000483527 -0.267991)
(-0.00104764 -0.000503255 -0.220443)
(-0.00234705 0.00148992 -0.209592)
(0.000654989 0.000619276 -0.254141)
(0.00268317 -0.000481644 -0.266327)
(-0.0010754 -0.000497364 -0.218664)
(-0.00241492 0.00141608 -0.207845)
(0.000697608 0.000584194 -0.252296)
(0.00270505 -0.000479144 -0.264625)
(-0.00109698 -0.000491834 -0.216866)
(-0.00247934 0.00134274 -0.206116)
(0.000737058 0.000546308 -0.250431)
(0.00272384 -0.000476057 -0.262873)
(-0.00111409 -0.000486643 -0.215047)
(-0.00254046 0.00127002 -0.204405)
(0.00077433 0.00050803 -0.248537)
(0.00273968 -0.000472611 -0.261052)
(-0.00112803 -0.000481763 -0.213201)
(-0.00259828 0.00119901 -0.202709)
(0.000810742 0.000470357 -0.246608)
(0.00275226 -0.000468806 -0.259146)
(-0.00113978 -0.000477169 -0.211326)
(-0.00265269 0.00113004 -0.20102)
(0.000846942 0.000432827 -0.24464)
(0.00276091 -0.000464611 -0.257159)
(-0.00115011 -0.000472836 -0.209417)
(-0.00270331 0.00106369 -0.199331)
(0.000883457 0.000395668 -0.242627)
(0.00276524 -0.000460219 -0.255101)
(-0.0011597 -0.000468741 -0.207471)
(-0.0027498 0.000999725 -0.19763)
(0.000920854 0.000359069 -0.240563)
(0.00276528 -0.000455601 -0.252969)
(-0.00116915 -0.000464864 -0.205484)
(-0.00279199 0.000937335 -0.19591)
(0.000959691 0.000323032 -0.238443)
(0.0027611 -0.000450668 -0.250749)
(-0.00117904 -0.000461177 -0.203452)
(-0.00282988 0.000876029 -0.194166)
(0.00100049 0.000287579 -0.236261)
(0.00275264 -0.000445457 -0.24843)
(-0.00118996 -0.000457648 -0.20137)
(-0.00286349 0.000815936 -0.192391)
(0.00104373 0.000252769 -0.234013)
(0.00273977 -0.000439993 -0.246007)
(-0.0012025 -0.000454238 -0.199232)
(-0.0028928 0.000757348 -0.19058)
(0.00108992 0.00021865 -0.231693)
(0.0027225 -0.000434285 -0.243475)
(-0.00121726 -0.000450911 -0.197034)
(-0.00291774 0.0007006 -0.188725)
(0.00113952 0.000185275 -0.229294)
(0.00270091 -0.000428303 -0.24083)
(-0.00123489 -0.00044763 -0.194769)
(-0.00293804 0.000646101 -0.186817)
(0.00119305 0.000152734 -0.226809)
(0.00267517 -0.000422045 -0.238064)
(-0.00125605 -0.000444358 -0.192432)
(-0.0029533 0.000593997 -0.184843)
(0.00125111 0.000121051 -0.224228)
(0.00264544 -0.000415436 -0.235171)
(-0.00128149 -0.000441034 -0.190014)
(-0.00296311 0.000544204 -0.182793)
(0.00131445 9.03069e-05 -0.22154)
(0.00261188 -0.0004084 -0.23214)
(-0.00131201 -0.000437579 -0.187509)
(-0.00296705 0.000496559 -0.180652)
(0.00138382 6.09807e-05 -0.218733)
(0.00257463 -0.000401074 -0.228964)
(-0.00134847 -0.000433991 -0.184905)
(-0.00296476 0.000450939 -0.178409)
(0.00145894 3.36905e-05 -0.215798)
(0.00253375 -0.000393631 -0.225635)
(-0.00139183 -0.00043017 -0.182188)
(-0.00295585 0.000407331 -0.17605)
(0.00153774 8.72891e-06 -0.212718)
(0.00248922 -0.000385975 -0.222146)
(-0.00144309 -0.000425686 -0.179342)
(-0.00293991 0.000365798 -0.17356)
(0.0016171 -1.38956e-05 -0.209468)
(0.002441 -0.000377864 -0.218486)
(-0.00150223 -0.000420121 -0.176352)
(-0.00291651 0.000326427 -0.170921)
(0.00169457 -3.44612e-05 -0.206027)
(0.00238915 -0.000369044 -0.214643)
(-0.00156764 -0.000413231 -0.173199)
(-0.00288518 0.000289296 -0.168116)
(0.00176879 -5.33012e-05 -0.202377)
(0.00233378 -0.000359357 -0.2106)
(-0.00163675 -0.00040493 -0.169864)
(-0.00284544 0.000254625 -0.165125)
(0.00183921 -7.05825e-05 -0.198502)
(0.00227504 -0.000348776 -0.206338)
(-0.00170708 -0.000395381 -0.166324)
(-0.00279687 0.00022261 -0.161923)
(0.00190579 -8.6319e-05 -0.194386)
(0.00221298 -0.000337362 -0.201835)
(-0.00177675 -0.000384822 -0.162564)
(-0.00273925 0.000193169 -0.158482)
(0.00196867 -0.000100308 -0.190009)
(0.00214757 -0.000325182 -0.197069)
(-0.0018444 -0.000373351 -0.158569)
(-0.00267239 0.000166019 -0.15476)
(0.00202769 -0.000112341 -0.185354)
(0.00207873 -0.000312286 -0.192018)
(-0.00190886 -0.00036092 -0.154326)
(-0.00259579 0.000141127 -0.150718)
(0.00208216 -0.000122256 -0.180399)
(0.00200642 -0.000298679 -0.186662)
(-0.00196877 -0.000347434 -0.149821)
(-0.00250897 0.000118845 -0.14633)
(0.00213089 -0.000129949 -0.175121)
(0.00193056 -0.000284334 -0.180981)
(-0.00202241 -0.000332824 -0.14504)
(-0.00241181 9.91997e-05 -0.141585)
(0.0021723 -0.00013539 -0.169495)
(0.00185109 -0.000269263 -0.174954)
(-0.00206776 -0.000317074 -0.139968)
(-0.00230456 8.1889e-05 -0.136471)
(0.00220446 -0.000138604 -0.163497)
(0.00176788 -0.000253507 -0.168559)
(-0.00210254 -0.000300239 -0.134594)
(-0.00218768 6.67781e-05 -0.130978)
(0.00222521 -0.000139643 -0.157104)
(0.00168081 -0.000237089 -0.161775)
(-0.00212441 -0.000282435 -0.128909)
(-0.00206191 5.37988e-05 -0.125101)
(0.00223224 -0.000138589 -0.150294)
(0.00158978 -0.000220117 -0.154583)
(-0.00213101 -0.000263798 -0.122905)
(-0.00192835 4.2744e-05 -0.118837)
(0.0022232 -0.000135533 -0.143051)
(0.00149474 -0.000202693 -0.146968)
(-0.00211996 -0.000244441 -0.11657)
(-0.00178788 3.33684e-05 -0.112172)
(0.00219576 -0.000130611 -0.135362)
(0.00139584 -0.000184924 -0.13892)
(-0.00208907 -0.000224468 -0.109888)
(-0.00164139 2.56456e-05 -0.105103)
(0.00214757 -0.000124029 -0.127203)
(0.00129313 -0.000167026 -0.130415)
(-0.00203663 -0.000204062 -0.102873)
(-0.00149056 1.95077e-05 -0.0976681)
(0.00207656 -0.000115886 -0.118547)
(0.0011864 -0.000149034 -0.12143)
(-0.00196176 -0.000183374 -0.0955627)
(-0.00133765 1.47174e-05 -0.0899327)
(0.00198153 -0.000106376 -0.109414)
(0.00107585 -0.000131153 -0.111987)
(-0.0018648 -0.0001626 -0.0880186)
(-0.0011853 1.10826e-05 -0.0819888)
(0.00186274 -9.57368e-05 -0.0998822)
(0.00096247 -0.000113609 -0.102166)
(-0.00174755 -0.000141965 -0.0803204)
(-0.00103621 8.4303e-06 -0.0739491)
(0.00172238 -8.42561e-05 -0.0900771)
(0.000847888 -9.65324e-05 -0.0920962)
(-0.00161316 -0.000121726 -0.0725608)
(-0.000892802 6.60002e-06 -0.0659313)
(0.0015646 -7.23519e-05 -0.0801658)
(0.000734151 -8.01894e-05 -0.0819455)
(-0.00146576 -0.000102201 -0.0648327)
(-0.000756873 5.39079e-06 -0.0580392)
(0.00139497 -6.04343e-05 -0.0703298)
(0.000623393 -6.47964e-05 -0.0718938)
(-0.00130981 -8.37315e-05 -0.0572169)
(-0.000629381 4.61335e-06 -0.0503478)
(0.00121949 -4.8938e-05 -0.0607292)
(0.00051744 -5.06282e-05 -0.0620987)
(-0.00114961 -6.6661e-05 -0.0497718)
(-0.000510583 4.10166e-06 -0.0428998)
(0.00104358 -3.82444e-05 -0.051474)
(0.00041755 -3.79522e-05 -0.0526654)
(-0.000988866 -5.13001e-05 -0.042532)
(-0.00040048 3.55149e-06 -0.0357095)
(0.000871441 -2.86639e-05 -0.0426165)
(0.00032455 -2.70202e-05 -0.0436387)
(-0.000830577 -3.79e-05 -0.0355117)
(-0.000299542 3.10275e-06 -0.0287687)
(0.000706089 -2.0389e-05 -0.0341619)
(0.000239436 -1.79969e-05 -0.0350123)
(-0.000677124 -2.66036e-05 -0.0287085)
(-0.000209718 3.10247e-06 -0.0220447)
(0.000549669 -1.35484e-05 -0.0260812)
(0.00016444 -1.10291e-05 -0.0267384)
(-0.000530458 -1.75558e-05 -0.0221028)
(-0.000135925 -6.77037e-07 -0.015464)
(0.000403994 -8.23098e-06 -0.018307)
(0.00010461 -5.79455e-06 -0.0187167)
(-0.000392459 -1.01975e-05 -0.015645)
(-7.99394e-05 2.85878e-06 -0.00902708)
(0.000254308 -3.63037e-06 -0.0107608)
(6.17733e-05 -2.38619e-06 -0.0109166)
(-0.000248712 -4.87943e-06 -0.00927141)
(-2.9604e-05 -1.19786e-06 -0.0028942)
(8.61643e-05 -9.90534e-07 -0.00348342)
(2.37819e-05 -3.24679e-07 -0.0034956)
(-8.47737e-05 -9.96971e-07 -0.00302768)
)
;

boundaryField
{
    leftWall
    {
        type            noSlip;
    }
    rightWall
    {
        type            noSlip;
    }
    leftSides_periodic0
    {
        type            cyclic;
    }
    leftSides_periodic1
    {
        type            cyclic;
    }
    rightSides_periodic0
    {
        type            cyclic;
    }
    rightSides_periodic1
    {
        type            cyclic;
    }
    leftInOut_periodic0
    {
        type            cyclic;
    }
    leftInOut_periodic1
    {
        type            cyclic;
    }
    rightInOut_periodic0
    {
        type            cyclic;
    }
    rightInOut_periodic1
    {
        type            cyclic;
    }
    procBoundary1to0
    {
        type            processor;
        value           nonuniform List<vector> 
11
(
(0.00241176 1.75519e-05 -0.289672)
(-0.00726717 0.00235763 -0.279153)
(0.00128732 -0.00743643 -0.281689)
(0.00903617 0.000334059 -0.278728)
(0.00903617 0.000334059 -0.278728)
(0.000301034 -0.000685751 -0.302019)
(0.0039477 -0.00107524 -0.258934)
(0.00122172 0.00195101 -0.247863)
(-0.0033611 0.000586996 -0.280969)
(0.000301034 -0.000685751 -0.302019)
(0.0039477 -0.00107524 -0.258934)
)
;
    }
    procBoundary1to0throughleftInOut_periodic0
    {
        type            processorCyclic;
        value           uniform (0.00128732 -0.00743643 -0.281689);
    }
    procBoundary1to2throughleftSides_periodic0
    {
        type            processorCyclic;
        value           nonuniform List<vector> 2((-0.000657122 -0.000633627 -0.288827) (-0.00652509 -7.91105e-05 -0.257081));
    }
    procBoundary1to2throughrightSides_periodic0
    {
        type            processorCyclic;
        value           nonuniform List<vector> 2((0.00134088 -0.000102325 -0.253728) (0.00301384 0.000240151 -0.2826));
    }
    procBoundary1to3
    {
        type            processor;
        value           nonuniform List<vector> 
316
(
(-6.41152e-05 -0.00462307 -0.279485)
(0.00958769 0.00270513 -0.288054)
(0.00119575 0.00242918 -0.30913)
(-0.00808397 0.00378512 -0.282631)
(3.17602e-05 -0.00476343 -0.278054)
(0.00928462 0.00272235 -0.287934)
(0.00100854 0.00251588 -0.309297)
(-0.00787622 0.00381064 -0.281663)
(0.00012473 -0.00488044 -0.276508)
(0.00892946 0.00272478 -0.28766)
(0.000817806 0.00261229 -0.309334)
(-0.00763424 0.00381767 -0.280597)
(0.000214735 -0.00496984 -0.274878)
(0.0085253 0.0027212 -0.287267)
(0.000623243 0.00269392 -0.309283)
(-0.0073625 0.00380904 -0.279485)
(0.000299679 -0.00504765 -0.273165)
(0.00807266 0.00272078 -0.286767)
(0.000426157 0.00277475 -0.30916)
(-0.00706147 0.00379816 -0.278344)
(0.000376403 -0.0051152 -0.271361)
(0.0075727 0.00271932 -0.286173)
(0.00022804 0.00285036 -0.30898)
(-0.00673123 0.00378251 -0.277177)
(0.000440229 -0.00514987 -0.269452)
(0.00702808 0.00271651 -0.285494)
(3.04922e-05 0.00291996 -0.308755)
(-0.00637235 0.00376283 -0.275981)
(0.00048398 -0.00524993 -0.267405)
(0.00644369 0.00271425 -0.284727)
(-0.000164623 0.00298362 -0.308495)
(-0.00598574 0.00373939 -0.274753)
(0.000507003 -0.00546226 -0.265261)
(0.00583136 0.00272987 -0.283852)
(-0.000354956 0.00304122 -0.30821)
(-0.0055747 0.00371194 -0.273492)
(0.000520065 -0.00557366 -0.263179)
(0.00519694 0.00280961 -0.2829)
(-0.000537519 0.00309292 -0.307907)
(-0.0051469 0.00368053 -0.272198)
(0.000498851 -0.00539285 -0.260652)
(0.00454825 0.00285943 -0.281983)
(-0.00070915 0.00313904 -0.307592)
(-0.0047082 0.00364554 -0.270872)
(0.000308847 -0.00490373 -0.255799)
(0.00385454 0.00267789 -0.280704)
(-0.00086608 0.00317983 -0.307271)
(-0.00425585 0.00360755 -0.269517)
(-0.000241896 -0.00479813 -0.246903)
(0.00302051 0.00237794 -0.277408)
(-0.00100033 0.00321533 -0.306949)
(-0.00377777 0.00356776 -0.268133)
(-0.000876214 -0.00533009 -0.237741)
(0.00210508 0.00243768 -0.270506)
(-0.00110104 0.00324443 -0.306632)
(-0.00326269 0.00352996 -0.266721)
(-0.00122528 -0.0056135 -0.232442)
(0.00134694 0.00272218 -0.264385)
(-0.00116258 0.00326654 -0.306323)
(-0.00271252 0.00348504 -0.265275)
(-0.00139869 -0.00558044 -0.229218)
(0.000769248 0.00279994 -0.261005)
(-0.00118794 0.00328286 -0.306028)
(-0.0021437 0.00346856 -0.263777)
(-0.00146921 -0.0053819 -0.226767)
(0.000220168 0.00268383 -0.259036)
(-0.00118684 0.00329358 -0.305745)
(-0.0015624 0.00352476 -0.262239)
(-0.00149639 -0.00528729 -0.224577)
(-0.000385393 0.00257755 -0.257646)
(-0.00116918 0.00329915 -0.30547)
(-0.000950491 0.00356601 -0.260758)
(-0.00150862 -0.0053078 -0.222454)
(-0.000998482 0.00254349 -0.256408)
(-0.00114293 0.00329999 -0.305198)
(-0.000281162 0.00344786 -0.259189)
(-0.00150401 -0.00525821 -0.220362)
(-0.00159839 0.00252874 -0.255183)
(-0.00111753 0.00329877 -0.304913)
(0.00041299 0.00311541 -0.256605)
(-0.00147966 -0.00520269 -0.218275)
(-0.00219247 0.00249147 -0.253958)
(-0.00110554 0.00328214 -0.304585)
(0.000913409 0.00290082 -0.251465)
(-0.00143298 -0.00515213 -0.216173)
(-0.00278257 0.00245501 -0.252719)
(-0.0011235 0.0032184 -0.304212)
(0.00117477 0.00310993 -0.244823)
(-0.00136656 -0.00505626 -0.214037)
(-0.00336788 0.00241996 -0.251456)
(-0.00118375 0.00316053 -0.303849)
(0.00144668 0.00330665 -0.240082)
(-0.00128864 -0.00506191 -0.211847)
(-0.00394553 0.00238198 -0.250155)
(-0.00127074 0.0032478 -0.303285)
(0.00180179 0.00328101 -0.237135)
(-0.00120548 -0.005189 -0.209622)
(-0.00450442 0.00233178 -0.248804)
(-0.00130459 0.00346622 -0.301444)
(0.00232922 0.00314035 -0.235037)
(-0.00111404 -0.00518222 -0.207454)
(-0.00503115 0.00235884 -0.247392)
(-0.0011304 0.00337731 -0.296801)
(0.00296133 0.00302236 -0.233245)
(-0.00100807 -0.00495518 -0.205111)
(-0.00557675 0.0024285 -0.245964)
(-0.000938627 0.00314065 -0.292179)
(0.00357858 0.00297795 -0.231524)
(-0.000909332 -0.00444567 -0.201846)
(-0.00619077 0.00235662 -0.244575)
(-0.00088369 0.0030824 -0.289341)
(0.00415812 0.00294015 -0.229814)
(-0.000878478 -0.00427256 -0.197234)
(-0.00679101 0.00207715 -0.242851)
(-0.000931978 0.00311893 -0.287631)
(0.0047194 0.00288552 -0.228102)
(-0.000904938 -0.00455989 -0.192469)
(-0.00717163 0.00184237 -0.239942)
(-0.00102871 0.00313489 -0.286394)
(0.0052801 0.00283588 -0.226376)
(-0.000923774 -0.0047003 -0.18881)
(-0.00726316 0.00201076 -0.236061)
(-0.00112016 0.00309952 -0.285252)
(0.00584631 0.00279033 -0.224629)
(-0.000913748 -0.00466075 -0.18596)
(-0.00732998 0.00217259 -0.232917)
(-0.00118697 0.00305375 -0.284081)
(0.00641525 0.00274499 -0.222854)
(-0.000879338 -0.00441839 -0.183397)
(-0.00753843 0.00216964 -0.230633)
(-0.00123189 0.00302089 -0.28286)
(0.00698163 0.00269855 -0.221046)
(-0.000841158 -0.00425482 -0.180906)
(-0.00799058 0.00202858 -0.228733)