-0.0075 	0 	0 	0
-0.0075 	1.02203e-34 	-5.61885e-37 	-6.53909e-33
-0.00745622 	0.000134326 	-7.38486e-07 	-0.00859432
-0.00745622 	0.000134326 	-7.38486e-07 	-0.00859432
-0.00741165 	0.000219357 	-4.4176e-07 	-0.0177309
-0.00741165 	0.000219357 	-4.4176e-07 	-0.0177309
-0.00736628 	0.000274733 	1.26829e-06 	-0.0271466
-0.00736628 	0.000274733 	1.26829e-06 	-0.0271466
-0.0073201 	0.000326333 	4.23065e-06 	-0.0366499
-0.0073201 	0.000326333 	4.23065e-06 	-0.0366499
-0.00727309 	0.000379214 	8.06858e-06 	-0.0461708
-0.00727309 	0.000379214 	8.06858e-06 	-0.0461708
-0.00722524 	0.00043102 	1.2932e-05 	-0.055656
-0.00722524 	0.00043102 	1.2932e-05 	-0.055656
-0.00717653 	0.000481705 	1.88197e-05 	-0.0650304
-0.00717653 	0.000481705 	1.88197e-05 	-0.0650304
-0.00712695 	0.000531888 	2.56712e-05 	-0.0742124
-0.00712695 	0.000531888 	2.56712e-05 	-0.0742124
-0.00707647 	0.000582262 	3.35612e-05 	-0.0831249
-0.00707647 	0.000582262 	3.35612e-05 	-0.0831249
-0.0070251 	0.000633451 	4.24826e-05 	-0.0917037
-0.0070251 	0.000633451 	4.24826e-05 	-0.0917037
-0.0069728 	0.000686024 	5.2359e-05 	-0.0999045
-0.0069728 	0.000686024 	5.2359e-05 	-0.0999045
-0.00691956 	0.000740511 	6.33042e-05 	-0.107709
-0.00691956 	0.000740511 	6.33042e-05 	-0.107709
-0.00686537 	0.000797368 	7.51768e-05 	-0.115129
-0.00686537 	0.000797368 	7.51768e-05 	-0.115129
-0.00681021 	0.000856647 	8.79618e-05 	-0.122196
-0.00681021 	0.000856647 	8.79618e-05 	-0.122196
-0.00675406 	0.000917858 	0.000101726 	-0.128939
-0.00675406 	0.000917858 	0.000101726 	-0.128939
-0.0066969 	0.000980452 	0.000116367 	-0.135379
-0.0066969 	0.000980452 	0.000116367 	-0.135379
-0.00663871 	0.00104412 	0.000131924 	-0.141534
-0.00663871 	0.00104412 	0.000131924 	-0.141534
-0.00657949 	0.00110863 	0.000148352 	-0.14742
-0.00657949 	0.00110863 	0.000148352 	-0.14742
-0.0065192 	0.00117373 	0.000165551 	-0.15305
-0.0065192 	0.00117373 	0.000165551 	-0.15305
-0.00645783 	0.00123921 	0.000183463 	-0.158439
-0.00645783 	0.00123921 	0.000183463 	-0.158439
-0.00639535 	0.00130486 	0.000202029 	-0.1636
-0.00639535 	0.00130486 	0.000202029 	-0.1636
-0.00633176 	0.00137042 	0.000221237 	-0.168543
-0.00633176 	0.00137042 	0.000221237 	-0.168543
-0.00626703 	0.00143555 	0.000241113 	-0.173278
-0.00626703 	0.00143555 	0.000241113 	-0.173278
-0.00620114 	0.00149981 	0.000261601 	-0.177808
-0.00620114 	0.00149981 	0.000261601 	-0.177808
-0.00613406 	0.00156293 	0.000282462 	-0.18214
-0.00613406 	0.00156293 	0.000282462 	-0.18214
-0.00606579 	0.00162501 	0.000303355 	-0.186285
-0.00606579 	0.00162501 	0.000303355 	-0.186285
-0.00599629 	0.00168656 	0.000324118 	-0.190262
-0.00599629 	0.00168656 	0.000324118 	-0.190262
-0.00592554 	0.00174795 	0.000345172 	-0.194095
-0.00592554 	0.00174795 	0.000345172 	-0.194095
-0.00585352 	0.00180853 	0.00036722 	-0.197803
-0.00585352 	0.00180853 	0.00036722 	-0.197803
-0.00578022 	0.0018665 	0.000390098 	-0.201383
-0.00578022 	0.0018665 	0.000390098 	-0.201383
-0.00570559 	0.00192046 	0.000412752 	-0.204817
-0.00570559 	0.00192046 	0.000412752 	-0.204817
-0.00562963 	0.00197132 	0.000434481 	-0.208082
-0.00562963 	0.00197132 	0.000434481 	-0.208082
-0.00555231 	0.00202224 	0.00045574 	-0.211163
-0.00555231 	0.00202224 	0.00045574 	-0.211163
-0.0054736 	0.00207628 	0.000477503 	-0.214062
-0.0054736 	0.00207628 	0.000477503 	-0.214062
-0.00539348 	0.00213423 	0.000499838 	-0.216805
-0.00539348 	0.00213423 	0.000499838 	-0.216805
-0.00531193 	0.00219432 	0.000521953 	-0.219429
-0.00531193 	0.00219432 	0.000521953 	-0.219429
-0.00522891 	0.00225385 	0.000543456 	-0.221961
-0.00522891 	0.00225385 	0.000543456 	-0.221961
-0.0051444 	0.00231129 	0.000564655 	-0.224425
-0.0051444 	0.00231129 	0.000564655 	-0.224425
-0.00505838 	0.00236649 	0.000585859 	-0.226838
-0.00505838 	0.00236649 	0.000585859 	-0.226838
-0.00497081 	0.00241985 	0.00060696 	-0.229212
-0.00497081 	0.00241985 	0.00060696 	-0.229212
-0.00488168 	0.00247162 	0.000627627 	-0.231547
-0.00488168 	0.00247162 	0.000627627 	-0.231547
-0.00479094 	0.00252168 	0.000647623 	-0.233829
-0.00479094 	0.00252168 	0.000647623 	-0.233829
-0.00469858 	0.00256944 	0.000666962 	-0.236035
-0.00469858 	0.00256944 	0.000666962 	-0.236035
-0.00460456 	0.00261412 	0.0006858 	-0.238151
-0.00460456 	0.00261412 	0.0006858 	-0.238151
-0.00450886 	0.0026552 	0.0007043 	-0.240176
-0.00450886 	0.0026552 	0.0007043 	-0.240176
-0.00441144 	0.00269274 	0.000722685 	-0.24213
-0.00441144 	0.00269274 	0.000722685 	-0.24213
-0.00431227 	0.00272756 	0.000741092 	-0.244043
-0.00431227 	0.00272756 	0.000741092 	-0.244043
-0.00421133 	0.00276092 	0.000759429 	-0.245937
-0.00421133 	0.00276092 	0.000759429 	-0.245937
-0.00410857 	0.0027939 	0.000777329 	-0.247815
-0.00410857 	0.0027939 	0.000777329 	-0.247815
-0.00400397 	0.00282707 	0.00079453 	-0.249665
-0.00400397 	0.00282707 	0.00079453 	-0.249665
-0.0038975 	0.00286132 	0.000811254 	-0.251471
-0.0038975 	0.00286132 	0.000811254 	-0.251471
-0.00378912 	0.00289889 	0.000827062 	-0.253237
-0.00378912 	0.00289889 	0.000827062 	-0.253237
-0.00367879 	0.00294109 	0.000840502 	-0.25497
-0.00367879 	0.00294109 	0.000840502 	-0.25497
-0.00356649 	0.00298547 	0.000850994 	-0.256683
-0.00356649 	0.00298547 	0.000850994 	-0.256683
-0.00345217 	0.00302758 	0.000858985 	-0.258379
-0.00345217 	0.00302758 	0.000858985 	-0.258379
-0.0033358 	0.00306545 	0.00086559 	-0.260026
-0.0033358 	0.00306545 	0.00086559 	-0.260026
-0.00321735 	0.00309962 	0.000872384 	-0.261567
-0.00321735 	0.00309962 	0.000872384 	-0.261567
-0.00309677 	0.00313045 	0.000879471 	-0.262949
-0.00309677 	0.00313045 	0.000879471 	-0.262949
-0.00297403 	0.00315869 	0.000885733 	-0.264162
-0.00297403 	0.00315869 	0.000885733 	-0.264162
-0.00284909 	0.00318727 	0.000890997 	-0.265227
-0.00284909 	0.00318727 	0.000890997 	-0.265227
-0.0027219 	0.00321933 	0.000895787 	-0.266162
-0.0027219 	0.00321933 	0.000895787 	-0.266162
-0.00259244 	0.00325505 	0.000900313 	-0.266989
-0.00259244 	0.00325505 	0.000900313 	-0.266989
-0.00246065 	0.0032919 	0.000905114 	-0.267722
-0.00246065 	0.0032919 	0.000905114 	-0.267722
-0.00232651 	0.00332783 	0.000910695 	-0.268376
-0.00232651 	0.00332783 	0.000910695 	-0.268376
-0.00218995 	0.003362 	0.000916986 	-0.268961
-0.00218995 	0.003362 	0.000916986 	-0.268961
-0.00205095 	0.00339369 	0.000923786 	-0.269485
-0.00205095 	0.00339369 	0.000923786 	-0.269485
-0.00190946 	0.00342213 	0.000930874 	-0.269951
-0.00190946 	0.00342213 	0.000930874 	-0.269951
-0.00176543 	0.00344652 	0.000938098 	-0.270362
-0.00176543 	0.00344652 	0.000938098 	-0.270362
-0.00161881 	0.00346615 	0.000945318 	-0.270718
-0.00161881 	0.00346615 	0.000945318 	-0.270718
-0.00146957 	0.00348025 	0.000952327 	-0.271018
-0.00146957 	0.00348025 	0.000952327 	-0.271018
-0.00131765 	0.00348794 	0.000958962 	-0.271262
-0.00131765 	0.00348794 	0.000958962 	-0.271262
-0.001163 	0.0034883 	0.000965094 	-0.271451
-0.001163 	0.0034883 	0.000965094 	-0.271451
-0.00100559 	0.00348042 	0.000970529 	-0.271584
-0.00100559 	0.00348042 	0.000970529 	-0.271584
-0.000845345 	0.00346337 	0.000976889 	-0.271664
-0.000845345 	0.00346337 	0.000976889 	-0.271664
-0.000682232 	0.00343627 	0.00098266 	-0.271692
-0.000682232 	0.00343627 	0.00098266 	-0.271692
-0.000516194 	0.00339827 	0.000985659 	-0.27167
-0.000516194 	0.00339827 	0.000985659 	-0.27167
-0.000347178 	0.00334861 	0.000988148 	-0.271601
-0.000347178 	0.00334861 	0.000988148 	-0.271601
-0.000175132 	0.00328637 	0.000984676 	-0.271491
-0.000175132 	0.00328637 	0.000984676 	-0.271491
0 	0.00321105 	0.000979009 	-0.271357
0 	0.00321105 	0.000979009 	-0.271357
0 	0.00321105 	0.000979009 	-0.271357
0 	0.00321105 	0.000979009 	-0.271357
0.000175132 	0.00312347 	0.000977198 	-0.271209
0.000175132 	0.00794042 	0.00435569 	-0.25452
0.000347178 	0.0030251 	0.000973569 	-0.271047
0.000347178 	0.00720056 	0.0044943 	-0.25495
0.000516194 	0.00291749 	0.00097224 	-0.270862
0.000516194 	0.00643539 	0.00463376 	-0.255534
0.000682232 	0.00280199 	0.000972314 	-0.270647
0.000682232 	0.00565174 	0.00476939 	-0.256231
0.000845345 	0.00267983 	0.000969681 	-0.2704
0.000845345 	0.00485227 	0.00489794 	-0.257018
0.00100559 	0.00255235 	0.000966515 	-0.270116
0.00100559 	0.00403858 	0.00502115 	-0.257889
0.001163 	0.00242107 	0.000962524 	-0.269791
0.001163 	0.003209 	0.00513539 	-0.258876
0.00131765 	0.00228737 	0.000957235 	-0.269419
0.00131765 	0.00235988 	0.0052357 	-0.260057
0.00146957 	0.00215233 	0.000950116 	-0.269
0.00146957 	0.00149274 	0.00532007 	-0.261453
0.00161881 	0.00201671 	0.00094078 	-0.268536
0.00161881 	0.000616214 	0.00538738 	-0.262971
0.00176543 	0.00188115 	0.00092935 	-0.268033
0.00176543 	-0.00025883 	0.00543797 	-0.264452
0.00190946 	0.00174644 	0.000916296 	-0.267496
0.00190946 	-0.00112448 	0.00547619 	-0.265777
0.00205095 	0.00161359 	0.000902009 	-0.266927
0.00205095 	-0.00197866 	0.00550591 	-0.266971
0.00218995 	0.00148374 	0.000886931 	-0.266325
0.00218995 	-0.00282064 	0.00552966 	-0.268168
0.00232651 	0.00135791 	0.000871599 	-0.265687
0.00232651 	-0.00364834 	0.00554938 	-0.269475
0.00246065 	0.00123687 	0.000855937 	-0.265009
0.00246065 	-0.00446542 	0.00556532 	-0.270883
0.00259244 	0.00112079 	0.000839992 	-0.26428
0.00259244 	-0.00528257 	0.00557559 	-0.272262
0.0027219 	0.00100875 	0.000824247 	-0.263485
0.0027219 	-0.00610119 	0.00557579 	-0.273517
0.00284909 	0.000899632 	0.000808832 	-0.262613
0.00284909 	-0.00690199 	0.00556221 	-0.274739
0.00297403 	0.000793341 	0.000793418 	-0.261666
0.00297403 	-0.00765452 	0.0055388 	-0.276105
0.00309677 	0.000690462 	0.000776825 	-0.260651
0.00309677 	-0.00832763 	0.00551315 	-0.277657
0.00321735 	0.00059176 	0.000758434 	-0.25958
0.00321735 	-0.00891576 	0.00547811 	-0.279187
0.0033358 	0.00049814 	0.000739067 	-0.258457
0.0033358 	-0.0094796 	0.00541368 	-0.280305
0.00345217 	0.000410293 	0.000719356 	-0.257284
0.00345217 	-0.0100641 	0.00532813 	-0.280895
0.00356649 	0.00032841 	0.000699363 	-0.25606
0.00356649 	-0.0106368 	0.00524476 	-0.281207
0.00367879 	0.000252347 	0.000679162 	-0.254783
0.00367879 	-0.01116 	0.00516441 	-0.281429
0.00378912 	-0.011624 	0.00507931 	-0.281603
0.00378912 	0.000182113 	0.00065881 	-0.253449
0.0038975 	0.00011816 	0.000638376 	-0.252057
0.0038975 	-0.0120302 	0.00498541 	-0.281733
0.00400397 	6.09684e-05 	0.000617936 	-0.250605
0.00400397 	-0.0123767 	0.00488455 	-0.281799
0.00410857 	1.05136e-05 	0.000597509 	-0.249094
0.00410857 	-0.0126623 	0.00477955 	-0.281733
0.00421133 	-3.37063e-05 	0.000577159 	-0.247521
0.00421133 	-0.0128904 	0.00467097 	-0.281477
0.00431227 	-7.23472e-05 	0.000556958 	-0.245884
0.00431227 	-0.0130664 	0.00455853 	-0.281038
0.00441144 	-0.000105986 	0.000536915 	-0.244183
0.00441144 	-0.0131948 	0.00444263 	-0.28045
0.00450886 	-0.00013515 	0.000517013 	-0.242414
0.00450886 	-0.0132791 	0.00432393 	-0.279742
0.00460456 	-0.000160424 	0.000497189 	-0.240574
0.00460456 	-0.0133228 	0.00420244 	-0.278931
0.00469858 	-0.000182445 	0.000477367 	-0.238661
0.00469858 	-0.0133296 	0.00407762 	-0.278039
0.00479094 	-0.000201865 	0.000457706 	-0.236672
0.00479094 	-0.0133024 	0.00395027 	-0.277079
0.00488168 	-0.000219304 	0.000437483 	-0.234605
0.00488168 	-0.0132428 	0.00381873 	-0.27603
0.00497081 	-0.000235748 	0.000416213 	-0.232458
0.00497081 	-0.0131548 	0.00367762 	-0.274848
0.00505838 	-0.000252514 	0.000396319 	-0.230224
0.00505838 	-0.0130487 	0.00353273 	-0.273476
0.0051444 	-0.000269273 	0.000378695 	-0.227884
0.0051444 	-0.0129321 	0.00339736 	-0.271838
0.00522891 	-0.000282506 	0.000360383 	-0.225413
0.00522891 	-0.0127988 	0.00327167 	-0.269875
0.00531193 	-0.01263 	0.00314073 	-0.267677
0.00531193 	-0.000287309 	0.000338475 	-0.222799
0.00539348 	-0.000282014 	0.000313333 	-0.220065
0.00539348 	-0.0124102 	0.00299169 	-0.265456
0.0054736 	-0.000271148 	0.000290671 	-0.217247
0.0054736 	-0.0121435 	0.00283243 	-0.263334
0.00555231 	-0.00026115 	0.000274174 	-0.214362
0.00555231 	-0.0118503 	0.0026803 	-0.261245
0.00562963 	-0.000254123 	0.000259798 	-0.211397
0.00562963 	-0.0115496 	0.00253917 	-0.259073
0.00570559 	-0.000247927 	0.00024339 	-0.20832
0.00570559 	-0.0112485 	0.00240126 	-0.256756
0.00578022 	-0.000240085 	0.000224957 	-0.2051
0.00578022 	-0.0109468 	0.00226084 	-0.254279
0.00585352 	-0.000230053 	0.000206418 	-0.201711
0.00585352 	-0.0106443 	0.00211915 	-0.251628
0.00592554 	-0.000218493 	0.000189315 	-0.19813
0.00592554 	-0.0103435 	0.00197928 	-0.248768
0.00599629 	-0.000205961 	0.000173341 	-0.194337
0.00599629 	-0.0100471 	0.00184265 	-0.245653
0.00606579 	-0.00975615 	0.001709 	-0.242236
0.00606579 	-0.000192894 	0.000157957 	-0.190312
0.00613406 	-0.000179734 	0.000143423 	-0.186044
0.00613406 	-0.00947031 	0.00157743 	-0.23849
0.00620114 	-0.00016676 	0.000129675 	-0.18152
0.00620114 	-0.00918927 	0.00144808 	-0.234393
0.00626703 	-0.000154119 	0.000116554 	-0.176723
0.00626703 	-0.00891353 	0.00132171 	-0.229924
0.00633176 	-0.000141924 	0.000104128 	-0.171636
0.00633176 	-0.00864404 	0.00119897 	-0.225054
0.00639535 	-0.000130271 	9.24587e-05 	-0.166238
0.00639535 	-0.00838148 	0.00108035 	-0.219746
0.00645783 	-0.000119221 	8.15793e-05 	-0.160508
0.00645783 	-0.00812566 	0.000966204 	-0.213958
0.0065192 	-0.000108788 	7.14764e-05 	-0.154427
0.0065192 	-0.00787543 	0.000856879 	-0.207642
0.00657949 	-9.89891e-05 	6.2161e-05 	-0.147973
0.00657949 	-0.00762886 	0.000752699 	-0.200755
0.00663871 	-8.98461e-05 	5.36446e-05 	-0.141127
0.00663871 	-0.00738352 	0.000653696 	-0.193255
0.0066969 	-8.13772e-05 	4.59103e-05 	-0.133868
0.0066969 	-0.00713716 	0.000560173 	-0.1851
0.00675406 	-7.34819e-05 	3.89136e-05 	-0.126175
0.00675406 	-0.00688647 	0.000473126 	-0.176245
0.00681021 	-6.58229e-05 	3.25476e-05 	-0.118037
0.00681021 	-0.0066235 	0.000393307 	-0.166613
0.00686537 	-5.81495e-05 	2.68041e-05 	-0.109463
0.00686537 	-0.00633547 	0.00032091 	-0.156113
0.00691956 	-5.04898e-05 	2.17128e-05 	-0.100496
0.00691956 	-0.00600733 	0.000255719 	-0.144716
0.0069728 	-4.30104e-05 	1.72293e-05 	-0.0912231
0.0069728 	-0.0056256 	0.000197691 	-0.132484
0.0070251 	-3.60544e-05 	1.33613e-05 	-0.0817705
0.0070251 	-0.00518339 	0.000147214 	-0.119575
0.00707647 	-2.99944e-05 	1.01367e-05 	-0.0722932
0.00707647 	-0.00468283 	0.000104249 	-0.106248
0.00712695 	-2.50039e-05 	7.57354e-06 	-0.0629509
0.00712695 	-0.00413559 	6.85888e-05 	-0.0928264
0.00717653 	-2.11593e-05 	5.6275e-06 	-0.0538772
0.00717653 	-0.00356225 	4.01014e-05 	-0.0796232
0.00722524 	-1.87927e-05 	4.21281e-06 	-0.0451543
0.00722524 	-0.00298953 	1.89026e-05 	-0.0668627
0.00727309 	-1.89841e-05 	3.24931e-06 	-0.0368056
0.00727309 	-0.00244879 	4.22829e-06 	-0.0546373
0.0073201 	-2.41028e-05 	2.68674e-06 	-0.0288037
0.0073201 	-0.00197932 	-6.32969e-06 	-0.0429067
0.00736628 	-3.85382e-05 	2.25034e-06 	-0.021084
0.00736628 	-0.00163852 	-3.77254e-06 	-0.0315115
0.00741165 	-5.41887e-05 	1.70477e-06 	-0.0136347
0.00741165 	-0.00135384 	-6.86516e-06 	-0.0203617
0.00745622 	-4.46607e-05 	9.42524e-07 	-0.0065776
0.00745622 	-0.000849423 	-5.29059e-06 	-0.00971818
0.0075 	0 	0 	0
0.0075 	0 	0 	0
