/*--------------------------------*- C++ -*----------------------------------*\
| =========                 |                                                 |
| \\      /  F ield         | OpenFOAM: The Open Source CFD Toolbox           |
|  \\    /   O peration     | Version:  v1906                                 |
|   \\  /    A nd           | Web:      www.OpenFOAM.com                      |
|    \\/     M anipulation  |                                                 |
\*---------------------------------------------------------------------------*/
FoamFile
{
    version     2.0;
    format      ascii;
    class       volScalarField;
    location    "97.6";
    object      k;
}
// * * * * * * * * * * * * * * * * * * * * * * * * * * * * * * * * * * * * * //

dimensions      [0 2 -2 0 0 0 0];


internalField   nonuniform List<scalar> 
634
(
7.56747e-07
3.76797e-07
4.7613e-07
9.70309e-07
5.12491e-07
1.45666e-07
3.23227e-07
4.73716e-07
2.74115e-06
5.96629e-07
1.73732e-06
2.23477e-06
9.41515e-06
2.02364e-06
6.00363e-06
7.54283e-06
2.30362e-05
5.04014e-06
1.48012e-05
1.82649e-05
4.55431e-05
1.0302e-05
2.9539e-05
3.58089e-05
7.75867e-05
1.83761e-05
5.08904e-05
6.06001e-05
0.000118089
2.95833e-05
7.84522e-05
9.18111e-05
0.000164389
4.38623e-05
0.000110726
0.000127479
0.000212996
6.07243e-05
0.000145486
0.000164995
0.000260591
7.93303e-05
0.00018037
0.000201769
0.000304776
9.86625e-05
0.000213449
0.000235828
0.000344372
0.000117745
0.000243614
0.000266235
0.000379043
0.000135856
0.00027054
0.000292655
0.000408608
0.000152732
0.00029394
0.000314891
0.000433264
0.00016817
0.000313728
0.000332887
0.000453496
0.00018196
0.000330065
0.000346609
0.000469679
0.000193979
0.00034333
0.000356108
0.000481684
0.000204368
0.000353873
0.000361909
0.000489181
0.000213854
0.000361661
0.000365265
0.000492649
0.00022318
0.000366265
0.00036755
0.000493559
0.000232724
0.000367529
0.000369023
0.000494008
0.000241667
0.000366208
0.000368297
0.000494863
0.000247957
0.000363937
0.00036387
0.000496386
0.000249956
0.000362217
0.00035614
0.000498735
0.000248117
0.000361586
0.000347437
0.000502129
0.000245687
0.000362191
0.000340504
0.000506766
0.000244799
0.000364174
0.000336134
0.000512706
0.000245896
0.000367711
0.000334182
0.000519856
0.000248861
0.000372889
0.000334803
0.000528507
0.000253695
0.000379678
0.00033832
0.000539824
0.000260558
0.000388354
0.000343968
0.000555263
0.000269668
0.000399759
0.000347225
0.000572614
0.000281235
0.000414663
0.00034013
0.000578839
0.000295346
0.000430053
0.00032395
0.000568713
0.00031217
0.000434727
0.000304422
0.000549562
0.000331626
0.000425524
0.000288111
0.000530603
0.000355107
0.000408996
0.000276471
0.000514556
0.000384256
0.00039322
0.000268992
0.000500933
0.000407013
0.000380571
0.000265418
0.000489131
0.000408079
0.000370606
0.000265595
0.000478948
0.000390996
0.000362678
0.000269156
0.000470296
0.000372713
0.000356443
0.000275759
0.000463104
0.000357806
0.000351626
0.000285098
0.000457291
0.000346433
0.000347968
0.000296875
0.000452766
0.000337929
0.000345216
0.000310825
0.000449437
0.000331835
0.000343131
0.000326687
0.000447223
0.000327843
0.0003415
0.000344343
0.000446056
0.000325669
0.000340147
0.000363733
0.000445885
0.000325045
0.000338926
0.000385872
0.000446678
0.000325724
0.000337723
0.000407455
0.000448429
0.000327494
0.000336435
0.000426814
0.000451154
0.000330182
0.000334969
0.000446057
0.000454907
0.000333658
0.000333229
0.00046483
0.000459767
0.000337813
0.00033111
0.000482622
0.000465819
0.000342522
0.000328505
0.00049964
0.000473131
0.000347615
0.000325299
0.000516525
0.00048172
0.000352892
0.000321399
0.000533964
0.000491532
0.000358172
0.000316773
0.000552701
0.000502421
0.000363321
0.000311495
0.000573257
0.000514134
0.000368265
0.000305712
0.000594071
0.000526297
0.000373007
0.000299601
0.000609546
0.000538384
0.000377622
0.000293368
0.000622206
0.000549703
0.000382251
0.000287183
0.000632857
0.000559462
0.00038709
0.000281177
0.000645107
0.000566841
0.000392384
0.000275451
0.000661966
0.000571091
0.000398426
0.000270081
0.000682887
0.000571786
0.000405553
0.000265126
0.000707362
0.000569216
0.000414141
0.000260624
0.000735526
0.000564228
0.00042461
0.000256594
0.000767846
0.000557742
0.000437412
0.000253035
0.00080444
0.000550523
0.000453023
0.000249943
0.000841421
0.000543179
0.000471892
0.000247337
0.000853836
0.000536188
0.000493974
0.000245301
0.000803639
0.000529873
0.000519532
0.000243889
0.000731912
0.00052444
0.000549426
0.000243075
0.000681706
0.000519976
0.000583969
0.000242759
0.000641603
0.000516467
0.000623107
0.000242829
0.00060553
0.000513931
0.000666639
0.000243292
0.000573154
1.26955e-06
1.45174e-06
1.99677e-06
1.36042e-06
2.57671e-07
3.57325e-07
5.14668e-07
4.02111e-07
4.83023e-07
9.44307e-07
1.45484e-06
1.25238e-06
1.50133e-06
3.06248e-06
4.69877e-06
4.02756e-06
3.68122e-06
7.51196e-06
1.13723e-05
9.71014e-06
7.44263e-06
1.50818e-05
2.24782e-05
1.92162e-05
1.31356e-05
2.63037e-05
3.85602e-05
3.31152e-05
2.09693e-05
4.12946e-05
5.95324e-05
5.14542e-05
3.09685e-05
5.97011e-05
8.46704e-05
7.37057e-05
4.29624e-05
8.07604e-05
0.000112757
9.88535e-05
5.66092e-05
0.000103455
0.000142352
0.0001256
7.14514e-05
0.000126712
0.000172075
0.000152627
8.69908e-05
0.00014958
0.000200824
0.000178803
0.00010276
0.000171348
0.000227859
0.000203306
0.000118373
0.000191633
0.000252838
0.000225647
0.000133551
0.000210291
0.000275713
0.000245598
0.000148123
0.000227213
0.00029647
0.000263152
0.000162028
0.00024236
0.000315185
0.000278374
0.000175248
0.000255776
0.000331999
0.00029143
0.00018778
0.000267605
0.0003471
0.00030256
0.000199633
0.000278125
0.000360701
0.000312002
0.000210811
0.000287695
0.000373028
0.000319965
0.000221327
0.000296557
0.000384311
0.000326611
0.00023122
0.000304886
0.000394717
0.000332033
0.000240554
0.000312791
0.000404359
0.000336256
0.000249384
0.000320323
0.00041333
0.000339287
0.000257775
0.000327505
0.000421715
0.000341175
0.000265799
0.000334345
0.00042959
0.00034201
0.000273536
0.000340854
0.000437029
0.000341898
0.000281079
0.000347054
0.000444109
0.000340943
0.000288528
0.00035297
0.00045091
0.000339242
0.000295993
0.000358637
0.000457518
0.000336875
0.000303592
0.000364096
0.000464027
0.000333906
0.000311451
0.000369403
0.000470532
0.000330401
0.000319653
0.000374627
0.000477121
0.000326419
0.000328111
0.000379852
0.000483825
0.000321966
0.00033652
0.000385184
0.000490579
0.000316993
0.000344475
0.000390743
0.00049728
0.000311452
0.000351656
0.000396669
0.000503855
0.00030531
0.000357965
0.000403104
0.000510259
0.000298543
0.00036348
0.000410086
0.000516439
0.000291135
0.000368292
0.000417428
0.000522335
0.000283082
0.00037247
0.000424772
0.000527878
0.000274387
0.000376062
0.000431746
0.000532979
0.000265069
0.000379085
0.000437977
0.000537501
0.000255167
0.000381532
0.000443139
0.00054127
0.000244746
0.000383357
0.000447118
0.000544075
0.000233871
0.000384459
0.000450034
0.000545754
0.000222603
0.000384692
0.000452061
0.000546359
0.000211003
0.000383816
0.000453363
0.000546131
0.000199136
0.000381411
0.000454084
0.000545316
0.00018709
0.000376786
0.000454336
0.00054411
0.000174954
0.000369348
0.000454183
0.000542639
0.000162809
0.00035935
0.000453628
0.000540968
0.000150735
0.000347722
0.000452595
0.000539121
0.000138807
0.000335229
0.000450915
0.000536718
0.00012708
0.000322311
0.0004483
0.0005323
0.000115588
0.000309202
0.000444324
0.000522732
0.000104344
0.000296084
0.000438364
0.000506511
9.34064e-05
0.000283188
0.000429693
0.000487557
8.30255e-05
0.000270773
0.000418071
0.000468645
7.34719e-05
0.000259017
0.000403833
0.000450258
6.48396e-05
0.000247803
0.000387478
0.000432619
5.73333e-05
0.000236461
0.000369592
0.000415923
5.11745e-05
0.000223868
0.000350808
0.000400151
4.6586e-05
0.000209414
0.000331619
0.000385288
4.39009e-05
0.000194396
0.000312374
0.000371339
4.35069e-05
0.000181466
0.000293406
0.000358345
4.58264e-05
0.000170977
0.000274989
0.000346349
5.12383e-05
0.000162522
0.000257327
0.000335454
6.00581e-05
0.000155997
0.000240546
0.000325847
7.24259e-05
0.000151384
0.000224693
0.000317677
8.82019e-05
0.00014867
0.000209727
0.000311059
0.000106902
0.000147853
0.000195573
0.000306112
0.000127623
0.000148939
0.000182146
0.000302975
0.000148902
0.00015193
0.000169285
0.000301808
0.00016969
0.000156818
0.000156798
0.000302786
0.000189238
0.000163571
0.000144568
0.000306072
0.000206614
0.00017212
0.000132672
0.00031177
0.000220582
0.000182269
0.000121656
)
;

boundaryField
{
    leftWall
    {
        type            kqRWallFunction;
        value           nonuniform List<scalar> 8(7.56747e-07 1.26955e-06 3.76797e-07 1.45174e-06 4.7613e-07 1.99677e-06 9.70309e-07 1.36042e-06);
    }
    rightWall
    {
        type            kqRWallFunction;
        value           nonuniform 0();
    }
    leftSides_periodic0
    {
        type            cyclic;
    }
    leftSides_periodic1
    {
        type            cyclic;
    }
    rightSides_periodic0
    {
        type            cyclic;
    }
    rightSides_periodic1
    {
        type            cyclic;
    }
    leftInOut_periodic0
    {
        type            cyclic;
    }
    leftInOut_periodic1
    {
        type            cyclic;
    }
    rightInOut_periodic0
    {
        type            cyclic;
    }
    rightInOut_periodic1
    {
        type            cyclic;
    }
    procBoundary2to0
    {
        type            processor;
        value           nonuniform List<scalar> 
316
(
2.77849e-07
4.79464e-07
1.03635e-06
8.61438e-07
1.98291e-07
2.45311e-07
4.97669e-07
3.42376e-07
1.08595e-06
1.22557e-06
2.37229e-06
1.51147e-06
3.77256e-06
4.25341e-06
8.06979e-06
5.15965e-06
9.38288e-06
1.06094e-05
1.97155e-05
1.27226e-05
1.90012e-05
2.15417e-05
3.90743e-05
2.55134e-05
3.34545e-05
3.79996e-05
6.70011e-05
4.43945e-05
5.30766e-05
6.03441e-05
0.000103027
6.95032e-05
7.75184e-05
8.81226e-05
0.000145307
0.000100111
0.000105729
0.000120073
0.0001911
0.000134732
0.00013618
0.000154438
0.000237575
0.000171493
0.000167239
0.000189415
0.000282439
0.000208562
0.000197492
0.000223509
0.000324183
0.00024444
0.000225907
0.000255673
0.000362027
0.000278112
0.000251867
0.000285358
0.000395809
0.000309195
0.000275175
0.0003124
0.000425609
0.000337442
0.000295757
0.000336743
0.000451526
0.000362793
0.000313558
0.000358427
0.00047372
0.000385281
0.000328597
0.000377534
0.000492389
0.000404997
0.000340948
0.000394167
0.000507745
0.000422064
0.000350742
0.000408426
0.000520009
0.000436613
0.000358147
0.0004204
0.00052941
0.00044877
0.000363354
0.000430165
0.000536193
0.000458677
0.000366551
0.000437805
0.000540605
0.000466534
0.000367909
0.000443444
0.000542882
0.000472633
0.000367587
0.000447258
0.000543244
0.00047734
0.000365723
0.000449444
0.00054188
0.000481042
0.000362429
0.000450175
0.000538958
0.000484094
0.00035779
0.000449578
0.00053462
0.000486709
0.000351854
0.000447744
0.00052898
0.000488885
0.000344619
0.000444793
0.000522117
0.000490073
0.000336026
0.000440929
0.000514064
0.000489337
0.00032594
0.000436447
0.00050479
0.000485814
0.000314195
0.000431644
0.000494206
0.000479579
0.000300808
0.000426687
0.000482245
0.000471878
0.000286341
0.000421631
0.000469001
0.000464083
0.000271635
0.00041639
0.000454736
0.00045678
0.000257299
0.000410233
0.000439682
0.000449865
0.000243505
0.000401462
0.000423936
0.00044324
0.000230217
0.000388227
0.000407578
0.000436932
0.000217285
0.000370197
0.000390815
0.000431045
0.00020458
0.000349923
0.000373892
0.000425594
0.000192048
0.000330446
0.000356956
0.000420224
0.000179697
0.00031235
0.000340036
0.00041372
0.000167518
0.000295292
0.000323198
0.000405619
0.000155506
0.000279393
0.000306632
0.000397293
0.000143754
0.000264946
0.000290608
0.000389664
0.000132457
0.000251941
0.000275392
0.000382535
0.0001219
0.000240256
0.000261075
0.000375662
0.000112458
0.000229861
0.000247575
0.000369004
0.000104593
0.000220777
0.000234789
0.00036254
9.87847e-05
0.000212973
0.000222635
0.000356226
9.55448e-05
0.000206092
0.000211083
0.00035001
9.49408e-05
0.000198287
0.000200179
0.000343837
9.63605e-05
0.00018606
0.000190068
0.000337652
9.91638e-05
0.000167738
0.000181009
0.000331408
0.000102841
0.000146109
0.000173349
0.000325065
0.000106995
0.00012585
0.00016752
0.000318586
0.000111332
0.000108503
0.000163518
0.000311941
0.000115622
9.42346e-05
0.000160881
0.000305095
0.000119673
8.37091e-05
0.000159199
0.000298004
0.000123303
7.68838e-05
0.000158166
0.00029062
0.000126334
7.318e-05
0.000157545
0.000282917
0.000128596
7.18637e-05
0.000157178
0.000274864
0.000129945
7.2195e-05
0.000156982
0.000266444
0.000130286
7.35592e-05
0.000156951
0.000257632
0.000129616
7.54823e-05
0.00015713
0.000248342
0.000128063
7.7623e-05
0.000157582
0.000238419
0.000125892
7.9757e-05
0.000158383
0.000227619
0.000123438
8.1769e-05
0.000159625
0.000215586
0.000121023
8.36662e-05
0.000161398
0.000201812
0.000118891
8.56052e-05
0.000163768
0.000185598
0.000117183
8.79234e-05
0.000166767
0.000166088
0.000115937
9.11568e-05
0.000170392
0.00014276
0.000115107
9.60089e-05
0.000174613
0.000116628
0.000114603
0.000103229
0.000179378
8.96585e-05
0.000114324
0.000113379
0.00018462
6.44076e-05
0.000114182
0.000126628
0.000190282
4.52639e-05
0.000114114
0.000142663
0.000196342
3.86761e-05
)
;
    }
    procBoundary2to0throughleftSides_periodic1
    {
        type            processorCyclic;
        value           nonuniform List<scalar> 
314
(
3.70614e-06
8.6407e-07
2.27568e-06
7.33543e-06
1.76455e-05
3.4427e-05
5.80388e-05
8.78508e-05
0.00012235
0.000159454
0.000196939
0.000232847
0.000266034
0.000295848
0.000322047
0.000344783
0.00036445
0.000381558
0.000396633
0.00041015
0.000422498
0.000433963
0.000444723
0.000454891
0.000464589
0.000473941
0.000483109
0.000492262
0.00050157
0.0005112
0.000521319
0.000532106
0.000543782
0.000556715
0.000571651
0.00058906
0.000606137
0.000611828
0.000598079
0.000574828
0.000556618
0.000542496
0.000530593
0.000521021
0.000514208
0.000510536
0.000510145
0.000513119
0.000519727
0.000530258
0.000543128
0.000547841
0.000522802
0.000482336
0.000452801
0.000428813
0.000406675
0.000386909
0.000369879
0.000355828
0.000344649
0.000336268
0.000330674
0.000327626
0.000326777
0.000327781
0.000330303
0.000334038
0.000338743
0.000344235
0.000350377
0.000357067
0.000364234
0.000371839
0.000379871
0.000388352
0.000397339
0.000406924
0.000417304
1.35613e-06
2.83394e-07
6.08379e-07
1.94262e-06
4.78477e-06
9.68469e-06
1.71119e-05
2.73796e-05
4.05846e-05
5.65687e-05
7.49243e-05
9.50608e-05
0.000116312
0.000138047
0.000159742
0.000181019
0.000201641
0.00022151
0.000240613
0.000258966
0.000276614
0.000293597
0.000309946
0.000325698
0.000340892
0.000355571
0.000369785
0.000383585
0.000397036
0.00041022
0.00042324
0.000436224
0.000449331
0.000462748
0.000476687
0.000491376
0.000507056
0.000523955
0.000542288
0.000562369
0.00058479
0.000610645
0.000640879
0.000672779
0.000694438
0.000690809
0.0006665
0.000645131
0.000628881
0.000616096
0.000607146
0.000602945
0.000604308
0.000611628
0.000625211
0.000645746
0.000674014
0.000707548
0.000732976
0.00072103
0.000672436
0.0006255
0.000585227
0.0005479
0.000514502
0.000486162
0.000463531
0.000446565
0.000434884
0.000428335
0.000426633
0.000429247
0.00043554
0.000444703
0.000455764
0.000467674
0.000479309
0.000489337
0.000496349
2.6543e-06
6.09757e-07
1.5449e-06
4.96968e-06
1.20503e-05
2.38449e-05
4.09621e-05
6.33894e-05
9.04381e-05
0.000120843
0.000153021
0.000185361
0.000216497
0.000245636
0.000272346
0.000296499
0.000318247
0.000337897
0.000355803
0.000372308
0.000387697
0.000402158
0.000415812
0.000428793
0.000441214
0.000453234
0.000465033
0.000476801
0.000488738
0.000501064
0.000514045
0.000528086
0.000543928
0.000562031
0.000580038
0.000589971
0.000586938
0.000575962
0.000566799
0.000560769
0.000557261
0.000556063
0.000557593
0.000562502
0.000571119
0.000581458
0.000584699
0.000568863
0.000542778
0.000521886
0.000505867
0.0004934
0.000485095
0.000481694
0.00048361
0.000489114
0.000486183
0.000452052
0.000403254
0.000367214
0.00033928
0.000315174
0.000295309
0.000279964
0.0002689
0.000261029
0.00025481
0.000250138
0.000247232
0.000245643
0.000244645
0.000243494
0.000242042
0.00024069
0.000239358
0.000238096
0.000237406
0.000238428
3.52956e-06
8.112e-07
2.21206e-06
7.21949e-06
1.74425e-05
3.41195e-05
5.76927e-05
8.76744e-05
0.000122688
0.000160724
0.000199542
0.000237102
0.000272097
0.000303793
0.000331844
0.000356328
0.000377592
0.000396129
0.00041252
0.000427406
0.000441371
0.000454733
0.000467362
0.000477546
0.000483187
0.000484583
0.000484173
0.000484489
0.000486525
0.000490952
0.00049787
0.000504356
0.000499085
0.000477791
0.000451993
0.000432697
0.000417707
0.000404547
0.000392788
0.000382646
0.000374366
0.000367836
0.000362834
0.00035916
0.000356665
0.000355251
0.000354856
0.000355436
0.000356949
0.000359352
0.000362609
0.000366687
0.000371553
0.000377176
0.000383534
0.000390618
0.000398437
0.000407007
0.000416351
0.000426496
0.000437487
0.000449386
0.000462277
0.000476265
0.000491482
0.000508076
0.000526174
0.00054569
0.000566625
0.000589244
0.000613794
0.000640511
0.000669531
0.000700799
0.000733869
0.000768129
0.000802798
0.000840061
)
;
    }
    procBoundary2to1throughleftSides_periodic1
    {
        type            processorCyclic;
        value           nonuniform List<scalar> 2(0.000242667 0.000874845);
    }
    procBoundary2to1throughrightSides_periodic1
    {
        type            processorCyclic;
        value           nonuniform List<scalar> 2(0.000428634 0.000499217);
    }
    procBoundary2to3
    {
        type            processor;
        value           nonuniform List<scalar> 
11
(
0.000512562
0.000712972
0.000244342
0.00054508
0.000319825
0.000229842
0.000512562
0.000712972
0.000193628
0.000319825
0.000112589
)
;
    }
    procBoundary2to3throughrightInOut_periodic1
    {
        type            processorCyclic;
        value           uniform 0.000229842;
    }
}


// ************************************************************************* //
