/*--------------------------------*- C++ -*----------------------------------*\
| =========                 |                                                 |
| \\      /  F ield         | OpenFOAM: The Open Source CFD Toolbox           |
|  \\    /   O peration     | Version:  v1906                                 |
|   \\  /    A nd           | Web:      www.OpenFOAM.com                      |
|    \\/     M anipulation  |                                                 |
\*---------------------------------------------------------------------------*/
FoamFile
{
    version     2.0;
    format      ascii;
    class       volScalarField;
    location    "97.6";
    object      p_rgh;
}
// * * * * * * * * * * * * * * * * * * * * * * * * * * * * * * * * * * * * * //

dimensions      [1 -1 -2 0 0 0 0];


internalField   nonuniform List<scalar> 
634
(
100004
100138
100057
100150
100006
100139
100059
100152
100008
100140
100061
100154
100010
100141
100062
100156
100012
100142
100064
100157
100014
100143
100065
100159
100015
100144
100067
100161
100016
100145
100068
100162
100017
100146
100069
100162
100017
100147
100069
100163
100018
100147
100070
100163
100018
100148
100070
100164
100019
100148
100071
100164
100019
100148
100071
100164
100020
100148
100071
100164
100020
100149
100072
100164
100020
100149
100072
100164
100021
100149
100072
100164
100021
100149
100073
100164
100021
100149
100073
100164
100022
100149
100073
100164
100022
100149
100074
100164
100023
100149
100074
100164
100023
100149
100074
100163
100024
100149
100075
100163
100024
100149
100075
100163
100025
100148
100075
100163
100026
100148
100076
100162
100026
100148
100076
100162
100027
100148
100077
100161
100028
100148
100077
100161
100028
100147
100077
100161
100029
100147
100078
100161
100030
100147
100078
100160
100030
100146
100079
100160
100031
100146
100079
100160
100032
100145
100079
100159
100033
100145
100080
100159
100034
100145
100081
100158
100035
100145
100081
100157
100036
100144
100082
100157
100037
100144
100082
100156
100038
100143
100083
100155
100039
100143
100084
100154
100040
100142
100085
100153
100042
100142
100085
100152
100043
100141
100086
100151
100044
100141
100087
100150
100046
100140
100088
100148
100047
100139
100089
100147
100049
100138
100089
100146
100050
100138
100090
100145
100052
100137
100091
100143
100053
100136
100092
100141
100055
100135
100093
100140
100057
100134
100094
100138
100058
100133
100095
100136
100060
100132
100096
100134
100062
100131
100096
100133
100064
100131
100097
100131
100065
100130
100098
100129
100067
100129
100099
100128
100069
100128
100100
100127
100071
100126
100101
100125
100073
100125
100101
100124
100074
100124
100102
100122
100076
100123
100103
100120
100078
100122
100104
100119
100080
100121
100104
100117
100082
100120
100105
100116
100083
100119
100106
100114
100085
100118
100107
100113
100087
100117
100107
100112
100089
100116
100108
100112
100091
100115
100109
100111
100093
100114
100109
100110
100094
100113
100110
100109
100096
100112
100111
100108
100098
100111
100111
100107
99800.2
99787.8
99824.4
99779.5
99801.9
99789.6
99826.8
99781.8
99803.6
99791.5
99829.1
99784.2
99805.3
99793.4
99831.5
99786.5
99807.1
99795.3
99833.8
99788.9
99808.8
99797.1
99836
99791
99810.4
99798.8
99837.8
99792.9
99811.8
99800.2
99839.3
99794.5
99813
99801.4
99840.4
99795.7
99814
99802.2
99841.3
99796.5
99814.8
99802.9
99841.9
99797.2
99815.4
99803.5
99842.3
99797.7
99815.9
99803.9
99842.6
99798.1
99816.2
99804.2
99842.9
99798.5
99816.5
99804.5
99843.1
99798.8
99816.7
99804.8
99843.2
99799
99816.9
99805
99843.3
99799.3
99817
99805.2
99843.4
99799.5
99817.1
99805.4
99843.5
99799.7
99817.2
99805.5
99843.5
99799.8
99817.2
99805.7
99843.5
99800
99817.3
99805.9
99843.4
99800.2
99817.3
99806
99843.4
99800.4
99817.3
99806.2
99843.3
99800.6
99817.2
99806.4
99843.3
99800.7
99817.2
99806.5
99843.2
99800.9
99817.1
99806.7
99843.1
99801.1
99817.1
99806.9
99842.9
99801.3
99817
99807.1
99842.8
99801.5
99816.9
99807.3
99842.7
99801.7
99816.8
99807.5
99842.5
99801.9
99816.7
99807.8
99842.3
99802.1
99816.5
99808
99842.1
99802.3
99816.4
99808.2
99841.9
99802.5
99816.3
99808.5
99841.7
99802.7
99816.1
99808.7
99841.5
99802.9
99815.9
99809
99841.2
99803.2
99815.7
99809.3
99841
99803.4
99815.6
99809.5
99840.7
99803.6
99815.4
99809.8
99840.4
99803.9
99815.1
99810.1
99840.1
99804.1
99814.9
99810.4
99839.8
99804.4
99814.7
99810.7
99839.5
99804.6
99814.5
99811
99839.2
99804.9
99814.2
99811.3
99838.9
99805.1
99814
99811.6
99838.6
99805.4
99813.7
99811.9
99838.3
99805.6
99813.4
99812.2
99837.9
99805.9
99813.2
99812.5
99837.6
99806.1
99812.9
99812.8
99837.3
99806.4
99812.7
99813.1
99836.9
99806.6
99812.5
99813.5
99836.6
99806.8
99812.4
99813.8
99836.2
99807
99812.2
99814.1
99835.9
99807.2
99812
99814.4
99835.6
99807.4
99811.8
99814.7
99835.3
99807.6
99811.6
99815
99835
99807.8
99811.3
99815.3
99834.9
99807.9
99811.1
99815.6
99834.7
99808.1
99810.9
99815.8
99834.5
99808.2
99810.7
99816.1
99834.2
99808.4
99810.5
99816.4
99833.9
99808.5
99810.3
99816.7
99833.6
99808.6
99810.2
99816.9
99833.2
99808.8
99810.1
99817.2
99832.9
99808.9
99810.1
99817.4
99832.6
99809
99810.1
99817.7
99832.2
99809.1
99810
99817.9
99831.9
99809.2
99809.9
99818.1
99831.6
99809.3
99809.8
99818.3
99831.3
99809.4
99809.7
99818.6
99831
99809.5
99809.6
99818.8
99830.6
99809.6
99809.5
99819
99830.3
99809.7
99809.4
99819.2
99830
99809.8
99809.3
99819.3
99829.7
99809.9
99809.2
99819.5
99829.4
99810
99809.1
99819.7
99829
99810.1
99809
99819.9
99828.7
99810.2
99808.9
99820
99828.4
99810.4
99808.8
99820.2
)
;

boundaryField
{
    leftWall
    {
        type            fixedFluxPressure;
        gradient        nonuniform List<scalar> 8(-43864 -38838.9 -22768.2 -41701.3 -37156.6 -53876 -44499.1 -53080.3);
        value           nonuniform List<scalar> 8(100003 99799.3 100137 99786.9 100056 99823.2 100149 99778.3);
    }
    rightWall
    {
        type            fixedFluxPressure;
        gradient        nonuniform 0();
        value           nonuniform 0();
    }
    leftSides_periodic0
    {
        type            cyclic;
    }
    leftSides_periodic1
    {
        type            cyclic;
    }
    rightSides_periodic0
    {
        type            cyclic;
    }
    rightSides_periodic1
    {
        type            cyclic;
    }
    leftInOut_periodic0
    {
        type            cyclic;
    }
    leftInOut_periodic1
    {
        type            cyclic;
    }
    rightInOut_periodic0
    {
        type            cyclic;
    }
    rightInOut_periodic1
    {
        type            cyclic;
    }
    procBoundary2to0
    {
        type            processor;
        value           nonuniform List<scalar> 
316
(
100278
100248
100271
100252
100279
100249
100272
100253
100280
100250
100273
100254
100281
100251
100274
100255
100282
100251
100275
100256
100283
100252
100276
100257
100283
100253
100277
100258
100284
100253
100277
100258
100284
100254
100278
100259
100285
100254
100278
100259
100285
100254
100278
100259
100285
100255
100278
100260
100285
100255
100278
100260
100285
100255
100278
100260
100285
100255
100279
100260
100285
100255
100279
100260
100285
100255
100279
100260
100285
100255
100279
100260
100285
100256
100279
100261
100285
100256
100279
100261
100286
100256
100279
100261
100286
100256
100279
100261
100286
100256
100279
100261
100286
100256
100279
100261
100286
100256
100278
100261
100286
100256
100278
100262
100286
100257
100278
100262
100286
100257
100278
100262
100286
100257
100278
100262
100286
100257
100278
100262
100285
100257
100278
100263
100285
100257
100278
100263
100285
100257
100278
100263
100285
100258
100278
100263
100285
100258
100278
100263
100285
100258
100278
100263
100285
100258
100277
100264
100285
100258
100277
100264
100285
100258
100277
100264
100285
100259
100277
100265
100285
100259
100277
100265
100285
100259
100277
100265
100285
100259
100277
100265
100285
100259
100276
100266
100285
100259
100276
100266
100285
100260
100276
100266
100285
100260
100276
100267
100285
100260
100276
100267
100285
100260
100276
100267
100285
100260
100276
100268
100285
100260
100276
100268
100285
100260
100275
100268
100285
100261
100275
100269
100285
100261
100275
100269
100285
100261
100275
100270
100285
100261
100275
100270
100285
100261
100275
100270
100285
100261
100275
100271
100285
100261
100275
100271
100285
100261
100274
100271
100285
100261
100274
100272
100285
100261
100274
100272
100285
100261
100274
100272
100285
100262
100274
100273
100285
100262
100274
100273
100285
100262
100274
100273
100285
100262
100273
100273
100285
100262
100273
100274
100285
100262
100273
100274
100285
100262
100273
100274
100285
100262
100273
100274
100285
100262
100272
100274
100285
100262
100272
100274
100285
100262
100272
100275
100285
100262
100272
100275
100285
100263
100271
100275
100285
100263
100271
100275
100285
100263
100271
100275
100285
100263
100270
100275
)
;
    }
    procBoundary2to0throughleftSides_periodic1
    {
        type            processorCyclic;
        value           nonuniform List<scalar> 
314
(
100000
100000
100001
100001
100002
100002
100003
100003
100003
100003
100004
100004
100004
100004
100004
100004
100004
100004
100005
100005
100005
100005
100005
100005
100005
100005
100005
100005
100005
100006
100006
100006
100006
100006
100006
100006
100006
100006
100006
100006
100006
100006
100006
100006
100006
100006
100006
100006
100006
100005
100005
100005
100005
100005
100005
100005
100005
100005
100005
100005
100005
100004
100004
100004
100004
100004
100004
100003
100003
100003
100003
100003
100002
100002
100002
100002
100001
100001
100001
99985.1
99985.4
99985.6
99985.9
99986.2
99986.4
99986.7
99986.9
99987
99987.2
99987.3
99987.3
99987.4
99987.5
99987.6
99987.6
99987.7
99987.8
99987.8
99987.9
99988
99988.1
99988.2
99988.3
99988.4
99988.5
99988.7
99988.8
99989
99989.1
99989.3
99989.4
99989.6
99989.8
99990
99990.2
99990.4
99990.6
99990.8
99991
99991.2
99991.5
99991.7
99991.9
99992.1
99992.2
99992.4
99992.6
99992.8
99993.1
99993.3
99993.6
99993.9
99994.1
99994.4
99994.6
99994.9
99995.1
99995.3
99995.4
99995.6
99995.8
99996
99996.2
99996.4
99996.6
99996.9
99997.1
99997.3
99997.5
99997.7
99998
99998.2
99998.4
99998.6
99998.9
99999.1
99999.3
99999.6
99997.4
99997.8
99998.1
99998.5
99998.8
99999.1
99999.4
99999.6
99999.7
99999.8
99999.8
99999.8
99999.9
99999.8
99999.8
99999.8
99999.8
99999.7
99999.6
99999.6
99999.5
99999.4
99999.2
99999.1
99999
99998.8
99998.6
99998.5
99998.3
99998.1
99997.9
99997.6
99997.4
99997.1
99996.9
99996.7
99996.6
99996.4
99996.1
99995.8
99995.5
99995.2
99994.8
99994.5
99994.2
99993.8
99993.6
99993.4
99993.2
99993
99992.6
99992.3
99991.9
99991.6
99991.2
99990.9
99990.7
99990.5
99990.4
99990.1
99989.9
99989.6
99989.3
99989
99988.7
99988.5
99988.2
99987.9
99987.6
99987.3
99987
99986.7
99986.4
99986.1
99985.9
99985.6
99985.4
99985.1
99965.1
99965.6
99966
99966.5
99966.9
99967.2
99967.5
99967.8
99967.9
99968.1
99968.2
99968.3
99968.3
99968.4
99968.5
99968.6
99968.7
99968.8
99968.9
99969
99969.1
99969.2
99969.3
99969.5
99969.6
99969.7
99969.9
99970
99970.2
99970.4
99970.6
99970.8
99971
99971.1
99971.3
99971.5
99971.7
99972
99972.2
99972.5
99972.8
99973.1
99973.4
99973.8
99974.1
99974.5
99974.8
99975.2
99975.6
99976
99976.4
99976.9
99977.3
99977.8
99978.3
99978.7
99979.2
99979.7
99980.2
99980.7
99981.1
99981.6
99982.1
99982.5
99983
99983.4
99983.8
99984.2
99984.6
99984.9
99985.3
99985.6
99985.9
99986.2
99986.5
99986.8
99987.1
99987.4
)
;
    }
    procBoundary2to1throughleftSides_periodic1
    {
        type            processorCyclic;
        value           nonuniform List<scalar> 2(99985 99987.6);
    }
    procBoundary2to1throughrightSides_periodic1
    {
        type            processorCyclic;
        value           nonuniform List<scalar> 2(100001 99999.8);
    }
    procBoundary2to3
    {
        type            processor;
        value           nonuniform List<scalar> 
11
(
100100
100110
100112
100106
99828.2
99810.6
100100
100110
99808.7
99828.2
99820.3
)
;
    }
    procBoundary2to3throughrightInOut_periodic1
    {
        type            processorCyclic;
        value           uniform 99810.6;
    }
}


// ************************************************************************* //
