/*--------------------------------*- C++ -*----------------------------------*\
| =========                 |                                                 |
| \\      /  F ield         | OpenFOAM: The Open Source CFD Toolbox           |
|  \\    /   O peration     | Version:  v1912                                 |
|   \\  /    A nd           | Website:  www.openfoam.com                      |
|    \\/     M anipulation  |                                                 |
\*---------------------------------------------------------------------------*/
FoamFile
{
    version     2.0;
    format      ascii;
    class       volVectorField;
    location    "98.8";
    object      U;
}
// * * * * * * * * * * * * * * * * * * * * * * * * * * * * * * * * * * * * * //

dimensions      [0 1 -1 0 0 0 0];


internalField   nonuniform List<vector> 
2528
(
(-0.000106209 -0.000436202 0.00429026)
(-0.000396308 2.27255e-06 0.00522472)
(5.51413e-05 -1.64143e-06 0.00518893)
(0.000552098 2.67583e-06 0.0037277)
(-0.000302171 9.97891e-05 0.0132003)
(-0.00235107 6.55336e-06 0.0159565)
(0.00014978 -1.96726e-05 0.0157202)
(0.00281904 9.20736e-06 0.0115552)
(-0.00051164 -0.000283835 0.0223908)
(-0.00477547 7.07757e-06 0.0269156)
(0.000258761 -4.77107e-05 0.0263928)
(0.00555704 1.48237e-05 0.0197013)
(-0.000722131 4.99276e-05 0.0316962)
(-0.00673604 1.13248e-05 0.0378994)
(0.000370204 -9.05095e-05 0.0370629)
(0.00783014 2.58481e-05 0.0279876)
(-0.000921661 -4.64263e-05 0.0410471)
(-0.00807872 1.10636e-05 0.0488136)
(0.000472937 -0.000141099 0.0476461)
(0.00947936 3.51351e-05 0.0363514)
(-0.00110985 6.4573e-06 0.0503951)
(-0.00899084 1.01485e-05 0.0595949)
(0.00056732 -0.000199004 0.0580768)
(0.0106872 4.60537e-05 0.0447646)
(-0.00128649 2.65477e-05 0.0596668)
(-0.00956568 8.04505e-06 0.0701578)
(0.000653843 -0.000262387 0.0682813)
(0.0115403 5.81769e-05 0.0531712)
(-0.00145166 4.79756e-05 0.0687804)
(-0.00986711 4.77119e-06 0.0804113)
(0.000733158 -0.000329794 0.0781858)
(0.0120951 7.14925e-05 0.0615024)
(-0.00160566 7.18346e-05 0.0776533)
(-0.00994872 6.20529e-07 0.0902649)
(0.000805856 -0.000400142 0.0877147)
(0.012398 8.61952e-05 0.0696813)
(-0.00174881 9.65734e-05 0.0862103)
(-0.00985852 -4.30919e-06 0.0996413)
(0.000872338 -0.000472337 0.0967981)
(0.012492 0.000102344 0.0776301)
(-0.00188137 0.000122289 0.0943937)
(-0.00963901 -9.78971e-06 0.108492)
(0.000932805 -0.000545553 0.105386)
(0.0124175 0.00011991 0.085282)
(-0.00200357 0.000147366 0.102171)
(-0.0093244 -1.56381e-05 0.116805)
(0.00098722 -0.000619059 0.113458)
(0.0122116 0.000138967 0.0925931)
(-0.00211554 0.000171067 0.109535)
(-0.00894022 -2.20471e-05 0.124597)
(0.00103549 -0.000691817 0.12102)
(0.0119051 0.000159591 0.0995453)
(-0.00221746 0.000195624 0.116497)
(-0.00850621 -2.91467e-05 0.131926)
(0.00107766 -0.000763318 0.128129)
(0.0115215 0.000181489 0.106142)
(-0.00230984 0.000221458 0.123105)
(-0.00804034 -3.67878e-05 0.138863)
(0.00111343 -0.000833348 0.134841)
(0.0110792 0.000204427 0.112422)
(-0.0023929 0.000247855 0.129406)
(-0.00756108 -4.45281e-05 0.14545)
(0.00114234 -0.000901642 0.141189)
(0.0105951 0.000228543 0.118435)
(-0.00246652 0.000272259 0.135424)
(-0.00708319 -5.20704e-05 0.151715)
(0.00116405 -0.000967984 0.147198)
(0.0100875 0.000254163 0.124208)
(-0.00253068 0.000294275 0.141179)
(-0.00661569 -5.94207e-05 0.157684)
(0.00117826 -0.0010321 0.152896)
(0.0095713 0.000281425 0.12976)
(-0.00258536 0.000315406 0.146687)
(-0.00616431 -6.6471e-05 0.163377)
(0.00118472 -0.00109393 0.158308)
(0.00905594 0.000310165 0.135102)
(-0.00263064 0.000335438 0.151966)
(-0.0057329 -7.30706e-05 0.168816)
(0.00118332 -0.00115342 0.163459)
(0.00854737 0.000340272 0.140251)
(-0.00266667 0.000354318 0.157031)
(-0.00532373 -7.92076e-05 0.174016)
(0.00117402 -0.00121052 0.16837)
(0.00804992 0.000371679 0.145221)
(-0.0026937 0.000371797 0.161893)
(-0.00493772 -8.49631e-05 0.178993)
(0.00115688 -0.00126515 0.17306)
(0.00756689 0.000404344 0.150025)
(-0.00271202 0.000387668 0.166565)
(-0.00457458 -9.04004e-05 0.183763)
(0.00113205 -0.00131729 0.177545)
(0.00710116 0.000438396 0.154674)
(-0.00272202 0.000402177 0.171058)
(-0.00423303 -9.55938e-05 0.188341)
(0.00109978 -0.00136699 0.18184)
(0.00665518 0.000474052 0.159175)
(-0.00272415 0.000415497 0.175383)
(-0.00391106 -0.000100661 0.192741)
(0.00106037 -0.00141433 0.185956)
(0.00623052 0.000511363 0.163531)
(-0.00271886 0.000427614 0.179554)
(-0.00360668 -0.00010574 0.196976)
(0.00101424 -0.00145944 0.189903)
(0.00582757 0.000550148 0.167743)
(-0.00270661 0.000438058 0.183583)
(-0.00331889 -0.000110915 0.201058)
(0.000961845 -0.0015025 0.193691)
(0.00544592 0.000590087 0.171818)
(-0.00268787 0.000446233 0.187479)
(-0.00304868 -0.000115947 0.204993)
(0.000903705 -0.0015436 0.197331)
(0.00508497 0.000630895 0.17576)
(-0.0026631 0.000452009 0.191252)
(-0.00279896 -0.000120111 0.208776)
(0.000840374 -0.00158285 0.200836)
(0.00474408 0.000672418 0.179579)
(-0.00263275 0.000455653 0.194917)
(-0.00257302 -0.000122498 0.212388)
(0.000772378 -0.00162038 0.20422)
(0.00442249 0.000714501 0.183281)
(-0.00259723 0.000458095 0.198491)
(-0.00237161 -0.00012262 0.215805)
(0.000700181 -0.00165631 0.207504)
(0.00411931 0.000757016 0.186873)
(-0.0025568 0.000460927 0.201996)
(-0.00219048 -0.000121229 0.219011)
(0.000624149 -0.00169066 0.210706)
(0.00383348 0.0007999 0.190361)
(-0.00251153 0.000465594 0.205459)
(-0.00202071 -0.000120553 0.22201)
(0.00054447 -0.00172331 0.21385)
(0.00356382 0.000843119 0.193751)
(-0.00246128 0.000472137 0.2089)
(-0.00185242 -0.000122613 0.224832)
(0.000461137 -0.0017541 0.216957)
(0.00330905 0.000886649 0.197048)
(-0.00240576 0.000478823 0.212324)
(-0.0016796 -0.000127827 0.227526)
(0.000374066 -0.00178288 0.220035)
(0.00306788 0.000930458 0.200255)
(-0.00234473 0.000483262 0.215709)
(-0.001502 -0.00013495 0.230131)
(0.000283312 -0.00180954 0.223075)
(0.00283907 0.000974466 0.203375)
(-0.00227828 0.000483912 0.219008)
(-0.00132257 -0.000142437 0.232673)
(0.000189363 -0.00183408 0.22604)
(0.00262151 0.00101849 0.20641)
(-0.002207 0.000480595 0.222175)
(-0.00114356 -0.000149687 0.235165)
(9.3293e-05 -0.00185657 0.228875)
(0.00241429 0.00106229 0.209358)
(-0.00213193 0.000474258 0.225173)
(-0.000965425 -0.000157113 0.237613)
(-3.42028e-06 -0.0018771 0.231531)
(0.00221691 0.00110561 0.212217)
(-0.00205408 0.000466602 0.227989)
(-0.000788118 -0.000165019 0.240018)
(-9.9303e-05 -0.00189608 0.233982)
(0.0020296 0.00114831 0.214982)
(-0.00197408 0.000458685 0.230635)
(-0.000612471 -0.000173304 0.24238)
(-0.000193134 -0.0019137 0.236229)
(0.00185348 0.00119038 0.21764)
(-0.00189213 0.000449821 0.233137)
(-0.000440502 -0.000181729 0.24469)
(-0.000284098 -0.00192877 0.238294)
(0.0016901 0.00123233 0.220177)
(-0.00180811 0.000440499 0.235532)
(-0.000275041 -0.000190038 0.246938)
(-0.000372449 -0.00194079 0.240217)
(0.00153939 0.00127505 0.222573)
(-0.00172158 0.000434759 0.23786)
(-0.000119164 -0.000197955 0.249109)
(-0.000458323 -0.00195154 0.242024)
(0.00139691 0.00131828 0.224811)
(-0.00163155 0.000437591 0.240172)
(2.43462e-05 -0.000205207 0.251185)
(-0.000540785 -0.00196221 0.243715)
(0.00125339 0.00135883 0.226895)
(-0.0015366 0.000447107 0.242515)
(0.000153466 -0.00021156 0.253153)
(-0.000618847 -0.00197213 0.24529)
(0.00110001 0.00139357 0.228866)
(-0.00143596 0.000452831 0.244907)
(0.000267244 -0.000216939 0.255005)
(-0.000691996 -0.00198136 0.24675)
(0.000937056 0.0014221 0.230784)
(-0.00133103 0.000441956 0.247303)
(0.000365679 -0.000221574 0.256739)
(-0.000760794 -0.00199115 0.248102)
(0.000777127 0.00144713 0.232704)
(-0.00122552 0.000411151 0.249619)
(0.000449096 -0.000225895 0.258363)
(-0.00082749 -0.00200205 0.249363)
(0.000638583 0.00147157 0.234656)
(-0.00112327 0.000373505 0.251782)
(0.000517327 -0.000230218 0.259891)
(-0.000895627 -0.00201417 0.250564)
(0.000536623 0.00149591 0.23665)
(-0.00102566 0.000340619 0.253788)
(0.000569189 -0.000234506 0.261339)
(-0.000968447 -0.00202716 0.251731)
(0.00048033 0.00151899 0.238687)
(-0.000931594 0.000312831 0.255687)
(0.000602613 -0.000238436 0.262722)
(-0.00104809 -0.00204068 0.252882)
(0.000474685 0.00154048 0.240758)
(-0.000839376 0.000291756 0.257538)
(0.00061523 -0.000241554 0.264054)
(-0.00113545 -0.00205478 0.25403)
(0.000521369 0.00156129 0.242844)
(-0.000746338 0.000285374 0.259413)
(0.000604776 -0.000243378 0.265344)
(-0.00123029 -0.00206895 0.255182)
(0.000616712 0.00158265 0.244904)
(-0.000645695 0.000300069 0.261431)
(0.000569168 -0.000243522 0.2666)
(-0.00133132 -0.00208193 0.256338)
(0.000750885 0.00160475 0.246887)
(-0.000527416 0.000319913 0.263724)
(0.000506325 -0.000241804 0.267825)
(-0.00143683 -0.00209239 0.257471)
(0.000912347 0.00162652 0.24875)
(-0.000387612 0.000319803 0.266304)
(0.000413953 -0.000238154 0.269024)
(-0.0015461 -0.00209958 0.258527)
(0.00109394 0.00164653 0.250483)
(-0.000238367 0.000288381 0.268966)
(0.000289728 -0.000232423 0.2702)
(-0.0016576 -0.00210439 0.259479)
(0.00129521 0.00166281 0.2521)
(-0.000102679 0.000228232 0.271399)
(0.00013202 -0.000224826 0.271355)
(-0.00176844 -0.00210974 0.260325)
(0.00152181 0.00167432 0.253629)
(3.71222e-06 0.000176667 0.273442)
(-6.09749e-05 -0.000216069 0.272493)
(-0.00187556 -0.00211674 0.261074)
(0.00177788 0.00168111 0.25508)
(8.07073e-05 0.000166404 0.275178)
(-0.000294085 -0.000205905 0.273617)
(-0.0019764 -0.00212568 0.261734)
(0.00205682 0.00168237 0.256468)
(0.000134498 0.000186211 0.276762)
(-0.000575449 -0.000192881 0.274728)
(-0.00206887 -0.00213688 0.262313)
(0.00234351 0.00167733 0.25783)
(0.000171097 0.000201174 0.278276)
(-0.000912161 -0.000176066 0.275815)
(-0.00215126 -0.00215066 0.262815)
(0.00262428 0.00166725 0.259198)
(0.000195147 0.000203327 0.279747)
(-0.00130677 -0.000157216 0.276868)
(-0.00222234 -0.00216734 0.263245)
(0.00289077 0.00165423 0.260587)
(0.000209008 0.000208041 0.281201)
(-0.00176122 -0.000139186 0.277886)
(-0.00228145 -0.00218742 0.263605)
(0.0031403 0.00163925 0.262011)
(0.000214415 0.000220583 0.282665)
(-0.00227836 -0.000120684 0.278872)
(-0.00232853 -0.0022113 0.263896)
(0.00337666 0.00162255 0.263478)
(0.000214169 0.000232982 0.28417)
(-0.00284759 -9.94275e-05 0.279817)
(-0.00236413 -0.00223936 0.264116)
(0.00361056 0.00160548 0.264993)
(0.000208852 0.000237366 0.285744)
(-0.00344073 -7.84924e-05 0.28071)
(-0.00238939 -0.00227199 0.264265)
(0.0038571 0.00159013 0.266541)
(0.000199079 0.000253539 0.287409)
(-0.00402988 -5.95767e-05 0.281544)
(-0.00240599 -0.00230942 0.26434)
(0.0041259 0.00157841 0.268079)
(0.000192771 0.000317391 0.289307)
(-0.0045948 -4.04605e-05 0.282317)
(-0.00241598 -0.00235179 0.264339)
(0.00441703 0.00156811 0.269578)
(0.00020652 0.000405249 0.291738)
(-0.00512125 -2.04947e-05 0.283027)
(-0.00242154 -0.00239924 0.264259)
(0.00472979 0.00155735 0.271034)
(0.000262334 0.000470255 0.294871)
(-0.00559895 5.03796e-07 0.283676)
(-0.00242488 -0.00245183 0.264095)
(0.00506807 0.00154644 0.272455)
(0.000361133 0.000541736 0.298322)
(-0.006018 2.2757e-05 0.284266)
(-0.00242796 -0.00250958 0.263843)
(0.00543805 0.0015346 0.273857)
(0.000468718 0.000610296 0.301392)
(-0.00636616 4.57348e-05 0.284796)
(-0.00243236 -0.00257247 0.263499)
(0.00584269 0.00152068 0.275255)
(0.000554004 0.00068672 0.303697)
(-0.00662889 7.09019e-05 0.285256)
(-0.00243907 -0.00264038 0.263057)
(0.00627418 0.00150459 0.276654)
(0.000615647 0.00081753 0.305463)
(-0.00679309 0.00010255 0.285613)
(-0.00244838 -0.00271279 0.262508)
(0.00670488 0.00149064 0.278029)
(0.000658356 0.000962257 0.306914)
(-0.0068553 0.000143944 0.28578)
(-0.00245981 -0.00278893 0.261846)
(0.00708004 0.00148364 0.279253)
(0.000692716 0.00109322 0.3081)
(-0.00682752 0.000196551 0.285607)
(-0.00247248 -0.00286834 0.261059)
(0.00731401 0.00148662 0.279992)
(0.00072955 0.00123668 0.309049)
(-0.00671824 0.00024834 0.285053)
(-0.00248779 -0.00294502 0.260139)
(0.00729632 0.00149357 0.279905)
(-0.00029826 9.18192e-07 0.00701852)
(-5.73746e-05 -1.34656e-06 0.00899824)
(0.00022401 1.15562e-06 0.00789236)
(0.000198616 -2.18844e-06 0.0065549)
(-0.000974009 -7.09151e-07 0.019603)
(-0.000316121 -8.35977e-06 0.0245404)
(0.000751687 -2.56848e-06 0.0222821)
(0.000738591 -5.78111e-06 0.0176305)
(-0.00167352 -2.30993e-06 0.0315306)
(-0.000602791 -2.17713e-05 0.038711)
(0.00130551 -8.11034e-06 0.0358818)
(0.001309 -1.30967e-05 0.0276239)
(-0.00228857 -5.81896e-06 0.0431889)
(-0.000822164 -3.94906e-05 0.0524607)
(0.00178049 -1.93508e-05 0.0489655)
(0.00181523 -2.0816e-05 0.0374259)
(-0.00279174 -1.04335e-05 0.0545516)
(-0.000971523 -6.14948e-05 0.0658945)
(0.00215285 -3.3299e-05 0.0615312)
(0.00225436 -2.98032e-05 0.0471586)
(-0.00319713 -1.61312e-05 0.0655261)
(-0.00107215 -8.66867e-05 0.0788333)
(0.00243995 -5.02164e-05 0.0735377)
(0.00264694 -3.98613e-05 0.0566677)
(-0.00351167 -2.27528e-05 0.0760726)
(-0.0011335 -0.000114597 0.091207)
(0.00265155 -6.95615e-05 0.0849798)
(0.00300049 -5.08424e-05 0.0658953)
(-0.00374278 -3.01942e-05 0.0861644)
(-0.00116149 -0.000144647 0.102964)
(0.00279692 -9.0986e-05 0.0958525)
(0.00331809 -6.27303e-05 0.074807)
(-0.00390004 -3.8293e-05 0.0957722)
(-0.00116115 -0.000176536 0.114048)
(0.00288647 -0.000114229 0.106136)
(0.00360134 -7.542e-05 0.0833669)
(-0.0039952 -4.70972e-05 0.104866)
(-0.00113727 -0.000209776 0.124415)
(0.00293167 -0.000139186 0.115802)
(0.00385161 -8.8918e-05 0.0915362)
(-0.00404131 -5.64929e-05 0.113425)
(-0.00109425 -0.00024399 0.13405)
(0.00294438 -0.000165698 0.124836)
(0.00407068 -0.000103245 0.0992823)
(-0.00405142 -6.63707e-05 0.121446)
(-0.00103621 -0.000279052 0.142977)
(0.00293571 -0.000193615 0.133244)
(0.00426097 -0.000118259 0.106589)
(-0.00403782 -7.68569e-05 0.128947)
(-0.000967394 -0.000314518 0.151258)
(0.0029156 -0.000222838 0.141056)
(0.00442546 -0.000133922 0.113456)
(-0.00401163 -8.78157e-05 0.135973)
(-0.000892464 -0.000350417 0.15895)
(0.0028928 -0.000253213 0.148338)
(0.0045683 -0.00015003 0.119904)
(-0.00398246 -9.92149e-05 0.142567)
(-0.000815856 -0.000386701 0.166072)
(0.00287485 -0.00028473 0.155149)
(0.00469457 -0.000166374 0.125957)
(-0.00395838 -0.000111006 0.148751)
(-0.000740898 -0.000423154 0.17265)
(0.0028681 -0.000317306 0.161523)
(0.0048091 -0.000182883 0.131619)
(-0.00394525 -0.000123042 0.15454)
(-0.000669912 -0.000459853 0.178711)
(0.00287717 -0.000350848 0.167488)
(0.00491551 -0.000199318 0.136893)
(-0.0039468 -0.000135289 0.159955)
(-0.000604274 -0.000496737 0.184291)
(0.00290505 -0.000385304 0.173073)
(0.00501621 -0.000215414 0.141791)
(-0.00396502 -0.000147629 0.165019)
(-0.000544328 -0.000533688 0.189437)
(0.00295353 -0.000420611 0.178304)
(0.0051127 -0.000230906 0.146341)
(-0.00400048 -0.000159911 0.169757)
(-0.000489607 -0.00057079 0.194205)
(0.00302339 -0.000456668 0.183206)
(0.00520579 -0.000245521 0.150577)
(-0.00405264 -0.000172035 0.174198)
(-0.000439168 -0.000608069 0.198648)
(0.00311452 -0.0004934 0.187805)
(0.00529583 -0.000258973 0.154537)
(-0.00412023 -0.000183898 0.178372)
(-0.000392026 -0.000645549 0.202817)
(0.00322614 -0.000530716 0.192127)
(0.00538284 -0.000271011 0.158257)
(-0.00420154 -0.000195403 0.18231)
(-0.000347634 -0.000683313 0.206756)
(0.00335702 -0.000568512 0.196197)
(0.00546696 -0.000281399 0.161771)
(-0.0042947 -0.000206464 0.18604)
(-0.000305927 -0.0007214 0.210497)
(0.00350564 -0.000606691 0.20004)
(0.00554878 -0.000289923 0.165108)
(-0.00439784 -0.000216985 0.189588)
(-0.000266806 -0.000759823 0.214062)
(0.00367038 -0.00064515 0.20368)
(0.0056291 -0.000296393 0.168289)
(-0.00450922 -0.000226867 0.192978)
(-0.000229832 -0.000798562 0.217478)
(0.00384955 -0.000683798 0.207137)
(0.00570862 -0.000300644 0.171326)
(-0.00462732 -0.000236074 0.196227)
(-0.000194338 -0.000837703 0.220768)
(0.0040415 -0.000722562 0.210429)
(0.00578781 -0.00030252 0.174231)
(-0.00475112 -0.000244551 0.199353)
(-0.000159546 -0.000877695 0.223958)
(0.00424458 -0.00076138 0.213571)
(0.00586695 -0.000301887 0.177015)
(-0.00487988 -0.000252207 0.202369)
(-0.000124731 -0.000918162 0.22707)
(0.00445717 -0.000800205 0.216577)
(0.00594623 -0.000298629 0.179688)
(-0.00501303 -0.000258965 0.205284)
(-8.73988e-05 -0.000958942 0.230146)
(0.0046777 -0.000838992 0.21946)
(0.00602568 -0.000292629 0.182258)
(-0.00515005 -0.000264791 0.208106)
(-3.71847e-05 -0.00100123 0.233297)
(0.00490458 -0.000877638 0.22223)
(0.00610521 -0.000283783 0.18473)
(-0.0052904 -0.000269686 0.210843)
(4.16636e-05 -0.00104301 0.236738)
(0.00513642 -0.000916012 0.224899)
(0.00618456 -0.000271994 0.187113)
(-0.00543357 -0.000273668 0.213499)
(0.000153361 -0.00108731 0.2407)
(0.00537204 -0.000953906 0.227473)
(0.00626333 -0.000257174 0.189412)
(-0.00557911 -0.000276668 0.216079)
(0.00026887 -0.00113591 0.244899)
(0.0056102 -0.000991131 0.229958)
(0.00634095 -0.000239243 0.191636)
(-0.00572669 -0.000278476 0.218585)
(0.000342382 -0.00118505 0.24848)
(0.0058496 -0.00102763 0.232355)
(0.00641667 -0.000218133 0.193793)
(-0.00587613 -0.00027885 0.221019)
(0.000378672 -0.00123428 0.251228)
(0.00608882 -0.00106338 0.234668)
(0.00648957 -0.000193784 0.195892)
(-0.00602731 -0.000277663 0.223381)
(0.000408003 -0.00128458 0.253557)
(0.00632632 -0.00109839 0.236899)
(0.00655848 -0.000166164 0.197945)
(-0.00618004 -0.000274946 0.22567)
(0.000441759 -0.00133894 0.255735)
(0.00656021 -0.00113267 0.23905)
(0.006622 -0.000135229 0.199968)
(-0.00633405 -0.000270837 0.227888)
(0.000474486 -0.00139588 0.257745)
(0.00678825 -0.00116632 0.241127)
(0.00667843 -0.000100981 0.201977)
(-0.00648905 -0.000265498 0.230035)
(0.000502125 -0.00145383 0.259555)
(0.00700782 -0.00119948 0.243134)
(0.00672586 -6.35745e-05 0.203995)
(-0.00664468 -0.000259095 0.232112)
(0.000525235 -0.00151344 0.261173)
(0.00721588 -0.00123242 0.245081)
(0.00676242 -2.27984e-05 0.206046)
(-0.00680055 -0.000251791 0.234121)
(0.00054444 -0.00157488 0.26261)
(0.00740902 -0.00126537 0.24698)
(0.00678703 2.1523e-05 0.208155)
(-0.00695619 -0.000243741 0.236065)
(0.000559607 -0.00163812 0.263874)
(0.00758348 -0.00129851 0.248844)
(0.00678601 6.74424e-05 0.210432)
(-0.00711106 -0.000235114 0.237947)
(0.000570099 -0.00170309 0.264971)
(0.0077353 -0.00133084 0.250691)
(0.0067323 0.000114119 0.213089)
(-0.00726448 -0.000226079 0.239768)
(0.000575283 -0.00176973 0.265909)
(0.00786044 -0.00136468 0.252539)
(0.00661845 0.000167235 0.21648)
(-0.00741546 -0.000216658 0.24153)
(0.000574839 -0.00183796 0.266698)
(0.00794641 -0.00139897 0.254445)
(0.00648538 0.000226329 0.220436)
(-0.00756307 -0.000206636 0.243233)
(0.000568549 -0.00190774 0.26735)
(0.0079787 -0.00142912 0.256531)
(0.00642402 0.00028064 0.223636)
(-0.00770644 -0.000195733 0.244878)
(0.000556048 -0.00197902 0.267879)
(0.00796036 -0.00146201 0.259022)
(0.00642069 0.00033341 0.225941)
(-0.00784458 -0.000183745 0.246462)
(0.000536909 -0.0020516 0.268295)
(0.00790313 -0.00149773 0.261804)
(0.00642984 0.000391707 0.227923)
(-0.00797612 -0.000170657 0.247987)
(0.000510816 -0.00212545 0.268604)
(0.00784388 -0.00153334 0.264131)
(0.00644301 0.000454102 0.229817)
(-0.00809948 -0.000156537 0.249452)
(0.000477644 -0.00220052 0.268817)
(0.00779581 -0.00157021 0.265884)
(0.00647051 0.000516419 0.231569)
(-0.00821295 -0.000141425 0.250859)
(0.000437464 -0.00227683 0.268939)
(0.00774495 -0.00160812 0.267377)
(0.00651508 0.000580528 0.233176)
(-0.00831461 -0.000125309 0.252214)
(0.000390478 -0.00235435 0.268977)
(0.00768346 -0.00164645 0.268741)
(0.00657221 0.000646815 0.234674)
(-0.00840247 -0.000107936 0.253517)
(0.000336859 -0.00243306 0.268936)
(0.00761468 -0.00168591 0.269949)
(0.00663759 0.000715087 0.236102)
(-0.00847445 -8.88402e-05 0.254773)
(0.000276632 -0.00251279 0.268819)
(0.00753932 -0.00172694 0.271)
(0.00670683 0.000785162 0.2375)
(-0.00852843 -6.75126e-05 0.255983)
(0.000209415 -0.00259285 0.268627)
(0.00745352 -0.00176809 0.271909)
(0.00677556 0.000856419 0.238913)
(-0.00856231 -4.33435e-05 0.257144)
(0.000133992 -0.00267435 0.268355)
(0.00735388 -0.00180983 0.272687)
(0.0068405 0.00093038 0.240388)
(-0.00857396 -1.59092e-05 0.258255)
(4.75744e-05 -0.00275389 0.26799)
(0.00723755 -0.00185201 0.273344)
(0.006881 0.00100431 0.242063)
(-0.00856085 1.44493e-05 0.259317)
(-4.86171e-05 -0.00283597 0.267536)
(0.0071024 -0.00189445 0.273891)
(0.00685558 0.00107228 0.244204)
(-0.00851948 4.68448e-05 0.260341)
(-0.00015652 -0.00291861 0.266986)
(0.00694714 -0.00193672 0.274336)
(0.00675312 0.00114667 0.247241)
(-0.00844495 8.06062e-05 0.261352)
(-0.000303901 -0.0029964 0.266196)
(0.00677131 -0.00197872 0.274687)
(0.00661849 0.0012295 0.251194)
(-0.00833157 0.000115881 0.262385)
(-0.000498228 -0.00307884 0.265111)
(0.00657491 -0.00202096 0.274953)
(0.0065921 0.0012998 0.254304)
(-0.00817551 0.000152819 0.263471)
(-0.000671018 -0.00315389 0.264118)
(0.00635839 -0.00206398 0.275146)
(0.00665471 0.00136402 0.256284)
(-0.00797804 0.00019172 0.26461)
(-0.000791549 -0.00322262 0.2634)
(0.00612192 -0.00210797 0.275277)
(0.0067395 0.00143321 0.257867)
(-0.00774706 0.000232622 0.265747)
(-0.0008714 -0.00329588 0.262881)
(0.00586492 -0.00215252 0.275354)
(0.00683156 0.00150353 0.259342)
(-0.00749476 0.000275126 0.266801)
(-0.000930877 -0.00336446 0.262442)
(0.00558725 -0.00219746 0.275381)
(0.00694194 0.00157013 0.260659)
(-0.00723123 0.000319658 0.26772)
(-0.000978724 -0.00342672 0.262028)
(0.00528939 -0.00224275 0.275362)
(0.00707305 0.00163574 0.261814)
(-0.00696153 0.000366661 0.268497)
(-0.00101665 -0.00348559 0.261614)
(0.00497219 -0.00228839 0.275297)
(0.00721789 0.00170017 0.262849)
(-0.00668652 0.00041664 0.269158)
(-0.00104674 -0.00353986 0.261172)
(0.0046367 -0.00233432 0.27519)
(0.00737094 0.00176381 0.263797)
(-0.0064051 0.000470878 0.269747)
(-0.00107149 -0.00358831 0.26067)
(0.00428413 -0.0023805 0.27504)
(0.00752722 0.00182661 0.264688)
(-0.0061162 0.000530833 0.270303)
(-0.00109434 -0.0036322 0.26007)
(0.00391579 -0.00242689 0.274851)
(0.00768184 0.00188861 0.265548)
(-0.00581991 0.000598716 0.270852)
(-0.00112118 -0.0036654 0.259323)
(0.00353306 -0.00247348 0.274623)
(0.00782943 0.00194983 0.266405)
(-0.00551806 0.000676366 0.271395)
(-0.0011444 -0.00369102 0.258441)
(0.00313723 -0.00252018 0.274359)
(0.00796337 0.00201036 0.267285)
(-0.00521389 0.000763603 0.271918)
(-0.00114292 -0.00371441 0.25751)
(0.00272942 -0.00256667 0.274061)
(0.00807473 0.00207044 0.268219)
(-0.00491165 0.0008592 0.272411)
(-0.00116034 -0.00373596 0.256145)
(0.00231105 -0.00261287 0.273733)
(0.00815084 0.00213038 0.269239)
(-0.00461508 0.000962738 0.272869)
(-0.00138077 -0.00374483 0.252919)
(0.00188353 -0.00265964 0.273377)
(0.00817363 0.00219054 0.270386)
(-0.00432636 0.00107401 0.273301)
(-0.00187272 -0.00372832 0.247421)
(0.00144802 -0.0027083 0.272997)
(0.00811889 0.00225094 0.271714)
(-0.00404564 0.00119254 0.273715)
(-0.00213231 -0.00371782 0.243763)
(0.00100528 -0.0027589 0.272596)
(0.00795499 0.0023123 0.273298)
(-0.00377306 0.00131385 0.274104)
(-0.0021749 -0.00369682 0.241592)
(0.000557276 -0.00281047 0.272157)
(0.00762183 0.00236724 0.275347)
(-0.00015621 -2.35727e-05 0.00743581)
(-4.71281e-05 2.56718e-05 0.00804636)
(5.91307e-05 -1.83717e-05 0.00781135)
(2.44669e-05 2.29808e-05 0.00741637)
(-0.000801406 -4.49237e-05 0.0213491)
(-0.000809256 5.01774e-05 0.0230099)
(0.000511099 -3.86497e-05 0.0224191)
(0.000746627 4.90558e-05 0.0212079)
(-0.00156566 -8.28347e-05 0.034579)
(-0.00211889 0.000105166 0.0371399)
(0.0010809 -8.82187e-05 0.0362648)
(0.00202177 0.000105986 0.0342308)
(-0.00223557 -0.000117506 0.0472807)
(-0.0033609 0.000151845 0.0506018)
(0.00155524 -0.000134927 0.0494606)
(0.00323632 0.000161107 0.0466517)
(-0.0027903 -0.000140472 0.0595029)
(-0.0043375 0.000195572 0.0634404)
(0.00191432 -0.000184912 0.0620499)
(0.00419197 0.000216411 0.0585136)
(-0.00327184 -0.000160445 0.0712386)
(-0.00512882 0.000238519 0.0756468)
(0.00220091 -0.000237752 0.0740435)
(0.00496914 0.000274097 0.0698021)
(-0.00369601 -0.000176256 0.0824803)
(-0.00576636 0.000279768 0.0872264)
(0.00243222 -0.00029277 0.0854596)
(0.0055992 0.000332857 0.080517)
(-0.00407064 -0.000188638 0.093212)
(-0.00626764 0.000319847 0.0981842)
(0.0026178 -0.00034951 0.0963162)
(0.00609962 0.000392448 0.0906606)
(-0.0044011 -0.000198483 0.103407)
(-0.00664643 0.000359013 0.108514)
(0.00276501 -0.000407797 0.106619)
(0.00648427 0.000452761 0.100228)
(-0.00469189 -0.00020627 0.113035)
(-0.00691559 0.000397218 0.118202)
(0.00288024 -0.00046743 0.11636)
(0.00676623 0.00051374 0.109207)
(-0.00494716 -0.000212702 0.122075)
(-0.00708781 0.000434814 0.12724)
(0.00296898 -0.000528648 0.12553)
(0.00695839 0.000575169 0.117589)
(-0.00517066 -0.000218393 0.130526)
(-0.007174 0.000471833 0.135634)
(0.00303534 -0.000591086 0.134127)
(0.00707346 0.000636956 0.125377)
(-0.00536569 -0.000222921 0.138407)
(-0.00718517 0.000506843 0.143411)
(0.00308254 -0.000653531 0.142172)
(0.00712307 0.000698938 0.132589)
(-0.00553606 -0.000225744 0.145766)
(-0.00713391 0.000539399 0.150627)
(0.00311416 -0.000715519 0.149715)
(0.00711869 0.000760088 0.139257)
(-0.00568644 -0.000227262 0.152661)
(-0.00703211 0.000570034 0.157344)
(0.00313438 -0.000777376 0.156797)
(0.00707261 0.000819885 0.145427)
(-0.00582139 -0.000228608 0.159127)
(-0.00689223 0.000599398 0.163597)
(0.00314713 -0.000839558 0.163437)
(0.00699679 0.000878635 0.151147)
(-0.00594447 -0.000230306 0.165191)
(-0.00672485 0.000627441 0.16942)
(0.0031553 -0.000901834 0.169656)
(0.00690258 0.000936817 0.156454)
(-0.00605819 -0.00023213 0.170878)
(-0.00653753 0.000653576 0.174844)
(0.00316095 -0.000963876 0.175474)
(0.00679916 0.000994426 0.161378)
(-0.00616441 -0.000234077 0.176213)
(-0.00633657 0.000677783 0.179901)
(0.00316578 -0.00102576 0.180913)
(0.00669218 0.00105118 0.16595)
(-0.00626462 -0.000236263 0.181219)
(-0.00612721 0.00070002 0.184624)
(0.00317115 -0.00108747 0.185993)
(0.00658429 0.00110778 0.170199)
(-0.00635996 -0.000238718 0.18592)
(-0.00591375 0.000720277 0.189041)
(0.00317817 -0.00114903 0.190734)
(0.00647534 0.00116387 0.174157)
(-0.00645136 -0.000241482 0.190338)
(-0.00569969 0.000738617 0.193179)
(0.0031877 -0.00121052 0.195156)
(0.006364 0.00121845 0.177854)
(-0.00653954 -0.000244387 0.194495)
(-0.00548775 0.000755311 0.197063)
(0.0032004 -0.00127185 0.199278)
(0.00624908 0.00127147 0.181323)
(-0.00662501 -0.000248297 0.19841)
(-0.00527959 0.00077073 0.200715)
(0.00321672 -0.00133326 0.203119)
(0.00613019 0.00132317 0.184592)
(-0.00670788 -0.000253361 0.202105)
(-0.00507563 0.000784697 0.204157)
(0.00323665 -0.00139614 0.206699)
(0.006008 0.00137437 0.187683)
(-0.00678785 -0.00025799 0.205599)
(-0.00487502 0.000797597 0.207411)
(0.00325924 -0.00145943 0.210037)
(0.00588305 0.00142509 0.190619)
(-0.0068649 -0.000261651 0.208917)
(-0.00467573 0.000808463 0.210503)
(0.00328315 -0.00152096 0.213159)
(0.00575547 0.00147508 0.193416)
(-0.00693972 -0.000264503 0.21208)
(-0.00447573 0.00081785 0.213456)
(0.00330801 -0.00158077 0.216095)
(0.00562555 0.00152485 0.19609)
(-0.00701325 -0.000267932 0.215105)
(-0.00427273 0.000827491 0.216294)
(0.00333455 -0.00163975 0.218872)
(0.00549361 0.00157461 0.198655)
(-0.00708606 -0.000272815 0.218)
(-0.00406407 0.000834922 0.219041)
(0.00336338 -0.00169973 0.2215)
(0.00536003 0.0016245 0.201123)
(-0.00715832 -0.000278276 0.220776)
(-0.00384808 0.000837051 0.221725)
(0.00339419 -0.00176011 0.223991)
(0.00522518 0.00167463 0.203504)
(-0.00723016 -0.000284211 0.223441)
(-0.00362547 0.000832317 0.224377)
(0.00342626 -0.00181976 0.226357)
(0.00508939 0.0017251 0.205808)
(-0.00730184 -0.000291039 0.226003)
(-0.00340176 0.000825259 0.22701)
(0.003459 -0.00187921 0.228605)
(0.004953 0.00177599 0.208045)
(-0.00737391 -0.000299076 0.228469)
(-0.00318651 0.000823805 0.229608)
(0.0034921 -0.00193852 0.230746)
(0.00481629 0.0018274 0.210222)
(-0.00744719 -0.000308737 0.230849)
(-0.00298865 0.000830548 0.23213)
(0.00352548 -0.00199795 0.23279)
(0.00467953 0.00187937 0.212349)
(-0.00752272 -0.000320262 0.233151)
(-0.00281226 0.00084222 0.234545)
(0.0035592 -0.00205788 0.234746)
(0.00454297 0.00193197 0.214434)
(-0.00760147 -0.000333513 0.235388)
(-0.00265616 0.000853362 0.236841)
(0.00359319 -0.00211869 0.236629)
(0.00440687 0.00198529 0.216484)
(-0.00768415 -0.000348072 0.237566)
(-0.00251691 0.000860273 0.239023)
(0.00362709 -0.00218026 0.238451)
(0.00427153 0.00203924 0.218508)
(-0.00777104 -0.000363458 0.239692)
(-0.00239167 0.000862717 0.241107)
(0.00366017 -0.0022422 0.240224)
(0.0041374 0.00209387 0.220512)
(-0.00786215 -0.000379306 0.241771)
(-0.00227932 0.000862635 0.243107)
(0.0036914 -0.00230429 0.241956)
(0.00400507 0.00214947 0.222504)
(-0.00795738 -0.000395364 0.243805)
(-0.00218013 0.000862301 0.245031)
(0.00371955 -0.00236635 0.243655)
(0.00387532 0.00220629 0.22449)
(-0.00805662 -0.000411593 0.245798)
(-0.00209474 0.000862908 0.246883)
(0.00374315 -0.00242839 0.245324)
(0.00374904 0.00226451 0.226474)
(-0.00815969 -0.000428005 0.247752)
(-0.0020235 0.000863799 0.248667)
(0.00376062 -0.00249022 0.246967)
(0.0036273 0.00232417 0.22846)
(-0.00826627 -0.000444487 0.249668)
(-0.00196654 0.000862606 0.250386)
(0.00377023 -0.00255162 0.248587)
(0.00351129 0.0023858 0.23045)
(-0.00837593 -0.000460858 0.251548)
(-0.00192437 0.000857184 0.252042)
(0.00377032 -0.00261255 0.250184)
(0.00340255 0.00245111 0.232443)
(-0.00848818 -0.000476797 0.253392)
(-0.00189812 0.000852814 0.253637)
(0.00375933 -0.00267291 0.251756)
(0.00330315 0.00252106 0.23443)
(-0.00860254 -0.000492155 0.255201)
(-0.00188847 0.000850753 0.255169)
(0.00373595 -0.0027325 0.253301)
(0.00321548 0.00259549 0.236398)
(-0.00871836 -0.000506836 0.256977)
(-0.00189557 0.000847099 0.256632)
(0.00369908 -0.0027906 0.25481)
(0.00314149 0.00267322 0.238335)
(-0.00883487 -0.000520633 0.25872)
(-0.00191971 0.000840516 0.258026)
(0.0036481 -0.00284691 0.256267)
(0.00308276 0.00275309 0.240237)
(-0.00895113 -0.000533385 0.260432)
(-0.00196161 0.000828952 0.259355)
(0.00358269 -0.00290159 0.25765)
(0.00304067 0.00283453 0.242102)
(-0.00906609 -0.000544921 0.262112)
(-0.00202263 0.000817044 0.260619)
(0.00350227 -0.00295534 0.258937)
(0.00301639 0.00291742 0.243932)
(-0.00917863 -0.000555046 0.263763)
(-0.00210389 0.000805542 0.261818)
(0.00340597 -0.0030089 0.260113)