/*--------------------------------*- C++ -*----------------------------------*\
| =========                 |                                                 |
| \\      /  F ield         | OpenFOAM: The Open Source CFD Toolbox           |
|  \\    /   O peration     | Version:  v1912                                 |
|   \\  /    A nd           | Website:  www.openfoam.com                      |
|    \\/     M anipulation  |                                                 |
\*---------------------------------------------------------------------------*/
FoamFile
{
    version     2.0;
    format      ascii;
    class       volScalarField;
    location    "9.6";
    object      k;
}
// * * * * * * * * * * * * * * * * * * * * * * * * * * * * * * * * * * * * * //

dimensions      [0 2 -2 0 0 0 0];


internalField   nonuniform List<scalar> 
34128
(
6.68485e-07
6.51918e-07
6.50476e-07
6.51872e-07
6.78282e-07
6.99744e-07
6.80893e-07
6.61971e-07
6.62168e-07
6.72802e-07
6.8443e-07
6.92642e-07
1.08704e-07
1.0577e-07
1.05466e-07
1.05863e-07
1.10263e-07
1.13727e-07
1.10661e-07
1.07578e-07
1.07664e-07
1.09332e-07
1.11033e-07
1.12526e-07
6.76187e-08
6.42604e-08
6.3672e-08
6.50781e-08
6.8418e-08
7.03739e-08
6.84611e-08
6.64607e-08
6.69848e-08
6.76858e-08
6.73561e-08
6.91836e-08
1.37197e-07
1.27949e-07
1.26125e-07
1.30908e-07
1.38561e-07
1.42139e-07
1.38289e-07
1.34091e-07
1.35995e-07
1.36895e-07
1.33869e-07
1.38959e-07
3.12008e-07
2.8987e-07
2.854e-07
2.97395e-07
3.14982e-07
3.2268e-07
3.14109e-07
3.04542e-07
3.09425e-07
3.11197e-07
3.02909e-07
3.15093e-07
6.19076e-07
5.74947e-07
5.65882e-07
5.905e-07
6.24858e-07
6.39288e-07
6.22852e-07
6.04111e-07
6.14204e-07
6.17441e-07
5.99978e-07
6.2436e-07
1.08291e-06
1.00637e-06
9.9024e-07
1.03416e-06
1.0927e-06
1.11611e-06
1.08876e-06
1.05683e-06
1.07474e-06
1.07976e-06
1.04824e-06
1.091e-06
1.71442e-06
1.5953e-06
1.56921e-06
1.63958e-06
1.72905e-06
1.76255e-06
1.7221e-06
1.67362e-06
1.70182e-06
1.70832e-06
1.65762e-06
1.72551e-06
2.50552e-06
2.33591e-06
2.29661e-06
2.39979e-06
2.52496e-06
2.56788e-06
2.51371e-06
2.44687e-06
2.48702e-06
2.49378e-06
2.41971e-06
2.51936e-06
3.42867e-06
3.20485e-06
3.14901e-06
3.2891e-06
3.45174e-06
3.50151e-06
3.4348e-06
3.34985e-06
3.40232e-06
3.40727e-06
3.30774e-06
3.44474e-06
4.44107e-06
4.16483e-06
4.08935e-06
4.26711e-06
4.46555e-06
4.51806e-06
4.44149e-06
4.34075e-06
4.40442e-06
4.4051e-06
4.28098e-06
4.45897e-06
5.49102e-06
5.17002e-06
5.07254e-06
5.28491e-06
5.51414e-06
5.56446e-06
5.48154e-06
5.36889e-06
5.44146e-06
5.43573e-06
5.29104e-06
5.51086e-06
6.52571e-06
6.17142e-06
6.05099e-06
6.29217e-06
6.54701e-06
6.59082e-06
6.50416e-06
6.38187e-06
6.46155e-06
6.44828e-06
6.2878e-06
6.54868e-06
7.52324e-06
7.14617e-06
7.00259e-06
7.26883e-06
7.54314e-06
7.57638e-06
7.48813e-06
7.35823e-06
7.44341e-06
7.42227e-06
7.25077e-06
7.5512e-06
8.46492e-06
8.07695e-06
7.91115e-06
8.19795e-06
8.48483e-06
8.50377e-06
8.41561e-06
8.27978e-06
8.36926e-06
8.34075e-06
8.16318e-06
8.50027e-06
9.33539e-06
8.94906e-06
8.76315e-06
9.06553e-06
9.35748e-06
9.35877e-06
9.27194e-06
9.13163e-06
9.22477e-06
9.19001e-06
9.01102e-06
9.38073e-06
1.01223e-05
9.75022e-06
9.54737e-06
9.86001e-06
1.01491e-05
1.01297e-05
1.00453e-05
9.90191e-06
9.99852e-06
9.95898e-06
9.78265e-06
1.01801e-05
1.08159e-05
1.04703e-05
1.02545e-05
1.05719e-05
1.085e-05
1.08073e-05
1.07263e-05
1.05814e-05
1.06816e-05
1.06388e-05
1.04686e-05
1.08882e-05
1.14092e-05
1.11013e-05
1.08773e-05
1.11937e-05
1.14527e-05
1.13843e-05
1.1308e-05
1.11635e-05
1.12675e-05
1.12227e-05
1.10615e-05
1.14973e-05
1.18973e-05
1.16374e-05
1.14102e-05
1.17197e-05
1.19517e-05
1.18562e-05
1.17857e-05
1.16439e-05
1.17518e-05
1.17059e-05
1.15564e-05
1.2002e-05
1.22777e-05
1.20746e-05
1.18495e-05
1.21459e-05
1.23439e-05
1.22206e-05
1.2157e-05
1.20206e-05
1.21323e-05
1.20857e-05
1.19504e-05
1.23997e-05
1.25503e-05
1.24108e-05
1.21931e-05
1.24703e-05
1.26283e-05
1.24774e-05
1.24217e-05
1.22937e-05
1.24087e-05
1.23621e-05
1.22427e-05
1.26897e-05
1.27171e-05
1.26457e-05
1.24406e-05
1.26929e-05
1.2806e-05
1.26288e-05
1.25816e-05
1.24648e-05
1.25828e-05
1.25366e-05
1.24345e-05
1.28732e-05
1.27819e-05
1.278e-05
1.25928e-05
1.28152e-05
1.28802e-05
1.26789e-05
1.26409e-05
1.25377e-05
1.26581e-05
1.26129e-05
1.25289e-05
1.29532e-05
1.27507e-05
1.28165e-05
1.26516e-05
1.28406e-05
1.28561e-05
1.26343e-05
1.26055e-05
1.25178e-05
1.264e-05
1.25964e-05
1.25304e-05
1.29347e-05
1.26308e-05
1.27593e-05
1.26208e-05
1.27741e-05
1.2741e-05
1.2503e-05
1.24832e-05
1.24121e-05
1.25353e-05
1.24936e-05
1.24452e-05
1.28245e-05
1.24311e-05
1.26148e-05
1.25055e-05
1.26229e-05
1.25441e-05
1.22947e-05
1.22835e-05
1.2229e-05
1.23522e-05
1.23127e-05
1.22808e-05
1.26313e-05
1.21617e-05
1.2391e-05
1.23126e-05
1.23954e-05
1.22758e-05
1.20203e-05
1.20171e-05
1.19784e-05
1.20998e-05
1.20626e-05
1.20459e-05
1.23653e-05
1.18328e-05
1.20974e-05
1.20503e-05
1.21011e-05
1.1947e-05
1.16905e-05
1.16948e-05
1.16704e-05
1.1788e-05
1.17528e-05
1.17497e-05
1.20372e-05
1.14546e-05
1.17442e-05
1.17276e-05
1.17497e-05
1.15679e-05
1.13154e-05
1.13268e-05
1.13149e-05
1.14262e-05
1.13927e-05
1.14018e-05
1.16574e-05
1.1036e-05
1.13408e-05
1.13533e-05
1.13495e-05
1.1147e-05
1.0903e-05
1.09211e-05
1.09203e-05
1.1023e-05
1.09911e-05
1.1011e-05
1.12347e-05
1.05854e-05
1.08953e-05
1.09347e-05
1.0908e-05
1.06917e-05
1.04609e-05
1.04854e-05
1.04938e-05
1.05857e-05
1.05558e-05
1.05848e-05
1.07772e-05
1.01112e-05
1.04152e-05
1.04761e-05
1.04331e-05
1.02129e-05
1.00006e-05
1.00309e-05
1.00437e-05
1.0121e-05
1.00915e-05
1.01278e-05
1.02957e-05
9.63034e-06
9.91896e-06
9.99481e-06
9.94296e-06
9.72968e-06
9.54078e-06
9.57667e-06
9.58727e-06
9.6454e-06
9.61332e-06
9.65533e-06
9.80995e-06
9.16254e-06
9.42865e-06
9.51227e-06
9.45912e-06
9.26339e-06
9.10267e-06
9.14388e-06
9.14466e-06
9.17865e-06
9.13976e-06
9.18621e-06
9.34237e-06
8.72782e-06
8.96687e-06
9.05087e-06
9.00337e-06
8.83523e-06
8.70693e-06
8.75362e-06
8.73659e-06
8.74121e-06
8.69016e-06
8.7404e-06
8.91538e-06
8.34555e-06
8.55521e-06
8.63257e-06
8.59665e-06
8.46489e-06
8.37273e-06
8.42539e-06
8.38273e-06
8.35295e-06
8.28358e-06
8.33751e-06
8.5501e-06
8.03404e-06
8.21379e-06
8.27815e-06
8.25864e-06
8.17029e-06
8.11717e-06
8.17638e-06
8.10109e-06
8.03256e-06
7.93806e-06
7.9962e-06
8.26588e-06
7.8101e-06
7.96124e-06
8.007e-06
8.00779e-06
7.96642e-06
7.95288e-06
8.0194e-06
7.90715e-06
7.79727e-06
7.67008e-06
7.73329e-06
8.07744e-06
7.6836e-06
7.81158e-06
7.83489e-06
7.857e-06
7.86063e-06
7.88025e-06
7.95058e-06
7.80711e-06
7.65832e-06
7.49371e-06
7.56292e-06
7.99295e-06
7.64704e-06
7.75999e-06
7.76359e-06
7.80186e-06
7.83595e-06
7.86958e-06
7.93952e-06
7.7947e-06
7.60954e-06
7.41305e-06
7.48658e-06
7.9899e-06
7.67e-06
7.77439e-06
7.77625e-06
7.80269e-06
7.83349e-06
7.87299e-06
7.93942e-06
7.8171e-06
7.63193e-06
7.42856e-06
7.50797e-06
8.00875e-06
7.70492e-06
7.80099e-06
7.8089e-06
7.81475e-06
7.84194e-06
7.88834e-06
7.94898e-06
7.84451e-06
7.67005e-06
7.48798e-06
7.57013e-06
8.04318e-06
7.74996e-06
7.83664e-06
7.84865e-06
7.83791e-06
7.86211e-06
7.91459e-06
7.96743e-06
7.87813e-06
7.71634e-06
7.5552e-06
7.64018e-06
8.09077e-06
7.80494e-06
7.88104e-06
7.89664e-06
7.87197e-06
7.89221e-06
7.94876e-06
7.99212e-06
7.91708e-06
7.77062e-06
7.63085e-06
7.71892e-06
8.14682e-06
7.86761e-06
7.93175e-06
7.95107e-06
7.91443e-06
7.9292e-06
7.98726e-06
8.01989e-06
7.95899e-06
7.83066e-06
7.71454e-06
7.80528e-06
8.20601e-06
7.93491e-06
7.98561e-06
8.00873e-06
7.96181e-06
7.9698e-06
8.02679e-06
8.048e-06
8.00123e-06
7.89335e-06
7.80397e-06
7.89647e-06
8.26355e-06
8.00377e-06
8.0397e-06
8.06618e-06
8.01069e-06
8.01114e-06
8.0648e-06
8.07445e-06
8.04168e-06
7.95559e-06
7.896e-06
7.989e-06
8.31583e-06
8.07164e-06
8.09176e-06
8.12052e-06
8.05826e-06
8.0511e-06
8.09963e-06
8.09798e-06
8.07885e-06
8.01485e-06
7.98748e-06
8.0796e-06
8.36059e-06
8.13658e-06
8.14029e-06
8.16973e-06
8.10256e-06
8.08836e-06
8.13036e-06
8.11796e-06
8.11194e-06
8.06946e-06
8.07573e-06
8.16561e-06
8.39631e-06
8.19718e-06
8.18431e-06
8.21259e-06
8.14242e-06
8.12218e-06
8.15652e-06
8.13419e-06
8.14057e-06
8.11852e-06
8.15875e-06
8.24511e-06
8.42154e-06
8.25211e-06
8.22313e-06
8.24847e-06
8.17731e-06
8.15225e-06
8.17788e-06
8.14668e-06
8.16454e-06
8.16116e-06
8.23512e-06
8.31679e-06
8.43509e-06
8.3e-06
8.25573e-06
8.27675e-06
8.20704e-06
8.17842e-06
8.19412e-06
8.1555e-06
8.18346e-06
8.19615e-06
8.30313e-06
8.37925e-06
8.43624e-06
8.34e-06
8.28114e-06
8.29673e-06
8.23129e-06
8.20038e-06
8.20483e-06
8.16068e-06
8.19701e-06
8.22266e-06
8.36218e-06
8.43225e-06
8.42502e-06
8.37095e-06
8.29865e-06
8.308e-06
8.24964e-06
8.21772e-06
8.20998e-06
8.16236e-06
8.20532e-06
8.2408e-06
8.41223e-06
8.4759e-06
8.40278e-06
8.39061e-06
8.30727e-06
8.31044e-06
8.26198e-06
8.23041e-06
8.20986e-06
8.16092e-06
8.20895e-06
8.2511e-06
8.45096e-06
8.50782e-06
8.37206e-06
8.3981e-06
8.30681e-06
8.30465e-06
8.26879e-06
8.23894e-06
8.20519e-06
8.15684e-06
8.20881e-06
8.25428e-06
8.47708e-06
8.5271e-06
8.33573e-06
8.39357e-06
8.29808e-06
8.29216e-06
8.27047e-06
8.24385e-06
8.19682e-06
8.15045e-06
8.20577e-06
8.2515e-06
8.49057e-06
8.53399e-06
8.29636e-06
8.37771e-06
8.28227e-06
8.27478e-06
8.26781e-06
8.24578e-06
8.18576e-06
8.14223e-06
8.20066e-06
8.24407e-06
8.49229e-06
8.52934e-06
8.25607e-06
8.35152e-06
8.2606e-06
8.25411e-06
8.2618e-06
8.24547e-06
8.17286e-06
8.13257e-06
8.19415e-06
8.23325e-06
8.48357e-06
8.51428e-06
8.21644e-06
8.31624e-06
8.23411e-06
8.23133e-06
8.2533e-06
8.24363e-06
8.15879e-06
8.1217e-06
8.18669e-06
8.22013e-06
8.46602e-06
8.49009e-06
8.17855e-06
8.27336e-06
8.20366e-06
8.2072e-06
8.24302e-06
8.24081e-06
8.144e-06
8.10971e-06
8.17848e-06
8.20555e-06
8.44127e-06
8.45809e-06
8.14308e-06
8.22472e-06
8.16998e-06
8.18206e-06
8.23147e-06
8.23733e-06
8.12876e-06
8.09653e-06
8.16948e-06
8.19003e-06
8.41082e-06
8.41964e-06
8.11037e-06
8.17251e-06
8.1339e-06
8.15606e-06
8.21897e-06
8.23329e-06
8.11328e-06
8.08205e-06
8.15941e-06
8.17386e-06
8.37597e-06
8.37611e-06
8.08047e-06
8.1193e-06
8.09643e-06
8.12928e-06
8.20567e-06
8.22863e-06
8.09768e-06
8.06615e-06
8.14784e-06
8.15708e-06
8.33778e-06
8.3289e-06
8.05316e-06
8.06769e-06
8.05894e-06
8.10197e-06
8.19164e-06
8.22317e-06
8.08199e-06
8.04888e-06
8.1343e-06
8.13961e-06
8.29714e-06
8.27937e-06
8.02846e-06
8.01837e-06
8.02182e-06
8.07462e-06
8.17696e-06
8.21664e-06
8.0663e-06
8.03044e-06
8.11834e-06
8.12128e-06
8.25481e-06
8.22894e-06
8.0065e-06
7.97105e-06
7.98533e-06
8.04729e-06
8.16172e-06
8.20883e-06
8.05089e-06
8.01125e-06
8.09974e-06
8.10193e-06
8.21153e-06
8.17898e-06
7.98739e-06
7.9265e-06
7.95035e-06
8.02021e-06
8.14614e-06
8.19961e-06
8.03611e-06
7.99143e-06
8.07861e-06
8.08146e-06
8.16811e-06
8.13078e-06
7.97124e-06
7.88615e-06
7.91804e-06
7.9941e-06
8.13051e-06
8.18907e-06
8.02235e-06
7.97145e-06
8.05543e-06
8.05996e-06
8.12549e-06
8.08549e-06
7.95812e-06
7.8512e-06
7.88956e-06
7.96989e-06
8.11526e-06
8.17752e-06
8.01009e-06
7.95212e-06
8.03112e-06
8.03784e-06
8.08483e-06
8.04406e-06
7.94807e-06
7.82257e-06
7.86593e-06
7.94857e-06
8.10088e-06
8.16546e-06
7.99987e-06
7.93432e-06
8.00658e-06
8.01548e-06
8.04735e-06
8.00642e-06
7.94104e-06
7.80082e-06
7.84794e-06
7.93108e-06
8.08783e-06
8.15357e-06
7.9922e-06
7.91896e-06
7.98259e-06
7.9934e-06
8.01315e-06
7.97246e-06
7.93698e-06
7.78622e-06
7.8361e-06
7.9182e-06
8.07672e-06
8.14259e-06
7.98757e-06
7.90691e-06
7.9603e-06
7.97237e-06
7.98265e-06
7.94282e-06
7.93576e-06
7.77871e-06
7.83059e-06
7.91051e-06
8.06813e-06
8.13324e-06
7.98635e-06
7.89897e-06
7.94108e-06
7.95332e-06
7.95681e-06
7.91838e-06
7.93725e-06
7.77798e-06
7.83129e-06
7.90829e-06
8.06253e-06
8.12615e-06
7.98874e-06
7.89581e-06
7.92619e-06
7.93717e-06
7.93649e-06
7.89989e-06
7.94122e-06
7.78351e-06
7.83776e-06
7.91154e-06
8.06022e-06
8.12175e-06
7.99479e-06
7.89793e-06
7.91675e-06
7.9248e-06
7.92237e-06
7.88783e-06
7.94732e-06
7.79462e-06
7.84933e-06
7.91997e-06
8.06137e-06
8.12027e-06
8.00435e-06
7.90561e-06
7.91362e-06
7.91703e-06
7.91485e-06
7.88242e-06
7.95511e-06
7.81055e-06
7.86522e-06
7.93312e-06
8.06596e-06
8.12163e-06
8.01709e-06
7.91894e-06
7.91738e-06
7.91455e-06
7.91408e-06
7.88356e-06
7.96403e-06
7.14637e-07
6.91206e-07
6.90184e-07
6.97279e-07
7.26594e-07
7.48189e-07
7.27398e-07
7.06329e-07
7.08901e-07
7.19291e-07
7.28004e-07
7.40117e-07
1.13198e-07
1.09239e-07
1.08983e-07
1.10314e-07
1.15108e-07
1.18507e-07
1.15217e-07
1.11842e-07
1.12204e-07
1.13777e-07
1.15104e-07
1.17183e-07
5.1463e-08
4.80346e-08
4.73301e-08
4.93888e-08
5.24889e-08
5.38428e-08
5.23854e-08
5.0565e-08
5.05565e-08
5.08089e-08
5.08501e-08
5.27782e-08
7.1949e-08
6.34192e-08
6.11057e-08
6.73507e-08
7.38156e-08
7.52062e-08
7.32928e-08
7.00494e-08
6.96561e-08
6.89129e-08
6.76008e-08
7.25516e-08
1.46412e-07
1.26435e-07
1.2073e-07
1.36021e-07
1.50704e-07
1.53044e-07
1.49343e-07
1.4218e-07
1.41059e-07
1.38639e-07
1.34884e-07
1.46651e-07
2.81325e-07
2.41917e-07
2.30344e-07
2.613e-07
2.90195e-07
2.94154e-07
2.87404e-07
2.73297e-07
2.70802e-07
2.65404e-07
2.57547e-07
2.81171e-07
4.85139e-07
4.17324e-07
3.96798e-07
4.51431e-07
5.01394e-07
5.0736e-07
4.96471e-07
4.71961e-07
4.6702e-07
4.56701e-07
4.4279e-07
4.84406e-07
7.60788e-07
6.55893e-07
6.22936e-07
7.09768e-07
7.87735e-07
7.95641e-07
7.79972e-07
7.4158e-07
7.32545e-07
7.14707e-07
6.92921e-07
7.59255e-07
1.10288e-06
9.54075e-07
9.05154e-07
1.032e-06
1.14404e-06
1.1533e-06
1.13287e-06
1.07758e-06
1.06214e-06
1.03366e-06
1.00285e-06
1.10048e-06
1.49769e-06
1.30136e-06
1.23331e-06
1.40604e-06
1.55653e-06
1.5662e-06
1.54167e-06
1.46729e-06
1.44251e-06
1.40008e-06
1.36026e-06
1.49481e-06
1.92524e-06
1.68177e-06
1.59224e-06
1.81392e-06
2.00505e-06
2.01416e-06
1.98663e-06
1.89186e-06
1.85445e-06
1.79498e-06
1.74761e-06
1.92303e-06
2.36232e-06
2.07614e-06
1.96406e-06
2.23448e-06
2.46612e-06
2.47404e-06
2.44472e-06
2.32915e-06
2.27582e-06
2.19693e-06
2.14478e-06
2.36287e-06
2.787e-06
2.46466e-06
2.33019e-06
2.64758e-06
2.9187e-06
2.92535e-06
2.89514e-06
2.75799e-06
2.686e-06
2.58582e-06
2.53174e-06
2.79372e-06
3.19009e-06
2.83944e-06
2.68339e-06
3.04482e-06
3.35367e-06
3.35948e-06
3.32909e-06
3.16975e-06
3.0766e-06
2.95363e-06
2.90066e-06
3.20711e-06
3.56422e-06
3.19383e-06
3.0178e-06
3.41924e-06
3.76342e-06
3.76925e-06
3.73932e-06
3.55741e-06
3.44101e-06
3.29405e-06
3.24516e-06
3.59613e-06
3.9037e-06
3.52241e-06
3.32866e-06
3.76509e-06
4.14161e-06
4.14867e-06
4.11988e-06
3.91546e-06
3.77415e-06
3.60223e-06
3.56017e-06
3.95523e-06
4.20437e-06
3.82087e-06
3.6122e-06
4.07764e-06
4.48294e-06
4.49273e-06
4.4659e-06
4.23973e-06
4.07226e-06
3.87457e-06
3.84181e-06
4.28006e-06
4.46338e-06
4.0859e-06
3.86551e-06
4.35309e-06
4.78311e-06
4.79734e-06
4.77351e-06
4.52715e-06
4.33272e-06
4.10865e-06
4.08734e-06
4.5673e-06
4.67917e-06
4.31519e-06
4.08657e-06
4.58861e-06
5.03884e-06
5.05945e-06
5.03981e-06
4.77574e-06
4.55401e-06
4.30327e-06
4.29522e-06
4.81466e-06
4.85156e-06
4.50749e-06
4.2743e-06
4.78259e-06
5.24816e-06
5.27716e-06
5.26307e-06
4.98457e-06
4.73579e-06
4.45853e-06
4.46515e-06
5.02094e-06
4.98176e-06
4.66258e-06
4.42858e-06
4.93479e-06
5.41057e-06
5.45007e-06
5.44296e-06
5.15388e-06
4.87893e-06
4.57591e-06
4.59815e-06
5.18605e-06
5.07244e-06
4.78152e-06
4.55043e-06
5.04636e-06
5.5272e-06
5.5793e-06
5.58049e-06
5.28514e-06
4.98555e-06
4.65818e-06
4.69648e-06
5.31119e-06
5.12763e-06
4.86666e-06
4.64205e-06
5.1199e-06
5.60072e-06
5.66741e-06
5.67804e-06
5.38101e-06
5.05897e-06
4.70935e-06
4.7636e-06
5.39888e-06
5.15249e-06
4.92153e-06
4.70662e-06
5.15935e-06
5.63538e-06
5.7184e-06
5.73931e-06
5.44517e-06
5.10352e-06
4.7345e-06
4.8039e-06
5.45284e-06
5.15316e-06
4.95082e-06
4.74835e-06
5.17002e-06
5.63695e-06
5.73759e-06
5.76931e-06
5.48232e-06
5.12441e-06
4.73946e-06
4.82259e-06
5.47794e-06
5.13662e-06
4.96036e-06
4.77241e-06
5.15839e-06
5.61251e-06
5.7315e-06
5.77425e-06
5.4981e-06
5.12764e-06
4.73073e-06
4.82561e-06
5.48021e-06
5.11043e-06
4.95704e-06
4.78489e-06
5.13201e-06
5.57025e-06
5.70765e-06
5.76131e-06
5.49901e-06
5.11988e-06
4.71525e-06
4.81948e-06
5.4667e-06
5.08247e-06
4.9485e-06
4.79265e-06
5.09916e-06
5.51906e-06
5.67414e-06
5.73834e-06
5.49218e-06
5.10825e-06
4.7002e-06
4.81116e-06
5.44524e-06
5.06055e-06
4.94283e-06
4.80305e-06
5.06846e-06
5.46803e-06
5.63927e-06
5.71343e-06
5.48502e-06
5.10002e-06
4.69273e-06
4.80775e-06
5.42406e-06
5.05202e-06
4.94804e-06
4.82361e-06
5.04846e-06
5.42591e-06
5.61099e-06
5.69441e-06
5.48484e-06
5.10228e-06
4.69967e-06
4.81623e-06
5.41127e-06
5.06334e-06
4.97168e-06
4.86162e-06
5.0471e-06
5.40065e-06
5.59647e-06
5.68833e-06
5.49845e-06
5.12158e-06
4.72722e-06
4.84312e-06
5.41441e-06
5.09979e-06
5.02043e-06
4.92385e-06
5.07123e-06
5.3987e-06
5.60145e-06
5.70084e-06
5.53173e-06
5.16367e-06
4.78074e-06
4.89425e-06
5.44001e-06
5.14712e-06
5.08043e-06
4.99511e-06
5.10753e-06
5.40988e-06
5.61652e-06
5.72195e-06
5.57212e-06
5.21469e-06
4.84436e-06
4.95371e-06
5.47728e-06
5.2017e-06
5.14879e-06
5.07184e-06
5.15343e-06
5.43359e-06
5.64161e-06
5.75142e-06
5.61801e-06
5.27183e-06
4.91318e-06
5.01692e-06
5.52572e-06
5.26527e-06
5.2279e-06
5.15627e-06
5.21146e-06
5.47348e-06
5.68092e-06
5.79346e-06
5.67313e-06
5.33785e-06
4.98809e-06
5.08514e-06
5.58948e-06
5.34193e-06
5.32218e-06
5.25316e-06
5.28617e-06
5.53445e-06
5.73982e-06
5.8536e-06
5.74321e-06
5.41788e-06
5.07275e-06
5.1624e-06
5.67406e-06
5.43631e-06
5.43619e-06
5.36774e-06
5.38225e-06
5.62076e-06
5.82314e-06
5.93689e-06
5.83388e-06
5.51742e-06
5.17184e-06
5.2537e-06
5.78429e-06
5.55256e-06
5.57335e-06
5.50439e-06
5.50339e-06
5.73701e-06
5.93611e-06
6.04699e-06
5.94938e-06
5.64099e-06
5.2902e-06
5.3651e-06
5.92859e-06
5.69874e-06
5.73924e-06
5.66903e-06
5.65743e-06
5.88988e-06
6.08616e-06
6.19169e-06
6.09598e-06
5.7966e-06
5.43686e-06
5.50594e-06
6.11379e-06
5.88229e-06
5.93838e-06
5.86783e-06
5.85037e-06
6.08396e-06
6.27902e-06
6.37741e-06
6.28e-06
5.99009e-06
5.61863e-06
5.6834e-06
6.34406e-06
6.11068e-06
6.17673e-06
6.10615e-06
6.08851e-06
6.30454e-06
6.48265e-06
6.57273e-06
6.49828e-06
6.22927e-06
5.84209e-06
5.90466e-06
6.58232e-06
6.35313e-06
6.41717e-06
6.36509e-06
6.33739e-06
6.51857e-06
6.68042e-06
6.75992e-06
6.7069e-06
6.4722e-06
6.10725e-06
6.16708e-06
6.81603e-06
6.587e-06
6.64458e-06
6.6107e-06
6.57655e-06
6.72669e-06
6.87275e-06
6.94006e-06
6.90607e-06
6.70641e-06
6.36866e-06
6.42463e-06
7.04417e-06
6.81326e-06
6.86088e-06
6.84476e-06
6.80606e-06
6.92739e-06
7.05765e-06
7.11184e-06
7.09572e-06
6.93206e-06
6.62218e-06
6.67385e-06
7.2629e-06
7.0305e-06
7.06547e-06
7.06648e-06
7.02372e-06
7.11757e-06
7.23198e-06
7.27284e-06
7.2738e-06
7.14669e-06
6.86738e-06
6.91411e-06
7.4672e-06
7.236e-06
7.25644e-06
7.27328e-06
7.2263e-06
7.29394e-06
7.39259e-06
7.42055e-06
7.4376e-06
7.34666e-06
7.10159e-06
7.14263e-06
7.65217e-06
7.42673e-06
7.43151e-06
7.46213e-06
7.41076e-06
7.45405e-06
7.53726e-06
7.55312e-06
7.58477e-06
7.52832e-06
7.3213e-06
7.35586e-06
7.81393e-06
7.60013e-06
7.58881e-06
7.63044e-06
7.57494e-06
7.5965e-06
7.66491e-06
7.66977e-06
7.71384e-06
7.68877e-06
7.52308e-06
7.55048e-06
7.94994e-06
7.75445e-06
7.7272e-06
7.77659e-06
7.71787e-06
7.72077e-06
7.77535e-06
7.7706e-06
7.82437e-06
7.82598e-06
7.70427e-06
7.72402e-06
8.0618e-06
7.88876e-06
7.84623e-06
7.89994e-06
7.83949e-06
7.82714e-06
7.86907e-06
7.85623e-06
7.91677e-06
7.94014e-06
7.86309e-06
7.87514e-06
8.15259e-06
8.00381e-06
7.94606e-06
8.00069e-06
7.94037e-06
7.91645e-06
7.94698e-06
7.92759e-06
7.99293e-06
8.03495e-06
7.99866e-06
8.00341e-06
8.22195e-06
8.10344e-06
8.02939e-06
8.08216e-06
8.02213e-06
7.99023e-06
8.01176e-06
7.98628e-06
8.05562e-06
8.11317e-06
8.1156e-06
8.11263e-06
8.26844e-06
8.18949e-06
8.09867e-06
8.1471e-06
8.08805e-06
8.05127e-06
8.06568e-06
8.03433e-06
8.10608e-06
8.17415e-06
8.21828e-06
8.20685e-06
8.29281e-06
8.25886e-06
8.15278e-06
8.19458e-06
8.14048e-06
8.10164e-06
8.10866e-06
8.0727e-06
8.14412e-06
8.21787e-06
8.30412e-06
8.2848e-06
8.29793e-06
8.3095e-06
8.19045e-06
8.22457e-06
8.17966e-06
8.14155e-06
8.14085e-06
8.10144e-06
8.17026e-06
8.24524e-06
8.37092e-06
8.34479e-06
8.28781e-06
8.3411e-06
8.21212e-06
8.23876e-06
8.20637e-06
8.1716e-06
8.16318e-06
8.1213e-06
8.18577e-06
8.25813e-06
8.41835e-06
8.38699e-06
8.26665e-06
8.35465e-06
8.21945e-06
8.23991e-06
8.22212e-06
8.1929e-06
8.1771e-06
8.13344e-06
8.19245e-06
8.25915e-06
8.44764e-06
8.41291e-06
8.23829e-06
8.35185e-06
8.21467e-06
8.23113e-06
8.2289e-06
8.20695e-06
8.1842e-06
8.13921e-06
8.19227e-06
8.25119e-06
8.46097e-06
8.42461e-06
8.20597e-06
8.33481e-06
8.20012e-06
8.21528e-06
8.22874e-06
8.21532e-06
8.18597e-06
8.13982e-06
8.18706e-06
8.237e-06
8.46094e-06
8.42431e-06
8.17224e-06
8.30583e-06
8.17798e-06
8.19471e-06
8.22344e-06
8.21946e-06
8.18358e-06
8.13626e-06
8.17831e-06
8.21881e-06
8.45014e-06
8.41411e-06
8.13879e-06
8.26725e-06
8.15013e-06
8.17109e-06
8.2145e-06
8.22054e-06
8.17792e-06
8.12925e-06
8.1671e-06
8.19833e-06
8.43096e-06
8.39586e-06
8.1068e-06
8.22148e-06
8.11817e-06
8.14556e-06
8.20304e-06
8.21938e-06
8.16963e-06
8.11925e-06
8.1541e-06
8.17676e-06
8.40542e-06
8.37122e-06
8.0767e-06
8.17097e-06
8.08351e-06
8.11881e-06
8.18988e-06
8.21651e-06
8.15911e-06
8.10656e-06
8.13969e-06
8.15486e-06
8.37517e-06
8.34157e-06
8.04836e-06
8.11825e-06
8.04759e-06
8.09138e-06
8.17556e-06
8.21217e-06
8.14667e-06
8.09139e-06
8.12399e-06
8.13311e-06
8.34151e-06
8.30813e-06
8.02203e-06
8.06576e-06
8.0111e-06
8.06354e-06
8.1604e-06
8.20638e-06
8.13255e-06
8.07398e-06
8.10696e-06
8.11161e-06
8.30541e-06
8.27195e-06
7.99817e-06
8.01537e-06
7.97452e-06
8.03544e-06
8.14455e-06
8.19898e-06
8.11701e-06
8.0547e-06
8.08848e-06
8.0903e-06
8.26764e-06
8.23408e-06
7.97716e-06
7.96683e-06
7.93856e-06
8.00735e-06
8.12811e-06
8.18976e-06
8.10037e-06
8.03405e-06
8.06848e-06
8.06912e-06
8.22885e-06
8.19549e-06
7.95928e-06
7.92037e-06
7.90401e-06
7.97964e-06
8.1112e-06
8.17856e-06
8.08297e-06
8.01225e-06
8.04708e-06
8.04799e-06
8.18965e-06
8.15713e-06
7.94472e-06
7.87732e-06
7.87177e-06
7.95286e-06
8.094e-06
8.16537e-06
8.06501e-06
7.9898e-06
8.02438e-06
8.02688e-06
8.15072e-06
8.11988e-06
7.93363e-06
7.83885e-06
7.84272e-06
7.9277e-06
8.07671e-06
8.1504e-06
8.04691e-06
7.96748e-06
8.0007e-06
8.00584e-06
8.11283e-06
8.08452e-06
7.92605e-06
7.80596e-06
7.81768e-06
7.90499e-06
8.05977e-06
8.13413e-06
8.02934e-06
7.94615e-06
7.97661e-06
7.98509e-06
8.07682e-06
8.05171e-06
7.92195e-06
7.7794e-06
7.79741e-06
7.88562e-06
8.04375e-06
8.11725e-06
8.013e-06
7.92664e-06
7.95293e-06
7.96497e-06
8.04365e-06
8.02204e-06
7.92124e-06
7.75967e-06
7.78247e-06
7.87042e-06
8.02933e-06
8.1006e-06
7.9986e-06
7.90976e-06
7.93068e-06
7.94603e-06
8.01411e-06
7.99549e-06
7.92374e-06
7.74698e-06
7.77325e-06
7.86013e-06
8.01725e-06
8.08512e-06
7.98679e-06
7.89623e-06
7.91099e-06
7.9289e-06
7.98841e-06
7.97219e-06
7.9292e-06
7.74124e-06
7.7699e-06
7.85521e-06
8.00824e-06
8.07166e-06
7.97817e-06
7.88663e-06
7.89501e-06
7.91428e-06
7.96718e-06
7.95282e-06
7.9373e-06
7.74213e-06
7.77229e-06
7.85588e-06
8.0029e-06
8.06102e-06
7.97325e-06
7.8814e-06
7.88375e-06
7.90292e-06
7.95125e-06
7.9381e-06
7.9476e-06
7.74907e-06
7.78003e-06
7.86204e-06
8.00168e-06
8.05385e-06
7.97238e-06
7.88081e-06
7.87804e-06
7.89548e-06
7.94128e-06
7.92863e-06
7.95955e-06
7.76134e-06
7.79257e-06
7.87334e-06
8.00478e-06
8.0505e-06
7.97573e-06
7.885e-06
7.87842e-06
7.89254e-06
7.93769e-06
7.9248e-06
7.9726e-06
7.77809e-06
7.80921e-06
7.88928e-06
8.01216e-06
8.05101e-06
7.98326e-06
7.89395e-06
7.88509e-06
7.89458e-06
7.94063e-06
7.92676e-06
7.98633e-06
7.71616e-07
7.43779e-07
7.41125e-07
7.53846e-07
7.8731e-07
8.09543e-07
7.87574e-07
7.63872e-07
7.68861e-07
7.76852e-07
7.79394e-07
7.95495e-07
1.24506e-07
1.19907e-07
1.19353e-07
1.21592e-07
1.27123e-07
1.30658e-07
1.27142e-07
1.23265e-07
1.2403e-07
1.25196e-07
1.25503e-07
1.28321e-07
7.10354e-08
6.7778e-08
6.66829e-08
6.922e-08
7.3101e-08
7.47175e-08
7.29391e-08
7.03743e-08
7.06723e-08
7.0575e-08
6.9888e-08
7.28214e-08
1.33497e-07
1.26387e-07
1.2298e-07
1.29978e-07
1.38433e-07
1.40687e-07
1.37791e-07
1.32356e-07
1.3274e-07
1.31226e-07
1.28327e-07
1.36134e-07
2.97474e-07
2.81479e-07
2.73162e-07
2.8996e-07
3.09165e-07
3.13523e-07
3.07456e-07
2.95072e-07
2.95912e-07
2.9178e-07
2.84338e-07
3.02994e-07
5.85612e-07
5.55e-07
5.38227e-07
5.71758e-07
6.09127e-07
6.16787e-07
6.05434e-07
5.81189e-07
5.82865e-07
5.74178e-07
5.58985e-07
5.96455e-07
1.01851e-06
9.67716e-07
9.38142e-07
9.96235e-07
1.05976e-06
1.07138e-06
1.05284e-06
1.01147e-06
1.01423e-06
9.98318e-07
9.7178e-07
1.03769e-06
1.6037e-06
1.52878e-06
1.4816e-06
1.57164e-06
1.66865e-06
1.68398e-06
1.657e-06
1.59382e-06
1.59751e-06
1.57107e-06
1.53005e-06
1.63478e-06
2.33114e-06
2.2312e-06
2.16171e-06
2.289e-06
2.42485e-06
2.44263e-06
2.40689e-06
2.31871e-06
2.32256e-06
2.282e-06
2.22483e-06
2.37823e-06
3.17371e-06
3.05177e-06
2.95611e-06
3.1225e-06
3.29962e-06
3.31793e-06
3.27392e-06
3.15951e-06
3.1622e-06
3.10429e-06
3.03154e-06
3.24141e-06
4.0916e-06
3.95456e-06
3.83053e-06
4.03379e-06
4.25126e-06
4.26812e-06
4.21668e-06
4.07681e-06
4.07682e-06
3.99953e-06
3.91414e-06
4.18502e-06
5.0384e-06
4.89604e-06
4.74382e-06
4.9778e-06
5.23142e-06
5.24531e-06
5.18718e-06
5.02432e-06
5.02055e-06
4.92369e-06
4.83048e-06
5.16275e-06
5.96878e-06
5.8312e-06
5.65256e-06
5.90999e-06
6.19571e-06
6.20554e-06
6.14104e-06
5.95702e-06
5.94905e-06
5.83252e-06
5.73678e-06
6.13034e-06
6.86431e-06
6.7417e-06
6.53875e-06
6.8122e-06
7.12492e-06
7.13002e-06
7.05931e-06
6.85644e-06
6.8445e-06
6.70888e-06
6.61478e-06
7.06915e-06
7.70951e-06
7.61149e-06
7.38739e-06
7.66873e-06
8.00243e-06
8.00233e-06
7.92573e-06
7.70692e-06
7.69187e-06
7.53824e-06
7.44945e-06
7.96285e-06
8.49165e-06
8.42687e-06
8.18558e-06
8.46622e-06
8.81401e-06
8.80826e-06
8.72651e-06
8.49548e-06
8.4787e-06
8.30837e-06
8.22793e-06
8.79722e-06
9.20029e-06
9.17621e-06
8.92225e-06
9.19332e-06
9.54756e-06
9.53562e-06
9.45004e-06
9.21142e-06
9.19458e-06
9.00907e-06
8.93939e-06
9.55997e-06
9.82708e-06
9.84977e-06
9.58802e-06
9.84067e-06
1.01931e-05
1.01743e-05
1.00868e-05
9.84611e-06
9.83105e-06
9.63207e-06
9.57496e-06
1.02407e-05
1.03658e-05
1.04397e-05
1.01753e-05
1.04008e-05
1.07428e-05
1.07167e-05
1.06296e-05
1.03929e-05
1.03816e-05
1.01712e-05
1.01279e-05
1.0831e-05
1.08122e-05
1.09402e-05
1.06784e-05
1.08686e-05
1.11914e-05
1.11574e-05
1.10734e-05
1.08474e-05
1.08417e-05
1.06223e-05
1.05935e-05
1.13244e-05
1.11647e-05
1.13475e-05
1.10937e-05
1.12409e-05
1.15361e-05
1.1494e-05
1.14157e-05
1.12071e-05
1.12091e-05
1.09836e-05
1.09695e-05
1.17167e-05
1.14232e-05
1.16596e-05
1.14192e-05
1.15172e-05
1.17772e-05
1.17268e-05
1.16567e-05
1.14718e-05
1.14834e-05
1.12551e-05
1.12552e-05
1.20062e-05
1.15897e-05
1.18766e-05
1.16545e-05
1.16991e-05
1.19172e-05
1.18588e-05
1.17989e-05
1.16428e-05
1.16658e-05
1.14383e-05
1.14515e-05
1.21936e-05
1.16683e-05
1.20002e-05
1.18009e-05
1.17899e-05
1.19614e-05
1.18955e-05
1.18473e-05
1.17239e-05
1.17593e-05
1.15364e-05
1.15613e-05
1.22819e-05
1.16645e-05
1.20343e-05
1.18614e-05
1.17952e-05
1.19172e-05
1.18444e-05
1.18088e-05
1.17204e-05
1.17687e-05
1.15539e-05
1.15886e-05
1.22767e-05
1.15853e-05
1.19847e-05
1.18406e-05
1.17218e-05
1.1794e-05
1.17151e-05
1.16923e-05
1.16395e-05
1.17004e-05
1.14969e-05
1.15394e-05
1.21858e-05
1.1439e-05
1.18589e-05
1.17447e-05
1.1578e-05
1.16021e-05
1.15183e-05
1.15079e-05
1.14899e-05
1.15622e-05
1.13726e-05
1.14207e-05
1.20191e-05
1.12341e-05
1.16658e-05
1.15813e-05
1.13729e-05
1.13524e-05
1.12649e-05
1.12658e-05
1.12807e-05
1.13628e-05
1.11889e-05
1.12406e-05
1.17875e-05
1.09794e-05
1.14144e-05
1.13585e-05
1.11154e-05
1.10554e-05
1.09654e-05
1.09762e-05
1.10214e-05
1.11112e-05
1.09539e-05
1.10077e-05
1.1502e-05
1.0683e-05
1.11136e-05
1.10845e-05
1.0814e-05
1.072e-05
1.0629e-05
1.0648e-05
1.07206e-05
1.08156e-05
1.06753e-05
1.07302e-05
1.11728e-05
1.03516e-05
1.07707e-05
1.07665e-05
1.04762e-05
1.0354e-05
1.02636e-05
1.0289e-05
1.03854e-05
1.04833e-05
1.03602e-05
1.04155e-05
1.08084e-05
9.99099e-06
1.03919e-05
1.04104e-05
1.01085e-05
9.9649e-06
9.87719e-06
9.90709e-06
1.00221e-05
1.01203e-05
1.00139e-05
1.00695e-05
1.04164e-05
9.60994e-06
9.98798e-06
1.00238e-05
9.71944e-06
9.56575e-06
9.48394e-06
9.51626e-06
9.64258e-06
9.73707e-06
9.64214e-06
9.69761e-06
1.00119e-05
9.22557e-06
9.57805e-06
9.62458e-06
9.32643e-06
9.17512e-06
9.10286e-06
9.13582e-06
9.26593e-06
9.35234e-06
9.26092e-06
9.31575e-06
9.61599e-06
8.85769e-06
9.18379e-06
9.23441e-06
8.9494e-06
8.81294e-06
8.75377e-06
8.78596e-06
8.91328e-06
8.9874e-06
8.88965e-06
8.94334e-06
9.25091e-06
8.5263e-06
8.8269e-06
8.87568e-06
8.60873e-06
8.49855e-06
8.45541e-06
8.48578e-06
8.60541e-06
8.66369e-06
8.5487e-06
8.60069e-06
8.93812e-06
8.25041e-06
8.52805e-06
8.57023e-06
8.32413e-06
8.24914e-06
8.2243e-06
8.25213e-06
8.3614e-06
8.40168e-06
8.25813e-06
8.30775e-06
8.69603e-06
8.0461e-06
8.30545e-06
8.33812e-06
8.11257e-06
8.0775e-06
8.07081e-06
8.09659e-06
8.19616e-06
8.21783e-06
8.03522e-06
8.08155e-06
8.53848e-06
7.92561e-06
8.17236e-06
8.19266e-06
7.98808e-06
7.99174e-06
7.99999e-06
8.02237e-06
8.11435e-06
8.12527e-06
7.89764e-06
7.939e-06
8.47173e-06
7.8903e-06
8.11672e-06
8.13738e-06
7.95012e-06
7.96263e-06
7.96601e-06
7.98294e-06
8.08402e-06
8.10405e-06
7.84639e-06
7.88054e-06
8.43393e-06
7.88996e-06
8.08207e-06
8.12227e-06
7.95385e-06
7.94967e-06
7.94795e-06
7.95779e-06
8.06715e-06
8.10272e-06
7.86097e-06
7.89416e-06
8.41684e-06
7.90206e-06
8.0624e-06
8.1199e-06
7.97033e-06
7.95207e-06
7.94575e-06
7.94775e-06
8.06405e-06
8.11716e-06
7.89144e-06
7.92446e-06
8.41877e-06
7.92715e-06
8.0575e-06
8.13098e-06
7.99978e-06
7.96788e-06
7.95673e-06
7.95077e-06
8.07294e-06
8.14461e-06
7.93499e-06
7.96657e-06
8.43517e-06
7.9632e-06
8.06453e-06
8.15296e-06
8.03953e-06
7.99328e-06
7.97698e-06
7.96337e-06
8.09014e-06
8.1803e-06
7.98954e-06
8.01893e-06
8.46051e-06
8.00682e-06
8.07964e-06
8.18158e-06
8.08521e-06
8.02407e-06
8.00253e-06
7.98181e-06
8.11162e-06
8.21911e-06
8.05127e-06
8.07802e-06
8.4896e-06
8.05436e-06
8.09907e-06
8.21238e-06
8.13216e-06
8.05655e-06
8.03011e-06
8.00291e-06
8.13389e-06
8.25673e-06
8.11583e-06
8.13962e-06
8.51826e-06
8.1026e-06
8.11979e-06
8.24173e-06
8.17645e-06
8.08791e-06