/*--------------------------------*- C++ -*----------------------------------*\
| =========                 |                                                 |
| \\      /  F ield         | OpenFOAM: The Open Source CFD Toolbox           |
|  \\    /   O peration     | Version:  v1912                                 |
|   \\  /    A nd           | Website:  www.openfoam.com                      |
|    \\/     M anipulation  |                                                 |
\*---------------------------------------------------------------------------*/
FoamFile
{
    version     2.0;
    format      ascii;
    class       volScalarField;
    location    "9.6";
    object      nut;
}
// * * * * * * * * * * * * * * * * * * * * * * * * * * * * * * * * * * * * * //

dimensions      [0 2 -1 0 0 0 0];


internalField   nonuniform List<scalar> 
34128
(
4.27124e-12
4.16538e-12
4.15617e-12
4.16509e-12
4.33384e-12
4.47097e-12
4.35052e-12
4.22962e-12
4.23088e-12
4.29882e-12
4.37311e-12
4.42559e-12
4.2022e-12
4.08889e-12
4.0773e-12
4.09286e-12
4.26255e-12
4.39631e-12
4.27781e-12
4.15845e-12
4.16244e-12
4.22725e-12
4.292e-12
4.3491e-12
7.58637e-12
7.21054e-12
7.14517e-12
7.30369e-12
7.67623e-12
7.89482e-12
7.68062e-12
7.45582e-12
7.51723e-12
7.59693e-12
7.55592e-12
7.75831e-12
3.20171e-11
2.987e-11
2.94484e-11
3.05681e-11
3.23341e-11
3.31588e-11
3.22676e-11
3.12898e-11
3.17501e-11
3.19643e-11
3.12314e-11
3.24005e-11
1.24843e-10
1.16088e-10
1.14321e-10
1.19119e-10
1.26003e-10
1.28995e-10
1.2564e-10
1.21861e-10
1.23881e-10
1.2459e-10
1.21142e-10
1.25906e-10
3.73636e-10
3.47629e-10
3.42237e-10
3.56946e-10
3.76893e-10
3.85122e-10
3.75642e-10
3.64702e-10
3.70945e-10
3.72803e-10
3.61857e-10
3.76091e-10
8.97939e-10
8.37087e-10
8.23948e-10
8.59359e-10
9.04981e-10
9.22638e-10
9.01664e-10
8.76831e-10
8.91764e-10
8.95405e-10
8.6852e-10
9.02341e-10
1.81876e-09
1.70046e-09
1.67341e-09
1.74404e-09
1.8308e-09
1.86168e-09
1.82352e-09
1.77714e-09
1.80639e-09
1.8117e-09
1.75746e-09
1.82493e-09
3.21955e-09
3.02129e-09
2.97225e-09
3.09341e-09
3.23592e-09
3.28154e-09
3.22212e-09
3.14813e-09
3.19699e-09
3.20244e-09
3.10893e-09
3.22636e-09
5.11958e-09
4.8251e-09
4.74503e-09
4.92833e-09
5.13666e-09
5.19517e-09
5.11333e-09
5.00943e-09
5.08129e-09
5.08396e-09
4.94251e-09
5.12538e-09
7.47153e-09
7.07525e-09
6.95537e-09
7.20527e-09
7.48264e-09
7.54907e-09
7.44651e-09
7.31488e-09
7.41055e-09
7.40713e-09
7.21511e-09
7.47498e-09
1.01511e-08
9.68602e-09
9.51924e-09
9.81523e-09
1.01125e-08
1.01703e-08
1.00651e-08
9.95264e-09
1.0054e-08
1.00449e-08
9.83626e-09
1.01483e-08
1.25428e-08
1.20743e-08
1.1877e-08
1.21469e-08
1.24857e-08
1.25418e-08
1.24204e-08
1.22965e-08
1.2421e-08
1.24148e-08
1.21938e-08
1.25433e-08
1.50444e-08
1.45288e-08
1.42966e-08
1.45926e-08
1.49661e-08
1.50149e-08
1.48779e-08
1.47455e-08
1.48972e-08
1.48968e-08
1.46508e-08
1.50487e-08
1.76251e-08
1.70693e-08
1.68034e-08
1.71226e-08
1.75226e-08
1.75575e-08
1.74058e-08
1.72682e-08
1.74516e-08
1.74601e-08
1.71912e-08
1.76324e-08
2.02576e-08
1.96697e-08
1.93717e-08
1.97107e-08
2.01284e-08
2.01427e-08
1.99768e-08
1.98371e-08
2.00568e-08
2.00778e-08
1.97887e-08
2.02663e-08
2.29213e-08
2.23094e-08
2.19816e-08
2.2338e-08
2.27643e-08
2.27518e-08
2.25711e-08
2.24311e-08
2.26924e-08
2.27305e-08
2.24243e-08
2.29293e-08
2.56033e-08
2.4975e-08
2.46211e-08
2.49939e-08
2.54206e-08
2.53757e-08
2.51779e-08
2.50371e-08
2.53461e-08
2.54076e-08
2.50867e-08
2.56086e-08
2.83005e-08
2.7662e-08
2.72863e-08
2.76776e-08
2.80979e-08
2.80159e-08
2.77968e-08
2.76513e-08
2.80155e-08
2.81078e-08
2.77733e-08
2.83013e-08
3.10204e-08
3.0376e-08
2.99839e-08
3.03992e-08
3.08081e-08
3.06849e-08
3.04384e-08
3.0281e-08
3.07086e-08
3.08391e-08
3.04906e-08
3.10158e-08
3.37819e-08
3.31351e-08
3.27317e-08
3.31798e-08
3.35741e-08
3.3406e-08
3.31253e-08
3.29451e-08
3.34439e-08
3.36191e-08
3.32543e-08
3.37726e-08
3.66133e-08
3.59676e-08
3.55574e-08
3.60499e-08
3.64277e-08
3.62103e-08
3.58888e-08
3.56721e-08
3.62486e-08
3.6473e-08
3.60879e-08
3.66017e-08
3.95481e-08
3.89079e-08
3.84944e-08
3.90444e-08
3.94048e-08
3.91341e-08
3.87662e-08
3.84964e-08
3.91547e-08
3.94302e-08
3.90196e-08
3.9537e-08
4.26197e-08
4.19899e-08
4.15758e-08
4.21969e-08
4.25416e-08
4.22148e-08
4.17953e-08
4.14532e-08
4.21942e-08
4.25197e-08
4.20784e-08
4.26126e-08
4.58592e-08
4.52431e-08
4.483e-08
4.5537e-08
4.58734e-08
4.54913e-08
4.50147e-08
4.45761e-08
4.53963e-08
4.57678e-08
4.5291e-08
4.58614e-08
4.92985e-08
4.86935e-08
4.82803e-08
4.9093e-08
4.94391e-08
4.9009e-08
4.84684e-08
4.78995e-08
4.87902e-08
4.91996e-08
4.86825e-08
4.93195e-08
5.29772e-08
5.23704e-08
5.19511e-08
5.28991e-08
5.32913e-08
5.28297e-08
5.22157e-08
5.14673e-08
5.24113e-08
5.28443e-08
5.22821e-08
5.30355e-08
5.69533e-08
5.63186e-08
5.5878e-08
5.70078e-08
5.75086e-08
5.70443e-08
5.63451e-08
5.53442e-08
5.6312e-08
5.67436e-08
5.61311e-08
5.70847e-08
6.13149e-08
6.06133e-08
6.01217e-08
6.15031e-08
6.22098e-08
6.17855e-08
6.09884e-08
5.963e-08
6.05733e-08
6.09615e-08
6.02943e-08
6.15848e-08
6.61949e-08
6.53786e-08
6.4784e-08
6.65164e-08
6.75699e-08
6.7244e-08
6.63376e-08
6.44765e-08
6.53199e-08
6.55961e-08
6.4872e-08
6.67162e-08
7.17856e-08
7.08153e-08
7.00326e-08
7.22457e-08
7.38204e-08
7.36625e-08
7.26421e-08
7.01025e-08
7.07395e-08
7.08005e-08
7.00223e-08
7.27322e-08
7.82987e-08
7.71657e-08
7.61033e-08
7.89187e-08
8.1214e-08
8.13167e-08
8.01818e-08
7.67562e-08
7.70492e-08
7.67594e-08
7.59475e-08
7.99199e-08
8.60004e-08
8.46889e-08
8.32223e-08
8.67933e-08
9.00866e-08
9.05894e-08
8.93396e-08
8.4736e-08
8.44983e-08
8.36677e-08
8.28496e-08
8.866e-08
9.53208e-08
9.38027e-08
9.17659e-08
9.63003e-08
1.00974e-07
1.02088e-07
1.00721e-07
9.45222e-08
9.34983e-08
9.18671e-08
9.10853e-08
9.95605e-08
1.06901e-07
1.05133e-07
1.02304e-07
1.08089e-07
1.14694e-07
1.16745e-07
1.15253e-07
1.06833e-07
1.04663e-07
1.01867e-07
1.01187e-07
1.13563e-07
1.21704e-07
1.19622e-07
1.15684e-07
1.2314e-07
1.32497e-07
1.35999e-07
1.34359e-07
1.22754e-07
1.18917e-07
1.14422e-07
1.13944e-07
1.32149e-07
1.4122e-07
1.38723e-07
1.33214e-07
1.42972e-07
1.56339e-07
1.62115e-07
1.60267e-07
1.43959e-07
1.37683e-07
1.30689e-07
1.30579e-07
1.57736e-07
1.67845e-07
1.64759e-07
1.56984e-07
1.70043e-07
1.89336e-07
1.98657e-07
1.96598e-07
1.73097e-07
1.63234e-07
1.52453e-07
1.52997e-07
1.94176e-07
2.05209e-07
2.01414e-07
1.90356e-07
2.08191e-07
2.32564e-07
2.44191e-07
2.48749e-07
2.143e-07
1.99016e-07
1.799e-07
1.81015e-07
2.34023e-07
2.4345e-07
2.4605e-07
2.32409e-07
2.49489e-07
2.76425e-07
2.93394e-07
3.01703e-07
2.64387e-07
2.35911e-07
2.07437e-07
2.0914e-07
2.79992e-07
2.92901e-07
2.96775e-07
2.77966e-07
2.99126e-07
3.34267e-07
3.57166e-07
3.69104e-07
3.21771e-07
2.82357e-07
2.43945e-07
2.46367e-07
3.40262e-07
3.5632e-07
3.6272e-07
3.38167e-07
3.62494e-07
4.05989e-07
4.35993e-07
4.52627e-07
3.94421e-07
3.42424e-07
2.92504e-07
2.95736e-07
4.14771e-07
4.34641e-07
4.44549e-07
4.13174e-07
4.40128e-07
4.934e-07
5.32134e-07
5.54656e-07
4.83817e-07
4.16644e-07
3.53888e-07
3.57862e-07
5.05407e-07
5.30172e-07
5.44612e-07
5.04816e-07
5.34193e-07
5.98653e-07
6.47514e-07
6.77038e-07
5.92264e-07
5.06925e-07
4.29117e-07
4.3381e-07
6.13754e-07
6.44851e-07
6.6481e-07
6.15081e-07
6.46618e-07
7.23604e-07
7.83258e-07
8.20448e-07
7.21227e-07
6.1514e-07
5.20421e-07
5.25734e-07
7.40405e-07
7.79493e-07
8.0574e-07
7.44939e-07
7.78599e-07
8.70477e-07
9.39837e-07
9.8414e-07
8.708e-07
7.42296e-07
6.29603e-07
6.35306e-07
8.84636e-07
9.33248e-07
9.66131e-07
8.93832e-07
9.30181e-07
1.03863e-06
1.11827e-06
1.16631e-06
1.03937e-06
8.88091e-07
7.57447e-07
7.63171e-07
1.04436e-06
1.10326e-06
1.14257e-06
1.05939e-06
1.09984e-06
1.22216e-06
1.31072e-06
1.36545e-06
1.2237e-06
1.05059e-06
9.032e-07
9.08471e-07
1.21689e-06
1.28474e-06
1.32971e-06
1.23749e-06
1.28405e-06
1.41531e-06
1.50975e-06
1.57119e-06
1.41989e-06
1.22618e-06
1.06426e-06
1.06855e-06
1.39937e-06
1.4715e-06
1.52093e-06
1.42279e-06
1.47441e-06
1.6118e-06
1.70837e-06
1.77472e-06
1.62217e-06
1.41003e-06
1.23626e-06
1.23903e-06
1.58392e-06
1.65696e-06
1.70938e-06
1.60962e-06
1.66388e-06
1.80516e-06
1.90041e-06
1.9689e-06
1.82059e-06
1.59683e-06
1.41355e-06
1.41428e-06
1.76336e-06
1.83479e-06
1.889e-06
1.79247e-06
1.84872e-06
1.99001e-06
2.08216e-06
2.14894e-06
2.00938e-06
1.78093e-06
1.59024e-06
1.58834e-06
1.75425e-06
1.90997e-06
2.05447e-06
1.96587e-06
2.0243e-06
2.1632e-06
2.25033e-06
2.3118e-06
2.18292e-06
1.95591e-06
1.75998e-06
1.75504e-06
1.66454e-06
1.72657e-06
2.00428e-06
1.99836e-06
2.18627e-06
2.32143e-06
2.40002e-06
2.45429e-06
2.33559e-06
1.9727e-06
1.62701e-06
1.58607e-06
1.63258e-06
1.60021e-06
1.87387e-06
1.91421e-06
2.31381e-06
2.46033e-06
2.5265e-06
2.57354e-06
2.46413e-06
1.91685e-06
1.50028e-06
1.45752e-06
1.65582e-06
1.53313e-06
1.81071e-06
1.88333e-06
2.21149e-06
2.48461e-06
2.46033e-06
2.6692e-06
2.45874e-06
1.89818e-06
1.42836e-06
1.3845e-06
1.71761e-06
1.50449e-06
1.79864e-06
1.90418e-06
2.14201e-06
2.40973e-06
2.42747e-06
2.70249e-06
2.42024e-06
1.91659e-06
1.39522e-06
1.34621e-06
1.80816e-06
1.50412e-06
1.81896e-06
1.9579e-06
2.11733e-06
2.36713e-06
2.43445e-06
2.62092e-06
2.40465e-06
1.96442e-06
1.39009e-06
1.33159e-06
1.92341e-06
1.52825e-06
1.8622e-06
2.03025e-06
2.12285e-06
2.35475e-06
2.46581e-06
2.55287e-06
2.40274e-06
2.03638e-06
1.40728e-06
1.33563e-06
2.06185e-06
1.57685e-06
1.92391e-06
2.11119e-06
2.14769e-06
2.35851e-06
2.51163e-06
2.50621e-06
2.40542e-06
2.1262e-06
1.443e-06
1.35593e-06
2.22229e-06
1.65304e-06
2.00332e-06
2.19433e-06
2.18504e-06
2.36752e-06
2.56765e-06
2.47759e-06
2.40707e-06
2.22587e-06
1.49419e-06
1.39153e-06
2.40198e-06
1.76302e-06
2.10364e-06
2.27765e-06
2.2304e-06
2.3745e-06
2.63333e-06
2.46657e-06
2.40525e-06
2.32679e-06
1.55826e-06
1.44237e-06
2.59649e-06
1.91595e-06
2.23201e-06
2.36477e-06
2.28079e-06
2.37542e-06
2.71019e-06
2.47586e-06
2.40049e-06
2.42144e-06
1.63302e-06
1.50911e-06
2.79785e-06
2.12455e-06
2.39919e-06
2.46524e-06
2.3347e-06
2.36943e-06
2.80011e-06
2.51021e-06
2.39604e-06
2.50487e-06
1.71685e-06
1.59304e-06
2.84658e-06
2.40911e-06
2.62713e-06
2.59463e-06
2.39238e-06
2.35846e-06
2.8977e-06
2.57593e-06
2.39751e-06
2.57539e-06
1.80902e-06
1.69591e-06
2.86849e-06
2.76693e-06
2.86677e-06
2.7739e-06
2.45613e-06
2.34631e-06
2.95896e-06
2.68069e-06
2.4126e-06
2.63504e-06
1.91007e-06
1.82011e-06
2.88813e-06
2.89146e-06
2.88255e-06
2.91735e-06
2.52934e-06
2.3376e-06
2.96312e-06
2.83199e-06
2.45078e-06
2.68976e-06
2.0223e-06
1.96831e-06
2.90578e-06
2.90838e-06
2.8965e-06
2.92927e-06
2.61439e-06
2.33669e-06
2.96643e-06
2.98941e-06
2.52248e-06
2.74858e-06
2.14985e-06
2.14212e-06
2.92158e-06
2.92329e-06
2.9088e-06
2.93952e-06
2.7108e-06
2.34656e-06
2.96915e-06
2.99573e-06
2.63569e-06
2.82295e-06
2.29852e-06
2.34147e-06
2.93553e-06
2.93623e-06
2.91948e-06
2.94833e-06
2.81482e-06
2.36835e-06
2.97147e-06
3.00063e-06
2.7984e-06
2.92792e-06
2.47735e-06
2.57179e-06
2.94755e-06
2.94731e-06
2.92855e-06
2.9558e-06
2.9224e-06
2.401e-06
2.97349e-06
3.00384e-06
3.00641e-06
3.01398e-06
2.70281e-06
2.82871e-06
2.95736e-06
2.9566e-06
2.93598e-06
2.96199e-06
2.96586e-06
2.441e-06
2.97534e-06
3.00589e-06
3.01264e-06
3.02446e-06
2.95871e-06
2.93266e-06
2.96487e-06
2.96443e-06
2.94155e-06
2.96694e-06
2.96753e-06
2.48272e-06
2.97729e-06
3.00703e-06
3.01648e-06
3.03284e-06
2.978e-06
2.95231e-06
2.97031e-06
2.96961e-06
2.94375e-06
2.97064e-06
2.96911e-06
2.51948e-06
2.97995e-06
3.00699e-06
3.01784e-06
3.03907e-06
2.99454e-06
2.96735e-06
2.97301e-06
2.97159e-06
2.94614e-06
2.97302e-06
2.97068e-06
2.54468e-06
2.98232e-06
3.00562e-06
3.01702e-06
3.0431e-06
3.00926e-06
2.97969e-06
2.97333e-06
2.97287e-06
2.9484e-06
2.97386e-06
2.97228e-06
2.55299e-06
2.98275e-06
3.00284e-06
3.0129e-06
3.04499e-06
3.02052e-06
2.99e-06
2.97156e-06
2.9741e-06
2.95014e-06
2.9746e-06
2.97383e-06
2.54105e-06
2.98164e-06
2.99845e-06
3.00618e-06
3.04516e-06
3.02839e-06
2.99854e-06
2.96831e-06
2.9755e-06
2.95172e-06
2.97557e-06
2.97515e-06
2.50791e-06
2.97921e-06
2.99243e-06
2.99745e-06
3.04357e-06
3.03325e-06
3.00552e-06
2.96433e-06
2.9772e-06
2.95345e-06
2.97656e-06
2.94217e-06
2.45574e-06
2.97552e-06
2.98444e-06
2.98658e-06
3.03942e-06
3.03474e-06
3.0111e-06
2.87375e-06
4.56612e-12
4.41641e-12
4.40988e-12
4.45521e-12
4.64252e-12
4.7805e-12
4.64766e-12
4.51304e-12
4.52947e-12
4.59586e-12
4.65153e-12
4.72893e-12
4.37863e-12
4.22604e-12
4.2164e-12
4.26794e-12
4.45261e-12
4.58399e-12
4.45678e-12
4.3262e-12
4.34091e-12
4.40212e-12
4.45255e-12
4.53213e-12
5.92416e-12
5.54618e-12
5.46857e-12
5.69681e-12
6.0405e-12
6.19846e-12
6.03069e-12
5.82473e-12
5.82744e-12
5.86184e-12
5.8681e-12
6.07955e-12
1.70816e-11
1.50938e-11
1.45516e-11
1.60196e-11
1.75205e-11
1.78503e-11
1.74002e-11
1.66397e-11
1.6557e-11
1.6391e-11
1.60749e-11
1.72238e-11
5.92366e-11
5.12846e-11
4.89969e-11
5.51408e-11
6.09486e-11
6.18663e-11
6.04079e-11
5.75584e-11
5.71377e-11
5.61786e-11
5.46258e-11
5.92878e-11
1.70827e-10
1.47359e-10
1.40388e-10
1.59022e-10
1.76071e-10
1.78292e-10
1.74407e-10
1.66081e-10
1.64627e-10
1.61355e-10
1.56477e-10
1.7047e-10
4.03024e-10
3.48137e-10
3.31228e-10
3.75975e-10
4.15919e-10
4.20213e-10
4.11942e-10
3.92487e-10
3.88398e-10
3.79723e-10
3.68e-10
4.01487e-10
8.05869e-10
6.98576e-10
6.6403e-10
7.53946e-10
8.32513e-10
8.39216e-10
8.24658e-10
7.8658e-10
7.76737e-10
7.57477e-10
7.34452e-10
8.0186e-10
1.41134e-09
1.22909e-09
1.16745e-09
1.32447e-09
1.45921e-09
1.46788e-09
1.44592e-09
1.38106e-09
1.36039e-09
1.32344e-09
1.28492e-09
1.40317e-09
2.22288e-09
1.94624e-09
1.84755e-09
2.09278e-09
2.30032e-09
2.30987e-09
2.28049e-09
2.18122e-09
2.14261e-09
2.07953e-09
2.02315e-09
2.20932e-09
3.21576e-09
2.83196e-09
2.68736e-09
3.03768e-09
3.33149e-09
3.34085e-09
3.30491e-09
3.16478e-09
3.09969e-09
3.00184e-09
2.92816e-09
3.19687e-09
4.31729e-09
3.84384e-09
3.65258e-09
4.0934e-09
4.46073e-09
4.46975e-09
4.43145e-09
4.26268e-09
4.1612e-09
4.02972e-09
3.95667e-09
4.2889e-09
5.3048e-09
4.74281e-09
4.51192e-09
5.04807e-09
5.49622e-09
5.50763e-09
5.46409e-09
5.25302e-09
5.11729e-09
4.9492e-09
4.86973e-09
5.27794e-09
6.32839e-09
5.6812e-09
5.40778e-09
6.04515e-09
6.57733e-09
6.59228e-09
6.54448e-09
6.2866e-09
6.11082e-09
5.90119e-09
5.8183e-09
6.3075e-09
7.37401e-09
6.64725e-09
6.33138e-09
7.07182e-09
7.69048e-09
7.7108e-09
7.65997e-09
7.35088e-09
7.12868e-09
6.87227e-09
6.78975e-09
7.36463e-09
8.42998e-09
7.63122e-09
7.27373e-09
8.1174e-09
8.82466e-09
8.85326e-09
8.80057e-09
8.43568e-09
8.16028e-09
7.85168e-09
7.77405e-09
8.43915e-09
9.48822e-09
8.62619e-09
8.22867e-09
9.17439e-09
9.97256e-09
1.00137e-08
9.96006e-09
9.53431e-09
9.19859e-09
8.83236e-09
8.76457e-09
9.52468e-09
1.0545e-08
9.62873e-09
9.19348e-09
1.02391e-08
1.11312e-08
1.11908e-08
1.11366e-08
1.06443e-08
1.02409e-08
9.81132e-09
9.75844e-09
1.06193e-08
1.16015e-08
1.06396e-08
1.01693e-08
1.13119e-08
1.23022e-08
1.23881e-08
1.23335e-08
1.17679e-08
1.12891e-08
1.079e-08
1.07569e-08
1.17261e-08
1.2665e-08
1.16647e-08
1.11619e-08
1.23986e-08
1.34931e-08
1.36145e-08
1.35598e-08
1.29135e-08
1.23508e-08
1.17748e-08
1.1766e-08
1.28538e-08
1.37488e-08
1.27155e-08
1.21824e-08
1.35105e-08
1.47175e-08
1.48856e-08
1.48317e-08
1.40958e-08
1.34393e-08
1.27774e-08
1.27971e-08
1.40174e-08
1.48724e-08
1.38099e-08
1.32473e-08
1.46643e-08
1.59947e-08
1.62227e-08
1.61712e-08
1.53361e-08
1.45739e-08
1.38148e-08
1.38674e-08
1.5238e-08
1.60608e-08
1.49708e-08
1.43785e-08
1.58817e-08
1.73495e-08
1.76527e-08
1.76061e-08
1.66613e-08
1.57791e-08
1.49096e-08
1.49997e-08
1.65424e-08
1.73436e-08
1.62261e-08
1.56022e-08
1.71886e-08
1.88114e-08
1.92082e-08
1.91694e-08
1.8103e-08
1.70843e-08
1.60894e-08
1.62214e-08
1.79624e-08
1.87569e-08
1.76088e-08
1.69495e-08
1.86168e-08
2.04177e-08
2.09303e-08
2.09024e-08
1.96988e-08
1.85247e-08
1.73876e-08
1.75659e-08
1.95371e-08
2.03467e-08
1.91614e-08
1.84597e-08
2.02078e-08
2.22181e-08
2.28738e-08
2.28591e-08
2.14971e-08
2.0145e-08
1.88464e-08
1.90747e-08
2.1318e-08
2.21752e-08
2.09424e-08
2.01855e-08
2.2019e-08
2.42829e-08
2.51157e-08
2.51155e-08
2.35638e-08
2.2006e-08
2.05218e-08
2.0803e-08
2.33777e-08
2.4329e-08
2.30352e-08
2.22018e-08
2.41326e-08
2.67129e-08
2.77656e-08
2.778e-08
2.59927e-08
2.4193e-08
2.24904e-08
2.28269e-08
2.58216e-08
2.69301e-08
2.55608e-08
2.46167e-08
2.66667e-08
2.96528e-08
3.09796e-08
3.10072e-08
2.89183e-08
2.68274e-08
2.48594e-08
2.52536e-08
2.88031e-08
3.01492e-08
2.86921e-08
2.75856e-08
2.97899e-08
3.33064e-08
3.49772e-08
3.50155e-08
3.25325e-08
3.0082e-08
2.77783e-08
2.82343e-08
3.25431e-08
3.42238e-08
3.26746e-08
3.13307e-08
3.374e-08
3.79589e-08
4.00641e-08
4.01096e-08
3.71052e-08
3.4201e-08
3.14563e-08
3.19815e-08
3.73564e-08
3.94831e-08
3.78531e-08
3.61674e-08
3.88515e-08
4.40084e-08
4.66665e-08
4.67132e-08
4.30148e-08
3.95275e-08
3.61856e-08
3.67938e-08
4.36918e-08
4.62203e-08
4.45434e-08
4.23639e-08
4.54256e-08
5.18665e-08
5.5248e-08
5.52812e-08
5.06353e-08
4.63807e-08
4.21972e-08
4.29094e-08
5.20461e-08
5.49302e-08
5.32765e-08
5.0387e-08
5.39701e-08
6.22102e-08
6.65677e-08
6.6557e-08
6.05882e-08
5.53023e-08
4.98977e-08
5.07471e-08
6.32479e-08
6.63894e-08
6.48837e-08
6.09721e-08
6.52881e-08
7.61166e-08
8.18373e-08
8.17226e-08
7.38564e-08
6.71521e-08
5.99274e-08
6.09658e-08
7.86511e-08
8.18146e-08
8.06698e-08
7.52716e-08
8.06491e-08
9.52829e-08
1.02977e-07
1.02676e-07
9.20083e-08
8.33e-08
7.32782e-08
7.45794e-08
1.00419e-07
1.0306e-07
1.02657e-07
9.50852e-08
1.01996e-07
1.20188e-07
1.30625e-07
1.32349e-07
1.17507e-07
1.05872e-07
9.12992e-08
9.22209e-08
1.25431e-07
1.27087e-07
1.28853e-07
1.19559e-07
1.25313e-07
1.48519e-07
1.62222e-07
1.64887e-07
1.48057e-07
1.31102e-07
1.10818e-07
1.11808e-07
1.57153e-07
1.57665e-07
1.61489e-07
1.49128e-07
1.56013e-07
1.86297e-07
2.04404e-07
2.08137e-07
1.86269e-07
1.6381e-07
1.36291e-07
1.37363e-07
1.99736e-07
1.98243e-07
2.04965e-07
1.88526e-07
1.97014e-07
2.3681e-07
2.60813e-07
2.66042e-07
2.37482e-07
2.07478e-07
1.6988e-07
1.71047e-07
2.56859e-07
2.52235e-07
2.62924e-07
2.41094e-07
2.51834e-07
3.03268e-07
3.34166e-07
3.41513e-07
3.05698e-07
2.65905e-07
2.14337e-07
2.15624e-07
3.30998e-07
3.22173e-07
3.37732e-07
3.09871e-07
3.22959e-07
3.88029e-07
4.27473e-07
4.37641e-07
3.93366e-07
3.41436e-07
2.72913e-07
2.74239e-07
4.25102e-07
4.10376e-07
4.32047e-07
3.96893e-07
4.12928e-07
4.9445e-07
5.44091e-07
5.57872e-07
5.0427e-07
4.37063e-07
3.47093e-07
3.48281e-07
5.41924e-07
5.19632e-07
5.48675e-07
5.05094e-07
5.24644e-07
6.24848e-07
6.86104e-07
7.04348e-07
6.4139e-07
5.55813e-07
4.39468e-07
4.40269e-07
6.82549e-07
6.51506e-07
6.8901e-07
6.36292e-07
6.5976e-07
7.79006e-07
8.53e-07
8.76786e-07
8.05677e-07
6.99264e-07
5.52258e-07
5.5228e-07
8.45464e-07
8.05515e-07
8.52162e-07
7.90339e-07
8.17804e-07
9.51807e-07
1.03994e-06
1.07139e-06
9.94996e-07
8.66626e-07
6.86368e-07
6.8506e-07
1.02603e-06
9.78604e-07
1.03445e-06
9.64558e-07
9.95589e-07
1.13754e-06
1.23589e-06
1.27992e-06
1.20359e-06
1.05415e-06
8.4077e-07
8.37441e-07
1.21648e-06
1.16526e-06
1.2296e-06
1.15374e-06
1.18714e-06
1.33424e-06
1.43842e-06
1.48925e-06
1.42229e-06
1.25516e-06
1.01215e-06
1.00603e-06
1.40601e-06
1.35826e-06
1.42966e-06
1.35081e-06
1.38488e-06
1.53672e-06
1.64238e-06
1.69654e-06
1.63903e-06
1.46065e-06
1.19498e-06
1.18537e-06
1.41134e-06
1.54975e-06
1.62642e-06
1.54786e-06
1.5854e-06
1.73862e-06
1.84162e-06
1.89698e-06
1.84353e-06
1.56919e-06
1.38207e-06
1.36857e-06
1.30599e-06
1.68356e-06
1.81256e-06
1.73724e-06
1.78254e-06
1.93376e-06
2.02989e-06
2.08506e-06
1.94094e-06
1.4974e-06
1.56054e-06
1.54804e-06
1.23904e-06
1.54565e-06
1.80012e-06
1.68877e-06
1.91328e-06
2.08995e-06
2.01529e-06
2.184e-06
1.87169e-06
1.43804e-06
1.43717e-06
1.48252e-06
1.22112e-06
1.43428e-06
1.69772e-06
1.61592e-06
1.85646e-06
2.03809e-06
1.94436e-06
2.10524e-06
1.82441e-06
1.41162e-06
1.32857e-06
1.37162e-06
1.2467e-06
1.37283e-06
1.6468e-06
1.59342e-06
1.80705e-06
1.98955e-06
1.90683e-06
2.05088e-06
1.81345e-06
1.41954e-06
1.26653e-06
1.30422e-06
1.30848e-06
1.35095e-06
1.64765e-06
1.62226e-06
1.7943e-06
1.96875e-06
1.90326e-06
2.03131e-06
1.83804e-06
1.46408e-06
1.24338e-06
1.27688e-06
1.40154e-06
1.35888e-06
1.68992e-06
1.69457e-06
1.81934e-06
1.97674e-06
1.92762e-06
2.03742e-06
1.89761e-06
1.54574e-06
1.24985e-06
1.27707e-06
1.52519e-06
1.39123e-06
1.76716e-06
1.80254e-06
1.87553e-06
2.00975e-06
1.97158e-06
2.06379e-06
1.98584e-06
1.66323e-06
1.2793e-06
1.29649e-06
1.68198e-06
1.44571e-06
1.87564e-06
1.93985e-06
1.95356e-06
2.05851e-06
2.02673e-06
2.10626e-06
2.09198e-06
1.81411e-06
1.32718e-06
1.33036e-06
1.87563e-06
1.52227e-06
2.01145e-06
2.09974e-06
2.04615e-06
2.11295e-06
2.08766e-06
2.15985e-06
2.20534e-06
1.99308e-06
1.39025e-06
1.37595e-06
2.10708e-06
1.6228e-06
2.16949e-06
2.2725e-06
2.14794e-06
2.16518e-06
2.15162e-06
2.22065e-06
2.3171e-06
2.19141e-06
1.46591e-06
1.43165e-06
2.37586e-06
1.75112e-06
2.34484e-06
2.44635e-06
2.25457e-06
2.2098e-06
2.21782e-06
2.28818e-06
2.42114e-06
2.3989e-06
1.55169e-06
1.49664e-06
2.67419e-06
1.91287e-06
2.53532e-06
2.6133e-06
2.36229e-06
2.24395e-06
2.28696e-06
2.3651e-06
2.51457e-06
2.6051e-06
1.64508e-06
1.57056e-06
2.79069e-06
2.11456e-06
2.74731e-06
2.77644e-06
2.46829e-06
2.2674e-06
2.36114e-06
2.45652e-06
2.59801e-06
2.80113e-06
1.74347e-06
1.65306e-06
2.81628e-06
2.36391e-06
2.86128e-06
2.8846e-06
2.57083e-06
2.28266e-06
2.44359e-06
2.56917e-06
2.67532e-06
2.94712e-06
1.8445e-06
1.74443e-06
2.8399e-06
2.66903e-06
2.87528e-06
2.89952e-06
2.66888e-06
2.29454e-06
2.53825e-06
2.71068e-06
2.75319e-06
2.96427e-06
1.94652e-06
1.84552e-06
2.86187e-06
2.89058e-06
2.88732e-06
2.91182e-06
2.76376e-06
2.30938e-06
2.64841e-06
2.88819e-06
2.84134e-06
2.97997e-06
2.04904e-06
1.95693e-06
2.88232e-06
2.90737e-06
2.89768e-06
2.92201e-06
2.86144e-06
2.33397e-06
2.77514e-06
2.99081e-06
2.95232e-06
2.99441e-06
2.15323e-06
2.0792e-06
2.90125e-06
2.9219e-06
2.90639e-06
2.93043e-06
2.95824e-06
2.37453e-06
2.9079e-06
2.99463e-06
3.00293e-06
3.00758e-06
2.26162e-06
2.21265e-06
2.91857e-06
2.93409e-06
2.91336e-06
2.9373e-06
2.96094e-06
2.43566e-06
2.96553e-06
2.99749e-06
3.00858e-06
3.01948e-06
2.37761e-06
2.35648e-06
2.93421e-06
2.94391e-06
2.91839e-06
2.94274e-06
2.96267e-06
2.51987e-06
2.96824e-06
2.99968e-06
3.01351e-06
3.03053e-06
2.50584e-06
2.50887e-06
2.94822e-06
2.9519e-06
2.92121e-06
2.94683e-06
2.96375e-06
2.62533e-06
2.97109e-06
3.00131e-06
3.01688e-06
3.04042e-06
2.65423e-06
2.67464e-06
2.95884e-06
2.95656e-06
2.92177e-06
2.94965e-06
2.96444e-06
2.7449e-06
2.97399e-06
3.00206e-06
3.01777e-06
3.04829e-06
2.83051e-06
2.85129e-06
2.9664e-06
2.95729e-06
2.91929e-06
2.95132e-06
2.96498e-06
2.87155e-06
2.97674e-06
3.00178e-06
3.01606e-06
3.05359e-06
3.01118e-06
2.96313e-06
2.97091e-06
2.95689e-06
2.9166e-06
2.95204e-06
2.96556e-06
2.93871e-06
2.97911e-06
3.00045e-06
3.01192e-06
3.0563e-06
3.02373e-06
2.97734e-06
2.97341e-06
2.95585e-06
2.91297e-06
2.95208e-06
2.96632e-06
2.94096e-06
2.9811e-06
2.99809e-06
3.00553e-06
3.05655e-06
3.03155e-06
2.98903e-06
2.97405e-06
2.95419e-06
2.90878e-06
2.95179e-06
2.96736e-06
2.94396e-06
2.98269e-06
2.99478e-06
2.99869e-06
3.05455e-06
3.03718e-06
2.99851e-06
2.97276e-06
2.95232e-06
2.90465e-06
2.95129e-06
2.96871e-06
2.94767e-06
2.98401e-06
2.99062e-06
2.99075e-06
3.05021e-06
3.0411e-06
3.00616e-06
2.9698e-06
2.95071e-06
2.90134e-06
2.95073e-06
2.97033e-06
2.95202e-06
2.98493e-06
2.98585e-06
2.98131e-06
3.04413e-06
3.04353e-06
3.01237e-06
2.93721e-06
2.9498e-06
2.89948e-06
2.95036e-06
2.97205e-06
2.95695e-06
2.98545e-06
2.98123e-06
2.97055e-06
3.03762e-06
3.04462e-06
3.01753e-06
2.79487e-06
4.93019e-12
4.75232e-12
4.73537e-12
4.81664e-12
5.03046e-12
5.17252e-12
5.03215e-12
4.8807e-12
4.91258e-12
4.96364e-12
4.97989e-12
5.08276e-12
4.81037e-12
4.63285e-12
4.61165e-12
4.69847e-12
4.91157e-12
5.04788e-12
4.91226e-12
4.76243e-12
4.79261e-12
4.83789e-12
4.84865e-12
4.95688e-12
7.95808e-12
7.59423e-12
7.47242e-12
7.75758e-12
8.18963e-12
8.36938e-12
8.17128e-12
7.88417e-12
7.91975e-12
7.90953e-12
7.82864e-12
8.15457e-12
3.10632e-11
2.94212e-11
2.86339e-11
3.02644e-11
3.22087e-11
3.27212e-11
3.20584e-11
3.08004e-11
3.09012e-11
3.05514e-11
2.98545e-11
3.1651e-11
1.18429e-10
1.12167e-10
1.0889e-10
1.15554e-10
1.2303e-10
1.24678e-10
1.22352e-10
1.175e-10
1.17877e-10
1.16235e-10
1.13173e-10
1.20465e-10
3.50699e-10
3.32947e-10
3.23072e-10
3.42876e-10
3.64396e-10
3.6857e-10
3.62226e-10
3.48198e-10
3.49283e-10
3.44075e-10
3.34717e-10
3.56475e-10
8.35515e-10
7.95977e-10
7.72395e-10
8.18622e-10
8.67625e-10
8.75828e-10
8.62192e-10
8.30239e-10
8.32526e-10
8.1952e-10
7.9739e-10
8.48858e-10
1.67859e-09
1.6058e-09
1.55864e-09
1.64804e-09
1.74101e-09
1.75393e-09
1.72973e-09
1.66938e-09
1.67297e-09
1.64586e-09
1.60296e-09
1.70477e-09
2.94956e-09
2.83488e-09
2.75282e-09
2.90168e-09
3.05457e-09
3.07147e-09
3.03433e-09
2.93578e-09
2.93986e-09
2.89077e-09
2.82005e-09
2.99528e-09
4.66141e-09
4.50185e-09
4.37448e-09
4.59418e-09
4.81877e-09
4.83772e-09
4.78647e-09
4.64276e-09
4.64571e-09
4.5672e-09
4.46485e-09
4.73418e-09
6.77055e-09
6.57007e-09
6.39021e-09
6.68436e-09
6.98598e-09
7.00477e-09
6.93891e-09
6.7468e-09
6.7469e-09
6.63405e-09
6.50078e-09
6.87844e-09
9.15582e-09
8.93818e-09
8.72608e-09
9.05708e-09
9.38264e-09
9.40343e-09
9.32524e-09
9.1156e-09
9.11849e-09
9.00609e-09
8.85193e-09
9.27738e-09
1.1317e-08
1.10757e-08
1.08467e-08
1.12101e-08
1.15847e-08
1.16044e-08
1.15108e-08
1.12639e-08
1.12734e-08
1.11458e-08
1.09914e-08
1.14724e-08
1.35849e-08
1.33276e-08
1.3069e-08
1.34741e-08
1.38921e-08
1.39081e-08
1.37996e-08
1.35164e-08
1.35347e-08
1.3394e-08
1.32234e-08
1.37776e-08
1.59337e-08
1.56703e-08
1.53841e-08
1.58243e-08
1.62793e-08
1.62888e-08
1.61657e-08
1.58475e-08
1.58769e-08
1.57261e-08
1.55422e-08
1.61678e-08
1.83422e-08
1.80843e-08
1.77728e-08
1.82411e-08
1.87265e-08
1.87277e-08
1.85893e-08
1.82364e-08
1.82793e-08
1.81223e-08
1.79289e-08
1.86233e-08
2.07969e-08
2.05566e-08
2.02225e-08
2.07123e-08
2.12226e-08
2.12143e-08
2.10587e-08
2.06698e-08
2.07289e-08
2.05701e-08
2.03706e-08
2.11328e-08
2.3293e-08
2.30822e-08
2.2728e-08
2.32338e-08
2.37655e-08
2.37475e-08
2.35715e-08
2.31434e-08
2.32214e-08
2.30647e-08
2.28616e-08
2.36943e-08
2.58353e-08
2.56654e-08
2.52924e-08
2.581e-08
2.63626e-08
2.63357e-08
2.61356e-08
2.56628e-08
2.57619e-08
2.56093e-08
2.54038e-08
2.63161e-08
2.84391e-08
2.83212e-08
2.79283e-08
2.84544e-08
2.90315e-08
2.89973e-08
2.87691e-08
2.82446e-08
2.83656e-08
2.82156e-08
2.80082e-08
2.90176e-08
3.11289e-08
3.10758e-08
3.06585e-08
3.11898e-08
3.18001e-08
3.176e-08
3.15002e-08
3.09162e-08
3.10581e-08
3.09047e-08
3.06958e-08
3.18292e-08
3.39367e-08
3.39641e-08
3.35136e-08
3.40468e-08
3.47043e-08
3.46605e-08
3.43653e-08
3.37129e-08
3.38729e-08
3.37052e-08
3.34957e-08
3.47906e-08
3.68994e-08
3.70265e-08
3.65298e-08
3.70616e-08
3.77867e-08
3.77423e-08
3.74076e-08
3.66757e-08
3.68487e-08
3.6651e-08
3.64427e-08
3.79479e-08
4.00581e-08
4.03068e-08
3.97457e-08
4.02733e-08
4.10953e-08
4.10563e-08
4.06767e-08
3.98506e-08
4.00292e-08
3.97798e-08
3.95752e-08
4.13535e-08
4.34595e-08
4.38537e-08
4.32033e-08
4.37255e-08
4.46877e-08
4.4665e-08
4.42322e-08
4.32913e-08
4.34648e-08
4.31337e-08
4.29352e-08
4.50699e-08
4.71615e-08
4.77279e-08
4.69518e-08
4.74711e-08
4.86384e-08
4.86501e-08
4.81524e-08
4.70659e-08
4.7219e-08
4.67634e-08
4.65721e-08
4.91798e-08
5.12422e-08
5.20128e-08
5.10579e-08
5.15813e-08
5.30495e-08
5.31244e-08
5.25453e-08
5.12691e-08
5.13795e-08
5.0736e-08
5.05507e-08
5.38006e-08
5.58115e-08
5.68298e-08
5.56187e-08
5.61572e-08
5.80623e-08
5.82429e-08
5.75605e-08
5.60356e-08
5.60716e-08
5.51454e-08
5.49628e-08
5.90999e-08
6.10225e-08
6.23512e-08
6.0776e-08
6.13406e-08
6.38674e-08
6.42132e-08
6.34008e-08
6.15533e-08
6.14729e-08
6.01249e-08
5.99388e-08
6.53104e-08
6.70831e-08
6.88133e-08
6.67305e-08
6.73261e-08
7.07141e-08
7.13052e-08
7.03312e-08
6.80755e-08
6.78273e-08
6.58589e-08
6.566e-08
7.27438e-08
7.42651e-08
7.65229e-08
7.37545e-08
7.43718e-08
7.89129e-08
7.98554e-08
7.86836e-08
7.59269e-08
7.54565e-08
7.25968e-08
7.23719e-08
8.1795e-08
8.29005e-08
8.58484e-08
8.21884e-08
8.2797e-08
8.8859e-08
9.03024e-08
8.88872e-08
8.55099e-08
8.47617e-08
8.06537e-08
8.03837e-08
9.2969e-08
9.34465e-08
9.73079e-08
9.24679e-08
9.30365e-08
1.01152e-07
1.03324e-07
1.01602e-07
9.74188e-08
9.63196e-08
9.04276e-08
9.00747e-08
1.07048e-07
1.0664e-07
1.1173e-07
1.053e-07
1.05798e-07
1.1674e-07
1.19986e-07
1.17866e-07
1.12606e-07
1.11063e-07
1.02571e-07
1.02066e-07
1.25289e-07
1.23625e-07
1.30408e-07
1.21794e-07
1.22188e-07
1.37109e-07
1.41956e-07
1.39297e-07
1.32566e-07
1.30472e-07
1.18104e-07
1.17324e-07
1.49728e-07
1.46216e-07
1.55401e-07
1.43716e-07
1.43974e-07
1.64636e-07
1.71925e-07
1.68481e-07
1.5969e-07
1.56968e-07
1.38657e-07
1.37393e-07
1.83704e-07
1.77247e-07
1.90058e-07
1.74011e-07
1.73943e-07
2.009e-07
2.13636e-07
2.0947e-07
1.97892e-07
1.9438e-07
1.66732e-07
1.64633e-07
2.28055e-07
2.14725e-07
2.36055e-07
2.1721e-07
2.09043e-07
2.37787e-07
2.54606e-07
2.57837e-07
2.49148e-07
2.35598e-07
1.96585e-07
1.93879e-07
2.72891e-07
2.55185e-07
2.82415e-07
2.58696e-07
2.48471e-07
2.86089e-07
3.08403e-07
3.13651e-07
3.02388e-07
2.84177e-07
2.31566e-07
2.27593e-07
3.32215e-07
3.08679e-07
3.43343e-07
3.13544e-07
3.00712e-07
3.47974e-07
3.76285e-07
3.84507e-07
3.71263e-07
3.47934e-07
2.77936e-07
2.72018e-07
4.06447e-07
3.75719e-07
4.1882e-07
3.82903e-07
3.66585e-07
4.23859e-07
4.59538e-07
4.71622e-07
4.56543e-07
4.27259e-07
3.37632e-07
3.29261e-07
4.97081e-07
4.57761e-07
5.10575e-07
4.67984e-07
4.47426e-07
5.1587e-07
5.60343e-07
5.77218e-07
5.6052e-07
5.24314e-07
4.11518e-07
3.99879e-07
6.05554e-07
5.56876e-07
6.20275e-07
5.70836e-07
5.45393e-07
6.25764e-07
6.80176e-07
7.02716e-07
6.84653e-07
6.40669e-07
5.01867e-07
4.85891e-07
7.32059e-07
6.74513e-07
7.48642e-07
6.92677e-07
6.62035e-07
7.54523e-07
8.1941e-07
8.48251e-07
8.28997e-07
7.76602e-07
6.10651e-07
5.89179e-07
8.75224e-07
8.11092e-07
8.95118e-07
8.33459e-07
7.97879e-07
9.02145e-07
9.77102e-07
1.01235e-06
9.91884e-07
9.30775e-07
7.38922e-07
7.10845e-07
1.03212e-06
9.65667e-07
1.0577e-06
9.91631e-07
9.52125e-07
1.06758e-06
1.15102e-06
1.19192e-06
1.16992e-06
1.10025e-06
8.86337e-07
8.50793e-07
1.19866e-06
1.1357e-06
1.23301e-06