/*--------------------------------*- C++ -*----------------------------------*\
| =========                 |                                                 |
| \\      /  F ield         | OpenFOAM: The Open Source CFD Toolbox           |
|  \\    /   O peration     | Version:  v1912                                 |
|   \\  /    A nd           | Website:  www.openfoam.com                      |
|    \\/     M anipulation  |                                                 |
\*---------------------------------------------------------------------------*/
FoamFile
{
    version     2.0;
    format      ascii;
    class       volScalarField;
    location    "9.6";
    object      pPrime2Mean;
}
// * * * * * * * * * * * * * * * * * * * * * * * * * * * * * * * * * * * * * //

dimensions      [2 -2 -4 0 0 0 0];


internalField   nonuniform List<scalar> 
34128
(
3448.34
3448.44
3448.57
3448.7
3448.81
3448.93
3449.06
3449.22
3449.42
3449.65
3449.88
3450.06
3444.64
3444.75
3444.88
3445
3445.11
3445.23
3445.35
3445.51
3445.71
3445.93
3446.16
3446.34
3438.93
3439.03
3439.16
3439.28
3439.39
3439.5
3439.62
3439.77
3439.96
3440.18
3440.4
3440.57
3435.23
3435.33
3435.45
3435.57
3435.67
3435.78
3435.9
3436.05
3436.24
3436.45
3436.66
3436.83
3434.26
3434.36
3434.48
3434.6
3434.7
3434.81
3434.93
3435.08
3435.26
3435.47
3435.68
3435.85
3434.29
3434.4
3434.52
3434.63
3434.74
3434.85
3434.97
3435.12
3435.3
3435.51
3435.72
3435.89
3434.33
3434.43
3434.55
3434.67
3434.78
3434.88
3435
3435.15
3435.34
3435.54
3435.75
3435.92
3434.36
3434.46
3434.58
3434.7
3434.81
3434.91
3435.03
3435.18
3435.37
3435.57
3435.78
3435.95
3434.38
3434.48
3434.61
3434.72
3434.83
3434.94
3435.05
3435.2
3435.39
3435.59
3435.8
3435.97
3434.4
3434.5
3434.62
3434.74
3434.85
3434.95
3435.07
3435.22
3435.41
3435.61
3435.82
3435.99
3434.41
3434.51
3434.63
3434.75
3434.86
3434.96
3435.08
3435.23
3435.41
3435.62
3435.83
3435.99
3434.41
3434.51
3434.64
3434.75
3434.86
3434.97
3435.08
3435.23
3435.42
3435.62
3435.83
3436
3434.41
3434.51
3434.63
3434.75
3434.86
3434.97
3435.08
3435.23
3435.42
3435.62
3435.82
3435.99
3434.4
3434.5
3434.63
3434.74
3434.85
3434.96
3435.07
3435.22
3435.41
3435.61
3435.81
3435.98
3434.39
3434.49
3434.61
3434.73
3434.84
3434.95
3435.06
3435.21
3435.39
3435.59
3435.8
3435.96
3434.37
3434.47
3434.59
3434.71
3434.82
3434.93
3435.04
3435.19
3435.37
3435.57
3435.77
3435.94
3434.34
3434.45
3434.57
3434.69
3434.79
3434.9
3435.02
3435.17
3435.35
3435.54
3435.75
3435.91
3434.31
3434.42
3434.54
3434.66
3434.76
3434.87
3434.99
3435.13
3435.31
3435.51
3435.71
3435.88
3434.28
3434.38
3434.5
3434.62
3434.73
3434.84
3434.95
3435.1
3435.28
3435.47
3435.67
3435.84
3434.24
3434.34
3434.46
3434.58
3434.69
3434.8
3434.91
3435.06
3435.24
3435.43
3435.63
3435.79
3434.19
3434.29
3434.42
3434.54
3434.64
3434.75
3434.87
3435.01
3435.19
3435.38
3435.58
3435.74
3434.14
3434.24
3434.37
3434.49
3434.59
3434.7
3434.82
3434.96
3435.14
3435.33
3435.52
3435.69
3434.08
3434.19
3434.31
3434.43
3434.54
3434.65
3434.76
3434.9
3435.08
3435.27
3435.46
3435.63
3434.02
3434.13
3434.25
3434.37
3434.48
3434.58
3434.7
3434.84
3435.02
3435.2
3435.4
3435.56
3433.95
3434.06
3434.18
3434.3
3434.41
3434.52
3434.63
3434.78
3434.95
3435.14
3435.33
3435.49
3433.88
3433.99
3434.11
3434.23
3434.34
3434.45
3434.56
3434.7
3434.88
3435.06
3435.25
3435.41
3433.81
3433.91
3434.04
3434.16
3434.27
3434.37
3434.49
3434.63
3434.8
3434.98
3435.17
3435.33
3433.72
3433.83
3433.96
3434.08
3434.19
3434.3
3434.41
3434.55
3434.72
3434.9
3435.09
3435.24
3433.64
3433.75
3433.87
3434
3434.1
3434.21
3434.32
3434.46
3434.63
3434.81
3435
3435.15
3433.55
3433.66
3433.79
3433.91
3434.02
3434.12
3434.24
3434.37
3434.54
3434.72
3434.9
3435.06
3433.46
3433.57
3433.69
3433.82
3433.93
3434.03
3434.14
3434.28
3434.45
3434.62
3434.8
3434.96
3433.36
3433.47
3433.6
3433.72
3433.83
3433.94
3434.05
3434.18
3434.35
3434.52
3434.7
3434.85
3433.26
3433.37
3433.5
3433.62
3433.73
3433.84
3433.95
3434.08
3434.24
3434.42
3434.6
3434.75
3433.16
3433.27
3433.4
3433.52
3433.63
3433.74
3433.85
3433.98
3434.14
3434.31
3434.49
3434.63
3433.05
3433.16
3433.29
3433.41
3433.52
3433.63
3433.74
3433.87
3434.03
3434.2
3434.37
3434.52
3432.94
3433.05
3433.18
3433.3
3433.41
3433.52
3433.63
3433.76
3433.92
3434.09
3434.25
3434.4
3432.82
3432.94
3433.07
3433.19
3433.3
3433.41
3433.52
3433.65
3433.8
3433.97
3434.13
3434.28
3432.71
3432.82
3432.95
3433.08
3433.19
3433.29
3433.4
3433.53
3433.68
3433.85
3434.01
3434.15
3432.59
3432.71
3432.83
3432.96
3433.07
3433.17
3433.28
3433.41
3433.56
3433.72
3433.88
3434.03
3432.46
3432.58
3432.71
3432.84
3432.95
3433.05
3433.16
3433.29
3433.44
3433.6
3433.76
3433.9
3432.34
3432.46
3432.59
3432.72
3432.83
3432.93
3433.04
3433.16
3433.31
3433.47
3433.63
3433.76
3432.21
3432.34
3432.47
3432.59
3432.7
3432.81
3432.91
3433.04
3433.18
3433.34
3433.49
3433.63
3432.09
3432.21
3432.34
3432.47
3432.58
3432.68
3432.78
3432.91
3433.05
3433.2
3433.36
3433.49
3431.96
3432.08
3432.21
3432.34
3432.45
3432.55
3432.66
3432.78
3432.92
3433.07
3433.22
3433.35
3431.83
3431.95
3432.08
3432.21
3432.32
3432.42
3432.53
3432.65
3432.78
3432.93
3433.08
3433.21
3431.69
3431.82
3431.95
3432.08
3432.19
3432.29
3432.39
3432.51
3432.65
3432.8
3432.94
3433.07
3431.56
3431.69
3431.82
3431.95
3432.06
3432.16
3432.26
3432.38
3432.51
3432.66
3432.8
3432.93
3431.43
3431.55
3431.69
3431.82
3431.93
3432.03
3432.13
3432.24
3432.38
3432.52
3432.66
3432.79
3431.29
3431.42
3431.56
3431.69
3431.8
3431.9
3432
3432.11
3432.24
3432.38
3432.52
3432.64
3431.16
3431.29
3431.43
3431.55
3431.66
3431.77
3431.86
3431.98
3432.11
3432.24
3432.38
3432.5
3431.03
3431.16
3431.29
3431.42
3431.53
3431.63
3431.73
3431.84
3431.97
3432.1
3432.24
3432.36
3430.9
3431.03
3431.16
3431.29
3431.4
3431.5
3431.6
3431.71
3431.83
3431.97
3432.1
3432.21
3430.76
3430.9
3431.03
3431.16
3431.27
3431.37
3431.47
3431.58
3431.7
3431.83
3431.96
3432.07
3430.63
3430.77
3430.91
3431.03
3431.14
3431.24
3431.34
3431.44
3431.56
3431.69
3431.82
3431.93
3430.51
3430.64
3430.78
3430.91
3431.02
3431.12
3431.21
3431.31
3431.43
3431.56
3431.68
3431.79
3430.38
3430.51
3430.65
3430.78
3430.89
3430.99
3431.08
3431.19
3431.3
3431.42
3431.55
3431.66
3430.26
3430.39
3430.53
3430.66
3430.77
3430.87
3430.96
3431.06
3431.17
3431.29
3431.41
3431.52
3430.13
3430.27
3430.41
3430.54
3430.65
3430.75
3430.84
3430.94
3431.05
3431.17
3431.28
3431.39
3430.02
3430.15
3430.3
3430.42
3430.53
3430.63
3430.72
3430.82
3430.93
3431.04
3431.16
3431.26
3429.9
3430.04
3430.18
3430.31
3430.42
3430.51
3430.6
3430.7
3430.81
3430.92
3431.03
3431.14
3429.79
3429.93
3430.07
3430.2
3430.31
3430.4
3430.49
3430.59
3430.69
3430.8
3430.91
3431.02
3429.68
3429.82
3429.97
3430.1
3430.2
3430.3
3430.38
3430.48
3430.58
3430.69
3430.8
3430.9
3429.58
3429.72
3429.87
3430
3430.1
3430.2
3430.28
3430.37
3430.47
3430.58
3430.69
3430.79
3429.49
3429.63
3429.77
3429.9
3430.01
3430.1
3430.19
3430.27
3430.37
3430.48
3430.58
3430.68
3429.4
3429.54
3429.69
3429.81
3429.92
3430.01
3430.1
3430.18
3430.28
3430.38
3430.49
3430.59
3429.32
3429.46
3429.61
3429.73
3429.84
3429.93
3430.01
3430.1
3430.2
3430.3
3430.4
3430.5
3429.25
3429.39
3429.54
3429.66
3429.77
3429.86
3429.94
3430.03
3430.12
3430.22
3430.32
3430.42
3429.19
3429.34
3429.48
3429.61
3429.71
3429.8
3429.88
3429.96
3430.06
3430.15
3430.25
3430.35
3429.15
3429.29
3429.43
3429.56
3429.67
3429.75
3429.83
3429.91
3430
3430.1
3430.2
3430.29
3429.12
3429.26
3429.4
3429.53
3429.63
3429.72
3429.8
3429.88
3429.97
3430.06
3430.16
3430.26
3429.11
3429.25
3429.39
3429.52
3429.62
3429.71
3429.79
3429.87
3429.95
3430.05
3430.14
3430.24
3429.13
3429.26
3429.4
3429.53
3429.63
3429.72
3429.79
3429.87
3429.96
3430.05
3430.15
3430.24
3429.16
3429.3
3429.44
3429.56
3429.66
3429.75
3429.83
3429.9
3429.99
3430.08
3430.18
3430.27
3429.22
3429.36
3429.5
3429.62
3429.72
3429.81
3429.88
3429.96
3430.04
3430.13
3430.23
3430.32
3429.31
3429.44
3429.58
3429.7
3429.8
3429.89
3429.96
3430.04
3430.12
3430.21
3430.31
3430.41
3429.41
3429.55
3429.68
3429.8
3429.91
3429.99
3430.06
3430.14
3430.22
3430.32
3430.41
3430.51
3429.53
3429.67
3429.8
3429.92
3430.02
3430.1
3430.18
3430.26
3430.34
3430.43
3430.53
3430.63
3429.66
3429.79
3429.92
3430.04
3430.14
3430.22
3430.3
3430.37
3430.46
3430.55
3430.65
3430.75
3429.77
3429.9
3430.03
3430.15
3430.25
3430.33
3430.41
3430.48
3430.57
3430.67
3430.77
3430.87
3824.88
3825.03
3825.21
3825.39
3825.56
3825.73
3825.92
3826.14
3826.41
3826.71
3827.02
3827.29
3820.91
3821.06
3821.24
3821.42
3821.59
3821.76
3821.94
3822.16
3822.42
3822.72
3823.02
3823.28
3814.78
3814.93
3815.1
3815.28
3815.44
3815.6
3815.78
3815.99
3816.25
3816.53
3816.82
3817.07
3810.81
3810.96
3811.13
3811.3
3811.45
3811.62
3811.79
3811.99
3812.24
3812.52
3812.81
3813.05
3809.77
3809.91
3810.09
3810.25
3810.41
3810.57
3810.74
3810.95
3811.2
3811.47
3811.75
3811.99
3809.82
3809.96
3810.13
3810.3
3810.45
3810.61
3810.78
3810.99
3811.24
3811.51
3811.8
3812.03
3809.86
3810
3810.17
3810.34
3810.49
3810.65
3810.82
3811.03
3811.28
3811.55
3811.83
3812.07
3809.89
3810.03
3810.2
3810.37
3810.52
3810.68
3810.85
3811.06
3811.31
3811.58
3811.86
3812.1
3809.91
3810.05
3810.22
3810.39
3810.55
3810.71
3810.88
3811.08
3811.33
3811.6
3811.89
3812.12
3809.93
3810.07
3810.24
3810.41
3810.57
3810.73
3810.89
3811.1
3811.35
3811.62
3811.9
3812.14
3809.94
3810.08
3810.25
3810.42
3810.58
3810.74
3810.91
3811.11
3811.36
3811.63
3811.91
3812.15
3809.94
3810.08
3810.26
3810.43
3810.58
3810.74
3810.91
3811.12
3811.36
3811.63
3811.91
3812.15
3809.94
3810.08
3810.25
3810.42
3810.58
3810.74
3810.91
3811.11
3811.36
3811.63
3811.91
3812.14
3809.93
3810.07
3810.25
3810.42
3810.57
3810.73
3810.9
3811.1
3811.35
3811.62
3811.9
3812.13
3809.92
3810.06
3810.23
3810.4
3810.56
3810.72
3810.89
3811.09
3811.33
3811.6
3811.88
3812.11
3809.9
3810.04
3810.21
3810.38
3810.54
3810.7
3810.86
3811.07
3811.31
3811.58
3811.85
3812.09
3809.87
3810.01
3810.19
3810.36
3810.51
3810.67
3810.84
3811.04
3811.28
3811.55
3811.82
3812.06
3809.84
3809.98
3810.15
3810.32
3810.48
3810.64
3810.81
3811.01
3811.25
3811.52
3811.79
3812.02
3809.8
3809.95
3810.12
3810.29
3810.44
3810.6
3810.77
3810.97
3811.21
3811.48
3811.75
3811.98
3809.76
3809.9
3810.07
3810.24
3810.4
3810.56
3810.73
3810.93
3811.17
3811.43
3811.7
3811.93
3809.71
3809.85
3810.03
3810.2
3810.35
3810.51
3810.68
3810.88
3811.12
3811.38
3811.65
3811.88
3809.66
3809.8
3809.97
3810.14
3810.3
3810.46
3810.62
3810.82
3811.06
3811.32
3811.59
3811.82
3809.6
3809.74
3809.91
3810.08
3810.24
3810.4
3810.56
3810.76
3811
3811.26
3811.52
3811.75
3809.53
3809.68
3809.85
3810.02
3810.18
3810.34
3810.5
3810.7
3810.93
3811.19
3811.45
3811.68
3809.46
3809.61
3809.78
3809.95
3810.11
3810.27
3810.43
3810.63
3810.86
3811.12
3811.38
3811.6
3809.39
3809.53
3809.71
3809.88
3810.03
3810.19
3810.36
3810.55
3810.78
3811.04
3811.3
3811.52
3809.31
3809.46
3809.63
3809.8
3809.96
3810.11
3810.28
3810.47
3810.7
3810.95
3811.21
3811.43
3809.22
3809.37
3809.54
3809.72
3809.87
3810.03
3810.19
3810.39
3810.62
3810.87
3811.12
3811.34
3809.14
3809.28
3809.46
3809.63
3809.78
3809.94
3810.1
3810.3
3810.52
3810.77
3811.02
3811.25
3809.04
3809.19
3809.36
3809.53
3809.69
3809.85
3810.01
3810.2
3810.43
3810.67
3810.92
3811.14
3808.95
3809.09
3809.27
3809.44
3809.6
3809.75
3809.91
3810.1
3810.33
3810.57
3810.82
3811.04
3808.84
3808.99
3809.17
3809.34
3809.5
3809.65
3809.81
3810
3810.22
3810.47
3810.71
3810.93
3808.74
3808.89
3809.06
3809.23
3809.39
3809.55
3809.71
3809.89
3810.11
3810.35
3810.6
3810.81
3808.63
3808.78
3808.95
3809.13
3809.28
3809.44
3809.6
3809.78
3810
3810.24
3810.48
3810.69
3808.52
3808.67
3808.84
3809.01
3809.17
3809.33
3809.49
3809.67
3809.89
3810.12
3810.36
3810.57
3808.4
3808.55
3808.73
3808.9
3809.06
3809.21
3809.37
3809.55
3809.77
3810
3810.24
3810.45
3808.28
3808.44
3808.61
3808.78
3808.94
3809.09
3809.25
3809.43
3809.65
3809.88
3810.11
3810.32
3808.16
3808.32
3808.49
3808.66
3808.82
3808.97
3809.13
3809.31
3809.52
3809.75
3809.98
3810.18
3808.04
3808.19
3808.37
3808.54
3808.7
3808.85
3809
3809.18
3809.39
3809.62
3809.84
3810.05
3807.91
3808.07
3808.24
3808.41
3808.57
3808.72
3808.88
3809.06
3809.26
3809.48
3809.71
3809.91
3807.78
3807.94
3808.11
3808.29
3808.44
3808.59
3808.75
3808.92
3809.13
3809.35
3809.57
3809.77
3807.65
3807.81
3807.98
3808.16
3808.31
3808.46
3808.62
3808.79
3808.99
3809.21
3809.43
3809.63
3807.52
3807.68
3807.85
3808.02
3808.18
3808.33
3808.48
3808.66
3808.86
3809.07
3809.28
3809.48
3807.38
3807.54
3807.72
3807.89
3808.05
3808.2
3808.35
3808.52
3808.72
3808.93
3809.14
3809.33
3807.25
3807.41
3807.58
3807.76
3807.91
3808.06
3808.21
3808.38
3808.58
3808.79
3808.99
3809.19
3807.11
3807.27
3807.45
3807.62
3807.78
3807.93
3808.08
3808.24
3808.44
3808.64
3808.85
3809.04
3806.97
3807.14
3807.31
3807.49
3807.64
3807.79
3807.94
3808.1
3808.29
3808.5
3808.7
3808.89
3806.84
3807
3807.18
3807.35
3807.5
3807.65
3807.8
3807.96
3808.15
3808.35
3808.55
3808.74
3806.7
3806.86
3807.04
3807.21
3807.37
3807.51
3807.66
3807.82
3808.01
3808.2
3808.4
3808.58
3806.56
3806.73
3806.9
3807.08
3807.23
3807.38
3807.52
3807.68
3807.86
3808.06
3808.25
3808.43
3806.43
3806.59
3806.77
3806.94
3807.1
3807.24
3807.38
3807.54
3807.72
3807.91
3808.1
3808.28
3806.29
3806.46
3806.63
3806.81
3806.96
3807.11
3807.25
3807.4
3807.58
3807.77
3807.96
3808.13
3806.16
3806.32
3806.5
3806.67
3806.83
3806.97
3807.11
3807.27
3807.44
3807.63
3807.81
3807.99
3806.02
3806.19
3806.37
3806.54
3806.7
3806.84
3806.98
3807.13
3807.3
3807.49
3807.67
3807.84
3805.89
3806.06
3806.24
3806.41
3806.57
3806.71
3806.85
3807
3807.17
3807.34
3807.52
3807.69
3805.77
3805.93
3806.11
3806.29
3806.44
3806.58
3806.72
3806.86
3807.03
3807.21
3807.38
3807.55
3805.64
3805.81
3805.99
3806.16
3806.31
3806.45
3806.59
3806.73
3806.9
3807.07
3807.24
3807.41
3805.52
3805.68
3805.87
3806.04
3806.19
3806.33
3806.46
3806.61
3806.77
3806.94
3807.11
3807.27
3805.4
3805.56
3805.75
3805.92
3806.07
3806.21
3806.34
3806.48
3806.64
3806.81
3806.98
3807.14
3805.28
3805.45
3805.63
3805.8
3805.95
3806.09
3806.22
3806.36
3806.52
3806.68
3806.85
3807
3805.17
3805.34
3805.52
3805.69
3805.84
3805.97
3806.11
3806.24
3806.4
3806.56
3806.72
3806.88
3805.06
3805.23
3805.41
3805.58
3805.73
3805.87
3806
3806.13
3806.28
3806.44
3806.6
3806.76
3804.96
3805.13
3805.31
3805.48
3805.63
3805.76
3805.89
3806.02
3806.17
3806.33
3806.49
3806.64
3804.86
3805.03
3805.22
3805.38
3805.53
3805.66
3805.79
3805.92
3806.07
3806.22
3806.38
3806.53
3804.78
3804.95
3805.13
3805.3
3805.44
3805.57
3805.7
3805.83
3805.97
3806.12
3806.28
3806.43
3804.7
3804.87
3805.05
3805.22
3805.36
3805.49
3805.62
3805.74
3805.89
3806.03
3806.19
3806.33
3804.63
3804.8
3804.98
3805.14
3805.29
3805.42
3805.54
3805.67
3805.81
3805.95
3806.1
3806.25
3804.57
3804.74
3804.92
3805.09
3805.23
3805.36
3805.48
3805.6
3805.74
3805.89
3806.03
3806.18
3804.53
3804.7
3804.87
3805.04
3805.18
3805.31
3805.43
3805.55
3805.69
3805.83
3805.98
3806.12
3804.5
3804.67
3804.85
3805.01
3805.15
3805.28
3805.4
3805.52
3805.65
3805.79
3805.94
3806.08
3804.5
3804.66
3804.84
3805
3805.14
3805.27
3805.38
3805.5
3805.64
3805.78
3805.92
3806.06
3804.51
3804.68
3804.85
3805.01
3805.15
3805.28
3805.39
3805.51
3805.64
3805.78
3805.93
3806.07
3804.55
3804.72
3804.89
3805.05
3805.19
3805.31
3805.43
3805.55
3805.68
3805.82
3805.96
3806.1
3804.62
3804.78
3804.95
3805.11
3805.25
3805.37
3805.49
3805.61
3805.74
3805.88
3806.02
3806.16
3804.72
3804.88
3805.04
3805.2
3805.34
3805.46
3805.58
3805.69
3805.82
3805.96
3806.11
3806.25
3804.83
3804.99
3805.15
3805.31
3805.45
3805.57
3805.68
3805.8
3805.93
3806.07
3806.22
3806.36
3804.96
3805.11
3805.28
3805.43
3805.57
3805.69
3805.81
3805.93
3806.06
3806.2
3806.35
3806.49
3805.08
3805.24
3805.4
3805.56
3805.69
3805.81
3805.93
3806.05
3806.18
3806.32
3806.47
3806.62
3805.19
3805.35
3805.51
3805.66
3805.8
3805.92
3806.04
3806.16
3806.29
3806.44
3806.59
3806.75
4224.44
4224.58
4224.77
4224.96
4225.16
4225.35
4225.54
4225.75
4225.98
4226.22
4226.44
4226.62
4220.14
4220.28
4220.46
4220.66
4220.85
4221.03
4221.22
4221.43
4221.65
4221.88
4222.1
4222.27
4213.49
4213.63
4213.8
4213.99
4214.17
4214.36
4214.54
4214.74
4214.95
4215.17
4215.38
4215.55
4209.19
4209.32
4209.49
4209.68
4209.85
4210.03
4210.21
4210.4
4210.61
4210.83
4211.03
4211.19
4208.06
4208.19
4208.36
4208.54
4208.72
4208.9
4209.07
4209.27
4209.47
4209.69
4209.89
4210.05
4208.1
4208.23
4208.4
4208.59
4208.77
4208.94
4209.12
4209.31
4209.52
4209.73
4209.93
4210.09
4208.14
4208.27
4208.45
4208.63
4208.81
4208.99
4209.16
4209.35
4209.56
4209.77
4209.97
4210.13
4208.17
4208.31
4208.48
4208.66
4208.84
4209.02
4209.19
4209.38
4209.59
4209.8
4210.01
4210.16
4208.2
4208.33
4208.5
4208.69
4208.87
4209.04
4209.22
4209.41
4209.62
4209.83
4210.03
4210.19
4208.22
4208.35
4208.52
4208.71
4208.88
4209.06
4209.24
4209.43
4209.63
4209.84
4210.04
4210.2
4208.23
4208.36
4208.53
4208.71
4208.89
4209.07
4209.24
4209.44
4209.64
4209.85
4210.05
4210.21
4208.23
4208.36
4208.53
4208.72
4208.9
4209.07
4209.25
4209.44
4209.64
4209.85
4210.05
4210.21
4208.22
4208.36
4208.53
4208.71
4208.89
4209.07
4209.24
4209.43
4209.64
4209.85
4210.04
4210.2
4208.21
4208.35
4208.52
4208.7
4208.88
4209.06
4209.23
4209.42
4209.62
4209.83
4210.03
4210.19
4208.19
4208.33
4208.5
4208.68
4208.86
4209.04
4209.21
4209.4
4209.6
4209.81
4210.01
4210.17
4208.17
4208.3
4208.48
4208.66
4208.84
4209.01
4209.19
4209.37
4209.58
4209.79
4209.98
4210.14
4208.14
4208.27
4208.44
4208.63
4208.81
4208.98
4209.16
4209.34
4209.54
4209.75
4209.95
4210.1
4208.1
4208.23
4208.41
4208.59
4208.77
4208.94
4209.12
4209.3
4209.51
4209.71
4209.91
4210.06
4208.06
4208.19
4208.36
4208.55
4208.73
4208.9
4209.07
4209.26
4209.46
4209.66
4209.86
4210.01
4208
4208.14
4208.31
4208.5
4208.68
4208.85
4209.02
4209.21
4209.41
4209.61
4209.8
4209.96
4207.95
4208.08
4208.26
4208.44
4208.62
4208.79
4208.96
4209.15
4209.35
4209.55
4209.74
4209.9
4207.89
4208.02
4208.19
4208.38
4208.56
4208.73
4208.9
4209.09
4209.28
4209.49
4209.67
4209.83
4207.82
4207.95
4208.13
4208.31
4208.49
4208.66
4208.83
4209.02
4209.21
4209.41
4209.6
4209.75
4207.74
4207.88
4208.05
4208.24
4208.41
4208.59
4208.76
4208.94
4209.14
4209.34
4209.52
4209.67
4207.66
4207.8
4207.97
4208.16
4208.34
4208.51
4208.68
4208.86
4209.05
4209.25
4209.44
4209.59
4207.58
4207.72
4207.89
4208.07
4208.25
4208.42
4208.59
4208.77
4208.97
4209.16
4209.35
4209.5
4207.49
4207.63
4207.8
4207.98
4208.16
4208.33
4208.5
4208.68
4208.87
4209.07
4209.25
4209.4
4207.39
4207.53
4207.7
4207.89
4208.06
4208.24
4208.4
4208.58
4208.77
4208.97
4209.15
4209.3
4207.29
4207.43
4207.6
4207.79
4207.96
4208.14
4208.3
4208.48
4208.67
4208.86
4209.04
4209.19
4207.18
4207.32
4207.5
4207.68
4207.86
4208.03
4208.2
4208.37
4208.56
4208.75
4208.93
4209.07
4207.07
4207.21
4207.39
4207.57
4207.75
4207.92
4208.08
4208.26
4208.45
4208.63
4208.81
4208.96
4206.96
4207.1
4207.27
4207.46
4207.63
4207.8
4207.97
4208.14
4208.33
4208.51
4208.69
4208.83
4206.84
4206.98
4207.15
4207.34
4207.52
4207.68
4207.85
4208.02
4208.2
4208.39
4208.56
4208.71
4206.71
4206.86
4207.03
4207.22
4207.39
4207.56
4207.72
4207.89
4208.08
4208.26
4208.43
4208.57
4206.58
4206.73
4206.91
4207.09
4207.27
4207.43
4207.59
4207.76
4207.94
4208.13
4208.29
4208.44
4206.45
4206.6
4206.78
4206.96
4207.13
4207.3
4207.46
4207.63
4207.81
4207.99
4208.16
4208.3
4206.32
4206.47
4206.64
4206.83
4207
4207.17
4207.33
4207.49
4207.67
4207.85
4208.01
4208.15
4206.18
4206.33
4206.5
4206.69
4206.86
4207.03
4207.19
4207.35
4207.53
4207.7
4207.87
4208
4206.04
4206.19
4206.36
4206.55
4206.72
4206.89
4207.05
4207.21
4207.38
4207.56
4207.72
4207.85
4205.89
4206.04
4206.22
4206.41
4206.58
4206.74
4206.9
4207.06
4207.23
4207.4
4207.56
4207.7
4205.75
4205.9
4206.08
4206.26
4206.43
4206.6
4206.75
4206.91
4207.08
4207.25
4207.41
4207.54
4205.6
4205.75
4205.93
4206.11
4206.29
4206.45
4206.6
4206.76
4206.93
4207.1
4207.25
4207.38
4205.45
4205.6
4205.78
4205.97
4206.14
4206.3
4206.45
4206.61
4206.77
4206.94
4207.09
4207.22
4205.3
4205.45
4205.63
4205.82
4205.99
4206.15
4206.3
4206.45
4206.62
4206.78
4206.93
4207.06
4205.14
4205.3
4205.48
4205.66
4205.83
4205.99
4206.14
4206.3
4206.46
4206.62
4206.77
4206.9
4204.99
4205.15
4205.33
4205.51
4205.68
4205.84
4205.99
4206.14
4206.3
4206.46
4206.6
4206.73
4204.83
4204.99
4205.17
4205.36
4205.53
4205.68
4205.83
4205.98
4206.14
4206.29
4206.44
4206.56
4204.68
4204.84
4205.02
4205.2
4205.37
4205.53
4205.68
4205.82
4205.98
4206.13
4206.27
4206.4
4204.52
4204.68
4204.86
4205.05
4205.22
4205.37
4205.52
4205.66
4205.82
4205.97
4206.11
4206.23
4204.37
4204.53
4204.71
4204.89
4205.06
4205.22
4205.36
4205.51
4205.65
4205.8
4205.94
4206.06
4204.21
4204.38
4204.56
4204.74
4204.91
4205.06
4205.21
4205.35
4205.49
4205.64
4205.77
4205.89
4204.06
4204.22
4204.41
4204.59
4204.76
4204.91
4205.05
4205.19
4205.33
4205.48
4205.61
4205.73
4203.91
4204.07
4204.26
4204.44
4204.61
4204.76
4204.9
4205.03
4205.18
4205.32
4205.45
4205.56
4203.76
4203.92
4204.11
4204.29
4204.46
4204.61
4204.74
4204.88
4205.02
4205.16
4205.29
4205.4
4203.61
4203.78
4203.96
4204.14
4204.31
4204.46
4204.59
4204.73
4204.86
4205
4205.13
4205.24
4203.47
4203.63
4203.82
4204
4204.16
4204.31
4204.45
4204.58
4204.71
4204.85
4204.97
4205.08
4203.32
4203.49
4203.68
4203.86
4204.02
4204.17
4204.3
4204.43
4204.56
4204.69
4204.82
4204.93
4203.19
4203.35
4203.54
4203.72
4203.88
4204.03
4204.16
4204.29
4204.42
4204.54
4204.67
4204.77
4203.05
4203.22
4203.4
4203.58
4203.75
4203.89
4204.02
4204.15
4204.27
4204.4
4204.52
4204.63
4202.92
4203.09
4203.27
4203.45
4203.61
4203.76
4203.89
4204.01
4204.13
4204.26
4204.37
4204.48
4202.79
4202.96
4203.15
4203.33
4203.49
4203.63
4203.76
4203.88
4204
4204.12
4204.24
4204.34
4202.67
4202.84
4203.03
4203.21
4203.37
4203.51
4203.63
4203.75
4203.87
4203.99
4204.1
4204.21
4202.56
4202.73
4202.92
4203.09
4203.25
4203.39
4203.51
4203.63
4203.75
4203.86
4203.98
4204.08
4202.45
4202.62
4202.81
4202.99
4203.14
4203.28
4203.4
4203.51
4203.63
4203.74
4203.86
4203.96
4202.35
4202.52
4202.71
4202.89
4203.04
4203.18
4203.3
4203.41
4203.52
4203.63
4203.74
4203.85
4202.27
4202.44
4202.62
4202.79
4202.95
4203.08
4203.2
4203.31
4203.42
4203.53
4203.64
4203.74
4202.19
4202.36
4202.54
4202.71
4202.87
4203
4203.12
4203.22
4203.34
4203.44
4203.55
4203.65
4202.12
4202.29
4202.47
4202.65
4202.8
4202.93
4203.04
4203.15
4203.26
4203.37
4203.47
4203.57
4202.07
4202.24
4202.42
4202.59
4202.74
4202.87
4202.99
4203.09
4203.2
4203.3
4203.41
4203.51
4202.04
4202.21
4202.39
4202.56
4202.71
4202.83
4202.95
4203.05
4203.16
4203.26
4203.37
4203.47
4202.03
4202.19
4202.37
4202.54
4202.69
4202.82
4202.93
4203.03
4203.14
4203.24
4203.34
4203.45
4202.04
4202.21
4202.38
4202.55
4202.7
4202.83
4202.94
4203.04
4203.14
4203.24
4203.35
4203.45
4202.08
4202.25
4202.42
4202.59
4202.74
4202.86
4202.97
4203.07
4203.17
4203.28
4203.38
4203.48
4202.16
4202.32
4202.49
4202.66
4202.8
4202.92
4203.03
4203.13
4203.24
4203.34
4203.45
4203.55
4202.26
4202.42
4202.59
4202.75
4202.89
4203.02
4203.12
4203.22
4203.33
4203.43
4203.54
4203.65
4202.38
4202.54
4202.71
4202.87
4203.01
4203.13
4203.24
4203.34
4203.45
4203.55
4203.66
4203.77
4202.52
4202.67
4202.84
4203
4203.14
4203.26
4203.37
4203.47
4203.58
4203.69
4203.8
4203.91
4202.65
4202.81
4202.98
4203.14
4203.28
4203.4
4203.51
4203.61
4203.71
4203.82
4203.94
4204.06
4202.77
4202.93
4203.09
4203.25
4203.39
4203.52
4203.62
4203.73
4203.83
4203.95
4204.07
4204.19
4645.8
4645.92
4646.09
4646.28
4646.46
4646.65
4646.81
4646.97
4647.12
4647.26
4647.37
4647.42
4641.1
4641.22
4641.39
4641.57
4641.75
4641.93
4642.09
4642.25
4642.4
4642.53
4642.63
4642.69
4633.83
4633.95
4634.11
4634.29
4634.47
4634.64
4634.79
4634.94
4635.09
4635.21
4635.31
4635.36
4629.13
4629.24
4629.4
4629.58
4629.75
4629.92
4630.07
4630.21
4630.35
4630.47
4630.57
4630.61
4627.89
4628.01
4628.17
4628.34
4628.51
4628.68
4628.83
4628.97
4629.11
4629.23
4629.33
4629.37
4627.94
4628.06
4628.21
4628.39
4628.56
4628.73
4628.87
4629.02
4629.16
4629.28
4629.37
4629.41
4627.98
4628.1
4628.26
4628.43
4628.6
4628.77
4628.92
4629.06
4629.2
4629.32
4629.41
4629.46
4628.02
4628.13
4628.29
4628.47
4628.64
4628.8
4628.95
4629.1
4629.23
4629.35
4629.45
4629.49
4628.04
4628.16
4628.32
4628.49
4628.66
4628.83
4628.98
4629.12
4629.26
4629.38
4629.47
4629.51
4628.06
4628.18
4628.34
4628.51
4628.68
4628.85
4628.99
4629.14
4629.27
4629.39
4629.49
4629.53
4628.07
4628.19
4628.34
4628.52
4628.69
4628.86
4629
4629.15
4629.28
4629.4
4629.49
4629.53
4628.07
4628.19
4628.34
4628.52
4628.69
4628.86
4629
4629.15
4629.28
4629.4
4629.49
4629.53
4628.06
4628.18
4628.34
4628.51
4628.68
4628.85
4629
4629.14
4629.27
4629.39
4629.48
4629.52
4628.05
4628.16
4628.32
4628.5
4628.67
4628.83
4628.98
4629.12
4629.26
4629.37
4629.46
4629.51
4628.03
4628.14
4628.3
4628.48
4628.65
4628.81
4628.96
4629.1
4629.23
4629.35
4629.44
4629.48
4628
4628.11
4628.27
4628.45
4628.62
4628.78
4628.93
4629.07
4629.2
4629.32
4629.41
4629.45
4627.96
4628.08
4628.23
4628.41
4628.58
4628.74
4628.89
4629.03
4629.16
4629.28
4629.37
4629.41
4627.91
4628.03
4628.19
4628.37
4628.54
4628.7
4628.84
4628.99
4629.12
4629.23
4629.32
4629.36
4627.86
4627.98
4628.14
4628.31
4628.48
4628.65
4628.79
4628.93
4629.06
4629.18
4629.26
4629.3
4627.8
4627.92
4628.08
4628.26
4628.43
4628.59
4628.73
4628.87
4629
4629.11
4629.2
4629.24
4627.74
4627.86
4628.02
4628.19
4628.36
4628.52
4628.67
4628.81
4628.93
4629.05
4629.13
4629.17
4627.67
4627.79
4627.94
4628.12
4628.29
4628.45
4628.59
4628.73
4628.86
4628.97
4629.05
4629.1
4627.59
4627.71
4627.87
4628.04
4628.21
4628.37
4628.52
4628.65
4628.78
4628.89
4628.97
4629.01
4627.5
4627.62
4627.78
4627.96
4628.13
4628.29
4628.43
4628.56
4628.69
4628.8
4628.88
4628.92
4627.41
4627.53
4627.69
4627.87
4628.03
4628.2
4628.34
4628.47
4628.6
4628.7
4628.78
4628.82
4627.31
4627.43
4627.59
4627.77
4627.94
4628.1
4628.24
4628.37
4628.5
4628.6
4628.68
4628.72
4627.21
4627.33
4627.49
4627.67
4627.83
4627.99
4628.13
4628.27
4628.39
4628.49
4628.57
4628.61
4627.1
4627.22
4627.38
4627.56
4627.72
4627.88
4628.02
4628.15
4628.28
4628.38
4628.46
4628.5
4626.98
4627.11
4627.27
4627.44
4627.61
4627.77
4627.91
4628.04
4628.16
4628.26
4628.34
4628.37
4626.86
4626.99
4627.15
4627.32
4627.49
4627.65
4627.78
4627.91
4628.03
4628.13
4628.21
4628.25
4626.73
4626.86
4627.02
4627.2
4627.36
4627.52
4627.66
4627.78
4627.9
4628
4628.08
4628.11
4626.6
4626.73
4626.89
4627.06
4627.23
4627.39
4627.52
4627.65
4627.77
4627.86
4627.94
4627.97
4626.46
4626.59
4626.75
4626.93
4627.1
4627.25
4627.39
4627.51
4627.63
4627.72
4627.79
4627.83
4626.32
4626.45
4626.61
4626.79
4626.95
4627.11
4627.24
4627.37
4627.48
4627.57
4627.65
4627.68
4626.18
4626.31
4626.47
4626.64
4626.81
4626.96
4627.1
4627.22
4627.33
4627.42
4627.49
4627.53
4626.02
4626.16
4626.32
4626.49
4626.66
4626.81
4626.94
4627.07
4627.18
4627.27
4627.34
4627.37
4625.87
4626
4626.17
4626.34
4626.51
4626.66
4626.79
4626.91
4627.02
4627.11
4627.17
4627.21
4625.71
4625.85
4626.01
4626.19
4626.35
4626.5
4626.63
4626.75
4626.86
4626.94
4627.01
4627.04
4625.55
4625.69
4625.85
4626.03
4626.19
4626.34
4626.47
4626.58
4626.69
4626.78
4626.84
4626.87
4625.39
4625.52
4625.69
4625.86
4626.02
4626.17
4626.3
4626.42
4626.52
4626.61
4626.67
4626.7
4625.22
4625.36
4625.52
4625.7
4625.86
4626.01
4626.13
4626.25
4626.35
4626.43
4626.49
4626.52
4625.05
4625.19
4625.35
4625.53
4625.69
4625.84
4625.96
4626.07
4626.17
4626.25
4626.31
4626.35
4624.87
4625.02
4625.18
4625.36
4625.52
4625.66
4625.79
4625.9
4626
4626.08
4626.13
4626.16
4624.7
4624.84
4625.01
4625.18
4625.34
4625.49
4625.61
4625.72
4625.82
4625.89
4625.95
4625.98
4624.52
4624.67
4624.83
4625.01
4625.17
4625.31
4625.43
4625.54
4625.63
4625.71
4625.76
4625.79
4624.35
4624.49
4624.66
4624.83
4624.99
4625.13
4625.25
4625.36
4625.45
4625.53
4625.58
4625.61
4624.17
4624.31
4624.48
4624.66
4624.81
4624.96
4625.07
4625.18
4625.27
4625.34
4625.39
4625.42
4623.99
4624.14
4624.3
4624.48
4624.64
4624.78
4624.89
4624.99
4625.08
4625.15
4625.2
4625.23
4623.81
4623.96
4624.13
4624.3
4624.46
4624.6
4624.71
4624.81
4624.9
4624.97
4625.02
4625.04
4623.63
4623.78
4623.95
4624.13
4624.28
4624.42
4624.53
4624.63
4624.71
4624.78
4624.83
4624.85
4623.45
4623.61
4623.78
4623.95
4624.1
4624.24
4624.35
4624.45
4624.53
4624.6
4624.64
4624.67
4623.28
4623.43
4623.6
4623.77
4623.93
4624.06
4624.17
4624.27
4624.35
4624.41
4624.45
4624.48
4623.1
4623.26
4623.43
4623.6
4623.75
4623.89
4624
4624.09
4624.17
4624.23
4624.27
4624.29
4622.93
4623.08
4623.26
4623.43
4623.58
4623.71
4623.82
4623.91
4623.99
4624.05
4624.09
4624.11
4622.76
4622.92
4623.09
4623.26
4623.41
4623.54
4623.65
4623.73
4623.81
4623.87
4623.91
4623.93
4622.59
4622.75
4622.92
4623.09
4623.24
4623.37
4623.48
4623.56
4623.63
4623.69
4623.73
4623.75
4622.43
4622.58
4622.76
4622.93
4623.08
4623.21
4623.31
4623.39
4623.46
4623.51
4623.55
4623.57
4622.26
4622.42
4622.6
4622.77
4622.92
4623.04
4623.14
4623.22
4623.29
4623.34
4623.38
4623.4
4622.11
4622.27
4622.44
4622.61
4622.76
4622.88
4622.98
4623.06
4623.13
4623.17
4623.21
4623.23
4621.95
4622.11
4622.29
4622.46
4622.6
4622.73
4622.82
4622.9
4622.97
4623.01
4623.05
4623.07
4621.81
4621.97
4622.14
4622.31
4622.46
4622.58
4622.67
4622.75
4622.81
4622.85
4622.89
4622.91
4621.67
4621.83
4622
4622.17
4622.32
4622.43
4622.53
4622.6
4622.66
4622.7
4622.74
4622.76
4621.53
4621.69
4621.87
4622.04
4622.18
4622.3
4622.39
4622.46
4622.52
4622.56
4622.59
4622.61
4621.41
4621.57
4621.74
4621.91
4622.05
4622.17
4622.26
4622.33
4622.38
4622.42
4622.45
4622.47
4621.29
4621.45
4621.63
4621.79
4621.93
4622.05
4622.14
4622.2
4622.26
4622.3
4622.33
4622.35
4621.19
4621.35
4621.52
4621.69
4621.83
4621.94
4622.03
4622.09
4622.14
4622.18
4622.21
4622.23
4621.09
4621.25
4621.43
4621.59
4621.73
4621.84
4621.93
4621.99
4622.04
4622.07
4622.1
4622.13
4621.01
4621.18
4621.35
4621.51
4621.65
4621.76
4621.84
4621.9
4621.95
4621.99
4622.01
4622.04
4620.95
4621.11
4621.28
4621.45
4621.58
4621.69
4621.77
4621.83
4621.88
4621.91
4621.94
4621.96
4620.91
4621.07
4621.24
4621.4
4621.54
4621.64
4621.72
4621.78
4621.83
4621.86
4621.89
4621.91
4620.89
4621.05
4621.22
4621.38
4621.52
4621.62
4621.7
4621.76
4621.8
4621.83
4621.86
4621.89