0 	0 	0 	0
0 	-1.25784e-35 	-1.5127e-36 	1.85687e-31
5.01672e-05 	-1.10862e-06 	-1.88544e-07 	0.0173218
5.01672e-05 	-1.10862e-06 	-1.88544e-07 	0.0173218
0.000100334 	-1.67254e-06 	-7.87351e-07 	0.0333215
0.000150502 	-2.17069e-06 	-1.824e-06 	0.0481638
0.000150502 	-2.17069e-06 	-1.824e-06 	0.0481638
0.000200669 	-2.73181e-06 	-3.30109e-06 	0.0619337
0.000200669 	-2.73181e-06 	-3.30109e-06 	0.0619337
0.000250836 	-3.30106e-06 	-5.19613e-06 	0.0747117
0.000301003 	-3.83469e-06 	-7.49888e-06 	0.0865662
0.000301003 	-3.83469e-06 	-7.49888e-06 	0.0865662
0.000351171 	-4.31822e-06 	-1.02031e-05 	0.0975428
0.000401338 	-4.74745e-06 	-1.33161e-05 	0.107664
0.000451505 	-5.12199e-06 	-1.68626e-05 	0.116947
0.000451505 	-5.12199e-06 	-1.68626e-05 	0.116947
0.000501672 	-5.44308e-06 	-2.08804e-05 	0.125417
0.000551839 	-5.71299e-06 	-2.54093e-05 	0.133119
0.000551839 	-5.71299e-06 	-2.54093e-05 	0.133119
0.000602007 	-5.93469e-06 	-3.04808e-05 	0.140115
0.000602007 	-5.93469e-06 	-3.04808e-05 	0.140115
0.000652174 	-6.11162e-06 	-3.61167e-05 	0.146474
0.000652174 	-6.11162e-06 	-3.61167e-05 	0.146474
0.000702341 	-6.24745e-06 	-4.23349e-05 	0.152269
0.000702341 	-6.24745e-06 	-4.23349e-05 	0.152269
0.000752508 	-6.34581e-06 	-4.91515e-05 	0.157568
0.000802676 	-6.40963e-06 	-5.65823e-05 	0.162427
0.000852843 	-6.43717e-06 	-6.47265e-05 	0.166838
0.000852843 	-6.43717e-06 	-6.47265e-05 	0.166838
0.00090301 	-6.43688e-06 	-7.34575e-05 	0.170913
0.00090301 	-6.43688e-06 	-7.34575e-05 	0.170913
0.000953177 	-6.41187e-06 	-8.27247e-05 	0.174691
0.00100334 	-6.36501e-06 	-9.24751e-05 	0.178206
0.00100334 	-6.36501e-06 	-9.24751e-05 	0.178206
0.00105351 	-6.2988e-06 	-0.000102658 	0.181492
0.00105351 	-6.2988e-06 	-0.000102658 	0.181492
0.00110368 	-6.21501e-06 	-0.000113236 	0.184572
0.00115385 	-6.11155e-06 	-0.000124252 	0.187423
0.00120401 	-5.99508e-06 	-0.000135551 	0.190122
0.00120401 	-5.99508e-06 	-0.000135551 	0.190122
0.00130435 	-5.72828e-06 	-0.000158862 	0.195129
0.00130435 	-5.72828e-06 	-0.000158862 	0.195129
0.00135452 	-5.57742e-06 	-0.000170861 	0.197429
0.00135452 	-5.57742e-06 	-0.000170861 	0.197429
0.00140468 	-5.41732e-06 	-0.000183021 	0.199619
0.00145485 	-5.25025e-06 	-0.000195289 	0.201724
0.00145485 	-5.25025e-06 	-0.000195289 	0.201724
0.00150502 	-5.07689e-06 	-0.000207647 	0.203753
0.00150502 	-5.07689e-06 	-0.000207647 	0.203753
0.00155518 	-4.89486e-06 	-0.000220093 	0.205674
0.00155518 	-4.89486e-06 	-0.000220093 	0.205674
0.00160535 	-4.708e-06 	-0.000232559 	0.207534
0.00160535 	-4.708e-06 	-0.000232559 	0.207534
0.00165552 	-4.51681e-06 	-0.000245032 	0.209341
0.00165552 	-4.51681e-06 	-0.000245032 	0.209341
0.00170569 	-4.31976e-06 	-0.000257477 	0.211078
0.00170569 	-4.31976e-06 	-0.000257477 	0.211078
0.00175585 	-4.118e-06 	-0.000269849 	0.212759
0.00175585 	-4.118e-06 	-0.000269849 	0.212759
0.00180602 	-3.91301e-06 	-0.000282153 	0.214402
0.00180602 	-3.91301e-06 	-0.000282153 	0.214402
0.00185619 	-3.70347e-06 	-0.000294329 	0.215992
0.00185619 	-3.70347e-06 	-0.000294329 	0.215992
0.00190635 	-3.4901e-06 	-0.000306338 	0.217537
0.00190635 	-3.4901e-06 	-0.000306338 	0.217537
0.00195652 	-3.27437e-06 	-0.000318231 	0.219053
0.00195652 	-3.27437e-06 	-0.000318231 	0.219053
0.00200669 	-3.05469e-06 	-0.000329883 	0.220523
0.00200669 	-3.05469e-06 	-0.000329883 	0.220523
0.00205686 	-2.83238e-06 	-0.000341321 	0.221959
0.00210702 	-2.60835e-06 	-0.000352618 	0.223375
0.00210702 	-2.60835e-06 	-0.000352618 	0.223375
0.00215719 	-2.38046e-06 	-0.000363512 	0.224741
0.00220736 	-2.15123e-06 	-0.000374231 	0.22609
0.00225753 	-1.91985e-06 	-0.000384667 	0.22741
0.00225753 	-1.91985e-06 	-0.000384667 	0.22741
0.00230769 	-1.68614e-06 	-0.000394733 	0.228697
0.00230769 	-1.68614e-06 	-0.000394733 	0.228697
0.00235786 	-1.45145e-06 	-0.000404639 	0.229972
0.00235786 	-1.45145e-06 	-0.000404639 	0.229972
0.00240803 	-1.21401e-06 	-0.00041402 	0.231206
0.00240803 	-1.21401e-06 	-0.00041402 	0.231206
0.00245819 	-9.75687e-07 	-0.000423208 	0.232426
0.00245819 	-9.75687e-07 	-0.000423208 	0.232426
0.00250836 	-7.35591e-07 	-0.000432004 	0.23362
0.00250836 	-7.35591e-07 	-0.000432004 	0.23362
0.00255853 	-4.94058e-07 	-0.000440438 	0.23479
0.0026087 	-2.51505e-07 	-0.000448615 	0.235944
0.0026087 	-2.51505e-07 	-0.000448615 	0.235944
0.00265886 	-7.09896e-09 	-0.000456272 	0.237067
0.00270903 	2.37747e-07 	-0.000463804 	0.238182
0.00270903 	2.37747e-07 	-0.000463804 	0.238182
0.0027592 	4.84739e-07 	-0.000470667 	0.239259
0.00280936 	7.32055e-07 	-0.000477421 	0.240329
0.00280936 	7.32055e-07 	-0.000477421 	0.240329
0.00285953 	9.81083e-07 	-0.000483596 	0.241368
0.00285953 	9.81083e-07 	-0.000483596 	0.241368
0.0029097 	1.23068e-06 	-0.000489574 	0.242395
0.0029097 	1.23068e-06 	-0.000489574 	0.242395
0.00295987 	1.48169e-06 	-0.000495056 	0.243395
0.00295987 	1.48169e-06 	-0.000495056 	0.243395
0.00301003 	1.73347e-06 	-0.00050028 	0.244381
0.0030602 	1.98652e-06 	-0.000505078 	0.245343
0.00311037 	2.24053e-06 	-0.000509592 	0.246289
0.00311037 	2.24053e-06 	-0.000509592 	0.246289
0.00316054 	2.49578e-06 	-0.000513735 	0.247213
0.00316054 	2.49578e-06 	-0.000513735 	0.247213
0.00326087 	3.00983e-06 	-0.000521129 	0.249006
0.00326087 	3.00983e-06 	-0.000521129 	0.249006
0.00331104 	3.26866e-06 	-0.00052441 	0.249875
0.0033612 	3.5289e-06 	-0.000527381 	0.250723
0.0033612 	3.5289e-06 	-0.000527381 	0.250723
0.00341137 	3.79002e-06 	-0.000530151 	0.251556
0.00341137 	3.79002e-06 	-0.000530151 	0.251556
0.00346154 	4.0525e-06 	-0.000532619 	0.252366
0.00346154 	4.0525e-06 	-0.000532619 	0.252366
0.00351171 	4.31548e-06 	-0.000534949 	0.253165
0.00356187 	4.57957e-06 	-0.000536974 	0.253938
0.00356187 	4.57957e-06 	-0.000536974 	0.253938
0.00361204 	4.84391e-06 	-0.000538924 	0.254705
0.00366221 	5.10926e-06 	-0.000540559 	0.255443
0.00366221 	5.10926e-06 	-0.000540559 	0.255443
0.00371237 	5.37465e-06 	-0.000542183 	0.25618
0.00371237 	5.37465e-06 	-0.000542183 	0.25618
0.00376254 	5.64138e-06 	-0.000543472 	0.256886
0.00376254 	5.64138e-06 	-0.000543472 	0.256886
0.00381271 	5.90811e-06 	-0.000544761 	0.257591
0.00381271 	5.90811e-06 	-0.000544761 	0.257591
0.00386288 	6.1761e-06 	-0.000545796 	0.25827
0.00391304 	6.44434e-06 	-0.000546778 	0.258944
0.00391304 	6.44434e-06 	-0.000546778 	0.258944
0.00396321 	6.71329e-06 	-0.000547599 	0.259598
0.00401338 	6.98274e-06 	-0.00054831 	0.26024
0.00401338 	6.98274e-06 	-0.00054831 	0.26024
0.00406355 	7.25233e-06 	-0.000548947 	0.260871
0.00406355 	7.25233e-06 	-0.000548947 	0.260871
0.00411371 	7.52225e-06 	-0.000549422 	0.26148
0.00411371 	7.52225e-06 	-0.000549422 	0.26148
0.00421405 	8.06171e-06 	-0.000550173 	0.262666
0.00421405 	8.06171e-06 	-0.000550173 	0.262666
0.00426421 	8.33123e-06 	-0.000550448 	0.263243
0.00426421 	8.33123e-06 	-0.000550448 	0.263243
0.00431438 	8.59992e-06 	-0.000550621 	0.2638
0.00431438 	8.59992e-06 	-0.000550621 	0.2638
0.00436455 	8.86811e-06 	-0.000550733 	0.264344
0.00436455 	8.86811e-06 	-0.000550733 	0.264344
0.00441472 	9.13576e-06 	-0.000550817 	0.264881
0.00441472 	9.13576e-06 	-0.000550817 	0.264881
0.00446488 	9.4016e-06 	-0.000550803 	0.265393
0.00446488 	9.4016e-06 	-0.000550803 	0.265393
0.00451505 	9.66744e-06 	-0.000550789 	0.265905
0.00451505 	9.66744e-06 	-0.000550789 	0.265905
0.00456522 	9.93059e-06 	-0.000550705 	0.266391
0.00456522 	9.93059e-06 	-0.000550705 	0.266391
0.00461538 	1.0193e-05 	-0.000550601 	0.266871
0.00461538 	1.0193e-05 	-0.000550601 	0.266871
0.00466555 	1.04541e-05 	-0.000550482 	0.267341
0.00471572 	1.07119e-05 	-0.000550323 	0.267787
0.00476589 	1.09697e-05 	-0.000550165 	0.268234
0.00476589 	1.09697e-05 	-0.000550165 	0.268234
0.00486622 	1.14753e-05 	-0.000549808 	0.26907
0.00486622 	1.14753e-05 	-0.000549808 	0.26907
0.00491639 	1.17262e-05 	-0.000549628 	0.269479
0.00496656 	1.19714e-05 	-0.000549452 	0.26986
0.00496656 	1.19714e-05 	-0.000549452 	0.26986
0.00501672 	1.22167e-05 	-0.000549276 	0.270242
0.00506689 	1.24575e-05 	-0.000549117 	0.270606
0.00511706 	1.26946e-05 	-0.000548971 	0.270955
0.00511706 	1.26946e-05 	-0.000548971 	0.270955
0.00521739 	1.31609e-05 	-0.000548722 	0.271626
0.00521739 	1.31609e-05 	-0.000548722 	0.271626
0.00526756 	1.33888e-05 	-0.000548625 	0.271943
0.00526756 	1.33888e-05 	-0.000548625 	0.271943
0.00531773 	1.36152e-05 	-0.000548538 	0.272255
0.00536789 	1.38327e-05 	-0.000548503 	0.27254
0.00536789 	1.38327e-05 	-0.000548503 	0.27254
0.00541806 	1.40502e-05 	-0.000548469 	0.272825
0.00546823 	1.42632e-05 	-0.000548461 	0.273099
0.00551839 	1.44689e-05 	-0.000548497 	0.273353
0.00551839 	1.44689e-05 	-0.000548497 	0.273353
0.00556856 	1.46747e-05 	-0.000548532 	0.273606
0.00556856 	1.46747e-05 	-0.000548532 	0.273606
0.0056689 	1.50657e-05 	-0.000548714 	0.274066
0.0056689 	1.50657e-05 	-0.000548714 	0.274066
0.00571906 	1.52583e-05 	-0.000548821 	0.274289
0.00576923 	1.54407e-05 	-0.000548973 	0.274492
0.00576923 	1.54407e-05 	-0.000548973 	0.274492
0.0058194 	1.56185e-05 	-0.000549145 	0.274685
0.0058194 	1.56185e-05 	-0.000549145 	0.274685
0.00591973 	1.59616e-05 	-0.000549531 	0.27505
0.00591973 	1.59616e-05 	-0.000549531 	0.27505
0.0059699 	1.6123e-05 	-0.000549757 	0.275214
0.0059699 	1.6123e-05 	-0.000549757 	0.275214
0.00602007 	1.62844e-05 	-0.000549983 	0.275379
0.00607023 	1.64314e-05 	-0.00055024 	0.275521
0.0061204 	1.65746e-05 	-0.000550503 	0.275658
0.0061204 	1.65746e-05 	-0.000550503 	0.275658
0.00617057 	1.67178e-05 	-0.000550767 	0.275794
0.00622074 	1.68458e-05 	-0.000551045 	0.27591
0.00622074 	1.68458e-05 	-0.000551045 	0.27591
0.0062709 	1.69692e-05 	-0.000551327 	0.27602
0.00632107 	1.70925e-05 	-0.000551609 	0.276129
0.00632107 	1.70925e-05 	-0.000551609 	0.276129
0.00637124 	1.72009e-05 	-0.000551889 	0.276221
0.00637124 	1.72009e-05 	-0.000551889 	0.276221
0.0064214 	1.73023e-05 	-0.000552168 	0.276304
0.0064214 	1.73023e-05 	-0.000552168 	0.276304
0.00647157 	1.74037e-05 	-0.000552447 	0.276388
0.00647157 	1.74037e-05 	-0.000552447 	0.276388
0.00652174 	1.74919e-05 	-0.000552721 	0.276458
0.00657191 	1.7569e-05 	-0.00055299 	0.276516
0.00657191 	1.7569e-05 	-0.00055299 	0.276516
0.00662207 	1.76461e-05 	-0.000553259 	0.276574
0.00667224 	1.77136e-05 	-0.000553515 	0.276623
0.00672241 	1.77634e-05 	-0.000553746 	0.276657
0.00672241 	1.77634e-05 	-0.000553746 	0.276657
0.00677258 	1.78131e-05 	-0.000553977 	0.27669
0.00682274 	1.78599e-05 	-0.000554201 	0.276721
0.00682274 	1.78599e-05 	-0.000554201 	0.276721
0.00687291 	1.7879e-05 	-0.000554362 	0.27673
0.00687291 	1.7879e-05 	-0.000554362 	0.27673
0.00692308 	1.78981e-05 	-0.000554524 	0.276739
0.00697324 	1.79172e-05 	-0.000554686 	0.276748
0.00702341 	1.79093e-05 	-0.000554797 	0.276737
0.00707358 	1.78941e-05 	-0.000554894 	0.276722
0.00707358 	1.78941e-05 	-0.000554894 	0.276722
0.00717391 	1.78482e-05 	-0.000555041 	0.276682
0.00717391 	1.78482e-05 	-0.000555041 	0.276682
0.00722408 	1.77962e-05 	-0.000555026 	0.276643
0.00722408 	1.77962e-05 	-0.000555026 	0.276643
0.00727425 	1.77441e-05 	-0.000555011 	0.276603
0.00727425 	1.77441e-05 	-0.000555011 	0.276603
0.00732441 	1.7692e-05 	-0.000554996 	0.276564
0.00732441 	1.7692e-05 	-0.000554996 	0.276564
0.00737458 	1.76027e-05 	-0.000554877 	0.276502
0.00737458 	1.76027e-05 	-0.000554877 	0.276502
0.00742475 	1.75131e-05 	-0.000554757 	0.276439
0.00747492 	1.74234e-05 	-0.000554638 	0.276376
0.00752508 	1.73146e-05 	-0.000554478 	0.276301
0.00752508 	1.73146e-05 	-0.000554478 	0.276301
0.00757525 	1.71866e-05 	-0.000554278 	0.276215
0.00762542 	1.70586e-05 	-0.000554079 	0.276128
0.00767559 	1.69303e-05 	-0.000553878 	0.276042
0.00767559 	1.69303e-05 	-0.000553878 	0.276042
0.00772575 	1.67652e-05 	-0.000553553 	0.275931
0.00777592 	1.66001e-05 	-0.000553228 	0.275821
0.00777592 	1.66001e-05 	-0.000553228 	0.275821
0.00782609 	1.64349e-05 	-0.000552904 	0.27571
0.00787625 	1.62503e-05 	-0.000552523 	0.275587
0.00787625 	1.62503e-05 	-0.000552523 	0.275587
0.00792642 	1.60515e-05 	-0.000552103 	0.275453
0.00797659 	1.58527e-05 	-0.000551683 	0.275319
0.00802676 	1.56476e-05 	-0.000551242 	0.275181
0.00802676 	1.56476e-05 	-0.000551242 	0.275181
0.00807692 	1.54186e-05 	-0.000550722 	0.275024
0.00807692 	1.54186e-05 	-0.000550722 	0.275024
0.00812709 	1.51896e-05 	-0.000550203 	0.274868
0.00817726 	1.49606e-05 	-0.000549683 	0.274712
0.00817726 	1.49606e-05 	-0.000549683 	0.274712
0.00822742 	1.47087e-05 	-0.000549047 	0.274535
0.00827759 	1.44542e-05 	-0.000548398 	0.274355
0.00827759 	1.44542e-05 	-0.000548398 	0.274355
0.00832776 	1.41997e-05 	-0.000547749 	0.274176
0.00832776 	1.41997e-05 	-0.000547749 	0.274176
0.00837793 	1.39315e-05 	-0.000547027 	0.273983
0.00842809 	1.36557e-05 	-0.000546265 	0.273781
0.00842809 	1.36557e-05 	-0.000546265 	0.273781
0.00847826 	1.338e-05 	-0.000545504 	0.273579
0.00847826 	1.338e-05 	-0.000545504 	0.273579
0.0085786 	1.28031e-05 	-0.000543819 	0.273143
0.0085786 	1.28031e-05 	-0.000543819 	0.273143
0.00862876 	1.25099e-05 	-0.000542947 	0.272919
0.00867893 	1.22121e-05 	-0.000542039 	0.272688
0.0087291 	1.19047e-05 	-0.000541058 	0.272441
0.00877926 	1.15973e-05 	-0.000540076 	0.272194
0.00882943 	1.12873e-05 	-0.000539069 	0.271942
0.0088796 	1.09687e-05 	-0.000537981 	0.271673
0.0088796 	1.09687e-05 	-0.000537981 	0.271673
0.00892977 	1.06501e-05 	-0.000536893 	0.271404
0.00892977 	1.06501e-05 	-0.000536893 	0.271404
0.00897993 	1.03297e-05 	-0.000535783 	0.27113
0.00897993 	1.03297e-05 	-0.000535783 	0.27113
0.0090301 	1.00024e-05 	-0.00053459 	0.270838
0.00908027 	9.67522e-06 	-0.000533396 	0.270546
0.00908027 	9.67522e-06 	-0.000533396 	0.270546
0.00913043 	9.34651e-06 	-0.000532178 	0.270249
0.0091806 	9.01295e-06 	-0.00053088 	0.269934
0.0091806 	9.01295e-06 	-0.00053088 	0.269934
0.00923077 	8.67938e-06 	-0.000529581 	0.26962
0.00928094 	8.34447e-06 	-0.00052825 	0.269298
0.00928094 	8.34447e-06 	-0.00052825 	0.269298
0.0093311 	8.00657e-06 	-0.000526845 	0.268961
0.00938127 	7.66867e-06 	-0.000525441 	0.268623
0.00938127 	7.66867e-06 	-0.000525441 	0.268623
0.00943144 	7.32964e-06 	-0.00052399 	0.268275
0.00943144 	7.32964e-06 	-0.00052399 	0.268275
0.00948161 	6.98915e-06 	-0.000522479 	0.267914
0.00948161 	6.98915e-06 	-0.000522479 	0.267914
0.00953177 	6.64867e-06 	-0.000520968 	0.267553
0.00953177 	6.64867e-06 	-0.000520968 	0.267553
0.00958194 	6.30752e-06 	-0.000519389 	0.267178
0.00958194 	6.30752e-06 	-0.000519389 	0.267178
0.00963211 	5.96596e-06 	-0.00051777 	0.266794
0.00968227 	5.62441e-06 	-0.00051615 	0.266409
0.00968227 	5.62441e-06 	-0.00051615 	0.266409
0.00973244 	5.28306e-06 	-0.000514437 	0.266004
0.00978261 	4.94176e-06 	-0.000512706 	0.265596
0.00978261 	4.94176e-06 	-0.000512706 	0.265596
0.00983278 	4.60063e-06 	-0.000510961 	0.265184
0.00983278 	4.60063e-06 	-0.000510961 	0.265184
0.00988294 	4.26073e-06 	-0.000509117 	0.264752
0.00993311 	3.92084e-06 	-0.000507272 	0.264319
0.00993311 	3.92084e-06 	-0.000507272 	0.264319
0.00998328 	3.58205e-06 	-0.000505373 	0.263874
0.0100334 	3.24462e-06 	-0.00050341 	0.263417
0.0100836 	2.90718e-06 	-0.000501446 	0.262959
0.0100836 	2.90718e-06 	-0.000501446 	0.262959
0.0101338 	2.57255e-06 	-0.000499381 	0.26248
0.0101839 	2.23851e-06 	-0.000497294 	0.261996
0.0101839 	2.23851e-06 	-0.000497294 	0.261996
0.0102341 	1.9055e-06 	-0.000495175 	0.261507
0.0102341 	1.9055e-06 	-0.000495175 	0.261507
0.0102843 	1.57569e-06 	-0.000492959 	0.260997
0.0103344 	1.24588e-06 	-0.000490743 	0.260487
0.0103344 	1.24588e-06 	-0.000490743 	0.260487
0.0103846 	9.19571e-07 	-0.00048843 	0.259959
0.0103846 	9.19571e-07 	-0.00048843 	0.259959
0.0104348 	5.94707e-07 	-0.000486077 	0.259422
0.0104348 	5.94707e-07 	-0.000486077 	0.259422
0.0104849 	2.71062e-07 	-0.000483693 	0.25888
0.0104849 	2.71062e-07 	-0.000483693 	0.25888
0.0105351 	-4.82077e-08 	-0.000481197 	0.258315
0.0105853 	-3.67477e-07 	-0.0004787 	0.257751
0.0105853 	-3.67477e-07 	-0.0004787 	0.257751
0.0106856 	-9.95074e-07 	-0.000473439 	0.256571
0.0106856 	-9.95074e-07 	-0.000473439 	0.256571
0.0107358 	-1.30569e-06 	-0.000470732 	0.255967
0.010786 	-1.61206e-06 	-0.000467923 	0.255345
0.010786 	-1.61206e-06 	-0.000467923 	0.255345
0.0108361 	-1.91839e-06 	-0.000465114 	0.254722
0.0108863 	-2.21751e-06 	-0.000462137 	0.254068
0.0108863 	-2.21751e-06 	-0.000462137 	0.254068
0.0109365 	-2.51663e-06 	-0.00045916 	0.253414
0.0109365 	-2.51663e-06 	-0.00045916 	0.253414
0.0109866 	-2.81042e-06 	-0.000456062 	0.252738
0.0110368 	-3.10178e-06 	-0.000452908 	0.252052
0.0110368 	-3.10178e-06 	-0.000452908 	0.252052
0.011087 	-3.38978e-06 	-0.000449677 	0.251353
0.011087 	-3.38978e-06 	-0.000449677 	0.251353
0.0111371 	-3.6729e-06 	-0.000446334 	0.250633
0.0111873 	-3.95454e-06 	-0.000442957 	0.249908
0.0111873 	-3.95454e-06 	-0.000442957 	0.249908
0.0112375 	-4.22894e-06 	-0.00043941 	0.249154
0.0112876 	-4.50335e-06 	-0.000435863 	0.248399
0.0112876 	-4.50335e-06 	-0.000435863 	0.248399
0.0113378 	-4.76883e-06 	-0.000432101 	0.247609
0.0113378 	-4.76883e-06 	-0.000432101 	0.247609
0.011388 	-5.03404e-06 	-0.000428332 	0.246818
0.0114381 	-5.29147e-06 	-0.000424361 	0.245995
0.0114381 	-5.29147e-06 	-0.000424361 	0.245995
0.0114883 	-5.54709e-06 	-0.000420342 	0.245164
0.0115385 	-5.79606e-06 	-0.000416124 	0.244304
0.0115385 	-5.79606e-06 	-0.000416124 	0.244304
0.0115886 	-6.042e-06 	-0.000411815 	0.243429
0.0116388 	-6.28228e-06 	-0.000407302 	0.242526
0.0116388 	-6.28228e-06 	-0.000407302 	0.242526
0.011689 	-6.51882e-06 	-0.000402655 	0.241604
0.0117391 	-6.75039e-06 	-0.000397791 	0.240652
0.0117893 	-6.97795e-06 	-0.000392753 	0.239677
0.0118395 	-7.20071e-06 	-0.00038748 	0.238671
0.0118395 	-7.20071e-06 	-0.00038748 	0.238671
0.0118896 	-7.41943e-06 	-0.000382006 	0.237638
0.0119398 	-7.63295e-06 	-0.00037627 	0.23657
0.0119398 	-7.63295e-06 	-0.00037627 	0.23657
0.01199 	-7.84249e-06 	-0.000370333 	0.235474
0.0120401 	-8.04601e-06 	-0.000364096 	0.234337
0.0120401 	-8.04601e-06 	-0.000364096 	0.234337
0.0120903 	-8.2459e-06 	-0.00035768 	0.233174
0.0120903 	-8.2459e-06 	-0.00035768 	0.233174
0.0121906 	-8.62845e-06 	-0.000344016 	0.230724
0.0121906 	-8.62845e-06 	-0.000344016 	0.230724
0.0122408 	-8.8096e-06 	-0.000336707 	0.229425
0.012291 	-8.9891e-06 	-0.00032932 	0.228114
0.012291 	-8.9891e-06 	-0.00032932 	0.228114
0.0123411 	-9.15796e-06 	-0.00032145 	0.226721
0.0123913 	-9.3247e-06 	-0.000313488 	0.225311
0.0123913 	-9.3247e-06 	-0.000313488 	0.225311
0.0124415 	-9.48256e-06 	-0.00030514 	0.223832
0.0124415 	-9.48256e-06 	-0.00030514 	0.223832
0.0124916 	-9.6357e-06 	-0.000296601 	0.222315
0.0124916 	-9.6357e-06 	-0.000296601 	0.222315
0.0125418 	-9.78219e-06 	-0.000287793 	0.220744
0.012592 	-9.92077e-06 	-0.000278693 	0.219109
0.0126421 	-1.00555e-05 	-0.000269448 	0.217442
0.0126421 	-1.00555e-05 	-0.000269448 	0.217442
0.0126923 	-1.01784e-05 	-0.000259823 	0.215678
0.0127425 	-1.02974e-05 	-0.000250085 	0.213881
0.0127425 	-1.02974e-05 	-0.000250085 	0.213881
0.0127926 	-1.04071e-05 	-0.000240092 	0.212006
0.0128428 	-1.05085e-05 	-0.000229922 	0.210063
0.0128428 	-1.05085e-05 	-0.000229922 	0.210063
0.0129431 	-1.06873e-05 	-0.000209143 	0.205974
0.0129431 	-1.06873e-05 	-0.000209143 	0.205974
0.0129933 	-1.0764e-05 	-0.00019859 	0.203822
0.0130435 	-1.08317e-05 	-0.000187953 	0.201596
0.0130435 	-1.08317e-05 	-0.000187953 	0.201596
0.0131438 	-1.09347e-05 	-0.000166596 	0.196869
0.0131438 	-1.09347e-05 	-0.000166596 	0.196869
0.013194 	-1.0971e-05 	-0.000155943 	0.194378
0.0132441 	-1.09942e-05 	-0.000145387 	0.191777
0.0132441 	-1.09942e-05 	-0.000145387 	0.191777
0.0132943 	-1.10084e-05 	-0.000134918 	0.1891
0.0133445 	-1.10097e-05 	-0.000124601 	0.186314
0.0133445 	-1.10097e-05 	-0.000124601 	0.186314
0.0133946 	-1.09954e-05 	-0.000114524 	0.183396
0.0133946 	-1.09954e-05 	-0.000114524 	0.183396
0.0134448 	-1.097e-05 	-0.000104641 	0.180384
0.0134448 	-1.097e-05 	-0.000104641 	0.180384
0.013495 	-1.09321e-05 	-9.4984e-05 	0.177266
0.0135452 	-1.08736e-05 	-8.57519e-05 	0.173971
0.0135452 	-1.08736e-05 	-8.57519e-05 	0.173971
0.0135953 	-1.08013e-05 	-7.6825e-05 	0.170555
0.0135953 	-1.08013e-05 	-7.6825e-05 	0.170555
0.0136455 	-1.07145e-05 	-6.823e-05 	0.167009
0.0136455 	-1.07145e-05 	-6.823e-05 	0.167009
0.0136957 	-1.06094e-05 	-6.00636e-05 	0.163297
0.0136957 	-1.06094e-05 	-6.00636e-05 	0.163297
0.0137458 	-1.04816e-05 	-5.24358e-05 	0.159376
0.013796 	-1.03355e-05 	-4.52493e-05 	0.155283
0.013796 	-1.03355e-05 	-4.52493e-05 	0.155283
0.0138462 	-1.01698e-05 	-3.85336e-05 	0.151004
0.0138462 	-1.01698e-05 	-3.85336e-05 	0.151004
0.0138963 	-9.98299e-06 	-3.23189e-05 	0.146524
0.0139465 	-9.76668e-06 	-2.67922e-05 	0.141755
0.0139465 	-9.76668e-06 	-2.67922e-05 	0.141755
0.0139967 	-9.52597e-06 	-2.18131e-05 	0.13674
0.0139967 	-9.52597e-06 	-2.18131e-05 	0.13674
0.0140468 	-9.26006e-06 	-1.73805e-05 	0.131464
0.0140468 	-9.26006e-06 	-1.73805e-05 	0.131464
0.014097 	-8.96766e-06 	-1.35022e-05 	0.125908
0.0141472 	-8.64771e-06 	-1.0178e-05 	0.120047
0.0141472 	-8.64771e-06 	-1.0178e-05 	0.120047
0.0141973 	-8.29938e-06 	-7.39373e-06 	0.113855
0.0142475 	-7.91678e-06 	-5.19074e-06 	0.107233
0.0142977 	-7.50264e-06 	-3.43936e-06 	0.100197
0.0142977 	-7.50264e-06 	-3.43936e-06 	0.100197
0.0143478 	-7.05605e-06 	-2.09535e-06 	0.0927399
0.014398 	-6.57734e-06 	-1.12005e-06 	0.0848797
0.014398 	-6.57734e-06 	-1.12005e-06 	0.0848797
0.0144482 	-6.06846e-06 	-4.65742e-07 	0.0766757
0.0144983 	-5.53285e-06 	-7.42046e-08 	0.0682324
0.0144983 	-5.53285e-06 	-7.42046e-08 	0.0682324
0.0145485 	-4.97498e-06 	1.19553e-07 	0.0596992
0.0145485 	-4.97498e-06 	1.19553e-07 	0.0596992
0.0145987 	-4.39996e-06 	1.8084e-07 	0.0512552
0.0146488 	-3.81328e-06 	1.67231e-07 	0.0430793
0.014699 	-3.22111e-06 	1.21689e-07 	0.0353176
0.014699 	-3.22111e-06 	1.21689e-07 	0.0353176
0.0147492 	-2.63164e-06 	7.05221e-08 	0.0280636
0.0147993 	-2.05889e-06 	2.72313e-08 	0.0213606
0.0147993 	-2.05889e-06 	2.72313e-08 	0.0213606
0.0148495 	-1.53193e-06 	-6.08774e-09 	0.0152172
0.0148495 	-1.53193e-06 	-6.08774e-09 	0.0152172
0.0148997 	-1.07351e-06 	-2.01353e-08 	0.00962389
0.0148997 	-1.07351e-06 	-2.01353e-08 	0.00962389
0.0149498 	-6.13878e-07 	-1.70846e-08 	0.00456418
0.0149498 	-6.13878e-07 	-1.70846e-08 	0.00456418
0.015 	0 	0 	0
0.015 	0 	0 	0
