0 	0 	0 	0
0 	1.0301e-35 	-3.3654e-36 	1.85516e-31
5.01672e-05 	8.30824e-07 	-3.5907e-07 	0.0173046
5.01672e-05 	8.30824e-07 	-3.5907e-07 	0.0173046
0.000100334 	6.25714e-07 	-1.10505e-06 	0.0332803
0.000150502 	1.75114e-07 	-2.28268e-06 	0.0481044
0.000150502 	1.75114e-07 	-2.28268e-06 	0.0481044
0.000200669 	-1.92005e-07 	-3.8707e-06 	0.0618676
0.000200669 	-1.92005e-07 	-3.8707e-06 	0.0618676
0.000250836 	-4.9314e-07 	-5.87631e-06 	0.0746478
0.000301003 	-7.68023e-07 	-8.28597e-06 	0.0865094
0.000301003 	-7.68023e-07 	-8.28597e-06 	0.0865094
0.000351171 	-1.0276e-06 	-1.1095e-05 	0.0974948
0.000401338 	-1.27592e-06 	-1.43076e-05 	0.107624
0.000451505 	-1.51316e-06 	-1.79438e-05 	0.116912
0.000451505 	-1.51316e-06 	-1.79438e-05 	0.116912
0.000501672 	-1.73639e-06 	-2.20369e-05 	0.125384
0.000551839 	-1.94112e-06 	-2.66223e-05 	0.133087
0.000551839 	-1.94112e-06 	-2.66223e-05 	0.133087
0.000602007 	-2.123e-06 	-3.17285e-05 	0.140081
0.000602007 	-2.123e-06 	-3.17285e-05 	0.140081
0.000652174 	-2.27906e-06 	-3.73763e-05 	0.146437
0.000652174 	-2.27906e-06 	-3.73763e-05 	0.146437
0.000702341 	-2.40806e-06 	-4.35837e-05 	0.152228
0.000702341 	-2.40806e-06 	-4.35837e-05 	0.152228
0.000752508 	-2.51006e-06 	-5.03655e-05 	0.157524
0.000802676 	-2.5857e-06 	-5.77355e-05 	0.16238
0.000852843 	-2.63249e-06 	-6.57867e-05 	0.166789
0.000852843 	-2.63249e-06 	-6.57867e-05 	0.166789
0.00090301 	-2.65613e-06 	-7.43954e-05 	0.170861
0.00090301 	-2.65613e-06 	-7.43954e-05 	0.170861
0.000953177 	-2.65838e-06 	-8.35127e-05 	0.174637
0.00100334 	-2.64101e-06 	-9.30886e-05 	0.17815
0.00100334 	-2.64101e-06 	-9.30886e-05 	0.17815
0.00105351 	-2.60575e-06 	-0.000103075 	0.181435
0.00105351 	-2.60575e-06 	-0.000103075 	0.181435
0.00110368 	-2.55388e-06 	-0.000113436 	0.184513
0.00115385 	-2.48323e-06 	-0.000124211 	0.187363
0.00120401 	-2.40018e-06 	-0.000135253 	0.190063
0.00120401 	-2.40018e-06 	-0.000135253 	0.190063
0.00130435 	-2.20181e-06 	-0.000158004 	0.19507
0.00130435 	-2.20181e-06 	-0.000158004 	0.19507
0.00135452 	-2.08593e-06 	-0.0001697 	0.19737
0.00135452 	-2.08593e-06 	-0.0001697 	0.19737
0.00140468 	-1.96097e-06 	-0.000181541 	0.199561
0.00145485 	-1.82887e-06 	-0.00019348 	0.201668
0.00145485 	-1.82887e-06 	-0.00019348 	0.201668
0.00150502 	-1.69013e-06 	-0.000205499 	0.203699
0.00150502 	-1.69013e-06 	-0.000205499 	0.203699
0.00155518 	-1.54166e-06 	-0.000217592 	0.205621
0.00155518 	-1.54166e-06 	-0.000217592 	0.205621
0.00160535 	-1.38771e-06 	-0.000229694 	0.207484
0.00160535 	-1.38771e-06 	-0.000229694 	0.207484
0.00165552 	-1.229e-06 	-0.000241795 	0.209293
0.00165552 	-1.229e-06 	-0.000241795 	0.209293
0.00170569 	-1.06412e-06 	-0.000253857 	0.211032
0.00170569 	-1.06412e-06 	-0.000253857 	0.211032
0.00175585 	-8.94699e-07 	-0.000265836 	0.212716
0.00175585 	-8.94699e-07 	-0.000265836 	0.212716
0.00180602 	-7.22264e-07 	-0.000277741 	0.214362
0.00180602 	-7.22264e-07 	-0.000277741 	0.214362
0.00185619 	-5.45691e-07 	-0.000289507 	0.215955
0.00185619 	-5.45691e-07 	-0.000289507 	0.215955
0.00190635 	-3.65751e-07 	-0.000301099 	0.217502
0.00190635 	-3.65751e-07 	-0.000301099 	0.217502
0.00195652 	-1.83758e-07 	-0.00031257 	0.219021
0.00195652 	-1.83758e-07 	-0.00031257 	0.219021
0.00200669 	1.63531e-09 	-0.000323792 	0.220493
0.00200669 	1.63531e-09 	-0.000323792 	0.220493
0.00205686 	1.89244e-07 	-0.000334797 	0.221932
0.00210702 	3.78319e-07 	-0.000345656 	0.22335
0.00210702 	3.78319e-07 	-0.000345656 	0.22335
0.00215719 	5.70601e-07 	-0.000356106 	0.224719
0.00220736 	7.63995e-07 	-0.000366378 	0.226069
0.00225753 	9.59169e-07 	-0.000376365 	0.227391
0.00225753 	9.59169e-07 	-0.000376365 	0.227391
0.00230769 	1.15623e-06 	-0.000385981 	0.228681
0.00230769 	1.15623e-06 	-0.000385981 	0.228681
0.00235786 	1.3541e-06 	-0.000395435 	0.229957
0.00235786 	1.3541e-06 	-0.000395435 	0.229957
0.00240803 	1.55418e-06 	-0.000404365 	0.231193
0.00240803 	1.55418e-06 	-0.000404365 	0.231193
0.00245819 	1.75496e-06 	-0.000413102 	0.232415
0.00245819 	1.75496e-06 	-0.000413102 	0.232415
0.00250836 	1.95714e-06 	-0.000421448 	0.233609
0.00250836 	1.95714e-06 	-0.000421448 	0.233609
0.00255853 	2.16045e-06 	-0.000429436 	0.234781
0.0026087 	2.36455e-06 	-0.000437169 	0.235935
0.0026087 	2.36455e-06 	-0.000437169 	0.235935
0.00265886 	2.57012e-06 	-0.000444387 	0.237058
0.00270903 	2.77605e-06 	-0.000451482 	0.238174
0.00270903 	2.77605e-06 	-0.000451482 	0.238174
0.0027592 	2.98382e-06 	-0.00045792 	0.23925
0.00280936 	3.19193e-06 	-0.000464251 	0.240321
0.00280936 	3.19193e-06 	-0.000464251 	0.240321
0.00285953 	3.40173e-06 	-0.000470015 	0.241359
0.00285953 	3.40173e-06 	-0.000470015 	0.241359
0.0029097 	3.61219e-06 	-0.000475587 	0.242385
0.0029097 	3.61219e-06 	-0.000475587 	0.242385
0.00295987 	3.82428e-06 	-0.000480675 	0.243385
0.00295987 	3.82428e-06 	-0.000480675 	0.243385
0.00301003 	4.03734e-06 	-0.000485513 	0.24437
0.0030602 	4.25198e-06 	-0.000489939 	0.24533
0.00311037 	4.46777e-06 	-0.00049409 	0.246275
0.00311037 	4.46777e-06 	-0.00049409 	0.246275
0.00316054 	4.68507e-06 	-0.000497883 	0.247197
0.00316054 	4.68507e-06 	-0.000497883 	0.247197
0.00326087 	5.12355e-06 	-0.00050461 	0.248987
0.00326087 	5.12355e-06 	-0.00050461 	0.248987
0.00331104 	5.34481e-06 	-0.000507576 	0.249855
0.0033612 	5.56767e-06 	-0.000510244 	0.250701
0.0033612 	5.56767e-06 	-0.000510244 	0.250701
0.00341137 	5.79207e-06 	-0.000512722 	0.251532
0.00341137 	5.79207e-06 	-0.000512722 	0.251532
0.00346154 	6.01881e-06 	-0.000514913 	0.25234
0.00346154 	6.01881e-06 	-0.000514913 	0.25234
0.00351171 	6.24726e-06 	-0.000516974 	0.253137
0.00356187 	6.47945e-06 	-0.000518749 	0.253907
0.00356187 	6.47945e-06 	-0.000518749 	0.253907
0.00361204 	6.71287e-06 	-0.000520456 	0.254671
0.00366221 	6.95151e-06 	-0.000521871 	0.255407
0.00366221 	6.95151e-06 	-0.000521871 	0.255407
0.00371237 	7.19033e-06 	-0.000523277 	0.256142
0.00371237 	7.19033e-06 	-0.000523277 	0.256142
0.00376254 	7.43497e-06 	-0.000524378 	0.256844
0.00376254 	7.43497e-06 	-0.000524378 	0.256844
0.00381271 	7.67961e-06 	-0.00052548 	0.257547
0.00381271 	7.67961e-06 	-0.00052548 	0.257547
0.00386288 	7.9281e-06 	-0.000526351 	0.258222
0.00391304 	8.17737e-06 	-0.000527176 	0.258893
0.00391304 	8.17737e-06 	-0.000527176 	0.258893
0.00396321 	8.42867e-06 	-0.000527859 	0.259544
0.00401338 	8.68135e-06 	-0.000528442 	0.260182
0.00401338 	8.68135e-06 	-0.000528442 	0.260182
0.00406355 	8.93487e-06 	-0.000528961 	0.260811
0.00406355 	8.93487e-06 	-0.000528961 	0.260811
0.00411371 	9.19019e-06 	-0.000529339 	0.261417
0.00411371 	9.19019e-06 	-0.000529339 	0.261417
0.00421405 	9.70277e-06 	-0.000529924 	0.262597
0.00421405 	9.70277e-06 	-0.000529924 	0.262597
0.00426421 	9.96003e-06 	-0.000530131 	0.263171
0.00426421 	9.96003e-06 	-0.000530131 	0.263171
0.00431438 	1.0218e-05 	-0.000530252 	0.263724
0.00431438 	1.0218e-05 	-0.000530252 	0.263724
0.00436455 	1.04764e-05 	-0.000530323 	0.264266
0.00436455 	1.04764e-05 	-0.000530323 	0.264266
0.00441472 	1.07348e-05 	-0.000530372 	0.2648
0.00441472 	1.07348e-05 	-0.000530372 	0.2648
0.00446488 	1.09933e-05 	-0.000530343 	0.265309
0.00446488 	1.09933e-05 	-0.000530343 	0.265309
0.00451505 	1.12518e-05 	-0.000530315 	0.265818
0.00451505 	1.12518e-05 	-0.000530315 	0.265818
0.00456522 	1.15096e-05 	-0.000530236 	0.266302
0.00456522 	1.15096e-05 	-0.000530236 	0.266302
0.00461538 	1.17672e-05 	-0.000530143 	0.266779
0.00461538 	1.17672e-05 	-0.000530143 	0.266779
0.00466555 	1.20242e-05 	-0.000530041 	0.267246
0.00471572 	1.22797e-05 	-0.000529917 	0.26769
0.00476589 	1.25352e-05 	-0.000529793 	0.268135
0.00476589 	1.25352e-05 	-0.000529793 	0.268135
0.00486622 	1.30402e-05 	-0.000529545 	0.268966
0.00486622 	1.30402e-05 	-0.000529545 	0.268966
0.00491639 	1.32915e-05 	-0.000529426 	0.269373
0.00496656 	1.3539e-05 	-0.000529329 	0.269752
0.00496656 	1.3539e-05 	-0.000529329 	0.269752
0.00501672 	1.37864e-05 	-0.000529232 	0.270132
0.00506689 	1.40306e-05 	-0.000529163 	0.270494
0.00511706 	1.4272e-05 	-0.000529116 	0.270841
0.00511706 	1.4272e-05 	-0.000529116 	0.270841
0.00521739 	1.47485e-05 	-0.000529082 	0.271508
0.00521739 	1.47485e-05 	-0.000529082 	0.271508
0.00526756 	1.49825e-05 	-0.000529103 	0.271824
0.00526756 	1.49825e-05 	-0.000529103 	0.271824
0.00531773 	1.52152e-05 	-0.000529136 	0.272134
0.00536789 	1.54405e-05 	-0.000529237 	0.272418
0.00536789 	1.54405e-05 	-0.000529237 	0.272418
0.00541806 	1.56658e-05 	-0.000529338 	0.272702
0.00546823 	1.58873e-05 	-0.000529472 	0.272974
0.00551839 	1.61027e-05 	-0.00052966 	0.273227
0.00551839 	1.61027e-05 	-0.00052966 	0.273227
0.00556856 	1.6318e-05 	-0.000529847 	0.273479
0.00556856 	1.6318e-05 	-0.000529847 	0.273479
0.0056689 	1.67313e-05 	-0.000530357 	0.273937
0.0056689 	1.67313e-05 	-0.000530357 	0.273937
0.00571906 	1.69355e-05 	-0.000530632 	0.274159
0.00576923 	1.7131e-05 	-0.000530961 	0.274361
0.00576923 	1.7131e-05 	-0.000530961 	0.274361
0.0058194 	1.73226e-05 	-0.000531316 	0.274554
0.0058194 	1.73226e-05 	-0.000531316 	0.274554
0.00591973 	1.76948e-05 	-0.000532077 	0.274917
0.00591973 	1.76948e-05 	-0.000532077 	0.274917
0.0059699 	1.78721e-05 	-0.0005325 	0.275081
0.0059699 	1.78721e-05 	-0.0005325 	0.275081
0.00602007 	1.80494e-05 	-0.000532922 	0.275245
0.00607023 	1.82136e-05 	-0.000533385 	0.275387
0.0061204 	1.83745e-05 	-0.000533858 	0.275523
0.0061204 	1.83745e-05 	-0.000533858 	0.275523
0.00617057 	1.85354e-05 	-0.000534331 	0.27566
0.00622074 	1.86822e-05 	-0.000534828 	0.275775
0.00622074 	1.86822e-05 	-0.000534828 	0.275775
0.0062709 	1.88246e-05 	-0.000535332 	0.275885
0.00632107 	1.8967e-05 	-0.000535836 	0.275994
0.00632107 	1.8967e-05 	-0.000535836 	0.275994
0.00637124 	1.90952e-05 	-0.000536348 	0.276086
0.00637124 	1.90952e-05 	-0.000536348 	0.276086
0.0064214 	1.92169e-05 	-0.000536863 	0.27617
0.0064214 	1.92169e-05 	-0.000536863 	0.27617
0.00647157 	1.93386e-05 	-0.000537379 	0.276253
0.00647157 	1.93386e-05 	-0.000537379 	0.276253
0.00652174 	1.94477e-05 	-0.000537877 	0.276323
0.00657191 	1.95463e-05 	-0.000538361 	0.276382
0.00657191 	1.95463e-05 	-0.000538361 	0.276382
0.00662207 	1.96448e-05 	-0.000538844 	0.27644
0.00667224 	1.97343e-05 	-0.000539317 	0.276489
0.00672241 	1.9807e-05 	-0.000539769 	0.276523
0.00672241 	1.9807e-05 	-0.000539769 	0.276523
0.00677258 	1.98798e-05 	-0.000540221 	0.276557
0.00682274 	1.99497e-05 	-0.000540672 	0.276588
0.00682274 	1.99497e-05 	-0.000540672 	0.276588
0.00687291 	1.99936e-05 	-0.000541105 	0.276597
0.00687291 	1.99936e-05 	-0.000541105 	0.276597
0.00692308 	2.00375e-05 	-0.000541538 	0.276606
0.00697324 	2.00814e-05 	-0.000541971 	0.276615
0.00702341 	2.01e-05 	-0.000542348 	0.276606
0.00707358 	2.0112e-05 	-0.00054271 	0.276591
0.00707358 	2.0112e-05 	-0.00054271 	0.276591
0.00717391 	2.01203e-05 	-0.000543426 	0.276551
0.00717391 	2.01203e-05 	-0.000543426 	0.276551
0.00722408 	2.00954e-05 	-0.000543771 	0.276511
0.00722408 	2.00954e-05 	-0.000543771 	0.276511
0.00727425 	2.00704e-05 	-0.000544116 	0.276472
0.00727425 	2.00704e-05 	-0.000544116 	0.276472
0.00732441 	2.00455e-05 	-0.000544461 	0.276433
0.00732441 	2.00455e-05 	-0.000544461 	0.276433
0.00737458 	1.99789e-05 	-0.000544732 	0.27637
0.00737458 	1.99789e-05 	-0.000544732 	0.27637
0.00742475 	1.99119e-05 	-0.000545003 	0.276307
0.00747492 	1.98449e-05 	-0.000545274 	0.276244
0.00752508 	1.97565e-05 	-0.000545467 	0.276169
0.00752508 	1.97565e-05 	-0.000545467 	0.276169
0.00757525 	1.96466e-05 	-0.000545581 	0.276082
0.00762542 	1.95368e-05 	-0.000545694 	0.275995
0.00767559 	1.94266e-05 	-0.000545807 	0.275907
0.00767559 	1.94266e-05 	-0.000545807 	0.275907
0.00772575 	1.92756e-05 	-0.000545822 	0.275796
0.00777592 	1.91246e-05 	-0.000545837 	0.275685
0.00777592 	1.91246e-05 	-0.000545837 	0.275685
0.00782609 	1.89737e-05 	-0.000545852 	0.275573
0.00787625 	1.88025e-05 	-0.00054577 	0.275448
0.00787625 	1.88025e-05 	-0.00054577 	0.275448
0.00792642 	1.86166e-05 	-0.000545618 	0.275314
0.00797659 	1.84307e-05 	-0.000545466 	0.275179
0.00802676 	1.82389e-05 	-0.000545281 	0.275039
0.00802676 	1.82389e-05 	-0.000545281 	0.275039
0.00807692 	1.80245e-05 	-0.000544971 	0.274882
0.00807692 	1.80245e-05 	-0.000544971 	0.274882
0.00812709 	1.78101e-05 	-0.000544662 	0.274724
0.00817726 	1.75957e-05 	-0.000544352 	0.274566
0.00817726 	1.75957e-05 	-0.000544352 	0.274566
0.00822742 	1.73587e-05 	-0.000543955 	0.274388
0.00827759 	1.71193e-05 	-0.000543549 	0.274208
0.00827759 	1.71193e-05 	-0.000543549 	0.274208
0.00832776 	1.68798e-05 	-0.000543142 	0.274028
0.00832776 	1.68798e-05 	-0.000543142 	0.274028
0.00837793 	1.66264e-05 	-0.000542653 	0.273833
0.00842809 	1.63653e-05 	-0.000542119 	0.27363
0.00842809 	1.63653e-05 	-0.000542119 	0.27363
0.00847826 	1.61042e-05 	-0.000541586 	0.273427
0.00847826 	1.61042e-05 	-0.000541586 	0.273427
0.0085786 	1.55553e-05 	-0.000540335 	0.272989
0.0085786 	1.55553e-05 	-0.000540335 	0.272989
0.00862876 	1.52758e-05 	-0.000539676 	0.272763
0.00867893 	1.49915e-05 	-0.000538977 	0.272531
0.0087291 	1.46965e-05 	-0.000538193 	0.272283
0.00877926 	1.44016e-05 	-0.000537409 	0.272035
0.00882943 	1.41037e-05 	-0.000536596 	0.271782
0.0088796 	1.37959e-05 	-0.000535688 	0.271512
0.0088796 	1.37959e-05 	-0.000535688 	0.271512
0.00892977 	1.34882e-05 	-0.00053478 	0.271242
0.00892977 	1.34882e-05 	-0.00053478 	0.271242
0.00897993 	1.31783e-05 	-0.000533847 	0.270967
0.00897993 	1.31783e-05 	-0.000533847 	0.270967
0.0090301 	1.28602e-05 	-0.000532816 	0.270675
0.00908027 	1.2542e-05 	-0.000531785 	0.270382
0.00908027 	1.2542e-05 	-0.000531785 	0.270382
0.00913043 	1.22219e-05 	-0.000530725 	0.270084
0.0091806 	1.18955e-05 	-0.000529571 	0.269769
0.0091806 	1.18955e-05 	-0.000529571 	0.269769
0.00923077 	1.15691e-05 	-0.000528417 	0.269453
0.00928094 	1.12407e-05 	-0.000527225 	0.269131
0.00928094 	1.12407e-05 	-0.000527225 	0.269131
0.0093311 	1.09078e-05 	-0.000525949 	0.268793
0.00938127 	1.0575e-05 	-0.000524672 	0.268454
0.00938127 	1.0575e-05 	-0.000524672 	0.268454
0.00943144 	1.02401e-05 	-0.000523341 	0.268106
0.00943144 	1.02401e-05 	-0.000523341 	0.268106
0.00948161 	9.90255e-06 	-0.000521941 	0.267745
0.00948161 	9.90255e-06 	-0.000521941 	0.267745
0.00953177 	9.565e-06 	-0.000520541 	0.267383
0.00953177 	9.565e-06 	-0.000520541 	0.267383
0.00958194 	9.22541e-06 	-0.000519064 	0.267007
0.00958194 	9.22541e-06 	-0.000519064 	0.267007
0.00963211 	8.88457e-06 	-0.00051754 	0.266623
0.00968227 	8.54373e-06 	-0.000516016 	0.266238
0.00968227 	8.54373e-06 	-0.000516016 	0.266238
0.00973244 	8.20118e-06 	-0.000514385 	0.265833
0.00978261 	7.85833e-06 	-0.000512735 	0.265424
0.00978261 	7.85833e-06 	-0.000512735 	0.265424
0.00983278 	7.51536e-06 	-0.000511069 	0.265013
0.00983278 	7.51536e-06 	-0.000511069 	0.265013
0.00988294 	7.17161e-06 	-0.000509291 	0.26458
0.00993311 	6.82785e-06 	-0.000507512 	0.264147
0.00993311 	6.82785e-06 	-0.000507512 	0.264147
0.00998328 	6.48413e-06 	-0.000505674 	0.263702
0.0100334 	6.14045e-06 	-0.000503763 	0.263245
0.0100836 	5.79677e-06 	-0.000501852 	0.262787
0.0100836 	5.79677e-06 	-0.000501852 	0.262787
0.0101338 	5.45387e-06 	-0.000499829 	0.262308
0.0101839 	5.11114e-06 	-0.000497782 	0.261825
0.0101839 	5.11114e-06 	-0.000497782 	0.261825
0.0102341 	4.76883e-06 	-0.0004957 	0.261335
0.0102341 	4.76883e-06 	-0.0004957 	0.261335
0.0102843 	4.42781e-06 	-0.000493512 	0.260826
0.0103344 	4.0868e-06 	-0.000491323 	0.260317
0.0103344 	4.0868e-06 	-0.000491323 	0.260317
0.0103846 	3.7475e-06 	-0.00048903 	0.259789
0.0103846 	3.7475e-06 	-0.00048903 	0.259789
0.0104348 	3.4089e-06 	-0.000486694 	0.259253
0.0104348 	3.4089e-06 	-0.000486694 	0.259253
0.0104849 	3.07096e-06 	-0.000484324 	0.258711
0.0104849 	3.07096e-06 	-0.000484324 	0.258711
0.0105351 	2.73541e-06 	-0.000481834 	0.258147
0.0105853 	2.39986e-06 	-0.000479344 	0.257584
0.0105853 	2.39986e-06 	-0.000479344 	0.257584
0.0106856 	1.73518e-06 	-0.000474079 	0.256406
0.0106856 	1.73518e-06 	-0.000474079 	0.256406
0.0107358 	1.40478e-06 	-0.000471366 	0.255803
0.010786 	1.07699e-06 	-0.000468546 	0.255181
0.010786 	1.07699e-06 	-0.000468546 	0.255181
0.0108361 	7.49226e-07 	-0.000465725 	0.254559
0.0108863 	4.26025e-07 	-0.000462729 	0.253907
0.0108863 	4.26025e-07 	-0.000462729 	0.253907
0.0109365 	1.02824e-07 	-0.000459733 	0.253255
0.0109365 	1.02824e-07 	-0.000459733 	0.253255
0.0109866 	-2.16925e-07 	-0.000456611 	0.25258
0.0110368 	-5.351e-07 	-0.000453432 	0.251896
0.0110368 	-5.351e-07 	-0.000453432 	0.251896
0.011087 	-8.51036e-07 	-0.000450173 	0.251198
0.011087 	-8.51036e-07 	-0.000450173 	0.251198
0.0111371 	-1.16372e-06 	-0.0004468 	0.250481
0.0111873 	-1.47539e-06 	-0.000443391 	0.249757
0.0111873 	-1.47539e-06 	-0.000443391 	0.249757
0.0112375 	-1.78208e-06 	-0.00043981 	0.249005
0.0112876 	-2.08877e-06 	-0.000436228 	0.248253
0.0112876 	-2.08877e-06 	-0.000436228 	0.248253
0.0113378 	-2.3892e-06 	-0.000432428 	0.247465
0.0113378 	-2.3892e-06 	-0.000432428 	0.247465
0.011388 	-2.68943e-06 	-0.000428621 	0.246676
0.0114381 	-2.98421e-06 	-0.000424609 	0.245856
0.0114381 	-2.98421e-06 	-0.000424609 	0.245856
0.0114883 	-3.2777e-06 	-0.000420548 	0.245028
0.0115385 	-3.56628e-06 	-0.000416287 	0.24417
0.0115385 	-3.56628e-06 	-0.000416287 	0.24417
0.0115886 	-3.85262e-06 	-0.000411933 	0.243298
0.0116388 	-4.13424e-06 	-0.000407376 	0.242398
0.0116388 	-4.13424e-06 	-0.000407376 	0.242398
0.011689 	-4.41275e-06 	-0.000402684 	0.241479
0.0117391 	-4.68674e-06 	-0.000397777 	0.240532
0.0117893 	-4.95711e-06 	-0.000392697 	0.239561
0.0118395 	-5.22325e-06 	-0.000387381 	0.238559
0.0118395 	-5.22325e-06 	-0.000387381 	0.238559
0.0118896 	-5.48582e-06 	-0.000381867 	0.237531
0.0119398 	-5.74434e-06 	-0.000376093 	0.236467
0.0119398 	-5.74434e-06 	-0.000376093 	0.236467
0.01199 	-5.99976e-06 	-0.000370117 	0.235377
0.0120401 	-6.25097e-06 	-0.000363845 	0.234245
0.0120401 	-6.25097e-06 	-0.000363845 	0.234245
0.0120903 	-6.49965e-06 	-0.000357394 	0.233088
0.0120903 	-6.49965e-06 	-0.000357394 	0.233088
0.0121906 	-6.98545e-06 	-0.000343668 	0.23065
0.0121906 	-6.98545e-06 	-0.000343668 	0.23065
0.0122408 	-7.22153e-06 	-0.00033633 	0.229357
0.012291 	-7.4565e-06 	-0.000328915 	0.228052
0.012291 	-7.4565e-06 	-0.000328915 	0.228052
0.0123411 	-7.68416e-06 	-0.00032102 	0.226666
0.0123913 	-7.91034e-06 	-0.000313033 	0.225263
0.0123913 	-7.91034e-06 	-0.000313033 	0.225263
0.0124415 	-8.13029e-06 	-0.000304664 	0.22379
0.0124415 	-8.13029e-06 	-0.000304664 	0.22379
0.0124916 	-8.34686e-06 	-0.000296103 	0.22228
0.0124916 	-8.34686e-06 	-0.000296103 	0.22228
0.0125418 	-8.55866e-06 	-0.000287274 	0.220716
0.012592 	-8.76465e-06 	-0.000278154 	0.219088
0.0126421 	-8.96776e-06 	-0.000268889 	0.217428
0.0126421 	-8.96776e-06 	-0.000268889 	0.217428
0.0126923 	-9.162e-06 	-0.000259243 	0.215671
0.0127425 	-9.35311e-06 	-0.000249484 	0.213881
0.0127425 	-9.35311e-06 	-0.000249484 	0.213881
0.0127926 	-9.53691e-06 	-0.000239468 	0.212014
0.0128428 	-9.71403e-06 	-0.000229273 	0.210077
0.0128428 	-9.71403e-06 	-0.000229273 	0.210077
0.0129431 	-1.00482e-05 	-0.000208437 	0.206003
0.0129431 	-1.00482e-05 	-0.000208437 	0.206003
0.0129933 	-1.02044e-05 	-0.000197852 	0.203859
0.0130435 	-1.03527e-05 	-0.000187181 	0.20164
0.0130435 	-1.03527e-05 	-0.000187181 	0.20164
0.0131438 	-1.06194e-05 	-0.000165744 	0.196928
0.0131438 	-1.06194e-05 	-0.000165744 	0.196928
0.013194 	-1.07385e-05 	-0.000155048 	0.194444
0.0132441 	-1.08447e-05 	-0.000144447 	0.19185
0.0132441 	-1.08447e-05 	-0.000144447 	0.19185
0.0132943 	-1.09419e-05 	-0.000133932 	0.189181
0.0133445 	-1.10261e-05 	-0.000123567 	0.186403
0.0133445 	-1.10261e-05 	-0.000123567 	0.186403
0.0133946 	-1.10939e-05 	-0.000113443 	0.183493
0.0133946 	-1.10939e-05 	-0.000113443 	0.183493
0.0134448 	-1.11499e-05 	-0.000103513 	0.180488
0.0134448 	-1.11499e-05 	-0.000103513 	0.180488
0.013495 	-1.11925e-05 	-9.38101e-05 	0.177379
0.0135452 	-1.1212e-05 	-8.45354e-05 	0.174092
0.0135452 	-1.1212e-05 	-8.45354e-05 	0.174092
0.0135953 	-1.12154e-05 	-7.55689e-05 	0.170684
0.0135953 	-1.12154e-05 	-7.55689e-05 	0.170684
0.0136455 	-1.12016e-05 	-6.69378e-05 	0.167147
0.0136455 	-1.12016e-05 	-6.69378e-05 	0.167147
0.0136957 	-1.11656e-05 	-5.87405e-05 	0.163445
0.0136957 	-1.11656e-05 	-5.87405e-05 	0.163445
0.0137458 	-1.11021e-05 	-5.10888e-05 	0.159534
0.013796 	-1.10161e-05 	-4.38851e-05 	0.15545
0.013796 	-1.10161e-05 	-4.38851e-05 	0.15545
0.0138462 	-1.0906e-05 	-3.71598e-05 	0.151181
0.0138462 	-1.0906e-05 	-3.71598e-05 	0.151181
0.0138963 	-1.07698e-05 	-3.09441e-05 	0.14671
0.0139465 	-1.05964e-05 	-2.54298e-05 	0.14195
0.0139465 	-1.05964e-05 	-2.54298e-05 	0.14195
0.0139967 	-1.03913e-05 	-2.04743e-05 	0.136942
0.0139967 	-1.03913e-05 	-2.04743e-05 	0.136942
0.0140468 	-1.01532e-05 	-1.60772e-05 	0.131674
0.0140468 	-1.01532e-05 	-1.60772e-05 	0.131674
0.014097 	-9.87933e-06 	-1.22472e-05 	0.126124
0.0141472 	-9.56691e-06 	-8.98449e-06 	0.120268
0.0141472 	-9.56691e-06 	-8.98449e-06 	0.120268
0.0141973 	-9.2125e-06 	-6.27492e-06 	0.11408
0.0142475 	-8.80509e-06 	-4.16151e-06 	0.10746
0.0142977 	-8.3503e-06 	-2.51227e-06 	0.100424
0.0142977 	-8.3503e-06 	-2.51227e-06 	0.100424
0.0143478 	-7.85056e-06 	-1.28187e-06 	0.0929605
0.014398 	-7.31098e-06 	-4.29373e-07 	0.0850881
0.014398 	-7.31098e-06 	-4.29373e-07 	0.0850881
0.0144482 	-6.73908e-06 	9.71944e-08 	0.0768643
0.0144983 	-6.14445e-06 	3.62013e-07 	0.0683933
0.0144983 	-6.14445e-06 	3.62013e-07 	0.0683933
0.0145485 	-5.53779e-06 	4.36984e-07 	0.0598259
0.0145485 	-5.53779e-06 	4.36984e-07 	0.0598259
0.0145987 	-4.92897e-06 	3.94838e-07 	0.0513437
0.0146488 	-4.32436e-06 	3.00185e-07 	0.0431298
0.014699 	-3.72475e-06 	2.01172e-07 	0.0353342
0.014699 	-3.72475e-06 	2.01172e-07 	0.0353342
0.0147492 	-3.12358e-06 	1.25853e-07 	0.0280537
0.0147993 	-2.50307e-06 	8.24218e-08 	0.0213339
0.0147993 	-2.50307e-06 	8.24218e-08 	0.0213339
0.0148495 	-1.82255e-06 	6.73168e-08 	0.0151851
0.0148495 	-1.82255e-06 	6.73168e-08 	0.0151851
0.0148997 	-1.06214e-06 	5.4744e-08 	0.00959812
0.0148997 	-1.06214e-06 	5.4744e-08 	0.00959812
0.0149498 	-3.66147e-07 	3.41856e-08 	0.00455173
0.0149498 	-3.66147e-07 	3.41856e-08 	0.00455173
0.015 	0 	0 	0
0.015 	0 	0 	0
