-0.0075 	373
-0.00715932 	361.428
-0.00676191 	359.624
-0.00629832 	358.899
-0.00575752 	358.449
-0.00512667 	358.093
-0.00439077 	357.772
-0.00353231 	357.46
-0.00253089 	357.138
-0.00136271 	356.789
0 	356.402
0.00136271 	355.978
0.00253089 	355.533
0.00353231 	355.074
0.00439077 	354.587
0.00512667 	354.033
0.00575752 	353.329
0.00629832 	352.288
0.00676191 	350.045
0.00715932 	338.7
0.0075 	313
