-0.0075 	373
-0.00715932 	361.33
-0.00676191 	359.51
-0.00629832 	358.779
-0.00575752 	358.326
-0.00512667 	357.968
-0.00439077 	357.646
-0.00353231 	357.333
-0.00253089 	357.01
-0.00136271 	356.661
0 	356.273
0.00136271 	355.85
0.00253089 	355.405
0.00353231 	354.946
0.00439077 	354.46
0.00512667 	353.906
0.00575752 	353.204
0.00629832 	352.165
0.00676191 	349.928
0.00715932 	338.616
0.0075 	313
