-0.0075 	0 	0 	0
-0.00745622 	-0.0012281 	-1.84102e-05 	0.012931
-0.00741165 	-0.00266744 	-3.11933e-05 	0.0274677
-0.00736628 	-0.00395215 	-4.43274e-05 	0.0417178
-0.0073201 	-0.00502961 	-4.87412e-05 	0.0546389
-0.00727309 	-0.00597384 	-4.67933e-05 	0.0663671
-0.00722524 	-0.00682696 	-4.10283e-05 	0.0772139
-0.00717653 	-0.00760617 	-3.21147e-05 	0.0873241
-0.00712695 	-0.00831694 	-2.064e-05 	0.0967757
-0.00707647 	-0.00895979 	-6.99751e-06 	0.105616
-0.0070251 	-0.00953393 	8.6163e-06 	0.11388
-0.0069728 	-0.0100389 	2.61095e-05 	0.121596
-0.00691956 	-0.0104754 	4.51703e-05 	0.128795
-0.00686537 	-0.0108448 	6.55619e-05 	0.135511
-0.00681021 	-0.0111496 	8.71982e-05 	0.141775
-0.00675406 	-0.0113927 	0.000109958 	0.147617
-0.0066969 	-0.0115777 	0.000133732 	0.153067
-0.00663871 	-0.0117095 	0.000158373 	0.158153
-0.00657949 	-0.0117932 	0.000183725 	0.162904
-0.0065192 	-0.0118331 	0.00020964 	0.16735
-0.00645783 	-0.0118333 	0.000236093 	0.171516
-0.00639535 	-0.0117978 	0.000263044 	0.17543
-0.00633176 	-0.0117307 	0.00029034 	0.179112
-0.00626703 	-0.0116355 	0.00031795 	0.182584
-0.00620114 	-0.0115153 	0.000345827 	0.185873
-0.00613406 	-0.0113726 	0.000373964 	0.189001
-0.00606579 	-0.0112093 	0.000402444 	0.191987
-0.00599629 	-0.0110274 	0.000431261 	0.194846
-0.00592554 	-0.0108289 	0.000460345 	0.19759
-0.00585352 	-0.0106158 	0.000489435 	0.20023
-0.00578022 	-0.0103902 	0.000518352 	0.202774
-0.00570559 	-0.0101543 	0.00054715 	0.205234
-0.00562963 	-0.00990992 	0.000575854 	0.207618
-0.00555231 	-0.00965942 	0.000604499 	0.209932
-0.0054736 	-0.00940603 	0.000633423 	0.212183
-0.00539348 	-0.00915288 	0.000663345 	0.214375
-0.00531193 	-0.00890112 	0.000694695 	0.21651
-0.00522891 	-0.0086494 	0.000726801 	0.218592
-0.0051444 	-0.00839585 	0.00075855 	0.220624
-0.00505838 	-0.00814055 	0.000789574 	0.222607
-0.00497081 	-0.00788572 	0.000820199 	0.224542
-0.00488168 	-0.00763364 	0.000849983 	0.226433
-0.00479094 	-0.0073859 	0.00087463 	0.228281
-0.00469858 	-0.00714642 	0.000890986 	0.230091
-0.00460456 	-0.00691722 	0.000932384 	0.231862
-0.00450886 	-0.00667179 	0.00103049 	0.233553
-0.00441144 	-0.00634374 	0.00113129 	0.23507
-0.00431227 	-0.00587858 	0.00109916 	0.236354
-0.00421133 	-0.00533678 	0.00082719 	0.237573
-0.00410857 	-0.00495449 	0.000514321 	0.239162
-0.00400397 	-0.00491901 	0.000543347 	0.24125
-0.0038975 	-0.00509989 	0.000944246 	0.243262
-0.00378912 	-0.0052288 	0.00145793 	0.244947
-0.00367879 	-0.00512695 	0.00165922 	0.24714
-0.00356649 	-0.00476995 	0.00128786 	0.250315
-0.00345217 	-0.00431591 	0.000831768 	0.253459
-0.0033358 	-0.00392368 	0.000750631 	0.255705
-0.00321735 	-0.00362963 	0.000928436 	0.257217
-0.00309677 	-0.0033956 	0.00107891 	0.258371
-0.00297403 	-0.00317637 	0.00108015 	0.259432
-0.00284909 	-0.00296053 	0.00105787 	0.260463
-0.0027219 	-0.00275039 	0.00106408 	0.261448
-0.00259244 	-0.00254764 	0.00105575 	0.26238
-0.00246065 	-0.00235382 	0.001051 	0.263257
-0.00232651 	-0.00216509 	0.00111377 	0.26405
-0.00218995 	-0.00196147 	0.00122484 	0.264632
-0.00205095 	-0.0017055 	0.00123709 	0.264811
-0.00190946 	-0.00137071 	0.00100454 	0.264613
-0.00176543 	-0.00102174 	0.000608545 	0.264843
-0.00161881 	-0.000851127 	0.000609288 	0.266722
-0.00146957 	-0.000874464 	0.00103122 	0.269407
-0.00131765 	-0.00090609 	0.00121394 	0.271283
-0.001163 	-0.000890127 	0.00103588 	0.272224
-0.00100559 	-0.000887011 	0.000844572 	0.272367
-0.000845345 	-0.00092853 	0.0008387 	0.271635
-0.000682232 	-0.000964837 	0.000967519 	0.270136
-0.000516194 	-0.000941738 	0.00114573 	0.269324
-0.000347178 	-0.000896861 	0.00088954 	0.27222
-0.000175132 	-0.000888392 	0.000430822 	0.278026
0 	-0.000926837 	0.000495969 	0.282644
0.000175132 	-0.000989306 	0.000683154 	0.284874
0.000347178 	-0.00107585 	0.00060658 	0.285599
0.000516194 	-0.00119842 	0.000500338 	0.285761
0.000682232 	-0.00132436 	0.000455927 	0.285811
0.000845345 	-0.00143785 	0.000409504 	0.285799
0.00100559 	-0.00154801 	0.000364524 	0.28569
0.001163 	-0.00165997 	0.000318981 	0.285477
0.00131765 	-0.00177378 	0.000273556 	0.28516
0.00146957 	-0.00188437 	0.000228572 	0.284733
0.00161881 	-0.00198138 	0.000186391 	0.284178
0.00176543 	-0.0020574 	0.000148035 	0.283466
0.00190946 	-0.00211969 	0.000109811 	0.282589
0.00205095 	-0.00218786 	6.37683e-05 	0.281603
0.00218995 	-0.00229232 	6.59679e-05 	0.280484
0.00232651 	-0.00244754 	0.000135383 	0.278897
0.00246065 	-0.00260843 	7.54437e-05 	0.276422
0.00259244 	-0.00274363 	-0.00020839 	0.272982
0.0027219 	-0.00289757 	-0.000370569 	0.269886
0.00284909 	-0.00308272 	-0.000225445 	0.268376
0.00297403 	-0.00325082 	-5.76076e-05 	0.267733
0.00309677 	-0.00338724 	-5.31949e-05 	0.266949
0.00321735 	-0.00351906 	-0.000142534 	0.265775
0.0033358 	-0.00365907 	-0.000207498 	0.264351
0.00345217 	-0.00379669 	-0.000223983 	0.262838
0.00356649 	-0.00392493 	-0.000233281 	0.261268
0.00367879 	-0.00404516 	-0.000247811 	0.259628
0.00378912 	-0.00416228 	-0.000242728 	0.257911
0.0038975 	-0.00428749 	-0.000251077 	0.256126
0.00400397 	-0.00437392 	-0.00034807 	0.254215
0.00410857 	-0.00428743 	-0.000434111 	0.251949
0.00421133 	-0.00397359 	-0.00035063 	0.249042
0.00431227 	-0.00349104 	-9.53521e-05 	0.245466
0.00441144 	-0.00317097 	1.78668e-05 	0.242139
0.00450886 	-0.00333555 	-0.000172963 	0.239862
0.00460456 	-0.00376295 	-0.000358158 	0.23811
0.00469858 	-0.00411798 	-0.000383131 	0.236194
0.00479094 	-0.0043154 	-0.000314459 	0.233946
0.00488168 	-0.00440472 	-0.000237963 	0.231466
0.00497081 	-0.00446304 	-0.000231845 	0.228871
0.00505838 	-0.00451129 	-0.0002713 	0.226187
0.0051444 	-0.00451981 	-0.000268218 	0.22335
0.00522891 	-0.00447287 	-0.000207157 	0.22023
0.00531193 	-0.0043975 	-0.000150661 	0.216713
0.00539348 	-0.0043579 	-0.000167071 	0.212883
0.0054736 	-0.00440722 	-0.000251454 	0.209032
0.00555231 	-0.00452257 	-0.000288222 	0.205438
0.00562963 	-0.00463374 	-0.000237895 	0.202074
0.00570559 	-0.00469334 	-0.000184321 	0.198669
0.00578022 	-0.00469528 	-0.000164002 	0.19501
0.00585352 	-0.00465949 	-0.000158871 	0.191031
0.00592554 	-0.00461145 	-0.00014986 	0.186767
0.00599629 	-0.00457271 	-0.000139684 	0.182273
0.00606579 	-0.00455299 	-0.000141152 	0.177571
0.00613406 	-0.00454466 	-0.000144141 	0.172663
0.00620114 	-0.00453245 	-0.000136761 	0.167551
0.00626703 	-0.00450552 	-0.000123752 	0.162217
0.00633176 	-0.00446055 	-0.000111881 	0.156633
0.00639535 	-0.00439861 	-0.000102455 	0.150779
0.00645783 	-0.00432094 	-9.47981e-05 	0.144635
0.0065192 	-0.00422739 	-8.80514e-05 	0.138183
0.00657949 	-0.00411706 	-8.14928e-05 	0.131405
0.00663871 	-0.00398941 	-7.51408e-05 	0.124286
0.0066969 	-0.00384357 	-6.91589e-05 	0.116822
0.00675406 	-0.00367778 	-6.32712e-05 	0.109014
0.00681021 	-0.00349172 	-5.73615e-05 	0.100874
0.00686537 	-0.00328913 	-5.15398e-05 	0.0924329
0.00691956 	-0.00307948 	-4.60862e-05 	0.083771
0.0069728 	-0.00287562 	-4.12006e-05 	0.0750277
0.0070251 	-0.00268791 	-3.65935e-05 	0.0663768
0.00707647 	-0.00252104 	-3.21658e-05 	0.0579993
0.00712695 	-0.0023719 	-2.79518e-05 	0.0500459
0.00717653 	-0.00222755 	-2.37887e-05 	0.0425981
0.00722524 	-0.00206539 	-1.95388e-05 	0.0356491
0.00727309 	-0.00185329 	-1.52261e-05 	0.0291068
0.0073201 	-0.00154645 	-1.11676e-05 	0.0228018
0.00736628 	-0.00107884 	-6.44631e-06 	0.0164689
0.00741165 	-0.000490547 	-3.18449e-06 	0.0100822
0.00745622 	-4.92739e-05 	-1.3763e-06 	0.00431936
0.0075 	0 	0 	0
