0 	0 	0 	0
0 	8.79974e-36 	-3.31847e-36 	1.85111e-31
5.01672e-05 	6.96632e-07 	-3.54312e-07 	0.017269
5.01672e-05 	6.96632e-07 	-3.54312e-07 	0.017269
0.000100334 	4.1036e-07 	-1.09301e-06 	0.0332286
0.000150502 	-1.06056e-07 	-2.26499e-06 	0.0480437
0.000150502 	-1.06056e-07 	-2.26499e-06 	0.0480437
0.000200669 	-5.35336e-07 	-3.85241e-06 	0.061801
0.000200669 	-5.35336e-07 	-3.85241e-06 	0.061801
0.000250836 	-8.99488e-07 	-5.86007e-06 	0.0745779
0.000301003 	-1.24074e-06 	-8.27576e-06 	0.0864388
0.000301003 	-1.24074e-06 	-8.27576e-06 	0.0864388
0.000351171 	-1.57091e-06 	-1.10955e-05 	0.0974252
0.000401338 	-1.8937e-06 	-1.43239e-05 	0.107557
0.000451505 	-2.20827e-06 	-1.7981e-05 	0.116848
0.000451505 	-2.20827e-06 	-1.7981e-05 	0.116848
0.000501672 	-2.51052e-06 	-2.21001e-05 	0.125324
0.000551839 	-2.79498e-06 	-2.67165e-05 	0.133031
0.000551839 	-2.79498e-06 	-2.67165e-05 	0.133031
0.000602007 	-3.05659e-06 	-3.18587e-05 	0.14003
0.000602007 	-3.05659e-06 	-3.18587e-05 	0.14003
0.000652174 	-3.2919e-06 	-3.75482e-05 	0.146391
0.000652174 	-3.2919e-06 	-3.75482e-05 	0.146391
0.000702341 	-3.49935e-06 	-4.3804e-05 	0.152188
0.000702341 	-3.49935e-06 	-4.3804e-05 	0.152188
0.000752508 	-3.6789e-06 	-5.06412e-05 	0.15749
0.000802676 	-3.83107e-06 	-5.80741e-05 	0.162353
0.000852843 	-3.95329e-06 	-6.6197e-05 	0.166769
0.000852843 	-3.95329e-06 	-6.6197e-05 	0.166769
0.00090301 	-4.05146e-06 	-7.48845e-05 	0.170848
0.00090301 	-4.05146e-06 	-7.48845e-05 	0.170848
0.000953177 	-4.12736e-06 	-8.40878e-05 	0.174629
0.00100334 	-4.18283e-06 	-9.37568e-05 	0.178149
0.00100334 	-4.18283e-06 	-9.37568e-05 	0.178149
0.00105351 	-4.21969e-06 	-0.000103843 	0.181438
0.00105351 	-4.21969e-06 	-0.000103843 	0.181438
0.00110368 	-4.23927e-06 	-0.000114311 	0.184521
0.00115385 	-4.23934e-06 	-0.000125202 	0.187376
0.00120401 	-4.22655e-06 	-0.000136365 	0.19008
0.00120401 	-4.22655e-06 	-0.000136365 	0.19008
0.00130435 	-4.16756e-06 	-0.000159376 	0.195095
0.00130435 	-4.16756e-06 	-0.000159376 	0.195095
0.00135452 	-4.12078e-06 	-0.000171212 	0.197399
0.00135452 	-4.12078e-06 	-0.000171212 	0.197399
0.00140468 	-4.06457e-06 	-0.000183199 	0.199594
0.00145485 	-4.00097e-06 	-0.000195288 	0.201705
0.00145485 	-4.00097e-06 	-0.000195288 	0.201705
0.00150502 	-3.93049e-06 	-0.000207461 	0.203738
0.00150502 	-3.93049e-06 	-0.000207461 	0.203738
0.00155518 	-3.85e-06 	-0.000219713 	0.205664
0.00155518 	-3.85e-06 	-0.000219713 	0.205664
0.00160535 	-3.76393e-06 	-0.000231979 	0.20753
0.00160535 	-3.76393e-06 	-0.000231979 	0.20753
0.00165552 	-3.67299e-06 	-0.000244246 	0.209344
0.00165552 	-3.67299e-06 	-0.000244246 	0.209344
0.00170569 	-3.57573e-06 	-0.000256476 	0.211086
0.00170569 	-3.57573e-06 	-0.000256476 	0.211086
0.00175585 	-3.47375e-06 	-0.000268625 	0.212773
0.00175585 	-3.47375e-06 	-0.000268625 	0.212773
0.00180602 	-3.3686e-06 	-0.000280701 	0.214422
0.00180602 	-3.3686e-06 	-0.000280701 	0.214422
0.00185619 	-3.25905e-06 	-0.000292641 	0.216017
0.00185619 	-3.25905e-06 	-0.000292641 	0.216017
0.00190635 	-3.14583e-06 	-0.00030441 	0.217567
0.00190635 	-3.14583e-06 	-0.00030441 	0.217567
0.00195652 	-3.03036e-06 	-0.000316058 	0.219088
0.00195652 	-3.03036e-06 	-0.000316058 	0.219088
0.00200669 	-2.91107e-06 	-0.00032746 	0.220562
0.00200669 	-2.91107e-06 	-0.00032746 	0.220562
0.00205686 	-2.78922e-06 	-0.000338645 	0.222003
0.00210702 	-2.66567e-06 	-0.000349686 	0.223423
0.00210702 	-2.66567e-06 	-0.000349686 	0.223423
0.00215719 	-2.53826e-06 	-0.000360321 	0.224793
0.00220736 	-2.40945e-06 	-0.000370778 	0.226144
0.00225753 	-2.27841e-06 	-0.000380952 	0.227468
0.00225753 	-2.27841e-06 	-0.000380952 	0.227468
0.00230769 	-2.14486e-06 	-0.000390756 	0.228758
0.00230769 	-2.14486e-06 	-0.000390756 	0.228758
0.00235786 	-2.01025e-06 	-0.0004004 	0.230035
0.00235786 	-2.01025e-06 	-0.0004004 	0.230035
0.00240803 	-1.87253e-06 	-0.000409521 	0.231271
0.00240803 	-1.87253e-06 	-0.000409521 	0.231271
0.00245819 	-1.73378e-06 	-0.00041845 	0.232493
0.00245819 	-1.73378e-06 	-0.00041845 	0.232493
0.00250836 	-1.59295e-06 	-0.00042699 	0.233688
0.00250836 	-1.59295e-06 	-0.00042699 	0.233688
0.00255853 	-1.45034e-06 	-0.000435174 	0.234859
0.0026087 	-1.30646e-06 	-0.000443103 	0.236014
0.0026087 	-1.30646e-06 	-0.000443103 	0.236014
0.00265886 	-1.16013e-06 	-0.00045052 	0.237136
0.00270903 	-1.01321e-06 	-0.000457815 	0.238251
0.00270903 	-1.01321e-06 	-0.000457815 	0.238251
0.0027592 	-8.63112e-07 	-0.000464454 	0.239327
0.00280936 	-7.12471e-07 	-0.000470988 	0.240397
0.00280936 	-7.12471e-07 	-0.000470988 	0.240397
0.00285953 	-5.58934e-07 	-0.000476956 	0.241434
0.00285953 	-5.58934e-07 	-0.000476956 	0.241434
0.0029097 	-4.04319e-07 	-0.000482733 	0.24246
0.0029097 	-4.04319e-07 	-0.000482733 	0.24246
0.00295987 	-2.4699e-07 	-0.000488028 	0.243458
0.00295987 	-2.4699e-07 	-0.000488028 	0.243458
0.00301003 	-8.81091e-08 	-0.000493074 	0.244441
0.0030602 	7.33398e-08 	-0.000497707 	0.245401
0.00311037 	2.36665e-07 	-0.000502066 	0.246343
0.00311037 	2.36665e-07 	-0.000502066 	0.246343
0.00316054 	4.02432e-07 	-0.000506068 	0.247264
0.00316054 	4.02432e-07 	-0.000506068 	0.247264
0.00326087 	7.40384e-07 	-0.000513213 	0.24905
0.00326087 	7.40384e-07 	-0.000513213 	0.24905
0.00331104 	9.12642e-07 	-0.000516386 	0.249916
0.0033612 	1.0875e-06 	-0.000519263 	0.25076
0.0033612 	1.0875e-06 	-0.000519263 	0.25076
0.00341137 	1.26462e-06 	-0.000521949 	0.251589
0.00341137 	1.26462e-06 	-0.000521949 	0.251589
0.00346154 	1.44518e-06 	-0.000524347 	0.252394
0.00346154 	1.44518e-06 	-0.000524347 	0.252394
0.00351171 	1.62805e-06 	-0.000526614 	0.253188
0.00356187 	1.81598e-06 	-0.000528595 	0.253956
0.00356187 	1.81598e-06 	-0.000528595 	0.253956
0.00361204 	2.00551e-06 	-0.000530506 	0.254718
0.00366221 	2.20187e-06 	-0.000532125 	0.25545
0.00366221 	2.20187e-06 	-0.000532125 	0.25545
0.00371237 	2.39847e-06 	-0.000533733 	0.256182
0.00371237 	2.39847e-06 	-0.000533733 	0.256182
0.00376254 	2.60287e-06 	-0.000535035 	0.256881
0.00376254 	2.60287e-06 	-0.000535035 	0.256881
0.00381271 	2.80726e-06 	-0.000536336 	0.257581
0.00381271 	2.80726e-06 	-0.000536336 	0.257581
0.00386288 	3.0172e-06 	-0.000537406 	0.258254
0.00391304 	3.22828e-06 	-0.000538429 	0.258921
0.00391304 	3.22828e-06 	-0.000538429 	0.258921
0.00396321 	3.4426e-06 	-0.000539306 	0.259569
0.00401338 	3.65915e-06 	-0.000540083 	0.260204
0.00401338 	3.65915e-06 	-0.000540083 	0.260204
0.00406355 	3.8772e-06 	-0.000540794 	0.260829
0.00406355 	3.8772e-06 	-0.000540794 	0.260829
0.00411371 	4.09852e-06 	-0.00054136 	0.261432
0.00411371 	4.09852e-06 	-0.00054136 	0.261432
0.00421405 	4.54528e-06 	-0.000542315 	0.262606
0.00421405 	4.54528e-06 	-0.000542315 	0.262606
0.00426421 	4.77075e-06 	-0.000542704 	0.263177
0.00426421 	4.77075e-06 	-0.000542704 	0.263177
0.00431438 	4.99837e-06 	-0.000543002 	0.263727
0.00431438 	4.99837e-06 	-0.000543002 	0.263727
0.00436455 	5.22726e-06 	-0.000543248 	0.264265
0.00436455 	5.22726e-06 	-0.000543248 	0.264265
0.00441472 	5.45673e-06 	-0.00054347 	0.264796
0.00441472 	5.45673e-06 	-0.00054347 	0.264796
0.00446488 	5.68818e-06 	-0.000543609 	0.265302
0.00446488 	5.68818e-06 	-0.000543609 	0.265302
0.00451505 	5.91963e-06 	-0.000543747 	0.265808
0.00451505 	5.91963e-06 	-0.000543747 	0.265808
0.00456522 	6.15231e-06 	-0.000543827 	0.266289
0.00456522 	6.15231e-06 	-0.000543827 	0.266289
0.00461538 	6.38534e-06 	-0.000543891 	0.266763
0.00461538 	6.38534e-06 	-0.000543891 	0.266763
0.00466555 	6.61851e-06 	-0.000543943 	0.267227
0.00471572 	6.85201e-06 	-0.000543965 	0.267669
0.00476589 	7.0855e-06 	-0.000543986 	0.26811
0.00476589 	7.0855e-06 	-0.000543986 	0.26811
0.00486622 	7.55129e-06 	-0.000544008 	0.268936
0.00486622 	7.55129e-06 	-0.000544008 	0.268936
0.00491639 	7.78377e-06 	-0.00054402 	0.269339
0.00496656 	8.01471e-06 	-0.000544043 	0.269716
0.00496656 	8.01471e-06 	-0.000544043 	0.269716
0.00501672 	8.24566e-06 	-0.000544067 	0.270093
0.00506689 	8.47491e-06 	-0.00054411 	0.270452
0.00511706 	8.70276e-06 	-0.00054417 	0.270797
0.00511706 	8.70276e-06 	-0.00054417 	0.270797
0.00521739 	9.15466e-06 	-0.000544336 	0.271459
0.00521739 	9.15466e-06 	-0.000544336 	0.271459
0.00526756 	9.37815e-06 	-0.000544449 	0.271772
0.00526756 	9.37815e-06 	-0.000544449 	0.271772
0.00531773 	9.60078e-06 	-0.000544572 	0.27208
0.00536789 	9.81866e-06 	-0.00054475 	0.272362
0.00536789 	9.81866e-06 	-0.00054475 	0.272362
0.00541806 	1.00365e-05 	-0.000544928 	0.272643
0.00546823 	1.02518e-05 	-0.000545132 	0.272913
0.00551839 	1.0463e-05 	-0.000545381 	0.273164
0.00551839 	1.0463e-05 	-0.000545381 	0.273164
0.00556856 	1.06741e-05 	-0.000545629 	0.273414
0.00556856 	1.06741e-05 	-0.000545629 	0.273414
0.0056689 	1.1084e-05 	-0.000546237 	0.273868
0.0056689 	1.1084e-05 	-0.000546237 	0.273868
0.00571906 	1.12873e-05 	-0.000546556 	0.274088
0.00576923 	1.14841e-05 	-0.00054692 	0.274288
0.00576923 	1.14841e-05 	-0.00054692 	0.274288
0.0058194 	1.1678e-05 	-0.000547303 	0.274479
0.0058194 	1.1678e-05 	-0.000547303 	0.274479
0.00591973 	1.20573e-05 	-0.000548111 	0.274839
0.00591973 	1.20573e-05 	-0.000548111 	0.274839
0.0059699 	1.22401e-05 	-0.000548547 	0.275002
0.0059699 	1.22401e-05 	-0.000548547 	0.275002
0.00602007 	1.24229e-05 	-0.000548983 	0.275164
0.00607023 	1.25953e-05 	-0.000549447 	0.275305
0.0061204 	1.27651e-05 	-0.000549919 	0.27544
0.0061204 	1.27651e-05 	-0.000549919 	0.27544
0.00617057 	1.29348e-05 	-0.000550391 	0.275575
0.00622074 	1.30931e-05 	-0.000550877 	0.27569
0.00622074 	1.30931e-05 	-0.000550877 	0.27569
0.0062709 	1.32478e-05 	-0.000551366 	0.275798
0.00632107 	1.34025e-05 	-0.000551856 	0.275906
0.00632107 	1.34025e-05 	-0.000551856 	0.275906
0.00637124 	1.35455e-05 	-0.000552345 	0.275997
0.00637124 	1.35455e-05 	-0.000552345 	0.275997
0.0064214 	1.36831e-05 	-0.000552835 	0.27608
0.0064214 	1.36831e-05 	-0.000552835 	0.27608
0.00647157 	1.38207e-05 	-0.000553324 	0.276162
0.00647157 	1.38207e-05 	-0.000553324 	0.276162
0.00652174 	1.39477e-05 	-0.00055379 	0.276231
0.00657191 	1.40657e-05 	-0.000554237 	0.276289
0.00657191 	1.40657e-05 	-0.000554237 	0.276289
0.00662207 	1.41838e-05 	-0.000554683 	0.276346
0.00667224 	1.42941e-05 	-0.000555116 	0.276395
0.00672241 	1.43902e-05 	-0.000555522 	0.276428
0.00672241 	1.43902e-05 	-0.000555522 	0.276428
0.00677258 	1.44862e-05 	-0.000555929 	0.276461
0.00682274 	1.45798e-05 	-0.000556333 	0.276491
0.00682274 	1.45798e-05 	-0.000556333 	0.276491
0.00687291 	1.46509e-05 	-0.000556711 	0.2765
0.00687291 	1.46509e-05 	-0.000556711 	0.2765
0.00692308 	1.4722e-05 	-0.00055709 	0.276508
0.00697324 	1.4793e-05 	-0.000557469 	0.276517
0.00702341 	1.48421e-05 	-0.000557784 	0.276506
0.00707358 	1.48852e-05 	-0.000558082 	0.276491
0.00707358 	1.48852e-05 	-0.000558082 	0.276491
0.00717391 	1.49576e-05 	-0.000558668 	0.27645
0.00717391 	1.49576e-05 	-0.000558668 	0.27645
0.00722408 	1.49679e-05 	-0.00055894 	0.27641
0.00722408 	1.49679e-05 	-0.00055894 	0.27641
0.00727425 	1.49781e-05 	-0.000559212 	0.27637
0.00727425 	1.49781e-05 	-0.000559212 	0.27637
0.00732441 	1.49884e-05 	-0.000559485 	0.276331
0.00732441 	1.49884e-05 	-0.000559485 	0.276331
0.00737458 	1.49608e-05 	-0.000559677 	0.276268
0.00737458 	1.49608e-05 	-0.000559677 	0.276268
0.00742475 	1.49329e-05 	-0.000559868 	0.276205
0.00747492 	1.4905e-05 	-0.00056006 	0.276141
0.00752508 	1.48578e-05 	-0.000560169 	0.276066
0.00752508 	1.48578e-05 	-0.000560169 	0.276066
0.00757525 	1.47913e-05 	-0.000560197 	0.275979
0.00762542 	1.47248e-05 	-0.000560225 	0.275892
0.00767559 	1.46579e-05 	-0.000560252 	0.275804
0.00767559 	1.46579e-05 	-0.000560252 	0.275804
0.00772575 	1.45545e-05 	-0.00056018 	0.275693
0.00777592 	1.44512e-05 	-0.000560108 	0.275582
0.00777592 	1.44512e-05 	-0.000560108 	0.275582
0.00782609 	1.43478e-05 	-0.000560036 	0.275471
0.00787625 	1.42265e-05 	-0.000559867 	0.275346
0.00787625 	1.42265e-05 	-0.000559867 	0.275346
0.00792642 	1.40923e-05 	-0.000559627 	0.275212
0.00797659 	1.39581e-05 	-0.000559388 	0.275078
0.00802676 	1.38188e-05 	-0.000559115 	0.274938
0.00802676 	1.38188e-05 	-0.000559115 	0.274938
0.00807692 	1.36602e-05 	-0.000558717 	0.274781
0.00807692 	1.36602e-05 	-0.000558717 	0.274781
0.00812709 	1.35016e-05 	-0.000558318 	0.274624
0.00817726 	1.33431e-05 	-0.000557919 	0.274467
0.00817726 	1.33431e-05 	-0.000557919 	0.274467
0.00822742 	1.31657e-05 	-0.000557432 	0.274289
0.00827759 	1.29862e-05 	-0.000556935 	0.274109
0.00827759 	1.29862e-05 	-0.000556935 	0.274109
0.00832776 	1.28067e-05 	-0.000556438 	0.273929
0.00832776 	1.28067e-05 	-0.000556438 	0.273929
0.00837793 	1.26158e-05 	-0.000555857 	0.273734
0.00842809 	1.24187e-05 	-0.000555232 	0.273532
0.00842809 	1.24187e-05 	-0.000555232 	0.273532
0.00847826 	1.22216e-05 	-0.000554606 	0.27333
0.00847826 	1.22216e-05 	-0.000554606 	0.27333
0.0085786 	1.18065e-05 	-0.000553171 	0.272892
0.0085786 	1.18065e-05 	-0.000553171 	0.272892
0.00862876 	1.1595e-05 	-0.000552418 	0.272667
0.00867893 	1.13798e-05 	-0.000551626 	0.272436
0.0087291 	1.11568e-05 	-0.000550749 	0.272188
0.00877926 	1.09338e-05 	-0.000549871 	0.271941
0.00882943 	1.07086e-05 	-0.000548964 	0.271689
0.0088796 	1.04766e-05 	-0.000547962 	0.271419
0.0088796 	1.04766e-05 	-0.000547962 	0.271419
0.00892977 	1.02446e-05 	-0.00054696 	0.27115
0.00892977 	1.02446e-05 	-0.00054696 	0.27115
0.00897993 	1.00112e-05 	-0.000545932 	0.270875
0.00897993 	1.00112e-05 	-0.000545932 	0.270875
0.0090301 	9.77257e-06 	-0.000544806 	0.270583
0.00908027 	9.53391e-06 	-0.00054368 	0.270291
0.00908027 	9.53391e-06 	-0.00054368 	0.270291
0.00913043 	9.29418e-06 	-0.000542525 	0.269994
0.0091806 	9.0509e-06 	-0.000541276 	0.269679
0.0091806 	9.0509e-06 	-0.000541276 	0.269679
0.00923077 	8.80763e-06 	-0.000540027 	0.269365
0.00928094 	8.56348e-06 	-0.000538739 	0.269043
0.00928094 	8.56348e-06 	-0.000538739 	0.269043
0.0093311 	8.31738e-06 	-0.000537366 	0.268705
0.00938127 	8.07128e-06 	-0.000535994 	0.268368
0.00938127 	8.07128e-06 	-0.000535994 	0.268368
0.00943144 	7.82461e-06 	-0.000534566 	0.26802
0.00943144 	7.82461e-06 	-0.000534566 	0.26802
0.00948161 	7.57724e-06 	-0.00053307 	0.26766
0.00948161 	7.57724e-06 	-0.00053307 	0.26766
0.00953177 	7.32986e-06 	-0.000531573 	0.267299
0.00953177 	7.32986e-06 	-0.000531573 	0.267299
0.00958194 	7.08252e-06 	-0.000529998 	0.266924
0.00958194 	7.08252e-06 	-0.000529998 	0.266924
0.00963211 	6.83519e-06 	-0.000528376 	0.26654
0.00968227 	6.58787e-06 	-0.000526753 	0.266156
0.00968227 	6.58787e-06 	-0.000526753 	0.266156
0.00973244 	6.34156e-06 	-0.000525023 	0.265752
0.00978261 	6.09544e-06 	-0.000523273 	0.265344
0.00978261 	6.09544e-06 	-0.000523273 	0.265344
0.00983278 	5.84958e-06 	-0.000521506 	0.264933
0.00983278 	5.84958e-06 	-0.000521506 	0.264933
0.00988294 	5.60563e-06 	-0.000519626 	0.264501
0.00993311 	5.36168e-06 	-0.000517745 	0.264069
0.00993311 	5.36168e-06 	-0.000517745 	0.264069
0.00998328 	5.1191e-06 	-0.000515804 	0.263625
0.0100334 	4.87819e-06 	-0.000513789 	0.263168
0.0100836 	4.63727e-06 	-0.000511774 	0.262711
0.0100836 	4.63727e-06 	-0.000511774 	0.262711
0.0101338 	4.39948e-06 	-0.000509645 	0.262233
0.0101839 	4.16235e-06 	-0.000507491 	0.261751
0.0101839 	4.16235e-06 	-0.000507491 	0.261751
0.0102341 	3.9263e-06 	-0.000505303 	0.261262
0.0102341 	3.9263e-06 	-0.000505303 	0.261262
0.0102843 	3.6936e-06 	-0.000503005 	0.260754
0.0103344 	3.4609e-06 	-0.000500707 	0.260245
0.0103344 	3.4609e-06 	-0.000500707 	0.260245
0.0103846 	3.23174e-06 	-0.000498303 	0.259718
0.0103846 	3.23174e-06 	-0.000498303 	0.259718
0.0104348 	3.00403e-06 	-0.000495855 	0.259183
0.0104348 	3.00403e-06 	-0.000495855 	0.259183
0.0104849 	2.77752e-06 	-0.000493373 	0.258641
0.0104849 	2.77752e-06 	-0.000493373 	0.258641
0.0105351 	2.55529e-06 	-0.000490768 	0.258078
0.0105853 	2.33306e-06 	-0.000488163 	0.257516
0.0105853 	2.33306e-06 	-0.000488163 	0.257516
0.0106856 	1.89904e-06 	-0.000482661 	0.256339
0.0106856 	1.89904e-06 	-0.000482661 	0.256339
0.0107358 	1.685e-06 	-0.000479828 	0.255737
0.010786 	1.47491e-06 	-0.000476886 	0.255116
0.010786 	1.47491e-06 	-0.000476886 	0.255116
0.0108361 	1.26486e-06 	-0.000473943 	0.254495
0.0108863 	1.06131e-06 	-0.000470821 	0.253843
0.0108863 	1.06131e-06 	-0.000470821 	0.253843
0.0109365 	8.57754e-07 	-0.000467699 	0.253192
0.0109365 	8.57754e-07 	-0.000467699 	0.253192
0.0109866 	6.58867e-07 	-0.000464448 	0.252518
0.0110368 	4.62109e-07 	-0.000461139 	0.251835
0.0110368 	4.62109e-07 	-0.000461139 	0.251835
0.011087 	2.68229e-07 	-0.000457749 	0.251137
0.011087 	2.68229e-07 	-0.000457749 	0.251137
0.0111371 	7.85241e-08 	-0.000454243 	0.250421
0.0111873 	-1.09934e-07 	-0.000450701 	0.249698
0.0111873 	-1.09934e-07 	-0.000450701 	0.249698
0.0112375 	-2.9228e-07 	-0.000446985 	0.248946
0.0112876 	-4.74625e-07 	-0.00044327 	0.248195
0.0112876 	-4.74625e-07 	-0.00044327 	0.248195
0.0113378 	-6.49539e-07 	-0.000439335 	0.247408
0.0113378 	-6.49539e-07 	-0.000439335 	0.247408
0.011388 	-8.24224e-07 	-0.000435393 	0.24662
0.0114381 	-9.92514e-07 	-0.000431248 	0.2458
0.0114381 	-9.92514e-07 	-0.000431248 	0.2458
0.0114883 	-1.1593e-06 	-0.000427054 	0.244972
0.0115385 	-1.32036e-06 	-0.00042266 	0.244115
0.0115385 	-1.32036e-06 	-0.00042266 	0.244115
0.0115886 	-1.47882e-06 	-0.000418176 	0.243245
0.0116388 	-1.63189e-06 	-0.000413489 	0.242346
0.0116388 	-1.63189e-06 	-0.000413489 	0.242346
0.011689 	-1.78141e-06 	-0.000408669 	0.241428
0.0117391 	-1.92585e-06 	-0.000403636 	0.240481
0.0117893 	-2.06621e-06 	-0.000398431 	0.239512
0.0118395 	-2.20184e-06 	-0.000392993 	0.238511
0.0118395 	-2.20184e-06 	-0.000392993 	0.238511
0.0118896 	-2.33346e-06 	-0.000387357 	0.237483
0.0119398 	-2.46058e-06 	-0.000381461 	0.236421
0.0119398 	-2.46058e-06 	-0.000381461 	0.236421
0.01199 	-2.58423e-06 	-0.000375364 	0.235332
0.0120401 	-2.70332e-06 	-0.000368971 	0.2342
0.0120401 	-2.70332e-06 	-0.000368971 	0.2342
0.0120903 	-2.81966e-06 	-0.000362398 	0.233044
0.0120903 	-2.81966e-06 	-0.000362398 	0.233044
0.0121906 	-3.04041e-06 	-0.000348426 	0.230609
0.0121906 	-3.04041e-06 	-0.000348426 	0.230609
0.0122408 	-3.14414e-06 	-0.000340964 	0.229317
0.012291 	-3.2468e-06 	-0.000333425 	0.228012
0.012291 	-3.2468e-06 	-0.000333425 	0.228012
0.0123411 	-3.34291e-06 	-0.000325405 	0.226627
0.0123913 	-3.43781e-06 	-0.000317293 	0.225225
0.0123913 	-3.43781e-06 	-0.000317293 	0.225225
0.0124415 	-3.52758e-06 	-0.000308799 	0.223754
0.0124415 	-3.52758e-06 	-0.000308799 	0.223754
0.0124916 	-3.6148e-06 	-0.000300113 	0.222244
0.0124916 	-3.6148e-06 	-0.000300113 	0.222244
0.0125418 	-3.69844e-06 	-0.000291159 	0.220682
0.012592 	-3.7781e-06 	-0.000281914 	0.219054
0.0126421 	-3.85579e-06 	-0.000272525 	0.217395
0.0126421 	-3.85579e-06 	-0.000272525 	0.217395
0.0126923 	-3.92798e-06 	-0.000262755 	0.21564
0.0127425 	-3.99837e-06 	-0.000252873 	0.213851
0.0127425 	-3.99837e-06 	-0.000252873 	0.213851
0.0127926 	-4.06464e-06 	-0.000242734 	0.211984
0.0128428 	-4.12745e-06 	-0.000232417 	0.210048
0.0128428 	-4.12745e-06 	-0.000232417 	0.210048
0.0129431 	-4.24317e-06 	-0.00021134 	0.205976
0.0129431 	-4.24317e-06 	-0.00021134 	0.205976
0.0129933 	-4.29593e-06 	-0.000200635 	0.203832
0.0130435 	-4.34521e-06 	-0.000189845 	0.201614
0.0130435 	-4.34521e-06 	-0.000189845 	0.201614
0.0131438 	-4.43129e-06 	-0.000168175 	0.196904
0.0131438 	-4.43129e-06 	-0.000168175 	0.196904
0.013194 	-4.46854e-06 	-0.000157365 	0.194421
0.0132441 	-4.50084e-06 	-0.000146649 	0.191829
0.0132441 	-4.50084e-06 	-0.000146649 	0.191829
0.0132943 	-4.52974e-06 	-0.000136021 	0.18916
0.0133445 	-4.55371e-06 	-0.000125546 	0.186383
0.0133445 	-4.55371e-06 	-0.000125546 	0.186383
0.0133946 	-4.5717e-06 	-0.000115311 	0.183474
0.0133946 	-4.5717e-06 	-0.000115311 	0.183474
0.0134448 	-4.58533e-06 	-0.000105273 	0.18047
0.0134448 	-4.58533e-06 	-0.000105273 	0.18047
0.013495 	-4.59409e-06 	-9.54633e-05 	0.177362
0.0135452 	-4.59434e-06 	-8.60838e-05 	0.174076
0.0135452 	-4.59434e-06 	-8.60838e-05 	0.174076
0.0135953 	-4.58859e-06 	-7.70141e-05 	0.170669
0.0135953 	-4.58859e-06 	-7.70141e-05 	0.170669
0.0136455 	-4.57633e-06 	-6.82815e-05 	0.167133
0.0136455 	-4.57633e-06 	-6.82815e-05 	0.167133
0.0136957 	-4.55567e-06 	-5.99848e-05 	0.163432
0.0136957 	-4.55567e-06 	-5.99848e-05 	0.163432
0.0137458 	-4.52457e-06 	-5.22365e-05 	0.159522
0.013796 	-4.48506e-06 	-4.49384e-05 	0.15544
0.013796 	-4.48506e-06 	-4.49384e-05 	0.15544
0.0138462 	-4.43657e-06 	-3.81213e-05 	0.151171
0.0138462 	-4.43657e-06 	-3.81213e-05 	0.151171
0.0138963 	-4.37846e-06 	-3.18168e-05 	0.146702
0.0139465 	-4.30644e-06 	-2.62181e-05 	0.141942
0.0139465 	-4.30644e-06 	-2.62181e-05 	0.141942
0.0139967 	-4.22252e-06 	-2.11821e-05 	0.136936
0.0139967 	-4.22252e-06 	-2.11821e-05 	0.136936
0.0140468 	-4.12599e-06 	-1.67086e-05 	0.131669
0.0140468 	-4.12599e-06 	-1.67086e-05 	0.131669
0.014097 	-4.01566e-06 	-1.28067e-05 	0.126119
0.0141472 	-3.88995e-06 	-9.47701e-06 	0.120264
0.0141472 	-3.88995e-06 	-9.47701e-06 	0.120264
0.0141973 	-3.74688e-06 	-6.7057e-06 	0.114076
0.0142475 	-3.58136e-06 	-4.5371e-06 	0.107457
0.0142977 	-3.39643e-06 	-2.83837e-06 	0.100421
0.0142977 	-3.39643e-06 	-2.83837e-06 	0.100421
0.0143478 	-3.19483e-06 	-1.56421e-06 	0.0929568
0.014398 	-2.98074e-06 	-6.73427e-07 	0.0850833
0.014398 	-2.98074e-06 	-6.73427e-07 	0.0850833
0.0144482 	-2.75901e-06 	-1.13529e-07 	0.0768577
0.0144983 	-2.53452e-06 	1.80394e-07 	0.0683844
0.0144983 	-2.53452e-06 	1.80394e-07 	0.0683844
0.0145485 	-2.31135e-06 	2.81183e-07 	0.0598143
0.0145485 	-2.31135e-06 	2.81183e-07 	0.0598143
0.0145987 	-2.09167e-06 	2.62555e-07 	0.0513297
0.0146488 	-1.87448e-06 	1.89963e-07 	0.0431139
0.014699 	-1.65496e-06 	1.1211e-07 	0.0353177
0.014699 	-1.65496e-06 	1.1211e-07 	0.0353177
0.0147492 	-1.42356e-06 	5.70622e-08 	0.0280379
0.0147993 	-1.16177e-06 	3.23751e-08 	0.0213198
0.0147993 	-1.16177e-06 	3.23751e-08 	0.0213198
0.0148495 	-8.29216e-07 	3.46096e-08 	0.0151728
0.0148495 	-8.29216e-07 	3.46096e-08 	0.0151728
0.0148997 	-4.07429e-07 	3.68743e-08 	0.00958725
0.0148997 	-4.07429e-07 	3.68743e-08 	0.00958725
0.0149498 	-4.31176e-08 	2.73281e-08 	0.00454338
0.0149498 	-4.31176e-08 	2.73281e-08 	0.00454338
0.015 	0 	0 	0
0.015 	0 	0 	0
