/*--------------------------------*- C++ -*----------------------------------*\
| =========                 |                                                 |
| \\      /  F ield         | OpenFOAM: The Open Source CFD Toolbox           |
|  \\    /   O peration     | Version:  v1912                                 |
|   \\  /    A nd           | Website:  www.openfoam.com                      |
|    \\/     M anipulation  |                                                 |
\*---------------------------------------------------------------------------*/
FoamFile
{
    version     2.0;
    format      ascii;
    class       volScalarField;
    location    "10";
    object      heatTransferCoeff(T);
}
// * * * * * * * * * * * * * * * * * * * * * * * * * * * * * * * * * * * * * //

dimensions      [1 0 -3 -1 0 0 0];


internalField   uniform 0;

boundaryField
{
    leftWall
    {
        type            calculated;
        value           nonuniform List<scalar> 
216
(
-222.069
-227.151
-235.749
-242.096
-252.41
-260.1
-272.12
-281.403
-295.889
-308.671
-328.534
-348.411
-377.433
-410.199
-463.249
-548.479
-818.068
-2785.54
-219.335
-224.245
-232.83
-239.063
-249.461
-257.193
-269.567
-279.251
-294.389
-307.446
-327.136
-346.178
-374.913
-408.829
-464.54
-551.704
-819.98
-2785.98
-215.847
-220.3
-228.58
-234.513
-244.919
-252.795
-265.587
-275.642
-291.05
-303.965
-323.396
-342.412
-372.171
-407.584
-463.578
-548.499
-815.484
-2788.84
-216.15
-220.812
-229.246
-235.33
-245.858
-253.863
-266.726
-276.789
-292.117
-305.016
-324.61
-343.976
-374.069
-410.009
-466.964
-551.454
-814.479
-2785.05
-221.334
-226.082
-234.332
-240.146
-250.054
-257.436
-269.57
-279.359
-294.822
-308.624
-329.341
-349.666
-379.442
-413.654
-468.199
-551.683
-815.38
-2786.34
-224.059
-228.583
-236.29
-241.635
-250.799
-257.626
-269.075
-278.538
-293.716
-307.657
-328.501
-349.058
-378.486
-411.364
-462.955
-544.469
-812.492
-2788.07
-222.144
-227.009
-234.93
-240.636
-249.866
-256.716
-267.811
-276.91
-291.59
-305.333
-326.1
-346.799
-376.263
-409.428
-462.129
-546.271
-814.224
-2788.2
-219.383
-224.306
-232.415
-238.485
-248.242
-255.799
-267.735
-277.657
-292.927
-306.735
-327.017
-346.976
-376.27
-410.806
-466.633
-552.244
-813.908
-2787.1
-220.158
-225.209
-233.616
-239.517
-249.333
-256.6
-268.615
-278.376
-293.811
-307.362
-327.442
-346.763
-375.768
-409.884
-464.99
-549.313
-814.216
-2783.3
-221.294
-226.372
-235.123
-240.991
-251.026
-258.02
-269.906
-279.094
-294.275
-307.484
-327.677
-346.823
-375.446
-408.593
-463.197
-548.284
-816.176
-2785.91
-223.232
-228.086
-236.692
-242.495
-252.383
-259.093
-270.44
-279.035
-293.741
-307.027
-327.681
-347.3
-375.575
-407.966
-462.879
-550.049
-817.507
-2789.11
-226.311
-231.255
-239.675
-245.409
-254.897
-261.372
-272.222
-280.613
-294.963
-308.259
-328.83
-348.826
-377.387
-409.624
-462.72
-548.621
-817.015
-2786.98
)
;
    }
    rightWall
    {
        type            calculated;
        value           nonuniform List<scalar> 
216
(
-206.249
-209.855
-214.793
-219.137
-225.337
-230.846
-238.791
-246.07
-256.494
-266.551
-280.89
-296.047
-318.136
-345.037
-390.46
-463.118
-701.948
-2825.85
-208.404
-212.025
-216.98
-221.281
-227.502
-232.966
-241.017
-248.359
-259.072
-269.395
-284.199
-299.562
-321.657
-347.673
-391.566
-462.854
-702.505
-2826.59
-209.194
-213.106
-218.452
-223.071
-229.702
-235.44
-243.832
-251.3
-262.155
-272.339
-286.909
-301.66
-323.068
-348.088
-391.446
-463.558
-704.566
-2825.48
-207.795
-211.595
-216.887
-221.458
-228.056
-233.786
-242.17
-249.717
-260.652
-271.008
-285.764
-300.68
-322.237
-347.713
-391.7
-463.805
-705.222
-2829.04
-207.633
-211.427
-216.732
-221.316
-227.904
-233.652
-241.97
-249.457
-260.162
-270.313
-284.782
-299.778
-321.92
-348.539
-392.916
-462.868
-702.569
-2827.89
-208.06
-212.107
-217.664
-222.463
-229.252
-235.178
-243.622
-251.153
-261.756
-271.554
-285.424
-299.845
-321.59
-347.91
-391.885
-461.573
-701.712
-2826.7
-207.057
-211.209
-216.815
-221.618
-228.307
-234.055
-242.243
-249.521
-259.977
-269.836
-284.109
-299.101
-321.427
-348.179
-393.095
-464.626
-703.286
-2826.37
-206.734
-210.673
-216.058
-220.635
-227.125
-232.665
-240.718
-247.88
-258.352
-268.32
-282.827
-297.92
-320.164
-346.705
-392.119
-465.203
-704.035
-2826.49
-206.883
-210.534
-215.643
-220.018
-226.399
-231.899
-240.038
-247.306
-257.992
-268.155
-282.933
-298.216
-320.532
-346.518
-390.58
-462.375
-703.453
-2825.62
-206.669
-210.292
-215.302
-219.632
-225.906
-231.317
-239.326
-246.447
-256.986
-266.981
-281.668
-297.035
-320.032
-347.295
-392.907
-465.408
-706.889
-2832.96
-207.164
-211.08
-216.352
-221.014
-227.549
-233.264
-241.468
-248.752
-259.288
-269.128
-283.36
-297.916
-319.92
-346.451
-392.174
-465.34
-706.434
-2813.6
-207.519
-211.728
-217.384
-222.508
-229.551
-235.857
-244.564
-252.359
-263.11
-272.998
-286.725
-300.427
-321.007
-346.176
-391.068
-464.278
-705.108
-2819.59
)
;
    }
    leftSides_periodic0
    {
        type            cyclic;
    }
    leftSides_periodic1
    {
        type            cyclic;
    }
    rightSides_periodic0
    {
        type            cyclic;
    }
    rightSides_periodic1
    {
        type            cyclic;
    }
    leftInOut_periodic0
    {
        type            calculated;
        value           nonuniform 0();
    }
    leftInOut_periodic1
    {
        type            calculated;
        value           uniform 0;
    }
    rightInOut_periodic0
    {
        type            calculated;
        value           nonuniform 0();
    }
    rightInOut_periodic1
    {
        type            calculated;
        value           uniform 0;
    }
    procBoundary4to1
    {
        type            processor;
        value           uniform 0;
    }
    procBoundary4to3
    {
        type            processor;
        value           uniform 0;
    }
    procBoundary4to5
    {
        type            processor;
        value           uniform 0;
    }
}


// ************************************************************************* //
