/*--------------------------------*- C++ -*----------------------------------*\
| =========                 |                                                 |
| \\      /  F ield         | OpenFOAM: The Open Source CFD Toolbox           |
|  \\    /   O peration     | Version:  v1912                                 |
|   \\  /    A nd           | Website:  www.openfoam.com                      |
|    \\/     M anipulation  |                                                 |
\*---------------------------------------------------------------------------*/
FoamFile
{
    version     2.0;
    format      ascii;
    class       volScalarField;
    location    "10";
    object      nut;
}
// * * * * * * * * * * * * * * * * * * * * * * * * * * * * * * * * * * * * * //

dimensions      [0 2 -1 0 0 0 0];


internalField   nonuniform List<scalar> 
34128
(
4.41801e-12
4.36453e-12
4.22109e-12
4.23258e-12
4.32677e-12
4.30264e-12
4.25292e-12
4.288e-12
4.37777e-12
4.40937e-12
4.3801e-12
4.38455e-12
4.33283e-12
4.29003e-12
4.14996e-12
4.1561e-12
4.24632e-12
4.22296e-12
4.1737e-12
4.21155e-12
4.30476e-12
4.33368e-12
4.29714e-12
4.29967e-12
7.56548e-12
7.67788e-12
7.45029e-12
7.36523e-12
7.47781e-12
7.4401e-12
7.34618e-12
7.47731e-12
7.73383e-12
7.74472e-12
7.53433e-12
7.50202e-12
3.10489e-11
3.21811e-11
3.13388e-11
3.06602e-11
3.09338e-11
3.0778e-11
3.03801e-11
3.11505e-11
3.25109e-11
3.24097e-11
3.10404e-11
3.07657e-11
1.20187e-10
1.25238e-10
1.22217e-10
1.19317e-10
1.2008e-10
1.19454e-10
1.17973e-10
1.21159e-10
1.26593e-10
1.26032e-10
1.2033e-10
1.191e-10
3.58636e-10
3.74296e-10
3.65971e-10
3.57218e-10
3.58952e-10
3.57098e-10
3.52943e-10
3.62469e-10
3.78392e-10
3.76484e-10
3.59453e-10
3.55627e-10
8.60073e-10
8.97939e-10
8.79657e-10
8.58941e-10
8.62131e-10
8.57999e-10
8.48777e-10
8.71042e-10
9.07841e-10
9.02881e-10
8.62992e-10
8.53854e-10
1.73916e-09
1.81475e-09
1.78099e-09
1.74028e-09
1.74543e-09
1.73824e-09
1.72126e-09
1.76417e-09
1.83497e-09
1.82446e-09
1.74703e-09
1.7293e-09
3.07526e-09
3.20446e-09
3.14952e-09
3.08057e-09
3.08858e-09
3.07863e-09
3.05183e-09
3.12268e-09
3.2406e-09
3.22171e-09
3.09247e-09
3.06361e-09
4.88825e-09
5.08263e-09
5.00093e-09
4.89732e-09
4.91007e-09
4.89918e-09
4.86214e-09
4.9654e-09
5.1405e-09
5.11097e-09
4.92009e-09
4.87956e-09
7.13687e-09
7.4e-09
7.28602e-09
7.14478e-09
7.16516e-09
7.15648e-09
7.11099e-09
7.24712e-09
7.48438e-09
7.44324e-09
7.1882e-09
7.13802e-09
9.73338e-09
1.00178e-08
9.86342e-09
9.7e-09
9.73513e-09
9.74448e-09
9.70686e-09
9.84832e-09
1.01194e-08
1.00739e-08
9.80285e-09
9.75139e-09
1.20742e-08
1.23735e-08
1.21865e-08
1.19962e-08
1.20377e-08
1.20517e-08
1.20158e-08
1.21803e-08
1.2496e-08
1.24392e-08
1.21292e-08
1.21055e-08
1.4504e-08
1.48383e-08
1.46194e-08
1.4402e-08
1.44485e-08
1.44679e-08
1.44373e-08
1.46247e-08
1.4982e-08
1.49121e-08
1.45664e-08
1.45476e-08
1.70128e-08
1.73823e-08
1.71325e-08
1.68876e-08
1.69373e-08
1.69629e-08
1.69423e-08
1.71517e-08
1.75465e-08
1.74623e-08
1.70851e-08
1.70713e-08
1.95746e-08
1.998e-08
1.97006e-08
1.94275e-08
1.94781e-08
1.95106e-08
1.95054e-08
1.97357e-08
2.01636e-08
2.0064e-08
1.96601e-08
1.96509e-08
2.21703e-08
2.26133e-08
2.23058e-08
2.20036e-08
2.20517e-08
2.20911e-08
2.21072e-08
2.23584e-08
2.28152e-08
2.26991e-08
2.22725e-08
2.22668e-08
2.47889e-08
2.52732e-08
2.49387e-08
2.46059e-08
2.46474e-08
2.46925e-08
2.47363e-08
2.50098e-08
2.54927e-08
2.53586e-08
2.49112e-08
2.4907e-08
2.74284e-08
2.79602e-08
2.75993e-08
2.7234e-08
2.72635e-08
2.73123e-08
2.73899e-08
2.76901e-08
2.81973e-08
2.80434e-08
2.75738e-08
2.75679e-08
3.00972e-08
3.06853e-08
3.02972e-08
2.9897e-08
2.99093e-08
2.99587e-08
3.00762e-08
3.04093e-08
3.09409e-08
3.07657e-08
3.0269e-08
3.02558e-08
3.28151e-08
3.34697e-08
3.30525e-08
3.26143e-08
3.26051e-08
3.26513e-08
3.2814e-08
3.31879e-08
3.37453e-08
3.35482e-08
3.30164e-08
3.29878e-08
3.56125e-08
3.63432e-08
3.58933e-08
3.54141e-08
3.53801e-08
3.54189e-08
3.56315e-08
3.60545e-08
3.66406e-08
3.64227e-08
3.58453e-08
3.57899e-08
3.85254e-08
3.93405e-08
3.88524e-08
3.83285e-08
3.82681e-08
3.82948e-08
3.85613e-08
3.90418e-08
3.96608e-08
3.94253e-08
3.87904e-08
3.86938e-08
4.15902e-08
4.24971e-08
4.19622e-08
4.13893e-08
4.13024e-08
4.13122e-08
4.16364e-08
4.21829e-08
4.28401e-08
4.25935e-08
4.18868e-08
4.17316e-08
4.48418e-08
4.58481e-08
4.52531e-08
4.46255e-08
4.45137e-08
4.45021e-08
4.48873e-08
4.55089e-08
4.62124e-08
4.59644e-08
4.51686e-08
4.4934e-08
4.8316e-08
4.94311e-08
4.87551e-08
4.80648e-08
4.79337e-08
4.78964e-08
4.83451e-08
4.90529e-08
4.98148e-08
4.95801e-08
4.86719e-08
4.83328e-08
5.2058e-08
5.32938e-08
5.2504e-08
5.17415e-08
5.16031e-08
5.15361e-08
5.2049e-08
5.2857e-08
5.3696e-08
5.34958e-08
5.2444e-08
5.19686e-08
5.6137e-08
5.75049e-08
5.65512e-08
5.5707e-08
5.55849e-08
5.54834e-08
5.60584e-08
5.69837e-08
5.79262e-08
5.77917e-08
5.65557e-08
5.59023e-08
6.06624e-08
6.21655e-08
6.09742e-08
6.00425e-08
5.99781e-08
5.98349e-08
6.04656e-08
6.15273e-08
6.26078e-08
6.25844e-08
6.11146e-08
6.02277e-08
6.58034e-08
6.74231e-08
6.58884e-08
6.48741e-08
6.49347e-08
6.47379e-08
6.54112e-08
6.66274e-08
6.78894e-08
6.80396e-08
6.62811e-08
6.50875e-08
7.181e-08
7.34838e-08
7.1465e-08
7.03943e-08
7.06773e-08
7.04072e-08
7.11e-08
7.24801e-08
7.39679e-08
7.43752e-08
7.22773e-08
7.06847e-08
7.89762e-08
8.05854e-08
7.79179e-08
7.68371e-08
7.74577e-08
7.70848e-08
7.77619e-08
7.9302e-08
8.10646e-08
8.18332e-08
7.93476e-08
7.72422e-08
8.76625e-08
8.90203e-08
8.54798e-08
8.44558e-08
8.55765e-08
8.50555e-08
8.56642e-08
8.7364e-08
8.94753e-08
9.07444e-08
8.78014e-08
8.50307e-08
9.84415e-08
9.92653e-08
9.45482e-08
9.3675e-08
9.55158e-08
9.47769e-08
9.52407e-08
9.71046e-08
9.96714e-08
1.01634e-07
9.81346e-08
9.44868e-08
1.12192e-07
1.1204e-07
1.05716e-07
1.05131e-07
1.08008e-07
1.06941e-07
1.0714e-07
1.09177e-07
1.1236e-07
1.15296e-07
1.11104e-07
1.06269e-07
1.3028e-07
1.28439e-07
1.19871e-07
1.19784e-07
1.24172e-07
1.22599e-07
1.22336e-07
1.24559e-07
1.28612e-07
1.32931e-07
1.27863e-07
1.2137e-07
1.54873e-07
1.50159e-07
1.38382e-07
1.39128e-07
1.45759e-07
1.43373e-07
1.42318e-07
1.44745e-07
1.50087e-07
1.56398e-07
1.50202e-07
1.413e-07
1.89543e-07
1.79916e-07
1.63427e-07
1.6558e-07
1.756e-07
1.71867e-07
1.69439e-07
1.72108e-07
1.79311e-07
1.88707e-07
1.81006e-07
1.68461e-07
2.38136e-07
2.2174e-07
1.9823e-07
2.02335e-07
2.16161e-07
2.12021e-07
2.07321e-07
2.10196e-07
2.13449e-07
2.33688e-07
2.24772e-07
2.06545e-07
2.86901e-07
2.63837e-07
2.33091e-07
2.37937e-07
2.56289e-07
2.52791e-07
2.5053e-07
2.48713e-07
2.51422e-07
2.78245e-07
2.72055e-07
2.48543e-07
3.52056e-07
3.18866e-07
2.7843e-07
2.85382e-07
3.09874e-07
3.04866e-07
3.0098e-07
2.98166e-07
3.01984e-07
3.3673e-07
3.29462e-07
2.98795e-07
4.33988e-07
3.88189e-07
3.37305e-07
3.4647e-07
3.77513e-07
3.70862e-07
3.6502e-07
3.60748e-07
3.65829e-07
4.09016e-07
4.0105e-07
3.62632e-07
5.35311e-07
4.73201e-07
4.10114e-07
4.21825e-07
4.60567e-07
4.51888e-07
4.43412e-07
4.37412e-07
4.44454e-07
4.97005e-07
4.88415e-07
4.40907e-07
6.5846e-07
5.76201e-07
4.98754e-07
5.13565e-07
5.61295e-07
5.50214e-07
5.38331e-07
5.30623e-07
5.4022e-07
6.03052e-07
5.93681e-07
5.35783e-07
8.0452e-07
6.98827e-07
6.05337e-07
6.23647e-07
6.81308e-07
6.67654e-07
6.51755e-07
6.42707e-07
6.5496e-07
7.28885e-07
7.1825e-07
6.49134e-07
9.72523e-07
8.41533e-07
7.3132e-07
7.53218e-07
8.21079e-07
8.05067e-07
7.84927e-07
7.74886e-07
7.89519e-07
8.74742e-07
8.62443e-07
7.81998e-07
1.15905e-06
1.00318e-06
8.77073e-07
9.02221e-07
9.79566e-07
9.61931e-07
9.37861e-07
9.26765e-07
9.43367e-07
1.03913e-06
1.02549e-06
9.3416e-07
1.35847e-06
1.1808e-06
1.0413e-06
1.06898e-06
1.15402e-06
1.13602e-06
1.10883e-06
1.09617e-06
1.11433e-06
1.21876e-06
1.20627e-06
1.1038e-06
1.56396e-06
1.36978e-06
1.22061e-06
1.24968e-06
1.34014e-06
1.3233e-06
1.2941e-06
1.2792e-06
1.29857e-06
1.40882e-06
1.399e-06
1.28734e-06
1.76983e-06
1.56425e-06
1.40995e-06
1.43896e-06
1.5325e-06
1.5183e-06
1.48821e-06
1.47062e-06
1.49094e-06
1.6035e-06
1.59512e-06
1.47959e-06
1.9677e-06
1.75783e-06
1.60342e-06
1.63077e-06
1.72535e-06
1.71485e-06
1.68481e-06
1.66449e-06
1.68553e-06
1.79669e-06
1.78794e-06
1.67427e-06
2.15036e-06
1.94441e-06
1.79526e-06
1.81926e-06
1.91297e-06
1.90698e-06
1.87778e-06
1.85493e-06
1.87646e-06
1.98286e-06
1.9725e-06
1.86484e-06
2.31336e-06
2.11894e-06
1.98028e-06
1.99847e-06
2.08923e-06
2.08878e-06
2.06184e-06
2.03698e-06
2.0587e-06
2.15762e-06
2.14507e-06
2.04548e-06
2.45431e-06
2.27761e-06
2.15375e-06
2.0171e-06
2.08495e-06
2.2541e-06
2.23232e-06
2.20679e-06
2.22823e-06
2.31764e-06
2.30256e-06
2.21151e-06
2.57233e-06
2.41786e-06
2.31126e-06
1.85709e-06
1.90315e-06
2.1312e-06
2.38508e-06
2.36134e-06
2.38198e-06
2.46053e-06
2.44251e-06
2.35961e-06
2.66769e-06
2.53838e-06
2.30037e-06
1.744e-06
1.77442e-06
1.99994e-06
2.47598e-06
2.49842e-06
2.51791e-06
2.58491e-06
2.56324e-06
2.48796e-06
2.73994e-06
2.63906e-06
2.28297e-06
1.68219e-06
1.7003e-06
1.92092e-06
2.39526e-06
2.61672e-06
2.63507e-06
2.68312e-06
2.61202e-06
2.59619e-06
2.7921e-06
2.72088e-06
2.29845e-06
1.65363e-06
1.66084e-06
1.87974e-06
2.33815e-06
2.67765e-06
2.68361e-06
2.69308e-06
2.58968e-06
2.68507e-06
2.83091e-06
2.78568e-06
2.34456e-06
1.6454e-06
1.6426e-06
1.86279e-06
2.31716e-06
2.68717e-06
2.7134e-06
2.7244e-06
2.58203e-06
2.75616e-06
2.86021e-06
2.83588e-06
2.41271e-06
1.64997e-06
1.63883e-06
1.86338e-06
2.3237e-06
2.72573e-06
2.77038e-06
2.78027e-06
2.59343e-06
2.81151e-06
2.88251e-06
2.87428e-06
2.49515e-06
1.66368e-06
1.64723e-06
1.87977e-06
2.3529e-06
2.79814e-06
2.85545e-06
2.85839e-06
2.61676e-06
2.83694e-06
2.89939e-06
2.90282e-06
2.58549e-06
1.6858e-06
1.66837e-06
1.91289e-06
2.40301e-06
2.9017e-06
2.96108e-06
2.95199e-06
2.64602e-06
2.82266e-06
2.91193e-06
2.92378e-06
2.67825e-06
1.718e-06
1.70464e-06
1.96492e-06
2.47387e-06
2.99481e-06
3.00649e-06
3.00923e-06
2.67642e-06
2.78844e-06
2.92096e-06
2.93865e-06
2.7684e-06
1.76413e-06
1.75985e-06
2.03887e-06
2.56591e-06
3.01997e-06
3.0308e-06
3.02823e-06
2.70425e-06
2.73568e-06
2.92711e-06
2.94846e-06
2.85149e-06
1.83012e-06
1.83893e-06
2.13831e-06
2.6802e-06
3.03999e-06
3.04939e-06
3.04204e-06
2.72714e-06
2.66729e-06
2.93078e-06
2.954e-06
2.92329e-06
1.92391e-06
1.94767e-06
2.26679e-06
2.82083e-06
3.05515e-06
3.06346e-06
3.05169e-06
2.74359e-06
2.5875e-06
2.93281e-06
2.95584e-06
2.96397e-06
2.05499e-06
2.092e-06
2.42682e-06
2.98693e-06
3.06666e-06
3.07392e-06
3.05795e-06
2.75351e-06
2.50148e-06
2.9339e-06
2.95431e-06
2.96554e-06
2.23356e-06
2.27718e-06
2.62044e-06
3.05262e-06
3.07542e-06
3.08147e-06
3.06144e-06
2.75832e-06
2.41544e-06
2.93421e-06
2.94891e-06
2.96426e-06
2.46929e-06
2.50801e-06
2.84639e-06
3.0598e-06
3.08204e-06
3.08661e-06
3.06262e-06
2.76013e-06
2.3361e-06
2.93426e-06
2.9404e-06
2.96044e-06
2.74941e-06
2.77667e-06
3.03369e-06
3.06575e-06
3.08691e-06
3.08971e-06
3.06186e-06
2.76151e-06
2.27014e-06
2.93379e-06
2.92895e-06
2.95435e-06
2.92012e-06
2.99125e-06
3.0407e-06
3.07057e-06
3.0903e-06
3.09107e-06
3.0595e-06
2.76543e-06
2.22374e-06
2.93247e-06
2.91435e-06
2.94609e-06
2.92236e-06
2.99626e-06
3.04638e-06
3.07456e-06
3.0924e-06
3.09118e-06
3.05582e-06
2.77517e-06
2.20238e-06
2.93008e-06
2.8966e-06
2.93586e-06
2.92249e-06
2.99919e-06
3.05079e-06
3.07766e-06
3.09331e-06
3.09028e-06
3.05111e-06
2.79402e-06
2.2104e-06
2.9266e-06
2.87598e-06
2.92364e-06
2.92061e-06
3.00042e-06
3.054e-06
3.07987e-06
3.09306e-06
3.08839e-06
3.04566e-06
2.82501e-06
2.25023e-06
2.9217e-06
2.85303e-06
2.90949e-06
2.91672e-06
3.00017e-06
3.05608e-06
3.08126e-06
3.09146e-06
3.08555e-06
3.03974e-06
2.87018e-06
2.32187e-06
2.91558e-06
2.82879e-06
2.89473e-06
2.91133e-06
2.99882e-06
3.0571e-06
3.08172e-06
3.08865e-06
3.08194e-06
3.03363e-06
2.93179e-06
2.42279e-06
2.90875e-06
2.76575e-06
2.88027e-06
2.90525e-06
2.99692e-06
3.05718e-06
3.08114e-06
3.08464e-06
3.07778e-06
3.02758e-06
2.93458e-06
2.54795e-06
2.9017e-06
2.7151e-06
2.86689e-06
2.89911e-06
2.99478e-06
3.0566e-06
3.07931e-06
3.07963e-06
3.07324e-06
3.0218e-06
2.93278e-06
2.68998e-06
2.89508e-06
2.70297e-06
2.85517e-06
2.89352e-06
2.99262e-06
3.056e-06
3.07625e-06
3.07361e-06
3.06846e-06
3.01646e-06
2.93217e-06
2.83096e-06
4.67431e-12
4.67032e-12
4.53497e-12
4.53607e-12
4.62871e-12
4.59961e-12
4.53797e-12
4.57814e-12
4.67902e-12
4.70689e-12
4.65498e-12
4.65139e-12
4.47238e-12
4.47683e-12
4.34895e-12
4.34888e-12
4.43855e-12
4.41206e-12
4.35061e-12
4.3858e-12
4.4845e-12
4.51253e-12
4.4605e-12
4.45314e-12
5.85718e-12
6.02388e-12
5.88948e-12
5.86897e-12
6.00326e-12
5.9914e-12
5.86586e-12
5.85383e-12
6.0236e-12
6.08427e-12
5.96986e-12
5.88568e-12
1.58679e-11
1.71786e-11
1.70248e-11
1.68565e-11
1.73066e-11
1.74049e-11
1.68056e-11
1.64503e-11
1.71238e-11
1.74215e-11
1.68561e-11
1.62231e-11
5.37781e-11
5.92856e-11
5.91125e-11
5.84632e-11
6.00896e-11
6.05838e-11
5.82242e-11
5.65639e-11
5.90626e-11
6.02519e-11
5.80567e-11
5.53578e-11
1.54246e-10
1.70532e-10
1.70498e-10
1.6885e-10
1.73599e-10
1.7514e-10
1.68184e-10
1.62919e-10
1.69994e-10
1.73568e-10
1.67324e-10
1.59138e-10
3.63747e-10
4.01394e-10
4.02019e-10
3.99053e-10
4.10436e-10
4.1423e-10
3.97894e-10
3.84652e-10
4.00545e-10
4.09182e-10
3.95311e-10
3.7576e-10
7.28639e-10
8.00672e-10
8.02886e-10
7.99309e-10
8.22704e-10
8.30635e-10
7.98456e-10
7.70287e-10
7.99969e-10
8.17692e-10
7.92435e-10
7.53449e-10
1.28028e-09
1.39881e-09
1.40394e-09
1.40218e-09
1.44473e-09
1.45928e-09
1.40406e-09
1.35159e-09
1.39957e-09
1.43146e-09
1.39242e-09
1.3249e-09
2.0261e-09
2.19827e-09
2.2073e-09
2.21246e-09
2.28266e-09
2.30653e-09
2.22153e-09
2.13378e-09
2.20268e-09
2.25464e-09
2.20225e-09
2.09759e-09
2.94935e-09
3.17449e-09
3.1876e-09
3.20755e-09
3.31444e-09
3.34989e-09
3.22989e-09
3.09567e-09
3.18552e-09
3.26366e-09
3.20179e-09
3.05319e-09
3.99796e-09
4.25572e-09
4.27757e-09
4.31838e-09
4.46123e-09
4.51325e-09
4.36217e-09
4.16961e-09
4.27063e-09
4.37733e-09
4.32101e-09
4.13534e-09
4.95091e-09
5.22911e-09
5.25376e-09
5.32493e-09
5.50938e-09
5.57015e-09
5.38666e-09
5.14466e-09
5.25655e-09
5.39161e-09
5.33948e-09
5.11344e-09
5.95552e-09
6.23892e-09
6.26471e-09
6.37583e-09
6.60786e-09
6.67604e-09
6.45935e-09
6.16482e-09
6.28369e-09
6.45005e-09
6.40799e-09
6.14012e-09
7.00147e-09
7.27185e-09
7.29637e-09
7.4577e-09
7.74345e-09
7.81728e-09
7.56706e-09
7.21759e-09
7.33899e-09
7.53966e-09
7.51409e-09
7.20354e-09
8.08071e-09
8.31741e-09
8.33743e-09
8.55962e-09
8.90526e-09
8.98247e-09
8.69869e-09
8.29275e-09
8.41206e-09
8.65008e-09
8.64747e-09
8.29391e-09
9.18828e-09
9.36894e-09
9.38035e-09
9.67408e-09
1.00858e-08
1.01635e-08
9.84621e-09
9.38337e-09
9.49618e-09
9.77453e-09
9.80087e-09
9.40438e-09
1.03228e-08
1.04241e-08
1.04219e-08
1.07974e-08
1.12814e-08
1.13564e-08
1.10053e-08
1.04863e-08
1.05888e-08
1.09105e-08
1.09708e-08
1.05316e-08
1.14871e-08
1.14855e-08
1.14635e-08
1.19299e-08
1.24929e-08
1.25617e-08
1.21762e-08
1.16028e-08
1.16919e-08
1.20601e-08
1.21584e-08
1.16766e-08
1.26889e-08
1.25606e-08
1.25118e-08
1.30771e-08
1.37263e-08
1.37855e-08
1.33642e-08
1.27389e-08
1.28125e-08
1.32311e-08
1.337e-08
1.28454e-08
1.39415e-08
1.36632e-08
1.35791e-08
1.42505e-08
1.4994e-08
1.50404e-08
1.4581e-08
1.39064e-08
1.39634e-08
1.44371e-08
1.46183e-08
1.40505e-08
1.52639e-08
1.48125e-08
1.46833e-08
1.54672e-08
1.63142e-08
1.63451e-08
1.58442e-08
1.51226e-08
1.51627e-08
1.56975e-08
1.59226e-08
1.5311e-08
1.66807e-08
1.60331e-08
1.58474e-08
1.67493e-08
1.77105e-08
1.77237e-08
1.71769e-08
1.64102e-08
1.64339e-08
1.7037e-08
1.73071e-08
1.66515e-08
1.82216e-08
1.73552e-08
1.7099e-08
1.81235e-08
1.92105e-08
1.92043e-08
1.86065e-08
1.77965e-08
1.78058e-08
1.84854e-08
1.88014e-08
1.81017e-08
1.99233e-08
1.88158e-08
1.84718e-08
1.96219e-08
2.08481e-08
2.0821e-08
2.01663e-08
1.93155e-08
1.9314e-08
2.00799e-08
2.04418e-08
1.96979e-08
2.1835e-08
2.04634e-08
2.00087e-08
2.12858e-08
2.26678e-08
2.26186e-08
2.19e-08
2.10114e-08
2.10056e-08
2.187e-08
2.22764e-08
2.14876e-08
2.40275e-08
2.23646e-08
2.17671e-08
2.31724e-08
2.47332e-08
2.466e-08
2.38686e-08
2.29458e-08
2.29451e-08
2.39244e-08
2.43729e-08
2.35363e-08
2.66054e-08
2.4613e-08
2.38268e-08
2.53633e-08
2.71368e-08
2.7037e-08
2.61603e-08
2.52059e-08
2.52234e-08
2.63404e-08
2.68287e-08
2.59378e-08
2.97231e-08
2.73412e-08
2.62998e-08
2.79761e-08
3.0014e-08
2.98828e-08
2.89025e-08
2.79165e-08
2.79689e-08
2.92561e-08
2.97837e-08
2.88264e-08
3.36036e-08
3.07359e-08
2.93432e-08
3.11785e-08
3.3558e-08
3.33878e-08
3.22768e-08
3.12536e-08
3.13611e-08
3.2865e-08
3.34363e-08
3.23926e-08
3.85634e-08
3.50578e-08
3.31766e-08
3.52065e-08
3.80415e-08
3.78203e-08
3.65385e-08
3.54633e-08
3.56494e-08
3.7436e-08
3.80642e-08
3.69042e-08
4.50501e-08
4.06697e-08
3.81041e-08
4.03895e-08
4.38453e-08
4.3555e-08
4.20432e-08
4.08877e-08
4.11794e-08
4.33416e-08
4.40553e-08
4.27357e-08
5.35614e-08
4.79262e-08
4.43777e-08
4.70161e-08
5.13474e-08
5.0961e-08
4.91307e-08
4.78485e-08
4.82826e-08
5.09568e-08
5.18051e-08
5.02605e-08
6.49176e-08
5.7413e-08
5.24312e-08
5.55762e-08
6.11733e-08
6.06491e-08
5.83657e-08
5.68847e-08
5.75133e-08
6.09018e-08
6.19654e-08
6.00983e-08
8.04432e-08
7.00484e-08
6.29423e-08
6.68375e-08
7.43113e-08
7.35824e-08
7.06364e-08
6.88476e-08
6.97508e-08
7.4161e-08
7.55732e-08
7.3231e-08
1.02294e-07
8.72758e-08
7.69588e-08
8.2e-08
9.23094e-08
9.12871e-08
8.7347e-08
8.5083e-08
8.63686e-08
9.22822e-08
9.42856e-08
9.12188e-08
1.32529e-07
1.11314e-07
9.60857e-08
1.02874e-07
1.15637e-07
1.15945e-07
1.10653e-07
1.0758e-07
1.07786e-07
1.15906e-07
1.19824e-07
1.15769e-07
1.66529e-07
1.39889e-07
1.19981e-07
1.25621e-07
1.42434e-07
1.43071e-07
1.37005e-07
1.31652e-07
1.31722e-07
1.42527e-07
1.47785e-07
1.42791e-07
2.12218e-07
1.75712e-07
1.48263e-07
1.55478e-07
1.78074e-07
1.79248e-07
1.70988e-07
1.6331e-07
1.63076e-07
1.77682e-07
1.85015e-07
1.78606e-07
2.73617e-07
2.23335e-07
1.85681e-07
1.95176e-07
2.2569e-07
2.27751e-07
2.16366e-07
2.05236e-07
2.04392e-07
2.24331e-07
2.34726e-07
2.263e-07
3.53285e-07
2.86546e-07
2.35388e-07
2.48116e-07
2.88916e-07
2.92491e-07
2.77083e-07
2.60869e-07
2.5892e-07
2.85745e-07
3.00276e-07
2.89598e-07
4.54513e-07
3.67349e-07
3.00662e-07
3.16995e-07
3.69853e-07
3.75769e-07
3.5529e-07
3.32151e-07
3.28255e-07
3.63728e-07
3.83885e-07
3.70528e-07
5.8031e-07
4.6882e-07
3.83376e-07
4.04155e-07
4.71931e-07
4.81272e-07
4.54307e-07
4.21685e-07
4.14823e-07
4.61138e-07
4.8893e-07
4.7247e-07
7.31915e-07
5.93583e-07
4.86536e-07
5.12658e-07
5.98037e-07
6.12148e-07
5.77291e-07
5.32107e-07
5.21078e-07
5.80181e-07
6.17988e-07
5.98309e-07
9.07842e-07
7.42688e-07
6.12455e-07
6.4453e-07
7.49469e-07
7.69826e-07
7.25928e-07
6.64927e-07
6.48597e-07
7.21625e-07
7.71825e-07
7.49398e-07
1.1034e-06
9.14841e-07
7.61835e-07
7.99881e-07
9.25045e-07
9.53061e-07
8.99496e-07
8.19964e-07
7.9757e-07
8.84347e-07
9.48402e-07
9.24697e-07
1.31109e-06
1.10604e-06
9.33091e-07
9.76247e-07
1.12059e-06
1.15745e-06
1.09436e-06
9.95026e-07
9.66461e-07
1.06525e-06
1.14204e-06
1.12032e-06
1.52166e-06
1.3099e-06
1.12214e-06
1.16849e-06
1.32913e-06
1.37571e-06
1.30425e-06
1.18596e-06
1.15196e-06
1.25954e-06
1.34287e-06
1.32983e-06
1.72512e-06
1.51861e-06
1.32277e-06
1.36944e-06
1.54193e-06
1.59825e-06
1.52132e-06
1.38711e-06
1.34924e-06
1.46135e-06
1.5449e-06
1.54524e-06
1.83979e-06
1.72422e-06
1.5274e-06
1.571e-06
1.74999e-06
1.81479e-06
1.73713e-06
1.59194e-06
1.55241e-06
1.6642e-06
1.74504e-06
1.75821e-06
1.77242e-06
1.91965e-06
1.72788e-06
1.76553e-06
1.93859e-06
2.01697e-06
1.94328e-06
1.79367e-06
1.75489e-06
1.86133e-06
1.9377e-06
1.96075e-06
1.73052e-06
2.08608e-06
1.7432e-06
1.66843e-06
1.81011e-06
1.91651e-06
2.01567e-06
1.97246e-06
1.93565e-06
1.9123e-06
1.91771e-06
2.03144e-06
1.73961e-06
2.07115e-06
1.68549e-06
1.55636e-06
1.69145e-06
1.81298e-06
1.95518e-06
1.9616e-06
1.94251e-06
1.88623e-06
1.87731e-06
2.03054e-06
1.79971e-06
2.07581e-06
1.64974e-06
1.47755e-06
1.60863e-06
1.7373e-06
1.90441e-06
1.95557e-06
1.95873e-06
1.88354e-06
1.86022e-06
2.04128e-06
1.90927e-06
2.11615e-06
1.64073e-06
1.42777e-06
1.55227e-06
1.68657e-06
1.87339e-06
1.9746e-06
2.00628e-06
1.91716e-06
1.87227e-06
2.07264e-06
2.06564e-06
2.19066e-06
1.65755e-06
1.40059e-06
1.51426e-06
1.65793e-06
1.86458e-06
2.02025e-06
2.08529e-06
1.98519e-06
1.91223e-06
2.12328e-06
2.26366e-06
2.29572e-06
1.69798e-06
1.38811e-06
1.4893e-06
1.6475e-06
1.88166e-06
2.09445e-06
2.19569e-06
2.08559e-06
1.97825e-06
2.19168e-06
2.49417e-06
2.42519e-06
1.75791e-06
1.38425e-06
1.47348e-06
1.6512e-06
1.92297e-06
2.19951e-06
2.33599e-06
2.21715e-06
2.06896e-06
2.27542e-06
2.73434e-06
2.57073e-06
1.83272e-06
1.38528e-06
1.46456e-06
1.66587e-06
1.98377e-06
2.3364e-06
2.50278e-06
2.37743e-06
2.1823e-06
2.37081e-06
2.85641e-06
2.72213e-06
1.91848e-06
1.38966e-06
1.46203e-06
1.68972e-06
2.06036e-06
2.50219e-06
2.6926e-06
2.56033e-06
2.31526e-06
2.47316e-06
2.87853e-06
2.86561e-06
2.01197e-06
1.39761e-06
1.46682e-06
1.72236e-06
2.1509e-06
2.69241e-06
2.90441e-06
2.76104e-06
2.46453e-06
2.57686e-06
2.89527e-06
2.92444e-06
2.11034e-06
1.4109e-06
1.48082e-06
1.7649e-06
2.25544e-06
2.90255e-06
3.02491e-06
2.97593e-06
2.62473e-06
2.67575e-06
2.90766e-06
2.9407e-06
2.21136e-06
1.43267e-06
1.5067e-06
1.81984e-06
2.37561e-06
3.03758e-06
3.0509e-06
3.05869e-06
2.7885e-06
2.76417e-06
2.91663e-06
2.95202e-06
2.31349e-06
1.46749e-06
1.54785e-06
1.89076e-06
2.5135e-06
3.05383e-06
3.0708e-06
3.07557e-06
2.95381e-06
2.8379e-06
2.92299e-06
2.9591e-06
2.41484e-06
1.52149e-06
1.60831e-06
1.98176e-06
2.67285e-06
3.06513e-06
3.08523e-06
3.08801e-06
3.05053e-06
2.89476e-06
2.92742e-06
2.96242e-06
2.51264e-06
1.60262e-06
1.69277e-06
2.09683e-06
2.86026e-06
3.07377e-06
3.09547e-06
3.09651e-06
3.05663e-06
2.93468e-06
2.93043e-06
2.96236e-06
2.60348e-06
1.7205e-06
1.80625e-06
2.23883e-06
3.05563e-06
3.08022e-06
3.10247e-06
3.10173e-06
3.05977e-06
2.95997e-06
2.93241e-06
2.96033e-06
2.68373e-06
1.88523e-06
1.95318e-06
2.4085e-06
3.06215e-06
3.08486e-06
3.1069e-06
3.10423e-06
3.0604e-06
2.97574e-06
2.9336e-06
2.9566e-06
2.75025e-06
2.10434e-06
2.1357e-06
2.60609e-06
3.06593e-06
3.08795e-06
3.10919e-06
3.10441e-06
3.05888e-06
2.98233e-06
2.9335e-06
2.9498e-06
2.80073e-06
2.37974e-06
2.35302e-06
2.82884e-06
3.069e-06
3.08971e-06
3.10969e-06
3.10266e-06
3.0555e-06
2.97409e-06
2.93215e-06
2.93946e-06
2.83282e-06
2.69014e-06
2.60394e-06
3.04181e-06
3.07144e-06
3.09031e-06
3.10861e-06
3.09924e-06
3.0506e-06
2.96465e-06
2.93007e-06
2.9255e-06
2.84263e-06
2.88385e-06
2.86613e-06
3.04619e-06
3.07326e-06
3.0899e-06
3.10589e-06
3.09447e-06
3.04448e-06
2.95456e-06
2.92715e-06
2.90798e-06
2.82767e-06
2.88609e-06
2.98773e-06
3.04965e-06
3.07456e-06
3.08856e-06
3.10167e-06
3.08861e-06
3.0375e-06
2.94469e-06
2.92331e-06
2.83894e-06
2.79069e-06
2.88552e-06
2.99171e-06
3.05233e-06
3.07534e-06
3.08639e-06
3.09633e-06
3.08197e-06
3.03e-06
2.93585e-06
2.91856e-06
2.67962e-06
2.73946e-06
2.88273e-06
2.99477e-06
3.05441e-06
3.07556e-06
3.08343e-06
3.09021e-06
3.07487e-06
3.02233e-06
2.92782e-06
2.91291e-06
2.53748e-06
2.68625e-06
2.87822e-06
2.99719e-06
3.05597e-06
3.07521e-06
3.07975e-06
3.08359e-06
3.06763e-06
3.01487e-06
2.92086e-06
2.90654e-06
2.43664e-06
2.6445e-06
2.87248e-06
2.99904e-06
3.05721e-06
3.07428e-06
3.07533e-06
3.07665e-06
3.06057e-06
3.00787e-06
2.91475e-06
2.89983e-06
2.38558e-06
2.6233e-06
2.86639e-06
3.00051e-06
3.05818e-06
3.07272e-06
3.07027e-06
3.06962e-06
3.05398e-06
3.00165e-06
2.90917e-06
2.89322e-06
2.38377e-06
2.6236e-06
2.82855e-06
3.00169e-06
3.0584e-06
3.07047e-06
3.06456e-06
3.06269e-06
3.04809e-06
2.99636e-06
2.90355e-06
5.00886e-12
5.03503e-12
4.90141e-12
4.90618e-12
5.00338e-12
4.96522e-12
4.89784e-12
4.94677e-12
5.05149e-12
5.07271e-12
5.00741e-12
5.00231e-12
4.8814e-12
4.90609e-12
4.77439e-12
4.7811e-12
4.87814e-12
4.84092e-12
4.77552e-12
4.82353e-12
4.92713e-12
4.94765e-12
4.88389e-12
4.87904e-12
7.96944e-12
7.99699e-12
7.75817e-12
7.80869e-12
8.00718e-12
7.94329e-12
7.84183e-12
7.92662e-12
8.12084e-12
8.15135e-12
8.0451e-12
8.03545e-12
3.07382e-11
3.07895e-11
2.98034e-11
3.01512e-11
3.10402e-11
3.07722e-11
3.04118e-11
3.07706e-11
3.15913e-11
3.16898e-11
3.12743e-11
3.12111e-11
1.16943e-10
1.16995e-10
1.13281e-10
1.14786e-10
1.18194e-10
1.17136e-10
1.15853e-10
1.17255e-10
1.20332e-10
1.20656e-10
1.19111e-10
1.18784e-10
3.46434e-10
3.46064e-10
3.3539e-10
3.40099e-10
3.4999e-10
3.46857e-10
3.43332e-10
3.47435e-10
3.56116e-10
3.56953e-10
3.52627e-10
3.51494e-10
8.26262e-10
8.2373e-10
7.99171e-10
8.10824e-10
8.33832e-10
8.26611e-10
8.18977e-10
8.28346e-10
8.47714e-10
8.49466e-10
8.40049e-10
8.37206e-10
1.66252e-09
1.65338e-09
1.60578e-09
1.6298e-09
1.67495e-09
1.66131e-09
1.64773e-09
1.66532e-09
1.70133e-09
1.70445e-09
1.68778e-09
1.68229e-09
2.92726e-09
2.90304e-09
2.82158e-09
2.86503e-09
2.94265e-09
2.92054e-09
2.90005e-09
2.92834e-09
2.98614e-09
2.99147e-09
2.96665e-09
2.95814e-09
4.63745e-09
4.58566e-09
4.45967e-09
4.52959e-09
4.64938e-09
4.61741e-09
4.59057e-09
4.63135e-09
4.71443e-09
4.72281e-09
4.69059e-09
4.67981e-09
6.75442e-09
6.66014e-09
6.48028e-09
6.58241e-09
6.75145e-09
6.7088e-09
6.67789e-09
6.73262e-09
6.84243e-09
6.8544e-09
6.8167e-09
6.80565e-09
9.13809e-09
9.00644e-09
8.7983e-09
8.91357e-09
9.09873e-09
9.05082e-09
9.03083e-09
9.10724e-09
9.24147e-09
9.24304e-09
9.19512e-09
9.20723e-09
1.13153e-08
1.11428e-08
1.08903e-08
1.10263e-08
1.12445e-08
1.11856e-08
1.11692e-08
1.12688e-08
1.14278e-08
1.14251e-08
1.13651e-08
1.13816e-08
1.3606e-08
1.33893e-08
1.30904e-08
1.32452e-08
1.34951e-08
1.34244e-08
1.34148e-08
1.35404e-08
1.3724e-08
1.3716e-08
1.36426e-08
1.36627e-08
1.59866e-08
1.57223e-08
1.53753e-08
1.55464e-08
1.58254e-08
1.57419e-08
1.57424e-08
1.5897e-08
1.61047e-08
1.60908e-08
1.60029e-08
1.60252e-08
1.84388e-08
1.81236e-08
1.77264e-08
1.79112e-08
1.82156e-08
1.81174e-08
1.81316e-08
1.83186e-08
1.85502e-08
1.853e-08
1.84256e-08
1.84482e-08
2.09517e-08
2.05829e-08
2.01327e-08
2.03277e-08
2.06537e-08
2.05383e-08
2.05686e-08
2.07922e-08
2.10481e-08
2.10218e-08
2.0898e-08
2.09174e-08
2.35236e-08
2.3098e-08
2.25908e-08
2.27919e-08
2.31365e-08
2.30005e-08
2.30483e-08
2.33128e-08
2.35941e-08
2.3563e-08
2.34161e-08
2.34269e-08
2.61625e-08
2.56758e-08
2.51054e-08
2.53084e-08
2.56703e-08
2.55106e-08
2.55751e-08
2.58841e-08
2.61921e-08
2.61594e-08
2.59855e-08
2.59807e-08
2.88872e-08
2.83328e-08
2.76897e-08
2.78906e-08
2.82719e-08
2.80854e-08
2.81636e-08
2.85191e-08
2.8855e-08
2.88265e-08
2.86227e-08
2.85941e-08
3.17279e-08
3.10952e-08
3.03655e-08
3.05622e-08
3.09689e-08
3.07524e-08
3.08389e-08
3.12401e-08
3.16044e-08
3.15882e-08
3.1355e-08
3.12929e-08
3.4725e-08
3.39969e-08
3.31617e-08
3.33548e-08
3.37976e-08
3.35476e-08
3.36344e-08
3.4077e-08
3.44692e-08
3.44769e-08
3.42183e-08
3.41121e-08
3.79259e-08
3.70788e-08
3.61134e-08
3.63061e-08
3.68004e-08
3.65131e-08
3.65896e-08
3.7066e-08
3.74843e-08
3.75307e-08
3.72545e-08
3.70936e-08
4.13844e-08
4.03878e-08
3.92598e-08
3.94574e-08
4.00248e-08
3.96965e-08
3.97493e-08
4.02482e-08
4.06901e-08
4.07932e-08
4.05105e-08
4.02845e-08
4.5166e-08
4.39792e-08
4.26447e-08
4.2855e-08
4.35266e-08
4.31532e-08
4.31652e-08
4.3672e-08
4.41347e-08
4.43156e-08
4.40419e-08
4.3741e-08
4.93585e-08
4.79236e-08
4.63211e-08
4.65559e-08
4.73781e-08
4.69551e-08
4.69031e-08
4.73993e-08
4.788e-08
4.81643e-08
4.79202e-08
4.75361e-08
5.40868e-08
5.23181e-08
5.03587e-08
5.06368e-08
5.16794e-08
5.12017e-08
5.10541e-08
5.15149e-08
5.20107e-08
5.24299e-08
5.22442e-08
5.17714e-08
5.953e-08
5.72987e-08
5.48548e-08
5.52058e-08
5.65712e-08
5.60324e-08
5.57461e-08
5.6139e-08
5.66462e-08
5.72389e-08
5.7152e-08
5.65907e-08
6.5935e-08
6.30532e-08
5.99466e-08
6.04139e-08
6.22466e-08
6.16386e-08
6.11561e-08
6.14385e-08
6.19523e-08
6.27645e-08
6.28321e-08
6.2193e-08
7.36296e-08
6.98333e-08
6.58224e-08
6.64665e-08
6.89608e-08
6.82734e-08
6.75205e-08
6.76392e-08
6.8154e-08
6.92388e-08
6.95339e-08
6.88447e-08
8.30247e-08
7.79636e-08
7.27338e-08
7.36318e-08
7.70309e-08
7.62523e-08
7.51365e-08
7.50298e-08
7.55418e-08
7.69579e-08
7.75691e-08
7.68817e-08
9.46533e-08
8.785e-08
8.0999e-08
8.22351e-08
8.68444e-08
8.59593e-08
8.43649e-08
8.39673e-08
8.44818e-08
8.62985e-08
8.73308e-08
8.67285e-08
1.09356e-07
1.00087e-07
9.10181e-08
9.27073e-08
9.89665e-08
9.79528e-08
9.57286e-08
9.49737e-08
9.55146e-08
9.78243e-08
9.94153e-08
9.90251e-08
1.28476e-07
1.15629e-07
1.03446e-07
1.0574e-07
1.14285e-07
1.1311e-07
1.10056e-07
1.08882e-07
1.09508e-07
1.12435e-07
1.14773e-07
1.14787e-07
1.54169e-07
1.35975e-07
1.19297e-07
1.22401e-07
1.34166e-07
1.32776e-07
1.28619e-07
1.26992e-07
1.27826e-07
1.31547e-07
1.34901e-07
1.35604e-07
1.9003e-07
1.63537e-07
1.40164e-07
1.44361e-07
1.60761e-07
1.59048e-07
1.53411e-07
1.51381e-07
1.52676e-07
1.57472e-07
1.62239e-07
1.64038e-07
2.41696e-07
2.02101e-07
1.6851e-07
1.74132e-07
1.97278e-07
1.95219e-07
1.87629e-07
1.85277e-07
1.87363e-07
1.93704e-07
2.00575e-07
2.04119e-07
2.92833e-07
2.46552e-07
2.03276e-07
2.07678e-07
2.3776e-07
2.42437e-07
2.34004e-07
2.23894e-07
2.19841e-07
2.27818e-07
2.40586e-07
2.50283e-07
3.58241e-07
2.97381e-07
2.407e-07
2.46392e-07
2.86082e-07
2.92645e-07
2.81404e-07
2.67854e-07
2.62581e-07
2.72566e-07
2.90531e-07
3.04178e-07
4.40422e-07
3.63162e-07
2.90253e-07
2.97517e-07
3.48633e-07
3.57689e-07
3.43528e-07
3.25884e-07
3.19004e-07
3.30784e-07
3.54655e-07
3.73576e-07
5.41066e-07
4.44408e-07
3.53636e-07
3.62221e-07
4.26013e-07
4.3816e-07
4.20626e-07
3.98163e-07
3.89436e-07
4.02838e-07
4.33695e-07
4.59726e-07
6.61696e-07
5.43331e-07
4.31843e-07
4.41744e-07
5.20466e-07
5.3634e-07
5.14856e-07
4.86784e-07
4.7609e-07
4.90997e-07
5.29934e-07
5.65038e-07
8.02305e-07
6.61521e-07
5.27158e-07
5.38343e-07
6.33918e-07
6.54085e-07
6.28175e-07
5.93891e-07
5.81268e-07
5.97431e-07
6.45073e-07
6.91103e-07
9.60946e-07
7.99367e-07
6.41505e-07
6.53822e-07
7.67364e-07
7.92224e-07
7.61584e-07
7.20909e-07
7.06613e-07
7.23638e-07
7.79704e-07
8.3811e-07
1.13374e-06
9.55701e-07
7.75891e-07
7.8908e-07
9.20468e-07
9.50238e-07
9.14761e-07
8.68124e-07
8.52647e-07
8.69996e-07
9.32972e-07
1.00447e-06
1.31536e-06
1.12769e-06
9.2999e-07
9.43728e-07
1.09133e-06
1.12622e-06
1.08587e-06
1.03433e-06
1.01834e-06
1.03534e-06
1.10252e-06
1.18674e-06
1.50001e-06
1.31108e-06
1.10183e-06
1.11578e-06
1.27648e-06
1.3173e-06