/*--------------------------------*- C++ -*----------------------------------*\
| =========                 |                                                 |
| \\      /  F ield         | OpenFOAM: The Open Source CFD Toolbox           |
|  \\    /   O peration     | Version:  v1912                                 |
|   \\  /    A nd           | Website:  www.openfoam.com                      |
|    \\/     M anipulation  |                                                 |
\*---------------------------------------------------------------------------*/
FoamFile
{
    version     2.0;
    format      ascii;
    class       volSymmTensorField;
    location    "10";
    object      UPrime2Mean;
}
// * * * * * * * * * * * * * * * * * * * * * * * * * * * * * * * * * * * * * //

dimensions      [0 2 -2 0 0 0 0];


internalField   nonuniform List<symmTensor> 
34128
(
(1.2923e-10 2.56275e-12 5.70673e-10 1.63987e-10 1.30161e-08 7.9668e-06)
(1.0494e-10 2.38778e-12 8.06544e-10 1.64006e-10 1.30306e-08 7.97484e-06)
(1.07586e-10 1.6512e-12 8.96657e-10 1.64022e-10 1.3043e-08 7.98993e-06)
(1.22074e-10 -6.02792e-13 3.50693e-11 1.64022e-10 1.30462e-08 7.99175e-06)
(1.49785e-10 -1.51432e-12 -2.22667e-10 1.64016e-10 1.30335e-08 7.97956e-06)
(1.14624e-10 -2.22145e-12 -2.95429e-10 1.64001e-10 1.30181e-08 7.96821e-06)
(1.0215e-10 -2.15387e-12 1.0006e-10 1.63999e-10 1.30112e-08 7.96211e-06)
(1.08245e-10 -2.06729e-12 3.5133e-10 1.64e-10 1.3024e-08 7.97548e-06)
(1.18874e-10 -3.02098e-12 -1.3443e-10 1.64011e-10 1.30468e-08 7.99342e-06)
(1.39557e-10 -4.79299e-12 -7.78012e-10 1.64003e-10 1.30434e-08 7.99155e-06)
(1.41362e-10 -5.07423e-12 -9.75034e-10 1.63977e-10 1.3012e-08 7.96832e-06)
(1.57714e-10 -3.3257e-12 -4.36196e-10 1.63929e-10 1.30063e-08 7.95626e-06)
(1.09673e-09 -8.13052e-12 2.79202e-09 3.63317e-10 -5.433e-08 2.7994e-05)
(8.94149e-10 -8.23649e-12 4.54662e-09 3.63111e-10 -5.43305e-08 2.80509e-05)
(9.10876e-10 -4.26398e-12 4.67092e-09 3.62956e-10 -5.42915e-08 2.81599e-05)
(1.03585e-09 3.28563e-12 -1.27072e-09 3.62981e-10 -5.42523e-08 2.81718e-05)
(1.26761e-09 6.70293e-12 -3.48769e-09 3.63097e-10 -5.42635e-08 2.80826e-05)
(9.72929e-10 1.05765e-11 -3.67118e-09 3.6317e-10 -5.43129e-08 2.80032e-05)
(8.66075e-10 1.18261e-11 -7.52433e-10 3.63202e-10 -5.43173e-08 2.79611e-05)
(9.18482e-10 1.32295e-11 1.10569e-09 3.63217e-10 -5.4262e-08 2.80568e-05)
(1.00687e-09 1.48145e-11 -2.24166e-09 3.6308e-10 -5.42438e-08 2.81802e-05)
(1.18305e-09 2.14819e-11 -6.62285e-09 3.63153e-10 -5.42689e-08 2.81674e-05)
(1.19942e-09 2.30424e-11 -8.19886e-09 3.63537e-10 -5.42909e-08 2.80069e-05)
(1.33729e-09 1.35513e-11 -4.5467e-09 3.6381e-10 -5.4334e-08 2.79223e-05)
(2.93565e-09 5.97431e-12 5.38864e-09 1.79976e-10 5.65308e-08 5.04435e-05)
(2.40208e-09 6.76428e-12 1.00861e-08 1.79956e-10 5.67256e-08 5.05804e-05)
(2.43461e-09 1.11964e-11 1.03338e-08 1.80615e-10 5.72058e-08 5.0843e-05)
(2.77069e-09 -1.27545e-12 -3.27444e-09 1.81073e-10 5.73594e-08 5.0868e-05)
(3.38274e-09 -1.81844e-12 -8.34406e-09 1.8063e-10 5.70314e-08 5.06506e-05)
(2.60233e-09 1.62588e-12 -7.93036e-09 1.80019e-10 5.66246e-08 5.04661e-05)
(2.31551e-09 5.00294e-12 -6.65819e-10 1.79724e-10 5.64609e-08 5.03698e-05)
(2.45798e-09 1.05914e-11 4.04075e-09 1.80419e-10 5.68901e-08 5.05972e-05)
(2.69004e-09 9.21771e-13 -3.419e-09 1.81009e-10 5.73392e-08 5.08848e-05)
(3.16127e-09 -7.56615e-12 -1.33936e-08 1.80869e-10 5.72246e-08 5.08574e-05)
(3.20693e-09 -8.59632e-12 -1.71976e-08 1.80139e-10 5.66081e-08 5.04846e-05)
(3.5748e-09 -1.12675e-11 -9.09529e-09 1.79512e-10 5.61831e-08 5.02879e-05)
(5.56377e-09 -1.30215e-11 8.49033e-09 9.35318e-11 -3.70136e-08 7.14368e-05)
(4.56913e-09 -9.34285e-12 1.70305e-08 9.22096e-11 -3.66984e-08 7.1674e-05)
(4.60886e-09 9.83161e-12 1.7248e-08 9.29186e-11 -3.56704e-08 7.21263e-05)
(5.24656e-09 6.76427e-12 -5.88185e-09 9.4322e-11 -3.53064e-08 7.21611e-05)
(6.38954e-09 1.45995e-11 -1.41829e-08 9.39468e-11 -3.59841e-08 7.1782e-05)
(4.92658e-09 3.24066e-11 -1.23624e-08 9.27962e-11 -3.68103e-08 7.14774e-05)
(4.38292e-09 4.04153e-11 1.76096e-10 9.2346e-11 -3.71154e-08 7.13201e-05)
(4.65797e-09 5.28709e-11 8.44675e-09 9.42041e-11 -3.61773e-08 7.17035e-05)
(5.09003e-09 3.96893e-11 -3.58273e-09 9.46914e-11 -3.53584e-08 7.2182e-05)
(5.98081e-09 4.24752e-11 -2.01641e-08 9.4918e-11 -3.55928e-08 7.21411e-05)
(6.07007e-09 4.2994e-11 -2.6829e-08 9.578e-11 -3.66987e-08 7.15215e-05)
(6.76564e-09 9.80006e-12 -1.39252e-08 9.57106e-11 -3.75668e-08 7.11959e-05)
(8.90356e-09 -8.06891e-12 1.20771e-08 5.65357e-11 3.74962e-08 8.94496e-05)
(7.33864e-09 3.82004e-12 2.48875e-08 5.43066e-11 3.81932e-08 8.98001e-05)
(7.36905e-09 3.84934e-11 2.46722e-08 5.81921e-11 4.03626e-08 9.04591e-05)
(8.38935e-09 9.37712e-12 -9.32345e-09 6.2282e-11 4.10406e-08 9.04953e-05)
(1.01891e-08 1.70875e-11 -2.08523e-08 5.99141e-11 3.95535e-08 8.99346e-05)
(7.87396e-09 4.86002e-11 -1.67851e-08 5.5752e-11 3.78942e-08 8.95108e-05)
(7.00567e-09 6.61458e-11 1.23625e-09 5.402e-11 3.72467e-08 8.9294e-05)
(7.45501e-09 9.37964e-11 1.33259e-08 5.97125e-11 3.91618e-08 8.98386e-05)
(8.1354e-09 6.03432e-11 -3.23607e-09 6.27272e-11 4.09119e-08 9.05111e-05)
(9.55493e-09 4.76652e-11 -2.68788e-08 6.27996e-11 4.05023e-08 9.04607e-05)
(9.70118e-09 4.35392e-11 -3.68207e-08 6.17826e-11 3.81684e-08 8.95893e-05)
(1.08128e-08 -5.66589e-12 -1.93867e-08 5.93751e-11 3.64319e-08 8.91346e-05)
(1.28817e-08 -1.32366e-11 1.6152e-08 1.25575e-10 5.88486e-08 0.000103941)
(1.06563e-08 1.45953e-11 3.32795e-08 1.21131e-10 6.00293e-08 0.000104412)
(1.06558e-08 7.40316e-11 3.20643e-08 1.30408e-10 6.37206e-08 0.00010528)
(1.21313e-08 1.73681e-11 -1.37278e-08 1.39211e-10 6.47868e-08 0.000105306)
(1.46897e-08 2.74476e-11 -2.82023e-08 1.33573e-10 6.21962e-08 0.000104555)
(1.13775e-08 8.40702e-11 -2.10414e-08 1.24463e-10 5.95199e-08 0.000104023)
(1.0126e-08 1.143e-10 2.21886e-09 1.20768e-10 5.84662e-08 0.000103754)
(1.07908e-08 1.63072e-10 1.80844e-08 1.33154e-10 6.16447e-08 0.000104451)
(1.1761e-08 1.06758e-10 -2.67458e-09 1.39964e-10 6.45248e-08 0.000105305)
(1.38034e-08 8.08876e-11 -3.34105e-08 1.40371e-10 6.3934e-08 0.00010525)
(1.40191e-08 6.88704e-11 -4.68412e-08 1.3776e-10 6.01402e-08 0.000104143)
(1.56264e-08 -1.61016e-11 -2.56214e-08 1.31987e-10 5.73454e-08 0.000103571)
(1.743e-08 -1.67207e-11 2.0615e-08 2.47148e-10 9.55866e-08 0.00011485)
(1.44704e-08 3.76584e-11 4.18296e-08 2.39724e-10 9.74379e-08 0.000115442)
(1.4415e-08 1.29005e-10 3.90106e-08 2.59031e-10 1.03143e-07 0.000116512)
(1.64119e-08 2.79701e-11 -1.91191e-08 2.75474e-10 1.04641e-07 0.000116516)
(1.98087e-08 3.87947e-11 -3.6078e-08 2.63622e-10 1.00535e-07 0.000115573)
(1.5376e-08 1.30531e-10 -2.50106e-08 2.46426e-10 9.66431e-08 0.000114951)
(1.36919e-08 1.75911e-10 3.01275e-09 2.39589e-10 9.50959e-08 0.000114639)
(1.46128e-08 2.52989e-10 2.2432e-08 2.62984e-10 9.98574e-08 0.000115473)
(1.59087e-08 1.67634e-10 -2.08297e-09 2.76332e-10 1.0414e-07 0.000116486)
(1.86539e-08 1.19793e-10 -3.96281e-08 2.77605e-10 1.03364e-07 0.000116432)
(1.89504e-08 9.20996e-11 -5.65775e-08 2.71762e-10 9.77608e-08 0.000115118)
(2.11256e-08 -4.13084e-11 -3.26713e-08 2.59645e-10 9.3661e-08 0.000114448)
(2.24874e-08 -1.78398e-11 2.52657e-08 4.35632e-10 1.39675e-07 0.000122355)
(1.87342e-08 7.61876e-11 5.01702e-08 4.24516e-10 1.42395e-07 0.000123066)
(1.85994e-08 2.06383e-10 4.52368e-08 4.60491e-10 1.50591e-07 0.000124321)
(2.11796e-08 4.1471e-11 -2.53781e-08 4.8812e-10 1.5253e-07 0.000124292)
(2.54744e-08 5.09685e-11 -4.42749e-08 4.65688e-10 1.46471e-07 0.000123165)
(1.98168e-08 1.89888e-10 -2.85708e-08 4.36702e-10 1.41213e-07 0.00012247)
(1.76591e-08 2.51417e-10 3.67394e-09 4.25355e-10 1.39112e-07 0.000122127)
(1.88763e-08 3.63931e-10 2.63315e-08 4.65212e-10 1.45745e-07 0.000123079)
(2.05293e-08 2.44824e-10 -1.53204e-09 4.88485e-10 1.51663e-07 0.000124224)
(2.40441e-08 1.65265e-10 -4.53652e-08 4.91787e-10 1.50738e-07 0.000124174)
(2.44324e-08 1.1064e-10 -6.57081e-08 4.80873e-10 1.4308e-07 0.00012269)
(2.72402e-08 -8.80268e-11 -4.0461e-08 4.58401e-10 1.3752e-07 0.000121944)
(2.80033e-08 -1.39431e-11 2.98488e-08 7.10108e-10 1.91143e-07 0.000126747)
(2.34078e-08 1.34609e-10 5.79848e-08 6.94972e-10 1.94958e-07 0.00012757)
(2.31708e-08 3.09785e-10 5.06141e-08 7.56791e-10 2.06115e-07 0.00012899)
(2.63938e-08 5.74832e-11 -3.22486e-08 7.9964e-10 2.08477e-07 0.00012892)
(3.16294e-08 6.29087e-11 -5.25339e-08 7.60292e-10 2.00001e-07 0.00012762)
(2.46576e-08 2.62659e-10 -3.15914e-08 7.15399e-10 1.93268e-07 0.000126871)
(2.19925e-08 3.39557e-10 4.36299e-09 6.97996e-10 1.90579e-07 0.000126506)
(2.35462e-08 4.94439e-10 2.98997e-08 7.60908e-10 1.99342e-07 0.000127559)
(2.55845e-08 3.38095e-10 -1.01296e-09 7.98223e-10 2.07093e-07 0.000128809)
(2.99243e-08 2.14955e-10 -5.04408e-08 8.05574e-10 2.06071e-07 0.000128764)
(3.04151e-08 1.18074e-10 -7.39323e-08 7.87401e-10 1.96182e-07 0.000127149)
(3.39137e-08 -1.6619e-10 -4.88313e-08 7.49333e-10 1.89058e-07 0.00012635)
(3.39391e-08 -2.49187e-12 3.41128e-08 1.08585e-09 2.47228e-07 0.000128353)
(2.84606e-08 2.16123e-10 6.50485e-08 1.06695e-09 2.5236e-07 0.000129277)
(2.81011e-08 4.41691e-10 5.51468e-08 1.16647e-09 2.66929e-07 0.000130841)
(3.20267e-08 7.58156e-11 -3.93817e-08 1.22885e-09 2.69675e-07 0.000130726)
(3.82323e-08 7.42517e-11 -6.05649e-08 1.16395e-09 2.58308e-07 0.000129268)
(2.98686e-08 3.49935e-10 -3.39429e-08 1.099e-09 2.50037e-07 0.00012848)
(2.66681e-08 4.39306e-10 5.26672e-09 1.07397e-09 2.46749e-07 0.000128104)
(2.85986e-08 6.42797e-10 3.32985e-08 1.16748e-09 2.5787e-07 0.000129241)
(3.10483e-08 4.47247e-10 -4.83207e-10 1.22343e-09 2.67606e-07 0.000130572)
(3.626e-08 2.67452e-10 -5.46965e-08 1.23802e-09 2.66551e-07 0.000130532)
(3.68638e-08 1.08971e-10 -8.10174e-08 1.21055e-09 2.54354e-07 0.000128823)
(4.11051e-08 -2.86061e-10 -5.76e-08 1.15068e-09 2.45617e-07 0.000127992)
(4.02701e-08 1.97862e-11 3.78637e-08 1.57878e-09 3.07008e-07 0.000127503)
(3.38727e-08 3.23676e-10 7.12512e-08 1.55719e-09 3.13661e-07 0.000128515)
(3.33741e-08 6.04253e-10 5.89408e-08 1.70923e-09 3.32071e-07 0.000130204)
(3.8064e-08 9.65053e-11 -4.63977e-08 1.79555e-09 3.35145e-07 0.000130043)
(4.52586e-08 8.48192e-11 -6.80818e-08 1.69371e-09 3.2042e-07 0.000128444)
(3.54334e-08 4.52486e-10 -3.55132e-08 1.60482e-09 3.10587e-07 0.000127629)
(3.16736e-08 5.49377e-10 6.53005e-09 1.5706e-09 3.06711e-07 0.00012725)
(3.4022e-08 8.0682e-10 3.66447e-08 1.70313e-09 3.20391e-07 0.000128459)
(3.69085e-08 5.71275e-10 9.19774e-11 1.78273e-09 3.32218e-07 0.000129848)
(4.30325e-08 3.20489e-10 -5.80313e-08 1.80915e-09 3.31206e-07 0.000129811)
(4.37595e-08 7.73548e-11 -8.68373e-08 1.77069e-09 3.16717e-07 0.000128043)
(4.87894e-08 -4.58374e-10 -6.66236e-08 1.682e-09 3.06373e-07 0.000127198)
(4.69852e-08 5.61776e-11 4.10035e-08 2.20388e-09 3.68911e-07 0.000124516)
(3.96349e-08 4.59407e-10 7.65931e-08 2.18164e-09 3.77264e-07 0.000125601)
(3.89849e-08 7.98886e-10 6.21612e-08 2.40409e-09 3.99908e-07 0.000127395)
(4.45045e-08 1.20276e-10 -5.29465e-08 2.51872e-09 4.03248e-07 0.000127189)
(5.27001e-08 9.50364e-11 -7.48345e-08 2.36551e-09 3.84717e-07 0.000125467)
(4.1349e-08 5.71067e-10 -3.62191e-08 2.24929e-09 3.73336e-07 0.000124638)
(3.70076e-08 6.68576e-10 8.21263e-09 2.20448e-09 3.68906e-07 0.000124262)
(3.98162e-08 9.84038e-10 3.99549e-08 2.38515e-09 3.8531e-07 0.000125531)
(4.31657e-08 7.08631e-10 7.07078e-10 2.49367e-09 3.99288e-07 0.000126958)
(5.02389e-08 3.71767e-10 -6.04253e-08 2.5381e-09 3.98408e-07 0.000126924)
(5.10982e-08 1.78506e-11 -9.13898e-08 2.48774e-09 3.81735e-07 0.000125129)
(5.69573e-08 -6.93303e-10 -7.58471e-08 2.36275e-09 3.69848e-07 0.000124284)
(5.40855e-08 1.09975e-10 4.35379e-08 2.97625e-09 4.31413e-07 0.000119688)
(4.57484e-08 6.24937e-10 8.11608e-08 2.95643e-09 4.41614e-07 0.000120831)
(4.49399e-08 1.02661e-09 6.49756e-08 3.27041e-09 4.68848e-07 0.000122713)
(5.13597e-08 1.48671e-10 -5.87515e-08 3.41758e-09 4.72383e-07 0.000122465)
(6.05638e-08 1.05947e-10 -8.06311e-08 3.19521e-09 4.49628e-07 0.000120638)
(4.76245e-08 7.06434e-10 -3.60245e-08 3.04903e-09 4.3676e-07 0.000119804)
(4.26793e-08 7.95841e-10 1.02692e-08 2.99247e-09 4.31833e-07 0.000119438)
(4.5992e-08 1.17179e-09 4.31253e-08 3.23099e-09 4.51086e-07 0.000120757)
(4.9833e-08 8.57283e-10 1.30096e-09 3.3739e-09 4.67221e-07 0.000122206)
(5.7891e-08 4.18938e-10 -6.19507e-08 3.44426e-09 4.66572e-07 0.000122172)
(5.88901e-08 -7.41432e-11 -9.47959e-08 3.38213e-09 4.47911e-07 0.000120379)
(6.56135e-08 -1.00002e-09 -8.53043e-08 3.2132e-09 4.34605e-07 0.000119548)
(6.15805e-08 1.84426e-10 4.55541e-08 3.91114e-09 4.92895e-07 0.00011331)
(5.22213e-08 8.21588e-10 8.50845e-08 3.89784e-09 5.05056e-07 0.000114494)
(5.12529e-08 1.28816e-09 6.75318e-08 4.32778e-09 5.37186e-07 0.000116448)
(5.86496e-08 1.84227e-10 -6.36025e-08 4.51161e-09 5.40839e-07 0.000116162)
(6.88661e-08 1.1929e-10 -8.53344e-08 4.19879e-09 5.13484e-07 0.000114247)
(5.42774e-08 8.59263e-10 -3.4943e-08 4.02085e-09 4.99243e-07 0.000113421)
(4.87046e-08 9.30209e-10 1.2572e-08 3.95175e-09 4.93896e-07 0.00011307)
(5.25673e-08 1.36722e-09 4.5965e-08 4.25826e-09 5.16072e-07 0.000114428)
(5.69316e-08 1.01475e-09 1.7732e-09 4.44123e-09 5.34316e-07 0.00011588)
(6.60108e-08 4.5968e-10 -6.27431e-08 4.54726e-09 5.34007e-07 0.000115848)
(6.71545e-08 -2.02401e-10 -9.72525e-08 4.47479e-09 5.13637e-07 0.000114082)
(7.47719e-08 -1.38633e-09 -9.50694e-08 4.2545e-09 4.99103e-07 0.000113278)
(6.94826e-08 2.82598e-10 4.72006e-08 5.02389e-09 5.51663e-07 0.00010567)
(5.9064e-08 1.05056e-09 8.85021e-08 5.02213e-09 5.65852e-07 0.000106881)
(5.79409e-08 1.58394e-09 6.99393e-08 5.59594e-09 6.03128e-07 0.000108891)
(6.6398e-08 2.303e-10 -6.73496e-08 5.82046e-09 6.0681e-07 0.000108569)
(7.76272e-08 1.37408e-10 -8.88564e-08 5.3922e-09 5.74534e-07 0.000106583)
(6.13285e-08 1.03009e-09 -3.30286e-08 5.18176e-09 5.59096e-07 0.000105779)
(5.51018e-08 1.07064e-09 1.49392e-08 5.09977e-09 5.53427e-07 0.000105448)
(5.95625e-08 1.56704e-09 4.82286e-08 5.48469e-09 5.78538e-07 0.000106833)
(6.44864e-08 1.17814e-09 1.99156e-09 5.71354e-09 5.98782e-07 0.000108272)
(7.46249e-08 4.91722e-10 -6.29792e-08 5.8669e-09 5.98934e-07 0.000108243)
(7.59142e-08 -3.69978e-10 -9.89804e-08 5.787e-09 5.77208e-07 0.000106529)
(8.44491e-08 -1.85866e-09 -1.0522e-07 5.50842e-09 5.61712e-07 0.000105764)
(7.78032e-08 4.07486e-10 4.86573e-08 6.33014e-09 6.05973e-07 9.70587e-05)
(6.62864e-08 1.31308e-09 9.15356e-08 6.34573e-09 6.2222e-07 9.82805e-05)
(6.50215e-08 1.91418e-09 7.22421e-08 7.09498e-09 6.64817e-07 0.000100329)
(7.4629e-08 2.90924e-10 -6.99064e-08 7.36415e-09 6.68428e-07 9.99744e-05)
(8.68666e-08 1.63166e-10 -9.11589e-08 6.79174e-09 6.30978e-07 9.79362e-05)
(6.87993e-08 1.21933e-09 -3.03763e-08 6.54919e-09 6.14588e-07 9.71657e-05)
(6.1889e-08 1.21602e-09 1.71512e-08 6.45453e-09 6.08712e-07 9.68607e-05)
(6.69972e-08 1.76769e-09 4.96366e-08 6.92836e-09 6.36699e-07 9.82577e-05)
(7.2522e-08 1.34428e-09 1.79254e-09 7.20909e-09 6.58767e-07 9.96662e-05)
(8.37602e-08 5.13079e-10 -6.28705e-08 7.42351e-09 6.59511e-07 9.9642e-05)
(8.51914e-08 -5.79092e-10 -1.00196e-07 7.34058e-09 6.36851e-07 9.80037e-05)
(9.46606e-08 -2.42209e-09 -1.15803e-07 6.99763e-09 6.20737e-07 9.72908e-05)
(8.6548e-08 5.62077e-10 5.00976e-08 7.84531e-09 6.54084e-07 8.77625e-05)
(7.38938e-08 1.61055e-09 9.42714e-08 7.88475e-09 6.72375e-07 8.89804e-05)
(7.25087e-08 2.27865e-09 7.44234e-08 8.84486e-09 7.20385e-07 9.10485e-05)
(8.33622e-08 3.70396e-10 -7.12249e-08 9.16259e-09 7.23806e-07 9.06636e-05)
(9.65974e-08 1.99728e-10 -9.22381e-08 8.41353e-09 6.81012e-07 8.8592e-05)
(7.67062e-08 1.42724e-09 -2.71138e-08 8.14062e-09 6.63989e-07 8.78704e-05)
(6.90791e-08 1.36501e-09 1.89811e-08 8.03412e-09 6.58035e-07 8.75956e-05)
(7.48855e-08 1.96516e-09 4.99163e-08 8.60723e-09 6.88754e-07 8.89881e-05)
(8.10582e-08 1.50974e-09 1.00469e-09 8.946e-09 7.12412e-07 9.0348e-05)
(9.34384e-08 5.22016e-10 -6.26361e-08 9.23745e-09 7.13882e-07 9.03313e-05)
(9.50021e-08 -8.31342e-10 -1.01076e-07 9.15744e-09 6.90764e-07 8.87914e-05)
(1.05415e-07 -3.08074e-09 -1.26785e-07 8.74526e-09 6.74464e-07 8.81449e-05)
(9.57116e-08 7.4941e-10 5.16577e-08 9.58397e-09 6.94319e-07 7.80672e-05)
(8.18825e-08 1.94443e-09 9.67523e-08 9.65432e-09 7.14597e-07 7.92666e-05)
(8.04083e-08 2.67648e-09 7.64137e-08 1.08647e-08 7.68009e-07 8.13335e-05)
(9.26069e-08 4.72842e-10 -7.12855e-08 1.12348e-08 7.71105e-07 8.09198e-05)
(1.06819e-07 2.50336e-10 -9.21171e-08 1.02728e-08 7.22894e-07 7.88358e-05)
(8.50561e-08 1.65395e-09 -2.33935e-08 9.97295e-09 7.05627e-07 7.81777e-05)
(7.66757e-08 1.51599e-09 2.02196e-08 9.85617e-09 6.9974e-07 7.79372e-05)
(8.32307e-08 2.15488e-09 4.88373e-08 1.05385e-08 7.32954e-07 7.93062e-05)
(9.01033e-08 1.67076e-09 -5.277e-10 1.09415e-08 7.57909e-07 8.05998e-05)
(1.03669e-07 5.17124e-10 -6.24795e-08 1.13284e-08 7.60236e-07 8.05927e-05)
(1.0535e-07 -1.12767e-09 -1.01733e-07 1.12588e-08 7.37183e-07 7.91724e-05)
(1.16707e-07 -3.83811e-09 -1.38035e-07 1.07743e-08 7.21211e-07 7.86071e-05)
(1.05272e-07 9.72622e-10 5.34144e-08 1.1559e-08 7.25131e-07 6.82508e-05)
(9.02355e-08 2.31609e-09 9.89774e-08 1.16678e-08 7.47297e-07 6.94172e-05)
(8.87133e-08 3.10576e-09 7.8103e-08 1.3172e-08 8.05987e-07 7.14602e-05)
(1.02356e-07 6.01837e-10 -7.00951e-08 1.35981e-08 8.08603e-07 7.10194e-05)
(1.17512e-07 3.18089e-10 -9.08434e-08 1.23831e-08 7.55016e-07 6.89457e-05)
(9.384e-08 1.89952e-09 -1.93848e-08 1.20617e-08 7.37962e-07 6.83647e-05)
(8.46675e-08 1.66699e-09 2.06947e-08 1.1937e-08 7.32292e-07 6.8162e-05)
(9.20196e-08 2.33174e-09 4.62412e-08 1.27376e-08 7.67668e-07 6.9487e-05)
(9.96483e-08 1.82318e-09 -2.92059e-09 1.32112e-08 7.93577e-07 7.06969e-05)
(1.14444e-07 4.97366e-10 -6.25693e-08 1.37146e-08 7.9688e-07 7.07012e-05)
(1.16222e-07 -1.46824e-09 -1.02211e-07 1.36644e-08 7.74442e-07 6.94193e-05)
(1.28511e-07 -4.69733e-09 -1.49313e-07 1.31068e-08 7.59389e-07 6.895e-05)
(1.15184e-07 1.23491e-09 5.53735e-08 1.37805e-08 7.45179e-07 5.85758e-05)
(9.8918e-08 2.7266e-09 1.00906e-07 1.39358e-08 7.69094e-07 5.96957e-05)
(9.73993e-08 3.56328e-09 7.93535e-08 1.57814e-08 8.32805e-07 6.16904e-05)
(1.12582e-07 7.60111e-10 -6.76928e-08 1.62666e-08 8.34767e-07 6.12244e-05)
(1.28627e-07 4.05737e-10 -8.84902e-08 1.47549e-08 7.7598e-07 5.91855e-05)
(1.03028e-07 2.16397e-09 -1.52682e-08 1.44199e-08 7.59649e-07 5.86934e-05)
(9.30241e-08 1.81576e-09 2.0285e-08 1.42905e-08 7.54352e-07 5.85308e-05)
(1.01217e-07 2.49007e-09 4.20635e-08 1.52172e-08 7.91454e-07 5.97908e-05)
(1.09661e-07 1.96243e-09 -6.22986e-09 1.57675e-08 8.17937e-07 6.09016e-05)
(1.25727e-07 4.62131e-10 -6.3024e-08 1.64114e-08 8.22315e-07 6.09178e-05)
(1.27577e-07 -1.85228e-09 -1.02488e-07 1.63914e-08 8.01048e-07 5.97901e-05)
(1.40775e-07 -5.66135e-09 -1.60288e-07 1.57632e-08 7.87571e-07 5.94297e-05)
(1.2538e-07 1.53948e-09 5.74673e-08 1.62551e-08 7.53392e-07 4.92812e-05)
(1.07874e-07 3.17645e-09 1.02462e-07 1.64652e-08 7.78878e-07 5.03421e-05)
(1.06421e-07 4.04422e-09 8.00147e-08 1.87036e-08 8.47217e-07 5.22639e-05)
(1.23226e-07 9.49319e-10 -6.41584e-08 1.92507e-08 8.48332e-07 5.17752e-05)
(1.40086e-07 5.15508e-10 -8.51604e-08 1.7395e-08 7.84666e-07 4.97963e-05)
(1.12565e-07 2.44733e-09 -1.12309e-08 1.70576e-08 7.69605e-07 4.94018e-05)
(1.01691e-07 1.95983e-09 1.89292e-08 1.69277e-08 7.64836e-07 4.92804e-05)
(1.10761e-07 2.62371e-09 3.63473e-08 1.79863e-08 8.03133e-07 5.04553e-05)
(1.20077e-07 2.08345e-09 -1.04379e-08 1.86189e-08 8.29786e-07 5.14542e-05)
(1.37451e-07 4.11305e-10 -6.39039e-08 1.94306e-08 8.35303e-07 5.14819e-05)
(1.39346e-07 -2.2778e-09 -1.02487e-07 1.94529e-08 8.15753e-07 5.05196e-05)
(1.53418e-07 -6.73296e-09 -1.70561e-07 1.87614e-08 8.04554e-07 5.02785e-05)
(1.35759e-07 1.88941e-09 5.95604e-08 1.89852e-08 7.49036e-07 4.05739e-05)
(1.17025e-07 3.66527e-09 1.03546e-07 1.92586e-08 7.75881e-07 4.15649e-05)
(1.15706e-07 4.54192e-09 7.99376e-08 2.19445e-08 8.48307e-07 4.33895e-05)
(1.34199e-07 1.16994e-09 -5.96182e-08 2.25554e-08 8.48362e-07 4.28813e-05)
(1.5177e-07 6.48962e-10 -8.09895e-08 2.03056e-08 7.80298e-07 4.0988e-05)
(1.22364e-07 2.74967e-09 -7.4621e-09 1.99803e-08 7.67077e-07 4.06962e-05)
(1.10586e-07 2.09667e-09 1.66282e-08 1.98552e-08 7.62981e-07 4.06155e-05)
(1.20556e-07 2.7262e-09 2.92458e-08 2.1049e-08 8.01852e-07 4.16871e-05)
(1.30801e-07 2.18073e-09 -1.54493e-08 2.17693e-08 8.28261e-07 4.25648e-05)
(1.49511e-07 3.45349e-10 -6.52097e-08 2.2779e-08 8.34938e-07 4.26023e-05)
(1.51426e-07 -2.74136e-09 -1.021e-07 2.28578e-08 8.17618e-07 4.18115e-05)
(1.66319e-07 -7.91473e-09 -1.79693e-07 2.21157e-08 8.09428e-07 4.16962e-05)
(1.4619e-07 2.28751e-09 6.14623e-08 2.19683e-08 7.31759e-07 3.26215e-05)
(1.26266e-07 4.19158e-09 1.0404e-07 2.23135e-08 7.59725e-07 3.35338e-05)
(1.25159e-07 5.04782e-09 7.89907e-08 2.55042e-08 8.35548e-07 3.52389e-05)
(1.45377e-07 1.4213e-09 -5.42451e-08 2.61799e-08 8.34317e-07 3.47153e-05)
(1.63519e-07 8.06875e-10 -7.61463e-08 2.34835e-08 7.62502e-07 3.29319e-05)
(1.32306e-07 3.07103e-09 -4.14828e-09 2.3189e-08 7.51683e-07 3.27434e-05)
(1.19599e-07 2.22384e-09 1.3444e-08 2.30751e-08 7.4839e-07 3.27013e-05)
(1.30476e-07 2.79102e-09 2.10144e-08 2.44041e-08 7.87141e-07 3.36551e-05)
(1.41693e-07 2.24844e-09 -2.10946e-08 2.52165e-08 8.12899e-07 3.44063e-05)
(1.61758e-07 2.65371e-10 -6.68861e-08 2.64579e-08 8.20703e-07 3.44508e-05)
(1.63675e-07 -3.2378e-09 -1.01199e-07 2.66089e-08 8.06072e-07 3.38319e-05)
(1.79321e-07 -9.20877e-09 -1.87238e-07 2.58367e-08 8.01621e-07 3.3844e-05)
(1.56513e-07 2.73623e-09 6.29443e-08 2.51968e-08 7.01629e-07 2.55475e-05)
(1.35466e-07 4.75264e-09 1.03821e-07 2.56219e-08 7.30458e-07 2.63749e-05)
(1.34652e-07 5.55155e-09 7.70756e-08 2.93765e-08 8.08839e-07 2.79411e-05)
(1.56596e-07 1.70161e-09 -4.82529e-08 3.0117e-08 8.06085e-07 2.74068e-05)
(1.75132e-07 9.89131e-10 -7.08303e-08 2.69198e-08 7.31333e-07 2.57552e-05)
(1.42239e-07 3.41121e-09 -1.46648e-09 2.66794e-08 7.2345e-07 2.56664e-05)
(1.28586e-07 2.33918e-09 9.49309e-09 2.65842e-08 7.21065e-07 2.56594e-05)
(1.40354e-07 2.81192e-09 1.19933e-08 2.80441e-08 7.58952e-07 2.6485e-05)
(1.52578e-07 2.28062e-09 -2.71432e-08 2.89526e-08 7.83675e-07 2.71088e-05)
(1.74e-07 1.73196e-10 -6.88319e-08 3.04623e-08 7.92508e-07 2.71568e-05)
(1.75911e-07 -3.76011e-09 -9.96628e-08 3.07033e-08 7.80953e-07 2.67045e-05)
(1.92229e-07 -1.06164e-08 -1.92775e-07 2.99303e-08 7.80941e-07 2.68401e-05)
(1.66538e-07 3.2374e-09 6.37596e-08 2.86585e-08 6.59142e-07 1.94293e-05)
(1.44472e-07 5.3442e-09 1.02767e-07 2.91708e-08 6.88565e-07 2.01682e-05)
(1.44034e-07 6.04117e-09 7.4141e-08 3.35488e-08 7.68527e-07 2.15801e-05)
(1.67659e-07 2.00826e-09 -4.18858e-08 3.43525e-08 7.6401e-07 2.10407e-05)
(1.86372e-07 1.19462e-09 -6.52644e-08 3.06001e-08 6.87294e-07 1.95394e-05)
(1.5198e-07 3.76947e-09 4.2389e-10 3.04418e-08 6.82821e-07 1.95424e-05)
(1.3738e-07 2.44101e-09 4.93641e-09 3.03742e-08 6.81422e-07 1.95655e-05)
(1.49993e-07 2.78332e-09 2.58092e-09 3.19556e-08 7.17673e-07 2.02576e-05)
(1.63237e-07 2.27153e-09 -3.33212e-08 3.29635e-08 7.41018e-07 2.07574e-05)
(1.86003e-07 7.14052e-11 -7.09133e-08 3.47811e-08 7.50711e-07 2.08048e-05)
(1.8792e-07 -4.29931e-09 -9.73891e-08 3.51313e-08 7.42531e-07 2.05082e-05)
(2.04811e-07 -1.21375e-08 -1.95932e-07 3.43979e-08 7.47592e-07 2.07585e-05)
(1.76052e-07 3.79214e-09 6.36652e-08 3.23365e-08 6.0521e-07 1.42989e-05)
(1.53109e-07 5.96035e-09 1.00772e-07 3.29422e-08 6.34955e-07 1.49483e-05)
(1.53129e-07 6.50363e-09 7.01934e-08 3.80019e-08 7.15402e-07 1.61953e-05)
(1.78335e-07 2.33804e-09 -3.54035e-08 3.88658e-08 7.0889e-07 1.56571e-05)
(1.96967e-07 1.42113e-09 -5.96847e-08 3.45048e-08 6.31323e-07 1.43198e-05)
(1.61318e-07 4.14408e-09 1.39058e-09 3.44615e-08 6.30649e-07 1.44028e-05)
(1.45785e-07 2.52829e-09 -3.32341e-11 3.44311e-08 6.30277e-07 1.44503e-05)
(1.59164e-07 2.70083e-09 -6.79703e-09 3.61192e-08 6.64126e-07 1.50088e-05)
(1.73419e-07 2.21604e-09 -3.93337e-08 3.72293e-08 6.85805e-07 1.53918e-05)
(1.97495e-07 -3.66598e-11 -7.29799e-08 3.93964e-08 6.96118e-07 1.54345e-05)
(1.9945e-07 -4.84458e-09 -9.43152e-08 3.98769e-08 6.91512e-07 1.52784e-05)
(2.16808e-07 -1.37698e-08 -1.96416e-07 3.92361e-08 7.02173e-07 1.56293e-05)
(1.84827e-07 4.40058e-09 6.24436e-08 3.62106e-08 5.41127e-07 1.01461e-05)
(1.61186e-07 6.59344e-09 9.77535e-08 3.6914e-08 5.7093e-07 1.07077e-05)
(1.61746e-07 6.92545e-09 6.53025e-08 4.27104e-08 6.50672e-07 1.17842e-05)
(1.88371e-07 2.68751e-09 -2.90645e-08 4.36298e-08 6.41947e-07 1.1254e-05)
(2.06629e-07 1.66519e-09 -5.43266e-08 3.861e-08 5.64758e-07 1.00889e-05)
(1.70027e-07 4.53179e-09 1.33845e-09 3.87189e-08 5.68163e-07 1.02376e-05)
(1.53593e-07 2.60081e-09 -5.20551e-09 3.87363e-08 5.6882e-07 1.03032e-05)
(1.67614e-07 2.56169e-09 -1.57215e-08 4.05097e-08 5.99536e-07 1.0733e-05)
(1.82844e-07 2.11018e-09 -4.4889e-08 4.17247e-08 6.19331e-07 1.10096e-05)
(2.08175e-07 -1.46969e-10 -7.48824e-08 4.42849e-08 6.29951e-07 1.1044e-05)
(2.10229e-07 -5.38335e-09 -9.04306e-08 4.49181e-08 6.29007e-07 1.10094e-05)
(2.27938e-07 -1.55083e-08 -1.94036e-07 4.44373e-08 6.45654e-07 1.1443e-05)
(1.92634e-07 5.06175e-09 5.99235e-08 4.02579e-08 4.68512e-07 6.92424e-06)
(1.68507e-07 7.23397e-09 9.36652e-08 4.10607e-08 4.98122e-07 7.40143e-06)
(1.69686e-07 7.29352e-09 5.96013e-08 4.76438e-08 5.75906e-07 8.30757e-06)
(1.97503e-07 3.05341e-09 -2.31092e-08 4.8612e-08 5.6478e-07 7.79221e-06)
(2.15062e-07 1.92191e-09 -4.94098e-08 4.28881e-08 4.89278e-07 6.80194e-06)
(1.77872e-07 4.92721e-09 2.18901e-10 4.31903e-08 4.96909e-07 6.99985e-06)
(1.60585e-07 2.65931e-09 -1.0367e-08 4.32665e-08 4.98559e-07 7.07703e-06)
(1.75078e-07 2.3654e-09 -2.38124e-08 4.50972e-08 5.25482e-07 7.38759e-06)
(1.91219e-07 1.95169e-09 -4.97241e-08 4.64204e-08 5.43252e-07 7.57053e-06)
(2.17725e-07 -2.54967e-10 -7.64879e-08 4.94174e-08 5.53802e-07 7.59403e-06)
(2.1997e-07 -5.90177e-09 -8.57874e-08 5.0227e-08 5.56492e-07 7.65984e-06)
(2.37915e-07 -1.73435e-08 -1.88715e-07 4.99895e-08 5.7933e-07 8.1551e-06)
(1.99247e-07 5.77334e-09 5.59976e-08 4.44542e-08 3.89231e-07 4.55652e-06)
(1.74876e-07 7.87056e-09 8.85019e-08 4.53549e-08 4.18419e-07 4.95459e-06)
(1.76751e-07 7.59604e-09 5.32795e-08 5.27669e-08 4.92973e-07 5.69566e-06)
(2.05466e-07 3.43306e-09 -1.77438e-08 5.37752e-08 4.79293e-07 5.20195e-06)
(2.21986e-07 2.18489e-09 -4.5123e-08 4.73095e-08 4.06824e-07 4.38311e-06)
(1.84627e-07 5.32225e-09 -1.96225e-09 4.78485e-08 4.18684e-07 4.6132e-06)
(1.6655e-07 2.70562e-09 -1.53148e-08 4.79946e-08 4.21251e-07 4.69583e-06)
(1.81294e-07 2.11421e-09 -3.07579e-08 4.98476e-08 4.43824e-07 4.90036e-06)
(1.98251e-07 1.74055e-09 -5.36271e-08 5.12836e-08 4.59511e-07 5.0038e-06)
(2.2583e-07 -3.55853e-10 -7.76933e-08 5.47605e-08 4.69563e-07 5.01482e-06)
(2.28389e-07 -6.38524e-09 -8.05052e-08 5.5771e-08 4.75741e-07 5.15892e-06)
(2.46456e-07 -1.92613e-08 -1.80512e-07 5.58772e-08 5.04761e-07 5.69347e-06)
(2.04468e-07 6.53164e-09 5.06356e-08 4.87757e-08 3.0531e-07 2.94448e-06)
(1.80112e-07 8.49001e-09 8.23066e-08 4.97685e-08 3.33874e-07 3.26984e-06)
(1.82758e-07 7.82356e-09 4.65717e-08 5.80408e-08 4.03952e-07 3.85595e-06)
(2.12016e-07 3.82472e-09 -1.31266e-08 5.90787e-08 3.87614e-07 3.3903e-06)
(2.27157e-07 2.44598e-09 -4.16086e-08 5.18435e-08 3.19511e-07 2.73399e-06)
(1.9009e-07 5.70575e-09 -5.13961e-09 5.26636e-08 3.35454e-07 2.97959e-06)
(1.71298e-07 2.74276e-09 -1.98686e-08 5.28903e-08 3.38825e-07 3.06218e-06)
(1.86017e-07 1.8136e-09 -3.63362e-08 5.47239e-08 3.56623e-07 3.17652e-06)
(2.0367e-07 1.47947e-09 -5.64563e-08 5.62794e-08 3.70245e-07 3.21513e-06)
(2.32193e-07 -4.45003e-10 -7.84341e-08 6.02773e-08 3.7934e-07 3.21349e-06)
(2.35216e-07 -6.81923e-09 -7.47682e-08 6.15136e-08 3.8875e-07 3.4141e-06)
(2.53308e-07 -2.12414e-08 -1.6962e-07 6.20815e-08 4.23706e-07 3.96552e-06)
(2.08134e-07 7.33149e-09 4.38927e-08 5.32e-08 2.1884e-07 1.97587e-06)
(1.84058e-07 9.07738e-09 7.51726e-08 5.4274e-08 2.4661e-07 2.23562e-06)
(1.87552e-07 7.96993e-09 3.97405e-08 6.34246e-08 3.11038e-07 2.68095e-06)
(2.16941e-07 4.22791e-09 -9.35892e-09 6.44796e-08 2.92e-07 2.24907e-06)
(2.30386e-07 2.69526e-09 -3.89515e-08 5.64599e-08 2.29525e-07 1.74149e-06)
(1.941e-07 6.06334e-09 -9.18678e-09 5.76038e-08 2.49261e-07 1.98739e-06)
(1.74674e-07 2.7751e-09 -2.38799e-08 5.79205e-08 2.53296e-07 2.06537e-06)
(1.89041e-07 1.47262e-09 -4.04308e-08 5.9687e-08 2.66049e-07 2.1069e-06)
(2.07242e-07 1.17422e-09 -5.81543e-08 6.13721e-08 2.77691e-07 2.09496e-06)
(2.36561e-07 -5.18545e-10 -7.86889e-08 6.59282e-08 2.85361e-07 2.08191e-06)
(2.4022e-07 -7.19033e-09 -6.88157e-08 6.74152e-08 2.97644e-07 2.31865e-06)
(2.58258e-07 -2.32572e-08 -1.56372e-07 6.85806e-08 3.38042e-07 2.86599e-06)
(2.10136e-07 8.16619e-09 3.59104e-08 5.77076e-08 1.31878e-07 1.53258e-06)
(1.86596e-07 9.61622e-09 6.72444e-08 5.88454e-08 1.58722e-07 1.73413e-06)
(1.91016e-07 8.03313e-09 3.30548e-08 6.88758e-08 2.16454e-07 2.05592e-06)
(2.20083e-07 4.64351e-09 -6.48152e-09 6.99341e-08 1.94739e-07 1.6625e-06)
(2.31564e-07 2.92099e-09 -3.71724e-08 6.11304e-08 1.39025e-07 1.28602e-06)
(1.96551e-07 6.3778e-09 -1.39198e-08 6.2636e-08 1.62139e-07 1.51928e-06)
(1.76571e-07 2.80841e-09 -2.72391e-08 6.30501e-08 1.66682e-07 1.58917e-06)
(1.90215e-07 1.10412e-09 -4.30367e-08 6.46969e-08 1.74286e-07 1.57559e-06)
(2.08797e-07 8.33725e-10 -5.87568e-08 6.65262e-08 1.84087e-07 1.52631e-06)
(2.38744e-07 -5.74017e-10 -7.84813e-08 7.1672e-08 1.89878e-07 1.50434e-06)
(2.4322e-07 -7.48748e-09 -6.29286e-08 7.34341e-08 2.04592e-07 1.7592e-06)
(2.61155e-07 -2.52754e-08 -1.41231e-07 7.53495e-08 2.49691e-07 2.28426e-06)
(2.10426e-07 9.02774e-09 2.69053e-08 6.22826e-08 4.6363e-08 1.49769e-06)
(1.87653e-07 1.00889e-08 5.87119e-08 6.34593e-08 7.21852e-08 1.64839e-06)
(1.93082e-07 8.01574e-09 2.67657e-08 7.43517e-08 1.22347e-07 1.8658e-06)
(2.21349e-07 5.07368e-09 -4.47771e-09 7.53985e-08 9.80515e-08 1.51428e-06)
(2.30674e-07 3.10979e-09 -3.62252e-08 6.5829e-08 5.00451e-08 1.24862e-06)
(1.9741e-07 6.62985e-09 -1.91062e-08 6.77264e-08 7.60275e-08 1.45913e-06)
(1.76947e-07 2.84997e-09 -2.98774e-08 6.82424e-08 8.09168e-08 1.51858e-06)
(1.89464e-07 7.24593e-10 -4.42515e-08 6.97134e-08 8.34433e-08 1.46687e-06)