-0.0075 	373
-0.00715932 	361.073
-0.00676191 	359.213
-0.00629832 	358.467
-0.00575752 	358.006
-0.00512667 	357.643
-0.00439077 	357.317
-0.00353231 	357.001
-0.00253089 	356.676
-0.00136271 	356.326
0 	355.938
0.00136271 	355.514
0.00253089 	355.069
0.00353231 	354.612
0.00439077 	354.127
0.00512667 	353.576
0.00575752 	352.878
0.00629832 	351.845
0.00676191 	349.621
0.00715932 	338.394
0.0075 	313
