-0.0075 	0 	0 	0
-0.00715932 	-0.000153021 	-3.08638e-05 	0.138243
-0.00676191 	-0.000252464 	-9.39488e-05 	0.219534
-0.00629832 	-0.000278709 	-0.000174716 	0.268452
-0.00575752 	-0.000262742 	-0.000258995 	0.301009
-0.00512667 	-0.000232068 	-0.000337984 	0.325342
-0.00439077 	-0.000201508 	-0.000405228 	0.344521
-0.00353231 	-0.000176621 	-0.000460552 	0.359539
-0.00253089 	-0.000156544 	-0.000506554 	0.370511
-0.00136271 	-0.000138235 	-0.000542508 	0.377181
0 	-0.000120882 	-0.000563223 	0.378974
0.00136271 	-0.000106668 	-0.000562856 	0.375379
0.00253089 	-9.82408e-05 	-0.000540419 	0.366701
0.00353231 	-9.80225e-05 	-0.000499139 	0.35359
0.00439077 	-0.00010863 	-0.000436526 	0.336054
0.00512667 	-0.000131122 	-0.000345581 	0.312943
0.00575752 	-0.000160856 	-0.000228447 	0.281519
0.00629832 	-0.000181703 	-0.000104801 	0.236724
0.00676191 	-0.000160761 	-1.50428e-05 	0.166478
0.00715932 	-8.28141e-05 	9.88794e-06 	0.0737159
0.0075 	0 	0 	0
