0 	0 	0 	0
5.01672e-05 	-2.25333e-05 	-4.5449e-06 	0.0203572
0.000100334 	-4.50667e-05 	-9.08979e-06 	0.0407144
0.000150502 	-6.76e-05 	-1.36347e-05 	0.0610716
0.000200669 	-9.01333e-05 	-1.81796e-05 	0.0814288
0.000250836 	-0.000112667 	-2.27245e-05 	0.101786
0.000301003 	-0.0001352 	-2.72694e-05 	0.122143
0.000351171 	-0.000155646 	-3.25292e-05 	0.140389
0.000401338 	-0.000168199 	-4.04928e-05 	0.150651
0.000451505 	-0.000180753 	-4.84563e-05 	0.160913
0.000501672 	-0.000193306 	-5.64198e-05 	0.171175
0.000551839 	-0.000205859 	-6.43834e-05 	0.181436
0.000602007 	-0.000218412 	-7.23469e-05 	0.191698
0.000652174 	-0.000230966 	-8.03104e-05 	0.20196
0.000702341 	-0.000243519 	-8.82739e-05 	0.212222
0.000752508 	-0.000253281 	-9.64607e-05 	0.221056
0.000802676 	-0.000256121 	-0.000105201 	0.226349
0.000852843 	-0.000258961 	-0.000113941 	0.231643
0.00090301 	-0.000261801 	-0.000122681 	0.236937
0.000953177 	-0.000264641 	-0.000131421 	0.24223
0.00100334 	-0.000267481 	-0.000140161 	0.247524
0.00105351 	-0.000270321 	-0.000148901 	0.252817
0.00110368 	-0.000273161 	-0.000157642 	0.258111
0.00115385 	-0.000276001 	-0.000166382 	0.263404
0.00120401 	-0.00027864 	-0.000175079 	0.268592
0.00125418 	-0.000277159 	-0.000182897 	0.271613
0.00130435 	-0.000275678 	-0.000190716 	0.274633
0.00135452 	-0.000274197 	-0.000198534 	0.277653
0.00140468 	-0.000272715 	-0.000206352 	0.280673
0.00145485 	-0.000271234 	-0.00021417 	0.283693
0.00150502 	-0.000269753 	-0.000221989 	0.286714
0.00155518 	-0.000268272 	-0.000229807 	0.289734
0.00160535 	-0.000266791 	-0.000237625 	0.292754
0.00165552 	-0.00026531 	-0.000245444 	0.295774
0.00170569 	-0.000263828 	-0.000253262 	0.298794
0.00175585 	-0.000262092 	-0.00026067 	0.301525
0.00180602 	-0.000259652 	-0.000266952 	0.30346
0.00185619 	-0.000257213 	-0.000273233 	0.305395
0.00190635 	-0.000254774 	-0.000279515 	0.30733
0.00195652 	-0.000252335 	-0.000285796 	0.309265
0.00200669 	-0.000249895 	-0.000292077 	0.3112
0.00205686 	-0.000247456 	-0.000298359 	0.313135
0.00210702 	-0.000245017 	-0.00030464 	0.31507
0.00215719 	-0.000242577 	-0.000310922 	0.317005
0.00220736 	-0.000240138 	-0.000317203 	0.31894
0.00225753 	-0.000237699 	-0.000323484 	0.320875
0.00230769 	-0.00023526 	-0.000329766 	0.32281
0.00235786 	-0.00023282 	-0.000336047 	0.324745
0.00240803 	-0.000230627 	-0.000341155 	0.326246
0.00245819 	-0.000228544 	-0.000345739 	0.327554
0.00250836 	-0.000226461 	-0.000350323 	0.328861
0.00255853 	-0.000224377 	-0.000354907 	0.330169
0.0026087 	-0.000222294 	-0.000359491 	0.331476
0.00265886 	-0.00022021 	-0.000364075 	0.332783
0.00270903 	-0.000218127 	-0.000368659 	0.334091
0.0027592 	-0.000216044 	-0.000373243 	0.335398
0.00280936 	-0.00021396 	-0.000377827 	0.336706
0.00285953 	-0.000211877 	-0.000382411 	0.338013
0.0029097 	-0.000209794 	-0.000386995 	0.339321
0.00295987 	-0.00020771 	-0.00039158 	0.340628
0.00301003 	-0.000205627 	-0.000396164 	0.341935
0.0030602 	-0.000203544 	-0.000400748 	0.343243
0.00311037 	-0.000201475 	-0.000405301 	0.344541
0.00316054 	-0.00020002 	-0.000408534 	0.345418
0.0032107 	-0.000198566 	-0.000411767 	0.346296
0.00326087 	-0.000197112 	-0.000415 	0.347174
0.00331104 	-0.000195657 	-0.000418234 	0.348051
0.0033612 	-0.000194203 	-0.000421467 	0.348929
0.00341137 	-0.000192749 	-0.0004247 	0.349807
0.00346154 	-0.000191294 	-0.000427933 	0.350684
0.00351171 	-0.00018984 	-0.000431166 	0.351562
0.00356187 	-0.000188386 	-0.000434399 	0.352439
0.00361204 	-0.000186931 	-0.000437632 	0.353317
0.00366221 	-0.000185477 	-0.000440865 	0.354195
0.00371237 	-0.000184022 	-0.000444098 	0.355072
0.00376254 	-0.000182568 	-0.000447331 	0.35595
0.00381271 	-0.000181114 	-0.000450564 	0.356828
0.00386288 	-0.000179659 	-0.000453797 	0.357705
0.00391304 	-0.000178205 	-0.00045703 	0.358583
0.00396321 	-0.000176751 	-0.000460263 	0.359461
0.00401338 	-0.000175705 	-0.000462651 	0.36004
0.00406355 	-0.000174699 	-0.000464955 	0.360589
0.00411371 	-0.000173693 	-0.00046726 	0.361139
0.00416388 	-0.000172688 	-0.000469564 	0.361689
0.00421405 	-0.000171682 	-0.000471869 	0.362238
0.00426421 	-0.000170676 	-0.000474173 	0.362788
0.00431438 	-0.00016967 	-0.000476478 	0.363337
0.00436455 	-0.000168664 	-0.000478782 	0.363887
0.00441472 	-0.000167659 	-0.000481087 	0.364437
0.00446488 	-0.000166653 	-0.000483391 	0.364986
0.00451505 	-0.000165647 	-0.000485696 	0.365536
0.00456522 	-0.000164641 	-0.000488 	0.366086
0.00461538 	-0.000163635 	-0.000490305 	0.366635
0.00466555 	-0.00016263 	-0.000492609 	0.367185
0.00471572 	-0.000161624 	-0.000494914 	0.367735
0.00476589 	-0.000160618 	-0.000497218 	0.368284
0.00481605 	-0.000159612 	-0.000499523 	0.368834
0.00486622 	-0.000158606 	-0.000501827 	0.369383
0.00491639 	-0.000157601 	-0.000504132 	0.369933
0.00496656 	-0.000156595 	-0.000506437 	0.370483
0.00501672 	-0.000155797 	-0.000508019 	0.370783
0.00506689 	-0.000155011 	-0.000509563 	0.371069
0.00511706 	-0.000154225 	-0.000511107 	0.371355
0.00516722 	-0.000153439 	-0.000512651 	0.371642
0.00521739 	-0.000152652 	-0.000514195 	0.371928
0.00526756 	-0.000151866 	-0.000515739 	0.372215
0.00531773 	-0.00015108 	-0.000517284 	0.372501
0.00536789 	-0.000150294 	-0.000518828 	0.372788
0.00541806 	-0.000149507 	-0.000520372 	0.373074
0.00546823 	-0.000148721 	-0.000521916 	0.373361
0.00551839 	-0.000147935 	-0.00052346 	0.373647
0.00556856 	-0.000147148 	-0.000525004 	0.373934
0.00561873 	-0.000146362 	-0.000526548 	0.37422
0.0056689 	-0.000145576 	-0.000528092 	0.374506
0.00571906 	-0.00014479 	-0.000529636 	0.374793
0.00576923 	-0.000144003 	-0.00053118 	0.375079
0.0058194 	-0.000143217 	-0.000532724 	0.375366
0.00586957 	-0.000142431 	-0.000534268 	0.375652
0.00591973 	-0.000141645 	-0.000535812 	0.375939
0.0059699 	-0.000140858 	-0.000537356 	0.376225
0.00602007 	-0.000140072 	-0.0005389 	0.376512
0.00607023 	-0.000139286 	-0.000540444 	0.376798
0.0061204 	-0.000138499 	-0.000541988 	0.377085
0.00617057 	-0.000137811 	-0.000543014 	0.377225
0.00622074 	-0.000137172 	-0.000543776 	0.377291
0.0062709 	-0.000136533 	-0.000544539 	0.377357
0.00632107 	-0.000135895 	-0.000545302 	0.377423
0.00637124 	-0.000135256 	-0.000546064 	0.377489
0.0064214 	-0.000134617 	-0.000546827 	0.377555
0.00647157 	-0.000133978 	-0.000547589 	0.377621
0.00652174 	-0.000133339 	-0.000548352 	0.377687
0.00657191 	-0.0001327 	-0.000549115 	0.377753
0.00662207 	-0.000132062 	-0.000549877 	0.377819
0.00667224 	-0.000131423 	-0.00055064 	0.377885
0.00672241 	-0.000130784 	-0.000551402 	0.377951
0.00677258 	-0.000130145 	-0.000552165 	0.378017
0.00682274 	-0.000129506 	-0.000552928 	0.378083
0.00687291 	-0.000128867 	-0.00055369 	0.378149
0.00692308 	-0.000128229 	-0.000554453 	0.378215
0.00697324 	-0.00012759 	-0.000555215 	0.378281
0.00702341 	-0.000126951 	-0.000555978 	0.378347
0.00707358 	-0.000126312 	-0.000556741 	0.378413
0.00712375 	-0.000125673 	-0.000557503 	0.378479
0.00717391 	-0.000125034 	-0.000558266 	0.378545
0.00722408 	-0.000124396 	-0.000559028 	0.378611
0.00727425 	-0.000123757 	-0.000559791 	0.378677
0.00732441 	-0.000123118 	-0.000560554 	0.378743
0.00737458 	-0.000122479 	-0.000561316 	0.378809
0.00742475 	-0.00012184 	-0.000562079 	0.378875
0.00747492 	-0.000121202 	-0.000562841 	0.378941
0.00752508 	-0.00012062 	-0.000563216 	0.378908
0.00757525 	-0.000120097 	-0.000563202 	0.378776
0.00762542 	-0.000119574 	-0.000563189 	0.378643
0.00767559 	-0.000119051 	-0.000563175 	0.378511
0.00772575 	-0.000118527 	-0.000563162 	0.378379
0.00777592 	-0.000118004 	-0.000563148 	0.378246
0.00782609 	-0.000117481 	-0.000563135 	0.378114
0.00787625 	-0.000116957 	-0.000563121 	0.377982
0.00792642 	-0.000116434 	-0.000563108 	0.377849
0.00797659 	-0.000115911 	-0.000563094 	0.377717
0.00802676 	-0.000115387 	-0.000563081 	0.377585
0.00807692 	-0.000114864 	-0.000563067 	0.377452
0.00812709 	-0.000114341 	-0.000563054 	0.37732
0.00817726 	-0.000113818 	-0.00056304 	0.377188
0.00822742 	-0.000113294 	-0.000563027 	0.377055
0.00827759 	-0.000112771 	-0.000563013 	0.376923
0.00832776 	-0.000112248 	-0.000563 	0.376791
0.00837793 	-0.000111724 	-0.000562986 	0.376658
0.00842809 	-0.000111201 	-0.000562973 	0.376526
0.00847826 	-0.000110678 	-0.000562959 	0.376394
0.00852843 	-0.000110155 	-0.000562946 	0.376261
0.0085786 	-0.000109631 	-0.000562932 	0.376129
0.00862876 	-0.000109108 	-0.000562919 	0.375997
0.00867893 	-0.000108585 	-0.000562905 	0.375864
0.0087291 	-0.000108061 	-0.000562892 	0.375732
0.00877926 	-0.000107538 	-0.000562878 	0.3756
0.00882943 	-0.000107015 	-0.000562865 	0.375467
0.0088796 	-0.000106546 	-0.000562531 	0.375254
0.00892977 	-0.000106184 	-0.000561568 	0.374881
0.00897993 	-0.000105822 	-0.000560604 	0.374509
0.0090301 	-0.00010546 	-0.000559641 	0.374136
0.00908027 	-0.000105098 	-0.000558677 	0.373763
0.00913043 	-0.000104736 	-0.000557714 	0.373391
0.0091806 	-0.000104374 	-0.00055675 	0.373018
0.00923077 	-0.000104013 	-0.000555787 	0.372645
0.00928094 	-0.000103651 	-0.000554823 	0.372273
0.0093311 	-0.000103289 	-0.00055386 	0.3719
0.00938127 	-0.000102927 	-0.000552896 	0.371527
0.00943144 	-0.000102565 	-0.000551933 	0.371154
0.00948161 	-0.000102203 	-0.000550969 	0.370782
0.00953177 	-0.000101841 	-0.000550006 	0.370409
0.00958194 	-0.000101479 	-0.000549042 	0.370036
0.00963211 	-0.000101118 	-0.000548078 	0.369664
0.00968227 	-0.000100756 	-0.000547115 	0.369291
0.00973244 	-0.000100394 	-0.000546151 	0.368918
0.00978261 	-0.000100032 	-0.000545188 	0.368546
0.00983278 	-9.967e-05 	-0.000544224 	0.368173
0.00988294 	-9.93081e-05 	-0.000543261 	0.3678
0.00993311 	-9.89462e-05 	-0.000542297 	0.367428
0.00998328 	-9.85843e-05 	-0.000541334 	0.367055
0.0100334 	-9.82403e-05 	-0.000540314 	0.366668
0.0100836 	-9.82294e-05 	-0.000538246 	0.366011
0.0101338 	-9.82184e-05 	-0.000536178 	0.365354
0.0101839 	-9.82075e-05 	-0.00053411 	0.364697
0.0102341 	-9.81965e-05 	-0.000532042 	0.364041
0.0102843 	-9.81856e-05 	-0.000529974 	0.363384
0.0103344 	-9.81747e-05 	-0.000527906 	0.362727
0.0103846 	-9.81637e-05 	-0.000525838 	0.36207
0.0104348 	-9.81528e-05 	-0.00052377 	0.361413
0.0104849 	-9.81418e-05 	-0.000521702 	0.360756
0.0105351 	-9.81309e-05 	-0.000519634 	0.3601
0.0105853 	-9.812e-05 	-0.000517566 	0.359443
0.0106355 	-9.8109e-05 	-0.000515498 	0.358786
0.0106856 	-9.80981e-05 	-0.00051343 	0.358129
0.0107358 	-9.80871e-05 	-0.000511362 	0.357472
0.010786 	-9.80762e-05 	-0.000509294 	0.356815
0.0108361 	-9.80653e-05 	-0.000507226 	0.356159
0.0108863 	-9.80543e-05 	-0.000505158 	0.355502
0.0109365 	-9.80434e-05 	-0.00050309 	0.354845
0.0109866 	-9.80324e-05 	-0.000501022 	0.354188
0.0110368 	-9.80778e-05 	-0.000498812 	0.353498
0.011087 	-9.86977e-05 	-0.000495153 	0.352474
0.0111371 	-9.93176e-05 	-0.000491494 	0.351449
0.0111873 	-9.99375e-05 	-0.000487835 	0.350424
0.0112375 	-0.000100557 	-0.000484176 	0.349399
0.0112876 	-0.000101177 	-0.000480517 	0.348374
0.0113378 	-0.000101797 	-0.000476858 	0.34735
0.011388 	-0.000102417 	-0.000473199 	0.346325
0.0114381 	-0.000103037 	-0.00046954 	0.3453
0.0114883 	-0.000103657 	-0.000465881 	0.344275
0.0115385 	-0.000104277 	-0.000462222 	0.343251
0.0115886 	-0.000104896 	-0.000458563 	0.342226
0.0116388 	-0.000105516 	-0.000454904 	0.341201
0.011689 	-0.000106136 	-0.000451245 	0.340176
0.0117391 	-0.000106756 	-0.000447586 	0.339151
0.0117893 	-0.000107376 	-0.000443927 	0.338127
0.0118395 	-0.000107996 	-0.000440268 	0.337102
0.0118896 	-0.000108616 	-0.000436609 	0.336077
0.0119398 	-0.000110128 	-0.000430466 	0.334514
0.01199 	-0.000111662 	-0.000424266 	0.332939
0.0120401 	-0.000113195 	-0.000418067 	0.331363
0.0120903 	-0.000114728 	-0.000411867 	0.329788
0.0121405 	-0.000116262 	-0.000405667 	0.328212
0.0121906 	-0.000117795 	-0.000399467 	0.326637
0.0122408 	-0.000119328 	-0.000393268 	0.325061
0.012291 	-0.000120862 	-0.000387068 	0.323486
0.0123411 	-0.000122395 	-0.000380868 	0.32191
0.0123913 	-0.000123928 	-0.000374668 	0.320335
0.0124415 	-0.000125462 	-0.000368468 	0.318759
0.0124916 	-0.000126995 	-0.000362269 	0.317184
0.0125418 	-0.000128528 	-0.000356069 	0.315608
0.012592 	-0.000130062 	-0.000349869 	0.314033
0.0126421 	-0.000131851 	-0.000342709 	0.312173
0.0126923 	-0.000134216 	-0.000333394 	0.309674
0.0127425 	-0.00013658 	-0.000324079 	0.307175
0.0127926 	-0.000138945 	-0.000314764 	0.304676
0.0128428 	-0.000141309 	-0.00030545 	0.302177
0.012893 	-0.000143674 	-0.000296135 	0.299678
0.0129431 	-0.000146038 	-0.00028682 	0.297179
0.0129933 	-0.000148403 	-0.000277505 	0.29468
0.0130435 	-0.000150767 	-0.00026819 	0.292181
0.0130936 	-0.000153132 	-0.000258875 	0.289682
0.0131438 	-0.000155496 	-0.000249561 	0.287183
0.013194 	-0.000157861 	-0.000240246 	0.284684
0.0132441 	-0.000160225 	-0.000230931 	0.282186
0.0132943 	-0.000162274 	-0.000220035 	0.278472
0.0133445 	-0.000164208 	-0.000208565 	0.274316
0.0133946 	-0.000166142 	-0.000197095 	0.270161
0.0134448 	-0.000168076 	-0.000185625 	0.266005
0.013495 	-0.00017001 	-0.000174155 	0.26185
0.0135452 	-0.000171943 	-0.000162684 	0.257694
0.0135953 	-0.000173877 	-0.000151214 	0.253539
0.0136455 	-0.000175811 	-0.000139744 	0.249383
0.0136957 	-0.000177745 	-0.000128274 	0.245228
0.0137458 	-0.000179679 	-0.000116804 	0.241072
0.013796 	-0.000181613 	-0.000105334 	0.236917
0.0138462 	-0.000179542 	-9.55388e-05 	0.229475
0.0138963 	-0.000177276 	-8.58257e-05 	0.221874
0.0139465 	-0.000175009 	-7.61127e-05 	0.214272
0.0139967 	-0.000172743 	-6.63996e-05 	0.206671
0.0140468 	-0.000170477 	-5.66866e-05 	0.199069
0.014097 	-0.000168211 	-4.69735e-05 	0.191468
0.0141472 	-0.000165945 	-3.72604e-05 	0.183866
0.0141973 	-0.000163679 	-2.75474e-05 	0.176265
0.0142475 	-0.000161413 	-1.78343e-05 	0.168663
0.0142977 	-0.000153749 	-1.28002e-05 	0.158134
0.0143478 	-0.00014391 	-9.65302e-06 	0.146424
0.014398 	-0.00013407 	-6.50589e-06 	0.134714
0.0144482 	-0.000124231 	-3.35876e-06 	0.123004
0.0144983 	-0.000114391 	-2.11635e-07 	0.111294
0.0145485 	-0.000104551 	2.93549e-06 	0.0995846
0.0145987 	-9.47116e-05 	6.08262e-06 	0.0878747
0.0146488 	-8.48719e-05 	9.22975e-06 	0.0761648
0.014699 	-7.31696e-05 	8.73639e-06 	0.0651309
0.0147492 	-6.09746e-05 	7.28032e-06 	0.0542758
0.0147993 	-4.87797e-05 	5.82426e-06 	0.0434206
0.0148495 	-3.65848e-05 	4.36819e-06 	0.0325655
0.0148997 	-2.43899e-05 	2.91213e-06 	0.0217103
0.0149498 	-1.21949e-05 	1.45606e-06 	0.0108552
0.015 	0 	0 	0
