0 	0 	0 	0
0 	0 	0 	0
0.00752508 	0.000660273 	0.000163089 	-0.281838
0.00752508 	0.000660273 	0.000163089 	-0.281838
0.00757525 	0.000634089 	0.000146395 	-0.28143
0.00762542 	0.000607905 	0.000129701 	-0.281023
0.00762542 	0.000607905 	0.000129701 	-0.281023
0.00767559 	0.000581732 	0.000113119 	-0.280615
0.00772575 	0.000556705 	0.000108885 	-0.280173
0.00777592 	0.000531679 	0.000104651 	-0.279732
0.00782609 	0.000506652 	0.000100417 	-0.27929
0.00782609 	0.000506652 	0.000100417 	-0.27929
0.00787625 	0.000492748 	0.000104394 	-0.278962
0.00792642 	0.000486912 	0.000114326 	-0.278715
0.00797659 	0.000481076 	0.000124258 	-0.278469
0.00802676 	0.000478375 	0.000132736 	-0.278238
0.00802676 	0.000478375 	0.000132736 	-0.278238
0.00807692 	0.000487425 	0.000135764 	-0.278067
0.00812709 	0.000496476 	0.000138791 	-0.277896
0.00812709 	0.000496476 	0.000138791 	-0.277896
0.00817726 	0.000505526 	0.000141819 	-0.277725
0.00822742 	0.000520157 	0.00013819 	-0.277524
0.00822742 	0.000520157 	0.00013819 	-0.277524
0.00827759 	0.000535402 	0.000133829 	-0.277321
0.00832776 	0.000550647 	0.000129468 	-0.277117
0.00832776 	0.000550647 	0.000129468 	-0.277117
0.00837793 	0.00056732 	0.000124372 	-0.276879
0.00842809 	0.000584763 	0.000118878 	-0.276622
0.00842809 	0.000584763 	0.000118878 	-0.276622
0.00847826 	0.000602207 	0.000113385 	-0.276365
0.00847826 	0.000602207 	0.000113385 	-0.276365
0.00852843 	0.000620241 	0.00010885 	-0.276088
0.00852843 	0.000620241 	0.00010885 	-0.276088
0.0085786 	0.000638983 	0.000105461 	-0.275787
0.0085786 	0.000638983 	0.000105461 	-0.275787
0.00862876 	0.000657725 	0.000102071 	-0.275487
0.00867893 	0.000676843 	9.93073e-05 	-0.275175
0.00867893 	0.000676843 	9.93073e-05 	-0.275175
0.0087291 	0.000696772 	9.78875e-05 	-0.274837
0.00877926 	0.0007167 	9.64676e-05 	-0.2745
0.00877926 	0.0007167 	9.64676e-05 	-0.2745
0.00882943 	0.000736896 	9.50812e-05 	-0.274154
0.0088796 	0.000757961 	9.38036e-05 	-0.273781
0.0088796 	0.000757961 	9.38036e-05 	-0.273781
0.00897993 	0.000800319 	9.13274e-05 	-0.273026
0.00897993 	0.000800319 	9.13274e-05 	-0.273026
0.0090301 	0.000822489 	9.04326e-05 	-0.272615
0.00908027 	0.000844658 	8.95377e-05 	-0.272204
0.00908027 	0.000844658 	8.95377e-05 	-0.272204
0.00913043 	0.000867065 	8.94182e-05 	-0.271782
0.0091806 	0.000890261 	9.18692e-05 	-0.271326
0.0091806 	0.000890261 	9.18692e-05 	-0.271326
0.00923077 	0.000913456 	9.43202e-05 	-0.27087
0.00928094 	0.000936986 	9.75281e-05 	-0.270393
0.00928094 	0.000936986 	9.75281e-05 	-0.270393
0.0093311 	0.000961262 	0.000102427 	-0.269869
0.00938127 	0.000985537 	0.000107326 	-0.269345
0.00938127 	0.000985537 	0.000107326 	-0.269345
0.00943144 	0.00100961 	0.000110131 	-0.268771
0.00943144 	0.00100961 	0.000110131 	-0.268771
0.00948161 	0.00103341 	0.000110249 	-0.268134
0.00948161 	0.00103341 	0.000110249 	-0.268134
0.00953177 	0.00105721 	0.000110368 	-0.267497
0.00953177 	0.00105721 	0.000110368 	-0.267497
0.00958194 	0.00107784 	0.000104876 	-0.266749
0.00958194 	0.00107784 	0.000104876 	-0.266749
0.00963211 	0.00109652 	9.59128e-05 	-0.265933
0.00963211 	0.00109652 	9.59128e-05 	-0.265933
0.00968227 	0.00111519 	8.69493e-05 	-0.265117
0.00968227 	0.00111519 	8.69493e-05 	-0.265117
0.00973244 	0.00112918 	7.98409e-05 	-0.264184
0.00978261 	0.00114232 	7.30678e-05 	-0.263231
0.00983278 	0.00115593 	6.78476e-05 	-0.262282
0.00988294 	0.00117285 	7.35017e-05 	-0.261371
0.00988294 	0.00117285 	7.35017e-05 	-0.261371
0.00993311 	0.00118976 	7.91558e-05 	-0.260459
0.00998328 	0.00121266 	8.65959e-05 	-0.25959
0.00998328 	0.00121266 	8.65959e-05 	-0.25959
0.0100334 	0.00124284 	9.62105e-05 	-0.258773
0.0100334 	0.00124284 	9.62105e-05 	-0.258773
0.0100836 	0.00127301 	0.000105825 	-0.257955
0.0101338 	0.00132095 	0.000114688 	-0.257114
0.0101338 	0.00132095 	0.000114688 	-0.257114
0.0102341 	0.0014324 	0.000132422 	-0.255387
0.0102341 	0.0014324 	0.000132422 	-0.255387
0.0102843 	0.00151698 	0.000142472 	-0.254398
0.0103344 	0.00160157 	0.000152521 	-0.25341
0.0103344 	0.00160157 	0.000152521 	-0.25341
0.0103846 	0.00169621 	0.000157967 	-0.252384
0.0103846 	0.00169621 	0.000157967 	-0.252384
0.0104348 	0.00179499 	0.000161516 	-0.251342
0.0104849 	0.00188848 	0.000163397 	-0.250328
0.0104849 	0.00188848 	0.000163397 	-0.250328
0.0105351 	0.00196295 	0.000159286 	-0.249415
0.0105853 	0.00203742 	0.000155176 	-0.248501
0.0105853 	0.00203742 	0.000155176 	-0.248501
0.0106355 	0.00208866 	0.000154101 	-0.24768
0.0106856 	0.002133 	0.000153929 	-0.246887
0.0106856 	0.002133 	0.000153929 	-0.246887
0.0107358 	0.00217295 	0.000155946 	-0.246093
0.0107358 	0.00217295 	0.000155946 	-0.246093
0.010786 	0.00220532 	0.000161733 	-0.2453
0.010786 	0.00220532 	0.000161733 	-0.2453
0.0108361 	0.0022377 	0.000167512 	-0.244506
0.0108361 	0.0022377 	0.000167512 	-0.244506
0.0108863 	0.00227145 	0.000172037 	-0.243619
0.0109365 	0.0023052 	0.000176562 	-0.242733
0.0109365 	0.0023052 	0.000176562 	-0.242733
0.0109866 	0.00234127 	0.000176224 	-0.241749
0.0109866 	0.00234127 	0.000176224 	-0.241749
0.0110368 	0.00237838 	0.000173669 	-0.240721
0.011087 	0.00241546 	0.000170597 	-0.239655
0.011087 	0.00241546 	0.000170597 	-0.239655
0.0111371 	0.00245248 	0.000166777 	-0.238531
0.0111873 	0.00248875 	0.000164502 	-0.237414
0.0111873 	0.00248875 	0.000164502 	-0.237414
0.0112375 	0.00252136 	0.000169803 	-0.236321
0.0112876 	0.00255398 	0.000175104 	-0.235228
0.0112876 	0.00255398 	0.000175104 	-0.235228
0.0113378 	0.00258096 	0.000185603 	-0.234226
0.011388 	0.00260776 	0.000196261 	-0.233226
0.011388 	0.00260776 	0.000196261 	-0.233226
0.0114883 	0.00265523 	0.000210043 	-0.231325
0.0114883 	0.00265523 	0.000210043 	-0.231325
0.0115385 	0.00267801 	0.000212068 	-0.230376
0.0115886 	0.0027005 	0.00021206 	-0.229425
0.0115886 	0.0027005 	0.00021206 	-0.229425
0.0116388 	0.00272323 	0.000210919 	-0.228449
0.011689 	0.00274611 	0.000209031 	-0.227455
0.011689 	0.00274611 	0.000209031 	-0.227455
0.0117391 	0.00277063 	0.000209057 	-0.226426
0.0117893 	0.00279648 	0.000210624 	-0.225369
0.0117893 	0.00279648 	0.000210624 	-0.225369
0.0118395 	0.00282573 	0.000213668 	-0.224268
0.0118896 	0.00285785 	0.000217959 	-0.223131
0.0118896 	0.00285785 	0.000217959 	-0.223131
0.0119398 	0.0028924 	0.000220197 	-0.221956
0.0119398 	0.0028924 	0.000220197 	-0.221956
0.01199 	0.00292881 	0.000220854 	-0.220751
0.01199 	0.00292881 	0.000220854 	-0.220751
0.0120401 	0.00296352 	0.000217906 	-0.219528
0.0120401 	0.00296352 	0.000217906 	-0.219528
0.0120903 	0.00299722 	0.000212779 	-0.218294
0.0120903 	0.00299722 	0.000212779 	-0.218294
0.0121405 	0.00302544 	0.000208135 	-0.217058
0.0121405 	0.00302544 	0.000208135 	-0.217058
0.0121906 	0.00305148 	0.000203683 	-0.215823
0.0121906 	0.00305148 	0.000203683 	-0.215823
0.0122408 	0.00307097 	0.000203285 	-0.214588
0.0122408 	0.00307097 	0.000203285 	-0.214588
0.012291 	0.00308921 	0.000203651 	-0.213353
0.012291 	0.00308921 	0.000203651 	-0.213353
0.0123411 	0.00310171 	0.000205969 	-0.212104
0.0123411 	0.00310171 	0.000205969 	-0.212104
0.0123913 	0.0031134 	0.000207902 	-0.210849
0.0123913 	0.0031134 	0.000207902 	-0.210849
0.0124415 	0.0031217 	0.00020822 	-0.209568
0.0124916 	0.0031286 	0.000207301 	-0.208269
0.0124916 	0.0031286 	0.000207301 	-0.208269
0.012592 	0.00313629 	0.000201145 	-0.20558
0.012592 	0.00313629 	0.000201145 	-0.20558
0.0126421 	0.00313798 	0.000197239 	-0.204199
0.0126923 	0.00313608 	0.000193425 	-0.202759
0.0126923 	0.00313608 	0.000193425 	-0.202759
0.0127425 	0.00313281 	0.000189697 	-0.2013
0.0127425 	0.00313281 	0.000189697 	-0.2013
0.0127926 	0.00312626 	0.000186189 	-0.199796
0.0128428 	0.00311671 	0.000182773 	-0.198254
0.0128428 	0.00311671 	0.000182773 	-0.198254
0.012893 	0.00310527 	0.000179415 	-0.196687
0.0129431 	0.0030892 	0.000175783 	-0.195055
0.0129431 	0.0030892 	0.000175783 	-0.195055
0.0129933 	0.00307153 	0.000171955 	-0.193391
0.0130435 	0.00305147 	0.000167827 	-0.19168
0.0130435 	0.00305147 	0.000167827 	-0.19168
0.0130936 	0.00302858 	0.000163345 	-0.189897
0.0131438 	0.00300409 	0.000158715 	-0.188069
0.0131438 	0.00300409 	0.000158715 	-0.188069
0.013194 	0.00297711 	0.000153904 	-0.186168
0.0132441 	0.0029472 	0.000148966 	-0.18418
0.0132441 	0.0029472 	0.000148966 	-0.18418
0.0132943 	0.00291527 	0.000143922 	-0.18213
0.0133445 	0.00288043 	0.000138706 	-0.179989
0.0133445 	0.00288043 	0.000138706 	-0.179989
0.0133946 	0.00284216 	0.00013328 	-0.177735
0.0134448 	0.00280143 	0.00012773 	-0.175398
0.0134448 	0.00280143 	0.00012773 	-0.175398
0.013495 	0.00275798 	0.000122055 	-0.172968
0.0135452 	0.00270992 	0.000116185 	-0.170375
0.0135452 	0.00270992 	0.000116185 	-0.170375
0.0136455 	0.00260423 	0.000104135 	-0.164837
0.0136455 	0.00260423 	0.000104135 	-0.164837
0.0136957 	0.00254546 	9.80179e-05 	-0.161845
0.0137458 	0.00248139 	9.19497e-05 	-0.158644
0.0137458 	0.00248139 	9.19497e-05 	-0.158644
0.013796 	0.00241299 	8.59406e-05 	-0.155265
0.0138462 	0.00234 	7.99865e-05 	-0.151689
0.0138462 	0.00234 	7.99865e-05 	-0.151689
0.0138963 	0.00226218 	7.40731e-05 	-0.147897
0.0138963 	0.00226218 	7.40731e-05 	-0.147897
0.0139465 	0.0021779 	6.81891e-05 	-0.143788
0.0139967 	0.00208856 	6.23919e-05 	-0.139408
0.0139967 	0.00208856 	6.23919e-05 	-0.139408
0.0140468 	0.0019942 	5.67255e-05 	-0.134741
0.0140468 	0.0019942 	5.67255e-05 	-0.134741
0.014097 	0.00189473 	5.12134e-05 	-0.129764
0.0141472 	0.00179001 	4.58674e-05 	-0.124456
0.0141973 	0.00167988 	4.07126e-05 	-0.118793
0.0141973 	0.00167988 	4.07126e-05 	-0.118793
0.0142475 	0.0015632 	3.58122e-05 	-0.112696
0.0142977 	0.00144094 	3.11252e-05 	-0.106205
0.0143478 	0.0013136 	2.66597e-05 	-0.0993246
0.0143478 	0.0013136 	2.66597e-05 	-0.0993246
0.014398 	0.00118207 	2.24332e-05 	-0.0920755
0.014398 	0.00118207 	2.24332e-05 	-0.0920755
0.0144482 	0.00104779 	1.84816e-05 	-0.0845067
0.0144983 	0.00091289 	1.4855e-05 	-0.0766924
0.0144983 	0.00091289 	1.4855e-05 	-0.0766924
0.0145485 	0.00078011 	1.16022e-05 	-0.068727
0.0145987 	0.000652562 	8.77001e-06 	-0.0607114
0.0145987 	0.000652562 	8.77001e-06 	-0.0607114
0.0146488 	0.000533229 	6.41107e-06 	-0.0527348
0.014699 	0.000424547 	4.57483e-06 	-0.0448585
0.014699 	0.000424547 	4.57483e-06 	-0.0448585
0.0147492 	0.000328354 	3.2796e-06 	-0.037108
0.0147993 	0.000246421 	2.4732e-06 	-0.0294728
0.0147993 	0.000246421 	2.4732e-06 	-0.0294728
0.0148495 	0.000181615 	2.05846e-06 	-0.0219095
0.0148495 	0.000181615 	2.05846e-06 	-0.0219095
0.0148997 	0.000131899 	1.58601e-06 	-0.0143928
0.0148997 	0.000131899 	1.58601e-06 	-0.0143928
0.0149498 	7.80569e-05 	8.62261e-07 	-0.00702968
0.0149498 	7.80569e-05 	8.62261e-07 	-0.00702968
0.015 	0 	0 	0
