/*--------------------------------*- C++ -*----------------------------------*\
| =========                 |                                                 |
| \\      /  F ield         | OpenFOAM: The Open Source CFD Toolbox           |
|  \\    /   O peration     | Version:  v1912                                 |
|   \\  /    A nd           | Website:  www.openfoam.com                      |
|    \\/     M anipulation  |                                                 |
\*---------------------------------------------------------------------------*/
FoamFile
{
    version     2.0;
    format      ascii;
    class       volScalarField;
    location    "8.4";
    object      k;
}
// * * * * * * * * * * * * * * * * * * * * * * * * * * * * * * * * * * * * * //

dimensions      [0 2 -2 0 0 0 0];


internalField   nonuniform List<scalar> 
34128
(
2.67696e-07
2.68466e-07
2.64599e-07
2.66946e-07
2.70853e-07
2.72579e-07
2.75968e-07
2.73027e-07
2.59355e-07
2.53492e-07
2.58848e-07
2.58199e-07
5.36439e-08
5.40419e-08
5.23935e-08
5.16033e-08
5.17623e-08
5.24498e-08
5.36337e-08
5.31042e-08
5.04814e-08
4.96669e-08
5.14092e-08
5.15801e-08
9.6499e-08
9.83928e-08
9.09412e-08
8.31491e-08
8.0345e-08
8.33602e-08
8.80403e-08
8.73882e-08
8.32414e-08
8.35448e-08
9.00333e-08
9.19096e-08
2.99534e-07
3.05984e-07
2.80169e-07
2.52334e-07
2.41967e-07
2.52459e-07
2.68424e-07
2.66537e-07
2.53994e-07
2.55877e-07
2.77884e-07
2.84722e-07
7.4032e-07
7.56273e-07
6.91262e-07
6.21047e-07
5.94975e-07
6.21611e-07
6.6153e-07
6.56798e-07
6.26016e-07
6.30939e-07
6.85939e-07
7.03532e-07
1.51383e-06
1.54617e-06
1.41241e-06
1.26785e-06
1.2144e-06
1.26976e-06
1.35142e-06
1.34145e-06
1.27909e-06
1.28936e-06
1.40202e-06
1.43901e-06
2.70773e-06
2.7651e-06
2.52574e-06
2.26622e-06
2.17033e-06
2.27056e-06
2.41608e-06
2.39763e-06
2.28783e-06
2.30686e-06
2.50812e-06
2.57596e-06
4.38255e-06
4.4749e-06
4.08969e-06
3.66901e-06
3.51283e-06
3.67628e-06
3.90997e-06
3.87906e-06
3.70572e-06
3.73838e-06
4.06299e-06
4.1752e-06
6.55202e-06
6.68993e-06
6.12165e-06
5.49338e-06
5.25729e-06
5.50206e-06
5.84713e-06
5.79934e-06
5.54927e-06
5.60237e-06
6.08471e-06
6.25519e-06
9.17021e-06
9.36401e-06
8.5861e-06
7.7104e-06
7.37474e-06
7.71566e-06
8.19027e-06
8.12101e-06
7.78704e-06
7.86957e-06
8.53865e-06
8.7793e-06
1.21318e-05
1.23905e-05
1.13937e-05
1.0244e-05
9.79123e-06
1.02371e-05
1.08509e-05
1.07556e-05
1.03386e-05
1.04615e-05
1.13363e-05
1.16543e-05
1.52856e-05
1.56155e-05
1.44115e-05
1.29797e-05
1.23968e-05
1.29491e-05
1.37007e-05
1.35747e-05
1.30842e-05
1.32593e-05
1.43455e-05
1.47413e-05
1.84563e-05
1.88599e-05
1.74813e-05
1.57797e-05
1.50605e-05
1.5713e-05
1.65897e-05
1.64287e-05
1.58811e-05
1.612e-05
1.74083e-05
1.78748e-05
2.15176e-05
2.19941e-05
2.04731e-05
1.85225e-05
1.76684e-05
1.84161e-05
1.94027e-05
1.92008e-05
1.86083e-05
1.89158e-05
2.03926e-05
2.09246e-05
2.43973e-05
2.49434e-05
2.33188e-05
2.11491e-05
2.0166e-05
2.10016e-05
2.2079e-05
2.18304e-05
2.12062e-05
2.1585e-05
2.323e-05
2.38198e-05
2.70373e-05
2.7647e-05
2.59615e-05
2.361e-05
2.25081e-05
2.34232e-05
2.45688e-05
2.4268e-05
2.36257e-05
2.40756e-05
2.58629e-05
2.65011e-05
2.93949e-05
3.00599e-05
2.83576e-05
2.58671e-05
2.46608e-05
2.56456e-05
2.68353e-05
2.64779e-05
2.58306e-05
2.63482e-05
2.82475e-05
2.89236e-05
3.14424e-05
3.21527e-05
3.04773e-05
2.78943e-05
2.66006e-05
2.7645e-05
2.88539e-05
2.84365e-05
2.77971e-05
2.83758e-05
3.03533e-05
3.10566e-05
3.31652e-05
3.39096e-05
3.23029e-05
2.96756e-05
2.83136e-05
2.94066e-05
3.06101e-05
3.01316e-05
2.95122e-05
3.01425e-05
3.21621e-05
3.28821e-05
3.45598e-05
3.53266e-05
3.38274e-05
3.12041e-05
2.9794e-05
3.09239e-05
3.20987e-05
3.15597e-05
3.09721e-05
3.16422e-05
3.36664e-05
3.43927e-05
3.56314e-05
3.64087e-05
3.50529e-05
3.24801e-05
3.1042e-05
3.21967e-05
3.33212e-05
3.27246e-05
3.21803e-05
3.28767e-05
3.48675e-05
3.55904e-05
3.63916e-05
3.7168e-05
3.59874e-05
3.3509e-05
3.20626e-05
3.32294e-05
3.42841e-05
3.36349e-05
3.31455e-05
3.3854e-05
3.57734e-05
3.64832e-05
3.6855e-05
3.762e-05
3.66424e-05
3.42991e-05
3.2863e-05
3.40289e-05
3.49965e-05
3.4302e-05
3.38794e-05
3.45854e-05
3.63961e-05
3.70829e-05
3.70368e-05
3.77804e-05
3.70297e-05
3.48584e-05
3.34502e-05
3.4602e-05
3.54673e-05
3.47367e-05
3.43935e-05
3.50828e-05
3.67483e-05
3.74016e-05
3.69499e-05
3.76626e-05
3.71587e-05
3.5192e-05
3.38285e-05
3.49526e-05
3.57024e-05
3.49473e-05
3.46966e-05
3.53558e-05
3.68409e-05
3.74489e-05
3.66032e-05
3.72761e-05
3.7034e-05
3.53004e-05
3.39976e-05
3.50799e-05
3.57026e-05
3.49367e-05
3.47924e-05
3.54093e-05
3.66807e-05
3.72303e-05
3.60017e-05
3.66261e-05
3.66552e-05
3.51784e-05
3.39516e-05
3.4977e-05
3.54635e-05
3.47023e-05
3.46783e-05
3.52426e-05
3.62698e-05
3.67468e-05
3.51444e-05
3.57113e-05
3.60138e-05
3.48132e-05
3.36777e-05
3.46289e-05
3.49722e-05
3.42338e-05
3.43428e-05
3.48474e-05
3.56032e-05
3.59907e-05
3.4016e-05
3.4515e-05
3.50806e-05
3.41734e-05
3.31474e-05
3.39997e-05
3.4194e-05
3.35008e-05
3.37532e-05
3.41961e-05
3.46583e-05
3.49345e-05
3.2596e-05
3.30182e-05
3.38188e-05
3.32139e-05
3.23167e-05
3.30409e-05
3.30842e-05
3.246e-05
3.28599e-05
3.32452e-05
3.34032e-05
3.35477e-05
3.08963e-05
3.12375e-05
3.22325e-05
3.19211e-05
3.11661e-05
3.17399e-05
3.1639e-05
3.11019e-05
3.16444e-05
3.1979e-05
3.18416e-05
3.18455e-05
2.89731e-05
2.92324e-05
3.03857e-05
3.03472e-05
2.97383e-05
3.01529e-05
2.99195e-05
2.94804e-05
3.01565e-05
3.0447e-05
3.00329e-05
2.98967e-05
2.68657e-05
2.70479e-05
2.83121e-05
2.85087e-05
2.80368e-05
2.82987e-05
2.79536e-05
2.76155e-05
2.84e-05
2.86567e-05
2.80084e-05
2.77425e-05
2.46378e-05
2.47513e-05
2.6075e-05
2.64629e-05
2.61174e-05
2.62354e-05
2.58018e-05
2.55619e-05
2.64283e-05
2.66612e-05
2.58283e-05
2.54506e-05
2.23597e-05
2.24154e-05
2.37489e-05
2.42808e-05
2.40474e-05
2.40355e-05
2.35387e-05
2.33891e-05
2.43078e-05
2.45265e-05
2.35633e-05
2.30965e-05
2.00999e-05
2.011e-05
2.14084e-05
2.20369e-05
2.18988e-05
2.17758e-05
2.12413e-05
2.11702e-05
2.21104e-05
2.23225e-05
2.12838e-05
2.0754e-05
1.79199e-05
1.78965e-05
1.91226e-05
1.98028e-05
1.97419e-05
1.95301e-05
1.89825e-05
1.89753e-05
1.99068e-05
2.01172e-05
1.90548e-05
1.8489e-05
1.58705e-05
1.58249e-05
1.69501e-05
1.76422e-05
1.76404e-05
1.73644e-05
1.68262e-05
1.68669e-05
1.77617e-05
1.79719e-05
1.69314e-05
1.63561e-05
1.39904e-05
1.39325e-05
1.49373e-05
1.5608e-05
1.56483e-05
1.53335e-05
1.4824e-05
1.48967e-05
1.57305e-05
1.5939e-05
1.49574e-05
1.43966e-05
1.2306e-05
1.22435e-05
1.31171e-05
1.37403e-05
1.38079e-05
1.34789e-05
1.30138e-05
1.31038e-05
1.38571e-05
1.40593e-05
1.31639e-05
1.26386e-05
1.08324e-05
1.07708e-05
1.15095e-05
1.20666e-05
1.21494e-05
1.18286e-05
1.14196e-05
1.15141e-05
1.21728e-05
1.23624e-05
1.15707e-05
1.10975e-05
9.57518e-06
9.51778e-06
1.01233e-05
1.06023e-05
1.06912e-05
1.03984e-05
1.00534e-05
1.0142e-05
1.0697e-05
1.08663e-05
1.01872e-05
9.77845e-06
8.53274e-06
8.48108e-06
8.9588e-06
9.35313e-06
9.44199e-06
9.19346e-06
8.91761e-06
8.99201e-06
9.43848e-06
9.57959e-06
9.01451e-06
8.67901e-06
7.69889e-06
7.65302e-06
8.00987e-06
8.31713e-06
8.40239e-06
8.21163e-06
8.00756e-06
8.06168e-06
8.39788e-06
8.50312e-06
8.04812e-06
7.79166e-06
7.06506e-06
7.02396e-06
7.2672e-06
7.48766e-06
7.56799e-06
7.44583e-06
7.31486e-06
7.34423e-06
7.5701e-06
7.63245e-06
7.28009e-06
7.10652e-06
6.62215e-06
6.58414e-06
6.72037e-06
6.85569e-06
6.93154e-06
6.88697e-06
6.82957e-06
6.83096e-06
6.94696e-06
6.96036e-06
6.70121e-06
6.61343e-06
6.36133e-06
6.32448e-06
6.35954e-06
6.41192e-06
6.48502e-06
6.52584e-06
6.54164e-06
6.51279e-06
6.51925e-06
6.47886e-06
6.30256e-06
6.30331e-06
6.27063e-06
6.2329e-06
6.17561e-06
6.14784e-06
6.22089e-06
6.3533e-06
6.43874e-06
6.37889e-06
6.27773e-06
6.1806e-06
6.07604e-06
6.16708e-06
6.28637e-06
6.24675e-06
6.14029e-06
6.0526e-06
6.12864e-06
6.33079e-06
6.4516e-06
6.37e-06
6.20937e-06
6.05694e-06
6.00822e-06
6.14741e-06
6.39571e-06
6.35448e-06
6.2058e-06
6.06184e-06
6.14358e-06
6.4164e-06
6.5638e-06
6.46555e-06
6.24677e-06
6.04586e-06
6.04041e-06
6.22979e-06
6.55351e-06
6.51552e-06
6.35148e-06
6.16718e-06
6.25751e-06
6.58027e-06
6.71911e-06
6.61805e-06
6.37247e-06
6.13334e-06
6.1621e-06
6.38751e-06
6.70515e-06
6.67446e-06
6.53393e-06
6.34696e-06
6.44738e-06
6.7659e-06
6.8628e-06
6.76897e-06
6.54516e-06
6.29767e-06
6.34763e-06
6.56936e-06
6.83322e-06
6.80961e-06
6.70225e-06
6.54984e-06
6.65791e-06
6.93017e-06
6.98575e-06
6.89546e-06
6.71032e-06
6.49375e-06
6.54385e-06
6.73131e-06
6.94445e-06
6.92718e-06
6.84684e-06
6.73161e-06
6.84603e-06
7.07482e-06
7.09464e-06
7.00401e-06
6.8502e-06
6.67225e-06
6.71662e-06
6.87183e-06
7.04371e-06
7.0324e-06
6.97454e-06
6.89141e-06
7.01318e-06
7.20514e-06
7.19341e-06
7.09996e-06
6.97129e-06
6.82678e-06
6.869e-06
6.997e-06
7.13368e-06
7.12818e-06
7.08974e-06
7.03494e-06
7.1643e-06
7.3237e-06
7.28387e-06
7.18637e-06
7.07838e-06
6.96329e-06
7.00602e-06
7.11041e-06
7.21562e-06
7.2159e-06
7.19474e-06
7.16529e-06
7.3017e-06
7.43125e-06
7.36656e-06
7.26479e-06
7.17425e-06
7.08551e-06
7.13045e-06
7.21387e-06
7.28999e-06
7.29607e-06
7.29054e-06
7.28382e-06
7.42597e-06
7.52762e-06
7.44134e-06
7.33585e-06
7.26038e-06
7.19546e-06
7.24353e-06
7.30809e-06
7.35693e-06
7.36882e-06
7.37743e-06
7.39086e-06
7.53685e-06
7.61232e-06
7.5079e-06
7.39974e-06
7.33748e-06
7.29412e-06
7.34568e-06
7.39326e-06
7.41648e-06
7.43414e-06
7.45542e-06
7.48632e-06
7.63383e-06
7.68493e-06
7.566e-06
7.45657e-06
7.406e-06
7.38197e-06
7.43698e-06
7.46938e-06
7.46879e-06
7.49207e-06
7.52448e-06
7.57004e-06
7.71657e-06
7.74528e-06
7.61556e-06
7.50644e-06
7.46626e-06
7.45933e-06
7.51749e-06
7.53648e-06
7.51408e-06
7.54277e-06
7.58473e-06
7.642e-06
7.78501e-06
7.79353e-06
7.6567e-06
7.54957e-06
7.51866e-06
7.52657e-06
7.58737e-06
7.59471e-06
7.5527e-06
7.58653e-06
7.63639e-06
7.7024e-06
7.83947e-06
7.83013e-06
7.68974e-06
7.58629e-06
7.56368e-06
7.58417e-06
7.64696e-06
7.64435e-06
7.58511e-06
7.62374e-06
7.67986e-06
7.75168e-06
7.88061e-06
7.85582e-06
7.71516e-06
7.61705e-06
7.60187e-06
7.63274e-06
7.69677e-06
7.68585e-06
7.61183e-06
7.6549e-06
7.71568e-06
7.79051e-06
7.90939e-06
7.87154e-06
7.73361e-06
7.64235e-06
7.63386e-06
7.673e-06
7.73747e-06
7.71971e-06
7.63346e-06
7.68059e-06
7.7445e-06
7.81971e-06
7.92699e-06
7.87841e-06
7.74581e-06
7.66279e-06
7.66034e-06
7.70576e-06
7.76981e-06
7.74656e-06
7.65068e-06
7.70149e-06
7.76708e-06
7.84028e-06
7.93481e-06
7.87773e-06
7.75262e-06
7.67901e-06
7.68205e-06
7.7319e-06
7.79465e-06
7.76709e-06
7.66421e-06
7.71831e-06
7.78426e-06
7.85332e-06
7.93439e-06
7.87087e-06
7.75498e-06
7.69171e-06
7.69974e-06
7.75233e-06
7.81289e-06
7.78205e-06
7.67482e-06
7.73185e-06
7.79694e-06
7.86005e-06
7.92739e-06
7.85933e-06
7.75386e-06
7.70162e-06
7.71421e-06
7.76801e-06
7.82552e-06
7.79226e-06
7.68332e-06
7.74297e-06
7.80612e-06
7.86178e-06
7.91555e-06
7.84462e-06
7.75031e-06
7.7095e-06
7.72627e-06
7.77992e-06
7.83357e-06
7.79859e-06
7.69057e-06
7.75256e-06
7.81279e-06
7.85985e-06
7.90064e-06
7.82828e-06
7.74538e-06
7.71611e-06
7.73675e-06
7.78908e-06
7.83811e-06
7.80195e-06
7.69744e-06
7.76155e-06
7.81801e-06
7.85565e-06
7.8844e-06
7.81181e-06
7.74013e-06
7.72221e-06
7.74645e-06
7.7965e-06
7.84024e-06
7.8033e-06
7.70482e-06
7.77086e-06
7.8228e-06
7.85054e-06
7.86851e-06
7.79662e-06
7.73555e-06
7.72855e-06
7.75618e-06
7.8032e-06
7.84109e-06
7.80364e-06
7.71359e-06
7.78144e-06
7.82817e-06
7.84584e-06
7.85453e-06
7.784e-06
7.73259e-06
7.73582e-06
7.76668e-06
7.81016e-06
7.84179e-06
7.80396e-06
7.72456e-06
7.79414e-06
7.83504e-06
7.84276e-06
7.84384e-06
7.77507e-06
7.73209e-06
7.74464e-06
7.77864e-06
7.81833e-06
7.84344e-06
7.80527e-06
7.73853e-06
7.80976e-06
7.84424e-06
7.84238e-06
7.8376e-06
7.77075e-06
7.73477e-06
7.75558e-06
7.79271e-06
7.82859e-06
7.84709e-06
7.80853e-06
7.75617e-06
7.82899e-06
7.85643e-06
7.84559e-06
7.83668e-06
7.77171e-06
7.74117e-06
7.76911e-06
7.80941e-06
7.84174e-06
7.85374e-06
7.81466e-06
7.77803e-06
7.85233e-06
7.87211e-06
7.85305e-06
7.84166e-06
7.77839e-06
7.7517e-06
7.78556e-06
7.82919e-06
7.85845e-06
7.86425e-06
7.82448e-06
7.80449e-06
7.88009e-06
7.89153e-06
7.86515e-06
7.85278e-06
7.7909e-06
7.76655e-06
7.80517e-06
7.85238e-06
7.87926e-06
7.87936e-06
7.83869e-06
2.92859e-07
2.94618e-07
2.85899e-07
2.83807e-07
2.86806e-07
2.90543e-07
2.96163e-07
2.92806e-07
2.76477e-07
2.70533e-07
2.80066e-07
2.81981e-07
5.57061e-08
5.62604e-08
5.40321e-08
5.26647e-08
5.27304e-08
5.38089e-08
5.52347e-08
5.449e-08
5.14716e-08
5.06738e-08
5.30557e-08
5.37072e-08
8.52808e-08
8.72409e-08
8.07264e-08
7.34839e-08
7.09621e-08
7.46083e-08
7.86846e-08
7.69902e-08
7.28305e-08
7.3326e-08
7.99631e-08
8.25349e-08
2.56191e-07
2.62717e-07
2.41032e-07
2.15916e-07
2.06697e-07
2.19047e-07
2.32512e-07
2.27046e-07
2.14893e-07
2.17435e-07
2.39269e-07
2.48139e-07
6.29683e-07
6.45751e-07
5.91732e-07
5.28986e-07
5.05906e-07
5.36919e-07
5.70308e-07
5.56684e-07
5.27115e-07
5.33586e-07
5.87695e-07
6.10162e-07
1.28423e-06
1.31671e-06
1.20669e-06
1.07872e-06
1.03162e-06
1.0954e-06
1.16323e-06
1.13522e-06
1.07567e-06
1.08879e-06
1.1988e-06
1.24543e-06
2.2913e-06
2.34871e-06
2.15431e-06
1.92714e-06
1.8431e-06
1.95728e-06
2.07717e-06
2.02684e-06
1.92261e-06
1.94595e-06
2.1408e-06
2.22513e-06
3.69789e-06
3.7899e-06
3.48201e-06
3.11862e-06
2.98257e-06
3.1666e-06
3.35727e-06
3.27555e-06
3.11198e-06
3.15001e-06
3.46104e-06
3.5984e-06
5.51011e-06
5.64671e-06
5.20137e-06
4.66693e-06
4.46279e-06
4.73519e-06
5.01359e-06
4.8911e-06
4.65647e-06
4.71462e-06
5.17111e-06
5.37641e-06
7.68329e-06
7.8737e-06
7.2785e-06
6.54645e-06
6.25879e-06
6.63413e-06
7.01213e-06
6.84016e-06
6.52843e-06
6.61295e-06
7.23709e-06
7.52193e-06
1.01235e-05
1.0375e-05
9.6338e-06
8.69137e-06
8.30758e-06
8.79389e-06
9.27563e-06
9.04697e-06
8.65936e-06
8.77686e-06
9.57914e-06
9.94904e-06
1.27003e-05
1.30167e-05
1.21516e-05
1.10033e-05
1.05158e-05
1.11134e-05
1.16938e-05
1.14032e-05
1.09483e-05
1.11048e-05
1.20811e-05
1.25336e-05
1.52655e-05
1.56465e-05
1.46957e-05
1.33645e-05
1.27724e-05
1.34741e-05
1.41389e-05
1.37835e-05
1.32759e-05
1.34755e-05
1.46063e-05
1.51307e-05
1.77216e-05
1.81641e-05
1.71627e-05
1.56766e-05
1.49851e-05
1.5784e-05
1.65184e-05
1.6096e-05
1.55466e-05
1.57868e-05
1.70493e-05
1.76375e-05
2.00107e-05
2.05093e-05
1.9496e-05
1.78899e-05
1.71081e-05
1.79952e-05
1.87819e-05
1.82916e-05
1.7712e-05
1.79876e-05
1.93525e-05
1.99941e-05
2.2088e-05
2.26351e-05
2.16495e-05
1.99626e-05
1.91031e-05
2.00686e-05
2.08889e-05
2.03312e-05
1.97329e-05
2.00355e-05
2.14688e-05
2.2152e-05
2.39225e-05
2.45089e-05
2.35891e-05
2.1863e-05
2.09411e-05
2.19744e-05
2.28095e-05
2.21867e-05
2.15806e-05
2.1899e-05
2.33631e-05
2.40757e-05
2.54961e-05
2.61113e-05
2.52923e-05
2.35688e-05
2.26014e-05
2.36916e-05
2.45237e-05
2.38401e-05
2.32362e-05
2.35567e-05
2.50125e-05
2.57421e-05
2.6801e-05
2.74342e-05
2.6747e-05
2.50657e-05
2.40705e-05
2.52068e-05
2.60198e-05
2.52816e-05
2.46897e-05
2.49966e-05
2.64046e-05
2.71394e-05
2.78388e-05
2.84793e-05
2.79495e-05
2.63468e-05
2.53415e-05
2.65133e-05
2.72932e-05
2.65086e-05
2.59377e-05
2.62145e-05
2.75363e-05
2.82651e-05
2.86176e-05
2.92549e-05
2.89031e-05
2.74108e-05
2.64118e-05
2.76093e-05
2.83446e-05
2.75236e-05
2.69827e-05
2.7213e-05
2.84125e-05
2.91241e-05
2.91502e-05
2.97744e-05
2.9616e-05
2.82603e-05
2.72832e-05
2.84974e-05
2.9179e-05
2.83326e-05
2.7831e-05
2.79991e-05
2.90432e-05
2.97268e-05
2.94518e-05
3.00534e-05
3.00989e-05
2.89004e-05
2.79592e-05
2.91817e-05
2.98026e-05
2.89433e-05
2.84905e-05
2.8583e-05
2.9442e-05
3.00865e-05
2.95379e-05
3.01074e-05
3.03628e-05
2.93367e-05
2.84439e-05
2.96664e-05
3.02216e-05
2.93626e-05
2.89688e-05
2.89752e-05
2.9623e-05
3.02164e-05
2.94218e-05
2.99501e-05
3.04163e-05
2.95729e-05
2.87398e-05
2.99531e-05
3.04389e-05
2.95943e-05
2.92706e-05
2.91843e-05
2.95989e-05
3.01283e-05
2.91138e-05
2.95917e-05
3.02646e-05
2.96097e-05
2.88466e-05
3.00398e-05
3.04534e-05
2.96379e-05
2.93956e-05
2.92153e-05
2.93792e-05
2.98308e-05
2.86204e-05
2.90394e-05
2.99091e-05
2.94442e-05
2.87604e-05
2.99204e-05
3.02593e-05
2.94877e-05
2.93383e-05
2.90685e-05
2.89701e-05
2.933e-05
2.79449e-05
2.82972e-05
2.93462e-05
2.90695e-05
2.84734e-05
2.95829e-05
2.98425e-05
2.91307e-05
2.90862e-05
2.87384e-05
2.83741e-05
2.86283e-05
2.70817e-05
2.73612e-05
2.85612e-05
2.84681e-05
2.79687e-05
2.89991e-05
2.91704e-05
2.85363e-05
2.86084e-05
2.82061e-05
2.75853e-05
2.77197e-05
2.60196e-05
2.6224e-05
2.75332e-05
2.7615e-05
2.722e-05
2.81338e-05
2.82071e-05
2.76672e-05
2.78638e-05
2.74413e-05
2.65901e-05
2.65941e-05
2.47641e-05
2.48951e-05
2.62676e-05
2.65066e-05
2.6219e-05
2.6985e-05
2.69571e-05
2.65211e-05
2.68417e-05
2.64331e-05
2.53917e-05
2.52634e-05
2.33503e-05
2.34102e-05
2.48095e-05
2.5185e-05
2.50025e-05
2.56051e-05
2.54788e-05
2.51496e-05
2.55885e-05
2.52195e-05
2.40267e-05
2.37695e-05
2.17931e-05
2.17907e-05
2.31775e-05
2.36607e-05
2.35718e-05
2.40092e-05
2.37938e-05
2.35665e-05
2.41042e-05
2.37944e-05
2.25057e-05
2.21343e-05
2.01334e-05
2.00805e-05
2.14188e-05
2.19795e-05
2.19713e-05
2.22469e-05
2.19553e-05
2.18201e-05
2.24342e-05
2.21983e-05
2.08676e-05
2.04035e-05
1.84213e-05
1.83315e-05
1.95909e-05
2.01994e-05
2.02572e-05
2.03812e-05
2.00295e-05
1.99729e-05
2.06376e-05
2.0484e-05
1.91621e-05
1.86305e-05
1.67085e-05
1.65952e-05
1.77526e-05
1.8381e-05
1.8489e-05
1.84787e-05
1.80849e-05
1.80911e-05
1.87792e-05
1.87089e-05
1.74403e-05
1.68682e-05
1.50433e-05
1.49187e-05
1.59582e-05
1.65815e-05
1.67244e-05
1.66023e-05
1.61858e-05
1.62385e-05
1.69229e-05
1.693e-05
1.57506e-05
1.51648e-05
1.34675e-05
1.33417e-05
1.42546e-05
1.48514e-05
1.50148e-05
1.48076e-05
1.43877e-05
1.44712e-05
1.5127e-05
1.51993e-05
1.41352e-05
1.35603e-05
1.20148e-05
1.18948e-05
1.26784e-05
1.32316e-05
1.34031e-05
1.31394e-05
1.27342e-05
1.28347e-05
1.34405e-05
1.35616e-05
1.26287e-05
1.20858e-05
1.07096e-05
1.05996e-05
1.12562e-05
1.17526e-05
1.19224e-05
1.16307e-05
1.1256e-05
1.13623e-05
1.19014e-05
1.20524e-05
1.12568e-05
1.07627e-05
9.56797e-06
9.4694e-06
1.00044e-05
1.04349e-05
1.05959e-05
1.03029e-05
9.97172e-06
1.00754e-05
1.05358e-05
1.06974e-05
1.00372e-05
9.60409e-06
8.59866e-06
8.51053e-06
8.93114e-06
9.29005e-06
9.43779e-06
9.16694e-06
8.88965e-06
8.98467e-06
9.35917e-06
9.51312e-06
8.98023e-06
8.6158e-06
7.80494e-06
7.72444e-06
8.03811e-06
8.32224e-06
8.4547e-06
8.2261e-06
8.01062e-06
8.09316e-06
8.37771e-06
8.5078e-06
8.09023e-06
7.79873e-06
7.18668e-06
7.10964e-06
7.32288e-06
7.53091e-06
7.64804e-06
7.47831e-06
7.33095e-06
7.39871e-06
7.59129e-06
7.68379e-06
7.36767e-06
7.15065e-06
6.74229e-06
6.66362e-06
6.78112e-06
6.91276e-06
7.0161e-06
6.9189e-06
6.84515e-06
6.89708e-06
6.99602e-06
7.0396e-06
6.81084e-06
6.66826e-06
6.47024e-06
6.38436e-06
6.40845e-06
6.46395e-06
6.55621e-06
6.54276e-06
6.54809e-06
6.58433e-06
6.58685e-06
6.57222e-06
6.41756e-06
6.34868e-06
6.36679e-06
6.26844e-06
6.20143e-06
6.18175e-06
6.26651e-06
6.34528e-06
6.43323e-06
6.45605e-06
6.35937e-06
6.27942e-06
6.18637e-06
6.18913e-06
6.36381e-06
6.25064e-06
6.14599e-06
6.06276e-06
6.14434e-06
6.30421e-06
6.42844e-06
6.44349e-06
6.30329e-06
6.15935e-06
6.11051e-06
6.15306e-06
6.46157e-06
6.33127e-06
6.18584e-06
6.04119e-06
6.12313e-06
6.36634e-06
6.5255e-06
6.53574e-06
6.35088e-06
6.14697e-06
6.12574e-06
6.21416e-06
6.61726e-06
6.48348e-06
6.31533e-06
6.11964e-06
6.20599e-06
6.52187e-06
6.68631e-06
6.69481e-06
6.49346e-06
6.23974e-06
6.23551e-06
6.36069e-06
6.76693e-06
6.64904e-06
6.49912e-06
6.28638e-06
6.3808e-06
6.72022e-06
6.84401e-06
6.85268e-06
6.68002e-06
6.41426e-06
6.41784e-06
6.54869e-06
6.88772e-06
6.78922e-06
6.67742e-06
6.49897e-06
6.60307e-06
6.90135e-06
6.97779e-06
6.97927e-06
6.84613e-06
6.61676e-06
6.6159e-06
6.72025e-06
6.98917e-06
6.90866e-06
6.82978e-06
6.69884e-06
6.81172e-06
7.06098e-06
7.09656e-06
7.08421e-06
6.97891e-06
6.79158e-06
6.78587e-06
6.8642e-06
7.07817e-06
7.01455e-06
6.96445e-06
6.87525e-06
6.99774e-06
7.20661e-06
7.20592e-06
7.17573e-06
7.08935e-06
6.93689e-06
6.93134e-06
6.98917e-06
7.15842e-06
7.11084e-06
7.08692e-06
7.03516e-06
7.16766e-06
7.34168e-06
7.30833e-06
7.25849e-06
7.1848e-06
7.06171e-06
7.0595e-06
7.10067e-06
7.2316e-06
7.19939e-06
7.19981e-06
7.18217e-06
7.32437e-06
7.46697e-06
7.40423e-06
7.33472e-06
7.26947e-06
7.17152e-06
7.17436e-06
7.20157e-06
7.29833e-06
7.28083e-06
7.30399e-06
7.31751e-06
7.4683e-06
7.58177e-06
7.49307e-06
7.40518e-06
7.34559e-06
7.26933e-06
7.2779e-06
7.29318e-06
7.35872e-06
7.35523e-06
7.39941e-06
7.4411e-06
7.59865e-06
7.68489e-06
7.57398e-06
7.46996e-06
7.41423e-06
7.35672e-06
7.37098e-06
7.37594e-06
7.41277e-06
7.42248e-06
7.48575e-06
7.55233e-06
7.71427e-06
7.77517e-06
7.64615e-06
7.52886e-06
7.47595e-06
7.43452e-06
7.45399e-06
7.44997e-06
7.46054e-06
7.48254e-06
7.56269e-06
7.65059e-06
7.81416e-06
7.85182e-06
7.70903e-06
7.58172e-06
7.53109e-06
7.5033e-06
7.52719e-06
7.51534e-06
7.50217e-06
7.53547e-06
7.63011e-06
7.73552e-06
7.89777e-06
7.9145e-06
7.76236e-06
7.62846e-06
7.57993e-06
7.56356e-06
7.5909e-06
7.57221e-06
7.53794e-06
7.5815e-06
7.68815e-06
7.80708e-06
7.96505e-06
7.96332e-06
7.80615e-06
7.66913e-06
7.62282e-06
7.61583e-06
7.64556e-06
7.6209e-06
7.5682e-06
7.62099e-06
7.73714e-06
7.86562e-06
8.01644e-06
7.99875e-06
7.84066e-06
7.70391e-06
7.6601e-06
7.66069e-06
7.69172e-06
7.66181e-06
7.59339e-06
7.65438e-06
7.7776e-06
7.91174e-06
8.0528e-06
8.0216e-06
7.86635e-06
7.73306e-06
7.69219e-06
7.69874e-06
7.72999e-06
7.69546e-06
7.61401e-06
7.68225e-06
7.8102e-06
7.94631e-06
8.07531e-06
8.03292e-06
7.8838e-06
7.75693e-06
7.71949e-06
7.73061e-06
7.76105e-06
7.72243e-06
7.63059e-06
7.70519e-06
7.83571e-06
7.9704e-06
8.08543e-06
8.03401e-06
7.89378e-06
7.77593e-06
7.74248e-06
7.75693e-06
7.78559e-06
7.74334e-06
7.64374e-06
7.72388e-06
7.855e-06
7.98521e-06
8.08483e-06
8.02633e-06
7.89713e-06
7.79054e-06
7.76163e-06
7.77837e-06
7.80435e-06
7.75887e-06
7.65408e-06
7.73906e-06
7.86902e-06
7.99208e-06
8.07536e-06
8.01149e-06
7.89484e-06
7.80129e-06
7.77744e-06
7.79558e-06
7.81808e-06
7.76974e-06
7.66228e-06
7.7515e-06
7.87875e-06
7.99244e-06
8.05897e-06
7.9912e-06
7.88796e-06
7.80876e-06
7.79046e-06
7.80924e-06
7.82758e-06
7.77672e-06
7.66903e-06
7.76201e-06
7.88523e-06
7.98778e-06
8.03769e-06
7.96725e-06
7.87765e-06
7.81358e-06
7.80124e-06
7.82004e-06
7.83367e-06
7.7806e-06
7.67504e-06
7.7714e-06
7.8895e-06
7.97963e-06
8.01355e-06
7.94143e-06
7.8651e-06
7.81643e-06
7.81039e-06
7.82872e-06
7.83718e-06
7.78224e-06
7.68106e-06
7.78054e-06
7.89259e-06
7.9695e-06
7.98855e-06
7.91548e-06
7.85154e-06
7.81802e-06
7.8185e-06
7.83601e-06
7.83903e-06
7.78253e-06
7.6878e-06
7.79023e-06
7.89548e-06
7.95885e-06
7.96454e-06
7.89106e-06
7.83817e-06
7.81909e-06
7.82622e-06
7.84268e-06
7.84011e-06
7.78239e-06
7.69599e-06
7.80129e-06
7.89911e-06
7.94904e-06
7.94321e-06
7.86966e-06
7.82618e-06
7.8204e-06
7.83419e-06
7.84951e-06
7.84137e-06
7.78279e-06
7.70635e-06
7.81446e-06
7.90429e-06
7.94127e-06
7.92602e-06
7.85259e-06
7.81666e-06
7.8227e-06
7.84308e-06
7.8573e-06
7.84378e-06
7.78469e-06
7.71955e-06
7.83043e-06
7.91169e-06
7.93656e-06
7.91413e-06
7.8409e-06
7.81061e-06
7.82676e-06
7.85356e-06
7.86683e-06
7.84828e-06
7.78906e-06
7.73625e-06
7.84976e-06
7.92184e-06
7.93568e-06
7.90837e-06
7.83539e-06
7.80889e-06
7.83328e-06
7.8663e-06
7.87889e-06
7.85579e-06
7.79686e-06
7.757e-06
7.8729e-06
7.93507e-06
7.93915e-06
7.90921e-06
7.83656e-06
7.81219e-06
7.84298e-06
7.88195e-06
7.89422e-06
7.86722e-06
7.80898e-06
7.78231e-06
7.90014e-06
7.95149e-06
7.94718e-06
7.91676e-06
7.8446e-06
7.82102e-06
7.85648e-06
7.90114e-06
7.91353e-06
7.88338e-06
7.82626e-06
2.95949e-07
2.97677e-07
2.88755e-07
2.86775e-07
2.89892e-07
2.93824e-07
2.99263e-07
2.95732e-07
2.79458e-07
2.73428e-07
2.83315e-07
2.85666e-07
5.61977e-08
5.67273e-08
5.46251e-08
5.34654e-08
5.35831e-08
5.46207e-08
5.59711e-08
5.52533e-08
5.22793e-08
5.13663e-08
5.36562e-08
5.43579e-08
8.55099e-08
8.73379e-08
8.18864e-08
7.59362e-08
7.36428e-08
7.68175e-08
8.05689e-08
7.92347e-08
7.53225e-08
7.51198e-08
8.07726e-08
8.32456e-08
2.56551e-07
2.6264e-07
2.44706e-07
2.24055e-07
2.15596e-07
2.26276e-07
2.38665e-07
2.34502e-07
2.23199e-07
2.23293e-07
2.41608e-07
2.50059e-07
6.30558e-07
6.45604e-07
6.00945e-07
5.49184e-07
5.2792e-07
5.54795e-07
5.85634e-07
5.75325e-07
5.47839e-07
5.48135e-07
5.93371e-07
6.14748e-07
1.28632e-06
1.31689e-06
1.22587e-06
1.11986e-06
1.07626e-06
1.13172e-06
1.1947e-06
1.17358e-06
1.11816e-06
1.11854e-06
1.21029e-06
1.25461e-06
2.29592e-06
2.35031e-06
2.18942e-06
2.00023e-06
1.92199e-06
2.02166e-06
2.13372e-06
2.09592e-06
1.99876e-06
1.99912e-06
2.16115e-06
2.24123e-06
3.70739e-06
3.79519e-06
3.54036e-06
3.23592e-06
3.10839e-06
3.26975e-06
3.44934e-06
3.3882e-06
3.23543e-06
3.23601e-06
3.49371e-06
3.62397e-06
5.52842e-06
5.65975e-06
5.29134e-06
4.84047e-06
4.64768e-06
4.88771e-06
5.15226e-06
5.06099e-06
4.84136e-06
4.84319e-06
5.21977e-06
5.41414e-06
7.71653e-06
7.90097e-06
7.40895e-06
6.78638e-06
6.5126e-06
6.84522e-06
7.20812e-06
7.08045e-06
6.7878e-06
6.79314e-06
7.30542e-06
7.57463e-06
1.01806e-05
1.04259e-05
9.81349e-06
9.00448e-06
8.63632e-06
9.07021e-06
9.5382e-06
9.3689e-06
9.00364e-06
9.01608e-06
9.67093e-06
1.002e-05
1.27933e-05
1.3104e-05
1.23887e-05
1.1392e-05
1.09206e-05
1.14581e-05
1.20298e-05
1.1815e-05
1.13841e-05
1.14081e-05
1.22005e-05
1.26272e-05
1.54094e-05
1.57858e-05
1.49973e-05
1.38264e-05
1.32494e-05
1.38866e-05
1.45522e-05
1.42896e-05
1.38055e-05
1.38452e-05
1.4758e-05
1.52529e-05
1.7931e-05
1.83708e-05
1.7535e-05
1.6206e-05
1.55261e-05
1.62609e-05
1.70113e-05
1.66988e-05
1.61695e-05
1.62238e-05
1.72379e-05
1.77939e-05
2.03018e-05
2.07999e-05
1.99446e-05
1.84786e-05
1.77025e-05
1.85313e-05
1.93551e-05
1.89915e-05
1.84255e-05
1.84914e-05
1.95837e-05
2.01917e-05
2.24775e-05
2.30264e-05
2.21791e-05
2.06009e-05
1.97384e-05
2.0657e-05
2.15415e-05
2.11265e-05
2.05323e-05
2.06051e-05
2.17494e-05
2.23992e-05
2.44268e-05
2.50169e-05
2.42033e-05
2.25398e-05
2.16038e-05
2.26069e-05
2.35389e-05
2.30736e-05
2.24591e-05
2.25324e-05
2.37012e-05
2.4382e-05
2.61301e-05
2.67501e-05
2.59931e-05
2.42722e-05
2.32772e-05
2.43591e-05
2.53254e-05
2.48125e-05
2.41852e-05
2.42514e-05
2.54167e-05
2.61175e-05
2.75778e-05
2.82153e-05
2.75347e-05
2.57838e-05
2.47459e-05
2.58994e-05
2.68877e-05
2.63312e-05
2.56986e-05
2.57496e-05
2.6884e-05
2.75936e-05
2.87685e-05
2.941e-05
2.88224e-05
2.7068e-05
2.60035e-05
2.7221e-05
2.82196e-05
2.76247e-05
2.69943e-05
2.70224e-05
2.80997e-05
2.88071e-05
2.97068e-05
3.03385e-05
2.98576e-05
2.81244e-05
2.70495e-05
2.83223e-05
2.93201e-05
2.86934e-05
2.80734e-05
2.80716e-05
2.90674e-05
2.97614e-05
3.04015e-05
3.10095e-05
3.06462e-05
2.89572e-05
2.78876e-05
2.92065e-05
3.01924e-05
2.95413e-05
2.89405e-05
2.8904e-05
2.97955e-05
3.04643e-05
3.08631e-05
3.14336e-05
3.11969e-05
2.95733e-05
2.85242e-05
2.98785e-05
3.08416e-05
3.0174e-05
2.96025e-05
2.95288e-05
3.02951e-05
3.09263e-05
3.11019e-05
3.16215e-05
3.15181e-05
2.99803e-05
2.89661e-05
3.03435e-05
3.12718e-05
3.05966e-05
3.00662e-05
2.99554e-05
3.05774e-05
3.11579e-05
3.11256e-05
3.15817e-05
3.16168e-05
3.01842e-05
2.9219e-05
3.06041e-05
3.14847e-05
3.08115e-05
3.03355e-05
3.01912e-05
3.06518e-05
3.11676e-05
3.09382e-05
3.13197e-05
3.14963e-05
3.0188e-05
2.92856e-05
3.06594e-05
3.14772e-05
3.0817e-05
3.04107e-05
3.02395e-05
3.05243e-05
3.09609e-05
3.054e-05
3.08376e-05
3.11566e-05
2.99913e-05
2.91645e-05
3.05043e-05
3.12424e-05
3.06067e-05
3.02867e-05
3.00989e-05
3.01973e-05
3.05401e-05
2.99273e-05
3.01345e-05
3.05937e-05
2.95897e-05
2.88508e-05
3.01283e-05
3.0767e-05
3.01688e-05
2.99523e-05
2.97624e-05
2.96689e-05
2.9904e-05
2.90861e-05
2.92021e-05
2.97928e-05
2.89699e-05
2.83308e-05
2.95068e-05
3.00218e-05
2.94764e-05
2.93808e-05
2.92095e-05
2.89279e-05
2.90426e-05
2.79971e-05
2.80289e-05
2.87332e-05
2.81097e-05
2.7581e-05
2.86084e-05
2.89767e-05
2.84989e-05
2.85361e-05
2.84078e-05
2.79545e-05
2.79417e-05
2.6666e-05
2.6625e-05
2.74195e-05
2.70031e-05
2.65908e-05
2.74312e-05
2.76412e-05
2.724e-05
2.74114e-05
2.73455e-05
2.67472e-05
2.66086e-05
2.5135e-05
2.50309e-05
2.5897e-05
2.56868e-05
2.53912e-05
2.60237e-05
2.60727e-05
2.57519e-05
2.6054e-05
2.60621e-05
2.53427e-05
2.50841e-05
2.34286e-05
2.3276e-05
2.41884e-05
2.41682e-05
2.39783e-05
2.44029e-05
2.4301e-05
2.40588e-05
2.44751e-05
2.4558e-05
2.37543e-05
2.33923e-05
2.15978e-05
2.14136e-05
2.23448e-05
2.24907e-05
2.23941e-05
2.26191e-05
2.23848e-05
2.22153e-05
2.27229e-05
2.28768e-05
2.20259e-05
2.1583e-05
1.97034e-05
1.9504e-05
2.04272e-05
2.07097e-05
2.0692e-05
2.0735e-05
2.03931e-05
2.02875e-05
2.08591e-05
2.10752e-05
2.02128e-05
1.97145e-05
1.7807e-05
1.76067e-05
1.84975e-05
1.88836e-05
1.89287e-05
1.8816e-05
1.83954e-05
1.83432e-05
1.89496e-05
1.92143e-05
1.83724e-05
1.78452e-05
1.59655e-05
1.57754e-05
1.66126e-05
1.70683e-05
1.71601e-05
1.69241e-05
1.64553e-05
1.64454e-05
1.70576e-05
1.73543e-05
1.65595e-05
1.60284e-05
1.42273e-05
1.40545e-05
1.48216e-05
1.53136e-05
1.54368e-05
1.51133e-05
1.46259e-05
1.46476e-05
1.52397e-05
1.55502e-05
1.48224e-05
1.43093e-05
1.26302e-05
1.24782e-05
1.31631e-05
1.36613e-05
1.38024e-05
1.34272e-05
1.29478e-05
1.29918e-05
1.35422e-05
1.38487e-05
1.32007e-05
1.2723e-05
1.12013e-05
1.10697e-05
1.16648e-05
1.21436e-05
1.22914e-05
1.18983e-05
1.14489e-05
1.15074e-05
1.19998e-05
1.22864e-05
1.17245e-05
1.12946e-05
9.95686e-06
9.84272e-06
1.03445e-05
1.07835e-05
1.09292e-05
1.05474e-05
1.0145e-05
1.02122e-05
1.06359e-05
1.08896e-05
1.04141e-05
1.00396e-05
8.90474e-06
8.80287e-06
9.21086e-06
9.59489e-06
9.73258e-06
9.38616e-06
9.04253e-06
9.11391e-06
9.46314e-06
9.67457e-06
9.28131e-06
8.9651e-06
8.04609e-06
7.94995e-06
8.26591e-06
8.58475e-06
8.7108e-06
8.41812e-06
8.14051e-06
8.21302e-06
8.48612e-06
8.64911e-06
8.33091e-06
8.07238e-06
7.37786e-06
7.28001e-06
7.50702e-06
7.75451e-06
7.86735e-06
7.64172e-06
7.43364e-06
7.50489e-06
7.70325e-06
7.81469e-06
7.56254e-06
7.35833e-06
6.89477e-06
6.78717e-06
6.92897e-06
7.1021e-06
7.20183e-06
7.05239e-06
6.91435e-06
6.98218e-06
7.10934e-06
7.16847e-06
6.97269e-06
6.8176e-06
6.59062e-06
6.46483e-06
6.52561e-06
6.62365e-06
6.71168e-06
6.64444e-06
6.5745e-06
6.6366e-06
6.69743e-06
6.70526e-06
6.55632e-06
6.44413e-06
6.45732e-06
6.3054e-06
6.29073e-06