/*--------------------------------*- C++ -*----------------------------------*\
| =========                 |                                                 |
| \\      /  F ield         | OpenFOAM: The Open Source CFD Toolbox           |
|  \\    /   O peration     | Version:  v1912                                 |
|   \\  /    A nd           | Website:  www.openfoam.com                      |
|    \\/     M anipulation  |                                                 |
\*---------------------------------------------------------------------------*/
FoamFile
{
    version     2.0;
    format      ascii;
    class       volScalarField;
    location    "8.4";
    object      nut;
}
// * * * * * * * * * * * * * * * * * * * * * * * * * * * * * * * * * * * * * //

dimensions      [0 2 -1 0 0 0 0];


internalField   nonuniform List<scalar> 
34128
(
1.71042e-12
1.71534e-12
1.69064e-12
1.70563e-12
1.73059e-12
1.74162e-12
1.76328e-12
1.74449e-12
1.65713e-12
1.61967e-12
1.65389e-12
1.64974e-12
2.07909e-12
2.09434e-12
2.0301e-12
1.99928e-12
2.00556e-12
2.03241e-12
2.07837e-12
2.0579e-12
1.95625e-12
1.92455e-12
1.99204e-12
1.99882e-12
1.09005e-11
1.11125e-11
1.02667e-11
9.38471e-12
9.06927e-12
9.41186e-12
9.94116e-12
9.86811e-12
9.40008e-12
9.43305e-12
1.01653e-11
1.0379e-11
7.08552e-11
7.23605e-11
6.62173e-11
5.9616e-11
5.71753e-11
5.96748e-11
6.34548e-11
6.30163e-11
6.00611e-11
6.04965e-11
6.56915e-11
6.7327e-11
3.03408e-10
3.09826e-10
2.83037e-10
2.54176e-10
2.43537e-10
2.54532e-10
2.7088e-10
2.69e-10
2.56533e-10
2.5853e-10
2.80969e-10
2.88269e-10
9.49191e-10
9.68998e-10
8.85035e-10
7.94203e-10
7.6075e-10
7.95592e-10
8.46547e-10
8.40608e-10
8.02537e-10
8.09115e-10
8.79105e-10
9.02514e-10
2.37168e-09
2.42053e-09
2.21268e-09
1.98558e-09
1.90139e-09
1.9888e-09
2.11466e-09
2.0997e-09
2.00825e-09
2.02612e-09
2.19946e-09
2.25881e-09
4.99392e-09
5.09579e-09
4.66756e-09
4.19151e-09
4.01212e-09
4.19511e-09
4.45506e-09
4.42345e-09
4.24157e-09
4.28384e-09
4.64352e-09
4.76871e-09
9.17367e-09
9.35976e-09
8.60051e-09
7.735e-09
7.40021e-09
7.73093e-09
8.19558e-09
8.13732e-09
7.82746e-09
7.91639e-09
8.56348e-09
8.79025e-09
1.50738e-08
1.5379e-08
1.41913e-08
1.27926e-08
1.22324e-08
1.27617e-08
1.34989e-08
1.34025e-08
1.29382e-08
1.31063e-08
1.41413e-08
1.45024e-08
2.2597e-08
2.30545e-08
2.13818e-08
1.93323e-08
1.84773e-08
1.92436e-08
2.0303e-08
2.01559e-08
1.95304e-08
1.98187e-08
2.13207e-08
2.18359e-08
3.1409e-08
3.20446e-08
2.98871e-08
2.71195e-08
2.59117e-08
2.69339e-08
2.83361e-08
2.81252e-08
2.73539e-08
2.78064e-08
2.98176e-08
3.04864e-08
3.98856e-08
4.06852e-08
3.84729e-08
3.52433e-08
3.36606e-08
3.47708e-08
3.63285e-08
3.60722e-08
3.53924e-08
3.61513e-08
3.84521e-08
3.90517e-08
4.76514e-08
4.85883e-08
4.61314e-08
4.24027e-08
4.05284e-08
4.18236e-08
4.35974e-08
4.32616e-08
4.25164e-08
4.34524e-08
4.6106e-08
4.67638e-08
5.5478e-08
5.65446e-08
5.38886e-08
4.97009e-08
4.75455e-08
4.90231e-08
5.09889e-08
5.05609e-08
4.97608e-08
5.08731e-08
5.38529e-08
5.45611e-08
6.32531e-08
6.44398e-08
6.16397e-08
5.70454e-08
5.4624e-08
5.62761e-08
5.84036e-08
5.7872e-08
5.70311e-08
5.8316e-08
6.15872e-08
6.23366e-08
7.08716e-08
7.21672e-08
6.92834e-08
6.4345e-08
6.1677e-08
6.34916e-08
6.57464e-08
6.51006e-08
6.42353e-08
6.56857e-08
6.9207e-08
6.99883e-08
7.82462e-08
7.9639e-08
7.6736e-08
7.15228e-08
6.86311e-08
7.05931e-08
7.29371e-08
7.21678e-08
7.12962e-08
7.29026e-08
7.66281e-08
7.74319e-08
8.53123e-08
8.67902e-08
8.39348e-08
7.852e-08
7.54297e-08
7.7522e-08
7.99152e-08
7.90133e-08
7.81553e-08
7.99067e-08
8.37878e-08
8.46044e-08
9.2035e-08
9.35869e-08
9.08461e-08
8.53025e-08
8.20386e-08
8.42442e-08
8.66464e-08
8.56029e-08
8.47794e-08
8.66643e-08
9.06514e-08
9.14728e-08
9.84185e-08
1.00036e-07
9.74755e-08
9.18707e-08
8.84559e-08
9.07602e-08
9.31327e-08
9.19371e-08
9.11696e-08
9.31773e-08
9.72226e-08
9.80437e-08
1.04512e-07
1.0619e-07
1.03875e-07
9.82691e-08
9.47213e-08
9.71149e-08
9.94213e-08
9.80613e-08
9.73722e-08
9.94931e-08
1.03551e-07
1.04371e-07
1.10404e-07
1.12141e-07
1.1014e-07
1.04587e-07
1.00918e-07
1.03398e-07
1.05604e-07
1.04064e-07
1.03479e-07
1.05704e-07
1.09729e-07
1.1055e-07
1.16196e-07
1.17992e-07
1.16385e-07
1.10942e-07
1.07161e-07
1.0973e-07
1.11795e-07
1.10063e-07
1.09615e-07
1.11931e-07
1.15868e-07
1.16692e-07
1.21966e-07
1.23818e-07
1.22708e-07
1.17449e-07
1.13565e-07
1.16223e-07
1.181e-07
1.16167e-07
1.15906e-07
1.18293e-07
1.22067e-07
1.22883e-07
1.27729e-07
1.29623e-07
1.29146e-07
1.24174e-07
1.20206e-07
1.22937e-07
1.24567e-07
1.22438e-07
1.22435e-07
1.24866e-07
1.28364e-07
1.29141e-07
1.33394e-07
1.35302e-07
1.35629e-07
1.31094e-07
1.27077e-07
1.29836e-07
1.31145e-07
1.28846e-07
1.29195e-07
1.31642e-07
1.34696e-07
1.35372e-07
1.38727e-07
1.40601e-07
1.41934e-07
1.38044e-07
1.34043e-07
1.36741e-07
1.37615e-07
1.35205e-07
1.36049e-07
1.38483e-07
1.40856e-07
1.41319e-07
1.43296e-07
1.45052e-07
1.47595e-07
1.44634e-07
1.40765e-07
1.43237e-07
1.43524e-07
1.41111e-07
1.42632e-07
1.45033e-07
1.46407e-07
1.46479e-07
1.46506e-07
1.48049e-07
1.51921e-07
1.50222e-07
1.46654e-07
1.48655e-07
1.48189e-07
1.45929e-07
1.48325e-07
1.50682e-07
1.50693e-07
1.50161e-07
1.48049e-07
1.49395e-07
1.54318e-07
1.54128e-07
1.51045e-07
1.52316e-07
1.50976e-07
1.49023e-07
1.52447e-07
1.54758e-07
1.53135e-07
1.51945e-07
1.48296e-07
1.49449e-07
1.55133e-07
1.56079e-07
1.53522e-07
1.54024e-07
1.52046e-07
1.50369e-07
1.54625e-07
1.56906e-07
1.54046e-07
1.52317e-07
1.47264e-07
1.48227e-07
1.54505e-07
1.56394e-07
1.54241e-07
1.54122e-07
1.51633e-07
1.50242e-07
1.55089e-07
1.57371e-07
1.53559e-07
1.51319e-07
1.45028e-07
1.45815e-07
1.52495e-07
1.55211e-07
1.5344e-07
1.52732e-07
1.49813e-07
1.48728e-07
1.54053e-07
1.56347e-07
1.51737e-07
1.49023e-07
1.41748e-07
1.42388e-07
1.49242e-07
1.52622e-07
1.51232e-07
1.49971e-07
1.46723e-07
1.45945e-07
1.51619e-07
1.53935e-07
1.48706e-07
1.45587e-07
1.37667e-07
1.38204e-07
1.44981e-07
1.48824e-07
1.47788e-07
1.46036e-07
1.42597e-07
1.42099e-07
1.4795e-07
1.50286e-07
1.44662e-07
1.41256e-07
1.33104e-07
1.33592e-07
1.40021e-07
1.44089e-07
1.43356e-07
1.41225e-07
1.37768e-07
1.3749e-07
1.43295e-07
1.45628e-07
1.39879e-07
1.36356e-07
1.28442e-07
1.28939e-07
1.34743e-07
1.38763e-07
1.38258e-07
1.3592e-07
1.32657e-07
1.32508e-07
1.37995e-07
1.4027e-07
1.34694e-07
1.31272e-07
1.24111e-07
1.24668e-07
1.29572e-07
1.33247e-07
1.32884e-07
1.30578e-07
1.27749e-07
1.27611e-07
1.32469e-07
1.34593e-07
1.29489e-07
1.26431e-07
1.20574e-07
1.2123e-07
1.2497e-07
1.27984e-07
1.27674e-07
1.25705e-07
1.23576e-07
1.23311e-07
1.27199e-07
1.29029e-07
1.24678e-07
1.22284e-07
1.18326e-07
1.19101e-07
1.21416e-07
1.23444e-07
1.23102e-07
1.21842e-07
1.20699e-07
1.20153e-07
1.2271e-07
1.24051e-07
1.20713e-07
1.19301e-07
1.179e-07
1.18797e-07
1.19416e-07
1.20113e-07
1.19673e-07
1.19576e-07
1.19732e-07
1.18723e-07
1.19561e-07
1.20163e-07
1.18068e-07
1.17978e-07
1.19919e-07
1.20921e-07
1.19525e-07
1.18526e-07
1.17945e-07
1.19545e-07
1.21372e-07
1.1967e-07
1.18356e-07
1.17906e-07
1.17259e-07
1.18873e-07
1.25174e-07
1.26245e-07
1.2241e-07
1.19291e-07
1.18552e-07
1.22501e-07
1.26466e-07
1.2381e-07
1.19784e-07
1.17884e-07
1.1889e-07
1.22679e-07
1.34782e-07
1.35864e-07
1.28949e-07
1.23162e-07
1.2228e-07
1.29442e-07
1.36191e-07
1.32209e-07
1.24702e-07
1.20831e-07
1.23734e-07
1.30344e-07
1.50442e-07
1.51439e-07
1.40424e-07
1.31172e-07
1.30203e-07
1.41836e-07
1.52367e-07
1.4646e-07
1.34294e-07
1.27725e-07
1.3288e-07
1.43282e-07
1.7485e-07
1.75592e-07
1.58818e-07
1.44859e-07
1.43926e-07
1.62014e-07
1.77928e-07
1.69095e-07
1.50352e-07
1.4e-07
1.47977e-07
1.63719e-07
2.12194e-07
2.12346e-07
1.8728e-07
1.66647e-07
1.65994e-07
1.93769e-07
2.17545e-07
2.04127e-07
1.75728e-07
1.59897e-07
1.71617e-07
1.95152e-07
2.6658e-07
2.65426e-07
2.2996e-07
2.00297e-07
2.00415e-07
2.42031e-07
2.76162e-07
2.56111e-07
2.14873e-07
1.90932e-07
2.07686e-07
2.40976e-07
3.34388e-07
3.26507e-07
2.8668e-07
2.49111e-07
2.50967e-07
3.03636e-07
3.48789e-07
3.32547e-07
2.72145e-07
2.36434e-07
2.59386e-07
2.98019e-07
4.06529e-07
3.95096e-07
3.45046e-07
3.00185e-07
3.03828e-07
3.68176e-07
4.23664e-07
4.05807e-07
3.40834e-07
2.94521e-07
3.10283e-07
3.59691e-07
4.93504e-07
4.77436e-07
4.17681e-07
3.62667e-07
3.68368e-07
4.47529e-07
5.12522e-07
4.93189e-07
4.16254e-07
3.56791e-07
3.75547e-07
4.35705e-07
5.95309e-07
5.73252e-07
5.03527e-07
4.39445e-07
4.47668e-07
5.40707e-07
6.15554e-07
5.95105e-07
5.07151e-07
4.34462e-07
4.5499e-07
5.25142e-07
7.12761e-07
6.83375e-07
6.02687e-07
5.2943e-07
5.40685e-07
6.48354e-07
7.33377e-07
7.12265e-07
6.13478e-07
5.26598e-07
5.47942e-07
6.28653e-07
8.45859e-07
8.08039e-07
7.15813e-07
6.33144e-07
6.48054e-07
7.70784e-07
8.65758e-07
8.44653e-07
7.35958e-07
6.33604e-07
6.55229e-07
7.46903e-07
9.9349e-07
9.46543e-07
8.42812e-07
7.51042e-07
7.70077e-07
9.07363e-07
1.01142e-06
9.91186e-07
8.74394e-07
7.56102e-07
7.77318e-07
8.79705e-07
1.15333e-06
1.09716e-06
9.8266e-07
8.8272e-07
9.06083e-07
1.05639e-06
1.16804e-06
1.14965e-06
1.02739e-06
8.938e-07
9.13788e-07
1.02588e-06
1.322e-06
1.25717e-06
1.13334e-06
1.02678e-06
1.05433e-06
1.21515e-06
1.33233e-06
1.31683e-06
1.19228e-06
1.04529e-06
1.06319e-06
1.18324e-06
1.49533e-06
1.42307e-06
1.29197e-06
1.18082e-06
1.21206e-06
1.38012e-06
1.50011e-06
1.48874e-06
1.36535e-06
1.20804e-06
1.22307e-06
1.34866e-06
1.66883e-06
1.59084e-06
1.45499e-06
1.3416e-06
1.37575e-06
1.54733e-06
1.66721e-06
1.66101e-06
1.54215e-06
1.37853e-06
1.3901e-06
1.51839e-06
1.83813e-06
1.7564e-06
1.61853e-06
1.50535e-06
1.54143e-06
1.71278e-06
1.82994e-06
1.8293e-06
1.71797e-06
1.55256e-06
1.56038e-06
1.68842e-06
1.99929e-06
1.9159e-06
1.77872e-06
1.6681e-06
1.70508e-06
1.87274e-06
1.98496e-06
1.98966e-06
1.88832e-06
1.72571e-06
1.72979e-06
1.85478e-06
2.14903e-06
2.06607e-06
1.93205e-06
1.82602e-06
1.86299e-06
2.02405e-06
2.12962e-06
2.13842e-06
2.04924e-06
1.8937e-06
1.89441e-06
2.01388e-06
2.28513e-06
2.20435e-06
2.07557e-06
1.97577e-06
2.012e-06
2.16425e-06
2.26198e-06
2.27335e-06
2.19764e-06
2.05276e-06
2.05077e-06
2.16277e-06
2.40634e-06
2.32898e-06
2.20704e-06
2.11464e-06
2.14968e-06
2.29166e-06
2.38108e-06
2.39354e-06
2.33134e-06
2.19989e-06
2.19605e-06
2.29922e-06
2.51186e-06
2.43901e-06
2.325e-06
2.24068e-06
2.27434e-06
2.40537e-06
2.48624e-06
2.49873e-06
2.44911e-06
2.33295e-06
2.32821e-06
2.42182e-06
2.60169e-06
2.5342e-06
2.42873e-06
2.35273e-06
2.38507e-06
2.5051e-06
2.57753e-06
2.5892e-06
2.55061e-06
2.45067e-06
2.44596e-06
2.52986e-06
2.67653e-06
2.61488e-06
2.51814e-06
2.45034e-06
2.48161e-06
2.59112e-06
2.65541e-06
2.66575e-06
2.63646e-06
2.55262e-06
2.5488e-06
2.62329e-06
2.7375e-06
2.68185e-06
2.59368e-06
2.5337e-06
2.5643e-06
2.66411e-06
2.72074e-06
2.72957e-06
2.70749e-06
2.63909e-06
2.63687e-06
2.70259e-06
2.78598e-06
2.73621e-06
2.6562e-06
2.60353e-06
2.6339e-06
2.72497e-06
2.77462e-06
2.78179e-06
2.76491e-06
2.71094e-06
2.71088e-06
2.76869e-06
2.82337e-06
2.77922e-06
2.70682e-06
2.6609e-06
2.69149e-06
2.77511e-06
2.81829e-06
2.82365e-06
2.81006e-06
2.76941e-06
2.77187e-06
2.82281e-06
2.85103e-06
2.81225e-06
2.74682e-06
2.70713e-06
2.73835e-06
2.8156e-06
2.85302e-06
2.85646e-06
2.845e-06
2.81597e-06
2.82108e-06
2.86613e-06
2.87024e-06
2.83666e-06
2.77758e-06
2.74366e-06
2.7758e-06
2.84769e-06
2.88004e-06
2.88148e-06
2.87149e-06
2.85217e-06
2.85987e-06
2.89996e-06
2.8823e-06
2.85377e-06
2.80047e-06
2.77193e-06
2.80518e-06
2.87253e-06
2.90049e-06
2.8999e-06
2.89123e-06
2.87954e-06
2.88965e-06
2.92558e-06
2.88911e-06
2.86476e-06
2.81682e-06
2.79331e-06
2.82772e-06
2.89111e-06
2.91536e-06
2.91276e-06
2.90504e-06
2.89958e-06
2.91179e-06
2.94419e-06
2.89275e-06
2.87066e-06
2.82783e-06
2.80906e-06
2.84446e-06
2.90432e-06
2.92544e-06
2.92095e-06
2.91356e-06
2.91355e-06
2.92754e-06
2.95683e-06
2.8926e-06
2.87243e-06
2.83453e-06
2.82024e-06
2.8563e-06
2.91284e-06
2.9313e-06
2.92518e-06
2.91768e-06
2.92251e-06
2.93798e-06
2.96438e-06
2.88906e-06
2.87057e-06
2.83783e-06
2.82771e-06
2.86386e-06
2.91707e-06
2.93331e-06
2.92591e-06
2.91879e-06
2.92737e-06
2.94398e-06
2.9675e-06
2.88252e-06
2.86565e-06
2.83825e-06
2.83205e-06
2.86753e-06
2.91716e-06
2.93153e-06
2.92337e-06
2.91738e-06
2.92874e-06
2.9462e-06
2.96659e-06
1.8712e-12
1.88244e-12
1.82673e-12
1.81336e-12
1.83252e-12
1.85641e-12
1.89231e-12
1.87086e-12
1.76653e-12
1.72856e-12
1.78947e-12
1.8017e-12
2.15885e-12
2.18013e-12
2.0934e-12
2.04023e-12
2.04291e-12
2.08491e-12
2.14023e-12
2.11143e-12
1.9945e-12
1.96346e-12
2.0557e-12
2.0811e-12
9.63057e-12
9.84992e-12
9.11079e-12
8.29166e-12
8.00821e-12
8.4216e-12
8.8823e-12
8.69163e-12
8.22269e-12
8.27757e-12
9.02605e-12
9.31789e-12
6.05611e-11
6.20832e-11
5.69297e-11
5.0983e-11
4.88155e-11
5.17481e-11
5.49313e-11
5.36475e-11
5.07898e-11
5.13834e-11
5.65297e-11
5.86385e-11
2.57706e-10
2.64157e-10
2.41972e-10
2.16264e-10
2.06869e-10
2.1961e-10
2.33243e-10
2.2773e-10
2.1579e-10
2.18427e-10
2.40436e-10
2.49674e-10
8.03234e-10
8.23038e-10
7.54425e-10
6.74466e-10
6.45123e-10
6.85026e-10
7.27123e-10
7.09923e-10
6.73713e-10
6.82056e-10
7.5005e-10
7.79187e-10
1.99921e-09
2.04771e-09
1.88069e-09
1.68359e-09
1.61033e-09
1.70925e-09
1.81208e-09
1.76938e-09
1.68294e-09
1.70437e-09
1.87084e-09
1.94345e-09
4.1914e-09
4.29158e-09
3.95446e-09
3.54803e-09
3.39345e-09
3.59824e-09
3.80783e-09
3.71878e-09
3.54775e-09
3.59513e-09
3.93596e-09
4.08653e-09
7.66401e-09
7.84476e-09
7.2613e-09
6.53575e-09
6.25053e-09
6.61707e-09
6.98615e-09
6.8243e-09
6.53384e-09
6.62678e-09
7.23091e-09
7.49941e-09
1.25347e-08
1.28267e-08
1.19391e-08
1.07894e-08
1.03185e-08
1.09006e-08
1.14767e-08
1.12133e-08
1.07781e-08
1.09424e-08
1.18935e-08
1.23154e-08
1.87061e-08
1.91365e-08
1.79256e-08
1.62762e-08
1.55681e-08
1.64064e-08
1.72198e-08
1.68275e-08
1.62392e-08
1.65039e-08
1.7861e-08
1.84567e-08
2.58898e-08
2.64769e-08
2.49719e-08
2.27948e-08
2.18116e-08
2.29258e-08
2.39821e-08
2.3438e-08
2.27063e-08
2.3099e-08
2.48825e-08
2.56511e-08
3.26144e-08
3.3317e-08
3.18982e-08
2.94601e-08
2.82261e-08
2.94716e-08
3.05976e-08
2.99234e-08
2.92316e-08
2.98465e-08
3.17983e-08
3.25165e-08
3.88849e-08
3.96976e-08
3.8192e-08
3.54459e-08
3.40092e-08
3.5453e-08
3.67103e-08
3.58927e-08
3.51222e-08
3.58479e-08
3.80498e-08
3.88474e-08
4.51864e-08
4.61014e-08
4.45586e-08
4.1558e-08
3.99344e-08
4.15658e-08
4.29301e-08
4.19643e-08
4.11246e-08
4.19473e-08
4.436e-08
4.52287e-08
5.14249e-08
5.24331e-08
5.09093e-08
4.77177e-08
4.59266e-08
4.77295e-08
4.91723e-08
4.80565e-08
4.71605e-08
4.80632e-08
5.06386e-08
5.15672e-08
5.75152e-08
5.86064e-08
5.7162e-08
5.38488e-08
5.1913e-08
5.38673e-08
5.53574e-08
5.40926e-08
5.31559e-08
5.41185e-08
5.68015e-08
5.77768e-08
6.33879e-08
6.45515e-08
6.32488e-08
5.98867e-08
5.78314e-08
5.99144e-08
6.14193e-08
6.00087e-08
5.90491e-08
6.00493e-08
6.27792e-08
6.37866e-08
6.89924e-08
7.02182e-08
6.912e-08
6.57815e-08
6.36327e-08
6.5822e-08
6.7309e-08
6.57572e-08
6.47947e-08
6.58084e-08
6.85207e-08
6.9544e-08
7.43027e-08
7.55816e-08
7.47494e-08
7.15033e-08
6.92867e-08
7.15624e-08
7.3e-08
7.13127e-08
7.03686e-08
7.13701e-08
7.39979e-08
7.50215e-08
7.93246e-08
8.06493e-08
8.01429e-08
7.70504e-08
7.47892e-08
7.71377e-08
7.8498e-08
7.66803e-08
7.57765e-08
7.67379e-08
7.92139e-08
8.02241e-08
8.41007e-08
8.54654e-08
8.53437e-08
8.24573e-08
8.01705e-08
8.25882e-08
8.3848e-08
8.19038e-08
8.10621e-08
8.1952e-08
8.42084e-08
8.51946e-08
8.87064e-08
9.01055e-08
9.04299e-08
8.77948e-08
8.54971e-08
8.79906e-08
8.91322e-08
8.70648e-08
8.63074e-08
8.7089e-08
8.90545e-08
9.0008e-08
9.32325e-08
9.46576e-08
9.54958e-08
9.31558e-08
9.08591e-08
9.34414e-08
9.44527e-08
9.22667e-08
9.16183e-08
9.22496e-08
9.38426e-08
9.47514e-08
9.7755e-08
9.91921e-08
1.0062e-07
9.86265e-08
9.63451e-08
9.90272e-08
9.98971e-08
9.76036e-08
9.70963e-08
9.7533e-08
9.86518e-08
9.94933e-08
1.02302e-07
1.03728e-07
1.05831e-07
1.04251e-07
1.02007e-07
1.0479e-07
1.05499e-07
1.0312e-07
1.02804e-07
1.03002e-07
1.03519e-07
1.0425e-07
1.06827e-07
1.08202e-07
1.11073e-07
1.09996e-07
1.07825e-07
1.1069e-07
1.11195e-07
1.08774e-07
1.08731e-07
1.08652e-07
1.08408e-07
1.08957e-07
1.11179e-07
1.12452e-07
1.16178e-07
1.15712e-07
1.13676e-07
1.16555e-07
1.16799e-07
1.14408e-07
1.14752e-07
1.14373e-07
1.13187e-07
1.13444e-07
1.15074e-07
1.16181e-07
1.20812e-07
1.21089e-07
1.19277e-07
1.22013e-07
1.21898e-07
1.19653e-07
1.20535e-07
1.19896e-07
1.17592e-07
1.17397e-07
1.18093e-07
1.18984e-07
1.24481e-07
1.25641e-07
1.24172e-07
1.26506e-07
1.25895e-07
1.23943e-07
1.25535e-07
1.24752e-07
1.21206e-07
1.20387e-07
1.19928e-07
1.2067e-07
1.26753e-07
1.28861e-07
1.27849e-07
1.29503e-07
1.28297e-07
1.26763e-07
1.29194e-07
1.28424e-07
1.23607e-07
1.22152e-07
1.20854e-07
1.215e-07
1.27908e-07
1.30657e-07
1.30037e-07
1.31028e-07
1.29406e-07
1.282e-07
1.31261e-07
1.30623e-07
1.24944e-07
1.22996e-07
1.20881e-07
1.21459e-07
1.28015e-07
1.31237e-07
1.30916e-07
1.31316e-07
1.29355e-07
1.28459e-07
1.31959e-07
1.31489e-07
1.25291e-07
1.22922e-07
1.20054e-07
1.20598e-07
1.27131e-07
1.30694e-07
1.30641e-07
1.30444e-07
1.28211e-07
1.27612e-07
1.31438e-07
1.31184e-07
1.24688e-07
1.21981e-07
1.18494e-07
1.1904e-07
1.2537e-07
1.29137e-07
1.29306e-07
1.28533e-07
1.26122e-07
1.25787e-07
1.29797e-07
1.29797e-07
1.23224e-07
1.20298e-07
1.16401e-07
1.16989e-07
1.22918e-07
1.26721e-07
1.27053e-07
1.25791e-07
1.23335e-07
1.23206e-07
1.27215e-07
1.2747e-07
1.21054e-07
1.18067e-07
1.14057e-07
1.14715e-07
1.20039e-07
1.2367e-07
1.24097e-07
1.22512e-07
1.20192e-07
1.20188e-07
1.23962e-07
1.24423e-07
1.18403e-07
1.15549e-07
1.11807e-07
1.12551e-07
1.17064e-07
1.20284e-07
1.20729e-07
1.19071e-07
1.17114e-07
1.17138e-07
1.20398e-07
1.20957e-07
1.15565e-07
1.13061e-07
1.10054e-07
1.10876e-07
1.14375e-07
1.16918e-07
1.17302e-07
1.15903e-07
1.14584e-07
1.14526e-07
1.16962e-07
1.1744e-07
1.1289e-07
1.10963e-07
1.09253e-07
1.10115e-07
1.12397e-07
1.13975e-07
1.14221e-07
1.13488e-07
1.13129e-07
1.12875e-07
1.14147e-07
1.14302e-07
1.10777e-07
1.09655e-07
1.09913e-07
1.10746e-07
1.11598e-07
1.11899e-07
1.11943e-07
1.12349e-07
1.13323e-07
1.12756e-07
1.12499e-07
1.12021e-07
1.09657e-07
1.09582e-07
1.12636e-07
1.13331e-07
1.125e-07
1.11185e-07
1.10971e-07
1.13061e-07
1.15811e-07
1.14811e-07
1.12613e-07
1.1113e-07
1.10018e-07
1.11258e-07
1.18178e-07
1.18579e-07
1.1573e-07
1.12388e-07
1.1188e-07
1.1632e-07
1.21388e-07
1.19817e-07
1.15175e-07
1.12233e-07
1.12444e-07
1.15319e-07
1.2759e-07
1.2747e-07
1.22097e-07
1.16191e-07
1.15373e-07
1.23049e-07
1.31198e-07
1.28817e-07
1.21039e-07
1.16065e-07
1.17682e-07
1.22614e-07
1.42464e-07
1.41468e-07
1.32761e-07
1.23519e-07
1.22397e-07
1.34589e-07
1.47024e-07
1.43411e-07
1.31387e-07
1.23598e-07
1.26769e-07
1.3438e-07
1.65351e-07
1.62899e-07
1.49508e-07
1.35737e-07
1.34349e-07
1.53065e-07
1.71819e-07
1.66209e-07
1.48027e-07
1.36251e-07
1.41262e-07
1.52538e-07
2.00293e-07
1.9541e-07
1.75216e-07
1.55005e-07
1.53441e-07
1.81994e-07
2.10308e-07
2.0149e-07
1.73889e-07
1.56261e-07
1.63631e-07
1.80118e-07
2.5126e-07
2.42169e-07
2.14036e-07
1.84757e-07
1.83226e-07
2.26198e-07
2.595e-07
2.53314e-07
2.13547e-07
1.87232e-07
1.97641e-07
2.2062e-07
3.24039e-07
3.01043e-07
2.6578e-07
2.27761e-07
2.26787e-07
2.75923e-07
3.10585e-07
3.12319e-07
2.71479e-07
2.3249e-07
2.46438e-07
2.74891e-07
3.95836e-07
3.6456e-07
3.19224e-07
2.74889e-07
2.76397e-07
3.33802e-07
3.75859e-07
3.79271e-07
3.41924e-07
2.94121e-07
2.99627e-07
3.31732e-07
4.82386e-07
4.4235e-07
3.86997e-07
3.31354e-07
3.3427e-07
4.0659e-07
4.5432e-07
4.60199e-07
4.19636e-07
3.58878e-07
3.63975e-07
4.03328e-07
5.8329e-07
5.33632e-07
4.68146e-07
4.024e-07
4.07329e-07
4.93062e-07
5.45888e-07
5.5448e-07
5.12587e-07
4.39992e-07
4.43239e-07
4.88659e-07
6.99526e-07
6.39351e-07
5.62415e-07
4.86842e-07
4.94332e-07
5.93835e-07
6.51709e-07
6.63137e-07
6.20693e-07
5.36241e-07
5.36494e-07
5.88e-07
8.31301e-07
7.60184e-07
6.70765e-07
5.84917e-07
5.95631e-07
7.09768e-07
7.72285e-07
7.86677e-07
7.44689e-07
6.48268e-07
6.44706e-07
7.02314e-07
9.77707e-07
8.95888e-07
7.93502e-07
6.97485e-07
7.12002e-07
8.40789e-07
9.07165e-07
9.2463e-07
8.84337e-07
7.76846e-07
7.68593e-07
8.3183e-07
1.13663e-06
1.04513e-06
9.29993e-07
8.24591e-07
8.43277e-07
9.85676e-07
1.05482e-06
1.07539e-06
1.03818e-06
9.21734e-07
9.07905e-07
9.75798e-07
1.30485e-06
1.20542e-06
1.07857e-06
9.65261e-07
9.88169e-07
1.14205e-06
1.21268e-06
1.23626e-06
1.20349e-06
1.08131e-06
1.06123e-06
1.13235e-06
1.47835e-06
1.37327e-06
1.23657e-06
1.11745e-06
1.14427e-06
1.30659e-06
1.37737e-06
1.40364e-06
1.3765e-06
1.25258e-06
1.22598e-06
1.29857e-06
1.65266e-06
1.54459e-06
1.40055e-06
1.27814e-06
1.30821e-06
1.47533e-06
1.54535e-06
1.5734e-06
1.55275e-06
1.43142e-06
1.39855e-06
1.47073e-06
1.82335e-06
1.71504e-06
1.5666e-06
1.44363e-06
1.47604e-06
1.64409e-06
1.71279e-06
1.74131e-06
1.72754e-06
1.61297e-06
1.57467e-06
1.64466e-06
1.98634e-06
1.88046e-06
1.7307e-06
1.60985e-06
1.64358e-06
1.80885e-06
1.87588e-06
1.90339e-06
1.89643e-06
1.7922e-06
1.74981e-06
1.81615e-06
2.13833e-06
2.0372e-06
1.8891e-06
1.77279e-06
1.80685e-06
1.96607e-06
2.03062e-06
2.05628e-06
2.05562e-06
1.96439e-06
1.91965e-06
1.98127e-06
2.27703e-06
2.18235e-06
2.03854e-06
1.9288e-06
1.96238e-06
2.11293e-06
2.17453e-06
2.19801e-06
2.20219e-06
2.12557e-06
2.08049e-06
2.1366e-06
2.40068e-06
2.31386e-06
2.17647e-06
2.07489e-06
2.1074e-06
2.24736e-06
2.30557e-06
2.32743e-06
2.33416e-06
2.27275e-06
2.2295e-06
2.27946e-06
2.50825e-06
2.43051e-06
2.30115e-06
2.20883e-06
2.23994e-06
2.36808e-06
2.42221e-06
2.44267e-06
2.45052e-06
2.40395e-06
2.3644e-06
2.40808e-06
2.60017e-06
2.53188e-06
2.41159e-06
2.32915e-06
2.35878e-06
2.47456e-06
2.52407e-06
2.54339e-06
2.55108e-06
2.51816e-06
2.48355e-06
2.52151e-06
2.67743e-06
2.61827e-06
2.50756e-06
2.43512e-06
2.46337e-06
2.56687e-06
2.61138e-06
2.62967e-06
2.63625e-06
2.6152e-06
2.58625e-06
2.6194e-06
2.74128e-06
2.69044e-06
2.58938e-06
2.52664e-06
2.55376e-06
2.6456e-06
2.68491e-06
2.70196e-06
2.70666e-06
2.69577e-06
2.67277e-06
2.70197e-06
2.79312e-06
2.74946e-06
2.65784e-06
2.60414e-06
2.63046e-06
2.7117e-06
2.74577e-06
2.76098e-06
2.764e-06
2.76115e-06
2.74419e-06
2.77019e-06
2.83435e-06
2.79654e-06
2.71404e-06
2.6685e-06
2.69436e-06
2.76639e-06
2.79528e-06
2.80809e-06
2.81026e-06
2.81304e-06
2.80269e-06
2.82593e-06
2.86645e-06
2.83306e-06
2.75924e-06
2.7209e-06
2.74662e-06
2.81052e-06
2.83485e-06
2.84478e-06
2.84741e-06
2.85356e-06
2.84963e-06
2.8709e-06
2.89091e-06
2.86046e-06
2.79476e-06
2.76268e-06
2.78857e-06
2.84566e-06
2.86587e-06
2.87257e-06
2.87633e-06
2.88433e-06
2.88561e-06
2.90507e-06
2.90901e-06
2.8802e-06
2.82195e-06
2.7953e-06
2.82161e-06
2.87329e-06
2.88969e-06
2.89289e-06
2.89778e-06
2.90651e-06
2.91218e-06
2.93021e-06
2.92171e-06
2.89359e-06
2.8421e-06
2.82023e-06
2.84707e-06
2.89462e-06
2.90751e-06
2.90705e-06
2.91232e-06
2.92173e-06
2.9311e-06
2.948e-06
2.92898e-06
2.90182e-06
2.85642e-06
2.8388e-06
2.8662e-06
2.91029e-06
2.92034e-06
2.91621e-06
2.92167e-06
2.93243e-06
2.94396e-06
2.95983e-06
2.93033e-06
2.9059e-06
2.86601e-06
2.8522e-06
2.88009e-06
2.92134e-06
2.92901e-06
2.92135e-06
2.92773e-06
2.93939e-06
2.95204e-06
2.96683e-06
2.92764e-06
2.90651e-06
2.8718e-06
2.86143e-06
2.88963e-06
2.92843e-06
2.93414e-06
2.92326e-06
2.9315e-06
2.94341e-06
2.95629e-06
2.96988e-06
2.92155e-06
2.90429e-06
2.87458e-06
2.86729e-06
2.89543e-06
2.93197e-06
2.93609e-06
2.92246e-06
2.93242e-06
2.94493e-06
2.95754e-06
2.96966e-06
2.91425e-06
2.8996e-06
2.87483e-06
2.87035e-06
2.89786e-06
2.93207e-06
2.93497e-06
2.91925e-06
2.93043e-06
2.94408e-06
2.95625e-06
2.96643e-06
1.89094e-12
1.90199e-12
1.84498e-12
1.83233e-12
1.85224e-12
1.87737e-12
1.91212e-12
1.88956e-12
1.78558e-12
1.74705e-12
1.81022e-12
1.82524e-12
2.17782e-12
2.19816e-12
2.11632e-12
2.07121e-12
2.07589e-12
2.11629e-12
2.16869e-12
2.14094e-12
2.02575e-12
1.99025e-12
2.07891e-12
2.10625e-12
9.65561e-12
9.86011e-12
9.24119e-12
8.56798e-12
8.31022e-12
8.67024e-12
9.09425e-12
8.94434e-12
8.50351e-12
8.4796e-12
9.11684e-12
9.39747e-12
6.06371e-11
6.20563e-11
5.77915e-11
5.29e-11
5.09111e-11
5.34476e-11
5.63764e-11
5.54015e-11
5.27468e-11
5.2762e-11
5.70754e-11
5.90842e-11
2.58005e-10
2.64041e-10
2.45696e-10
2.24484e-10
2.15827e-10
2.26863e-10
2.3945e-10
2.35299e-10
2.24227e-10
2.24341e-10
2.4271e-10
2.51493e-10
8.04293e-10
8.22908e-10
7.66214e-10
6.99989e-10
6.72817e-10
7.07454e-10
7.46499e-10
7.33641e-10
7.0008e-10
7.00482e-10
7.57003e-10
7.84655e-10
2.00248e-09
2.04832e-09
1.9106e-09
1.74668e-09
1.67845e-09
1.76447e-09
1.86034e-09
1.82868e-09
1.74863e-09
1.75016e-09
1.88783e-09
1.95658e-09
4.20035e-09
4.29563e-09
4.01871e-09
3.67923e-09
3.53433e-09
3.71262e-09
3.9092e-09
3.84375e-09
3.68559e-09
3.69106e-09
3.97106e-09
4.11316e-09
7.68594e-09
7.85893e-09
7.38239e-09
6.77352e-09
6.50442e-09
6.82377e-09
7.17224e-09
7.05443e-09
6.78624e-09
6.80238e-09
7.29462e-09
7.54704e-09
1.25831e-08
1.28642e-08
1.21446e-08
1.11747e-08
1.07276e-08
1.12352e-08
1.17832e-08
1.15933e-08
1.11921e-08
1.12309e-08
1.19983e-08
1.2393e-08
1.88028e-08
1.92196e-08
1.82461e-08
1.68462e-08
1.61697e-08
1.69015e-08
1.76821e-08
1.74016e-08
1.68597e-08
1.69379e-08
1.80207e-08
1.8575e-08
2.60675e-08
2.66396e-08
2.54391e-08
2.35772e-08
2.26319e-08
2.36064e-08
2.46308e-08
2.42448e-08
2.3571e-08
2.37075e-08
2.51129e-08
2.58241e-08
3.29665e-08
3.36589e-08
3.25374e-08
3.04509e-08
2.92668e-08
3.03275e-08
3.14157e-08
3.09479e-08
3.03245e-08
3.06289e-08
3.21514e-08
3.28228e-08
3.94056e-08
4.02162e-08
3.90132e-08
3.66267e-08
3.52365e-08
3.64724e-08
3.77093e-08
3.71444e-08
3.64449e-08
3.68064e-08
3.85189e-08
3.92685e-08
4.59186e-08
4.68438e-08
4.55882e-08
4.2928e-08
4.13405e-08
4.27482e-08
4.41211e-08
4.34566e-08
4.26864e-08
4.30952e-08
4.49698e-08
4.57914e-08
5.24146e-08
5.34492e-08
5.21741e-08
4.92718e-08
4.74988e-08
4.90714e-08
5.05642e-08
4.97993e-08
4.89673e-08
4.9413e-08
5.14173e-08
5.23023e-08
5.88097e-08
5.99471e-08
5.86874e-08
5.55779e-08
5.3634e-08
5.53623e-08
5.69572e-08
5.60924e-08
5.52098e-08
5.56815e-08
5.77799e-08
5.87177e-08
6.50339e-08
6.62664e-08
6.50585e-08
6.17785e-08
5.96803e-08
6.1554e-08
6.32318e-08
6.22684e-08
6.13483e-08
6.18354e-08
6.399e-08
6.49687e-08
7.10351e-08
7.23538e-08
7.12351e-08
6.78212e-08
6.55865e-08
6.75955e-08
6.93371e-08
6.82766e-08
6.73334e-08
6.78254e-08
6.99968e-08
7.10035e-08
7.67852e-08
7.81802e-08
7.7188e-08
7.36746e-08
7.13217e-08
7.34582e-08
7.52459e-08
7.40888e-08
7.31372e-08
7.36237e-08
7.57719e-08
7.67941e-08
8.22881e-08
8.37483e-08
8.29201e-08
7.9337e-08
7.68824e-08
7.91446e-08
8.09643e-08
7.97094e-08
7.87621e-08
7.92322e-08
8.13168e-08
8.23443e-08
8.75854e-08
8.90986e-08
8.84718e-08
8.4843e-08
8.23009e-08
8.4697e-08
8.65393e-08
8.51819e-08
8.4249e-08
8.46893e-08
8.66693e-08
8.76943e-08
9.27522e-08
9.4304e-08
9.39174e-08
9.02631e-08
8.76454e-08
9.01944e-08
9.20561e-08
9.05883e-08
8.96771e-08
9.00707e-08
9.19007e-08
9.29174e-08
9.78778e-08
9.94493e-08
9.93464e-08
9.5688e-08
9.30076e-08
9.57359e-08
9.76154e-08
9.60304e-08
9.51494e-08
9.54754e-08
9.71002e-08
9.81003e-08
1.03034e-07
1.04598e-07
1.04833e-07
1.01201e-07
9.84763e-08
1.01409e-07
1.03298e-07
1.01593e-07
1.00764e-07
1.00999e-07
1.02348e-07
1.03312e-07
1.08238e-07
1.09757e-07
1.10399e-07
1.06841e-07
1.04103e-07
1.07251e-07
1.09124e-07
1.07306e-07
1.06569e-07
1.06699e-07
1.0768e-07
1.08568e-07
1.13424e-07
1.14843e-07
1.15979e-07
1.12573e-07
1.0987e-07
1.13212e-07
1.15019e-07
1.13108e-07
1.1253e-07
1.12559e-07
1.13055e-07
1.13798e-07
1.18413e-07
1.1966e-07
1.21393e-07
1.18268e-07
1.15665e-07
1.19125e-07
1.20763e-07
1.18804e-07
1.1849e-07
1.18452e-07
1.18327e-07
1.1882e-07
1.2286e-07
1.23865e-07
1.2629e-07
1.23642e-07
1.21241e-07
1.24629e-07
1.25932e-07
1.24003e-07
1.24099e-07
1.24078e-07
1.23192e-07
1.23295e-07
1.26276e-07
1.26999e-07
1.30158e-07
1.28237e-07
1.26174e-07
1.2918e-07
1.29934e-07
1.28138e-07
1.28815e-07
1.28952e-07
1.27183e-07
1.26745e-07
1.28289e-07
1.28821e-07
1.32538e-07
1.3155e-07
1.29965e-07
1.32255e-07
1.32307e-07
1.30714e-07
1.32085e-07
1.32529e-07
1.29834e-07
1.28818e-07
1.29217e-07
1.29611e-07
1.33695e-07
1.33419e-07
1.32298e-07
1.3389e-07
1.33441e-07
1.32003e-07
1.33808e-07
1.34545e-07
1.31256e-07
1.29836e-07
1.29094e-07
1.29373e-07
1.3371e-07
1.34043e-07
1.33282e-07
1.343e-07
1.33416e-07
1.32131e-07
1.34242e-07
1.35199e-07
1.3156e-07
1.29806e-07
1.27985e-07
1.28174e-07
1.32639e-07
1.33519e-07
1.33089e-07
1.3356e-07
1.32304e-07
1.31164e-07
1.33481e-07
1.34636e-07
1.30792e-07
1.28779e-07
1.26039e-07
1.26165e-07
1.30609e-07
1.31942e-07
1.31814e-07
1.31786e-07
1.3026e-07
1.29247e-07
1.31638e-07
1.32953e-07
1.29057e-07
1.26889e-07
1.23493e-07
1.23581e-07
1.27826e-07
1.29472e-07
1.29599e-07
1.29178e-07
1.27537e-07
1.26616e-07
1.28911e-07
1.30316e-07
1.26535e-07
1.24345e-07
1.20662e-07
1.20724e-07
1.24577e-07
1.26341e-07
1.26662e-07
1.2602e-07
1.24468e-07
1.23598e-07
1.25584e-07
1.26969e-07
1.23482e-07
1.21426e-07
1.17933e-07
1.1796e-07
1.21213e-07
1.22857e-07
1.23293e-07
1.22673e-07
1.21456e-07
1.20586e-07
1.22026e-07
1.23243e-07
1.20222e-07
1.1847e-07
1.1574e-07
1.15694e-07
1.18137e-07
1.19387e-07
1.19853e-07
1.19556e-07
1.18948e-07
1.1803e-07
1.18671e-07
1.19537e-07
1.17135e-07
1.15859e-07
1.14567e-07
1.14372e-07
1.15793e-07
1.16349e-07
1.16758e-07
1.17139e-07
1.17423e-07
1.16414e-07
1.16e-07
1.1631e-07
1.14651e-07
1.1401e-07
1.14945e-07
1.14485e-07
1.14662e-07
1.14206e-07
1.14477e-07
1.15936e-07
1.17416e-07
1.16259e-07
1.14536e-07
1.14068e-07
1.13243e-07
1.13382e-07
1.1749e-07
1.16596e-07
1.15284e-07
1.13472e-07
1.13532e-07
1.16522e-07
1.19536e-07
1.1815e-07
1.14849e-07
1.13367e-07
1.13446e-07
1.14491e-07
1.2297e-07
1.21408e-07
1.18298e-07
1.14742e-07
1.14531e-07
1.19577e-07
1.24508e-07
1.22794e-07
1.17592e-07
1.1484e-07
1.15885e-07
1.17962e-07
1.32448e-07
1.29876e-07
1.24534e-07
1.18749e-07
1.18215e-07
1.25981e-07
1.33319e-07
1.31131e-07
1.23586e-07
1.19257e-07
1.2135e-07
1.24611e-07
1.47515e-07
1.43412e-07
1.35171e-07
1.26486e-07
1.2558e-07
1.36982e-07
1.47431e-07
1.44508e-07
1.33959e-07
1.27644e-07
1.30931e-07
1.35599e-07
1.7067e-07
1.64201e-07
1.52006e-07
1.39404e-07
1.38071e-07
1.54502e-07
1.69121e-07
1.64982e-07
1.50401e-07
1.41496e-07
1.4625e-07
1.52687e-07
2.05831e-07
1.95666e-07
1.77887e-07
1.59759e-07