/*--------------------------------*- C++ -*----------------------------------*\
| =========                 |                                                 |
| \\      /  F ield         | OpenFOAM: The Open Source CFD Toolbox           |
|  \\    /   O peration     | Version:  v1912                                 |
|   \\  /    A nd           | Website:  www.openfoam.com                      |
|    \\/     M anipulation  |                                                 |
\*---------------------------------------------------------------------------*/
FoamFile
{
    version     2.0;
    format      ascii;
    class       volVectorField;
    location    "8.4";
    object      UMean;
}
// * * * * * * * * * * * * * * * * * * * * * * * * * * * * * * * * * * * * * //

dimensions      [0 1 -1 0 0 0 0];


internalField   nonuniform List<vector> 
34128
(
(5.02587e-07 1.69479e-07 -0.00340357)
(5.76393e-07 1.71658e-07 -0.00338951)
(1.83985e-07 1.74319e-07 -0.00337208)
(-7.09238e-07 1.74252e-07 -0.00337427)
(-1.02312e-06 1.70272e-07 -0.0034046)
(-4.30161e-07 1.66819e-07 -0.00342821)
(4.70666e-07 1.66689e-07 -0.00342499)
(1.03261e-06 1.70526e-07 -0.00339433)
(4.55647e-07 1.74114e-07 -0.00336296)
(-5.59347e-07 1.73088e-07 -0.00337195)
(-6.49794e-07 1.69748e-07 -0.00339871)
(-2.86699e-07 1.68772e-07 -0.00341011)
(1.45619e-06 1.45573e-06 -0.0103103)
(1.66155e-06 1.48485e-06 -0.0102691)
(5.22177e-07 1.51701e-06 -0.0102181)
(-2.06001e-06 1.51444e-06 -0.0102247)
(-2.96361e-06 1.46665e-06 -0.0103137)
(-1.25473e-06 1.42262e-06 -0.010383)
(1.34216e-06 1.42094e-06 -0.0103735)
(2.98156e-06 1.46748e-06 -0.0102834)
(1.32711e-06 1.51104e-06 -0.0101912)
(-1.59848e-06 1.49878e-06 -0.0102175)
(-1.85649e-06 1.46088e-06 -0.0102961)
(-8.24935e-07 1.44755e-06 -0.0103296)
(2.37154e-06 3.79922e-06 -0.0174223)
(2.69918e-06 3.88187e-06 -0.0173549)
(8.46731e-07 3.97161e-06 -0.0172715)
(-3.34509e-06 3.96332e-06 -0.0172825)
(-4.80882e-06 3.82945e-06 -0.0174284)
(-2.04477e-06 3.70523e-06 -0.017542)
(2.15985e-06 3.70012e-06 -0.0175265)
(4.84258e-06 3.83043e-06 -0.0173786)
(2.17528e-06 3.95263e-06 -0.0172273)
(-2.56527e-06 3.91842e-06 -0.0172704)
(-2.98155e-06 3.81356e-06 -0.017399)
(-1.33058e-06 3.77572e-06 -0.0174539)
(3.2495e-06 7.37645e-06 -0.0247241)
(3.69387e-06 7.5401e-06 -0.0246316)
(1.16361e-06 7.71626e-06 -0.0245174)
(-4.56189e-06 7.69875e-06 -0.0245328)
(-6.55999e-06 7.43529e-06 -0.0247334)
(-2.80343e-06 7.18987e-06 -0.0248894)
(2.9214e-06 7.17905e-06 -0.0248681)
(6.61555e-06 7.43522e-06 -0.0246647)
(2.99957e-06 7.67601e-06 -0.0244565)
(-3.46381e-06 7.60899e-06 -0.0245154)
(-4.02881e-06 7.40447e-06 -0.0246921)
(-1.80465e-06 7.32969e-06 -0.0247676)
(4.09201e-06 1.20415e-05 -0.0321916)
(4.6508e-06 1.23123e-05 -0.0320754)
(1.47891e-06 1.2602e-05 -0.031932)
(-5.70758e-06 1.25716e-05 -0.031952)
(-8.21783e-06 1.2137e-05 -0.0322045)
(-3.53336e-06 1.17311e-05 -0.0324007)
(3.62475e-06 1.1712e-05 -0.0323739)
(8.30017e-06 1.2134e-05 -0.0321177)
(3.79936e-06 1.25319e-05 -0.0318552)
(-4.29756e-06 1.24217e-05 -0.0319292)
(-5.0013e-06 1.20868e-05 -0.0321515)
(-2.2472e-06 1.19634e-05 -0.0322464)
(4.90202e-06 1.78336e-05 -0.0397958)
(5.57565e-06 1.82367e-05 -0.0396573)
(1.79869e-06 1.86662e-05 -0.0394868)
(-6.77928e-06 1.86191e-05 -0.0395112)
(-9.78274e-06 1.79728e-05 -0.0398126)
(-4.23689e-06 1.73685e-05 -0.0400464)
(4.26778e-06 1.73381e-05 -0.0400146)
(9.89559e-06 1.79646e-05 -0.0397088)
(4.57367e-06 1.85571e-05 -0.0393951)
(-5.0696e-06 1.8394e-05 -0.0394829)
(-5.90152e-06 1.78991e-05 -0.039748)
(-2.6577e-06 1.7716e-05 -0.0398613)
(5.68313e-06 2.47311e-05 -0.0475041)
(6.47406e-06 2.5291e-05 -0.047345)
(2.12831e-06 2.58855e-05 -0.0471495)
(-7.77468e-06 2.58178e-05 -0.0471783)
(-1.12556e-05 2.492e-05 -0.047525)
(-4.9169e-06 2.40799e-05 -0.0477937)
(4.84754e-06 2.40347e-05 -0.0477573)
(1.13996e-05 2.49034e-05 -0.0474056)
(5.32046e-06 2.57283e-05 -0.0470443)
(-5.78323e-06 2.55022e-05 -0.0471446)
(-6.7318e-06 2.48187e-05 -0.0474492)
(-3.03544e-06 2.45653e-05 -0.0475795)
(6.4395e-06 3.27242e-05 -0.0552822)
(7.35149e-06 3.34644e-05 -0.0551041)
(2.47237e-06 3.42487e-05 -0.0548857)
(-8.6922e-06 3.41564e-05 -0.054919)
(-1.26378e-05 3.2968e-05 -0.0553072)
(-5.57678e-06 3.18552e-05 -0.0556076)
(5.36045e-06 3.17914e-05 -0.0555672)
(1.28091e-05 3.29393e-05 -0.0551736)
(6.03675e-06 3.4034e-05 -0.0547685)
(-6.44198e-06 3.37353e-05 -0.05488)
(-7.49442e-06 3.2835e-05 -0.0552207)
(-3.37971e-06 3.25013e-05 -0.0553666)
(7.1758e-06 4.18011e-05 -0.0630955)
(8.21318e-06 4.27445e-05 -0.0629)
(2.83468e-06 4.37428e-05 -0.062661)
(-9.53096e-06 4.3622e-05 -0.0626986)
(-1.39316e-05 4.21043e-05 -0.0631244)
(-6.22037e-06 4.06826e-05 -0.0634535)
(5.80264e-06 4.05957e-05 -0.0634097)
(1.41202e-05 4.20591e-05 -0.0629784)
(6.71903e-06 4.34612e-05 -0.0625335)
(-7.04948e-06 4.30801e-05 -0.0626547)
(-8.19157e-06 4.19354e-05 -0.063028)
(-3.68988e-06 4.15118e-05 -0.063188)
(7.89705e-06 5.19514e-05 -0.0709116)
(9.0641e-06 5.31202e-05 -0.0707002)
(3.21833e-06 5.43562e-05 -0.0704426)
(-1.02908e-05 5.4203e-05 -0.0704845)
(-1.51396e-05 5.23179e-05 -0.0709439)
(-6.85173e-06 5.05513e-05 -0.0712987)
(6.17042e-06 5.04365e-05 -0.0712521)
(1.53293e-05 5.22508e-05 -0.0707874)
(7.36368e-06 5.39982e-05 -0.0703068)
(-7.60936e-06 5.35249e-05 -0.0704362)
(-8.82533e-06 5.21085e-05 -0.0708385)
(-3.96546e-06 5.15861e-05 -0.0710113)
(8.60854e-06 6.31641e-05 -0.0787023)
(9.90889e-06 6.45796e-05 -0.0784763)
(3.62578e-06 6.60771e-05 -0.0782021)
(-1.09723e-05 6.58879e-05 -0.0782482)
(-1.62651e-05 6.35974e-05 -0.0787376)
(-7.47496e-06 6.14503e-05 -0.0791149)
(6.46064e-06 6.13019e-05 -0.0790663)
(1.64337e-05 6.35021e-05 -0.0785722)
(7.96741e-06 6.5633e-05 -0.0780598)
(-8.12497e-06 6.50578e-05 -0.078196)
(-9.39744e-06 6.33425e-05 -0.078624)
(-4.20614e-06 6.27128e-05 -0.0788082)
(9.31567e-06 7.54238e-05 -0.0864443)
(1.07519e-05 7.71071e-05 -0.0862051)
(4.05898e-06 7.88897e-05 -0.0859161)
(-1.15764e-05 7.86611e-05 -0.0859662)
(-1.73117e-05 7.59275e-05 -0.086482)
(-8.09403e-06 7.33644e-05 -0.0868794)
(6.67084e-06 7.31761e-05 -0.0868292)
(1.74314e-05 7.57962e-05 -0.0863096)
(8.52756e-06 7.83494e-05 -0.0857691)
(-8.59916e-06 7.76626e-05 -0.0859108)
(-9.90918e-06 7.56216e-05 -0.0863614)
(-4.41161e-06 7.48763e-05 -0.0865558)
(1.0024e-05 8.87281e-05 -0.0941216)
(1.15972e-05 9.06993e-05 -0.0938702)
(4.51954e-06 9.27904e-05 -0.0935679)
(-1.21042e-05 9.25195e-05 -0.0936219)
(-1.82831e-05 8.9306e-05 -0.0941611)
(-8.71252e-06 8.62919e-05 -0.0945759)
(6.79957e-06 8.60566e-05 -0.0945248)
(1.83216e-05 8.91292e-05 -0.0939831)
(9.04234e-06 9.21429e-05 -0.0934178)
(-9.03409e-06 9.13349e-05 -0.0935639)
(-1.03611e-05 8.89421e-05 -0.0940342)
(-4.58154e-06 8.8074e-05 -0.0942376)
(1.07395e-05 0.000103071 -0.101725)
(1.24492e-05 0.00010535 -0.101462)
(5.00917e-06 0.000107774 -0.101148)
(-1.25571e-05 0.000107458 -0.101206)
(-1.91831e-05 0.000103727 -0.101766)
(-9.33397e-06 0.000100226 -0.102196)
(6.84593e-06 9.99356e-05 -0.102144)
(1.91049e-05 0.000103494 -0.101583)
(9.51095e-06 0.000107008 -0.100996)
(-9.43123e-06 0.000106069 -0.101146)
(-1.07532e-05 0.000103298 -0.101633)
(-4.71558e-06 0.0001023 -0.101845)
(1.1468e-05 0.000118404 -0.109245)
(1.33117e-05 0.000121011 -0.108972)
(5.52928e-06 0.000123791 -0.108648)
(-1.29366e-05 0.000123427 -0.108709)
(-2.00152e-05 0.000119142 -0.109286)
(-9.96165e-06 0.000115119 -0.10973)
(6.80897e-06 0.000114764 -0.109679)
(1.97815e-05 0.000118839 -0.109102)
(9.93276e-06 0.000122892 -0.108495)
(-9.79132e-06 0.000121814 -0.108647)
(-1.10848e-05 0.00011864 -0.10915)
(-4.8131e-06 0.000117505 -0.109368)
(1.22148e-05 0.000134689 -0.116672)
(1.41877e-05 0.000137641 -0.11639)
(6.08066e-06 0.000140802 -0.116056)
(-1.32436e-05 0.000140389 -0.11612)
(-2.07822e-05 0.000135514 -0.116713)
(-1.05982e-05 0.000130933 -0.117168)
(6.68785e-06 0.000130504 -0.117118)
(2.03511e-05 0.000135123 -0.116527)
(1.03071e-05 0.000139754 -0.115904)
(-1.0114e-05 0.000138528 -0.116058)
(-1.13537e-05 0.000134929 -0.116573)
(-4.87296e-06 0.000133651 -0.116798)
(1.29852e-05 0.000151887 -0.123997)
(1.50801e-05 0.000155204 -0.123707)
(6.66385e-06 0.000158769 -0.123364)
(-1.34787e-05 0.000158304 -0.123431)
(-2.14859e-05 0.000152805 -0.124037)
(-1.12456e-05 0.000147634 -0.124502)
(6.48203e-06 0.000147117 -0.124453)
(2.08139e-05 0.000152307 -0.123851)
(1.06338e-05 0.000157554 -0.123213)
(-1.03979e-05 0.000156172 -0.123368)
(-1.15571e-05 0.000152125 -0.123895)
(-4.89358e-06 0.0001507 -0.124125)
(1.37847e-05 0.000169958 -0.131212)
(1.59914e-05 0.000173657 -0.130914)
(7.27928e-06 0.00017765 -0.130563)
(-1.36424e-05 0.000177132 -0.130634)
(-2.2128e-05 0.000170977 -0.131251)
(-1.19057e-05 0.000165181 -0.131725)
(6.19113e-06 0.000164563 -0.131677)
(2.11697e-05 0.000170348 -0.131066)
(1.0913e-05 0.000176246 -0.130415)
(-1.06404e-05 0.000174703 -0.130571)
(-1.16907e-05 0.000170189 -0.131107)
(-4.87292e-06 0.000168613 -0.131341)
(1.46189e-05 0.00018886 -0.13831)
(1.69243e-05 0.000192959 -0.138007)
(7.92727e-06 0.000197404 -0.137649)
(-1.3735e-05 0.000196832 -0.137721)
(-2.27095e-05 0.000189988 -0.138349)
(-1.258e-05 0.000183536 -0.138829)
(5.81487e-06 0.000182801 -0.138783)
(2.14185e-05 0.000189201 -0.138165)
(1.11452e-05 0.000195785 -0.137502)
(-1.08382e-05 0.000194074 -0.137658)
(-1.17494e-05 0.000189076 -0.138203)
(-4.80837e-06 0.000187346 -0.138442)
(1.54934e-05 0.000208552 -0.145287)
(1.78813e-05 0.000213067 -0.144978)
(8.6081e-06 0.000217987 -0.144613)
(-1.37562e-05 0.00021736 -0.144687)
(-2.32311e-05 0.000209799 -0.145323)
(-1.32694e-05 0.000202658 -0.14581)
(5.35299e-06 0.000201789 -0.145767)
(2.15599e-05 0.000208821 -0.145142)
(1.13313e-05 0.000216124 -0.144469)
(-1.09865e-05 0.00021424 -0.144625)
(-1.17271e-05 0.000208745 -0.145178)
(-4.69672e-06 0.000206859 -0.145419)
(1.64143e-05 0.000228989 -0.152136)
(1.88649e-05 0.000233936 -0.151822)
(9.32199e-06 0.000239354 -0.151452)
(-1.37057e-05 0.000238672 -0.151527)
(-2.36929e-05 0.000230368 -0.15217)
(-1.39747e-05 0.000222508 -0.152662)
(4.80531e-06 0.000221484 -0.152621)
(2.1593e-05 0.000229163 -0.151991)
(1.14721e-05 0.000237214 -0.151309)
(-1.10799e-05 0.000235155 -0.151466)
(-1.16166e-05 0.00022915 -0.152025)
(-4.53412e-06 0.000227109 -0.152269)
(1.73877e-05 0.000250127 -0.158851)
(1.98778e-05 0.000255522 -0.158534)
(1.00691e-05 0.000261461 -0.158158)
(-1.35827e-05 0.000260723 -0.158234)
(-2.40945e-05 0.000251651 -0.158883)
(-1.4696e-05 0.000243042 -0.159379)
(4.17178e-06 0.000241842 -0.159341)
(2.15168e-05 0.000250178 -0.158707)
(1.15687e-05 0.000259007 -0.158018)
(-1.11117e-05 0.000256768 -0.158174)
(-1.141e-05 0.000250245 -0.158738)
(-4.31597e-06 0.00024805 -0.158984)
(1.84199e-05 0.000271918 -0.165426)
(2.09225e-05 0.000277777 -0.165106)
(1.08497e-05 0.000284258 -0.164726)
(-1.33861e-05 0.000283466 -0.164803)
(-2.44353e-05 0.000273602 -0.165455)
(-1.54332e-05 0.000264215 -0.165955)
(3.45258e-06 0.000262814 -0.165919)
(2.13298e-05 0.000271816 -0.165284)
(1.16223e-05 0.000281448 -0.164588)
(-1.10746e-05 0.000279028 -0.164744)
(-1.10982e-05 0.000271982 -0.165312)
(-4.03696e-06 0.000269635 -0.165559)
(1.95173e-05 0.000294311 -0.171853)
(2.20018e-05 0.000300647 -0.171532)
(1.16637e-05 0.000307693 -0.171148)
(-1.31144e-05 0.000306848 -0.171225)
(-2.4714e-05 0.000296172 -0.17188)
(-1.61851e-05 0.000285978 -0.172381)
(2.64838e-06 0.000284349 -0.172349)
(2.10302e-05 0.000294022 -0.171713)
(1.16343e-05 0.000304483 -0.171012)
(-1.09603e-05 0.000301878 -0.171168)
(-1.06721e-05 0.000294306 -0.171739)
(-3.69106e-06 0.000291812 -0.171987)
(2.06865e-05 0.000317249 -0.178125)
(2.31183e-05 0.000324077 -0.177804)
(1.25113e-05 0.00033171 -0.177417)
(-1.2766e-05 0.000330813 -0.177492)
(-2.49288e-05 0.000319306 -0.178148)
(-1.69502e-05 0.000308274 -0.17865)
(1.76055e-06 0.000306389 -0.178622)
(2.06163e-05 0.000316736 -0.177987)
(1.16062e-05 0.000328048 -0.177282)
(-1.07601e-05 0.000325258 -0.177437)
(-1.01217e-05 0.00031716 -0.17801)
(-3.27158e-06 0.000314525 -0.178257)
(2.19338e-05 0.000340668 -0.184231)
(2.42746e-05 0.000348002 -0.183911)
(1.33925e-05 0.000356245 -0.183522)
(-1.23389e-05 0.000355299 -0.183596)
(-2.50777e-05 0.000342941 -0.184251)
(-1.77256e-05 0.000331043 -0.184753)
(7.9147e-07 0.000328871 -0.184728)
(2.00866e-05 0.000339893 -0.184096)
(1.15398e-05 0.000352077 -0.183389)
(-1.04648e-05 0.000349101 -0.183543)
(-9.43737e-06 0.000340479 -0.184116)
(-2.7712e-06 0.000337709 -0.184363)
(2.32654e-05 0.000364498 -0.190162)
(2.54734e-05 0.000372354 -0.189845)
(1.43074e-05 0.000381228 -0.189454)
(-1.1831e-05 0.000380236 -0.189527)
(-2.5158e-05 0.000367011 -0.190178)
(-1.85076e-05 0.000354215 -0.190678)
(-2.55132e-07 0.000351722 -0.190657)
(1.94406e-05 0.000363418 -0.19003)
(1.14374e-05 0.000376496 -0.189323)
(-1.00652e-05 0.000373331 -0.189476)
(-8.6096e-06 0.00036419 -0.190047)
(-2.18214e-06 0.000361295 -0.190292)
(2.46874e-05 0.000388661 -0.195907)
(2.67177e-05 0.000397051 -0.195594)
(1.52563e-05 0.000406581 -0.195203)
(-1.12399e-05 0.000405546 -0.195273)
(-2.51667e-05 0.000391437 -0.19592)
(-1.9291e-05 0.000377711 -0.196416)
(-1.3739e-06 0.000374861 -0.196399)
(1.86784e-05 0.00038723 -0.195779)
(1.13019e-05 0.00040122 -0.195073)
(-9.55207e-06 0.000397866 -0.195225)
(-7.62951e-06 0.000388212 -0.195792)
(-1.4962e-06 0.000385203 -0.196036)
(2.62059e-05 0.000413064 -0.201457)
(2.80107e-05 0.000422005 -0.201149)
(1.62398e-05 0.000432214 -0.200759)
(-1.05632e-05 0.00043114 -0.200827)
(-2.51004e-05 0.00041613 -0.201466)
(-2.00695e-05 0.000401441 -0.201957)
(-2.55756e-06 0.000398198 -0.201944)
(1.78022e-05 0.000411233 -0.201333)
(1.11368e-05 0.000426154 -0.200631)
(-8.9166e-06 0.000422609 -0.20078)
(-6.48909e-06 0.000412453 -0.201343)
(-7.04888e-07 0.000409341 -0.201583)
(2.7827e-05 0.000437607 -0.206803)
(2.93563e-05 0.000447113 -0.206501)
(1.7259e-05 0.000458024 -0.206114)
(-9.79828e-06 0.000456918 -0.206178)
(-2.49554e-05 0.000440989 -0.206808)
(-2.08354e-05 0.000425302 -0.207292)
(-3.79675e-06 0.000421626 -0.207283)
(1.68157e-05 0.000435324 -0.206683)
(1.0947e-05 0.000451192 -0.205988)
(-8.15021e-06 0.000447454 -0.206135)
(-5.18132e-06 0.000436808 -0.20669)
(2.0059e-07 0.000433608 -0.206926)
(2.95575e-05 0.000462173 -0.211937)
(3.0759e-05 0.000472261 -0.211643)
(1.83154e-05 0.000483899 -0.21126)
(-8.94258e-06 0.000482764 -0.211321)
(-2.47277e-05 0.000465901 -0.211939)
(-2.15799e-05 0.000449179 -0.212414)
(-5.07995e-06 0.00044503 -0.212409)
(1.57251e-05 0.000459383 -0.211823)
(1.07383e-05 0.000476214 -0.211137)
(-7.24481e-06 0.000472282 -0.21128)
(-3.70035e-06 0.00046116 -0.211826)
(1.22935e-06 0.000457887 -0.212057)
(3.14032e-05 0.000486615 -0.216854)
(3.22231e-05 0.000497302 -0.216569)
(1.94105e-05 0.000509692 -0.216192)
(-7.99393e-06 0.000508535 -0.216249)
(-2.44136e-05 0.000490719 -0.216853)
(-2.22924e-05 0.000472921 -0.217316)
(-6.39292e-06 0.000468258 -0.217315)
(1.45389e-05 0.000483259 -0.216745)
(1.05175e-05 0.000501067 -0.216072)
(-6.19345e-06 0.00049694 -0.216211)
(-2.04211e-06 0.000485359 -0.216745)
(2.39056e-06 0.00048203 -0.21697)
(3.33689e-05 0.000510756 -0.221546)
(3.37523e-05 0.000522057 -0.221272)
(2.05456e-05 0.000535226 -0.220902)
(-6.95085e-06 0.000534054 -0.220955)
(-2.40087e-05 0.000515267 -0.221541)
(-2.29607e-05 0.000496354 -0.221991)
(-7.71851e-06 0.000491132 -0.221994)
(1.32685e-05 0.000506769 -0.221443)
(1.02928e-05 0.000525568 -0.220785)
(-4.99094e-06 0.000521245 -0.220919)
(-2.04999e-07 0.000509224 -0.221439)
(3.69289e-06 0.000505858 -0.221657)
(3.54577e-05 0.000534412 -0.226006)
(3.5349e-05 0.000546345 -0.225744)
(2.17211e-05 0.000560318 -0.225384)
(-5.81248e-06 0.000559139 -0.225432)
(-2.35084e-05 0.000539364 -0.225998)
(-2.35702e-05 0.000519296 -0.226431)
(-9.03644e-06 0.000513471 -0.226438)
(1.19287e-05 0.000529729 -0.225909)
(1.00735e-05 0.000549526 -0.225269)
(-3.63371e-06 0.000545007 -0.225399)
(1.80996e-06 0.000532571 -0.225902)
(5.14427e-06 0.00052919 -0.226112)
(3.76711e-05 0.000557393 -0.230226)
(3.70148e-05 0.000569974 -0.229978)
(2.29366e-05 0.000584775 -0.229629)
(-4.57878e-06 0.000583596 -0.229673)
(-2.29077e-05 0.000562819 -0.230215)
(-2.41041e-05 0.000541556 -0.230631)
(-1.0323e-05 0.000535082 -0.230641)
(1.05381e-05 0.000551943 -0.230136)
(9.87054e-06 0.00057274 -0.229518)
(-2.12001e-06 0.000568026 -0.229642)
(3.99872e-06 0.000555204 -0.230125)
(6.75141e-06 0.000551832 -0.230326)
(4.00081e-05 0.000579494 -0.234201)
(3.87493e-05 0.00059274 -0.233968)
(2.4191e-05 0.000608392 -0.233632)
(-3.25075e-06 0.000607221 -0.233671)
(-2.22012e-05 0.000585429 -0.234187)
(-2.45434e-05 0.00056293 -0.234582)
(-1.15509e-05 0.000555761 -0.234596)
(9.11962e-06 0.000573203 -0.234118)
(9.69653e-06 0.000594999 -0.233524)
(-4.50318e-07 0.000590092 -0.233642)
(6.35379e-06 0.000576916 -0.234103)
(8.51941e-06 0.00057358 -0.234294)
(4.24649e-05 0.000600505 -0.237925)
(4.055e-05 0.000614434 -0.237707)
(2.54817e-05 0.000630957 -0.237387)
(-1.83066e-06 0.000629803 -0.237421)
(-2.13834e-05 0.000606985 -0.237908)
(-2.48672e-05 0.00058321 -0.23828)
(-1.26892e-05 0.000575302 -0.238297)
(7.7006e-06 0.000593297 -0.237847)
(9.5658e-06 0.000616084 -0.237282)
(1.37234e-06 0.000610988 -0.237393)
(8.86388e-06 0.000597494 -0.23783)
(1.04512e-05 0.000594225 -0.23801)
(4.5034e-05 0.000620221 -0.241392)
(4.24117e-05 0.000634847 -0.241191)
(2.68045e-05 0.000652259 -0.240889)
(-3.22336e-07 0.00065113 -0.240918)
(-2.04488e-05 0.000627278 -0.241373)
(-2.5052e-05 0.000602193 -0.24172)
(-1.37032e-05 0.000593501 -0.24174)
(6.31327e-06 0.000612015 -0.241321)
(9.4944e-06 0.000635777 -0.240787)
(3.34212e-06 0.000630496 -0.240889)
(1.15137e-05 0.000616728 -0.241301)
(1.25471e-05 0.000613557 -0.241469)
(4.77037e-05 0.000638443 -0.2446)
(4.43259e-05 0.000653782 -0.244416)
(2.81531e-05 0.000672096 -0.244133)
(1.26863e-06 0.000671 -0.244157)
(-1.93917e-05 0.000646111 -0.244578)
(-2.5073e-05 0.000619682 -0.244899)
(-1.45552e-05 0.000610165 -0.24492)
(4.9945e-06 0.000629158 -0.244534)
(9.49994e-06 0.00065387 -0.244034)
(5.45013e-06 0.000648412 -0.244128)
(1.42837e-05 0.000634417 -0.244511)
(1.48039e-05 0.000631378 -0.244668)
(5.04576e-05 0.00065499 -0.247545)
(4.62805e-05 0.000671055 -0.247379)
(2.95193e-05 0.000690278 -0.247117)
(2.9346e-06 0.000689222 -0.247136)
(-1.82068e-05 0.0006633 -0.247522)
(-2.49035e-05 0.000635496 -0.247815)
(-1.52048e-05 0.000625111 -0.247837)
(3.78538e-06 0.000644543 -0.247485)
(9.60131e-06 0.000670168 -0.247021)
(7.68431e-06 0.000664541 -0.247106)
(1.715e-05 0.000650372 -0.24746)
(1.72147e-05 0.000647503 -0.247604)
(5.32745e-05 0.000669672 -0.250229)
(4.82592e-05 0.000686485 -0.250081)
(3.08926e-05 0.000706623 -0.24984)
(4.66578e-06 0.00070561 -0.249855)
(-1.68891e-05 0.000678652 -0.250204)
(-2.45162e-05 0.00064944 -0.250468)
(-1.56099e-05 0.000638155 -0.250491)
(2.73096e-06 0.000657982 -0.250173)
(9.81815e-06 0.000684487 -0.249747)
(1.00292e-05 0.000678702 -0.249823)
(2.00847e-05 0.000664409 -0.250147)
(1.97678e-05 0.000661745 -0.250278)
(5.61274e-05 0.000682345 -0.252652)
(5.02423e-05 0.000699908 -0.252523)
(3.22604e-05 0.000720959 -0.252305)
(6.45009e-06 0.000719996 -0.252316)
(-1.54355e-05 0.000692013 -0.252626)
(-2.38841e-05 0.000661381 -0.252861)
(-1.57281e-05 0.000649163 -0.252884)
(1.879e-06 0.000669321 -0.252601)
(1.01712e-05 0.000696649 -0.252213)
(1.24661e-05 0.000690719 -0.252281)
(2.30562e-05 0.000676363 -0.252573)
(2.2446e-05 0.000673947 -0.252691)
(5.89845e-05 0.000692916 -0.25482)
(5.22064e-05 0.000711245 -0.254708)
(3.36083e-05 0.000733188 -0.254515)
(8.27262e-06 0.000732272 -0.254521)
(-1.3844e-05 0.000703288 -0.254793)
(-2.29822e-05 0.000671225 -0.254998)
(-1.55173e-05 0.00065805 -0.255021)
(1.27885e-06 0.000678483 -0.254772)
(1.06814e-05 0.000706562 -0.254423)
(1.49731e-05 0.000700502 -0.254482)
(2.60286e-05 0.00068615 -0.254744)
(2.52265e-05 0.000684023 -0.254848)
(6.18079e-05 0.000701305 -0.25674)
(5.41244e-05 0.000720412 -0.256645)
(3.49205e-05 0.000743228 -0.256475)
(1.01166e-05 0.000742354 -0.256478)
(-1.21152e-05 0.000712388 -0.256712)
(-2.17878e-05 0.000678884 -0.256888)
(-1.49384e-05 0.000664736 -0.256909)
(9.79506e-07 0.000685387 -0.256694)
(1.13681e-05 0.000714148 -0.256384)
(1.75259e-05 0.000707975 -0.256434)
(2.89639e-05 0.000693686 -0.256665)
(2.80801e-05 0.000691886 -0.256757)
(6.45546e-05 0.000707453 -0.25842)
(5.59662e-05 0.000727349 -0.258342)
(3.618e-05 0.00075101 -0.258196)
(1.1964e-05 0.000750169 -0.258196)
(-1.02506e-05 0.000719243 -0.258393)
(-2.02816e-05 0.000684297 -0.258539)
(-1.3958e-05 0.000669169 -0.258559)
(1.0261e-06 0.000689979 -0.258375)
(1.22485e-05 0.000719346 -0.258104)
(2.00985e-05 0.000713075 -0.258146)
(3.18222e-05 0.000698908 -0.258348)
(3.09712e-05 0.000697472 -0.258427)
(6.71761e-05 0.000711338 -0.259873)
(5.76981e-05 0.000732034 -0.259811)
(3.73689e-05 0.000756503 -0.259688)
(1.37955e-05 0.000755681 -0.259684)
(-8.25358e-06 0.000723821 -0.259846)
(-1.84492e-05 0.000687437 -0.259965)
(-1.25507e-05 0.000671331 -0.259982)
(1.4568e-06 0.000692246 -0.259829)
(1.33358e-05 0.000722135 -0.259595)
(2.26636e-05 0.000715785 -0.259628)
(3.45631e-05 0.000701794 -0.259802)
(3.38579e-05 0.000700756 -0.25987)
(6.96191e-05 0.000712966 -0.261111)
(5.92843e-05 0.000734472 -0.261064)
(3.8469e-05 0.000759704 -0.260963)
(1.55916e-05 0.000758881 -0.260957)
(-6.12937e-06 0.000726113 -0.261085)
(-1.62823e-05 0.000688302 -0.261178)
(-1.07024e-05 0.000671233 -0.261192)
(2.299e-06 0.000692204 -0.261067)
(1.46377e-05 0.000722531 -0.260868)
(2.5193e-05 0.000716118 -0.260894)
(3.71468e-05 0.000702351 -0.261041)
(3.66917e-05 0.00070174 -0.261098)
(7.18281e-05 0.000712367 -0.26215)
(6.06873e-05 0.000734691 -0.262116)
(3.9462e-05 0.000760637 -0.262037)
(1.73328e-05 0.000759788 -0.262029)
(-3.88494e-06 0.000726136 -0.262126)
(-1.37814e-05 0.000686918 -0.262193)
(-8.4138e-06 0.000668909 -0.262205)
(3.5642e-06 0.000689894 -0.262106)
(1.61522e-05 0.000720573 -0.26194)
(2.76575e-05 0.000714113 -0.261959)
(3.95362e-05 0.000700611 -0.262081)
(3.94198e-05 0.000700453 -0.262128)
(7.37509e-05 0.000709618 -0.263007)
(6.18705e-05 0.000732764 -0.262985)
(4.03295e-05 0.000759364 -0.262925)
(1.89994e-05 0.000758459 -0.262915)
(-1.52977e-06 0.000723954 -0.262984)
(-1.09578e-05 0.00068336 -0.263029)
(-5.70485e-06 0.000664448 -0.263037)
(5.24332e-06 0.000685402 -0.262961)
(1.78664e-05 0.000716345 -0.262826)
(3.00288e-05 0.000709854 -0.262839)
(4.16996e-05 0.000696655 -0.262938)
(4.19896e-05 0.000696973 -0.262976)
(7.53463e-05 0.000704868 -0.2637)
(6.28078e-05 0.000728835 -0.263689)
(4.10537e-05 0.00075602 -0.263646)
(2.05701e-05 0.000755025 -0.263635)
(9.17743e-07 0.000719701 -0.263679)
(-7.84325e-06 0.000677771 -0.263704)
(-2.61673e-06 0.000658005 -0.263709)
(7.30556e-06 0.000678896 -0.263652)
(1.97606e-05 0.000710012 -0.263544)
(3.22882e-05 0.000703507 -0.263551)
(4.36186e-05 0.000690639 -0.263631)
(4.43581e-05 0.000691449 -0.263662)
(7.65834e-05 0.000698269 -0.264251)
(6.34824e-05 0.00072306 -0.264249)
(4.16278e-05 0.000750757 -0.264221)
(2.20362e-05 0.00074963 -0.26421)
(3.43853e-06 0.000713516 -0.264232)
(-4.47709e-06 0.000670298 -0.26424)
(8.03175e-07 0.000649741 -0.264242)
(9.71908e-06 0.000670547 -0.264202)
(2.18149e-05 0.000701755 -0.264117)
(3.44236e-05 0.000695248 -0.26412)
(4.52866e-05 0.000682727 -0.264183)
(4.64885e-05 0.000684037 -0.264206)
(7.74395e-05 0.000689994 -0.264682)
(6.3883e-05 0.00071561 -0.264687)
(4.20498e-05 0.000743747 -0.264673)
(2.33953e-05 0.000742438 -0.26466)
(6.01748e-06 0.000705558 -0.264665)
(-8.97779e-07 0.000661107 -0.264659)
(4.50363e-06 0.000639828 -0.264658)
(1.2447e-05 0.000660539 -0.264631)
(2.40077e-05 0.000691766 -0.264566)
(3.6426e-05 0.000685269 -0.264565)
(4.67033e-05 0.000673101 -0.264614)
(4.83522e-05 0.000674913 -0.264631)
(7.78995e-05 0.000680205 -0.265011)
(6.4004e-05 0.000706648 -0.265023)
(4.23165e-05 0.000735148 -0.265019)
(2.46426e-05 0.000733605 -0.265006)
(8.6368e-06 0.000695979 -0.264996)
(2.84828e-06 0.000650353 -0.264979)
(8.42106e-06 0.000628433 -0.264975)
(1.54343e-05 0.000649053 -0.26496)
(2.63095e-05 0.000680236 -0.264911)
(3.82901e-05 0.000673758 -0.264907)
(4.78735e-05 0.000661937 -0.264944)
(4.99302e-05 0.000664245 -0.264956)
(7.79569e-05 0.000669051 -0.265257)
(6.38445e-05 0.00069632 -0.265274)
(4.24292e-05 0.000725112 -0.265278)
(2.578e-05 0.000723279 -0.265265)
(1.12774e-05 0.000684919 -0.265244)
(6.71014e-06 0.000638182 -0.265217)
(1.24874e-05 0.000615709 -0.265212)
(1.86196e-05 0.000636253 -0.265205)
(2.86848e-05 0.000667345 -0.265169)
(4.00108e-05 0.000660892 -0.265162)
(4.88061e-05 0.000649401 -0.26519)
(5.12096e-05 0.000652189 -0.265198)
(7.76149e-05 0.000656672 -0.265434)
(6.34101e-05 0.000684766 -0.265455)
(4.23919e-05 0.000713779 -0.265466)
(2.6812e-05 0.000711597 -0.265453)
(1.392e-05 0.000672511 -0.265423)
(1.06363e-05 0.00062473 -0.265389)
(1.66352e-05 0.000601798 -0.265382)
(2.19397e-05 0.000622291 -0.265382)
(3.10976e-05 0.000653256 -0.265357)
(4.1586e-05 0.000646833 -0.265348)
(4.95134e-05 0.000635647 -0.265367)
(5.21873e-05 0.000638892 -0.265373)
(7.68858e-05 0.000643195 -0.265556)
(6.27113e-05 0.000672112 -0.265581)
(4.22103e-05 0.000701279 -0.265596)
(2.77457e-05 0.000698687 -0.265583)
(1.65457e-05 0.000658879 -0.265546)
(1.45765e-05 0.000610126 -0.265507)
(2.08012e-05 0.00058683 -0.265499)
(2.53338e-05 0.000607307 -0.265505)
(3.3513e-05 0.000638122 -0.265488)
(4.30158e-05 0.000631733 -0.265478)
(5.00101e-05 0.000620816 -0.265491)
(5.28682e-05 0.000624492 -0.265494)
(7.5789e-05 0.000628734 -0.265635)
(6.1763e-05 0.000658467 -0.265662)
(4.18923e-05 0.000687725 -0.265681)
(2.8589e-05 0.000684663 -0.265668)
(1.91357e-05 0.000644134 -0.265627)
(1.8484e-05 0.000594483 -0.265584)
(2.49294e-05 0.00057092 -0.265576)
(2.87469e-05 0.000591423 -0.265585)
(3.58994e-05 0.000622077 -0.265575)
(4.4302e-05 0.000615723 -0.265564)
(5.03118e-05 0.000605038 -0.265571)
(5.3264e-05 0.00060911 -0.265572)
(7.43494e-05 0.000613381 -0.265681)
(6.05828e-05 0.000643922 -0.265709)
(4.1447e-05 0.000673211 -0.265731)
(2.93498e-05 0.000669619 -0.265717)
(2.16715e-05 0.00062837 -0.265673)
(2.2317e-05 0.000577896 -0.265629)
(2.89728e-05 0.000554164 -0.26562)
(3.21324e-05 0.000574741 -0.265632)
(3.82292e-05 0.000605235 -0.265627)
(4.54467e-05 0.000598917 -0.265615)
(5.04327e-05 0.00058842 -0.265618)
(5.339e-05 0.000592848 -0.265617)
(7.25947e-05 0.000597215 -0.2657)
(5.91904e-05 0.000628553 -0.26573)
(4.08842e-05 0.000657817 -0.265753)
(3.00341e-05 0.000653636 -0.26574)
(2.41346e-05 0.000611666 -0.265694)
(2.60381e-05 0.000560447 -0.265648)
(3.28932e-05 0.000536641 -0.265639)
(3.54523e-05 0.000557346 -0.265653)
(4.04796e-05 0.000587692 -0.265653)
(4.64523e-05 0.000581411 -0.265641)
(5.03846e-05 0.000571055 -0.26564)
(5.32635e-05 0.000575795 -0.265637)
(7.05543e-05 0.000580296 -0.2657)
(5.76057e-05 0.000612417 -0.26573)
(4.02136e-05 0.000641603 -0.265754)
(3.06455e-05 0.000636778 -0.265742)
(2.65057e-05 0.000594088 -0.265695)
(2.96145e-05 0.000542201 -0.265649)
(3.66603e-05 0.000518414 -0.26564)
(3.86768e-05 0.000539306 -0.265656)
(4.26326e-05 0.000569523 -0.265658)
(4.73199e-05 0.000563281 -0.265646)
(5.01766e-05 0.000553016 -0.265642)
(5.2901e-05 0.00055802 -0.265638)
(6.82571e-05 0.000562672 -0.265685)
(5.58485e-05 0.000595557 -0.265716)
(3.94441e-05 0.000624615 -0.26574)
(3.11846e-05 0.000619095 -0.265728)
(2.87652e-05 0.000575688 -0.265681)
(3.30168e-05 0.000523209 -0.265635)
(4.02494e-05 0.000499531 -0.265627)
(4.17822e-05 0.000520672 -0.265644)
(4.46735e-05 0.000550789 -0.265648)
(4.80498e-05 0.000544588 -0.265636)
(4.98143e-05 0.000534363 -0.26563)
(5.23172e-05 0.000539579 -0.265626)
(6.57312e-05 0.000544376 -0.26566)
(5.39372e-05 0.000578004 -0.26569)
(3.85837e-05 0.000606888 -0.265715)
(3.16489e-05 0.000600624 -0.265703)
(3.08924e-05 0.000556507 -0.265656)
(3.62177e-05 0.000503513 -0.265612)
(4.36392e-05 0.000480029 -0.265604)
(4.47495e-05 0.000501484 -0.265622)
(4.65905e-05 0.000531537 -0.265628)
(4.86407e-05 0.00052538 -0.265615)
(4.93002e-05 0.000515142 -0.265608)
(5.15246e-05 0.000520513 -0.265602)
(6.30031e-05 0.000525433 -0.265627)
(5.18893e-05 0.000559779 -0.265656)
(3.7639e-05 0.000588445 -0.265681)
(3.20336e-05 0.000581396 -0.265669)
(3.28659e-05 0.000536577 -0.265624)
(3.91907e-05 0.00048314 -0.26558)
(4.68098e-05 0.000459933 -0.265574)
(4.75612e-05 0.000481768 -0.265592)
(4.83729e-05 0.000511803 -0.265599)
(4.90898e-05 0.000505692 -0.265587)
(4.86344e-05 0.00049539 -0.265578)
(5.05325e-05 0.000500854 -0.265572)
(6.00981e-05 0.00050586 -0.265588)
(4.97207e-05 0.000540895 -0.265617)
(3.66159e-05 0.000569302 -0.265641)
(3.23317e-05 0.000561431 -0.26563)
(3.46634e-05 0.000515922 -0.265586)
(4.19099e-05 0.000462114 -0.265544)
(4.97406e-05 0.000439258 -0.265538)
(5.02005e-05 0.000461544 -0.265557)
(5.00107e-05 0.000491612 -0.265565)
(4.93935e-05 0.000485554 -0.265553)
(4.78157e-05 0.000475133 -0.265543)
(4.93483e-05 0.000480626 -0.265536)
(5.70408e-05 0.000485667 -0.265546)
(4.74469e-05 0.000521361 -0.265574)
(3.55195e-05 0.000549471 -0.265597)
(3.25352e-05 0.000540747 -0.265587)
(3.62625e-05 0.000494564 -0.265544)
(4.43487e-05 0.00044045 -0.265504)
(5.24097e-05 0.000418017 -0.265499)
(5.26492e-05 0.000440826 -0.265519)
(5.14935e-05 0.000470983 -0.265528)
(4.95469e-05 0.000464986 -0.265516)
(4.68415e-05 0.000454392 -0.265505)
(4.79779e-05 0.000459847 -0.265497)
(5.38554e-05 0.000464864 -0.265502)
(4.50823e-05 0.000501181 -0.265528)
(3.43548e-05 0.000528958 -0.265551)
(3.26352e-05 0.000519359 -0.265541)
(3.76403e-05 0.000472521 -0.265501)
(4.64797e-05 0.000418162 -0.265463)
(5.47923e-05 0.000396215 -0.265459)
(5.48868e-05 0.000419622 -0.265478)
(5.28093e-05 0.000449933 -0.265488)
(4.95448e-05 0.000444007 -0.265477)
(4.57095e-05 0.000433186 -0.265464)
(4.64257e-05 0.000438528 -0.265456)
(5.05663e-05 0.000443457 -0.265457)
(4.26418e-05 0.000480358 -0.265482)
(3.31269e-05 0.000507772 -0.265504)
(3.26233e-05 0.000497282 -0.265495)
(3.87747e-05 0.000449811 -0.265457)
(4.82749e-05 0.000395261 -0.265421)
(5.68612e-05 0.000373856 -0.265418)
(5.68899e-05 0.000397936 -0.265438)
(5.39451e-05 0.000428473 -0.265448)
(4.93818e-05 0.000422631 -0.265437)
(4.44181e-05 0.000411528 -0.265424)
(4.46966e-05 0.000416682 -0.265415)