/*--------------------------------*- C++ -*----------------------------------*\
| =========                 |                                                 |
| \\      /  F ield         | OpenFOAM: The Open Source CFD Toolbox           |
|  \\    /   O peration     | Version:  v1912                                 |
|   \\  /    A nd           | Website:  www.openfoam.com                      |
|    \\/     M anipulation  |                                                 |
\*---------------------------------------------------------------------------*/
FoamFile
{
    version     2.0;
    format      ascii;
    class       volSymmTensorField;
    location    "8.4";
    object      UPrime2Mean;
}
// * * * * * * * * * * * * * * * * * * * * * * * * * * * * * * * * * * * * * //

dimensions      [0 2 -2 0 0 0 0];


internalField   nonuniform List<symmTensor> 
34128
(
(2.31604e-11 -4.82471e-14 -4.21048e-11 1.13445e-12 -2.88313e-09 1.07727e-05)
(3.02928e-11 -4.84948e-14 1.23513e-10 1.13435e-12 -2.88475e-09 1.07778e-05)
(2.55929e-11 -5.03896e-15 2.70656e-10 1.13404e-12 -2.8843e-09 1.07958e-05)
(2.15741e-11 4.00431e-14 -8.23586e-11 1.1343e-12 -2.88357e-09 1.07975e-05)
(2.49633e-11 5.36897e-14 -1.93711e-10 1.13452e-12 -2.88391e-09 1.07649e-05)
(2.30943e-11 2.58967e-14 2.02376e-10 1.13501e-12 -2.88491e-09 1.07396e-05)
(2.98121e-11 -3.13763e-14 7.41803e-10 1.13477e-12 -2.88468e-09 1.07445e-05)
(3.70718e-11 -4.97272e-14 1.09296e-09 1.13463e-12 -2.88395e-09 1.07795e-05)
(2.80497e-11 -1.11538e-14 7.55354e-10 1.13419e-12 -2.88286e-09 1.08146e-05)
(2.12912e-11 1.89227e-14 1.87351e-10 1.13449e-12 -2.88277e-09 1.08064e-05)
(2.42906e-11 1.47643e-14 -4.8769e-11 1.13481e-12 -2.88202e-09 1.07811e-05)
(2.31344e-11 -1.72639e-14 -1.9205e-10 1.13603e-12 -2.88371e-09 1.07688e-05)
(2.03258e-10 -1.46174e-12 -2.39936e-11 5.59662e-12 -1.14664e-08 4.26726e-05)
(2.6451e-10 -1.30628e-12 1.36564e-09 5.56275e-12 -1.14918e-08 4.27046e-05)
(2.22852e-10 -8.76581e-15 2.68066e-09 5.55486e-12 -1.14556e-08 4.28419e-05)
(1.88851e-10 4.25361e-13 6.98964e-11 5.56814e-12 -1.14306e-08 4.2859e-05)
(2.17611e-10 7.16375e-13 -7.20763e-10 5.5737e-12 -1.14871e-08 4.26108e-05)
(2.01377e-10 7.45514e-13 2.33447e-09 5.57992e-12 -1.15484e-08 4.24193e-05)
(2.62741e-10 2.05825e-13 6.40377e-09 5.5746e-12 -1.15425e-08 4.24591e-05)
(3.25332e-10 6.35885e-13 9.05057e-09 5.57008e-12 -1.14664e-08 4.2727e-05)
(2.45278e-10 1.10915e-12 6.50991e-09 5.5721e-12 -1.13926e-08 4.29967e-05)
(1.8602e-10 8.44587e-13 2.06789e-09 5.58371e-12 -1.13873e-08 4.2937e-05)
(2.11226e-10 5.13214e-13 7.65519e-11 5.60249e-12 -1.1399e-08 4.27472e-05)
(2.01865e-10 -3.64684e-13 -1.30428e-09 5.59172e-12 -1.14179e-08 4.26538e-05)
(5.58474e-10 -5.5094e-12 -3.69492e-10 4.65755e-12 -9.67424e-09 8.26595e-05)
(7.23612e-10 -4.54002e-12 3.10987e-09 4.41975e-12 -9.7678e-09 8.27281e-05)
(6.08717e-10 1.13014e-12 6.51222e-09 4.40954e-12 -9.58896e-09 8.30703e-05)
(5.18347e-10 2.02798e-12 -6.21527e-11 4.50941e-12 -9.47975e-09 8.31166e-05)
(5.94742e-10 3.25643e-12 -2.04604e-09 4.49134e-12 -9.76897e-09 8.24953e-05)
(5.50315e-10 4.34638e-12 5.55944e-09 4.47162e-12 -1.00635e-08 8.20182e-05)
(7.23983e-10 3.23549e-12 1.55581e-08 4.45258e-12 -1.00349e-08 8.21191e-05)
(8.9321e-10 6.17975e-12 2.21496e-08 4.4981e-12 -9.66315e-09 8.27862e-05)
(6.71776e-10 7.49288e-12 1.60121e-08 4.60361e-12 -9.3023e-09 8.34592e-05)
(5.0959e-10 4.85612e-12 4.93487e-09 4.68597e-12 -9.28291e-09 8.33123e-05)
(5.76241e-10 3.00799e-12 -5.30769e-11 4.79702e-12 -9.36913e-09 8.28419e-05)
(5.52302e-10 -8.84868e-13 -3.59647e-09 4.72722e-12 -9.46925e-09 8.26089e-05)
(1.08561e-09 -1.4213e-11 -1.093e-09 9.27183e-12 -6.64287e-09 0.000124119)
(1.40062e-09 -1.13869e-11 5.10093e-09 8.38018e-12 -6.88692e-09 0.000124225)
(1.17725e-09 3.70164e-12 1.13008e-08 8.39337e-12 -6.41572e-09 0.000124833)
(1.00742e-09 5.31991e-12 -5.68252e-10 8.77649e-12 -6.1328e-09 0.00012492)
(1.15028e-09 8.67769e-12 -4.11524e-09 8.63919e-12 -6.91132e-09 0.000123813)
(1.0641e-09 1.21263e-11 9.38651e-09 8.49204e-12 -7.68779e-09 0.000122968)
(1.41084e-09 1.00173e-11 2.68863e-08 8.43446e-12 -7.61241e-09 0.000123149)
(1.73447e-09 1.88085e-11 3.86211e-08 8.69025e-12 -6.63618e-09 0.000124329)
(1.30188e-09 2.18434e-11 2.80934e-08 9.18123e-12 -5.68421e-09 0.000125522)
(9.88367e-10 1.37234e-11 8.43362e-09 9.49464e-12 -5.63192e-09 0.000125265)
(1.11284e-09 8.56915e-12 -4.12381e-10 9.88027e-12 -5.87678e-09 0.000124434)
(1.06958e-09 -1.85744e-12 -6.74552e-09 9.61159e-12 -6.1556e-09 0.000124021)
(1.78151e-09 -2.8379e-11 -2.0485e-09 1.74133e-11 1.07894e-08 0.000163649)
(2.28886e-09 -2.21594e-11 7.29855e-09 1.50698e-11 1.02992e-08 0.000163789)
(1.92349e-09 8.70007e-12 1.67926e-08 1.52313e-11 1.12577e-08 0.000164704)
(1.65415e-09 1.05105e-11 -1.4386e-09 1.62689e-11 1.18204e-08 0.000164839)
(1.87838e-09 1.75328e-11 -6.81868e-09 1.57275e-11 1.02093e-08 0.000163174)
(1.73716e-09 2.55009e-11 1.34752e-08 1.51621e-11 8.63487e-09 0.000161912)
(2.32043e-09 2.26703e-11 3.93716e-08 1.50346e-11 8.79113e-09 0.000162186)
(2.84279e-09 4.25466e-11 5.70864e-08 1.59235e-11 1.07592e-08 0.000163943)
(2.13036e-09 4.79813e-11 4.18623e-08 1.7449e-11 1.26935e-08 0.00016573)
(1.61948e-09 2.92537e-11 1.23148e-08 1.82856e-11 1.27953e-08 0.000165351)
(1.81519e-09 1.82759e-11 -9.49789e-10 1.92227e-11 1.22637e-08 0.00016411)
(1.74924e-09 -3.12092e-12 -1.04063e-08 1.84971e-11 1.16815e-08 0.000163493)
(2.64238e-09 -4.93026e-11 -3.07417e-09 3.75701e-11 3.55467e-08 0.000199358)
(3.38115e-09 -3.77921e-11 9.70801e-09 3.25046e-11 3.46937e-08 0.00019953)
(2.8427e-09 1.64756e-11 2.27792e-08 3.30443e-11 3.63526e-08 0.000200774)
(2.45658e-09 1.77639e-11 -2.7066e-09 3.53327e-11 3.73117e-08 0.000200963)
(2.77267e-09 3.04745e-11 -1.01461e-08 3.38856e-11 3.44855e-08 0.0001987)
(2.56359e-09 4.52212e-11 1.74457e-08 3.23954e-11 3.17756e-08 0.000197)
(3.44883e-09 4.18446e-11 5.20816e-08 3.21441e-11 3.20522e-08 0.000197373)
(4.21085e-09 7.94562e-11 7.63276e-08 3.43689e-11 3.54174e-08 0.000199733)
(3.15175e-09 8.8302e-11 5.65009e-08 3.79945e-11 3.87562e-08 0.000202145)
(2.40019e-09 5.27807e-11 1.62845e-08 3.98158e-11 3.8929e-08 0.000201643)
(2.67752e-09 3.30025e-11 -1.69528e-09 4.17057e-11 3.79683e-08 0.000199968)
(2.58658e-09 -4.69335e-12 -1.43201e-08 4.00972e-11 3.69451e-08 0.000199135)
(3.66335e-09 -7.76797e-11 -4.01191e-09 7.47879e-11 6.94432e-08 0.000230239)
(4.66938e-09 -5.85858e-11 1.23669e-08 6.5182e-11 6.81035e-08 0.000230438)
(3.9299e-09 2.77205e-11 2.91171e-08 6.65093e-11 7.06952e-08 0.000232021)
(3.41215e-09 2.71706e-11 -4.38094e-09 7.09224e-11 7.2172e-08 0.000232266)
(3.82568e-09 4.79651e-11 -1.40956e-08 6.77389e-11 6.77106e-08 0.000229394)
(3.5367e-09 7.19725e-11 2.09686e-08 6.44965e-11 6.35148e-08 0.00022726)
(4.79054e-09 6.85428e-11 6.42547e-08 6.40465e-11 6.39555e-08 0.000227731)
(5.82974e-09 1.32266e-10 9.53668e-08 6.87123e-11 6.91294e-08 0.000230683)
(4.35983e-09 1.45632e-10 7.13383e-08 7.6077e-11 7.43193e-08 0.000233722)
(3.32752e-09 8.56949e-11 2.00856e-08 7.95411e-11 7.45844e-08 0.000233101)
(3.6937e-09 5.36223e-11 -2.6979e-09 8.28874e-11 7.3029e-08 0.00023099)
(3.57617e-09 -6.41135e-12 -1.82928e-08 7.9771e-11 7.14189e-08 0.000229941)
(4.83836e-09 -1.13994e-10 -4.73641e-09 1.36007e-10 1.11698e-07 0.00025585)
(6.14433e-09 -8.46863e-11 1.53129e-08 1.19405e-10 1.09744e-07 0.000256075)
(5.17965e-09 4.3116e-11 3.57158e-08 1.22168e-10 1.13514e-07 0.000257995)
(4.51742e-09 3.8799e-11 -6.42316e-09 1.29912e-10 1.15631e-07 0.000258295)
(5.0287e-09 7.03461e-11 -1.86331e-08 1.23742e-10 1.09093e-07 0.000254828)
(4.64897e-09 1.06081e-10 2.38043e-08 1.17519e-10 1.03064e-07 0.000252279)
(6.33836e-09 1.03365e-10 7.53316e-08 1.16764e-10 1.03714e-07 0.000252845)
(7.68882e-09 2.03284e-10 1.13489e-07 1.25452e-10 1.11091e-07 0.000256353)
(5.74754e-09 2.22461e-10 8.58741e-08 1.38888e-10 1.18585e-07 0.000259993)
(4.39808e-09 1.29203e-10 2.35351e-08 1.44877e-10 1.18963e-07 0.000259266)
(4.8572e-09 8.08533e-11 -3.98962e-09 1.50266e-10 1.1663e-07 0.000256731)
(4.7118e-09 -8.177e-12 -2.21879e-08 1.44777e-10 1.14283e-07 0.000255475)
(6.16042e-09 -1.58429e-10 -5.17239e-09 2.28819e-10 1.6153e-07 0.000276128)
(7.79604e-09 -1.16005e-10 1.85625e-08 2.02047e-10 1.58835e-07 0.000276377)
(6.58612e-09 6.34175e-11 4.25229e-08 2.07207e-10 1.64038e-07 0.000278625)
(5.76814e-09 5.27477e-11 -8.74198e-09 2.1988e-10 1.66918e-07 0.000278977)
(6.37199e-09 9.78161e-11 -2.36691e-08 2.08952e-10 1.57854e-07 0.000274947)
(5.8922e-09 1.47547e-10 2.58238e-08 1.98026e-10 1.49659e-07 0.000272017)
(8.08373e-09 1.46637e-10 8.49638e-08 1.96811e-10 1.50557e-07 0.000272668)
(9.77615e-09 2.94557e-10 1.30239e-07 2.11656e-10 1.60503e-07 0.000276677)
(7.30719e-09 3.21063e-10 9.97829e-08 2.34318e-10 1.70749e-07 0.000280875)
(5.60819e-09 1.84384e-10 2.65433e-08 2.43969e-10 1.71263e-07 0.000280057)
(6.1612e-09 1.15279e-10 -5.55985e-09 2.52034e-10 1.67952e-07 0.000277127)
(5.98668e-09 -9.95524e-12 -2.59135e-08 2.43028e-10 1.6472e-07 0.000275674)
(7.62226e-09 -2.10903e-10 -5.29724e-09 3.61314e-10 2.17989e-07 0.000291245)
(9.61453e-09 -1.52274e-10 2.21017e-08 3.20394e-10 2.14423e-07 0.000291517)
(8.14363e-09 8.94489e-11 4.95104e-08 3.29303e-10 2.21321e-07 0.000294076)
(7.15975e-09 6.92051e-11 -1.12031e-08 3.48962e-10 2.25088e-07 0.000294477)
(7.8454e-09 1.30446e-10 -2.90568e-08 3.30877e-10 2.13049e-07 0.000289926)
(7.25806e-09 1.9604e-10 2.70073e-08 3.12943e-10 2.02375e-07 0.000286657)
(1.00175e-08 1.98382e-10 9.29949e-08 3.11044e-10 2.03556e-07 0.000287382)
(1.20795e-08 4.07809e-10 1.45395e-07 3.34788e-10 2.16395e-07 0.000291828)
(9.03113e-09 4.4348e-10 1.12897e-07 3.70789e-10 2.2983e-07 0.000296529)
(6.95437e-09 2.52223e-10 2.91118e-08 3.85525e-10 2.30503e-07 0.000295638)
(7.59916e-09 1.57377e-10 -7.34611e-09 3.96909e-10 2.2601e-07 0.000292347)
(7.39398e-09 -1.17932e-11 -2.94063e-08 3.82911e-10 2.21739e-07 0.000290713)
(9.21715e-09 -2.71107e-10 -5.13093e-09 5.42059e-10 2.80153e-07 0.000301503)
(1.15907e-08 -1.93094e-10 2.58892e-08 4.82128e-10 2.75583e-07 0.000301796)
(9.84725e-09 1.221e-10 5.66627e-08 4.96615e-10 2.84444e-07 0.000304646)
(8.68801e-09 8.84748e-11 -1.36486e-08 5.25844e-10 2.89223e-07 0.000305092)
(9.4391e-09 1.68174e-10 -3.46072e-08 4.97474e-10 2.7377e-07 0.00030007)
(8.73871e-09 2.50895e-10 2.74227e-08 4.69556e-10 2.60331e-07 0.000296508)
(1.21311e-08 2.58316e-10 9.94178e-08 4.66642e-10 2.61815e-07 0.000297294)
(1.45873e-08 5.44433e-10 1.5891e-07 5.02675e-10 2.7783e-07 0.000302108)
(1.09126e-08 5.91537e-10 1.25172e-07 5.57224e-10 2.94879e-07 0.000307253)
(8.43391e-09 3.33646e-10 3.13139e-08 5.78802e-10 2.9574e-07 0.000306307)
(9.16537e-09 2.07555e-10 -9.24121e-09 5.94106e-10 2.89856e-07 0.000302697)
(8.92746e-09 -1.38041e-11 -3.26203e-08 5.73265e-10 2.84395e-07 0.000300899)
(1.09396e-08 -3.38548e-10 -4.71938e-09 7.79989e-10 3.47062e-07 0.000307264)
(1.37172e-08 -2.37981e-10 2.98661e-08 6.95209e-10 3.41346e-07 0.000307575)
(1.16935e-08 1.62296e-10 6.39682e-08 7.17665e-10 3.52441e-07 0.000310692)
(1.03496e-08 1.10978e-10 -1.59174e-08 7.59658e-10 3.58361e-07 0.00031118)
(1.11443e-08 2.10802e-10 -4.01126e-08 7.17048e-10 3.39073e-07 0.000305743)
(1.03274e-08 3.11103e-10 2.71927e-08 6.75416e-10 3.22608e-07 0.000301933)
(1.44172e-08 3.25811e-10 1.04321e-07 6.7101e-10 3.24403e-07 0.000302768)
(1.72902e-08 7.05435e-10 1.70849e-07 7.23376e-10 3.43833e-07 0.000307882)
(1.29465e-08 7.66827e-10 1.36641e-07 8.0291e-10 3.64906e-07 0.000313411)
(1.00455e-08 4.29529e-10 3.32657e-08 8.33473e-10 3.65987e-07 0.000312427)
(1.08555e-08 2.66203e-10 -1.11108e-08 8.53215e-10 3.58507e-07 0.00030854)
(1.05821e-08 -1.61217e-11 -3.55193e-08 8.23244e-10 3.51706e-07 0.000306596)
(1.27866e-08 -4.12598e-10 -4.11559e-09 1.08469e-09 4.17798e-07 0.000308896)
(1.59897e-08 -2.86495e-10 3.39727e-08 9.68173e-10 4.10781e-07 0.000309219)
(1.36811e-08 2.10806e-10 7.1422e-08 1.00161e-09 4.24377e-07 0.00031258)
(1.21433e-08 1.37349e-10 -1.78751e-08 1.06025e-09 4.31572e-07 0.000313106)
(1.29545e-08 2.58161e-10 -4.53872e-08 9.98566e-10 4.08055e-07 0.000307309)
(1.20195e-08 3.75559e-10 2.64399e-08 9.38641e-10 3.88338e-07 0.000303298)
(1.68713e-08 4.00302e-10 1.07804e-07 9.32053e-10 3.90435e-07 0.000304168)
(2.01821e-08 8.91685e-10 1.81308e-07 1.00549e-09 4.13471e-07 0.000309517)
(1.51307e-08 9.70749e-10 1.4737e-07 1.1178e-09 4.38957e-07 0.00031537)
(1.179e-08 5.40855e-10 3.50874e-08 1.15994e-09 4.40297e-07 0.000314365)
(1.26674e-08 3.3389e-10 -1.28267e-08 1.18453e-09 4.31031e-07 0.000310245)
(1.23552e-08 -1.88315e-11 -3.80751e-08 1.14264e-09 4.22743e-07 0.000308172)
(1.47581e-08 -4.92537e-10 -3.37411e-09 1.46591e-09 4.91374e-07 0.000306743)
(1.84075e-08 -3.38047e-10 3.81374e-08 1.30962e-09 4.82889e-07 0.00030707)
(1.58121e-08 2.68699e-10 7.89915e-08 1.35784e-09 4.99254e-07 0.00031065)
(1.40703e-08 1.6809e-10 -1.9413e-08 1.4378e-09 5.07859e-07 0.000311213)
(1.48654e-08 3.09605e-10 -5.02634e-08 1.35113e-09 4.79746e-07 0.000305112)
(1.38126e-08 4.42443e-10 2.5284e-08 1.26743e-09 4.56583e-07 0.000300945)
(1.94921e-08 4.80335e-10 1.09974e-07 1.25771e-09 4.58957e-07 0.000301837)
(2.3261e-08 1.10346e-09 1.90378e-07 1.35754e-09 4.85741e-07 0.000307359)
(1.74664e-08 1.20461e-09 1.57411e-07 1.51198e-09 5.16014e-07 0.000313479)
(1.36712e-08 6.68446e-10 3.68892e-08 1.56879e-09 5.17659e-07 0.000312468)
(1.46017e-08 4.10973e-10 -1.42537e-08 1.59842e-09 5.06428e-07 0.000308158)
(1.42464e-08 -2.20222e-11 -4.02507e-08 1.54125e-09 4.96508e-07 0.000305974)
(1.68556e-08 -5.77608e-10 -2.55049e-09 1.93283e-09 5.66612e-07 0.000301174)
(2.09719e-08 -3.92227e-10 4.2273e-08 1.72752e-09 5.56473e-07 0.000301496)
(1.80897e-08 3.36602e-10 8.66147e-08 1.79509e-09 5.75862e-07 0.000305267)
(1.61326e-08 2.03723e-10 -2.043e-08 1.90187e-09 5.86017e-07 0.000305865)
(1.68741e-08 3.64377e-10 -5.45734e-08 1.78333e-09 5.52989e-07 0.000299517)
(1.57058e-08 5.09664e-10 2.3861e-08 1.66948e-09 5.2623e-07 0.000295238)
(2.22802e-08 5.64189e-10 1.10976e-07 1.6553e-09 5.28832e-07 0.00029614)
(2.6527e-08 1.34044e-09 1.98167e-07 1.78736e-09 5.59451e-07 0.000301777)
(1.9957e-08 1.4691e-09 1.66818e-07 1.99484e-09 5.94852e-07 0.000308106)
(1.56949e-08 8.12987e-10 3.87898e-08 2.07004e-09 5.96855e-07 0.000307102)
(1.66605e-08 4.98126e-10 -1.52435e-08 2.10473e-09 5.83516e-07 0.000302647)
(1.62571e-08 -2.54071e-11 -4.20073e-08 2.02833e-09 5.7183e-07 0.000300371)
(1.90816e-08 -6.67024e-10 -1.69165e-09 2.49471e-09 6.42376e-07 0.000292586)
(2.3685e-08 -4.4866e-10 4.62974e-08 2.22989e-09 6.30378e-07 0.00029289)
(2.0518e-08 4.15045e-10 9.42277e-08 2.32225e-09 6.5303e-07 0.000296825)
(1.8333e-08 2.44775e-10 -2.08513e-08 2.46224e-09 6.64877e-07 0.000297459)
(1.89778e-08 4.21567e-10 -5.81839e-08 2.30392e-09 6.26665e-07 0.00029092)
(1.76988e-08 5.74801e-10 2.22851e-08 2.15263e-09 5.96205e-07 0.00028657)
(2.52364e-08 6.49866e-10 1.1094e-07 2.13221e-09 5.98968e-07 0.00028747)
(2.99809e-08 1.60198e-09 2.0477e-07 2.30273e-09 6.3345e-07 0.000293168)
(2.26067e-08 1.7647e-09 1.75639e-07 2.57586e-09 6.74285e-07 0.000299654)
(1.78676e-08 9.75145e-10 4.0897e-08 2.67381e-09 6.76708e-07 0.000298667)
(1.88466e-08 5.96159e-10 -1.5673e-08 2.71335e-09 6.61149e-07 0.00029411)
(1.83889e-08 -2.85071e-11 -4.33206e-08 2.61312e-09 6.47578e-07 0.00029176)
(2.14404e-08 -7.60043e-10 -8.33455e-10 3.16073e-09 7.17495e-07 0.000281372)
(2.65511e-08 -5.07077e-10 5.01314e-08 2.82463e-09 7.03416e-07 0.000281645)
(2.31021e-08 5.04341e-10 1.01749e-07 2.94814e-09 7.29548e-07 0.000285717)
(2.06752e-08 2.91666e-10 -2.06385e-08 3.12869e-09 7.43228e-07 0.000286387)
(2.11751e-08 4.80058e-10 -6.10107e-08 2.92161e-09 6.99622e-07 0.000279711)
(1.97924e-08 6.35105e-10 2.06303e-08 2.7247e-09 6.65402e-07 0.000275328)
(2.83633e-08 7.35033e-10 1.09954e-07 2.69565e-09 6.68236e-07 0.000276217)
(3.36252e-08 1.88709e-09 2.10223e-07 2.91115e-09 7.06553e-07 0.000281925)
(2.54218e-08 2.09163e-09 1.8388e-07 3.26434e-09 7.53088e-07 0.000288518)
(2.01979e-08 1.15551e-09 4.32832e-08 3.39013e-09 7.55999e-07 0.000287557)
(2.11639e-08 7.06061e-10 -1.54464e-08 3.43409e-09 7.3815e-07 0.000282939)
(2.06452e-08 -3.05535e-11 -4.41664e-08 3.30473e-09 7.22589e-07 0.000280532)
(2.39378e-08 -8.55974e-10 -3.35019e-12 3.93987e-09 7.90746e-07 0.000267919)
(2.95758e-08 -5.67328e-10 5.36969e-08 3.51937e-09 7.74348e-07 0.000268148)
(2.58489e-08 6.04531e-10 1.09081e-07 3.68139e-09 8.04147e-07 0.000272329)
(2.31638e-08 3.44714e-10 -1.97866e-08 3.91078e-09 8.19801e-07 0.000273035)
(2.34653e-08 5.38542e-10 -6.30139e-08 3.64499e-09 7.70654e-07 0.000266274)
(2.19889e-08 6.87534e-10 1.89321e-08 3.39339e-09 7.32667e-07 0.000261894)
(3.16646e-08 8.17095e-10 1.08062e-07 3.3526e-09 7.35463e-07 0.000262762)
(3.7464e-08 2.19435e-09 2.14508e-07 3.61974e-09 7.77525e-07 0.000268436)
(2.84105e-08 2.44974e-09 1.91509e-07 4.0693e-09 8.29979e-07 0.000275088)
(2.26959e-08 1.35457e-09 4.59901e-08 4.22882e-09 8.33452e-07 0.00027416)
(2.3618e-08 8.29031e-10 -1.44923e-08 4.27656e-09 8.13286e-07 0.000269518)
(2.30303e-08 -3.04504e-11 -4.45184e-08 4.11204e-09 7.9565e-07 0.000267075)
(2.65809e-08 -9.54175e-10 7.7663e-10 4.84087e-09 8.60869e-07 0.000252606)
(3.27661e-08 -6.29381e-10 5.69172e-08 4.32153e-09 8.41898e-07 0.000252777)
(2.87659e-08 7.15361e-10 1.16106e-07 4.53043e-09 8.75518e-07 0.00025704)
(2.58038e-08 4.04122e-10 -1.83225e-08 4.81795e-09 8.93282e-07 0.000257785)
(2.58484e-08 5.95531e-10 -6.41965e-08 4.48256e-09 8.38519e-07 0.000250987)
(2.42914e-08 7.28789e-10 1.71877e-08 4.16631e-09 7.96809e-07 0.000246645)
(3.51448e-08 8.93233e-10 1.05271e-07 4.10974e-09 7.99443e-07 0.000247483)
(4.15019e-08 2.52198e-09 2.17557e-07 4.43521e-09 8.45093e-07 0.00025308)
(3.1582e-08 2.83855e-09 1.98455e-07 4.99947e-09 9.03628e-07 0.000259745)
(2.53734e-08 1.5727e-09 4.90269e-08 5.19946e-09 9.07742e-07 0.000258856)
(2.62152e-08 9.66478e-10 -1.27653e-08 5.25012e-09 8.85277e-07 0.000254229)
(2.55494e-08 -2.67627e-11 -4.43471e-08 5.04364e-09 8.65508e-07 0.000251767)
(2.93774e-08 -1.05404e-09 1.48607e-09 5.87226e-09 9.26573e-07 0.000235809)
(3.61295e-08 -6.9332e-10 5.97159e-08 5.2383e-09 9.04767e-07 0.000235909)
(3.1861e-08 8.36273e-10 1.22691e-07 5.50351e-09 9.4232e-07 0.000240226)
(2.86005e-08 4.69984e-10 -1.6302e-08 5.85939e-09 9.62323e-07 0.00024101)
(2.83243e-08 6.49358e-10 -6.45996e-08 5.44266e-09 9.01944e-07 0.000234224)
(2.67038e-08 7.55337e-10 1.53617e-08 5.05093e-09 8.56613e-07 0.00022995)
(3.88084e-08 9.60436e-10 1.01551e-07 4.97349e-09 8.58944e-07 0.000230751)
(4.57437e-08 2.86781e-09 2.19256e-07 5.36386e-09 9.07958e-07 0.00023623)
(3.49464e-08 3.25716e-09 2.04611e-07 6.06323e-09 9.7267e-07 0.000242864)
(2.82434e-08 1.81013e-09 5.23708e-08 6.31138e-09 9.77504e-07 0.000242018)
(2.89627e-08 1.12e-09 -1.02464e-08 6.36392e-09 9.52806e-07 0.00023744)
(2.82082e-08 -1.7719e-11 -4.36198e-08 6.10788e-09 9.30878e-07 0.00023498)
(3.23353e-08 -1.15501e-09 2.10245e-09 7.0423e-09 9.86557e-07 0.000217892)
(3.96734e-08 -7.59328e-10 6.20178e-08 6.27658e-09 9.61653e-07 0.000217908)
(3.5142e-08 9.66411e-10 1.28692e-07 6.6086e-09 1.0032e-06 0.000222252)
(3.15583e-08 5.42303e-10 -1.38048e-08 7.04406e-09 1.02556e-06 0.000223077)
(3.08927e-08 6.98183e-10 -6.42951e-08 6.53352e-09 9.5965e-07 0.000216348)
(2.923e-08 7.63435e-10 1.33939e-08 6.05458e-09 9.10858e-07 0.000212174)
(4.26591e-08 1.0155e-09 9.68509e-08 5.9499e-09 9.12733e-07 0.000212931)
(5.01927e-08 3.22923e-09 2.19462e-07 6.41154e-09 9.64814e-07 0.000218253)
(3.85137e-08 3.70427e-09 2.09838e-07 7.26861e-09 1.03573e-06 0.000224812)
(3.13195e-08 2.06695e-09 5.59677e-08 7.57358e-09 1.04136e-06 0.000224013)
(3.18678e-08 1.29135e-09 -6.94313e-09 7.62681e-09 1.01454e-06 0.000219518)
(3.1012e-08 -1.22287e-12 -4.2303e-08 7.3128e-09 9.9046e-07 0.000217079)
(3.54621e-08 -1.25651e-09 2.59812e-09 8.35891e-09 1.03953e-06 0.000199214)
(4.34037e-08 -8.27683e-10 6.37492e-08 7.44298e-09 1.01127e-06 0.000199138)
(3.86155e-08 1.10464e-09 1.33952e-07 7.85334e-09 1.05683e-06 0.000203479)
(3.46803e-08 6.21028e-10 -1.09285e-08 8.38061e-09 1.08164e-06 0.000204344)
(3.3552e-08 7.40016e-10 -6.33773e-08 7.76312e-09 1.01037e-06 0.000197718)
(3.18738e-08 7.49158e-10 1.12108e-08 7.18432e-09 9.5834e-07 0.000193674)
(4.6699e-08 1.05504e-09 9.11128e-08 7.04458e-09 9.59596e-07 0.00019438)
(5.48502e-08 3.60316e-09 2.18017e-07 7.58347e-09 1.01438e-06 0.000199506)
(4.2293e-08 4.17804e-09 2.13978e-07 8.62313e-09 1.09143e-06 0.000205948)
(3.46153e-08 2.34301e-09 5.97353e-08 8.99461e-09 1.09793e-06 0.000205198)
(3.49374e-08 1.48235e-09 -2.89051e-09 9.04725e-09 1.06915e-06 0.000200818)
(3.39653e-08 2.51285e-11 -4.03662e-08 8.66601e-09 1.04297e-06 0.00019842)
(3.87637e-08 -1.35797e-09 2.93824e-09 9.82957e-09 1.08425e-06 0.000180126)
(4.73243e-08 -8.98736e-10 6.48398e-08 8.74363e-09 1.0524e-06 0.000179948)
(4.22858e-08 1.24957e-09 1.38317e-07 9.24492e-09 1.10191e-06 0.000184258)
(3.79667e-08 7.06108e-10 -7.78102e-09 9.87717e-09 1.12925e-06 0.000185162)
(3.62987e-08 7.72745e-10 -6.19529e-08 9.13916e-09 1.05289e-06 0.000178684)
(3.46378e-08 7.08433e-10 8.73823e-09 8.44683e-09 9.97898e-07 0.000174797)
(5.09271e-08 1.07549e-09 8.42891e-08 8.26259e-09 9.98369e-07 0.000175447)
(5.97133e-08 3.98595e-09 2.1477e-07 8.88418e-09 1.0554e-06 0.000180341)
(4.6291e-08 4.67613e-09 2.1686e-07 1.01337e-08 1.13845e-06 0.000186621)
(3.81433e-08 2.63791e-09 6.35655e-08 1.05825e-08 1.14589e-06 0.000185923)
(3.81773e-08 1.69489e-09 1.84802e-09 1.06332e-08 1.11535e-06 0.00018169)
(3.70707e-08 6.40215e-11 -3.77876e-08 1.01746e-08 1.08714e-06 0.000179354)
(4.22435e-08 -1.4588e-09 3.07974e-09 1.14611e-08 1.11955e-06 0.000160965)
(5.14349e-08 -9.72909e-10 6.52252e-08 1.01841e-08 1.0839e-06 0.000160682)
(4.61536e-08 1.39959e-09 1.41634e-07 1.07899e-08 1.13723e-06 0.000164931)
(4.14144e-08 7.97555e-10 -4.47359e-09 1.15413e-08 1.16717e-06 0.000165869)
(3.91268e-08 7.94199e-10 -6.01318e-08 1.06689e-08 1.08606e-06 0.000159582)
(3.75227e-08 6.37095e-10 5.91348e-09 9.84829e-09 1.02845e-06 0.000155881)
(5.5338e-08 1.07307e-09 7.63583e-08 9.60827e-09 1.02797e-06 0.00015647)
(6.47735e-08 4.37339e-09 2.09595e-07 1.03173e-08 1.08675e-06 0.000161095)
(5.05106e-08 5.19554e-09 2.18313e-07 1.18063e-08 1.17554e-06 0.000167171)
(4.19136e-08 2.95097e-09 6.73294e-08 1.23444e-08 1.18397e-06 0.000166527)
(4.15908e-08 1.93076e-09 7.17966e-09 1.23918e-08 1.15191e-06 0.000162471)
(4.0328e-08 1.18397e-10 -3.45604e-08 1.1845e-08 1.12182e-06 0.000160216)
(4.59013e-08 -1.55837e-09 2.97132e-09 1.32598e-08 1.14437e-06 0.000142055)
(5.57304e-08 -1.05067e-09 6.48496e-08 1.17693e-08 1.10474e-06 0.000141664)
(5.02147e-08 1.55291e-09 1.43765e-07 1.2494e-08 1.16173e-06 0.000145822)
(4.50151e-08 8.95512e-10 -1.11394e-09 1.33798e-08 1.19426e-06 0.00014679)
(4.20264e-08 8.02216e-10 -5.8019e-08 1.23589e-08 1.10886e-06 0.000140736)
(4.05268e-08 5.30944e-10 2.69594e-09 1.13942e-08 1.04904e-06 0.000137246)
(5.99206e-08 1.04387e-09 6.73379e-08 1.10851e-08 1.04744e-06 0.000137769)
(7.00153e-08 4.76066e-09 2.02404e-07 1.18855e-08 1.10739e-06 0.000142093)
(5.49495e-08 5.73264e-09 2.18179e-07 1.36462e-08 1.20158e-06 0.000147922)
(4.59325e-08 3.28114e-09 7.08812e-08 1.42866e-08 1.21104e-06 0.000147334)
(4.51782e-08 2.19164e-09 1.29819e-08 1.43293e-08 1.17772e-06 0.000143483)
(4.37332e-08 1.91417e-10 -3.06989e-08 1.36826e-08 1.14594e-06 0.00014133)
(4.97322e-08 -1.65598e-09 2.5541e-09 1.52308e-08 1.15781e-06 0.000123695)
(6.01986e-08 -1.13255e-09 6.36684e-08 1.35031e-08 1.11409e-06 0.0001232)
(5.44585e-08 1.7076e-09 1.44598e-07 1.43619e-08 1.17446e-06 0.000127236)
(4.87542e-08 1.00031e-09 2.19871e-09 1.53983e-08 1.20958e-06 0.000128226)
(4.49838e-08 7.94724e-10 -5.57084e-08 1.42152e-08 1.12043e-06 0.000122445)
(4.36447e-08 3.85832e-10 -9.25365e-10 1.30891e-08 1.05884e-06 0.000119189)
(6.4657e-08 9.83814e-10 5.72922e-08 1.26954e-08 1.05597e-06 0.000119644)
(7.54145e-08 5.14233e-09 1.93169e-07 1.359e-08 1.11647e-06 0.000123637)
(5.95984e-08 6.28306e-09 2.1632e-07 1.5657e-08 1.21561e-06 0.000129179)
(5.02011e-08 3.62698e-09 7.40641e-08 1.64142e-08 1.2261e-06 0.000128648)
(4.89354e-08 2.47898e-09 1.91033e-08 1.64509e-08 1.19184e-06 0.000125029)
(4.72773e-08 2.86428e-10 -2.62439e-08 1.56919e-08 1.15859e-06 0.000122995)
(5.37256e-08 -1.75086e-09 1.763e-09 1.73781e-08 1.15914e-06 0.000106157)
(6.482e-08 -1.2191e-09 6.165e-08 1.53884e-08 1.11127e-06 0.000105563)
(5.88665e-08 1.86163e-09 1.44047e-07 1.6397e-08 1.17469e-06 0.000109448)
(5.261e-08 1.11255e-09 5.37666e-09 1.76015e-08 1.21234e-06 0.000110451)
(4.79804e-08 7.69823e-10 -5.32786e-08 1.62426e-08 1.12006e-06 0.000104981)
(4.68668e-08 1.97748e-10 -4.92814e-09 1.49365e-08 1.05721e-06 0.00010198)
(6.95215e-08 8.88759e-10 4.63342e-08 1.44403e-08 1.05294e-06 0.000102365)
(8.09369e-08 5.51235e-09 1.8192e-07 1.54307e-08 1.11331e-06 0.000106001)
(6.44399e-08 6.84168e-09 2.12634e-07 1.7841e-08 1.21685e-06 0.000111217)
(5.47135e-08 3.98658e-09 7.67149e-08 1.87307e-08 1.22836e-06 0.000110745)
(5.2853e-08 2.79391e-09 2.53655e-08 1.87602e-08 1.19348e-06 0.00010738)
(5.09459e-08 4.06925e-10 -2.12655e-08 1.78758e-08 1.15904e-06 0.000105483)
(5.78645e-08 -1.84217e-09 5.2814e-10 1.97043e-08 1.14784e-06 8.96776e-05)
(6.95662e-08 -1.31092e-09 5.87763e-08 1.74265e-08 1.09582e-06 8.89924e-05)
(6.34119e-08 2.01288e-09 1.42062e-07 1.86013e-08 1.16189e-06 9.26991e-05)
(5.65529e-08 1.23309e-09 8.34438e-09 1.99921e-08 1.20196e-06 9.3705e-05)
(5.09927e-08 7.25846e-10 -5.07917e-08 1.84446e-08 1.10728e-06 8.85784e-05)
(5.0179e-08 -3.70864e-11 -9.25879e-09 1.69387e-08 1.0437e-06 8.5849e-05)
(7.448e-08 7.5453e-10 3.46204e-08 1.63195e-08 1.03792e-06 8.6163e-05)
(8.65381e-08 5.86417e-09 1.68755e-07 1.74055e-08 1.09744e-06 8.94229e-05)
(6.94467e-08 7.40259e-09 2.07055e-07 2.01987e-08 1.20472e-06 9.42797e-05)
(5.94553e-08 4.35754e-09 7.86685e-08 2.12377e-08 1.21721e-06 9.38669e-05)
(5.69156e-08 3.13716e-09 3.15661e-08 2.12588e-08 1.18205e-06 9.07757e-05)
(5.47182e-08 5.56496e-10 -1.58645e-08 2.02358e-08 1.14677e-06 8.90295e-05)
(6.21254e-08 -1.92893e-09 -1.22404e-09 2.22103e-08 1.12356e-06 7.44494e-05)
(7.44001e-08 -1.40861e-09 5.50443e-08 1.96172e-08 1.06747e-06 7.36855e-05)
(6.80583e-08 2.1592e-09 1.38631e-07 2.09743e-08 1.13572e-06 7.71874e-05)
(6.05449e-08 1.3631e-09 1.10379e-08 2.2571e-08 1.17806e-06 7.81848e-05)
(5.39925e-08 6.61401e-10 -4.82945e-08 2.08233e-08 1.08176e-06 7.34303e-05)
(5.35624e-08 -3.22107e-10 -1.38419e-08 1.9096e-08 1.01804e-06 7.0985e-05)
(7.949e-08 5.77061e-10 2.23338e-08 1.83306e-08 1.01067e-06 7.12293e-05)
(9.21629e-08 6.19072e-09 1.53832e-07 1.95102e-08 1.06861e-06 7.40985e-05)
(7.45817e-08 7.95901e-09 1.99562e-07 2.27281e-08 1.17886e-06 7.85669e-05)
(6.44026e-08 4.73681e-09 7.97583e-08 2.39346e-08 1.19227e-06 7.82134e-05)
(6.1101e-08 3.50893e-09 3.74827e-08 2.39463e-08 1.15718e-06 7.54113e-05)
(5.85671e-08 7.38758e-10 -1.01706e-08 2.27709e-08 1.12142e-06 7.38278e-05)
(6.64784e-08 -2.00999e-09 -3.56978e-09 2.48944e-08 1.08616e-06 6.06198e-05)
(7.92758e-08 -1.51284e-09 5.04673e-08 2.1958e-08 1.02616e-06 5.97912e-05)
(7.27606e-08 2.29841e-09 1.33783e-07 2.35137e-08 1.09603e-06 6.30654e-05)
(6.45404e-08 1.50392e-09 1.34058e-08 2.53367e-08 1.14044e-06 6.40424e-05)
(5.69474e-08 5.75385e-10 -4.58205e-08 2.33786e-08 1.04339e-06 5.96833e-05)
(5.69934e-08 -6.60295e-10 -1.85892e-08 2.14069e-08 9.80156e-07 5.75301e-05)
(8.45016e-08 3.52561e-10 9.67e-09 2.04692e-08 9.71133e-07 5.77067e-05)
(9.77467e-08 6.48452e-09 1.3736e-07 2.1738e-08 1.02674e-06 6.01776e-05)
(7.97974e-08 8.50317e-09 1.90167e-07 2.54245e-08 1.13909e-06 6.42343e-05)
(6.95214e-08 5.12059e-09 7.98136e-08 2.68178e-08 1.15331e-06 6.39396e-05)
(6.53804e-08 3.90878e-09 4.28744e-08 2.68191e-08 1.11867e-06 6.14371e-05)
(6.24595e-08 9.57271e-10 -4.34135e-09 2.54776e-08 1.08285e-06 6.00252e-05)
(7.08871e-08 -2.08401e-09 -6.58279e-09 2.77528e-08 1.03565e-06 4.82898e-05)
(8.41392e-08 -1.62446e-09 4.508e-08 2.44441e-08 9.71994e-07 4.74129e-05)
(7.74643e-08 2.42823e-09 1.27583e-07 2.62142e-08 1.04288e-06 5.04395e-05)
(6.84861e-08 1.65672e-09 1.54207e-08 2.82852e-08 1.08909e-06 5.1384e-05)
(5.98212e-08 4.66689e-10 -4.33829e-08 2.61082e-08 9.9223e-07 4.7438e-05)
(6.0444e-08 -1.05438e-09 -2.33887e-08 2.38677e-08 9.30136e-07 4.55804e-05)
(8.94575e-08 7.7169e-11 -3.14389e-09 2.27286e-08 9.19447e-07 4.56924e-05)
(1.03216e-07 6.73775e-09 1.19596e-07 2.40795e-08 9.7194e-07 4.77637e-05)
(8.5036e-08 9.02636e-09 1.7892e-07 2.82802e-08 1.08544e-06 5.13916e-05)
(7.47669e-08 5.50429e-09 7.86623e-08 2.98805e-08 1.10032e-06 5.11549e-05)
(6.97179e-08 4.33547e-09 4.74847e-08 2.98707e-08 1.06647e-06 4.89575e-05)
(6.63563e-08 1.21562e-09 1.43272e-09 2.835e-08 1.03107e-06 4.77228e-05)
(7.53076e-08 -2.15016e-09 -1.03065e-08 3.07784e-08 9.72239e-07 3.75203e-05)
(8.89259e-08 -1.7445e-09 3.8947e-08 2.70673e-08 9.05272e-07 3.66133e-05)
(8.21051e-08 2.5466e-09 1.20131e-07 2.9067e-08 9.76504e-07 3.93754e-05)
(7.23202e-08 1.82279e-09 1.70858e-08 3.14088e-08 1.02418e-06 4.02752e-05)
(6.25738e-08 3.33803e-10 -4.09507e-08 2.90068e-08 9.28521e-07 3.67548e-05)
(6.38807e-08 -1.5071e-09 -2.80713e-08 2.64718e-08 8.68267e-07 3.51917e-05)
(9.42926e-08 -2.53082e-10 -1.58069e-08 2.50986e-08 8.55929e-07 3.52435e-05)
(1.08487e-07 6.94195e-09 1.00868e-07 2.65211e-08 9.04541e-07 3.69208e-05)
(9.02283e-08 9.51906e-09 1.65905e-07 3.12837e-08 1.01813e-06 4.01093e-05)
(8.00812e-08 5.88185e-09 7.61605e-08 3.31119e-08 1.03349e-06 3.99288e-05)
(7.4069e-08 4.78684e-09 5.10507e-08 3.30901e-08 1.00077e-06 3.80374e-05)
(7.02114e-08 1.51737e-09 6.92186e-09 3.13777e-08 9.66296e-07 3.6982e-05)
(7.96875e-08 -2.20652e-09 -1.47521e-08 3.39574e-08 8.96382e-07 2.83372e-05)
(9.35614e-08 -1.87347e-09 3.21597e-08 2.98137e-08 8.26566e-07 2.74196e-05)
(8.66073e-08 2.65169e-09 1.11562e-07 3.20568e-08 8.97396e-07 2.99039e-05)
(7.59727e-08 2.00403e-09 1.84203e-08 3.46925e-08 9.46158e-07 3.07473e-05)
(6.51606e-08 1.76732e-10 -3.847e-08 3.20628e-08 8.52765e-07 2.76591e-05)
(6.72637e-08 -2.01933e-09 -3.24277e-08 2.92068e-08 7.95076e-07 2.63841e-05)
(9.89331e-08 -6.40616e-10 -2.79617e-08 2.75631e-08 7.81157e-07 2.63817e-05)
(1.13467e-07 7.08921e-09 8.15722e-08 2.90431e-08 8.25142e-07 2.76782e-05)
(9.52925e-08 9.97027e-09 1.51268e-07 3.44161e-08 9.37655e-07 3.04236e-05)