/*--------------------------------*- C++ -*----------------------------------*\
| =========                 |                                                 |
| \\      /  F ield         | OpenFOAM: The Open Source CFD Toolbox           |
|  \\    /   O peration     | Version:  v1912                                 |
|   \\  /    A nd           | Website:  www.openfoam.com                      |
|    \\/     M anipulation  |                                                 |
\*---------------------------------------------------------------------------*/
FoamFile
{
    version     2.0;
    format      ascii;
    class       volScalarField;
    location    "11.2";
    object      omega;
}
// * * * * * * * * * * * * * * * * * * * * * * * * * * * * * * * * * * * * * //

dimensions      [0 0 -1 0 0 0 0];


internalField   nonuniform List<scalar> 
34128
(
156509
156509
156509
156509
156509
156508
156509
156509
156509
156509
156509
156509
25867.9
25869.2
25870.5
25868.5
25867.1
25865.4
25865.5
25868.3
25870.4
25873
25872.6
25868.3
8912.52
8914.2
8915.54
8913.5
8911.96
8910.36
8910.83
8913.38
8914.65
8916.93
8916.66
8912.86
4284.34
4286.62
4288.07
4285.91
4284.06
4282.38
4283.15
4285.47
4286.14
4288.23
4288.11
4284.7
2498.24
2501.24
2502.9
2500.47
2498.14
2496.29
2497.44
2499.66
2499.72
2501.65
2501.75
2498.7
1655.79
1659.43
1661.27
1658.56
1655.73
1653.72
1655.34
1657.5
1656.83
1658.5
1658.9
1656.36
1204.83
1208.9
1210.81
1207.89
1204.64
1202.55
1204.69
1206.76
1205.27
1206.52
1207.3
1205.51
941.516
945.745
947.581
944.567
941.056
938.973
941.539
943.459
941.199
941.895
943.096
942.313
777.246
781.38
782.987
779.99
776.365
774.405
777.341
779.096
776.078
776.203
777.871
778.108
668.974
672.805
674.046
671.164
667.596
665.822
668.997
670.586
666.916
666.395
668.539
669.89
593.966
597.347
598.119
595.432
592.088
590.513
593.748
595.189
591.039
589.886
592.496
594.946
539.469
542.317
542.558
540.129
537.158
535.756
538.851
540.177
535.752
534.043
537.086
540.541
497.989
500.267
499.959
497.84
495.366
494.083
496.838
498.088
493.607
491.449
494.868
499.18
464.941
466.647
465.808
464.05
462.167
460.94
463.172
464.38
460.056
457.567
461.28
466.279
437.429
438.576
437.254
435.904
434.68
433.447
435.007
436.202
432.225
429.513
433.422
438.933
413.564
414.165
412.43
411.536
411.014
409.727
410.506
411.702
408.232
405.387
409.382
415.243
392.073
392.139
390.074
389.682
389.885
388.517
388.437
389.65
386.807
383.9
387.865
393.925
372.082
371.614
369.309
369.459
370.402
368.947
367.91
369.18
367.07
364.156
367.969
373.978
352.919
351.968
349.518
350.246
351.938
350.411
348.34
349.636
348.398
345.525
349.062
354.806
334.197
332.702
330.247
331.603
333.886
332.363
329.413
330.588
330.353
327.565
330.637
336.006
315.62
313.516
311.088
313.098
315.96
314.522
310.851
311.873
312.604
309.971
312.372
317.262
296.992
294.288
291.837
294.523
297.969
296.688
292.477
293.301
294.83
292.4
294.043
298.365
278.21
274.912
272.397
275.724
279.784
278.705
274.189
274.764
276.889
274.709
275.605
279.199
259.237
255.351
252.851
256.718
261.362
260.584
255.947
256.216
258.814
256.798
256.99
259.725
240.09
235.626
233.194
237.537
242.689
242.315
237.759
237.66
240.577
238.787
238.19
239.965
220.824
215.796
213.464
218.208
223.799
223.934
219.665
219.136
222.193
220.672
219.24
219.984
201.514
195.942
193.727
198.792
204.758
205.51
201.722
200.701
203.705
202.475
200.201
199.879
182.242
176.155
174.064
179.365
185.658
187.127
183.999
182.422
185.175
184.233
181.146
179.774
163.092
156.536
154.567
160.022
166.6
168.876
166.565
164.365
166.667
165.987
162.165
159.875
144.357
137.491
135.524
140.98
147.755
150.851
149.483
146.594
148.258
147.816
143.642
141.074
126.914
119.852
117.789
123.139
129.952
133.439
132.9
129.384
130.394
130.373
126.438
123.933
110.967
103.767
101.586
106.703
113.56
117.338
117.354
113.374
113.797
114.207
110.512
108.252
96.3155
89.1169
86.9334
91.6113
98.4493
102.482
102.983
98.749
98.6224
99.3978
95.8089
93.9171
82.9543
75.9818
73.814
77.9324
84.6147
88.8283
89.7615
85.4875
84.8651
85.9275
82.366
80.8532
71.0011
64.3232
62.179
65.818
72.0811
76.4139
77.7822
73.5328
72.4948
73.7668
70.2771
69.0459
60.4042
54.0774
51.9757
55.1951
60.8778
65.2882
66.9954
62.8315
61.4767
62.8872
59.5303
58.4959
51.109
45.1824
43.1425
45.9838
51.0495
55.4217
57.3575
53.3385
51.7719
53.2573
50.0992
49.1946
43.055
37.5686
35.6109
38.111
42.6214
46.7832
48.8274
45.012
43.3353
44.8374
41.9395
41.1279
36.1597
31.1218
29.2595
31.4339
35.4765
39.3214
41.3538
37.7976
36.1069
37.5714
34.975
34.2473
30.1919
25.6103
23.8627
25.7341
29.3589
32.8455
34.7935
31.5095
29.8874
31.2981
28.985
28.3281
25.0342
20.9437
19.3394
20.9464
24.1549
27.2327
29.0259
26.0429
24.5401
25.8665
23.8453
23.2654
20.7198
17.1224
15.6758
17.0481
19.8639
22.5081
24.0752
21.4373
20.0757
21.269
19.5711
19.0665
17.1525
14.0324
12.7485
13.9137
16.3637
18.5804
19.9086
17.616
16.41
17.456
16.0612
15.6158
14.2323
11.5613
10.4358
11.4181
13.5329
15.3473
16.4502
14.4878
13.4384
14.3329
13.2101
12.833
11.8624
9.6033
8.62323
9.44321
11.2569
12.7189
13.6176
11.9589
11.0576
11.8046
10.9163
10.614
9.95271
8.0626
7.2076
7.88385
9.43836
10.6072
11.3269
9.93682
9.16984
9.77914
9.08519
8.86177
8.42294
6.85574
6.10023
6.67358
7.99682
8.92771
9.49583
8.33223
7.68445
8.17179
7.63477
7.48807
7.20387
5.9125
5.25201
5.74788
6.86152
7.60225
8.04692
7.05645
6.51317
6.90632
6.4954
6.41641
6.23702
5.17544
4.6105
5.03981
5.97107
6.56135
6.91006
6.07168
5.5905
5.9164
5.60623
5.58305
5.47327
4.59855
4.12496
4.49565
5.27349
5.74619
6.02381
5.32287
4.88548
5.14602
4.91541
4.93614
4.87152
4.14525
3.75578
4.075
4.72593
5.1094
5.33625
4.75691
4.35316
4.54897
4.38016
4.43043
4.39783
3.78859
3.47377
3.74766
4.29427
4.61538
4.8047
4.32697
3.95286
4.08792
3.96613
4.03535
4.02467
3.51187
3.25766
3.49228
3.95229
4.2307
4.39445
3.99819
3.65214
3.73324
3.64632
3.72728
3.73081
3.29847
3.09257
3.29325
3.68348
3.93036
4.07923
3.74539
3.42634
3.46159
3.39975
3.48691
3.49997
3.13402
2.96844
3.13864
3.47267
3.69611
3.83442
3.54876
3.25607
3.25466
3.21017
3.29871
3.31789
3.0072
2.87853
3.01935
3.3082
3.51355
3.64147
3.39401
3.12784
3.09804
3.06497
3.15244
3.17293
2.90963
2.81035
2.9281
3.18045
3.37029
3.49002
3.27252
3.0316
2.98026
2.95433
3.03876
3.05814
2.83464
2.75703
2.8581
3.07983
3.25781
3.37189
3.17755
2.95881
2.89193
2.87052
2.95014
2.96847
2.77691
2.71542
2.80418
3.00099
3.17032
3.27912
3.10261
2.90277
2.8245
2.80742
2.88101
2.8988
2.73234
2.68303
2.7622
2.93932
3.10243
3.20424
3.04179
2.85901
2.77551
2.76019
2.82722
2.84446
2.69781
2.65794
2.7296
2.89108
3.04934
3.141
2.99014
2.82414
2.74209
2.72497
2.78522
2.80162
2.67101
2.63867
2.70427
2.85338
3.0071
3.08462
2.94387
2.79533
2.72032
2.69884
2.75207
2.76731
2.65025
2.62403
2.6847
2.82426
2.972
3.03187
2.90034
2.77012
2.70621
2.67979
2.72553
2.73934
2.63433
2.61319
2.6698
2.80194
2.94195
2.98089
2.85804
2.7475
2.69539
2.66571
2.70392
2.71616
2.62235
2.60557
2.65885
2.78478
2.91572
2.93096
2.81677
2.72643
2.68745
2.65535
2.686
2.69666
2.61365
2.60083
2.65137
2.77197
2.89254
2.88213
2.77723
2.70588
2.68135
2.64775
2.67091
2.68012
2.60739
2.59878
2.64715
2.76301
2.87188
2.83484
2.73965
2.68607
2.67616
2.64217
2.65809
2.66603
2.60358
2.59934
2.64614
2.75754
2.8534
2.78937
2.70192
2.66718
2.67122
2.63802
2.64721
2.65406
2.60198
2.60258
2.64848
2.7552
2.83699
2.75127
2.66836
2.64947
2.66612
2.63488
2.63808
2.64398
2.60238
2.60859
2.65466
2.75673
2.82277
2.72568
2.64116
2.63346
2.66061
2.63246
2.63067
2.63562
2.60464
2.6175
2.66446
2.76176
2.81091
2.70865
2.62056
2.6195
2.6546
2.63061
2.62499
2.62888
2.60858
2.62933
2.67737
2.76988
2.80155
2.6966
2.60642
2.6079
2.6481
2.62927
2.6211
2.62366
2.61398
2.64403
2.69266
2.78065
2.79484
2.68847
2.6008
2.5989
2.64124
2.62845
2.61905
2.61991
2.62057
2.66197
2.71056
2.79353
2.7908
2.68354
2.6009
2.59267
2.63419
2.62812
2.61886
2.61755
2.62789
2.68154
2.73109
2.80769
2.78934
2.68167
2.6046
2.58919
2.62717
2.62819
2.6205
2.61651
2.63553
2.70156
2.7534
2.82222
2.79014
2.68248
2.611
2.58847
2.62046
2.62867
2.62386
2.61673
2.64324
2.72015
2.77637
2.83605
2.79272
2.68569
2.61954
2.59058
2.6143
2.62963
2.62863
2.61827
2.65088
2.73785
2.79874
2.84814
2.79657
2.69102
2.63003
2.59573
2.60854
2.63119
2.63458
2.62122
2.65823
2.75436
2.81915
2.8576
2.80117
2.69828
2.64258
2.60434
2.60583
2.63357
2.6416
156509
156509
156509
156509
156509
156509
156509
156509
156509
156509
156509
156509
25850.8
25853.4
25853.4
25850.1
25848.6
25848
25854.4
25859.3
25852.9
25853.2
25853.3
25850.1
8680.73
8687.44
8677.82
8666.37
8662.26
8674.05
8745.69
8769.68
8680.64
8655.03
8653.81
8664.12
4209.17
4213.57
4211.2
4205.61
4202.82
4205.7
4231.16
4240.76
4209.95
4202.36
4202.25
4203.96
2469.7
2473.84
2473.73
2469.71
2466.97
2467.1
2479.11
2484.42
2470.4
2467.88
2468.34
2467.96
1645.31
1649.6
1650.38
1646.84
1643.87
1642.88
1649.94
1653.6
1645.59
1644.68
1645.62
1645
1202.51
1206.9
1208.01
1204.67
1201.48
1199.99
1204.95
1207.84
1202.18
1201.61
1203.03
1202.93
943.104
947.427
948.524
945.352
942.073
940.38
944.345
946.796
942.057
941.273
943.171
943.977
780.909
784.962
785.852
782.904
779.694
777.945
781.21
783.421
779.118
777.881
780.232
782.048
673.681
677.321
677.881
675.219
672.238
670.497
673.138
675.196
671.202
669.452
672.216
675.043
599.082
602.232
602.401
600.079
597.462
595.739
597.71
599.683
596.034
593.809
596.92
600.641
544.572
547.215
546.993
545.05
542.898
541.169
542.382
544.323
541.13
538.518
541.883
546.31
502.787
504.945
504.373
502.841
501.217
499.443
499.81
501.761
499.149
496.26
499.769
504.678
469.226
470.94
470.088
468.997
467.933
466.077
465.532
467.518
465.603
462.542
466.074
471.235
441.049
442.358
441.31
440.688
440.187
438.23
436.748
438.773
437.642
434.499
437.928
443.126
416.401
417.332
416.172
416.045
416.092
414.038
411.637
413.687
413.391
410.24
413.44
418.477
394.034
394.596
393.399
393.791
394.355
392.24
388.98
391.024
391.577
388.477
391.328
396.031
373.084
373.273
372.095
373.028
374.067
371.952
367.964
369.928
371.307
368.313
370.701
375.056
353.024
352.75
351.623
353.109
354.577
352.542
347.996
349.849
351.941
349.113
350.937
354.886
333.432
332.691
331.536
333.576
335.615
333.694
328.684
330.388
333.024
330.419
331.659
335.064
314.093
312.765
311.671
314.28
316.84
315.152
309.774
311.202
314.25
311.912
312.618
315.317
294.718
292.765
291.77
294.97
298.034
296.65
291.142
292.121
295.519
293.506
293.654
295.501
275.25
272.634
271.713
275.509
279.057
278.055
272.625
273.055
276.659
275.047
274.586
275.565
255.696
252.386
251.498
255.843
259.885
259.347
254.158
253.981
257.574
256.435
255.358
255.537
236.12
232.1
231.191
236.02
240.563
240.557
235.772
234.931
238.291
237.654
236.027
235.506
216.625
211.904
210.914
216.142
221.187
221.767
217.529
215.977
218.894
218.776
216.695
215.596
197.35
191.963
190.834
196.359
201.894
203.091
199.514
197.227
199.515
199.915
197.498
195.955
178.453
172.463
171.146
176.856
182.849
184.666
181.832
178.809
180.324
181.23
178.598
176.722
160.102
153.598
152.062
157.837
164.235
166.647
164.593
160.868
161.525
162.907
160.178
158.012
142.457
135.547
133.784
139.517
146.243
149.195
147.911
143.547
143.339
145.155
142.428
140.099
125.662
118.459
116.477
122.089
129.05
132.476
131.895
126.978
125.981
128.172
125.519
123.315
109.864
102.451
100.263
105.733
112.826
116.635
116.653
111.285
109.615
112.108
109.618
107.794
95.1983
87.7573
85.3928
90.6101
97.7363
101.818
102.311
96.5911
94.3774
97.0991
94.8648
93.5443
81.762
74.4976
71.9948
76.8451
83.9011
88.1397
88.9763
83.0058
80.3836
83.2565
81.3568
80.4982
69.6031
62.6431
60.1009
64.4936
71.3818
75.6703
76.7143
70.6117
67.7183
70.6658
69.1452
68.7034
58.7395
52.1455
49.6979
53.578
60.201
64.4409
65.5667
59.4601
56.4298
59.3787
58.2457
58.1765
49.1572
42.9994
40.6856
44.08
50.3388
54.4514
55.55
49.567
46.5248
49.4103
48.6432
48.9028
40.8019
35.1432
32.9919
35.9323
41.7344
45.66
46.6535
40.9083
37.959
40.7333
40.2896
40.8245
33.5988
28.4896
26.5316
29.0485
34.3201
37.9976
38.8404
33.4381
30.6618
33.2784
33.1054
33.8552
27.4887
22.9594
21.215
23.3473
28.0439
31.4099
32.0774
27.114
24.568
26.9765
27.0182
27.9194
22.3991
18.4517
16.925
18.7207
22.8346
25.8403
26.3281
21.8685
19.5882
21.755
21.9521
22.9399
18.222
14.8352
13.5221
15.0305
18.5818
21.2008
21.5202
17.5939
15.5937
17.5041
17.7999
18.8175
14.8418
11.9767
10.8687
12.1374
15.1638
17.393
17.5621
14.1691
12.4436
14.0967
14.4463
15.4486
12.1426
9.74774
8.83343
9.90882
12.4564
14.3125
14.3536
11.4695
9.99779
11.4048
11.775
12.7269
10.0132
8.02984
7.29799
8.2233
10.3384
11.852
11.7912
9.3737
8.12565
9.30584
9.67371
10.5506
8.35075
6.71805
6.16019
6.96973
8.69608
9.90724
9.77347
7.76985
6.71219
7.68749
8.03855
8.8257
7.06333
5.72286
5.33225
6.02299
7.42668
8.3815
8.20408
6.56171
5.66126
6.4506
6.7767
7.46861
6.07167
4.97062
4.71412
5.29036
6.44294
7.18993
6.99542
5.67493
4.89969
5.51086
5.80829
6.40695
5.30958
4.40296
4.2406
4.71782
5.67634
6.26113
6.07092
5.00594
4.35706
4.79891
5.06716
5.57965
4.72373
3.9753
3.87419
4.26857
5.0771
5.53742
5.3668
4.49407
3.95289
4.25972
4.50021
4.9364
4.27253
3.65501
3.58947
3.91624
4.60214
4.97381
4.83241
4.10075
3.64507
3.85134
4.06595
4.43702
3.92439
3.41571
3.36803
3.63974
4.21873
4.53404
4.42505
3.79443
3.40813
3.54192
3.73257
4.04968
3.65199
3.23261
3.1961
3.42156
3.9088
4.18406
4.10631
3.55409
3.22499
3.30752
3.47602
3.75008
3.43455
3.09089
3.06267
3.24969
3.66026
3.9014
3.85262
3.37034
3.08332
3.13019
3.27825
3.51951
3.26081
2.9804
2.95868
3.11499
3.46274
3.67513
3.65311
3.23234
2.97472
2.99637
3.12566
3.34076
3.12401
2.89402
2.87692
3.00964
3.30694
3.4962
3.49834
3.12865
2.89156
2.8958
3.00792
3.19969
3.01792
2.82675
2.81219
2.9271
3.18492
3.35633
3.37857
3.04959
2.82793
2.82065
2.91729
3.08894
2.93625
2.77464
2.76199
2.86262
3.08976
3.24778
3.28432
2.9872
2.7794
2.76521
2.84792
3.00218
2.87323
2.73427
2.72314
2.81226
3.01516
3.16341
3.20729
2.93524
2.742
2.72762
2.79504
2.9328
2.82409
2.70276
2.69317
2.77277
2.95617
3.0971
3.14097
2.88936
2.7126
2.70125
2.75479
2.87928
2.78513
2.67805
2.67017
2.74178
2.90906
3.0439
3.08075
2.84675
2.68861
2.68102
2.72423
2.8374
2.75363
2.65862
2.65264
2.71747
2.87102
2.99992
3.02385
2.80586
2.66828
2.66495
2.701
2.80331
2.72763
2.64324
2.63947
2.69855
2.83978
2.96229
2.96906
2.76539
2.65067
2.65268
2.68335
2.77502
2.70575
2.63103
2.62985
2.68398
2.81416
2.92892
2.91641
2.72507
2.63451
2.64527
2.66994
2.75088
2.68706
2.62139
2.62326
2.67301
2.79361
2.8985
2.86684
2.68898
2.61957
2.64042
2.65976
2.72978
2.67095
2.61398
2.61936
2.6652
2.77751
2.87035
2.82195
2.65876
2.6064
2.63691
2.65199
2.71106
2.65705
2.60871
2.61797
2.66032
2.76555
2.84431
2.7842
2.63489
2.59477
2.63388
2.64606
2.69438
2.64519
2.60545
2.61899
2.65825
2.7575
2.82058
2.75814
2.6201
2.58482
2.63077
2.64154
2.67965
2.63524
2.60408
2.62245
2.65894
2.75304
2.79938
2.7383
2.61034
2.57677
2.62727
2.63814
2.6669
2.62714
2.60452
2.62848
2.66222
2.75202
2.78093
2.72119
2.60327
2.57055
2.62349
2.63567
2.6562
2.62082
2.60664
2.63774
2.66871
2.75429
2.76527
2.70721
2.59856
2.5662
2.61949
2.63398
2.64765
2.61622
2.6103
2.64858
2.67887
2.75975
2.75144
2.69658
2.59631
2.56368
2.61505
2.63299
2.64121
2.61324
2.61529
2.66073
2.69245
2.76804
2.7411
2.6893
2.59657
2.56292
2.61032
2.63262
2.63679
2.61177
2.62134
2.67342
2.70899
2.77863
2.73458
2.68531
2.59926
2.56369
2.60555
2.6328
2.63431
2.61166
2.62817
2.6877
2.72792
2.79077
2.73154
2.68423
2.60423
2.56598
2.60142
2.63343
2.63365
2.61272
2.63545
2.70344
2.74845
2.80353
2.73159
2.68565
2.61131
2.56968
2.59847
2.63443
2.63462
2.6148
2.64281
2.71977
2.76955
2.81583
2.73428
2.68921
2.62034
2.57471
2.59729
2.63571
2.63705
2.61776
2.64997
2.73556
2.78996
2.82658
2.73916
2.69458
2.63115
2.5811
2.59892
2.63731
2.64074
2.62156
2.6567
2.74985
2.80833
2.83486
2.74528
2.70161
2.64378
2.58895
2.60147
2.63936
2.64555
156509
156509
156509
156509
156509
156509
156509
156509
156509
156509
156509
156509
25881.8
25885.1
25885.9
25882.9
25881.7
25879.6
25879
25882
25883.7
25887
25887.8
25883.1
8925.24
8928.54
8929.37
8926.57
8925.23
8923.25
8923.05
8925.61
8926.67
8929.28
8930.13
8926.46
4296.7
4300.21
4301.16
4298.42
4296.74
4294.81
4295.01
4297.29
4297.6
4299.58
4300.62
4297.94
2511.07
2514.94
2516.01
2513.16
2511.04
2509.05
2509.59
2511.79
2511.43
2512.8
2514.13
2512.41
1669.29
1673.47
1674.58
1671.6
1669.08
1667
1667.77
1669.99
1669.07
1669.78
1671.44
1670.74
1218.81
1223.12
1224.15
1221.13
1218.34
1216.19
1217.02
1219.3
1217.99
1217.98
1219.97
1220.35
955.633
959.864
960.725
957.779
954.875
952.694
953.362
955.732
954.261
953.506
955.796
957.233
791.023
795.003
795.624
792.851
789.992
787.818
788.193
790.621
789.198
787.731
790.265
792.689
682.017
685.645
686.002
683.485
680.803
678.641
678.541
681.051
679.895
677.812
680.489
683.689
605.969
609.21
609.326
607.123
604.711
602.543
601.821
604.426
603.739
601.175
603.882
607.599
550.206
553.072
553.003
551.157
549.072
546.871
545.424
548.125
548.065
545.171
547.794
551.753
507.293
509.814
509.636
508.18
506.45
504.191
501.975
504.754
505.426
502.346
504.774
508.715
472.69
474.892
474.682
473.65
472.282
469.961
466.984
469.804
471.254
468.113
470.246
473.94
443.529
445.416
445.241
444.671
443.666
441.298
437.619
440.42
442.643
439.54
441.296
444.557
417.937
419.482
419.391
419.327
418.691
416.318
412.03
414.732
417.677
414.696
416.009
418.689
394.659
395.804
395.825
396.319
396.07
393.75
388.972
391.475
395.058
392.271
393.092
395.081
372.834
373.5
373.649
374.75
374.812
372.718
367.581
369.774
373.885
371.367
371.659
372.849
351.854
351.915
352.132
353.856
354.339
352.519
347.241
349.004
353.38
351.373
351.097
351.435
331.241
330.578
330.857
333.246
334.251
332.769
327.522
328.676
333.16
331.659
330.99
330.456
310.686
309.282
309.555
312.661
314.286
313.169
308.063
308.599
312.994
311.956
310.911
309.683
290.178
287.925
288.139
291.966
294.281
293.61
288.681
288.602
292.68
292.125
290.678
288.999
269.628
266.455
266.557
271.086
274.164
274.01
269.383
268.6
272.134
272.098
270.326
268.371
249.023
244.899
244.843
250.034
253.934
254.354
250.178
248.582
251.359
251.842
249.881
247.826
228.41
223.345
223.095
228.881
233.647
234.683
231.075
228.589
230.421
231.394
229.37
227.44
207.875
201.918
201.453
207.749
213.393
215.072
212.121
208.704
209.44
210.844
208.862
207.318
187.528
180.77
180.084
186.782
193.285
195.619
193.39
189.038
188.565
190.309
188.453
187.582
167.488
160.054
159.158
166.137
173.437
176.428
174.973
169.719
167.959
169.922
168.242
168.353
147.878
139.935
138.862
145.972
153.961
157.592
156.968
150.883
147.781
149.82
148.358
149.767
128.955
120.822
119.648
126.644
135.09
139.22
139.469
132.657
128.263
130.361
129.396
132.143
111.428
103.404
102.214
108.908
117.549
121.799
122.587
115.233
110.111
112.346
111.976
115.743
95.558
87.8502
86.7104
92.9482
101.602
105.829
106.717
99.1287
93.6862
96.0052
96.1905
100.614
81.3406
74.006
72.9569
78.7258
87.2307
91.3827
92.2517
84.6214
79.0266
81.3544
82.0129
86.8101
68.7239
61.7621
60.8354
66.1563
74.3705
78.4197
79.2446
71.7181
66.1042
68.3651
69.3986
74.4268
57.648
51.1319
50.2851
55.1777
62.9768
66.8806
67.6536
60.3654
54.8677
56.9916
58.2971
63.4157
48.0482
42.095
41.248
45.731
53.0058
56.7085
57.4215
50.4945
45.2426
47.1731
48.6509
53.7245
39.8487
34.5193
33.698
37.7423
44.4045
47.8497
48.4862
42.0161
37.1277
38.8312
40.3921
45.2944
32.9074
28.2074
27.4643
31.0303
37.0411
40.2062
40.7461
34.7317
30.282
31.8361
33.4265
38.0382
26.9927
22.9167
22.3138
25.3527
30.6954
33.5627
34.0046
28.4862
24.519
25.922
27.5033
31.7461
22.0194
18.55
18.0917
20.6368
25.2962
27.8245
28.1765
23.2623
19.7999
20.9706
22.4829
26.2934
17.9632
15.0513
14.6891
16.8362
20.8364
23.0151
23.273
18.9753
16.0127
16.962
18.362
21.6991
14.6962
12.2862
11.9952
13.8069
17.1959
19.0335
19.2006
15.503
13.0099
13.7583
15.0263
17.8885
12.0927
10.1219
9.89414
11.412
14.2527
15.7715
15.858
12.7238
10.6519
11.2265
12.3545
14.7631
10.0352
8.43965
8.2652
9.52772
11.8906
13.1228
13.1434
10.5221
8.81153
9.2443
10.2329
12.2266
8.4186
7.13733
7.00423
8.04715
10.0052
10.9886
10.9595
8.79235
7.37912
7.7034
8.55916
10.1881
7.15278
6.13036
6.02611
6.88331
8.50589
9.281
9.21656
7.4409
6.26955
6.51159
7.24474
8.56468
6.16298
5.35077
5.26483
5.9697
7.31688
7.92324
7.8349
6.38779
5.42684
5.59254
6.21543
7.28203
5.38887
4.74517
4.67243
5.25315
6.37438
6.8491
6.74573
5.56676
4.78536
4.8838
5.41093
6.27527
4.78259
4.27191
4.21184
4.69026
5.62749
6.00136
5.8911
4.92696
4.29267
4.33211
4.78307
5.48885
4.30638
3.89883
3.85345
4.24748
5.0384
5.33331
5.22288
4.43037
3.91189
3.90211
4.29345
4.87577
3.93162
3.608
3.57435
3.89972
4.56788
4.80977
4.70166
4.04521
3.61649
3.57518
3.91194
4.39766
3.63736
3.3827
3.3571
3.62734
4.18679
4.39504
4.29677
3.74537
3.38705
3.33
3.61523
4.02514
3.40796
3.2083
3.18834
3.41244
3.88116
4.06198
3.98016
3.51025
3.20903
3.14797
3.38515
3.73677
3.2299
3.07218
3.0578
3.2426
3.63917
3.79714
3.72944
3.32421
3.07061
3.01405
3.20779
3.51339
3.09155
2.96586
2.95745
3.10996
3.44911
3.58986
3.53257
3.17668
2.96512
2.9157
3.07168
3.33985
2.98446
2.88289
2.88052
3.00726
3.30023
3.42929
3.38061
3.05941
2.88427
2.84366
2.96641
3.20666
2.90219
2.81833
2.82268
2.92801
3.18338
3.30513
3.26365
2.96644
2.82212
2.79109
2.88662
3.10658
2.83912
2.76829
2.77877
2.86704
3.09113
3.20846
3.17236
2.89208
2.77441
2.7528
2.82892
3.0329
2.79058
2.7295
2.74504
2.82016
3.01784
3.13201
3.09899
2.83169
2.73736
2.72338
2.78639
2.97993
2.7528
2.69933
2.71893
2.78389
2.95898
3.07012
3.03755
2.78232
2.70746
2.6996
2.75407
2.93751
2.72278
2.67573
2.69885
2.7552
2.91114
3.01852
2.98393
2.74173
2.68273
2.67998
2.72861
2.90041
2.69833
2.65716
2.68345
2.73208
2.87187
2.97406
2.93577
2.70859
2.66182
2.66342
2.70835
2.86518
2.67795
2.64237
2.67168
2.7131
2.83942
2.93458
2.89217
2.68339
2.64381
2.64909
2.692
2.8351
2.66039
2.63052
2.66268
2.69751
2.81252
2.89874
2.8534
2.66603
2.6281
2.63641
2.67861
2.8081
2.64506
2.62105
2.65597
2.68481
2.79031
2.8658
2.82045
2.65182
2.61431
2.62502
2.66753
2.78323
2.63181
2.61367
2.65123
2.67473
2.77223
2.83545
2.79428
2.63901
2.6022
2.61493
2.6584
2.76018
2.62062
2.60826
2.64822
2.66723
2.75774
2.8079
2.7744
2.62776
2.5917
2.60638
2.65104
2.73907
2.61153
2.60474
2.64676
2.66248
2.7465
2.78319
2.75698
2.61828
2.58278
2.59944
2.64539
2.72018
2.60444
2.60303
2.64679
2.66064
2.7385
2.76078
2.74198
2.61084
2.57548
2.59417
2.64149
2.70381
2.59934
2.60305
2.64823
2.66182
2.73376
2.74195
2.72998
2.60578
2.56987
2.59027
2.63935
2.69024
2.59617
2.60469
2.65048
2.66594
2.73224
2.7272
2.72119
2.60321
2.56598
2.58766
2.63896
2.67961
2.59482
2.60783
2.65538
2.67298
2.73378
2.71731
2.71565
2.6032
2.56383
2.58658
2.64013
2.67192
2.59513
2.61225
2.6629
2.68284
2.73818
2.7102
2.71315
2.6057
2.56339
2.58696
2.64263
2.66694
2.59687
2.61766
2.67256
2.69524
2.74497
2.70507
2.71325
2.61059
2.56459
2.58863
2.64609
2.66427
2.5998
2.62371
2.6836
2.70971
2.75352
2.70165
2.71534
2.61759
2.56729
2.59096
2.6501
2.66345
2.60365
2.63
2.69535
2.72555
2.76306
2.6996
2.7188
2.62638
2.57131
2.59354
2.6542
2.66401
2.60817
2.63617
2.70708
2.74186
2.77269
2.69861
2.72302
2.63657
2.57652
2.59623
2.65799
2.66542
2.6132
2.64192
2.71802
2.75757
2.78151
2.69831
2.72767
2.64785
2.58284
2.59917
2.66119
2.66723
2.61859
2.6471
2.72748
2.77156
2.78873
2.69904
2.73262
2.66005
2.59033
2.60277
2.66373
2.66923
156509
156509
156509
156509
156509
156509
156509
156509
156509
156509
156509
156509
25862.5
25867
25867.5
25863.9
25863
25860.7
25859.8
25863.3
25864.6
25867.7
25868.7
25864.1
8659.12
8663.84
8663.54
8660.04
8659.85
8658.59
8658.71
8664.71
8663.73
8660.39
8660.21
8658.12
4210.69
4215.11
4215.57
4212.37
4211.07
4209.32
4209.49
4213.12
4212.67
4212.4
4213.17
4211.27
2478.67
2483.21
2483.98
2480.77
2478.77
2476.82
2477.14
2480.14
2479.59
2479.68
2480.84
2479.67
1657.52
1662.22
1663.11
1659.84
1657.31
1655.25
1655.59
1658.45
1657.84
1657.56
1658.96
1658.61
1216.19
1220.9
1221.82
1218.54
1215.65
1213.53
1213.69
1216.6
1216.11
1215.24
1216.78
1217.23
957.185
961.769
962.628
959.453
956.347
954.213
954.005
957.018
956.874
955.435
956.965
958.091
794.696
799.034
799.803
796.827
793.647
791.515
790.759
793.885
794.31
792.396
793.835
795.36
686.69
690.723
691.408
688.705
685.558
683.429
681.999
685.222
686.385
684.156
685.415
687.067
610.987
614.703
615.344
612.964
609.92
607.787
605.622
608.907
610.905
608.544
609.54
611.047
555.175
558.586
559.232
557.212
554.309
552.169
549.277
552.571
555.424
553.104
553.774
554.893
511.974
515.088
515.786
514.154
511.41
509.277
505.727
508.959
512.613
510.483
510.788
511.334
476.938
479.739
480.519
479.304
476.734
474.642
470.551
473.633
477.971
476.153
476.083
475.934
447.251
449.691
450.554
449.793
447.418
445.425
440.94
443.771
448.63
447.217
446.788
445.888
421.067
423.057
423.981
423.717
421.58
419.758
415.043
417.511
422.693
421.758
421.014
419.365
397.132
398.556
399.492
399.779
397.944
396.375
391.599
393.588
398.87
398.463
397.477
395.133
374.578
375.301
376.178
377.079
375.761
374.413
369.731
371.124
376.268
376.409
375.284
372.352
352.802
352.735
353.536
355.15
354.461
353.373
348.824
349.511
354.423
354.936
353.811
350.461
331.429
330.48
331.17
333.538
333.527
332.813
328.451
328.397
332.859
333.801
332.631
329.105
310.183
308.259
308.803
311.944
312.718
312.431
308.415
307.562
311.258
312.69
311.589
308.077
288.911
285.976
286.325
290.232
291.908
292.084
288.505
286.752
289.504
291.394
290.483
287.312
267.571
263.636
263.756
268.39
271.065
271.72
268.617
265.92
267.586
269.831
269.22
266.699
246.203
241.325
241.197
246.492
250.227
251.363
248.745
245.098
245.582
248.066
247.843
246.215
224.913
219.191
218.814
224.676
229.491
231.094
228.943
224.374
223.64
226.238
226.465
225.928
203.854
197.428
196.817
203.129
208.993
211.034
209.308
203.886
201.957
204.544
205.253
205.942
183.213
176.257
175.441
182.067
188.901
191.336
189.972
183.799
180.761
183.221
184.412
186.38
163.199
155.904
154.928
161.72
169.392
172.169
171.095
164.301
160.295
162.527
164.171
167.379
144.02
136.589
135.509
142.314
150.646
153.704
152.844
145.583
140.792
142.721
144.76
149.083
125.869
118.5
117.377
124.053
132.819
136.104
135.393
127.825
122.455
124.038
126.388
131.645
108.908
101.774
100.665
107.089
116.047
119.501
118.898
111.184
105.433
106.658
109.23
115.236
93.2684
86.5083
85.4628
91.5377
100.458
104.01
103.494
95.7764
89.8367
90.7201
93.4295
100.006
79.0512
72.7651
71.8374
77.4867
86.1643
89.7287
89.2733
81.6868
75.7422
76.3225
79.0923
86.0536
66.3169
60.5513
59.8117
64.9833
73.2415
76.7276
76.3051
68.9707
63.2213
63.5172
66.2827
73.4307
55.0835
49.9573
49.3603
54.0221
61.7194
65.0426
64.628
57.6504
52.276
52.3084
55.0181
62.1528
45.3175
40.8989
40.3992
44.5363
51.5724
54.6629
54.238
47.7053
42.8134
42.6462
45.2612
52.1996
36.9371
33.188
32.8042
36.4223
42.7371
45.5432
45.0983
39.0872
34.7308
34.4323
36.9205
43.5099
29.8492
26.7187
26.4553
29.5822
35.1513
37.6364
37.1711
31.7472
27.9442
27.5562
29.8829
36.0024
23.9654
21.3976
21.2396
23.9207
28.7543
30.8995
30.4149
25.6148
22.3592
21.9154
24.0463
29.6093
19.1718
17.1011
17.0312
19.313
23.4498
25.2572
24.7546
20.5798
17.8459
17.3824
19.2963
24.2556
15.3285
13.6862
13.6905
15.6154
19.1133
20.6
20.083
16.5136
14.2611
13.8035
15.491
19.8344
12.2942
11.0118
11.0761
12.6878
15.6163
16.8099
16.2835
13.2824
11.4631
11.0244
12.486
16.2295
9.93222
8.9457
9.05561
10.3991
12.8333
13.768
13.2372
10.754
9.3181
8.8986
10.1432
13.3253
8.11727
7.36869
7.51131
8.62938
10.6456
11.3585
10.8284
8.80349
7.70339
7.29289
8.33634
11.0112
6.73804
6.17713
6.34176
7.27332
8.94416
9.47215
8.94808
7.31695
6.50681
6.09196
6.95443
9.18448
5.69931
5.28422
5.46172
6.24126
7.63257
8.00983
7.49666
6.19452
5.62146
5.20026
5.90315
7.7535
4.92236
4.62012
4.8021
5.45975
6.6288
6.88484
6.38621
5.35162
4.9453
4.54176
5.10602
6.63913
4.34426
4.13086
4.309
4.86009
5.84464
6.02469
5.54172
4.71893
4.42357
4.05869
4.50503
5.77571
3.91601
3.77088
3.93595
4.38705
5.21374
5.35496
4.9014
4.24145
4.01988
3.71154
4.05582
5.11086
3.59213
3.50313
3.64705
4.01019
4.7051
4.81923
4.41505
3.87522
3.70755
3.46433
3.71776
4.59516
3.34258
3.29684
3.4212
3.7124
4.29907
4.38967
4.03757
3.59017
3.46617
3.28062
3.4609
4.18697
3.15296
3.13577
3.2456
3.47953
3.97836
4.04922
3.73995
3.36696
3.27987
3.14121
3.26616
3.86267
3.01166
3.01071
3.11044
3.29926
3.72645
3.78333
3.50876
3.19355
3.13634
3.03332
3.11651
3.60898
2.90844
2.91636
3.00749
3.16067
3.52846
3.57795
3.33281
3.06168
3.02655
2.94851
3.00869
3.41448
2.83399
2.84635
2.92967
3.0542
3.37196
3.41992
3.20071
2.96284
2.9399
2.88157
2.93196
3.26835
2.77918
2.79473
2.87095
2.97194
3.2471
3.2978
3.10179
2.88972
2.87157
2.82854
2.87864
3.16048
2.73911
2.75626
2.82621
2.90766
3.14638
3.20231
3.02733
2.83502
2.81748
2.78627
2.83964
3.08162
2.71005
2.7267
2.79229
2.85663
3.06428
3.12622
2.97064
2.79345
2.77433
2.75227
2.80682
3.02377
2.68787
2.70308
2.76659
2.81549
2.99672
3.06407
2.92658
2.76112
2.73961
2.72463
2.77918
2.98052
2.66999
2.68346
2.7465
2.78191
2.9407
3.01189
2.89055
2.73505
2.71112
2.7017
2.75616
2.94759
2.65492
2.66677
2.72981
2.75433
2.89388
2.96684
2.86065
2.71339
2.68728
2.68224
2.737
2.92202
2.64173
2.65229
2.7152
2.73151
2.85449
2.92701
2.83643
2.69507
2.66695
2.66535
2.72024
2.90212
2.62989
2.63979
2.70204
2.71255
2.82112
2.89119
2.81703
2.6793
2.6493
2.65042
2.70507
2.87978
2.61947
2.62904
2.69015
2.69674
2.79271
2.85867
2.80192
2.66564
2.63382
2.63709
2.69118
2.85589
2.61046
2.61983
2.67946
2.68365
2.76852
2.82914
2.79041
2.65401
2.6202
2.62517
2.67862
2.83144
2.60273
2.61211
2.67001
2.67291
2.74798
2.80131
2.78163
2.64445
2.60831
2.61465
2.66762
2.8074
2.5962
2.6059
2.662
2.66429
2.73063
2.77873
2.77435
2.63704
2.59811
2.60557
2.65855
2.78475
2.59081
2.60127
2.65577
2.65769
2.71629
2.76054
2.76846
2.63183
2.58966
2.59805
2.65179
2.76435
2.5868
2.59832
2.65153
2.65312
2.70503
2.74669
2.76499
2.6289
2.58301
2.59224
2.64771
2.74691
2.58417
2.5971
2.6495
2.6506
2.69677
2.73512
2.76444
2.62836
2.57822
2.58824
2.6466
2.73296
2.583
2.59756
2.64945
2.65003
2.6913
2.7253
2.76692
2.63024
2.57532
2.58607
2.6489
2.72288
2.58326
2.59958
2.65115
2.6516
2.68791
2.71726
2.77238
2.63459