/*--------------------------------*- C++ -*----------------------------------*\
| =========                 |                                                 |
| \\      /  F ield         | OpenFOAM: The Open Source CFD Toolbox           |
|  \\    /   O peration     | Version:  v1912                                 |
|   \\  /    A nd           | Website:  www.openfoam.com                      |
|    \\/     M anipulation  |                                                 |
\*---------------------------------------------------------------------------*/
FoamFile
{
    version     2.0;
    format      ascii;
    class       surfaceScalarField;
    location    "11.2";
    object      phi;
}
// * * * * * * * * * * * * * * * * * * * * * * * * * * * * * * * * * * * * * //

dimensions      [1 0 -1 0 0 0 0];
oriented        oriented;


internalField   nonuniform List<scalar> 
97428
(
-2.38567e-09
8.55116e-09
-2.49436e-07
-1.12082e-09
7.48561e-09
-2.5636e-07
7.2613e-10
6.88477e-09
-2.59792e-07
1.52859e-09
7.51871e-09
-2.55582e-07
8.66234e-10
8.51594e-09
-2.51004e-07
2.18195e-11
9.06302e-09
-2.47369e-07
3.57153e-10
9.02001e-09
-2.48622e-07
1.27e-09
8.1852e-09
-2.51768e-07
4.58773e-10
8.16015e-09
-2.52051e-07
-1.90692e-09
8.80374e-09
-2.5522e-07
-3.26428e-09
8.42025e-09
-2.55414e-07
7.68022e-09
-2.50705e-07
-6.85536e-09
3.39658e-08
-7.72642e-07
-3.27235e-09
2.97802e-08
-7.93498e-07
1.87892e-09
2.75409e-08
-8.03798e-07
4.13156e-09
2.98743e-08
-7.91209e-07
2.40568e-09
3.34544e-08
-7.77426e-07
1.4139e-10
3.56453e-08
-7.66543e-07
1.3479e-09
3.55637e-08
-7.70397e-07
3.86769e-09
3.26429e-08
-7.79704e-07
1.01822e-09
3.27136e-08
-7.80264e-07
-6.1533e-09
3.48562e-08
-7.89567e-07
-9.96213e-09
3.29803e-08
-7.90278e-07
3.03446e-08
-7.76513e-07
-1.10818e-08
7.60944e-08
-1.3279e-06
-5.29182e-09
6.68095e-08
-1.36299e-06
2.87389e-09
6.19955e-08
-1.3802e-06
6.43066e-09
6.70026e-08
-1.35913e-06
3.80522e-09
7.4494e-08
-1.33593e-06
3.30174e-10
7.94018e-08
-1.31779e-06
2.50067e-09
7.93909e-08
-1.32452e-06
6.46422e-09
7.33827e-08
-1.33989e-06
1.29046e-09
7.37547e-08
-1.34016e-06
-1.07866e-08
7.79339e-08
-1.35528e-06
-1.68923e-08
7.32517e-08
-1.35678e-06
6.77931e-08
-1.33451e-06
-1.50409e-08
1.34572e-07
-1.91328e-06
-7.10859e-09
1.18276e-07
-1.96276e-06
3.79493e-09
1.10028e-07
-1.98683e-06
8.50108e-09
1.18651e-07
-1.95726e-06
5.11632e-09
1.31203e-07
-1.92446e-06
6.23927e-10
1.39864e-07
-1.89915e-06
3.74091e-09
1.4015e-07
-1.90917e-06
8.97934e-09
1.30205e-07
-1.93041e-06
1.31474e-09
1.31112e-07
-1.92955e-06
-1.57087e-08
1.37603e-07
-1.94992e-06
-2.39748e-08
1.28695e-07
-1.9526e-06
1.19687e-07
-1.92273e-06
-1.87183e-08
2.08868e-07
-2.5265e-06
-8.66523e-09
1.83656e-07
-2.59034e-06
4.6993e-09
1.71182e-07
-2.62112e-06
1.03982e-08
1.84371e-07
-2.58312e-06
6.41229e-09
2.02989e-07
-2.54061e-06
1.08589e-09
2.16423e-07
-2.50833e-06
5.04044e-09
2.17338e-07
-2.52216e-06
1.13541e-08
2.02712e-07
-2.54897e-06
1.10801e-09
2.04394e-07
-2.54594e-06
-2.08523e-08
2.13236e-07
-2.57076e-06
-3.11178e-08
1.98621e-07
-2.57506e-06
1.85556e-07
-2.53888e-06
-2.21113e-08
2.98304e-07
-3.16505e-06
-9.92765e-09
2.62226e-07
-3.24295e-06
5.63076e-09
2.44779e-07
-3.28016e-06
1.21801e-08
2.6351e-07
-3.23395e-06
7.78073e-09
2.89095e-07
-3.18169e-06
1.80058e-09
3.08323e-07
-3.14278e-06
6.38989e-09
3.10292e-07
-3.16097e-06
1.35388e-08
2.90312e-07
-3.19298e-06
6.85031e-10
2.93018e-07
-3.18662e-06
-2.6154e-08
3.04036e-07
-3.21485e-06
-3.82295e-08
2.82209e-07
-3.22125e-06
2.64791e-07
-3.18038e-06
-2.52307e-08
4.02094e-07
-3.82628e-06
-1.08851e-08
3.53109e-07
-3.91763e-06
6.62224e-09
3.29952e-07
-3.96089e-06
1.39093e-08
3.55233e-07
-3.90681e-06
9.3222e-09
3.88618e-07
-3.84486e-06
2.87038e-09
4.14677e-07
-3.79976e-06
7.79566e-09
4.18204e-07
-3.82287e-06
1.54922e-08
3.92252e-07
-3.85966e-06
6.13302e-11
3.96252e-07
-3.84875e-06
-3.15439e-08
4.09079e-07
-3.87914e-06
-4.5207e-08
3.78549e-07
-3.88818e-06
3.56673e-07
-3.84454e-06
-2.81025e-08
5.19385e-07
-4.50756e-06
-1.15503e-08
4.55338e-07
-4.61147e-06
7.69767e-09
4.25702e-07
-4.66022e-06
1.56537e-08
4.58564e-07
-4.59875e-06
1.11471e-08
5.00546e-07
-4.5273e-06
4.40944e-09
5.34506e-07
-4.47653e-06
9.27638e-09
5.40152e-07
-4.50507e-06
1.71826e-08
5.07658e-07
-4.54616e-06
-6.96217e-10
5.13219e-07
-4.52957e-06
-3.69405e-08
5.27412e-07
-4.5607e-06
-5.19346e-08
4.86695e-07
-4.57296e-06
4.60404e-07
-4.5287e-06
-3.07685e-08
6.49299e-07
-5.20646e-06
-1.19586e-08
5.67927e-07
-5.32176e-06
8.87369e-09
5.30975e-07
-5.37531e-06
1.74881e-08
5.72446e-07
-5.30702e-06
1.33723e-08
6.23828e-07
-5.22638e-06
6.53728e-09
6.6679e-07
-5.17051e-06
1.08595e-08
6.75151e-07
-5.20482e-06
1.85889e-08
6.35598e-07
-5.24978e-06
-1.59146e-09
6.43041e-07
-5.22651e-06
-4.22479e-08
6.58048e-07
-5.25689e-06
-5.82833e-08
6.05731e-07
-5.27302e-06
5.75148e-07
-5.23044e-06
-3.32864e-08
7.90974e-07
-5.92087e-06
-1.21665e-08
6.89937e-07
-6.04626e-06
1.01611e-08
6.4473e-07
-6.10377e-06
1.94934e-08
6.95816e-07
-6.02922e-06
1.61178e-08
7.57443e-07
-5.93984e-06
9.37283e-09
8.10536e-07
-5.87946e-06
1.25781e-08
8.22218e-07
-5.91967e-06
1.97014e-08
7.75149e-07
-5.96815e-06
-2.55758e-09
7.84851e-07
-5.93741e-06
-4.73545e-08
8.00107e-07
-5.96555e-06
-6.41126e-08
7.34828e-07
-5.98628e-06
7.00059e-07
-5.94771e-06
-3.57294e-08
9.43596e-07
-6.64909e-06
-1.22494e-08
8.20514e-07
-6.78326e-06
1.15662e-08
7.66008e-07
-6.84377e-06
2.17568e-08
8.27673e-07
-6.76351e-06
1.95039e-08
9.00472e-07
-6.66599e-06
1.30293e-08
9.64837e-07
-6.60161e-06
1.44679e-08
9.80435e-07
-6.64756e-06
2.05222e-08
9.25453e-07
-6.69931e-06
-3.52598e-09
9.37861e-07
-6.66061e-06
-5.21324e-08
9.52869e-07
-6.68511e-06
-6.92722e-08
8.7328e-07
-6.71128e-06
8.34295e-07
-6.67894e-06
-3.81844e-08
1.10641e-06
-7.38989e-06
-1.22996e-08
9.58912e-07
-7.53162e-06
1.30911e-08
8.93964e-07
-7.59411e-06
2.43711e-08
9.67138e-07
-7.50864e-06
2.36481e-08
1.05215e-06
-7.40368e-06
1.76101e-08
1.12891e-06
-7.33572e-06
1.65653e-08
1.149e-06
-7.38691e-06
2.10655e-08
1.08576e-06
-7.44185e-06
-4.41335e-09
1.10139e-06
-7.39499e-06
-5.6437e-08
1.1158e-06
-7.41466e-06
-7.36025e-08
1.0205e-06
-7.44713e-06
9.7701e-07
-7.42301e-06
-4.07508e-08
1.27874e-06
-8.14249e-06
-1.24235e-08
1.10446e-06
-8.29076e-06
1.47346e-08
1.02787e-06
-8.35421e-06
2.74338e-08
1.11345e-06
-8.26397e-06
2.86641e-08
1.21184e-06
-8.15243e-06
2.32052e-08
1.30209e-06
-8.0811e-06
1.89046e-08
1.32726e-06
-8.13667e-06
2.13572e-08
1.25543e-06
-8.19487e-06
-5.12084e-09
1.27487e-06
-8.14002e-06
-6.01065e-08
1.28854e-06
-8.15391e-06
-7.69365e-08
1.176e-06
-8.19354e-06
1.12734e-06
-8.17926e-06
-4.3537e-08
1.45992e-06
-8.90637e-06
-1.27395e-08
1.25656e-06
-9.06034e-06
1.64919e-08
1.16708e-06
-9.12383e-06
3.10449e-08
1.26597e-06
-9.02926e-06
3.46568e-08
1.37903e-06
-8.91209e-06
2.98865e-08
1.48383e-06
-8.8374e-06
2.1516e-08
1.51471e-06
-8.89614e-06
2.14348e-08
1.43392e-06
-8.9578e-06
-5.53369e-09
1.45779e-06
-8.89551e-06
-6.29611e-08
1.47082e-06
-8.90295e-06
-7.90991e-08
1.33929e-06
-8.95046e-06
1.28439e-06
-8.94724e-06
-4.66566e-08
1.64936e-06
-9.68101e-06
-1.33743e-08
1.4146e-06
-9.8401e-06
1.83533e-08
1.311e-06
-9.90285e-06
3.53032e-08
1.42411e-06
-9.80442e-06
4.17173e-08
1.55326e-06
-9.68262e-06
3.77009e-08
1.67366e-06
-9.60434e-06
2.44224e-08
1.71099e-06
-9.66472e-06
2.13471e-08
1.62079e-06
-9.73016e-06
-5.52182e-09
1.64964e-06
-9.66135e-06
-6.48038e-08
1.66235e-06
-9.66197e-06
-7.99112e-08
1.50987e-06
-9.71786e-06
1.44724e-06
-9.72647e-06
-5.02238e-08
1.84648e-06
-1.04659e-05
-1.44585e-08
1.57797e-06
-1.06297e-05
2.03044e-08
1.459e-06
-1.06911e-05
4.03022e-08
1.58724e-06
-1.05894e-05
4.99172e-08
1.73406e-06
-1.0464e-05
4.66655e-08
1.87117e-06
-1.03817e-05
2.76379e-08
1.91589e-06
-1.04419e-05
2.11547e-08
1.81565e-06
-1.05115e-05
-4.94224e-09
1.84986e-06
-1.04374e-05
-6.54259e-08
1.86278e-06
-1.04311e-05
-7.91954e-08
1.68713e-06
-1.04956e-05
1.61497e-06
-1.05164e-05
-5.4347e-08
2.05067e-06
-1.12605e-05
-1.612e-08
1.74596e-06
-1.14287e-05
2.23253e-08
1.61035e-06
-1.14884e-05
4.61245e-08
1.75461e-06
-1.1384e-05
5.9302e-08
1.9208e-06
-1.1256e-05
5.67606e-08
2.0759e-06
-1.11691e-05
3.11656e-08
2.12926e-06
-1.12273e-05
2.09295e-08
2.01808e-06
-1.13015e-05
-3.64341e-09
2.05775e-06
-1.12235e-05
-6.46147e-08
2.07152e-06
-1.12101e-05
-7.67854e-08
1.87032e-06
-1.12834e-05
1.78662e-06
-1.13165e-05
-5.91205e-08
2.26126e-06
-1.20639e-05
-1.84757e-08
1.91773e-06
-1.22362e-05
2.43905e-08
1.76409e-06
-1.2294e-05
5.28345e-08
1.92527e-06
-1.21877e-05
6.98834e-08
2.11272e-06
-1.20581e-05
6.79246e-08
2.28735e-06
-1.19661e-05
3.49958e-08
2.35098e-06
-1.20201e-05
2.07544e-08
2.22761e-06
-1.20993e-05
-1.47204e-09
2.27242e-06
-1.20191e-05
-6.21653e-08
2.28777e-06
-1.19986e-05
-7.25369e-08
2.05853e-06
-1.20805e-05
1.96117e-06
-1.21258e-05
-6.46143e-08
2.47749e-06
-1.2875e-05
-2.16212e-08
2.09225e-06
-1.3051e-05
2.6469e-08
1.91903e-06
-1.31071e-05
6.04704e-08
2.09796e-06
-1.29996e-05
8.16325e-08
2.30878e-06
-1.28694e-05
8.00493e-08
2.50492e-06
-1.27716e-05
3.91053e-08
2.58086e-06
-1.28196e-05
2.07221e-08
2.44362e-06
-1.2904e-05
1.71313e-09
2.49275e-06
-1.28234e-05
-5.78949e-08
2.51048e-06
-1.27958e-05
-6.6341e-08
2.25068e-06
-1.28859e-05
2.13755e-06
-1.2943e-05
-7.08636e-08
2.69843e-06
-1.36923e-05
-2.56199e-08
2.26828e-06
-1.38718e-05
2.85251e-08
2.07368e-06
-1.3926e-05
6.90368e-08
2.27114e-06
-1.38185e-05
9.44745e-08
2.50775e-06
-1.36885e-05
9.29791e-08
2.72786e-06
-1.35846e-05
4.34578e-08
2.81858e-06
-1.36246e-05
2.09331e-08
2.6653e-06
-1.37146e-05
6.03872e-09
2.71738e-06
-1.36352e-05
-5.16586e-08
2.73837e-06
-1.36003e-05
-5.81382e-08
2.44555e-06
-1.36981e-05
2.3146e-06
-1.37667e-05
-7.78588e-08
2.923e-06
-1.4514e-05
-3.04931e-08
2.44435e-06
-1.46964e-05
3.05195e-08
2.22628e-06
-1.47491e-05
7.84982e-08
2.44293e-06
-1.46426e-05
1.08286e-07
2.70814e-06
-1.45138e-05
1.06513e-07
2.95529e-06
-1.44034e-05
4.80059e-08
3.06368e-06
-1.44337e-05
2.14931e-08
2.89156e-06
-1.45293e-05
1.16614e-08
2.9446e-06
-1.44529e-05
-4.33662e-08
2.97001e-06
-1.44108e-05
-4.79321e-08
2.64176e-06
-1.45154e-05
2.49103e-06
-1.45947e-05
-8.55365e-08
3.14992e-06
-1.53381e-05
-3.62105e-08
2.61879e-06
-1.55227e-05
3.24111e-08
2.37482e-06
-1.55739e-05
8.87747e-08
2.61123e-06
-1.54697e-05
1.22898e-07
2.90826e-06
-1.5343e-05
1.20411e-07
3.18617e-06
-1.5226e-05
5.26944e-08
3.31543e-06
-1.52451e-05
2.251e-08
3.12107e-06
-1.53464e-05
1.85809e-08
3.17252e-06
-1.52747e-05
-3.29979e-08
3.20373e-06
-1.52254e-05
-3.5802e-08
2.83784e-06
-1.53358e-05
2.66551e-06
-1.54248e-05
-9.3774e-08
3.37771e-06
-1.61622e-05
-4.26855e-08
2.7897e-06
-1.6348e-05
3.41585e-08
2.51713e-06
-1.6398e-05
9.974e-08
2.77369e-06
-1.62974e-05
1.38094e-07
3.10626e-06
-1.61738e-05
1.34408e-07
3.41933e-06
-1.60504e-05
5.74654e-08
3.57288e-06
-1.60571e-05
2.40907e-08
3.35217e-06
-1.61638e-05
2.68507e-08
3.39893e-06
-1.60984e-05
-2.06169e-08
3.43774e-06
-1.6042e-05
-2.1911e-08
3.03223e-06
-1.6157e-05
2.83662e-06
-1.62543e-05
-1.02389e-07
3.60473e-06
-1.69836e-05
-4.97741e-08
2.95508e-06
-1.71696e-05
3.57221e-08
2.65089e-06
-1.72187e-05
1.11223e-07
2.92781e-06
-1.71231e-05
1.53625e-07
3.30016e-06
-1.70035e-05
1.48221e-07
3.65345e-06
-1.68741e-05
6.22656e-08
3.83485e-06
-1.68673e-05
2.6338e-08
3.58297e-06
-1.69791e-05
3.64321e-08
3.62141e-06
-1.69214e-05
-6.37844e-09
3.6701e-06
-1.68582e-05
-6.51e-09
3.22331e-06
-1.69763e-05
3.00299e-06
-1.70805e-05
-1.11142e-07
3.82914e-06
-1.77997e-05
-5.72785e-08
3.11282e-06
-1.79846e-05
3.70653e-08
2.77375e-06
-1.80331e-05
1.23011e-07
3.07099e-06
-1.79439e-05
1.69216e-07
3.48786e-06
-1.78294e-05
1.61574e-07
3.88712e-06
-1.76945e-05
6.70523e-08
4.09992e-06
-1.76738e-05
2.93481e-08
3.8113e-06
-1.779e-05
4.72467e-08
3.83733e-06
-1.7741e-05
9.43526e-09
3.89876e-06
-1.76716e-05
1.00706e-08
3.40943e-06
-1.77911e-05
3.16331e-06
-1.79003e-05
-1.19747e-07
4.04898e-06
-1.86079e-05
-6.49566e-08
3.26078e-06
-1.87902e-05
3.81564e-08
2.88344e-06
-1.88382e-05
1.34858e-07
3.20065e-06
-1.87568e-05
1.84577e-07
3.66727e-06
-1.86487e-05
1.74209e-07
4.11885e-06
-1.8509e-05
7.18011e-08
4.36645e-06
-1.84742e-05
3.32083e-08
4.0348e-06
-1.8594e-05
5.91597e-08
4.04393e-06
-1.85545e-05
2.65821e-08
4.12152e-06
-1.84796e-05
2.73973e-08
3.58907e-06
-1.85988e-05
3.31639e-06
-1.8711e-05
-1.27885e-07
4.26223e-06
-1.94056e-05
-7.25345e-08
3.39692e-06
-1.95837e-05
3.89688e-08
2.97781e-06
-1.96313e-05
1.46497e-07
3.31427e-06
-1.95591e-05
1.99418e-07
3.83629e-06
-1.94584e-05
1.85901e-07
4.34709e-06
-1.93151e-05
7.65106e-08
4.63259e-06
-1.92664e-05
3.79957e-08
4.25092e-06
-1.93888e-05
7.199e-08
4.2384e-06
-1.93591e-05
4.45497e-08
4.33625e-06
-1.92794e-05
4.50071e-08
3.76068e-06
-1.93967e-05
3.46122e-06
-1.95099e-05
-1.35223e-07
4.46677e-06
-2.01904e-05
-7.97231e-08
3.51929e-06
-2.03626e-05
3.94827e-08
3.05498e-06
-2.04097e-05
1.57646e-07
3.40952e-06
-2.0348e-05
2.13459e-07
3.99291e-06
-2.02559e-05
1.9647e-07
4.57027e-06
-2.01102e-05
8.12058e-08
4.89633e-06
-2.00485e-05
4.37757e-08
4.45704e-06
-2.01721e-05
8.55186e-08
4.41796e-06
-2.01519e-05
6.2886e-08
4.54085e-06
-2.00686e-05
6.23548e-08
3.9229e-06
-2.01824e-05
3.59698e-06
-2.02946e-05
-1.41428e-07
4.66054e-06
-2.09601e-05
-8.62357e-08
3.6262e-06
-2.11247e-05
3.96852e-08
3.11341e-06
-2.11712e-05
1.68026e-07
3.48438e-06
-2.11209e-05
2.26442e-07
4.13528e-06
-2.10387e-05
2.05788e-07
4.78685e-06
-2.08921e-05
8.59386e-08
5.1555e-06
-2.08185e-05
5.06e-08
4.65046e-06
-2.09419e-05
9.94997e-08
4.57997e-06
-2.09304e-05
8.1078e-08
4.73334e-06
-2.08447e-05
7.89227e-08
4.07451e-06
-2.09535e-05
3.72313e-06
-2.1063e-05
-1.46194e-07
4.84151e-06
-2.1713e-05
-9.18056e-08
3.7162e-06
-2.18682e-05
3.95717e-08
3.15198e-06
-2.19138e-05
1.77373e-07
3.53719e-06
-2.18756e-05
2.38135e-07
4.26178e-06
-2.18047e-05
2.13778e-07
4.99529e-06
-2.16589e-05
9.07839e-08
5.40779e-06
-2.15749e-05
5.85047e-08
4.82854e-06
-2.16963e-05
1.13674e-07
4.72206e-06
-2.16924e-05
9.85981e-08
4.91196e-06
-2.16054e-05
9.41667e-08
4.21453e-06
-2.17082e-05
3.83931e-06
-2.18135e-05
-1.49257e-07
5.0078e-06
-2.24475e-05
-9.62011e-08
3.78822e-06
-2.25917e-05
3.91461e-08
3.17008e-06
-2.2636e-05
1.85447e-07
3.56678e-06
-2.26104e-05
2.48339e-07
4.37107e-06
-2.25519e-05
2.20414e-07
5.19416e-06
-2.24087e-05
9.58342e-08
5.65081e-06
-2.23164e-05
6.75066e-08
4.98871e-06
-2.24339e-05
1.27779e-07
4.84221e-06
-2.24359e-05
1.14941e-07
5.07522e-06
-2.2349e-05
1.07589e-07
4.34219e-06
-2.24448e-05
3.94542e-06
-2.25447e-05
-1.50411e-07
5.1577e-06
-2.31628e-05
-9.92378e-08
3.84157e-06
-2.32945e-05
3.84225e-08
3.16762e-06
-2.33369e-05
1.92044e-07
3.57255e-06
-2.33239e-05
2.5689e-07
4.46214e-06
-2.32792e-05
2.2571e-07
5.38208e-06
-2.31405e-05
1.01189e-07
5.8821e-06
-2.30417e-05
7.75991e-08
5.12863e-06
-2.31535e-05
1.41564e-07
4.93888e-06
-2.31595e-05
1.29647e-07
5.22202e-06
-2.30739e-05
1.18753e-07
4.45704e-06
-2.31624e-05
4.04152e-06
-2.32562e-05
-1.49519e-07
5.28975e-06
-2.38583e-05
-1.00786e-07
3.87599e-06
-2.39762e-05
3.74259e-08
3.14511e-06
-2.40162e-05
1.97003e-07
3.55449e-06
-2.40156e-05
2.63653e-07
4.53437e-06
-2.39855e-05
2.29706e-07
5.5578e-06
-2.38533e-05
1.06945e-07
6.09924e-06
-2.37503e-05
8.87464e-08
5.24618e-06
-2.38544e-05
1.54794e-07
5.01106e-06
-2.38622e-05
1.42331e-07
5.35161e-06
-2.37794e-05
1.27317e-07
4.55887e-06
-2.38603e-05
4.12786e-06
-2.39475e-05
-1.46522e-07
5.40273e-06
-2.4534e-05
-1.00775e-07
3.89163e-06
-2.46372e-05
3.61934e-08
3.10357e-06
-2.46741e-05
2.00213e-07
3.51322e-06
-2.46852e-05
2.68522e-07
4.58753e-06
-2.46706e-05
2.3246e-07
5.72017e-06
-2.45467e-05
1.1318e-07
6.29983e-06
-2.44417e-05
1.00878e-07
5.33962e-06
-2.45363e-05
1.6726e-07
5.05835e-06
-2.45438e-05
1.52695e-07
5.46371e-06
-2.44649e-05
1.33041e-07
4.64777e-06
-2.45383e-05
4.2048e-06
-2.4619e-05
-1.41435e-07
5.49576e-06
-2.51902e-05
-9.91878e-08
3.88905e-06
-2.52781e-05
3.47749e-08
3.04455e-06
-2.53114e-05
2.01609e-07
3.44997e-06
-2.53333e-05
2.71412e-07
4.62179e-06
-2.53346e-05
2.34025e-07
5.86818e-06
-2.52208e-05
1.19941e-07
6.48156e-06
-2.51159e-05
1.13881e-07
5.40759e-06
-2.51994e-05
1.7878e-07
5.08095e-06
-2.52046e-05
1.6055e-07
5.55845e-06
-2.51307e-05
1.35809e-07
4.72409e-06
-2.5197e-05
4.27277e-06
-2.52714e-05
-1.34347e-07
5.56828e-06
-2.58279e-05
-9.60621e-08
3.86919e-06
-2.59002e-05
3.32318e-08
2.97001e-06
-2.59295e-05
2.01175e-07
3.36654e-06
-2.5961e-05
2.72256e-07
4.63769e-06
-2.59784e-05
2.34445e-07
6.00091e-06
-2.58763e-05
1.27229e-07
6.64231e-06
-2.57733e-05
1.27595e-07
5.44918e-06
-2.58443e-05
1.89195e-07
5.07967e-06
-2.58453e-05
1.65814e-07
5.63636e-06
-2.57774e-05
1.35629e-07
4.78841e-06
-2.58372e-05
4.33225e-06
-2.59059e-05
-1.25413e-07
5.62009e-06
-2.64484e-05
-9.14802e-08
3.83332e-06
-2.65053e-05
3.16356e-08
2.88223e-06
-2.65302e-05
1.98942e-07
3.26529e-06
-2.65698e-05
2.71004e-07
4.63624e-06
-2.66031e-05
2.3374e-07
6.11757e-06
-2.65139e-05
1.34995e-07
6.78012e-06
-2.64146e-05
1.41805e-07
5.46393e-06
-2.6472e-05
1.98373e-07
5.05585e-06
-2.64674e-05
1.68514e-07
5.69831e-06
-2.64062e-05
1.32637e-07
4.8415e-06
-2.64601e-05
4.38373e-06
-2.65239e-05
-1.14843e-07
5.65148e-06
-2.70535e-05
-8.55647e-08
3.78315e-06
-2.70956e-05
3.00634e-08
2.78392e-06
-2.71159e-05
1.94983e-07
3.1492e-06
-2.7162e-05
2.67621e-07
4.61899e-06
-2.72106e-05
2.31905e-07
6.21764e-06
-2.71352e-05
1.43122e-07
6.89334e-06
-2.70409e-05
1.56242e-07
5.45198e-06
-2.70841e-05
2.06202e-07
5.01141e-06
-2.70728e-05
1.68778e-07
5.74553e-06
-2.70188e-05
1.27088e-07
4.88435e-06
-2.70677e-05
4.42785e-06
-2.71273e-05
-1.02897e-07
5.66319e-06
-2.76452e-05
-7.84796e-08
3.72063e-06
-2.76734e-05
2.85891e-08
2.67796e-06
-2.76893e-05
1.89417e-07
3.02154e-06
-2.77402e-05
2.62101e-07
4.58784e-06
-2.7803e-05
2.28917e-07
6.30097e-06
-2.7742e-05
1.51432e-07
6.98079e-06
-2.76537e-05
1.70582e-07
5.4141e-06
-2.76825e-05
2.12591e-07
4.94886e-06
-2.7664e-05
1.66827e-07
5.77959e-06
-2.76173e-05
1.19343e-07
4.91823e-06
-2.7662e-05
4.46542e-06
-2.77184e-05
-8.9843e-08
5.65609e-06
-2.82259e-05
-7.0401e-08
3.64771e-06
-2.82415e-05
2.72753e-08
2.56706e-06
-2.8253e-05
1.82385e-07
2.88556e-06
-2.83074e-05
2.54465e-07
4.5447e-06
-2.83829e-05
2.24738e-07
6.36758e-06
-2.83364e-05
1.59702e-07
7.04176e-06
-2.82549e-05
1.84476e-07
5.35154e-06
-2.82695e-05
2.17478e-07
4.87093e-06
-2.82435e-05
1.62961e-07
5.80225e-06
-2.82042e-05
1.09834e-07
4.94445e-06
-2.82454e-05
4.49712e-06
-2.82995e-05
-7.59429e-08
5.63121e-06
-2.87982e-05
-6.14986e-08
3.56628e-06
-2.88027e-05
2.61779e-08
2.45379e-06
-2.88103e-05
1.74043e-07
2.74447e-06
-2.88665e-05
2.44756e-07
4.4915e-06
-2.89531e-05
2.19319e-07
6.4175e-06
-2.89206e-05
1.67676e-07
7.07575e-06
-2.88463e-05
1.97583e-07
5.26579e-06
-2.88473e-05
2.20839e-07
4.78033e-06
-2.88143e-05
1.57515e-07
5.8151e-06
-2.87821e-05
9.90235e-08
4.96416e-06
-2.88205e-05
4.52338e-06
-2.88729e-05
-6.14642e-08
5.58977e-06
-2.93645e-05
-5.19555e-08
3.47823e-06
-2.93595e-05
2.53348e-08
2.3405e-06
-2.93637e-05
1.64569e-07
2.60142e-06
-2.94205e-05
2.33064e-07
4.43023e-06
-2.95161e-05
2.12619e-07
6.45075e-06
-2.94972e-05
1.7508e-07
7.08258e-06
-2.94301e-05
2.09556e-07
5.15867e-06
-2.94186e-05
2.22661e-07
4.67974e-06
-2.93793e-05
1.50832e-07
5.81966e-06
-2.93538e-05
8.73967e-08
4.97836e-06
-2.939e-05
4.54451e-06
-2.94411e-05
-4.66464e-08
5.5331e-06
-2.99272e-05
-4.19464e-08
3.38531e-06
-2.99145e-05
2.47603e-08
2.22925e-06
-2.9916e-05
1.54144e-07
2.45926e-06
-2.99723e-05
2.19522e-07
4.36284e-06
-3.0075e-05
2.04638e-07
6.46747e-06
-3.00686e-05
1.81654e-07
7.06251e-06
-3.00086e-05
2.20082e-07
5.03228e-06
-2.99859e-05
2.22968e-07
4.57166e-06
-2.9941e-05
1.43277e-07
5.81728e-06
-2.99217e-05
7.54311e-08
4.98793e-06
-2.99563e-05
4.56073e-06
-3.00064e-05
-3.16932e-08
5.46253e-06
-3.04888e-05
-3.16293e-08
3.28908e-06
-3.047e-05
2.44498e-08
2.12172e-06
-3.04695e-05
1.42949e-07
2.32049e-06
-3.05245e-05
2.04306e-07
4.29112e-06
-3.06322e-05
1.95404e-07
6.4679e-06
-3.06371e-05
1.87174e-07
7.01614e-06
-3.05839e-05
2.28911e-07
4.88886e-06
-3.05515e-05
2.21818e-07
4.45836e-06
-3.05022e-05
1.35185e-07
5.80909e-06
-3.04885e-05
6.3555e-08
4.99355e-06
-3.05218e-05
4.57225e-06
-3.0571e-05
-1.67667e-08
5.37934e-06
-3.10515e-05
-2.11383e-08
3.19091e-06
-3.10281e-05
2.43845e-08
2.01928e-06
-3.10263e-05
1.31154e-07
2.18716e-06
-3.10793e-05
1.87621e-07
4.21667e-06
-3.11902e-05
1.84989e-07
6.45234e-06
-3.12052e-05
1.91478e-07
6.94437e-06
-3.11583e-05
2.35878e-07
4.73066e-06
-3.11177e-05
2.19296e-07
4.34174e-06
-3.10652e-05
1.2685e-07
5.79593e-06
-3.10565e-05
5.2125e-08
4.99571e-06
-3.10887e-05
4.57924e-06
-3.1137e-05
-1.98604e-09
5.28467e-06
-3.16171e-05
-1.05797e-08
3.09188e-06
-3.15906e-05
2.45372e-08
1.92291e-06
-3.15881e-05
1.18915e-07
2.06087e-06
-3.16388e-05
1.69697e-07
4.14082e-06
-3.17513e-05
1.73501e-07
6.42115e-06
-3.1775e-05
1.94474e-07
6.84832e-06
-3.17337e-05
2.40905e-07
4.55988e-06
-3.16865e-05
2.15511e-07
4.22332e-06
-3.16319e-05
1.1851e-07
5.77838e-06
-3.16275e-05
4.14125e-08
4.99471e-06
-3.16589e-05
4.58186e-06
-3.17061e-05
1.2557e-08
5.17949e-06
-3.21874e-05
-3.58376e-11
2.99282e-06
-3.21588e-05
2.48772e-08
1.83324e-06
-3.21562e-05
1.06374e-07
1.94275e-06
-3.22044e-05
1.5077e-07
4.06463e-06
-3.23172e-05
1.61079e-07
6.37472e-06
-3.23483e-05
1.96138e-07
6.72925e-06
-3.23121e-05
2.43991e-07
4.37854e-06
-3.22597e-05
2.1058e-07
4.10424e-06
-3.2204e-05
1.10338e-07
5.75674e-06
-3.22034e-05
3.1602e-08
4.99065e-06
-3.22341e-05
4.58025e-06
-3.22801e-05
2.68082e-08
5.06463e-06
-3.27638e-05
1.04316e-08
2.89433e-06
-3.27341e-05
2.53778e-08
1.75058e-06
-3.27317e-05
9.36549e-08
1.83348e-06
-3.27774e-05
1.3107e-07
3.9889e-06
-3.28894e-05
1.47871e-07
6.31342e-06
-3.29266e-05
1.96505e-07
6.58843e-06
-3.28951e-05
2.45195e-07
4.18848e-06
-3.28388e-05
2.0461e-07
3.98528e-06
-3.27827e-05
1.02446e-07
5.73104e-06
-3.27856e-05
2.28001e-08
4.98345e-06
-3.28155e-05
4.57453e-06
-3.28601e-05
4.07246e-08
4.94071e-06
-3.33473e-05
2.07803e-08
2.79676e-06
-3.33172e-05
2.60222e-08
1.67497e-06
-3.33156e-05
8.0866e-08
1.7334e-06
-3.33586e-05
1.10809e-07
3.91423e-06
-3.34691e-05
1.3403e-07
6.23763e-06
-3.35115e-05
1.95644e-07
6.42714e-06
-3.34839e-05
2.44605e-07
3.99129e-06
-3.34247e-05
1.97686e-07
3.86689e-06
-3.33692e-05
9.48869e-08
5.70113e-06
-3.33752e-05
1.50516e-08
4.9729e-06
-3.34044e-05
4.56477e-06
-3.34472e-05
5.42704e-08
4.80823e-06
-3.39389e-05
3.09773e-08
2.70028e-06
-3.39089e-05
2.68028e-08
1.60625e-06
-3.39083e-05
6.81052e-08
1.64262e-06
-3.39489e-05
9.01768e-08
3.84111e-06
-3.40573e-05
1.19695e-07
6.14772e-06
-3.41038e-05
1.93629e-07
6.24664e-06
-3.40797e-05
2.42304e-07
3.7884e-06
-3.40186e-05
1.89864e-07
3.74928e-06
-3.39641e-05
8.76671e-08
5.66662e-06
-3.39731e-05
8.36043e-09
4.95865e-06
-3.40015e-05
4.55096e-06
-3.40423e-05
6.74107e-08
4.66757e-06
-3.45392e-05
4.09939e-08
2.60488e-06
-3.45098e-05
2.77182e-08
1.54406e-06
-3.45105e-05
5.54686e-08
1.56107e-06
-3.45488e-05
6.93455e-08
3.76972e-06
-3.46546e-05
1.04983e-07
6.04412e-06
-3.47044e-05
1.90508e-07
6.04815e-06
-3.46834e-05
2.38339e-07
3.58104e-06
-3.46209e-05
1.81158e-07
3.63246e-06
-3.45682e-05
8.07615e-08
5.62702e-06
-3.45799e-05
2.7082e-09
4.94023e-06
-3.46075e-05
4.53304e-06
-3.46461e-05
8.0107e-08
4.51905e-06
-3.51488e-05
5.08009e-08
2.51042e-06
-3.51203e-05
2.87732e-08
1.48796e-06
-3.51225e-05
4.30543e-08
1.48848e-06
-3.51587e-05
4.84674e-08
3.69989e-06
-3.52612e-05
8.99876e-08
5.92725e-06
-3.53141e-05
1.86288e-07
5.83287e-06
-3.52955e-05
2.32692e-07
3.37018e-06
-3.52321e-05
1.71545e-07
3.51625e-06
-3.51817e-05
7.41274e-08
5.58167e-06
-3.51964e-05
-1.92966e-09
4.91706e-06
-3.52231e-05
4.5109e-06
-3.52591e-05
9.23134e-08
4.36283e-06
-3.57681e-05
6.03655e-08
2.41669e-06
-3.57408e-05
2.99729e-08
1.43736e-06
-3.57448e-05
3.09693e-08
1.42441e-06
-3.57792e-05
2.77e-08
3.63133e-06
-3.58776e-05
7.47929e-08
5.79731e-06
-3.59329e-05
1.80985e-07
5.60163e-06
-3.59162e-05
2.25328e-07
3.15644e-06
-3.58521e-05
1.60974e-07
3.4004e-06
-3.58051e-05
6.77191e-08
5.52982e-06
-3.58229e-05
-5.57035e-09
4.88849e-06
-3.58485e-05
4.48438e-06
-3.58818e-05
1.03994e-07
4.19904e-06
-3.63972e-05
6.96469e-08
2.32355e-06
-3.63717e-05
3.13159e-08
1.39164e-06
-3.63777e-05
1.93294e-08
1.36827e-06
-3.64104e-05
7.24558e-09
3.56384e-06
-3.65044e-05
5.95608e-08
5.6542e-06
-3.6561e-05
1.74736e-07
5.35486e-06
-3.65455e-05
2.16255e-07
2.94051e-06
-3.64814e-05
1.49383e-07
3.28462e-06
-3.64387e-05
6.15004e-08
5.47065e-06
-3.64598e-05
-8.2116e-09
4.85382e-06
-3.64842e-05
4.45331e-06
-3.65144e-05
1.15114e-07
4.02805e-06
-3.70366e-05
7.85821e-08
2.23093e-06
-3.70133e-05
3.27897e-08
1.35011e-06
-3.70216e-05
8.25508e-09
1.31944e-06
-3.70529e-05
-1.26226e-08
3.49729e-06
-3.71421e-05
4.42866e-08
5.49816e-06
-3.71987e-05
1.67271e-07
5.09322e-06
-3.71835e-05
2.05307e-07
2.72298e-06
-3.71203e-05
1.36714e-07
3.16846e-06
-3.70827e-05
5.54556e-08
5.40326e-06
-3.71074e-05
-9.81994e-09
4.81227e-06
-3.71305e-05
4.41731e-06
-3.71573e-05
1.25541e-07
3.85057e-06
-3.76867e-05
8.707e-08
2.13861e-06
-3.7666e-05
3.43679e-08
1.31197e-06
-3.76768e-05
-2.13326e-09
1.27721e-06
-3.77071e-05
-3.16005e-08
3.43154e-06
-3.77915e-05
2.90399e-08
5.32984e-06
-3.78466e-05
1.58067e-07
4.81824e-06
-3.78306e-05
1.92103e-07
2.50455e-06
-3.77689e-05
1.22938e-07
3.05112e-06
-3.77375e-05
4.95954e-08
5.3267e-06
-3.77661e-05
-1.03333e-08
4.76304e-06
-3.77878e-05
4.37577e-06
-3.78105e-05
1.34977e-07
3.66733e-06
-3.83479e-05
9.49666e-08
2.04619e-06
-3.83303e-05
3.6007e-08
1.27635e-06
-3.83436e-05
-1.1721e-08
1.24076e-06
-3.83733e-05
-4.94101e-08
3.36644e-06
-3.84528e-05
1.42962e-08
5.1501e-06
-3.85051e-05
1.47216e-07
4.53235e-06
-3.84871e-05
1.76482e-07
2.28663e-06
-3.84278e-05
1.08078e-07
2.93183e-06
-3.84032e-05
4.39564e-08
5.24e-06
-3.84361e-05
-9.67237e-09
4.70527e-06
-3.84562e-05
4.32813e-06
-3.84742e-05
1.43129e-07
3.47904e-06
-3.90208e-05
1.02091e-07
1.95312e-06
-3.90064e-05
3.76461e-08
1.24228e-06
-3.90224e-05
-2.03906e-08
1.20916e-06
-3.90519e-05
-6.56282e-08
3.30162e-06
-3.91267e-05
7.61094e-10
4.95984e-06
-3.91746e-05
1.3523e-07
4.23857e-06
-3.91538e-05
1.58559e-07
2.07141e-06
-3.90974e-05
9.21897e-08
2.81015e-06
-3.90804e-05
3.85895e-08
5.14221e-06
-3.91176e-05
-7.75423e-09
4.6381e-06
-3.91361e-05
4.27384e-06
-3.9149e-05
1.49828e-07
3.28635e-06
-3.97059e-05
1.0824e-07
1.85878e-06
-3.96949e-05
3.92097e-08
1.20865e-06
-3.97134e-05
-2.80336e-08
1.18127e-06
-3.97432e-05
-7.97496e-08
3.2364e-06
-3.98133e-05
-1.0775e-08
4.75982e-06
-3.98557e-05
1.22735e-07
3.94034e-06
-3.98313e-05
1.38583e-07
1.86172e-06
-3.97786e-05
7.53104e-08
2.68597e-06
-3.97692e-05
3.35441e-08
5.03238e-06
-3.9811e-05
-4.50872e-09
4.56062e-06
-3.98278e-05
4.21222e-06
-3.98351e-05
1.54883e-07
3.08992e-06
-4.04036e-05
1.13198e-07
1.76247e-06
-4.0396e-05
4.06113e-08
1.17426e-06
-4.04171e-05
-3.45564e-08
1.15584e-06
-4.04475e-05
-9.13646e-08
3.16977e-06
-4.0513e-05
-1.98355e-08
4.55075e-06
-4.05488e-05
1.10351e-07
3.64112e-06
-4.05203e-05
1.16962e-07
1.66073e-06
-4.04719e-05
5.75233e-08
2.5595e-06
-4.04701e-05
2.88643e-08
4.90956e-06
-4.05164e-05
1.10117e-10
4.47189e-06
-4.05314e-05
4.14255e-06
-4.05329e-05
1.58089e-07
2.89042e-06
-4.11144e-05
1.16749e-07
1.66345e-06
-4.11099e-05
4.17581e-08
1.1378e-06
-4.11338e-05
-3.98816e-08
1.13142e-06
-4.1165e-05
-1.00155e-07
3.10055e-06
-4.12261e-05
-2.59161e-08
4.33318e-06
-4.12543e-05
9.86584e-08
3.34436e-06
-4.12216e-05
9.43278e-08
1.47162e-06
-4.1178e-05
3.90826e-08
2.43121e-06
-4.11835e-05
2.45974e-08
4.77292e-06
-4.12341e-05
6.11361e-09
4.37099e-06
-4.12473e-05
4.06424e-06
-4.12429e-05
1.59251e-07
2.6885e-06
-4.18385e-05
1.18699e-07
1.56103e-06
-4.18369e-05
4.25535e-08
1.09786e-06
-4.18637e-05
-4.39494e-08
1.10641e-06
-4.18961e-05
-1.05883e-07
3.02736e-06
-4.19529e-05
-2.87308e-08
4.10766e-06
-4.19726e-05
8.81657e-08
3.05337e-06
-4.19357e-05
7.14307e-08
1.29728e-06
-4.18975e-05
2.03654e-08
2.30187e-06
-4.19096e-05
2.08017e-08
4.62193e-06
-4.19643e-05
1.34994e-08
4.25706e-06
-4.19756e-05
3.97682e-06
-4.19652e-05
1.58204e-07
2.48481e-06
-4.25763e-05
1.18879e-07
1.45462e-06
-4.25775e-05
4.28995e-08
1.053e-06
-4.26071e-05
-4.67173e-08
1.07908e-06
-4.26411e-05
-1.08389e-07
2.94876e-06
-4.26937e-05
-2.81568e-08
3.87481e-06
-4.2704e-05
7.9286e-08
2.77121e-06
-4.26634e-05
4.90365e-08
1.14016e-06
-4.26311e-05
1.80147e-09
2.17245e-06
-4.26489e-05
1.75474e-08
4.45642e-06
-4.27073e-05
2.22403e-08
4.12938e-06
-4.27167e-05
3.87995e-06
-4.27004e-05
1.5481e-07
2.28001e-06
-4.33282e-05
1.17141e-07
1.34368e-06
-4.33318e-05
4.27025e-08
1.00175e-06
-4.33644e-05
-4.81573e-08
1.04762e-06
-4.34002e-05
-1.07597e-07
2.86324e-06
-4.34488e-05
-2.42314e-08
3.63544e-06
-4.3449e-05
7.23171e-08
2.50064e-06
-4.34053e-05
2.78771e-08
1.00199e-06
-4.33791e-05
-1.61427e-08
2.04405e-06
-4.34017e-05
1.49164e-08
4.27657e-06
-4.34632e-05
3.22438e-08
3.98737e-06
-4.34707e-05
3.77344e-06
-4.34486e-05
1.4895e-07
2.07475e-06
-4.40945e-05
1.13351e-07
1.22766e-06
-4.41003e-05
4.18781e-08
9.42604e-07
-4.41359e-05
-4.82521e-08
1.01016e-06
-4.41738e-05
-1.03522e-07
2.76932e-06
-4.42186e-05
-1.71322e-08
3.39055e-06
-4.4208e-05
6.74406e-08
2.244e-06
-4.41622e-05
8.60136e-09
8.83609e-07
-4.41418e-05
-3.30091e-08
1.91773e-06
-4.41685e-05
1.30013e-08
4.08288e-06
-4.42323e-05
4.33639e-08
3.83071e-06
-4.42381e-05
3.6572e-06
-4.42104e-05
1.40538e-07
1.86974e-06
-4.48755e-05
1.07393e-07
1.10605e-06
-4.48832e-05
4.03558e-08
8.74026e-07
-4.49219e-05
-4.70023e-08
9.64759e-07
-4.49622e-05
-9.62841e-08
2.6656e-06
-4.50032e-05
-7.1567e-09
3.14135e-06
-4.49817e-05
6.4748e-08
2.00315e-06
-4.49347e-05
-8.21986e-09
7.8505e-07
-4.49195e-05
-4.83852e-08
1.79454e-06
-4.49494e-05
1.19105e-08
3.8761e-06
-4.50149e-05
5.54036e-08
3.65935e-06
-4.5019e-05
3.53129e-06
-4.49861e-05
1.29538e-07
1.66575e-06
-4.56715e-05
9.91814e-08
9.784e-07
-4.56809e-05
3.80873e-08
7.94487e-07
-4.57226e-05
-4.44298e-08
9.09471e-07
-4.57656e-05
-8.6117e-08
2.5509e-06
-4.58031e-05
5.30198e-09
2.88924e-06
-4.57704e-05
6.41186e-08
1.77951e-06
-4.57231e-05
-2.2262e-08
7.056e-07
-4.57124e-05
-6.17208e-08
1.67507e-06
-4.57448e-05
1.17747e-08
3.65733e-06
-4.58111e-05
6.81184e-08
3.47358e-06
-4.58136e-05
3.39587e-06
-4.5776e-05
1.16017e-07
1.46362e-06
-4.6483e-05
8.86751e-08
8.44371e-07
-4.64937e-05
3.50553e-08
7.02456e-07
-4.65382e-05
-4.05647e-08
8.42394e-07
-4.65844e-05
-7.33423e-08
2.42435e-06
-4.66188e-05
1.97709e-08