0 	0 	0 	0
5.01672e-05 	-0.000323878 	-6.32014e-06 	0.0162351
0.000100334 	-0.000326005 	-1.38494e-05 	0.0324693
0.000150502 	-0.000263356 	-2.23541e-05 	0.0476384
0.000200669 	-0.000243211 	-3.06393e-05 	0.0614042
0.000250836 	-0.000240109 	-3.9688e-05 	0.0739771
0.000301003 	-0.000224061 	-4.9229e-05 	0.085572
0.000351171 	-0.000184877 	-5.92124e-05 	0.0963117
0.000401338 	-0.000120217 	-6.94774e-05 	0.106271
0.000451505 	-3.14954e-05 	-7.98289e-05 	0.115498
0.000501672 	7.78231e-05 	-9.00774e-05 	0.124033
0.000551839 	0.000203382 	-0.00010009 	0.131913
0.000602007 	0.000340719 	-0.000109763 	0.139186
0.000652174 	0.000485647 	-0.000119042 	0.145903
0.000702341 	0.000634412 	-0.000127938 	0.152119
0.000752508 	0.000783867 	-0.00013645 	0.157882
0.000802676 	0.000931644 	-0.000144569 	0.163228
0.000852843 	0.00107552 	-0.000152311 	0.168139
0.00090301 	0.00121499 	-0.000159735 	0.172711
0.000953177 	0.00134949 	-0.00016685 	0.176976
0.00100334 	0.00147868 	-0.000173671 	0.180963
0.00105351 	0.00160243 	-0.000180219 	0.184699
0.00110368 	0.00172066 	-0.000186511 	0.188203
0.00115385 	0.00183204 	-0.000192528 	0.191442
0.00120401 	0.00193847 	-0.000198342 	0.194503
0.00125418 	0.00204017 	-0.000203938 	0.197403
0.00130435 	0.00213738 	-0.000209304 	0.200156
0.00135452 	0.00222889 	-0.000214327 	0.202734
0.00140468 	0.0023156 	-0.000219064 	0.205174
0.00145485 	0.00239846 	-0.000223575 	0.207507
0.00150502 	0.00247767 	-0.000227873 	0.209741
0.00155518 	0.0025514 	-0.000231812 	0.211831
0.00160535 	0.00262187 	-0.000235584 	0.213841
0.00165552 	0.00268937 	-0.000239199 	0.21578
0.00170569 	0.00275269 	-0.000242579 	0.217625
0.00175585 	0.00281233 	-0.000245068 	0.219394
0.00180602 	0.00286927 	-0.000246905 	0.221107
0.00185619 	0.00292206 	-0.00024773 	0.222737
0.00190635 	0.00297063 	-0.000249479 	0.224282
0.00195652 	0.00301651 	-0.00025231 	0.225777
0.00200669 	0.0030575 	-0.000258506 	0.227201
0.00205686 	0.00309547 	-0.00026514 	0.228631
0.00210702 	0.00313144 	-0.000271996 	0.230067
0.00215719 	0.00316347 	-0.000272909 	0.231582
0.00220736 	0.00319376 	-0.000272272 	0.233088
0.00225753 	0.00322129 	-0.000269155 	0.234579
0.00230769 	0.00324469 	-0.000267104 	0.235954
0.00235786 	0.0032663 	-0.000265607 	0.237278
0.00240803 	0.00328214 	-0.000267477 	0.238448
0.00245819 	0.00329603 	-0.000269779 	0.239582
0.00250836 	0.00330599 	-0.000272956 	0.240644
0.00255853 	0.00331274 	-0.000274834 	0.241668
0.0026087 	0.00331723 	-0.00027579 	0.242665
0.00265886 	0.00331742 	-0.000276138 	0.243622
0.00270903 	0.00331659 	-0.000276342 	0.244569
0.0027592 	0.00331034 	-0.000277108 	0.245468
0.00280936 	0.00330322 	-0.000277892 	0.24636
0.00285953 	0.00329141 	-0.000278774 	0.247213
0.0029097 	0.00327795 	-0.000279783 	0.248055
0.00295987 	0.00326034 	-0.000281111 	0.248868
0.00301003 	0.00324041 	-0.000282022 	0.249665
0.0030602 	0.00321663 	-0.000282241 	0.250439
0.00311037 	0.00318996 	-0.000281569 	0.251189
0.00316054 	0.00315951 	-0.000279737 	0.251911
0.0032107 	0.00312581 	-0.000278676 	0.252595
0.00326087 	0.00308825 	-0.000278527 	0.253233
0.00331104 	0.00304755 	-0.000280868 	0.253838
0.0033612 	0.00300293 	-0.000286304 	0.254402
0.00341137 	0.00295577 	-0.000293736 	0.254992
0.00346154 	0.00290477 	-0.000304195 	0.255622
0.00351171 	0.00285194 	-0.000313155 	0.256335
0.00356187 	0.0027951 	-0.000318821 	0.25723
0.00361204 	0.00273692 	-0.00032273 	0.258156
0.00366221 	0.00267307 	-0.000319155 	0.259212
0.00371237 	0.00260896 	-0.00031559 	0.260264
0.00376254 	0.00253619 	-0.000312331 	0.261163
0.00381271 	0.00246343 	-0.000309072 	0.262061
0.00386288 	0.0023828 	-0.000310639 	0.262747
0.00391304 	0.00230058 	-0.00031319 	0.263389
0.00396321 	0.00221298 	-0.000317681 	0.263925
0.00401338 	0.00212168 	-0.000323507 	0.264389
0.00406355 	0.00202776 	-0.000329224 	0.264825
0.00411371 	0.00192808 	-0.000334696 	0.265199
0.00416388 	0.0018284 	-0.000340169 	0.265573
0.00421405 	0.00172119 	-0.00034451 	0.265907
0.00426421 	0.00161394 	-0.000348843 	0.266241
0.00431438 	0.00150255 	-0.000354056 	0.266555
0.00436455 	0.00138876 	-0.000359779 	0.266859
0.00441472 	0.00127275 	-0.000366186 	0.267153
0.00446488 	0.00114926 	-0.000374894 	0.267418
0.00451505 	0.00102577 	-0.000383603 	0.267683
0.00456522 	0.000886603 	-0.000392322 	0.2679
0.00461538 	0.000743078 	-0.000401045 	0.268104
0.00466555 	0.000592488 	-0.000408722 	0.268289
0.00471572 	0.000424748 	-0.000413861 	0.268432
0.00476589 	0.000257008 	-0.000419001 	0.268575
0.00481605 	8.82541e-05 	-0.000422734 	0.268732
0.00486622 	-8.08262e-05 	-0.000426015 	0.268893
0.00491639 	-0.000242487 	-0.000430306 	0.269074
0.00496656 	-0.0003694 	-0.000439331 	0.269346
0.00501672 	-0.000496314 	-0.000448355 	0.269618
0.00506689 	-0.000599453 	-0.000460968 	0.269914
0.00511706 	-0.000683067 	-0.000476529 	0.270229
0.00516722 	-0.00076668 	-0.000492089 	0.270544
0.00521739 	-0.000854955 	-0.000506737 	0.270772
0.00526756 	-0.000943896 	-0.000521254 	0.270988
0.00531773 	-0.00103899 	-0.000534897 	0.271183
0.00536789 	-0.00116813 	-0.000543704 	0.27126
0.00541806 	-0.00129728 	-0.000552511 	0.271338
0.00546823 	-0.00143581 	-0.000559791 	0.271387
0.00551839 	-0.00158953 	-0.000564601 	0.271392
0.00556856 	-0.00174325 	-0.000569412 	0.271397
0.00561873 	-0.00188215 	-0.000576044 	0.271437
0.0056689 	-0.00200948 	-0.000584096 	0.271506
0.00571906 	-0.00213682 	-0.000592148 	0.271575
0.00576923 	-0.00222736 	-0.000605307 	0.271707
0.0058194 	-0.00230143 	-0.000620751 	0.271867
0.00586957 	-0.00237549 	-0.000636195 	0.272027
0.00591973 	-0.00243069 	-0.000652642 	0.272165
0.0059699 	-0.0024802 	-0.000669391 	0.272297
0.00602007 	-0.00252971 	-0.000686141 	0.27243
0.00607023 	-0.00259023 	-0.000698615 	0.272479
0.0061204 	-0.00265361 	-0.000709976 	0.272508
0.00617057 	-0.00271699 	-0.000721337 	0.272536
0.00622074 	-0.00279168 	-0.000731096 	0.272495
0.0062709 	-0.00286986 	-0.000740362 	0.272433
0.00632107 	-0.00294803 	-0.000749629 	0.272371
0.00637124 	-0.0030253 	-0.000761508 	0.272265
0.0064214 	-0.00310215 	-0.000774601 	0.272138
0.00647157 	-0.003179 	-0.000787695 	0.272011
0.00652174 	-0.00325185 	-0.000803237 	0.27185
0.00657191 	-0.00332136 	-0.000820824 	0.271661
0.00662207 	-0.00339086 	-0.000838412 	0.271473
0.00667224 	-0.00345786 	-0.000855532 	0.271268
0.00672241 	-0.0035202 	-0.000871787 	0.271035
0.00677258 	-0.00358254 	-0.000888042 	0.270802
0.00682274 	-0.00364404 	-0.000903781 	0.270568
0.00687291 	-0.00369783 	-0.000914834 	0.270329
0.00692308 	-0.00375161 	-0.000925886 	0.270089
0.00697324 	-0.0038054 	-0.000936939 	0.269849
0.00702341 	-0.00385188 	-0.000948168 	0.269611
0.00707358 	-0.00389641 	-0.000959443 	0.269373
0.00712375 	-0.00394095 	-0.000970719 	0.269135
0.00717391 	-0.00398277 	-0.000983778 	0.268889
0.00722408 	-0.00402088 	-0.000999294 	0.268631
0.00727425 	-0.00405898 	-0.00101481 	0.268372
0.00732441 	-0.00409709 	-0.00103033 	0.268114
0.00737458 	-0.00413115 	-0.00104656 	0.267827
0.00742475 	-0.00416518 	-0.0010628 	0.267539
0.00747492 	-0.00419921 	-0.00107903 	0.267251
0.00752508 	-0.00422843 	-0.00109425 	0.266953
0.00757525 	-0.00425284 	-0.00110843 	0.266644
0.00762542 	-0.00427725 	-0.00112262 	0.266335
0.00767559 	-0.00430147 	-0.00113681 	0.266026
0.00772575 	-0.00430438 	-0.00115065 	0.265724
0.00777592 	-0.00430729 	-0.00116449 	0.265422
0.00782609 	-0.00431021 	-0.00117833 	0.26512
0.00787625 	-0.00429824 	-0.00119277 	0.264836
0.00792642 	-0.00427547 	-0.00120765 	0.264564
0.00797659 	-0.00425271 	-0.00122253 	0.264292
0.00802676 	-0.00422595 	-0.00123732 	0.264024
0.00807692 	-0.00418424 	-0.00125179 	0.263767
0.00812709 	-0.00414253 	-0.00126626 	0.263511
0.00817726 	-0.00410081 	-0.00128072 	0.263255
0.00822742 	-0.00404815 	-0.0012943 	0.262998
0.00827759 	-0.00399429 	-0.00130778 	0.26274
0.00832776 	-0.00394042 	-0.00132126 	0.262483
0.00837793 	-0.00387978 	-0.0013346 	0.262226
0.00842809 	-0.00381548 	-0.00134788 	0.261968
0.00847826 	-0.00375117 	-0.00136115 	0.261709
0.00852843 	-0.0036824 	-0.00137427 	0.261451
0.0085786 	-0.00360829 	-0.00138719 	0.261193
0.00862876 	-0.00353418 	-0.00140011 	0.260935
0.00867893 	-0.00345776 	-0.00141284 	0.260677
0.0087291 	-0.00337639 	-0.00142516 	0.260418
0.00877926 	-0.00329501 	-0.00143747 	0.260158
0.00882943 	-0.00321258 	-0.0014496 	0.259899
0.0088796 	-0.00312674 	-0.00146113 	0.259637
0.00892977 	-0.00304089 	-0.00147265 	0.259376
0.00897993 	-0.00295459 	-0.00148386 	0.259114
0.0090301 	-0.00286656 	-0.00149384 	0.258847
0.00908027 	-0.00277852 	-0.00150382 	0.258581
0.00913043 	-0.00269003 	-0.00151323 	0.258311
0.0091806 	-0.00260001 	-0.00152074 	0.258028
0.00923077 	-0.00250999 	-0.00152825 	0.257745
0.00928094 	-0.00241915 	-0.00153495 	0.257453
0.0093311 	-0.00232648 	-0.00153982 	0.257143
0.00938127 	-0.00223381 	-0.0015447 	0.256833
0.00943144 	-0.00214 	-0.00154877 	0.256509
0.00948161 	-0.00204473 	-0.00155183 	0.25617
0.00953177 	-0.00194946 	-0.00155489 	0.25583
0.00958194 	-0.00185275 	-0.00155729 	0.255474
0.00963211 	-0.00175514 	-0.00155928 	0.255107
0.00968227 	-0.00165753 	-0.00156126 	0.25474
0.00973244 	-0.0015579 	-0.00156236 	0.254351
0.00978261 	-0.0014579 	-0.0015633 	0.253958
0.00983278 	-0.00135757 	-0.00156408 	0.253562
0.00988294 	-0.00125492 	-0.00156384 	0.253144
0.00993311 	-0.00115227 	-0.0015636 	0.252725
0.00998328 	-0.00104831 	-0.00156285 	0.252295
0.0100334 	-0.000942746 	-0.00156149 	0.251851
0.0100836 	-0.000837182 	-0.00156013 	0.251408
0.0101338 	-0.000729068 	-0.00155789 	0.250943
0.0101839 	-0.000620408 	-0.00155547 	0.250473
0.0102341 	-0.000510952 	-0.00155281 	0.249997
0.0102843 	-0.000399017 	-0.00154939 	0.249502
0.0103344 	-0.000287082 	-0.00154596 	0.249007
0.0103846 	-0.000172726 	-0.00154185 	0.248494
0.0104348 	-5.73728e-05 	-0.00153744 	0.247973
0.0104849 	5.87093e-05 	-0.00153272 	0.247447
0.0105351 	0.00017741 	-0.00152688 	0.246901
0.0105853 	0.00029611 	-0.00152103 	0.246355
0.0106355 	0.00041713 	-0.00151394 	0.245788
0.0106856 	0.000538838 	-0.00150647 	0.245217
0.0107358 	0.000661242 	-0.00149876 	0.244635
0.010786 	0.000784843 	-0.00149061 	0.244036
0.0108361 	0.000908437 	-0.00148246 	0.243438
0.0108863 	0.00103084 	-0.00147384 	0.242811
0.0109365 	0.00115323 	-0.00146523 	0.242185
0.0109866 	0.00127243 	-0.00145598 	0.241537
0.0110368 	0.00139017 	-0.00144643 	0.24088
0.011087 	0.00150543 	-0.00143647 	0.240207
0.0111371 	0.00161711 	-0.0014259 	0.239514
0.0111873 	0.00172781 	-0.001415 	0.238814
0.0112375 	0.00183369 	-0.00140248 	0.23808
0.0112876 	0.00193958 	-0.00138995 	0.237347
0.0113378 	0.00204028 	-0.00137504 	0.23657
0.011388 	0.00214082 	-0.00136005 	0.235793
0.0114381 	0.0022369 	-0.00134381 	0.234979
0.0114883 	0.00233194 	-0.00132728 	0.234157
0.0115385 	0.00242307 	-0.0013102 	0.233303
0.0115886 	0.00251243 	-0.00129287 	0.232435
0.0116388 	0.00259836 	-0.00127497 	0.231538
0.011689 	0.00268205 	-0.0012567 	0.230623
0.0117391 	0.00276262 	-0.00123785 	0.22968
0.0117893 	0.0028407 	-0.00121855 	0.228715
0.0118395 	0.00291572 	-0.0011988 	0.22772
0.0118896 	0.00298818 	-0.00117866 	0.226702
0.0119398 	0.00305744 	-0.00115803 	0.225651
0.01199 	0.00312424 	-0.00113702 	0.224576
0.0120401 	0.00318763 	-0.00111544 	0.223463
0.0120903 	0.00324894 	-0.00109351 	0.222327
0.0121405 	0.00330656 	-0.00107092 	0.221145
0.0121906 	0.00336271 	-0.00104805 	0.219945
0.0122408 	0.00341488 	-0.0010246 	0.218687
0.012291 	0.00346629 	-0.00100103 	0.217418
0.0123411 	0.0035133 	-0.000977459 	0.216077
0.0123913 	0.00355945 	-0.000953984 	0.214721
0.0124415 	0.00360196 	-0.000930911 	0.213302
0.0124916 	0.00364232 	-0.000907882 	0.211845
0.0125418 	0.00367966 	-0.000884914 	0.210336
0.012592 	0.00371304 	-0.000861112 	0.208756
0.0126421 	0.00374446 	-0.0008369 	0.207141
0.0126923 	0.00376846 	-0.000810773 	0.205405
0.0127425 	0.00378795 	-0.000784039 	0.203616
0.0127926 	0.00379622 	-0.00075591 	0.201706
0.0128428 	0.00378769 	-0.000727261 	0.199658
0.012893 	0.00376866 	-0.000698287 	0.197526
0.0129431 	0.00371983 	-0.000670548 	0.195148
0.0129933 	0.00366744 	-0.000643661 	0.1927
0.0130435 	0.00361 	-0.00061807 	0.19015
0.0130936 	0.00357437 	-0.000594046 	0.187605
0.0131438 	0.00355258 	-0.00057046 	0.185081
0.013194 	0.0035541 	-0.000547138 	0.182608
0.0132441 	0.00356077 	-0.00052247 	0.18011
0.0132943 	0.003565 	-0.000496948 	0.17756
0.0133445 	0.00355899 	-0.000470274 	0.174899
0.0133946 	0.00353923 	-0.00044352 	0.172069
0.0134448 	0.00351208 	-0.000417103 	0.16912
0.013495 	0.00347796 	-0.000391256 	0.166041
0.0135452 	0.00343475 	-0.000366387 	0.162747
0.0135953 	0.00338437 	-0.000341962 	0.159303
0.0136455 	0.00332628 	-0.000317985 	0.155699
0.0136957 	0.00325843 	-0.000294544 	0.15189
0.0137458 	0.00318212 	-0.000271893 	0.147842
0.013796 	0.0031015 	-0.000249954 	0.143616
0.0138462 	0.00301719 	-0.000228765 	0.139205
0.0138963 	0.00292957 	-0.00020834 	0.134603
0.0139465 	0.00283671 	-0.000188995 	0.129735
0.0139967 	0.00273898 	-0.00017062 	0.124644
0.0140468 	0.00263617 	-0.000153287 	0.11932
0.014097 	0.00252802 	-0.000137065 	0.113747
0.0141472 	0.0024143 	-0.00012197 	0.107911
0.0141973 	0.00229461 	-0.000107925 	0.101798
0.0142475 	0.00216784 	-9.50345e-05 	0.0953552
0.0142977 	0.00203595 	-8.31217e-05 	0.0886361
0.0143478 	0.00190101 	-7.21803e-05 	0.0816697
0.014398 	0.00176572 	-6.22457e-05 	0.0745066
0.0144482 	0.00163301 	-5.32698e-05 	0.0672217
0.0144983 	0.00150563 	-4.51288e-05 	0.0599111
0.0145485 	0.00138569 	-3.77047e-05 	0.0526844
0.0145987 	0.00127396 	-3.08965e-05 	0.0456508
0.0146488 	0.00116894 	-2.45807e-05 	0.0389006
0.014699 	0.00106583 	-1.86368e-05 	0.032489
0.0147492 	0.000955064 	-1.30167e-05 	0.0264248
0.0147993 	0.000819531 	-7.8672e-06 	0.0206609
0.0148495 	0.000629118 	-3.38817e-06 	0.0150846
0.0148997 	0.000369261 	-4.99518e-07 	0.00960563
0.0149498 	0.000116712 	4.23794e-07 	0.00442193
0.015 	0 	0 	0
