/*--------------------------------*- C++ -*----------------------------------*\
| =========                 |                                                 |
| \\      /  F ield         | OpenFOAM: The Open Source CFD Toolbox           |
|  \\    /   O peration     | Version:  v1912                                 |
|   \\  /    A nd           | Website:  www.openfoam.com                      |
|    \\/     M anipulation  |                                                 |
\*---------------------------------------------------------------------------*/
FoamFile
{
    version     2.0;
    format      ascii;
    class       volVectorField;
    location    "100";
    object      UMean;
}
// * * * * * * * * * * * * * * * * * * * * * * * * * * * * * * * * * * * * * //

dimensions      [0 1 -1 0 0 0 0];


internalField   nonuniform List<vector> 
10147
(
(0.0001834 5.22122e-07 0.0117055)
(0.000183769 5.14538e-07 0.0117141)
(0.000180347 4.83907e-07 0.0116156)
(0.000173258 4.30576e-07 0.0114136)
(2.18387e-05 5.41446e-07 0.0108198)
(1.52572e-05 5.72381e-07 0.010931)
(7.25395e-06 5.75517e-07 0.0109338)
(-2.33925e-06 5.50918e-07 0.010828)
(-0.000176364 6.05639e-07 0.011054)
(-0.000184879 6.40969e-07 0.011179)
(-0.000187963 6.27495e-07 0.0111843)
(-0.000185679 5.64935e-07 0.01107)
(-0.000121343 -4.79309e-07 0.0116262)
(-0.000120267 -4.94768e-07 0.0118224)
(-0.000117963 -5.06074e-07 0.0119177)
(-0.000114226 -5.1343e-07 0.0119086)
(0.000294331 2.54589e-06 0.0217899)
(0.000295237 2.56936e-06 0.0218178)
(0.00029179 2.59829e-06 0.0218252)
(0.000284036 2.63411e-06 0.0218136)
(2.69661e-05 3.13783e-06 0.0217876)
(1.22889e-05 3.18647e-06 0.0217922)
(-4.7548e-06 3.22009e-06 0.0217986)
(-2.48376e-05 3.24003e-06 0.021807)
(-0.000301368 3.31716e-06 0.0221758)
(-0.000315319 3.30093e-06 0.0222038)
(-0.000322235 3.23664e-06 0.0222157)
(-0.000322392 3.12178e-06 0.022212)
(-0.000210039 3.1947e-07 0.0222616)
(-0.000203515 1.82196e-07 0.0222551)
(-0.000196501 9.31518e-08 0.0222382)
(-0.000188522 4.96571e-08 0.0222093)
(0.000438435 5.60994e-06 0.0354759)
(0.000439709 5.67605e-06 0.0355182)
(0.000434473 5.74745e-06 0.0355278)
(0.00042279 5.82811e-06 0.0355071)
(3.35816e-05 7.53476e-06 0.0354521)
(1.24275e-05 7.67962e-06 0.0354614)
(-1.23674e-05 7.76692e-06 0.0354718)
(-4.17815e-05 7.8001e-06 0.0354837)
(-0.000461424 7.28443e-06 0.0360692)
(-0.00048258 7.23681e-06 0.0361147)
(-0.000493188 7.06426e-06 0.0361333)
(-0.000493668 6.75998e-06 0.0361257)
(-0.000321325 1.37515e-06 0.0362282)
(-0.000312548 1.09142e-06 0.0362211)
(-0.000302475 8.94417e-07 0.0361972)
(-0.000290391 7.77006e-07 0.0361537)
(0.000547561 9.97127e-06 0.048495)
(0.000549048 1.01123e-05 0.048549)
(0.000542344 1.02939e-05 0.0485604)
(0.000527521 1.05245e-05 0.0485326)
(3.10481e-05 1.39325e-05 0.0484557)
(4.73665e-06 1.41932e-05 0.0484693)
(-2.6221e-05 1.43619e-05 0.0484836)
(-6.30463e-05 1.44455e-05 0.0484993)
(-0.000594028 1.33304e-05 0.049275)
(-0.000620961 1.31974e-05 0.0493356)
(-0.00063462 1.28802e-05 0.04936)
(-0.000635542 1.23663e-05 0.0493492)
(-0.000414814 3.02837e-06 0.0495077)
(-0.000404496 2.49548e-06 0.0494996)
(-0.00039198 2.12759e-06 0.0494696)
(-0.000376342 1.91155e-06 0.0494145)
(0.000635529 1.47341e-05 0.0608625)
(0.000637112 1.49641e-05 0.0609257)
(0.00062908 1.52693e-05 0.0609387)
(0.000611508 1.56635e-05 0.0609053)
(2.17638e-05 2.15094e-05 0.0608116)
(-9.18258e-06 2.19409e-05 0.060829)
(-4.55398e-05 2.221e-05 0.0608472)
(-8.87422e-05 2.23275e-05 0.0608669)
(-0.000710018 2.0175e-05 0.06181)
(-0.00074176 1.99528e-05 0.0618835)
(-0.00075798 1.94585e-05 0.0619127)
(-0.000759316 1.86725e-05 0.0618989)
(-0.000496571 4.92266e-06 0.0621124)
(-0.000484902 4.132e-06 0.0621025)
(-0.000470186 3.58024e-06 0.0620674)
(-0.000451307 3.24712e-06 0.0620032)
(0.000708361 1.96649e-05 0.0725957)
(0.000709934 1.99971e-05 0.0726659)
(0.000700629 2.04551e-05 0.0726802)
(0.000680519 2.10588e-05 0.0726426)
(7.18368e-06 2.98608e-05 0.072535)
(-2.78665e-05 3.04936e-05 0.0725559)
(-6.88886e-05 3.08824e-05 0.0725779)
(-0.000117501 3.10425e-05 0.072602)
(-0.000814197 2.76104e-05 0.0736937)
(-0.000849971 2.72751e-05 0.0737781)
(-0.000868321 2.65743e-05 0.0738113)
(-0.000869971 2.54804e-05 0.0737948)
(-0.000568428 6.68559e-06 0.0740594)
(-0.000555648 5.5943e-06 0.0740472)
(-0.000538995 4.83063e-06 0.0740076)
(-0.000517179 4.36635e-06 0.0739364)
(0.000766867 2.46937e-05 0.0837116)
(0.000768335 2.51368e-05 0.083787)
(0.000757828 2.57689e-05 0.0838021)
(0.000735409 2.66168e-05 0.0837615)
(-1.18332e-05 3.88808e-05 0.0836426)
(-5.04635e-05 3.97459e-05 0.0836667)
(-9.54476e-05 4.02713e-05 0.0836925)
(-0.00014856 4.04778e-05 0.0837212)
(-0.000907041 3.5502e-05 0.0849463)
(-0.000946138 3.50357e-05 0.0850401)
(-0.000966244 3.41021e-05 0.0850767)
(-0.000968152 3.26644e-05 0.0850577)
(-0.00063154 8.32688e-06 0.0853685)
(-0.000617905 6.9038e-06 0.0853536)
(-0.00059958 5.90778e-06 0.0853101)
(-0.000575121 5.30199e-06 0.0852337)
(0.000811855 2.96538e-05 0.0942231)
(0.000813136 3.02131e-05 0.0943022)
(0.000801509 3.10373e-05 0.0943181)
(0.000777023 3.21602e-05 0.0942753)
(-3.45165e-05 4.831e-05 0.0941476)
(-7.62138e-05 4.94346e-05 0.0941744)
(-0.000124489 5.01122e-05 0.094204)
(-0.000181247 5.03696e-05 0.0942373)
(-0.000989074 4.36259e-05 0.0955848)
(-0.00103085 4.30127e-05 0.0956866)
(-0.00105238 4.18228e-05 0.0957261)
(-0.00105452 4.00091e-05 0.095705)
(-0.000686945 9.6831e-06 0.096056)
(-0.000672717 7.89974e-06 0.0960379)
(-0.000652985 6.65371e-06 0.0959911)
(-0.000626167 5.89912e-06 0.0959108)
(0.000844155 3.44036e-05 0.104136)
(0.000845176 3.50818e-05 0.104218)
(0.000832516 3.6113e-05 0.104234)
(0.00080621 3.75383e-05 0.10419)
(-6.0183e-05 5.79588e-05 0.104055)
(-0.00010445 5.93675e-05 0.104084)
(-0.000155382 6.02118e-05 0.104118)
(-0.000214987 6.05248e-05 0.104156)
(-0.0010609 5.1815e-05 0.105618)
(-0.00110477 5.10411e-05 0.105727)
(-0.00112744 4.95742e-05 0.105769)
(-0.00112981 4.73566e-05 0.105746)
(-0.000735563 1.06608e-05 0.106129)
(-0.000721003 8.49207e-06 0.106108)
(-0.000700124 6.98121e-06 0.106058)
(-0.000671222 6.07293e-06 0.105975)
(0.000864682 3.88417e-05 0.113452)
(0.00086538 3.96405e-05 0.113535)
(0.000851781 4.08924e-05 0.113552)
(0.000823898 4.26458e-05 0.113507)
(-8.81925e-05 6.76921e-05 0.113366)
(-0.000134559 6.94067e-05 0.113398)
(-0.000187553 7.0431e-05 0.113434)
(-0.000249268 7.08056e-05 0.113477)
(-0.00112325 5.99607e-05 0.115047)
(-0.00116868 5.90134e-05 0.115162)
(-0.00119223 5.72518e-05 0.115207)
(-0.00119482 5.46066e-05 0.115182)
(-0.000778318 1.12124e-05 0.115591)
(-0.000763679 8.63588e-06 0.115566)
(-0.000741904 6.84746e-06 0.115514)
(-0.000711181 5.78223e-06 0.115429)
(0.000874481 4.28819e-05 0.122175)
(0.000874805 4.38015e-05 0.122259)
(0.00086036 4.52855e-05 0.122276)
(0.000831134 4.73898e-05 0.12223)
(-0.000117954 7.73703e-05 0.122083)
(-0.000165985 7.94092e-05 0.122117)
(-0.000220504 8.06256e-05 0.122156)
(-0.000283662 8.10676e-05 0.122204)
(-0.00117699 6.79307e-05 0.123878)
(-0.00122352 6.67988e-05 0.123998)
(-0.00124773 6.47276e-05 0.124044)
(-0.00125058 6.16353e-05 0.124019)
(-0.000816243 1.1282e-05 0.124446)
(-0.000801767 8.27835e-06 0.124418)
(-0.000779334 6.20179e-06 0.124363)
(-0.000747039 4.97777e-06 0.124276)
(0.000874691 4.64308e-05 0.130319)
(0.000874599 4.74682e-05 0.130404)
(0.000859395 4.91923e-05 0.13042)
(0.000829045 5.1666e-05 0.130374)
(-0.000148969 8.6799e-05 0.130221)
(-0.000198275 8.91765e-05 0.130256)
(-0.000253841 9.05944e-05 0.130299)
(-0.000317857 9.11087e-05 0.130352)
(-0.00122325 7.55569e-05 0.132123)
(-0.00127047 7.42318e-05 0.132248)
(-0.00129516 7.1839e-05 0.132296)
(-0.00129829 6.82838e-05 0.132269)
(-0.000850529 1.07645e-05 0.13271)
(-0.000836442 7.31814e-06 0.132679)
(-0.000813571 4.94577e-06 0.132623)
(-0.000779935 3.56312e-06 0.132535)
(0.000866487 4.93786e-05 0.137913)
(0.000865945 5.05284e-05 0.137997)
(0.000850068 5.24969e-05 0.138013)
(0.000818794 5.53541e-05 0.137967)
(-0.000180845 9.57998e-05 0.137807)
(-0.000231086 9.85281e-05 0.137844)
(-0.000287286 0.000100156 0.13789)
(-0.000351662 0.000100747 0.137947)
(-0.00126314 8.27002e-05 0.139812)
(-0.00131073 8.1176e-05 0.139941)
(-0.00133577 7.84522e-05 0.139991)
(-0.00133923 7.44215e-05 0.139963)
(-0.00088238 9.57314e-06 0.140414)
(-0.000868887 5.67258e-06 0.140381)
(-0.000845778 2.99965e-06 0.140322)
(-0.000811005 1.46046e-06 0.140234)
(0.000851079 5.165e-05 0.144992)
(0.000850068 5.29063e-05 0.145075)
(0.000833603 5.51234e-05 0.145091)
(0.000801591 5.83779e-05 0.145044)
(-0.000213279 0.000104307 0.14488)
(-0.000264157 0.000107399 0.144919)
(-0.000320644 0.000109244 0.144968)
(-0.000384969 0.000109918 0.145029)
(-0.00129767 8.93203e-05 0.146982)
(-0.00134538 8.75915e-05 0.147114)
(-0.00137067 8.45297e-05 0.147166)
(-0.00137454 8.00141e-05 0.147137)
(-0.000912741 7.71702e-06 0.147597)
(-0.000900034 3.3526e-06 0.14756)
(-0.000876865 3.75724e-07 0.1475)
(-0.00084113 -1.31695e-06 0.147412)
(0.000829674 5.32292e-05 0.151595)
(0.000828187 5.45871e-05 0.151677)
(0.000811213 5.70584e-05 0.151692)
(0.000778633 6.0726e-05 0.151646)
(-0.000246027 0.000112327 0.151478)
(-0.000297287 0.000115793 0.151519)
(-0.000353773 0.000117865 0.151571)
(-0.000417714 0.000118627 0.151636)
(-0.00132767 9.54286e-05 0.153673)
(-0.00137531 9.34893e-05 0.15381)
(-0.0014008 9.00835e-05 0.153862)
(-0.00140515 8.50767e-05 0.153833)
(-0.000942182 5.25899e-06 0.154297)
(-0.000930437 4.23082e-07 0.154258)
(-0.000907361 -2.85983e-06 0.154197)
(-0.000870804 -4.70232e-06 0.154109)
(0.000803427 5.41044e-05 0.157756)
(0.000801467 5.55584e-05 0.157836)
(0.000784061 5.82885e-05 0.157852)
(0.00075106 6.23838e-05 0.157806)
(-0.000278884 0.00011983 0.157639)
(-0.000330313 0.00012368 0.157681)
(-0.000386564 0.000125986 0.157736)
(-0.000449856 0.000126842 0.157806)
(-0.00135374 0.000100983 0.159923)
(-0.00140117 9.88281e-05 0.160062)
(-0.00142684 9.50741e-05 0.160116)
(-0.00143176 8.95724e-05 0.160087)
(-0.000970991 2.22266e-06 0.160553)
(-0.000960368 -3.09022e-06 0.160511)
(-0.000937518 -6.67967e-06 0.160449)
(-0.000900251 -8.66722e-06 0.160362)
(0.000773384 5.42308e-05 0.163507)
(0.000770961 5.5773e-05 0.163586)
(0.000753189 5.87635e-05 0.163601)
(0.000719893 6.3297e-05 0.163556)
(-0.000311673 0.000126716 0.163394)
(-0.000363096 0.000130956 0.163438)
(-0.000418922 0.000133504 0.163495)
(-0.000481356 0.000134459 0.163569)
(-0.00137641 0.000105899 0.165763)
(-0.00142353 0.000103527 0.165905)
(-0.00144936 9.94223e-05 0.16596)
(-0.00145494 9.34232e-05 0.16593)
(-0.000999322 -1.44101e-06 0.166397)
(-0.000989963 -7.23442e-06 0.166352)
(-0.000967452 -1.11293e-05 0.16629)
(-0.000929563 -1.32558e-05 0.166204)
(0.000740427 5.35478e-05 0.168879)
(0.000737555 5.51691e-05 0.168957)
(0.000719474 5.84196e-05 0.168971)
(0.000685981 6.3399e-05 0.168927)
(-0.000344264 0.000132883 0.168773)
(-0.000395536 0.00013752 0.168818)
(-0.000450787 0.000140314 0.168878)
(-0.000512196 0.000141375 0.168955)
(-0.00139616 0.00011011 0.171223)
(-0.00144289 0.00010752 0.171366)
(-0.00146889 0.000103064 0.171422)
(-0.0014752 9.65654e-05 0.171393)
(-0.00102729 -5.79464e-06 0.171859)
(-0.00101932 -1.20717e-05 0.171812)
(-0.000997243 -1.62705e-05 0.171749)
(-0.000958807 -1.85295e-05 0.171665)
(0.000705334 5.20242e-05 0.173901)
(0.000702029 5.37148e-05 0.173977)
(0.000683684 5.72243e-05 0.173991)
(0.000650072 6.26569e-05 0.173947)
(-0.000376538 0.000138276 0.173804)
(-0.000427546 0.000143316 0.17385)
(-0.000482101 0.000146364 0.173913)
(-0.000542358 0.000147539 0.173994)
(-0.00141342 0.000113593 0.176331)
(-0.0014597 0.000110785 0.176475)
(-0.00148588 0.000105976 0.176532)
(-0.001493 9.89779e-05 0.176503)
(-0.00105503 -1.08587e-05 0.176969)
(-0.00104855 -1.76228e-05 0.17692)
(-0.00102699 -2.21241e-05 0.176856)
(-0.000988072 -2.45091e-05 0.176774)
(0.00066883 4.96574e-05 0.178602)
(0.000665108 5.14069e-05 0.178675)
(0.000646536 5.51738e-05 0.178689)
(0.000612863 6.10664e-05 0.178647)
(-0.000408339 0.000142874 0.178515)
(-0.000458995 0.000148322 0.178562)
(-0.000512765 0.00015163 0.178627)
(-0.000571769 0.000152927 0.178712)
(-0.00142852 0.000116335 0.181113)
(-0.00147431 0.00011331 0.181259)
(-0.00150068 0.00010815 0.181317)
(-0.00150867 0.000100652 0.181289)
(-0.00108266 -1.66185e-05 0.181753)
(-0.00107776 -2.38714e-05 0.181702)
(-0.00105679 -2.86731e-05 0.181638)
(-0.00101745 -3.11772e-05 0.181558)
(0.000631567 4.64701e-05 0.183008)
(0.000627443 4.82677e-05 0.183078)
(0.000608672 5.22899e-05 0.183091)
(0.000574981 5.8648e-05 0.183051)
(-0.000439496 0.000146669 0.182932)
(-0.000489736 0.00015253 0.18298)
(-0.000542652 0.000156103 0.183047)
(-0.00060033 0.000157529 0.183136)
(-0.0014417 0.000118333 0.185597)
(-0.00148697 0.000115092 0.185743)
(-0.00151354 0.000109582 0.185802)
(-0.00152247 0.000101587 0.185774)
(-0.00111028 -2.30408e-05 0.186238)
(-0.00110704 -3.07824e-05 0.186185)
(-0.00108672 -3.58807e-05 0.186121)
(-0.001047 -3.84964e-05 0.186043)
(0.000594064 4.25274e-05 0.187145)
(0.00058955 4.4361e-05 0.187213)
(0.000570603 4.86348e-05 0.187225)
(0.000536926 5.54628e-05 0.187186)
(-0.000469826 0.000149669 0.18708)
(-0.000519604 0.000155946 0.187128)
(-0.000571615 0.00015979 0.187197)
(-0.000627911 0.000161353 0.187289)
(-0.00145317 0.000119605 0.189806)
(-0.0014979 0.000116151 0.189953)
(-0.00152469 0.000110294 0.190012)
(-0.0015346 0.000101804 0.189985)
(-0.00113792 -3.00901e-05 0.190448)
(-0.0011364 -3.83198e-05 0.190394)
(-0.00111679 -4.37108e-05 0.190331)
(-0.00107674 -4.64304e-05 0.190254)
(0.000556655 3.78434e-05 0.191038)
(0.000551761 3.97016e-05 0.191103)
(0.000532654 4.4223e-05 0.191115)
(0.000499016 5.15233e-05 0.191077)
(-0.000499176 0.000151909 0.190982)
(-0.000548458 0.000158604 0.191031)
(-0.000599527 0.000162724 0.191102)
(-0.000654397 0.000164431 0.191197)
(-0.00146316 0.000120205 0.193764)
(-0.00150734 0.000116541 0.193912)
(-0.00153436 0.000110341 0.193971)
(-0.0015453 0.00010136 0.193945)
(-0.00116558 -3.77304e-05 0.194409)
(-0.00116584 -4.64491e-05 0.194353)
(-0.00114698 -5.21297e-05 0.19429)
(-0.00110665 -5.49457e-05 0.194217)
(0.000519496 3.24672e-05 0.19471)
(0.00051423 3.43385e-05 0.194773)
(0.000494979 3.91029e-05 0.194784)
(0.000461402 4.68777e-05 0.194746)
(-0.000527475 0.000153421 0.194662)
(-0.000576238 0.000160537 0.194711)
(-0.000626338 0.000164939 0.194783)
(-0.000679751 0.000166799 0.194882)
(-0.00147192 0.000120201 0.197494)
(-0.00151554 0.00011633 0.197642)
(-0.00154281 0.000109789 0.197702)
(-0.0015548 0.000100318 0.197677)
(-0.0011932 -4.59161e-05 0.198142)
(-0.00119526 -5.51256e-05 0.198084)
(-0.00117719 -6.10932e-05 0.198022)
(-0.00113663 -6.39979e-05 0.197952)
(0.000482657 2.64451e-05 0.198184)
(0.000477027 2.83176e-05 0.198244)
(0.000457645 3.33205e-05 0.198254)
(0.000424147 4.15716e-05 0.198217)
(-0.000554768 0.000154217 0.19814)
(-0.000602994 0.000161756 0.198189)
(-0.000652105 0.000166444 0.198263)
(-0.000704039 0.000168465 0.198363)
(-0.00147969 0.000119572 0.201016)
(-0.00152274 0.000115499 0.201164)
(-0.00155026 0.000108619 0.201224)
(-0.00156334 9.86601e-05 0.2012)
(-0.00122066 -5.46715e-05 0.201668)
(-0.00122454 -6.43724e-05 0.20161)
(-0.00120729 -7.06249e-05 0.201548)
(-0.00116653 -7.36135e-05 0.201481)
(0.000446135 1.98109e-05 0.201479)
(0.000440147 2.16744e-05 0.201537)
(0.000420643 2.69113e-05 0.201546)
(0.00038724 3.56392e-05 0.20151)
(-0.000581191 0.000154349 0.201436)
(-0.000628865 0.000162313 0.201485)
(-0.000676969 0.000167291 0.201559)
(-0.000727403 0.000169478 0.201662)
(-0.00148659 0.000118277 0.204348)
(-0.00152906 0.000114007 0.204496)
(-0.00155682 0.000106792 0.204557)
(-0.00157099 9.63473e-05 0.204534)
(-0.00124785 -6.39447e-05 0.205007)
(-0.00125355 -7.41352e-05 0.204948)
(-0.00123714 -8.06694e-05 0.204887)
(-0.00119622 -8.3737e-05 0.204823)
(0.000409821 1.25876e-05 0.204616)
(0.000403482 1.44343e-05 0.204671)
(0.000383866 1.99014e-05 0.204679)
(0.000350569 2.91059e-05 0.204643)
(-0.000606935 0.000153867 0.204567)
(-0.000654036 0.000162257 0.204615)
(-0.000701115 0.000167528 0.20469)
(-0.000750029 0.000169888 0.204795)
(-0.00149263 0.000116443 0.207509)
(-0.00153449 0.00011198 0.207657)
(-0.00156249 0.000104433 0.207718)
(-0.00157774 9.35061e-05 0.207696)
(-0.00127456 -7.35793e-05 0.208177)
(-0.00128208 -8.42575e-05 0.208117)
(-0.00126652 -9.10678e-05 0.208057)
(-0.00122549 -9.42043e-05 0.207996)
(0.000373609 4.84423e-06 0.207608)
(0.000366925 6.66475e-06 0.20766)
(0.000347203 1.23581e-05 0.207666)
(0.000314021 2.20403e-05 0.207631)
(-0.000632225 0.000152813 0.20755)
(-0.000678733 0.00016163 0.207598)
(-0.000724763 0.000167198 0.207673)
(-0.000772131 0.000169739 0.20778)
(-0.00149774 0.000114257 0.210515)
(-0.00153895 0.000109602 0.210662)
(-0.00156717 0.000101727 0.210724)
(-0.00158351 9.03215e-05 0.210703)
(-0.00130054 -8.35516e-05 0.211194)
(-0.00130986 -9.47178e-05 0.211132)
(-0.00129518 -0.0001018 0.211074)
(-0.00125408 -0.000104996 0.211016)
(0.000337553 -3.11442e-06 0.210468)
(0.000330521 -1.34176e-06 0.210517)
(0.000310695 4.56738e-06 0.210522)
(0.00027763 1.47267e-05 0.210487)
(-0.000657311 0.000151131 0.210401)
(-0.000703205 0.000160375 0.210447)
(-0.00074816 0.000166247 0.210523)
(-0.000793949 0.000168978 0.210631)
(-0.00150189 0.000111715 0.21338)
(-0.00154242 0.000106875 0.213527)
(-0.00157083 9.86769e-05 0.213589)
(-0.00158824 8.67966e-05 0.213569)
(-0.00132571 -9.39672e-05 0.214071)
(-0.00133684 -0.000105622 0.214009)
(-0.00132304 -0.000112977 0.213952)
(-0.00128191 -0.000116233 0.213897)
(0.000301872 -1.16049e-05 0.213205)
(0.000294474 -9.88884e-06 0.213251)
(0.000274531 -3.77159e-06 0.213255)
(0.000241577 6.85782e-06 0.21322)
(-0.000682433 0.000148864 0.213131)
(-0.000727699 0.000158534 0.213176)
(-0.000771553 0.000164713 0.213252)
(-0.000815725 0.000167645 0.213362)
(-0.00150512 0.000108609 0.216118)
(-0.00154493 0.0001036 0.216264)
(-0.00157349 9.50882e-05 0.216326)
(-0.00159194 8.27384e-05 0.216307)
(-0.00135025 -0.000104779 0.21682)
(-0.00136316 -0.000116921 0.216758)
(-0.00135026 -0.000124549 0.216702)
(-0.00130915 -0.000127869 0.21665)
(0.000266469 -2.08939e-05 0.21583)
(0.000258679 -1.92275e-05 0.215873)
(0.000238598 -1.29052e-05 0.215876)
(0.00020574 -1.81858e-06 0.215841)
(-0.000707698 0.000146276 0.215751)
(-0.000752334 0.000156369 0.215795)
(-0.000795063 0.000162859 0.215871)
(-0.000837573 0.000166002 0.215982)
(-0.00150747 0.000104956 0.218741)
(-0.00154649 9.97932e-05 0.218886)
(-0.00157516 9.09809e-05 0.218948)
(-0.00159461 7.81713e-05 0.21893)
(-0.00137401 -0.000115787 0.219451)
(-0.00138869 -0.000128414 0.219389)
(-0.0013767 -0.000136313 0.219335)
(-0.00133566 -0.000139693 0.219285)
(0.000230927 -3.04064e-05 0.218353)
(0.00022273 -2.87913e-05 0.218395)
(0.000202496 -2.22624e-05 0.218396)
(0.000169711 -1.07136e-05 0.218361)
(-0.000732971 0.00014351 0.21827)
(-0.000776984 0.000154022 0.218313)
(-0.000818574 0.000160818 0.218389)
(-0.000859381 0.000164167 0.218501)
(-0.00150902 0.000101317 0.221257)
(-0.00154719 9.59931e-05 0.221401)
(-0.00157591 8.68758e-05 0.221464)
(-0.00159631 7.36058e-05 0.221447)
(-0.00139643 -0.000126774 0.221977)
(-0.00141283 -0.000139874 0.221915)
(-0.00140174 -0.000148029 0.221862)
(-0.00136079 -0.000151451 0.221815)
(0.000195109 -3.94538e-05 0.220791)
(0.000186517 -3.79134e-05 0.22083)
(0.000166127 -3.11855e-05 0.22083)
(0.000133403 -1.91681e-05 0.220795)
(-0.000757802 0.000140564 0.2207)
(-0.000801201 0.000151493 0.220741)
(-0.000841649 0.0001586 0.220817)
(-0.000880741 0.000162165 0.220929)
(-0.00151016 9.77453e-05 0.223676)
(-0.00154744 9.22557e-05 0.223819)
(-0.00157615 8.28296e-05 0.223881)
(-0.00159742 6.90951e-05 0.223865)
(-0.00141734 -0.000137596 0.224412)
(-0.0014354 -0.000151174 0.224349)
(-0.00142519 -0.000159583 0.224298)
(-0.00138434 -0.000163038 0.224254)
(0.000159344 -4.81989e-05 0.223155)
(0.000150393 -4.67622e-05 0.223191)
(0.00012987 -3.98601e-05 0.22319)
(9.72186e-05 -2.73964e-05 0.223154)
(-0.00078133 0.000136907 0.223047)
(-0.000824119 0.000148258 0.223087)
(-0.000863426 0.000155686 0.223162)
(-0.000900802 0.000159486 0.223275)
(-0.001511 9.39698e-05 0.226007)
(-0.00154734 8.83428e-05 0.226149)
(-0.00157602 7.86268e-05 0.226211)
(-0.00159815 6.44383e-05 0.226196)
(-0.00143721 -0.000148645 0.226762)
(-0.00145689 -0.000162714 0.2267)
(-0.00144754 -0.000171391 0.22665)
(-0.00140682 -0.000174897 0.22661)
(0.000124146 -5.80157e-05 0.225453)
(0.000114879 -5.66687e-05 0.225486)
(9.42536e-05 -4.95996e-05 0.225484)
(6.16954e-05 -3.67167e-05 0.225448)
(-0.000803126 0.000132382 0.225317)
(-0.00084529 0.000144146 0.225356)
(-0.00088344 0.000151897 0.225431)
(-0.00091908 0.000155941 0.225543)
(-0.00151127 8.97641e-05 0.228262)
(-0.00154668 8.40327e-05 0.228402)
(-0.00157534 7.40512e-05 0.228464)
(-0.00159839 5.9426e-05 0.228449)
(-0.00145661 -0.000159917 0.229027)
(-0.00147791 -0.000174472 0.228965)
(-0.00146946 -0.000183419 0.228917)
(-0.00142891 -0.00018698 0.22888)
(8.96267e-05 -6.84262e-05 0.227682)
(8.00705e-05 -6.71685e-05 0.227712)
(5.93528e-05 -5.9934e-05 0.227708)
(2.68828e-05 -4.66359e-05 0.227673)
(-0.000823709 0.00012772 0.227516)
(-0.000865235 0.000139892 0.227554)
(-0.000902189 0.000147956 0.227628)
(-0.000936029 0.000152232 0.22774)
(-0.00151051 8.51382e-05 0.230445)
(-0.00154499 7.93063e-05 0.230584)
(-0.00157368 6.9067e-05 0.230645)
(-0.00159771 5.40164e-05 0.230631)
(-0.00147628 -0.000170935 0.231215)
(-0.00149929 -0.000185955 0.231153)
(-0.00149181 -0.000195146 0.231106)
(-0.0014515 -0.000198733 0.231072)
(5.62066e-05 -7.84081e-05 0.22984)
(4.63138e-05 -7.72494e-05 0.229868)
(2.54517e-05 -6.983e-05 0.229863)
(-6.99042e-06 -5.60687e-05 0.229827)
(-0.000843853 0.000123767 0.229648)
(-0.000884753 0.000136342 0.229685)
(-0.000920489 0.000144711 0.229758)
(-0.000952469 0.000149201 0.22987)
(-0.00150889 8.06879e-05 0.232559)
(-0.00154237 7.47136e-05 0.232696)
(-0.00157105 6.4189e-05 0.232756)
(-0.00159606 4.86989e-05 0.232743)
(-0.00149549 -0.000181979 0.233332)
(-0.00152022 -0.00019743 0.233271)
(-0.00151375 -0.000206843 0.233225)
(-0.00147374 -0.000210444 0.233193)
(2.44462e-05 -8.81482e-05 0.23193)
(1.41454e-05 -8.70995e-05 0.231955)
(-6.91903e-06 -7.94968e-05 0.231949)
(-3.93817e-05 -6.52647e-05 0.231914)
(-0.000864836 0.000120417 0.231718)
(-0.000905173 0.000133413 0.231754)
(-0.000939741 0.00014211 0.231826)
(-0.000969906 0.000146851 0.231938)
(-0.00150647 7.61286e-05 0.234602)
(-0.00153889 7.00237e-05 0.234738)
(-0.00156746 5.9226e-05 0.234798)
(-0.00159328 4.33096e-05 0.234785)
(-0.00151319 -0.000193019 0.235386)
(-0.0015395 -0.00020892 0.235325)
(-0.00153395 -0.000218578 0.23528)
(-0.00149427 -0.000222222 0.235251)
(-5.41043e-06 -9.83148e-05 0.23396)
(-1.61746e-05 -9.73802e-05 0.233982)
(-3.74819e-05 -8.96176e-05 0.233976)
(-6.99944e-05 -7.49576e-05 0.23394)
(-0.000886761 0.000116101 0.233734)
(-0.00092661 0.000129526 0.233769)
(-0.000960077 0.000138565 0.23384)
(-0.000988485 0.000143574 0.23395)
(-0.00150373 7.16154e-05 0.236583)
(-0.00153505 6.54307e-05 0.236717)
(-0.00156337 5.43937e-05 0.236776)
(-0.0015898 3.80691e-05 0.236765)
(-0.00152853 -0.00020417 0.237383)
(-0.00155619 -0.000220528 0.237323)
(-0.00155148 -0.000230445 0.237281)
(-0.00151213 -0.000234155 0.237254)
(-3.43363e-05 -0.000109069 0.235932)
(-4.55968e-05 -0.000108227 0.235953)
(-6.72107e-05 -0.000100297 0.235946)
(-9.98692e-05 -8.52147e-05 0.23591)
(-0.000909682 0.000110592 0.2357)
(-0.000949117 0.000124448 0.235734)
(-0.000981529 0.00013383 0.235804)
(-0.0010082 0.000139108 0.235914)
(-0.00150123 6.7484e-05 0.23851)
(-0.00153134 6.12115e-05 0.238642)
(-0.00155927 4.99253e-05 0.238701)
(-0.00158613 3.318e-05 0.23869)
(-0.00154184 -0.000215 0.23933)
(-0.0015707 -0.000231826 0.239271)
(-0.00156677 -0.000241999 0.23923)
(-0.0015278 -0.000245754 0.239206)
(-6.40973e-05 -0.000119494 0.237853)
(-7.58257e-05 -0.000118755 0.237873)
(-9.77914e-05 -0.000110659 0.237864)
(-0.000130713 -9.51466e-05 0.237829)
(-0.000933737 0.000105319 0.237618)
(-0.000972831 0.000119599 0.23765)
(-0.0010042 0.000129309 0.237719)
(-0.00102909 0.000134833 0.237827)
(-0.00149881 6.34934e-05 0.240386)
(-0.00152758 5.71217e-05 0.240516)
(-0.00155502 4.55766e-05 0.240574)
(-0.00158221 2.84025e-05 0.240564)
(-0.00155364 -0.000225635 0.241227)
(-0.00158362 -0.000242913 0.241168)
(-0.00158044 -0.000253322 0.241129)
(-0.00154189 -0.000257101 0.241108)
(-9.50175e-05 -0.000129414 0.239726)
(-0.000107183 -0.000128788 0.239744)
(-0.000129525 -0.000120521 0.239735)
(-0.00016279 -0.00010456 0.2397)
(-0.000958792 0.000101676 0.239489)
(-0.000997593 0.000116366 0.239519)
(-0.00102792 0.0001264 0.239587)
(-0.00105098 0.000132175 0.239694)
(-0.00149537 5.95658e-05 0.242208)
(-0.00152273 5.30937e-05 0.242335)
(-0.00154959 4.12983e-05 0.242392)
(-0.00157702 2.37141e-05 0.242383)
(-0.00156409 -0.000236179 0.243068)
(-0.00159515 -0.000253883 0.243011)
(-0.00159272 -0.000264523 0.242973)
(-0.00155461 -0.00026834 0.242955)
(-0.000126462 -0.000138374 0.241557)
(-0.000139066 -0.000137892 0.241574)
(-0.000161802 -0.000129475 0.241565)
(-0.00019544 -0.000113079 0.241529)
(-0.000982762 9.85777e-05 0.241321)
(-0.0010213 0.000113683 0.24135)
(-0.00105057 0.000124055 0.241416)
(-0.00107173 0.000130103 0.241521)
(-0.00149078 5.55206e-05 0.243975)
(-0.00151666 4.8978e-05 0.2441)
(-0.00154288 3.6959e-05 0.244156)
(-0.00157048 1.89893e-05 0.244147)
(-0.00157342 -0.000245151 0.244852)
(-0.00160552 -0.000263278 0.244796)
(-0.00160383 -0.000274138 0.24476)
(-0.00156619 -0.000277973 0.244744)
(-0.000156487 -0.000147206 0.243356)
(-0.000169609 -0.000146868 0.243372)
(-0.000192791 -0.00013832 0.243362)
(-0.000226836 -0.000121523 0.243327)
(-0.0010047 9.43506e-05 0.243124)
(-0.00104302 0.000109871 0.243152)
(-0.0010712 0.000120582 0.243216)
(-0.00109036 0.000126904 0.243319)
(-0.0014862 5.20769e-05 0.245694)
(-0.00151054 4.54876e-05 0.245817)
(-0.00153606 3.3258e-05 0.245872)
(-0.00156379 1.49057e-05 0.245862)
(-0.0015826 -0.000253502 0.246585)
(-0.00161571 -0.000272058 0.24653)
(-0.00161477 -0.000283137 0.246495)
(-0.00157765 -0.000286981 0.246481)
(-0.000184448 -0.000156173 0.245126)
(-0.000198184 -0.000155957 0.245141)
(-0.000221903 -0.000147269 0.24513)
(-0.000256444 -0.00013008 0.245095)
(-0.00102756 9.02176e-05 0.244894)
(-0.0010657 0.000106131 0.24492)
(-0.0010928 0.000117164 0.244982)
(-0.00110992 0.000123752 0.245083)
(-0.00148249 4.88486e-05 0.24737)
(-0.0015052 4.2192e-05 0.247489)
(-0.00152999 2.97337e-05 0.247543)
(-0.00155785 1.09821e-05 0.247534)
(-0.00159247 -0.000262831 0.248282)
(-0.00162658 -0.000281825 0.248227)
(-0.00162641 -0.000293138 0.248194)
(-0.00158986 -0.000297016 0.248183)
(-0.000211253 -0.000166826 0.246856)
(-0.00022562 -0.000166657 0.24687)
(-0.000249956 -0.00015779 0.246859)
(-0.000285136 -0.0001402 0.246823)
(-0.00105238 8.57698e-05 0.246625)
(-0.00109042 0.000102074 0.246649)
(-0.00111647 0.000113412 0.24671)
(-0.00113155 0.000120231 0.246809)
(-0.00147952 4.54822e-05 0.249005)
(-0.00150051 3.87434e-05 0.249121)
(-0.00152451 2.60507e-05 0.249174)
(-0.00155245 6.90331e-06 0.249164)
(-0.00160299 -0.000274575 0.249947)
(-0.00163806 -0.00029399 0.249893)
(-0.00163868 -0.000305571 0.249862)
(-0.00160279 -0.000309571 0.249854)
(-0.000236429 -0.000176698 0.248557)
(-0.000251403 -0.000176592 0.248569)
(-0.000276435 -0.000167548 0.248557)
(-0.000312436 -0.00014954 0.248522)
(-0.00107877 8.18131e-05 0.248313)
(-0.00111687 9.85215e-05 0.248336)
(-0.00114194 0.00011017 0.248395)
(-0.00115499 0.000117217 0.248491)
(-0.0014764 4.19282e-05 0.250599)
(-0.00149554 3.51135e-05 0.250712)
(-0.0015186 2.21963e-05 0.250763)
(-0.00154648 2.66719e-06 0.250753)
(-0.00161088 -0.000284762 0.251565)
(-0.0016468 -0.000304567 0.251512)
(-0.00164816 -0.000316384 0.251483)
(-0.00161295 -0.000320473 0.251477)
(-0.000258726 -0.000184502 0.250235)
(-0.000274299 -0.000184512 0.250245)
(-0.000300119 -0.000175315 0.250232)
(-0.000337134 -0.000156892 0.250197)
(-0.00110748 7.95228e-05 0.249953)
(-0.00114579 9.66474e-05 0.249975)
(-0.00116999 0.000108625 0.250031)
(-0.00118105 0.000115929 0.250124)
(-0.00147304 3.9644e-05 0.252148)
(-0.00149018 3.27608e-05 0.252258)
(-0.00151215 1.96274e-05 0.252307)
(-0.00153982 -2.74166e-07 0.252297)
(-0.00161342 -0.000291155 0.253129)
(-0.00165006 -0.000311345 0.253077)
(-0.00165209 -0.000323349 0.25305)
(-0.00161751 -0.000327425 0.253045)
(-0.000277636 -0.000190252 0.251886)
(-0.000293827 -0.000190432 0.251894)
(-0.000320528 -0.000181114 0.25188)
(-0.000358725 -0.000162289 0.251846)
(-0.00113719 7.82916e-05 0.251553)
(-0.00117582 9.58203e-05 0.251573)
(-0.0011992 0.000108127 0.251627)
(-0.00120827 0.000115696 0.251716)
(-0.00146921 3.83791e-05 0.253651)
(-0.00148422 3.14344e-05 0.253758)
(-0.00150497 1.80923e-05 0.253805)
(-0.0015323 -2.1735e-06 0.253795)
(-0.00161141 -0.000296863 0.25465)
(-0.00164868 -0.000317452 0.2546)
(-0.00165132 -0.000329653 0.254574)
(-0.0016174 -0.000333726 0.254571)
(-0.000294459 -0.000195696 0.253495)
(-0.000311286 -0.000196018 0.253502)
(-0.000338936 -0.000186579 0.253487)
(-0.000378433 -0.000167377 0.253452)
(-0.00116774 7.62937e-05 0.253119)
(-0.00120675 9.41879e-05 0.253138)
(-0.00122935 0.000106783 0.253189)
(-0.00123645 0.000114577 0.253274)
(-0.00146493 3.65396e-05 0.255108)
(-0.0014777 2.95237e-05 0.255212)
(-0.00149712 1.59734e-05 0.255257)
(-0.00152396 -4.64596e-06 0.255246)
(-0.00160568 -0.000304162 0.256132)
(-0.00164343 -0.000325125 0.256083)
(-0.00164664 -0.000337539 0.256058)
(-0.00161339 -0.000341669 0.256058)
(-0.000310339 -0.000203533 0.255054)
(-0.000327829 -0.000203897 0.25506)
(-0.000356477 -0.000194312 0.255045)
(-0.000397346 -0.000174781 0.255009)
(-0.00119979 7.33026e-05 0.254643)
(-0.00123925 9.15162e-05 0.25466)
(-0.00126115 0.000104358 0.254708)
(-0.00126633 0.000112334 0.25479)
(-0.00146044 3.36663e-05 0.256524)
(-0.0014709 2.66047e-05 0.256624)
(-0.00148885 1.28742e-05 0.256668)
(-0.001515 -8.06697e-06 0.256657)
(-0.00159493 -0.000312552 0.257571)
(-0.00163293 -0.000333854 0.257524)
(-0.00163654 -0.00034648 0.257501)
(-0.00160389 -0.000350697 0.257502)
(-0.00032575 -0.000210864 0.256558)
(-0.000343927 -0.000211271 0.256563)
(-0.000373597 -0.000201553 0.256548)
(-0.000415868 -0.000181716 0.256513)
(-0.00123317 7.15774e-05 0.256123)