0 	0 	0 	0
5.01672e-05 	0.00100629 	-6.7303e-06 	0.0173637
0.000100334 	0.00150602 	-1.43857e-05 	0.0335824
0.000150502 	0.00180778 	-2.35709e-05 	0.0486109
0.000200669 	0.00211226 	-3.23046e-05 	0.0625118
0.000250836 	0.00242209 	-4.08803e-05 	0.0753948
0.000301003 	0.00271498 	-4.91999e-05 	0.0873406
0.000351171 	0.00298659 	-5.70975e-05 	0.0984038
0.000401338 	0.00323652 	-6.44455e-05 	0.108622
0.000451505 	0.00346518 	-7.10977e-05 	0.118026
0.000501672 	0.00367367 	-7.69106e-05 	0.126654
0.000551839 	0.00386356 	-8.18374e-05 	0.134556
0.000602007 	0.0040362 	-8.58797e-05 	0.141795
0.000652174 	0.00419269 	-8.89929e-05 	0.148437
0.000702341 	0.00433433 	-9.11613e-05 	0.154548
0.000752508 	0.00446282 	-9.251e-05 	0.160187
0.000802676 	0.00458 	-9.32439e-05 	0.165403
0.000852843 	0.0046864 	-9.34164e-05 	0.170186
0.00090301 	0.00478478 	-9.30465e-05 	0.17464
0.000953177 	0.00487571 	-9.213e-05 	0.178799
0.00100334 	0.00495971 	-9.07526e-05 	0.182694
0.00105351 	0.00503735 	-8.90193e-05 	0.186351
0.00110368 	0.00510912 	-8.70182e-05 	0.18979
0.00115385 	0.00517432 	-8.47293e-05 	0.192983
0.00120401 	0.00523524 	-8.21944e-05 	0.196012
0.00125418 	0.00529235 	-7.93981e-05 	0.198895
0.00130435 	0.0053461 	-7.63366e-05 	0.201644
0.00135452 	0.00539604 	-7.29469e-05 	0.204238
0.00140468 	0.0054433 	-6.93228e-05 	0.206712
0.00145485 	0.00548865 	-6.5534e-05 	0.209093
0.00150502 	0.00553235 	-6.1603e-05 	0.211389
0.00155518 	0.00557393 	-5.74747e-05 	0.213561
0.00160535 	0.00561441 	-5.31964e-05 	0.215663
0.00165552 	0.00565391 	-4.87611e-05 	0.217701
0.00170569 	0.00569216 	-4.40367e-05 	0.219653
0.00175585 	0.00572945 	-3.89831e-05 	0.221534
0.00180602 	0.00576606 	-3.37123e-05 	0.223367
0.00185619 	0.0058017 	-2.81479e-05 	0.22513
0.00190635 	0.00583633 	-2.25775e-05 	0.226833
0.00195652 	0.00587027 	-1.70978e-05 	0.228497
0.00200669 	0.00590277 	-1.20538e-05 	0.230094
0.00205686 	0.0059339 	-7.42394e-06 	0.231645
0.00210702 	0.00596412 	-3.05955e-06 	0.233164
0.00215719 	0.00599166 	1.54832e-06 	0.234611
0.00220736 	0.00601817 	6.98957e-06 	0.236033
0.00225753 	0.00604305 	1.37653e-05 	0.237414
0.00230769 	0.00606696 	2.30562e-05 	0.238753
0.00235786 	0.00609059 	3.3395e-05 	0.240076
0.00240803 	0.00611579 	4.61839e-05 	0.241355
0.00245819 	0.0061426 	5.78026e-05 	0.242621
0.00250836 	0.00617266 	6.7049e-05 	0.243859
0.00255853 	0.00620535 	7.08674e-05 	0.245068
0.0026087 	0.0062399 	7.08325e-05 	0.246256
0.00265886 	0.00627377 	6.82706e-05 	0.247387
0.00270903 	0.00630748 	6.51084e-05 	0.248504
0.0027592 	0.00633461 	6.87387e-05 	0.249542
0.00280936 	0.00636037 	7.36927e-05 	0.250568
0.00285953 	0.00637884 	8.56612e-05 	0.251535
0.0029097 	0.00639533 	9.80736e-05 	0.252485
0.00295987 	0.00640684 	0.000111604 	0.253396
0.00301003 	0.00641675 	0.000123655 	0.254288
0.0030602 	0.00642404 	0.000133258 	0.255151
0.00311037 	0.00642992 	0.000142171 	0.255996
0.00316054 	0.00643397 	0.000150185 	0.256816
0.0032107 	0.00643636 	0.000158459 	0.257618
0.00326087 	0.00643679 	0.000167042 	0.258397
0.00331104 	0.0064354 	0.000175562 	0.259159
0.0033612 	0.00643176 	0.000184004 	0.259899
0.00341137 	0.00642635 	0.000192322 	0.260624
0.00346154 	0.00641827 	0.000200452 	0.261326
0.00351171 	0.00640873 	0.000208524 	0.262018
0.00356187 	0.00639597 	0.000216465 	0.262684
0.00361204 	0.00638229 	0.000224374 	0.263343
0.00366221 	0.00636469 	0.000232147 	0.263974
0.00371237 	0.00634693 	0.000239913 	0.264604
0.00376254 	0.00632427 	0.000247488 	0.2652
0.00381271 	0.00630161 	0.000255062 	0.265797
0.00386288 	0.00627442 	0.000262375 	0.266367
0.00391304 	0.00624629 	0.000269634 	0.266931
0.00396321 	0.00621484 	0.000276476 	0.267476
0.00401338 	0.00618108 	0.000283032 	0.268008
0.00406355 	0.00614582 	0.000289254 	0.268531
0.00411371 	0.00610728 	0.000294747 	0.269033
0.00416388 	0.00606873 	0.00030024 	0.269535
0.00421405 	0.0060274 	0.00030514 	0.270008
0.00426421 	0.00598604 	0.000310036 	0.270481
0.00431438 	0.00594404 	0.000315249 	0.270936
0.00436455 	0.00590165 	0.000320646 	0.271381
0.00441472 	0.00585904 	0.000326292 	0.271819
0.00446488 	0.00581568 	0.000332777 	0.272235
0.00451505 	0.00577231 	0.000339262 	0.272651
0.00456522 	0.00572689 	0.000346386 	0.273043
0.00461538 	0.00568088 	0.000353689 	0.273428
0.00466555 	0.00563344 	0.000361095 	0.273804
0.00471572 	0.00558251 	0.000368753 	0.274158
0.00476589 	0.00553158 	0.000376412 	0.274511
0.00481605 	0.00547554 	0.000384108 	0.274841
0.00486622 	0.00541787 	0.000391816 	0.275163
0.00491639 	0.00535883 	0.000399492 	0.27548
0.00496656 	0.00529337 	0.000407023 	0.275773
0.00501672 	0.00522792 	0.000414554 	0.276065
0.00506689 	0.00515798 	0.000421991 	0.276342
0.00511706 	0.00508436 	0.000429349 	0.276606
0.00516722 	0.00501074 	0.000436708 	0.27687
0.00521739 	0.00493008 	0.000444 	0.27711
0.00526756 	0.00484841 	0.000451282 	0.277347
0.00531773 	0.00476556 	0.00045855 	0.27758
0.00536789 	0.00467616 	0.000465737 	0.277792
0.00541806 	0.00458675 	0.000472924 	0.278004
0.00546823 	0.00449451 	0.000480067 	0.278206
0.00551839 	0.0043977 	0.00048714 	0.278394
0.00556856 	0.00430089 	0.000494213 	0.278581
0.00561873 	0.00420015 	0.000501244 	0.278756
0.0056689 	0.00409635 	0.000508241 	0.278921
0.00571906 	0.00399256 	0.000515239 	0.279086
0.00576923 	0.00388428 	0.000522214 	0.279236
0.0058194 	0.00377401 	0.000529178 	0.279379
0.00586957 	0.00366373 	0.000536143 	0.279522
0.00591973 	0.00354894 	0.000543098 	0.279649
0.0059699 	0.00343278 	0.00055005 	0.279771
0.00602007 	0.00331663 	0.000557002 	0.279893
0.00607023 	0.00319635 	0.000563943 	0.28
0.0061204 	0.003075 	0.000570882 	0.280101
0.00617057 	0.00295366 	0.000577821 	0.280203
0.00622074 	0.0028289 	0.000584744 	0.28029
0.0062709 	0.00270309 	0.000591662 	0.280373
0.00632107 	0.00257729 	0.00059858 	0.280455
0.00637124 	0.00244897 	0.000605476 	0.280525
0.0064214 	0.00231949 	0.000612361 	0.280589
0.00647157 	0.00219 	0.000619246 	0.280652
0.00652174 	0.00205892 	0.000626127 	0.280706
0.00657191 	0.00192652 	0.000633006 	0.280752
0.00662207 	0.00179412 	0.000639885 	0.280798
0.00667224 	0.00166095 	0.000646726 	0.280838
0.00672241 	0.00152638 	0.000653497 	0.280866
0.00677258 	0.00139181 	0.000660267 	0.280895
0.00682274 	0.00125709 	0.00066699 	0.280922
0.00687291 	0.00112109 	0.000673285 	0.280935
0.00692308 	0.000985082 	0.00067958 	0.280947
0.00697324 	0.000849077 	0.000685875 	0.28096
0.00702341 	0.000712406 	0.000692873 	0.28096
0.00707358 	0.000575557 	0.000700059 	0.280958
0.00712375 	0.000438708 	0.000707246 	0.280955
0.00717391 	0.000301315 	0.000714693 	0.280947
0.00722408 	0.000163174 	0.000722502 	0.280933
0.00727425 	2.50327e-05 	0.000730311 	0.280918
0.00732441 	-0.000113109 	0.000738119 	0.280903
0.00737458 	-0.00025139 	0.000744881 	0.280882
0.00742475 	-0.000389672 	0.000751634 	0.280861
0.00747492 	-0.000527955 	0.000758386 	0.280839
0.00752508 	-0.000665917 	0.000764695 	0.280816
0.00757525 	-0.000803561 	0.00077056 	0.280792
0.00762542 	-0.000941204 	0.000776426 	0.280767
0.00767559 	-0.00107885 	0.000782282 	0.280742
0.00772575 	-0.00121672 	0.000787089 	0.280711
0.00777592 	-0.00135459 	0.000791897 	0.280679
0.00782609 	-0.00149246 	0.000796705 	0.280648
0.00787625 	-0.00162985 	0.000802113 	0.280609
0.00792642 	-0.00176689 	0.000807956 	0.280566
0.00797659 	-0.00190393 	0.0008138 	0.280522
0.00802676 	-0.0020406 	0.000819988 	0.280474
0.00807692 	-0.00217583 	0.000827469 	0.280414
0.00812709 	-0.00231106 	0.000834949 	0.280353
0.00817726 	-0.00244629 	0.000842429 	0.280292
0.00822742 	-0.00257992 	0.000849711 	0.280215
0.00827759 	-0.00271338 	0.000856972 	0.280136
0.00832776 	-0.00284683 	0.000864232 	0.280057
0.00837793 	-0.00297921 	0.000871198 	0.279966
0.00842809 	-0.00311101 	0.000878006 	0.279869
0.00847826 	-0.0032428 	0.000884814 	0.279772
0.00852843 	-0.00337388 	0.000891282 	0.279666
0.0085786 	-0.00350411 	0.000897345 	0.279551
0.00862876 	-0.00363434 	0.000903408 	0.279436
0.00867893 	-0.0037641 	0.000909182 	0.279316
0.0087291 	-0.00389286 	0.000914336 	0.279183
0.00877926 	-0.00402162 	0.00091949 	0.279051
0.00882943 	-0.00415005 	0.000924408 	0.278915
0.0088796 	-0.00427742 	0.000928556 	0.278766
0.00892977 	-0.00440479 	0.000932704 	0.278617
0.00897993 	-0.00453188 	0.000936614 	0.278465
0.0090301 	-0.00465791 	0.000939611 	0.2783
0.00908027 	-0.00478394 	0.000942608 	0.278135
0.00913043 	-0.00490967 	0.000945328 	0.277966
0.0091806 	-0.00503442 	0.000947132 	0.277785
0.00923077 	-0.00515918 	0.000948937 	0.277604
0.00928094 	-0.00528354 	0.000950426 	0.277418
0.0093311 	-0.00540704 	0.000951211 	0.277221
0.00938127 	-0.00553053 	0.000951997 	0.277024
0.00943144 	-0.0056534 	0.000952371 	0.276819
0.00948161 	-0.00577548 	0.000952219 	0.276603
0.00953177 	-0.00589755 	0.000952068 	0.276388
0.00958194 	-0.00601859 	0.000951257 	0.276159
0.00963211 	-0.00613897 	0.000950037 	0.275921
0.00968227 	-0.00625936 	0.000948818 	0.275684
0.00973244 	-0.00637813 	0.00094652 	0.275427
0.00978261 	-0.00649661 	0.000944027 	0.275167
0.00983278 	-0.00661482 	0.000941362 	0.274904
0.00988294 	-0.0067312 	0.000937491 	0.274622
0.00993311 	-0.00684757 	0.000933619 	0.274339
0.00998328 	-0.00696289 	0.000929146 	0.274047
0.0100334 	-0.00707692 	0.000923941 	0.273742
0.0100836 	-0.00719095 	0.000918736 	0.273437
0.0101338 	-0.00730279 	0.000912553 	0.273114
0.0101839 	-0.00741417 	0.000906162 	0.272787
0.0102341 	-0.00752478 	0.000899524 	0.272455
0.0102843 	-0.00763304 	0.000892115 	0.272106
0.0103344 	-0.0077413 	0.000884707 	0.271757
0.0103846 	-0.00784687 	0.000876655 	0.271392
0.0104348 	-0.00795133 	0.000868337 	0.271021
0.0104849 	-0.0080547 	0.000859494 	0.270645
0.0105351 	-0.00815416 	0.000848769 	0.270252
0.0105853 	-0.00825362 	0.000838044 	0.269859
0.0106355 	-0.00834745 	0.00082806 	0.26945
0.0106856 	-0.00843961 	0.000818295 	0.269035
0.0107358 	-0.00852962 	0.000808908 	0.268612
0.010786 	-0.00861594 	0.000800171 	0.268174
0.0108361 	-0.00870227 	0.000791417 	0.267737
0.0108863 	-0.00879025 	0.00078006 	0.267271
0.0109365 	-0.00887823 	0.000768703 	0.266806
0.0109866 	-0.00897844 	0.000761239 	0.266315
0.0110368 	-0.00908422 	0.00075555 	0.265814
0.011087 	-0.00921301 	0.000749072 	0.265293
0.0111371 	-0.00937518 	0.00074145 	0.264745
0.0111873 	-0.00955184 	0.00072989 	0.264187
0.0112375 	-0.00979952 	0.000699028 	0.26358
0.0112876 	-0.0100472 	0.000668166 	0.262973
0.0113378 	-0.0103458 	0.000614978 	0.262297
0.011388 	-0.0106459 	0.000561105 	0.261618
0.0114381 	-0.0108952 	0.000521852 	0.260902
0.0114883 	-0.0111326 	0.000486033 	0.260178
0.0115385 	-0.0112584 	0.000483177 	0.259458
0.0115886 	-0.0113336 	0.000495307 	0.258739
0.0116388 	-0.011336 	0.000513673 	0.258025
0.011689 	-0.0112905 	0.000536152 	0.257315
0.0117391 	-0.0112415 	0.00054235 	0.256592
0.0117893 	-0.0111897 	0.000535451 	0.255859
0.0118395 	-0.011168 	0.000515916 	0.255101
0.0118896 	-0.0111719 	0.000485707 	0.254322
0.0119398 	-0.0112038 	0.000454059 	0.253511
0.01199 	-0.0112573 	0.000421305 	0.252675
0.0120401 	-0.011325 	0.000392059 	0.251799
0.0120903 	-0.0114011 	0.000364932 	0.250899
0.0121405 	-0.0114784 	0.000341509 	0.249951
0.0121906 	-0.0115562 	0.000319558 	0.248984
0.0122408 	-0.011626 	0.000300178 	0.247961
0.012291 	-0.0116942 	0.000281283 	0.246926
0.0123411 	-0.0117511 	0.000262866 	0.245822
0.0123913 	-0.0118064 	0.000244328 	0.244703
0.0124415 	-0.0118551 	0.000225284 	0.243524
0.0124916 	-0.011902 	0.000205788 	0.242314
0.0125418 	-0.0119465 	0.000185655 	0.241059
0.012592 	-0.0119897 	0.000165016 	0.239753
0.0126421 	-0.0120322 	0.000144127 	0.23842
0.0126923 	-0.0120732 	0.000123505 	0.237011
0.0127425 	-0.0121137 	0.000103055 	0.235574
0.0127926 	-0.0121533 	8.30323e-05 	0.234074
0.0128428 	-0.0121926 	6.33446e-05 	0.232513
0.012893 	-0.0122317 	4.38659e-05 	0.230914
0.0129431 	-0.0122711 	2.49954e-05 	0.229205
0.0129933 	-0.0123109 	6.47982e-06 	0.227445
0.0130435 	-0.0123513 	-1.14967e-05 	0.225608
0.0130936 	-0.0123924 	-2.86143e-05 	0.22365
0.0131438 	-0.0124337 	-4.52834e-05 	0.22162
0.013194 	-0.0124749 	-6.128e-05 	0.219475
0.0132441 	-0.0125151 	-7.65532e-05 	0.217201
0.0132943 	-0.0125543 	-9.14023e-05 	0.21484
0.0133445 	-0.012592 	-0.000105724 	0.212355
0.0133946 	-0.0126278 	-0.000119682 	0.20972
0.0134448 	-0.0126627 	-0.000133101 	0.206972
0.013495 	-0.0126967 	-0.000145784 	0.204097
0.0135452 	-0.0127303 	-0.000156251 	0.200992
0.0135953 	-0.0127631 	-0.000165139 	0.197723
0.0136455 	-0.0127944 	-0.000172614 	0.194275
0.0136957 	-0.0128223 	-0.000178893 	0.190597
0.0137458 	-0.0128416 	-0.000184679 	0.186631
0.013796 	-0.0128512 	-0.000189693 	0.182431
0.0138462 	-0.0128485 	-0.000193623 	0.17798
0.0138963 	-0.0128306 	-0.000196107 	0.173257
0.0139465 	-0.0127868 	-0.000196569 	0.168146
0.0139967 	-0.0127172 	-0.000195512 	0.162707
0.0140468 	-0.0126178 	-0.000193033 	0.156923
0.014097 	-0.0124836 	-0.000189078 	0.150768
0.0141472 	-0.0123099 	-0.000183473 	0.144214
0.0141973 	-0.0120924 	-0.000175985 	0.137234
0.0142475 	-0.0118164 	-0.000166551 	0.129724
0.0142977 	-0.0114778 	-0.000155937 	0.12173
0.0143478 	-0.0110616 	-0.000144223 	0.113241
0.014398 	-0.0105505 	-0.000131283 	0.104256
0.0144482 	-0.00993048 	-0.000117163 	0.0948079
0.0144983 	-0.00919532 	-0.000102219 	0.0849834
0.0145485 	-0.00835016 	-8.69638e-05 	0.0749312
0.0145987 	-0.00741272 	-7.19308e-05 	0.0648493
0.0146488 	-0.00641266 	-5.76927e-05 	0.054955
0.014699 	-0.00538918 	-4.47707e-05 	0.0454432
0.0147492 	-0.00439178 	-3.3519e-05 	0.0364481
0.0147993 	-0.0034933 	-2.41681e-05 	0.0280276
0.0148495 	-0.0028264 	-1.60043e-05 	0.0201634
0.0148997 	-0.00239917 	-9.04237e-06 	0.0128135
0.0149498 	-0.00167444 	-4.03052e-06 	0.00604385
0.015 	0 	0 	0
