0 	0 	0 	0
5.01672e-05 	0.00271579 	1.03113e-05 	0.0186214
0.000100334 	0.00434972 	2.49655e-05 	0.0355886
0.000150502 	0.00550902 	4.42951e-05 	0.0511327
0.000200669 	0.0065664 	6.4712e-05 	0.0654477
0.000250836 	0.00752269 	8.6401e-05 	0.0786451
0.000301003 	0.00833866 	0.000108828 	0.0908117
0.000351171 	0.0090159 	0.000131516 	0.102025
0.000401338 	0.0095665 	0.000154078 	0.112348
0.000451505 	0.010004 	0.000176243 	0.121835
0.000501672 	0.0103416 	0.000197843 	0.130537
0.000551839 	0.0105918 	0.000218702 	0.138514
0.000602007 	0.0107672 	0.000238617 	0.145832
0.000652174 	0.0108798 	0.000257501 	0.152557
0.000702341 	0.0109408 	0.000275392 	0.158752
0.000752508 	0.0109594 	0.000292325 	0.164473
0.000802676 	0.0109425 	0.000308255 	0.169767
0.000852843 	0.0108913 	0.000322983 	0.174619
0.00090301 	0.0108158 	0.000336728 	0.179133
0.000953177 	0.0107199 	0.000349592 	0.183342
0.00100334 	0.0106072 	0.000361658 	0.187277
0.00105351 	0.0104807 	0.000373003 	0.190966
0.00110368 	0.0103427 	0.000383678 	0.194427
0.00115385 	0.0101936 	0.000393619 	0.197629
0.00120401 	0.0100381 	0.000403132 	0.200659
0.00125418 	0.00987758 	0.00041231 	0.203531
0.00130435 	0.00971301 	0.000421207 	0.206261
0.00135452 	0.00954479 	0.000429677 	0.208821
0.00140468 	0.00937579 	0.000437642 	0.211247
0.00145485 	0.00920785 	0.000445338 	0.213568
0.00150502 	0.00904188 	0.000452868 	0.215792
0.00155518 	0.00888148 	0.000460647 	0.217874
0.00160535 	0.00872465 	0.000468643 	0.219875
0.00165552 	0.00857073 	0.000476782 	0.221804
0.00170569 	0.00842002 	0.000484961 	0.223636
0.00175585 	0.00827068 	0.000493086 	0.22539
0.00180602 	0.00812223 	0.000501236 	0.227092
0.00185619 	0.00797497 	0.000509538 	0.228718
0.00190635 	0.00782937 	0.000518095 	0.230279
0.00195652 	0.00768494 	0.000526814 	0.2318
0.00200669 	0.00754302 	0.000535814 	0.233253
0.00205686 	0.00740335 	0.000545037 	0.234659
0.00210702 	0.00726518 	0.000554406 	0.236033
0.00215719 	0.00713132 	0.000564186 	0.237336
0.00220736 	0.00699938 	0.000574159 	0.238614
0.00225753 	0.00687051 	0.000584443 	0.23985
0.00230769 	0.00674554 	0.000595201 	0.24104
0.00235786 	0.00662226 	0.000606177 	0.242211
0.00240803 	0.00650392 	0.000618009 	0.243327
0.00245819 	0.00638688 	0.000630295 	0.244424
0.00250836 	0.00627245 	0.000643504 	0.245485
0.00255853 	0.00616017 	0.000654691 	0.246516
0.0026087 	0.00604941 	0.000664443 	0.247526
0.00265886 	0.00595707 	0.000668042 	0.248495
0.00270903 	0.00586911 	0.000670179 	0.249455
0.0027592 	0.00583078 	0.000676269 	0.250367
0.00280936 	0.00579496 	0.000685835 	0.251274
0.00285953 	0.00577238 	0.000713861 	0.252153
0.0029097 	0.00571877 	0.000747585 	0.253034
0.00295987 	0.00558701 	0.000795653 	0.253918
0.00301003 	0.005358 	0.00083609 	0.254811
0.0030602 	0.00496799 	0.000863892 	0.25572
0.00311037 	0.00449604 	0.000873386 	0.256619
0.00316054 	0.00391753 	0.000859068 	0.257505
0.0032107 	0.00337167 	0.000843359 	0.25835
0.00326087 	0.00286446 	0.000826005 	0.259146
0.00331104 	0.00243819 	0.000821082 	0.259901
0.0033612 	0.00211254 	0.000831613 	0.260605
0.00341137 	0.00184461 	0.000847719 	0.261287
0.00346154 	0.00166415 	0.000872275 	0.261934
0.00351171 	0.00150775 	0.000894771 	0.26257
0.00356187 	0.00140423 	0.000912735 	0.263178
0.00361204 	0.00130259 	0.000929493 	0.263781
0.00366221 	0.00120895 	0.000941117 	0.264357
0.00371237 	0.00111505 	0.000952792 	0.264931
0.00376254 	0.00101255 	0.000966158 	0.265476
0.00381271 	0.000910052 	0.000979524 	0.266021
0.00386288 	0.000803942 	0.000994191 	0.266541
0.00391304 	0.000697094 	0.00100912 	0.267056
0.00396321 	0.000589305 	0.00102337 	0.267553
0.00401338 	0.000480866 	0.00103715 	0.268039
0.00406355 	0.000372526 	0.00105041 	0.268515
0.00411371 	0.000264404 	0.00106255 	0.268972
0.00416388 	0.000156282 	0.0010747 	0.269428
0.00421405 	4.98325e-05 	0.00108531 	0.269857
0.00426421 	-5.66063e-05 	0.0010959 	0.270285
0.00431438 	-0.000161432 	0.00110635 	0.270696
0.00436455 	-0.00026532 	0.00111672 	0.271097
0.00441472 	-0.000368489 	0.00112745 	0.271491
0.00446488 	-0.000469236 	0.00113943 	0.271866
0.00451505 	-0.000569983 	0.0011514 	0.27224
0.00456522 	-0.000667733 	0.00116407 	0.272594
0.00461538 	-0.000764649 	0.00117693 	0.272943
0.00466555 	-0.000860193 	0.00118947 	0.273285
0.00471572 	-0.000952406 	0.00120122 	0.27361
0.00476589 	-0.00104462 	0.00121297 	0.273935
0.00481605 	-0.00113263 	0.00122295 	0.274245
0.00486622 	-0.0012193 	0.00123235 	0.27455
0.00491639 	-0.00130488 	0.00124152 	0.274851
0.00496656 	-0.00138544 	0.00124955 	0.275138
0.00501672 	-0.00146599 	0.00125759 	0.275426
0.00506689 	-0.00154312 	0.00126609 	0.275704
0.00511706 	-0.00161743 	0.00127497 	0.275976
0.00516722 	-0.00169174 	0.00128386 	0.276247
0.00521739 	-0.00176074 	0.00129364 	0.276505
0.00526756 	-0.00182897 	0.00130355 	0.276762
0.00531773 	-0.00189632 	0.0013135 	0.277016
0.00536789 	-0.00195877 	0.00132367 	0.277257
0.00541806 	-0.00202121 	0.00133384 	0.277498
0.00546823 	-0.00208156 	0.00134396 	0.277733
0.00551839 	-0.00213853 	0.00135402 	0.277958
0.00556856 	-0.0021955 	0.00136407 	0.278182
0.00561873 	-0.00224955 	0.00137405 	0.278398
0.0056689 	-0.00230131 	0.00138397 	0.278606
0.00571906 	-0.00235306 	0.00139389 	0.278813
0.00576923 	-0.0024013 	0.00140382 	0.279008
0.0058194 	-0.00244796 	0.00141375 	0.279197
0.00586957 	-0.00249462 	0.00142368 	0.279387
0.00591973 	-0.00253734 	0.00143269 	0.27956
0.0059699 	-0.00257889 	0.00144143 	0.279729
0.00602007 	-0.00262043 	0.00145017 	0.279898
0.00607023 	-0.00265793 	0.00145854 	0.28005
0.0061204 	-0.00269439 	0.00146683 	0.280197
0.00617057 	-0.00273084 	0.00147512 	0.280344
0.00622074 	-0.00276338 	0.00148547 	0.280473
0.0062709 	-0.00279471 	0.00149645 	0.280597
0.00632107 	-0.00282604 	0.00150744 	0.280721
0.00637124 	-0.0028537 	0.00151882 	0.280828
0.0064214 	-0.00287966 	0.00153038 	0.280927
0.00647157 	-0.00290562 	0.00154194 	0.281027
0.00652174 	-0.00292837 	0.00155065 	0.281114
0.00657191 	-0.00294844 	0.00155695 	0.28119
0.00662207 	-0.0029685 	0.00156326 	0.281266
0.00667224 	-0.00298619 	0.00156726 	0.281336
0.00672241 	-0.00299947 	0.00156696 	0.281393
0.00677258 	-0.00301276 	0.00156666 	0.281451
0.00682274 	-0.00302531 	0.00156621 	0.281506
0.00687291 	-0.00303119 	0.00156439 	0.281547
0.00692308 	-0.00303707 	0.00156257 	0.281588
0.00697324 	-0.00304295 	0.00156075 	0.281629
0.00702341 	-0.00304303 	0.00155918 	0.281658
0.00707358 	-0.00304156 	0.00155768 	0.281682
0.00712375 	-0.00304009 	0.00155618 	0.281707
0.00717391 	-0.00303584 	0.00155439 	0.281726
0.00722408 	-0.00302775 	0.0015522 	0.281735
0.00727425 	-0.00301966 	0.00155 	0.281744
0.00732441 	-0.00301158 	0.00154781 	0.281752
0.00737458 	-0.00299727 	0.0015459 	0.281746
0.00742475 	-0.0029829 	0.00154398 	0.28174
0.00747492 	-0.00296853 	0.00154207 	0.281734
0.00752508 	-0.00295099 	0.00154027 	0.28172
0.00757525 	-0.00293026 	0.00153859 	0.281699
0.00762542 	-0.00290953 	0.00153692 	0.281678
0.00767559 	-0.00288875 	0.00153524 	0.281657
0.00772575 	-0.00286207 	0.00153401 	0.281619
0.00777592 	-0.00283539 	0.00153277 	0.281582
0.00782609 	-0.00280872 	0.00153154 	0.281544
0.00787625 	-0.00277872 	0.00152923 	0.281496
0.00792642 	-0.00274633 	0.00152615 	0.281441
0.00797659 	-0.00271393 	0.00152307 	0.281386
0.00802676 	-0.00268034 	0.0015195 	0.281326
0.00807692 	-0.00264226 	0.00151408 	0.281252
0.00812709 	-0.00260418 	0.00150865 	0.281177
0.00817726 	-0.0025661 	0.00150323 	0.281103
0.00822742 	-0.00252345 	0.00149697 	0.281011
0.00827759 	-0.00248031 	0.00149061 	0.280917
0.00832776 	-0.00243717 	0.00148426 	0.280823
0.00837793 	-0.00239135 	0.00147707 	0.280716
0.00842809 	-0.00234409 	0.00146943 	0.280602
0.00847826 	-0.00229684 	0.00146179 	0.280488
0.00852843 	-0.00224825 	0.00145416 	0.280364
0.0085786 	-0.00219808 	0.00144655 	0.280227
0.00862876 	-0.00214791 	0.00143893 	0.280091
0.00867893 	-0.00209711 	0.00143152 	0.279948
0.0087291 	-0.00204495 	0.00142451 	0.279787
0.00877926 	-0.00199279 	0.00141751 	0.279627
0.00882943 	-0.00194023 	0.00141034 	0.279461
0.0088796 	-0.00188637 	0.00140266 	0.279274
0.00892977 	-0.00183251 	0.00139498 	0.279088
0.00897993 	-0.00177827 	0.00138698 	0.278895
0.0090301 	-0.0017226 	0.00137776 	0.278681
0.00908027 	-0.00166692 	0.00136854 	0.278467
0.00913043 	-0.00161081 	0.00135904 	0.278247
0.0091806 	-0.00155323 	0.00134858 	0.278005
0.00923077 	-0.00149565 	0.00133813 	0.277762
0.00928094 	-0.0014375 	0.00132739 	0.277511
0.0093311 	-0.00137805 	0.00131602 	0.277241
0.00938127 	-0.00131861 	0.00130466 	0.27697
0.00943144 	-0.00125842 	0.00129294 	0.276687
0.00948161 	-0.0011973 	0.00128076 	0.276388
0.00953177 	-0.00113617 	0.00126859 	0.276088
0.00958194 	-0.00107421 	0.00125598 	0.275771
0.00963211 	-0.00101174 	0.0012431 	0.275443
0.00968227 	-0.000949272 	0.00123022 	0.275115
0.00973244 	-0.000886119 	0.00121681 	0.274762
0.00978261 	-0.000822842 	0.0012033 	0.274405
0.00983278 	-0.000759552 	0.00118972 	0.274045
0.00988294 	-0.000696162 	0.00117564 	0.273659
0.00993311 	-0.000632773 	0.00116157 	0.273273
0.00998328 	-0.0005697 	0.00114727 	0.272873
0.0100334 	-0.000507012 	0.00113271 	0.272458
0.0100836 	-0.000444325 	0.00111814 	0.272043
0.0101338 	-0.000382912 	0.00110326 	0.271603
0.0101839 	-0.000321772 	0.00108831 	0.271158
0.0102341 	-0.000261193 	0.0010733 	0.270706
0.0102843 	-0.000202358 	0.00105807 	0.270231
0.0103344 	-0.000143523 	0.00104285 	0.269756
0.0103846 	-8.67091e-05 	0.0010275 	0.269258
0.0104348 	-3.07278e-05 	0.00101209 	0.268751
0.0104849 	2.45784e-05 	0.000996656 	0.268237
0.0105351 	7.74588e-05 	0.000981123 	0.267698
0.0105853 	0.000130339 	0.00096559 	0.267158
0.0106355 	0.000180889 	0.000949938 	0.266592
0.0106856 	0.000230746 	0.000934251 	0.266018
0.0107358 	0.000279625 	0.000918476 	0.265431
0.010786 	0.000326822 	0.000902549 	0.264821
0.0108361 	0.000374005 	0.00088662 	0.264211
0.0108863 	0.000419081 	0.000870387 	0.263563
0.0109365 	0.000464158 	0.000854155 	0.262916
0.0109866 	0.000508145 	0.000837674 	0.262242
0.0110368 	0.000551636 	0.000821079 	0.261556
0.011087 	0.00059463 	0.000804295 	0.260853
0.0111371 	0.000636902 	0.000787234 	0.260127
0.0111873 	0.000679006 	0.000770023 	0.259393
0.0112375 	0.000720286 	0.000752073 	0.258624
0.0112876 	0.000761565 	0.000734123 	0.257856
0.0113378 	0.000802059 	0.000716028 	0.257044
0.011388 	0.000842528 	0.00069793 	0.256231
0.0114381 	0.000882259 	0.000681474 	0.255381
0.0114883 	0.000921817 	0.000665404 	0.254523
0.0115385 	0.000960234 	0.000650713 	0.253632
0.0115886 	0.000998132 	0.000636648 	0.252726
0.0116388 	0.00103437 	0.000622868 	0.251791
0.011689 	0.0010695 	0.000609278 	0.250836
0.0117391 	0.00110267 	0.00059548 	0.249852
0.0117893 	0.00113425 	0.000581517 	0.248845
0.0118395 	0.00116374 	0.000567258 	0.247807
0.0118896 	0.00119147 	0.000552749 	0.246743
0.0119398 	0.00121696 	0.00053864 	0.245645
0.01199 	0.00124075 	0.000524836 	0.244519
0.0120401 	0.00126198 	0.000511542 	0.243352
0.0120903 	0.00128168 	0.000498555 	0.242159
0.0121405 	0.00129838 	0.000485387 	0.240914
0.0121906 	0.0013139 	0.000472145 	0.239647
0.0122408 	0.00132606 	0.000459143 	0.238315
0.012291 	0.00133758 	0.000446187 	0.236969
0.0123411 	0.00134537 	0.000434115 	0.235542
0.0123913 	0.00135249 	0.00042215 	0.234098
0.0124415 	0.0013567 	0.000410629 	0.232584
0.0124916 	0.00135941 	0.000399302 	0.231034
0.0125418 	0.00135998 	0.000388248 	0.229432
0.012592 	0.00135797 	0.000377422 	0.227768
0.0126421 	0.00135469 	0.000366707 	0.226074
0.0126923 	0.00134742 	0.000355903 	0.224285
0.0127425 	0.00133872 	0.000345149 	0.222461
0.0127926 	0.00132672 	0.000334541 	0.220556
0.0128428 	0.00131185 	0.000324527 	0.21857
0.012893 	0.00129517 	0.000314884 	0.216535
0.0129431 	0.00127383 	0.000306453 	0.214357
0.0129933 	0.00125039 	0.000298221 	0.212124
0.0130435 	0.00122378 	0.000290275 	0.209806
0.0130936 	0.00119203 	0.000281894 	0.207393
0.0131438 	0.00115714 	0.000273353 	0.204929
0.013194 	0.00111709 	0.00026464 	0.202389
0.0132441 	0.00107098 	0.000256425 	0.199755
0.0132943 	0.00102065 	0.000248614 	0.19705
0.0133445 	0.000964201 	0.000241451 	0.194237
0.0133946 	0.000900091 	0.000234781 	0.191275
0.0134448 	0.000830259 	0.000228297 	0.188203
0.013495 	0.000753958 	0.000221936 	0.185009
0.0135452 	0.000666266 	0.000215552 	0.18161
0.0135953 	0.000570749 	0.000209059 	0.17808
0.0136455 	0.000466685 	0.000202424 	0.174412
0.0136957 	0.00035146 	0.000195571 	0.170571
0.0137458 	0.000220854 	0.000188654 	0.166519
0.013796 	7.67145e-05 	0.000181851 	0.162289
0.0138462 	-8.21721e-05 	0.000175188 	0.157868
0.0138963 	-0.000256906 	0.000168641 	0.153236
0.0139465 	-0.000451762 	0.000161864 	0.148299
0.0139967 	-0.000659519 	0.000154668 	0.143101
0.0140468 	-0.000877339 	0.000147108 	0.137628
0.014097 	-0.00110188 	0.000139258 	0.13186
0.0141472 	-0.00132854 	0.000131219 	0.125774
0.0141973 	-0.00155088 	0.00012311 	0.119346
0.0142475 	-0.00175649 	0.000114925 	0.112497
0.0142977 	-0.0019357 	0.000106183 	0.105268
0.0143478 	-0.00207734 	9.64485e-05 	0.0976514
0.014398 	-0.00216965 	8.58101e-05 	0.0896491
0.0144482 	-0.00220183 	7.48339e-05 	0.0812922
0.0144983 	-0.00216612 	6.41369e-05 	0.0726559
0.0145485 	-0.00206011 	5.41085e-05 	0.0638631
0.0145987 	-0.00188841 	4.50534e-05 	0.0550776
0.0146488 	-0.00166359 	3.72629e-05 	0.0464832
0.014699 	-0.00140786 	3.06806e-05 	0.038249
0.0147492 	-0.00115724 	2.49373e-05 	0.030495
0.0147993 	-0.000972871 	2.0027e-05 	0.0232755
0.0148495 	-0.000967678 	1.43698e-05 	0.0165832
0.0148997 	-0.00113713 	9.10334e-06 	0.010408
0.0149498 	-0.000999301 	5.07804e-06 	0.00484409
0.015 	0 	0 	0
