/*--------------------------------*- C++ -*----------------------------------*\
| =========                 |                                                 |
| \\      /  F ield         | OpenFOAM: The Open Source CFD Toolbox           |
|  \\    /   O peration     | Version:  v1906                                 |
|   \\  /    A nd           | Web:      www.OpenFOAM.com                      |
|    \\/     M anipulation  |                                                 |
\*---------------------------------------------------------------------------*/
FoamFile
{
    version     2.0;
    format      ascii;
    class       volScalarField;
    location    "98.8";
    object      omega;
}
// * * * * * * * * * * * * * * * * * * * * * * * * * * * * * * * * * * * * * //

dimensions      [0 0 -1 0 0 0 0];


internalField   nonuniform List<scalar> 
630
(
30.8944
32.3644
25.8812
46.6134
32.1018
30.8341
25.9701
47.8812
33.4805
29.5614
26.1506
44.481
35.0523
28.5653
26.44
42.4078
36.8237
27.8695
26.8622
40.9199
38.8042
27.442
27.4707
39.8338
41.0048
27.264
28.3172
39.2364
43.4444
27.2991
29.4721
39.1299
46.1395
27.5415
30.9022
39.4868
49.1093
27.9888
32.5485
40.3015
52.3818
28.6436
34.5137
41.5666
56.0055
29.5121
36.9483
43.2862
60.0779
30.6021
40.0136
45.473
64.7309
31.9219
44.3078
48.1009
69.9197
33.4784
46.9578
51.0615
76.0383
35.2268
44.8303
54.372
80.2439
37.078
43.0866
58.1856
77.8793
39.0186
41.7194
62.5886
74.6868
41.0831
40.6759
67.9587
72.7671
43.292
40.0349
73.2072
71.776
45.6587
39.7577
73.5717
71.4497
48.2084
39.7905
71.1402
71.6865
50.9486
40.1236
69.4732
72.4617
53.8923
40.715
68.5148
73.7581
57.0661
41.5371
68.0837
75.593
60.5194
42.5687
68.1087
78.0046
64.3477
43.7943
68.5996
80.97
68.6109
45.2031
69.5615
84.4772
73.2338
46.7883
70.9063
87.7756
78.5378
48.546
72.4517
89.6061
83.2866
50.4758
73.821
90.7077
84.5122
52.5799
74.8549
91.9643
84.132
54.863
75.8736
93.6273
84.113
57.3314
77.0923
95.7265
84.6462
59.9922
78.5675
98.2429
85.712
62.8559
80.2778
101.178
87.2117
65.9353
82.199
104.508
89.1066
69.2419
84.3523
108.198
91.3941
72.7873
86.7616
112.003
94.0491
76.585
89.4253
115.491
97.0521
80.6509
92.326
118.718
100.399
85.0037
95.4225
121.978
104.068
89.6653
98.6433
125.459
108.065
94.6619
101.987
129.253
112.427
100.025
105.547
133.358
117.192
105.793
109.417
137.772
122.396
112.013
113.637
142.544
128.082
118.743
118.228
147.766
134.304
126.051
123.238
153.506
141.136
134.019
128.735
159.847
148.656
142.744
134.801
166.886
156.964
152.343
141.548
174.734
166.174
162.95
149.155
183.526
176.43
174.764
157.844
193.427
187.908
188.088
167.791
204.631
200.856
203.194
179.2
217.379
215.6
220.367
192.318
231.959
232.482
239.923
207.442
248.737
251.863
262.236
224.936
268.176
274.188
287.701
245.255
290.894
300.005
316.735
268.994
317.73
330.013
349.904
296.963
349.844
365.148
387.99
330.271
388.871
406.731
432.086
370.475
437.204
456.746
483.752
419.842
498.548
518.291
545.339
481.809
578.787
596.342
620.567
561.712
687.512
699.241
715.494
667.918
840.63
841.576
840.481
813.615
1065.12
1049.38
1014.05
1019.87
1408
1369.77
1269.98
1321.42
1954.64
1889.2
1670.26
1778.81
2867.04
2771.69
2331.64
2505.95
4470.9
4345.59
3492.84
3738.45
7479.34
7326.66
5710.63
6026.31
13693.1
13514.9
10533.1
10882.1
28918.6
28702.9
23447.3
23581.7
81251.3
80969.5
72785.9
70804
439448
439448
439448
439448
27.0489
30.6459
25.3655
24.7832
26.8108
30.2701
25.6023
24.6378
26.6305
29.9786
26.0128
24.5748
26.523
29.8731
26.6046
24.6026
26.4984
30.0154
27.3329
24.73
26.5568
30.3726
28.1197
24.9655
26.696
30.9038
29.0873
25.318
26.9242
31.5739
30.3051
25.7967
27.24
32.3579
31.7465
26.4104
27.6425
33.2407
33.4357
27.1681
28.132
34.2149
35.3357
28.0791
28.71
35.2792
37.3513
29.1519
29.38
36.4362
39.3353
30.3671
30.15
37.6897
41.3087
31.6922
31.0285
39.0476
43.5173
33.1289
32
40.5197
46.102
34.6827
33.0337
42.1176
48.5604
36.3571
34.1253
43.8348
50.5838
38.157
35.2809
45.6828
52.3906
40.0639
36.5041
47.6925
54.1132
42.0799
37.8066
49.8802
55.827
44.2052
39.2061
52.2439
57.5779
46.4395
40.7004
54.7786
59.3951
48.7827
42.2958
57.4858
61.3028
51.2345
44.0014
60.3602
63.3186
53.7945
45.8252
63.3859
65.4549
56.4634
47.7735
66.5652
67.7252
59.2467
49.8526
69.9192
70.149
62.1483
52.0726
73.4824
72.7501
65.0883
54.4461
77.1851
75.5487
67.9367
56.9875
80.3651
78.5613
70.6727
59.7227
82.5076
81.7912
73.3286
62.6861
83.9879
85.1992
75.9229
65.9061
85.3207
88.795
78.5255
69.4007
86.8702
92.6145
81.2562
73.1804
88.8196
96.664
84.2704
77.2553
91.2493
100.954
87.6287
81.6391
94.1894
105.504
91.365
86.3463
97.6592
110.345
95.5244
91.3726
101.672
115.506
100.167
96.7323
106.208
121.005
105.313
102.437
111.215
126.853
110.963
108.497
116.636
133.045
117.108
114.915
122.435
139.568
123.727
121.695
128.598
146.411
130.818
128.856
135.138
153.58
138.412
136.443
142.079
161.09
146.551
144.529
149.452
168.907
155.28
153.194
157.288
177.063
164.652
162.526
165.622
185.598
174.729
172.614
174.499
194.578
185.578
183.554
183.977
204.081
197.285
195.457
194.051
214.181
209.954
208.432
204.7
224.938
223.721
222.522
216.01
236.431
238.697
237.875
228.115
248.795
254.988
254.697
241.197
262.238
272.782
273.239
255.499
277.058
292.376
293.815
271.351
293.678
314.157
316.827
289.205
312.694
338.639
342.805
309.681
334.957
366.535
372.463
333.652
361.702
398.842
406.796
362.342
394.643
437.011
447.234
397.441
436.208
483.195
495.903
441.4
490.086
540.537
555.872
497.964
561.968
613.822
631.838
572.881
660.645
710.915
731.386
674.981
799.71
844.732
867.13
817.877
1000.48
1036.67
1060.3
1022.94
1297.77
1322.55
1346.69
1325.14
1752.29
1764.54
1788.75
1785.48
2478.83
2478.66
2503.01
2519.31
3716.62
3704.56
3729.79
3766.84
6028.74
6004.73
6032.41
6092.66
10977.4
10939.7
10972.7
11061.6
24069.9
24014.1
24057.5
24184.7
73602.3
73525.9
73584.5
73752.7
439448
439448
439448
439448
)
;

boundaryField
{
    leftWall
    {
        Cmu             0.09;
        kappa           0.41;
        E               9.8;
        beta1           0.075;
        blended         true;
        type            omegaWallFunction;
        value           nonuniform 0();
    }
    rightWall
    {
        Cmu             0.09;
        kappa           0.41;
        E               9.8;
        beta1           0.075;
        blended         true;
        type            omegaWallFunction;
        value           nonuniform List<scalar> 8(439448 439448 439448 439448 439448 439448 439448 439448);
    }
    leftSides_periodic0
    {
        type            cyclic;
    }
    leftSides_periodic1
    {
        type            cyclic;
    }
    rightSides_periodic0
    {
        type            cyclic;
    }
    rightSides_periodic1
    {
        type            cyclic;
    }
    leftInOut_periodic0
    {
        type            cyclic;
    }
    leftInOut_periodic1
    {
        type            cyclic;
    }
    rightInOut_periodic0
    {
        type            cyclic;
    }
    rightInOut_periodic1
    {
        type            cyclic;
    }
    procBoundary3to1
    {
        type            processor;
        value           nonuniform List<scalar> 
316
(
27.7436
29.7576
24.4253
34.369
28.6852
28.7927
24.661
34.8211
29.8351
28.0024
25.0332
35.0322
31.1832
27.4141
25.5455
35.2206
32.7157
27.045
26.1999
35.4938
34.4153
26.9007
26.9826
35.905
36.2635
26.9772
27.8968
36.479
38.2187
27.2685
28.9045
37.2214
40.2473
27.7641
29.9637
38.1227
42.3145
28.4555
31.0669
39.1699
44.3849
29.3125
32.2057
40.3454
46.4243
30.2839
33.3691
41.6285
48.3998
31.3461
34.55
42.9954
50.2811
32.4984
35.6826
44.4187
52.0392
33.7365
36.6253
45.8676
53.5745
35.0564
37.328
47.31
54.7364
36.4567
37.8916
48.7113
55.4843
37.931
38.3993
50.0298
55.9685
39.4874
38.9144
51.2133
56.3427
41.1302
39.4824
52.1917
56.7076
42.8691
40.1331
52.9068
57.1285
44.7123
40.9134
53.4123
57.6463
46.6698
41.8213
53.8134
58.2858
48.7591
42.8727
54.1918
59.0521
50.9596
44.0692
54.5805
59.9448
53.222
45.4124
55.0067
60.9593
55.5307
46.9041
55.4873
62.0833
57.8748
48.5467
56.0293
63.2947
60.2371
50.3433
56.6793
64.562
62.594
52.298
57.5107
65.8632
64.9092
54.416
58.5342
67.224
67.153
56.7034
59.753
68.6808
69.3554
59.1667
61.1637
70.2493
71.572
61.815
62.7655
71.9365
73.8516
64.6626
64.5568
73.7435
76.2371
67.7252
66.5399
75.6698
78.7744
71.0168
68.7221
77.7132
81.4996
74.554
71.1149
79.8687
84.4333
78.3507
73.7337
82.1293
87.6194
82.4325
76.5967
84.4935
91.108
86.8304
79.7253
86.976
94.925
91.5809
83.1448
89.7052
99.1028
96.7281
86.8852
92.8428
103.672
102.326
90.9816
96.4304
108.675
108.443
95.4754
100.517
114.161
115.164
100.413
105.162
120.19
122.574
105.848
110.427
126.838
130.727
111.839
116.384
134.176
139.665
118.455
123.116
142.331
149.441
125.771
130.716
151.409
160.139
133.87
139.29
161.53
171.869
142.877
148.961
172.834
184.767
153.061
159.866
185.476
198.985
164.662
172.165
199.624
214.696
177.867
186.041
215.454
232.082
192.837
201.717
233.157
251.344
209.719
219.438
252.956
272.717
228.663
239.467
275.119
296.486
249.886
262.135
299.98
323.005
273.706
287.902
327.98
352.73
300.58
317.433
359.715
386.28
331.181
351.732
396.043
424.524
366.509
392.271
438.239
468.732
408.102
441.238
488.269
520.823
458.202
501.979
549.199
583.761
520.133
579.744
625.7
661.976
599.104
682.749
725.16
762.131
703.32
823.94
859.806
894.769
845.754
1024.03
1049.87
1076.4
1047.19
1317.41
1329.23
1332.93
1342.01
1764.05
1756.85
1707.01
1790.32
2477.08
2442.97
2277.04
2505.39
3690.91
3615.62
3211.4
3721.94
5953.62
5811.13
4937.96
5989.01
10775.4
10520.2
8756.11
10819
23430.3
22992.4
19610.2
23490.6
70603.5
69956.3
64103.8
70692.3
439448
439448
439448
439448
)
;
    }
    procBoundary3to1throughrightSides_periodic1
    {
        type            processorCyclic;
        value           nonuniform List<scalar> 
314
(
29.7412
30.5825
31.5768
32.7032
33.941
35.2691
36.6363
38.0012
39.358
40.7036
42.038
43.364
44.6858
46.0074
47.3327
48.6688
50.029
51.4281
52.8783
54.3904
55.9734
57.6358
59.3861
61.2378
63.2014
65.2813
67.4811
69.8055
72.3006
75.174
78.5604
81.8111
84.2985
86.5852
89.191
92.2152
95.6817
99.6164
104.04
108.958
114.386
120.394
127.115
134.637
142.851
151.469
160.301
169.444
179.14
189.608
200.982
213.339
226.709
241.083
256.487
273.025
290.882
310.323
331.722
355.605
382.746
414.3
452.014
498.392
557.09
633.729
736.948
880.093
1084.19
1383.84
1839.65
2566.58
3804.43
6117.91
11074.5
24195.9
73795.6
439448
26.8622
26.6459
26.5107
26.4726
26.5379
26.7188
27.0204
27.4497
28.008
28.7001
29.5319
30.5124
31.6554
32.9797
34.5091
36.2728
38.2533
40.3903
42.7085
45.231
47.9858
51.0052
54.3206
57.9557
61.9214
66.2166
70.9742
76.969
85.2773
89.5005
86.8311
83.7205
81.5979
80.7238
80.7835
81.6425
83.2236
85.4842
88.3795
91.8677
95.9444
100.623
105.939
111.955
118.738
126.357
134.916
144.588
155.524
167.858
181.517
196.145
211.398
227.308
244.23
262.527
282.465
304.253
328.145
354.528
383.988
417.405
456.092
502.075
558.562
630.623
726.16
857.95
1047.3
1330.02
1768.66
2479.83
3703.95
6003.91
10939.1
24009.1
73505.5
439448
28.4315
27.7617
27.3334
27.1173
27.0831
27.1918
27.4375
27.7813
28.2097
28.7105
29.2727
29.887
30.5452
31.2407
31.968
32.7267
33.522
34.363
35.2613
36.2308
37.2846
38.397
39.5825
40.8543
42.2236
43.6995
45.2896
46.9999
48.8391
50.818
52.9481
55.242
57.7153
60.3869
63.286
66.447
69.8995
73.6717
77.8046
82.3682
87.4238
93.2366
100.238
108.385
116.589
123.894
130.703
137.923
146.125
155.657
166.778
179.394
193.235
208.143
224.208
241.658
260.782
281.861
305.143
330.877
359.39
391.15
426.835
467.451
514.532
570.552
639.524
728.365
848.498
1019.33
1275.48
1678.73
2344.98
3511.96
5736.79
10570.5
23507.4
72883
439448
35.6476
35.0592
34.7142
34.5503
34.5231
34.6182
34.8318
35.1555
35.5843
36.1148
36.7445
37.4727
38.2997
39.2283
40.2643
41.4169
42.6993
44.1291
45.7322
47.5356
49.5753
51.8961
54.5493
57.5904
61.0716
64.7121
68.377
72.6822
78.7979
85.0628
85.2368
81.8194
78.9453
77.2132
76.6549
77.0099
78.1802
80.0861
82.6812
85.9443
89.8729
94.4758
99.778
105.81
112.617
120.277
128.967
138.929
150.259
162.66
175.447
188.144
200.849
214.027
228.084
243.214
259.488
277.011
296.012
316.874
340.172
366.743
397.825
435.277
481.821
541.381
619.808
726.068
873.955
1085.11
1394.86
1865
2611.98
3877.43
6227.68
11229.5
24396
74010.3
439448
)
;
    }
    procBoundary3to2
    {
        type            processor;
        value           nonuniform List<scalar> 
11
(
29.8749
34.2359
25.8514
42.6181
27.2882
31.0605
25.2912
24.9811
25.2912
24.9811
24.9811
)
;
    }
    procBoundary3to2throughrightInOut_periodic0
    {
        type            processorCyclic;
        value           uniform 25.2912;
    }
}


// ************************************************************************* //
