/*--------------------------------*- C++ -*----------------------------------*\
| =========                 |                                                 |
| \\      /  F ield         | OpenFOAM: The Open Source CFD Toolbox           |
|  \\    /   O peration     | Version:  v1906                                 |
|   \\  /    A nd           | Web:      www.OpenFOAM.com                      |
|    \\/     M anipulation  |                                                 |
\*---------------------------------------------------------------------------*/
FoamFile
{
    version     2.0;
    format      ascii;
    class       volScalarField;
    location    "98.4";
    object      p_rgh;
}
// * * * * * * * * * * * * * * * * * * * * * * * * * * * * * * * * * * * * * //

dimensions      [1 -1 -2 0 0 0 0];


internalField   nonuniform List<scalar> 
2528
(
100000
99823.9
99955.9
99831.1
100000
99824.2
99956.3
99831.5
100001
99824.5
99956.8
99832
100001
99824.8
99957.1
99832.4
100001
99825.1
99957.5
99832.8
100001
99825.4
99957.8
99833.2
100001
99825.7
99958
99833.6
100001
99826
99958.1
99833.8
100001
99826.2
99958.1
99834.1
100001
99826.4
99958.1
99834.3
100001
99826.6
99958
99834.6
100001
99826.8
99957.9
99834.8
100001
99827
99957.8
99835
100000
99827.3
99957.7
99835.3
99999.7
99827.5
99957.5
99835.6
99999.2
99827.8
99957.2
99835.9
99998.7
99828.1
99957
99836.2
99998
99828.5
99956.7
99836.6
99997.3
99828.9
99956.4
99837
99996.5
99829.3
99956
99837.5
99995.6
99829.7
99955.6
99837.9
99994.7
99830.2
99955.2
99838.4
99993.6
99830.8
99954.7
99839
99992.5
99831.3
99954.1
99839.6
99991.3
99832
99953.6
99840.2
99990
99832.7
99952.9
99840.9
99988.7
99833.4
99952.3
99841.6
99987.2
99834.2
99951.6
99842.4
99985.7
99835
99950.8
99843.2
99984.1
99835.8
99950
99844.1
99982.4
99836.7
99949.2
99845
99980.6
99837.7
99948.4
99845.9
99978.8
99838.7
99947.5
99846.8
99976.9
99839.7
99946.5
99847.6
99975
99840.8
99945.5
99848.3
99973
99842
99944.5
99849.1
99970.9
99843.1
99943.5
99850.1
99968.7
99844.3
99942.4
99851.3
99966.4
99845.6
99941.3
99852.4
99964.1
99846.8
99940.2
99853.6
99962.3
99848.1
99939
99854.8
99961.1
99849.5
99937.8
99856
99960.1
99850.9
99936.6
99857.2
99959.1
99852.2
99935.4
99858.5
99957.5
99853.7
99934.1
99859.7
99955.3
99855.1
99932.9
99861
99952.8
99856.6
99931.6
99862.3
99950.4
99858
99930.3
99863.7
99948
99859.5
99929
99865
99945.6
99861
99927.7
99866.4
99943.3
99862.5
99926.4
99867.8
99940.9
99864
99925.1
99869.3
99938.6
99865.6
99923.8
99870.7
99936.3
99867.1
99922.6
99872.2
99934
99868.6
99921.3
99873.7
99931.7
99870.2
99920.1
99875.3
99929.5
99871.7
99918.8
99876.8
99927.3
99873.2
99917.6
99878.4
99925.2
99874.7
99916.4
99880
99923.1
99876.2
99915.3
99881.6
99921
99877.7
99914.2
99883.3
99919.1
99879.2
99913.1
99884.9
99917.7
99880.7
99912
99886.5
99916.9
99882.1
99910.9
99888.2
99916.3
99883.6
99909.9
99889.8
99915.4
99885
99908.9
99891.4
99914.1
99886.4
99908
99893
99912.6
99887.8
99907.1
99894.5
99911
99889.1
99906.2
99896
99909.5
99890.5
99905.4
99897.5
99908
99891.8
99904.6
99899
99906.6
99893.1
99903.8
99900.4
99905.1
99894.4
99903.1
99901.8
99903.7
99895.7
99902.4
99903.1
99902.3
99896.9
99901.7
99904.1
99900.9
99897.8
99901.1
99904.7
99899.5
99898.3
99900.4
99905
99898.2
99898.7
99899.8
99905.4
99896.9
99899.3
99899.1
99906.1
99750.3
99763.8
99747.5
99761.7
99751.1
99764.5
99748.5
99762.6
99751.9
99765.3
99749.4
99763.4
99752.7
99766.1
99750.4
99764.3
99753.5
99766.9
99751.3
99765.2
99754.3
99767.6
99752.2
99766.1
99755
99768.3
99752.9
99766.8
99755.6
99768.8
99753.5
99767.5
99756.1
99769.2
99753.9
99768
99756.5
99769.5
99754.3
99768.4
99756.8
99769.7
99754.5
99768.7
99757
99769.9
99754.7
99768.9
99757.2
99770
99754.9
99769.1
99757.4
99770.1
99755.1
99769.2
99757.6
99770.2
99755.2
99769.3
99757.7
99770.2
99755.4
99769.4
99757.9
99770.3
99755.5
99769.4
99758
99770.3
99755.6
99769.5
99758.1
99770.3
99755.8
99769.5
99758.2
99770.3
99755.9
99769.5
99758.3
99770.3
99756
99769.5
99758.5
99770.3
99756.2
99769.5
99758.6
99770.3
99756.3
99769.5
99758.7
99770.3
99756.4
99769.5
99758.8
99770.2
99756.6
99769.5
99758.9
99770.2
99756.7
99769.5
99759
99770.1
99756.9
99769.4
99759.1
99770.1
99757
99769.4
99759.2
99770
99757.2
99769.3
99759.3
99769.9
99757.4
99769.3
99759.4
99769.8
99757.5
99769.2
99759.6
99769.7
99757.7
99769.1
99759.7
99769.6
99757.9
99769
99759.8
99769.5
99758.1
99768.9
99759.9
99769.4
99758.3
99768.8
99760
99769.3
99758.5
99768.7
99760.1
99769.2
99758.7
99768.6
99760.2
99769
99758.9
99768.5
99760.3
99768.9
99759.2
99768.4
99760.4
99768.8
99759.4
99768.3
99760.5
99768.7
99759.6
99768.2
99760.6
99768.5
99759.8
99768
99760.7
99768.4
99760
99767.9
99760.8
99768.3
99760.2
99767.8
99760.9
99768.1
99760.4
99767.6
99761
99768
99760.7
99767.5
99761.1
99767.8
99761
99767.3
99761.2
99767.6
99761.3
99767.2
99761.3
99767.5
99761.5
99767
99761.4
99767.3
99761.7
99766.9
99761.5
99767.2
99761.9
99766.8
99761.6
99767
99762.1
99766.6
99761.7
99766.8
99762.3
99766.5
99761.8
99766.7
99762.5
99766.3
99761.9
99766.5
99762.8
99766.1
99762
99766.3
99763
99765.9
99762
99766.1
99763.3
99765.8
99762.1
99765.9
99763.4
99765.6
99762.2
99765.7
99763.6
99765.4
99762.3
99765.5
99763.7
99765.3
99762.4
99765.4
99763.8
99765.1
99762.4
99765.3
99764
99765
99762.5
99765.2
99764.2
99764.9
99762.5
99765.2
99764.4
99764.8
99762.6
99765.1
99764.6
99764.7
99762.6
99764.9
99764.8
99764.6
99762.7
99764.8
99764.9
99764.5
99762.7
99764.7
99765.1
99764.4
99762.7
99764.5
99765.2
99764.4
99762.8
99764.4
99765.3
99764.3
99762.8
99764.3
99765.4
99764.3
99762.8
99764.2
99765.5
99764.2
99762.8
99764.1
99765.6
99764.2
99762.9
99764.1
99765.7
99764.2
99762.9
99764
99765.8
99764.2
99762.9
99764
99765.8
99764.2
99762.9
99763.9
99765.9
99764.2
99762.9
99763.9
99766
99764.1
99762.9
99763.9
99766.1
99764.1
99830.9
99786.4
99804.4
99788.2
99832.5
99787.5
99806.1
99790.1
99834.2
99788.6
99807.8
99792
99835.8
99789.8
99809.5
99793.8
99837.5
99790.9
99811.2
99795.7
99839
99792.1
99812.8
99797.4
99840.4
99793.2
99814.1
99798.9
99841.5
99794.2
99815.2
99800.1
99842.3
99795.1
99816
99801
99842.9
99795.8
99816.6
99801.7
99843.4
99796.3
99817
99802.2
99843.7
99796.8
99817.3
99802.6
99844
99797.1
99817.6
99803
99844.2
99797.4
99817.9
99803.2
99844.3
99797.7
99818
99803.5
99844.4
99798
99818.2
99803.7
99844.5
99798.2
99818.3
99803.9
99844.6
99798.4
99818.4
99804.1
99844.6
99798.6
99818.5
99804.3
99844.6
99798.8
99818.6
99804.5
99844.6
99799
99818.7
99804.6
99844.6
99799.2
99818.7
99804.8
99844.6
99799.3
99818.7
99804.9
99844.5
99799.5
99818.7
99805.1
99844.4
99799.6
99818.7
99805.2
99844.3
99799.8
99818.7
99805.4
99844.2
99800
99818.7
99805.5
99844.1
99800.1
99818.7
99805.7
99844
99800.3
99818.6
99805.8
99843.8
99800.4
99818.6
99806
99843.6
99800.6
99818.5
99806.1
99843.4
99800.8
99818.4
99806.2
99843.2
99800.9
99818.3
99806.4
99843
99801.1
99818.2
99806.5
99842.7
99801.3
99818.1
99806.7
99842.5
99801.5
99818
99806.8
99842.2
99801.7
99817.9
99807
99841.9
99801.9
99817.8
99807.2
99841.7
99802.1
99817.6
99807.4
99841.6
99802.3
99817.5
99807.5
99841.4
99802.4
99817.4
99807.7
99841.1
99802.6
99817.3
99807.9
99840.8
99802.8
99817.1
99808.1
99840.4
99803
99817
99808.3
99840
99803.2
99816.9
99808.5
99839.6
99803.5
99816.8
99808.7
99839.2
99803.7
99816.7
99808.9
99838.8
99804
99816.7
99809.1
99838.3
99804.2
99816.6
99809.3
99837.9
99804.5
99816.5
99809.5
99837.4
99804.8
99816.4
99809.7
99836.9
99805
99816.3
99809.9
99836.4
99805.3
99816.2
99810.1
99836
99805.6
99816.1
99810.4
99835.6
99805.9
99816
99810.6
99835.3
99806.2
99816
99810.8
99835
99806.4
99815.9
99811.1
99834.5
99806.7
99815.9
99811.3
99834
99807
99815.8
99811.6
99833.5
99807.3
99815.8
99811.8
99833.2
99807.6
99815.7
99812.1
99833.1
99807.9
99815.7
99812.4
99832.9
99808.2
99815.6
99812.6
99832.6
99808.5
99815.6
99812.9
99832.1
99808.8
99815.5
99813.2
99831.6
99809.1
99815.5
99813.4
99831.1
99809.3
99815.4
99813.7
99830.6
99809.6
99815.4
99814
99830.1
99809.9
99815.3
99814.3
99829.7
99810.2
99815.3
99814.5
99829.2
99810.5
99815.2
99814.8
99828.7
99810.7
99815.1
99815
99828.2
99811
99815
99815.3
99827.6
99811.1
99814.9
99815.6
99827.1
99811.3
99814.8
99815.8
99826.6
99811.4
99814.7
99816
99826.1
99811.6
99814.6
99816.3
99825.6
99811.8
99814.5
99816.5
99825.1
99812.1
99814.4
99816.7
99928.9
99919.6
99928.7
99923.9
99930.9
99921.5
99931
99926.2
99932.8
99923.5
99933.5
99928.5
99934.8
99925.4
99936
99930.8
99936.7
99927.4
99938.4
99933
99938.5
99929.3
99940.7
99935.1
99940.2
99930.9
99942.6
99937
99941.5
99932.3
99944
99938.5
99942.6
99933.3
99945
99939.7
99943.5
99934.1
99945.8
99940.6
99944.1
99934.7
99946.4
99941.3
99944.6
99935.1
99946.8
99941.8
99945
99935.5
99947.1
99942.2
99945.2
99935.8
99947.4
99942.5
99945.5
99936
99947.6
99942.8
99945.7
99936.2
99947.8
99943
99945.8
99936.4
99947.9
99943.2
99946
99936.6
99948.1
99943.4
99946.1
99936.8
99948.2
99943.6
99946.2
99936.9
99948.2
99943.7
99946.3
99937.1
99948.3
99943.9
99946.4
99937.2
99948.4
99944
99946.5
99937.3
99948.4
99944.1
99946.6
99937.5
99948.4
99944.3
99946.6
99937.6
99948.4
99944.4
99946.7
99937.7
99948.5
99944.5
99946.8
99937.8
99948.5
99944.7
99946.8
99938
99948.4
99944.8
99946.9
99938.1
99948.4
99944.9
99947
99938.2
99948.4
99945
99947
99938.3
99948.4
99945.2
99947.1
99938.5
99948.3
99945.3
99947.2
99938.6
99948.3
99945.4
99947.2
99938.7
99948.3
99945.5
99947.3
99938.9
99948.2
99945.7
99947.3
99939
99948.2
99945.8
99947.4
99939.2
99948.1
99946
99947.5
99939.3
99948
99946.1
99947.5
99939.4
99948
99946.3
99947.6
99939.6
99947.9
99946.4
99947.6
99939.7
99947.8
99946.6
99947.7
99939.9
99947.7
99946.7
99947.8
99940
99947.7
99946.9
99947.8
99940.2
99947.6
99947
99947.9
99940.4
99947.5
99947.2
99948
99940.5
99947.4
99947.3
99948
99940.7
99947.3
99947.5
99948.1
99940.8
99947.2
99947.7
99948.1
99941
99947.1
99947.9
99948.2
99941.2
99947
99948
99948.2
99941.3
99946.9
99948.2
99948.3
99941.5
99946.8
99948.4
99948.3
99941.7
99946.8
99948.6
99948.4
99941.9
99946.7
99948.7
99948.4
99942
99946.6
99948.9
99948.4
99942.2
99946.5
99949.1
99948.5
99942.4
99946.4
99949.3
99948.5
99942.5
99946.3
99949.4
99948.6
99942.7
99946.3
99949.6
99948.6
99942.9
99946.2
99949.8
99948.6
99943
99946.1
99950
99948.7
99943.2
99946.1
99950.2
99948.7
99943.3
99946
99950.3
99948.7
99943.5
99946
99950.5
99948.8
99943.7
99945.9
99950.7
99948.8
99943.8
99945.9
99950.8
99948.9
99944
99945.9
99951
99948.9
99944.1
99945.9
99951.2
99948.9
99944.3
99945.8
99951.3
99949
99944.4
99945.8
99951.5
99949
99944.6
99945.8
99951.6
99949
99944.7
99945.8
99951.8
99949.1
99944.8
99945.8
99951.9
99949.1
99945
99945.9
99952.1
99949.1
99945.1
99945.9
99952.2
99949.1
99945.3
99945.9
99952.4
99949.2
99945.4
99946
99952.5
99949.2
99945.6
99946
99952.6
99949.2
99945.8
99946
99952.7
99895.5
99900.2
99898.5
99907
99894.2
99901.2
99897.8
99908
99892.8
99902.2
99897.1
99909
99891.6
99903.3
99896.3
99910
99890.8
99904.3
99895.5
99911.1
99890.1
99905.2
99894.7
99912.2
99889.1
99905.8
99893.8
99913.4
99887.6
99906.2
99892.9
99914.6
99885.9
99906.9
99891.9
99915.8
99884.1
99907.9
99890.9
99917
99882.2
99908.9
99889.9
99918.2
99880.4
99910
99888.9
99919.4
99878.5
99911.1
99887.8
99920.7
99876.6
99912.2
99886.7
99922
99874.7
99913.3
99885.5
99923.2
99872.7
99914.4
99884.3
99924.5
99870.7
99915.4
99883.1
99925.7
99868.8
99916.5
99881.9
99926.9
99866.8
99917.5
99880.6
99928.2
99864.8
99918.5
99879.4
99929.4
99862.8
99919.5
99878.1
99930.6
99860.8
99920.5
99876.8
99931.7
99858.8
99921.4
99875.5
99932.9
99856.8
99922.4
99874.2
99934
99854.8
99923.3
99872.9
99935.1
99852.9
99924.2
99871.7
99936.2
99851
99925.1
99870.4
99937.2
99849.2
99925.9
99869.2
99938.3
99847.3
99926.8
99867.9
99939.3
99845.6
99927.6
99866.7
99940.3
99843.8
99928.5
99865.5
99941.2
99842.2
99929.3
99864.4
99942.1
99840.5
99930.1
99863.3
99943
99839
99930.9
99862.2
99943.6
99837.4
99931.5
99861.2
99944
99836
99931.9
99860.2
99944.4
99834.6
99932.3
99859.2
99944.9
99833.5
99932.8
99858.3
99945.6
99832.5
99933.4
99857.4
99946.3
99831.7
99934.2
99856.5
99947
99830.7
99934.9
99855.7
99947.6
99829.7
99935.6
99854.9
99948.2
99828.7
99936.3
99854.1
99948.8
99827.7
99937
99853.4
99949.4
99826.8
99937.6
99852.7
99949.9
99826
99938.3
99852.1
99950.4
99825.3
99938.9
99851.6
99950.8
99824.7
99939.4
99851.1
99951.2
99824.1
99939.9
99850.7
99951.6
99823.5
99940.4
99850.2
99952
99822.9
99940.8
99849.7
99952.3
99822.4
99941.2
99849.2
99952.6
99821.9
99941.5
99848.8
99952.9
99821.5
99941.9
99848.5
99953.1
99821.1
99942.2
99848.1
99953.4
99820.8
99942.5
99847.8
99953.6
99820.5
99942.8
99847.6
99953.8
99820.2
99943.1
99847.3
99954.1
99819.9
99943.3
99847.1
99954.3
99819.7
99943.6
99846.9
99954.5
99819.6
99943.8
99846.7
99954.6
99819.4
99944
99846.6
99954.8
99819.3
99944.2
99846.5
99955
99819.2
99944.3
99846.3
99955.2
99819.1
99944.5
99846.3
99955.4
99819.1
99944.6
99846.2
99955.6
99819.1
99944.8
99846.2
99955.8
99819.1
99945
99846.2
99956.1
99819.2
99945.2
99846.2
99956.3
99819.3
99945.4
99846.3
99956.6
99819.4
99945.7
99846.5
99956.9
99819.6
99946
99846.8
99957.2
99819.8
99946.4
99847.1
99957.5
99820
99946.8
99847.5
99957.7
99820.2
99947.2
99847.9
99958
99820.4
99947.6
99848.4
99958.2
99820.6
99947.9
99848.8
99958.4
99820.8
99948.3
99849.1
99958.6
99821
99948.6
99849.5
99958.8
99762.9
99763.9
99766.2
99764.2
99762.9
99764
99766.3
99764.2
99763
99764
99766.5
99764.2
99763
99764.1
99766.6
99764.2
99763
99764.1
99766.8
99764.2
99763.1
99764.2
99767
99764.2
99763.1
99764.2
99767.1
99764.2
99763.2
99764.2
99767.3
99764.2
99763.2
99764.2
99767.5
99764.2
99763.3
99764.3
99767.7
99764.2
99763.4
99764.3
99767.9
99764.1
99763.5
99764.3
99768.1
99764.1
99763.6
99764.2
99768.3
99764.1
99763.7
99764.2
99768.4
99764
99763.8
99764.2
99768.6
99764
99763.9
99764.1
99768.8
99763.9
99764.1
99764.1
99769.1
99763.8
99764.2
99764
99769.4
99763.7
99764.4
99763.9
99769.7
99763.7
99764.6
99763.9
99770
99763.6
99764.7
99763.8
99770.3
99763.5
99764.9
99763.7
99770.6
99763.4
99765.1
99763.6
99771
99763.3
99765.3
99763.5
99771.3
99763.1
99765.5
99763.4
99771.7
99763
99765.7
99763.3
99772
99762.9
99765.9
99763.2
99772.4
99762.8
99766.1
99763.2
99772.7
99762.7
99766.3
99763.1
99773
99762.5
99766.5
99762.9
99773.4
99762.4
99766.7
99762.8
99773.7
99762.3
99766.9
99762.7
99774
99762.1
99767.1
99762.5
99774.4
99762
99767.3
99762.4
99774.7
99761.9
99767.5
99762.3
99775
99761.7
99767.7
99762.1
99775.4
99761.6
99767.9
99762
99775.7
99761.5
99768.1
99761.9
99776
99761.4
99768.2
99761.7
99776.3
99761.3
99768.4
99761.6
99776.6
99761.1
99768.6
99761.5
99776.9
99761
99768.8
99761.4
99777.2
99760.9
99768.9
99761.3
99777.4
99760.8
99769.1
99761.1
99777.7
99760.7
99769.3
99761
99777.9
99760.6
99769.4
99760.9
99778.2
99760.6
99769.5
99760.8
99778.4
99760.5
99769.7
99760.8
99778.6
99760.4
99769.8
99760.7
99778.8
99760.3
99770
99760.6
99779
99760.3
99770.1
99760.5
99779.2
99760.2
99770.2
99760.5
99779.3
99760.2
99770.3
99760.4
99779.5
99760.1
99770.4
99760.4
99779.7
99760.1
99770.5
99760.3
99779.8
99760.1
99770.6
99760.3
99779.9
99760.1
99770.7
99760.3
99780.1
99760
99770.9
99760.3
99780.2
99760
99771
99760.3
99780.3
99760.1
99771.1
99760.3
99780.4
99760.1
99771.2
99760.3
99780.5
99760.1
99771.3
99760.3
99780.7
99760.2
99771.5
99760.4
99780.8
99760.2
99771.7
99760.5
99780.9
99760.3
99771.9
99760.6
99781.1
99760.5
99772.1
99760.7
99781.2
99760.6
99772.5
99760.9
99781.4
99760.9
99772.9
99761.1
99781.7
99761.3
99773.5
99761.5
99782.1
99761.7
99774.1
99762
99782.5
99762.3
99774.9
99762.7
99783.1
99763
99775.8
99763.5
99783.9
99763.8
99776.8
99764.4
99784.7
99764.6
99777.7
99765.4
99785.6
99765.5
99778.7
99766.4
99786.5
99766.3
99779.6
99767.4
99787.4
99767.2
99780.5
99768.4
99788.3
99768
99781.4
99769.3
99789.2
99768.8
99782.3
99770.2
99790
99769.6
99824.6
99812.4
99814.4
99816.8
99824.1
99812.7
99814.3
99817
99823.5
99813.1
99814.2
99817.2
99823
99813.4
99814.1
99817.6
99822.4
99813.8
99814
99818.1
99821.8
99814.2
99813.9
99818.6
99821.2
99814.7
99813.8
99819.1
99820.6
99815.1
99813.6
99819.6
99819.9
99815.6
99813.5
99820.2
99819.3
99816
99813.3
99820.7
99818.5
99816.5
99813.1
99821.3
99817.8
99817
99813
99821.9
99817.1
99817.5
99812.8
99822.5
99816.3
99818
99812.7
99823
99815.5
99818.5
99812.5
99823.7
99815
99819.1
99812.4
99824.3
99814.7
99819.6
99812.1
99824.9
99814.4
99820.1
99811.8
99825.4
99814.1
99820.7
99811.5
99825.7
99813.4
99821.2
99811.1
99825.9
99812.5
99821.8
99810.8
99826.3
99811.5
99822.3
99810.4
99826.8
99810.4
99822.8
99810
99827.4
99809.4
99823.4
99809.6
99828.1
99808.4
99823.9
99809.2
99828.9
99807.4
99824.4
99808.8
99829.6
99806.3
99825
99808.4
99830.3
99805.3
99825.5
99808
99831
99804.3
99826
99807.5
99831.8
99803.3
99826.3
99807.1
99832.5
99802.4
99826.6
99806.6
99833.2
99801.4
99827
99806.2
99833.9
99800.5
99827.5
99805.7
99834.6
99799.5
99828.1
99805.3
99835.3
99798.6
99828.7
99804.8
99836
99797.7
99829.3
99804.3
99836.6
99796.8
99829.9
99803.9
99837.3
99796.1
99830.4
99803.4
99837.9
99795.5
99830.9
99803
99838.5
99795.1
99831.3
99802.6
99839
99794.6
99831.7
99802.1
99839.5
99794.1
99832.2
99801.7
99839.9
99793.5
99832.7
99801.3
99840.3
99792.8
99833.2
99800.9
99840.8
99792.2
99833.6
99800.6
99841.3
99791.6
99834.1
99800.2
99841.8
99791.1
99834.6
99799.9
99842.3
99790.6
99835
99799.5
99842.8
99790.1
99835.4
99799.2
99843.2
99789.6
99835.8
99799
99843.6
99789.2
99836.2
99798.7
99844
99788.8
99836.5
99798.5
99844.4
99788.5
99836.9
99798.2
99844.7
99788.2
99837.2
99798.1
99845
99787.9
99837.5
99797.9
99845.4
99787.6
99837.8
99797.7
99845.7
99787.4
99838.1
99797.6
99846
99787.2
99838.3
99797.5
99846.2
99787.1
99838.6
99797.4
99846.5
99786.9
99838.8
99797.4
99846.8
99786.9
99839
99797.3
99847
99786.8
99839.2
99797.3
99847.3
99786.8
99839.4
99797.4
99847.6
99786.8
99839.6
99797.4
99847.9
99786.8
99839.8
99797.5
99848.3
99786.9
99840.1
99797.7
99848.7
99787.1
99840.4
99797.9
99849.3
99787.5
99840.8
99798.2
99849.9
99787.9
99841.3
99798.7
99850.8
99788.6
99842
99799.4
99851.8
99789.6
99843
99800.4
99853
99790.8
99844.3
99801.8
99854.2
99792.1
99846
99803.5
99855.6
99793.6
99847.8
99805.5
99856.9
99795.1
99849.8
99807.5
99858.3
99796.6
99851.8
99809.6
99859.6
99798.1
99853.8
99811.7
99861
99799.6
99855.8
99813.8
99862.2
99801
99857.8
99815.8
99863.5
99949.3
99945.9
99946
99952.8
99949.3
99946.1
99946.1
99952.9
99949.3
99946.2
99946.1
99953
99949.4
99946.4
99946.1
99953.1
99949.4
99946.5
99946.1
99953.2
99949.4
99946.6
99946.1
99953.3
99949.5
99946.7
99946.1
99953.3
99949.5
99946.9
99946.1
99953.4
99949.6
99947
99946.1
99953.4
99949.6
99947.1
99946.1
99953.4
99949.7
99947.2
99946.1
99953.5
99949.7
99947.3
99946.1
99953.5
99949.8
99947.4
99946.1
99953.6
99949.9
99947.5
99946.1
99953.6
99949.9
99947.6
99946.2
99953.6
99950
99947.7
99946.2
99953.7
99950
99947.8
99946.2
99953.7
99950.1
99947.9
99946.2
99953.7
99950.2
99948
99946.2
99953.7
99950.2
99948.1
99946.2
99953.8
99950.3
99948.2
99946.2
99953.8
99950.4
99948.3
99946.2
99953.8
99950.4
99948.3
99946.2
99953.8
99950.5
99948.4
99946.2
99953.8
99950.6
99948.5
99946.2
99953.9
99950.6
99948.6
99946.2
99953.9
99950.7
99948.6
99946.2
99953.9
99950.8
99948.7
99946.2
99953.9
99950.8
99948.8
99946.2
99953.9
99950.9
99948.8
99946.2
99953.9
99951
99948.9
99946.2
99954
99951.1
99949
99946.2
99954
99951.2
99949.1
99946.3
99954
99951.2
99949.1
99946.3
99954
99951.3
99949.2
99946.3
99954
99951.4
99949.3
99946.3
99954.1
99951.5
99949.4
99946.3
99954.1
99951.6
99949.5
99946.3
99954.1
99951.7
99949.5
99946.4
99954.2
99951.7
99949.6
99946.4
99954.2
99951.8
99949.7
99946.4
99954.2
99951.9
99949.8
99946.4
99954.2
99952
99949.8
99946.5
99954.3
99952.1
99949.9
99946.5
99954.3
99952.2
99950
99946.6
99954.4
99952.3
99950.1
99946.6
99954.4
99952.4
99950.2
99946.7
99954.5
99952.5
99950.3
99946.7
99954.5
99952.6
99950.3
99946.8
99954.6
99952.7
99950.4
99946.8
99954.7
99952.8
99950.5
99946.9
99954.7
99952.9
99950.6
99947
99954.8
99953
99950.8
99947.1
99954.9
99953.2
99950.9
99947.2
99955
99953.3
99951
99947.3
99955.1
99953.4
99951.1
99947.4
99955.3
99953.6
99951.3
99947.5
99955.4
99953.7
99951.4
99947.6
99955.5
99953.9
99951.6
99947.8
99955.7
99954
99951.7
99947.9
99955.9
99954.2
99951.9
99948.1
99956.1
99954.5
99952.1
99948.3
99956.3
99954.7
99952.4
99948.5
99956.5
99955
99952.7
99948.8
99956.8
99955.3
99953
99949.1
99957.2
99955.8
99953.4
99949.5
99957.7
99956.4
99953.9
99949.9
99958.3
99957.1
99954.5
99950.5
99959
99958.2
99955.4
99951.3
99960
99959.5
99956.6
99952.5
99961.3
99961.1
99958.1
99953.9
99962.9
99962.9
99960
99955.8
99964.6
99964.9
99962.1
99957.9
99966.5
99967.1
99964.3
99960
99968.4
99969.2
99966.5
99962.2
99970.3
99971.4
99968.7
99964.2
99972.2
99973.6
99970.8
99966.1
99974.1
99975.8
99972.9
99968
99975.9
99977.9
99975
99969.8
99977.7
)
;

boundaryField
{
    leftWall
    {
        type            fixedFluxPressure;
        gradient        nonuniform List<scalar> 
16
(
-8369.4
-17283.4
-37429.8
-44806
-6276.73
-17742.5
-24767.5
-43044.7
-9795.19
-21943.9
-37958.3
-53666.2
-9627.67
-19697.8
-41996.5
-52568
)
;
        value           nonuniform List<scalar> 
16
(
99999.8
99750
99830
99927.9
99823.8
99763.4
99785.9
99918.7
99955.7
99747
99803.6
99927.5
99830.9
99761.3
99787.3
99922.7
)
;
    }
    rightWall
    {
        type            fixedFluxPressure;
        gradient        nonuniform List<scalar> 
16
(
5288.88
19488.7
32963.6
48536.8
7500.15
21115.6
44050.7
46450.5
8722.71
19810.2
46425.5
40352.8
4276.25
18012.1
28176.8
40529.2
)
;
        value           nonuniform List<scalar> 
16
(
99821.1
99782.7
99801.7
99979
99948.8
99770.7
99858.7
99976
99849.7
99790.5
99816.9
99970.6
99958.9
99770
99864.1
99978.6
)
;
    }
    leftSides_periodic0
    {
        type            cyclic;
    }
    leftSides_periodic1
    {
        type            cyclic;
    }
    rightSides_periodic0
    {
        type            cyclic;
    }
    rightSides_periodic1
    {
        type            cyclic;
    }
    leftInOut_periodic0
    {
        type            cyclic;
    }
    leftInOut_periodic1
    {
        type            cyclic;
    }
    rightInOut_periodic0
    {
        type            cyclic;
    }
    rightInOut_periodic1
    {
        type            cyclic;
    }
}


// ************************************************************************* //
