/*--------------------------------*- C++ -*----------------------------------*\
| =========                 |                                                 |
| \\      /  F ield         | OpenFOAM: The Open Source CFD Toolbox           |
|  \\    /   O peration     | Version:  v1912                                 |
|   \\  /    A nd           | Website:  www.openfoam.com                      |
|    \\/     M anipulation  |                                                 |
\*---------------------------------------------------------------------------*/
FoamFile
{
    version     2.0;
    format      ascii;
    class       volScalarField;
    location    "98.4";
    object      turbulenceProperties:epsilon;
}
// * * * * * * * * * * * * * * * * * * * * * * * * * * * * * * * * * * * * * //

dimensions      [0 2 -3 0 0 0 0];


internalField   nonuniform List<scalar> 
2528
(
0.0260014
0.01878
0.0301276
0.0335254
0.00180909
0.000800478
0.00162554
0.00155068
0.00267277
0.00078018
0.00200168
0.0016484
0.00431611
0.0012292
0.00318128
0.00259655
0.006146
0.00175746
0.0045098
0.0036913
0.00807286
0.00232821
0.00591503
0.00485714
0.0100076
0.00293151
0.00734796
0.0060575
0.0118205
0.00355284
0.0087332
0.00724118
0.0133677
0.00416713
0.00997428
0.00833885
0.014542
0.00474111
0.010981
0.00927865
0.0153024
0.00524144
0.0116959
0.0100068
0.0156696
0.00564268
0.0121056
0.0105001
0.0157017
0.00593255
0.0122345
0.0107659
0.0154706
0.0061111
0.0121281
0.0108336
0.0150483
0.00618799
0.0118403
0.0107428
0.0144996
0.00617766
0.0114152
0.0105261
0.0138748
0.00609662
0.0108911
0.0102132
0.0132122
0.00596273
0.0103008
0.00983049
0.0125398
0.0057929
0.00967094
0.00940103
0.0118784
0.00560144
0.00902403
0.00894379
0.011241
0.00539933
0.00838058
0.00847399
0.0106336
0.0051945
0.00775983
0.00800327
0.0100615
0.00499249
0.00717654
0.00754005
0.00952743
0.0047969
0.00664007
0.00709003
0.00903249
0.00460962
0.00615362
0.00665758
0.00857657
0.00443162
0.00571675
0.00624508
0.00815865
0.00426324
0.0053269
0.00585605
0.00777678
0.00410458
0.0049798
0.00549397
0.00742949
0.00395567
0.00466659
0.00516009
0.00711558
0.0038139
0.00438373
0.00485386
0.00683303
0.00367893
0.00412763
0.00457572
0.00658041
0.00355048
0.00389498
0.00432336
0.0063565
0.00342827
0.00368281
0.00408497
0.00616031
0.00331198
0.00348892
0.00383452
0.00599143
0.0032009
0.00331156
0.00354927
0.00584977
0.00309444
0.00314953
0.00324104
0.0057357
0.00299197
0.00300179
0.00294834
0.00564935
0.00289288
0.00286731
0.00268399
0.00559119
0.00279655
0.002745
0.00244651
0.00556624
0.00270245
0.00263371
0.00223392
0.00557013
0.00261079
0.0025322
0.00204227
0.00556176
0.00252292
0.00243914
0.00186865
0.00538425
0.00243845
0.0023533
0.00171116
0.00495211
0.0023549
0.00227378
0.00156848
0.00451272
0.00227276
0.00220011
0.00143976
0.00410846
0.00219217
0.00213206
0.00132429
0.00373477
0.00211328
0.0020693
0.00122146
0.00341619
0.00203644
0.00201107
0.00113062
0.00314222
0.001962
0.0019564
0.0010511
0.00290642
0.00189034
0.00190437
0.000982282
0.0027054
0.00182177
0.00185406
0.000923492
0.00253542
0.00175661
0.00180483
0.000874125
0.00239309
0.00169515
0.00175652
0.000833637
0.0022756
0.0016377
0.00170904
0.000801532
0.00218079
0.00158455
0.00166211
0.00077737
0.00210713
0.00153592
0.00161518
0.000760759
0.00205367
0.00149194
0.00156745
0.000751399
0.00201991
0.00145262
0.00151796
0.00074913
0.00200594
0.00141782
0.00146578
0.00075395
0.0020103
0.00138729
0.00141052
0.000766048
0.00203167
0.00136061
0.0013531
0.000785862
0.00206794
0.00133725
0.00129509
0.000813948
0.00211747
0.0013167
0.00123783
0.000851279
0.00214533
0.00129878
0.00118223
0.00089908
0.00199834
0.00128393
0.00112893
0.000959148
0.00174867
0.00127303
0.00107827
0.00103169
0.0015384
0.00126696
0.00103031
0.0011158
0.00136993
0.0012665
0.000985495
0.00121291
0.00123339
0.00127237
0.000943723
0.00132655
0.00112375
0.00128534
0.000904516
0.00146096
0.00103401
0.00130623
0.000867625
0.00162144
0.000963461
0.00133709
0.000833948
0.00181446
0.000915738
0.00137908
0.000805438
0.00204874
0.000889785
0.00143234
0.000783305
0.00233477
0.000883431
0.00149649
0.000768268
0.00267937
0.0008957
0.00157801
0.000760981
0.00303784
0.0009261
0.00169151
0.00076212
0.00298975
0.000975255
0.00174584
0.00077218
0.00261235
0.00104248
0.00167875
0.000790882
0.00233636
0.00235499
0.00757551
0.00714416
0.00830341
0.00032623
0.000532758
0.000729453
0.00053395
0.00062611
0.000813989
0.00128973
0.00077204
0.00103996
0.00133616
0.00213232
0.0012596
0.0014951
0.00192368
0.00307084
0.00180796
0.0019821
0.00255767
0.00408666
0.0023974
0.00249898
0.00323052
0.00517212
0.0030213
0.00303905
0.00392723
0.00630163
0.00366788
0.00358552
0.00461953
0.00742427
0.00431539
0.00411189
0.00526998
0.00847428
0.00493403
0.00458771
0.00584203
0.00939144
0.00549292
0.00498632
0.00631049
0.0101377
0.00596786
0.00529045
0.00666605
0.0107009
0.0063461
0.00549435
0.00691365
0.0110895
0.0066263
0.00560209
0.00706719
0.0113248
0.00681529
0.00562588
0.00714088
0.0114331
0.00692459
0.00557847
0.00715167
0.0114403
0.00696711
0.00547181
0.00711085
0.0113669
0.0069521
0.00531776
0.00702798
0.0112301
0.00688815
0.00512738
0.00691132
0.0110441
0.00678314
0.00490964
0.0067678
0.0108196
0.00664408
0.00467094
0.00660329
0.0105646
0.00647719
0.00441533
0.00642274
0.010285
0.00628796
0.00414625
0.00623054
0.00998474
0.00608132
0.00386924
0.00603055
0.00966586
0.00586159
0.00359338
0.00582641
0.00933035
0.00563286
0.00332907
0.00562133
0.00898164
0.0053982
0.00308409
0.00541813
0.0086267
0.0051598
0.0028614
0.00521886
0.00827976
0.00491887
0.00266112
0.00502815
0.00794579
0.00467564
0.00248211
0.00484682
0.00762485
0.00443008
0.00232345
0.00467516
0.00731165
0.00418289
0.00218365
0.00451326
0.0069985
0.00393667
0.00205742
0.0043608
0.00668235
0.00369556
0.0019341
0.00421729
0.00637113
0.0034636
0.00180161
0.004082
0.00607998
0.00324292
0.00165729
0.00395374
0.00581852
0.00303356
0.00151257
0.00383101
0.00558895
0.00283495
0.00137719
0.00371164
0.00539157
0.00264647
0.00125443
0.0035928
0.00522374
0.0024676
0.00114607
0.00347049
0.00507838
0.00229799
0.00105399
0.00334059
0.00494068
0.00213733
0.000979513
0.00320443
0.00478903
0.00198535
0.000922224
0.00306767
0.00461267
0.00184189
0.000879772
0.00293277
0.00442963
0.00170698
0.000848305
0.00280171
0.00426142
0.00158079
0.000822082
0.0026759
0.00411341
0.00146389
0.000794928
0.00255628
0.00398517
0.00135575
0.00076382
0.00244315
0.00387264
0.00125409
0.000731551
0.00233612
0.00376255
0.00115667
0.000701743
0.00223409
0.00363294
0.00106376
0.000676027
0.00213584
0.00347611
0.000977307
0.000653799
0.00204103
0.0033211
0.00089905
0.000633503
0.00195124
0.00318624
0.000829661
0.000613327
0.00186959
0.00307215
0.000767631
0.000591459
0.00179834
0.00297653
0.00071196
0.000566683
0.00173741
0.00289281
0.00066217
0.000538757
0.00168655
0.00280669
0.000617435
0.000507865
0.00164616
0.00268321
0.000577172
0.000473948
0.0016153
0.0024862
0.000540814
0.000436448
0.00159094
0.00226421
0.000507889
0.000395254
0.00156454
0.00207472
0.000478065
0.000353216
0.00151952
0.00191158
0.000451144
0.000315026
0.00144892
0.00176202
0.000427058
0.000283777
0.00137259
0.00163105
0.000405786
0.00025961
0.00130496
0.00151652
0.000387175
0.000240612
0.00124678
0.00141728
0.000370682
0.000224708
0.00119665
0.00133282
0.000356423
0.000210473
0.00115321
0.00125656
0.000344554
0.000197093
0.00111491
0.00117531
0.000335267
0.000184181
0.0010802
0.00108112
0.000328774
0.000171646
0.00104608
0.0009871
0.000325399
0.00015958
0.00100952
0.000905371
0.000325376
0.000148175
0.000965844
0.000833629
0.000330177
0.000137659
0.000909912
0.00076887
0.00034209
0.000128281
0.00084171
0.000713547
0.000363676
0.000120293
0.000766908
0.00066989
0.000397081
0.000113961
0.000691993
0.000639256
0.000442518
0.000109585
0.000621798
0.00062274
0.000498243
0.0192505
0.0088272
0.0240531
0.0205598
0.00100466
0.00045906
0.00135873
0.0010644
0.00124037
0.000575745
0.00179476
0.00129812
0.00199708
0.000939358
0.00291076
0.00208484
0.00286682
0.0013621
0.00419035
0.0029831
0.00381006
0.0018293
0.00557858
0.0039497
0.00480558
0.00233984
0.00703322
0.0049644
0.00581738
0.00288837
0.00848167
0.00599352
0.00679257
0.00345951
0.00982765
0.00698635
0.00767292
0.00402814
0.0109789
0.00788545
0.00841023
0.00456452
0.0118732
0.00864174
0.00897658
0.00504137
0.0124865
0.00922538
0.0093651
0.00543899
0.0128413
0.00962635
0.00959308
0.00574838
0.0129689
0.00986298
0.00968131
0.00597311
0.0129003
0.00995247
0.0096505
0.00611848
0.0126676
0.00991335
0.00952124
0.00618998
0.0123022
0.00976503
0.00931336
0.00619427
0.0118334
0.00952658
0.00904507
0.00613885
0.0112882
0.00921619
0.00873273
0.00603164
0.0106914
0.00885058
0.00838959
0.00588008
0.0100649
0.00844404
0.00802514
0.00569062
0.00942744
0.00800814
0.00764606
0.00546846
0.00879168
0.00755177
0.00725918
0.00521832
0.00816149
0.00708322
0.00687532
0.00494704
0.00753225
0.00661371
0.00650809
0.00466574
0.00689692
0.00616018
0.00616834
0.00438906
0.00625719
0.00574242
0.00586054
0.00412989
0.00563167
0.00537419
0.00558456
0.00389515
0.00504955
0.00505267
0.00533852
0.00368615
0.00453126
0.00475877
0.00512034
0.00350201
0.00407748
0.00445453
0.0049285
0.00334124
0.00367693
0.00410451
0.00476269
0.00320292
0.00332082
0.00371231
0.00462331
0.00308785
0.0030043
0.00332709
0.00451177
0.00299684
0.00272331
0.00298829
0.00443107
0.00293108
0.00247406
0.00269733
0.00438075
0.00289316
0.00225319
0.00244145
0.00434391
0.00288748
0.00205785
0.00221306
0.00426634
0.00291509
0.00188602
0.0020093
0.00408862
0.0029589
0.0017371
0.00182775
0.00385061
0.00295573
0.00161195
0.00166613
0.00363632
0.00281776
0.00151263
0.00152232
0.00345551
0.00259225
0.00144251
0.00139454
0.00329523
0.00239333
0.00140202
0.00128126
0.00315082
0.00223165
0.00137779
0.0011812
0.00302238
0.00209305
0.00131022
0.00109317
0.00291059
0.00197207
0.00113741
0.00101557
0.0028158
0.00186607
0.000942478
0.000947102
0.00273836
0.00177339
0.000794169
0.000887162
0.00267883
0.00169219
0.000682238
0.000835133
0.00263825
0.00162062
0.000592603
0.000790427
0.00261873
0.00155706
0.00052399
0.000752442
0.00262233
0.00150017
0.00047278
0.000720616
0.00264468
0.00144883
0.000439529
0.000694439
0.0026671
0.0014021
0.000419482
0.000673457
0.0026621
0.00135921
0.00039255
0.000657304
0.00264146
0.0013196
0.000334589
0.00064566
0.0026393
0.00128299
0.000265825
0.000638235
0.00266731
0.00124945
0.000211722
0.000634824
0.00272078
0.00121927
0.000173684
0.000635286
0.00275631
0.00119299
0.000146451
0.000639531
0.00261326
0.00117127
0.000128109
0.000647839
0.00234513
0.00115503
0.000116343
0.00066029
0.00214767
0.00114529
0.000109918
0.000677073
0.00198566
0.00114304
0.000107968
0.000698426
0.00183144
0.0011496
0.000109575
0.000724815
0.00168735
0.00116676
0.000114178
0.000756732
0.00155552
0.00119688
0.000121478
0.000794729
0.00143675
0.0012434
0.000131321
0.000839443
0.00133047
0.00130985
0.000143517
0.00089166
0.00123547
0.00140047
0.000157632
0.00095231
0.00115426
0.00151762
0.000173004
0.00102163
0.0010892
0.00165991
0.000189078
0.00110002
0.00103985
0.0018282
0.000205671
0.0011885
0.00100607
0.00183188
0.000222743
0.00128939
0.00098796
0.00163797
0.000240131
0.00140544
0.000985779
0.00148585
0.000257809
0.00153959
0.00100002
0.00136647
0.000275881
0.0016937
0.00103151
0.00126108
0.000294506
0.00189428
0.0221564
0.0208081
0.0325453
0.0175573
0.000781843
0.000962753
0.00152965
0.000729479
0.000575496
0.00104152
0.00170697
0.0006852
0.000874843
0.00166063
0.00272429
0.00106619
0.00124685
0.00240759
0.00387888
0.00151785
0.00165411
0.00323372
0.00510021
0.00200733
0.0020869
0.00410969
0.00635088
0.0025257
0.00253447
0.00499834
0.00757173
0.00306252
0.00298031
0.00585051
0.0086845
0.00360024
0.00340288
0.00661249
0.0096138
0.0041145
0.00377956
0.00723948
0.0103092
0.00457861
0.00409145
0.00770603
0.0107548
0.00496958
0.00432671
0.00800861
0.0109631
0.00527283
0.00448138
0.00815931
0.0109673
0.00548365
0.00455811
0.00818212
0.0108066
0.00560548
0.0045664
0.00809981
0.010517
0.00564881
0.00451788
0.00793401
0.0101311
0.00562521
0.00442543
0.00770468
0.00967768
0.00554553
0.00430184
0.00742954
0.00918212
0.00542034
0.0041587
0.00712395
0.00866732
0.00525971
0.00400561
0.00680063
0.0081532
0.00507255
0.00385112
0.00646982
0.00765345
0.00486682
0.00369927
0.0061394
0.00717696
0.00464909
0.00355265
0.00581517
0.00672811
0.00442477
0.00341266
0.00550107
0.00630828
0.00419788
0.00328017
0.00519958
0.00591738
0.00397263
0.00315565
0.00491202
0.00555476
0.00375224
0.00303934
0.00463895
0.00521895
0.00353909
0.00293059
0.00438062
0.00490802
0.00333512
0.00282834
0.0041372
0.00461982
0.00314187
0.00273201
0.00390878
0.0043524
0.00295991
0.00264117
0.00369509
0.00410381
0.00278887
0.00255554
0.00349502
0.0038724
0.00262781
0.00247481
0.00330643
0.00365669
0.00247499
0.00239863
0.0031286
0.00345536
0.00232722
0.00232662
0.00296117
0.00326731
0.00218489
0.00225827
0.00280381
0.00309148
0.00204885
0.00219298
0.00265624
0.00292699
0.00191955
0.00212991
0.00251826
0.00277302
0.00179697
0.00206763
0.00238979
0.00262886
0.00168101
0.00200368
0.00227081
0.00249392
0.00157158
0.00193483
0.00216105
0.00236769
0.00146852
0.00185818
0.00205976
0.00224979
0.00137169
0.00177307
0.00196581
0.00213997
0.00128093
0.00168202
0.00187813
0.00203815
0.00119609
0.00158816
0.00179588
0.00194429
0.00111703
0.00149394
0.00171834
0.00185805
0.00104359
0.00140115
0.00164473
0.00177861
0.000975631
0.00131104
0.0015744
0.00170488
0.000912927
0.00122453
0.00150701
0.00163591
0.000855286
0.00114239
0.00144226
0.00157101
0.000802556
0.0010651
0.00137993
0.00150965
0.000754634
0.000993027
0.00131985
0.00145154
0.000711342
0.000926515
0.00126186
0.00139653
0.000672501
0.0008659
0.00120583
0.00134466
0.000637904
0.000811467
0.00115163
0.00129608
0.000607345
0.000763165
0.00109913
0.00125079
0.000580608
0.000720597
0.00104819
0.0012085
0.000557492
0.00068332
0.000998671
0.00116867
0.000537772
0.000650961
0.000950386
0.00113083
0.000521188
0.000623223
0.000903163
0.00109466
0.000507488
0.00059951
0.000856815
0.00105955
0.000496188
0.000577891
0.000811179
0.00102513
0.000487052
0.000554963
0.000766104
0.000991197
0.000479821
0.000527431
0.000721499
0.000957679
0.000474221
0.000495135
0.000677343
0.000924644
0.000469941
0.000460682
0.000633694
0.000892285
0.000466659
0.000426439
0.000590736
0.000860266
0.000464062
0.000393935
0.000548836
0.000828673
0.000461858
0.000364077
0.000508612
0.000798028
0.000459735
0.000337374
0.000471048
0.000768908
0.000457335
0.000314079
0.000437572
0.000741348
0.00045416
0.000294288
0.00041011
0.00071467
0.000449443
0.000277912
0.000391007
0.000688873
0.000441826
0.000264763
0.000382616
0.000664292
0.00042918
0.000254605
0.000385004
0.000641309
0.000408099
0.000247205
0.000394708
0.000620295
0.000374294
0.000242299
0.000408408
0.000601585
0.000328921
0.000239664
0.000423714
0.000585492
0.000277713
0.00112577
0.00159527
0.000818806
0.0021294
0.00122505
0.00152931
0.000856513
0.00195719
0.00133978
0.00148623
0.000903573
0.00181543
0.00147553
0.00146556
0.000959416
0.00170238
0.00162674
0.00146553
0.0010232
0.00161633
0.00172893
0.0014844
0.00109394
0.00155188
0.0017678
0.00151439
0.00117051
0.00150291
0.00179676
0.00148548
0.00125164
0.001467
0.00183377
0.00139513
0.00133405
0.00144224
0.00188243
0.00130618
0.00141439
0.00142693
0.00194256
0.00122665
0.00149113
0.00141981
0.0020137
0.00115847
0.00156291
0.00141969
0.00209315
0.00110048
0.00162835
0.00142556
0.00217712
0.00105321
0.00168631
0.00143652
0.00226412
0.00101697
0.00173684
0.0014518
0.0023527
0.000991618
0.00178226
0.00147083
0.00244161
0.000977113
0.00182183
0.00149324
0.00252997
0.00097315
0.0018569
0.00151886
0.00261739
0.000979558
0.0018887
0.00154774
0.00270405
0.000996366
0.00191831
0.00158023
0.00279052
0.0010238
0.00194671
0.00161693
0.00287758
0.00106229
0.00197475
0.00165879
0.0029674
0.00111243
0.00200319
0.00170704
0.00306091
0.00117604
0.00203276
0.00176318
0.00315908
0.00125497
0.00206419
0.00182902
0.00326281
0.00135101
0.00209813
0.00190666
0.00337298
0.00146635
0.00213526
0.00199855
0.00349046
0.00160215
0.00217621
0.00210825
0.00361622
0.00175775
0.0022217
0.00223999
0.00375137
0.00193495
0.00227256
0.0023989
0.00389716
0.00213921
0.00232972
0.00259231
0.00405505
0.00237872
0.00239406
0.00282665
0.00422679
0.00266129
0.00246655
0.00309107
0.00441482
0.00298359
0.00254822
0.00333829
0.00462292
0.00334817
0.00263985
0.00341584
0.00485525
0.00368857
0.00274263
0.00326832
0.00511081
0.00381093
0.00285839
0.00308804
0.00538062
0.00379861
0.00298943
0.00295831
0.00563888
0.00378927
0.00313846
0.00287814
0.005859
0.00381858
0.00330808
0.0028407
0.00606513
0.00389783
0.00350132
0.00284096
0.00629269
0.00402511
0.00372205
0.00287605
0.00656164
0.004203
0.00397542
0.002944
0.00687796
0.00443483
0.00426727
0.00304333
0.00723438
0.00472432
0.0046018
0.00317364
0.00761777
0.00507688
0.00498076
0.00333571
0.00800386
0.00550065
0.00539108
0.0035319
0.00836517
0.00600477
0.00580307
0.00376473
0.00869992
0.00659148
0.0062164
0.00403148
0.00902535
0.00725062
0.00665777
0.00431795
0.0093577
0.00794941
0.00715489
0.00460139
0.00970072
0.0086387
0.00772466
0.00485438
0.010045
0.00931299
0.00837215
0.00506308
0.0103718
0.00999514
0.00908617
0.0052245
0.0106604
0.0107018
0.00984716
0.00533799
0.0108918
0.0114306
0.0106368
0.00540469
0.0110508
0.0121533
0.01144
0.00542216
0.0111241
0.0128289
0.0122401
0.00538607
0.0110998
0.013419
0.0130145
0.00529149
0.0109655
0.0138912
0.0137324
0.00513588
0.0107105
0.014215
0.014356
0.00491842
0.010327
0.0143597
0.0148412
0.00464012
0.00980956
0.0142943
0.0151388
0.00430067
0.00915164
0.0139911
0.0151978
0.00390842
0.00835826
0.0134281
0.0149698
0.00348021
0.00745738
0.0125803
0.0144119
0.00303821
0.00649549
0.0114482
0.0134744
0.00260554
0.00552941
0.0100844
0.0121644
0.00220144
0.00461201
0.0085903
0.0105603
0.00183808
0.00378023
0.00709149
0.00881218
0.00151971
0.00304959
0.00569617
0.00709286
0.0012443
0.00241801
0.00446522
0.00553319
0.00100582
0.00187418
0.00341107
0.00418932
0.000796361
0.00140491
0.00251907
0.00305984
0.000608099
0.00100005
0.00176831
0.00212113
0.000435921
0.000654951
0.0011433
0.00135195
0.000280955
0.00037631
0.000644069
0.000748844
0.000155168
0.000263166
0.000382113
0.000428141
0.000120429
0.00478587
0.00546087
0.00587556
0.00260838
0.000107667
0.000558649
0.000620717
0.000559917
0.000108722
0.000504541
0.000634142
0.000620792
0.000113434
0.000460845
0.000663972
0.000678297
0.000122917
0.000428048
0.000710448
0.000735173
0.000138904
0.000406413
0.000772051
0.000794139
0.000163729
0.000395953
0.000847072
0.00085721
0.000199297
0.000396711
0.000934507
0.000925589
0.000246156
0.000407966
0.00103387
0.000999715
0.000304084
0.000428491
0.00114464
0.0010796
0.000372442
0.000457269
0.00126633
0.00116481
0.0004503
0.000493508
0.00139723
0.00125448
0.000536415
0.000537305
0.00154331
0.00134728
0.000629074
0.000588355
0.00170215
0.00144192
0.00072586
0.000645248
0.00183674
0.00153706
0.000823863
0.000707991
0.00192609
0.00163087
0.000919705
0.000776546
0.00198637
0.0017216
0.00100774
0.00085105
0.00204029
0.00180755
0.00108103
0.000931818
0.00209701
0.00188679
0.00113661
0.00101925
0.00215976
0.0019569
0.00117804
0.00111372
0.00222886
0.00201475
0.0012105
0.00121567
0.0023044
0.00205894
0.00123815
0.00132654
0.00238618
0.00209237
0.00126383
0.00144779
0.00247378
0.00211886
0.00128942
0.00157715
0.0025673
0.00214122
0.00131621
0.00171713
0.00266783
0.00216141
0.00134509
0.00187039
0.00277591
0.002181
0.00137667
0.00201793
0.00289156
0.00220123
0.00141153
0.00214267
0.00301383
0.00222314
0.00145021
0.00225223
0.00314174
0.00224704
0.00149305
0.00235807
0.00327461
0.00227318
0.00154027
0.00246337
0.00341218
0.00230183
0.00159195
0.00256676
0.00355447
0.00233563
0.00164813
0.00266903
0.00370166
0.00237568
0.00170875
0.00277268
0.00385404
0.0024231
0.00177369
0.00288037
0.00401191
0.00247872
0.0018428
0.00299491
0.00417569
0.0025426
0.00191587
0.00312204
0.00434582
0.00261415
0.00199252
0.00326209
0.00452289
0.00269248
0.00207193
0.00341451
0.0047079
0.00277667
0.00215266
0.00357845
0.00490175
0.00286582
0.00223324
0.00375319
0.00510498
0.00295908
0.00231307
0.0039387
0.00531834
0.0030559
0.00239402
0.00413573
0.00554278
0.00315636
0.0024818
0.00434548
0.0057794
0.00326115
0.00257786
0.0045693
0.00602941
0.00337123
0.00268364
0.00480859
0.00629421
0.00348753
0.00280055
0.00506489
0.00657497
0.00361092
0.00292977
0.00533996
0.00687255
0.00374224
0.00307215
0.00563561
0.00718758
0.00388217
0.00322825
0.00595394
0.00751935
0.00403138
0.00339819
0.0062972
0.00786617
0.00419039
0.00358171
0.00666743
0.00822566
0.00435927
0.00377789
0.00706537
0.00859488
0.00453763
0.00398447
0.00749264
0.00896976
0.00472612
0.00419773
0.00794969
0.00934481
0.00492499
0.00441144
0.00842725
0.009712
0.00512673
0.0046175
0.0089119
0.0100609
0.00532099
0.00480587
0.00938724
0.010378
0.0054946
0.00496457
0.00983344
0.0106468
0.00563316
0.00508011
0.0102263
0.0108475
0.00572198
0.00513808
0.0105376
0.0109578
0.00574632
0.00512421
0.0107355
0.0109534
0.0056923
0.00502624
0.0107864
0.0108097
0.00554644
0.0048326
0.0106576
0.0105003
0.00529843
0.00453878
0.010316
0.0100008
0.00494822
0.00415312
0.00973629
0.00930388
0.00450776
0.00369707
0.00892346
0.00842694
0.0040015
0.00320248
0.00791921
0.00741672
0.00346267
0.00270434
0.00680095
0.0063428
0.00292604
0.00223221
0.00566238
0.0052801
0.00242001
0.00180445
0.0045858
0.00428857
0.00196182
0.00142796
0.00362093
0.00340153
0.0015576
0.00110177
0.00278315
0.00262725
0.00120594
0.000821455
0.00206613
0.00195947
0.000902191
0.00058259
0.00145688
0.00138815
0.000641853
0.00038379
0.000947742
0.000908125
0.000423735
0.000239566
0.000556723
0.000538278
0.000263141
0.000365826
0.00056864
0.000563439
0.00038088
0.0116318
0.0149771
0.0149902
0.0118212
0.00108084
0.00117082
0.000313675
0.00217464
0.00114822
0.00109653
0.000333243
0.00228235
0.00123052
0.00103739
0.000353432
0.00214506
0.00132435
0.000990248
0.000374915
0.00200029
0.00143002
0.000952572
0.000398837
0.00188749
0.00154848
0.000922574
0.000426662
0.00181163
0.00168101
0.000898559
0.00046125
0.00176899
0.00182936
0.000879954
0.000503929
0.00175563
0.0019959
0.000866472
0.000556891
0.00176921
0.00218377
0.000857912
0.000623149
0.00180843
0.00239652
0.000854223
0.000705639
0.00187275
0.00263765
0.000855935
0.000805877
0.00196279
0.0029094
0.000863282
0.000938911
0.00208025
0.00321196
0.000876813
0.00112253
0.00222763
0.00355094
0.000897228
0.00123012
0.00240538
0.00398582
0.000925405
0.00118942
0.0026073
0.0045808
0.000962391
0.00112667
0.00282972
0.00501275
0.00100938
0.00108074
0.00310619
0.00492883
0.00106793
0.00105693
0.00348841
0.00471038
0.0011406
0.00105389
0.00381713
0.00452953
0.0012312
0.00106973
0.00380815
0.00440608
0.00133918
0.00110287
0.0036584
0.00433756
0.00146254
0.00115193
0.00351853
0.00431283
0.00160344
0.00121571
0.00341603
0.0043246
0.00176462
0.00129252
0.0033531
0.00436802
0.00194793
0.00138114
0.00332267
0.00443961
0.00215397
0.00148071
0.00331913
0.00453651
0.00238223
0.00159069
0.0033388
0.00465549
0.00266476
0.00171079
0.0033789
0.00479527
0.00304949
0.00184093
0.00343726
0.0049552
0.00343562
0.00198088
0.0035123
0.00513521
0.00362866
0.00213088
0.00359994
0.00533559
0.00371505
0.00229155
0.00369941
0.00555669
0.00380099
0.00246382
0.00381059
0.00579887
0.00391799
0.0026485
0.00393361
0.00606331
0.00406917
0.0028462
0.00406869
0.0063565
0.00424833
0.00305773
0.00421663
0.00669242
0.00445853
0.00328431
0.00437893
0.0070697
0.00470768
0.00352704
0.00456335
0.00742136
0.00498188
0.00378665
0.00477483
0.00765367
0.00522182
0.00406389
0.00498304
0.00777444
0.00539803
0.00435958
0.00511915
0.00784978
0.00554331
0.00467461
0.00516636
0.00792315
0.00569684
0.00501
0.00516997
0.00801145
0.00587052
0.00536706
0.00517083
0.0081147
0.00606484
0.0057477
0.00518293
0.00822984
0.00627772
0.00615484
0.0052059
0.00835757
0.00650795
0.00659141
0.00523644
0.00849653
0.0067547
0.00705981
0.00527198
0.00864582
0.00701794
0.00756047
0.00531088
0.00880458
0.00729783
0.00809141
0.00535143
0.00897156
0.00759503
0.00864991
0.00539201
0.00914507
0.00790968
0.0092339
0.00543241
0.00932247
0.00824368
0.00984172
0.00547415
0.00950035
0.00859982
0.010471
0.00551473
0.00967376
0.00897764
0.0111167
0.00555015
0.00983569
0.00937304
0.0117706
0.00557475
0.0099768
0.00977853
0.0124199
0.00558116
0.0100847
0.0101822
0.0130462
0.00556073
0.0101437
0.0105665
0.0136253
0.00550403
0.0101348
0.0109073
0.0141273
0.00540122
0.0100376
0.0111736
0.0145153
0.00524292
0.00982953
0.0113285
0.0147461
0.00502126
0.00948944
0.0113301
0.0147706
0.004732
0.0090019
0.0111357
0.0145372
0.00437728
0.00836195
0.0107029
0.0139964
0.00396729
0.00758228
0.0100103
0.0131039
0.00351992
0.00669687
0.00906576
0.0118723
0.00305765
0.00575701
0.00791724
0.0103779
0.00260271
0.00481944
0.00665051
0.00875747
0.00217262
0.00393224
0.00536801
0.00716355
0.00177819
0.00312602
0.0041618
0.00570609
0.00142388
0.00241388
0.00309793
0.00442103
0.00111
0.00179717
0.00221297
0.00328805
0.000834851
0.00127205
0.00151856
0.00227801
0.000596459
0.000834771
0.00100123
0.00139962
0.000394702
0.00049673
0.000632369
0.000726796
0.00024112
0.00048193
0.000608061
0.000593984
0.000296006
0.0120385
0.0143739
0.0144497
0.00847801
0.000239078
0.00044065
0.000572776
0.000226638
0.000240228
0.000459348
0.000563757
0.000183627
0.000242495
0.000479695
0.000558289
0.000155652
0.000244868
0.000501559
0.00055619
0.000144963
0.000245782
0.00052454
0.000557197
0.000149249
0.00024329
0.000548036
0.000560999
0.00016426
0.000236809
0.000571164
0.000567058
0.000186789
0.000227264
0.000592832
0.000574926
0.00021395
0.000215855
0.000613008
0.00058544
0.000244036
0.000203763
0.000632835
0.000599716
0.000276089
0.00019221
0.000653404
0.000617886
0.000309422
0.000182536
0.000675679
0.000640222
0.000343451
0.000176809
0.000700523
0.000667211
0.000377908
0.000177767
0.000728717
0.000699676
0.00041334
0.000187704
0.000760986
0.000738744
0.000451101
0.000209177
0.000797989
0.000785226
0.00049286
0.000245092
0.000840547
0.000839073
0.000540297
0.00029831
0.000889245
0.000899862
0.000595037
0.000368647
0.000944844
0.00096721
0.000658417
0.000452536
0.00100795
0.00104088
0.000731645
0.000546233
0.00107939
0.00112076
0.000815571
0.000647211
0.00116015
0.00120691
0.000909953
0.000753576
0.00125136
0.00129955
0.00101456
0.000864794
0.00135383
0.00139906
0.00112916
0.000980872
0.00146804
0.00150597
0.00125376
0.0011022
0.00159505
0.00162094
0.00138874
0.00122939
0.00173641
0.00174476
0.00153475
0.00136334
0.00189388
0.00187832
0.0016921
0.00150587
0.0020691
0.00202261
0.00186157
0.0016588
0.00226272
0.0021787
0.00204403
0.00182213
0.00247607
0.00234774
0.00223962
0.00199454
0.00271046
0.00253132
0.00244843
0.00217576
0.00296932
0.00273114
0.00267405
0.00236581
0.00326076
0.00294909
0.00291659
0.00256502
0.0035866
0.00318886
0.00316008
0.00277366
0.00392545
0.00345471
0.003385
0.00299178
0.00424695
0.00374881
0.00358623
0.00321924
0.00454179
0.0040724
0.00377565
0.00345635
0.00482124
0.00442613
0.00396993
0.0037046
0.00510171
0.0048107
0.00418236
0.00396641
0.00539946
0.00522683
0.0044181
0.00424333
0.00572593
0.00567517
0.00468008
0.00453446
0.00608603
0.00615618
0.00496932
0.00483722
0.00647921
0.00667013
0.00528167
0.00514741
0.00690262
0.00721638
0.00561091
0.00546049
0.00735302
0.00779372
0.00595124
0.00577176
0.00782759
0.00839994
0.00629855
0.00607412
0.00832357
0.00903238
0.00664955
0.00636451
0.00883748
0.0096889
0.00700062
0.00664024
0.00936469
0.0103675
0.00734716
0.00689897
0.00989958
0.0110674
0.00768385
0.00713731
0.0104362
0.0117862
0.00800527
0.00735032
0.0109696
0.0125181
0.00830386
0.00753144
0.0114921
0.0132579
0.00856792
0.0076728
0.0119923
0.0139978
0.00878941
0.00776716
0.0124599
0.0147273
0.0089605
0.00780812
0.0128831
0.0154328
0.00907386
0.00778982
0.0132467
0.0160964
0.00912224
0.00770709
0.0135335
0.0166956
0.00909849
0.00755526
0.013725
0.0172029
0.00899532
0.00733047
0.0138006
0.0175858
0.0088055
0.00702955
0.0137385
0.017807
0.00852172
0.00664526
0.013515
0.017825
0.00813343
0.00617752
0.013106
0.0175958
0.00763472
0.00563383
0.0124809
0.0170722
0.00702958
0.00503216
0.0116243
0.0162009
0.00633544
0.00440007
0.0105472
0.0149641
0.00558381
0.00376943
0.00929749
0.0133961
0.00481543
0.00316901
0.00795719
0.0115986
0.00407004
0.00261823
0.00662184
0.00971985
0.00337715
0.00212548
0.00537173
0.00790758
0.00275186
0.00169076
0.00425274
0.00626271
0.00219717
0.00130995
0.00327684
0.00482524
0.00170935
0.000978316
0.0024369
0.00359159
0.00128278
0.000692088
0.00172012
0.00254144
0.000912657
0.00044927
0.00111689
0.00165717
0.000596373
0.000251356
0.000630576
0.000942635
0.000336255
0.000121345
0.000363014
0.000567143
0.000164769
0.000915404
0.00478314
0.00806411
0.00127861
)
;

boundaryField
{
    leftWall
    {
        blended         1;
        beta1           0.075;
        type            omegaWallFunction;
        value           nonuniform List<scalar> 
16
(
0.0260014
0.00235499
0.0192505
0.0221564
0.01878
0.00757551
0.0088272
0.0208081
0.0301276
0.00714416
0.0240531
0.0325453
0.0335254
0.00830341
0.0205598
0.0175573
)
;
    }
    rightWall
    {
        blended         1;
        beta1           0.075;
        type            omegaWallFunction;
        value           nonuniform List<scalar> 
16
(
0.00478587
0.0116318
0.0120385
0.000915404
0.00546087
0.0149771
0.0143739
0.00478314
0.00587556
0.0149902
0.0144497
0.00806411
0.00260838
0.0118212
0.00847801
0.00127861
)
;
    }
    leftSides_periodic0
    {
        type            cyclic;
    }
    leftSides_periodic1
    {
        type            cyclic;
    }
    rightSides_periodic0
    {
        type            cyclic;
    }
    rightSides_periodic1
    {
        type            cyclic;
    }
    leftInOut_periodic0
    {
        type            cyclic;
    }
    leftInOut_periodic1
    {
        type            cyclic;
    }
    rightInOut_periodic0
    {
        type            cyclic;
    }
    rightInOut_periodic1
    {
        type            cyclic;
    }
}

