/*--------------------------------*- C++ -*----------------------------------*\
| =========                 |                                                 |
| \\      /  F ield         | OpenFOAM: The Open Source CFD Toolbox           |
|  \\    /   O peration     | Version:  v1912                                 |
|   \\  /    A nd           | Website:  www.openfoam.com                      |
|    \\/     M anipulation  |                                                 |
\*---------------------------------------------------------------------------*/
FoamFile
{
    version     2.0;
    format      ascii;
    class       volScalarField;
    location    "98.4";
    object      turbulenceProperties:alphat;
}
// * * * * * * * * * * * * * * * * * * * * * * * * * * * * * * * * * * * * * //

dimensions      [1 -1 -1 0 0 0 0];


internalField   nonuniform List<scalar> 
2528
(
1.17433e-08
8.47916e-09
1.36097e-08
1.51442e-08
2.79633e-08
1.30349e-08
2.48438e-08
2.51871e-08
3.59734e-07
1.06019e-07
2.6327e-07
2.2212e-07
2.51608e-06
7.22283e-07
1.79867e-06
1.47573e-06
1.03477e-05
3.06067e-06
7.3245e-06
5.9956e-06
3.02258e-05
9.37626e-06
2.12379e-05
1.74867e-05
6.96728e-05
2.28708e-05
4.86781e-05
4.04599e-05
0.000135045
4.71149e-05
9.39914e-05
7.90019e-05
0.000229599
8.52326e-05
0.000159471
0.000135678
0.000353001
0.000139228
0.000244962
0.000211063
0.000502295
0.000209713
0.00034836
0.000303962
0.000667428
0.00029608
0.000462111
0.000412039
0.000833882
0.000396933
0.000575065
0.000521836
0.0010156
0.000510541
0.000695237
0.000636752
0.00121045
0.000626501
0.000821944
0.000759177
0.00141712
0.000751375
0.000954848
0.000889031
0.00163582
0.000887435
0.00109337
0.00102586
0.00186719
0.00103453
0.00123736
0.0011692
0.00211179
0.00119219
0.00138769
0.00131849
0.00236814
0.00135965
0.00154703
0.00147316
0.00263306
0.00153591
0.00171932
0.00163239
0.0029056
0.00171972
0.00190773
0.00179491
0.00318626
0.00190964
0.00211227
0.00195917
0.00347496
0.00210418
0.00232693
0.00212471
0.00377101
0.00230065
0.00254203
0.00229422
0.00407245
0.00249368
0.00275305
0.00247377
0.00437626
0.00268847
0.00296044
0.00266751
0.00464797
0.00288412
0.00316492
0.00286964
0.00491647
0.00307962
0.00336723
0.0030698
0.00518023
0.00327605
0.00356702
0.00322283
0.00543764
0.00347299
0.00376422
0.00336477
0.00568697
0.00366992
0.00395496
0.00350014
0.00592664
0.00386626
0.00414143
0.00351411
0.00615505
0.00406146
0.00432748
0.00310482
0.00637041
0.00425539
0.00451271
0.0029139
0.00657066
0.00444792
0.00469655
0.00318546
0.00675304
0.00463898
0.00487841
0.00383831
0.0069137
0.00482862
0.0050578
0.00436674
0.00704804
0.00501699
0.00523433
0.00450714
0.00715244
0.00520418
0.00540773
0.00464797
0.00723441
0.00538891
0.00557781
0.00479016
0.00497359
0.00556726
0.00574455
0.00493474
0.00367797
0.00573879
0.00590785
0.00508308
0.00383619
0.00590908
0.0060672
0.00523682
0.00546452
0.0060779
0.0062215
0.00539747
0.00786807
0.00624582
0.00636942
0.00556632
0.00821442
0.00641355
0.00650995
0.00574445
0.00840687
0.00658121
0.00664317
0.00593288
0.00859702
0.00674893
0.00676969
0.00613268
0.00877884
0.00691689
0.00688985
0.00634452
0.00894554
0.00708532
0.00700398
0.00656929
0.00909368
0.00725444
0.007112
0.00680757
0.00922176
0.00742438
0.00721307
0.00705942
0.00932939
0.00759512
0.00730639
0.0073243
0.00941668
0.00776651
0.00739186
0.00760094
0.00948384
0.00793837
0.00746999
0.00788752
0.00953087
0.00811063
0.0075419
0.00818168
0.00955743
0.00828339
0.00760927
0.00848029
0.00956099
0.00845693
0.00767416
0.00877954
0.00954362
0.00863191
0.0077381
0.00907493
0.00950163
0.00880943
0.00780007
0.00936118
0.00943607
0.00899121
0.00785817
0.00963431
0.00933207
0.00917931
0.00791132
0.00988875
0.00472964
0.00937507
0.0079593
0.0101203
0.00343379
0.00957783
0.00800218
0.0103235
0.00501433
0.0097851
0.00804082
0.0104993
0.00932164
0.009994
0.00807731
0.0106553
0.00945288
0.0102021
0.00811041
0.0107977
0.00962248
0.0104071
0.00814265
0.0109251
0.00983236
0.010607
0.008181
0.0110356
0.0101031
0.0108
0.00823389
0.0111275
0.0104268
0.0109748
0.00830433
0.0112004
0.0107495
0.0111269
0.00838538
0.011256
0.0110447
0.0112585
0.00847402
0.0100681
0.0113045
0.0113735
0.00856974
0.00552239
0.0115203
0.0114776
0.00867194
0.00373673
0.0116915
0.00654154
0.00877972
0.00464119
0.0118138
0.00515715
0.00889244
0.0115474
0.0118988
0.00800035
0.00901663
0.0117391
1.0632e-09
3.42017e-09
3.2261e-09
3.74916e-09
4.97369e-09
8.14829e-09
1.10728e-08
8.15218e-09
8.30166e-08
1.08506e-07
1.69045e-07
1.02472e-07
6.11672e-07
7.89145e-07
1.22723e-06
7.38548e-07
2.65696e-06
3.41911e-06
5.26308e-06
3.17858e-06
8.28191e-06
1.0645e-05
1.61639e-05
9.825e-06
2.04957e-05
2.63497e-05
3.93339e-05
2.41327e-05
4.26823e-05
5.49854e-05
8.04737e-05
4.99796e-05
7.76828e-05
0.000100481
0.000143957
9.07248e-05
0.000126976
0.000165229
0.000231678
0.00014839
0.000190352
0.000249646
0.000342935
0.000223316
0.000266158
0.00035241
0.00047519
0.00031435
0.000351887
0.000471089
0.000625117
0.000419365
0.000439627
0.000602767
0.00077558
0.000535789
0.000523937
0.000741599
0.000933374
0.000655835
0.000610835
0.000875782
0.0010997
0.000772847
0.000699982
0.00101453
0.00127386
0.000893902
0.000790984
0.00115844
0.00145551
0.00101919
0.000883217
0.00130688
0.00164386
0.00114799
0.000975224
0.00145907
0.00183808
0.00127949
0.00106446
0.00161444
0.00203717
0.00141301
0.00114836
0.00177267
0.00223992
0.00154802
0.00122699
0.00193368
0.00244487
0.00168417
0.00130592
0.00209768
0.00265028
0.00182125
0.00139535
0.00226495
0.00285713
0.00195916
0.00150337
0.0024349
0.00307189
0.00209758
0.00162631
0.00260623
0.0033048
0.00223559
0.0017463
0.00277867
0.00356335
0.00237022
0.00184659
0.00295122
0.00383975
0.0024991
0.00191738
0.00312279
0.00410212
0.00262408
0.00197295
0.00329229
0.00430754
0.00274925
0.00202077
0.00345862
0.00444352
0.00288263
0.00206042
0.00362057
0.00456438
0.00303226
0.00208466
0.00377678
0.00477504
0.00319768
0.0019173
0.00392558
0.00516291
0.0033667
0.00179211
0.00406438
0.00570526
0.00352526
0.00181289
0.00418907
0.0062589
0.00366921
0.00197009
0.00429442
0.00666584
0.00380306
0.00216635
0.00437676
0.0069174
0.00393259
0.00217489
0.00444118
0.00715735
0.00406141
0.0021788
0.00451082
0.00714711
0.00419069
0.00218646
0.00461834
0.00646609
0.00431974
0.00220161
0.00477367
0.00596812
0.00444905
0.00222731
0.00495793
0.00612035
0.00458359
0.00226359
0.00515153
0.00695211
0.00473126
0.00230809
0.00534693
0.00810922
0.00489307
0.00224449
0.00554204
0.00880203
0.00504581
0.00208624
0.00573012
0.00897565
0.00513157
0.00214308
0.00589445
0.0088593
0.00508822
0.00237411
0.00601333
0.0075463
0.00493245
0.00258411
0.00608118
0.00668043
0.00481107
0.00263055
0.00613651
0.00694199
0.00492797
0.00267087
0.00626807
0.00824919
0.0054042
0.00270286
0.00657408
0.00981295
0.006093
0.0027241
0.007072
0.0100624
0.00652589
0.00269995
0.00760678
0.0101405
0.00652947
0.00270362
0.00787611
0.0101981
0.00650503
0.00269649
0.00796308
0.00817374
0.00645183
0.00265145
0.00803191
0.00603934
0.00637026
0.00258944
0.00808077
0.00528017
0.00626125
0.00251267
0.00720142
0.00610758
0.00612638
0.00242597
0.00572742
0.00849815
0.00596726
0.0023383
0.0049788
0.0107169
0.00578491
0.00226502
0.00523103
0.0107957
0.00558043
0.00222243
0.00636442
0.0108471
0.00535541
0.00221368
0.00774612
0.010864
0.00511485
0.00222819
0.00811214
0.0108369
0.00487067
0.00225358
0.00804054
0.0107597
0.00462703
0.00228016
0.00793851
0.0106253
0.0043885
0.00230058
0.00780457
0.00909329
0.0041601
0.0023095
0.00763738
0.00714964
0.00394783
0.00230296
0.00744505
0.00770526
0.00375916
0.00227831
0.00722952
0.00956077
0.00360899
0.0022346
0.00699052
0.00931998
0.00351144
0.00217269
0.00673602
0.00907827
0.00348565
0.00209478
0.0064672
0.00883707
0.00355305
0.00200456
0.00618093
0.00859852
0.00372763
0.00190725
0.00588957
0.00836862
0.00399519
0.00181003
0.00561019
0.0081552
0.00432587
8.69318e-09
3.98471e-09
1.0862e-08
9.28565e-09
1.53507e-08
7.00005e-09
2.0703e-08
1.61182e-08
1.64286e-07
7.64894e-08
2.36218e-07
1.68913e-07
1.15453e-06
5.53797e-07
1.66356e-06
1.17792e-06
4.85717e-06
2.41884e-06
6.95296e-06
4.92304e-06
1.45794e-05
7.59167e-06
2.06046e-05
1.46711e-05
3.45705e-05
1.89032e-05
4.79598e-05
3.45165e-05
6.88803e-05
3.95655e-05
9.3389e-05
6.82222e-05
0.000120201
7.23101e-05
0.000158825
0.000118114
0.000189289
0.000118638
0.000243417
0.000184564
0.000275109
0.000178543
0.000344174
0.000266164
0.000375409
0.000250727
0.000454525
0.000360295
0.000486959
0.0003331
0.000558776
0.000456955
0.000594015
0.000413816
0.000668641
0.000551831
0.000709061
0.000495841
0.000783263
0.000651923
0.000831958
0.000582988
0.000901503
0.000756434
0.000962457
0.000674783
0.00102244
0.000864617
0.00110052
0.000770876
0.00114541
0.000975842
0.00124592
0.000870975
0.00127007
0.00108945
0.00139779
0.000974651
0.0013963
0.00120459
0.00155469
0.00108131
0.00152304
0.00132018
0.00171678
0.00119071
0.00164636
0.00143563
0.00189002
0.00130459
0.00175849
0.00155301
0.00208759
0.00142918
0.00185173
0.00167996
0.0023213
0.00157587
0.00192852
0.00182971
0.00258507
0.00175593
0.0020099
0.00201143
0.00285271
0.00196849
0.00213121
0.00221005
0.00307489
0.00219397
0.00231983
0.00236362
0.00329343
0.00239419
0.00256384
0.00239428
0.00351487
0.0025661
0.00279581
0.00229196
0.00373841
0.00274247
0.00294729
0.00216063
0.00396304
0.00292277
0.00303126
0.00215972
0.00418726
0.00310619
0.00310662
0.00239991
0.00440937
0.00329026
0.00319005
0.00286195
0.00462757
0.00347258
0.00326697
0.00327684
0.00484016
0.00365061
0.00333207
0.00340612
0.00470161
0.00382152
0.00338656
0.00353565
0.00401811
0.00398233
0.00343734
0.0036667
0.00355182
0.00367373
0.00350486
0.003799
0.00396167
0.0028699
0.00357384
0.00393291
0.00553954
0.00241529
0.00357249
0.00406885
0.00630016
0.00278879
0.00355067
0.00420732
0.00656143
0.00444961
0.00350748
0.00434879
0.00682341
0.0050688
0.00307791
0.00449369
0.00708868
0.00527987
0.00202899
0.00464242
0.00735595
0.00549097
0.00143327
0.0047954
0.00762416
0.00570297
0.00146961
0.00495599
0.00789176
0.00591604
0.00239757
0.00512755
0.00815648
0.00612953
0.00285466
0.00531108
0.00841536
0.00634251
0.00277979
0.00550741
0.00866471
0.00655423
0.00270349
0.00571691
0.0089006
0.00676399
0.00262485
0.00593971
0.00911908
0.00697129
0.00254428
0.00617532
0.00757163
0.00717576
0.00245154
0.0064228
0.00642324
0.00737725
0.00169422
0.00668091
0.00760369
0.00757583
0.00111116
0.00694814
0.0099306
0.00777175
0.00105065
0.00722243
0.0100621
0.00796506
0.00148612
0.00750167
0.0101417
0.00815571
0.00167597
0.00778393
0.00652245
0.0083436
0.0015521
0.00806708
0.00427383
0.00852836
0.00146482
0.00834899
0.00452744
0.00870984
0.00141732
0.00862369
0.00892347
0.00888667
0.00141145
0.00888833
0.010473
0.00905659
0.0014482
0.00913951
0.0106052
0.0092174
0.00152487
0.00937441
0.010755
0.00936622
0.00164068
0.00958933
0.0109166
0.00949906
0.00179499
0.00978197
0.0110894
0.00961181
0.00198741
0.00995133
0.0112759
0.00969626
0.00221714
0.0100971
0.0114818
0.00975042
0.00248141
0.0102199
0.0117176
0.00977765
0.00277234
0.010321
0.0119684
0.0097917
0.00307668
0.0104066
0.012212
0.0058352
0.00338283
0.0104788
0.0124433
0.00344857
0.00368325
0.0105418
0.0126558
0.00385631
0.0039738
0.0105954
0.0128426
0.009901
0.00424847
0.0106387
0.0129967
0.0100354
0.00450153
0.0106701
0.0131126
0.0101394
0.00472883
0.0106884
0.0131868
0.0102376
0.00492779
0.0106904
1.00038e-08
9.39467e-09
1.46972e-08
7.92852e-09
1.29228e-08
1.65881e-08
2.2535e-08
1.2167e-08
8.02622e-08
1.55603e-07
2.14924e-07
9.63936e-08
5.28517e-07
1.05496e-06
1.50174e-06
6.44985e-07
2.22067e-06
4.36953e-06
6.30179e-06
2.68515e-06
6.7661e-06
1.30718e-05
1.87588e-05
8.09442e-06
1.6448e-05
3.11481e-05
4.39236e-05
1.94756e-05
3.38357e-05
6.26528e-05
8.62868e-05
3.96667e-05
6.12369e-05
0.000110596
0.000148525
7.10901e-05
0.000100238
0.00017626
0.000231056
0.000115231
0.0001515
0.000259203
0.000332429
0.000172434
0.000214838
0.000357771
0.000450106
0.000242036
0.00028946
0.000469735
0.00058131
0.000322687
0.000374249
0.000581608
0.00071986
0.000412711
0.000468098
0.000700536
0.000861294
0.00050388
0.000570349
0.000828493
0.00101326
0.000597776
0.000680484
0.000965442
0.0011761
0.000697603
0.000798074
0.00111112
0.00135102
0.000803378
0.000922783
0.00126526
0.00154
0.000914877
0.00105428
0.00142753
0.00174442
0.0010319
0.00119209
0.00159755
0.00196267
0.00115425
0.00133515
0.00177481
0.00217006
0.00128172
0.00148278
0.00195862
0.00238095
0.00141407
0.00163439
0.0021481
0.00259714
0.00155104
0.00178919
0.00234227
0.00281848
0.0016925
0.00194627
0.00254024
0.00304475
0.0018387
0.00210458
0.00274119
0.0032754
0.00199063
0.00226289
0.00294576
0.00350985
0.00214994
0.00242045
0.00315553
0.00374748
0.00231754
0.00257692
0.00337184
0.00398762
0.00248955
0.00273173
0.00359298
0.00422962
0.00265146
0.00288421
0.00379054
0.00447286
0.0028024
0.0030336
0.00396977
0.00471675
0.00295407
0.00317909
0.00414562
0.00496075
0.00310674
0.00331992
0.00431804
0.00520432
0.00326083
0.00345542
0.00448665
0.00544693
0.00341616
0.00358503
0.00465123
0.00568811
0.0035785
0.00370847
0.00481169
0.00592743
0.0037362
0.00382574
0.00496815
0.00616451
0.00389309
0.00393703
0.00512092
0.00639901
0.00404905
0.00404264
0.00527047
0.0066307
0.00420387
0.00414293
0.00541715
0.00685937
0.00435735
0.00423856
0.00556078
0.00708498
0.00450926
0.00432947
0.00570051
0.00730767
0.00465934
0.00441344
0.00583517
0.0075278
0.00480724
0.00448845
0.0059635
0.00774585
0.00495251
0.00455295
0.00608438
0.00796168
0.00509462
0.00460523
0.00619743
0.00817402
0.00523285
0.00464379
0.00630237
0.00838115
0.00536676
0.00466737
0.00639848
0.0085817
0.00549571
0.00467508
0.00648506
0.00877463
0.00561848
0.00466667
0.00656141
0.00895911
0.00573338
0.00464257
0.00662682
0.00913462
0.00583868
0.00460416
0.00668055
0.00930093
0.00593257
0.00455386
0.00672185
0.0094581
0.00601319
0.0044949
0.00674993
0.00960636
0.00607863
0.0044306
0.00676395
0.00974521
0.00612704
0.00436351
0.00676307
0.00987272
0.00615664
0.00429617
0.00674638
0.00998612
0.0061659
0.00423216
0.00671299
0.0100824
0.00615393
0.0041765
0.00666198
0.0101582
0.00612007
0.00413427
0.00659247
0.0102145
0.00606718
0.00410573
0.00650364
0.0102519
0.00599545
0.00408609
0.00639478
0.0102707
0.0059055
0.00407257
0.00626541
0.0102708
0.00579814
0.00406368
0.00611539
0.0102515
0.00567436
0.00405705
0.00594518
0.0102108
0.00553512
0.00405252
0.00575616
0.010153
0.00538107
0.00405014
0.0055511
0.0100784
0.00521244
0.00404955
0.00533485
0.00998211
0.00502899
0.00404947
0.00511516
0.00985861
0.00483007
0.00404724
0.00490353
0.00970988
0.00461461
0.00403878
0.00471585
0.00954862
0.0043809
0.00401984
0.00457202
0.00938016
0.00412715
0.00398665
0.00449195
0.00920602
0.00384983
0.00393626
0.00448998
0.00902737
0.00354354
0.00386674
0.00457048
0.00884555
0.00320587
0.00377803
0.00471576
0.00866222
0.00283448
0.00367097
0.00490587
0.00847961
0.00243764
0.0119629
0.0120892
0.00914578
0.0118726
0.0120158
0.0121262
0.00926868
0.0119738
0.0120652
0.0121072
0.00938236
0.0120511
0.00740952
0.0120276
0.00948503
0.0120892
0.00627211
0.0118927
0.00957492
0.0120726
0.0103175
0.0116874
0.00964933
0.0120048
0.0124377
0.0070702
0.00970574
0.0119065
0.0124757
0.00533726
0.00974213
0.0117776
0.0124774
0.00807683
0.00977105
0.011619
0.0124477
0.0105472
0.00980324
0.0114342
0.0123898
0.010332
0.00983601
0.0112251
0.0123076
0.0100987
0.00986671
0.0109958
0.012214
0.00985358
0.00989348
0.0107497
0.0121224
0.00959278
0.00991421
0.0104905
0.0120293
0.00931573
0.00992414
0.0102215
0.0119313
0.00902636
0.0099113
0.00994521
0.0118247
0.0087279
0.00988434
0.00966357
0.0117065
0.0084267
0.00984099
0.00937799
0.011574
0.00812852
0.00977973
0.00908958
0.0114251
0.00783807
0.00969973
0.00879924
0.0112588
0.00755893
0.00960077
0.00850776
0.0110747
0.00729364
0.00948308
0.00821588
0.0108685
0.00704403
0.00934725
0.00792441
0.010642
0.00680503
0.00919409
0.00763432
0.0103968
0.00657407
0.00902455
0.00734689
0.0101352
0.00635142
0.00883982
0.00706371
0.00985936
0.00613754
0.00864125
0.00678675
0.0095716
0.00593794
0.00843042
0.00651592
0.00927407
0.00576228
0.00820891
0.00625185
0.00896872
0.00561201
0.00797815
0.00599688
0.00865753
0.00548237
0.00773954
0.00575433
0.00834244
0.00537031
0.00749513
0.00525158
0.00802542
0.00527623
0.007247
0.00339717
0.00770832
0.00377212
0.00699702
0.00239788
0.00739304
0.00262297
0.00674787
0.00242556
0.00682041
0.00247248
0.00650078
0.00365516
0.00577333
0.00342998
0.00625595
0.00439293
0.00487698
0.00487795
0.00601319
0.00423047
0.00465758
0.00482077
0.00577248
0.00405399
0.0050678
0.00474341
0.0055346
0.00385937
0.00549387
0.00463937
0.00530033
0.00365392
0.00522383
0.00451357
0.0050702
0.00344367
0.00495526
0.00437037
0.00484454
0.00323312
0.00454115
0.00421376
0.0045571
0.00302537
0.00405051
0.00404701
0.00400395
0.0028226
0.00358678
0.00387281
0.00349074
0.00262632
0.00327664
0.00369342
0.00325877
0.00243762
0.00312584
0.00338879
0.00329965
0.00218735
0.00303115
0.00297431
0.00339696
0.00190848
0.00289972
0.00261256
0.00334262
0.00165156
0.00270449
0.00241716
0.0031197
0.00146312
0.00247359
0.0023574
0.00283052
0.0013374
0.00224094
0.00231461
0.00255863
0.00123913
0.00201019
0.00220631
0.00233527
0.00114439
0.00180483
0.00202915
0.00215118
0.00104565
0.00161998
0.00182957
0.00198006
0.000944572
0.0014484
0.00164808
0.00181158
0.000844935
0.00128632
0.00148875
0.00164537
0.000749065
0.00113258
0.00134273
0.00148271
0.000657703
0.000987084
0.0012026
0.00132489
0.000570839
0.000849931
0.00106562
0.00117246
0.000488352
0.00072117
0.00093191
0.00102563
0.000410007
0.000600447
0.000802346
0.000884701
0.000326033
0.000482801
0.000677865
0.000750126
0.000246714
0.000364115
0.00055885
0.000622495
0.000178398
0.000261596
0.000440848
0.000501783
0.000122493
0.000177487
0.000318611
0.000377251
7.93866e-05
0.000112737
0.000214643
0.000260749
4.82896e-05
6.6498e-05
0.000132891
0.000165527
2.74128e-05
3.61491e-05
7.46086e-05
9.48165e-05
1.4422e-05
1.79602e-05
3.75584e-05
4.82344e-05
6.96122e-06
8.05906e-06
1.6776e-05
2.15116e-05
3.03587e-06
3.20264e-06
6.55026e-06
8.29674e-06
1.16907e-06
1.09021e-06
2.17347e-06
2.70097e-06
3.84076e-07
3.00113e-07
5.80553e-07
7.06014e-07
1.01997e-07
6.0255e-08
1.12683e-07
1.34152e-07
1.99629e-08
7.32076e-09
1.30907e-08
1.52697e-08
2.44996e-09
5.56341e-10
8.22425e-10
9.23105e-10
2.30599e-10
2.87147e-10
3.27542e-10
3.52356e-10
1.56523e-10
0.00172123
0.00536049
0.00797976
0.0046945
0.00165149
0.00515183
0.0078477
0.00507687
0.00161073
0.00498821
0.00775302
0.00545318
0.00160903
0.00487692
0.00769646
0.00581008
0.00165893
0.00482596
0.0076851
0.00614186
0.00177268
0.00484217
0.0077214
0.00644393
0.00194874
0.00492526
0.00780679
0.0067141
0.00217137
0.00507367
0.00792963
0.00695247
0.00242327
0.005277
0.00807858
0.00715938
0.00268982
0.00551845
0.00824408
0.00733539
0.00295971
0.00578348
0.00758389
0.00748131
0.00322435
0.00605159
0.00602029
0.00759805
0.0034778
0.0063014
0.00554025
0.00768735
0.00371637
0.0065316
0.00629104
0.00775184
0.00393689
0.00674064
0.00805274
0.00779436
0.00413627
0.00692718
0.00952062
0.00781824
0.00431216
0.00708925
0.00968124
0.00782694
0.00446499
0.00722473
0.00981228
0.0078235
0.0045957
0.00733265
0.00991826
0.0078115
0.00470221
0.00741365
0.0099985
0.0077966
0.00478516
0.0074699
0.010053
0.00778247
0.00484569
0.00749997
0.0100824
0.00776473
0.00488507
0.00750305
0.0100883
0.00773798
0.00490496
0.00670512
0.0100702
0.00769851
0.00490689
0.00563419
0.00993369
0.00764364
0.00489234
0.00538969
0.00968462
0.00757158
0.00486275
0.00614749
0.00943852
0.00748124
0.0048192
0.00728679
0.00922924
0.0073722
0.00476251
0.00721123
0.00905425
0.00724652
0.00469369
0.00712393
0.00889383
0.00710661
0.00461399
0.00702681
0.0087315
0.00695507
0.0045247
0.00692286
0.00855942
0.00678783
0.00442713
0.00681181
0.00837565
0.00660679
0.0043226
0.00669318
0.00818037
0.00641459
0.00421245
0.00656724
0.0079739
0.00621409
0.00409798
0.00643426
0.00775625
0.00600758
0.00398044
0.00628712
0.00752736
0.00579602
0.00386094
0.00612763
0.00728742
0.00557985
0.00374044
0.00595675
0.00703692
0.00535943
0.00361976
0.00577527
0.00677661
0.00513517
0.00349934
0.005584
0.00650743
0.0049076
0.00337913
0.00538369
0.00623034
0.00467739
0.00325667
0.00517498
0.00594571
0.00444512
0.00312579
0.00495865
0.00565333
0.00421126
0.00298763
0.00473562
0.00535407
0.00397637
0.00284346
0.00450697
0.00504997
0.00374116
0.00269455
0.00427386
0.00473913
0.00350648
0.00254205
0.00403757
0.00442018
0.00327326
0.00238701
0.00379938
0.00410069
0.00304254
0.00223039
0.0035606
0.00378916
0.00281533
0.00207309
0.00332247
0.00348889
0.00259262
0.00191597
0.00308185
0.00320005
0.00237529
0.00174475
0.00281584
0.00292138
0.00216406
0.0015709
0.0025435
0.00265008
0.00193901
0.00140453
0.00228112
0.0023892
0.00171775
0.00124824
0.00203815
0.00214036
0.00150571
0.00110185
0.00181356
0.00190415
0.00131108
0.00096524
0.00160421
0.00168093
0.00113573
0.000838187
0.0014083
0.00147096
0.000976992
0.000720478
0.00122515
0.00127445
0.00083278
0.000611936
0.00105453
0.00109159
0.000701699
0.000512368
0.000896326
0.000922474
0.000582478
0.000421204
0.00075037
0.000766569
0.000472426
0.000332366
0.000616083
0.000620583
0.000364015
0.000249085
0.000490227
0.000476336
0.000269737
0.000177912
0.000365139
0.000349984
0.00019075
0.000120049
0.000257737
0.000243795
0.000127663
7.58341e-05
0.000170374
0.000159278
8.01709e-05
4.44549e-05
0.000104139
9.64946e-05
4.68498e-05
2.39858e-05
5.81269e-05
5.36028e-05
2.52715e-05
1.1809e-05
2.92807e-05
2.70019e-05
1.24716e-05
5.24368e-06
1.31486e-05
1.21793e-05
5.56253e-06
2.0608e-06
5.17341e-06
4.82921e-06
2.19879e-06
6.94107e-07
1.7316e-06
1.63201e-06
7.45454e-07
1.89549e-07
4.67534e-07
4.45194e-07
2.04985e-07
3.81624e-08
9.24843e-08
8.89594e-08
4.15439e-08
5.04212e-09
1.14902e-08
1.11726e-08
5.48877e-09
8.48769e-10
1.29925e-09
1.29348e-09
8.80336e-10
6.97777e-10
8.98385e-10
8.99231e-10
7.09188e-10
0.0132176
0.0103338
0.00509578
0.0046124
0.0132001
0.0104202
0.00523186
0.00414009
0.0131508
0.010483
0.00533758
0.00668264
0.0130898
0.0105204
0.00541726
0.0112652
0.0130144
0.0105329
0.0054761
0.0113034
0.0129214
0.0105204
0.00551849
0.0112977
0.0128097
0.0104879
0.00553376
0.011245
0.0126797
0.0104331
0.00553486
0.0111471
0.0125332
0.0103541
0.00553039
0.0110091
0.0123722
0.0102518
0.0055246
0.010837
0.0121997
0.0101281
0.00552243
0.0106381
0.0120199
0.00998075
0.00552958
0.0104185
0.0118363
0.00981302
0.00552619
0.0101832
0.0116553
0.00962692
0.00238934
0.00993694
0.0114856
0.00942476
0.00217797
0.00969018
0.00940998
0.00920893
0.00347396
0.0094663
0.00493929
0.00898178
0.00624609
0.00927801
0.00416964
0.00874622
0.00634813
0.00868371
0.00547206
0.0085043
0.0064342
0.00463701
0.00843581
0.00825387
0.00650448
0.00357584
0.0114954
0.00799007
0.00655858
0.00423397
0.0116358
0.00773566
0.00659808
0.00629956
0.0115903
0.00751196
0.00662446
0.00862678
0.0114947
0.00731701
0.00663939
0.00876901
0.0113529
0.00714714
0.00664772
0.00870536
0.0111708
0.00700029
0.00665108
0.00861404
0.0109547
0.00687597
0.00664936
0.00849518
0.0107109
0.00677699
0.00664085
0.00835078
0.010448
0.00606138
0.00662414
0.00818343
0.0101698
0.00358081
0.00659809
0.00799588
0.0098798
0.00313974
0.00656316
0.00779078
0.00958046
0.00398195
0.00651915
0.00757721
0.00927398
0.00548994
0.00646523
0.00735713
0.00896212
0.00655892
0.00640013
0.00713175
0.0086465
0.00648023
0.00630875
0.00690193
0.00832907
0.00637776
0.00620534
0.00666827
0.00800757
0.00625955
0.00609406
0.00643073
0.00720172
0.00612463
0.00597464
0.0061916
0.00570807
0.00528286
0.00584674
0.00594372
0.00482312
0.00441917
0.00571
0.00491187
0.00476423
0.0042598
0.005564
0.00396319
0.00525069
0.00465133
0.00540904
0.00371849
0.00572018
0.00506194
0.00524748
0.00403582
0.00581866
0.00514889
0.00508275
0.00444351
0.00556292
0.00496876
0.00491465
0.00451518
0.00529123
0.00477885
0.00473554
0.00429827
0.00501732
0.00457999
0.00453554
0.00407549
0.00473991
0.00437313
0.00430961
0.00384745
0.00445995
0.00415935
0.0040634
0.00361512
0.00417828
0.00393965
0.00381341
0.0033795
0.00389574
0.00371493
0.00357387
0.00314169
0.00361332
0.00348607
0.00334685
0.00290282
0.00333205
0.00325413
0.00312619
0.00266326
0.00305298
0.00301932
0.00290595
0.00242272
0.00277717
0.00278168
0.00268424
0.00218288
0.00250579
0.00254237
0.0024616
0.00194574
0.0022401
0.00229646
0.00223684
0.0017135
0.00198141
0.00205183
0.00201597
0.00148844
0.00173118
0.00181275
0.00180136
0.00127281
0.00149096
0.00158292
0.00159395
0.00106861
0.00126244
0.0013653
0.00139438
0.000877897
0.00104747
0.00116153
0.00120348
0.000702936
0.000847806
0.000972697
0.00102223
0.000546034
0.00066549
0.000788389
0.000851897
0.000409261
0.000503198
0.000616955
0.00069364
0.000294177
0.000363607
0.00046289
0.000533343
0.000201462
0.00024879
0.000329473
0.000386651
0.000130573
0.000159587
0.000219858
0.000261969
7.95761e-05
9.4997e-05
0.000135807
0.000163149
4.53212e-05
5.19684e-05
7.67229e-05
9.16783e-05
2.39667e-05
2.58769e-05
3.92503e-05
4.56128e-05
1.1671e-05
1.15941e-05
1.80338e-05
1.97261e-05
5.16788e-06
4.59161e-06
7.3547e-06
7.27002e-06
2.03817e-06
1.55785e-06
2.59521e-06
2.22259e-06
6.9188e-07
4.28199e-07
7.48468e-07
5.39003e-07
1.90858e-07
8.62359e-08
1.57254e-07
9.54959e-08
3.87681e-08
1.08036e-08
1.97642e-08
1.06969e-08
5.03576e-09
1.13609e-09
1.74946e-09
1.06944e-09
6.84345e-10
7.22164e-10
8.61985e-10
8.6647e-10
5.08645e-10
0.00354872
0.00511979
0.00829759
0.00204746
0.00341562
0.00534101
0.00812149
0.00172459
0.00327558
0.00555835
0.00795765
0.0015214
0.00313026
0.00576468
0.00780809
0.00145101
0.00297737
0.0059564
0.00767459
0.0014962
0.0028124
0.00613229
0.00755884
0.00162185
0.002632
0.00629492
0.00746511
0.00178618
0.00243942
0.0064517
0.00739646
0.00196686
0.00224111
0.00660822
0.00734046
0.0021509
0.00204543
0.00676253
0.00728451
0.00233138
0.0018625
0.00691142
0.0072321
0.00250476
0.00170434
0.00705148
0.00718852
0.00266983
0.00157958
0.00717935
0.00715937
0.0027822
0.00149448
0.0072917
0.00715052
0.00293313
0.00146268
0.00738563
0.007168
0.00312471
0.00149484
0.00745894
0.00721318
0.00326913
0.00159631
0.00750861
0.00728013
0.00341483
0.00176636
0.00753481
0.0073606
0.00356385
0.00198836
0.00753705
0.00744704
0.0037175
0.00223372
0.00751723
0.00753303
0.00387646
0.00248012
0.00747626
0.00761377
0.00402312
0.00271484
0.00741516
0.00768561
0.00409878
0.00293314
0.00733526
0.0077459
0.00421428
0.00313104
0.00723989
0.00779279
0.00434001
0.00330677
0.00713367
0.00782504
0.00444899
0.00345974
0.00701935
0.0078419
0.00453487
0.00358993
0.00689862
0.00784294
0.00460141
0.00369727
0.00677319
0.00782818
0.00465089
0.00371575
0.00664574
0.0077978
0.00468339
0.00369021
0.00652207
0.00775223
0.00471053
0.00365799
0.00640464
0.00769194
0.00473671
0.00363198
0.00629336
0.00761642
0.00465666
0.00360808
0.00604538
0.00752555
0.00435951
0.00357942
0.00545
0.00741944
0.00398896
0.0035426
0.00487406
0.00716495
0.00377296
0.00349897
0.00455022
0.00686012
0.00379403
0.00345435
0.00451404
0.0065698
0.00400488
0.0034157
0.00467935
0.00630723
0.00425307
0.00338189
0.00490646
0.00606717
0.00437724
0.00333811
0.00505442
0.00584184
0.00436514
0.00326794
0.00504551
0.00562526
0.00426166
0.00317068
0.00489938
0.00541306
0.00408139
0.00305893
0.00468866
0.00520263
0.00386456
0.00294437
0.00447015
0.00499298
0.00365784
0.00283208
0.00426412
0.00478486
0.00347854
0.00272303
0.00406944
0.00458079
0.00332024
0.00261646
0.00387963
0.00438279
0.00316979
0.00251033
0.00369008
0.0041893
0.00301907
0.00240218
0.00349978
0.00399559
0.00286605
0.00228997
0.00331069
0.0037974
0.00271194
0.00217178
0.00312527
0.00359337
0.00255822
0.00204069
0.00294368
0.00338441
0.00240403
0.00189158
0.00276379
0.00317231
0.00224192
0.00174653
0.00258287
0.00295866
0.00207778
0.00160769
0.00239785
0.00274417
0.00191656
0.00147338
0.00220307
0.00252722
0.00175826
0.0013419
0.00200959
0.0023084
0.00160209
0.00121239
0.00181971
0.00209224
0.00144764
0.00108472
0.0016338
0.00187991
0.00129508
0.00095925
0.00145197
0.00167217
0.00114508
0.000836688
0.0012747
0.00147002
0.000998601
0.000716346
0.00110297
0.00127471
0.000852623
0.000580847
0.000938044
0.00108767
0.000690853
0.0004535
0.000775009
0.000909827
0.000539819
0.000338742
0.000605087
0.000735192
0.000403722
0.000240053
0.000450916
0.000557294
0.000286612
0.000159995
0.000317323
0.000400062
0.000191483
9.94629e-05
0.00020839
0.000268587
0.000119407
5.72547e-05
0.000126169
0.000166354
6.90118e-05
3.0323e-05
6.96484e-05
9.3819e-05
3.67406e-05
1.46709e-05
3.47164e-05
4.7632e-05
1.78962e-05
6.41401e-06
1.54631e-05
2.15343e-05
7.89122e-06
2.48596e-06
6.05621e-06
8.53727e-06
3.09061e-06
8.26057e-07
2.02394e-06
2.88432e-06
1.03964e-06
2.21981e-07
5.45913e-07
7.86446e-07
2.83277e-07
4.34115e-08
1.07185e-07
1.56212e-07
5.62528e-08
5.04242e-09
1.2598e-08
1.86258e-08
6.64446e-09
2.59787e-10
7.75833e-10
1.20648e-09
3.50517e-10
5.49103e-11
2.86927e-10
4.83806e-10
7.67101e-11
)
;

boundaryField
{
    leftWall
    {
        type            compressible::alphatWallFunction;
        Prt             0.85;
        value           uniform 0;
    }
    rightWall
    {
        type            compressible::alphatWallFunction;
        Prt             0.85;
        value           uniform 0;
    }
    leftSides_periodic0
    {
        type            cyclic;
    }
    leftSides_periodic1
    {
        type            cyclic;
    }
    rightSides_periodic0
    {
        type            cyclic;
    }
    rightSides_periodic1
    {
        type            cyclic;
    }
    leftInOut_periodic0
    {
        type            cyclic;
    }
    leftInOut_periodic1
    {
        type            cyclic;
    }
    rightInOut_periodic0
    {
        type            cyclic;
    }
    rightInOut_periodic1
    {
        type            cyclic;
    }
}


// ************************************************************************* //
