0 	0 	0 	0
5.01672e-05 	-0.00115441 	1.47868e-06 	0.0181877
0.000100334 	-0.00117156 	4.1141e-06 	0.0329275
0.000150502 	-0.000806223 	7.3739e-06 	0.0461957
0.000200669 	-0.000538538 	1.11258e-05 	0.0587324
0.000250836 	-0.000371615 	1.52992e-05 	0.0704669
0.000301003 	-0.000234806 	1.98794e-05 	0.0813324
0.000351171 	-0.000104207 	2.48227e-05 	0.0913643
0.000401338 	2.69253e-05 	3.0048e-05 	0.100613
0.000451505 	0.000158847 	3.54513e-05 	0.109123
0.000501672 	0.000288757 	4.08874e-05 	0.116939
0.000551839 	0.00041223 	4.63468e-05 	0.124109
0.000602007 	0.000526024 	5.19291e-05 	0.130691
0.000652174 	0.000630203 	5.75999e-05 	0.13675
0.000702341 	0.000727297 	6.31388e-05 	0.14235
0.000752508 	0.000820054 	6.83201e-05 	0.147548
0.000802676 	0.000909974 	7.31108e-05 	0.152383
0.000852843 	0.000995419 	7.76682e-05 	0.156836
0.00090301 	0.0010752 	8.20396e-05 	0.160992
0.000953177 	0.0011491 	8.61385e-05 	0.16488
0.00100334 	0.00121758 	8.99248e-05 	0.168527
0.00105351 	0.00128142 	9.34051e-05 	0.171958
0.00110368 	0.0013414 	9.66203e-05 	0.17519
0.00115385 	0.00139791 	9.9651e-05 	0.178196
0.00120401 	0.00145242 	0.000102476 	0.181052
0.00125418 	0.00150492 	0.000104865 	0.183772
0.00130435 	0.00155533 	0.000106686 	0.186368
0.00135452 	0.00160236 	0.000107826 	0.188821
0.00140468 	0.00164582 	0.000109178 	0.191163
0.00145485 	0.00168612 	0.000110713 	0.193423
0.00150502 	0.00172329 	0.000112393 	0.195606
0.00155518 	0.00175579 	0.000113164 	0.197685
0.00160535 	0.00178605 	0.000113453 	0.199705
0.00165552 	0.00181441 	0.000113718 	0.201674
0.00170569 	0.00184054 	0.000115241 	0.203577
0.00175585 	0.0018645 	0.000117805 	0.205427
0.00180602 	0.00188666 	0.000120382 	0.207238
0.00185619 	0.00190565 	0.000121653 	0.208987
0.00190635 	0.00192115 	0.000121123 	0.210667
0.00195652 	0.00193439 	0.000119827 	0.212305
0.00200669 	0.00194352 	0.000118271 	0.213869
0.00205686 	0.00194973 	0.000118067 	0.215387
0.00210702 	0.00195398 	0.000118763 	0.216876
0.00215719 	0.00195287 	0.000121894 	0.218299
0.00220736 	0.00194889 	0.000121734 	0.219696
0.00225753 	0.00194031 	0.000116305 	0.22105
0.00230769 	0.00192603 	0.00011009 	0.222363
0.00235786 	0.00191042 	0.000104481 	0.223663
0.00240803 	0.0019117 	0.000117875 	0.224991
0.00245819 	0.00193572 	0.000130573 	0.226386
0.00250836 	0.00200583 	0.000141859 	0.227914
0.00255853 	0.0021224 	0.000138861 	0.229618
0.0026087 	0.00227194 	0.000125722 	0.231446
0.00265886 	0.00243402 	9.80259e-05 	0.233314
0.00270903 	0.00259908 	6.6872e-05 	0.235192
0.0027592 	0.00266306 	6.44019e-05 	0.236618
0.00280936 	0.002707 	6.80642e-05 	0.237964
0.00285953 	0.00264474 	0.000104232 	0.238884
0.0029097 	0.00257418 	0.00013545 	0.239768
0.00295987 	0.00248273 	0.000154203 	0.240562
0.00301003 	0.00240488 	0.000162314 	0.24138
0.0030602 	0.00234954 	0.000152808 	0.242238
0.00311037 	0.00230546 	0.000140731 	0.243107
0.00316054 	0.00227602 	0.000125311 	0.243992
0.0032107 	0.00224027 	0.000114763 	0.244863
0.00326087 	0.00219704 	0.00010998 	0.245718
0.00331104 	0.00214856 	0.000109459 	0.246602
0.0033612 	0.00209354 	0.000114234 	0.247522
0.00341137 	0.00205627 	0.000116686 	0.248574
0.00346154 	0.00204587 	0.000115615 	0.249826
0.00351171 	0.00206572 	0.000113274 	0.251269
0.00356187 	0.00215211 	0.000108139 	0.253129
0.00361204 	0.00225793 	0.000103181 	0.255079
0.00366221 	0.0024465 	9.89814e-05 	0.257411
0.00371237 	0.00263349 	9.55444e-05 	0.259727
0.00376254 	0.00276886 	0.000116972 	0.261497
0.00381271 	0.00290422 	0.000138399 	0.263266
0.00386288 	0.00291016 	0.00016566 	0.264174
0.00391304 	0.00288971 	0.00019411 	0.264906
0.00396321 	0.0028347 	0.000202433 	0.265424
0.00401338 	0.00275587 	0.000196884 	0.265795
0.00406355 	0.00268103 	0.000187015 	0.266192
0.00411371 	0.00261493 	0.000167673 	0.266649
0.00416388 	0.00254882 	0.000148332 	0.267106
0.00421405 	0.00249968 	0.00014562 	0.267665
0.00426421 	0.00245064 	0.000143014 	0.268224
0.00431438 	0.00240149 	0.000154264 	0.268782
0.00436455 	0.00235229 	0.000173567 	0.269341
0.00441472 	0.00230005 	0.000192392 	0.269891
0.00446488 	0.00223762 	0.000209606 	0.270412
0.00451505 	0.00217518 	0.000226821 	0.270934
0.00456522 	0.00209639 	0.000231939 	0.271434
0.00461538 	0.00201303 	0.00023369 	0.271927
0.00466555 	0.00192482 	0.000231513 	0.272414
0.00471572 	0.00182481 	0.000219802 	0.272887
0.00476589 	0.0017248 	0.00020809 	0.273359
0.00481605 	0.00162879 	0.000198744 	0.273813
0.00486622 	0.00153406 	0.000190159 	0.274261
0.00491639 	0.00144408 	0.000185255 	0.274703
0.00496656 	0.0013763 	0.000197591 	0.275116
0.00501672 	0.00130853 	0.000209927 	0.275529
0.00506689 	0.00125351 	0.000226842 	0.27592
0.00511706 	0.00120895 	0.00024752 	0.276295
0.00516722 	0.0011644 	0.000268197 	0.276669
0.00521739 	0.00112124 	0.000277243 	0.277018
0.00526756 	0.00107828 	0.000284627 	0.277362
0.00531773 	0.00103363 	0.000290171 	0.277704
0.00536789 	0.000979619 	0.000285532 	0.278029
0.00541806 	0.000925608 	0.000280892 	0.278353
0.00546823 	0.00086847 	0.000276872 	0.278671
0.00551839 	0.00080628 	0.000273852 	0.278978
0.00556856 	0.00074409 	0.000270832 	0.279285
0.00561873 	0.000680985 	0.000270715 	0.279582
0.0056689 	0.000617167 	0.00027286 	0.279871
0.00571906 	0.000553349 	0.000275006 	0.28016
0.00576923 	0.00048985 	0.00027742 	0.280438
0.0058194 	0.000426494 	0.000279954 	0.28071
0.00586957 	0.000363138 	0.000282488 	0.280982
0.00591973 	0.000299773 	0.000284293 	0.28124
0.0059699 	0.000236405 	0.000285877 	0.281493
0.00602007 	0.000173037 	0.000287461 	0.281747
0.00607023 	0.000109217 	0.000289012 	0.281983
0.0061204 	4.52787e-05 	0.000290554 	0.282215
0.00617057 	-1.86595e-05 	0.000292097 	0.282447
0.00622074 	-8.31508e-05 	0.000293586 	0.282661
0.0062709 	-0.000147812 	0.00029506 	0.28287
0.00632107 	-0.000212473 	0.000296533 	0.283079
0.00637124 	-0.000277408 	0.000297877 	0.283271
0.0064214 	-0.00034247 	0.00029916 	0.283455
0.00647157 	-0.000407532 	0.000300443 	0.283639
0.00652174 	-0.000472338 	0.000301673 	0.283809
0.00657191 	-0.000536932 	0.000302859 	0.283968
0.00662207 	-0.000601525 	0.000304045 	0.284127
0.00667224 	-0.000665518 	0.000305124 	0.284276
0.00672241 	-0.000728399 	0.000306005 	0.284407
0.00677258 	-0.00079128 	0.000306886 	0.284538
0.00682274 	-0.00085393 	0.000307745 	0.284666
0.00687291 	-0.000914477 	0.000308401 	0.284767
0.00692308 	-0.000975025 	0.000309058 	0.284868
0.00697324 	-0.00103557 	0.000309714 	0.284969
0.00702341 	-0.0010954 	0.000309359 	0.285059
0.00707358 	-0.00115503 	0.000308735 	0.285146
0.00712375 	-0.00121466 	0.000308111 	0.285233
0.00717391 	-0.00127397 	0.000306717 	0.285327
0.00722408 	-0.00133284 	0.000304259 	0.28543
0.00727425 	-0.0013917 	0.000301802 	0.285533
0.00732441 	-0.00145057 	0.000299345 	0.285636
0.00737458 	-0.00150273 	0.000303793 	0.285729
0.00742475 	-0.00155482 	0.000308303 	0.285822
0.00747492 	-0.00160692 	0.000312814 	0.285915
0.00752508 	-0.0016525 	0.000324588 	0.285922
0.00757525 	-0.00169157 	0.000343625 	0.285844
0.00762542 	-0.00173063 	0.000362662 	0.285765
0.00767559 	-0.00176961 	0.000381576 	0.285682
0.00772575 	-0.00179831 	0.000387062 	0.28517
0.00777592 	-0.00182701 	0.000392547 	0.284658
0.00782609 	-0.00185572 	0.000398033 	0.284146
0.00787625 	-0.00188369 	0.000387475 	0.283491
0.00792642 	-0.00191113 	0.000365281 	0.282732
0.00797659 	-0.00193857 	0.000343086 	0.281973
0.00802676 	-0.00196595 	0.000322866 	0.281247
0.00807692 	-0.00199308 	0.000310052 	0.28065
0.00812709 	-0.00202021 	0.000297237 	0.280053
0.00817726 	-0.00204735 	0.000284423 	0.279455
0.00822742 	-0.00207346 	0.000283473 	0.279053
0.00827759 	-0.00209945 	0.00028383 	0.278673
0.00832776 	-0.00212545 	0.000284187 	0.278292
0.00837793 	-0.00215301 	0.000277365 	0.277992
0.00842809 	-0.0021814 	0.000266669 	0.277736
0.00847826 	-0.0022098 	0.000255973 	0.27748
0.00852843 	-0.00223877 	0.000243839 	0.277228
0.0085786 	-0.00226845 	0.000229984 	0.276981
0.00862876 	-0.00229812 	0.000216129 	0.276734
0.00867893 	-0.00232777 	0.000206623 	0.276472
0.0087291 	-0.00235738 	0.000206466 	0.276179
0.00877926 	-0.00238698 	0.000206309 	0.275886
0.00882943 	-0.00241683 	0.000208841 	0.27558
0.0088796 	-0.00244745 	0.000220128 	0.275232
0.00892977 	-0.00247808 	0.000231416 	0.274883
0.00897993 	-0.00250905 	0.000241587 	0.274522
0.0090301 	-0.00254134 	0.000247475 	0.274109
0.00908027 	-0.00257362 	0.000253362 	0.273695
0.00913043 	-0.00260619 	0.000255401 	0.273267
0.0091806 	-0.00263967 	0.000244681 	0.272786
0.00923077 	-0.00267316 	0.000233962 	0.272306
0.00928094 	-0.00270667 	0.000220584 	0.271809
0.0093311 	-0.00274025 	0.000201267 	0.271274
0.00938127 	-0.00277384 	0.000181951 	0.270739
0.00943144 	-0.00280674 	0.000164114 	0.270188
0.00948161 	-0.00283879 	0.000148176 	0.269614
0.00953177 	-0.00287083 	0.000132238 	0.269041
0.00958194 	-0.00290109 	0.000119573 	0.268449
0.00963211 	-0.00293024 	0.000108933 	0.267846
0.00968227 	-0.0029594 	9.8294e-05 	0.267244
0.00973244 	-0.00298563 	8.95021e-05 	0.266619
0.00978261 	-0.00301134 	8.10442e-05 	0.26599
0.00983278 	-0.00303659 	7.2604e-05 	0.265358
0.00988294 	-0.00305863 	6.42879e-05 	0.264703
0.00993311 	-0.00308067 	5.59718e-05 	0.264047
0.00998328 	-0.00310086 	4.73571e-05 	0.26338
0.0100334 	-0.00311881 	3.8379e-05 	0.262697
0.0100836 	-0.00313676 	2.94008e-05 	0.262015
0.0101338 	-0.0031508 	1.99596e-05 	0.261309
0.0101839 	-0.00316401 	1.04195e-05 	0.260599
0.0102341 	-0.00317592 	7.93734e-07 	0.259881
0.0102843 	-0.00318384 	-9.0986e-06 	0.259143
0.0103344 	-0.00319176 	-1.89909e-05 	0.258404
0.0103846 	-0.00319564 	-3.05864e-05 	0.257647
0.0104348 	-0.00319786 	-4.28836e-05 	0.256883
0.0104849 	-0.00319855 	-5.59399e-05 	0.256117
0.0105351 	-0.00319378 	-7.17242e-05 	0.255345
0.0105853 	-0.003189 	-8.75085e-05 	0.254573
0.0106355 	-0.00317763 	-0.000100506 	0.253815
0.0106856 	-0.00316429 	-0.000112677 	0.253062
0.0107358 	-0.00314864 	-0.00011976 	0.252305
0.010786 	-0.003129 	-0.000118091 	0.251541
0.0108361 	-0.00310938 	-0.000116372 	0.250777
0.0108863 	-0.00309321 	-0.000106995 	0.249855
0.0109365 	-0.00307704 	-9.7618e-05 	0.248934
0.0109866 	-0.00306988 	-0.000101579 	0.247808
0.0110368 	-0.00306684 	-0.000111625 	0.246589
0.011087 	-0.00306641 	-0.000129541 	0.245312
0.0111371 	-0.00306976 	-0.000158876 	0.243949
0.0111873 	-0.00307186 	-0.000186587 	0.242604
0.0112375 	-0.00306778 	-0.00020634 	0.241344
0.0112876 	-0.0030637 	-0.000226092 	0.240084
0.0113378 	-0.00304655 	-0.000228986 	0.238947
0.011388 	-0.003029 	-0.000231363 	0.237814
0.0114381 	-0.00299881 	-0.00023063 	0.23672
0.0114883 	-0.00296564 	-0.000229167 	0.235636
0.0115385 	-0.00292055 	-0.000224969 	0.23454
0.0115886 	-0.00287003 	-0.000219527 	0.23344
0.0116388 	-0.00281581 	-0.000206714 	0.232317
0.011689 	-0.00275915 	-0.000189038 	0.231179
0.0117391 	-0.00271587 	-0.000179252 	0.23002
0.0117893 	-0.00268336 	-0.000175811 	0.228844
0.0118395 	-0.00266979 	-0.000196647 	0.227629
0.0118896 	-0.00267222 	-0.000237993 	0.226379
0.0119398 	-0.00266217 	-0.000290146 	0.224991
0.01199 	-0.00264253 	-0.000350608 	0.223496
0.0120401 	-0.0025616 	-0.000372932 	0.221713
0.0120903 	-0.00244364 	-0.000372218 	0.219757
0.0121405 	-0.00228217 	-0.000330473 	0.217634
0.0121906 	-0.00210341 	-0.000272433 	0.215446
0.0122408 	-0.00194108 	-0.000229321 	0.2134
0.012291 	-0.00178186 	-0.000189044 	0.21138
0.0123411 	-0.00167197 	-0.000192589 	0.209562
0.0123913 	-0.00157057 	-0.000199444 	0.20776
0.0124415 	-0.00150489 	-0.000220235 	0.206021
0.0124916 	-0.00144084 	-0.000233125 	0.20427
0.0125418 	-0.00137907 	-0.000234885 	0.202505
0.012592 	-0.00130885 	-0.000231515 	0.200694
0.0126421 	-0.00123446 	-0.000225614 	0.198862
0.0126923 	-0.00115623 	-0.000222866 	0.196963
0.0127425 	-0.00107822 	-0.000219649 	0.19504
0.0127926 	-0.00100126 	-0.000214768 	0.193065
0.0128428 	-0.000925672 	-0.000208707 	0.191045
0.012893 	-0.000850937 	-0.000201908 	0.188997
0.0129431 	-0.000776412 	-0.000194485 	0.186875
0.0129933 	-0.000701117 	-0.000187005 	0.184723
0.0130435 	-0.000624631 	-0.000179447 	0.182524
0.0130936 	-0.000546435 	-0.00017158 	0.180253
0.0131438 	-0.000467931 	-0.000163524 	0.177936
0.013194 	-0.000389574 	-0.000155156 	0.175543
0.0132441 	-0.000313879 	-0.000146636 	0.17305
0.0132943 	-0.000240617 	-0.000137994 	0.170488
0.0133445 	-0.000171528 	-0.000129155 	0.167822
0.0133946 	-0.000107659 	-0.000119853 	0.165035
0.0134448 	-4.70605e-05 	-0.000110453 	0.162161
0.013495 	1.0136e-05 	-0.00010106 	0.159194
0.0135452 	6.44925e-05 	-9.26019e-05 	0.156068
0.0135953 	0.000120265 	-8.4764e-05 	0.152831
0.0136455 	0.000179328 	-7.73968e-05 	0.149472
0.0136957 	0.000246023 	-7.02162e-05 	0.145953
0.0137458 	0.000326347 	-6.25301e-05 	0.142229
0.013796 	0.000417191 	-5.45084e-05 	0.138341
0.0138462 	0.000517515 	-4.63598e-05 	0.134281
0.0138963 	0.000625384 	-3.84081e-05 	0.130041
0.0139465 	0.000737598 	-3.11821e-05 	0.125551
0.0139967 	0.000849961 	-2.45664e-05 	0.120851
0.0140468 	0.00096113 	-1.83809e-05 	0.115927
0.014097 	0.00106968 	-1.24771e-05 	0.110759
0.0141472 	0.00117377 	-6.76737e-06 	0.105327
0.0141973 	0.00127053 	-1.31906e-06 	0.0996124
0.0142475 	0.00135429 	3.50112e-06 	0.093557
0.0142977 	0.00142473 	7.28396e-06 	0.0872024
0.0143478 	0.00148048 	9.68891e-06 	0.0805464
0.014398 	0.00151939 	1.07599e-05 	0.0735943
0.0144482 	0.00153755 	1.08735e-05 	0.0663743
0.0144983 	0.0015283 	1.03757e-05 	0.058946
0.0145485 	0.00148376 	9.41882e-06 	0.0514043
0.0145987 	0.0013987 	8.14965e-06 	0.0438762
0.0146488 	0.00127384 	6.77413e-06 	0.0365095
0.014699 	0.00111813 	5.35057e-06 	0.0294566
0.0147492 	0.000949512 	3.81078e-06 	0.0228642
0.0147993 	0.000793727 	2.21807e-06 	0.016884
0.0148495 	0.000684022 	7.48736e-07 	0.0117177
0.0148997 	0.000606841 	-2.27786e-07 	0.00750248
0.0149498 	0.000422048 	-1.8497e-07 	0.00387176
0.015 	0 	0 	0
