0 	0 	0 	0
5.01672e-05 	-2.9212e-05 	-5.3435e-06 	0.0205529
0.000100334 	-5.84239e-05 	-1.0687e-05 	0.0411058
0.000150502 	-8.76359e-05 	-1.60305e-05 	0.0616587
0.000200669 	-0.000116848 	-2.1374e-05 	0.0822117
0.000250836 	-0.00014606 	-2.67175e-05 	0.102765
0.000301003 	-0.000175272 	-3.2061e-05 	0.123317
0.000351171 	-0.000201502 	-3.81679e-05 	0.141712
0.000401338 	-0.000216459 	-4.71614e-05 	0.151943
0.000451505 	-0.000231415 	-5.6155e-05 	0.162173
0.000501672 	-0.000246372 	-6.51485e-05 	0.172404
0.000551839 	-0.000261328 	-7.4142e-05 	0.182635
0.000602007 	-0.000276285 	-8.31356e-05 	0.192866
0.000652174 	-0.000291241 	-9.21291e-05 	0.203097
0.000702341 	-0.000306198 	-0.000101123 	0.213328
0.000752508 	-0.000317763 	-0.000110304 	0.222159
0.000802676 	-0.000320917 	-0.000119952 	0.22752
0.000852843 	-0.000324072 	-0.0001296 	0.232881
0.00090301 	-0.000327227 	-0.000139247 	0.238242
0.000953177 	-0.000330382 	-0.000148895 	0.243603
0.00100334 	-0.000333537 	-0.000158543 	0.248964
0.00105351 	-0.000336692 	-0.00016819 	0.254325
0.00110368 	-0.000339847 	-0.000177838 	0.259686
0.00115385 	-0.000343002 	-0.000187486 	0.265047
0.00120401 	-0.00034592 	-0.000197074 	0.270302
0.00125418 	-0.00034398 	-0.000205454 	0.273384
0.00130435 	-0.00034204 	-0.000213834 	0.276465
0.00135452 	-0.000340101 	-0.000222214 	0.279546
0.00140468 	-0.000338161 	-0.000230593 	0.282627
0.00145485 	-0.000336221 	-0.000238973 	0.285708
0.00150502 	-0.000334281 	-0.000247353 	0.28879
0.00155518 	-0.000332342 	-0.000255733 	0.291871
0.00160535 	-0.000330402 	-0.000264113 	0.294952
0.00165552 	-0.000328462 	-0.000272492 	0.298033
0.00170569 	-0.000326522 	-0.000280872 	0.301115
0.00175585 	-0.000324313 	-0.000288754 	0.303902
0.00180602 	-0.000321363 	-0.000295268 	0.305881
0.00185619 	-0.000318412 	-0.000301782 	0.30786
0.00190635 	-0.000315462 	-0.000308296 	0.309839
0.00195652 	-0.000312512 	-0.00031481 	0.311818
0.00200669 	-0.000309561 	-0.000321324 	0.313797
0.00205686 	-0.000306611 	-0.000327838 	0.315776
0.00210702 	-0.00030366 	-0.000334352 	0.317755
0.00215719 	-0.00030071 	-0.000340866 	0.319734
0.00220736 	-0.00029776 	-0.00034738 	0.321713
0.00225753 	-0.000294809 	-0.000353894 	0.323692
0.00230769 	-0.000291859 	-0.000360408 	0.325671
0.00235786 	-0.000288909 	-0.000366922 	0.32765
0.00240803 	-0.000286339 	-0.000372097 	0.329183
0.00245819 	-0.000283939 	-0.000376675 	0.330517
0.00250836 	-0.000281539 	-0.000381254 	0.331852
0.00255853 	-0.000279138 	-0.000385832 	0.333186
0.0026087 	-0.000276738 	-0.00039041 	0.33452
0.00265886 	-0.000274338 	-0.000394989 	0.335854
0.00270903 	-0.000271938 	-0.000399567 	0.337188
0.0027592 	-0.000269538 	-0.000404145 	0.338522
0.00280936 	-0.000267138 	-0.000408723 	0.339857
0.00285953 	-0.000264737 	-0.000413302 	0.341191
0.0029097 	-0.000262337 	-0.00041788 	0.342525
0.00295987 	-0.000259937 	-0.000422458 	0.343859
0.00301003 	-0.000257537 	-0.000427036 	0.345193
0.0030602 	-0.000255137 	-0.000431615 	0.346528
0.00311037 	-0.000252755 	-0.00043616 	0.347852
0.00316054 	-0.000251168 	-0.000439306 	0.348742
0.0032107 	-0.000249581 	-0.000442452 	0.349632
0.00326087 	-0.000247994 	-0.000445597 	0.350522
0.00331104 	-0.000246407 	-0.000448743 	0.351412
0.0033612 	-0.000244819 	-0.000451889 	0.352302
0.00341137 	-0.000243232 	-0.000455034 	0.353192
0.00346154 	-0.000241645 	-0.00045818 	0.354082
0.00351171 	-0.000240058 	-0.000461325 	0.354972
0.00356187 	-0.000238471 	-0.000464471 	0.355862
0.00361204 	-0.000236884 	-0.000467617 	0.356752
0.00366221 	-0.000235297 	-0.000470762 	0.357642
0.00371237 	-0.000233709 	-0.000473908 	0.358532
0.00376254 	-0.000232122 	-0.000477054 	0.359422
0.00381271 	-0.000230535 	-0.000480199 	0.360312
0.00386288 	-0.000228948 	-0.000483345 	0.361203
0.00391304 	-0.000227361 	-0.00048649 	0.362093
0.00396321 	-0.000225774 	-0.000489636 	0.362983
0.00401338 	-0.000224673 	-0.000491941 	0.363564
0.00406355 	-0.000223621 	-0.000494164 	0.364116
0.00411371 	-0.000222568 	-0.000496386 	0.364667
0.00416388 	-0.000221516 	-0.000498609 	0.365218
0.00421405 	-0.000220463 	-0.000500832 	0.36577
0.00426421 	-0.000219411 	-0.000503054 	0.366321
0.00431438 	-0.000218358 	-0.000505277 	0.366873
0.00436455 	-0.000217306 	-0.0005075 	0.367424
0.00441472 	-0.000216253 	-0.000509722 	0.367975
0.00446488 	-0.000215201 	-0.000511945 	0.368527
0.00451505 	-0.000214148 	-0.000514168 	0.369078
0.00456522 	-0.000213096 	-0.00051639 	0.369629
0.00461538 	-0.000212043 	-0.000518613 	0.370181
0.00466555 	-0.000210991 	-0.000520836 	0.370732
0.00471572 	-0.000209938 	-0.000523058 	0.371284
0.00476589 	-0.000208886 	-0.000525281 	0.371835
0.00481605 	-0.000207833 	-0.000527503 	0.372386
0.00486622 	-0.000206781 	-0.000529726 	0.372938
0.00491639 	-0.000205728 	-0.000531949 	0.373489
0.00496656 	-0.000204676 	-0.000534171 	0.37404
0.00501672 	-0.000203848 	-0.000535656 	0.374336
0.00506689 	-0.000203032 	-0.0005371 	0.374618
0.00511706 	-0.000202216 	-0.000538545 	0.3749
0.00516722 	-0.0002014 	-0.00053999 	0.375182
0.00521739 	-0.000200584 	-0.000541434 	0.375463
0.00526756 	-0.000199768 	-0.000542879 	0.375745
0.00531773 	-0.000198952 	-0.000544324 	0.376027
0.00536789 	-0.000198136 	-0.000545768 	0.376309
0.00541806 	-0.00019732 	-0.000547213 	0.376591
0.00546823 	-0.000196504 	-0.000548658 	0.376873
0.00551839 	-0.000195688 	-0.000550103 	0.377154
0.00556856 	-0.000194872 	-0.000551547 	0.377436
0.00561873 	-0.000194056 	-0.000552992 	0.377718
0.0056689 	-0.00019324 	-0.000554437 	0.378
0.00571906 	-0.000192424 	-0.000555881 	0.378282
0.00576923 	-0.000191608 	-0.000557326 	0.378564
0.0058194 	-0.000190792 	-0.000558771 	0.378846
0.00586957 	-0.000189977 	-0.000560215 	0.379127
0.00591973 	-0.000189161 	-0.00056166 	0.379409
0.0059699 	-0.000188345 	-0.000563105 	0.379691
0.00602007 	-0.000187529 	-0.000564549 	0.379973
0.00607023 	-0.000186713 	-0.000565994 	0.380255
0.0061204 	-0.000185897 	-0.000567439 	0.380537
0.00617057 	-0.000185179 	-0.000568336 	0.380671
0.00622074 	-0.00018451 	-0.000568956 	0.38073
0.0062709 	-0.000183842 	-0.000569576 	0.380789
0.00632107 	-0.000183173 	-0.000570196 	0.380848
0.00637124 	-0.000182505 	-0.000570815 	0.380907
0.0064214 	-0.000181837 	-0.000571435 	0.380966
0.00647157 	-0.000181168 	-0.000572055 	0.381025
0.00652174 	-0.0001805 	-0.000572675 	0.381084
0.00657191 	-0.000179831 	-0.000573295 	0.381143
0.00662207 	-0.000179163 	-0.000573915 	0.381201
0.00667224 	-0.000178494 	-0.000574534 	0.38126
0.00672241 	-0.000177826 	-0.000575154 	0.381319
0.00677258 	-0.000177157 	-0.000575774 	0.381378
0.00682274 	-0.000176489 	-0.000576394 	0.381437
0.00687291 	-0.000175821 	-0.000577014 	0.381496
0.00692308 	-0.000175152 	-0.000577633 	0.381555
0.00697324 	-0.000174484 	-0.000578253 	0.381614
0.00702341 	-0.000173815 	-0.000578873 	0.381673
0.00707358 	-0.000173147 	-0.000579493 	0.381732
0.00712375 	-0.000172478 	-0.000580113 	0.381791
0.00717391 	-0.00017181 	-0.000580733 	0.38185
0.00722408 	-0.000171141 	-0.000581352 	0.381909
0.00727425 	-0.000170473 	-0.000581972 	0.381968
0.00732441 	-0.000169804 	-0.000582592 	0.382027
0.00737458 	-0.000169136 	-0.000583212 	0.382086
0.00742475 	-0.000168468 	-0.000583832 	0.382145
0.00747492 	-0.000167799 	-0.000584451 	0.382204
0.00752508 	-0.000167189 	-0.000584651 	0.382163
0.00757525 	-0.000166638 	-0.00058443 	0.382021
0.00762542 	-0.000166087 	-0.000584209 	0.381879
0.00767559 	-0.000165536 	-0.000583988 	0.381737
0.00772575 	-0.000164985 	-0.000583767 	0.381595
0.00777592 	-0.000164433 	-0.000583546 	0.381453
0.00782609 	-0.000163882 	-0.000583326 	0.381311
0.00787625 	-0.000163331 	-0.000583105 	0.381169
0.00792642 	-0.00016278 	-0.000582884 	0.381027
0.00797659 	-0.000162229 	-0.000582663 	0.380885
0.00802676 	-0.000161678 	-0.000582442 	0.380743
0.00807692 	-0.000161126 	-0.000582221 	0.380601
0.00812709 	-0.000160575 	-0.000582 	0.38046
0.00817726 	-0.000160024 	-0.000581779 	0.380318
0.00822742 	-0.000159473 	-0.000581558 	0.380176
0.00827759 	-0.000158922 	-0.000581338 	0.380034
0.00832776 	-0.000158371 	-0.000581117 	0.379892
0.00837793 	-0.000157819 	-0.000580896 	0.37975
0.00842809 	-0.000157268 	-0.000580675 	0.379608
0.00847826 	-0.000156717 	-0.000580454 	0.379466
0.00852843 	-0.000156166 	-0.000580233 	0.379324
0.0085786 	-0.000155615 	-0.000580012 	0.379182
0.00862876 	-0.000155064 	-0.000579791 	0.37904
0.00867893 	-0.000154512 	-0.00057957 	0.378898
0.0087291 	-0.000153961 	-0.000579349 	0.378756
0.00877926 	-0.00015341 	-0.000579129 	0.378614
0.00882943 	-0.000152859 	-0.000578908 	0.378472
0.0088796 	-0.000152368 	-0.000578335 	0.378248
0.00892977 	-0.000151995 	-0.000577069 	0.37786
0.00897993 	-0.000151622 	-0.000575803 	0.377473
0.0090301 	-0.000151249 	-0.000574537 	0.377086
0.00908027 	-0.000150876 	-0.000573271 	0.376698
0.00913043 	-0.000150503 	-0.000572005 	0.376311
0.0091806 	-0.000150131 	-0.000570739 	0.375923
0.00923077 	-0.000149758 	-0.000569473 	0.375536
0.00928094 	-0.000149385 	-0.000568207 	0.375148
0.0093311 	-0.000149012 	-0.000566941 	0.374761
0.00938127 	-0.000148639 	-0.000565675 	0.374373
0.00943144 	-0.000148266 	-0.000564408 	0.373986
0.00948161 	-0.000147893 	-0.000563142 	0.373598
0.00953177 	-0.000147521 	-0.000561876 	0.373211
0.00958194 	-0.000147148 	-0.00056061 	0.372823
0.00963211 	-0.000146775 	-0.000559344 	0.372436
0.00968227 	-0.000146402 	-0.000558078 	0.372048
0.00973244 	-0.000146029 	-0.000556812 	0.371661
0.00978261 	-0.000145656 	-0.000555546 	0.371274
0.00983278 	-0.000145283 	-0.00055428 	0.370886
0.00988294 	-0.000144911 	-0.000553014 	0.370499
0.00993311 	-0.000144538 	-0.000551748 	0.370111
0.00998328 	-0.000144165 	-0.000550482 	0.369724
0.0100334 	-0.000143814 	-0.000549158 	0.369321
0.0100836 	-0.000143862 	-0.000546744 	0.368643
0.0101338 	-0.000143911 	-0.00054433 	0.367965
0.0101839 	-0.00014396 	-0.000541916 	0.367287
0.0102341 	-0.000144009 	-0.000539502 	0.366609
0.0102843 	-0.000144057 	-0.000537088 	0.365931
0.0103344 	-0.000144106 	-0.000534675 	0.365253
0.0103846 	-0.000144155 	-0.000532261 	0.364575
0.0104348 	-0.000144204 	-0.000529847 	0.363897
0.0104849 	-0.000144253 	-0.000527433 	0.363219
0.0105351 	-0.000144301 	-0.000525019 	0.362541
0.0105853 	-0.00014435 	-0.000522606 	0.361863
0.0106355 	-0.000144399 	-0.000520192 	0.361185
0.0106856 	-0.000144448 	-0.000517778 	0.360507
0.0107358 	-0.000144497 	-0.000515364 	0.359829
0.010786 	-0.000144545 	-0.00051295 	0.359151
0.0108361 	-0.000144594 	-0.000510537 	0.358473
0.0108863 	-0.000144643 	-0.000508123 	0.357795
0.0109365 	-0.000144692 	-0.000505709 	0.357117
0.0109866 	-0.00014474 	-0.000503295 	0.356439
0.0110368 	-0.000144861 	-0.00050074 	0.355727
0.011087 	-0.000145707 	-0.000496744 	0.354672
0.0111371 	-0.000146554 	-0.000492748 	0.353618
0.0111873 	-0.000147401 	-0.000488752 	0.352563
0.0112375 	-0.000148248 	-0.000484756 	0.351509
0.0112876 	-0.000149095 	-0.00048076 	0.350455
0.0113378 	-0.000149941 	-0.000476764 	0.3494
0.011388 	-0.000150788 	-0.000472769 	0.348346
0.0114381 	-0.000151635 	-0.000468773 	0.347291
0.0114883 	-0.000152482 	-0.000464777 	0.346237
0.0115385 	-0.000153329 	-0.000460781 	0.345182
0.0115886 	-0.000154176 	-0.000456785 	0.344128
0.0116388 	-0.000155022 	-0.000452789 	0.343073
0.011689 	-0.000155869 	-0.000448793 	0.342019
0.0117391 	-0.000156716 	-0.000444797 	0.340965
0.0117893 	-0.000157563 	-0.000440801 	0.33991
0.0118395 	-0.00015841 	-0.000436805 	0.338856
0.0118896 	-0.000159257 	-0.000432809 	0.337801
0.0119398 	-0.000161255 	-0.000426381 	0.336195
0.01199 	-0.00016328 	-0.000419897 	0.334576
0.0120401 	-0.000165305 	-0.000413412 	0.332957
0.0120903 	-0.00016733 	-0.000406928 	0.331338
0.0121405 	-0.000169355 	-0.000400443 	0.329719
0.0121906 	-0.00017138 	-0.000393959 	0.328099
0.0122408 	-0.000173405 	-0.000387474 	0.32648
0.012291 	-0.000175431 	-0.00038099 	0.324861
0.0123411 	-0.000177456 	-0.000374506 	0.323242
0.0123913 	-0.000179481 	-0.000368021 	0.321623
0.0124415 	-0.000181506 	-0.000361537 	0.320004
0.0124916 	-0.000183531 	-0.000355052 	0.318385
0.0125418 	-0.000185556 	-0.000348568 	0.316766
0.012592 	-0.000187581 	-0.000342083 	0.315147
0.0126421 	-0.000189933 	-0.000334667 	0.313235
0.0126923 	-0.000193021 	-0.000325161 	0.310666
0.0127425 	-0.000196108 	-0.000315655 	0.308097
0.0127926 	-0.000199195 	-0.000306149 	0.305527
0.0128428 	-0.000202282 	-0.000296643 	0.302958
0.012893 	-0.00020537 	-0.000287137 	0.300389
0.0129431 	-0.000208457 	-0.000277631 	0.29782
0.0129933 	-0.000211544 	-0.000268124 	0.295251
0.0130435 	-0.000214631 	-0.000258618 	0.292681
0.0130936 	-0.000217718 	-0.000249112 	0.290112
0.0131438 	-0.000220806 	-0.000239606 	0.287543
0.013194 	-0.000223893 	-0.0002301 	0.284974
0.0132441 	-0.00022698 	-0.000220594 	0.282405
0.0132943 	-0.000229573 	-0.000209685 	0.278588
0.0133445 	-0.000231987 	-0.000198267 	0.274318
0.0133946 	-0.0002344 	-0.000186849 	0.270048
0.0134448 	-0.000236813 	-0.000175431 	0.265779
0.013495 	-0.000239227 	-0.000164013 	0.261509
0.0135452 	-0.00024164 	-0.000152595 	0.257239
0.0135953 	-0.000244054 	-0.000141177 	0.252969
0.0136455 	-0.000246467 	-0.000129759 	0.248699
0.0136957 	-0.000248881 	-0.000118341 	0.244429
0.0137458 	-0.000251294 	-0.000106923 	0.240159
0.013796 	-0.000253707 	-9.55047e-05 	0.235889
0.0138462 	-0.000250661 	-8.61358e-05 	0.228371
0.0138963 	-0.000247348 	-7.68667e-05 	0.220695
0.0139465 	-0.000244036 	-6.75977e-05 	0.213019
0.0139967 	-0.000240723 	-5.83287e-05 	0.205342
0.0140468 	-0.00023741 	-4.90596e-05 	0.197666
0.014097 	-0.000234098 	-3.97906e-05 	0.18999
0.0141472 	-0.000230785 	-3.05215e-05 	0.182314
0.0141973 	-0.000227472 	-2.12525e-05 	0.174638
0.0142475 	-0.00022416 	-1.19834e-05 	0.166961
0.0142977 	-0.000213604 	-7.42786e-06 	0.156537
0.0143478 	-0.000200127 	-4.77326e-06 	0.145003
0.014398 	-0.00018665 	-2.11866e-06 	0.13347
0.0144482 	-0.000173173 	5.35935e-07 	0.121937
0.0144983 	-0.000159696 	3.19053e-06 	0.110404
0.0145485 	-0.000146219 	5.84513e-06 	0.0988703
0.0145987 	-0.000132742 	8.49973e-06 	0.087337
0.0146488 	-0.000119265 	1.11543e-05 	0.0758037
0.014699 	-0.000102885 	1.03458e-05 	0.0648445
0.0147492 	-8.57377e-05 	8.62151e-06 	0.0540371
0.0147993 	-6.85901e-05 	6.89721e-06 	0.0432297
0.0148495 	-5.14426e-05 	5.17291e-06 	0.0324223
0.0148997 	-3.42951e-05 	3.4486e-06 	0.0216148
0.0149498 	-1.71475e-05 	1.7243e-06 	0.0108074
0.015 	0 	0 	0
