0 	373
0 	373
5.01672e-05 	369.539
5.01672e-05 	369.539
0.000100334 	366.123
0.000150502 	362.794
0.000150502 	362.794
0.000200669 	359.692
0.000200669 	359.692
0.000250836 	357.021
0.000301003 	354.939
0.000301003 	354.939
0.000351171 	353.442
0.000401338 	352.408
0.000451505 	351.694
0.000451505 	351.694
0.000501672 	351.185
0.000551839 	350.809
0.000551839 	350.809
0.000602007 	350.521
0.000602007 	350.521
0.000652174 	350.292
0.000652174 	350.292
0.000702341 	350.105
0.000702341 	350.105
0.000752508 	349.948
0.000802676 	349.814
0.000852843 	349.699
0.000852843 	349.699
0.00090301 	349.597
0.00090301 	349.597
0.000953177 	349.506
0.00100334 	349.423
0.00100334 	349.423
0.00105351 	349.347
0.00105351 	349.347
0.00110368 	349.277
0.00115385 	349.213
0.00120401 	349.152
0.00120401 	349.152
0.00130435 	349.041
0.00130435 	349.041
0.00135452 	348.99
0.00135452 	348.99
0.00140468 	348.941
0.00145485 	348.894
0.00145485 	348.894
0.00150502 	348.849
0.00150502 	348.849
0.00155518 	348.805
0.00155518 	348.805
0.00160535 	348.763
0.00160535 	348.763
0.00165552 	348.721
0.00165552 	348.721
0.00170569 	348.68
0.00170569 	348.68
0.00175585 	348.641
0.00175585 	348.641
0.00180602 	348.602
0.00180602 	348.602
0.00185619 	348.563
0.00185619 	348.563
0.00190635 	348.526
0.00190635 	348.526
0.00195652 	348.488
0.00195652 	348.488
0.00200669 	348.452
0.00200669 	348.452
0.00205686 	348.415
0.00210702 	348.379
0.00210702 	348.379
0.00215719 	348.344
0.00220736 	348.308
0.00225753 	348.274
0.00225753 	348.274
0.00230769 	348.239
0.00230769 	348.239
0.00235786 	348.205
0.00235786 	348.205
0.00240803 	348.171
0.00240803 	348.171
0.00245819 	348.138
0.00245819 	348.138
0.00250836 	348.104
0.00250836 	348.104
0.00255853 	348.071
0.0026087 	348.039
0.0026087 	348.039
0.00265886 	348.006
0.00270903 	347.974
0.00270903 	347.974
0.0027592 	347.943
0.00280936 	347.911
0.00280936 	347.911
0.00285953 	347.881
0.00285953 	347.881
0.0029097 	347.85
0.0029097 	347.85
0.00295987 	347.819
0.00295987 	347.819
0.00301003 	347.789
0.0030602 	347.76
0.00311037 	347.73
0.00311037 	347.73
0.00316054 	347.702
0.00316054 	347.702
0.00326087 	347.645
0.00326087 	347.645
0.00331104 	347.617
0.0033612 	347.589
0.0033612 	347.589
0.00341137 	347.562
0.00341137 	347.562
0.00346154 	347.535
0.00346154 	347.535
0.00351171 	347.508
0.00356187 	347.482
0.00356187 	347.482
0.00361204 	347.456
0.00366221 	347.43
0.00366221 	347.43
0.00371237 	347.405
0.00371237 	347.405
0.00376254 	347.38
0.00376254 	347.38
0.00381271 	347.354
0.00381271 	347.354
0.00386288 	347.33
0.00391304 	347.305
0.00391304 	347.305
0.00396321 	347.281
0.00401338 	347.256
0.00401338 	347.256
0.00406355 	347.232
0.00406355 	347.232
0.00411371 	347.208
0.00411371 	347.208
0.00421405 	347.161
0.00421405 	347.161
0.00426421 	347.138
0.00426421 	347.138
0.00431438 	347.114
0.00431438 	347.114
0.00436455 	347.091
0.00436455 	347.091
0.00441472 	347.069
0.00441472 	347.069
0.00446488 	347.046
0.00446488 	347.046
0.00451505 	347.023
0.00451505 	347.023
0.00456522 	347.001
0.00456522 	347.001
0.00461538 	346.979
0.00461538 	346.979
0.00466555 	346.957
0.00471572 	346.935
0.00476589 	346.913
0.00476589 	346.913
0.00486622 	346.871
0.00486622 	346.871
0.00491639 	346.849
0.00496656 	346.828
0.00496656 	346.828
0.00501672 	346.807
0.00506689 	346.787
0.00511706 	346.766
0.00511706 	346.766
0.00521739 	346.726
0.00521739 	346.726
0.00526756 	346.706
0.00526756 	346.706
0.00531773 	346.686
0.00536789 	346.666
0.00536789 	346.666
0.00541806 	346.647
0.00546823 	346.627
0.00551839 	346.608
0.00551839 	346.608
0.00556856 	346.589
0.00556856 	346.589
0.0056689 	346.552
0.0056689 	346.552
0.00571906 	346.533
0.00576923 	346.515
0.00576923 	346.515
0.0058194 	346.497
0.0058194 	346.497
0.00591973 	346.46
0.00591973 	346.46
0.0059699 	346.443
0.0059699 	346.443
0.00602007 	346.425
0.00607023 	346.407
0.0061204 	346.39
0.0061204 	346.39
0.00617057 	346.373
0.00622074 	346.355
0.00622074 	346.355
0.0062709 	346.338
0.00632107 	346.321
0.00632107 	346.321
0.00637124 	346.304
0.00637124 	346.304
0.0064214 	346.288
0.0064214 	346.288
0.00647157 	346.271
0.00647157 	346.271
0.00652174 	346.254
0.00657191 	346.238
0.00657191 	346.238
0.00662207 	346.221
0.00667224 	346.205
0.00672241 	346.188
0.00672241 	346.188
0.00677258 	346.172
0.00682274 	346.156
0.00682274 	346.156
0.00687291 	346.14
0.00687291 	346.14
0.00692308 	346.124
0.00697324 	346.107
0.00702341 	346.091
0.00707358 	346.075
0.00707358 	346.075
0.00717391 	346.044
0.00717391 	346.044
0.00722408 	346.028
0.00722408 	346.028
0.00727425 	346.012
0.00727425 	346.012
0.00732441 	345.996
0.00732441 	345.996
0.00737458 	345.98
0.00737458 	345.98
0.00742475 	345.964
0.00747492 	345.949
0.00752508 	345.933
0.00752508 	345.933
0.00757525 	345.917
0.00762542 	345.902
0.00767559 	345.886
0.00767559 	345.886
0.00772575 	345.87
0.00777592 	345.855
0.00777592 	345.855
0.00782609 	345.839
0.00787625 	345.823
0.00787625 	345.823
0.00792642 	345.808
0.00797659 	345.792
0.00802676 	345.776
0.00802676 	345.776
0.00807692 	345.761
0.00807692 	345.761
0.00812709 	345.745
0.00817726 	345.729
0.00817726 	345.729
0.00822742 	345.714
0.00827759 	345.698
0.00827759 	345.698
0.00832776 	345.682
0.00832776 	345.682
0.00837793 	345.666
0.00842809 	345.651
0.00842809 	345.651
0.00847826 	345.635
0.00847826 	345.635
0.0085786 	345.603
0.0085786 	345.603
0.00862876 	345.587
0.00867893 	345.572
0.0087291 	345.556
0.00877926 	345.54
0.00882943 	345.524
0.0088796 	345.508
0.0088796 	345.508
0.00892977 	345.492
0.00892977 	345.492
0.00897993 	345.476
0.00897993 	345.476
0.0090301 	345.46
0.00908027 	345.444
0.00908027 	345.444
0.00913043 	345.428
0.0091806 	345.412
0.0091806 	345.412
0.00923077 	345.396
0.00928094 	345.379
0.00928094 	345.379
0.0093311 	345.363
0.00938127 	345.347
0.00938127 	345.347
0.00943144 	345.331
0.00943144 	345.331
0.00948161 	345.314
0.00948161 	345.314
0.00953177 	345.298
0.00953177 	345.298
0.00958194 	345.281
0.00958194 	345.281
0.00963211 	345.265
0.00968227 	345.248
0.00968227 	345.248
0.00973244 	345.232
0.00978261 	345.215
0.00978261 	345.215
0.00983278 	345.198
0.00983278 	345.198
0.00988294 	345.181
0.00993311 	345.165
0.00993311 	345.165
0.00998328 	345.148
0.0100334 	345.131
0.0100836 	345.114
0.0100836 	345.114
0.0101338 	345.096
0.0101839 	345.079
0.0101839 	345.079
0.0102341 	345.062
0.0102341 	345.062
0.0102843 	345.044
0.0103344 	345.027
0.0103344 	345.027
0.0103846 	345.009
0.0103846 	345.009
0.0104348 	344.992
0.0104348 	344.992
0.0104849 	344.974
0.0104849 	344.974
0.0105351 	344.956
0.0105853 	344.938
0.0105853 	344.938
0.0106856 	344.902
0.0106856 	344.902
0.0107358 	344.884
0.010786 	344.865
0.010786 	344.865
0.0108361 	344.847
0.0108863 	344.828
0.0108863 	344.828
0.0109365 	344.809
0.0109365 	344.809
0.0109866 	344.79
0.0110368 	344.771
0.0110368 	344.771
0.011087 	344.752
0.011087 	344.752
0.0111371 	344.733
0.0111873 	344.713
0.0111873 	344.713
0.0112375 	344.693
0.0112876 	344.673
0.0112876 	344.673
0.0113378 	344.653
0.0113378 	344.653
0.011388 	344.633
0.0114381 	344.612
0.0114381 	344.612
0.0114883 	344.591
0.0115385 	344.57
0.0115385 	344.57
0.0115886 	344.549
0.0116388 	344.527
0.0116388 	344.527
0.011689 	344.505
0.0117391 	344.482
0.0117893 	344.459
0.0118395 	344.436
0.0118395 	344.436
0.0118896 	344.412
0.0119398 	344.388
0.0119398 	344.388
0.01199 	344.363
0.0120401 	344.337
0.0120401 	344.337
0.0120903 	344.311
0.0120903 	344.311
0.0121906 	344.257
0.0121906 	344.257
0.0122408 	344.228
0.012291 	344.2
0.012291 	344.2
0.0123411 	344.169
0.0123913 	344.139
0.0123913 	344.139
0.0124415 	344.107
0.0124415 	344.107
0.0124916 	344.074
0.0124916 	344.074
0.0125418 	344.041
0.012592 	344.006
0.0126421 	343.97
0.0126421 	343.97
0.0126923 	343.933
0.0127425 	343.894
0.0127425 	343.894
0.0127926 	343.854
0.0128428 	343.813
0.0128428 	343.813
0.0129431 	343.726
0.0129431 	343.726
0.0129933 	343.68
0.0130435 	343.632
0.0130435 	343.632
0.0131438 	343.53
0.0131438 	343.53
0.013194 	343.476
0.0132441 	343.419
0.0132441 	343.419
0.0132943 	343.361
0.0133445 	343.299
0.0133445 	343.299
0.0133946 	343.234
0.0133946 	343.234
0.0134448 	343.166
0.0134448 	343.166
0.013495 	343.095
0.0135452 	343.018
0.0135452 	343.018
0.0135953 	342.938
0.0135953 	342.938
0.0136455 	342.853
0.0136455 	342.853
0.0136957 	342.763
0.0136957 	342.763
0.0137458 	342.666
0.013796 	342.562
0.013796 	342.562
0.0138462 	342.45
0.0138462 	342.45
0.0138963 	342.33
0.0139465 	342.196
0.0139465 	342.196
0.0139967 	342.05
0.0139967 	342.05
0.0140468 	341.889
0.0140468 	341.889
0.014097 	341.71
0.0141472 	341.509
0.0141472 	341.509
0.0141973 	341.28
0.0142475 	341.007
0.0142977 	340.674
0.0142977 	340.674
0.0143478 	340.258
0.014398 	339.72
0.014398 	339.72
0.0144482 	339.003
0.0144983 	338.027
0.0144983 	338.027
0.0145485 	336.697
0.0145485 	336.697
0.0145987 	334.936
0.0146488 	332.735
0.014699 	330.18
0.014699 	330.18
0.0147492 	327.409
0.0147993 	324.542
0.0147993 	324.542
0.0148495 	321.65
0.0148495 	321.65
0.0148997 	318.76
0.0148997 	318.76
0.0149498 	315.88
0.0149498 	315.88
0.015 	313
0.015 	313
