/*--------------------------------*- C++ -*----------------------------------*\
| =========                 |                                                 |
| \\      /  F ield         | OpenFOAM: The Open Source CFD Toolbox           |
|  \\    /   O peration     | Version:  v1912                                 |
|   \\  /    A nd           | Website:  www.openfoam.com                      |
|    \\/     M anipulation  |                                                 |
\*---------------------------------------------------------------------------*/
FoamFile
{
    version     2.0;
    format      ascii;
    class       volScalarField;
    location    "10";
    object      alphat;
}
// * * * * * * * * * * * * * * * * * * * * * * * * * * * * * * * * * * * * * //

dimensions      [1 -1 -1 0 0 0 0];


internalField   nonuniform List<scalar> 
34128
(
4.95491e-09
4.96713e-09
5.28436e-09
5.28893e-09
5.20705e-09
5.08831e-09
4.89412e-09
4.94013e-09
5.0949e-09
4.981e-09
4.83986e-09
4.86983e-09
4.87815e-09
4.90211e-09
5.218e-09
5.21076e-09
5.11476e-09
4.99774e-09
4.8187e-09
4.87616e-09
5.03577e-09
4.92429e-09
4.77538e-09
4.78234e-09
8.70637e-09
8.96944e-09
9.59513e-09
9.37391e-09
8.93262e-09
8.72039e-09
8.62008e-09
8.94407e-09
9.35678e-09
9.16827e-09
8.71899e-09
8.31291e-09
3.64048e-08
3.82482e-08
4.10331e-08
3.94294e-08
3.67078e-08
3.58121e-08
3.61608e-08
3.82688e-08
4.03974e-08
3.96505e-08
3.71528e-08
3.40072e-08
1.41842e-07
1.49606e-07
1.60331e-07
1.53619e-07
1.42419e-07
1.38968e-07
1.41176e-07
1.50045e-07
1.58521e-07
1.55717e-07
1.45536e-07
1.31911e-07
4.25125e-07
4.48446e-07
4.79374e-07
4.59335e-07
4.25855e-07
4.15794e-07
4.2376e-07
4.50732e-07
4.75623e-07
4.67655e-07
4.37363e-07
3.95324e-07
1.02402e-06
1.079e-06
1.1494e-06
1.10216e-06
1.02275e-06
9.99566e-07
1.02186e-06
1.0867e-06
1.14447e-06
1.12673e-06
1.05583e-06
9.53537e-07
2.08003e-06
2.18765e-06
2.3209e-06
2.22772e-06
2.0695e-06
2.02514e-06
2.07712e-06
2.20735e-06
2.31907e-06
2.28661e-06
2.14884e-06
1.94115e-06
3.69409e-06
3.87557e-06
4.09398e-06
3.93415e-06
3.65887e-06
3.58557e-06
3.69006e-06
3.91718e-06
4.10418e-06
4.05319e-06
3.82203e-06
3.45697e-06
5.89481e-06
6.16608e-06
6.48636e-06
6.24119e-06
5.81104e-06
5.70296e-06
5.88834e-06
6.24218e-06
6.52122e-06
6.44989e-06
6.10472e-06
5.53351e-06
8.63352e-06
9.00123e-06
9.43247e-06
9.08908e-06
8.47241e-06
8.32639e-06
8.62247e-06
9.12581e-06
9.50593e-06
9.41431e-06
8.94435e-06
8.13108e-06
1.18007e-05
1.22331e-05
1.27292e-05
1.23017e-05
1.15e-05
1.13469e-05
1.17829e-05
1.23974e-05
1.28312e-05
1.273e-05
1.21799e-05
1.11521e-05
1.46355e-05
1.51122e-05
1.57067e-05
1.52011e-05
1.42292e-05
1.40444e-05
1.46046e-05
1.53338e-05
1.58487e-05
1.57325e-05
1.50823e-05
1.3936e-05
1.75834e-05
1.81193e-05
1.88144e-05
1.82333e-05
1.70885e-05
1.68696e-05
1.75532e-05
1.84049e-05
1.90001e-05
1.88712e-05
1.81263e-05
1.67945e-05
2.06258e-05
2.12148e-05
2.20116e-05
2.13606e-05
2.00421e-05
1.97859e-05
2.05972e-05
2.15703e-05
2.22435e-05
2.21029e-05
2.12724e-05
1.97572e-05
2.37292e-05
2.43632e-05
2.52634e-05
2.45516e-05
2.30607e-05
2.27616e-05
2.37021e-05
2.47944e-05
2.55427e-05
2.53902e-05
2.44853e-05
2.27916e-05
2.68674e-05
2.75367e-05
2.85449e-05
2.77847e-05
2.61239e-05
2.57733e-05
2.68409e-05
2.80499e-05
2.88718e-05
2.87055e-05
2.77381e-05
2.58731e-05
3.00236e-05
3.07183e-05
3.18433e-05
3.10489e-05
2.92219e-05
2.88076e-05
2.99958e-05
3.13197e-05
3.22168e-05
3.20332e-05
3.10148e-05
2.8987e-05
3.31922e-05
3.3904e-05
3.51589e-05
3.43441e-05
3.23551e-05
3.18618e-05
3.316e-05
3.4599e-05
3.55763e-05
3.53719e-05
3.43132e-05
3.21297e-05
3.6381e-05
3.71051e-05
3.85059e-05
3.76812e-05
3.55356e-05
3.49459e-05
3.63402e-05
3.78969e-05
3.89631e-05
3.87355e-05
3.76467e-05
3.53109e-05
3.96126e-05
4.03491e-05
4.19111e-05
4.1083e-05
3.87872e-05
3.80826e-05
3.95577e-05
4.1237e-05
4.24035e-05
4.21522e-05
4.10438e-05
3.85539e-05
4.29221e-05
4.36769e-05
4.54111e-05
4.45817e-05
4.21431e-05
4.13058e-05
4.28463e-05
4.46552e-05
4.59343e-05
4.56612e-05
4.45454e-05
4.18937e-05
4.63507e-05
4.71356e-05
4.90462e-05
4.82147e-05
4.56422e-05
4.46551e-05
4.62455e-05
4.81925e-05
4.95972e-05
4.93062e-05
4.81975e-05
4.53715e-05
4.99397e-05
5.07703e-05
5.28564e-05
5.20202e-05
4.93243e-05
4.81706e-05
4.97945e-05
5.18881e-05
5.34334e-05
5.313e-05
5.20444e-05
4.90282e-05
5.37268e-05
5.46228e-05
5.68821e-05
5.60359e-05
5.32282e-05
5.18902e-05
5.35266e-05
5.57773e-05
5.74844e-05
5.7174e-05
5.61261e-05
5.28998e-05
5.77486e-05
5.87343e-05
6.11685e-05
6.03021e-05
5.73939e-05
5.58514e-05
5.74722e-05
5.98967e-05
6.17985e-05
6.14851e-05
6.04837e-05
5.7017e-05
6.20496e-05
6.31565e-05
6.5776e-05
6.48693e-05
6.18696e-05
6.00986e-05
6.16678e-05
6.42967e-05
6.64433e-05
6.61285e-05
6.51719e-05
6.14141e-05
6.66975e-05
6.79684e-05
7.07931e-05
6.98093e-05
6.67227e-05
6.46946e-05
6.61704e-05
6.9058e-05
7.15198e-05
7.12037e-05
7.02775e-05
6.61427e-05
7.17995e-05
7.32961e-05
7.63524e-05
7.52258e-05
7.20517e-05
6.97348e-05
7.10765e-05
7.43121e-05
7.71801e-05
7.68634e-05
7.59395e-05
7.12905e-05
7.7524e-05
7.93371e-05
8.26522e-05
8.12698e-05
7.79988e-05
7.53626e-05
7.65467e-05
8.02715e-05
8.36458e-05
8.3335e-05
8.23732e-05
7.70016e-05
8.41257e-05
8.63889e-05
8.99647e-05
8.81481e-05
8.4769e-05
8.17921e-05
8.28423e-05
8.72151e-05
9.11761e-05
9.08851e-05
8.98713e-05
8.3505e-05
9.18991e-05
9.48064e-05
9.86102e-05
9.6107e-05
9.26222e-05
8.93092e-05
9.02713e-05
9.5456e-05
0.000100083
9.98132e-05
9.87355e-05
9.11135e-05
0.000101185
0.000105028
0.000109025
0.000105448
0.000101829
9.82023e-05
9.91845e-05
0.000105421
0.000110813
0.000110545
0.00010936
0.000100141
0.000112532
0.000117751
0.000121902
0.000116664
0.000112858
0.000108956
0.000110149
0.000117783
0.000124055
0.000123739
0.000122363
0.000111092
0.000126768
0.000134051
0.000138313
0.000130497
0.00012641
0.000122303
0.000124031
0.000133574
0.000140845
0.000140377
0.000138683
0.00012472
0.000145148
0.000155601
0.000159935
0.000148068
0.00014354
0.00013936
0.000142166
0.00015439
0.000162753
0.00016194
0.000159737
0.000142165
0.00016961
0.000185067
0.000189473
0.000171126
0.000165882
0.000161865
0.000166697
0.000182795
0.000192217
0.000190675
0.000187686
0.000165187
0.000203247
0.000226808
0.000230302
0.000202176
0.000195866
0.000192511
0.000200967
0.000222759
0.00023305
0.000230121
0.000225939
0.000196598
0.000250912
0.000283336
0.000268176
0.000231674
0.000227862
0.000227966
0.000238119
0.000267015
0.000286576
0.00028583
0.000280187
0.000241037
0.000306242
0.000341121
0.000318714
0.000269813
0.000264631
0.000266198
0.000280424
0.000317525
0.000341971
0.00035457
0.000357807
0.000303008
0.000370848
0.000418428
0.000385835
0.000320496
0.000313229
0.000316747
0.000336797
0.000384242
0.000414131
0.000431165
0.000436006
0.000366554
0.000453093
0.000515506
0.000469541
0.000385967
0.000376455
0.000382305
0.00040875
0.000467055
0.000503098
0.000527523
0.000533698
0.000448895
0.000554345
0.000635175
0.000571961
0.000466828
0.000454836
0.000463318
0.000496963
0.000567969
0.000611273
0.00064441
0.000653689
0.000550798
0.000677319
0.000779968
0.000695323
0.000565136
0.000550225
0.000561661
0.000603694
0.000689234
0.000741048
0.000783299
0.000798996
0.000675026
0.00082392
0.000950824
0.000840764
0.000683103
0.000664896
0.000679476
0.000730657
0.000832259
0.000893847
0.0009447
0.000969715
0.000823609
0.000994554
0.00114643
0.00100783
0.000822054
0.00080025
0.000818099
0.000878543
0.000997184
0.00106966
0.00112733
0.00116096
0.00099688
0.00118765
0.0013629
0.00119418
0.000981946
0.000956371
0.000977636
0.0010467
0.00118253
0.0012665
0.00132802
0.00136661
0.00119289
0.00139946
0.00159409
0.00139576
0.00116101
0.00113168
0.00115664
0.001233
0.00138502
0.00148036
0.00154166
0.00158227
0.0014072
0.00162426
0.00183249
0.00160753
0.00135569
0.00132287
0.00135202
0.00143397
0.0015997
0.00170575
0.00176165
0.00180118
0.00163315
0.00185502
0.00207045
0.00182418
0.00156095
0.00152515
0.00155959
0.00164541
0.00182043
0.00193678
0.0019806
0.00201603
0.00186272
0.00208437
0.00230093
0.00203996
0.00177098
0.00173317
0.00177434
0.00186204
0.00204057
0.00216238
0.00219099
0.00222063
0.00208762
0.00230549
0.00251944
0.00224832
0.00198026
0.00194173
0.00199026
0.00207644
0.00225318
0.00237447
0.00238712
0.0024092
0.00230047
0.00251228
0.00271798
0.00242289
0.00218347
0.00214571
0.00220035
0.00203983
0.00245167
0.0025673
0.00256427
0.00257799
0.00249476
0.00269964
0.00288826
0.00246156
0.00237454
0.00233998
0.00217274
0.00200649
0.00243681
0.00273713
0.0027197
0.00272493
0.00243911
0.00286396
0.00302681
0.00253804
0.00226533
0.00227906
0.00212105
0.00204329
0.00237991
0.00288148
0.00285235
0.00284966
0.00230289
0.00300344
0.00313451
0.00265702
0.00215572
0.00219223
0.00211586
0.00214247
0.00238547
0.00299943
0.00296215
0.00295268
0.00221239
0.00311814
0.00321532
0.00279638
0.00210442
0.00214435
0.00216061
0.00229371
0.00244034
0.00309346
0.00305132
0.00303589
0.00216307
0.00320985
0.00327484
0.00293512
0.00209795
0.0021418
0.00224558
0.00248992
0.00253538
0.00316747
0.00312168
0.00310143
0.00214448
0.00328116
0.00331809
0.00305662
0.00212036
0.00217459
0.00236085
0.00272476
0.00266727
0.00315042
0.0031756
0.00297913
0.00215329
0.00333509
0.00334763
0.00315028
0.00216141
0.00223078
0.00249698
0.00299161
0.00283351
0.00304151
0.00321559
0.00280786
0.00219099
0.003375
0.00336901
0.0032129
0.00221503
0.00229981
0.00264464
0.00326493
0.00302844
0.00295599
0.00324427
0.00266559
0.0022616
0.00340394
0.00338479
0.00324872
0.00227744
0.00237203
0.00279333
0.00335822
0.003232
0.00289869
0.00326422
0.00256346
0.00237055
0.00342455
0.00339627
0.00326757
0.00234589
0.0024384
0.0029332
0.00339692
0.00339251
0.00286157
0.00320752
0.00250242
0.002525
0.00343887
0.00340481
0.0032779
0.00241818
0.00249163
0.00305815
0.00342486
0.00341415
0.00283846
0.00306925
0.00248471
0.00273394
0.0034483
0.00341125
0.00328026
0.00249246
0.00252814
0.00316538
0.00344493
0.00343148
0.00282642
0.00295495
0.0025148
0.0030111
0.0034538
0.00341599
0.00327311
0.00256728
0.00254874
0.00325483
0.00345847
0.00344548
0.00282311
0.00287434
0.00260025
0.0033488
0.00345604
0.00341943
0.00326063
0.00264177
0.00255757
0.00332817
0.00346752
0.00345694
0.00282666
0.00282959
0.00274919
0.00343348
0.00345552
0.00342191
0.00324994
0.00271546
0.00256051
0.00338746
0.00347386
0.00346643
0.00283704
0.00282035
0.00297239
0.00345049
0.00345262
0.00342297
0.00324582
0.002788
0.0025639
0.00343543
0.00347796
0.00347411
0.00285725
0.00284611
0.00326162
0.00346482
0.00342636
0.00342233
0.00324935
0.00285929
0.00257382
0.00347447
0.00348017
0.00347999
0.00289402
0.00290754
0.00334251
0.00347637
0.00338431
0.00341944
0.00325946
0.00292998
0.0025958
0.00348071
0.00348085
0.00348431
0.00295879
0.00300854
0.0033471
0.00348502
0.00338059
0.00341391
0.00327523
0.00300224
0.00263419
0.00347461
0.00348047
0.00348722
0.00306737
0.00315561
0.00334891
0.00349075
0.00341393
0.00340543
0.00329603
0.00308025
0.00269164
0.00346584
0.00347788
0.00348826
0.00323076
0.00332548
0.00334797
0.00349359
0.00341329
0.0033754
0.00332187
0.00316984
0.00276852
0.00345463
0.00347269
0.00348741
0.00340898
0.00332562
0.00334441
0.00349373
0.00340276
0.00335798
0.00335414
0.00327923
0.00286232
0.00344162
0.00346565
0.00348466
0.00340804
0.00332375
0.00333846
0.00349149
0.00339258
0.00336345
0.00339517
0.00340638
0.00296699
0.00342767
0.00345698
0.00347997
0.00340476
0.0033193
0.00333096
0.00348728
0.00338292
0.0033459
0.00341042
0.00345105
0.00307357
0.00341366
0.00344697
0.00347332
0.00339841
0.00331339
0.00332287
0.00348166
0.00337311
0.00332804
0.00339369
0.00344014
0.00317165
0.00340047
0.0034365
0.00346471
0.00338804
0.00330658
0.0033148
0.00347433
0.00336327
0.00331072
0.00337668
0.00342943
0.00324778
0.00338885
0.00342645
0.00345417
0.00337352
0.003298
0.00330754
0.00346545
5.27628e-09
5.31158e-09
5.64978e-09
5.64326e-09
5.56955e-09
5.443e-09
5.2234e-09
5.28074e-09
5.45524e-09
5.33897e-09
5.19479e-09
5.18211e-09
5.05779e-09
5.09291e-09
5.42703e-09
5.42726e-09
5.35621e-09
5.23019e-09
5.01469e-09
5.06627e-09
5.23397e-09
5.12605e-09
4.99187e-09
4.97031e-09
6.63389e-09
6.70692e-09
7.32276e-09
7.44e-09
7.34339e-09
7.09316e-09
6.72671e-09
6.74017e-09
6.96629e-09
6.88747e-09
6.78129e-09
6.56373e-09
1.79971e-08
1.83254e-08
2.09282e-08
2.19698e-08
2.17072e-08
2.05046e-08
1.90575e-08
1.88105e-08
1.94409e-08
1.95686e-08
1.9689e-08
1.80377e-08
6.11153e-08
6.23169e-08
7.22347e-08
7.68194e-08
7.60295e-08
7.12414e-08
6.58464e-08
6.46588e-08
6.67253e-08
6.76174e-08
6.86454e-08
6.16072e-08
1.75716e-07
1.78891e-07
2.07641e-07
2.21855e-07
2.19982e-07
2.05733e-07
1.90318e-07
1.86672e-07
1.9219e-07
1.95161e-07
1.98934e-07
1.77645e-07
4.15453e-07
4.2176e-07
4.88241e-07
5.23009e-07
5.19612e-07
4.85908e-07
4.50802e-07
4.42e-07
4.5373e-07
4.612e-07
4.71696e-07
4.21123e-07
8.34231e-07
8.43797e-07
9.72712e-07
1.044e-06
1.03936e-06
9.72562e-07
9.05632e-07
8.87598e-07
9.0803e-07
9.23604e-07
9.47926e-07
8.48054e-07
1.46861e-06
1.47913e-06
1.6971e-06
1.82484e-06
1.82039e-06
1.70493e-06
1.59381e-06
1.5612e-06
1.59135e-06
1.61907e-06
1.66781e-06
1.49763e-06
2.32667e-06
2.3324e-06
2.66314e-06
2.86869e-06
2.86785e-06
2.68867e-06
2.5229e-06
2.46946e-06
2.50775e-06
2.55118e-06
2.63761e-06
2.38043e-06
3.38714e-06
3.37893e-06
3.83959e-06
4.14307e-06
4.1517e-06
3.89618e-06
3.66839e-06
3.58754e-06
3.62979e-06
3.69076e-06
3.82902e-06
3.477e-06
4.58447e-06
4.53848e-06
5.12934e-06
5.55749e-06
5.5891e-06
5.25683e-06
4.95735e-06
4.82129e-06
4.85154e-06
4.92738e-06
5.1365e-06
4.74119e-06
5.66571e-06
5.58768e-06
6.29323e-06
6.82531e-06
6.88413e-06
6.477e-06
6.11797e-06
5.9499e-06
5.97396e-06
6.05717e-06
6.32493e-06
5.87438e-06
6.80042e-06
6.68292e-06
7.49617e-06
8.13457e-06
8.22958e-06
7.74604e-06
7.32952e-06
7.12998e-06
7.14307e-06
7.22907e-06
7.56078e-06
7.0659e-06
7.97615e-06
7.81199e-06
8.72132e-06
9.46558e-06
9.60646e-06
9.04642e-06
8.57613e-06
8.34647e-06
8.34344e-06
8.42654e-06
8.82663e-06
8.30129e-06
9.18298e-06
8.96577e-06
9.9557e-06
1.08023e-05
1.09993e-05
1.03639e-05
9.84455e-06
9.58687e-06
9.56278e-06
9.6365e-06
1.0108e-05
9.56858e-06
1.04147e-05
1.01396e-05
1.11916e-05
1.21334e-05
1.23973e-05
1.16889e-05
1.11255e-05
1.08425e-05
1.07932e-05
1.08507e-05
1.13948e-05
1.08595e-05
1.16698e-05
1.13342e-05
1.24272e-05
1.34529e-05
1.37947e-05
1.30172e-05
1.24144e-05
1.21093e-05
1.20321e-05
1.20663e-05
1.26825e-05
1.21701e-05
1.29521e-05
1.25564e-05
1.36668e-05
1.47605e-05
1.51916e-05
1.43505e-05
1.37123e-05
1.33892e-05
1.32828e-05
1.32866e-05
1.39724e-05
1.35015e-05
1.42717e-05
1.38195e-05
1.49214e-05
1.60626e-05
1.6594e-05
1.56969e-05
1.5027e-05
1.46908e-05
1.45557e-05
1.45216e-05
1.52727e-05
1.48601e-05
1.56463e-05
1.51435e-05
1.62086e-05
1.73729e-05
1.80149e-05
1.70712e-05
1.63734e-05
1.60307e-05
1.58684e-05
1.57884e-05
1.65992e-05
1.62587e-05
1.71005e-05
1.65547e-05
1.7553e-05
1.8712e-05
1.94744e-05
1.84949e-05
1.77739e-05
1.7433e-05
1.72461e-05
1.71116e-05
1.79749e-05
1.77174e-05
1.86656e-05
1.80853e-05
1.89855e-05
2.0108e-05
2.09985e-05
1.99954e-05
1.92573e-05
1.8928e-05
1.87207e-05
1.8522e-05
1.94288e-05
1.92622e-05
2.03781e-05
1.97728e-05
2.05437e-05
2.15951e-05
2.26187e-05
2.16053e-05
2.08572e-05
2.05521e-05
2.03313e-05
2.00576e-05
2.09956e-05
2.09242e-05
2.22818e-05
2.16623e-05
2.22738e-05
2.32155e-05
2.43733e-05
2.3364e-05
2.26142e-05
2.23503e-05
2.21277e-05
2.17663e-05
2.27188e-05
2.27406e-05
2.4432e-05
2.38117e-05
2.42358e-05
2.5024e-05
2.6311e-05
2.5321e-05
2.45804e-05
2.43823e-05
2.41763e-05
2.37124e-05
2.4657e-05
2.47593e-05
2.6905e-05
2.6302e-05
2.65121e-05
2.70939e-05
2.84983e-05
2.7544e-05
2.68282e-05
2.67315e-05
2.65687e-05
2.5986e-05
2.68934e-05
2.70471e-05
2.981e-05
2.92513e-05
2.92192e-05
2.95265e-05
3.1029e-05
3.01294e-05
2.9463e-05
2.95177e-05
2.94336e-05
2.87151e-05
2.95486e-05
2.97019e-05
3.33055e-05
3.28334e-05
3.25233e-05
3.24627e-05
3.40367e-05
3.3216e-05
3.26389e-05
3.29128e-05
3.2951e-05
3.20812e-05
3.27955e-05
3.28688e-05
3.76199e-05
3.73021e-05
3.66611e-05
3.60978e-05
3.77102e-05
3.70036e-05
3.65793e-05
3.71611e-05
3.73712e-05
3.63376e-05
3.68777e-05
3.67591e-05
4.30781e-05
4.30231e-05
4.19678e-05
4.07013e-05
4.23145e-05
4.17764e-05
4.16036e-05
4.26067e-05
4.3039e-05
4.18372e-05
4.21351e-05
4.16758e-05
5.01395e-05
5.05205e-05
4.89196e-05
4.6645e-05
4.82187e-05
4.79372e-05
4.81666e-05
4.97336e-05
5.04301e-05
4.90632e-05
4.90392e-05
4.80473e-05
5.9268e-05
6.03703e-05
5.8018e-05
5.42454e-05
5.57316e-05
5.58487e-05
5.6714e-05
5.90436e-05
6.00389e-05
5.85165e-05
5.80609e-05
5.6277e-05
7.12369e-05
7.35348e-05
7.01078e-05
6.40433e-05
6.53885e-05
6.61341e-05
6.79974e-05
7.13677e-05
7.26674e-05
7.10067e-05
6.99657e-05
6.70426e-05
8.72776e-05
9.15795e-05
8.65614e-05
7.68887e-05
7.80343e-05
7.97838e-05
8.32179e-05
8.80321e-05
8.95717e-05
8.7795e-05
8.59473e-05
8.14084e-05
0.00010937
0.000117077
0.000109561
9.40921e-05
9.49769e-05
9.83451e-05
0.000104271
0.000111117
0.0001127
0.00011083
0.000107872
0.00010105
0.00014063
0.000152714
0.000137079
0.000116504
0.000116926
0.000121983
0.00013079
0.000139698
0.000142951
0.000140593
0.000138123
0.000128586
0.000176756
0.000192673
0.000170477
0.000141111
0.000141046
0.000148977
0.000161851
0.000173403
0.00017736
0.000174425
0.000171319
0.000162967
0.000222893
0.000246553
0.000214925
0.000173074
0.000172486
0.000184637
0.000203229
0.000218082
0.000222783
0.000219075
0.000215317
0.000205072
0.000284707
0.000319234
0.000274074
0.000214856
0.000213786
0.000232059
0.000258497
0.000277424
0.000282961
0.000277884
0.000273774
0.000261624
0.000366831
0.000414166
0.000351382
0.000269615
0.000268188
0.00029518
0.000332183
0.000355214
0.000361679
0.000353494
0.000350535
0.000337586
0.000472123
0.000535344
0.00044901
0.000340305
0.000338763
0.000376698
0.000426475
0.000453884
0.000461344
0.000445961
0.000447262
0.000435693
0.000604997
0.000686594
0.000569965
0.000428352
0.000426942
0.000479272
0.000545087
0.000577019
0.000585504
0.000559235
0.000566143
0.000559785
0.000768802
0.000869574
0.000715961
0.000536443
0.000535411
0.000606058
0.000690933
0.000727165
0.000736766
0.000696188
0.000707971
0.000713263
0.00096447
0.00108257
0.000886647
0.00066669
0.000666108
0.000758868
0.000864893
0.000904859
0.000915752
0.00085794
0.000873128
0.000897319
0.0011894
0.00131992
0.00107914
0.000819966
0.000819543
0.00093729
0.00106486
0.00110786
0.00112029
0.001043
0.00106132
0.00110979
0.00143702
0.00157239
0.00128804
0.000995369
0.000994275
0.00113802
0.00128534
0.0013309
0.00134507
0.00124841
0.0012696
0.00134465
0.00169746
0.00182851
0.00150578
0.0011899
0.00118664
0.00135459
0.00151785
0.00156629
0.00158188
0.00146874
0.00149249
0.00159247
0.00195908
0.00199725
0.00158301
0.00139841
0.00139076
0.00157756
0.00175218
0.00180499
0.00182033
0.00169685
0.00172204
0.00184192
0.00221037
0.00197796
0.00152722
0.00161384
0.00159868
0.00152473
0.00166359
0.00203809
0.00204898
0.0019248
0.00194953
0.00208169
0.00234908
0.0019987
0.0014989
0.00178177
0.0015636
0.00143454
0.00158231
0.00214247
0.00226415
0.00214478
0.00216685
0.00230251
0.00232054
0.00207895
0.00151532
0.00167937
0.00147326
0.00137526
0.0015469
0.00206547
0.00246096
0.00234971
0.00236737
0.00222803
0.00232338
0.00221479
0.00157961
0.00158469
0.00140555
0.00135141
0.00155773
0.00202339
0.00263542
0.00253436
0.00254578
0.00213698
0.00237341
0.00240342
0.0016941
0.00153233
0.00136959
0.00136011
0.00161057
0.0020238
0.00278546
0.00269535
0.0025458
0.00207195
0.00246743
0.00264206
0.00185925
0.00152332
0.0013644
0.00139848
0.00169949
0.00205204
0.00289189
0.00283103
0.00240121
0.00203121
0.00260345
0.00291901
0.00207248
0.00155123
0.00138736
0.00146316
0.00182112
0.00210018
0.00278399
0.00294134
0.00226167
0.00201263
0.00277799
0.0031901
0.00232609
0.00160716
0.00143351
0.0015508
0.00197497
0.00216712
0.0026734
0.00283133
0.00214172
0.0020124
0.002983
0.00330771
0.00260127
0.0016839
0.00149674
0.00165854
0.00216192
0.00225374
0.00258315
0.00268606
0.00203901
0.00202796
0.0032082
0.00334541
0.00286933
0.00177585
0.00157157
0.00178361
0.00238207
0.00236133
0.00251403
0.00254184
0.00195336
0.0020592
0.00343685
0.00337507
0.00310181
0.00187798
0.00165331
0.00192279
0.00263292
0.00249089
0.00246509
0.00241029
0.00188562
0.00210902
0.0034998
0.00339832
0.00327421
0.00198547
0.00173785
0.00207224
0.00290934
0.00264248
0.00243501
0.00229361
0.00183694
0.00218352
0.00351732
0.00341655
0.00334757
0.00209375
0.00182168
0.00222788
0.00319888
0.00281422
0.00242263
0.00219454
0.00180888
0.00229205
0.00353082
0.0034309
0.00337651
0.00219912
0.00190226
0.00238584
0.00344836
0.00300005
0.00242725
0.0021165
0.00180408
0.00244734
0.00354141
0.00344226
0.0033371
0.00229904
0.00197839
0.00254223
0.00345972
0.00319008
0.00244776
0.0020635
0.00182692
0.00266568
0.00354789
0.00345129
0.00324632
0.00239222
0.00205019
0.0026949
0.00346925
0.0033736
0.00248215
0.00203944
0.0018843
0.00296697
0.00355043
0.00345835
0.00313823
0.00247812
0.00211909
0.00284387
0.00347673
0.00347809
0.0025273
0.00204748
0.00198682
0.00334689
0.00354953
0.00340124
0.00303535
0.00255645
0.00218779
0.00298924
0.00348208
0.00348676
0.00257897
0.00209026
0.00214846
0.00345613
0.00354557
0.00332345
0.00295299
0.00262682
0.00226013
0.00313131
0.00348576
0.00349427
0.00263459
0.00217049
0.00238842
0.00347308
0.0035388
0.00325558
0.00289703
0.00268893
0.00234105
0.0032724
0.00348806
0.00350002
0.00269523
0.00229174
0.002738
0.00348732
0.00352947
0.00319691
0.0028669
0.00274337
0.00243658
0.00341689
0.00348921
0.0035041
0.00276608
0.00245919
0.00319604
0.00349862
0.00351331
0.00314242
0.00285798
0.00279225
0.00255356
0.00350713
0.00348937
0.00350635
0.00285892
0.00267912
0.0033328
0.00350686
0.00347143
0.00308888
0.00286345
0.00283977
0.00269879
0.00350635
0.00348867
0.00350669
0.00299364
0.00296379
0.00334071
0.00351203
0.00348751
0.00303687
0.00287581
0.00289238
0.00287798
0.00350332
0.00348727
0.00350558
0.00319491
0.00329547
0.00334537
0.00351417
0.00347287
0.00298978
0.00288831
0.00295882
0.00309575
0.0034981
0.00348547
0.003503
0.00341984
0.00331344
0.00334665
0.00351357
0.00345573
0.00295162
0.00289682
0.00305035
0.00335111
0.00349115
0.00348346
0.0034989
0.00341929
0.00332087
0.00334452
0.00351053
0.00343736
0.00292661
0.0029016
0.00318142
0.00341399
0.00348307
0.00348123
0.00349318
0.0034157
0.00332453
0.00333995
0.00350547
0.0034183
0.00291736
0.00290744
0.00334906
0.00340734
0.00347444
0.00347875
0.00348567
0.0034087
0.00332398
0.00333389
0.00349891
0.00339996
0.00292108
0.00292298
0.00341148
0.00339825
0.00346584
0.00347527
0.00347614
0.00339805
0.0033202
0.00332729
0.00349138
0.00338284
0.00292894
0.00295647
0.00339778
0.00338803
0.00345761
0.00347008
0.00346435
0.00338379
0.00331369
0.00332091
0.00348321
5.68792e-09
5.73404e-09
6.08131e-09
6.05541e-09
5.98558e-09
5.86508e-09
5.66216e-09
5.75568e-09
5.93586e-09
5.79491e-09
5.62331e-09
5.54363e-09
5.561e-09
5.6069e-09
5.94746e-09
5.91544e-09
5.83406e-09
5.71433e-09
5.53433e-09
5.64172e-09
5.82195e-09
5.68012e-09
5.50453e-09
5.40997e-09
9.21489e-09
9.31059e-09
9.87928e-09
9.7046e-09
9.34399e-09
9.11418e-09
9.15475e-09
9.62284e-09
9.98928e-09
9.68872e-09
9.25847e-09
8.78466e-09
3.60384e-08
3.65016e-08
3.86665e-08
3.75361e-08
3.53499e-08
3.43569e-08
3.5776e-08
3.86477e-08
4.02951e-08
3.89228e-08
3.67529e-08
3.37262e-08
1.37783e-07
1.39685e-07
1.47509e-07
1.42735e-07
1.3384e-07
1.30077e-07
1.36836e-07
1.48678e-07
1.55e-07
1.49796e-07
1.41199e-07
1.28519e-07
4.09422e-07
4.15212e-07
4.36719e-07
4.22072e-07
3.95755e-07
3.85063e-07
4.06732e-07
4.42111e-07
4.60255e-07
4.45603e-07
4.20512e-07
3.82206e-07
9.79292e-07
9.93087e-07
1.03969e-06
1.00402e-06
9.42149e-07
9.18183e-07
9.72768e-07
1.05625e-06
1.09743e-06
1.06486e-06
1.00714e-06
9.16078e-07
1.97592e-06
2.003e-06
2.08671e-06
2.01382e-06
1.89143e-06
1.84677e-06
1.96175e-06
2.12634e-06
2.20432e-06
2.14375e-06
2.0332e-06
1.85324e-06
3.4879e-06
3.53347e-06
3.66298e-06
3.53292e-06
3.32169e-06
3.24972e-06
3.45988e-06
3.74193e-06
3.86983e-06
3.77182e-06
3.58806e-06
3.28084e-06
5.53705e-06
5.60503e-06
5.78386e-06
5.5759e-06
5.24816e-06
5.14441e-06
5.48654e-06
5.91937e-06
6.10779e-06
5.96424e-06
5.69044e-06
5.22401e-06
8.07675e-06
8.1693e-06
8.39567e-06
8.09109e-06
7.62419e-06
7.48694e-06
7.99331e-06
8.60198e-06
8.85813e-06
8.66264e-06
8.28761e-06
7.64325e-06
1.0956e-05
1.10468e-05
1.13308e-05
1.09551e-05
1.03409e-05
1.01722e-05
1.08266e-05
1.15882e-05
1.19121e-05
1.16328e-05
1.11632e-05
1.04439e-05
1.35751e-05
1.36912e-05
1.4012e-05
1.35383e-05
1.27935e-05
1.25987e-05
1.34019e-05
1.43227e-05
1.47144e-05
1.43797e-05
1.38213e-05
1.29669e-05
1.63318e-05
1.64768e-05
1.68243e-05
1.62436e-05
1.53661e-05
1.51479e-05
1.61061e-05
1.71882e-05
1.76483e-05
1.72603e-05
1.66184e-05
1.56275e-05
1.91947e-05
1.93724e-05
1.97356e-05
1.90404e-05
1.80301e-05
1.77912e-05
1.89076e-05
2.015e-05
2.06792e-05
2.02419e-05
1.95235e-05
1.83966e-05
2.21378e-05
2.2353e-05
2.27213e-05
2.1904e-05
2.07632e-05
2.0506e-05
2.17806e-05
2.318e-05
2.37799e-05
2.32997e-05
2.25131e-05
2.12511e-05
2.5144e-05
2.54051e-05
2.57675e-05
2.48187e-05
2.3552e-05
2.32797e-05
2.47086e-05
2.62597e-05
2.69344e-05
2.64208e-05
2.55739e-05
2.41761e-05
2.82067e-05
2.85274e-05
2.88718e-05
2.77784e-05
2.63922e-05
2.61093e-05
2.76858e-05
2.93829e-05
3.01384e-05
2.9604e-05
2.87041e-05
2.71663e-05
3.13323e-05
3.17321e-05
3.2043e-05
3.07875e-05
2.92898e-05
2.90029e-05
3.07188e-05
3.25564e-05
3.34002e-05
3.28604e-05
3.19143e-05
3.02267e-05
3.45406e-05
3.50438e-05
3.53016e-05
3.38619e-05
3.22617e-05
3.19796e-05
3.38276e-05
3.58008e-05
3.67402e-05
3.62139e-05
3.52281e-05
3.33741e-05
3.78643e-05
3.84996e-05
3.86798e-05
3.70298e-05
3.53367e-05
3.50694e-05
3.70455e-05
3.91497e-05
4.01903e-05
3.97007e-05
3.86818e-05
3.66377e-05
4.13465e-05
4.21463e-05
4.22198e-05
4.03289e-05
3.85531e-05
3.83122e-05
4.04166e-05
4.26463e-05
4.37916e-05
4.33664e-05
4.23213e-05
4.00577e-05
4.50371e-05
4.60377e-05
4.59717e-05
4.38037e-05
4.19558e-05
4.17553e-05
4.39927e-05
4.63419e-05
4.75936e-05
4.72633e-05
4.61984e-05
4.36823e-05
4.89921e-05
5.02343e-05
4.9992e-05
4.75042e-05
4.55946e-05
4.54511e-05
4.78314e-05
5.0295e-05
5.16535e-05
5.14497e-05
5.03697e-05
4.75645e-05
5.32778e-05
5.48073e-05
5.43471e-05
5.1487e-05
4.95249e-05
4.94597e-05
5.19996e-05
5.45757e-05
5.60407e-05
5.59941e-05
5.49005e-05
5.17637e-05
5.79808e-05
5.98517e-05
5.91218e-05
5.58203e-05
5.38133e-05
5.3855e-05
5.65833e-05
5.92773e-05
6.08463e-05
6.09843e-05
5.9873e-05
5.6354e-05
6.3224e-05
6.55037e-05
6.44334e-05
6.05943e-05
5.85478e-05
5.87377e-05
6.17044e-05
6.45315e-05
6.61952e-05
6.65395e-05
6.53995e-05
6.14385e-05
6.91853e-05
7.19613e-05
7.04488e-05
6.59327e-05
6.38509e-05
6.42508e-05
6.75393e-05
7.05269e-05
7.22605e-05
7.28225e-05
7.16343e-05
6.71667e-05
7.6115e-05
7.95034e-05
7.74016e-05
7.20068e-05
6.98947e-05
7.05972e-05
7.43384e-05
7.75267e-05
7.92775e-05
8.00502e-05
7.87839e-05
7.37531e-05
8.43521e-05
8.85075e-05
8.56111e-05
7.90497e-05
7.69157e-05
7.80567e-05
8.24448e-05
8.58841e-05
8.75538e-05
8.85036e-05
8.71167e-05
8.14917e-05
9.4325e-05
9.94528e-05
9.5494e-05
8.73723e-05
8.52319e-05
8.70038e-05
9.23029e-05
9.60418e-05
9.74679e-05
9.8525e-05
9.6963e-05
9.07672e-05
0.000106569
0.000112948
0.000107584
9.73675e-05
9.52554e-05
9.79193e-05
0.000104469
0.000108574
0.000109505
0.000110547
0.000108729
0.000102046
0.0001219
0.000129946
0.000122691
0.00010954
0.000107492
0.000111434
0.000119765
0.000124371
0.000124413
0.000125218
0.000123022
0.000115974
0.000141613
0.000151975
0.000142131
0.000124713
0.00012278
0.000128579
0.000139511
0.000144843
0.00014335
0.000143552
0.000140792
0.000133574
0.000167732
0.000181483
0.000168045
0.000144178
0.00014245
0.000151003
0.000165813
0.00017223
0.000168098
0.000167124
0.000163508
0.00015643
0.000203491
0.000222484
0.000203752
0.00016989
0.00016857
0.00018135
0.000202123
0.000210164
0.000201489
0.000198177
0.000193442
0.000187007
0.00025418
0.000281264
0.000242617
0.000199454
0.000198436
0.00022062
0.000253704
0.000262572
0.000247665
0.000227933
0.000231473
0.000229284
0.000323638
0.000347801
0.000286681
0.000230728
0.00022997
0.000259869
0.000305883
0.000313388
0.000292793
0.000265327
0.000270472
0.000289271
0.000395174
0.00042606
0.000345037
0.000271564
0.00027092
0.00031134
0.000373179
0.000381066
0.00035124
0.000314048
0.000321354
0.00035573
0.000487133
0.000525587
0.000419827
0.000325416
0.000324548
0.000378933
0.000459694
0.000467568
0.000426629
0.000377485
0.000387935
0.000436162
0.000600774
0.000647998
0.000512149
0.00039451
0.000392853
0.000463241
0.000567026
0.000574554
0.000519416
0.00045586
0.000470255
0.000535744
0.000738562
0.000795205
0.000624478
0.000479923
0.00047665
0.000566322
0.000697692
0.000704737
0.000632146
0.000551844
0.000570634
0.000656974
0.000901413
0.000967175
0.000758396
0.000584274
0.000578253
0.000690221
0.000852829
0.000859687
0.000766828
0.000668301
0.000692023
0.000801679
0.00108808
0.00116147
0.000914026
0.000709774
0.000699477
0.00083577
0.0010316
0.00103928
0.000924319
0.000806609
0.000836761
0.000970188
0.00129502
0.00137341
0.00108968
0.000857499
0.000841054
0.00100214
0.00123107
0.00124132
0.00110383
0.000966834
0.00100556
0.00116093
0.00151672
0.00159679
0.00128192
0.00102682
0.00100218
0.00118675
0.00144654
0.00146153
0.00130261
0.00114834
0.00119678
0.00137033
0.00174653
0.00182503
0.00148605
0.00121504
0.00118035
0.0013856
0.0016724
0.00169385
0.00151587
0.00134748
0.00140629
0.0015931
0.00197763
0.00205188
0.00169645
0.00141755
0.00137167
0.00159378
0.00190311
0.00193095
0.00173718
0.00155892
0.00162759
0.00182273
0.00220392
0.0022708
0.00183191
0.0016286
0.00157085
0.00179813
0.00213345
0.00216489
0.0019592
0.00177585
0.00185242
0.00205214
0.00242004
0.00247463
0.00172556
0.00184119
0.0016911
0.00165015
0.00236157
0.00238753
0.00217479
0.00199078
0.00207219
0.00227425
0.00262086
0.00265471
0.00167993
0.00188356
0.00153064
0.00153858
0.00236434
0.00259129
0.00237707
0.00219678
0.00227905
0.00248261
0.002802
0.00273654
0.00170903
0.00173588
0.00141256
0.0014814
0.0023203
0.00277252
0.00256034
0.00238892
0.00246649
0.00267242
0.0029624
0.00287608
0.00180466
0.00163839
0.00135214
0.00146641
0.00232578
0.00293185
0.0027205