/*--------------------------------*- C++ -*----------------------------------*\
| =========                 |                                                 |
| \\      /  F ield         | OpenFOAM: The Open Source CFD Toolbox           |
|  \\    /   O peration     | Version:  v1912                                 |
|   \\  /    A nd           | Website:  www.openfoam.com                      |
|    \\/     M anipulation  |                                                 |
\*---------------------------------------------------------------------------*/
FoamFile
{
    version     2.0;
    format      ascii;
    class       volScalarField;
    location    "10";
    object      heatTransferCoeff(T);
}
// * * * * * * * * * * * * * * * * * * * * * * * * * * * * * * * * * * * * * //

dimensions      [1 0 -3 -1 0 0 0];


internalField   uniform 0;

boundaryField
{
    leftWall
    {
        type            calculated;
        value           nonuniform List<scalar> 
216
(
-224.351
-228.743
-236.462
-241.594
-250.483
-256.683
-267.474
-276.216
-291.065
-305.008
-326.337
-347.45
-377.176
-409.181
-460.223
-544.971
-814.427
-2784.87
-221.852
-226.047
-233.722
-238.835
-247.954
-254.514
-266.03
-275.562
-291.222
-305.365
-326.443
-346.973
-376.875
-410.3
-464.204
-549.668
-814.673
-2784.25
-224.291
-229.387
-237.797
-243.579
-253.09
-259.909
-271.352
-280.61
-295.598
-308.862
-328.699
-348.044
-377.53
-412.868
-469.893
-555.324
-816.755
-2784.31
-223.279
-228.576
-237.094
-243.312
-253.123
-260.348
-271.599
-280.3
-293.906
-305.88
-324.721
-344.53
-375.079
-411.21
-467.13
-551.275
-812.757
-2774.54
-219.429
-224.542
-233.285
-239.93
-250.747
-259.196
-272.043
-282.116
-296.77
-308.809
-326.755
-344.779
-373.802
-409.637
-466.032
-549.723
-812.873
-2781.13
-218.988
-223.932
-232.729
-239.112
-249.977
-258.189
-271.274
-281.438
-296.739
-309.193
-327.954
-346.729
-377.231
-414.375
-471.393
-554.162
-818.932
-2795.27
-218.08
-222.798
-231.438
-237.313
-247.628
-254.88
-267.07
-276.32
-291.54
-305.004
-326.547
-348.81
-381.697
-417.264
-470.153
-551.279
-818.824
-2797.07
-218.375
-222.983
-231.704
-237.501
-247.825
-255.01
-267.268
-276.672
-292.177
-305.755
-327.005
-348.397
-380.021
-413.907
-464.874
-545.811
-812.976
-2788.47
-220.983
-225.318
-233.605
-239.149
-249.26
-256.682
-269.282
-279.284
-294.933
-308.216
-328.077
-347.404
-376.479
-409.254
-461.487
-545.555
-815.05
-2788.82
-221.002
-224.855
-232.252
-237.268
-246.631
-253.789
-266.087
-276.299
-292.08
-305.916
-326.134
-345.698
-373.74
-405.064
-457.492
-545.64
-818.495
-2789.14
-223.266
-226.725
-233.409
-237.826
-246.351
-252.82
-264.306
-274.047
-289.574
-303.802
-324.671
-345.036
-373.75
-406.688
-461.551
-548.667
-814.471
-2784.73
-226.008
-229.485
-236.255
-240.603
-249.12
-255.442
-266.691
-275.83
-290.384
-303.279
-323.104
-343.643
-374.485
-409.963
-464.439
-548.135
-813.528
-2785.18
)
;
    }
    rightWall
    {
        type            calculated;
        value           nonuniform List<scalar> 
216
(
-207.015
-210.994
-216.314
-221.115
-227.725
-233.704
-242.005
-249.644
-260.21
-270.253
-284.111
-298.378
-319.515
-345.937
-392.165
-465.781
-705.801
-2826.81
-206.525
-210.332
-215.273
-219.693
-225.633
-230.96
-238.356
-245.232
-254.952
-264.512
-278.123
-292.764
-314.591
-341.945
-388.367
-461.817
-703.758
-2831.92
-205.466
-209.118
-213.987
-218.269
-224.203
-229.486
-237.026
-244.061
-254.202
-264.281
-278.82
-294.569
-317.484
-344.66
-389.442
-461.924
-705.574
-2837.97
-206.599
-210.47
-215.647
-220.173
-226.541
-232.136
-240.221
-247.626
-258.384
-268.885
-284.004
-299.988
-322.936
-349.452
-392.545
-462.756
-704.613
-2825.37
-207.993
-212.069
-217.457
-222.12
-228.646
-234.233
-242.312
-249.509
-260.126
-270.419
-285.608
-301.698
-324.808
-351.564
-394.914
-464.048
-702.078
-2826.65
-206.617
-210.492
-215.793
-220.417
-227.009
-232.736
-241.041
-248.487
-259.377
-269.849
-285.221
-301.505
-325.085
-352.562
-396.379
-464.031
-699.123
-2824.34
-206.339
-210.129
-215.291
-219.952
-226.525
-232.397
-240.816
-248.491
-259.541
-270.144
-285.296
-300.893
-323.415
-349.69
-393.201
-461.581
-699.531
-2824.89
-206.42
-210.375
-215.587
-220.341
-226.892
-232.821
-241.201
-248.948
-259.984
-270.676
-285.854
-301.565
-324.01
-349.541
-392.11
-462.066
-705.377
-2824.67
-206.916
-211.042
-216.45
-221.389
-228.139
-234.359
-243.044
-251.224
-262.611
-273.655
-288.936
-304.606
-326.634
-351.329
-391.886
-458.933
-701.943
-2817.62
-208.808
-212.825
-218.069
-222.884
-229.412
-235.451
-243.765
-251.59
-262.353
-272.778
-287.056
-301.677
-322.151
-345.789
-386.686
-455.885
-695.833
-2818.71
-210.262
-214.189
-219.355
-223.889
-230.06
-235.499
-243.084
-250.022
-259.867
-269.473
-283.103
-297.455
-318.14
-342.951
-386.443
-460.61
-705.754
-2825.93
-209.39
-213.298
-218.603
-223.153
-229.53
-235.009
-242.864
-249.924
-260.143
-270.014
-284.122
-298.812
-320.139
-345.795
-389.916
-463.53
-707.708
-2827.58
)
;
    }
    leftSides_periodic0
    {
        type            cyclic;
    }
    leftSides_periodic1
    {
        type            cyclic;
    }
    rightSides_periodic0
    {
        type            cyclic;
    }
    rightSides_periodic1
    {
        type            cyclic;
    }
    leftInOut_periodic0
    {
        type            calculated;
        value           nonuniform 0();
    }
    leftInOut_periodic1
    {
        type            calculated;
        value           uniform 0;
    }
    rightInOut_periodic0
    {
        type            calculated;
        value           nonuniform 0();
    }
    rightInOut_periodic1
    {
        type            calculated;
        value           uniform 0;
    }
    procBoundary5to2
    {
        type            processor;
        value           uniform 0;
    }
    procBoundary5to3throughleftSides_periodic0
    {
        type            processorCyclic;
        value           uniform 0;
    }
    procBoundary5to3throughrightSides_periodic0
    {
        type            processorCyclic;
        value           uniform 0;
    }
    procBoundary5to4
    {
        type            processor;
        value           uniform 0;
    }
}


// ************************************************************************* //
