/*--------------------------------*- C++ -*----------------------------------*\
| =========                 |                                                 |
| \\      /  F ield         | OpenFOAM: The Open Source CFD Toolbox           |
|  \\    /   O peration     | Version:  v1912                                 |
|   \\  /    A nd           | Website:  www.openfoam.com                      |
|    \\/     M anipulation  |                                                 |
\*---------------------------------------------------------------------------*/
FoamFile
{
    version     2.0;
    format      ascii;
    class       volVectorField;
    location    "10";
    object      U;
}
// * * * * * * * * * * * * * * * * * * * * * * * * * * * * * * * * * * * * * //

dimensions      [0 1 -1 0 0 0 0];


internalField   nonuniform List<vector> 
34128
(
(-8.78239e-06 3.18418e-07 -0.00451536)
(-7.50198e-06 2.81826e-07 -0.0045217)
(2.7192e-06 3.25513e-07 -0.00466422)
(6.02119e-06 3.61954e-07 -0.00466592)
(2.00138e-06 3.30212e-07 -0.00462924)
(4.46241e-06 3.23609e-07 -0.00457586)
(-8.02766e-07 3.37278e-07 -0.00448777)
(-2.78253e-06 3.01004e-07 -0.00450949)
(7.1989e-06 3.02607e-07 -0.00458003)
(1.70565e-05 2.91652e-07 -0.00452842)
(2.4084e-05 2.99053e-07 -0.00446333)
(2.6152e-05 3.47373e-07 -0.00447532)
(-2.59649e-05 4.06103e-06 -0.0137171)
(-2.49978e-05 3.86803e-06 -0.0137405)
(3.73174e-06 4.04162e-06 -0.0141609)
(1.69822e-05 4.3637e-06 -0.0141667)
(8.44109e-06 4.40112e-06 -0.0140622)
(1.5602e-05 4.44265e-06 -0.0139038)
(-1.0112e-06 4.50259e-06 -0.0136435)
(-8.06252e-06 4.09581e-06 -0.0137092)
(2.17071e-05 3.89042e-06 -0.0139165)
(5.19355e-05 3.85257e-06 -0.0137634)
(7.19956e-05 3.89583e-06 -0.013567)
(7.73585e-05 4.34504e-06 -0.0135955)
(-4.2142e-05 1.17033e-05 -0.0231167)
(-4.38161e-05 1.12162e-05 -0.0231641)
(1.22879e-06 1.13127e-05 -0.0238571)
(2.63249e-05 1.20381e-05 -0.023867)
(1.58165e-05 1.22858e-05 -0.0236997)
(2.71436e-05 1.25794e-05 -0.023437)
(-1.30219e-06 1.28235e-05 -0.0230078)
(-1.37063e-05 1.16202e-05 -0.0231201)
(3.58978e-05 1.09326e-05 -0.0234617)
(8.69117e-05 1.10277e-05 -0.0232081)
(0.000119233 1.13679e-05 -0.0228767)
(0.000127467 1.26673e-05 -0.0229095)
(-5.65989e-05 2.32353e-05 -0.0326565)
(-6.2704e-05 2.23745e-05 -0.0327369)
(-3.83876e-06 2.22438e-05 -0.0336956)
(3.37985e-05 2.35006e-05 -0.0337087)
(2.31804e-05 2.42211e-05 -0.0334841)
(3.77954e-05 2.4959e-05 -0.0331178)
(-2.66495e-06 2.54581e-05 -0.0325246)
(-1.99976e-05 2.30752e-05 -0.0326871)
(4.94836e-05 2.15621e-05 -0.033161)
(0.000121282 2.18303e-05 -0.032809)
(0.000165216 2.25859e-05 -0.0323389)
(0.000176264 2.51147e-05 -0.0323592)
(-6.87682e-05 3.85537e-05 -0.0422779)
(-8.06316e-05 3.72321e-05 -0.0424014)
(-1.06174e-05 3.6531e-05 -0.0436161)
(3.91918e-05 3.83459e-05 -0.0436311)
(2.97173e-05 3.98034e-05 -0.0433548)
(4.64801e-05 4.12625e-05 -0.0428863)
(-6.00153e-06 4.21586e-05 -0.0421357)
(-2.73148e-05 3.81899e-05 -0.0423529)
(6.20969e-05 3.55078e-05 -0.0429572)
(0.000154376 3.61093e-05 -0.0425107)
(0.000209519 3.75571e-05 -0.041899)
(0.000223735 4.17224e-05 -0.0418865)
(-7.82506e-05 5.74615e-05 -0.0519233)
(-9.67838e-05 5.56079e-05 -0.0521001)
(-1.83396e-05 5.39531e-05 -0.0535581)
(4.23073e-05 5.63115e-05 -0.0535727)
(3.46796e-05 5.88006e-05 -0.05325)
(5.22719e-05 6.12798e-05 -0.0526815)
(-1.2143e-05 6.27202e-05 -0.0517826)
(-3.61184e-05 5.67837e-05 -0.0520596)
(7.32631e-05 5.25694e-05 -0.0527924)
(0.000185508 5.36577e-05 -0.0522574)
(0.00025179 5.60833e-05 -0.0515031)
(0.00026997 6.2269e-05 -0.0514354)
(-8.48133e-05 7.98074e-05 -0.0615384)
(-0.000110531 7.7349e-05 -0.0617779)
(-2.62846e-05 7.42856e-05 -0.0634636)
(4.30133e-05 7.71228e-05 -0.0634745)
(3.74303e-05 8.09385e-05 -0.0631095)
(5.44284e-05 8.47726e-05 -0.0624441)
(-2.17834e-05 8.6937e-05 -0.061409)
(-4.686e-05 7.86566e-05 -0.0617511)
(8.24595e-05 7.25279e-05 -0.0626101)
(0.000214 7.42888e-05 -0.0619946)
(0.000291737 7.80408e-05 -0.0610997)
(0.000315092 8.66358e-05 -0.0609534)
(-8.84003e-05 0.000105419 -0.0710752)
(-0.000121416 0.000102272 -0.0713848)
(-3.37568e-05 9.73057e-05 -0.07328)
(4.1261e-05 0.000100519 -0.0732831)
(3.7444e-05 0.000105939 -0.0728776)
(5.23836e-05 0.00011149 -0.0721198)
(-3.54652e-05 0.00011459 -0.0709637)
(-5.99514e-05 0.000103598 -0.0713763)
(8.9132e-05 9.51402e-05 -0.0723582)
(0.000239183 9.77694e-05 -0.0716718)
(0.000329102 0.000103247 -0.0706419)
(0.000359221 0.000114652 -0.070394)
(-8.9137e-05 0.000134117 -0.0804943)
(-0.000129147 0.000130173 -0.0808783)
(-4.0076e-05 0.00012278 -0.0829638)
(3.70935e-05 0.00012625 -0.0829543)
(3.43053e-05 0.000133517 -0.0825075)
(4.57365e-05 0.000141171 -0.0816622)
(-5.35766e-05 0.000145454 -0.0804035)
(-7.57468e-05 0.000131389 -0.0808926)
(9.27134e-05 0.000120142 -0.0819919)
(0.000260404 0.000123835 -0.0812448)
(0.000363652 0.000131487 -0.0800892)
(0.000402437 0.000146126 -0.0797178)
(-8.73271e-05 0.000165726 -0.0897665)
(-0.000133581 0.000160836 -0.0902254)
(-4.45726e-05 0.000150483 -0.0924818)
(3.06466e-05 0.000154099 -0.0924552)
(2.77042e-05 0.000163417 -0.0919636)
(3.42326e-05 0.000173574 -0.0910361)
(-7.63612e-05 0.000179318 -0.0896957)
(-9.45347e-05 0.000161814 -0.0902676)
(9.26418e-05 0.000147267 -0.0914765)
(0.000277037 0.000152202 -0.0906781)
(0.000395168 0.000162518 -0.0894091)
(0.000444763 0.000180849 -0.088895)
(-8.34427e-05 0.000200076 -0.0988723)
(-0.000134716 0.000194042 -0.0994029)
(-4.659e-05 0.000180212 -0.101811)
(2.21415e-05 0.000183887 -0.101764)
(1.74252e-05 0.000195427 -0.101223)
(1.77396e-05 0.000208491 -0.100218)
(-0.000103935 0.000215997 -0.0988188)
(-0.000116537 0.000194673 -0.0994795)
(8.83769e-05 0.000176262 -0.100788)
(0.000288488 0.000182593 -0.0999459)
(0.000423434 0.000196084 -0.098578)
(0.000486148 0.000218616 -0.097905)
(-7.81076e-05 0.000237004 -0.107801)
(-0.00013267 0.000229568 -0.108396)
(-4.54892e-05 0.000211787 -0.11094)
(1.18761e-05 0.000215486 -0.110871)
(3.33784e-06 0.00022939 -0.110274)
(-3.77675e-06 0.000245758 -0.109197)
(-0.000136304 0.000255333 -0.107761)
(-0.000141908 0.000229779 -0.108517)
(7.94146e-05 0.000206897 -0.109913)
(0.00029421 0.000214745 -0.109032)
(0.000448231 0.000231927 -0.107581)
(0.000526447 0.000259227 -0.106736)
(-7.20787e-05 0.000276354 -0.116549)
(-0.000127671 0.000267203 -0.117199)
(-4.06582e-05 0.000245074 -0.119862)
(2.15081e-07 0.000248822 -0.119774)
(-1.46139e-05 0.000265219 -0.119116)
(-3.02732e-05 0.000285264 -0.11797)
(-0.000173383 0.000297199 -0.116519)
(-0.000170738 0.000266961 -0.117376)
(6.53015e-05 0.000238971 -0.118848)
(0.000293706 0.00024843 -0.117931)
(0.000469326 0.000269796 -0.116411)
(0.000565412 0.00030251 -0.115385)
(-6.62258e-05 0.000317974 -0.125117)
(-0.000120043 0.000306751 -0.12581)
(-3.15247e-05 0.000279971 -0.128578)
(-1.24142e-05 0.000283864 -0.128473)
(-3.64087e-05 0.000302869 -0.127753)
(-6.16334e-05 0.000326942 -0.126541)
(-0.000214994 0.000341493 -0.125095)
(-0.00020304 0.000306065 -0.126058)
(4.56554e-05 0.000272309 -0.127592)
(0.000286536 0.000283456 -0.126641)
(0.000486455 0.00030946 -0.125067)
(0.000602666 0.000348307 -0.123854)
(-6.1507e-05 0.000361701 -0.133503)
(-0.000110197 0.000348018 -0.134228)
(-1.75788e-05 0.000316406 -0.137088)
(-2.55234e-05 0.000320609 -0.13697)
(-6.19358e-05 0.000342333 -0.136188)
(-9.76577e-05 0.000370756 -0.134912)
(-0.000260851 0.00038812 -0.133491)
(-0.000238731 0.000346933 -0.13456)
(2.01982e-05 0.000306756 -0.136144)
(0.000272345 0.000319658 -0.135162)
(0.000499312 0.000350697 -0.133546)
(0.000637679 0.000396472 -0.132145)
(-5.89336e-05 0.000407372 -0.141706)
(-9.86264e-05 0.000390831 -0.142452)
(1.60045e-06 0.000354333 -0.145391)
(-3.85703e-05 0.000359075 -0.145264)
(-9.09835e-05 0.000383633 -0.144425)
(-0.000138058 0.000416702 -0.143088)
(-0.000310565 0.000436994 -0.141705)
(-0.000277628 0.000389414 -0.142883)
(-1.12111e-05 0.000342175 -0.144505)
(0.000250887 0.0003569 -0.143495)
(0.000507556 0.000393303 -0.141848)
(0.000669766 0.000446859 -0.14026)
(-5.95257e-05 0.000454814 -0.149724)
(-8.58889e-05 0.000435018 -0.150482)
(2.63125e-05 0.000393714 -0.153487)
(-5.09671e-05 0.000399289 -0.153351)
(-0.000123223 0.000426796 -0.152461)
(-0.000182442 0.000464785 -0.151067)
(-0.000363634 0.000488027 -0.149737)
(-0.000319434 0.00043335 -0.151021)
(-4.8536e-05 0.000378432 -0.152669)
(0.000222066 0.000395053 -0.151636)
(0.000510807 0.000437075 -0.149972)
(0.000698085 0.000499308 -0.148202)
(-6.42574e-05 0.000503832 -0.157549)
(-7.2592e-05 0.000480391 -0.158315)
(5.66998e-05 0.000434491 -0.161368)
(-6.20952e-05 0.00044128 -0.161222)
(-0.000158198 0.000471846 -0.160292)
(-0.000230308 0.000514995 -0.158847)
(-0.000419442 0.000541109 -0.157583)
(-0.000363727 0.000478566 -0.158967)
(-9.15226e-05 0.000415379 -0.160629)
(0.000185974 0.000433981 -0.159582)
(0.000508662 0.000481798 -0.157911)
(0.000721651 0.000553624 -0.155966)
(-7.39907e-05 0.000554202 -0.165174)
(-5.93685e-05 0.000526728 -0.165946)
(9.27126e-05 0.000476567 -0.169026)
(-7.13252e-05 0.000485062 -0.168865)
(-0.000195317 0.000518788 -0.167907)
(-0.000281036 0.000567299 -0.166421)
(-0.000477264 0.000596095 -0.165234)
(-0.000409961 0.000524852 -0.166711)
(-0.000139666 0.000452842 -0.168372)
(0.000142933 0.000473519 -0.16732)
(0.000500706 0.000527223 -0.165656)
(0.000739368 0.000609558 -0.163547)
(-8.94037e-05 0.000605655 -0.172585)
(-4.68455e-05 0.000573728 -0.173365)
(0.000134081 0.000519821 -0.176447)
(-7.80449e-05 0.000530634 -0.176264)
(-0.000233867 0.000567603 -0.175293)
(-0.000333896 0.000621618 -0.173777)
(-0.000536276 0.000652792 -0.172678)
(-0.000457467 0.00057196 -0.174236)
(-0.000192194 0.000490609 -0.175881)
(9.35227e-05 0.000513465 -0.174837)
(0.00048654 0.000573064 -0.173193)
(0.000750075 0.000666798 -0.170932)
(-0.00011092 0.000657865 -0.179767)
(-3.5605e-05 0.000621005 -0.180557)
(0.000180304 0.000564076 -0.183614)
(-8.16909e-05 0.000577977 -0.183401)
(-0.000273028 0.000618245 -0.182431)
(-0.000388064 0.000677827 -0.1809)
(-0.000595583 0.000710953 -0.179899)
(-0.000505474 0.000619585 -0.181524)
(-0.000248072 0.000528429 -0.183136)
(3.85888e-05 0.000553576 -0.182112)
(0.000465808 0.000618987 -0.180503)
(0.000752619 0.000724962 -0.178107)
(-0.000138643 0.000710448 -0.186702)
(-2.61465e-05 0.000668119 -0.187506)
(0.000230648 0.000609072 -0.190507)
(-8.17799e-05 0.000627041 -0.190257)
(-0.000311905 0.000670641 -0.189304)
(-0.000442655 0.000735749 -0.187773)
(-0.000654251 0.00077026 -0.186879)
(-0.000553134 0.00066737 -0.188553)
(-0.000306035 0.00056601 -0.190112)
(-2.07746e-05 0.000593568 -0.189123)
(0.000438229 0.000664612 -0.187564)
(0.000745934 0.000783598 -0.185054)
(-0.000172317 0.000762949 -0.193369)
(-1.8851e-05 0.000714536 -0.194191)
(0.000284173 0.000654494 -0.197106)
(-7.79392e-05 0.000677753 -0.19681)
(-0.000349575 0.00072469 -0.195892)
(-0.000496757 0.00079515 -0.194376)
(-0.000711344 0.000830328 -0.193596)
(-0.000599566 0.0007149 -0.1953)
(-0.000364649 0.000603029 -0.196786)
(-8.32666e-05 0.000633123 -0.195845)
(0.00040363 0.000709519 -0.194351)
(0.000729129 0.000842184 -0.19175)
(-0.00021131 0.000814857 -0.199747)
(-1.39565e-05 0.000759642 -0.20059)
(0.000339763 0.000699968 -0.203391)
(-6.99332e-05 0.000730007 -0.203044)
(-0.00038513 0.000780267 -0.202174)
(-0.000549477 0.000855746 -0.200689)
(-0.000765976 0.000890702 -0.200029)
(-0.000643902 0.000761708 -0.201739)
(-0.000422392 0.000639137 -0.203133)
(-0.000147444 0.000671905 -0.202253)
(0.000361977 0.00075326 -0.200837)
(0.000701577 0.000900137 -0.198175)
(-0.000254631 0.000865601 -0.205813)
(-1.15493e-05 0.000802762 -0.206683)
(0.000396177 0.000745071 -0.209344)
(-5.76846e-05 0.000783666 -0.208939)
(-0.000417732 0.000837222 -0.208132)
(-0.000599983 0.000917199 -0.206693)
(-0.000817344 0.000950859 -0.206156)
(-0.00068534 0.000807285 -0.207847)
(-0.000477752 0.00067397 -0.20913)
(-0.000211804 0.000709567 -0.208322)
(0.000313402 0.000795376 -0.206997)
(0.000662998 0.000956818 -0.204306)
(-0.000300992 0.000914569 -0.211549)
(-1.15742e-05 0.000843172 -0.212447)
(0.000452092 0.000789326 -0.214946)
(-4.1289e-05 0.00083856 -0.21448)
(-0.000446664 0.000895382 -0.213749)
(-0.000647542 0.000979129 -0.21237)
(-0.000864776 0.00101022 -0.211954)
(-0.000723195 0.000851093 -0.213602)
(-0.000529331 0.000707163 -0.214759)
(-0.000274868 0.00074577 -0.214029)
(0.000258229 0.00083541 -0.212805)
(0.000613519 0.00101155 -0.21012)
(-0.000348884 0.000961117 -0.216934)
(-1.3863e-05 0.000880119 -0.217861)
(0.000506154 0.000832223 -0.220182)
(-2.10227e-05 0.000894482 -0.219656)
(-0.000471377 0.000954553 -0.219011)
(-0.000691559 0.00104111 -0.217704)
(-0.000907754 0.00106815 -0.217405)
(-0.000756935 0.000892578 -0.218984)
(-0.000575934 0.000738355 -0.220001)
(-0.000335272 0.000780191 -0.219356)
(0.000196985 0.000872929 -0.218239)
(0.000553714 0.00106363 -0.215597)
(-0.000396691 0.00100459 -0.221953)
(-1.81788e-05 0.000912846 -0.222907)
(0.000557012 0.000873222 -0.22504)
(2.65533e-06 0.000951189 -0.224457)
(-0.000491517 0.00101452 -0.223906)
(-0.000731596 0.0011027 -0.22268)
(-0.000945935 0.001124 -0.222492)
(-0.000786218 0.000931183 -0.223978)
(-0.000616649 0.000767206 -0.224844)
(-0.000391833 0.000812541 -0.224286)
(0.000130412 0.00090754 -0.223282)
(0.000484614 0.00111234 -0.220718)
(-0.000442804 0.00104434 -0.226592)
(-2.42707e-05 0.000940621 -0.22757)
(0.000603353 0.00091177 -0.22951)
(2.9108e-05 0.0010084 -0.228879)
(-0.000506954 0.00107506 -0.228427)
(-0.000767388 0.00116342 -0.227288)
(-0.000979158 0.00117709 -0.227199)
(-0.0008109 0.000966372 -0.228572)
(-0.000650897 0.000793402 -0.22928)
(-0.000443605 0.00084257 -0.228808)
(5.94598e-05 0.000938901 -0.227918)
(0.000407681 0.00115699 -0.225468)
(-0.000485743 0.00107974 -0.230844)
(-3.19309e-05 0.000962761 -0.231838)
(0.000643913 0.000947313 -0.233587)
(5.75295e-05 0.0010658 -0.23292)
(-0.000517784 0.00113592 -0.23257)
(-0.000798847 0.00122278 -0.231519)
(-0.00100744 0.00122674 -0.231517)
(-0.000831036 0.000997636 -0.232759)
(-0.000678451 0.000816668 -0.233305)
(-0.00048991 0.00087008 -0.232916)
(-1.47295e-05 0.000966734 -0.232141)
(0.000324751 0.0011969 -0.229836)
(-0.000524257 0.00111024 -0.234703)
(-4.10467e-05 0.000978672 -0.235702)
(0.000677488 0.000979316 -0.23727)
(8.69616e-05 0.00112304 -0.236582)
(-0.000524323 0.00119685 -0.236333)
(-0.000826051 0.0012803 -0.235371)
(-0.00103094 0.00127231 -0.23544)
(-0.000846864 0.00102452 -0.236537)
(-0.000699427 0.000836773 -0.236923)
(-0.000530339 0.000894929 -0.23661)
(-9.08498e-05 0.000990835 -0.235946)
(0.000237942 0.00123145 -0.233813)
(-0.000557413 0.00113535 -0.238169)
(-5.16408e-05 0.00098787 -0.239161)
(0.000702942 0.00100728 -0.240561)
(0.000116315 0.00117975 -0.23987)
(-0.000527083 0.00125758 -0.239721)
(-0.000849228 0.00133551 -0.238844)
(-0.00104998 0.0013132 -0.238967)
(-0.00085877 0.00104663 -0.239909)
(-0.000714243 0.000853536 -0.24014)
(-0.000564743 0.000917033 -0.239895)
(-0.000167475 0.00101108 -0.239337)
(0.000149544 0.0012601 -0.237399)
(-0.000584649 0.0011547 -0.241248)
(-6.38909e-05 0.000990019 -0.242217)
(0.000719212 0.00103075 -0.243468)
(0.0001444 0.00123552 -0.242796)
(-0.000526742 0.00131784 -0.242742)
(-0.000868728 0.00138797 -0.241942)
(-0.00106497 0.00134888 -0.242101)
(-0.000867248 0.00106366 -0.242883)
(-0.000723552 0.000866836 -0.242968)
(-0.000593195 0.000936367 -0.242782)
(-0.000243118 0.00102741 -0.242324)
(6.18915e-05 0.0012824 -0.240595)
(-0.000605795 0.00116802 -0.243949)
(-7.8127e-05 0.000984951 -0.244879)
(0.000725319 0.00104937 -0.246002)
(0.000169961 0.00128994 -0.245372)
(-0.000524098 0.00137736 -0.245407)
(-0.000884993 0.00143727 -0.244675)
(-0.00107637 0.00137891 -0.244851)
(-0.000872852 0.0010754 -0.245472)
(-0.000728166 0.000876607 -0.245425)
(-0.000615945 0.000952957 -0.245289)
(-0.000316287 0.00103986 -0.244923)
(-2.27775e-05 0.00129802 -0.243409)
(-0.000621064 0.00117521 -0.246287)
(-9.48013e-05 0.00097268 -0.247162)
(0.000720399 0.00106282 -0.248179)
(0.000191717 0.00134259 -0.247614)
(-0.000520023 0.00143586 -0.247731)
(-0.000898524 0.00148306 -0.247055)
(-0.00108471 0.00140296 -0.24723)
(-0.000876143 0.00108173 -0.247694)
(-0.00072897 0.000882843 -0.247531)
(-0.000633374 0.000966875 -0.247438)
(-0.00038556 0.0010485 -0.247154)
(-0.000102442 0.00130674 -0.245856)
(-0.000631002 0.00117629 -0.248281)
(-0.000114435 0.000953405 -0.249086)
(0.000703746 0.00107091 -0.250021)
(0.000208415 0.00139303 -0.249542)
(-0.000515411 0.00149307 -0.249732)
(-0.000909836 0.00152506 -0.2491)
(-0.00109048 0.00142082 -0.249256)
(-0.000877642 0.00108262 -0.249572)
(-0.000726849 0.000885589 -0.249312)
(-0.000645953 0.00097822 -0.249254)
(-0.000449643 0.00105349 -0.249043)
(-0.000175407 0.00130849 -0.247952)
(-0.00063643 0.00117144 -0.249956)
(-0.000137542 0.000927501 -0.250677)
(0.000674889 0.00107356 -0.25155)
(0.000218885 0.00144088 -0.251176)
(-0.00051113 0.00154873 -0.251431)
(-0.000919429 0.00156305 -0.25083)
(-0.00109413 0.0014324 -0.250953)
(-0.000877786 0.00107818 -0.251132)
(-0.000722619 0.000884954 -0.250794)
(-0.000654204 0.000987117 -0.250766)
(-0.000507439 0.00105499 -0.250618)
(-0.000240394 0.0013033 -0.24972)
(-0.000638347 0.00116101 -0.251338)
(-0.000164529 0.000895569 -0.251964)
(0.000633691 0.00107087 -0.252793)
(0.000222101 0.0014857 -0.25254)
(-0.000507976 0.00160257 -0.252851)
(-0.000927742 0.00159691 -0.252267)
(-0.00109604 0.0014378 -0.252344)
(-0.000876897 0.00106867 -0.2524)
(-0.000716992 0.000881134 -0.252008)
(-0.000658685 0.000993745 -0.252006)
(-0.000558103 0.00105324 -0.25191)
(-0.000296582 0.00129139 -0.251186)
(-0.000637838 0.00114551 -0.252454)
(-0.000195607 0.000858493 -0.252978)
(0.000580304 0.001063 -0.253783)
(0.000217303 0.0015272 -0.253661)
(-0.000506612 0.00165437 -0.254018)
(-0.000935143 0.00162659 -0.25344)
(-0.00109654 0.00143725 -0.25346)
(-0.000875223 0.00105444 -0.25341)
(-0.000710558 0.000874388 -0.252983)
(-0.000659985 0.000998309 -0.253004)
(-0.00060107 0.0010485 -0.252951)
(-0.000343626 0.0012731 -0.252377)
(-0.000636003 0.00112561 -0.253338)
(-0.000230878 0.00081714 -0.253759)
(0.00051517 0.00105023 -0.254553)
(0.000203949 0.00156514 -0.254567)
(-0.000507533 0.00170398 -0.254961)
(-0.000941921 0.00165217 -0.254378)
(-0.00109589 0.0014311 -0.254335)
(-0.000872948 0.00103588 -0.254197)
(-0.000703769 0.000864992 -0.253753)
(-0.000658721 0.00100101 -0.253795)
(-0.000636083 0.00104114 -0.253772)
(-0.000381662 0.00124899 -0.253323)
(-0.000633865 0.001102 -0.254023)
(-0.000270214 0.000772441 -0.254343)
(0.000439266 0.00103293 -0.255133)
(0.000181764 0.00159918 -0.255283)
(-0.000511084 0.0017512 -0.255707)
(-0.000948233 0.00167376 -0.255111)
(-0.00109423 0.00141973 -0.255)
(-0.000870119 0.00101343 -0.254792)
(-0.000696949 0.000853213 -0.254351)
(-0.000655477 0.00100206 -0.25441)
(-0.000663408 0.00103146 -0.254409)
(-0.000411367 0.00121962 -0.254058)
(-0.000632273 0.0010754 -0.25454)
(-0.000313112 0.000725466 -0.254764)
(0.000354004 0.00101155 -0.255553)
(0.000150835 0.00162912 -0.255834)
(-0.000517429 0.00179575 -0.25628)
(-0.00095409 0.00169145 -0.255665)
(-0.00109154 0.00140362 -0.255485)
(-0.000866696 0.000987586 -0.255227)
(-0.000690333 0.000839351 -0.254805)
(-0.000650806 0.00100158 -0.254883)
(-0.000683621 0.00101971 -0.254894)
(-0.000433751 0.00118559 -0.254614)
(-0.00063185 0.00104654 -0.254919)
(-0.000358864 0.000677173 -0.255054)
(0.000261112 0.000986615 -0.255843)
(0.000111619 0.00165481 -0.256245)
(-0.000526546 0.00183746 -0.256706)
(-0.000959406 0.00170542 -0.256069)
(-0.00108779 0.00138332 -0.255822)
(-0.000862613 0.000958848 -0.255529)
(-0.000684082 0.000823701 -0.25514)
(-0.000645256 0.000999719 -0.255239)
(-0.000697474 0.00100616 -0.255257)
(-0.00045003 0.0011476 -0.255023)
(-0.000632969 0.00101614 -0.255187)
(-0.000406585 0.000628482 -0.255243)
(0.000162547 0.000958683 -0.25603)
(6.48848e-05 0.0016762 -0.25654)
(-0.000538247 0.00187614 -0.25701)
(-0.000964016 0.00171588 -0.256348)
(-0.00108285 0.00135938 -0.256038)
(-0.000857803 0.000927719 -0.255727)
(-0.000678322 0.000806561 -0.255382)
(-0.000639336 0.000996607 -0.255503)
(-0.000705911 0.000991056 -0.255522)
(-0.000461552 0.0011063 -0.255311)
(-0.00063575 0.000984804 -0.255368)
(-0.000455293 0.000580217 -0.255354)
(6.03505e-05 0.000928331 -0.256137)
(1.16538e-05 0.00169328 -0.256741)
(-0.000552213 0.00191165 -0.257213)
(-0.000967693 0.00172307 -0.256528)
(-0.00107662 0.00133236 -0.256159)
(-0.000852225 0.000894689 -0.255842)
(-0.000673158 0.000788216 -0.25555)
(-0.000633498 0.000992359 -0.255694)
(-0.000709984 0.000974626 -0.255709)
(-0.000469666 0.00106236 -0.255504)
(-0.000640098 0.000953092 -0.255482)
(-0.000504007 0.000533068 -0.255409)
(-4.35137e-05 0.000896118 -0.256182)
(-4.68914e-05 0.00170607 -0.256866)
(-0.000568024 0.00194384 -0.257336)
(-0.000970182 0.00172718 -0.256628)
(-0.00106897 0.00130277 -0.256207)
(-0.000845895 0.000860213 -0.255894)
(-0.000668694 0.000768933 -0.255661)
(-0.000628123 0.000987074 -0.25583)
(-0.000710761 0.000957078 -0.255837)
(-0.000475624 0.00101637 -0.255622)
(-0.000645747 0.000921433 -0.255545)
(-0.000551837 0.000487583 -0.255422)
(-0.0001473 0.000862566 -0.256183)
(-0.000109506 0.00171465 -0.256931)
(-0.000585206 0.00197256 -0.257396)
(-0.000971226 0.0017284 -0.256668)
(-0.00105983 0.00127109 -0.256199)
(-0.000838896 0.000824703 -0.255898)
(-0.000665033 0.000748949 -0.255728)
(-0.000623525 0.000980834 -0.255923)
(-0.000709242 0.000938587 -0.25592)
(-0.000480507 0.00096885 -0.255683)
(-0.000652325 0.000890147 -0.25557)
(-0.000598033 0.000444192 -0.255407)
(-0.000249598 0.000828178 -0.256151)
(-0.000174982 0.00171912 -0.25695)
(-0.000603256 0.00199769 -0.257406)
(-0.000970608 0.0017269 -0.256661)
(-0.00104922 0.00123775 -0.25615)
(-0.000831383 0.000788519 -0.255866)
(-0.00066228 0.00072847 -0.255763)
(-0.000619949 0.000973701 -0.255983)
(-0.000706304 0.000919292 -0.255968)
(-0.000485193 0.000920239 -0.255701)
(-0.000659408 0.000859455 -0.255567)
(-0.000642032 0.000403198 -0.25537)
(-0.00034943 0.00079335 -0.256094)
(-0.000242227 0.00171957 -0.256934)
(-0.000621687 0.00201912 -0.257378)
(-0.000968232 0.00172284 -0.256618)
(-0.00103733 0.00120316 -0.25607)
(-0.000823577 0.000751971 -0.255808)
(-0.000660534 0.000707665 -0.255773)
(-0.000617584 0.000965723 -0.256018)
(-0.000702686 0.000899309 -0.25599)
(-0.000490362 0.000870888 -0.255686)
(-0.00066658 0.000829505 -0.255544)
(-0.000683377 0.000364737 -0.255317)
(-0.000446148 0.000758308 -0.256019)
(-0.000310338 0.00171611 -0.256891)
(-0.00064008 0.00203677 -0.257322)
(-0.000964259 0.00171631 -0.256549)
(-0.00102455 0.0011674 -0.255965)
(-0.000815753 0.000715317 -0.255729)
(-0.000659894 0.000686673 -0.255764)
(-0.000616581 0.000956928 -0.256034)
(-0.000698989 0.000878727 -0.255991)
(-0.000496515 0.000821062 -0.255645)
(-0.000673499 0.000800349 -0.255505)
(-0.000721492 0.000328899 -0.255253)
(-0.000539059 0.000723155 -0.255929)
(-0.000378632 0.00170884 -0.256826)
(-0.000658209 0.00205052 -0.257242)
(-0.000958896 0.00170725 -0.256458)
(-0.0010111 0.00113046 -0.255842)
(-0.000808182 0.000678632 -0.255635)
(-0.000660439 0.0006656 -0.25574)
(-0.000617062 0.000947337 -0.256035)
(-0.000695687 0.000857609 -0.255976)
(-0.000504 0.000770935 -0.255584)
(-0.00067987 0.000771924 -0.255454)
(-0.000755602 0.00029569 -0.255181)
(-0.000627207 0.000688033 -0.25583)
(-0.000446694 0.0016977 -0.256742)
(-0.000675958 0.00206018 -0.257142)
(-0.000952096 0.00169549 -0.25635)
(-0.000996742 0.00109304 -0.255705)
(-0.000800957 0.000642034 -0.255529)
(-0.000662207 0.000644517 -0.255706)
(-0.000619131 0.000936954 -0.256023)
(-0.000693143 0.000836 -0.255946)
(-0.000513029 0.000720467 -0.255507)
(-0.000685272 0.000744108 -0.255393)
(-0.0007849 0.000265097 -0.255106)
(-0.00070956 0.00065352 -0.255727)
(-0.000514211 0.00168258 -0.256644)
(-0.000693063 0.00206537 -0.257026)
(-0.000943347 0.00168096 -0.256229)
(-0.000981933 0.0010547 -0.255559)
(-0.000793965 0.000606124 -0.255414)
(-0.000665178 0.000623489 -0.255661)
(-0.00062288 0.000925777 -0.256)
(-0.000691634 0.000813937 -0.255906)
(-0.00052378 0.000670327 -0.255416)
(-0.000689105 0.000716723 -0.255325)
(-0.000808656 0.000237183 -0.255031)
(-0.000785264 0.000619582 -0.255623)
(-0.000580694 0.00166386 -0.256536)
(-0.000708989 0.00206569 -0.256898)
(-0.00093226 0.00166358 -0.256099)
(-0.000966889 0.00101493 -0.255403)
(-0.000787383 0.000570479 -0.255292)
(-0.000669317 0.000602585 -0.255609)
(-0.000628375 0.000913797 -0.255968)
(-0.000691378 0.000791476 -0.255855)
(-0.000536365 0.0006202 -0.255311)
(-0.000690656 0.000689559 -0.255252)
(-0.000826276 0.000211982 -0.254959)
(-0.000853029 0.000586465 -0.255519)
(-0.00064523 0.00164142 -0.256416)
(-0.000723295 0.00206097 -0.25676)
(-0.000918675 0.00164306 -0.255961)
(-0.000950374 0.000974721 -0.255244)
(-0.000781169 0.000534805 -0.255161)
(-0.000674646 0.000581872 -0.25555)
(-0.000635651 0.000900996 -0.255928)
(-0.000692448 0.000768587 -0.255795)
(-0.000550747 0.000569277 -0.255193)
(-0.000689144 0.000662444 -0.255177)
(-0.000837378 0.000189526 -0.254892)
(-0.00091146 0.000555128 -0.25542)
(-0.000706276 0.0016149 -0.256284)
(-0.000735409 0.00205097 -0.256611)
(-0.000901873 0.00161932 -0.255818)
(-0.000931072 0.000934434 -0.25509)
(-0.000774564 0.000499886 -0.255026)
(-0.000681078 0.00056138 -0.255485)
(-0.000644684 0.000887357 -0.25588)
(-0.000694836 0.000745203 -0.255725)
(-0.000566913 0.00051814 -0.255063)
(-0.000683801 0.000635246 -0.255101)
(-0.000841757 0.00016982 -0.25483)
(-0.00095975 0.000525923 -0.255328)
(-0.000762311 0.00158498 -0.256144)
(-0.000744388 0.00203552 -0.256454)
(-0.000880863 0.00159256 -0.255675)
(-0.000908046 0.000894179 -0.254944)
(-0.000766696 0.000465843 -0.254891)
(-0.000688395 0.000541147 -0.255413)
(-0.000655395 0.000872857 -0.255823)
(-0.00069852 0.000721218 -0.255646)
(-0.000584838 0.000467296 -0.254925)
(-0.00067395 0.000607743 -0.255025)
(-0.000839304 0.000152778 -0.254774)
(-0.000997651 0.000499045 -0.255242)
(-0.000812206 0.00155205 -0.256)
(-0.000749381 0.00201468 -0.256292)
(-0.00085501 0.00156283 -0.255535)
(-0.00088071 0.000854073 -0.25481)
(-0.000756742 0.000432695 -0.254759)
(-0.000696257 0.000521256 -0.255334)
(-0.000667644 0.000857445 -0.255759)
(-0.000703367 0.000696554 -0.255558)
(-0.000604377 0.000416806 -0.254781)
(-0.000658882 0.000579831 -0.254951)
(-0.000829926 0.000138302 -0.254723)
(-0.00102526 0.000474646 -0.255165)
(-0.000855182 0.0015163 -0.255856)
(-0.000749872 0.00198852 -0.25613)
(-0.000824073 0.00153017 -0.255403)
(-0.000848778 0.000814201 -0.254688)
(-0.000743958 0.000400573 -0.254632)
(-0.000704183 0.000501885 -0.255251)
(-0.000681206 0.000841059 -0.255686)
(-0.000709123 0.000671234 -0.255462)
(-0.000625176 0.000366762 -0.254635)
(-0.000637986 0.00055147 -0.254879)
(-0.000813532 0.000126256 -0.254676)
(-0.00104282 0.000452831 -0.255094)
(-0.000890775 0.0014779 -0.255716)
(-0.000745688 0.00195707 -0.255971)
(-0.000788127 0.00149461 -0.255279)
(-0.000812217 0.000774612 -0.25458)
(-0.000727702 0.000369638 -0.254512)
(-0.000711404 0.000483047 -0.255161)
(-0.000695716 0.00082365 -0.255605)
(-0.000715714 0.000644994 -0.255357)
(-0.000646646 0.000317282 -0.254489)
(-0.000610862 0.000522468 -0.254809)
(-0.000790068 0.000116502 -0.254634)
(-0.0010507 0.000433647 -0.255029)
(-0.000918816 0.00143706 -0.25558)
(-0.000736937 0.00192034 -0.255817)
(-0.000747485 0.00145617 -0.255164)
(-0.00077124 0.000735655 -0.254484)
(-0.000707465 0.000340061 -0.2544)
(-0.00071696 0.000464843 -0.255066)
(-0.000710618 0.000805154 -0.255515)
(-0.000722887 0.000617579 -0.255241)
(-0.000667992 0.000268487 -0.254345)
(-0.000577204 0.000492672 -0.254742)
(-0.000759585 0.000108934 -0.254595)
(-0.0010493 0.000417109 -0.25497)
(-0.00093939 0.00139395 -0.25545)
(-0.000723918 0.00187837 -0.255669)
(-0.000702576 0.00141489 -0.255059)
(-0.000726439 0.000697136 -0.254399)
(-0.000682957 0.000312099 -0.254296)
(-0.000719887 0.000447549 -0.254965)
(-0.00072511 0.000785513 -0.255415)
(-0.000729803 0.000588994 -0.255117)
(-0.00068822 0.000220474 -0.254206)
(-0.000536782 0.000461959 -0.254677)
(-0.000722303 0.000103467 -0.254559)
(-0.00103922 0.0004032 -0.254917)
(-0.000952751 0.00134877 -0.255327)
(-0.000706995 0.0018312 -0.255528)
(-0.000653822 0.00137079 -0.254962)
(-0.000678374 0.000658668 -0.254323)
(-0.000654029 0.000285754 -0.254199)
(-0.00071917 0.000431315 -0.254861)
(-0.000738126 0.000764758 -0.255307)
(-0.000735287 0.000559115 -0.254985)
(-0.000706196 0.000173332 -0.254076)
(-0.00048948 0.000430227 -0.254613)
(-0.000678649 0.000100058 -0.254526)
(-0.00102125 0.000391929 -0.254867)
(-0.000959228 0.00130171 -0.255211)
(-0.000686486 0.00177889 -0.255393)
(-0.000601625 0.00132389 -0.254874)
(-0.000627309 0.000620416 -0.254254)
(-0.000620519 0.000260942 -0.254108)
(-0.000713783 0.000416243 -0.254753)
(-0.000748373 0.000742833 -0.255189)
(-0.000737914 0.000527827 -0.254848)
(-0.000720762 0.000127113 -0.253956)
(-0.00043533 0.000397416 -0.254551)
(-0.000629254 9.86962e-05 -0.254495)
(-0.000996198 0.000383302 -0.254823)
(-0.000959123 0.00125295 -0.255102)
(-0.000662607 0.0017215 -0.255265)
(-0.000546419 0.0012742 -0.254793)
(-0.000573472 0.000582375 -0.254193)
(-0.000582395 0.00023776 -0.254022)
(-0.000702722 0.000402401 -0.254642)
(-0.000754277 0.000719597 -0.255064)
(-0.000736151 0.000495079 -0.254707)
(-0.000730872 8.19234e-05 -0.253849)
(-0.000374555 0.000363521 -0.254489)
(-0.000574919 9.93792e-05 -0.254466)
(-0.000964588 0.000377269 -0.254781)
(-0.000952671 0.00120264 -0.255001)
(-0.000635484 0.0016591 -0.255143)
(-0.000488708 0.00122172 -0.254718)
(-0.00051716 0.00054439 -0.254139)
(-0.000539784 0.000216148 -0.253942)
(-0.000685049 0.000389795 -0.25453)
(-0.000754037 0.000695048 -0.254931)
(-0.000728509 0.00046091 -0.254568)
(-0.000735745 3.85448e-05 -0.253756)
(-0.000307597 0.000328594 -0.254427)
(-0.000516562 0.000102095 -0.254437)
(-0.000926857 0.000373761 -0.254742)
(-0.000940035 0.00115094 -0.254907)
(-0.000605219 0.0015918 -0.255026)
(-0.000429101 0.00116646 -0.25465)
(-0.000458792 0.000506309 -0.254092)
(-0.000492895 0.000195838 -0.253868)
(-0.000659963 0.000378332 -0.254417)
(-0.000745837 0.000669185 -0.254792)
(-0.00071364 0.000425505 -0.254432)