/*--------------------------------*- C++ -*----------------------------------*\
| =========                 |                                                 |
| \\      /  F ield         | OpenFOAM: The Open Source CFD Toolbox           |
|  \\    /   O peration     | Version:  v1912                                 |
|   \\  /    A nd           | Website:  www.openfoam.com                      |
|    \\/     M anipulation  |                                                 |
\*---------------------------------------------------------------------------*/
FoamFile
{
    version     2.0;
    format      ascii;
    class       volSymmTensorField;
    location    "10";
    object      UPrime2Mean;
}
// * * * * * * * * * * * * * * * * * * * * * * * * * * * * * * * * * * * * * //

dimensions      [0 2 -2 0 0 0 0];


internalField   nonuniform List<symmTensor> 
34128
(
(2.40722e-10 -1.2613e-12 4.74648e-10 1.63959e-10 1.30178e-08 7.97174e-06)
(2.69234e-10 -9.8635e-13 5.33028e-10 1.6396e-10 1.30372e-08 7.98608e-06)
(2.38264e-10 -6.36337e-13 8.46961e-10 1.6397e-10 1.30361e-08 7.99045e-06)
(2.64056e-10 -4.62614e-13 9.27502e-10 1.63969e-10 1.30325e-08 7.99199e-06)
(4.05431e-10 -2.70207e-13 2.9808e-10 1.63977e-10 1.3029e-08 7.98549e-06)
(3.00561e-10 1.01927e-13 2.57518e-11 1.63971e-10 1.30237e-08 7.97864e-06)
(2.54766e-10 -1.27103e-14 3.65733e-10 1.63975e-10 1.30198e-08 7.97473e-06)
(3.18027e-10 5.41415e-13 2.42991e-10 1.63973e-10 1.30303e-08 7.98524e-06)
(3.59462e-10 1.63053e-13 -1.05467e-10 1.63982e-10 1.3046e-08 7.9966e-06)
(2.82388e-10 -2.91093e-13 -3.90825e-10 1.63975e-10 1.30358e-08 7.98935e-06)
(2.41244e-10 4.92597e-14 -4.24345e-10 1.63962e-10 1.30117e-08 7.96867e-06)
(1.76683e-10 1.5664e-12 2.95915e-10 1.63934e-10 1.30232e-08 7.96954e-06)
(2.05497e-09 8.05781e-12 2.16646e-09 3.63715e-10 -5.43287e-08 2.80288e-05)
(2.29612e-09 5.20053e-12 3.12767e-09 3.63591e-10 -5.43474e-08 2.81299e-05)
(2.00967e-09 1.0924e-11 6.18275e-09 3.63468e-10 -5.43752e-08 2.81685e-05)
(2.23587e-09 9.7132e-12 6.58774e-09 3.63704e-10 -5.42599e-08 2.81843e-05)
(3.43845e-09 7.90508e-12 2.3988e-09 3.63761e-10 -5.41611e-08 2.8131e-05)
(2.56492e-09 1.05121e-11 1.24562e-09 3.63717e-10 -5.4268e-08 2.80794e-05)
(2.18882e-09 4.54474e-12 4.3103e-09 3.63681e-10 -5.42786e-08 2.80539e-05)
(2.70522e-09 -1.82721e-12 3.33976e-09 3.6367e-10 -5.42531e-08 2.81285e-05)
(3.04034e-09 2.40032e-12 1.46439e-09 3.63477e-10 -5.43024e-08 2.82056e-05)
(2.41647e-09 8.012e-12 -4.84838e-10 3.63607e-10 -5.42899e-08 2.81579e-05)
(2.04634e-09 2.65592e-12 -8.56847e-10 3.63776e-10 -5.4295e-08 2.80098e-05)
(1.48333e-09 -2.87082e-12 4.49595e-09 3.63884e-10 -5.42716e-08 2.80155e-05)
(5.52845e-09 5.9401e-12 6.64864e-09 1.80059e-10 5.65286e-08 5.05367e-05)
(6.17359e-09 3.77728e-12 9.171e-09 1.80439e-10 5.67909e-08 5.07795e-05)
(5.35817e-09 2.75613e-11 1.64048e-08 1.80257e-10 5.6799e-08 5.08888e-05)
(5.97685e-09 1.51546e-11 1.54542e-08 1.81561e-10 5.71538e-08 5.09301e-05)
(9.19873e-09 1.6357e-11 5.34203e-09 1.8184e-10 5.73186e-08 5.0785e-05)
(6.89174e-09 3.83925e-11 3.5221e-09 1.8118e-10 5.68475e-08 5.0662e-05)
(5.91376e-09 1.75745e-11 1.08266e-08 1.80868e-10 5.67475e-08 5.06071e-05)
(7.24957e-09 6.69866e-12 7.8069e-09 1.81235e-10 5.70531e-08 5.07826e-05)
(8.11017e-09 1.43712e-11 3.84378e-09 1.80988e-10 5.71636e-08 5.09605e-05)
(6.51183e-09 2.5527e-11 -9.89606e-10 1.80898e-10 5.70459e-08 5.08536e-05)
(5.47824e-09 1.38444e-11 -2.30924e-09 1.8041e-10 5.65798e-08 5.04971e-05)
(3.93611e-09 2.46579e-11 1.0609e-08 1.80534e-10 5.66557e-08 5.05072e-05)
(1.05313e-08 2.84441e-11 1.28654e-08 9.63796e-11 -3.69509e-08 7.16114e-05)
(1.17555e-08 2.37279e-11 1.80222e-08 9.62395e-11 -3.65376e-08 7.20306e-05)
(1.01239e-08 8.65227e-11 3.01077e-08 9.5431e-11 -3.64585e-08 7.22487e-05)
(1.13194e-08 5.10166e-11 2.4788e-08 1.00783e-10 -3.54512e-08 7.23192e-05)
(1.7423e-08 5.02488e-11 7.73193e-09 1.01975e-10 -3.50453e-08 7.20351e-05)
(1.31066e-08 1.03804e-10 6.57119e-09 9.94217e-11 -3.61976e-08 7.18315e-05)
(1.13073e-08 4.95377e-11 1.86548e-08 9.84844e-11 -3.63685e-08 7.17495e-05)
(1.37503e-08 1.0854e-11 1.24419e-08 9.93161e-11 -3.57555e-08 7.20422e-05)
(1.53131e-08 3.76607e-11 6.61008e-09 9.73435e-11 -3.57125e-08 7.23376e-05)
(1.24228e-08 7.64264e-11 -1.82476e-09 9.79066e-11 -3.58509e-08 7.21672e-05)
(1.03888e-08 4.20105e-11 -4.74855e-09 9.79183e-11 -3.67168e-08 7.15527e-05)
(7.39897e-09 4.82338e-11 1.79023e-08 9.90162e-11 -3.65497e-08 7.15615e-05)
(1.69422e-08 5.25396e-11 1.9659e-08 6.22413e-11 3.78112e-08 8.97212e-05)
(1.89075e-08 5.34208e-11 2.88999e-08 6.33186e-11 3.87963e-08 9.03365e-05)
(1.6165e-08 1.78485e-10 4.59467e-08 6.21079e-11 3.91573e-08 9.07013e-05)
(1.81136e-08 9.6057e-11 3.23412e-08 7.6057e-11 4.10529e-08 9.07968e-05)
(2.78625e-08 9.72679e-11 8.47641e-09 7.90077e-11 4.1496e-08 9.03254e-05)
(2.10441e-08 2.09276e-10 1.01966e-08 7.15468e-11 3.92908e-08 9.00471e-05)
(1.82522e-08 1.03969e-10 2.68317e-08 6.90294e-11 3.90015e-08 8.99481e-05)
(2.20172e-08 3.28449e-11 1.64497e-08 7.18027e-11 4.02342e-08 9.03583e-05)
(2.44083e-08 7.76332e-11 9.60487e-09 6.77487e-11 4.046e-08 9.07751e-05)
(2.00123e-08 1.49563e-10 -2.73424e-09 6.81548e-11 4.01438e-08 9.05474e-05)
(1.66449e-08 8.80869e-11 -7.87685e-09 6.64869e-11 3.8213e-08 8.96494e-05)
(1.17494e-08 1.15458e-10 2.6141e-08 6.8953e-11 3.85066e-08 8.96466e-05)
(2.46469e-08 9.0941e-11 2.62479e-08 1.38156e-10 5.96568e-08 0.000104318)
(2.75061e-08 1.09341e-10 4.12345e-08 1.4075e-10 6.13687e-08 0.000105138)
(2.33569e-08 3.24632e-10 6.29565e-08 1.39591e-10 6.23003e-08 0.000105684)
(2.62264e-08 1.6307e-10 3.66961e-08 1.69854e-10 6.54555e-08 0.000105795)
(4.02825e-08 1.65142e-10 6.9514e-09 1.75653e-10 6.57011e-08 0.000105091)
(3.05479e-08 3.63077e-10 1.42702e-08 1.58457e-10 6.21267e-08 0.000104755)
(2.6636e-08 1.86023e-10 3.46034e-08 1.53357e-10 6.17817e-08 0.000104653)
(3.18717e-08 6.46907e-11 1.92107e-08 1.59548e-10 6.37516e-08 0.00010517)
(3.51709e-08 1.36751e-10 1.26058e-08 1.51269e-10 6.41225e-08 0.000105704)
(2.91514e-08 2.61003e-10 -3.61992e-09 1.51823e-10 6.36679e-08 0.000105431)
(2.41276e-08 1.62216e-10 -1.15504e-08 1.47756e-10 6.03323e-08 0.000104244)
(1.68781e-08 2.12902e-10 3.49657e-08 1.53093e-10 6.07591e-08 0.000104215)
(3.35398e-08 1.38029e-10 3.20904e-08 2.71102e-10 9.71295e-08 0.000115336)
(3.74396e-08 1.96984e-10 5.4566e-08 2.76797e-10 9.98492e-08 0.000116359)
(3.15928e-08 5.31708e-10 8.04906e-08 2.77735e-10 1.0179e-07 0.000117115)
(3.55425e-08 2.46425e-10 3.7254e-08 3.35057e-10 1.06541e-07 0.000117229)
(5.44637e-08 2.49154e-10 3.02352e-09 3.44296e-10 1.06114e-07 0.000116255)
(4.14724e-08 5.66885e-10 1.87833e-08 3.09996e-10 1.00911e-07 0.000115885)
(3.6354e-08 2.97599e-10 4.15299e-08 3.01135e-10 1.00608e-07 0.000115795)
(4.31496e-08 1.11505e-10 2.0402e-08 3.13183e-10 1.03446e-07 0.0001164)
(4.7394e-08 2.16018e-10 1.54654e-08 2.98431e-10 1.03992e-07 0.000117041)
(3.97209e-08 4.10015e-10 -4.33819e-09 2.98979e-10 1.03423e-07 0.00011674)
(3.27342e-08 2.68149e-10 -1.55498e-08 2.90008e-10 9.81807e-08 0.000115271)
(2.269e-08 3.55667e-10 4.40887e-08 2.99944e-10 9.86955e-08 0.000115202)
(4.35276e-08 1.9016e-10 3.68717e-08 4.77341e-10 1.42326e-07 0.000122948)
(4.86135e-08 3.24213e-10 6.8551e-08 4.88482e-10 1.46356e-07 0.000124168)
(4.07867e-08 8.08832e-10 9.81925e-08 4.95745e-10 1.49847e-07 0.000125152)
(4.59667e-08 3.43424e-10 3.41176e-08 5.9449e-10 1.56536e-07 0.00012526)
(7.02092e-08 3.45455e-10 -3.02689e-09 6.06554e-10 1.54772e-07 0.00012399)
(5.36885e-08 8.21218e-10 2.38251e-08 5.44981e-10 1.47753e-07 0.000123609)
(4.73144e-08 4.39708e-10 4.74662e-08 5.31332e-10 1.47638e-07 0.000123545)
(5.57068e-08 1.73741e-10 1.99856e-08 5.52401e-10 1.51431e-07 0.000124218)
(6.08948e-08 3.16025e-10 1.81123e-08 5.28329e-10 1.52159e-07 0.000124951)
(5.16161e-08 5.98689e-10 -4.67897e-09 5.2884e-10 1.51544e-07 0.000124639)
(4.23801e-08 4.11372e-10 -1.95476e-08 5.11104e-10 1.43883e-07 0.000122909)
(2.91065e-08 5.5208e-10 5.33221e-08 5.27746e-10 1.44405e-07 0.000122785)
(5.45345e-08 2.41419e-10 4.04583e-08 7.78035e-10 1.95315e-07 0.000127443)
(6.09552e-08 4.98282e-10 8.29594e-08 7.98153e-10 2.00991e-07 0.000128845)
(5.08775e-08 1.16349e-09 1.15936e-07 8.191e-10 2.06675e-07 0.000130067)
(5.7428e-08 4.49389e-10 2.78696e-08 9.77559e-10 2.15657e-07 0.000130163)
(8.73516e-08 4.48466e-10 -1.06613e-08 9.89544e-10 2.11736e-07 0.000128585)
(6.70897e-08 1.12462e-09 2.95283e-08 8.8765e-10 2.02786e-07 0.000128213)
(5.94451e-08 6.11736e-10 5.24939e-08 8.68653e-10 2.03039e-07 0.000128186)
(6.94262e-08 2.50686e-10 1.81507e-08 9.02567e-10 2.07833e-07 0.000128905)
(7.55204e-08 4.36635e-10 2.05356e-08 8.65787e-10 2.08729e-07 0.000129716)
(6.47524e-08 8.27536e-10 -4.38258e-09 8.66443e-10 2.08163e-07 0.000129408)
(5.30029e-08 5.97054e-10 -2.31249e-08 8.34104e-10 1.97564e-07 0.000127444)
(3.60679e-08 8.11205e-10 6.25888e-08 8.59697e-10 1.97966e-07 0.000127253)
(6.65065e-08 2.84167e-10 4.28319e-08 1.19103e-09 2.53365e-07 0.000129147)
(7.44192e-08 7.25737e-10 9.76516e-08 1.22507e-09 2.61029e-07 0.000130715)
(6.18313e-08 1.60169e-09 1.33746e-07 1.27111e-09 2.69627e-07 0.000132176)
(6.98823e-08 5.58601e-10 1.93165e-08 1.51185e-09 2.81288e-07 0.000132259)
(1.0576e-07 5.51947e-10 -1.92682e-08 1.51732e-09 2.7427e-07 0.000130374)
(8.15978e-08 1.47441e-09 3.60028e-08 1.35938e-09 2.63334e-07 0.000130026)
(7.26989e-08 8.11769e-10 5.68245e-08 1.33534e-09 2.64155e-07 0.00013004)
(8.42235e-08 3.40038e-10 1.52205e-08 1.38627e-09 2.69964e-07 0.000130788)
(9.11536e-08 5.77452e-10 2.27616e-08 1.33273e-09 2.70976e-07 0.000131661)
(7.90707e-08 1.09684e-09 -3.17798e-09 1.33422e-09 2.7058e-07 0.00013137)
(6.45649e-08 8.30894e-10 -2.58248e-08 1.27916e-09 2.56566e-07 0.000129204)
(4.35346e-08 1.1415e-09 7.19122e-08 1.31582e-09 2.56674e-07 0.000128938)
(7.94149e-08 3.09634e-10 4.40178e-08 1.73518e-09 3.15584e-07 0.000128391)
(8.89899e-08 1.01253e-09 1.12541e-07 1.78992e-09 3.25581e-07 0.000130105)
(7.36434e-08 2.12764e-09 1.5171e-07 1.87745e-09 3.37877e-07 0.0001318)
(8.33137e-08 6.63976e-10 9.25746e-09 2.22756e-09 3.52635e-07 0.000131875)
(1.25345e-07 6.49421e-10 -2.83226e-08 2.21515e-09 3.41496e-07 0.000129695)
(9.71662e-08 1.86715e-09 4.32847e-08 1.98325e-09 3.28563e-07 0.000129378)
(8.70575e-08 1.03682e-09 6.06993e-08 1.95563e-09 3.30153e-07 0.000129436)
(1.0005e-07 4.38719e-10 1.15447e-08 2.02779e-09 3.36968e-07 0.000130198)
(1.07715e-07 7.38135e-10 2.4829e-08 1.95275e-09 3.38007e-07 0.000131116)
(9.45397e-08 1.40662e-09 -8.27093e-10 1.95645e-09 3.37919e-07 0.000130851)
(7.70543e-08 1.11923e-09 -2.72173e-08 1.86791e-09 3.20073e-07 0.000128516)
(5.14881e-08 1.55122e-09 8.1385e-08 1.91716e-09 3.19676e-07 0.000128171)
(9.32554e-08 3.08293e-10 4.40199e-08 2.42877e-09 3.80421e-07 0.000125494)
(1.04681e-07 1.36401e-09 1.27552e-07 2.51327e-09 3.93096e-07 0.000127334)
(8.63373e-08 2.74374e-09 1.69899e-07 2.66456e-09 4.0993e-07 0.000129254)
(9.77339e-08 7.57383e-10 -1.69252e-09 3.15588e-09 4.28233e-07 0.000129329)
(1.46052e-07 7.34543e-10 -3.74926e-08 3.10789e-09 4.11884e-07 0.00012687)
(1.1378e-07 2.29876e-09 5.13177e-08 2.78256e-09 3.96979e-07 0.000126587)
(1.02532e-07 1.28312e-09 6.4302e-08 2.75426e-09 3.99542e-07 0.000126688)
(1.16894e-07 5.43343e-10 7.40166e-09 2.85146e-09 4.07326e-07 0.000127454)
(1.2516e-07 9.18881e-10 2.67652e-08 2.74941e-09 4.08264e-07 0.000128401)
(1.11156e-07 1.75722e-09 2.84414e-09 2.7576e-09 4.08631e-07 0.00012817)
(9.04836e-08 1.4696e-09 -2.69507e-08 2.62209e-09 3.86616e-07 0.000125697)
(5.9929e-08 2.04808e-09 9.11305e-08 2.68441e-09 3.85476e-07 0.000125273)
(1.08047e-07 2.70392e-10 4.27796e-08 3.29059e-09 4.46374e-07 0.000120754)
(1.21535e-07 1.78526e-09 1.42574e-07 3.41668e-09 4.62066e-07 0.000122699)
(9.99632e-08 3.45093e-09 1.88287e-07 3.66083e-09 4.84328e-07 0.000124834)
(1.1318e-07 8.298e-10 -1.31978e-08 4.3301e-09 5.06639e-07 0.000124921)
(1.67865e-07 8.01089e-10 -4.66599e-08 4.22113e-09 4.83944e-07 0.000122204)
(1.31455e-07 2.76477e-09 5.9945e-08 3.78207e-09 4.67125e-07 0.000121952)
(1.19162e-07 1.5463e-09 6.77169e-08 3.75753e-09 4.70862e-07 0.000122094)
(1.34776e-07 6.50798e-10 2.94966e-09 3.88277e-09 4.79548e-07 0.000122855)
(1.43479e-07 1.12075e-09 2.8572e-08 3.74741e-09 4.80215e-07 0.000123816)
(1.28941e-07 2.14956e-09 7.90884e-09 3.76342e-09 4.81193e-07 0.000123623)
(1.04888e-07 1.89094e-09 -2.4795e-08 3.5647e-09 4.54762e-07 0.000121044)
(6.88756e-08 2.63942e-09 1.01251e-07 3.63892e-09 4.52625e-07 0.000120543)
(1.23825e-07 1.86286e-10 4.02035e-08 4.33991e-09 5.11842e-07 0.000114462)
(1.39612e-07 2.28136e-09 1.57441e-07 4.52286e-09 5.30876e-07 0.000116493)
(1.1459e-07 4.24886e-09 2.06712e-07 4.8967e-09 5.59499e-07 0.000118831)
(1.29709e-07 8.71513e-10 -2.51422e-08 5.78567e-09 5.86278e-07 0.000118943)
(1.90786e-07 8.43019e-10 -5.58539e-08 5.58139e-09 5.56062e-07 0.000115986)
(1.50227e-07 3.25998e-09 6.89302e-08 5.00814e-09 5.37424e-07 0.000115762)
(1.37005e-07 1.82139e-09 7.09273e-08 4.99338e-09 5.42539e-07 0.000115944)
(1.53739e-07 7.58467e-10 -1.7647e-09 5.14838e-09 5.52023e-07 0.000116694)
(1.62682e-07 1.34583e-09 3.02273e-08 4.97261e-09 5.5221e-07 0.000117653)
(1.47935e-07 2.58537e-09 1.43392e-08 5.00083e-09 5.53954e-07 0.000117502)
(1.20318e-07 2.39366e-09 -2.06436e-08 4.72016e-09 5.22962e-07 0.000114844)
(7.8358e-08 3.33206e-09 1.11786e-07 4.80297e-09 5.19562e-07 0.000114272)
(1.40626e-07 4.64051e-11 3.61811e-08 5.59637e-09 5.75142e-07 0.000106907)
(1.58974e-07 2.85703e-09 1.71929e-07 5.85549e-09 5.97831e-07 0.000109006)
(1.30298e-07 5.13578e-09 2.24877e-07 6.40465e-09 6.33771e-07 0.000111535)
(1.47382e-07 8.72295e-10 -3.75991e-08 7.5601e-09 6.65448e-07 0.000111682)
(2.14823e-07 8.53886e-10 -6.51994e-08 7.21611e-09 6.26502e-07 0.000108506)
(1.70139e-07 3.77787e-09 7.80053e-08 6.48859e-09 6.06196e-07 0.000108308)
(1.56128e-07 2.10276e-09 7.38153e-08 6.4912e-09 6.12896e-07 0.000108527)
(1.73838e-07 8.64378e-10 -6.79817e-09 6.67593e-09 6.23028e-07 0.000109259)
(1.82785e-07 1.59742e-09 3.16914e-08 6.45188e-09 6.22489e-07 0.000110202)
(1.68177e-07 3.06681e-09 2.20342e-08 6.4978e-09 6.2516e-07 0.000110095)
(1.36825e-07 2.9892e-09 -1.44935e-08 6.11426e-09 5.89565e-07 0.000107386)
(8.84111e-08 4.13216e-09 1.22695e-07 6.19965e-09 5.84634e-07 0.000106748)
(1.58484e-07 -1.58614e-10 3.0583e-08 7.08026e-09 6.34537e-07 9.83794e-05)
(1.79682e-07 3.51661e-09 1.85756e-07 7.43969e-09 6.61173e-07 0.000100526)
(1.47166e-07 6.10876e-09 2.4235e-07 8.21959e-09 7.05396e-07 0.000103233)
(1.66263e-07 8.21681e-10 -5.08161e-08 9.69322e-09 7.42342e-07 0.000103423)
(2.39972e-07 8.26832e-10 -7.48677e-08 9.15408e-09 6.93434e-07 0.000100046)
(1.91232e-07 4.31068e-09 8.6895e-08 8.25305e-09 6.71683e-07 9.9874e-05)
(1.76596e-07 2.38385e-09 7.61806e-08 8.2821e-09 6.80182e-07 0.000100129)
(1.95128e-07 9.67117e-10 -1.2277e-08 8.4943e-09 6.90756e-07 0.000100836)
(2.03804e-07 1.88013e-09 3.29084e-08 8.21346e-09 6.89215e-07 0.000101749)
(1.897e-07 3.5967e-09 3.08212e-08 8.28361e-09 6.92973e-07 0.000101688)
(1.54459e-07 3.68993e-09 -6.44079e-09 7.77446e-09 6.52844e-07 9.89556e-05)
(9.90706e-08 5.04521e-09 1.33838e-07 7.85323e-09 6.46109e-07 9.82575e-05)
(1.77416e-07 -4.38363e-10 2.3303e-08 8.81209e-09 6.88277e-07 8.91638e-05)
(2.01774e-07 4.26365e-09 1.98596e-07 9.30157e-09 7.19127e-07 9.13402e-05)
(1.6527e-07 7.16356e-09 2.58599e-07 1.03786e-08 7.72582e-07 9.42098e-05)
(1.86407e-07 7.08718e-10 -6.50948e-08 1.22269e-08 8.15077e-07 9.44476e-05)
(2.66206e-07 7.5418e-10 -8.50031e-08 1.14251e-08 7.54969e-07 9.08862e-05)
(2.13528e-07 4.84904e-09 9.5338e-08 1.03326e-08 7.32091e-07 9.0745e-05)
(1.98461e-07 2.65688e-09 7.77813e-08 1.03985e-08 7.42606e-07 9.10354e-05)
(2.17651e-07 1.06547e-09 -1.83367e-08 1.06331e-08 7.53354e-07 9.17097e-05)
(2.25738e-07 2.19997e-09 3.3814e-08 1.02864e-08 7.50519e-07 9.25771e-05)
(2.12518e-07 4.17828e-09 4.04709e-08 1.03884e-08 7.55512e-07 9.25643e-05)
(1.73253e-07 4.5085e-09 3.3389e-09 9.72945e-09 7.11034e-07 8.98374e-05)
(1.10366e-07 6.0759e-09 1.4497e-07 9.78876e-09 7.02224e-07 8.90857e-05)
(1.97409e-07 -8.0316e-10 1.42893e-08 1.08121e-08 7.34653e-07 7.95437e-05)
(2.25253e-07 5.10026e-09 2.10093e-07 1.14678e-08 7.69954e-07 8.17307e-05)
(1.84662e-07 8.29451e-09 2.73038e-07 1.29207e-08 8.33538e-07 8.47447e-05)
(2.07843e-07 5.21796e-10 -8.06875e-08 1.52045e-08 8.81739e-07 8.50294e-05)
(2.93456e-07 6.27162e-10 -9.56728e-08 1.40591e-08 8.09221e-07 8.13045e-05)
(2.37021e-07 5.38202e-09 1.03101e-07 1.27589e-08 7.85642e-07 8.12009e-05)
(2.21745e-07 2.91239e-09 7.83729e-08 1.28737e-08 7.98389e-07 8.15257e-05)
(2.41421e-07 1.1581e-09 -2.50719e-08 1.31219e-08 8.08977e-07 8.21583e-05)
(2.4856e-07 2.56424e-09 3.4345e-08 1.27001e-08 8.04551e-07 8.29675e-05)
(2.36607e-07 4.81498e-09 5.071e-08 1.28427e-08 8.10913e-07 8.30026e-05)
(1.93212e-07 5.45745e-09 1.46024e-08 1.20086e-08 7.62395e-07 8.03122e-05)
(1.22315e-07 7.22802e-09 1.5575e-07 1.20314e-08 7.51236e-07 7.9513e-05)
(2.18409e-07 -1.26452e-09 3.5693e-09 1.30993e-08 7.72062e-07 6.97937e-05)
(2.50068e-07 6.02658e-09 2.19872e-07 1.39647e-08 8.1201e-07 7.19717e-05)
(2.05364e-07 9.49427e-09 2.85074e-07 1.58862e-08 8.8653e-07 7.51068e-05)
(2.30564e-07 2.4848e-10 -9.77097e-08 1.86702e-08 9.40437e-07 7.5433e-05)
(3.21595e-07 4.36038e-10 -1.06836e-07 1.70856e-08 8.54373e-07 7.15697e-05)
(2.61654e-07 5.8974e-09 1.09984e-07 1.55641e-08 8.30639e-07 7.1513e-05)
(2.46429e-07 3.13881e-09 7.7746e-08 1.57411e-08 8.45822e-07 7.18714e-05)
(2.66413e-07 1.24324e-09 -3.25022e-08 1.59897e-08 8.55854e-07 7.24525e-05)
(2.722e-07 2.98141e-09 3.44477e-08 1.54833e-08 8.49555e-07 7.31913e-05)
(2.61891e-07 5.51041e-09 6.12307e-08 1.56766e-08 8.57388e-07 7.32736e-05)
(2.14299e-07 6.5488e-09 2.70435e-08 1.46411e-08 8.05268e-07 7.06524e-05)
(1.34915e-07 8.50432e-09 1.65756e-07 1.46055e-08 7.91491e-07 6.98117e-05)
(2.40305e-07 -1.83557e-09 -8.73443e-09 1.56911e-08 7.99075e-07 6.01728e-05)
(2.761e-07 7.04012e-09 2.27558e-07 1.6818e-08 8.43811e-07 6.23219e-05)
(2.27348e-07 1.07536e-08 2.94149e-07 1.93158e-08 9.29934e-07 6.55483e-05)
(2.54512e-07 -1.24273e-10 -1.16079e-07 2.26679e-08 9.8936e-07 6.59066e-05)
(3.50423e-07 1.70364e-10 -1.18331e-07 2.05324e-08 8.88749e-07 6.19367e-05)
(2.8731e-07 6.38194e-09 1.15825e-07 1.87794e-08 8.65526e-07 6.19367e-05)
(2.72434e-07 3.32211e-09 7.5756e-08 1.90336e-08 8.83325e-07 6.23275e-05)
(2.92543e-07 1.3185e-09 -4.05545e-08 1.92634e-08 8.92348e-07 6.28475e-05)
(2.96538e-07 3.46085e-09 3.40847e-08 1.86636e-08 8.83926e-07 6.35057e-05)
(2.8823e-07 6.2682e-09 7.16979e-08 1.89189e-08 8.93299e-07 6.36327e-05)
(2.36421e-07 7.79378e-09 4.02935e-08 1.7655e-08 8.38145e-07 6.11141e-05)
(1.48136e-07 9.90635e-09 1.74508e-07 1.75338e-08 8.21488e-07 6.02385e-05)
(2.6292e-07 -2.5314e-09 -2.2396e-08 1.86021e-08 8.14505e-07 5.09162e-05)
(3.03145e-07 8.13505e-09 2.32786e-07 2.00513e-08 8.64096e-07 5.3016e-05)
(2.50526e-07 1.20615e-08 2.99774e-07 2.32505e-08 9.62301e-07 5.62976e-05)
(2.7956e-07 -6.09571e-10 -1.35485e-07 2.72408e-08 1.02684e-06 5.66748e-05)
(3.7966e-07 -1.80416e-10 -1.29877e-07 2.44246e-08 9.10893e-07 5.2638e-05)
(3.13793e-07 6.82184e-09 1.205e-07 2.24348e-08 8.88955e-07 5.27039e-05)
(2.99607e-07 3.4456e-09 7.23443e-08 2.27828e-08 9.09518e-07 5.31247e-05)
(3.1966e-07 1.3809e-09 -4.90645e-08 2.29672e-08 9.17031e-07 5.35752e-05)
(3.21391e-07 4.01253e-09 3.32397e-08 2.22658e-08 9.0629e-07 5.41448e-05)
(3.15402e-07 7.09191e-09 8.17563e-08 2.2596e-08 9.17224e-07 5.43127e-05)
(2.5942e-07 9.20256e-09 5.39198e-08 2.10765e-08 8.59734e-07 5.19296e-05)
(1.61918e-07 1.14344e-08 1.81499e-07 2.08361e-08 8.39949e-07 5.10265e-05)
(2.86001e-07 -3.36915e-09 -3.70856e-08 2.18435e-08 8.17465e-07 4.2227e-05)
(3.30902e-07 9.30169e-09 2.35222e-07 2.3686e-08 8.71889e-07 4.42577e-05)
(2.74737e-07 1.34044e-08 3.01561e-07 2.77302e-08 9.82412e-07 4.75519e-05)
(3.05508e-07 -1.2195e-09 -1.55396e-07 3.24297e-08 1.05144e-06 4.79325e-05)
(4.08933e-07 -6.26069e-10 -1.41085e-07 2.87838e-08 9.19638e-07 4.38767e-05)
(3.4082e-07 7.20311e-09 1.2392e-07 2.6558e-08 8.99849e-07 4.40149e-05)
(3.27715e-07 3.48992e-09 6.75483e-08 2.7018e-08 9.23276e-07 4.44625e-05)
(3.47532e-07 1.42696e-09 -5.77911e-08 2.71216e-08 9.28748e-07 4.48368e-05)
(3.46507e-07 4.64655e-09 3.19192e-08 2.63119e-08 9.15561e-07 4.5313e-05)
(3.43099e-07 7.98489e-09 9.10402e-08 2.67311e-08 9.28026e-07 4.5516e-05)
(2.83059e-07 1.07841e-08 6.74278e-08 2.49289e-08 8.69021e-07 4.32992e-05)
(1.7616e-07 1.30876e-08 1.86218e-07 2.45287e-08 8.45885e-07 4.23767e-05)
(3.09216e-07 -4.36779e-09 -5.23747e-08 2.54224e-08 8.07429e-07 3.42699e-05)
(3.58972e-07 1.05258e-08 2.34585e-07 2.77402e-08 8.66551e-07 3.62122e-05)
(2.99736e-07 1.47669e-08 2.99243e-07 3.27934e-08 9.89329e-07 3.94716e-05)
(3.32067e-07 -1.96352e-09 -1.75089e-07 3.82723e-08 1.06197e-06 3.98391e-05)
(4.37782e-07 -1.17439e-09 -1.51484e-07 3.36273e-08 9.14167e-07 3.58187e-05)
(3.68018e-07 7.51193e-09 1.26036e-07 3.11745e-08 8.97455e-07 3.60323e-05)
(3.56432e-07 3.4333e-09 6.15026e-08 3.17661e-08 9.2379e-07 3.65024e-05)
(3.75839e-07 1.45302e-09 -6.64392e-08 3.17423e-08 9.26676e-07 3.67966e-05)
(3.71563e-07 5.37268e-09 3.01503e-08 3.082e-08 9.11e-07 3.71773e-05)
(3.7092e-07 8.9501e-09 9.91848e-08 3.13434e-08 9.24915e-07 3.74086e-05)
(3.07023e-07 1.25459e-08 8.02701e-08 2.92318e-08 8.65321e-07 3.53848e-05)
(1.90722e-07 1.48632e-08 1.88189e-07 2.86232e-08 8.3865e-07 3.44524e-05)
(3.32154e-07 -5.54749e-09 -6.77475e-08 2.9342e-08 7.84264e-07 2.71667e-05)
(3.86854e-07 1.17884e-08 2.3067e-07 3.22286e-08 8.47815e-07 2.90029e-05)
(3.25191e-07 1.61311e-08 2.92695e-07 3.84763e-08 9.82438e-07 3.21768e-05)
(3.58858e-07 -2.84636e-09 -1.937e-07 4.48022e-08 1.05758e-06 3.25147e-05)
(4.65659e-07 -1.8298e-09 -1.6055e-07 3.89681e-08 8.94069e-07 2.85891e-05)
(3.94924e-07 7.73479e-09 1.26839e-07 3.63065e-08 8.81383e-07 2.8877e-05)
(3.8534e-07 3.25216e-09 5.44299e-08 3.70505e-08 9.10606e-07 2.9364e-05)
(4.04177e-07 1.45561e-09 -7.46873e-08 3.68398e-08 9.10377e-07 2.95775e-05)
(3.96164e-07 6.19981e-09 2.79763e-08 3.5804e-08 8.92256e-07 2.98638e-05)
(3.98373e-07 9.9898e-09 1.0584e-07 3.6447e-08 9.07489e-07 3.01159e-05)
(3.30915e-07 1.44934e-08 9.18635e-08 3.40007e-08 8.48316e-07 2.83056e-05)
(2.05423e-07 1.6757e-08 1.86994e-07 3.3126e-08 8.1798e-07 2.73737e-05)
(3.54335e-07 -6.92849e-09 -8.26194e-08 3.36009e-08 7.48247e-07 2.09941e-05)
(4.13962e-07 1.30649e-08 2.23375e-07 3.71619e-08 8.15806e-07 2.27084e-05)
(3.50681e-07 1.74765e-08 2.8195e-07 4.48121e-08 9.61472e-07 2.57457e-05)
(3.85419e-07 -3.86555e-09 -2.10295e-07 5.20482e-08 1.03781e-06 2.60394e-05)
(4.91952e-07 -2.59175e-09 -1.67753e-07 4.48144e-08 8.59364e-07 2.22696e-05)
(4.20993e-07 7.85848e-09 1.26354e-07 4.19738e-08 8.51634e-07 2.26259e-05)
(4.13935e-07 2.92192e-09 4.66264e-08 4.28911e-08 8.83656e-07 2.31237e-05)
(4.32057e-07 1.43188e-09 -8.22143e-08 4.24188e-08 8.79822e-07 2.32589e-05)
(4.19852e-07 7.13554e-09 2.54474e-08 4.12733e-08 8.59393e-07 2.34551e-05)
(4.24886e-07 1.11052e-08 1.10688e-07 4.20508e-08 8.75762e-07 2.37199e-05)
(3.54266e-07 1.66295e-08 1.01615e-07 3.92464e-08 8.18077e-07 2.21368e-05)
(2.20042e-07 1.87629e-08 1.82309e-07 3.80382e-08 7.84021e-07 2.12166e-05)
(3.75221e-07 -8.52934e-09 -9.63623e-08 3.81936e-08 7.00063e-07 1.57849e-05)
(4.39635e-07 1.43256e-08 2.1272e-07 4.25471e-08 7.71044e-07 1.73643e-05)
(3.75703e-07 1.87802e-08 2.67209e-07 5.18306e-08 9.26524e-07 2.0216e-05)
(4.11211e-07 -5.00891e-09 -2.23943e-07 6.00325e-08 1.00257e-06 2.04538e-05)
(5.15997e-07 -3.45328e-09 -1.72597e-07 5.11704e-08 8.10514e-07 1.68993e-05)
(4.45621e-07 7.86995e-09 1.24643e-07 4.81929e-08 8.08596e-07 1.73136e-05)
(4.41642e-07 2.41818e-09 3.8441e-08 4.93041e-08 8.43261e-07 1.78157e-05)
(4.58916e-07 1.37997e-09 -8.87246e-08 4.84781e-08 8.35408e-07 1.78784e-05)
(4.4212e-07 8.18569e-09 2.26117e-08 4.72328e-08 8.12891e-07 1.79909e-05)
(4.49827e-07 1.22959e-08 1.13453e-07 4.81578e-08 8.30172e-07 1.82606e-05)
(3.7655e-07 1.89537e-08 1.08951e-07 4.49746e-08 7.75064e-07 1.69103e-05)
(2.34327e-07 2.08717e-08 1.73923e-07 4.33551e-08 7.37321e-07 1.60137e-05)
(3.94243e-07 -1.03648e-08 -1.08337e-07 4.3111e-08 6.40775e-07 1.15313e-05)
(4.63177e-07 1.55355e-08 1.9886e-07 4.83875e-08 7.14415e-07 1.29657e-05)
(3.99692e-07 2.00163e-08 2.48841e-07 5.95571e-08 8.78037e-07 1.5588e-05)
(4.35639e-07 -6.25228e-09 -2.33804e-07 6.87709e-08 9.52167e-07 1.57622e-05)
(5.37117e-07 -4.39969e-09 -1.74677e-07 5.80365e-08 7.48405e-07 1.2477e-05)
(4.68167e-07 7.75606e-09 1.21797e-07 5.49776e-08 7.5303e-07 1.29352e-05)
(4.67834e-07 1.7182e-09 3.02505e-08 5.63014e-08 7.9012e-07 1.34349e-05)
(4.84144e-07 1.29936e-09 -9.39704e-08 5.50106e-08 7.77943e-07 1.34338e-05)
(4.62433e-07 9.35385e-09 1.95047e-08 5.36833e-08 7.53628e-07 1.34708e-05)
(4.72529e-07 1.35597e-08 1.13922e-07 5.47651e-08 7.71561e-07 1.37385e-05)
(3.97204e-07 2.14608e-08 1.13355e-07 5.11864e-08 7.20102e-07 1.26183e-05)
(2.47999e-07 2.30712e-08 1.61764e-07 4.90663e-08 6.78819e-07 1.17571e-05)
(4.10825e-07 -1.24434e-08 -1.17932e-07 4.83406e-08 5.71777e-07 8.18981e-06)
(4.83881e-07 1.66546e-08 1.82097e-07 5.46828e-08 6.47138e-07 9.47289e-06)
(4.2204e-07 2.11566e-08 2.27378e-07 6.80116e-08 8.16783e-07 1.18297e-05)
(4.58078e-07 -7.55761e-09 -2.392e-07 7.82712e-08 8.87323e-07 1.19374e-05)
(5.54652e-07 -5.40756e-09 -1.73716e-07 6.54103e-08 6.74313e-07 8.96692e-06)
(4.87993e-07 7.50334e-09 1.17928e-07 6.23391e-08 6.86037e-07 9.45169e-06)
(4.91861e-07 8.02573e-10 2.24339e-08 6.3891e-08 7.25274e-07 9.94255e-06)
(5.071e-07 1.19115e-09 -9.77689e-08 6.20031e-08 7.08618e-07 9.88865e-06)
(4.80253e-07 1.0641e-08 1.61404e-08 6.06211e-08 6.82846e-07 9.85979e-06)
(4.92324e-07 1.48918e-08 1.11952e-07 6.18637e-08 7.01143e-07 1.01191e-05)
(4.1566e-07 2.41397e-08 1.14398e-07 5.78773e-08 6.54347e-07 9.21898e-06)
(2.60771e-07 2.53451e-08 1.45912e-07 5.5156e-08 6.098e-07 8.40423e-06)
(4.24419e-07 -1.47642e-08 -1.24603e-07 5.38678e-08 4.94732e-07 5.6886e-06)
(5.01082e-07 1.76389e-08 1.62874e-07 6.14294e-08 5.70706e-07 6.8176e-06)
(4.42128e-07 2.21702e-08 2.03494e-07 7.7208e-08 7.43832e-07 8.883e-06)
(4.77907e-07 -8.87205e-09 -2.39695e-07 8.8532e-08 8.09112e-07 8.9261e-06)
(5.68001e-07 -6.44438e-09 -1.69612e-07 7.32872e-08 5.89845e-07 6.30406e-06)
(5.04501e-07 7.09769e-09 1.13165e-07 7.02861e-08 6.09001e-07 6.79646e-06)
(5.13087e-07 -3.42979e-10 1.53453e-08 7.20761e-08 6.50066e-07 7.2726e-06)
(5.27154e-07 1.05833e-09 -1.00015e-07 6.94369e-08 6.28952e-07 7.17848e-06)
(4.95073e-07 1.20452e-08 1.25063e-08 6.8039e-08 6.02092e-07 7.09375e-06)
(5.08586e-07 1.62847e-08 1.0748e-07 6.94387e-08 6.20451e-07 7.33964e-06)
(4.31383e-07 2.69718e-08 1.11774e-07 6.50378e-08 5.79229e-07 6.6425e-06)
(2.72357e-07 2.76716e-08 1.26607e-07 6.16032e-08 5.31839e-07 5.88431e-06)
(4.34542e-07 -1.73148e-08 -1.27919e-07 5.96758e-08 4.11493e-07 3.93461e-06)
(5.14198e-07 1.84418e-08 1.41766e-07 6.86204e-08 4.86821e-07 4.91078e-06)
(4.59365e-07 2.30248e-08 1.77979e-07 8.71519e-08 6.6051e-07 6.67024e-06)
(4.94546e-07 -1.01281e-08 -2.3514e-07 9.95417e-08 7.18952e-07 6.65542e-06)
(5.76672e-07 -7.46917e-09 -1.62457e-07 8.16616e-08 4.96869e-07 4.40184e-06)
(5.17181e-07 6.52433e-09 1.07646e-07 7.88243e-08 5.23531e-07 4.88254e-06)
(5.30927e-07 -1.72567e-09 9.28925e-09 8.08553e-08 5.66082e-07 5.33872e-06)
(5.43718e-07 9.05793e-10 -1.00691e-07 7.7288e-08 5.40739e-07 5.21768e-06)
(5.0645e-07 1.35607e-08 8.56144e-09 7.59257e-08 5.13155e-07 5.08714e-06)
(5.20777e-07 1.77276e-08 1.00525e-07 7.74687e-08 5.31272e-07 5.31568e-06)
(4.43904e-07 2.99297e-08 1.05326e-07 7.26531e-08 4.96394e-07 4.79911e-06)
(2.82493e-07 3.00232e-08 1.0425e-07 6.83818e-08 4.46732e-07 4.10583e-06)
(4.40815e-07 -2.00683e-08 -1.27604e-07 6.57467e-08 3.24027e-07 2.8215e-06)
(5.22774e-07 1.90157e-08 1.19462e-07 7.62458e-08 3.97326e-07 3.64994e-06)
(4.73227e-07 2.36875e-08 1.51701e-07 9.78391e-08 5.68372e-07 5.10129e-06)
(5.07498e-07 -1.1245e-08 -2.25716e-07 1.11277e-07 6.18567e-07 5.03919e-06)
(5.80314e-07 -8.4338e-09 -1.52552e-07 9.05269e-08 3.97436e-07 3.1592e-06)
(5.2565e-07 5.76791e-09 1.0151e-07 8.79557e-08 4.31407e-07 3.60996e-06)
(5.44888e-07 -3.34381e-09 4.4985e-09 9.0221e-08 4.75094e-07 4.0418e-06)
(5.5629e-07 7.40371e-10 -9.98652e-08 8.55272e-08 4.45975e-07 3.90691e-06)
(5.14043e-07 1.51775e-08 4.23932e-09 8.42655e-08 4.17997e-07 3.74018e-06)
(5.28487e-07 1.92063e-08 9.11962e-08 8.59264e-08 4.35583e-07 3.94866e-06)
(4.52863e-07 3.29762e-08 9.50651e-08 8.07026e-08 4.07633e-07 3.58645e-06)
(2.90955e-07 3.2366e-08 7.93902e-08 7.5461e-08 3.56425e-07 2.96421e-06)
(4.42993e-07 -2.29823e-08 -1.23579e-07 7.20616e-08 2.34329e-07 2.23705e-06)
(5.26526e-07 1.93144e-08 9.67274e-08 8.42917e-08 3.04135e-07 2.92655e-06)
(4.83298e-07 2.41266e-08 1.25562e-07 1.09253e-07 4.69158e-07 4.07981e-06)
(5.16387e-07 -1.21319e-08 -2.11931e-07 1.23699e-07 5.09947e-07 3.98396e-06)
(5.78763e-07 -9.28554e-09 -1.40398e-07 9.98759e-08 2.93702e-07 2.46784e-06)
(5.29694e-07 4.81302e-09 9.48982e-08 9.76773e-08 3.34507e-07 2.87276e-06)
(5.54607e-07 -5.18511e-09 1.11778e-09 1.00159e-07 3.79005e-07 3.27686e-06)
(5.6449e-07 5.70616e-10 -9.76895e-08 9.41201e-08 3.46788e-07 3.14006e-06)
(5.17647e-07 1.68808e-08 -5.43886e-10 9.30381e-08 3.18686e-07 2.94596e-06)
(5.31481e-07 2.07026e-08 7.96833e-08 9.47771e-08 3.35477e-07 3.13279e-06)
(4.58043e-07 3.60631e-08 8.11914e-08 8.91594e-08 3.14825e-07 2.8968e-06)
(2.97574e-07 3.46595e-08 5.27134e-08 8.28056e-08 2.62939e-07 2.34911e-06)
(4.40995e-07 -2.59988e-08 -1.15979e-07 7.86006e-08 1.44347e-07 2.06972e-06)
(5.25368e-07 1.92959e-08 7.43642e-08 9.27397e-08 2.09164e-07 2.63229e-06)
(4.89306e-07 2.43143e-08 1.0044e-07 1.21362e-07 3.64755e-07 3.50852e-06)
(5.2099e-07 -1.2693e-08 -1.94586e-07 1.36757e-07 3.95294e-07 3.39394e-06)
(5.72066e-07 -9.97068e-09 -1.26656e-07 1.097e-07 1.87838e-07 2.21844e-06)
(5.29296e-07 3.64512e-09 8.79515e-08 1.07979e-07 2.34754e-07 2.56508e-06)
(5.5988e-07 -7.22542e-09 -8.01032e-10 1.10644e-07 2.79784e-07 2.93896e-06)
(5.68095e-07 4.06434e-10 -9.43818e-08 1.03027e-07 2.45359e-07 2.81031e-06)
(5.17217e-07 1.86493e-08 -5.87418e-09 1.02217e-07 2.17321e-07 2.59673e-06)
(5.29727e-07 2.21945e-08 6.62535e-08 1.0398e-07 2.3309e-07 2.76127e-06)