/*--------------------------------*- C++ -*----------------------------------*\
| =========                 |                                                 |
| \\      /  F ield         | OpenFOAM: The Open Source CFD Toolbox           |
|  \\    /   O peration     | Version:  v1912                                 |
|   \\  /    A nd           | Website:  www.openfoam.com                      |
|    \\/     M anipulation  |                                                 |
\*---------------------------------------------------------------------------*/
FoamFile
{
    version     2.0;
    format      ascii;
    class       volScalarField;
    location    "8.4";
    object      nut;
}
// * * * * * * * * * * * * * * * * * * * * * * * * * * * * * * * * * * * * * //

dimensions      [0 2 -1 0 0 0 0];


internalField   nonuniform List<scalar> 
34128
(
1.61859e-12
1.61997e-12
1.64962e-12
1.70424e-12
1.73551e-12
1.73222e-12
1.68669e-12
1.61237e-12
1.60425e-12
1.63652e-12
1.69725e-12
1.76613e-12
1.94014e-12
1.91894e-12
1.94259e-12
2.00188e-12
2.0505e-12
2.06457e-12
2.01569e-12
1.93111e-12
1.91606e-12
1.93272e-12
1.98341e-12
2.06075e-12
9.77111e-12
9.3237e-12
9.26325e-12
9.46922e-12
9.8792e-12
1.02166e-11
1.0055e-11
9.69841e-12
9.54359e-12
9.29862e-12
9.22523e-12
9.53913e-12
6.30564e-11
5.97408e-11
5.91048e-11
6.03005e-11
6.31409e-11
6.56413e-11
6.4715e-11
6.25365e-11
6.14341e-11
5.9425e-11
5.85366e-11
6.04648e-11
2.69967e-10
2.55474e-10
2.52453e-10
2.5734e-10
2.6956e-10
2.80472e-10
2.76717e-10
2.67696e-10
2.62838e-10
2.53825e-10
2.49694e-10
2.57795e-10
8.45875e-10
8.00212e-10
7.89975e-10
8.04428e-10
8.4244e-10
8.76874e-10
8.65993e-10
8.38926e-10
8.2326e-10
7.9415e-10
7.80609e-10
8.05277e-10
2.11956e-09
2.00522e-09
1.97754e-09
2.01086e-09
2.10469e-09
2.19139e-09
2.16731e-09
2.10345e-09
2.06288e-09
1.98779e-09
1.95227e-09
2.01119e-09
4.48147e-09
4.24144e-09
4.17855e-09
4.24138e-09
4.43525e-09
4.61917e-09
4.57709e-09
4.45242e-09
4.36354e-09
4.20038e-09
4.12153e-09
4.2375e-09
8.27533e-09
7.83856e-09
7.71496e-09
7.81497e-09
8.16212e-09
8.50203e-09
8.4438e-09
8.23549e-09
8.06536e-09
7.75714e-09
7.60446e-09
7.79872e-09
1.36793e-08
1.29735e-08
1.27589e-08
1.28964e-08
1.34492e-08
1.40096e-08
1.39491e-08
1.36434e-08
1.33524e-08
1.28347e-08
1.25717e-08
1.28552e-08
2.06381e-08
1.96054e-08
1.92699e-08
1.94363e-08
2.02358e-08
2.10757e-08
2.10404e-08
2.06385e-08
2.01855e-08
1.93981e-08
1.89889e-08
1.93563e-08
2.88736e-08
2.74825e-08
2.7003e-08
2.71824e-08
2.82508e-08
2.9413e-08
2.94411e-08
2.89599e-08
2.83087e-08
2.72075e-08
2.66241e-08
2.7053e-08
3.70936e-08
3.54886e-08
3.49253e-08
3.5067e-08
3.6284e-08
3.76678e-08
3.78622e-08
3.74501e-08
3.66833e-08
3.53825e-08
3.45877e-08
3.48713e-08
4.44994e-08
4.26476e-08
4.19737e-08
4.21163e-08
4.35317e-08
4.5159e-08
4.54566e-08
4.50253e-08
4.40782e-08
4.25458e-08
4.16278e-08
4.19101e-08
5.20193e-08
4.99403e-08
4.91535e-08
4.92902e-08
5.08954e-08
5.27598e-08
5.31773e-08
5.27412e-08
5.15969e-08
4.9836e-08
4.88114e-08
4.90844e-08
5.95537e-08
5.72739e-08
5.63743e-08
5.64964e-08
5.8278e-08
6.03687e-08
6.0923e-08
6.0499e-08
5.91416e-08
5.71588e-08
5.60463e-08
5.62994e-08
6.70065e-08
6.45582e-08
6.35481e-08
6.36454e-08
6.55863e-08
6.78894e-08
6.85964e-08
6.82023e-08
6.66169e-08
6.44212e-08
6.32412e-08
6.34626e-08
7.4297e-08
7.17172e-08
7.0601e-08
7.0662e-08
7.27427e-08
7.52418e-08
7.61173e-08
7.5771e-08
7.39432e-08
7.15454e-08
7.03187e-08
7.0495e-08
8.13649e-08
7.86934e-08
7.74769e-08
7.74887e-08
7.96883e-08
8.23667e-08
8.34271e-08
8.31463e-08
8.10602e-08
7.84715e-08
7.72187e-08
7.73354e-08
8.8178e-08
8.54548e-08
8.41435e-08
8.4092e-08
8.63904e-08
8.92331e-08
9.0497e-08
9.02995e-08
8.79345e-08
8.51638e-08
8.39039e-08
8.39456e-08
9.47433e-08
9.20063e-08
9.06027e-08
9.04715e-08
9.2851e-08
9.58485e-08
9.734e-08
9.72444e-08
9.45699e-08
9.16193e-08
9.03688e-08
9.03201e-08
1.01115e-07
9.83989e-08
9.69005e-08
9.66686e-08
9.91159e-08
1.02267e-07
1.04019e-07
1.04047e-07
1.01017e-07
9.78775e-08
9.66493e-08
9.64944e-08
1.07392e-07
1.04729e-07
1.03127e-07
1.02768e-07
1.05273e-07
1.08586e-07
1.10641e-07
1.10821e-07
1.07375e-07
1.04023e-07
1.02824e-07
1.02545e-07
1.13689e-07
1.11121e-07
1.09404e-07
1.08882e-07
1.11434e-07
1.14921e-07
1.17329e-07
1.17698e-07
1.13771e-07
1.10172e-07
1.09002e-07
1.08574e-07
1.20108e-07
1.17689e-07
1.15849e-07
1.15122e-07
1.177e-07
1.21366e-07
1.24181e-07
1.24791e-07
1.20329e-07
1.16447e-07
1.15294e-07
1.1468e-07
1.2668e-07
1.24489e-07
1.22533e-07
1.21554e-07
1.24119e-07
1.27947e-07
1.31217e-07
1.32139e-07
1.27125e-07
1.22936e-07
1.21774e-07
1.20914e-07
1.3333e-07
1.31475e-07
1.29439e-07
1.2816e-07
1.30645e-07
1.34577e-07
1.38324e-07
1.39655e-07
1.34129e-07
1.29652e-07
1.2844e-07
1.27243e-07
1.3981e-07
1.38427e-07
1.36391e-07
1.34796e-07
1.37091e-07
1.41001e-07
1.45184e-07
1.47029e-07
1.41162e-07
1.36491e-07
1.35173e-07
1.33512e-07
1.45601e-07
1.44854e-07
1.42982e-07
1.41114e-07
1.43061e-07
1.46708e-07
1.51159e-07
1.53601e-07
1.47777e-07
1.43153e-07
1.41671e-07
1.39383e-07
1.49969e-07
1.50014e-07
1.48548e-07
1.46532e-07
1.47933e-07
1.50981e-07
1.55432e-07
1.58497e-07
1.53257e-07
1.49067e-07
1.47395e-07
1.44311e-07
1.52316e-07
1.53227e-07
1.52397e-07
1.50401e-07
1.51085e-07
1.53258e-07
1.57463e-07
1.61057e-07
1.56895e-07
1.5357e-07
1.51707e-07
1.47697e-07
1.53056e-07
1.54524e-07
1.54258e-07
1.52409e-07
1.52522e-07
1.5399e-07
1.57875e-07
1.61749e-07
1.58502e-07
1.56229e-07
1.54179e-07
1.49381e-07
1.52329e-07
1.54236e-07
1.54461e-07
1.52829e-07
1.52493e-07
1.5327e-07
1.56751e-07
1.60794e-07
1.58439e-07
1.57e-07
1.54895e-07
1.49611e-07
1.50205e-07
1.52451e-07
1.53156e-07
1.51808e-07
1.51079e-07
1.51168e-07
1.54171e-07
1.58267e-07
1.56839e-07
1.56228e-07
1.54124e-07
1.48483e-07
1.46831e-07
1.49298e-07
1.50454e-07
1.49449e-07
1.48398e-07
1.47848e-07
1.50311e-07
1.54331e-07
1.5381e-07
1.54028e-07
1.51972e-07
1.46102e-07
1.42455e-07
1.44999e-07
1.46544e-07
1.45922e-07
1.44643e-07
1.43559e-07
1.45453e-07
1.49255e-07
1.49539e-07
1.50538e-07
1.48584e-07
1.42636e-07
1.37415e-07
1.39879e-07
1.41715e-07
1.41481e-07
1.40086e-07
1.38637e-07
1.39995e-07
1.43419e-07
1.44311e-07
1.4597e-07
1.44176e-07
1.38332e-07
1.32126e-07
1.34353e-07
1.36344e-07
1.36461e-07
1.35073e-07
1.3348e-07
1.34398e-07
1.37279e-07
1.38501e-07
1.4062e-07
1.39042e-07
1.33509e-07
1.2706e-07
1.28925e-07
1.30884e-07
1.31266e-07
1.30016e-07
1.28536e-07
1.29162e-07
1.31362e-07
1.32565e-07
1.34867e-07
1.33545e-07
1.2854e-07
1.22721e-07
1.24151e-07
1.25835e-07
1.26352e-07
1.25365e-07
1.24277e-07
1.24805e-07
1.26246e-07
1.27011e-07
1.29151e-07
1.28107e-07
1.23847e-07
1.19634e-07
1.20592e-07
1.21772e-07
1.22209e-07
1.21601e-07
1.21197e-07
1.21855e-07
1.22511e-07
1.22389e-07
1.23967e-07
1.23194e-07
1.19887e-07
1.18351e-07
1.18837e-07
1.19271e-07
1.19358e-07
1.19232e-07
1.19815e-07
1.20867e-07
1.20751e-07
1.19275e-07
1.1985e-07
1.19308e-07
1.17151e-07
1.19483e-07
1.19523e-07
1.18939e-07
1.18363e-07
1.18812e-07
1.20721e-07
1.2247e-07
1.21618e-07
1.18294e-07
1.17378e-07
1.16992e-07
1.16177e-07
1.23782e-07
1.234e-07
1.21472e-07
1.19866e-07
1.2099e-07
1.24639e-07
1.27463e-07
1.25905e-07
1.20162e-07
1.17202e-07
1.16863e-07
1.17596e-07
1.32278e-07
1.31478e-07
1.27763e-07
1.24673e-07
1.26606e-07
1.32563e-07
1.36976e-07
1.34718e-07
1.25796e-07
1.20108e-07
1.19672e-07
1.22211e-07
1.46531e-07
1.45261e-07
1.39086e-07
1.33898e-07
1.3685e-07
1.45989e-07
1.52754e-07
1.4975e-07
1.36508e-07
1.27147e-07
1.26428e-07
1.31148e-07
1.6901e-07
1.67128e-07
1.57417e-07
1.49215e-07
1.53548e-07
1.673e-07
1.77601e-07
1.73742e-07
1.54308e-07
1.39864e-07
1.38619e-07
1.46105e-07
2.03582e-07
2.0081e-07
1.85895e-07
1.73261e-07
1.79599e-07
2.00295e-07
2.15944e-07
2.11084e-07
1.82442e-07
1.6069e-07
1.58585e-07
1.69783e-07
2.54137e-07
2.50665e-07
2.29057e-07
2.10034e-07
2.19258e-07
2.48716e-07
2.71948e-07
2.66381e-07
2.25994e-07
1.93497e-07
1.90026e-07
2.06327e-07
3.26013e-07
3.23561e-07
2.91922e-07
2.63357e-07
2.76605e-07
3.05101e-07
3.32695e-07
3.38373e-07
2.9046e-07
2.42388e-07
2.36645e-07
2.59886e-07
3.95749e-07
4.05615e-07
3.67224e-07
3.26212e-07
3.32792e-07
3.68825e-07
4.03747e-07
4.12244e-07
3.65435e-07
3.0858e-07
2.95481e-07
3.16671e-07
4.8007e-07
4.9307e-07
4.47014e-07
3.96227e-07
4.0377e-07
4.4681e-07
4.89018e-07
5.0112e-07
4.47437e-07
3.77509e-07
3.59856e-07
3.85703e-07
5.78526e-07
5.94967e-07
5.41021e-07
4.8082e-07
4.88739e-07
5.38352e-07
5.88598e-07
6.05085e-07
5.44924e-07
4.63195e-07
4.4055e-07
4.69973e-07
6.91959e-07
7.12037e-07
6.49606e-07
5.79449e-07
5.87595e-07
6.44308e-07
7.03396e-07
7.24978e-07
6.58455e-07
5.64888e-07
5.36724e-07
5.69002e-07
8.20652e-07
8.44375e-07
7.73289e-07
6.929e-07
7.01207e-07
7.65258e-07
8.33569e-07
8.60784e-07
7.88504e-07
6.83282e-07
6.48975e-07
6.8364e-07
9.63916e-07
9.91044e-07
9.11672e-07
8.21405e-07
8.29755e-07
9.00905e-07
9.78252e-07
1.01136e-06
9.34484e-07
8.1857e-07
7.77736e-07
8.14044e-07
1.11996e-06
1.14998e-06
1.06326e-06
9.64193e-07
9.72434e-07
1.04991e-06
1.13547e-06
1.17439e-06
1.09458e-06
9.69773e-07
9.22337e-07
9.59239e-07
1.28596e-06
1.31806e-06
1.22546e-06
1.11938e-06
1.12736e-06
1.20988e-06
1.3022e-06
1.34647e-06
1.26577e-06
1.13461e-06
1.08082e-06
1.11701e-06
1.45824e-06
1.49138e-06
1.39472e-06
1.28403e-06
1.29162e-06
1.37752e-06
1.47465e-06
1.52344e-06
1.44409e-06
1.30958e-06
1.24999e-06
1.28399e-06
1.63263e-06
1.6656e-06
1.56691e-06
1.45434e-06
1.46152e-06
1.54891e-06
1.64859e-06
1.70082e-06
1.62499e-06
1.4903e-06
1.42565e-06
1.45599e-06
1.80485e-06
1.83637e-06
1.73765e-06
1.62608e-06
1.63291e-06
1.71988e-06
1.81979e-06
1.87421e-06
1.80382e-06
1.67193e-06
1.6031e-06
1.62841e-06
1.97089e-06
1.99973e-06
1.90279e-06
1.7949e-06
1.80155e-06
1.88638e-06
1.98434e-06
2.03967e-06
1.97624e-06
1.84969e-06
1.77754e-06
1.79672e-06
2.1273e-06
2.15234e-06
2.05869e-06
1.9568e-06
1.96352e-06
2.04481e-06
2.13899e-06
2.19403e-06
2.13856e-06
2.01929e-06
1.94464e-06
1.95689e-06
2.27134e-06
2.29172e-06
2.20251e-06
2.1084e-06
2.11551e-06
2.19225e-06
2.28127e-06
2.33496e-06
2.28797e-06
2.17722e-06
2.1008e-06
2.10567e-06
2.40107e-06
2.41607e-06
2.33228e-06
2.24714e-06
2.25496e-06
2.32657e-06
2.40954e-06
2.46104e-06
2.42256e-06
2.32095e-06
2.24339e-06
2.24074e-06
2.51546e-06
2.52468e-06
2.44689e-06
2.37133e-06
2.38016e-06
2.44648e-06
2.52298e-06
2.57167e-06
2.54133e-06
2.44894e-06
2.37077e-06
2.36073e-06
2.61455e-06
2.61786e-06
2.54606e-06
2.48017e-06
2.49025e-06
2.55144e-06
2.6215e-06
2.66695e-06
2.64407e-06
2.56055e-06
2.48218e-06
2.46479e-06
2.69855e-06
2.69633e-06
2.63015e-06
2.57358e-06
2.58509e-06
2.64158e-06
2.70555e-06
2.74752e-06
2.73124e-06
2.65594e-06
2.57749e-06
2.55312e-06
2.76819e-06
2.76119e-06
2.70005e-06
2.65212e-06
2.66515e-06
2.71753e-06
2.77602e-06
2.81439e-06
2.8038e-06
2.73603e-06
2.6578e-06
2.62704e-06
2.82459e-06
2.81374e-06
2.75696e-06
2.71679e-06
2.73135e-06
2.7803e-06
2.83409e-06
2.86926e-06
2.86303e-06
2.80199e-06
2.72441e-06
2.68799e-06
2.86935e-06
2.8554e-06
2.80236e-06
2.7689e-06
2.78493e-06
2.83114e-06
2.8811e-06
2.91366e-06
2.91037e-06
2.85514e-06
2.77884e-06
2.73755e-06
2.90406e-06
2.88763e-06
2.83775e-06
2.80994e-06
2.82728e-06
2.87143e-06
2.91842e-06
2.94864e-06
2.94722e-06
2.89709e-06
2.82266e-06
2.77742e-06
2.93019e-06
2.91182e-06
2.8646e-06
2.84142e-06
2.85988e-06
2.90259e-06
2.94739e-06
2.97546e-06
2.97505e-06
2.92951e-06
2.85747e-06
2.80924e-06
2.94909e-06
2.92924e-06
2.88428e-06
2.86482e-06
2.88427e-06
2.92604e-06
2.96929e-06
2.99537e-06
2.99526e-06
2.95396e-06
2.88474e-06
2.8342e-06
2.96191e-06
2.941e-06
2.898e-06
2.88156e-06
2.90187e-06
2.9431e-06
2.98524e-06
3.00945e-06
3.00909e-06
2.9718e-06
2.9058e-06
2.85351e-06
2.96962e-06
2.94798e-06
2.90674e-06
2.89287e-06
2.91412e-06
2.95498e-06
2.9962e-06
3.01859e-06
3.01756e-06
2.9842e-06
2.92181e-06
2.8682e-06
2.97294e-06
2.95081e-06
2.91131e-06
2.8998e-06
2.92215e-06
2.96271e-06
3.00296e-06
3.02346e-06
3.02155e-06
2.99208e-06
2.93367e-06
2.87914e-06
2.97237e-06
2.94982e-06
2.9123e-06
2.90318e-06
2.92682e-06
2.96704e-06
3.00602e-06
3.02446e-06
3.02155e-06
2.99606e-06
2.94205e-06
2.88698e-06
2.96808e-06
2.94495e-06
2.91003e-06
2.90355e-06
2.92877e-06
2.96845e-06
3.00569e-06
3.02172e-06
3.0177e-06
2.99648e-06
2.94741e-06
2.89213e-06
1.76037e-12
1.74416e-12
1.7618e-12
1.81865e-12
1.86343e-12
1.87506e-12
1.83051e-12
1.74512e-12
1.72757e-12
1.74627e-12
1.80317e-12
1.88927e-12
2.01814e-12
1.9796e-12
1.9854e-12
2.04235e-12
2.10477e-12
2.13826e-12
2.10008e-12
2.00798e-12
1.97352e-12
1.97295e-12
2.02465e-12
2.11803e-12
8.80681e-12
8.32864e-12
8.12792e-12
8.24723e-12
8.69074e-12
9.14834e-12
9.18138e-12
8.87177e-12
8.49811e-12
8.15176e-12
8.16727e-12
8.49395e-12
5.51505e-11
5.17257e-11
5.01348e-11
5.06767e-11
5.36795e-11
5.6973e-11
5.74683e-11
5.56958e-11
5.30323e-11
5.03576e-11
5.01529e-11
5.20787e-11
2.34895e-10
2.20114e-10
2.13055e-10
2.15078e-10
2.27899e-10
2.42144e-10
2.44529e-10
2.37301e-10
2.25683e-10
2.1387e-10
2.12778e-10
2.20808e-10
7.33998e-10
6.8805e-10
6.65534e-10
6.70976e-10
7.10573e-10
7.55081e-10
7.63258e-10
7.41818e-10
7.05035e-10
6.67457e-10
6.63703e-10
6.8807e-10
1.83396e-09
1.72078e-09
1.66367e-09
1.67455e-09
1.77151e-09
1.88212e-09
1.90486e-09
1.85497e-09
1.76206e-09
1.66693e-09
1.65667e-09
1.71471e-09
3.86449e-09
3.63144e-09
3.50996e-09
3.52618e-09
3.7248e-09
3.95556e-09
4.00948e-09
3.91373e-09
3.71631e-09
3.51416e-09
3.49043e-09
3.60449e-09
7.1089e-09
6.69387e-09
6.46993e-09
6.48646e-09
6.83906e-09
7.25721e-09
7.36882e-09
7.2121e-09
6.8471e-09
6.47439e-09
6.42692e-09
6.61811e-09
1.17042e-08
1.10488e-08
1.06826e-08
1.06879e-08
1.12447e-08
1.19195e-08
1.21244e-08
1.18997e-08
1.12981e-08
1.06877e-08
1.06043e-08
1.08848e-08
1.75879e-08
1.6652e-08
1.61105e-08
1.60879e-08
1.68864e-08
1.7875e-08
1.82141e-08
1.79259e-08
1.70241e-08
1.61191e-08
1.5989e-08
1.63567e-08
2.45117e-08
2.32838e-08
2.2548e-08
2.24793e-08
2.35369e-08
2.48728e-08
2.5386e-08
2.50495e-08
2.38004e-08
2.25663e-08
2.23839e-08
2.28217e-08
3.12021e-08
2.98525e-08
2.90222e-08
2.89195e-08
3.00994e-08
3.16114e-08
3.23122e-08
3.20545e-08
3.06133e-08
2.922e-08
2.89802e-08
2.93074e-08
3.73763e-08
3.58661e-08
3.4908e-08
3.47695e-08
3.61221e-08
3.78656e-08
3.87225e-08
3.84601e-08
3.67407e-08
3.51244e-08
3.48755e-08
3.52208e-08
4.36366e-08
4.19995e-08
4.09242e-08
4.0744e-08
4.22531e-08
4.42112e-08
4.52271e-08
4.4969e-08
4.29655e-08
4.11369e-08
4.08938e-08
4.12504e-08
4.98956e-08
4.8172e-08
4.69947e-08
4.67664e-08
4.84106e-08
5.05603e-08
5.1736e-08
5.14928e-08
4.92047e-08
4.7179e-08
4.69556e-08
4.73136e-08
5.60712e-08
5.43067e-08
5.30463e-08
5.27633e-08
5.45173e-08
5.68311e-08
5.81649e-08
5.79481e-08
5.53798e-08
5.3176e-08
5.29844e-08
5.33312e-08
6.20952e-08
6.03387e-08
5.90172e-08
5.86728e-08
6.05083e-08
6.2955e-08
6.44431e-08
6.42661e-08
6.14259e-08
5.90657e-08
5.89154e-08
5.92357e-08
6.79166e-08
6.62187e-08
6.486e-08
6.44473e-08
6.63343e-08
6.88801e-08
7.05175e-08
7.03958e-08
6.72952e-08
6.48015e-08
6.46985e-08
6.49743e-08
7.35083e-08
7.19198e-08
7.05474e-08
7.00585e-08
7.19667e-08
7.45779e-08
7.63596e-08
7.63115e-08
7.29625e-08
7.03571e-08
7.03034e-08
7.0514e-08
7.88753e-08
7.74469e-08
7.60819e-08
7.5506e-08
7.74058e-08
8.00517e-08
8.19754e-08
8.20219e-08
7.8435e-08
7.57345e-08
7.57271e-08
7.58489e-08
8.40611e-08
8.28443e-08
8.15036e-08
8.08239e-08
8.26879e-08
8.53433e-08
8.74118e-08
8.75776e-08
8.37594e-08
8.09723e-08
8.10014e-08
8.10071e-08
8.9144e-08
8.81945e-08
8.68909e-08
8.60827e-08
8.78834e-08
9.05286e-08
9.27507e-08
9.30667e-08
8.90227e-08
8.61484e-08
8.61952e-08
8.60508e-08
9.42183e-08
9.35993e-08
9.23453e-08
9.13756e-08
9.30818e-08
9.56963e-08
9.80845e-08
9.85923e-08
9.43351e-08
9.13697e-08
9.14034e-08
9.10636e-08
9.93593e-08
9.91461e-08
9.79609e-08
9.67926e-08
9.83636e-08
1.00915e-07
1.03476e-07
1.04237e-07
9.97998e-08
9.67484e-08
9.67232e-08
9.61241e-08
1.04588e-07
1.04867e-07
1.03784e-07
1.02385e-07
1.03766e-07
1.06196e-07
1.08921e-07
1.10011e-07
1.05474e-07
1.02368e-07
1.02222e-07
1.01275e-07
1.09836e-07
1.10704e-07
1.09775e-07
1.08131e-07
1.09248e-07
1.11463e-07
1.1431e-07
1.1582e-07
1.11337e-07
1.08245e-07
1.07902e-07
1.06491e-07
1.14913e-07
1.16453e-07
1.15774e-07
1.13902e-07
1.14665e-07
1.1652e-07
1.19394e-07
1.21403e-07
1.1723e-07
1.14292e-07
1.13673e-07
1.11657e-07
1.19439e-07
1.21675e-07
1.21396e-07
1.1941e-07
1.19726e-07
1.21013e-07
1.23723e-07
1.26254e-07
1.22762e-07
1.20231e-07
1.19283e-07
1.1653e-07
1.22885e-07
1.25755e-07
1.26058e-07
1.24187e-07
1.23974e-07
1.2445e-07
1.26751e-07
1.29732e-07
1.27341e-07
1.2558e-07
1.24299e-07
1.20712e-07
1.24859e-07
1.28189e-07
1.29209e-07
1.27714e-07
1.26934e-07
1.26484e-07
1.28315e-07
1.31473e-07
1.30415e-07
1.29802e-07
1.28206e-07
1.2375e-07
1.2575e-07
1.29274e-07
1.30808e-07
1.29754e-07
1.28595e-07
1.27459e-07
1.28815e-07
1.3202e-07
1.31949e-07
1.32541e-07
1.30666e-07
1.25506e-07
1.25601e-07
1.29165e-07
1.31125e-07
1.3051e-07
1.29121e-07
1.27407e-07
1.2826e-07
1.31407e-07
1.32204e-07
1.33626e-07
1.31669e-07
1.26138e-07
1.24474e-07
1.27931e-07
1.30249e-07
1.30108e-07
1.28572e-07
1.26386e-07
1.26736e-07
1.29708e-07
1.31266e-07
1.33414e-07
1.31464e-07
1.2573e-07
1.22505e-07
1.25716e-07
1.283e-07
1.28646e-07
1.27048e-07
1.24525e-07
1.24424e-07
1.27095e-07
1.29243e-07
1.32013e-07
1.30151e-07
1.24374e-07
1.19919e-07
1.22768e-07
1.25489e-07
1.26292e-07
1.24722e-07
1.22038e-07
1.21592e-07
1.23841e-07
1.26332e-07
1.29564e-07
1.27868e-07
1.22224e-07
1.1702e-07
1.1943e-07
1.22123e-07
1.23293e-07
1.21847e-07
1.1921e-07
1.18564e-07
1.20305e-07
1.22827e-07
1.26292e-07
1.24824e-07
1.19502e-07
1.14179e-07
1.16126e-07
1.18595e-07
1.19973e-07
1.18751e-07
1.1639e-07
1.1572e-07
1.16917e-07
1.1911e-07
1.22512e-07
1.2131e-07
1.165e-07
1.11813e-07
1.13311e-07
1.1536e-07
1.1672e-07
1.15811e-07
1.13973e-07
1.13479e-07
1.1415e-07
1.15639e-07
1.18628e-07
1.17691e-07
1.1357e-07
1.10379e-07
1.11482e-07
1.12917e-07
1.13974e-07
1.13452e-07
1.12397e-07
1.123e-07
1.12492e-07
1.1293e-07
1.15116e-07
1.14394e-07
1.11116e-07
1.10376e-07
1.11184e-07
1.11761e-07
1.12213e-07
1.12142e-07
1.12142e-07
1.12685e-07
1.12484e-07
1.11546e-07
1.12514e-07
1.11904e-07
1.09593e-07
1.12374e-07
1.13021e-07
1.12453e-07
1.11962e-07
1.12404e-07
1.13754e-07
1.1522e-07
1.14746e-07
1.12116e-07
1.11424e-07
1.10766e-07
1.09514e-07
1.17077e-07
1.1773e-07
1.15659e-07
1.13822e-07
1.14851e-07
1.179e-07
1.2065e-07
1.2006e-07
1.1538e-07
1.12537e-07
1.11608e-07
1.11487e-07
1.25446e-07
1.26307e-07
1.22234e-07
1.18538e-07
1.20261e-07
1.25473e-07
1.3002e-07
1.29517e-07
1.22298e-07
1.16696e-07
1.15199e-07
1.16283e-07
1.38912e-07
1.40254e-07
1.334e-07
1.27126e-07
1.29718e-07
1.37789e-07
1.4493e-07
1.448e-07
1.3425e-07
1.25044e-07
1.22575e-07
1.24976e-07
1.59762e-07
1.61987e-07
1.51048e-07
1.41097e-07
1.44863e-07
1.56923e-07
1.67953e-07
1.68662e-07
1.53442e-07
1.393e-07
1.35268e-07
1.39177e-07
1.91658e-07
1.95427e-07
1.78227e-07
1.62848e-07
1.68324e-07
1.8623e-07
2.03197e-07
2.05614e-07
1.83612e-07
1.62286e-07
1.55757e-07
1.61483e-07
2.37994e-07
2.44288e-07
2.19281e-07
1.96127e-07
2.04188e-07
2.29795e-07
2.54242e-07
2.59906e-07
2.30336e-07
1.98751e-07
1.88166e-07
1.95984e-07
2.94682e-07
3.0398e-07
2.77749e-07
2.44095e-07
2.55946e-07
2.83494e-07
3.11488e-07
3.20215e-07
2.93163e-07
2.53338e-07
2.36454e-07
2.4644e-07
3.57059e-07
3.68899e-07
3.35677e-07
3.03243e-07
3.09555e-07
3.42669e-07
3.78963e-07
3.91044e-07
3.57889e-07
3.11039e-07
2.88427e-07
2.99348e-07
4.33776e-07
4.47803e-07
4.08289e-07
3.68072e-07
3.75877e-07
4.16495e-07
4.60942e-07
4.76664e-07
4.38247e-07
3.81344e-07
3.52003e-07
3.65222e-07
5.23855e-07
5.39836e-07
4.94403e-07
4.47667e-07
4.56586e-07
5.03948e-07
5.57124e-07
5.77086e-07
5.3306e-07
4.67216e-07
4.31498e-07
4.46574e-07
6.2819e-07
6.45958e-07
5.94135e-07
5.40997e-07
5.51077e-07
6.05755e-07
6.68666e-07
6.93522e-07
6.43302e-07
5.67879e-07
5.25559e-07
5.42527e-07
7.4759e-07
7.66839e-07
7.08436e-07
6.48897e-07
6.60399e-07
7.22852e-07
7.96089e-07
8.26393e-07
7.69783e-07
6.84375e-07
6.35056e-07
6.54134e-07
8.81989e-07
9.02249e-07
8.37505e-07
7.71995e-07
7.85089e-07
8.55309e-07
9.38869e-07
9.74985e-07
9.12278e-07
8.17074e-07
7.6066e-07
7.819e-07
1.03025e-06
1.05089e-06
9.8052e-07
9.09955e-07
9.24691e-07
1.00212e-06
1.09529e-06
1.13731e-06
1.06933e-06
9.65205e-07
9.01952e-07
9.25149e-07
1.19011e-06
1.21038e-06
1.13554e-06
1.06131e-06
1.07761e-06
1.16115e-06
1.2625e-06
1.3102e-06
1.23822e-06
1.12672e-06
1.05722e-06
1.08185e-06
1.35832e-06
1.37739e-06
1.29957e-06
1.22344e-06
1.24114e-06
1.32921e-06
1.43668e-06
1.48954e-06
1.41521e-06
1.2984e-06
1.22349e-06
1.24871e-06
1.53094e-06
1.54795e-06
1.46883e-06
1.39277e-06
1.41163e-06
1.50236e-06
1.61351e-06
1.67074e-06
1.59587e-06
1.4761e-06
1.39676e-06
1.42142e-06
1.70369e-06
1.71785e-06
1.63909e-06
1.5651e-06
1.58486e-06
1.67629e-06
1.7885e-06
1.84914e-06
1.77556e-06
1.65522e-06
1.57241e-06
1.59522e-06
1.87239e-06
1.88302e-06
1.80611e-06
1.73599e-06
1.75644e-06
1.84671e-06
1.9575e-06
2.02048e-06
1.94983e-06
1.83116e-06
1.74574e-06
1.76532e-06
2.0333e-06
2.03988e-06
1.96603e-06
1.90124e-06
1.9222e-06
2.00975e-06
2.11693e-06
2.18118e-06
2.11484e-06
1.99969e-06
1.91242e-06
1.92743e-06
2.18337e-06
2.18552e-06
2.1156e-06
2.05718e-06
2.07854e-06
2.16219e-06
2.26406e-06
2.32853e-06
2.26754e-06
2.15731e-06
2.06879e-06
2.07801e-06
2.32037e-06
2.31794e-06
2.25243e-06
2.20095e-06
2.22267e-06
2.30166e-06
2.39704e-06
2.46077e-06
2.40579e-06
2.30143e-06
2.21214e-06
2.21459e-06
2.44293e-06
2.43615e-06
2.37498e-06
2.33055e-06
2.35263e-06
2.42664e-06
2.51486e-06
2.57704e-06
2.52837e-06
2.43038e-06
2.3407e-06
2.33572e-06
2.55027e-06
2.5398e-06
2.48257e-06
2.44492e-06
2.4674e-06
2.53643e-06
2.61732e-06
2.67726e-06
2.63486e-06
2.5434e-06
2.45364e-06
2.44096e-06
2.64184e-06
2.62873e-06
2.5752e-06
2.54375e-06
2.5667e-06
2.63105e-06
2.70481e-06
2.76198e-06
2.72554e-06
2.64052e-06
2.55106e-06
2.53117e-06
2.71858e-06
2.70339e-06
2.65347e-06
2.62744e-06
2.65097e-06
2.71113e-06
2.77821e-06
2.83218e-06
2.80116e-06
2.72234e-06
2.63393e-06
2.60768e-06
2.78195e-06
2.76493e-06
2.71841e-06
2.69689e-06
2.72112e-06
2.77772e-06
2.83874e-06
2.88921e-06
2.86285e-06
2.78971e-06
2.70313e-06
2.67139e-06
2.83354e-06
2.8146e-06
2.77128e-06
2.75336e-06
2.77845e-06
2.83213e-06
2.88781e-06
2.93405e-06
2.91198e-06
2.84418e-06
2.7598e-06
2.72324e-06
2.87454e-06
2.85383e-06
2.81346e-06
2.79837e-06
2.82447e-06
2.87582e-06
2.92688e-06
2.96828e-06
2.95004e-06
2.88757e-06
2.8056e-06
2.76483e-06
2.90626e-06
2.88407e-06
2.8464e-06
2.8335e-06
2.86072e-06
2.91023e-06
2.95741e-06
2.99398e-06
2.97878e-06
2.92156e-06
2.84216e-06
2.7975e-06
2.92995e-06
2.9067e-06
2.87145e-06
2.8603e-06
2.88866e-06
2.93671e-06
2.98072e-06
3.0127e-06
2.99978e-06
2.94754e-06
2.87098e-06
2.82248e-06
2.94685e-06
2.92304e-06
2.88984e-06
2.88019e-06
2.90957e-06
2.95648e-06
2.99797e-06
3.02569e-06
3.01442e-06
2.96685e-06
2.89353e-06
2.84139e-06
2.95811e-06
2.93424e-06
2.90268e-06
2.89442e-06
2.92466e-06
2.97066e-06
3.01015e-06
3.03399e-06
3.02383e-06
2.9807e-06
2.91104e-06
2.85551e-06
2.9647e-06
2.9413e-06
2.91097e-06
2.90404e-06
2.93493e-06
2.98024e-06
3.01809e-06
3.03844e-06
3.02894e-06
2.99011e-06
2.92455e-06
2.86595e-06
2.96742e-06
2.94504e-06
2.9156e-06
2.90999e-06
2.94142e-06
2.98607e-06
3.02249e-06
3.03974e-06
3.03035e-06
2.99586e-06
2.93482e-06
2.87356e-06
2.96678e-06
2.94608e-06
2.91735e-06
2.91309e-06
2.94497e-06
2.98885e-06
3.02387e-06
3.03828e-06
3.02849e-06
2.99851e-06
2.94238e-06
2.87894e-06
2.96311e-06
2.94486e-06
2.91674e-06
2.91395e-06
2.94621e-06
2.98913e-06
3.02263e-06
3.03386e-06
3.02362e-06
2.9983e-06
2.9474e-06
2.8824e-06
1.78464e-12
1.76766e-12
1.78139e-12
1.83399e-12
1.87919e-12
1.89611e-12
1.85743e-12
1.77177e-12
1.74666e-12
1.75994e-12
1.81787e-12
1.90615e-12
2.04921e-12
2.01625e-12
2.02122e-12
2.07231e-12
2.13158e-12
2.16713e-12
2.13282e-12
2.04e-12
1.99842e-12
1.994e-12
2.04834e-12
2.14456e-12
8.99041e-12
8.63698e-12
8.48966e-12
8.56768e-12
8.94068e-12
9.34548e-12
9.35089e-12
9.03226e-12
8.65255e-12
8.32606e-12
8.37434e-12
8.71792e-12
5.6354e-11
5.38523e-11
5.26803e-11
5.29418e-11
5.5421e-11
5.82938e-11
5.85485e-11
5.67147e-11
5.40634e-11
5.15671e-11
5.1584e-11
5.36123e-11
2.39983e-10
2.29223e-10
2.24026e-10
2.24848e-10
2.35376e-10
2.47752e-10
2.49039e-10
2.41567e-10
2.30122e-10
2.1912e-10
2.18904e-10
2.27314e-10
7.4962e-10
7.16308e-10
6.99766e-10
7.01486e-10
7.33833e-10
7.7235e-10
7.76916e-10
7.54788e-10
7.18982e-10
6.84062e-10
6.82716e-10
7.08033e-10
1.87214e-09
1.79056e-09
1.74877e-09
1.75053e-09
1.82919e-09
1.92443e-09
1.93763e-09
1.88625e-09
1.79711e-09
1.70897e-09
1.70372e-09
1.76345e-09
3.94302e-09
3.77639e-09
3.68802e-09
3.68564e-09
3.84536e-09
4.04272e-09
4.07528e-09
3.97693e-09
3.79073e-09
3.60414e-09
3.58863e-09
3.70462e-09
7.25e-09
6.95637e-09
6.79486e-09
6.77875e-09
7.05918e-09
7.41386e-09
7.48357e-09
7.32311e-09
6.98547e-09
6.64307e-09
6.606e-09
6.7976e-09
1.19319e-08
1.14743e-08
1.12131e-08
1.1168e-08
1.16051e-08
1.21716e-08
1.2303e-08
1.20741e-08
1.15294e-08
1.09716e-08
1.08972e-08
1.11731e-08
1.79255e-08
1.72823e-08
1.69011e-08
1.68089e-08
1.74267e-08
1.82464e-08
1.84677e-08
1.81762e-08
1.73789e-08
1.65569e-08
1.64274e-08
1.67805e-08
2.49798e-08
2.41512e-08
2.36415e-08
2.34852e-08
2.4291e-08
2.53822e-08
2.57199e-08
2.53842e-08
2.43081e-08
2.31944e-08
2.2994e-08
2.34011e-08
3.18352e-08
3.09386e-08
3.03958e-08
3.02118e-08
3.10949e-08
3.22967e-08
3.27506e-08
3.24747e-08
3.12686e-08
3.00309e-08
2.9757e-08
3.00631e-08
3.81577e-08
3.71634e-08
3.65492e-08
3.63255e-08
3.73302e-08
3.87015e-08
3.92489e-08
3.89665e-08
3.75638e-08
3.61333e-08
3.58104e-08
3.61195e-08
4.45796e-08
4.351e-08
4.28336e-08
4.25676e-08
4.3681e-08
4.52061e-08
4.58462e-08
4.55676e-08
4.39763e-08
4.23627e-08
4.19915e-08
4.22914e-08
5.10142e-08
4.98949e-08
4.91676e-08
4.88564e-08
5.00623e-08
5.17221e-08
5.24533e-08
5.219e-08
5.04226e-08
4.86394e-08
4.82194e-08
4.84947e-08
5.738e-08
5.62383e-08
5.54726e-08
5.51131e-08
5.63932e-08
5.81666e-08
5.8987e-08
5.87516e-08
5.68232e-08
5.48866e-08
5.44163e-08
5.4649e-08
6.36097e-08
6.24731e-08
6.16819e-08
6.12705e-08
6.26055e-08
6.44699e-08
6.5378e-08
6.51845e-08
6.31116e-08
6.10396e-08
6.05164e-08
6.06864e-08
6.96532e-08
6.85492e-08
6.77447e-08
6.72767e-08
6.86465e-08
7.05796e-08
7.1575e-08
7.14397e-08
6.92379e-08
6.70492e-08
6.64695e-08
6.65545e-08
7.54843e-08
7.44399e-08
7.36319e-08
7.31006e-08
7.44854e-08
7.64664e-08
7.75514e-08
7.74929e-08
7.51749e-08
7.2887e-08
7.22456e-08
7.22215e-08
8.11093e-08
8.01519e-08
7.93463e-08
7.87404e-08
8.01214e-08
8.21331e-08
8.33149e-08
8.33551e-08
8.09282e-08
7.85537e-08
7.78432e-08
7.76835e-08
8.65737e-08
8.57342e-08
8.49302e-08
8.42311e-08
8.55904e-08
8.76202e-08
8.89124e-08
8.90784e-08
8.6544e-08
8.40887e-08
8.32974e-08
8.29711e-08
9.19571e-08
9.12744e-08
9.04653e-08
8.96451e-08
9.09637e-08
9.30005e-08
9.44225e-08
9.47502e-08
9.21087e-08
8.95718e-08
8.86811e-08
8.81496e-08
9.73539e-08
9.68778e-08
9.60557e-08
9.50781e-08
9.63325e-08
9.83611e-08
9.99337e-08
1.00469e-07
9.7731e-08
9.51109e-08
9.40932e-08
9.33059e-08
1.02841e-07
1.02631e-07
1.01795e-07
1.0062e-07
1.01778e-07
1.0377e-07
1.05508e-07
1.06307e-07
1.03507e-07
1.00815e-07
9.96329e-08
9.85231e-08
1.08438e-07
1.08564e-07
1.07722e-07
1.0632e-07
1.07336e-07
1.09241e-07
1.11143e-07
1.12275e-07
1.09482e-07
1.06756e-07
1.05366e-07
1.03848e-07
1.14074e-07
1.1461e-07
1.13785e-07
1.1215e-07
1.12964e-07
1.14699e-07
1.16738e-07
1.18276e-07
1.15609e-07
1.12931e-07
1.11283e-07
1.09257e-07
1.1955e-07
1.20555e-07
1.19803e-07
1.1797e-07
1.18516e-07
1.19952e-07
1.22064e-07
1.24068e-07
1.21704e-07
1.19213e-07
1.17277e-07
1.14633e-07
1.24477e-07
1.25957e-07
1.25387e-07
1.23477e-07
1.23679e-07
1.2465e-07
1.26709e-07
1.29185e-07
1.27357e-07
1.25282e-07
1.2308e-07
1.19723e-07
1.28307e-07
1.30198e-07
1.29953e-07
1.2818e-07
1.27974e-07
1.28297e-07
1.3014e-07
1.33012e-07
1.31957e-07
1.306e-07
1.2822e-07
1.24113e-07
1.30599e-07
1.32774e-07
1.32963e-07
1.3155e-07
1.30905e-07
1.30494e-07
1.32069e-07
1.35133e-07
1.34948e-07
1.3458e-07
1.32158e-07
1.27332e-07
1.31703e-07
1.34003e-07
1.34499e-07
1.33424e-07
1.32478e-07
1.31553e-07
1.32881e-07
1.36013e-07
1.36411e-07
1.36886e-07
1.34551e-07
1.29215e-07
1.31685e-07
1.34027e-07
1.34786e-07
1.3403e-07
1.32868e-07
1.31519e-07
1.32589e-07
1.357e-07
1.36583e-07
1.37694e-07
1.35516e-07
1.29933e-07
1.30605e-07
1.32915e-07
1.33899e-07
1.33467e-07
1.32146e-07
1.3045e-07
1.31263e-07
1.34266e-07
1.3554e-07
1.3721e-07
1.35253e-07
1.29577e-07
1.28598e-07
1.30809e-07
1.31962e-07
1.31842e-07
1.30424e-07
1.28486e-07
1.29054e-07
1.31871e-07
1.33404e-07
1.35537e-07
1.33862e-07
1.28241e-07
1.25887e-07
1.27945e-07
1.29183e-07
1.29327e-07
1.2789e-07
1.25851e-07
1.26224e-07
1.2877e-07
1.30391e-07
1.3284e-07
1.31491e-07
1.26083e-07
1.22785e-07
1.24648e-07
1.25859e-07
1.2618e-07
1.24812e-07
1.22846e-07
1.23107e-07
1.25301e-07
1.26812e-07
1.29376e-07
1.2837e-07
1.23331e-07
1.19666e-07
1.21311e-07
1.22356e-07
1.22729e-07
1.21531e-07
1.19838e-07
1.20097e-07
1.21868e-07
1.23056e-07
1.25488e-07
1.24807e-07
1.20287e-07
1.16949e-07
1.18381e-07
1.19096e-07
1.19367e-07
1.18449e-07
1.17244e-07
1.17627e-07
1.1895e-07
1.19583e-07
1.21598e-07
1.21181e-07
1.17313e-07
1.15086e-07
1.1634e-07
1.16541e-07
1.16534e-07
1.16015e-07
1.15527e-07
1.16168e-07
1.1706e-07
1.16895e-07
1.18188e-07
1.17929e-07
1.14822e-07
1.14564e-07
1.15712e-07
1.15186e-07
1.14709e-07
1.14728e-07
1.15193e-07
1.16241e-07
1.16735e-07
1.1554e-07
1.15786e-07
1.15538e-07
1.13278e-07
1.15924e-07
1.17053e-07
1.15569e-07
1.14424e-07
1.15143e-07
1.16825e-07
1.18442e-07
1.18583e-07
1.16117e-07
1.14975e-07
1.14548e-07
1.132e-07
1.19807e-07
1.21009e-07
1.18303e-07
1.16285e-07
1.17916e-07
1.21137e-07
1.23521e-07
1.23345e-07
1.19333e-07
1.16413e-07
1.15576e-07
1.152e-07
1.27063e-07
1.28426e-07
1.24158e-07
1.21042e-07
1.23886e-07
1.29093e-07
1.32514e-07
1.32027e-07
1.26106e-07
1.20908e-07
1.19374e-07
1.20049e-07
1.38905e-07
1.40518e-07
1.34203e-07
1.29715e-07
1.34226e-07
1.42105e-07
1.46973e-07
1.46123e-07
1.3771e-07
1.29547e-07
1.26942e-07
1.28792e-07
1.57191e-07
1.59146e-07
1.50052e-07
1.43811e-07
1.50711e-07
1.62363e-07
1.69333e-07
1.67957e-07
1.56083e-07
1.43929e-07
1.39731e-07
1.42974e-07
1.84875e-07
1.87266e-07
1.74246e-07
1.65688e-07
1.76154e-07