-0.0075 	0 	0 	0
-0.0075 	9.09167e-35 	1.60634e-36 	-7.18952e-33
-0.00745622 	0.000119492 	2.11122e-06 	-0.00944919
-0.00745622 	0.000119492 	2.11122e-06 	-0.00944919
-0.00741165 	0.000334638 	3.27151e-06 	-0.0194283
-0.00741165 	0.000334638 	3.27151e-06 	-0.0194283
-0.00736628 	0.00060251 	3.25968e-06 	-0.0298129
-0.00736628 	0.00060251 	3.25968e-06 	-0.0298129
-0.0073201 	0.000865607 	3.13046e-06 	-0.0402666
-0.0073201 	0.000865607 	3.13046e-06 	-0.0402666
-0.00727309 	0.00111216 	2.72286e-06 	-0.0506948
-0.00727309 	0.00111216 	2.72286e-06 	-0.0506948
-0.00722524 	0.00134818 	2.37304e-06 	-0.0610405
-0.00722524 	0.00134818 	2.37304e-06 	-0.0610405
-0.00717653 	0.00157533 	2.00348e-06 	-0.0712036
-0.00717653 	0.00157533 	2.00348e-06 	-0.0712036
-0.00712695 	0.00179342 	1.6712e-06 	-0.081087
-0.00712695 	0.00179342 	1.6712e-06 	-0.081087
-0.00707647 	0.00200144 	1.23863e-06 	-0.0906033
-0.00707647 	0.00200144 	1.23863e-06 	-0.0906033
-0.0070251 	0.00219812 	5.87751e-07 	-0.099685
-0.0070251 	0.00219812 	5.87751e-07 	-0.099685
-0.0069728 	0.00238238 	-2.66269e-07 	-0.108292
-0.0069728 	0.00238238 	-2.66269e-07 	-0.108292
-0.00691956 	0.00255362 	-1.43882e-06 	-0.116417
-0.00691956 	0.00255362 	-1.43882e-06 	-0.116417
-0.00686537 	0.0027116 	-2.90444e-06 	-0.124085
-0.00686537 	0.0027116 	-2.90444e-06 	-0.124085
-0.00681021 	0.00285651 	-4.63841e-06 	-0.131337
-0.00681021 	0.00285651 	-4.63841e-06 	-0.131337
-0.00675406 	0.00298917 	-6.70081e-06 	-0.138207
-0.00675406 	0.00298917 	-6.70081e-06 	-0.138207
-0.0066969 	0.00311075 	-9.0474e-06 	-0.144722
-0.0066969 	0.00311075 	-9.0474e-06 	-0.144722
-0.00663871 	0.00322235 	-1.17379e-05 	-0.150903
-0.00663871 	0.00322235 	-1.17379e-05 	-0.150903
-0.00657949 	0.00332485 	-1.48155e-05 	-0.15677
-0.00657949 	0.00332485 	-1.48155e-05 	-0.15677
-0.0065192 	0.00341908 	-1.82854e-05 	-0.162343
-0.0065192 	0.00341908 	-1.82854e-05 	-0.162343
-0.00645783 	0.00350582 	-2.21846e-05 	-0.167641
-0.00645783 	0.00350582 	-2.21846e-05 	-0.167641
-0.00639535 	0.00358577 	-2.65395e-05 	-0.17268
-0.00639535 	0.00358577 	-2.65395e-05 	-0.17268
-0.00633176 	0.00365953 	-3.14021e-05 	-0.17747
-0.00633176 	0.00365953 	-3.14021e-05 	-0.17747
-0.00626703 	0.00372755 	-3.68499e-05 	-0.182021
-0.00626703 	0.00372755 	-3.68499e-05 	-0.182021
-0.00620114 	0.0037902 	-4.3044e-05 	-0.186337
-0.00620114 	0.0037902 	-4.3044e-05 	-0.186337
-0.00613406 	0.00384795 	-5.01045e-05 	-0.190434
-0.00613406 	0.00384795 	-5.01045e-05 	-0.190434
-0.00606579 	0.00390148 	-5.78723e-05 	-0.194341
-0.00606579 	0.00390148 	-5.78723e-05 	-0.194341
-0.00599629 	0.00395133 	-6.60906e-05 	-0.198093
-0.00599629 	0.00395133 	-6.60906e-05 	-0.198093
-0.00592554 	0.00399753 	-7.45655e-05 	-0.201711
-0.00592554 	0.00399753 	-7.45655e-05 	-0.201711
-0.00585352 	0.00403934 	-8.34657e-05 	-0.205192
-0.00585352 	0.00403934 	-8.34657e-05 	-0.205192
-0.00578022 	0.00407576 	-9.35433e-05 	-0.20851
-0.00578022 	0.00407576 	-9.35433e-05 	-0.20851
-0.00570559 	0.00410643 	-0.000105371 	-0.211641
-0.00570559 	0.00410643 	-0.000105371 	-0.211641
-0.00562963 	0.00413205 	-0.000118683 	-0.214592
-0.00562963 	0.00413205 	-0.000118683 	-0.214592
-0.00555231 	0.00415373 	-0.000132653 	-0.217396
-0.00555231 	0.00415373 	-0.000132653 	-0.217396
-0.0054736 	0.00417199 	-0.00014673 	-0.220093
-0.0054736 	0.00417199 	-0.00014673 	-0.220093
-0.00539348 	0.00418655 	-0.000161174 	-0.222704
-0.00539348 	0.00418655 	-0.000161174 	-0.222704
-0.00531193 	0.00419682 	-0.000176489 	-0.225237
-0.00531193 	0.00419682 	-0.000176489 	-0.225237
-0.00522891 	0.00420241 	-0.000192846 	-0.22769
-0.00522891 	0.00420241 	-0.000192846 	-0.22769
-0.0051444 	0.00420324 	-0.000210065 	-0.230062
-0.0051444 	0.00420324 	-0.000210065 	-0.230062
-0.00505838 	0.00419924 	-0.000227884 	-0.232357
-0.00505838 	0.00419924 	-0.000227884 	-0.232357
-0.00497081 	0.00419014 	-0.00024629 	-0.234578
-0.00497081 	0.00419014 	-0.00024629 	-0.234578
-0.00488168 	0.0041755 	-0.000265371 	-0.236726
-0.00488168 	0.0041755 	-0.000265371 	-0.236726
-0.00479094 	0.00415463 	-0.000285108 	-0.238804
-0.00479094 	0.00415463 	-0.000285108 	-0.238804
-0.00469858 	0.00412666 	-0.000305279 	-0.240812
-0.00469858 	0.00412666 	-0.000305279 	-0.240812
-0.00460456 	0.00409071 	-0.000325332 	-0.242754
-0.00460456 	0.00409071 	-0.000325332 	-0.242754
-0.00450886 	0.00404627 	-0.000344888 	-0.244636
-0.00450886 	0.00404627 	-0.000344888 	-0.244636
-0.00441144 	0.00399342 	-0.000364148 	-0.246465
-0.00441144 	0.00399342 	-0.000364148 	-0.246465
-0.00431227 	0.00393248 	-0.000383322 	-0.248252
-0.00431227 	0.00393248 	-0.000383322 	-0.248252
-0.00421133 	0.00386356 	-0.000402357 	-0.250003
-0.00421133 	0.00386356 	-0.000402357 	-0.250003
-0.00410857 	0.00378641 	-0.000421029 	-0.251722
-0.00410857 	0.00378641 	-0.000421029 	-0.251722
-0.00400397 	0.00370067 	-0.000438875 	-0.253408
-0.00400397 	0.00370067 	-0.000438875 	-0.253408
-0.0038975 	0.00360603 	-0.000455635 	-0.255059
-0.0038975 	0.00360603 	-0.000455635 	-0.255059
-0.00378912 	0.00350223 	-0.000471101 	-0.256677
-0.00378912 	0.00350223 	-0.000471101 	-0.256677
-0.00367879 	0.00338911 	-0.000484851 	-0.258271
-0.00367879 	0.00338911 	-0.000484851 	-0.258271
-0.00356649 	0.00326655 	-0.000497225 	-0.259844
-0.00356649 	0.00326655 	-0.000497225 	-0.259844
-0.00345217 	0.00313452 	-0.000508569 	-0.261398
-0.00345217 	0.00313452 	-0.000508569 	-0.261398
-0.0033358 	0.00299305 	-0.000518101 	-0.262928
-0.0033358 	0.00299305 	-0.000518101 	-0.262928
-0.00321735 	0.00284225 	-0.000525179 	-0.264431
-0.00321735 	0.00284225 	-0.000525179 	-0.264431
-0.00309677 	0.00268227 	-0.000529918 	-0.265905
-0.00309677 	0.00268227 	-0.000529918 	-0.265905
-0.00297403 	0.00251342 	-0.000532504 	-0.267348
-0.00297403 	0.00251342 	-0.000532504 	-0.267348
-0.00284909 	0.00233613 	-0.000532338 	-0.268759
-0.00284909 	0.00233613 	-0.000532338 	-0.268759
-0.0027219 	0.00215096 	-0.000528785 	-0.270136
-0.0027219 	0.00215096 	-0.000528785 	-0.270136
-0.00259244 	0.00195857 	-0.000522356 	-0.271481
-0.00259244 	0.00195857 	-0.000522356 	-0.271481
-0.00246065 	0.00175974 	-0.000513447 	-0.272792
-0.00246065 	0.00175974 	-0.000513447 	-0.272792
-0.00232651 	0.0015554 	-0.000501626 	-0.274069
-0.00232651 	0.0015554 	-0.000501626 	-0.274069
-0.00218995 	0.00134662 	-0.00048656 	-0.275315
-0.00218995 	0.00134662 	-0.00048656 	-0.275315
-0.00205095 	0.0011346 	-0.00046843 	-0.276532
-0.00205095 	0.0011346 	-0.00046843 	-0.276532
-0.00190946 	0.000920581 	-0.0004469 	-0.27772
-0.00190946 	0.000920581 	-0.0004469 	-0.27772
-0.00176543 	0.00070575 	-0.000420633 	-0.278873
-0.00176543 	0.00070575 	-0.000420633 	-0.278873
-0.00161881 	0.000491344 	-0.000389021 	-0.279973
-0.00161881 	0.000491344 	-0.000389021 	-0.279973
-0.00146957 	0.00027887 	-0.000352824 	-0.281005
-0.00146957 	0.00027887 	-0.000352824 	-0.281005
-0.00131765 	6.97813e-05 	-0.000313444 	-0.281965
-0.00131765 	6.97813e-05 	-0.000313444 	-0.281965
-0.001163 	-0.00013469 	-0.000271689 	-0.282852
-0.001163 	-0.00013469 	-0.000271689 	-0.282852
-0.00100559 	-0.000333246 	-0.000227122 	-0.28366
-0.00100559 	-0.000333246 	-0.000227122 	-0.28366
-0.000845345 	-0.000524448 	-0.00018306 	-0.284382
-0.000845345 	-0.000524448 	-0.00018306 	-0.284382
-0.000682232 	-0.000706824 	-0.000136886 	-0.285014
-0.000682232 	-0.000706824 	-0.000136886 	-0.285014
-0.000516194 	-0.000878912 	-8.45171e-05 	-0.285551
-0.000516194 	-0.000878912 	-8.45171e-05 	-0.285551
-0.000347178 	-0.00103927 	-3.16817e-05 	-0.285987
-0.000347178 	-0.00103927 	-3.16817e-05 	-0.285987
-0.000175132 	-0.00118612 	3.2397e-05 	-0.286314
-0.000175132 	-0.00118612 	3.2397e-05 	-0.286314
0 	-0.00131712 	0.000100592 	-0.286523
0 	-0.00131712 	0.000100592 	-0.286523
0 	-0.00131712 	0.000100592 	-0.286523
0 	-0.00131712 	0.000100592 	-0.286523
0.000175132 	-0.00142992 	0.000160006 	-0.286608
0.000175132 	-0.00337363 	-4.81146e-05 	-0.309015
0.000347178 	-0.00152361 	0.000220823 	-0.286571
0.000347178 	-0.00345281 	0.000133435 	-0.309688
0.000516194 	-0.00159947 	0.000273102 	-0.286415
0.000516194 	-0.00351712 	0.000300152 	-0.310064
0.000682232 	-0.00165931 	0.000318769 	-0.286148
0.000682232 	-0.00356274 	0.00045129 	-0.310176
0.000845345 	-0.00170448 	0.000366672 	-0.285774
0.000845345 	-0.00359202 	0.000596769 	-0.310022
0.00100559 	-0.00173627 	0.000411956 	-0.285295
0.00100559 	-0.00361005 	0.000739327 	-0.309601
0.001163 	-0.00175587 	0.000454522 	-0.284712
0.001163 	-0.00361598 	0.000901676 	-0.308902
0.00131765 	-0.00176441 	0.000494569 	-0.284026
0.00131765 	-0.00360088 	0.00107319 	-0.307901
0.00146957 	-0.00176289 	0.000533843 	-0.283245
0.00146957 	-0.00356891 	0.00118768 	-0.306637
0.00161881 	-0.00175216 	0.000572872 	-0.282399
0.00161881 	-0.00354116 	0.0012148 	-0.305395
0.00176543 	-0.00173272 	0.000605879 	-0.281516
0.00176543 	-0.00353627 	0.00125069 	-0.304529
0.00190946 	-0.00170539 	0.000625829 	-0.280536
0.00190946 	-0.00355389 	0.00136224 	-0.303593
0.00205095 	-0.00167264 	0.000639494 	-0.279262
0.00205095 	-0.00357864 	0.00147631 	-0.300951
0.00218995 	-0.0016371 	0.000666154 	-0.277594
0.00218995 	-0.00359603 	0.00160024 	-0.295758
0.00232651 	-0.00159722 	0.000700809 	-0.275821
0.00232651 	-0.00358419 	0.00172684 	-0.290043
0.00246065 	-0.0015502 	0.000722439 	-0.274233
0.00246065 	-0.00353421 	0.00179469 	-0.285861
0.00259244 	-0.00149699 	0.000730772 	-0.272808
0.00259244 	-0.00346455 	0.00185819 	-0.283085
0.0027219 	-0.00144012 	0.000736886 	-0.271437
0.0027219 	-0.0033904 	0.001945 	-0.28101
0.00284909 	-0.00138107 	0.000745346 	-0.270042
0.00284909 	-0.0033146 	0.00198575 	-0.279105
0.00297403 	-0.00132045 	0.000752458 	-0.268595
0.00297403 	-0.00323511 	0.00196179 	-0.277115
0.00309677 	-0.00125871 	0.000756184 	-0.267097
0.00309677 	-0.00315099 	0.00194567 	-0.275027
0.00321735 	-0.00119632 	0.000757452 	-0.265555
0.00321735 	-0.00306522 	0.00198037 	-0.272909
0.0033358 	-0.00113382 	0.00075665 	-0.263972
0.0033358 	-0.00298142 	0.00203701 	-0.270784
0.00345217 	-0.00107166 	0.00075394 	-0.262348
0.00345217 	-0.00289933 	0.00207035 	-0.268633
0.00356649 	-0.00100999 	0.000749499 	-0.260685
0.00356649 	-0.00281657 	0.00207214 	-0.266446
0.00367879 	-0.000948808 	0.000743674 	-0.25898
0.00367879 	-0.00273286 	0.00206482 	-0.264232
0.00378912 	-0.00264992 	0.00206382 	-0.262
0.00378912 	-0.000888178 	0.000736682 	-0.257231
0.0038975 	-0.000828287 	0.000728486 	-0.255433
0.0038975 	-0.00256839 	0.00205947 	-0.259751
0.00400397 	-0.000769434 	0.000719012 	-0.253582
0.00400397 	-0.0024873 	0.00203807 	-0.257495
0.00410857 	-0.000712011 	0.000708152 	-0.251678
0.00410857 	-0.0024064 	0.00200627 	-0.255247
0.00421133 	-0.000656463 	0.000695833 	-0.249721
0.00421133 	-0.00232736 	0.00197988 	-0.253019
0.00431227 	-0.000603228 	0.000682101 	-0.247711
0.00431227 	-0.0022524 	0.00196205 	-0.250812
0.00441144 	-0.000552672 	0.000666987 	-0.245649
0.00441144 	-0.00218264 	0.00194375 	-0.248612
0.00450886 	-0.000505059 	0.000651026 	-0.243537
0.00450886 	-0.00211765 	0.00192064 	-0.246399
0.00460456 	-0.000460539 	0.000634908 	-0.241374
0.00460456 	-0.00205594 	0.00189561 	-0.244164
0.00469858 	-0.000419159 	0.000618244 	-0.239165
0.00469858 	-0.00199574 	0.00186638 	-0.24193
0.00479094 	-0.000380971 	0.000600323 	-0.236905
0.00479094 	-0.00193614 	0.00182871 	-0.239693
0.00488168 	-0.000346166 	0.000580824 	-0.234577
0.00488168 	-0.00187799 	0.00178159 	-0.237356
0.00497081 	-0.00031502 	0.000560318 	-0.232156
0.00497081 	-0.00182329 	0.00173008 	-0.234777
0.00505838 	-0.00028767 	0.000540036 	-0.229626
0.00505838 	-0.00177361 	0.00168315 	-0.231869
0.0051444 	-0.000263992 	0.000520137 	-0.226989
0.0051444 	-0.00172904 	0.00164186 	-0.228665
0.00522891 	-0.000243667 	0.000500092 	-0.22426
0.00522891 	-0.00168834 	0.00160213 	-0.225297
0.00531193 	-0.00164987 	0.00156073 	-0.221912
0.00531193 	-0.000226357 	0.000479535 	-0.221456
0.00539348 	-0.000211827 	0.000458231 	-0.218587
0.00539348 	-0.00161248 	0.00151531 	-0.218598
0.0054736 	-0.000199974 	0.000436238 	-0.215648
0.0054736 	-0.00157584 	0.00146556 	-0.215364
0.00555231 	-0.000190797 	0.000413836 	-0.212626
0.00555231 	-0.00154022 	0.00141278 	-0.212153
0.00562963 	-0.000184351 	0.000391335 	-0.209503
0.00562963 	-0.00150613 	0.00135874 	-0.208894
0.00570559 	-0.000180645 	0.000368946 	-0.206262
0.00570559 	-0.00147397 	0.00130464 	-0.205526
0.00578022 	-0.000179563 	0.000346748 	-0.202886
0.00578022 	-0.00144386 	0.00125073 	-0.202017
0.00585352 	-0.000180877 	0.000324772 	-0.199364
0.00585352 	-0.00141562 	0.00119671 	-0.19836
0.00592554 	-0.000184328 	0.000303066 	-0.195684
0.00592554 	-0.00138895 	0.00114228 	-0.194559
0.00599629 	-0.000189671 	0.000281695 	-0.191835
0.00599629 	-0.00136345 	0.00108736 	-0.190616
0.00606579 	-0.00133869 	0.00103195 	-0.186525
0.00606579 	-0.00019666 	0.000260748 	-0.187801
0.00613406 	-0.000205018 	0.00024032 	-0.183566
0.00613406 	-0.00131421 	0.000976136 	-0.182274
0.00620114 	-0.000214435 	0.000220513 	-0.179109
0.00620114 	-0.00128955 	0.00092031 	-0.177841
0.00626703 	-0.000224586 	0.000201426 	-0.174407
0.00626703 	-0.00126438 	0.000864902 	-0.173204
0.00633176 	-0.000235127 	0.00018315 	-0.169439
0.00633176 	-0.00123843 	0.000810142 	-0.16834
0.00639535 	-0.000245675 	0.000165759 	-0.164181
0.00639535 	-0.00121138 	0.000755997 	-0.163226
0.00645783 	-0.000255804 	0.000149285 	-0.158609
0.00645783 	-0.00118273 	0.000702383 	-0.157837
0.0065192 	-0.000265032 	0.000133759 	-0.152697
0.0065192 	-0.00115175 	0.000649426 	-0.152146
0.00657949 	-0.000272809 	0.000119254 	-0.14642
0.00657949 	-0.00111764 	0.000597467 	-0.146125
0.00663871 	-0.000278579 	0.000105833 	-0.139754
0.00663871 	-0.00107945 	0.000546643 	-0.139746
0.0066969 	-0.000281909 	9.35266e-05 	-0.132672
0.0066969 	-0.00103585 	0.000496649 	-0.132987
0.00675406 	-0.000282401 	8.22411e-05 	-0.125145
0.00675406 	-0.000985285 	0.000447148 	-0.125809
0.00681021 	-0.000279428 	7.18676e-05 	-0.117143
0.00681021 	-0.000926871 	0.000398547 	-0.118156
0.00686537 	-0.000272223 	6.24415e-05 	-0.108666
0.00686537 	-0.000861324 	0.000352168 	-0.109991
0.00691956 	-0.000260254 	5.39412e-05 	-0.0997564
0.00691956 	-0.000791076 	0.000308511 	-0.101318
0.0069728 	-0.000243378 	4.62511e-05 	-0.0905067
0.0069728 	-0.000719399 	0.00026726 	-0.0921949
0.0070251 	-0.000221885 	3.92239e-05 	-0.0810547
0.0070251 	-0.000649442 	0.000228523 	-0.0827339
0.00707647 	-0.000196529 	3.27157e-05 	-0.0715685
0.00707647 	-0.000583551 	0.000192407 	-0.0730931
0.00712695 	-0.000168455 	2.66341e-05 	-0.0622176
0.00712695 	-0.000522535 	0.000158809 	-0.0634524
0.00717653 	-0.000139003 	2.09197e-05 	-0.0531411
0.00717653 	-0.000465073 	0.000127657 	-0.0539839
0.00722524 	-0.000109521 	1.55643e-05 	-0.0444289
0.00722524 	-0.00040748 	9.88887e-05 	-0.0448348
0.00727309 	-8.13004e-05 	1.06597e-05 	-0.0361236
0.00727309 	-0.000343439 	7.28745e-05 	-0.0361363
0.0073201 	-5.56762e-05 	6.38956e-06 	-0.028237
0.0073201 	-0.000262919 	5.10282e-05 	-0.0280408
0.00736628 	-3.42524e-05 	2.68689e-06 	-0.0207448
0.00736628 	-0.000149638 	2.80773e-05 	-0.0207549
0.00741165 	-1.90058e-05 	5.58712e-07 	-0.0135838
0.00741165 	-1.9911e-05 	1.46716e-05 	-0.0141925
0.00745622 	-9.45162e-06 	-2.24874e-07 	-0.0066962
0.00745622 	4.86106e-05 	5.82254e-06 	-0.00756721
0.0075 	0 	0 	0
0.0075 	0 	0 	0
