0 	0 	0 	0
5.01672e-05 	-2.20669e-05 	-4.48291e-06 	0.0203455
0.000100334 	-4.41338e-05 	-8.96583e-06 	0.040691
0.000150502 	-6.62007e-05 	-1.34487e-05 	0.0610365
0.000200669 	-8.82676e-05 	-1.79317e-05 	0.0813821
0.000250836 	-0.000110335 	-2.24146e-05 	0.101728
0.000301003 	-0.000132401 	-2.68975e-05 	0.122073
0.000351171 	-0.000152446 	-3.20902e-05 	0.14031
0.000401338 	-0.000164843 	-3.9967e-05 	0.150575
0.000451505 	-0.00017724 	-4.78438e-05 	0.160839
0.000501672 	-0.000189637 	-5.57205e-05 	0.171104
0.000551839 	-0.000202034 	-6.35973e-05 	0.181368
0.000602007 	-0.000214431 	-7.14741e-05 	0.191633
0.000652174 	-0.000226829 	-7.93509e-05 	0.201897
0.000702341 	-0.000239226 	-8.72277e-05 	0.212162
0.000752508 	-0.00024887 	-9.53306e-05 	0.220996
0.000802676 	-0.00025169 	-0.000103994 	0.226285
0.000852843 	-0.000254509 	-0.000112658 	0.231574
0.00090301 	-0.000257329 	-0.000121322 	0.236864
0.000953177 	-0.000260148 	-0.000129985 	0.242153
0.00100334 	-0.000262968 	-0.000138649 	0.247442
0.00105351 	-0.000265787 	-0.000147313 	0.252731
0.00110368 	-0.000268607 	-0.000155976 	0.25802
0.00115385 	-0.000271426 	-0.00016464 	0.263309
0.00120401 	-0.000274047 	-0.000173262 	0.268493
0.00125418 	-0.000272595 	-0.000181031 	0.271509
0.00130435 	-0.000271143 	-0.000188801 	0.274525
0.00135452 	-0.000269691 	-0.00019657 	0.277542
0.00140468 	-0.000268239 	-0.000204339 	0.280558
0.00145485 	-0.000266787 	-0.000212108 	0.283574
0.00150502 	-0.000265335 	-0.000219877 	0.28659
0.00155518 	-0.000263883 	-0.000227647 	0.289606
0.00160535 	-0.000262431 	-0.000235416 	0.292623
0.00165552 	-0.000260979 	-0.000243185 	0.295639
0.00170569 	-0.000259527 	-0.000250954 	0.298655
0.00175585 	-0.000257821 	-0.000258321 	0.301382
0.00180602 	-0.000255417 	-0.000264579 	0.303314
0.00185619 	-0.000253013 	-0.000270836 	0.305247
0.00190635 	-0.000250609 	-0.000277094 	0.307179
0.00195652 	-0.000248205 	-0.000283352 	0.309111
0.00200669 	-0.000245801 	-0.00028961 	0.311043
0.00205686 	-0.000243397 	-0.000295868 	0.312975
0.00210702 	-0.000240993 	-0.000302126 	0.314907
0.00215719 	-0.000238589 	-0.000308384 	0.316839
0.00220736 	-0.000236185 	-0.000314642 	0.318771
0.00225753 	-0.000233781 	-0.0003209 	0.320703
0.00230769 	-0.000231377 	-0.000327158 	0.322636
0.00235786 	-0.000228973 	-0.000333416 	0.324568
0.00240803 	-0.000226808 	-0.000338513 	0.326067
0.00245819 	-0.000224751 	-0.000343093 	0.327372
0.00250836 	-0.000222693 	-0.000347673 	0.328678
0.00255853 	-0.000220635 	-0.000352253 	0.329984
0.0026087 	-0.000218577 	-0.000356833 	0.331289
0.00265886 	-0.000216519 	-0.000361413 	0.332595
0.00270903 	-0.000214461 	-0.000365993 	0.333901
0.0027592 	-0.000212404 	-0.000370573 	0.335207
0.00280936 	-0.000210346 	-0.000375153 	0.336512
0.00285953 	-0.000208288 	-0.000379733 	0.337818
0.0029097 	-0.00020623 	-0.000384313 	0.339124
0.00295987 	-0.000204172 	-0.000388893 	0.340429
0.00301003 	-0.000202114 	-0.000393473 	0.341735
0.0030602 	-0.000200057 	-0.000398053 	0.343041
0.00311037 	-0.000198013 	-0.000402603 	0.344337
0.00316054 	-0.000196573 	-0.00040584 	0.345214
0.0032107 	-0.000195133 	-0.000409078 	0.346091
0.00326087 	-0.000193693 	-0.000412315 	0.346968
0.00331104 	-0.000192253 	-0.000415553 	0.347845
0.0033612 	-0.000190814 	-0.00041879 	0.348722
0.00341137 	-0.000189374 	-0.000422028 	0.349599
0.00346154 	-0.000187934 	-0.000425266 	0.350475
0.00351171 	-0.000186494 	-0.000428503 	0.351352
0.00356187 	-0.000185054 	-0.000431741 	0.352229
0.00361204 	-0.000183615 	-0.000434978 	0.353106
0.00366221 	-0.000182175 	-0.000438216 	0.353983
0.00371237 	-0.000180735 	-0.000441454 	0.35486
0.00376254 	-0.000179295 	-0.000444691 	0.355737
0.00381271 	-0.000177855 	-0.000447929 	0.356614
0.00386288 	-0.000176415 	-0.000451166 	0.357491
0.00391304 	-0.000174976 	-0.000454404 	0.358368
0.00396321 	-0.000173536 	-0.000457641 	0.359245
0.00401338 	-0.000172499 	-0.000460035 	0.359824
0.00406355 	-0.000171501 	-0.000462347 	0.360374
0.00411371 	-0.000170504 	-0.000464658 	0.360923
0.00416388 	-0.000169507 	-0.000466969 	0.361473
0.00421405 	-0.000168509 	-0.000469281 	0.362023
0.00426421 	-0.000167512 	-0.000471592 	0.362573
0.00431438 	-0.000166514 	-0.000473903 	0.363122
0.00436455 	-0.000165517 	-0.000476214 	0.363672
0.00441472 	-0.00016452 	-0.000478526 	0.364222
0.00446488 	-0.000163522 	-0.000480837 	0.364771
0.00451505 	-0.000162525 	-0.000483148 	0.365321
0.00456522 	-0.000161527 	-0.000485459 	0.365871
0.00461538 	-0.00016053 	-0.000487771 	0.366421
0.00466555 	-0.000159532 	-0.000490082 	0.36697
0.00471572 	-0.000158535 	-0.000492393 	0.36752
0.00476589 	-0.000157538 	-0.000494704 	0.36807
0.00481605 	-0.00015654 	-0.000497016 	0.368619
0.00486622 	-0.000155543 	-0.000499327 	0.369169
0.00491639 	-0.000154545 	-0.000501638 	0.369719
0.00496656 	-0.000153548 	-0.000503949 	0.370269
0.00501672 	-0.000152757 	-0.000505542 	0.370569
0.00506689 	-0.000151977 	-0.000507096 	0.370856
0.00511706 	-0.000151197 	-0.00050865 	0.371143
0.00516722 	-0.000150417 	-0.000510204 	0.37143
0.00521739 	-0.000149637 	-0.000511758 	0.371717
0.00526756 	-0.000148857 	-0.000513312 	0.372004
0.00531773 	-0.000148077 	-0.000514866 	0.372291
0.00536789 	-0.000147297 	-0.00051642 	0.372578
0.00541806 	-0.000146516 	-0.000517974 	0.372865
0.00546823 	-0.000145736 	-0.000519528 	0.373152
0.00551839 	-0.000144956 	-0.000521082 	0.373439
0.00556856 	-0.000144176 	-0.000522636 	0.373726
0.00561873 	-0.000143396 	-0.00052419 	0.374013
0.0056689 	-0.000142616 	-0.000525744 	0.3743
0.00571906 	-0.000141836 	-0.000527298 	0.374587
0.00576923 	-0.000141056 	-0.000528852 	0.374873
0.0058194 	-0.000140276 	-0.000530406 	0.37516
0.00586957 	-0.000139496 	-0.00053196 	0.375447
0.00591973 	-0.000138716 	-0.000533514 	0.375734
0.0059699 	-0.000137936 	-0.000535067 	0.376021
0.00602007 	-0.000137156 	-0.000536621 	0.376308
0.00607023 	-0.000136376 	-0.000538175 	0.376595
0.0061204 	-0.000135596 	-0.000539729 	0.376882
0.00617057 	-0.000134913 	-0.000540768 	0.377023
0.00622074 	-0.00013428 	-0.000541544 	0.37709
0.0062709 	-0.000133646 	-0.000542321 	0.377156
0.00632107 	-0.000133013 	-0.000543098 	0.377223
0.00637124 	-0.000132379 	-0.000543874 	0.37729
0.0064214 	-0.000131746 	-0.000544651 	0.377356
0.00647157 	-0.000131112 	-0.000545427 	0.377423
0.00652174 	-0.000130479 	-0.000546204 	0.377489
0.00657191 	-0.000129845 	-0.000546981 	0.377556
0.00662207 	-0.000129212 	-0.000547757 	0.377623
0.00667224 	-0.000128578 	-0.000548534 	0.377689
0.00672241 	-0.000127945 	-0.00054931 	0.377756
0.00677258 	-0.000127312 	-0.000550087 	0.377823
0.00682274 	-0.000126678 	-0.000550864 	0.377889
0.00687291 	-0.000126045 	-0.00055164 	0.377956
0.00692308 	-0.000125411 	-0.000552417 	0.378023
0.00697324 	-0.000124778 	-0.000553194 	0.378089
0.00702341 	-0.000124144 	-0.00055397 	0.378156
0.00707358 	-0.000123511 	-0.000554747 	0.378222
0.00712375 	-0.000122877 	-0.000555523 	0.378289
0.00717391 	-0.000122244 	-0.0005563 	0.378356
0.00722408 	-0.00012161 	-0.000557077 	0.378422
0.00727425 	-0.000120977 	-0.000557853 	0.378489
0.00732441 	-0.000120343 	-0.00055863 	0.378556
0.00737458 	-0.00011971 	-0.000559407 	0.378622
0.00742475 	-0.000119076 	-0.000560183 	0.378689
0.00747492 	-0.000118443 	-0.00056096 	0.378756
0.00752508 	-0.000117867 	-0.000561351 	0.378723
0.00757525 	-0.000117349 	-0.000561356 	0.378591
0.00762542 	-0.00011683 	-0.000561362 	0.37846
0.00767559 	-0.000116312 	-0.000561367 	0.378328
0.00772575 	-0.000115793 	-0.000561372 	0.378197
0.00777592 	-0.000115275 	-0.000561378 	0.378065
0.00782609 	-0.000114757 	-0.000561383 	0.377933
0.00787625 	-0.000114238 	-0.000561389 	0.377802
0.00792642 	-0.00011372 	-0.000561394 	0.37767
0.00797659 	-0.000113201 	-0.000561399 	0.377539
0.00802676 	-0.000112683 	-0.000561405 	0.377407
0.00807692 	-0.000112165 	-0.00056141 	0.377275
0.00812709 	-0.000111646 	-0.000561415 	0.377144
0.00817726 	-0.000111128 	-0.000561421 	0.377012
0.00822742 	-0.000110609 	-0.000561426 	0.37688
0.00827759 	-0.000110091 	-0.000561432 	0.376749
0.00832776 	-0.000109573 	-0.000561437 	0.376617
0.00837793 	-0.000109054 	-0.000561442 	0.376486
0.00842809 	-0.000108536 	-0.000561448 	0.376354
0.00847826 	-0.000108017 	-0.000561453 	0.376222
0.00852843 	-0.000107499 	-0.000561459 	0.376091
0.0085786 	-0.000106981 	-0.000561464 	0.375959
0.00862876 	-0.000106462 	-0.000561469 	0.375828
0.00867893 	-0.000105944 	-0.000561475 	0.375696
0.0087291 	-0.000105425 	-0.00056148 	0.375564
0.00877926 	-0.000104907 	-0.000561485 	0.375433
0.00882943 	-0.000104389 	-0.000561491 	0.375301
0.0088796 	-0.000103924 	-0.000561179 	0.375089
0.00892977 	-0.000103566 	-0.000560241 	0.374717
0.00897993 	-0.000103207 	-0.000559303 	0.374345
0.0090301 	-0.000102849 	-0.000558365 	0.373974
0.00908027 	-0.00010249 	-0.000557427 	0.373602
0.00913043 	-0.000102132 	-0.000556489 	0.373231
0.0091806 	-0.000101774 	-0.000555551 	0.372859
0.00923077 	-0.000101415 	-0.000554613 	0.372487
0.00928094 	-0.000101057 	-0.000553675 	0.372116
0.0093311 	-0.000100699 	-0.000552737 	0.371744
0.00938127 	-0.00010034 	-0.000551799 	0.371372
0.00943144 	-9.99819e-05 	-0.000550861 	0.371001
0.00948161 	-9.96235e-05 	-0.000549923 	0.370629
0.00953177 	-9.92651e-05 	-0.000548985 	0.370258
0.00958194 	-9.89068e-05 	-0.000548047 	0.369886
0.00963211 	-9.85484e-05 	-0.000547109 	0.369514
0.00968227 	-9.819e-05 	-0.000546171 	0.369143
0.00973244 	-9.78317e-05 	-0.000545233 	0.368771
0.00978261 	-9.74733e-05 	-0.000544295 	0.368399
0.00983278 	-9.71149e-05 	-0.000543357 	0.368028
0.00988294 	-9.67565e-05 	-0.000542419 	0.367656
0.00993311 	-9.63982e-05 	-0.000541481 	0.367285
0.00998328 	-9.60398e-05 	-0.000540543 	0.366913
0.0100334 	-9.5699e-05 	-0.000539549 	0.366527
0.0100836 	-9.56867e-05 	-0.000537509 	0.365872
0.0101338 	-9.56744e-05 	-0.000535469 	0.365216
0.0101839 	-9.56621e-05 	-0.000533429 	0.364561
0.0102341 	-9.56498e-05 	-0.000531389 	0.363905
0.0102843 	-9.56375e-05 	-0.000529349 	0.36325
0.0103344 	-9.56252e-05 	-0.000527308 	0.362595
0.0103846 	-9.56129e-05 	-0.000525268 	0.361939
0.0104348 	-9.56005e-05 	-0.000523228 	0.361284
0.0104849 	-9.55882e-05 	-0.000521188 	0.360629
0.0105351 	-9.55759e-05 	-0.000519148 	0.359973
0.0105853 	-9.55636e-05 	-0.000517108 	0.359318
0.0106355 	-9.55513e-05 	-0.000515068 	0.358663
0.0106856 	-9.5539e-05 	-0.000513027 	0.358007
0.0107358 	-9.55267e-05 	-0.000510987 	0.357352
0.010786 	-9.55144e-05 	-0.000508947 	0.356697
0.0108361 	-9.55021e-05 	-0.000506907 	0.356041
0.0108863 	-9.54897e-05 	-0.000504867 	0.355386
0.0109365 	-9.54774e-05 	-0.000502827 	0.354731
0.0109866 	-9.54651e-05 	-0.000500787 	0.354075
0.0110368 	-9.55082e-05 	-0.000498604 	0.353387
0.011087 	-9.61165e-05 	-0.000494972 	0.352364
0.0111371 	-9.67247e-05 	-0.000491339 	0.351342
0.0111873 	-9.7333e-05 	-0.000487707 	0.350319
0.0112375 	-9.79412e-05 	-0.000484074 	0.349296
0.0112876 	-9.85494e-05 	-0.000480441 	0.348274
0.0113378 	-9.91577e-05 	-0.000476809 	0.347251
0.011388 	-9.97659e-05 	-0.000473176 	0.346228
0.0114381 	-0.000100374 	-0.000469544 	0.345205
0.0114883 	-0.000100982 	-0.000465911 	0.344183
0.0115385 	-0.000101591 	-0.000462278 	0.34316
0.0115886 	-0.000102199 	-0.000458646 	0.342137
0.0116388 	-0.000102807 	-0.000455013 	0.341115
0.011689 	-0.000103415 	-0.000451381 	0.340092
0.0117391 	-0.000104024 	-0.000447748 	0.339069
0.0117893 	-0.000104632 	-0.000444115 	0.338047
0.0118395 	-0.00010524 	-0.000440483 	0.337024
0.0118896 	-0.000105848 	-0.00043685 	0.336001
0.0119398 	-0.000107334 	-0.000430731 	0.334441
0.01199 	-0.000108841 	-0.000424555 	0.332869
0.0120401 	-0.000110347 	-0.000418379 	0.331296
0.0120903 	-0.000111853 	-0.000412202 	0.329724
0.0121405 	-0.00011336 	-0.000406026 	0.328151
0.0121906 	-0.000114866 	-0.000399849 	0.326579
0.0122408 	-0.000116373 	-0.000393673 	0.325007
0.012291 	-0.000117879 	-0.000387497 	0.323434
0.0123411 	-0.000119385 	-0.00038132 	0.321862
0.0123913 	-0.000120892 	-0.000375144 	0.320289
0.0124415 	-0.000122398 	-0.000368968 	0.318717
0.0124916 	-0.000123904 	-0.000362791 	0.317144
0.0125418 	-0.000125411 	-0.000356615 	0.315572
0.012592 	-0.000126917 	-0.000350438 	0.313999
0.0126421 	-0.000128676 	-0.0003433 	0.312143
0.0126923 	-0.000131 	-0.000334005 	0.309649
0.0127425 	-0.000133325 	-0.00032471 	0.307154
0.0127926 	-0.00013565 	-0.000315415 	0.30466
0.0128428 	-0.000137974 	-0.000306119 	0.302166
0.012893 	-0.000140299 	-0.000296824 	0.299672
0.0129431 	-0.000142623 	-0.000287529 	0.297178
0.0129933 	-0.000144948 	-0.000278234 	0.294684
0.0130435 	-0.000147272 	-0.000268938 	0.292189
0.0130936 	-0.000149597 	-0.000259643 	0.289695
0.0131438 	-0.000151921 	-0.000250348 	0.287201
0.013194 	-0.000154246 	-0.000241053 	0.284707
0.0132441 	-0.000156571 	-0.000231757 	0.282213
0.0132943 	-0.000158589 	-0.000220873 	0.278505
0.0133445 	-0.000160495 	-0.000209412 	0.274357
0.0133946 	-0.000162402 	-0.000197951 	0.270208
0.0134448 	-0.000164309 	-0.00018649 	0.26606
0.013495 	-0.000166215 	-0.000175028 	0.261911
0.0135452 	-0.000168122 	-0.000163567 	0.257762
0.0135953 	-0.000170029 	-0.000152106 	0.253614
0.0136455 	-0.000171935 	-0.000140644 	0.249465
0.0136957 	-0.000173842 	-0.000129183 	0.245317
0.0137458 	-0.000175749 	-0.000117722 	0.241168
0.013796 	-0.000177655 	-0.00010626 	0.23702
0.0138462 	-0.000175635 	-9.64402e-05 	0.229581
0.0138963 	-0.000173423 	-8.66999e-05 	0.221982
0.0139465 	-0.00017121 	-7.69596e-05 	0.214383
0.0139967 	-0.000168998 	-6.72192e-05 	0.206784
0.0140468 	-0.000166786 	-5.74789e-05 	0.199185
0.014097 	-0.000164574 	-4.77386e-05 	0.191586
0.0141472 	-0.000162362 	-3.79982e-05 	0.183987
0.0141973 	-0.00016015 	-2.82579e-05 	0.176389
0.0142475 	-0.000157937 	-1.85176e-05 	0.16879
0.0142977 	-0.000150432 	-1.34345e-05 	0.158251
0.0143478 	-0.000140792 	-1.02298e-05 	0.146527
0.014398 	-0.000131152 	-7.02513e-06 	0.134803
0.0144482 	-0.000121512 	-3.82042e-06 	0.123079
0.0144983 	-0.000111872 	-6.15712e-07 	0.111355
0.0145485 	-0.000102232 	2.589e-06 	0.099631
0.0145987 	-9.25925e-05 	5.7937e-06 	0.087907
0.0146488 	-8.29525e-05 	8.99841e-06 	0.0761829
0.014699 	-7.15106e-05 	8.54263e-06 	0.0651443
0.0147492 	-5.95922e-05 	7.11885e-06 	0.0542869
0.0147993 	-4.76737e-05 	5.69508e-06 	0.0434295
0.0148495 	-3.57553e-05 	4.27131e-06 	0.0325722
0.0148997 	-2.38369e-05 	2.84754e-06 	0.0217148
0.0149498 	-1.19184e-05 	1.42377e-06 	0.0108574
0.015 	0 	0 	0
