/*--------------------------------*- C++ -*----------------------------------*\
| =========                 |                                                 |
| \\      /  F ield         | OpenFOAM: The Open Source CFD Toolbox           |
|  \\    /   O peration     | Version:  v1912                                 |
|   \\  /    A nd           | Website:  www.openfoam.com                      |
|    \\/     M anipulation  |                                                 |
\*---------------------------------------------------------------------------*/
FoamFile
{
    version     2.0;
    format      ascii;
    class       volScalarField;
    location    "196.8";
    object      heatTransferCoeff(T);
}
// * * * * * * * * * * * * * * * * * * * * * * * * * * * * * * * * * * * * * //

dimensions      [1 0 -3 -1 0 0 0];


internalField   uniform 0;

boundaryField
{
    leftWall
    {
        type            calculated;
        value           nonuniform List<scalar> 
128
(
-26.6776
-477.623
-330.95
-344.553
-270.067
-324.406
-249.389
-321.508
-394.475
-384.602
-358.746
-313.786
-315.221
-284.497
-299.798
-269.565
-313.812
-292.832
-358.047
-280.702
-327.282
-252.799
-314.186
-234.676
-281.135
-314.123
-351.818
-288.97
-320.476
-266.537
-306.91
-252.283
-285.04
-325.221
-350.998
-293.255
-317.535
-269.389
-303.714
-254.959
-283.555
-332.35
-353.24
-298.934
-319.718
-274.472
-305.676
-258.699
-284.016
-336.228
-353.177
-300.472
-319.13
-275.673
-305.226
-259.69
-284.444
-339.102
-354.116
-302.111
-319.718
-276.976
-305.658
-260.617
-284.648
-339.521
-353.998
-302.111
-319.432
-276.884
-305.399
-260.545
-284.309
-339.136
-354.135
-302.179
-319.727
-277.025
-305.668
-260.679
-283.826
-336.31
-353.189
-300.564
-319.128
-275.752
-305.219
-259.805
-283.36
-332.485
-353.286
-299.054
-319.724
-274.572
-305.686
-258.849
-284.843
-325.318
-350.98
-293.334
-317.493
-269.474
-303.712
-255.109
-280.967
-314.211
-351.742
-289.022
-320.437
-266.629
-306.943
-252.45
-313.693
-292.885
-357.984
-280.743
-327.281
-252.867
-314.258
-234.788
-394.569
-384.533
-358.803
-313.748
-315.29
-284.449
-299.963
-269.558
)
;
    }
    rightWall
    {
        type            calculated;
        value           nonuniform 0();
    }
    leftSides_periodic0
    {
        type            cyclic;
    }
    leftSides_periodic1
    {
        type            cyclic;
    }
    rightSides_periodic0
    {
        type            cyclic;
    }
    rightSides_periodic1
    {
        type            cyclic;
    }
    leftInOut_periodic0
    {
        type            cyclic;
    }
    leftInOut_periodic1
    {
        type            cyclic;
    }
    rightInOut_periodic0
    {
        type            cyclic;
    }
    rightInOut_periodic1
    {
        type            cyclic;
    }
    procBoundary0to1
    {
        type            processor;
        value           uniform 0;
    }
    procBoundary0to1throughleftInOut_periodic1
    {
        type            processorCyclic;
        value           uniform 0;
    }
    procBoundary0to2
    {
        type            processor;
        value           uniform 0;
    }
    procBoundary0to2throughleftSides_periodic0
    {
        type            processorCyclic;
        value           uniform 0;
    }
}


// ************************************************************************* //
