/*--------------------------------*- C++ -*----------------------------------*\
| =========                 |                                                 |
| \\      /  F ield         | OpenFOAM: The Open Source CFD Toolbox           |
|  \\    /   O peration     | Version:  v1912                                 |
|   \\  /    A nd           | Website:  www.openfoam.com                      |
|    \\/     M anipulation  |                                                 |
\*---------------------------------------------------------------------------*/
FoamFile
{
    version     2.0;
    format      ascii;
    class       volVectorField;
    location    "196.8";
    object      UMean;
}
// * * * * * * * * * * * * * * * * * * * * * * * * * * * * * * * * * * * * * //

dimensions      [0 1 -1 0 0 0 0];


internalField   nonuniform List<vector> 
10077
(
(2.92383e-06 -0.000978603 -0.00715099)
(-0.00383465 -2.04056e-05 -0.00359143)
(3.60257e-05 -1.00718e-05 -0.00288297)
(-0.000219817 -6.98891e-06 -0.00478693)
(7.91676e-05 -6.9292e-06 -0.00473366)
(5.29776e-05 -6.68771e-06 -0.00510534)
(7.78019e-05 -6.62646e-06 -0.00517443)
(3.29331e-05 -6.51928e-06 -0.00526029)
(1.16459e-06 -6.58692e-06 -0.00525798)
(-3.07526e-05 -6.51855e-06 -0.00526515)
(-7.59258e-05 -6.62405e-06 -0.00517894)
(-5.10135e-05 -6.68666e-06 -0.00511226)
(-7.88508e-05 -6.92141e-06 -0.00474387)
(0.000220137 -6.98967e-06 -0.00479324)
(-3.84231e-05 -1.00528e-05 -0.00290139)
(0.00383142 -2.04221e-05 -0.00357205)
(8.20956e-06 0.00493374 -0.0188746)
(-0.00982026 -6.63654e-05 -0.0077481)
(9.33745e-05 -8.00325e-05 -0.00570759)
(-0.00058732 -3.95048e-05 -0.011347)
(0.00023993 -4.21333e-05 -0.0111906)
(0.000151431 -3.90465e-05 -0.0122965)
(0.000216989 -3.88879e-05 -0.0124998)
(9.13829e-05 -3.81216e-05 -0.012753)
(2.99867e-06 -3.84752e-05 -0.012746)
(-8.58984e-05 -3.8108e-05 -0.0127677)
(-0.000212113 -3.88682e-05 -0.0125141)
(-0.000146457 -3.90156e-05 -0.0123181)
(-0.000238985 -4.20712e-05 -0.0112226)
(0.000588486 -3.94685e-05 -0.0113669)
(-9.86721e-05 -7.99088e-05 -0.00576317)
(0.00981242 -6.64434e-05 -0.00769244)
(1.32783e-05 -0.000936769 -0.0283602)
(-0.0141201 -0.000151161 -0.00916491)
(0.000243247 -0.000200537 -0.0058268)
(-0.000885925 -8.88065e-05 -0.015146)
(0.000396853 -9.71074e-05 -0.014887)
(0.000240064 -8.86201e-05 -0.016721)
(0.000338843 -8.84359e-05 -0.0170553)
(0.000141915 -8.65562e-05 -0.0174725)
(4.31221e-06 -8.73566e-05 -0.0174607)
(-0.000134254 -8.6513e-05 -0.0174973)
(-0.000331805 -8.83818e-05 -0.0170803)
(-0.000233018 -8.85313e-05 -0.0167581)
(-0.000395202 -9.6953e-05 -0.0149418)
(0.000888319 -8.86979e-05 -0.0151803)
(-0.000249699 -0.00020026 -0.00591989)
(0.0141094 -0.000151405 -0.00907508)
(1.83125e-05 0.00378874 -0.0357199)
(-0.017461 -0.000230767 -0.00813594)
(0.000404046 -0.000358923 -0.00345028)
(-0.00114441 -0.000147262 -0.0163671)
(0.000527416 -0.000164842 -0.0160032)
(0.000309648 -0.000148937 -0.0185539)
(0.00043908 -0.000148959 -0.0190149)
(0.000182732 -0.00014568 -0.0195917)
(5.0366e-06 -0.00014706 -0.0195754)
(-0.000174138 -0.000145597 -0.0196266)
(-0.000430784 -0.000148863 -0.0190512)
(-0.000301427 -0.000148779 -0.0186071)
(-0.000524869 -0.000164582 -0.0160811)
(0.00114843 -0.000147067 -0.0164165)
(-0.000410159 -0.000358467 -0.00358082)
(0.017449 -0.000231236 -0.00801385)
(2.33431e-05 0.0015166 -0.040791)
(-0.0200361 -0.00032052 -0.00494262)
(0.000511231 -0.000545432 0.00119113)
(-0.0013754 -0.000209374 -0.0152026)
(0.000623087 -0.000239372 -0.0147312)
(0.000356925 -0.000213837 -0.0179813)
(0.000516452 -0.000214296 -0.0185636)
(0.000213363 -0.000209405 -0.0192944)
(5.16753e-06 -0.000211474 -0.0192743)
(-0.000205057 -0.000209282 -0.0193396)
(-0.000507772 -0.000214173 -0.0186116)
(-0.000348368 -0.000213635 -0.0180507)
(-0.000619445 -0.00023906 -0.0148322)
(0.00138139 -0.000209136 -0.0152673)
(-0.00051571 -0.000544772 0.00102369)
(0.0200244 -0.00032125 -0.00479007)
(2.82754e-05 0.00246839 -0.0434281)
(-0.0219586 -0.000408637 0.000165965)
(0.000554958 -0.00075014 0.00783073)
(-0.00157701 -0.000272217 -0.0118638)
(0.000685792 -0.000317383 -0.0112834)
(0.000383229 -0.000280559 -0.0152083)
(0.000571788 -0.000281659 -0.0159052)
(0.000234218 -0.000274916 -0.0167827)
(4.74752e-06 -0.00027778 -0.0167594)
(-0.000227317 -0.00027475 -0.0168379)
(-0.000563529 -0.000281512 -0.0159649)
(-0.000375116 -0.000280315 -0.0152936)
(-0.000680904 -0.000317044 -0.0114067)
(0.00158523 -0.00027194 -0.0119437)
(-0.000556672 -0.000749248 0.00762755)
(0.0219486 -0.000409611 0.000347079)
(3.29377e-05 0.00261714 -0.043557)
(-0.0232441 -0.000492951 0.00693436)
(0.000530197 -0.000966577 0.0161312)
(-0.00174678 -0.000333688 -0.00661015)
(0.000718183 -0.000396036 -0.00592111)
(0.000390441 -0.000347276 -0.0104844)
(0.000606244 -0.000349267 -0.0112876)
(0.000245893 -0.000340522 -0.0123026)
(3.84589e-06 -0.000344282 -0.0122768)
(-0.000241357 -0.000340317 -0.0123676)
(-0.000599113 -0.000349102 -0.011359)
(-0.000383464 -0.000346995 -0.0105852)
(-0.000711953 -0.000395672 -0.0060659)
(0.00175743 -0.000333364 -0.00670499)
(-0.000528228 -0.00096546 0.0158942)
(0.0232374 -0.000494161 0.0071417)
(3.71081e-05 0.00285308 -0.0412808)
(-0.0239197 -0.000570209 0.0150586)
(0.000438377 -0.00118827 0.0256693)
(-0.00188265 -0.00039125 0.000215969)
(0.000723747 -0.00047217 0.00101067)
(0.000381176 -0.000410993 -0.00414249)
(0.000621595 -0.000414177 -0.00504248)
(0.000249299 -0.000403433 -0.00618488)
(2.56511e-06 -0.00040817 -0.00615709)
(-0.000247861 -0.000403205 -0.00625933)
(-0.000616152 -0.000414024 -0.00512549)
(-0.000375892 -0.000410721 -0.00425816)
(-0.000716138 -0.000471837 0.000845101)
(0.0018958 -0.000390924 0.000106494)
(-0.000432073 -0.00118696 0.0254005)
(0.0239175 -0.000571656 0.015289)
(4.05999e-05 0.00305833 -0.0369436)
(-0.0240253 -0.000638446 0.0241794)
(0.00028683 -0.00140919 0.0359874)
(-0.00198455 -0.00044279 0.00820244)
(0.000706746 -0.00054299 0.00909733)
(0.000358698 -0.00046901 0.00340831)
(0.000620448 -0.00047366 0.0024203)
(0.000245731 -0.000460933 0.0011591)
(1.03964e-06 -0.00046671 0.00118859)
(-0.000247844 -0.000460699 0.00107551)
(-0.000617062 -0.000473547 0.00232558)
(-0.000355477 -0.000468792 0.00327775)
(-0.000697755 -0.000542744 0.00891063)
(0.00200018 -0.0004425 0.00807788)
(-0.000275831 -0.00140774 0.035689)
(0.0240289 -0.000640138 0.0244291)
(4.33405e-05 0.00328393 -0.0310654)
(-0.0236337 -0.00069591 0.0339328)
(8.70946e-05 -0.00162326 0.0466895)
(-0.00205538 -0.000486569 0.0169468)
(0.000671614 -0.000606119 0.0179352)
(0.000326408 -0.00051908 0.01176)
(0.000606006 -0.000525417 0.0106908)
(0.000236724 -0.000510719 0.00931646)
(-5.95438e-07 -0.000517584 0.00934747)
(-0.000242557 -0.000510492 0.00922374)
(-0.000604847 -0.000525366 0.0105838)
(-0.000325421 -0.000518954 0.011614)
(-0.000661262 -0.000606006 0.017726)
(0.00207339 -0.000486351 0.0168059)
(-7.12977e-05 -0.00162169 0.0463629)
(0.023644 -0.000697852 0.0341974)
(4.53726e-05 0.00351191 -0.0241617)
(-0.0228385 -0.000741177 0.0440155)
(-0.000148977 -0.00182655 0.0575693)
(-0.00210007 -0.000521177 0.026138)
(0.000622278 -0.000659449 0.0272129)
(0.0002872 -0.000559292 0.0205924)
(0.00058142 -0.000567487 0.0194466)
(0.000223731 -0.000550834 0.0179623)
(-2.23598e-06 -0.000558821 0.0179947)
(-0.000233241 -0.000550627 0.0178603)
(-0.000582504 -0.000567519 0.0193266)
(-0.000288464 -0.000559293 0.0204299)
(-0.000610595 -0.000659508 0.0269793)
(0.00212034 -0.000521063 0.0259791)
(0.000169523 -0.00182493 0.0572157)
(0.0228561 -0.000743379 0.0442914)
(4.67978e-05 0.00373893 -0.0166079)
(-0.0217246 -0.000773272 0.0542842)
(-0.000410844 -0.00201627 0.0685434)
(-0.00212376 -0.00054568 0.0356326)
(0.000561676 -0.000701557 0.0367969)
(0.00024316 -0.000588169 0.0297294)
(0.000549256 -0.0005983 0.0285051)
(0.000207907 -0.000579656 0.0269029)
(-3.81242e-06 -0.000588787 0.026937)
(-0.000220912 -0.000579477 0.0267908)
(-0.000552484 -0.000598427 0.0283704)
(-0.000246567 -0.000588322 0.0295484)
(-0.000548662 -0.000701807 0.0365354)
(0.00214614 -0.00054569 0.0354529)
(0.000436041 -0.00201463 0.0681626)
(0.0217498 -0.000775747 0.0545673)
(4.7718e-05 0.00396579 -0.00862253)
(-0.0203579 -0.000792313 0.0646584)
(-0.000686201 -0.00218874 0.0795016)
(-0.0021299 -0.000559426 0.045431)
(0.000492003 -0.000731494 0.0466828)
(0.00019545 -0.000604816 0.039172)
(0.000511113 -0.00061693 0.0378687)
(0.00018991 -0.000596242 0.0361438)
(-5.3107e-06 -0.00060654 0.0361795)
(-0.000206203 -0.0005961 0.0360206)
(-0.00051636 -0.00061716 0.0377175)
(-0.000200879 -0.00060514 0.0389707)
(-0.000477682 -0.000731947 0.0463902)
(0.00215429 -0.000559573 0.0452276)
(0.000715932 -0.00218712 0.0790939)
(0.0203909 -0.000795071 0.0649433)
(4.82327e-05 0.00419633 -0.000315413)
(-0.0187973 -0.000798211 0.0750143)
(-0.000962218 -0.00234139 0.0903249)
(-0.00212027 -0.000561786 0.0555062)
(0.000415787 -0.00074835 0.056827)
(0.000145208 -0.000608446 0.0489235)
(0.000468241 -0.000622551 0.0475478)
(0.000170237 -0.000599743 0.0457103)
(-6.72735e-06 -0.000611228 0.0457464)
(-0.000189606 -0.000599645 0.0455757)
(-0.000475393 -0.00062289 0.0473798)
(-0.000152567 -0.000608957 0.0487019)
(-0.000400262 -0.000749012 0.0565034)
(0.00214654 -0.000562079 0.0552786)
(0.000996329 -0.00233982 0.0898935)
(0.0188381 -0.00080126 0.0752964)
(4.84194e-05 0.00442463 0.00833532)
(-0.017096 -0.000791043 0.0852463)
(-0.00122797 -0.00247279 0.100916)
(-0.00209615 -0.000552545 0.0657668)
(0.000335809 -0.000751733 0.0671332)
(9.3994e-05 -0.000598669 0.0588945)
(0.000422159 -0.000614698 0.057454)
(0.000149542 -0.000589644 0.0555167)
(-8.03099e-06 -0.000602325 0.0555519)
(-0.000171722 -0.000589592 0.055371)
(-0.000431067 -0.000615141 0.0572697)
(-0.000103168 -0.000599366 0.0586537)
(-0.000319217 -0.000752589 0.0667798)
(0.00212414 -0.000552979 0.0655155)
(0.00126626 -0.00247131 0.100465)
(0.0171445 -0.000794394 0.0855217)
(4.83139e-05 0.00464836 0.0174176)
(-0.0153042 -0.000771638 0.0952689)
(-0.00147467 -0.00258222 0.111198)
(-0.00205892 -0.00053194 0.0761249)
(0.000254479 -0.000741798 0.0775117)
(4.31754e-05 -0.000575676 0.0689971)
(0.000374233 -0.000593519 0.0674994)
(0.000128415 -0.00056605 0.0654757)
(-9.19217e-06 -0.000579934 0.0655087)
(-0.000153084 -0.000566043 0.0653196)
(-0.000384709 -0.000594052 0.0672995)
(-5.40159e-05 -0.000576546 0.0687385)
(-0.000236968 -0.000742815 0.07713)
(0.00208848 -0.000532499 0.0758508)
(0.00151689 -0.00258086 0.110731)
(0.0153602 -0.000775303 0.0955338)
(4.79384e-05 0.00487238 0.0269299)
(-0.0134658 -0.000740765 0.105014)
(-0.00169555 -0.00266955 0.121112)
(-0.00201013 -0.000500407 0.086497)
(0.000173892 -0.000718979 0.0878789)
(-6.09613e-06 -0.000539933 0.0791486)
(0.00032567 -0.000559444 0.0776012)
(0.000107367 -0.000529342 0.075505)
(-1.01866e-05 -0.000544433 0.0755345)
(-0.00013416 -0.000529375 0.075339)
(-0.000337494 -0.000560046 0.0773863)
(-6.23344e-06 -0.000540949 0.0788735)
(-0.000155615 -0.000720112 0.0874705)
(0.00204109 -0.000501063 0.086201)
(0.00174143 -0.00266831 0.120633)
(0.0135288 -0.000744769 0.105265)
(4.73199e-05 0.00509897 0.0367797)
(-0.0116185 -0.000699176 0.114428)
(-0.00188584 -0.00273516 0.130612)
(-0.00195141 -0.000458501 0.0967967)
(9.59481e-05 -0.000683972 0.0981506)
(-5.27962e-05 -0.000492085 0.0892641)
(0.000277579 -0.00051308 0.0876744)
(8.68628e-05 -0.000480065 0.0855194)
(-1.09945e-05 -0.000496372 0.0855442)
(-0.00011538 -0.000480136 0.0853442)
(-0.000290504 -0.000513724 0.0874455)
(3.91793e-05 -0.000493211 0.0889737)
(-7.70551e-05 -0.000685169 0.0977172)
(0.0019836 -0.000459221 0.0964802)
(0.00193507 -0.00273405 0.130124)
(0.011688 -0.000703548 0.114663)
(4.64939e-05 0.00532537 0.046836)
(-0.00979518 -0.000647583 0.123469)
(-0.00204268 -0.00277977 0.139663)
(-0.00188461 -0.00040703 0.106929)
(2.23495e-05 -0.000637772 0.108237)
(-9.60209e-05 -0.000432957 0.0992492)
(0.000230997 -0.00045519 0.0976252)
(6.73294e-05 -0.000418912 0.0954237)
(-1.16006e-05 -0.000436443 0.0954434)
(-9.71436e-05 -0.000419015 0.0952401)
(-0.000244754 -0.000455856 0.0973829)
(8.13393e-05 -0.000434156 0.0989445)
(-2.98303e-06 -0.000638965 0.107781)
(0.00191788 -0.000407774 0.106593)
(0.0020949 -0.00277879 0.139171)
(0.00987063 -0.000652344 0.123686)
(4.55034e-05 0.0055491 0.0569449)
(-0.00802497 -0.000586826 0.132104)
(-0.00216498 -0.00280435 0.148243)
(-0.001812 -0.000346879 0.116792)
(-4.54895e-05 -0.000581505 0.118044)
(-0.000135061 -0.00036367 0.109001)
(0.000186855 -0.000386897 0.107351)
(4.91376e-05 -0.000346992 0.105115)
(-1.1997e-05 -0.000365748 0.105129)
(-7.98095e-05 -0.000347123 0.104924)
(-0.000201163 -0.000387558 0.107096)
(0.000119552 -0.000364897 0.108683)
(6.51979e-05 -0.000582625 0.117568)
(0.00184617 -0.000347602 0.116439)
(0.00221983 -0.00280349 0.147749)
(0.00810551 -0.000591987 0.132301)
(4.43927e-05 0.00576961 0.0669605)
(-0.00633402 -0.000517893 0.140309)
(-0.00225319 -0.00281006 0.156337)
(-0.00173617 -0.000279329 0.12629)
(-0.000106631 -0.000516545 0.127481)
(-0.000169507 -0.00028571 0.118427)
(0.000145848 -0.000309621 0.116764)
(3.25324e-05 -0.000265614 0.114515)
(-1.21848e-05 -0.000285598 0.114523)
(-6.36267e-05 -0.000265754 0.114319)
(-0.000160426 -0.000310241 0.1165)
(0.000153411 -0.000286907 0.118098)
(0.000126562 -0.000517497 0.126989)
(0.00177106 -0.000279965 0.125924)
(0.00231031 -0.00280929 0.155844)
(0.00641872 -0.000523454 0.140485)
(4.32014e-05 0.00598576 0.0767886)
(-0.00474558 -0.000441822 0.148069)
(-0.0023091 -0.00279822 0.163942)
(-0.00165926 -0.000205564 0.135383)
(-0.00016075 -0.000444421 0.136486)
(-0.000199391 -0.000200312 0.127508)
(0.000108251 -0.000224621 0.125843)
(1.76089e-05 -0.000176035 0.1236)
(-1.21702e-05 -0.000197245 0.1236)
(-4.87055e-05 -0.000176154 0.123399)
(-0.000122819 -0.000225149 0.125571)
(0.000182953 -0.000201407 0.127171)
(0.000180804 -0.000445105 0.135981)
(0.0016947 -0.000206044 0.135007)
(0.0023681 -0.00279752 0.163451)
(0.00483344 -0.000447782 0.148224)
(4.19625e-05 0.00619723 0.086394)
(-0.0032795 -0.000359538 0.155377)
(-0.00233548 -0.00277031 0.17106)
(-0.00158261 -0.000126363 0.144087)
(-0.00020819 -0.000366162 0.145073)
(-0.000224873 -0.000108543 0.136253)
(7.41775e-05 -0.000133072 0.134591)
(4.41182e-06 -7.96452e-05 0.132355)
(-1.19628e-05 -0.000102059 0.132347)
(-3.51108e-05 -7.97101e-05 0.132151)
(-8.84592e-05 -0.000133452 0.134312)
(0.000208345 -0.000109469 0.135909)
(0.0002283 -0.0003665 0.144558)
(0.00161848 -0.00012664 0.1437)
(0.00239601 -0.00276964 0.170576)
(0.00336948 -0.000365894 0.15551)
(4.07036e-05 0.0064041 0.0957712)
(-0.00195151 -0.000272106 0.162233)
(-0.00233584 -0.00272793 0.177704)
(-0.00150724 -4.25274e-05 0.152412)
(-0.000249343 -0.00028264 0.153275)
(-0.00024607 -1.17049e-05 0.144654)
(4.37419e-05 -3.63294e-05 0.142997)
(-7.04443e-06 2.20792e-05 0.140767)
(-1.15749e-05 -1.5074e-06 0.140753)
(-2.28844e-05 2.21072e-05 0.140559)
(-5.74732e-05 -3.6501e-05 0.142711)
(0.000229703 -1.2391e-05 0.144301)
(0.000269471 -0.000282574 0.15275)
(0.00154341 -4.25667e-05 0.152014)
(0.00239753 -0.00272726 0.177228)
(0.00204257 -0.000278875 0.162344)
(3.94471e-05 0.00660648 0.104921)
(-0.000769719 -0.000180085 0.168651)
(-0.00231406 -0.00267276 0.183892)
(-0.00143401 4.51297e-05 0.160359)
(-0.000284386 -0.000194994 0.161094)
(-0.000263189 8.9275e-05 0.152716)
(1.69267e-05 6.46334e-05 0.151069)
(-1.68024e-05 0.000128014 0.148846)
(-1.10209e-05 0.000103302 0.148825)
(-1.20137e-05 0.000128174 0.148635)
(-2.98605e-05 6.47311e-05 0.150776)
(0.000247219 8.88888e-05 0.152355)
(0.00030451 -0.000194483 0.160557)
(0.00147037 4.53465e-05 0.159951)
(0.00237658 -0.00267205 0.183425)
(0.000861082 -0.000187308 0.168741)
(3.82105e-05 0.00680413 0.113838)
(0.000269931 -8.35969e-05 0.17468)
(-0.00227415 -0.00260648 0.189646)
(-0.00136349 0.000135925 0.167938)
(-0.000313606 -0.000104118 0.168534)
(-0.00027648 0.000193693 0.160459)
(-6.36466e-06 0.000169089 0.158826)
(-2.49317e-05 0.000237323 0.156615)
(-1.03141e-05 0.00021155 0.156588)
(-2.45775e-06 0.000237652 0.156402)
(-5.54094e-06 0.000169503 0.158525)
(0.000261133 0.000193647 0.160088)
(0.000333726 -0.000103143 0.167988)
(0.00139995 0.000136398 0.167519)
(0.00233719 -0.00260568 0.18919)
(-0.000178784 -9.12844e-05 0.174748)
(3.70074e-05 0.00699708 0.12251)
(0.00117588 1.59657e-05 0.180364)
(-0.00222 -0.00253069 0.194992)
(-0.00129601 0.000229183 0.17516)
(-0.000337401 -1.0832e-05 0.175607)
(-0.000286175 0.000300971 0.167899)
(-2.62478e-05 0.000276467 0.166291)
(-3.15028e-05 0.000349402 0.164101)
(-9.46554e-06 0.000322641 0.164066)
(5.82976e-06 0.00034993 0.163885)
(1.5588e-05 0.000277228 0.165982)
(0.000271669 0.000301283 0.167518)
(0.000357536 -9.39222e-06 0.175051)
(0.00133248 0.0002299 0.17473)
(0.00228328 -0.00252975 0.194549)
(-0.00108537 7.86381e-06 0.180409)
(3.58467e-05 0.00718573 0.130919)
(0.00195551 0.000116998 0.185713)
(-0.00215539 -0.00244682 0.199957)
(-0.00123161 0.000324195 0.182033)
(-0.000356177 8.40419e-05 0.182321)
(-0.000292478 0.000410578 0.175052)
(-4.28354e-05 0.000386276 0.173477)
(-3.65792e-05 0.000463808 0.171322)
(-8.48471e-06 0.000436118 0.171278)
(1.28917e-05 0.000464556 0.171103)
(3.3628e-05 0.000387396 0.173159)
(0.000279024 0.000411248 0.174661)
(0.000376367 8.59444e-05 0.181758)
(0.00126802 0.000325137 0.181595)
(0.00221865 -0.00244569 0.199528)
(-0.00186602 0.00010854 0.185736)
(3.4734e-05 0.00737029 0.139043)
(0.0026156 0.000218618 0.190735)
(-0.00208373 -0.00235622 0.20457)
(-0.00117019 0.000420179 0.188561)
(-0.000370326 0.000179658 0.188683)
(-0.000295566 0.000521965 0.18192)
(-5.6237e-05 0.000498017 0.180389)
(-4.02195e-05 0.000580133 0.178286)
(-7.38064e-06 0.000551551 0.178232)
(1.87673e-05 0.000581114 0.178065)
(4.86785e-05 0.000499502 0.180063)
(0.00028337 0.000522989 0.181519)
(0.000390632 0.000182026 0.188116)
(0.00120646 0.00042133 0.188116)
(0.00214676 -0.00235486 0.204158)
(-0.00252752 0.000209846 0.190739)
(3.36725e-05 0.00755031 0.146861)
(0.00316259 0.000319681 0.19544)
(-0.00200774 -0.00225985 0.208867)
(-0.00111154 0.000516161 0.194738)
(-0.000380215 0.000275083 0.194695)
(-0.000295614 0.000634456 0.188494)
(-6.65698e-05 0.000611081 0.187018)
(-4.24853e-05 0.000697883 0.184989)
(-6.16322e-06 0.000668427 0.184922)
(2.3497e-05 0.000699107 0.184764)
(6.08447e-05 0.000612933 0.186685)
(0.000284874 0.000635833 0.188084)
(0.000400716 0.000277936 0.194127)
(0.00114763 0.000517516 0.194289)
(0.00207033 -0.00225823 0.208473)
(-0.00307624 0.000310655 0.195425)
(3.26635e-05 0.00772526 0.154354)
(0.00360394 0.000418961 0.199838)
(-0.00192935 -0.00215842 0.212881)
(-0.00105543 0.000610887 0.20055)
(-0.000386212 0.000369198 0.20035)
(-0.000292828 0.000747073 0.194749)
(-7.39824e-05 0.000724564 0.19334)
(-4.34548e-05 0.000816297 0.191405)
(-4.84586e-06 0.000785968 0.191324)
(2.71317e-05 0.000817775 0.19118)
(7.02572e-05 0.000726793 0.193002)
(0.000283728 0.000748813 0.194335)
(0.000406997 0.00037258 0.199786)
(0.00109131 0.000612467 0.2001)
(0.00199133 -0.00215647 0.212507)
(-0.0035196 0.000409719 0.199806)
(3.17075e-05 0.00789397 0.161507)
(0.00394825 0.000516022 0.203941)
(-0.00184999 -0.00205308 0.216638)
(-0.00100157 0.000702891 0.205988)
(-0.000388699 0.00046071 0.205642)
(-0.00028748 0.000858448 0.200655)
(-7.86867e-05 0.000837171 0.19932)
(-4.32397e-05 0.000934212 0.1975)
(-3.44787e-06 0.000902996 0.197404)
(2.97436e-05 0.000935958 0.197274)
(7.71e-05 0.000839795 0.198978)
(0.000280179 0.000860578 0.200238)
(0.000409858 0.000464701 0.205086)
(0.00103722 0.000704752 0.205542)
(0.00191123 -0.00205074 0.216285)
(-0.0038661 0.000506579 0.203895)
(3.08051e-05 0.00805488 0.168301)
(0.00420498 0.000610969 0.207764)
(-0.00177082 -0.0019451 0.220155)
(-0.000949555 0.000790815 0.211051)
(-0.000388065 0.000548355 0.21057)
(-0.000279894 0.000966855 0.206183)
(-8.09668e-05 0.000947208 0.204925)
(-4.19889e-05 0.00105003 0.203236)
(-1.99438e-06 0.00101791 0.203122)
(3.14315e-05 0.00105206 0.203011)
(8.16184e-05 0.000950261 0.204582)
(0.000274514 0.000969426 0.205766)
(0.000409679 0.000553065 0.210026)
(0.000984986 0.000793047 0.210611)
(0.00183123 -0.00194229 0.219823)
(-0.00412514 0.000601361 0.207705)
(2.99565e-05 0.00820749 0.174703)
(0.00438431 0.000703699 0.211321)
(-0.00169298 -0.00183541 0.223446)
(-0.000898955 0.000873539 0.215746)
(-0.000384681 0.000631137 0.215142)
(-0.000270404 0.00107044 0.211315)
(-8.11498e-05 0.00105273 0.210133)
(-3.98759e-05 0.0011618 0.208582)
(-5.14307e-07 0.00112877 0.208452)
(3.23112e-05 0.00116415 0.20836)
(8.40942e-05 0.00105627 0.209793)
(0.000267024 0.00107354 0.210903)
(0.000406816 0.00063669 0.214614)
(0.000934191 0.000876243 0.215316)
(0.00175247 -0.00183208 0.223134)
(-0.00430684 0.000693991 0.211254)
(2.91602e-05 0.00834863 0.180666)
(0.00449695 0.000794102 0.214631)
(-0.00161755 -0.00172472 0.226526)
(-0.000849367 0.000950306 0.220088)
(-0.000378916 0.000708332 0.219372)
(-0.000259326 0.00116767 0.216049)
(-7.95652e-05 0.00115211 0.214939)
(-3.70764e-05 0.00126768 0.213526)
(9.62438e-07 0.00123376 0.213381)
(3.24996e-05 0.00127037 0.213307)
(8.48101e-05 0.0011562 0.214603)
(0.000257976 0.00117139 0.215644)
(0.000401616 0.000714838 0.218861)
(0.000884441 0.000953576 0.219669)
(0.00167609 -0.00172084 0.226233)
(-0.00442188 0.000784371 0.214557)
(2.84136e-05 0.00847696 0.186134)
(0.00455442 0.000882206 0.217712)
(-0.00154573 -0.00161361 0.229407)
(-0.000800466 0.0010207 0.224092)
(-0.000371138 0.000779596 0.223276)
(-0.000246962 0.00125742 0.220396)
(-7.65356e-05 0.00124405 0.219349)
(-3.37579e-05 0.00136619 0.218068)
(2.40806e-06 0.00133143 0.217908)
(3.21099e-05 0.00136926 0.217854)
(8.4046e-05 0.00124879 0.219019)
(0.000247634 0.00126186 0.219999)
(0.000394426 0.000787131 0.222783)
(0.000835413 0.0010246 0.223687)
(0.00160326 -0.00160918 0.229133)
(-0.00448173 0.000872532 0.217633)
(2.7714e-05 0.00859608 0.191085)
(0.00456942 0.000967941 0.220581)
(-0.00147866 -0.00150278 0.232106)
(-0.000752077 0.00108453 0.227779)
(-0.000361715 0.000844794 0.226874)
(-0.00023362 0.0013392 0.224371)
(-7.23803e-05 0.00132798 0.223378)
(-3.008e-05 0.00145646 0.222219)
(3.79807e-06 0.00142094 0.222046)
(3.12553e-05 0.00145996 0.22201)
(8.20833e-05 0.00133341 0.223056)
(0.000236265 0.00134442 0.223984)
(0.000385593 0.00085339 0.226399)
(0.000786926 0.0010891 0.227386)
(0.00153516 -0.0014978 0.231847)
(-0.00449903 0.000958406 0.220501)
(2.70652e-05 0.00870448 0.195559)
(0.00455372 0.00105186 0.223262)
(-0.00141687 -0.00139277 0.234641)
(-0.000704211 0.00114179 0.231167)
(-0.000351015 0.000903976 0.230184)
(-0.000219619 0.00141288 0.227993)
(-6.74118e-05 0.00140374 0.227044)
(-2.61952e-05 0.00153823 0.225996)
(5.11093e-06 0.00150202 0.225812)
(3.00483e-05 0.00154217 0.225793)
(7.92016e-05 0.00140989 0.22673)
(0.000224159 0.00141892 0.227616)
(0.000375468 0.000913633 0.229727)
(0.000738989 0.00114703 0.230786)
(0.00147232 -0.00138726 0.234396)
(-0.00448547 0.00104255 0.223181)
(2.6478e-05 0.0087955 0.199649)
(0.00451492 0.00113479 0.22578)
(-0.0013598 -0.00128358 0.237041)
(-0.000657091 0.00119274 0.234275)
(-0.000339431 0.000957392 0.233226)
(-0.000205314 0.00147865 0.231284)
(-6.19372e-05 0.00147147 0.23037)
(-2.22503e-05 0.00161157 0.229418)
(6.32789e-06 0.00157475 0.229224)
(2.86004e-05 0.00161596 0.229222)
(7.56794e-05 0.00147838 0.230064)
(0.000211639 0.00148552 0.230917)
(0.000364427 0.000968089 0.232785)
(0.000691815 0.00119863 0.233905)
(0.00141418 -0.00127757 0.236809)
(-0.0044486 0.00112571 0.225699)
(2.59624e-05 0.00886161 0.203436)
(0.00445623 0.00121619 0.228161)
(-0.00130628 -0.00117528 0.239326)
(-0.000611209 0.00123777 0.23712)
(-0.000327432 0.0010054 0.236015)
(-0.00019111 0.00153692 0.234268)
(-5.62651e-05 0.00153159 0.233379)
(-1.8387e-05 0.00167684 0.23251)
(7.43314e-06 0.00163949 0.232307)
(2.7024e-05 0.00168169 0.23232)
(7.18017e-05 0.00153925 0.233081)
(0.000199089 0.00154463 0.23391)
(0.000352929 0.0010171 0.235588)
(0.000645887 0.0012443 0.236761)
(0.00135957 -0.00116882 0.239103)
(-0.00439166 0.00120735 0.228081)
(2.55196e-05 0.00890396 0.206965)
(0.00437767 0.00129563 0.230422)
(-0.00125515 -0.00106827 0.241503)
(-0.000567161 0.00127722 0.239723)
(-0.000315514 0.0010483 0.23857)
(-0.000177453 0.00158815 0.23697)
(-5.06991e-05 0.00158455 0.236098)
(-1.47399e-05 0.00173453 0.235297)
(8.41424e-06 0.0016967 0.235087)
(2.54297e-05 0.00173982 0.235113)
(6.78528e-05 0.00159296 0.235809)
(0.000186937 0.00159668 0.236621)
(0.00034146 0.00106098 0.238156)
(0.000601803 0.00128436 0.239372)
(0.00130735 -0.00106139 0.241287)
(-0.00431473 0.00128702 0.230344)
(2.51423e-05 0.00893152 0.210263)
(0.0042793 0.0013735 0.232578)
(-0.00120556 -0.000962894 0.243581)
(-0.000525013 0.00131155 0.242117)
(-0.000303937 0.00108667 0.240929)
(-0.000164621 0.00163295 0.239432)
(-4.54497e-05 0.00163097 0.238569)
(-1.13982e-05 0.00178517 0.237818)
(9.26522e-06 0.00174694 0.237603)
(2.38949e-05 0.00179091 0.23764)
(6.40336e-05 0.00164012 0.238287)
(0.000175449 0.00164229 0.23909)
(0.000330282 0.00110026 0.240523)
(0.000559636 0.00131927 0.241771)
(0.00125668 -0.000955664 0.24337)
(-0.00421793 0.00136514 0.2325)
(2.48209e-05 0.00894471 0.213351)
(0.00416398 0.00144999 0.234637)
(-0.00115678 -0.000859469 0.245567)
(-0.000484224 0.00134151 0.244344)
(-0.000292687 0.00112122 0.243136)
(-0.000152545 0.00167227 0.241708)
(-4.05605e-05 0.00167183 0.24085)
(-8.3498e-06 0.00182982 0.240136)
(9.99439e-06 0.00179125 0.239917)
(2.2423e-05 0.00183598 0.239962)
(6.04015e-05 0.00168168 0.240574)
(0.000164571 0.00168239 0.241372)
(0.000319386 0.00113568 0.242735)
(0.000518848 0.00134977 0.244002)
(0.00120688 -0.000851944 0.245357)
(-0.00410412 0.00144191 0.23456)
(2.45502e-05 0.00893967 0.216251)
(0.00403652 0.00152515 0.236608)
(-0.00110814 -0.000758284 0.247466)
(-0.000444414 0.00136774 0.246436)
(-0.000281708 0.00115246 0.245216)
(-0.000141087 0.00170682 0.243838)
(-3.60219e-05 0.00170786 0.242982)
(-5.55553e-06 0.00186934 0.242297)
(1.06185e-05 0.00183043 0.242075)
(2.10016e-05 0.00187588 0.242127)
(5.69692e-05 0.00171839 0.24271)
(0.000154191 0.00171769 0.243505)
(0.000308724 0.00116774 0.244819)
(0.000479052 0.00137652 0.246095)
(0.00115727 -0.000750513 0.247257)
(-0.00397809 0.00151736 0.236531)
(2.43279e-05 0.00891666 0.218987)
(0.0039021 0.00159897 0.238497)
(-0.00105903 -0.00065956 0.249283)
(-0.000405515 0.0013907 0.248407)
(-0.000270995 0.00118081 0.247186)
(-0.00013022 0.00173713 0.245841)
(-3.18442e-05 0.00173961 0.244985)
(-3.00498e-06 0.00190421 0.244323)
(1.11496e-05 0.001865 0.244099)
(1.96393e-05 0.00191113 0.244156)
(5.37619e-05 0.00175079 0.244717)
(0.00014429 0.00174873 0.245511)
(0.000298295 0.00119688 0.246791)
(0.00044018 0.00139999 0.248067)
(0.00110725 -0.000651585 0.249074)
(-0.00384495 0.00159148 0.23842)
(2.41521e-05 0.00887706 0.221583)
(0.00376532 0.0016714 0.240312)
(-0.00100893 -0.000563415 0.251023)
(-0.000367513 0.00141089 0.250272)
(-0.00026055 0.00120677 0.249058)
(-0.000119927 0.00176389 0.247734)
(-2.80349e-05 0.00176777 0.246877)
(-6.88469e-07 0.00193518 0.246233)
(1.15944e-05 0.00189571 0.246006)
(1.83422e-05 0.00194246 0.246068)
(5.07975e-05 0.00177959 0.246612)
(0.000134861 0.00177619 0.247406)
(0.000288102 0.00122361 0.248665)
(0.000402212 0.00142067 0.249932)
(0.00105632 -0.000555273 0.250813)
(-0.0037093 0.00166422 0.240234)
(2.40207e-05 0.00882207 0.224061)
(0.00362959 0.00174241 0.242057)
(-0.000957485 -0.000469898 0.252691)
(-0.000330415 0.00142878 0.252044)
(-0.000250359 0.00123081 0.250844)
(-0.000110188 0.00178771 0.249532)
(-2.45942e-05 0.00179297 0.248673)
(1.40584e-06 0.00196288 0.248042)
(1.19585e-05 0.00192316 0.247814)
(1.7111e-05 0.00197049 0.247879)
(4.8085e-05 0.0018054 0.248411)
(0.000125891 0.0018007 0.249205)
(0.000278133 0.00124838 0.250453)
(0.000365152 0.00143905 0.251704)
(0.00100411 -0.00046161 0.252479)
(-0.00357455 0.00173553 0.241978)
(2.39312e-05 0.00875321 0.226446)
(0.00349712 0.00181193 0.243739)
(-0.00090442 -0.000379006 0.25429)
(-0.000294206 0.00144485 0.253735)
(-0.000240381 0.00125334 0.252554)
(-0.00010096 0.00180913 0.251246)
(-2.1509e-05 0.00181572 0.250386)
(3.29434e-06 0.00198782 0.249764)
(1.22478e-05 0.00194789 0.249535)
(1.59411e-05 0.00199575 0.249603)
(4.56199e-05 0.00182873 0.250126)
(0.000117345 0.00182278 0.250921)
(0.000268352 0.00127161 0.252164)
(0.000328986 0.00145558 0.253393)
(0.000950349 -0.000370589 0.254075)
(-0.00344293 0.00180535 0.243658)
(2.38808e-05 0.00867263 0.228758)
(0.00336941 0.00187987 0.245362)
(-0.000849573 -0.000290712 0.255823)
(-0.000258847 0.00145949 0.255353)
(-0.000230563 0.00127472 0.254196)
(-9.2188e-05 0.00182855 0.252889)
(-1.87585e-05 0.00183643 0.252027)
(4.99518e-06 0.00201044 0.251412)
(1.24685e-05 0.00197032 0.251183)
(1.4826e-05 0.00201867 0.251252)
(4.33908e-05 0.00185001 0.251768)
(0.000109174 0.00184285 0.252565)
(0.000258708 0.00129368 0.253807)
(0.000293673 0.00147068 0.255011)
(0.000894879 -0.000282176 0.255606)
(-0.00331594 0.00187357 0.245279)
(2.38681e-05 0.008583 0.231013)
(0.00324774 0.00194614 0.24693)
(-0.000792875 -0.000204962 0.257295)
(-0.000224283 0.00147312 0.256907)
(-0.000220844 0.00129528 0.255778)
(-8.38133e-05 0.00184633 0.254467)
(-1.63179e-05 0.00185544 0.253604)
(6.52728e-06 0.00203109 0.252994)
(1.26269e-05 0.00199082 0.252765)
(1.37579e-05 0.00203961 0.252835)
(4.13807e-05 0.00186957 0.253347)
(0.00010133 0.00186126 0.254144)
(0.000249145 0.00131489 0.255389)
(0.00025916 0.00148476 0.256564)
(0.000837629 -0.000196313 0.257075)
(-0.00319484 0.00194013 0.246846)
(2.38925e-05 0.00848699 0.23322)
(0.00313349 0.0020106 0.248448)
(-0.000734355 -0.000121679 0.258709)
(-0.00019045 0.00148609 0.258403)
(-0.000211164 0.00131524 0.257304)
(-7.57798e-05 0.00186274 0.255987)
(-1.41596e-05 0.00187304 0.255124)
(7.9096e-06 0.00205012 0.254518)
(1.27289e-05 0.00200971 0.254289)
(1.2727e-05 0.00205891 0.254361)
(3.9568e-05 0.0018877 0.254869)
(9.37607e-05 0.00187829 0.255665)
(0.000239605 0.00133549 0.256915)
(0.000225385 0.00149818 0.258058)
(0.000778628 -0.000112922 0.258486)
(-0.003081 0.00200486 0.248362)
(2.39538e-05 0.0083867 0.235383)
(0.0030277 0.00207306 0.249919)
(-0.000674166 -4.07571e-05 0.260067)
(-0.000157287 0.00149871 0.259845)