/*--------------------------------*- C++ -*----------------------------------*\
| =========                 |                                                 |
| \\      /  F ield         | OpenFOAM: The Open Source CFD Toolbox           |
|  \\    /   O peration     | Version:  v1912                                 |
|   \\  /    A nd           | Website:  www.openfoam.com                      |
|    \\/     M anipulation  |                                                 |
\*---------------------------------------------------------------------------*/
FoamFile
{
    version     2.0;
    format      ascii;
    class       surfaceScalarField;
    location    "196.8";
    object      phi;
}
// * * * * * * * * * * * * * * * * * * * * * * * * * * * * * * * * * * * * * //

dimensions      [1 0 -1 0 0 0 0];
oriented        oriented;


internalField   nonuniform List<scalar> 
28397
(
-4.10373e-08
7.20479e-08
9.48709e-07
-5.46628e-08
1.28154e-08
9.44813e-07
-1.91485e-08
-2.77559e-08
9.42345e-07
-7.36271e-09
-7.33077e-09
9.49359e-07
-3.60382e-09
3.97848e-10
9.47408e-07
-1.4052e-09
4.56238e-09
9.49794e-07
-4.98917e-10
6.40949e-09
9.49355e-07
-1.709e-10
7.6552e-09
9.49456e-07
6.26768e-11
7.67731e-09
9.49181e-07
4.23082e-10
7.60785e-09
9.49697e-07
1.37242e-09
6.29467e-09
9.49792e-07
3.62318e-09
4.43999e-09
9.50349e-07
7.45531e-09
2.49831e-10
9.47926e-07
1.92897e-08
-7.42565e-09
9.49872e-07
5.49207e-08
-2.78669e-08
9.42887e-07
1.26467e-08
9.45335e-07
-1.20189e-07
2.80505e-07
2.79645e-06
-1.61203e-07
5.02961e-08
2.78568e-06
-5.68047e-08
-1.09292e-07
2.77926e-06
-2.23408e-08
-2.9047e-08
2.79991e-06
-1.08286e-08
7.50006e-10
2.7941e-06
-4.35609e-09
1.74362e-08
2.80097e-06
-1.45631e-09
2.45425e-08
2.79959e-06
-4.39744e-10
2.94732e-08
2.79985e-06
3.53745e-10
2.96041e-08
2.79899e-06
1.43291e-09
2.92991e-08
2.80054e-06
4.39345e-09
2.41223e-08
2.80084e-06
1.09188e-08
1.70031e-08
2.80257e-06
2.25382e-08
2.12457e-10
2.7956e-06
5.71225e-08
-2.9462e-08
2.80142e-06
1.61779e-07
-1.09676e-07
2.78086e-06
4.96325e-08
2.78722e-06
-1.98176e-07
6.22061e-07
4.62845e-06
-2.66336e-07
1.10979e-07
4.61259e-06
-9.40311e-08
-2.44237e-07
4.60332e-06
-3.75063e-08
-6.52421e-08
4.63738e-06
-1.80609e-08
1.10533e-10
4.62771e-06
-7.31248e-09
3.7734e-08
4.63882e-06
-2.3741e-09
5.34611e-08
4.63646e-06
-6.80119e-10
6.4508e-08
4.6368e-06
6.66296e-10
6.48618e-08
4.63538e-06
2.43362e-09
6.41476e-08
4.63795e-06
7.42611e-09
5.257e-08
4.63853e-06
1.82183e-08
3.68119e-08
4.64146e-06
3.78007e-08
-1.05427e-09
4.63019e-06
9.45143e-08
-6.62016e-08
4.63988e-06
2.67207e-07
-2.45044e-07
4.60598e-06
1.09488e-07
4.61515e-06
-2.74877e-07
1.09438e-06
6.44315e-06
-3.69412e-07
1.93053e-07
6.42482e-06
-1.30457e-07
-4.32186e-07
6.41406e-06
-5.26599e-08
-1.15922e-07
6.46118e-06
-2.52174e-08
-2.44708e-09
6.44765e-06
-1.01952e-08
6.4509e-08
6.46272e-06
-3.27204e-09
9.22278e-08
6.45937e-06
-9.45775e-10
1.11799e-07
6.45971e-06
8.95819e-10
1.12495e-07
6.45776e-06
3.31995e-09
1.11183e-07
6.46131e-06
1.03236e-08
9.06757e-08
6.46228e-06
2.54322e-08
6.28769e-08
6.46642e-06
5.30886e-08
-4.51602e-09
6.45113e-06
1.31169e-07
-1.17674e-07
6.46468e-06
3.70661e-07
-4.33589e-07
6.41779e-06
1.90379e-07
6.4284e-06
-3.49772e-07
1.69459e-06
8.23958e-06
-4.6981e-07
2.9475e-07
8.22172e-06
-1.65943e-07
-6.72417e-07
8.211e-06
-6.77323e-08
-1.81099e-07
8.27063e-06
-3.22562e-08
-7.87922e-09
8.25325e-06
-1.29893e-08
9.67302e-08
8.27194e-06
-4.14996e-09
1.39794e-07
8.26761e-06
-1.24311e-09
1.70254e-07
8.26783e-06
1.03571e-09
1.71406e-07
8.2654e-06
4.08664e-09
1.69293e-07
8.2699e-06
1.3075e-08
1.37357e-07
8.27136e-06
3.25256e-08
9.41226e-08
8.27672e-06
6.83368e-08
-1.11656e-08
8.25774e-06
1.66951e-07
-1.83916e-07
8.27515e-06
4.71521e-07
-6.74609e-07
8.21582e-06
2.90513e-07
8.22632e-06
-4.22272e-07
2.41903e-06
1.00158e-05
-5.66851e-07
4.14404e-07
1.00015e-05
-2.00362e-07
-9.63878e-07
9.99258e-06
-8.26461e-08
-2.6089e-07
1.00638e-05
-3.91309e-08
-1.72243e-08
1.00425e-05
-1.56727e-08
1.33206e-07
1.00644e-05
-4.99178e-09
1.94913e-07
1.00591e-05
-1.55747e-09
2.38557e-07
1.00591e-05
1.09949e-09
2.40279e-07
1.00562e-05
4.74167e-09
2.37149e-07
1.00616e-05
1.56745e-08
1.91342e-07
1.00637e-05
3.94567e-08
1.29327e-07
1.00703e-05
8.34621e-08
-2.2064e-08
1.0048e-05
2.01716e-07
-2.65051e-07
1.00693e-05
5.69081e-07
-9.67061e-07
9.99848e-06
4.0821e-07
1.00071e-05
-4.91727e-07
3.26329e-06
1.17682e-05
-6.59797e-07
5.50647e-07
1.17609e-05
-2.33572e-07
-1.30501e-06
1.17558e-05
-9.73032e-08
-3.55443e-07
1.18369e-05
-4.57802e-08
-3.14995e-08
1.18117e-05
-1.82153e-08
1.72672e-07
1.18365e-05
-5.77994e-09
2.56225e-07
1.183e-05
-1.87969e-09
3.15254e-07
1.18297e-05
1.08992e-09
3.17654e-07
1.18264e-05
5.27755e-09
3.13285e-07
1.18327e-05
1.80986e-08
2.51255e-07
1.18354e-05
4.61668e-08
1.67201e-07
1.18434e-05
9.8364e-08
-3.82419e-08
1.18182e-05
2.35317e-07
-3.6123e-07
1.18435e-05
6.62593e-07
-1.3094e-06
1.17628e-05
5.42086e-07
1.17675e-05
-5.57478e-07
4.22221e-06
1.3491e-05
-7.4791e-07
7.02396e-07
1.34955e-05
-2.65439e-07
-1.69379e-06
1.34963e-05
-1.116e-07
-4.65041e-07
1.35849e-05
-5.21419e-08
-5.17724e-08
1.35557e-05
-2.0587e-08
2.13679e-07
1.35827e-05
-6.49793e-09
3.22145e-07
1.3575e-05
-2.20273e-09
3.98627e-07
1.35742e-05
1.00733e-09
4.01813e-07
1.35705e-05
5.68383e-09
3.95975e-07
1.35776e-05
2.03214e-08
3.15501e-07
1.35812e-05
5.25947e-08
2.06284e-07
1.35907e-05
1.12937e-07
-6.07711e-08
1.35632e-05
2.67613e-07
-4.72731e-07
1.35924e-05
7.51313e-07
-1.69958e-06
1.35043e-05
6.9105e-07
1.35031e-05
-6.18864e-07
5.2896e-06
1.51765e-05
-8.30456e-07
8.68642e-07
1.5199e-05
-2.9582e-07
-2.12779e-06
1.52084e-05
-1.25427e-07
-5.90278e-07
1.53008e-05
-5.81561e-08
-7.93419e-08
1.52675e-05
-2.27614e-08
2.5439e-07
1.5296e-05
-7.13149e-09
3.90652e-07
1.52868e-05
-2.52038e-09
4.86479e-07
1.52854e-05
8.5302e-10
4.90559e-07
1.52813e-05
5.95232e-09
4.83017e-07
1.52892e-05
2.232e-08
3.82057e-07
1.52938e-05
5.86814e-08
2.44732e-07
1.53049e-05
1.27071e-07
-9.09456e-08
1.5276e-05
2.98461e-07
-6.00135e-07
1.53092e-05
8.345e-07
-2.13521e-06
1.52173e-05
8.5409e-07
1.52076e-05
-6.75256e-07
6.45785e-06
1.68169e-05
-9.06728e-07
1.04819e-06
1.68646e-05
-3.24573e-07
-2.60438e-06
1.68851e-05
-1.38678e-07
-7.32115e-07
1.69767e-05
-6.37708e-08
-1.15817e-07
1.69394e-05
-2.47177e-08
2.92529e-07
1.69684e-05
-7.67e-09
4.59251e-07
1.69576e-05
-2.8269e-09
5.76108e-07
1.69552e-05
6.30821e-10
5.81195e-07
1.69508e-05
6.08007e-09
5.71709e-07
1.69595e-05
2.40782e-08
4.48432e-07
1.69653e-05
6.43747e-08
2.80274e-07
1.69783e-05
1.40652e-07
-1.30361e-07
1.69488e-05
3.27711e-07
-7.44387e-07
1.6986e-05
9.11443e-07
-2.61362e-06
1.6895e-05
1.03001e-06
1.68741e-05
-7.26133e-07
7.71764e-06
1.84065e-05
-9.76149e-07
1.23955e-06
1.84864e-05
-3.51586e-07
-3.12065e-06
1.85208e-05
-1.51261e-07
-8.91767e-07
1.86063e-05
-6.89496e-08
-1.63028e-07
1.85651e-05
-2.64448e-08
3.25547e-07
1.85936e-05
-8.10774e-09
5.25162e-07
1.85809e-05
-3.11728e-09
6.6452e-07
1.85774e-05
3.47385e-10
6.70732e-07
1.85727e-05
6.07062e-09
6.59056e-07
1.85821e-05
2.55898e-08
5.11858e-07
1.85894e-05
6.96382e-08
3.10371e-07
1.86045e-05
1.53588e-07
-1.80827e-07
1.85754e-05
3.55246e-07
-9.06681e-07
1.86165e-05
9.81557e-07
-3.13192e-06
1.85315e-05
1.21734e-06
1.84969e-05
-7.71162e-07
9.05816e-06
1.99435e-05
-1.03837e-06
1.44092e-06
2.00616e-05
-3.768e-07
-3.67352e-06
2.01124e-05
-1.63122e-07
-1.07053e-06
2.01868e-05
-7.36784e-08
-2.22867e-07
2.01416e-05
-2.79424e-08
3.50854e-07
2.01688e-05
-8.44437e-09
5.85567e-07
2.01538e-05
-3.38773e-09
7.48693e-07
2.0149e-05
1.29379e-11
7.56154e-07
2.01439e-05
5.93364e-09
7.42042e-07
2.01541e-05
2.68599e-08
5.69527e-07
2.0163e-05
7.44571e-08
3.32443e-07
2.01805e-05
1.65818e-07
-2.44216e-07
2.01528e-05
3.81001e-07
-1.08829e-06
2.01977e-05
1.04448e-06
-3.68702e-06
2.0124e-05
1.41427e-06
2.00729e-05
-8.10212e-07
1.04675e-05
2.1429e-05
-1.09328e-06
1.65033e-06
2.15901e-05
-4.00236e-07
-4.25972e-06
2.16612e-05
-1.74241e-07
-1.26964e-06
2.17185e-05
-7.79632e-08
-2.97158e-07
2.16696e-05
-2.92201e-08
3.65977e-07
2.16942e-05
-8.68418e-09
6.37788e-07
2.16768e-05
-3.63591e-09
8.25768e-07
2.16704e-05
-3.68035e-10
8.34609e-07
2.1665e-05
5.68299e-09
8.17809e-07
2.16758e-05
2.7903e-08
6.18776e-07
2.16867e-05
7.88367e-08
3.44036e-07
2.17068e-05
1.77316e-07
-3.22329e-07
2.16816e-05
4.04992e-07
-1.29044e-06
2.17302e-05
1.10013e-06
-4.27565e-06
2.16735e-05
1.61887e-06
2.16023e-05
-8.43323e-07
1.19324e-05
2.2868e-05
-1.14102e-06
1.86534e-06
2.30749e-05
-4.21982e-07
-4.87585e-06
2.31717e-05
-1.84639e-07
-1.49026e-06
2.32056e-05
-8.18282e-08
-3.87582e-07
2.31526e-05
-3.02943e-08
3.68663e-07
2.31735e-05
-8.83468e-09
6.79386e-07
2.31532e-05
-3.8607e-09
8.93148e-07
2.31448e-05
-7.81474e-10
9.03503e-07
2.31391e-05
5.33473e-09
8.83765e-07
2.31506e-05
2.87401e-08
6.57177e-07
2.31638e-05
8.2801e-08
3.42907e-07
2.31871e-05
1.88101e-07
-4.16828e-07
2.31657e-05
4.27305e-07
-1.51427e-06
2.32182e-05
1.14859e-06
-4.89439e-06
2.31849e-05
1.82872e-06
2.3088e-05
-8.70679e-07
1.34392e-05
2.42662e-05
-1.1818e-06
2.08322e-06
2.45225e-05
-4.42115e-07
-5.51846e-06
2.46484e-05
-1.94359e-07
-1.73333e-06
2.46544e-05
-8.53087e-08
-4.9575e-07
2.45971e-05
-3.11858e-08
3.56776e-07
2.46127e-05
-8.90493e-09
7.08071e-07
2.4589e-05
-4.06209e-09
9.48457e-07
2.45783e-05
-1.2197e-09
9.60456e-07
2.45722e-05
4.90464e-09
9.3753e-07
2.45845e-05
2.93954e-08
6.82437e-07
2.46004e-05
8.63849e-08
3.26917e-07
2.46273e-05
1.98213e-07
-5.29326e-07
2.46111e-05
4.48011e-07
-1.76073e-06
2.46678e-05
1.19011e-06
-5.5398e-06
2.46623e-05
2.04109e-06
2.45365e-05
-8.92507e-07
1.49748e-05
2.56281e-05
-1.21588e-06
2.30149e-06
2.59392e-05
-4.60678e-07
-6.18437e-06
2.60949e-05
-2.03432e-07
-2.00063e-06
2.60709e-05
-8.84386e-08
-6.24091e-07
2.60093e-05
-3.19163e-08
3.27383e-07
2.60187e-05
-8.90485e-09
7.20764e-07
2.59912e-05
-4.24052e-09
9.88541e-07
2.59778e-05
-1.67461e-09
1.00231e-06
2.59714e-05
4.40928e-09
9.75949e-07
2.59844e-05
2.98944e-08
6.91478e-07
2.60034e-05
8.96222e-08
2.93128e-07
2.60343e-05
2.0768e-07
-6.62254e-07
2.60244e-05
4.67152e-07
-2.03159e-06
2.60851e-05
1.22493e-06
-6.20871e-06
2.61095e-05
2.25357e-06
2.59542e-05
-9.09027e-07
1.6526e-05
2.69583e-05
-1.24351e-06
2.51801e-06
2.73288e-05
-4.77714e-07
-6.8713e-06
2.75156e-05
-2.11885e-07
-2.29442e-06
2.74602e-05
-9.125e-08
-7.75405e-07
2.73944e-05
-3.25079e-08
2.77201e-07
2.73965e-05
-8.84536e-09
7.1405e-07
2.73649e-05
-4.39643e-09
1.00988e-06
2.73484e-05
-2.13674e-09
1.02555e-06
2.73417e-05
3.86705e-09
9.95502e-07
2.73555e-05
3.02631e-08
6.80894e-07
2.73779e-05
9.25445e-08
2.38272e-07
2.74131e-05
2.16525e-07
-8.18396e-07
2.74105e-05
4.84765e-07
-2.32912e-06
2.74754e-05
1.2533e-06
-6.89883e-06
2.7531e-05
2.46406e-06
2.73448e-05
-9.2049e-07
1.80805e-05
2.82618e-05
-1.26498e-06
2.7308e-06
2.86948e-05
-4.93266e-07
-7.57726e-06
2.89145e-05
-2.19748e-07
-2.61628e-06
2.88262e-05
-9.37759e-08
-9.51768e-07
2.87561e-05
-3.29826e-08
2.03717e-07
2.87498e-05
-8.73789e-09
6.85289e-07
2.87136e-05
-4.53076e-09
1.00972e-06
2.8694e-05
-2.59741e-09
1.02742e-06
2.86869e-05
3.29575e-09
9.93454e-07
2.87015e-05
3.05271e-08
6.4806e-07
2.87276e-05
9.51847e-08
1.59851e-07
2.87675e-05
2.24775e-07
-9.99806e-07
2.87733e-05
5.0089e-07
-2.65489e-06
2.88423e-05
1.2755e-06
-7.60815e-06
2.89307e-05
2.6706e-06
2.87118e-05
-9.27182e-07
1.96276e-05
2.95433e-05
-1.28061e-06
2.93804e-06
3.00404e-05
-5.0738e-07
-8.29975e-06
3.02949e-05
-2.2705e-07
-2.96707e-06
3.01723e-05
-9.60497e-08
-1.15451e-06
3.00978e-05
-3.33622e-08
1.0519e-07
3.0082e-05
-8.59382e-09
6.32615e-07
3.00411e-05
-4.64509e-09
9.86109e-07
3.0018e-05
-3.04937e-09
1.00597e-06
3.00105e-05
2.71151e-09
9.67838e-07
3.0026e-05
3.07106e-08
5.91124e-07
3.0056e-05
9.75757e-08
5.614e-08
3.01009e-05
2.32458e-07
-1.2078e-06
3.01162e-05
5.1557e-07
-3.00973e-06
3.01893e-05
1.29184e-06
-8.33416e-06
3.03119e-05
2.87141e-06
3.00584e-05
-9.29419e-07
2.11581e-05
3.08072e-05
-1.29073e-06
3.13815e-06
3.13686e-05
-5.20103e-07
-9.03589e-06
3.16596e-05
-2.33828e-07
-3.34701e-06
3.15018e-05
-9.81038e-08
-1.38435e-06
3.14229e-05
-3.36666e-08
-1.95176e-08
3.13969e-05
-8.42359e-09
5.54743e-07
3.1351e-05
-4.74119e-09
9.37629e-07
3.13247e-05
-3.48729e-09
9.59778e-07
3.13169e-05
2.12782e-09
9.17257e-07
3.13331e-05
3.08356e-08
5.08819e-07
3.13668e-05
9.97499e-08
-7.39784e-08
3.14169e-05
2.39607e-07
-1.44307e-06
3.14426e-05
5.28849e-07
-3.39388e-06
3.15199e-05
1.30268e-06
-9.07397e-06
3.16774e-05
3.06496e-06
3.13876e-05
-9.27536e-07
2.26634e-05
3.20579e-05
-1.29573e-06
3.32983e-06
3.26825e-05
-5.31484e-07
-9.78269e-06
3.30115e-05
-2.40113e-07
-3.75585e-06
3.28183e-05
-9.9968e-08
-1.6415e-06
3.27349e-05
-3.39119e-08
-1.71144e-07
3.26988e-05
-8.23491e-09
4.50765e-07
3.26484e-05
-4.82069e-09
8.63255e-07
3.26192e-05
-3.90768e-09
8.87829e-07
3.2611e-05
1.55392e-09
8.40688e-07
3.26281e-05
3.09189e-08
4.00252e-07
3.26651e-05
1.01737e-07
-2.31222e-07
3.272e-05
2.46254e-07
-1.70581e-06
3.27558e-05
5.40774e-07
-3.80706e-06
3.28374e-05
1.30836e-06
-9.82457e-06
3.30302e-05
3.24997e-06
3.27026e-05
-9.21874e-07
2.41358e-05
3.32992e-05
-1.29597e-06
3.51205e-06
3.39852e-05
-5.41574e-07
-1.05371e-05
3.43533e-05
-2.45939e-07
-4.19299e-06
3.4125e-05
-1.01668e-07
-1.9259e-06
3.40374e-05
-3.41114e-08
-3.5018e-07
3.39928e-05
-8.03468e-09
3.20013e-07
3.39384e-05
-4.88503e-09
7.62207e-07
3.39061e-05
-4.30695e-09
7.89341e-07
3.38977e-05
9.9837e-10
7.37357e-07
3.39155e-05
3.09749e-08
2.64773e-07
3.39559e-05
1.03562e-07
-4.16062e-07
3.40151e-05
2.52431e-07
-1.99594e-06
3.40596e-05
5.51395e-07
-4.24867e-06
3.41451e-05
1.30927e-06
-1.05829e-05
3.43727e-05
3.42543e-06
3.40063e-05
-9.12748e-07
2.55683e-05
3.45347e-05
-1.29181e-06
3.68403e-06
3.52798e-05
-5.50422e-07
-1.12959e-05
3.56873e-05
-2.51333e-07
-4.6577e-06
3.54265e-05
-1.03223e-07
-2.23731e-06
3.53352e-05
-3.42782e-08
-5.56949e-07
3.5283e-05
-7.83021e-09
1.61994e-07
3.52245e-05
-4.93551e-09
6.33879e-07
3.51891e-05
-4.681e-09
6.63709e-07
3.51803e-05
4.68582e-10
6.06666e-07
3.51989e-05
3.10179e-08
1.01903e-07
3.52429e-05
1.05247e-07
-6.288e-07
3.53064e-05
2.58166e-07
-2.31318e-06
3.53586e-05
5.60757e-07
-4.71794e-06
3.54477e-05
1.30576e-06
-1.13458e-05
3.57077e-05
3.59059e-06
3.53018e-05
-9.00392e-07
2.69544e-05
3.57677e-05
-1.28351e-06
3.84517e-06
3.65704e-05
-5.58065e-07
-1.2056e-05
3.70162e-05
-2.56313e-07
-5.14915e-06
3.67272e-05
-1.04652e-07
-2.57538e-06
3.66325e-05
-3.44245e-08
-7.91651e-07
3.65726e-05
-7.62819e-09
-2.36621e-08
3.651e-05
-4.97337e-09
4.77794e-07
3.64715e-05
-5.02631e-09
5.10459e-07
3.64623e-05
-1.91791e-11
4.4814e-07
3.64818e-05
3.10617e-08
-8.87059e-08
3.65292e-05
1.06809e-07
-8.69614e-07
3.65971e-05
2.63478e-07
-2.65718e-06
3.6657e-05
5.68901e-07
-5.21402e-06
3.67493e-05
1.29809e-06
-1.211e-05
3.70374e-05
3.74489e-06
3.65933e-05
-8.8501e-07
2.82877e-05
3.70015e-05
-1.2713e-06
3.99505e-06
3.78606e-05
-5.64531e-07
-1.28141e-05
3.83431e-05
-2.60895e-07
-5.66637e-06
3.80303e-05
-1.05972e-07
-2.93969e-06
3.79323e-05
-3.45613e-08
-1.05439e-06
3.78647e-05
-7.43476e-09
-2.37212e-07
3.77978e-05
-4.99986e-09
2.93587e-07
3.77562e-05
-5.33975e-09
3.2923e-07
3.77466e-05
-4.643e-10
2.6142e-07
3.7767e-05
3.11183e-08
-3.07297e-07
3.7818e-05
1.08267e-07
-1.13859e-06
3.78903e-05
2.68382e-07
-3.02746e-06
3.7958e-05
5.75852e-07
-5.7359e-06
3.80534e-05
1.28649e-06
-1.28723e-05
3.83651e-05
3.88791e-06
3.78844e-05
-8.66849e-07
2.95623e-05
3.82388e-05
-1.25542e-06
4.13335e-06
3.9153e-05
-5.69827e-07
-1.35672e-05
3.96722e-05
-2.65091e-07
-6.20808e-06
3.93385e-05
-1.07198e-07
-3.32961e-06
3.92371e-05
-3.46984e-08
-1.34515e-06
3.91619e-05
-7.25545e-09
-4.78796e-07
3.90907e-05
-5.01611e-09
8.10108e-08
3.9046e-05
-5.6185e-09
1.19775e-07
3.9036e-05
-8.57918e-10
4.62654e-08
3.90572e-05
3.11986e-08
-5.53994e-07
3.91119e-05
1.09636e-07
-1.43569e-06
3.91887e-05
2.7289e-07
-3.42332e-06
3.9264e-05
5.81619e-07
-6.28222e-06
3.93626e-05
1.27121e-06
-1.36297e-05
3.96951e-05
4.01939e-06
3.91777e-05
-8.46143e-07
3.07731e-05
3.94821e-05
-1.23613e-06
4.25993e-06
4.04499e-05
-5.73957e-07
-1.43125e-05
4.1007e-05
-2.68912e-07
-6.77268e-06
4.06541e-05
-1.08342e-07
-3.74412e-06
4.05495e-05
-3.48445e-08
-1.66366e-06
4.04667e-05
-7.09519e-09
-7.4839e-07
4.03912e-05
-5.0231e-09
-1.60046e-07
4.03433e-05
-5.85997e-09
-1.18014e-07
4.03329e-05
-1.19353e-09
-1.97429e-07
4.0355e-05
3.13122e-08
-8.28712e-07
4.04133e-05
1.10929e-07
-1.76057e-06
4.04947e-05
2.77013e-07
-3.84368e-06
4.05777e-05
5.86206e-07
-6.85138e-06
4.06793e-05
1.25249e-06
-1.43794e-05
4.10306e-05
4.13917e-06
4.04754e-05
-8.23119e-07
3.19154e-05
4.07333e-05
-1.21364e-06
4.37479e-06
4.17536e-05
-5.76934e-07
-1.50474e-05
4.23494e-05
-2.72368e-07
-7.35829e-06
4.19795e-05
-1.09417e-07
-4.1819e-06
4.18718e-05
-3.50075e-08
-2.00905e-06
4.17814e-05
-6.95834e-09
-1.04542e-06
4.17015e-05
-5.0217e-09
-4.29268e-07
4.16503e-05
-6.06178e-09
-3.83813e-07
4.16395e-05
-1.4653e-09
-4.69314e-07
4.16626e-05
3.14681e-08
-1.13081e-06
4.17245e-05
1.12157e-07
-2.11227e-06
4.18105e-05
2.80762e-07
-4.28718e-06
4.19012e-05
5.89622e-07
-7.44149e-06
4.20057e-05
1.23055e-06
-1.51188e-05
4.23739e-05
4.24728e-06
4.17799e-05
-7.97997e-07
3.29855e-05
4.19945e-05
-1.18818e-06
4.47807e-06
4.3066e-05
-5.78764e-07
-1.57693e-05
4.37015e-05
-2.75466e-07
-7.96274e-06
4.33166e-05
-1.10431e-07
-4.6413e-06
4.32059e-05
-3.51946e-08
-2.37993e-06
4.31079e-05
-6.8489e-09
-1.36862e-06
4.30236e-05
-5.01268e-09
-7.25632e-07
4.29692e-05
-6.22164e-09
-6.7659e-07
4.29579e-05
-1.66781e-09
-7.68322e-07
4.2982e-05
3.16745e-08
-1.45899e-06
4.30476e-05
1.13332e-07
-2.48937e-06
4.31383e-05
2.84144e-07
-4.75219e-06
4.32366e-05
5.91875e-07
-8.0504e-06
4.33439e-05
1.20561e-06
-1.58451e-05
4.37268e-05
4.34391e-06
4.30931e-05
-7.7099e-07
3.39803e-05
4.32674e-05
-1.15997e-06
4.57011e-06
4.43889e-05
-5.79455e-07
-1.64756e-05
4.5065e-05
-2.78214e-07
-8.58361e-06
4.46672e-05
-1.11393e-07
-5.12043e-06
4.45537e-05
-3.54121e-08
-2.77453e-06
4.44482e-05
-6.7705e-09
-1.71631e-06
4.43595e-05
-4.99664e-09
-1.04753e-06
4.43018e-05
-6.33743e-09
-9.94743e-07
4.429e-05
-1.79606e-09
-1.09283e-06
4.4315e-05
3.19387e-08
-1.81155e-06
4.43844e-05
1.14463e-07
-2.89008e-06
4.44798e-05
2.87165e-07
-5.23681e-06
4.45857e-05
5.92972e-07
-8.67566e-06
4.46955e-05
1.17791e-06
-1.6556e-05
4.50912e-05
4.42937e-06
4.44168e-05
-7.42302e-07
3.48972e-05
4.45536e-05
-1.12922e-06
4.65138e-06
4.57239e-05
-5.79016e-07
-1.71639e-05
4.64415e-05
-2.80615e-07
-9.2182e-06
4.60329e-05
-1.1231e-07
-5.61713e-06
4.59168e-05
-3.56653e-08
-3.19074e-06
4.58039e-05
-6.72619e-09
-2.08645e-06
4.57106e-05
-4.97408e-09
-1.39297e-06
4.56497e-05
-6.40714e-09
-1.33628e-06
4.56374e-05
-1.84563e-09
-1.44084e-06
4.56635e-05
3.22671e-08
-2.18646e-06
4.57365e-05
1.15556e-07
-3.31228e-06
4.58367e-05
2.8983e-07
-5.73887e-06
4.59501e-05
5.92921e-07
-9.3146e-06
4.60623e-05
1.14764e-06
-1.72488e-05
4.64686e-05
4.50418e-06
4.57526e-05
-7.12134e-07
3.57344e-05
4.58546e-05
-1.09615e-06
4.7225e-06
4.70727e-05
-5.77456e-07
-1.78316e-05
4.78325e-05
-2.82673e-07
-9.86359e-06
4.74153e-05
-1.13188e-07
-6.129e-06
4.72968e-05
-3.59586e-08
-3.6262e-06
4.71764e-05
-6.71842e-09
-2.47672e-06
4.70787e-05
-4.94532e-09
-1.75962e-06
4.70145e-05
-6.42895e-09
-1.69888e-06
4.70017e-05
-1.81274e-09
-1.81002e-06
4.70289e-05
3.2665e-08
-2.58139e-06
4.71055e-05
1.16617e-07
-3.75361e-06
4.72105e-05
2.92144e-07
-6.25598e-06
4.73314e-05
5.91729e-07
-9.96427e-06
4.74457e-05
1.11501e-06
-1.7921e-05
4.78604e-05
4.56896e-06
4.71021e-05
-6.80676e-07
3.64906e-05
4.71717e-05
-1.06094e-06
4.78427e-06
4.84364e-05
-5.74783e-07
-1.84762e-05
4.92393e-05
-2.8439e-07
-1.05166e-05
4.88155e-05
-1.1403e-07
-6.65343e-06
4.86949e-05
-3.62954e-08
-4.07827e-06
4.85672e-05
-6.74903e-09
-2.88451e-06
4.8465e-05
-4.91051e-09
-2.14488e-06
4.83975e-05
-6.40122e-09
-2.07995e-06
4.83843e-05
-1.6942e-09
-2.19775e-06
4.84125e-05
3.31368e-08
-2.99372e-06
4.84928e-05
1.17652e-07
-4.21141e-06
4.86025e-05
2.94107e-07
-6.78551e-06
4.87308e-05
5.89405e-07
-1.06215e-05
4.88471e-05
1.08022e-06
-1.85703e-05
4.92681e-05
4.62451e-06
4.84665e-05
-6.48115e-07
3.71652e-05
4.85064e-05
-1.0238e-06
4.83762e-06
4.98164e-05
-5.71009e-07
-1.90955e-05
5.06631e-05
-2.85766e-07
-1.11739e-05
5.02349e-05
-1.14838e-07
-7.18757e-06
5.01124e-05
-3.6678e-08
-4.54407e-06
4.99774e-05
-6.81921e-09
-3.30698e-06
4.98707e-05
-4.8696e-09
-2.54589e-06
4.98001e-05
-6.32249e-09
-2.47663e-06
4.97863e-05
-1.48746e-09
-2.60118e-06
4.98155e-05
3.36861e-08
-3.4206e-06
4.98995e-05
1.18663e-07
-4.6828e-06
5.00139e-05
2.9572e-07
-7.32463e-06
5.01497e-05
5.85961e-07
-1.1283e-05
5.02676e-05
1.04348e-06
-1.91942e-05
5.06927e-05
4.67178e-06
4.98471e-05
-6.14628e-07
3.7758e-05
4.98597e-05
-9.84917e-07
4.88364e-06
5.12137e-05
-5.66147e-07
-1.96872e-05
5.2105e-05
-2.868e-07
-1.1832e-05
5.16744e-05
-1.15614e-07
-7.72842e-06
5.15504e-05
-3.71079e-08
-5.02052e-06
5.14081e-05
-6.92956e-09
-3.74106e-06
5.12969e-05
-4.82238e-09
-2.95954e-06
5.12232e-05
-6.19149e-09
-2.88581e-06
5.12088e-05
-1.19058e-09
-3.0172e-06
5.12391e-05
3.43151e-08
-3.85897e-06
5.13268e-05
1.19652e-07
-5.16468e-06
5.14459e-05
2.96983e-07
-7.8703e-06
5.1589e-05
5.81407e-07
-1.19451e-05
5.17082e-05
1.00496e-06
-1.97904e-05
5.21354e-05
4.71186e-06
5.12451e-05
-5.80385e-07
3.82692e-05
5.12329e-05
-9.44477e-07
4.92359e-06
5.26291e-05
-5.60211e-07
-2.02491e-05
5.35658e-05
-2.8749e-07
-1.24872e-05
5.31351e-05
-1.16357e-07
-8.2728e-06
5.30099e-05
-3.75854e-08
-5.50434e-06
5.28603e-05
-7.08e-09
-4.18347e-06
5.27447e-05
-4.76841e-09
-3.38252e-06
5.26678e-05
-6.00712e-09
-3.30421e-06
5.26529e-05
-8.02278e-10
-3.4425e-06
5.26843e-05
3.50254e-08
-4.30553e-06
5.27755e-05
1.20619e-07
-5.65378e-06
5.28993e-05
2.97894e-07
-8.41934e-06
5.30498e-05
5.75758e-07
-1.26043e-05
5.317e-05
9.64847e-07
-2.03569e-05
5.35971e-05
4.74602e-06
5.26612e-05
-5.45549e-07
3.86997e-05
5.2627e-05
-9.02658e-07
4.95889e-06
5.40636e-05
-5.53216e-07
-2.07793e-05
5.50464e-05
-2.87832e-07
-1.31357e-05
5.46177e-05
-1.17066e-07
-8.8174e-06
5.44916e-05
-3.81097e-08
-5.99211e-06
5.43349e-05
-7.26982e-09
-4.6308e-06
5.42148e-05
-4.70709e-09
-3.81136e-06
5.41348e-05
-5.7685e-09
-3.72835e-06
5.41194e-05
-3.21942e-10
-3.87358e-06
5.41519e-05
3.58173e-08
-4.75687e-06
5.42467e-05
1.21564e-07
-6.14666e-06
5.43751e-05
2.98449e-07
-8.96841e-06
5.45329e-05
5.69027e-07
-1.32566e-05
5.46538e-05
9.23329e-07
-2.08917e-05
5.50786e-05
4.77569e-06
5.40962e-05
-5.10276e-07
3.90508e-05
5.40429e-05
-8.59635e-07
4.99112e-06
5.55178e-05
-5.45178e-07
-2.12761e-05
5.65477e-05
-2.87822e-07
-1.37737e-05
5.6123e-05
-1.17738e-07
-9.35882e-06
5.59964e-05
-3.86791e-08
-6.48029e-06
5.58325e-05
-7.49766e-09
-5.07947e-06
5.57081e-05
-4.6376e-09
-4.24242e-06
5.5625e-05
-5.47494e-09
-4.1546e-06
5.56091e-05
2.50266e-10
-4.30682e-06
5.56426e-05
3.669e-08
-5.20942e-06
5.57409e-05
1.22484e-07
-6.63977e-06
5.58739e-05
2.98644e-07
-9.51408e-06
5.6039e-05
5.61232e-07
-1.38983e-05
5.61603e-05
8.80573e-07
-2.13931e-05
5.65806e-05
4.80245e-06
5.55509e-05
-4.74712e-07
3.93241e-05
5.54817e-05
-8.15575e-07
5.02192e-06
5.69923e-05
-5.36117e-07
-2.1738e-05
5.80701e-05
-2.87453e-07
-1.43974e-05
5.76516e-05
-1.18367e-07
-9.89363e-06
5.75248e-05
-3.92907e-08
-6.96527e-06
5.73538e-05
-7.76145e-09
-5.52584e-06
5.72251e-05
-4.55892e-09
-4.67197e-06
5.7139e-05
-5.12597e-09
-4.57923e-06
5.71225e-05
9.1224e-10
-4.73849e-06
5.71571e-05
3.76418e-08
-5.65952e-06
5.72589e-05
1.23374e-07
-7.1295e-06
5.73964e-05
2.98473e-07
-1.00529e-05
5.75688e-05
5.52388e-07
-1.45255e-05
5.769e-05
8.36745e-07
-2.18595e-05
5.81039e-05
4.82794e-06
5.70259e-05
-4.38996e-07
3.95218e-05
5.69441e-05
-7.70638e-07
5.05272e-06
5.84878e-05
-5.26049e-07
-2.21637e-05
5.96142e-05
-2.86716e-07
-1.50032e-05
5.92041e-05
-1.18948e-07
-1.04184e-05
5.90774e-05
-3.99402e-08
-7.44343e-06
5.88993e-05
-8.05844e-09
-5.96622e-06
5.87664e-05
-4.46983e-09
-5.0962e-06
5.86773e-05
-4.72134e-09
-4.99845e-06
5.86603e-05
1.6681e-09
-5.16476e-06
5.8696e-05
3.86695e-08
-6.10348e-06
5.88012e-05
1.24231e-07
-7.61223e-06
5.89431e-05
2.97927e-07
-1.05814e-05
5.91228e-05
5.42513e-07
-1.51345e-05
5.92436e-05
7.92004e-07
-2.22898e-05
5.96488e-05
4.85361e-06
5.85219e-05
-4.03257e-07
3.96465e-05
5.84309e-05
-7.24979e-07
5.08405e-06
6.00057e-05
-5.14992e-07
-2.25523e-05
6.11805e-05
-2.85602e-07
-1.55876e-05
6.07807e-05
-1.19472e-07
-1.09297e-05
6.06546e-05
-4.06222e-08
-7.91114e-06
6.04694e-05
-8.38512e-09
-6.39689e-06
6.03324e-05
-4.36888e-09
-5.51129e-06
6.02403e-05
-4.26107e-09
-5.40844e-06
6.02228e-05
2.50977e-09
-5.58182e-06
6.02595e-05
3.97688e-08
-6.53759e-06
6.03682e-05
1.25046e-07
-8.08434e-06
6.05144e-05
2.96996e-07
-1.10962e-05
6.07013e-05
5.31625e-07
-1.5722e-05
6.08214e-05
7.46504e-07
-2.26828e-05
6.12159e-05
4.88e-06
6.00402e-05
-3.67617e-07
3.97011e-05
5.99428e-05
-6.78747e-07
5.11546e-06
6.15474e-05
-5.02964e-07
-2.29032e-05
6.27694e-05
-2.84096e-07
-1.61474e-05
6.23819e-05
-1.19931e-07
-1.14246e-05
6.22566e-05
-4.133e-08
-8.36482e-06
6.20643e-05
-8.73719e-09
-6.81418e-06
6.19234e-05
-4.2544e-09
-5.91339e-06
6.18283e-05
-3.74545e-09
-5.80538e-06
6.18104e-05
3.43593e-09
-5.98582e-06
6.1848e-05
4.0934e-08
-6.95819e-06
6.196e-05
1.25811e-07
-8.54225e-06
6.21106e-05
2.95666e-07
-1.15942e-05
6.23046e-05
5.19739e-07
-1.62847e-05
6.24237e-05
7.00392e-07
-2.30381e-05
6.28055e-05
4.90666e-06
6.15822e-05
-3.32197e-07
3.96891e-05
6.14804e-05
-6.32085e-07
5.14609e-06
6.31135e-05
-4.89977e-07
-2.3216e-05
6.43811e-05
-2.82182e-07
-1.66797e-05
6.40078e-05
-1.20311e-07
-1.18998e-05
6.38836e-05
-4.20551e-08
-8.80095e-06
6.36842e-05
-9.10956e-09
-7.21445e-06
6.35393e-05
-4.12451e-09
-6.29872e-06
6.34414e-05
-3.17508e-09
-6.18549e-06
6.3423e-05
4.44273e-09
-6.37297e-06
6.34616e-05
4.21575e-08
-7.36163e-06
6.35769e-05
1.26514e-07
-8.98244e-06
6.37316e-05
2.93922e-07
-1.20724e-05
6.39329e-05
5.06868e-07
-1.68198e-05
6.40507e-05
6.5381e-07
-2.33553e-05
6.4418e-05
4.93272e-06
6.31486e-05
-2.97108e-07
3.96142e-05
6.30443e-05
-5.85128e-07
5.17504e-06
6.47046e-05
-4.76044e-07
-2.34908e-05
6.60159e-05
-2.7984e-07
-1.71819e-05
6.56583e-05
-1.20597e-07
-1.23526e-05
6.55354e-05
-4.27875e-08
-9.21605e-06
6.53289e-05
-9.49627e-09
-7.59414e-06
6.51804e-05
-3.97708e-09
-6.6636e-06
6.50797e-05
-2.55089e-09
-6.54509e-06
6.50609e-05
5.52528e-09
-6.73959e-06
6.51004e-05
4.34304e-08
-7.74437e-06
6.52189e-05
1.27141e-07
-9.40145e-06
6.53774e-05
2.91743e-07
-1.2528e-05
6.55859e-05
4.93021e-07
-1.73246e-05
6.57023e-05
6.0689e-07
-2.36343e-05
6.60535e-05
4.95728e-06
6.474e-05
-2.62459e-07
3.94804e-05
6.4635e-05
-5.38003e-07
5.20192e-06
6.63213e-05
-4.6117e-07
-2.37277e-05
6.7674e-05
-2.77045e-07
-1.76512e-05
6.73331e-05
-1.20773e-07
-1.27802e-05
6.72118e-05
-4.35153e-08
-9.60693e-06
6.69985e-05
-9.89052e-09
-7.95012e-06
6.68467e-05
-3.80981e-09
-7.00479e-06
6.67435e-05
-1.87413e-09
-6.88098e-06
6.67244e-05
6.67774e-09
-7.08244e-06
6.67647e-05
4.47416e-08
-8.10323e-06
6.68861e-05
1.27675e-07
-9.79603e-06
6.70481e-05
2.89105e-07
-1.29582e-05
6.72636e-05
4.78207e-07
-1.77965e-05
6.73782e-05
5.59759e-07
-2.38755e-05
6.77123e-05
4.97992e-06
6.63569e-05
-2.28346e-07
3.9292e-05
6.62527e-05
-4.90824e-07
5.22676e-06
6.79639e-05
-4.4536e-07
-2.39274e-05
6.93556e-05
-2.73769e-07
-1.80852e-05
6.90321e-05
-1.20817e-07
-1.318e-05
6.89127e-05
-4.42252e-08
-9.97129e-06
6.86938e-05
-1.02848e-08
-8.2804e-06
6.85394e-05
-3.62019e-09
-7.3205e-06
6.84341e-05
-1.14621e-09
-7.19137e-06
6.84146e-05
7.8935e-09
-7.39969e-06
6.84557e-05
4.60786e-08
-8.4362e-06
6.85795e-05
1.28096e-07
-1.01639e-05
6.87443e-05
2.85982e-07
-1.33604e-05
6.89656e-05
4.62427e-07
-1.8233e-05
6.90782e-05
5.12529e-07
-2.40793e-05
6.93945e-05
5.00067e-06
6.79997e-05
-1.94859e-07
3.90538e-05
6.78978e-05
-4.437e-07
5.24954e-06
6.9633e-05
-4.28613e-07
-2.40903e-05
7.10606e-05
-2.69983e-07
-1.84816e-05
7.0755e-05
-1.20706e-07
-1.35505e-05
7.06386e-05
-4.49033e-08
-1.03087e-05
7.04161e-05
-1.06713e-08
-8.58485e-06
7.02599e-05
-3.40554e-09
-7.6107e-06
7.01531e-05
-3.68512e-10
-7.47622e-06
7.01333e-05
9.16581e-09
-7.69131e-06
7.0175e-05
4.74281e-08
-8.74309e-06
7.03007e-05
1.28382e-07
-1.05044e-05
7.04675e-05
2.82341e-07
-1.37331e-05
7.06924e-05
4.4568e-07
-1.86318e-05
7.08021e-05
4.65307e-07
-2.42462e-05
7.11002e-05
5.01953e-06
6.96689e-05
-1.62076e-07
3.87705e-05
6.95713e-05
-3.96727e-07
5.27023e-06
7.13288e-05
-4.10923e-07
-2.4217e-05
7.27892e-05
-2.65653e-07
-1.88394e-05
7.25029e-05
-1.2042e-07
-1.38918e-05
7.23905e-05
-4.55351e-08
-1.06203e-05
7.21666e-05
-1.10421e-08
-8.86444e-06
7.20091e-05
-3.16311e-09
-7.87632e-06
7.1901e-05
4.59185e-10
-7.73645e-06
7.1881e-05
1.0488e-08
-7.9582e-06
7.19233e-05
4.87767e-08
-9.02488e-06
7.20504e-05
1.28511e-07
-1.08188e-05
7.22187e-05
2.7815e-07
-1.40764e-05
7.24451e-05
4.27959e-07
-1.89921e-05
7.25507e-05
4.18187e-07
-2.43768e-05
7.28294e-05
5.03647e-06
7.13648e-05
-1.30066e-07
3.84471e-05
7.12753e-05
-3.49989e-07
5.28869e-06
7.30517e-05
-3.92277e-07
-2.43081e-05
7.45412e-05
-2.60743e-07
-1.91597e-05
7.42766e-05
-1.19936e-07
-1.42058e-05
7.41693e-05
-4.61059e-08
-1.09075e-05
7.39451e-05
-1.13892e-08
-9.12069e-06
7.37869e-05
-2.89004e-09
-8.11876e-06
7.36781e-05
1.32976e-09
-7.97346e-06
7.36579e-05
1.18531e-08
-8.20182e-06
7.37007e-05
5.01104e-08
-9.2831e-06
7.38288e-05
1.28463e-07
-1.11086e-05
7.39979e-05
2.73373e-07
-1.43921e-05
7.42247e-05
4.09252e-07
-1.93147e-05
7.43252e-05
3.71253e-07
-2.44717e-05
7.45819e-05
5.05135e-06
7.30877e-05
-9.88909e-08
3.80883e-05
7.3012e-05
-3.03563e-07
5.30462e-06
7.48018e-05
-3.72669e-07
-2.4364e-05
7.63161e-05
-2.55219e-07
-1.94444e-05
7.60765e-05
-1.19233e-07
-1.44949e-05
7.59748e-05
-4.66006e-08
-1.11726e-05
7.57517e-05
-1.17041e-08
-9.35571e-06
7.55934e-05
-2.58335e-09
-8.34005e-06
7.54842e-05
2.24737e-09
-8.18923e-06
7.54638e-05
1.32541e-08
-8.42418e-06
7.55071e-05
5.14153e-08
-9.51992e-06
7.56358e-05
1.28216e-07
-1.1376e-05
7.58051e-05
2.67977e-07
-1.46828e-05
7.60309e-05
3.89549e-07
-1.96016e-05
7.61257e-05
3.24578e-07
-2.45312e-05
7.63573e-05
5.06389e-06
7.48379e-05
-6.86003e-08
3.76985e-05
7.47828e-05
-2.57513e-07
5.31757e-06
7.65795e-05
-3.5209e-07
-2.43851e-05
7.81134e-05
-2.4905e-07
-1.96964e-05
7.79022e-05
-1.18288e-07
-1.47623e-05
7.78069e-05
-4.70038e-08
-1.14184e-05
7.75863e-05
-1.19781e-08