-0.0075 	373
-0.00715932 	360.326
-0.00676191 	358.348
-0.00629832 	357.56
-0.00575752 	357.077
-0.00512667 	356.699
-0.00439077 	356.362
-0.00353231 	356.039
-0.00253089 	355.709
-0.00136271 	355.356
0 	354.967
0.00136271 	354.542
0.00253089 	354.098
0.00353231 	353.643
0.00439077 	353.163
0.00512667 	352.619
0.00575752 	351.932
0.00629832 	350.915
0.00676191 	348.726
0.00715932 	337.736
0.0075 	313
