0 	0 	0 	0
5.01672e-05 	-2.41005e-05 	-4.72051e-06 	0.0204008
0.000100334 	-4.82009e-05 	-9.44101e-06 	0.0408016
0.000150502 	-7.23014e-05 	-1.41615e-05 	0.0612024
0.000200669 	-9.64019e-05 	-1.8882e-05 	0.0816032
0.000250836 	-0.000120502 	-2.36025e-05 	0.102004
0.000301003 	-0.000144603 	-2.8323e-05 	0.122405
0.000351171 	-0.000166407 	-3.37731e-05 	0.140684
0.000401338 	-0.000179529 	-4.19819e-05 	0.150939
0.000451505 	-0.00019265 	-5.01908e-05 	0.161195
0.000501672 	-0.000205772 	-5.83997e-05 	0.17145
0.000551839 	-0.000218893 	-6.66085e-05 	0.181705
0.000602007 	-0.000232015 	-7.48174e-05 	0.191961
0.000652174 	-0.000245137 	-8.30262e-05 	0.202216
0.000702341 	-0.000258258 	-9.12351e-05 	0.212472
0.000752508 	-0.000268447 	-9.96598e-05 	0.221305
0.000802676 	-0.000271364 	-0.00010862 	0.226614
0.000852843 	-0.00027428 	-0.00011758 	0.231923
0.00090301 	-0.000277197 	-0.000126539 	0.237232
0.000953177 	-0.000280114 	-0.000135499 	0.242541
0.00100334 	-0.00028303 	-0.000144459 	0.24785
0.00105351 	-0.000285947 	-0.000153419 	0.253159
0.00110368 	-0.000288864 	-0.000162379 	0.258467
0.00115385 	-0.00029178 	-0.000171339 	0.263776
0.00120401 	-0.000294488 	-0.000180252 	0.26898
0.00125418 	-0.000292904 	-0.00018821 	0.272013
0.00130435 	-0.00029132 	-0.000196168 	0.275047
0.00135452 	-0.000289736 	-0.000204127 	0.27808
0.00140468 	-0.000288152 	-0.000212085 	0.281114
0.00145485 	-0.000286568 	-0.000220043 	0.284148
0.00150502 	-0.000284984 	-0.000228001 	0.287181
0.00155518 	-0.0002834 	-0.000235959 	0.290215
0.00160535 	-0.000281815 	-0.000243917 	0.293249
0.00165552 	-0.000280231 	-0.000251875 	0.296282
0.00170569 	-0.000278647 	-0.000259833 	0.299316
0.00175585 	-0.000276803 	-0.000267361 	0.302059
0.00180602 	-0.000274243 	-0.000273707 	0.304004
0.00185619 	-0.000271684 	-0.000280053 	0.305948
0.00190635 	-0.000269124 	-0.000286399 	0.307893
0.00195652 	-0.000266564 	-0.000292745 	0.309837
0.00200669 	-0.000264005 	-0.000299091 	0.311782
0.00205686 	-0.000261445 	-0.000305437 	0.313726
0.00210702 	-0.000258885 	-0.000311783 	0.315671
0.00215719 	-0.000256326 	-0.000318129 	0.317616
0.00220736 	-0.000253766 	-0.000324475 	0.31956
0.00225753 	-0.000251206 	-0.000330821 	0.321505
0.00230769 	-0.000248646 	-0.000337167 	0.323449
0.00235786 	-0.000246087 	-0.000343513 	0.325394
0.00240803 	-0.0002438 	-0.000348645 	0.326902
0.00245819 	-0.000241635 	-0.000353237 	0.328215
0.00250836 	-0.00023947 	-0.000357829 	0.329528
0.00255853 	-0.000237305 	-0.000362421 	0.330841
0.0026087 	-0.00023514 	-0.000367013 	0.332154
0.00265886 	-0.000232975 	-0.000371605 	0.333467
0.00270903 	-0.00023081 	-0.000376197 	0.33478
0.0027592 	-0.000228645 	-0.000380789 	0.336093
0.00280936 	-0.00022648 	-0.00038538 	0.337407
0.00285953 	-0.000224315 	-0.000389972 	0.33872
0.0029097 	-0.00022215 	-0.000394564 	0.340033
0.00295987 	-0.000219985 	-0.000399156 	0.341346
0.00301003 	-0.00021782 	-0.000403748 	0.342659
0.0030602 	-0.000215655 	-0.00040834 	0.343972
0.00311037 	-0.000213505 	-0.000412901 	0.345275
0.00316054 	-0.000212009 	-0.000416119 	0.346156
0.0032107 	-0.000210512 	-0.000419337 	0.347036
0.00326087 	-0.000209016 	-0.000422554 	0.347916
0.00331104 	-0.00020752 	-0.000425772 	0.348796
0.0033612 	-0.000206024 	-0.00042899 	0.349676
0.00341137 	-0.000204527 	-0.000432208 	0.350556
0.00346154 	-0.000203031 	-0.000435426 	0.351436
0.00351171 	-0.000201535 	-0.000438644 	0.352316
0.00356187 	-0.000200038 	-0.000441862 	0.353196
0.00361204 	-0.000198542 	-0.00044508 	0.354076
0.00366221 	-0.000197046 	-0.000448298 	0.354957
0.00371237 	-0.00019555 	-0.000451516 	0.355837
0.00376254 	-0.000194053 	-0.000454733 	0.356717
0.00381271 	-0.000192557 	-0.000457951 	0.357597
0.00386288 	-0.000191061 	-0.000461169 	0.358477
0.00391304 	-0.000189565 	-0.000464387 	0.359357
0.00396321 	-0.000188068 	-0.000467605 	0.360237
0.00401338 	-0.000186999 	-0.000469974 	0.360816
0.00406355 	-0.000185972 	-0.00047226 	0.361366
0.00411371 	-0.000184945 	-0.000474545 	0.361916
0.00416388 	-0.000183918 	-0.000476831 	0.362465
0.00421405 	-0.000182891 	-0.000479117 	0.363015
0.00426421 	-0.000181864 	-0.000481403 	0.363565
0.00431438 	-0.000180837 	-0.000483688 	0.364114
0.00436455 	-0.00017981 	-0.000485974 	0.364664
0.00441472 	-0.000178783 	-0.00048826 	0.365214
0.00446488 	-0.000177756 	-0.000490545 	0.365763
0.00451505 	-0.000176729 	-0.000492831 	0.366313
0.00456522 	-0.000175702 	-0.000495117 	0.366863
0.00461538 	-0.000174675 	-0.000497403 	0.367412
0.00466555 	-0.000173648 	-0.000499688 	0.367962
0.00471572 	-0.000172621 	-0.000501974 	0.368512
0.00476589 	-0.000171594 	-0.00050426 	0.369061
0.00481605 	-0.000170566 	-0.000506545 	0.369611
0.00486622 	-0.000169539 	-0.000508831 	0.370161
0.00491639 	-0.000168512 	-0.000511117 	0.37071
0.00496656 	-0.000167485 	-0.000513402 	0.37126
0.00501672 	-0.000166672 	-0.000514959 	0.371559
0.00506689 	-0.000165871 	-0.000516476 	0.371844
0.00511706 	-0.000165069 	-0.000517993 	0.372129
0.00516722 	-0.000164267 	-0.00051951 	0.372414
0.00521739 	-0.000163466 	-0.000521027 	0.372699
0.00526756 	-0.000162664 	-0.000522544 	0.372984
0.00531773 	-0.000161863 	-0.000524061 	0.373269
0.00536789 	-0.000161061 	-0.000525578 	0.373554
0.00541806 	-0.000160259 	-0.000527095 	0.373839
0.00546823 	-0.000159458 	-0.000528612 	0.374124
0.00551839 	-0.000158656 	-0.00053013 	0.374409
0.00556856 	-0.000157855 	-0.000531647 	0.374694
0.00561873 	-0.000157053 	-0.000533164 	0.374979
0.0056689 	-0.000156251 	-0.000534681 	0.375265
0.00571906 	-0.00015545 	-0.000536198 	0.37555
0.00576923 	-0.000154648 	-0.000537715 	0.375835
0.0058194 	-0.000153847 	-0.000539232 	0.37612
0.00586957 	-0.000153045 	-0.000540749 	0.376405
0.00591973 	-0.000152243 	-0.000542266 	0.37669
0.0059699 	-0.000151442 	-0.000543783 	0.376975
0.00602007 	-0.00015064 	-0.0005453 	0.37726
0.00607023 	-0.000149838 	-0.000546817 	0.377545
0.0061204 	-0.000149037 	-0.000548335 	0.37783
0.00617057 	-0.000148334 	-0.000549325 	0.377969
0.00622074 	-0.000147682 	-0.000550047 	0.378033
0.0062709 	-0.00014703 	-0.00055077 	0.378097
0.00632107 	-0.000146377 	-0.000551492 	0.378161
0.00637124 	-0.000145725 	-0.000552215 	0.378225
0.0064214 	-0.000145072 	-0.000552938 	0.37829
0.00647157 	-0.00014442 	-0.00055366 	0.378354
0.00652174 	-0.000143768 	-0.000554383 	0.378418
0.00657191 	-0.000143115 	-0.000555105 	0.378482
0.00662207 	-0.000142463 	-0.000555828 	0.378546
0.00667224 	-0.000141811 	-0.000556551 	0.378611
0.00672241 	-0.000141158 	-0.000557273 	0.378675
0.00677258 	-0.000140506 	-0.000557996 	0.378739
0.00682274 	-0.000139854 	-0.000558718 	0.378803
0.00687291 	-0.000139201 	-0.000559441 	0.378867
0.00692308 	-0.000138549 	-0.000560164 	0.378932
0.00697324 	-0.000137897 	-0.000560886 	0.378996
0.00702341 	-0.000137244 	-0.000561609 	0.37906
0.00707358 	-0.000136592 	-0.000562331 	0.379124
0.00712375 	-0.000135939 	-0.000563054 	0.379188
0.00717391 	-0.000135287 	-0.000563777 	0.379253
0.00722408 	-0.000134635 	-0.000564499 	0.379317
0.00727425 	-0.000133982 	-0.000565222 	0.379381
0.00732441 	-0.00013333 	-0.000565945 	0.379445
0.00737458 	-0.000132678 	-0.000566667 	0.379509
0.00742475 	-0.000132025 	-0.00056739 	0.379573
0.00747492 	-0.000131373 	-0.000568112 	0.379638
0.00752508 	-0.000130779 	-0.000568438 	0.379602
0.00757525 	-0.000130244 	-0.000568367 	0.379468
0.00762542 	-0.000129708 	-0.000568296 	0.379333
0.00767559 	-0.000129173 	-0.000568225 	0.379198
0.00772575 	-0.000128637 	-0.000568154 	0.379064
0.00777592 	-0.000128102 	-0.000568082 	0.378929
0.00782609 	-0.000127566 	-0.000568011 	0.378794
0.00787625 	-0.000127031 	-0.00056794 	0.37866
0.00792642 	-0.000126496 	-0.000567869 	0.378525
0.00797659 	-0.00012596 	-0.000567798 	0.37839
0.00802676 	-0.000125425 	-0.000567727 	0.378256
0.00807692 	-0.000124889 	-0.000567656 	0.378121
0.00812709 	-0.000124354 	-0.000567584 	0.377986
0.00817726 	-0.000123818 	-0.000567513 	0.377852
0.00822742 	-0.000123283 	-0.000567442 	0.377717
0.00827759 	-0.000122748 	-0.000567371 	0.377582
0.00832776 	-0.000122212 	-0.0005673 	0.377448
0.00837793 	-0.000121677 	-0.000567229 	0.377313
0.00842809 	-0.000121141 	-0.000567158 	0.377178
0.00847826 	-0.000120606 	-0.000567087 	0.377044
0.00852843 	-0.00012007 	-0.000567015 	0.376909
0.0085786 	-0.000119535 	-0.000566944 	0.376774
0.00862876 	-0.000119 	-0.000566873 	0.37664
0.00867893 	-0.000118464 	-0.000566802 	0.376505
0.0087291 	-0.000117929 	-0.000566731 	0.37637
0.00877926 	-0.000117393 	-0.00056666 	0.376236
0.00882943 	-0.000116858 	-0.000566589 	0.376101
0.0088796 	-0.000116378 	-0.00056619 	0.375885
0.00892977 	-0.000116009 	-0.000565144 	0.375509
0.00897993 	-0.00011564 	-0.000564099 	0.375133
0.0090301 	-0.000115271 	-0.000563053 	0.374756
0.00908027 	-0.000114902 	-0.000562008 	0.37438
0.00913043 	-0.000114533 	-0.000560962 	0.374004
0.0091806 	-0.000114164 	-0.000559917 	0.373628
0.00923077 	-0.000113794 	-0.000558871 	0.373252
0.00928094 	-0.000113425 	-0.000557826 	0.372876
0.0093311 	-0.000113056 	-0.00055678 	0.372499
0.00938127 	-0.000112687 	-0.000555735 	0.372123
0.00943144 	-0.000112318 	-0.00055469 	0.371747
0.00948161 	-0.000111949 	-0.000553644 	0.371371
0.00953177 	-0.00011158 	-0.000552599 	0.370995
0.00958194 	-0.00011121 	-0.000551553 	0.370619
0.00963211 	-0.000110841 	-0.000550508 	0.370242
0.00968227 	-0.000110472 	-0.000549462 	0.369866
0.00973244 	-0.000110103 	-0.000548417 	0.36949
0.00978261 	-0.000109734 	-0.000547371 	0.369114
0.00983278 	-0.000109365 	-0.000546326 	0.368738
0.00988294 	-0.000108996 	-0.00054528 	0.368362
0.00993311 	-0.000108626 	-0.000544235 	0.367986
0.00998328 	-0.000108257 	-0.000543189 	0.367609
0.0100334 	-0.000107907 	-0.000542087 	0.367219
0.0100836 	-0.000107906 	-0.000539928 	0.366557
0.0101338 	-0.000107905 	-0.000537769 	0.365895
0.0101839 	-0.000107904 	-0.00053561 	0.365233
0.0102341 	-0.000107903 	-0.000533451 	0.364572
0.0102843 	-0.000107902 	-0.000531291 	0.36391
0.0103344 	-0.000107901 	-0.000529132 	0.363248
0.0103846 	-0.0001079 	-0.000526973 	0.362586
0.0104348 	-0.000107899 	-0.000524814 	0.361925
0.0104849 	-0.000107898 	-0.000522655 	0.361263
0.0105351 	-0.000107897 	-0.000520495 	0.360601
0.0105853 	-0.000107896 	-0.000518336 	0.359939
0.0106355 	-0.000107895 	-0.000516177 	0.359278
0.0106856 	-0.000107894 	-0.000514018 	0.358616
0.0107358 	-0.000107893 	-0.000511859 	0.357954
0.010786 	-0.000107892 	-0.000509699 	0.357292
0.0108361 	-0.000107891 	-0.00050754 	0.356631
0.0108863 	-0.00010789 	-0.000505381 	0.355969
0.0109365 	-0.000107889 	-0.000503222 	0.355307
0.0109866 	-0.000107888 	-0.000501062 	0.354645
0.0110368 	-0.000107947 	-0.000498762 	0.353951
0.011087 	-0.000108614 	-0.00049502 	0.352919
0.0111371 	-0.000109281 	-0.000491278 	0.351887
0.0111873 	-0.000109948 	-0.000487537 	0.350856
0.0112375 	-0.000110615 	-0.000483795 	0.349824
0.0112876 	-0.000111283 	-0.000480053 	0.348793
0.0113378 	-0.00011195 	-0.000476311 	0.347761
0.011388 	-0.000112617 	-0.000472569 	0.34673
0.0114381 	-0.000113284 	-0.000468828 	0.345698
0.0114883 	-0.000113951 	-0.000465086 	0.344666
0.0115385 	-0.000114618 	-0.000461344 	0.343635
0.0115886 	-0.000115286 	-0.000457602 	0.342603
0.0116388 	-0.000115953 	-0.000453861 	0.341572
0.011689 	-0.00011662 	-0.000450119 	0.34054
0.0117391 	-0.000117287 	-0.000446377 	0.339509
0.0117893 	-0.000117954 	-0.000442635 	0.338477
0.0118395 	-0.000118621 	-0.000438894 	0.337445
0.0118896 	-0.000119288 	-0.000435152 	0.336414
0.0119398 	-0.000120904 	-0.00042895 	0.334841
0.01199 	-0.000122541 	-0.000422692 	0.333256
0.0120401 	-0.000124179 	-0.000416434 	0.331671
0.0120903 	-0.000125816 	-0.000410176 	0.330086
0.0121405 	-0.000127453 	-0.000403917 	0.328501
0.0121906 	-0.000129091 	-0.000397659 	0.326916
0.0122408 	-0.000130728 	-0.000391401 	0.325331
0.012291 	-0.000132365 	-0.000385143 	0.323746
0.0123411 	-0.000134003 	-0.000378885 	0.322161
0.0123913 	-0.00013564 	-0.000372626 	0.320576
0.0124415 	-0.000137277 	-0.000366368 	0.318991
0.0124916 	-0.000138915 	-0.00036011 	0.317406
0.0125418 	-0.000140552 	-0.000353852 	0.315821
0.012592 	-0.000142189 	-0.000347593 	0.314236
0.0126421 	-0.000144098 	-0.000340384 	0.312365
0.0126923 	-0.000146615 	-0.000331039 	0.309852
0.0127425 	-0.000149131 	-0.000321694 	0.307338
0.0127926 	-0.000151648 	-0.000312349 	0.304824
0.0128428 	-0.000154165 	-0.000303005 	0.302311
0.012893 	-0.000156681 	-0.00029366 	0.299797
0.0129431 	-0.000159198 	-0.000284315 	0.297283
0.0129933 	-0.000161715 	-0.000274971 	0.29477
0.0130435 	-0.000164231 	-0.000265626 	0.292256
0.0130936 	-0.000166748 	-0.000256281 	0.289742
0.0131438 	-0.000169265 	-0.000246936 	0.287229
0.013194 	-0.000171781 	-0.000237592 	0.284715
0.0132441 	-0.000174298 	-0.000228247 	0.282201
0.0132943 	-0.00017646 	-0.000217349 	0.278465
0.0133445 	-0.000178493 	-0.000205885 	0.274285
0.0133946 	-0.000180526 	-0.000194422 	0.270104
0.0134448 	-0.000182558 	-0.000182959 	0.265924
0.013495 	-0.000184591 	-0.000171496 	0.261743
0.0135452 	-0.000186624 	-0.000160032 	0.257563
0.0135953 	-0.000188657 	-0.000148569 	0.253382
0.0136455 	-0.00019069 	-0.000137106 	0.249202
0.0136957 	-0.000192723 	-0.000125643 	0.245021
0.0137458 	-0.000194756 	-0.000114179 	0.24084
0.013796 	-0.000196788 	-0.000102716 	0.23666
0.0138462 	-0.000194499 	-9.29853e-05 	0.229199
0.0138963 	-0.000191998 	-8.33388e-05 	0.221579
0.0139465 	-0.000189498 	-7.36924e-05 	0.213958
0.0139967 	-0.000186997 	-6.4046e-05 	0.206337
0.0140468 	-0.000184497 	-5.43996e-05 	0.198717
0.014097 	-0.000181997 	-4.47531e-05 	0.191096
0.0141472 	-0.000179496 	-3.51067e-05 	0.183476
0.0141973 	-0.000176996 	-2.54603e-05 	0.175855
0.0142475 	-0.000174495 	-1.58139e-05 	0.168235
0.0142977 	-0.00016621 	-1.09098e-05 	0.157729
0.0143478 	-0.000155591 	-7.91839e-06 	0.14606
0.014398 	-0.000144972 	-4.92699e-06 	0.134392
0.0144482 	-0.000134353 	-1.93558e-06 	0.122723
0.0144983 	-0.000123735 	1.05582e-06 	0.111054
0.0145485 	-0.000113116 	4.04723e-06 	0.0993851
0.0145987 	-0.000102497 	7.03864e-06 	0.0877163
0.0146488 	-9.18782e-05 	1.003e-05 	0.0760475
0.014699 	-7.9216e-05 	9.4147e-06 	0.0650348
0.0147492 	-6.60133e-05 	7.84558e-06 	0.0541957
0.0147993 	-5.28106e-05 	6.27647e-06 	0.0433565
0.0148495 	-3.9608e-05 	4.70735e-06 	0.0325174
0.0148997 	-2.64053e-05 	3.13823e-06 	0.0216783
0.0149498 	-1.32027e-05 	1.56912e-06 	0.0108391
0.015 	0 	0 	0
