-0.0075 	0 	0 	0
-0.0075 	-8.4131e-36 	-1.63231e-36 	1.85196e-31
-0.00745622 	-6.91084e-07 	-1.34084e-07 	0.0152127
-0.00745622 	-6.91084e-07 	-1.34084e-07 	0.0152127
-0.00741165 	-9.70862e-07 	-5.89201e-07 	0.0296242
-0.00741165 	-9.70862e-07 	-5.89201e-07 	0.0296242
-0.00736628 	-1.17364e-06 	-1.40763e-06 	0.0433329
-0.00736628 	-1.17364e-06 	-1.40763e-06 	0.0433329
-0.0073201 	-1.43648e-06 	-2.62541e-06 	0.0563625
-0.0073201 	-1.43648e-06 	-2.62541e-06 	0.0563625
-0.00727309 	-1.7283e-06 	-4.23707e-06 	0.0687373
-0.00727309 	-1.7283e-06 	-4.23707e-06 	0.0687373
-0.00722524 	-2.00731e-06 	-6.25712e-06 	0.0804796
-0.00722524 	-2.00731e-06 	-6.25712e-06 	0.0804796
-0.00717653 	-2.25845e-06 	-8.69689e-06 	0.0915995
-0.00717653 	-2.25845e-06 	-8.69689e-06 	0.0915995
-0.00712695 	-2.47732e-06 	-1.15764e-05 	0.102086
-0.00712695 	-2.47732e-06 	-1.15764e-05 	0.102086
-0.00707647 	-2.66338e-06 	-1.49312e-05 	0.11191
-0.00707647 	-2.66338e-06 	-1.49312e-05 	0.11191
-0.0070251 	-2.81715e-06 	-1.88169e-05 	0.121044
-0.0070251 	-2.81715e-06 	-1.88169e-05 	0.121044
-0.0069728 	-2.9392e-06 	-2.33044e-05 	0.129483
-0.0069728 	-2.9392e-06 	-2.33044e-05 	0.129483
-0.00691956 	-3.03005e-06 	-2.84669e-05 	0.137243
-0.00691956 	-3.03005e-06 	-2.84669e-05 	0.137243
-0.00686537 	-3.09029e-06 	-3.43705e-05 	0.144364
-0.00686537 	-3.09029e-06 	-3.43705e-05 	0.144364
-0.00681021 	-3.12072e-06 	-4.1082e-05 	0.1509
-0.00681021 	-3.12072e-06 	-4.1082e-05 	0.1509
-0.00675406 	-3.12236e-06 	-4.8674e-05 	0.156913
-0.00675406 	-3.12236e-06 	-4.8674e-05 	0.156913
-0.0066969 	-3.0961e-06 	-5.72137e-05 	0.162457
-0.0066969 	-3.0961e-06 	-5.72137e-05 	0.162457
-0.00663871 	-3.043e-06 	-6.67492e-05 	0.167577
-0.00663871 	-3.043e-06 	-6.67492e-05 	0.167577
-0.00657949 	-2.9647e-06 	-7.72876e-05 	0.172316
-0.00657949 	-2.9647e-06 	-7.72876e-05 	0.172316
-0.0065192 	-2.86326e-06 	-8.87961e-05 	0.176714
-0.0065192 	-2.86326e-06 	-8.87961e-05 	0.176714
-0.00645783 	-2.74067e-06 	-0.000101226 	0.180814
-0.00645783 	-2.74067e-06 	-0.000101226 	0.180814
-0.00639535 	-2.59871e-06 	-0.000114523 	0.184654
-0.00639535 	-2.59871e-06 	-0.000114523 	0.184654
-0.00633176 	-2.43889e-06 	-0.000128635 	0.188267
-0.00633176 	-2.43889e-06 	-0.000128635 	0.188267
-0.00626703 	-2.26262e-06 	-0.000143508 	0.191679
-0.00626703 	-2.26262e-06 	-0.000143508 	0.191679
-0.00620114 	-2.07123e-06 	-0.000159084 	0.194915
-0.00620114 	-2.07123e-06 	-0.000159084 	0.194915
-0.00613406 	-1.86599e-06 	-0.000175302 	0.197994
-0.00613406 	-1.86599e-06 	-0.000175302 	0.197994
-0.00606579 	-1.64817e-06 	-0.000192102 	0.200935
-0.00606579 	-1.64817e-06 	-0.000192102 	0.200935
-0.00599629 	-1.419e-06 	-0.000209415 	0.203754
-0.00599629 	-1.419e-06 	-0.000209415 	0.203754
-0.00592554 	-1.17953e-06 	-0.000227172 	0.206468
-0.00592554 	-1.17953e-06 	-0.000227172 	0.206468
-0.00585352 	-9.30405e-07 	-0.000245294 	0.20909
-0.00585352 	-9.30405e-07 	-0.000245294 	0.20909
-0.00578022 	-6.72045e-07 	-0.000263689 	0.211632
-0.00578022 	-6.72045e-07 	-0.000263689 	0.211632
-0.00570559 	-4.04802e-07 	-0.000282259 	0.214104
-0.00570559 	-4.04802e-07 	-0.000282259 	0.214104
-0.00562963 	-1.29033e-07 	-0.000300904 	0.216515
-0.00562963 	-1.29033e-07 	-0.000300904 	0.216515
-0.00555231 	1.54941e-07 	-0.000319521 	0.218871
-0.00555231 	1.54941e-07 	-0.000319521 	0.218871
-0.0054736 	4.46865e-07 	-0.000338007 	0.221178
-0.0054736 	4.46865e-07 	-0.000338007 	0.221178
-0.00539348 	7.46555e-07 	-0.000356257 	0.22344
-0.00539348 	7.46555e-07 	-0.000356257 	0.22344
-0.00531193 	1.05389e-06 	-0.000374165 	0.225662
-0.00531193 	1.05389e-06 	-0.000374165 	0.225662
-0.00522891 	1.3688e-06 	-0.000391625 	0.227846
-0.00522891 	1.3688e-06 	-0.000391625 	0.227846
-0.0051444 	1.69131e-06 	-0.000408536 	0.229995
-0.0051444 	1.69131e-06 	-0.000408536 	0.229995
-0.00505838 	2.0215e-06 	-0.000424796 	0.23211
-0.00505838 	2.0215e-06 	-0.000424796 	0.23211
-0.00497081 	2.35952e-06 	-0.000440313 	0.234191
-0.00497081 	2.35952e-06 	-0.000440313 	0.234191
-0.00488168 	2.70562e-06 	-0.000454993 	0.236238
-0.00488168 	2.70562e-06 	-0.000454993 	0.236238
-0.00479094 	3.06011e-06 	-0.000468751 	0.238252
-0.00479094 	3.06011e-06 	-0.000468751 	0.238252
-0.00469858 	3.42335e-06 	-0.000481501 	0.24023
-0.00469858 	3.42335e-06 	-0.000481501 	0.24023
-0.00460456 	3.79578e-06 	-0.000493169 	0.242171
-0.00460456 	3.79578e-06 	-0.000493169 	0.242171
-0.00450886 	4.17798e-06 	-0.000503706 	0.244074
-0.00450886 	4.17798e-06 	-0.000503706 	0.244074
-0.00441144 	4.5707e-06 	-0.000513097 	0.245936
-0.00441144 	4.5707e-06 	-0.000513097 	0.245936
-0.00431227 	4.97489e-06 	-0.00052136 	0.247755
-0.00431227 	4.97489e-06 	-0.00052136 	0.247755
-0.00421133 	5.39165e-06 	-0.000528542 	0.249531
-0.00421133 	5.39165e-06 	-0.000528542 	0.249531
-0.00410857 	5.82191e-06 	-0.000534709 	0.251259
-0.00410857 	5.82191e-06 	-0.000534709 	0.251259
-0.00400397 	6.26589e-06 	-0.00053994 	0.252939
-0.00400397 	6.26589e-06 	-0.00053994 	0.252939
-0.0038975 	6.72323e-06 	-0.000544323 	0.254571
-0.0038975 	6.72323e-06 	-0.000544323 	0.254571
-0.00378912 	7.19395e-06 	-0.000547936 	0.256157
-0.00378912 	7.19395e-06 	-0.000547936 	0.256157
-0.00367879 	7.67883e-06 	-0.000550845 	0.257699
-0.00367879 	7.67883e-06 	-0.000550845 	0.257699
-0.00356649 	8.17868e-06 	-0.000553107 	0.259197
-0.00356649 	8.17868e-06 	-0.000553107 	0.259197
-0.00345217 	8.6935e-06 	-0.000554776 	0.260649
-0.00345217 	8.6935e-06 	-0.000554776 	0.260649
-0.0033358 	9.22246e-06 	-0.000555911 	0.262052
-0.0033358 	9.22246e-06 	-0.000555911 	0.262052
-0.00321735 	9.76442e-06 	-0.000556576 	0.263405
-0.00321735 	9.76442e-06 	-0.000556576 	0.263405
-0.00309677 	1.0318e-05 	-0.000556839 	0.264703
-0.00309677 	1.0318e-05 	-0.000556839 	0.264703
-0.00297403 	1.08814e-05 	-0.000556773 	0.265946
-0.00297403 	1.08814e-05 	-0.000556773 	0.265946
-0.00284909 	1.14526e-05 	-0.000556454 	0.26713
-0.00284909 	1.14526e-05 	-0.000556454 	0.26713
-0.0027219 	1.20294e-05 	-0.000555957 	0.268254
-0.0027219 	1.20294e-05 	-0.000555957 	0.268254
-0.00259244 	1.26091e-05 	-0.000555358 	0.269314
-0.00259244 	1.26091e-05 	-0.000555358 	0.269314
-0.00246065 	1.3189e-05 	-0.000554725 	0.270307
-0.00246065 	1.3189e-05 	-0.000554725 	0.270307
-0.00232651 	1.37661e-05 	-0.000554119 	0.271233
-0.00232651 	1.37661e-05 	-0.000554119 	0.271233
-0.00218995 	1.43368e-05 	-0.000553591 	0.272088
-0.00218995 	1.43368e-05 	-0.000553591 	0.272088
-0.00205095 	1.48977e-05 	-0.000553181 	0.272872
-0.00205095 	1.48977e-05 	-0.000553181 	0.272872
-0.00190946 	1.54443e-05 	-0.000552914 	0.273581
-0.00190946 	1.54443e-05 	-0.000552914 	0.273581
-0.00176543 	1.59717e-05 	-0.0005528 	0.274216
-0.00176543 	1.59717e-05 	-0.0005528 	0.274216
-0.00161881 	1.64743e-05 	-0.00055283 	0.274775
-0.00161881 	1.64743e-05 	-0.00055283 	0.274775
-0.00146957 	1.69457e-05 	-0.000552976 	0.27526
-0.00146957 	1.69457e-05 	-0.000552976 	0.27526
-0.00131765 	1.73793e-05 	-0.000553197 	0.275669
-0.00131765 	1.73793e-05 	-0.000553197 	0.275669
-0.001163 	1.77679e-05 	-0.000553439 	0.276003
-0.001163 	1.77679e-05 	-0.000553439 	0.276003
-0.00100559 	1.81034e-05 	-0.000553645 	0.276261
-0.00100559 	1.81034e-05 	-0.000553645 	0.276261
-0.000845345 	1.83759e-05 	-0.000553788 	0.276444
-0.000845345 	1.83759e-05 	-0.000553788 	0.276444
-0.000682232 	1.85734e-05 	-0.000553787 	0.27655
-0.000682232 	1.85734e-05 	-0.000553787 	0.27655
-0.000516194 	1.86823e-05 	-0.000553553 	0.276578
-0.000516194 	1.86823e-05 	-0.000553553 	0.276578
-0.000347178 	1.86878e-05 	-0.000553087 	0.276526
-0.000347178 	1.86878e-05 	-0.000553087 	0.276526
-0.000175132 	1.8577e-05 	-0.000552247 	0.27639
-0.000175132 	1.8577e-05 	-0.000552247 	0.27639
0 	1.83421e-05 	-0.000551047 	0.27617
0 	1.83421e-05 	-0.000551047 	0.27617
0 	1.83421e-05 	-0.000551047 	0.27617
0 	1.83421e-05 	-0.000551047 	0.27617
0.000175132 	1.79828e-05 	-0.000549567 	0.275868
0.000175132 	2.14779e-05 	-0.000456632 	0.272456
0.000347178 	1.75112e-05 	-0.000547711 	0.27549
0.000347178 	2.25445e-05 	-0.000456217 	0.272146
0.000516194 	1.69421e-05 	-0.000545583 	0.27504
0.000516194 	2.34335e-05 	-0.000455697 	0.271759
0.000682232 	1.62896e-05 	-0.000543188 	0.274523
0.000682232 	2.416e-05 	-0.000455042 	0.271298
0.000845345 	1.55708e-05 	-0.000540464 	0.273942
0.000845345 	2.47417e-05 	-0.000453992 	0.270769
0.00100559 	1.48004e-05 	-0.00053747 	0.2733
0.00100559 	2.51952e-05 	-0.000452676 	0.270173
0.001163 	1.39913e-05 	-0.000534226 	0.272598
0.001163 	2.55359e-05 	-0.000451107 	0.269516
0.00131765 	1.31544e-05 	-0.000530749 	0.27184
0.00131765 	2.5778e-05 	-0.000449297 	0.268798
0.00146957 	1.22993e-05 	-0.000527055 	0.271028
0.00146957 	2.59338e-05 	-0.000447256 	0.268024
0.00161881 	1.14338e-05 	-0.000523158 	0.270163
0.00161881 	2.60141e-05 	-0.000444992 	0.267194
0.00176543 	1.05649e-05 	-0.000519068 	0.269247
0.00176543 	2.6028e-05 	-0.000442511 	0.266311
0.00190946 	9.69805e-06 	-0.000514794 	0.268281
0.00190946 	2.59836e-05 	-0.000439816 	0.265377
0.00205095 	8.838e-06 	-0.000510339 	0.267267
0.00205095 	2.58874e-05 	-0.000436909 	0.264393
0.00218995 	7.98855e-06 	-0.000505706 	0.266206
0.00218995 	2.57453e-05 	-0.000433789 	0.26336
0.00232651 	7.15282e-06 	-0.000500895 	0.265099
0.00232651 	2.55619e-05 	-0.000430452 	0.26228
0.00246065 	6.33333e-06 	-0.000495902 	0.263946
0.00246065 	2.53415e-05 	-0.000426892 	0.261152
0.00259244 	5.53208e-06 	-0.000490724 	0.262748
0.00259244 	2.50873e-05 	-0.0004231 	0.259979
0.0027219 	4.75067e-06 	-0.000485354 	0.261505
0.0027219 	2.48021e-05 	-0.000419067 	0.25876
0.00284909 	3.99043e-06 	-0.000479784 	0.260218
0.00284909 	2.44881e-05 	-0.000414781 	0.257496
0.00297403 	3.25237e-06 	-0.000474005 	0.258887
0.00297403 	2.41472e-05 	-0.000410226 	0.256187
0.00309677 	2.53725e-06 	-0.000468006 	0.257512
0.00309677 	2.3781e-05 	-0.000405385 	0.254833
0.00321735 	1.84562e-06 	-0.000461775 	0.256092
0.00321735 	2.33907e-05 	-0.000400241 	0.253435
0.0033358 	1.17786e-06 	-0.000455301 	0.254627
0.0033358 	2.29772e-05 	-0.000394776 	0.25199
0.00345217 	2.25416e-05 	-0.000388974 	0.2505
0.00345217 	5.34257e-07 	-0.000448572 	0.253116
0.00356649 	-8.4983e-08 	-0.000441579 	0.251559
0.00356649 	2.20844e-05 	-0.00038283 	0.248963
0.00367879 	-6.79729e-07 	-0.000434309 	0.249954
0.00367879 	2.16064e-05 	-0.000376338 	0.247377
0.00378912 	-1.24993e-06 	-0.000426744 	0.248301
0.00378912 	2.111e-05 	-0.000369481 	0.245743
0.0038975 	-1.79553e-06 	-0.000418861 	0.246598
0.0038975 	2.05979e-05 	-0.000362244 	0.244062
0.00400397 	-2.31662e-06 	-0.00041062 	0.244842
0.00400397 	2.00723e-05 	-0.000354575 	0.242328
0.00410857 	1.95332e-05 	-0.000346369 	0.240528
0.00410857 	-2.81382e-06 	-0.000401953 	0.243027
0.00421133 	-3.28835e-06 	-0.000392779 	0.241146
0.00421133 	1.89787e-05 	-0.000337513 	0.238652
0.00431227 	-3.74181e-06 	-0.00038301 	0.239193
0.00431227 	1.84062e-05 	-0.000327919 	0.236691
0.00441144 	-4.17543e-06 	-0.000372574 	0.23716
0.00441144 	1.78133e-05 	-0.000317541 	0.234642
0.00450886 	-4.58967e-06 	-0.000361435 	0.235042
0.00450886 	1.71975e-05 	-0.000306377 	0.2325
0.00460456 	-4.98464e-06 	-0.000349588 	0.232833
0.00460456 	1.65567e-05 	-0.000294465 	0.230262
0.00469858 	-5.36058e-06 	-0.00033705 	0.230528
0.00469858 	1.5889e-05 	-0.000281854 	0.227923
0.00479094 	-5.71788e-06 	-0.000323844 	0.228123
0.00479094 	1.51926e-05 	-0.000268597 	0.225481
0.00488168 	-6.0569e-06 	-0.000309998 	0.225613
0.00488168 	1.44658e-05 	-0.000254752 	0.22293
0.00497081 	-6.37798e-06 	-0.00029555 	0.222994
0.00497081 	1.3707e-05 	-0.000240383 	0.220266
0.00505838 	-6.68137e-06 	-0.000280552 	0.220261
0.00505838 	1.29147e-05 	-0.000225564 	0.217487
0.0051444 	-6.96723e-06 	-0.000265068 	0.217411
0.0051444 	1.20878e-05 	-0.000210381 	0.214588
0.00522891 	-7.23567e-06 	-0.000249179 	0.214441
0.00522891 	1.12253e-05 	-0.000194939 	0.211566
0.00531193 	-7.48666e-06 	-0.000232983 	0.211347
0.00531193 	1.03269e-05 	-0.000179355 	0.208419
0.00539348 	-7.72011e-06 	-0.000216591 	0.208125
0.00539348 	9.39279e-06 	-0.000163761 	0.205146
0.0054736 	-7.93582e-06 	-0.000200128 	0.204774
0.0054736 	8.42353e-06 	-0.000148299 	0.201744
0.00555231 	-8.13349e-06 	-0.000183724 	0.201288
0.00555231 	7.4202e-06 	-0.000133114 	0.198211
0.00562963 	-8.31274e-06 	-0.000167513 	0.197665
0.00562963 	6.38428e-06 	-0.000118345 	0.194546
0.00570559 	-8.47306e-06 	-0.000151624 	0.193899
0.00570559 	5.31768e-06 	-0.000104126 	0.190743
0.00578022 	-8.61382e-06 	-0.000136183 	0.189987
0.00578022 	4.22272e-06 	-9.05748e-05 	0.186801
0.00585352 	-8.73429e-06 	-0.000121305 	0.185922
0.00585352 	3.1022e-06 	-7.77947e-05 	0.182715
0.00592554 	-8.83359e-06 	-0.000107091 	0.181697
0.00592554 	1.9594e-06 	-6.58683e-05 	0.178478
0.00599629 	-8.91074e-06 	-9.36292e-05 	0.177306
0.00599629 	7.98148e-07 	-5.48582e-05 	0.174084
0.00606579 	-8.96475e-06 	-8.0992e-05 	0.172738
0.00606579 	-3.77127e-07 	-4.48074e-05 	0.169525
0.00613406 	-8.99458e-06 	-6.92419e-05 	0.167984
0.00613406 	-1.56148e-06 	-3.57409e-05 	0.164787
0.00620114 	-2.74953e-06 	-2.76665e-05 	0.159856
0.00620114 	-8.99897e-06 	-5.84269e-05 	0.163026
0.00626703 	-8.97629e-06 	-4.85835e-05 	0.157847
0.00626703 	-3.9348e-06 	-2.05816e-05 	0.154714
0.00633176 	-5.10879e-06 	-1.44739e-05 	0.149346
0.00633176 	-8.92463e-06 	-3.97406e-05 	0.152431
0.00639535 	-6.26097e-06 	-9.31544e-06 	0.143736
0.00639535 	-8.84211e-06 	-3.191e-05 	0.146763
0.00645783 	-8.72685e-06 	-2.50835e-05 	0.140827
0.00645783 	-7.37909e-06 	-5.06186e-06 	0.137869
0.0065192 	-8.57686e-06 	-1.92374e-05 	0.134605
0.0065192 	-8.44886e-06 	-1.65619e-06 	0.131727
0.00657949 	-8.39012e-06 	-1.43346e-05 	0.128081
0.00657949 	-9.45376e-06 	9.67926e-07 	0.125293
0.00663871 	-8.16493e-06 	-1.03251e-05 	0.121239
0.00663871 	-1.0375e-05 	2.88312e-06 	0.11855
0.0066969 	-7.90009e-06 	-7.13224e-06 	0.114061
0.0066969 	-1.11918e-05 	4.1729e-06 	0.111477
0.00675406 	-1.18821e-05 	4.92563e-06 	0.10404
0.00675406 	-7.59378e-06 	-4.66515e-06 	0.106514
0.00681021 	-1.2421e-05 	5.23067e-06 	0.0962117
0.00681021 	-7.24309e-06 	-2.82477e-06 	0.0985663
0.00686537 	-1.27788e-05 	5.1784e-06 	0.0880089
0.00686537 	-6.84602e-06 	-1.5156e-06 	0.090226
0.00691956 	-1.2925e-05 	4.85654e-06 	0.0794988
0.00691956 	-6.40296e-06 	-6.53725e-07 	0.0815583
0.0069728 	-1.28344e-05 	4.35201e-06 	0.070799
0.0069728 	-5.91696e-06 	-1.465e-07 	0.0726806
0.0070251 	-5.39346e-06 	1.01828e-07 	0.0637607
0.0070251 	-1.24929e-05 	3.74612e-06 	0.062074
0.00707647 	-4.8398e-06 	1.81757e-07 	0.0549981
0.00707647 	-1.19023e-05 	3.10814e-06 	0.0535161
0.00712695 	-4.26469e-06 	1.69714e-07 	0.0465888
0.00712695 	-1.10814e-05 	2.49085e-06 	0.0453122
0.00717653 	-3.67755e-06 	1.20924e-07 	0.0386875
0.00717653 	-1.00621e-05 	1.92793e-06 	0.0376091
0.00722524 	-3.0882e-06 	6.78171e-08 	0.0313857
0.00722524 	-8.88247e-06 	1.43521e-06 	0.0304932
0.00727309 	-7.58066e-06 	1.01659e-06 	0.0239946
0.00727309 	-2.50788e-06 	2.48193e-08 	0.0247151
0.0073201 	-6.19252e-06 	6.71878e-07 	0.0181047
0.0073201 	-1.95239e-06 	-3.31218e-09 	0.0186664
0.00736628 	-4.75405e-06 	3.92699e-07 	0.0127951
0.00736628 	-1.44928e-06 	-2.2431e-08 	0.0132099
0.00741165 	-1.00634e-06 	-2.23739e-08 	0.00830817
0.00741165 	-3.26974e-06 	1.9082e-07 	0.00802981
0.00745622 	-5.55048e-07 	-1.46325e-08 	0.0039235
0.00745622 	-1.69023e-06 	6.19003e-08 	0.00377236
0.0075 	0 	0 	0
0.0075 	0 	0 	0
