0 	0 	0 	0
0 	0 	0 	0
0.00752508 	8.16521e-05 	0.000346572 	-0.304451
0.00752508 	8.16521e-05 	0.000346572 	-0.304451
0.00757525 	-8.35146e-05 	0.000214039 	-0.303176
0.00762542 	-0.000248681 	8.15071e-05 	-0.3019
0.00762542 	-0.000248681 	8.15071e-05 	-0.3019
0.00767559 	-0.000413495 	-5.02584e-05 	-0.300627
0.00772575 	-0.000539597 	-9.8006e-05 	-0.299496
0.00777592 	-0.000665699 	-0.000145754 	-0.298365
0.00782609 	-0.000791802 	-0.000193501 	-0.297234
0.00782609 	-0.000791802 	-0.000193501 	-0.297234
0.00787625 	-0.000848591 	-0.000175411 	-0.29655
0.00792642 	-0.000855104 	-0.000109564 	-0.29619
0.00797659 	-0.000861616 	-4.37172e-05 	-0.29583
0.00802676 	-0.000856217 	1.28269e-05 	-0.295504
0.00802676 	-0.000856217 	1.28269e-05 	-0.295504
0.00807692 	-0.000806154 	3.44875e-05 	-0.295304
0.00812709 	-0.000756091 	5.61482e-05 	-0.295104
0.00812709 	-0.000756091 	5.61482e-05 	-0.295104
0.00817726 	-0.000706028 	7.78089e-05 	-0.294905
0.00822742 	-0.000670534 	0.000117657 	-0.294288
0.00822742 	-0.000670534 	0.000117657 	-0.294288
0.00827759 	-0.000636644 	0.000159507 	-0.293625
0.00832776 	-0.000602754 	0.000201357 	-0.292962
0.00832776 	-0.000602754 	0.000201357 	-0.292962
0.00837793 	-0.000567664 	0.000219396 	-0.29226
0.00842809 	-0.000531925 	0.000224582 	-0.291535
0.00842809 	-0.000531925 	0.000224582 	-0.291535
0.00847826 	-0.000496186 	0.000229769 	-0.290811
0.00847826 	-0.000496186 	0.000229769 	-0.290811
0.00852843 	-0.000441766 	0.000185882 	-0.290351
0.00852843 	-0.000441766 	0.000185882 	-0.290351
0.0085786 	-0.000364999 	8.32944e-05 	-0.290208
0.0085786 	-0.000364999 	8.32944e-05 	-0.290208
0.00862876 	-0.000288232 	-1.92933e-05 	-0.290065
0.00867893 	-0.000206257 	-0.000114645 	-0.290003
0.00867893 	-0.000206257 	-0.000114645 	-0.290003
0.0087291 	-0.000113085 	-0.00019444 	-0.290114
0.00877926 	-1.99137e-05 	-0.000274235 	-0.290226
0.00877926 	-1.99137e-05 	-0.000274235 	-0.290226
0.00882943 	7.03923e-05 	-0.000337381 	-0.290284
0.0088796 	0.000151364 	-0.0003463 	-0.29017
0.0088796 	0.000151364 	-0.0003463 	-0.29017
0.00897993 	0.000310597 	-0.000358307 	-0.289884
0.00897993 	0.000310597 	-0.000358307 	-0.289884
0.0090301 	0.000378451 	-0.000339003 	-0.289492
0.00908027 	0.000446304 	-0.0003197 	-0.2891
0.00908027 	0.000446304 	-0.0003197 	-0.2891
0.00913043 	0.000512566 	-0.00030285 	-0.288677
0.0091806 	0.00057355 	-0.000294137 	-0.288148
0.0091806 	0.00057355 	-0.000294137 	-0.288148
0.00923077 	0.000634534 	-0.000285423 	-0.28762
0.00928094 	0.000693896 	-0.000281665 	-0.28708
0.00928094 	0.000693896 	-0.000281665 	-0.28708
0.0093311 	0.000749636 	-0.000288976 	-0.286515
0.00938127 	0.000805377 	-0.000296288 	-0.28595
0.00938127 	0.000805377 	-0.000296288 	-0.28595
0.00943144 	0.000858099 	-0.000304987 	-0.285378
0.00943144 	0.000858099 	-0.000304987 	-0.285378
0.00948161 	0.000906953 	-0.000315466 	-0.284798
0.00948161 	0.000906953 	-0.000315466 	-0.284798
0.00953177 	0.000955806 	-0.000325946 	-0.284218
0.00953177 	0.000955806 	-0.000325946 	-0.284218
0.00958194 	0.00099924 	-0.000335488 	-0.283628
0.00958194 	0.00099924 	-0.000335488 	-0.283628
0.00963211 	0.00103932 	-0.000344451 	-0.283031
0.00963211 	0.00103932 	-0.000344451 	-0.283031
0.00968227 	0.0010794 	-0.000353414 	-0.282434
0.00968227 	0.0010794 	-0.000353414 	-0.282434
0.00973244 	0.00111182 	-0.000359754 	-0.281824
0.00978261 	0.00114286 	-0.000365619 	-0.281211
0.00983278 	0.00117313 	-0.0003709 	-0.280596
0.00988294 	0.00119802 	-0.000372085 	-0.279969
0.00988294 	0.00119802 	-0.000372085 	-0.279969
0.00993311 	0.00122292 	-0.00037327 	-0.279342
0.00998328 	0.00124685 	-0.000379069 	-0.27871
0.00998328 	0.00124685 	-0.000379069 	-0.27871
0.0100334 	0.00126961 	-0.000390485 	-0.278072
0.0100334 	0.00126961 	-0.000390485 	-0.278072
0.0100836 	0.00129236 	-0.000401901 	-0.277434
0.0101338 	0.00131511 	-0.000407046 	-0.276801
0.0101338 	0.00131511 	-0.000407046 	-0.276801
0.0102341 	0.00135954 	-0.000399327 	-0.275524
0.0102341 	0.00135954 	-0.000399327 	-0.275524
0.0102843 	0.00137796 	-0.000340142 	-0.274845
0.0103344 	0.00139639 	-0.000280956 	-0.274166
0.0103344 	0.00139639 	-0.000280956 	-0.274166
0.0103846 	0.00140187 	-0.000216343 	-0.273263
0.0103846 	0.00140187 	-0.000216343 	-0.273263
0.0104348 	0.00140202 	-0.000149494 	-0.272269
0.0104849 	0.00139482 	-0.000112481 	-0.27113
0.0104849 	0.00139482 	-0.000112481 	-0.27113
0.0105351 	0.00136125 	-0.000182673 	-0.26947
0.0105853 	0.00132768 	-0.000252864 	-0.267809
0.0105853 	0.00132768 	-0.000252864 	-0.267809
0.0106355 	0.00126942 	-0.000449552 	-0.265652
0.0106856 	0.00120382 	-0.000683794 	-0.263347
0.0106856 	0.00120382 	-0.000683794 	-0.263347
0.0107358 	0.00114584 	-0.000863198 	-0.261248
0.0107358 	0.00114584 	-0.000863198 	-0.261248
0.010786 	0.00110097 	-0.000948237 	-0.259504
0.010786 	0.00110097 	-0.000948237 	-0.259504
0.0108361 	0.00105639 	-0.00103177 	-0.257768
0.0108361 	0.00105639 	-0.00103177 	-0.257768
0.0108863 	0.00105548 	-0.000879921 	-0.257323
0.0109365 	0.00105458 	-0.000728067 	-0.256878
0.0109365 	0.00105458 	-0.000728067 	-0.256878
0.0109866 	0.0010497 	-0.000599756 	-0.256682
0.0109866 	0.0010497 	-0.000599756 	-0.256682
0.0110368 	0.00104301 	-0.000482184 	-0.256599
0.011087 	0.0010227 	-0.000376919 	-0.256291
0.011087 	0.0010227 	-0.000376919 	-0.256291
0.0111371 	0.000982637 	-0.000289513 	-0.255655
0.0111873 	0.000938664 	-0.000195259 	-0.254868
0.0111873 	0.000938664 	-0.000195259 	-0.254868
0.0112375 	0.000875514 	-6.74294e-05 	-0.253342
0.0112876 	0.000812364 	6.04001e-05 	-0.251817
0.0112876 	0.000812364 	6.04001e-05 	-0.251817
0.0113378 	0.000755823 	0.000169283 	-0.249702
0.011388 	0.000699484 	0.000277584 	-0.247569
0.011388 	0.000699484 	0.000277584 	-0.247569
0.0114883 	0.000702239 	8.33597e-05 	-0.244113
0.0114883 	0.000702239 	8.33597e-05 	-0.244113
0.0115385 	0.000752472 	-0.000143119 	-0.243026
0.0115886 	0.000822161 	-0.000418602 	-0.242213
0.0115886 	0.000822161 	-0.000418602 	-0.242213
0.0116388 	0.000889214 	-0.00058852 	-0.241517
0.011689 	0.000954529 	-0.000688779 	-0.240901
0.011689 	0.000954529 	-0.000688779 	-0.240901
0.0117391 	0.00100341 	-0.000679072 	-0.240172
0.0117893 	0.00103906 	-0.000580911 	-0.239352
0.0117893 	0.00103906 	-0.000580911 	-0.239352
0.0118395 	0.00106507 	-0.000471003 	-0.238437
0.0118896 	0.00108293 	-0.000351168 	-0.237441
0.0118896 	0.00108293 	-0.000351168 	-0.237441
0.0119398 	0.00109955 	-0.000283502 	-0.236404
0.0119398 	0.00109955 	-0.000283502 	-0.236404
0.01199 	0.00111522 	-0.000255948 	-0.235336
0.01199 	0.00111522 	-0.000255948 	-0.235336
0.0120401 	0.00113227 	-0.000255193 	-0.234248
0.0120401 	0.00113227 	-0.000255193 	-0.234248
0.0120903 	0.00115015 	-0.000270626 	-0.233147
0.0120903 	0.00115015 	-0.000270626 	-0.233147
0.0121405 	0.00116817 	-0.000277629 	-0.232021
0.0121405 	0.00116817 	-0.000277629 	-0.232021
0.0121906 	0.00118625 	-0.000281283 	-0.230885
0.0121906 	0.00118625 	-0.000281283 	-0.230885
0.0122408 	0.00120318 	-0.000281511 	-0.229716
0.0122408 	0.00120318 	-0.000281511 	-0.229716
0.012291 	0.00121988 	-0.000281094 	-0.228539
0.012291 	0.00121988 	-0.000281094 	-0.228539
0.0123411 	0.00123457 	-0.00027993 	-0.22732
0.0123411 	0.00123457 	-0.00027993 	-0.22732
0.0123913 	0.00124887 	-0.000278376 	-0.226091
0.0123913 	0.00124887 	-0.000278376 	-0.226091
0.0124415 	0.00126155 	-0.000275173 	-0.224824
0.0124916 	0.00127353 	-0.000271253 	-0.223534
0.0124916 	0.00127353 	-0.000271253 	-0.223534
0.012592 	0.00129453 	-0.00026155 	-0.220844
0.012592 	0.00129453 	-0.00026155 	-0.220844
0.0126421 	0.00130402 	-0.000256856 	-0.219456
0.0126923 	0.00131196 	-0.000251239 	-0.218003
0.0126923 	0.00131196 	-0.000251239 	-0.218003
0.0127425 	0.00131934 	-0.000245463 	-0.216528
0.0127425 	0.00131934 	-0.000245463 	-0.216528
0.0127926 	0.00132544 	-0.000239378 	-0.215002
0.0128428 	0.00133041 	-0.000233126 	-0.213432
0.0128428 	0.00133041 	-0.000233126 	-0.213432
0.012893 	0.00133466 	-0.00022677 	-0.211834
0.0129431 	0.00133694 	-0.000222142 	-0.210161
0.0129431 	0.00133694 	-0.000222142 	-0.210161
0.0129933 	0.00133816 	-0.000218985 	-0.208453
0.0130435 	0.00133777 	-0.000218077 	-0.206693
0.0130435 	0.00133777 	-0.000218077 	-0.206693
0.0130936 	0.00133414 	-0.000215166 	-0.204853
0.0131438 	0.0013285 	-0.000210697 	-0.202963
0.0131438 	0.0013285 	-0.000210697 	-0.202963
0.013194 	0.00131951 	-0.000203356 	-0.200991
0.0132441 	0.00130748 	-0.000194357 	-0.198921
0.0132441 	0.00130748 	-0.000194357 	-0.198921
0.0132943 	0.00129373 	-0.000185366 	-0.196786
0.0133445 	0.00127792 	-0.000177675 	-0.194559
0.0133445 	0.00127792 	-0.000177675 	-0.194559
0.0133946 	0.00125917 	-0.000175926 	-0.192223
0.0134448 	0.00123715 	-0.000175712 	-0.189804
0.0134448 	0.00123715 	-0.000175712 	-0.189804
0.013495 	0.0012109 	-0.000175866 	-0.187292
0.0135452 	0.00117508 	-0.000171948 	-0.184605
0.0135452 	0.00117508 	-0.000171948 	-0.184605
0.0136455 	0.00108803 	-0.000166036 	-0.17883
0.0136455 	0.00108803 	-0.000166036 	-0.17883
0.0136957 	0.00103947 	-0.000166363 	-0.175683
0.0137458 	0.000993086 	-0.000167338 	-0.172286
0.0137458 	0.000993086 	-0.000167338 	-0.172286
0.013796 	0.000950128 	-0.000166204 	-0.168676
0.0138462 	0.000910649 	-0.00016234 	-0.164838
0.0138462 	0.000910649 	-0.00016234 	-0.164838
0.0138963 	0.000874075 	-0.000155679 	-0.160751
0.0138963 	0.000874075 	-0.000155679 	-0.160751
0.0139465 	0.000837591 	-0.000149334 	-0.156314
0.0139967 	0.000798344 	-0.000144937 	-0.151584
0.0139967 	0.000798344 	-0.000144937 	-0.151584
0.0140468 	0.0007554 	-0.000141594 	-0.146546
0.0140468 	0.0007554 	-0.000141594 	-0.146546
0.014097 	0.000708085 	-0.000138379 	-0.141179
0.0141472 	0.000655979 	-0.000134475 	-0.135463
0.0141973 	0.000598718 	-0.000129613 	-0.12938
0.0141973 	0.000598718 	-0.000129613 	-0.12938
0.0142475 	0.000537146 	-0.000124304 	-0.122863
0.0142977 	0.000476697 	-0.000118974 	-0.115963
0.0143478 	0.000424474 	-0.000113242 	-0.108686
0.0143478 	0.000424474 	-0.000113242 	-0.108686
0.014398 	0.000389658 	-0.00010714 	-0.101052
0.014398 	0.000389658 	-0.00010714 	-0.101052
0.0144482 	0.000381327 	-0.00010071 	-0.0931142
0.0144983 	0.000405798 	-9.368e-05 	-0.0849486
0.0144983 	0.000405798 	-9.368e-05 	-0.0849486
0.0145485 	0.000464191 	-8.56453e-05 	-0.0766503
0.0145987 	0.000550176 	-7.62919e-05 	-0.0683149
0.0145987 	0.000550176 	-7.62919e-05 	-0.0683149
0.0146488 	0.000648051 	-6.53594e-05 	-0.0600158
0.014699 	0.000731526 	-5.27564e-05 	-0.0517822
0.014699 	0.000731526 	-5.27564e-05 	-0.0517822
0.0147492 	0.000761644 	-3.88067e-05 	-0.0435851
0.0147993 	0.00068065 	-2.48067e-05 	-0.0353243
0.0147993 	0.00068065 	-2.48067e-05 	-0.0353243
0.0148495 	0.000398364 	-1.03692e-05 	-0.0267666
0.0148495 	0.000398364 	-1.03692e-05 	-0.0267666
0.0148997 	-7.24936e-05 	-1.40712e-06 	-0.0176896
0.0148997 	-7.24936e-05 	-1.40712e-06 	-0.0176896
0.0149498 	-0.000354013 	1.13253e-06 	-0.0084943
0.0149498 	-0.000354013 	1.13253e-06 	-0.0084943
0.015 	0 	0 	0
