0 	0 	0 	0
0 	4.21225e-38 	-2.65665e-36 	1.86147e-31
5.01672e-05 	-5.63754e-08 	-2.9222e-07 	0.0173626
5.01672e-05 	-5.63754e-08 	-2.9222e-07 	0.0173626
0.000100334 	-5.49071e-07 	-9.69459e-07 	0.0333832
0.000150502 	-1.07929e-06 	-2.08266e-06 	0.0482358
0.000150502 	-1.07929e-06 	-2.08266e-06 	0.0482358
0.000200669 	-1.50396e-06 	-3.62516e-06 	0.0620107
0.000200669 	-1.50396e-06 	-3.62516e-06 	0.0620107
0.000250836 	-1.84807e-06 	-5.59789e-06 	0.0747887
0.000301003 	-2.13692e-06 	-7.98848e-06 	0.0866388
0.000301003 	-2.13692e-06 	-7.98848e-06 	0.0866388
0.000351171 	-2.37936e-06 	-1.07918e-05 	0.097608
0.000401338 	-2.58138e-06 	-1.40119e-05 	0.10772
0.000451505 	-2.74739e-06 	-1.76689e-05 	0.116992
0.000451505 	-2.74739e-06 	-1.76689e-05 	0.116992
0.000501672 	-2.88017e-06 	-2.17964e-05 	0.125451
0.000551839 	-2.98128e-06 	-2.64306e-05 	0.133143
0.000551839 	-2.98128e-06 	-2.64306e-05 	0.133143
0.000602007 	-3.05186e-06 	-3.16003e-05 	0.140128
0.000602007 	-3.05186e-06 	-3.16003e-05 	0.140128
0.000652174 	-3.09319e-06 	-3.73253e-05 	0.146477
0.000652174 	-3.09319e-06 	-3.73253e-05 	0.146477
0.000702341 	-3.10698e-06 	-4.3621e-05 	0.152261
0.000702341 	-3.10698e-06 	-4.3621e-05 	0.152261
0.000752508 	-3.09522e-06 	-5.05015e-05 	0.157549
0.000802676 	-3.05978e-06 	-5.79801e-05 	0.162397
0.000852843 	-2.99951e-06 	-6.61512e-05 	0.166798
0.000852843 	-2.99951e-06 	-6.61512e-05 	0.166798
0.00090301 	-2.92009e-06 	-7.48909e-05 	0.170863
0.00090301 	-2.92009e-06 	-7.48909e-05 	0.170863
0.000953177 	-2.8235e-06 	-8.415e-05 	0.174631
0.00100334 	-2.71154e-06 	-9.38776e-05 	0.178139
0.00100334 	-2.71154e-06 	-9.38776e-05 	0.178139
0.00105351 	-2.58584e-06 	-0.000104025 	0.181418
0.00105351 	-2.58584e-06 	-0.000104025 	0.181418
0.00110368 	-2.44757e-06 	-0.000114556 	0.184492
0.00115385 	-2.29539e-06 	-0.000125512 	0.187337
0.00120401 	-2.13417e-06 	-0.000136743 	0.190032
0.00120401 	-2.13417e-06 	-0.000136743 	0.190032
0.00130435 	-1.78851e-06 	-0.000159892 	0.19503
0.00130435 	-1.78851e-06 	-0.000159892 	0.19503
0.00135452 	-1.60392e-06 	-0.000171797 	0.197326
0.00135452 	-1.60392e-06 	-0.000171797 	0.197326
0.00140468 	-1.41318e-06 	-0.000183855 	0.199512
0.00145485 	-1.2177e-06 	-0.000196014 	0.201615
0.00145485 	-1.2177e-06 	-0.000196014 	0.201615
0.00150502 	-1.01787e-06 	-0.000208258 	0.20364
0.00150502 	-1.01787e-06 	-0.000208258 	0.20364
0.00155518 	-8.11773e-07 	-0.000220582 	0.205558
0.00155518 	-8.11773e-07 	-0.000220582 	0.205558
0.00160535 	-6.02144e-07 	-0.000232922 	0.207415
0.00160535 	-6.02144e-07 	-0.000232922 	0.207415
0.00165552 	-3.89437e-07 	-0.000245264 	0.20922
0.00165552 	-3.89437e-07 	-0.000245264 	0.20922
0.00170569 	-1.7275e-07 	-0.000257575 	0.210954
0.00170569 	-1.7275e-07 	-0.000257575 	0.210954
0.00175585 	4.67989e-08 	-0.000269808 	0.212634
0.00175585 	4.67989e-08 	-0.000269808 	0.212634
0.00180602 	2.68231e-07 	-0.00028197 	0.214276
0.00180602 	2.68231e-07 	-0.00028197 	0.214276
0.00185619 	4.922e-07 	-0.000293998 	0.215864
0.00185619 	4.922e-07 	-0.000293998 	0.215864
0.00190635 	7.18165e-07 	-0.000305855 	0.217408
0.00190635 	7.18165e-07 	-0.000305855 	0.217408
0.00195652 	9.4533e-07 	-0.000317593 	0.218924
0.00195652 	9.4533e-07 	-0.000317593 	0.218924
0.00200669 	1.17443e-06 	-0.000329083 	0.220393
0.00200669 	1.17443e-06 	-0.000329083 	0.220393
0.00205686 	1.40474e-06 	-0.000340357 	0.22183
0.00210702 	1.63584e-06 	-0.000351486 	0.223246
0.00210702 	1.63584e-06 	-0.000351486 	0.223246
0.00215719 	1.86859e-06 	-0.000362206 	0.224612
0.00220736 	2.10186e-06 	-0.000372748 	0.225962
0.00225753 	2.33599e-06 	-0.000383004 	0.227283
0.00225753 	2.33599e-06 	-0.000383004 	0.227283
0.00230769 	2.57095e-06 	-0.000392886 	0.228571
0.00230769 	2.57095e-06 	-0.000392886 	0.228571
0.00235786 	2.80625e-06 	-0.000402605 	0.229847
0.00235786 	2.80625e-06 	-0.000402605 	0.229847
0.00240803 	3.04244e-06 	-0.000411795 	0.231082
0.00240803 	3.04244e-06 	-0.000411795 	0.231082
0.00245819 	3.27887e-06 	-0.000420789 	0.232304
0.00245819 	3.27887e-06 	-0.000420789 	0.232304
0.00250836 	3.51579e-06 	-0.000429388 	0.2335
0.00250836 	3.51579e-06 	-0.000429388 	0.2335
0.00255853 	3.75307e-06 	-0.000437622 	0.234672
0.0026087 	3.99059e-06 	-0.000445598 	0.235828
0.0026087 	3.99059e-06 	-0.000445598 	0.235828
0.00265886 	4.22851e-06 	-0.000453048 	0.236952
0.00270903 	4.46653e-06 	-0.000460374 	0.23807
0.00270903 	4.46653e-06 	-0.000460374 	0.23807
0.0027592 	4.70502e-06 	-0.000467028 	0.239148
0.00280936 	4.94361e-06 	-0.000473572 	0.240221
0.00280936 	4.94361e-06 	-0.000473572 	0.240221
0.00285953 	5.18267e-06 	-0.000479535 	0.241262
0.00285953 	5.18267e-06 	-0.000479535 	0.241262
0.0029097 	5.42193e-06 	-0.000485302 	0.242292
0.0029097 	5.42193e-06 	-0.000485302 	0.242292
0.00295987 	5.66171e-06 	-0.000490572 	0.243295
0.00295987 	5.66171e-06 	-0.000490572 	0.243295
0.00301003 	5.90183e-06 	-0.000495585 	0.244283
0.0030602 	6.1425e-06 	-0.000500173 	0.245248
0.00311037 	6.38361e-06 	-0.000504477 	0.246196
0.00311037 	6.38361e-06 	-0.000504477 	0.246196
0.00316054 	6.62528e-06 	-0.000508413 	0.247124
0.00316054 	6.62528e-06 	-0.000508413 	0.247124
0.00326087 	7.11015e-06 	-0.000515394 	0.248923
0.00326087 	7.11015e-06 	-0.000515394 	0.248923
0.00331104 	7.35336e-06 	-0.00051847 	0.249796
0.0033612 	7.59721e-06 	-0.000521236 	0.250648
0.0033612 	7.59721e-06 	-0.000521236 	0.250648
0.00341137 	7.8417e-06 	-0.000523803 	0.251485
0.00341137 	7.8417e-06 	-0.000523803 	0.251485
0.00346154 	8.08716e-06 	-0.000526067 	0.252299
0.00346154 	8.08716e-06 	-0.000526067 	0.252299
0.00351171 	8.33338e-06 	-0.000528194 	0.253101
0.00356187 	8.58127e-06 	-0.000530018 	0.253878
0.00356187 	8.58127e-06 	-0.000530018 	0.253878
0.00361204 	8.82972e-06 	-0.000531769 	0.254649
0.00366221 	9.08057e-06 	-0.00053321 	0.25539
0.00366221 	9.08057e-06 	-0.00053321 	0.25539
0.00371237 	9.33149e-06 	-0.000534641 	0.256131
0.00371237 	9.33149e-06 	-0.000534641 	0.256131
0.00376254 	9.58503e-06 	-0.000535746 	0.25684
0.00376254 	9.58503e-06 	-0.000535746 	0.25684
0.00381271 	9.83857e-06 	-0.000536851 	0.257549
0.00381271 	9.83857e-06 	-0.000536851 	0.257549
0.00386288 	1.00936e-05 	-0.00053771 	0.258231
0.00391304 	1.0349e-05 	-0.000538519 	0.258908
0.00391304 	1.0349e-05 	-0.000538519 	0.258908
0.00396321 	1.0605e-05 	-0.000539174 	0.259566
0.00401338 	1.08615e-05 	-0.000539723 	0.260211
0.00401338 	1.08615e-05 	-0.000539723 	0.260211
0.00406355 	1.1118e-05 	-0.000540202 	0.260846
0.00406355 	1.1118e-05 	-0.000540202 	0.260846
0.00411371 	1.13748e-05 	-0.000540528 	0.261458
0.00411371 	1.13748e-05 	-0.000540528 	0.261458
0.00421405 	1.18882e-05 	-0.000540994 	0.262652
0.00421405 	1.18882e-05 	-0.000540994 	0.262652
0.00426421 	1.21447e-05 	-0.000541133 	0.263232
0.00426421 	1.21447e-05 	-0.000541133 	0.263232
0.00431438 	1.24007e-05 	-0.000541179 	0.263792
0.00431438 	1.24007e-05 	-0.000541179 	0.263792
0.00436455 	1.26562e-05 	-0.000541169 	0.26434
0.00436455 	1.26562e-05 	-0.000541169 	0.26434
0.00441472 	1.29114e-05 	-0.000541134 	0.26488
0.00441472 	1.29114e-05 	-0.000541134 	0.26488
0.00446488 	1.31652e-05 	-0.000541014 	0.265396
0.00446488 	1.31652e-05 	-0.000541014 	0.265396
0.00451505 	1.34189e-05 	-0.000540893 	0.265911
0.00451505 	1.34189e-05 	-0.000540893 	0.265911
0.00456522 	1.36705e-05 	-0.000540715 	0.266401
0.00456522 	1.36705e-05 	-0.000540715 	0.266401
0.00461538 	1.39215e-05 	-0.00054052 	0.266884
0.00461538 	1.39215e-05 	-0.00054052 	0.266884
0.00466555 	1.41714e-05 	-0.000540315 	0.267357
0.00471572 	1.44186e-05 	-0.000540082 	0.267807
0.00476589 	1.46658e-05 	-0.00053985 	0.268258
0.00476589 	1.46658e-05 	-0.00053985 	0.268258
0.00486622 	1.51515e-05 	-0.000539377 	0.2691
0.00486622 	1.51515e-05 	-0.000539377 	0.2691
0.00491639 	1.53927e-05 	-0.000539144 	0.269512
0.00496656 	1.5629e-05 	-0.000538931 	0.269897
0.00496656 	1.5629e-05 	-0.000538931 	0.269897
0.00501672 	1.58652e-05 	-0.000538719 	0.270281
0.00506689 	1.60975e-05 	-0.000538533 	0.270648
0.00511706 	1.63265e-05 	-0.000538369 	0.271
0.00511706 	1.63265e-05 	-0.000538369 	0.271
0.00521739 	1.67772e-05 	-0.000538102 	0.271676
0.00521739 	1.67772e-05 	-0.000538102 	0.271676
0.00526756 	1.69977e-05 	-0.000538007 	0.271996
0.00526756 	1.69977e-05 	-0.000538007 	0.271996
0.00531773 	1.72167e-05 	-0.000537924 	0.272311
0.00536789 	1.74275e-05 	-0.000537911 	0.272599
0.00536789 	1.74275e-05 	-0.000537911 	0.272599
0.00541806 	1.76382e-05 	-0.000537898 	0.272887
0.00546823 	1.78448e-05 	-0.000537919 	0.273162
0.00551839 	1.80445e-05 	-0.000537996 	0.273419
0.00551839 	1.80445e-05 	-0.000537996 	0.273419
0.00556856 	1.82442e-05 	-0.000538072 	0.273675
0.00556856 	1.82442e-05 	-0.000538072 	0.273675
0.0056689 	1.86243e-05 	-0.000538366 	0.274139
0.0056689 	1.86243e-05 	-0.000538366 	0.274139
0.00571906 	1.88117e-05 	-0.000538533 	0.274364
0.00576923 	1.89894e-05 	-0.000538758 	0.274569
0.00576923 	1.89894e-05 	-0.000538758 	0.274569
0.0058194 	1.91629e-05 	-0.00053901 	0.274764
0.0058194 	1.91629e-05 	-0.00053901 	0.274764
0.00591973 	1.94979e-05 	-0.000539569 	0.275133
0.00591973 	1.94979e-05 	-0.000539569 	0.275133
0.0059699 	1.96557e-05 	-0.000539892 	0.275299
0.0059699 	1.96557e-05 	-0.000539892 	0.275299
0.00602007 	1.98135e-05 	-0.000540216 	0.275465
0.00607023 	1.99574e-05 	-0.000540583 	0.275609
0.0061204 	2.00977e-05 	-0.000540962 	0.275747
0.0061204 	2.00977e-05 	-0.000540962 	0.275747
0.00617057 	2.02379e-05 	-0.00054134 	0.275885
0.00622074 	2.03632e-05 	-0.000541745 	0.276003
0.00622074 	2.03632e-05 	-0.000541745 	0.276003
0.0062709 	2.04839e-05 	-0.000542157 	0.276114
0.00632107 	2.06045e-05 	-0.000542569 	0.276225
0.00632107 	2.06045e-05 	-0.000542569 	0.276225
0.00637124 	2.07104e-05 	-0.00054299 	0.276318
0.00637124 	2.07104e-05 	-0.00054299 	0.276318
0.0064214 	2.08094e-05 	-0.000543415 	0.276403
0.0064214 	2.08094e-05 	-0.000543415 	0.276403
0.00647157 	2.09085e-05 	-0.000543841 	0.276488
0.00647157 	2.09085e-05 	-0.000543841 	0.276488
0.00652174 	2.09944e-05 	-0.000544255 	0.276559
0.00657191 	2.10694e-05 	-0.000544659 	0.276618
0.00657191 	2.10694e-05 	-0.000544659 	0.276618
0.00662207 	2.11445e-05 	-0.000545064 	0.276677
0.00667224 	2.12102e-05 	-0.000545457 	0.276728
0.00672241 	2.12588e-05 	-0.000545832 	0.276762
0.00672241 	2.12588e-05 	-0.000545832 	0.276762
0.00677258 	2.13073e-05 	-0.000546206 	0.276796
0.00682274 	2.1353e-05 	-0.000546577 	0.276828
0.00682274 	2.1353e-05 	-0.000546577 	0.276828
0.00687291 	2.13723e-05 	-0.000546917 	0.276838
0.00687291 	2.13723e-05 	-0.000546917 	0.276838
0.00692308 	2.13916e-05 	-0.000547258 	0.276848
0.00697324 	2.1411e-05 	-0.000547598 	0.276858
0.00702341 	2.14051e-05 	-0.000547884 	0.276848
0.00707358 	2.13924e-05 	-0.000548155 	0.276834
0.00707358 	2.13924e-05 	-0.000548155 	0.276834
0.00717391 	2.13523e-05 	-0.000548677 	0.276794
0.00717391 	2.13523e-05 	-0.000548677 	0.276794
0.00722408 	2.13042e-05 	-0.000548898 	0.276755
0.00722408 	2.13042e-05 	-0.000548898 	0.276755
0.00727425 	2.12561e-05 	-0.00054912 	0.276717
0.00727425 	2.12561e-05 	-0.00054912 	0.276717
0.00732441 	2.1208e-05 	-0.000549342 	0.276678
0.00732441 	2.1208e-05 	-0.000549342 	0.276678
0.00737458 	2.11219e-05 	-0.000549479 	0.276615
0.00737458 	2.11219e-05 	-0.000549479 	0.276615
0.00742475 	2.10355e-05 	-0.000549615 	0.276552
0.00747492 	2.09491e-05 	-0.000549752 	0.276489
0.00752508 	2.08432e-05 	-0.000549822 	0.276414
0.00752508 	2.08432e-05 	-0.000549822 	0.276414
0.00757525 	2.07179e-05 	-0.000549825 	0.276328
0.00762542 	2.05926e-05 	-0.000549828 	0.276241
0.00767559 	2.04669e-05 	-0.000549831 	0.276153
0.00767559 	2.04669e-05 	-0.000549831 	0.276153
0.00772575 	2.03038e-05 	-0.000549727 	0.276042
0.00777592 	2.01406e-05 	-0.000549624 	0.275931
0.00777592 	2.01406e-05 	-0.000549624 	0.275931
0.00782609 	1.99774e-05 	-0.000549521 	0.27582
0.00787625 	1.97949e-05 	-0.000549335 	0.275695
0.00787625 	1.97949e-05 	-0.000549335 	0.275695
0.00792642 	1.95985e-05 	-0.000549088 	0.27556
0.00797659 	1.9402e-05 	-0.000548841 	0.275425
0.00802676 	1.91995e-05 	-0.000548565 	0.275286
0.00802676 	1.91995e-05 	-0.000548565 	0.275286
0.00807692 	1.89745e-05 	-0.000548178 	0.275128
0.00807692 	1.89745e-05 	-0.000548178 	0.275128
0.00812709 	1.87495e-05 	-0.000547792 	0.27497
0.00817726 	1.85244e-05 	-0.000547405 	0.274813
0.00817726 	1.85244e-05 	-0.000547405 	0.274813
0.00822742 	1.82767e-05 	-0.000546921 	0.274634
0.00827759 	1.80264e-05 	-0.000546425 	0.274454
0.00827759 	1.80264e-05 	-0.000546425 	0.274454
0.00832776 	1.77761e-05 	-0.00054593 	0.274273
0.00832776 	1.77761e-05 	-0.00054593 	0.274273
0.00837793 	1.75116e-05 	-0.000545354 	0.274078
0.00842809 	1.72394e-05 	-0.000544735 	0.273874
0.00842809 	1.72394e-05 	-0.000544735 	0.273874
0.00847826 	1.69672e-05 	-0.000544115 	0.273671
0.00847826 	1.69672e-05 	-0.000544115 	0.273671
0.0085786 	1.63954e-05 	-0.000542697 	0.273232
0.0085786 	1.63954e-05 	-0.000542697 	0.273232
0.00862876 	1.61044e-05 	-0.000541955 	0.273006
0.00867893 	1.58084e-05 	-0.000541174 	0.272773
0.0087291 	1.55016e-05 	-0.000540311 	0.272525
0.00877926 	1.51947e-05 	-0.000539447 	0.272276
0.00882943 	1.48848e-05 	-0.000538555 	0.272022
0.0088796 	1.45648e-05 	-0.000537572 	0.271751
0.0088796 	1.45648e-05 	-0.000537572 	0.271751
0.00892977 	1.42448e-05 	-0.000536588 	0.27148
0.00892977 	1.42448e-05 	-0.000536588 	0.27148
0.00897993 	1.39226e-05 	-0.000535579 	0.271205
0.00897993 	1.39226e-05 	-0.000535579 	0.271205
0.0090301 	1.35918e-05 	-0.000534476 	0.270911
0.00908027 	1.32611e-05 	-0.000533373 	0.270617
0.00908027 	1.32611e-05 	-0.000533373 	0.270617
0.00913043 	1.29283e-05 	-0.000532242 	0.270319
0.0091806 	1.2589e-05 	-0.00053102 	0.270002
0.0091806 	1.2589e-05 	-0.00053102 	0.270002
0.00923077 	1.22497e-05 	-0.000529798 	0.269686
0.00928094 	1.19083e-05 	-0.000528539 	0.269362
0.00928094 	1.19083e-05 	-0.000528539 	0.269362
0.0093311 	1.15623e-05 	-0.000527199 	0.269023
0.00938127 	1.12164e-05 	-0.000525858 	0.268683
0.00938127 	1.12164e-05 	-0.000525858 	0.268683
0.00943144 	1.08682e-05 	-0.000524465 	0.268334
0.00943144 	1.08682e-05 	-0.000524465 	0.268334
0.00948161 	1.05173e-05 	-0.000523005 	0.267971
0.00948161 	1.05173e-05 	-0.000523005 	0.267971
0.00953177 	1.01664e-05 	-0.000521545 	0.267608
0.00953177 	1.01664e-05 	-0.000521545 	0.267608
0.00958194 	9.81328e-06 	-0.000520011 	0.267231
0.00958194 	9.81328e-06 	-0.000520011 	0.267231
0.00963211 	9.45887e-06 	-0.000518431 	0.266845
0.00968227 	9.10445e-06 	-0.000516852 	0.266458
0.00968227 	9.10445e-06 	-0.000516852 	0.266458
0.00973244 	8.74819e-06 	-0.000515169 	0.266052
0.00978261 	8.39159e-06 	-0.000513468 	0.265642
0.00978261 	8.39159e-06 	-0.000513468 	0.265642
0.00983278 	8.03486e-06 	-0.000511751 	0.265228
0.00983278 	8.03486e-06 	-0.000511751 	0.265228
0.00988294 	7.67721e-06 	-0.000509926 	0.264794
0.00993311 	7.31956e-06 	-0.0005081 	0.264359
0.00993311 	7.31956e-06 	-0.0005081 	0.264359
0.00998328 	6.96189e-06 	-0.000506217 	0.263913
0.0100334 	6.60418e-06 	-0.000504264 	0.263453
0.0100836 	6.24647e-06 	-0.00050231 	0.262994
0.0100836 	6.24647e-06 	-0.00050231 	0.262994
0.0101338 	5.88944e-06 	-0.000500248 	0.262513
0.0101839 	5.53255e-06 	-0.000498163 	0.262028
0.0101839 	5.53255e-06 	-0.000498163 	0.262028
0.0102341 	5.17605e-06 	-0.000496044 	0.261536
0.0102341 	5.17605e-06 	-0.000496044 	0.261536
0.0102843 	4.82075e-06 	-0.000493822 	0.261025
0.0103344 	4.46545e-06 	-0.000491599 	0.260514
0.0103344 	4.46545e-06 	-0.000491599 	0.260514
0.0103846 	4.11177e-06 	-0.000489276 	0.259983
0.0103846 	4.11177e-06 	-0.000489276 	0.259983
0.0104348 	3.75875e-06 	-0.00048691 	0.259445
0.0104348 	3.75875e-06 	-0.00048691 	0.259445
0.0104849 	3.40636e-06 	-0.000484512 	0.258901
0.0104849 	3.40636e-06 	-0.000484512 	0.258901
0.0105351 	3.05625e-06 	-0.000481997 	0.258335
0.0105853 	2.70613e-06 	-0.000479483 	0.257769
0.0105853 	2.70613e-06 	-0.000479483 	0.257769
0.0106856 	2.01204e-06 	-0.000474175 	0.256586
0.0106856 	2.01204e-06 	-0.000474175 	0.256586
0.0107358 	1.66685e-06 	-0.000471443 	0.255981
0.010786 	1.32416e-06 	-0.000468608 	0.255357
0.010786 	1.32416e-06 	-0.000468608 	0.255357
0.0108361 	9.81494e-07 	-0.000465771 	0.254732
0.0108863 	6.43199e-07 	-0.000462764 	0.254077
0.0108863 	6.43199e-07 	-0.000462764 	0.254077
0.0109365 	3.04903e-07 	-0.000459757 	0.253422
0.0109365 	3.04903e-07 	-0.000459757 	0.253422
0.0109866 	-3.00861e-08 	-0.000456626 	0.252745
0.0110368 	-3.63567e-07 	-0.000453439 	0.252058
0.0110368 	-3.63567e-07 	-0.000453439 	0.252058
0.011087 	-6.94906e-07 	-0.000450175 	0.251357
0.011087 	-6.94906e-07 	-0.000450175 	0.251357
0.0111371 	-1.02314e-06 	-0.000446797 	0.250636
0.0111873 	-1.3504e-06 	-0.000443385 	0.24991
0.0111873 	-1.3504e-06 	-0.000443385 	0.24991
0.0112375 	-1.67291e-06 	-0.000439802 	0.249154
0.0112876 	-1.99543e-06 	-0.000436218 	0.248399
0.0112876 	-1.99543e-06 	-0.000436218 	0.248399
0.0113378 	-2.312e-06 	-0.000432417 	0.247608
0.0113378 	-2.312e-06 	-0.000432417 	0.247608
0.011388 	-2.62839e-06 	-0.000428609 	0.246816
0.0114381 	-2.93964e-06 	-0.000424596 	0.245991
0.0114381 	-2.93964e-06 	-0.000424596 	0.245991
0.0114883 	-3.24968e-06 	-0.000420533 	0.245159
0.0115385 	-3.55516e-06 	-0.000416268 	0.244297
0.0115385 	-3.55516e-06 	-0.000416268 	0.244297
0.0115886 	-3.85857e-06 	-0.00041191 	0.243421
0.0116388 	-4.15784e-06 	-0.000407346 	0.242516
0.0116388 	-4.15784e-06 	-0.000407346 	0.242516
0.011689 	-4.45437e-06 	-0.000402646 	0.241593
0.0117391 	-4.74717e-06 	-0.000397729 	0.24064
0.0117893 	-5.03696e-06 	-0.000392636 	0.239664
0.0118395 	-5.32335e-06 	-0.000387308 	0.238656
0.0118395 	-5.32335e-06 	-0.000387308 	0.238656
0.0118896 	-5.60686e-06 	-0.00038178 	0.237622
0.0119398 	-5.88701e-06 	-0.000375992 	0.236553
0.0119398 	-5.88701e-06 	-0.000375992 	0.236553
0.01199 	-6.16458e-06 	-0.000370003 	0.235456
0.0120401 	-6.43848e-06 	-0.000363718 	0.234318
0.0120401 	-6.43848e-06 	-0.000363718 	0.234318
0.0120903 	-6.71017e-06 	-0.000357253 	0.233154
0.0120903 	-6.71017e-06 	-0.000357253 	0.233154
0.0121906 	-7.24309e-06 	-0.0003435 	0.230704
0.0121906 	-7.24309e-06 	-0.0003435 	0.230704
0.0122408 	-7.50325e-06 	-0.000336148 	0.229404
0.012291 	-7.76239e-06 	-0.000328719 	0.228092
0.012291 	-7.76239e-06 	-0.000328719 	0.228092
0.0123411 	-8.01466e-06 	-0.000320809 	0.226699
0.0123913 	-8.26551e-06 	-0.000312808 	0.225289
0.0123913 	-8.26551e-06 	-0.000312808 	0.225289
0.0124415 	-8.51042e-06 	-0.000304423 	0.223809
0.0124415 	-8.51042e-06 	-0.000304423 	0.223809
0.0124916 	-8.75206e-06 	-0.000295847 	0.222292
0.0124916 	-8.75206e-06 	-0.000295847 	0.222292
0.0125418 	-8.98907e-06 	-0.000287004 	0.220721
0.012592 	-9.22037e-06 	-0.00027787 	0.219086
0.0126421 	-9.44885e-06 	-0.000268593 	0.217419
0.0126421 	-9.44885e-06 	-0.000268593 	0.217419
0.0126923 	-9.66848e-06 	-0.000258937 	0.215655
0.0127425 	-9.88497e-06 	-0.00024917 	0.213858
0.0127425 	-9.88497e-06 	-0.00024917 	0.213858
0.0127926 	-1.00941e-05 	-0.00023915 	0.211983
0.0128428 	-1.02964e-05 	-0.000228953 	0.21004
0.0128428 	-1.02964e-05 	-0.000228953 	0.21004
0.0129431 	-1.06806e-05 	-0.000208128 	0.205951
0.0129431 	-1.06806e-05 	-0.000208128 	0.205951
0.0129933 	-1.08614e-05 	-0.000197555 	0.203799
0.0130435 	-1.10342e-05 	-0.0001869 	0.201573
0.0130435 	-1.10342e-05 	-0.0001869 	0.201573
0.0131438 	-1.13487e-05 	-0.000165511 	0.196848
0.0131438 	-1.13487e-05 	-0.000165511 	0.196848
0.013194 	-1.1491e-05 	-0.000154847 	0.194357
0.0132441 	-1.16199e-05 	-0.000144281 	0.191756
0.0132441 	-1.16199e-05 	-0.000144281 	0.191756
0.0132943 	-1.17394e-05 	-0.000133805 	0.189079
0.0133445 	-1.18452e-05 	-0.000123483 	0.186294
0.0133445 	-1.18452e-05 	-0.000123483 	0.186294
0.0133946 	-1.1934e-05 	-0.000113404 	0.183377
0.0133946 	-1.1934e-05 	-0.000113404 	0.183377
0.0134448 	-1.20102e-05 	-0.000103521 	0.180366
0.0134448 	-1.20102e-05 	-0.000103521 	0.180366
0.013495 	-1.20725e-05 	-9.38668e-05 	0.177249
0.0135452 	-1.21105e-05 	-8.46421e-05 	0.173955
0.0135452 	-1.21105e-05 	-8.46421e-05 	0.173955
0.0135953 	-1.21318e-05 	-7.57257e-05 	0.17054
0.0135953 	-1.21318e-05 	-7.57257e-05 	0.17054
0.0136455 	-1.21351e-05 	-6.71442e-05 	0.166995
0.0136455 	-1.21351e-05 	-6.71442e-05 	0.166995
0.0136957 	-1.21155e-05 	-5.89955e-05 	0.163285
0.0136957 	-1.21155e-05 	-5.89955e-05 	0.163285
0.0137458 	-1.20673e-05 	-5.13907e-05 	0.159366
0.013796 	-1.19954e-05 	-4.42318e-05 	0.155275
0.013796 	-1.19954e-05 	-4.42318e-05 	0.155275
0.0138462 	-1.18981e-05 	-3.75486e-05 	0.150998
0.0138462 	-1.18981e-05 	-3.75486e-05 	0.150998
0.0138963 	-1.17733e-05 	-3.13711e-05 	0.146521
0.0139465 	-1.16089e-05 	-2.58882e-05 	0.141754
0.0139465 	-1.16089e-05 	-2.58882e-05 	0.141754
0.0139967 	-1.14109e-05 	-2.09578e-05 	0.136741
0.0139967 	-1.14109e-05 	-2.09578e-05 	0.136741
0.0140468 	-1.11776e-05 	-1.65788e-05 	0.131469
0.0140468 	-1.11776e-05 	-1.65788e-05 	0.131469
0.014097 	-1.09061e-05 	-1.27589e-05 	0.125915
0.0141472 	-1.05935e-05 	-9.49788e-06 	0.120056
0.0141472 	-1.05935e-05 	-9.49788e-06 	0.120056
0.0141973 	-1.02362e-05 	-6.78072e-06 	0.113867
0.0142475 	-9.8225e-06 	-4.64835e-06 	0.107247
0.0142977 	-9.35687e-06 	-2.97012e-06 	0.100213
0.0142977 	-9.35687e-06 	-2.97012e-06 	0.100213
0.0143478 	-8.83923e-06 	-1.70112e-06 	0.0927576
0.014398 	-8.27162e-06 	-8.01232e-07 	0.084899
0.014398 	-8.27162e-06 	-8.01232e-07 	0.084899
0.0144482 	-7.65869e-06 	-2.20565e-07 	0.0766965
0.0144983 	-7.00796e-06 	1.01767e-07 	0.0682545
0.0144983 	-7.00796e-06 	1.01767e-07 	0.0682545
0.0145485 	-6.32956e-06 	2.33657e-07 	0.0597223
0.0145485 	-6.32956e-06 	2.33657e-07 	0.0597223
0.0145987 	-5.63487e-06 	2.43572e-07 	0.0512785
0.0146488 	-4.93425e-06 	1.92203e-07 	0.0431018
0.014699 	-4.23459e-06 	1.2506e-07 	0.0353382
0.014699 	-4.23459e-06 	1.2506e-07 	0.0353382
0.0147492 	-3.53727e-06 	6.95593e-08 	0.0280813
0.0147993 	-2.83524e-06 	3.61685e-08 	0.0213749
0.0147993 	-2.83524e-06 	3.61685e-08 	0.0213749
0.0148495 	-2.10485e-06 	2.51019e-08 	0.0152288
0.0148495 	-2.10485e-06 	2.51019e-08 	0.0152288
0.0148997 	-1.32802e-06 	2.13421e-08 	0.00963432
0.0148997 	-1.32802e-06 	2.13421e-08 	0.00963432
0.0149498 	-5.77755e-07 	1.56671e-08 	0.00457231
0.0149498 	-5.77755e-07 	1.56671e-08 	0.00457231
0.015 	0 	0 	0
0.015 	0 	0 	0
