/*--------------------------------*- C++ -*----------------------------------*\
| =========                 |                                                 |
| \\      /  F ield         | OpenFOAM: The Open Source CFD Toolbox           |
|  \\    /   O peration     | Version:  v1912                                 |
|   \\  /    A nd           | Website:  www.openfoam.com                      |
|    \\/     M anipulation  |                                                 |
\*---------------------------------------------------------------------------*/
FoamFile
{
    version     2.0;
    format      ascii;
    class       volScalarField;
    location    "198.8";
    object      T;
}
// * * * * * * * * * * * * * * * * * * * * * * * * * * * * * * * * * * * * * //

dimensions      [0 0 0 1 0 0 0];


internalField   nonuniform List<scalar> 
40448
(
372.86
370.938
371.362
371.534
371.512
371.52
371.518
371.516
371.514
371.516
371.519
371.521
371.513
371.534
371.363
370.938
372.431
366.865
368.115
368.613
368.55
368.574
368.566
368.56
368.556
368.562
368.569
368.577
368.554
368.616
368.117
366.863
371.72
363.046
364.975
365.758
365.661
365.698
365.686
365.675
365.67
365.678
365.691
365.703
365.666
365.762
364.977
363.044
370.728
359.786
362.112
363.092
362.975
363.023
363.009
362.994
362.989
362.999
363.015
363.029
362.981
363.097
362.115
359.783
369.449
357.32
359.716
360.765
360.648
360.707
360.694
360.679
360.674
360.684
360.7
360.714
360.654
360.77
359.718
357.316
367.814
355.697
357.892
358.917
358.816
358.884
358.875
358.865
358.861
358.869
358.881
358.889
358.82
358.921
357.893
355.691
365.877
354.739
356.581
357.572
357.491
357.574
357.573
357.572
357.568
357.575
357.577
357.578
357.493
357.574
356.58
354.731
363.988
354.162
355.627
356.62
356.553
356.659
356.666
356.676
356.672
356.678
356.669
356.661
356.553
356.62
355.624
354.151
362.437
353.75
354.889
355.916
355.858
355.99
356.005
356.025
356.021
356.027
356.005
355.99
355.855
355.913
354.885
353.737
361.247
353.4
354.279
355.356
355.302
355.462
355.483
355.514
355.509
355.515
355.482
355.459
355.297
355.351
354.274
353.386
360.323
353.074
353.733
354.879
354.826
355.012
355.039
355.08
355.075
355.08
355.037
355.007
354.818
354.872
353.727
353.058
359.569
352.748
353.218
354.441
354.387
354.602
354.636
354.688
354.681
354.686
354.632
354.596
354.377
354.432
353.211
352.731
358.92
352.414
352.729
354.015
353.957
354.204
354.244
354.306
354.298
354.303
354.238
354.195
353.945
354.004
352.722
352.396
358.337
352.077
352.268
353.59
353.528
353.803
353.848
353.92
353.911
353.917
353.841
353.792
353.514
353.578
352.261
352.06
357.784
351.745
351.838
353.168
353.103
353.401
353.451
353.531
353.522
353.527
353.442
353.389
353.088
353.155
351.83
351.727
357.234
351.422
351.44
352.752
352.685
353
353.054
353.141
353.131
353.137
353.045
352.987
352.668
352.737
351.432
351.405
356.682
351.114
351.074
352.344
352.276
352.604
352.662
352.754
352.744
352.749
352.651
352.59
352.259
352.328
351.066
351.097
356.129
350.824
350.742
351.949
351.882
352.217
352.278
352.373
352.363
352.368
352.266
352.202
351.864
351.933
350.734
350.807
355.581
350.553
350.441
351.572
351.506
351.844
351.906
352.004
351.994
351.999
351.894
351.828
351.487
351.555
350.433
350.537
355.046
350.304
350.172
351.218
351.153
351.491
351.554
351.652
351.642
351.647
351.541
351.474
351.134
351.201
350.164
350.289
354.53
350.077
349.933
350.89
350.828
351.161
351.224
351.321
351.311
351.315
351.21
351.145
350.809
350.873
349.925
350.062
354.038
349.872
349.721
350.591
350.531
350.855
350.916
351.01
351.001
351.004
350.903
350.838
350.513
350.574
349.713
349.858
353.569
349.688
349.534
350.316
350.261
350.57
350.628
350.719
350.71
350.714
350.615
350.553
350.243
350.3
349.527
349.675
353.123
349.525
349.37
350.064
350.014
350.305
350.361
350.448
350.44
350.443
350.348
350.289
349.997
350.048
349.363
349.513
352.699
349.38
349.226
349.833
349.788
350.06
350.113
350.196
350.188
350.191
350.1
350.043
349.771
349.818
349.219
349.369
352.297
349.251
349.1
349.622
349.582
349.832
349.881
349.961
349.953
349.956
349.869
349.816
349.567
349.608
349.093
349.24
351.917
349.135
348.989
349.43
349.396
349.62
349.666
349.741
349.734
349.736
349.654
349.605
349.381
349.417
348.982
349.125
351.559
349.032
348.891
349.255
349.227
349.424
349.466
349.536
349.528
349.53
349.455
349.41
349.213
349.243
348.884
349.022
351.224
348.94
348.804
349.097
349.074
349.243
349.28
349.344
349.337
349.338
349.27
349.23
349.062
349.086
348.797
348.931
350.913
348.858
348.726
348.955
348.937
349.077
349.109
349.166
349.16
349.161
349.099
349.064
348.926
348.945
348.72
348.85
350.626
348.786
348.656
348.828
348.815
348.926
348.953
349.002
348.997
348.997
348.944
348.914
348.805
348.819
348.649
348.778
350.364
348.721
348.591
348.715
348.706
348.79
348.812
348.854
348.85
348.85
348.804
348.78
348.697
348.707
348.585
348.714
350.126
348.664
348.533
348.615
348.609
348.67
348.688
348.722
348.719
348.718
348.681
348.661
348.601
348.608
348.527
348.657
349.912
348.613
348.479
348.528
348.524
348.565
348.579
348.607
348.604
348.603
348.573
348.556
348.516
348.521
348.473
348.606
349.724
348.567
348.429
348.45
348.449
348.473
348.484
348.507
348.504
348.503
348.479
348.466
348.442
348.444
348.423
348.56
349.562
348.526
348.384
348.382
348.382
348.394
348.403
348.42
348.419
348.417
348.397
348.387
348.375
348.376
348.377
348.519
349.425
348.488
348.341
348.322
348.323
348.326
348.333
348.346
348.345
348.343
348.328
348.319
348.316
348.316
348.335
348.481
349.31
348.453
348.301
348.269
348.27
348.266
348.272
348.282
348.282
348.279
348.267
348.26
348.264
348.263
348.294
348.446
349.211
348.42
348.262
348.221
348.222
348.215
348.22
348.228
348.228
348.225
348.215
348.208
348.216
348.216
348.256
348.414
349.125
348.388
348.225
348.178
348.179
348.169
348.174
348.181
348.181
348.178
348.17
348.163
348.173
348.173
348.219
348.382
349.051
348.358
348.189
348.139
348.14
348.129
348.134
348.14
348.14
348.137
348.13
348.123
348.134
348.134
348.183
348.352
348.985
348.329
348.154
348.103
348.104
348.093
348.098
348.103
348.104
348.1
348.094
348.086
348.097
348.098
348.148
348.323
348.928
348.3
348.119
348.069
348.069
348.059
348.065
348.069
348.07
348.067
348.06
348.052
348.063
348.063
348.113
348.294
348.876
348.272
348.086
348.036
348.035
348.026
348.032
348.037
348.038
348.034
348.028
348.02
348.029
348.03
348.08
348.266
348.829
348.243
348.053
348.004
348.002
347.994
348.001
348.006
348.008
348.004
347.996
347.988
347.996
347.998
348.047
348.238
348.785
348.215
348.02
347.972
347.97
347.963
347.971
347.976
347.977
347.973
347.966
347.957
347.963
347.966
348.014
348.21
348.742
348.187
347.988
347.94
347.937
347.932
347.94
347.946
347.948
347.943
347.935
347.926
347.93
347.934
347.982
348.181
348.7
348.158
347.956
347.909
347.905
347.902
347.91
347.916
347.918
347.914
347.905
347.895
347.898
347.902
347.95
348.153
348.655
348.13
347.924
347.877
347.872
347.87
347.879
347.886
347.888
347.883
347.874
347.864
347.865
347.87
347.918
348.124
348.609
348.101
347.892
347.845
347.839
347.839
347.849
347.856
347.857
347.853
347.843
347.832
347.832
347.838
347.886
348.095
348.561
348.071
347.86
347.812
347.805
347.807
347.817
347.825
347.827
347.822
347.812
347.8
347.798
347.805
347.854
348.066
348.511
348.041
347.828
347.779
347.771
347.775
347.785
347.794
347.795
347.791
347.78
347.768
347.764
347.772
347.822
348.036
348.46
348.01
347.796
347.745
347.737
347.742
347.753
347.762
347.763
347.759
347.747
347.735
347.729
347.738
347.789
348.005
348.408
347.979
347.763
347.711
347.702
347.708
347.72
347.729
347.731
347.726
347.714
347.701
347.694
347.704
347.757
347.974
348.356
347.948
347.73
347.676
347.666
347.674
347.686
347.696
347.697
347.693
347.68
347.667
347.659
347.669
347.724
347.943
348.304
347.916
347.697
347.64
347.63
347.639
347.651
347.662
347.663
347.659
347.646
347.632
347.623
347.633
347.69
347.911
348.251
347.883
347.663
347.605
347.594
347.603
347.616
347.627
347.628
347.624
347.611
347.596
347.586
347.597
347.657
347.879
348.198
347.85
347.629
347.568
347.557
347.567
347.58
347.591
347.593
347.588
347.574
347.56
347.549
347.561
347.623
347.846
348.146
347.817
347.594
347.531
347.519
347.53
347.543
347.555
347.556
347.552
347.538
347.523
347.511
347.524
347.588
347.812
348.094
347.783
347.56
347.494
347.48
347.492
347.506
347.517
347.519
347.514
347.5
347.485
347.473
347.486
347.553
347.778
348.044
347.748
347.525
347.455
347.441
347.453
347.467
347.479
347.481
347.476
347.462
347.446
347.434
347.448
347.518
347.744
347.994
347.714
347.489
347.417
347.402
347.414
347.428
347.44
347.442
347.437
347.422
347.407
347.394
347.41
347.483
347.709
347.945
347.678
347.453
347.378
347.362
347.374
347.388
347.401
347.402
347.398
347.383
347.367
347.354
347.371
347.447
347.674
347.897
347.642
347.417
347.338
347.321
347.333
347.347
347.36
347.362
347.357
347.342
347.326
347.313
347.331
347.411
347.638
347.849
347.606
347.38
347.298
347.28
347.291
347.306
347.319
347.321
347.316
347.3
347.284
347.272
347.291
347.374
347.601
347.802
347.568
347.343
347.257
347.238
347.249
347.264
347.276
347.278
347.273
347.258
347.242
347.23
347.25
347.337
347.564
347.754
347.531
347.305
347.216
347.195
347.206
347.22
347.233
347.235
347.23
347.215
347.199
347.187
347.209
347.299
347.527
347.707
347.492
347.267
347.175
347.152
347.162
347.176
347.189
347.191
347.186
347.171
347.155
347.144
347.168
347.261
347.488
347.661
347.454
347.229
347.132
347.108
347.118
347.132
347.145
347.147
347.142
347.126
347.111
347.101
347.125
347.223
347.449
347.614
347.414
347.189
347.09
347.064
347.073
347.086
347.099
347.101
347.096
347.081
347.066
347.056
347.083
347.183
347.41
347.567
347.373
347.15
347.047
347.019
347.027
347.04
347.053
347.055
347.05
347.035
347.02
347.012
347.04
347.144
347.369
347.519
347.332
347.109
347.003
346.974
346.98
346.993
347.005
347.007
347.003
346.988
346.974
346.966
346.996
347.103
347.328
347.472
347.29
347.068
346.959
346.928
346.933
346.945
346.958
346.959
346.955
346.94
346.927
346.921
346.952
347.062
347.286
347.424
347.247
347.026
346.914
346.881
346.885
346.897
346.909
346.911
346.906
346.892
346.879
346.874
346.908
347.021
347.243
347.376
347.203
346.984
346.869
346.834
346.837
346.848
346.859
346.861
346.857
346.843
346.83
346.827
346.863
346.978
347.2
347.327
347.158
346.94
346.824
346.786
346.788
346.798
346.809
346.811
346.807
346.793
346.781
346.78
346.817
346.935
347.155
347.277
347.112
346.896
346.777
346.738
346.738
346.748
346.758
346.76
346.756
346.743
346.732
346.731
346.771
346.89
347.109
347.226
347.065
346.85
346.73
346.689
346.687
346.696
346.707
346.708
346.704
346.692
346.681
346.682
346.724
346.845
347.061
347.175
347.017
346.804
346.682
346.639
346.636
346.644
346.654
346.656
346.651
346.64
346.63
346.633
346.676
346.799
347.013
370.557
370.993
371.459
371.361
371.301
371.264
371.244
371.229
371.227
371.229
371.244
371.264
371.301
371.36
371.458
370.993
365.741
367.009
368.387
368.096
367.922
367.813
367.754
367.71
367.703
367.709
367.752
367.811
367.92
368.095
368.386
367.01
361.293
363.18
365.369
364.906
364.632
364.461
364.368
364.298
364.288
364.298
364.365
364.457
364.63
364.904
365.367
363.181
357.82
359.799
362.553
361.98
361.646
361.436
361.323
361.238
361.226
361.237
361.319
361.431
361.642
361.977
362.551
359.8
355.714
357.185
360.151
359.577
359.233
359.025
358.911
358.828
358.816
358.826
358.907
359.019
359.228
359.572
360.148
357.187
354.664
355.469
358.33
357.86
357.546
357.375
357.274
357.205
357.193
357.203
357.269
357.367
357.538
357.854
358.326
355.47
354.125
354.47
357.075
356.747
356.473
356.347
356.264
356.212
356.201
356.209
356.258
356.339
356.464
356.739
357.07
354.47
353.798
353.888
356.221
356.023
355.783
355.696
355.628
355.589
355.578
355.585
355.621
355.686
355.773
356.014
356.215
353.887
353.567
353.508
355.609
355.516
355.302
355.245
355.188
355.159
355.149
355.156
355.18
355.234
355.29
355.506
355.603
353.505
353.382
353.222
355.136
355.128
354.933
354.9
354.852
354.831
354.821
354.827
354.843
354.889
354.92
355.117
355.13
353.219
353.222
352.982
354.744
354.806
354.625
354.613
354.572
354.559
354.548
354.554
354.563
354.601
354.612
354.795
354.737
352.979
353.076
352.766
354.4
354.523
354.353
354.359
354.324
354.317
354.306
354.312
354.314
354.346
354.338
354.511
354.393
352.762
352.937
352.562
354.088
354.262
354.1
354.123
354.093
354.092
354.082
354.087
354.083
354.109
354.085
354.249
354.081
352.558
352.801
352.365
353.797
354.013
353.859
353.896
353.872
353.875
353.865
353.87
353.861
353.882
353.843
353.999
353.789
352.36
352.665
352.172
353.519
353.771
353.623
353.675
353.655
353.664
353.654
353.658
353.644
353.66
353.607
353.757
353.512
352.166
352.528
351.978
353.25
353.534
353.392
353.456
353.441
353.453
353.443
353.448
353.429
353.44
353.375
353.519
353.242
351.973
352.387
351.785
352.986
353.299
353.162
353.237
353.226
353.243
353.233
353.237
353.214
353.222
353.145
353.284
352.978
351.779
352.243
351.593
352.729
353.067
352.933
353.02
353.012
353.033
353.023
353.027
352.999
353.003
352.916
353.052
352.721
351.586
352.095
351.403
352.481
352.835
352.704
352.801
352.798
352.822
352.812
352.816
352.784
352.784
352.686
352.819
352.473
351.397
351.943
351.218
352.243
352.601
352.474
352.581
352.581
352.61
352.6
352.603
352.568
352.564
352.455
352.585
352.235
351.212
351.787
351.039
352.015
352.369
352.245
352.36
352.363
352.395
352.385
352.388
352.349
352.342
352.226
352.353
352.007
351.033
351.627
350.867
351.8
352.14
352.02
352.138
352.144
352.178
352.168
352.172
352.13
352.121
352.001
352.123
351.792
350.861
351.464
350.702
351.596
351.915
351.8
351.92
351.926
351.963
351.953
351.956
351.912
351.902
351.781
351.899
351.588
350.697
351.298
350.546
351.405
351.698
351.587
351.705
351.713
351.75
351.74
351.743
351.698
351.687
351.568
351.682
351.397
350.541
351.132
350.398
351.225
351.489
351.383
351.497
351.504
351.542
351.532
351.535
351.49
351.479
351.364
351.473
351.217
350.393
350.965
350.258
351.056
351.288
351.187
351.295
351.303
351.34
351.33
351.333
351.289
351.277
351.169
351.273
351.049
350.253
350.799
350.126
350.899
351.098
351.002
351.102
351.109
351.145
351.135
351.138
351.095
351.085
350.984
351.082
350.891
350.122
350.635
350.002
350.751
350.917
350.826
350.918
350.924
350.958
350.949
350.951
350.911
350.901
350.809
350.903
350.744
349.998
350.474
349.885
350.613
350.748
350.661
350.744
350.748
350.78
350.771
350.773
350.735
350.727
350.645
350.733
350.606
349.881
350.317
349.775
350.483
350.588
350.506
350.579
350.582
350.611
350.603
350.605
350.569
350.563
350.491
350.575
350.476
349.771
350.165
349.672
350.361
350.439
350.362
350.423
350.424
350.451
350.442
350.444
350.412
350.407
350.346
350.426
350.354
349.668
350.018
349.575
350.246
350.299
350.226
350.276
350.275
350.298
350.29
350.291
350.262
350.26
350.211
350.286
350.239
349.571
349.876
349.484
350.137
350.168
350.098
350.136
350.133
350.152
350.144
350.146
350.121
350.122
350.084
350.155
350.13
349.481
349.742
349.399
350.034
350.044
349.979
350.004
349.998
350.013
350.006
350.007
349.987
349.99
349.965
350.032
350.027
349.395
349.613
349.318
349.935
349.927
349.866
349.879
349.871
349.882
349.875
349.876
349.86
349.866
349.853
349.916
349.928
349.315
349.491
349.242
349.841
349.818
349.76
349.762
349.751
349.758
349.752
349.752
349.741
349.749
349.747
349.807
349.834
349.238
349.375
349.169
349.75
349.714
349.659
349.651
349.638
349.641
349.635
349.636
349.628
349.639
349.647
349.703
349.743
349.166
349.265
349.1
349.662
349.616
349.565
349.548
349.532
349.533
349.527
349.527
349.523
349.536
349.553
349.606
349.656
349.097
349.161
349.035
349.577
349.524
349.475
349.451
349.434
349.431
349.426
349.426
349.425
349.439
349.464
349.514
349.571
349.031
349.062
348.971
349.494
349.436
349.39
349.36
349.342
349.337
349.332
349.332
349.333
349.349
349.379
349.427
349.488
348.968
348.968
348.911
349.414
349.353
349.31
349.275
349.256
349.249
349.244
349.244
349.248
349.264
349.299
349.344
349.408
348.907
348.879
348.852
349.335
349.274
349.233
349.195
349.176
349.167
349.162
349.162
349.167
349.184
349.222
349.265
349.329
348.848
348.793
348.794
349.258
349.199
349.16
349.12
349.1
349.09
349.086
349.085
349.092
349.109
349.149
349.19
349.252
348.791
348.712
348.737
349.182
349.126
349.089
349.048
349.028
349.017
349.013
349.013
349.02
349.037
349.079
349.117
349.176
348.734
348.634
348.681
349.108
349.056
349.021
348.979
348.959
348.948
348.944
348.944
348.951
348.969
349.01
349.047
349.102
348.678
348.56
348.626
349.036
348.987
348.954
348.914
348.894
348.883
348.878
348.878
348.886
348.903
348.944
348.979
349.029
348.623
348.489
348.571
348.964
348.921
348.89
348.85
348.831
348.819
348.815
348.814
348.823
348.84
348.88
348.912
348.958
348.568
348.42
348.517
348.893
348.856
348.827
348.788
348.769
348.757
348.752
348.752
348.761
348.778
348.817
348.847
348.887
348.513
348.354
348.463
348.824
348.792
348.765
348.728
348.708
348.695
348.691
348.691
348.7
348.718
348.755
348.784
348.817
348.459
348.29
348.409
348.755
348.73
348.705
348.668
348.648
348.635
348.631
348.631
348.64
348.658
348.695
348.722
348.749
348.406
348.227
348.355
348.687
348.67
348.646
348.609
348.589
348.575
348.571
348.571
348.581
348.599
348.636
348.661
348.68
348.352
348.166
348.302
348.619
348.61
348.586
348.55
348.529
348.516
348.512
348.512
348.522
348.54
348.576
348.601
348.613
348.299
348.105
348.248
348.553
348.551
348.527
348.491
348.471
348.457
348.453
348.453
348.463
348.481
348.517
348.542
348.547
348.245
348.046
348.195
348.488
348.491
348.468
348.432
348.412
348.398
348.394
348.394
348.404
348.423
348.459
348.483
348.482
348.192
347.987
348.141
348.424
348.432
348.409
348.374
348.353
348.339
348.335
348.335
348.345
348.364
348.4
348.424
348.418
348.138
347.928
348.088
348.362
348.373
348.351
348.315
348.294
348.28
348.276
348.276
348.287
348.306
348.341
348.365
348.356
348.084
347.871
348.034
348.301
348.314
348.292
348.256
348.235
348.221
348.217
348.217
348.228
348.247
348.282
348.306
348.296
348.031
347.813
347.98
348.241
348.255
348.233
348.198
348.176
348.162
348.157
348.158
348.169
348.188
348.223
348.247
348.236
347.977
347.757
347.925
348.181
348.196
348.174
348.139
348.117
348.102
348.097
348.098
348.109
348.13
348.164
348.188
348.176
347.922
347.7
347.871
348.121
348.137
348.115
348.08
348.057
348.043
348.038
348.039
348.05
348.07
348.105
348.13
348.116
347.868
347.645
347.816
348.061
348.078
348.055
348.02
347.997
347.982
347.977
347.979
347.99
348.011
348.046
348.071
348.056
347.813
347.589
347.761
348.001
348.019
347.996
347.961
347.937
347.922
347.917
347.918
347.93
347.952
347.987
348.012
347.996
347.758
347.535
347.706
347.942
347.96
347.937
347.901
347.877
347.861
347.856
347.858
347.87
347.892
347.928
347.953
347.936
347.703
347.48
347.651
347.882
347.901
347.877
347.841
347.816
347.801
347.795
347.797
347.809
347.832
347.868
347.893
347.877
347.648
347.427
347.595
347.822
347.842
347.817
347.781
347.755
347.74
347.734
347.736
347.749
347.772
347.809
347.834
347.817
347.593
347.374
347.54
347.763
347.782
347.758
347.721
347.694
347.678
347.673
347.675
347.688
347.712
347.749
347.775
347.758
347.537
347.321
347.485
347.703
347.723
347.698
347.66
347.633
347.617
347.611
347.613
347.627
347.652
347.689
347.716
347.698
347.482
347.269
347.429
347.643
347.663
347.638
347.599
347.572
347.555
347.549
347.552
347.566
347.591
347.629
347.656
347.638
347.427
347.218
347.374
347.583
347.603
347.577
347.539
347.511
347.494
347.487
347.49
347.504
347.531
347.569
347.597
347.579
347.372
347.167
347.319
347.523
347.543
347.517
347.478
347.449
347.432
347.426
347.428
347.443
347.47
347.509
347.537
347.519
347.316
347.116
347.263
347.463
347.484
347.457
347.417
347.388
347.37
347.364
347.366
347.382
347.409
347.449
347.477
347.459
347.261
347.065
347.208
347.403
347.423
347.396
347.356
347.326
347.308
347.301
347.305
347.32
347.348
347.388
347.417
347.399
347.206
347.015
347.153
347.343
347.363
347.335
347.294
347.264
347.246
347.239
347.243
347.258
347.287
347.328
347.357
347.339
347.151
346.966
347.098
347.283
347.302
347.274
347.233
347.202
347.184
347.177
347.181
347.197
347.226
347.267
347.296
347.279
347.096
346.916
347.043
347.223
347.242
347.213
347.171
347.14
347.122
347.115
347.118
347.135
347.164
347.206
347.236
347.219
347.041
346.867
346.989
347.162
347.181
347.152
347.11
347.078
347.059
347.053
347.056
347.073
347.103
347.145
347.175
347.158
346.987
346.817
346.934
347.101
347.119
347.09
347.048
347.016
346.997
346.99
346.994
347.011
347.041
347.083
347.113
347.097
346.932
346.768
346.879
347.04
347.057
347.028
346.985
346.954
346.934
346.928
346.932
346.949
346.979
347.021
347.052
347.036
346.877
346.719
346.824
346.978
346.995
346.965
346.923
346.891
346.872
346.865
346.869
346.886
346.916
346.959
346.989
346.975
346.822
371.279
371.128
371.131
371.165
371.168
371.156
371.156
371.151
371.152
371.151
371.156
371.155
371.168
371.165
371.131
371.128
367.836
367.386
367.397
367.497
367.506
367.47
367.471
367.456
367.458
367.456
367.47
367.469
367.506
367.498
367.398
367.385
364.434
363.68
363.699
363.856
363.874
363.816
363.818
363.794
363.797
363.794
363.817
363.815
363.874
363.858
363.7
363.678
361.234
360.169
360.193
360.395
360.423
360.35
360.354
360.324
360.328
360.323
360.353
360.349
360.423
360.397
360.195
360.166
358.479
357.09
357.127
357.37
357.404
357.331
357.336
357.305
357.309
357.304
357.335
357.329
357.404
357.372
357.128
357.085
356.375
354.679
354.746
355.043
355.074
355.017
355.023
354.997
355.001
354.997
355.022
355.014
355.074
355.044
354.747
354.673
354.94
353.013
353.115
353.472
353.493
353.46
353.467
353.449
353.452
353.448
353.465
353.457
353.491
353.473
353.116
353.005
354.011
351.956
352.081
352.484
352.493
352.483
352.491
352.481
352.483
352.48
352.489
352.48
352.491
352.484
352.081
351.947
353.403
351.298
351.425
351.858
351.859
351.866
351.875
351.871
351.872
351.87
351.872
351.862
351.856
351.856
351.425
351.288
352.984
350.873
350.989
351.438
351.434
351.454
351.464
351.465
351.465
351.463
351.461
351.449
351.43
351.435
350.988
350.863
352.676
350.581
350.678
351.135
351.128
351.158
351.17
351.174
351.173
351.172
351.166
351.153
351.124
351.132
350.676
350.57
352.435
350.366
350.439
350.902
350.893
350.93
350.943
350.951
350.95
350.949
350.939
350.925
350.888
350.898
350.438
350.355
352.238
350.196
350.246
350.711
350.701
350.745
350.759
350.769
350.768
350.767
350.755
350.739
350.695
350.707
350.243
350.185
352.068
350.056
350.08
350.547
350.536
350.585
350.601
350.613
350.612
350.611
350.596
350.579
350.53
350.542
350.077
350.044
351.918
349.933
349.933
350.4
350.389
350.444
350.46
350.475
350.474
350.472
350.456
350.437
350.382
350.396
349.93
349.922
351.782
349.824
349.797
350.266
350.254
350.314
350.332
350.348
350.347
350.345
350.326
350.307
350.247
350.261
349.794
349.812
351.655
349.722
349.67
350.14
350.127
350.191
350.211
350.229
350.228
350.226
350.205
350.184
350.12
350.135
349.666
349.711
351.535
349.627
349.548
350.02
350.007
350.075
350.095
350.115
350.114
350.113
350.09
350.067
349.999
350.014
349.544
349.616
351.42
349.536
349.43
349.904
349.89
349.962
349.984
350.005
350.004
350.002
349.978
349.954
349.883
349.898
349.426
349.524
351.308
349.447
349.316
349.791
349.777
349.852
349.875
349.898
349.897
349.895
349.868
349.844
349.769
349.785
349.312
349.436
351.199
349.362
349.207
349.68
349.666
349.744
349.767
349.792
349.791
349.789
349.761
349.735
349.657
349.673
349.202
349.351
351.092
349.279
349.101
349.57
349.555
349.637
349.661
349.687
349.686
349.684
349.655
349.628
349.547
349.563
349.096
349.268
350.985
349.199
349
349.461
349.445
349.53
349.556
349.583
349.582
349.58
349.549
349.522
349.436
349.454
348.995
349.188
350.88
349.122
348.904
349.352
349.336
349.424
349.45
349.479
349.478
349.476
349.443
349.415
349.327
349.345
348.899
349.111
350.774
349.048
348.813
349.245
349.228
349.317
349.345
349.375
349.373
349.371
349.338
349.308
349.219
349.237
348.808
349.038
350.67
348.977
348.727
349.139
349.123
349.212
349.24
349.27
349.269
349.267
349.232
349.203
349.113
349.132
348.721
348.967
350.566
348.91
348.646
349.036
349.02
349.108
349.136
349.167
349.165
349.163
349.128
349.099
349.011
349.028
348.64
348.9
350.462
348.846
348.57
348.937
348.92
349.006
349.034
349.065
349.063
349.061
349.026
348.997
348.911
348.929
348.565
348.836
350.36
348.785
348.5
348.841
348.825
348.908
348.934
348.965
348.964
348.961
348.927
348.898
348.815
348.833
348.495
348.776
350.258
348.728
348.435
348.749
348.733
348.812
348.838
348.868
348.867
348.864
348.831
348.803
348.724
348.741
348.43
348.719
350.157
348.674
348.375
348.661
348.646
348.72
348.745
348.774
348.773
348.77
348.738
348.711
348.637
348.653
348.37
348.665
350.057
348.623
348.32
348.578
348.563
348.633
348.656
348.684
348.683
348.68
348.649
348.624
348.554
348.57
348.314
348.615
349.959
348.576
348.269
348.499
348.486
348.549
348.571
348.598
348.597
348.594
348.564
348.541
348.477
348.492
348.264
348.568
349.863
348.532
348.223
348.425
348.413
348.47
348.491
348.516
348.515
348.512
348.484
348.462
348.404
348.418
348.217
348.524
349.768
348.49
348.18
348.356
348.344
348.396
348.415
348.438
348.437
348.434
348.408
348.387
348.336
348.349
348.174
348.483
349.676
348.451
348.14
348.291
348.28
348.325
348.343
348.364
348.364
348.36
348.336
348.317
348.272
348.284
348.134
348.444
349.585
348.414
348.103
348.23
348.22
348.259
348.275
348.294
348.294
348.291
348.269
348.251
348.212
348.223
348.098
348.407
349.497
348.379
348.069
348.173
348.163
348.196
348.211
348.228
348.228
348.225
348.205
348.189
348.156
348.166
348.063
348.372
349.411
348.346
348.037
348.119
348.111
348.138
348.151
348.166
348.166
348.163
348.145
348.13
348.103
348.112
348.031
348.339
349.328
348.314
348.007
348.069
348.061
348.083
348.094
348.108
348.108
348.105
348.089
348.075
348.054
348.062
348.001
348.308
349.247
348.284
347.978
348.022
348.015
348.031
348.042
348.054
348.054
348.051
348.036
348.024
348.008
348.015
347.972
348.277
349.168
348.254
347.95
347.978
347.971
347.983
347.993
348.003
348.004
348
347.988
347.977
347.964
347.971
347.945
348.248
349.092
348.225
347.924
347.936
347.93
347.939
347.947
347.956
347.957
347.954
347.942
347.932
347.924
347.93
347.918
348.219
349.019
348.197
347.898
347.898
347.892
347.897
347.905
347.913
347.914
347.91
347.9
347.891
347.885
347.891
347.892
348.191
348.947
348.168
347.872
347.861
347.856
347.859
347.866
347.873
347.874
347.871
347.861
347.852
347.849
347.855
347.866
348.163
348.878
348.14
347.846
347.827
347.821
347.823
347.83
347.836
347.837
347.833
347.825
347.816
347.815
347.821
347.84
348.135
348.809
348.112
347.82
347.794
347.788
347.789
347.796
347.802
347.803
347.799
347.791
347.782
347.782
347.788
347.814
348.106
348.742
348.083
347.794
347.763
347.757
347.756
347.763
347.769
347.77
347.766
347.759
347.75
347.75
347.757
347.788
348.078
348.677
348.055
347.768
347.733
347.726
347.725
347.733
347.738
347.739
347.735
347.728
347.719
347.719
347.727
347.763
348.049
348.612
348.026
347.742
347.704
347.696
347.695
347.703
347.708
347.709
347.705
347.698
347.689
347.69
347.698
347.737
348.02
348.549
347.996
347.716
347.674
347.667
347.665
347.673
347.678
347.68
347.676
347.668
347.659
347.66
347.668
347.71
347.991
348.486
347.967
347.69
347.645
347.637
347.636
347.643
347.649
347.65
347.646
347.639
347.629
347.63
347.639
347.684
347.962
348.425
347.937
347.663
347.615
347.606
347.606
347.614
347.62
347.621
347.617
347.609
347.599
347.6
347.609
347.657
347.932
348.365
347.906
347.636
347.585
347.576
347.576
347.584
347.59
347.592
347.587
347.579
347.569
347.569
347.579
347.63
347.902
348.305
347.876
347.608
347.555
347.544
347.545
347.554
347.56
347.562
347.558
347.549
347.539
347.537
347.548
347.602
347.871
348.247
347.845
347.58
347.524
347.512
347.514
347.523
347.53
347.532
347.527
347.518
347.507
347.506
347.517
347.574
347.84
348.191
347.814
347.551
347.492
347.48
347.482
347.492
347.499
347.501
347.497
347.487
347.476
347.473
347.485
347.545
347.809
348.135
347.783
347.521
347.459
347.447
347.45
347.46
347.468
347.47
347.465
347.455
347.443
347.44
347.453
347.515
347.778
348.081
347.752
347.491
347.426
347.413
347.417
347.428
347.436
347.438
347.433
347.423
347.41
347.406
347.42
347.485
347.747
348.027
347.72
347.46
347.393
347.378
347.383
347.395
347.403
347.405
347.4
347.39
347.377
347.371
347.386
347.454
347.716
347.976
347.688
347.429
347.358
347.343
347.349
347.361
347.37
347.372
347.367
347.355
347.342
347.336
347.352
347.423
347.684
347.926
347.656
347.397
347.323
347.307
347.314
347.326
347.335
347.337
347.332
347.321
347.307
347.3
347.317
347.391
347.652
347.878
347.623
347.364
347.288
347.27
347.277
347.29
347.3
347.302
347.297
347.285
347.271
347.263
347.281
347.358
347.618
347.832
347.589
347.331
347.251
347.233
347.24
347.253
347.263
347.265
347.26
347.248
347.234
347.226
347.245
347.325
347.585
347.788
347.554
347.297
347.214
347.194
347.202
347.215
347.226
347.228
347.223
347.21
347.196
347.187
347.208
347.291
347.55
347.744
347.519
347.262
347.177
347.156
347.164
347.177
347.187
347.19
347.185
347.172
347.157
347.149
347.17
347.256
347.515
347.7
347.484
347.227
347.139
347.116
347.124
347.137
347.148
347.15
347.145
347.132
347.117
347.109
347.132
347.221
347.48
347.656
347.447
347.191
347.1
347.076
347.083
347.097
347.108
347.11
347.105
347.092
347.077
347.069
347.093
347.186
347.443
347.612
347.41
347.155
347.06
347.034
347.042
347.055
347.066
347.069
347.063
347.05
347.035
347.027
347.054
347.149
347.406
347.568
347.372
347.118
347.02
346.993
347
347.013
347.024
347.026
347.021
347.008
346.993
346.986
347.013
347.112
347.368
347.524
347.333
347.08
346.979
346.95
346.956
346.969
346.981
346.983
346.978
346.964
346.95
346.943
346.973
347.075
347.329
347.479
347.293
347.042
346.938
346.907
346.912
346.925
346.936
346.939
346.934
346.92
346.906
346.9
346.931
347.036
347.289
347.433
347.253
347.003
346.896
346.863
346.868
346.88
346.891
346.893
346.888
346.875
346.861
346.856
346.889
346.997