-0.0075 	0 	0 	0
-0.0075 	-1.64688e-35 	-1.41924e-36 	1.84965e-31
-0.00745622 	-1.35281e-06 	-1.16582e-07 	0.0151938
-0.00745622 	-1.35281e-06 	-1.16582e-07 	0.0151938
-0.00741165 	-2.05735e-06 	-5.53098e-07 	0.0295944
-0.00741165 	-2.05735e-06 	-5.53098e-07 	0.0295944
-0.00736628 	-2.59053e-06 	-1.34765e-06 	0.0432979
-0.00736628 	-2.59053e-06 	-1.34765e-06 	0.0432979
-0.0073201 	-3.18521e-06 	-2.54092e-06 	0.0563261
-0.0073201 	-3.18521e-06 	-2.54092e-06 	0.0563261
-0.00727309 	-3.81473e-06 	-4.12205e-06 	0.0687026
-0.00727309 	-3.81473e-06 	-4.12205e-06 	0.0687026
-0.00722524 	-4.42365e-06 	-6.10463e-06 	0.0804488
-0.00722524 	-4.42365e-06 	-6.10463e-06 	0.0804488
-0.00717653 	-4.99168e-06 	-8.49784e-06 	0.0915737
-0.00717653 	-4.99168e-06 	-8.49784e-06 	0.0915737
-0.00712695 	-5.51052e-06 	-1.13207e-05 	0.102065
-0.00712695 	-5.51052e-06 	-1.13207e-05 	0.102065
-0.00707647 	-5.97615e-06 	-1.46092e-05 	0.111893
-0.00707647 	-5.97615e-06 	-1.46092e-05 	0.111893
-0.0070251 	-6.38663e-06 	-1.84211e-05 	0.12103
-0.0070251 	-6.38663e-06 	-1.84211e-05 	0.12103
-0.0069728 	-6.74161e-06 	-2.28294e-05 	0.12947
-0.0069728 	-6.74161e-06 	-2.28294e-05 	0.12947
-0.00691956 	-7.04219e-06 	-2.79082e-05 	0.137231
-0.00691956 	-7.04219e-06 	-2.79082e-05 	0.137231
-0.00686537 	-7.29045e-06 	-3.37233e-05 	0.144351
-0.00686537 	-7.29045e-06 	-3.37233e-05 	0.144351
-0.00681021 	-7.48926e-06 	-4.03412e-05 	0.150887
-0.00681021 	-7.48926e-06 	-4.03412e-05 	0.150887
-0.00675406 	-7.64171e-06 	-4.78325e-05 	0.156899
-0.00675406 	-7.64171e-06 	-4.78325e-05 	0.156899
-0.0066969 	-7.75047e-06 	-5.62615e-05 	0.162442
-0.0066969 	-7.75047e-06 	-5.62615e-05 	0.162442
-0.00663871 	-7.81798e-06 	-6.56726e-05 	0.167562
-0.00663871 	-7.81798e-06 	-6.56726e-05 	0.167562
-0.00657949 	-7.84729e-06 	-7.60699e-05 	0.1723
-0.00657949 	-7.84729e-06 	-7.60699e-05 	0.1723
-0.0065192 	-7.84187e-06 	-8.74198e-05 	0.176698
-0.0065192 	-7.84187e-06 	-8.74198e-05 	0.176698
-0.00645783 	-7.8052e-06 	-9.96727e-05 	0.180797
-0.00645783 	-7.8052e-06 	-9.96727e-05 	0.180797
-0.00639535 	-7.74041e-06 	-0.000112776 	0.184637
-0.00639535 	-7.74041e-06 	-0.000112776 	0.184637
-0.00633176 	-7.65001e-06 	-0.000126678 	0.18825
-0.00633176 	-7.65001e-06 	-0.000126678 	0.18825
-0.00626703 	-7.53612e-06 	-0.000141323 	0.191663
-0.00626703 	-7.53612e-06 	-0.000141323 	0.191663
-0.00620114 	-7.40072e-06 	-0.000156655 	0.194899
-0.00620114 	-7.40072e-06 	-0.000156655 	0.194899
-0.00613406 	-7.24565e-06 	-0.000172616 	0.197979
-0.00613406 	-7.24565e-06 	-0.000172616 	0.197979
-0.00606579 	-7.07276e-06 	-0.000189144 	0.200921
-0.00606579 	-7.07276e-06 	-0.000189144 	0.200921
-0.00599629 	-6.88382e-06 	-0.000206173 	0.203742
-0.00599629 	-6.88382e-06 	-0.000206173 	0.203742
-0.00592554 	-6.68024e-06 	-0.000223635 	0.206457
-0.00592554 	-6.68024e-06 	-0.000223635 	0.206457
-0.00585352 	-6.46284e-06 	-0.000241454 	0.209081
-0.00585352 	-6.46284e-06 	-0.000241454 	0.209081
-0.00578022 	-6.23209e-06 	-0.000259538 	0.211625
-0.00578022 	-6.23209e-06 	-0.000259538 	0.211625
-0.00570559 	-5.98838e-06 	-0.000277792 	0.2141
-0.00570559 	-5.98838e-06 	-0.000277792 	0.2141
-0.00562963 	-5.73216e-06 	-0.000296115 	0.216513
-0.00562963 	-5.73216e-06 	-0.000296115 	0.216513
-0.00555231 	-5.46385e-06 	-0.00031441 	0.218872
-0.00555231 	-5.46385e-06 	-0.00031441 	0.218872
-0.0054736 	-5.18383e-06 	-0.000332573 	0.221181
-0.0054736 	-5.18383e-06 	-0.000332573 	0.221181
-0.00539348 	-4.89241e-06 	-0.000350502 	0.223447
-0.00539348 	-4.89241e-06 	-0.000350502 	0.223447
-0.00531193 	-4.58985e-06 	-0.000368093 	0.225671
-0.00531193 	-4.58985e-06 	-0.000368093 	0.225671
-0.00522891 	-4.27634e-06 	-0.000385244 	0.227858
-0.00522891 	-4.27634e-06 	-0.000385244 	0.227858
-0.0051444 	-3.95204e-06 	-0.000401857 	0.23001
-0.0051444 	-3.95204e-06 	-0.000401857 	0.23001
-0.00505838 	-3.617e-06 	-0.000417834 	0.232127
-0.00505838 	-3.617e-06 	-0.000417834 	0.232127
-0.00497081 	-3.27123e-06 	-0.000433085 	0.23421
-0.00497081 	-3.27123e-06 	-0.000433085 	0.23421
-0.00488168 	-2.91468e-06 	-0.000447526 	0.23626
-0.00488168 	-2.91468e-06 	-0.000447526 	0.23626
-0.00479094 	-2.54724e-06 	-0.000461074 	0.238275
-0.00479094 	-2.54724e-06 	-0.000461074 	0.238275
-0.00469858 	-2.16881e-06 	-0.000473654 	0.240254
-0.00469858 	-2.16881e-06 	-0.000473654 	0.240254
-0.00460456 	-1.77925e-06 	-0.000485194 	0.242195
-0.00460456 	-1.77925e-06 	-0.000485194 	0.242195
-0.00450886 	-1.3783e-06 	-0.000495642 	0.244098
-0.00450886 	-1.3783e-06 	-0.000495642 	0.244098
-0.00441144 	-9.65502e-07 	-0.000504979 	0.24596
-0.00441144 	-9.65502e-07 	-0.000504979 	0.24596
-0.00431227 	-5.40117e-07 	-0.000513216 	0.24778
-0.00431227 	-5.40117e-07 	-0.000513216 	0.24778
-0.00421133 	-1.01184e-07 	-0.000520396 	0.249555
-0.00421133 	-1.01184e-07 	-0.000520396 	0.249555
-0.00410857 	3.51969e-07 	-0.000526585 	0.251283
-0.00410857 	3.51969e-07 	-0.000526585 	0.251283
-0.00400397 	8.18949e-07 	-0.000531868 	0.252962
-0.00400397 	8.18949e-07 	-0.000531868 	0.252962
-0.0038975 	1.29853e-06 	-0.000536332 	0.254592
-0.0038975 	1.29853e-06 	-0.000536332 	0.254592
-0.00378912 	1.79004e-06 	-0.00054006 	0.256175
-0.00378912 	1.79004e-06 	-0.00054006 	0.256175
-0.00367879 	2.29419e-06 	-0.000543123 	0.257715
-0.00367879 	2.29419e-06 	-0.000543123 	0.257715
-0.00356649 	2.8121e-06 	-0.000545576 	0.25921
-0.00356649 	2.8121e-06 	-0.000545576 	0.25921
-0.00345217 	3.34392e-06 	-0.000547475 	0.260659
-0.00345217 	3.34392e-06 	-0.000547475 	0.260659
-0.0033358 	3.88876e-06 	-0.000548878 	0.262059
-0.0033358 	3.88876e-06 	-0.000548878 	0.262059
-0.00321735 	4.44527e-06 	-0.000549847 	0.263407
-0.00321735 	4.44527e-06 	-0.000549847 	0.263407
-0.00309677 	5.01186e-06 	-0.000550451 	0.264703
-0.00309677 	5.01186e-06 	-0.000550451 	0.264703
-0.00297403 	5.58669e-06 	-0.000550761 	0.265942
-0.00297403 	5.58669e-06 	-0.000550761 	0.265942
-0.00284909 	6.16762e-06 	-0.000550851 	0.267124
-0.00284909 	6.16762e-06 	-0.000550851 	0.267124
-0.0027219 	6.75222e-06 	-0.000550794 	0.268244
-0.0027219 	6.75222e-06 	-0.000550794 	0.268244
-0.00259244 	7.33793e-06 	-0.000550663 	0.269301
-0.00259244 	7.33793e-06 	-0.000550663 	0.269301
-0.00246065 	7.92193e-06 	-0.000550525 	0.270292
-0.00246065 	7.92193e-06 	-0.000550525 	0.270292
-0.00232651 	8.50116e-06 	-0.000550442 	0.271215
-0.00232651 	8.50116e-06 	-0.000550442 	0.271215
-0.00218995 	9.0723e-06 	-0.000550462 	0.272068
-0.00218995 	9.0723e-06 	-0.000550462 	0.272068
-0.00205095 	9.63165e-06 	-0.000550624 	0.27285
-0.00205095 	9.63165e-06 	-0.000550624 	0.27285
-0.00190946 	1.01748e-05 	-0.000550952 	0.273557
-0.00190946 	1.01748e-05 	-0.000550952 	0.273557
-0.00176543 	1.06965e-05 	-0.000551455 	0.274191
-0.00176543 	1.06965e-05 	-0.000551455 	0.274191
-0.00161881 	1.11907e-05 	-0.000552123 	0.27475
-0.00161881 	1.11907e-05 	-0.000552123 	0.27475
-0.00146957 	1.16511e-05 	-0.000552928 	0.275233
-0.00146957 	1.16511e-05 	-0.000552928 	0.275233
-0.00131765 	1.20713e-05 	-0.00055383 	0.275642
-0.00131765 	1.20713e-05 	-0.00055383 	0.275642
-0.001163 	1.24444e-05 	-0.000554777 	0.275976
-0.001163 	1.24444e-05 	-0.000554777 	0.275976
-0.00100559 	1.27627e-05 	-0.00055571 	0.276235
-0.00100559 	1.27627e-05 	-0.00055571 	0.276235
-0.000845345 	1.30165e-05 	-0.000556616 	0.276418
-0.000845345 	1.30165e-05 	-0.000556616 	0.276418
-0.000682232 	1.31944e-05 	-0.000557403 	0.276524
-0.000682232 	1.31944e-05 	-0.000557403 	0.276524
-0.000516194 	1.32834e-05 	-0.000557961 	0.276551
-0.000516194 	1.32834e-05 	-0.000557961 	0.276551
-0.000347178 	1.32691e-05 	-0.000558309 	0.276498
-0.000347178 	1.32691e-05 	-0.000558309 	0.276498
-0.000175132 	1.31419e-05 	-0.000558261 	0.276362
-0.000175132 	1.31419e-05 	-0.000558261 	0.276362
0 	1.28981e-05 	-0.000557842 	0.276142
0 	1.28981e-05 	-0.000557842 	0.276142
0 	1.28981e-05 	-0.000557842 	0.276142
0 	1.28981e-05 	-0.000557842 	0.276142
0.000175132 	1.25387e-05 	-0.000557161 	0.275839
0.000175132 	1.62014e-05 	-0.00046113 	0.272547
0.000347178 	1.20759e-05 	-0.000556066 	0.275459
0.000347178 	1.7307e-05 	-0.000461908 	0.272233
0.000516194 	1.15221e-05 	-0.000554687 	0.275009
0.000516194 	1.82263e-05 	-0.000462581 	0.271842
0.000682232 	1.08894e-05 	-0.000553022 	0.274491
0.000682232 	1.89749e-05 	-0.000463098 	0.271378
0.000845345 	1.01951e-05 	-0.000550966 	0.273908
0.000845345 	1.95723e-05 	-0.000463112 	0.270845
0.00100559 	9.45432e-06 	-0.000548595 	0.273264
0.00100559 	2.00365e-05 	-0.000462788 	0.270246
0.001163 	8.68018e-06 	-0.000545924 	0.272562
0.001163 	2.03839e-05 	-0.000462133 	0.269585
0.00131765 	7.88382e-06 	-0.000542969 	0.271802
0.00131765 	2.06298e-05 	-0.000461158 	0.268864
0.00146957 	7.07484e-06 	-0.000539746 	0.270988
0.00146957 	2.07875e-05 	-0.000459871 	0.268086
0.00161881 	6.26141e-06 	-0.000536268 	0.270122
0.00161881 	2.08686e-05 	-0.000458279 	0.267253
0.00176543 	5.4504e-06 	-0.000532545 	0.269204
0.00176543 	2.08833e-05 	-0.00045639 	0.266368
0.00190946 	4.64753e-06 	-0.000528586 	0.268237
0.00190946 	2.08402e-05 	-0.000454206 	0.265431
0.00205095 	3.85754e-06 	-0.000524394 	0.267222
0.00205095 	2.0747e-05 	-0.000451731 	0.264444
0.00218995 	3.08435e-06 	-0.000519976 	0.26616
0.00218995 	2.061e-05 	-0.000448968 	0.263409
0.00232651 	2.33123e-06 	-0.00051533 	0.265051
0.00232651 	2.04347e-05 	-0.000445915 	0.262326
0.00246065 	1.60084e-06 	-0.000510458 	0.263897
0.00246065 	2.02257e-05 	-0.000442571 	0.261196
0.00259244 	8.95285e-07 	-0.000505356 	0.262698
0.00259244 	1.9987e-05 	-0.00043893 	0.26002
0.0027219 	2.16259e-07 	-0.000500021 	0.261454
0.0027219 	1.97215e-05 	-0.000434987 	0.2588
0.00284909 	-4.34941e-07 	-0.000494447 	0.260166
0.00284909 	1.94319e-05 	-0.000430732 	0.257534
0.00297403 	-1.05734e-06 	-0.000488625 	0.258834
0.00297403 	1.91201e-05 	-0.000426155 	0.256223
0.00309677 	-1.65022e-06 	-0.000482549 	0.257458
0.00309677 	1.8788e-05 	-0.000421242 	0.254868
0.00321735 	-2.21311e-06 	-0.000476208 	0.256038
0.00321735 	1.84367e-05 	-0.00041598 	0.253469
0.0033358 	-2.74565e-06 	-0.000469594 	0.254572
0.0033358 	1.80674e-05 	-0.000410356 	0.252024
0.00345217 	1.76809e-05 	-0.000404361 	0.250533
0.00345217 	-3.24763e-06 	-0.000462699 	0.253061
0.00356649 	-3.71889e-06 	-0.000455514 	0.251504
0.00356649 	1.72779e-05 	-0.000397996 	0.248995
0.00367879 	-4.15939e-06 	-0.000448026 	0.2499
0.00367879 	1.68596e-05 	-0.000391253 	0.247409
0.00378912 	-4.56919e-06 	-0.000440214 	0.248247
0.00378912 	1.64281e-05 	-0.00038411 	0.245778
0.0038975 	-4.94838e-06 	-0.000432053 	0.246544
0.0038975 	1.59853e-05 	-0.000376547 	0.244099
0.00400397 	-5.29712e-06 	-0.000423502 	0.244788
0.00400397 	1.55331e-05 	-0.000368507 	0.242367
0.00410857 	1.50726e-05 	-0.000359887 	0.240569
0.00410857 	-5.61606e-06 	-0.000414496 	0.242972
0.00421133 	-5.9066e-06 	-0.000404956 	0.241092
0.00421133 	1.46022e-05 	-0.00035058 	0.238692
0.00431227 	-6.17035e-06 	-0.000394801 	0.239139
0.00431227 	1.41193e-05 	-0.000340512 	0.236731
0.00441144 	-6.40831e-06 	-0.000383963 	0.237107
0.00441144 	1.36212e-05 	-0.000329644 	0.234682
0.00450886 	-6.62055e-06 	-0.00037241 	0.23499
0.00450886 	1.31054e-05 	-0.00031798 	0.232541
0.00460456 	-6.80695e-06 	-0.000360141 	0.232782
0.00460456 	1.25698e-05 	-0.000305563 	0.230305
0.00469858 	-6.96775e-06 	-0.000347176 	0.230479
0.00469858 	1.20123e-05 	-0.000292445 	0.227968
0.00479094 	-7.10349e-06 	-0.00033354 	0.228076
0.00479094 	1.14312e-05 	-0.000278683 	0.225528
0.00488168 	-7.21484e-06 	-0.000319262 	0.225568
0.00488168 	1.08245e-05 	-0.000264336 	0.222979
0.00497081 	-7.30249e-06 	-0.000304383 	0.22295
0.00497081 	1.01908e-05 	-0.00024947 	0.220319
0.00505838 	-7.36715e-06 	-0.000288953 	0.22022
0.00505838 	9.5286e-06 	-0.000234161 	0.217542
0.0051444 	-7.4096e-06 	-0.000273037 	0.217372
0.0051444 	8.83673e-06 	-0.000218494 	0.214646
0.00522891 	-7.4306e-06 	-0.000256718 	0.214404
0.00522891 	8.11439e-06 	-0.000202574 	0.211627
0.00531193 	-7.43099e-06 	-0.000240093 	0.211312
0.00531193 	7.36115e-06 	-0.00018652 	0.208483
0.00539348 	-7.41158e-06 	-0.000223275 	0.208092
0.00539348 	6.57701e-06 	-0.000170464 	0.205212
0.0054736 	-7.37323e-06 	-0.000206388 	0.204743
0.0054736 	5.76239e-06 	-0.000154548 	0.201813
0.00555231 	-7.31675e-06 	-0.000189565 	0.201259
0.00555231 	4.91813e-06 	-0.000138919 	0.198283
0.00562963 	-7.24296e-06 	-0.000172941 	0.197638
0.00562963 	4.04547e-06 	-0.000123717 	0.19462
0.00570559 	-7.15261e-06 	-0.000156648 	0.193876
0.00570559 	3.14607e-06 	-0.000109078 	0.190822
0.00578022 	-7.04645e-06 	-0.000140814 	0.189966
0.00578022 	2.222e-06 	-9.51219e-05 	0.186883
0.00585352 	-6.92513e-06 	-0.000125553 	0.185904
0.00585352 	1.27582e-06 	-8.19532e-05 	0.1828
0.00592554 	-6.7893e-06 	-0.000110971 	0.181683
0.00592554 	3.10556e-07 	-6.96563e-05 	0.178568
0.00599629 	-6.63956e-06 	-9.71569e-05 	0.177296
0.00599629 	-6.70219e-07 	-5.8295e-05 	0.174178
0.00606579 	-6.47664e-06 	-8.41845e-05 	0.172733
0.00606579 	-1.6624e-06 	-4.79134e-05 	0.169623
0.00613406 	-6.30133e-06 	-7.21171e-05 	0.167983
0.00613406 	-2.66132e-06 	-3.85365e-05 	0.164891
0.00620114 	-3.66187e-06 	-3.01721e-05 	0.159965
0.00620114 	-6.11417e-06 	-6.10034e-05 	0.16303
0.00626703 	-5.91533e-06 	-5.08794e-05 	0.157857
0.00626703 	-4.65802e-06 	-2.28168e-05 	0.154829
0.00633176 	-5.64201e-06 	-1.64576e-05 	0.149466
0.00633176 	-5.70493e-06 	-4.17742e-05 	0.152446
0.00639535 	-6.60433e-06 	-1.10665e-05 	0.143861
0.00639535 	-5.48339e-06 	-3.37002e-05 	0.146784
0.00645783 	-5.25136e-06 	-2.66491e-05 	0.140853
0.00645783 	-7.53401e-06 	-6.59795e-06 	0.137999
0.0065192 	-5.00957e-06 	-2.05965e-05 	0.134636
0.0065192 	-8.41846e-06 	-2.99396e-06 	0.13186
0.00657949 	-4.75879e-06 	-1.55048e-05 	0.128116
0.00657949 	-9.24328e-06 	-1.87157e-07 	0.125429
0.00663871 	-4.5004e-06 	-1.13225e-05 	0.121278
0.00663871 	-9.99245e-06 	1.89685e-06 	0.118687
0.0066969 	-4.23654e-06 	-7.97239e-06 	0.114103
0.0066969 	-1.06485e-05 	3.34226e-06 	0.111615
0.00675406 	-1.11925e-05 	4.23853e-06 	0.104176
0.00675406 	-3.96854e-06 	-5.36247e-06 	0.106558
0.00681021 	-1.16029e-05 	4.6761e-06 	0.0963456
0.00681021 	-3.69608e-06 	-3.39211e-06 	0.0986107
0.00686537 	-1.18543e-05 	4.74392e-06 	0.088137
0.00686537 	-3.4185e-06 	-1.96638e-06 	0.090269
0.00691956 	-1.19202e-05 	4.52866e-06 	0.0796175
0.00691956 	-3.13582e-06 	-1.00185e-06 	0.0815973
0.0069728 	-1.17794e-05 	4.11578e-06 	0.0709044
0.0069728 	-2.84863e-06 	-4.06678e-07 	0.0727129
0.0070251 	-2.5573e-06 	-8.59342e-08 	0.0637839
0.0070251 	-1.14205e-05 	3.58514e-06 	0.0621629
0.00707647 	-2.26176e-06 	5.12966e-08 	0.0550108
0.00707647 	-1.0846e-05 	3.00579e-06 	0.0535865
0.00712695 	-1.96225e-06 	8.22338e-08 	0.0465909
0.00712695 	-1.0073e-05 	2.43081e-06 	0.0453641
0.00717653 	-1.66053e-06 	6.37542e-08 	0.0386804
0.00717653 	-9.1301e-06 	1.89533e-06 	0.0376439
0.00722524 	-1.36117e-06 	3.05134e-08 	0.0313719
0.00722524 	-8.05115e-06 	1.41787e-06 	0.0305139
0.00727309 	-6.87088e-06 	1.00544e-06 	0.0240044
0.00727309 	-1.07345e-06 	-5.73131e-10 	0.0246973
0.0073201 	-5.62437e-06 	6.60895e-07 	0.018107
0.0073201 	-8.15785e-07 	-2.23551e-08 	0.0186475
0.00736628 	-4.35277e-06 	3.81844e-07 	0.0127927
0.00736628 	-6.25938e-07 	-3.79723e-08 	0.0131922
0.00741165 	-5.07729e-07 	-3.39648e-08 	0.00829378
0.00741165 	-3.0483e-06 	1.80135e-07 	0.00802511
0.00745622 	-3.46148e-07 	-2.15829e-08 	0.0039149
0.00745622 	-1.61292e-06 	5.43875e-08 	0.00376836
0.0075 	0 	0 	0
0.0075 	0 	0 	0
