0 	0 	0 	0
5.01672e-05 	0.000176859 	-6.95482e-06 	0.0181229
0.000100334 	0.000183912 	-1.9625e-05 	0.0347711
0.000150502 	0.000117599 	-3.76453e-05 	0.0501063
0.000200669 	7.04107e-05 	-5.82971e-05 	0.064258
0.000250836 	5.52025e-05 	-8.19554e-05 	0.0773237
0.000301003 	6.80138e-05 	-0.000107704 	0.0893891
0.000351171 	0.00010903 	-0.000135142 	0.100527
0.000401338 	0.000177781 	-0.000163859 	0.110791
0.000451505 	0.000271839 	-0.000193462 	0.120222
0.000501672 	0.000387314 	-0.000223495 	0.128865
0.000551839 	0.00051997 	-0.000253573 	0.136771
0.000602007 	0.000665894 	-0.000283487 	0.144006
0.000652174 	0.000821523 	-0.000313177 	0.150639
0.000702341 	0.000983527 	-0.000342618 	0.156739
0.000752508 	0.00114887 	-0.000371704 	0.162367
0.000802676 	0.00131491 	-0.000400261 	0.167569
0.000852843 	0.00147895 	-0.000428155 	0.172331
0.00090301 	0.00163978 	-0.000455517 	0.176754
0.000953177 	0.00179681 	-0.000482384 	0.180874
0.00100334 	0.00194968 	-0.000508787 	0.184721
0.00105351 	0.00209823 	-0.000534754 	0.188323
0.00110368 	0.00224228 	-0.000560305 	0.1917
0.00115385 	0.00238043 	-0.00058535 	0.194823
0.00120401 	0.00251408 	-0.000610011 	0.197777
0.00125418 	0.00264332 	-0.000634304 	0.200578
0.00130435 	0.00276827 	-0.000658247 	0.20324
0.00135452 	0.0028876 	-0.000681752 	0.205737
0.00140468 	0.00300198 	-0.000704892 	0.208106
0.00145485 	0.00311222 	-0.000727734 	0.210376
0.00150502 	0.00321848 	-0.000750294 	0.212552
0.00155518 	0.00331843 	-0.000772465 	0.214596
0.00160535 	0.00341441 	-0.000794396 	0.216562
0.00165552 	0.00350679 	-0.000816092 	0.21846
0.00170569 	0.00359407 	-0.000837394 	0.220265
0.00175585 	0.00367716 	-0.000858397 	0.221995
0.00180602 	0.00375738 	-0.000879219 	0.223674
0.00185619 	0.00383351 	-0.00089983 	0.22528
0.00190635 	0.00390616 	-0.000920232 	0.226825
0.00195652 	0.00397666 	-0.000940471 	0.228333
0.00200669 	0.00404354 	-0.000960331 	0.229777
0.00205686 	0.00410794 	-0.000979776 	0.231179
0.00210702 	0.0041707 	-0.000998945 	0.232552
0.00215719 	0.00422979 	-0.00101748 	0.23386
0.00220736 	0.00428759 	-0.00103592 	0.235145
0.00225753 	0.00434334 	-0.00105422 	0.236392
0.00230769 	0.00439685 	-0.00107285 	0.237596
0.00235786 	0.0044494 	-0.00109169 	0.238782
0.00240803 	0.00449913 	-0.00111228 	0.239915
0.00245819 	0.00454787 	-0.00113354 	0.241031
0.00250836 	0.00459458 	-0.00115618 	0.242113
0.00255853 	0.00463963 	-0.0011779 	0.243166
0.0026087 	0.00468349 	-0.00119896 	0.244201
0.00265886 	0.0047263 	-0.00121506 	0.245206
0.00270903 	0.00476886 	-0.00122997 	0.246203
0.0027592 	0.00481402 	-0.00123808 	0.24718
0.00280936 	0.00486041 	-0.0012458 	0.248155
0.00285953 	0.00491335 	-0.00125144 	0.249123
0.0029097 	0.00496907 	-0.00125809 	0.25009
0.00295987 	0.00503181 	-0.00126729 	0.251051
0.00301003 	0.00509602 	-0.001279 	0.252001
0.0030602 	0.00516267 	-0.00129485 	0.252933
0.00311037 	0.00522564 	-0.00131422 	0.25384
0.00316054 	0.00528383 	-0.00133818 	0.254714
0.0032107 	0.00533291 	-0.00136388 	0.25555
0.00326087 	0.00537118 	-0.00139166 	0.256342
0.00331104 	0.00539847 	-0.00141652 	0.257097
0.0033612 	0.0054121 	-0.00143777 	0.257805
0.00341137 	0.00541667 	-0.00145516 	0.258485
0.00346154 	0.0054075 	-0.0014667 	0.259124
0.00351171 	0.00539271 	-0.00147639 	0.259747
0.00356187 	0.00536555 	-0.00148201 	0.260335
0.00361204 	0.00533591 	-0.00148779 	0.260914
0.00366221 	0.0052957 	-0.00149422 	0.26146
0.00371237 	0.0052552 	-0.00150079 	0.262004
0.00376254 	0.00520534 	-0.00151163 	0.262511
0.00381271 	0.00515548 	-0.00152248 	0.263018
0.00386288 	0.00509893 	-0.00153395 	0.263493
0.00391304 	0.00504102 	-0.00154555 	0.263963
0.00396321 	0.00497888 	-0.00155654 	0.26441
0.00401338 	0.00491382 	-0.00156711 	0.264843
0.00406355 	0.00484677 	-0.00157746 	0.265264
0.00411371 	0.00477534 	-0.00158733 	0.26566
0.00416388 	0.0047039 	-0.0015972 	0.266057
0.00421405 	0.00462684 	-0.00160611 	0.266418
0.00426421 	0.00454975 	-0.00161502 	0.26678
0.00431438 	0.00446957 	-0.00162353 	0.267119
0.00436455 	0.00438759 	-0.00163181 	0.267447
0.00441472 	0.00430469 	-0.00164 	0.267766
0.00446488 	0.00421867 	-0.00164788 	0.26806
0.00451505 	0.00413264 	-0.00165576 	0.268354
0.00456522 	0.00404412 	-0.00166329 	0.268623
0.00461538 	0.0039549 	-0.00167073 	0.268884
0.00466555 	0.00386499 	-0.00167801 	0.269136
0.00471572 	0.00377341 	-0.00168494 	0.269365
0.00476589 	0.00368183 	-0.00169187 	0.269594
0.00481605 	0.00358909 	-0.00169848 	0.2698
0.00486622 	0.00349598 	-0.00170499 	0.269998
0.00491639 	0.00340276 	-0.00171143 	0.270191
0.00496656 	0.00330901 	-0.00171755 	0.270358
0.00501672 	0.00321526 	-0.00172368 	0.270525
0.00506689 	0.0031217 	-0.0017296 	0.270676
0.00511706 	0.00302829 	-0.00173537 	0.270813
0.00516722 	0.00293488 	-0.00174114 	0.27095
0.00521739 	0.00284261 	-0.0017466 	0.271061
0.00526756 	0.0027505 	-0.00175202 	0.271169
0.00531773 	0.00265874 	-0.00175739 	0.271273
0.00536789 	0.00256884 	-0.00176247 	0.271351
0.00541806 	0.00247894 	-0.00176755 	0.27143
0.00546823 	0.00239017 	-0.0017725 	0.271499
0.00551839 	0.00230324 	-0.00177723 	0.271549
0.00556856 	0.00221631 	-0.00178196 	0.2716
0.00561873 	0.00213141 	-0.0017865 	0.271636
0.0056689 	0.0020481 	-0.00179089 	0.271659
0.00571906 	0.0019648 	-0.00179527 	0.271682
0.00576923 	0.00188439 	-0.00179942 	0.271686
0.0058194 	0.00180528 	-0.00180347 	0.271682
0.00586957 	0.00172617 	-0.00180752 	0.271678
0.00591973 	0.00165068 	-0.00181133 	0.271654
0.0059699 	0.00157629 	-0.00181506 	0.271623
0.00602007 	0.0015019 	-0.0018188 	0.271593
0.00607023 	0.0014316 	-0.00182231 	0.271541
0.0061204 	0.00136238 	-0.00182575 	0.271484
0.00617057 	0.00129315 	-0.0018292 	0.271427
0.00622074 	0.00122816 	-0.00183243 	0.271351
0.0062709 	0.00116446 	-0.00183558 	0.271268
0.00632107 	0.00110077 	-0.00183874 	0.271185
0.00637124 	0.00104103 	-0.0018417 	0.271085
0.0064214 	0.000983129 	-0.00184457 	0.270976
0.00647157 	0.000925227 	-0.00184745 	0.270868
0.00652174 	0.000870564 	-0.0018502 	0.270746
0.00657191 	0.000818609 	-0.00185284 	0.270612
0.00662207 	0.000766654 	-0.00185549 	0.270478
0.00667224 	0.000716808 	-0.00185808 	0.270336
0.00672241 	0.000670869 	-0.00186059 	0.270177
0.00677258 	0.00062493 	-0.00186309 	0.270019
0.00682274 	0.000579589 	-0.00186559 	0.269858
0.00687291 	0.000539673 	-0.00186801 	0.269675
0.00692308 	0.000499758 	-0.00187044 	0.269491
0.00697324 	0.000459842 	-0.00187286 	0.269308
0.00702341 	0.000424633 	-0.00187514 	0.269106
0.00707358 	0.000390679 	-0.00187739 	0.268899
0.00712375 	0.000356725 	-0.00187964 	0.268692
0.00717391 	0.000325281 	-0.00188178 	0.268475
0.00722408 	0.000297296 	-0.00188378 	0.268244
0.00727425 	0.000269311 	-0.00188579 	0.268014
0.00732441 	0.000241326 	-0.00188779 	0.267784
0.00737458 	0.00021936 	-0.00188972 	0.267534
0.00742475 	0.000197449 	-0.00189164 	0.267283
0.00747492 	0.000175538 	-0.00189357 	0.267033
0.00752508 	0.000156416 	-0.00189556 	0.266772
0.00757525 	0.00014008 	-0.00189762 	0.266502
0.00762542 	0.000123745 	-0.00189968 	0.266231
0.00767559 	0.000107452 	-0.00190173 	0.26596
0.00772575 	9.57771e-05 	-0.00190377 	0.265668
0.00777592 	8.41018e-05 	-0.0019058 	0.265376
0.00782609 	7.24264e-05 	-0.00190783 	0.265083
0.00787625 	6.28602e-05 	-0.00190968 	0.264779
0.00792642 	5.48237e-05 	-0.00191141 	0.264466
0.00797659 	4.67873e-05 	-0.00191314 	0.264153
0.00802676 	3.93212e-05 	-0.00191482 	0.263836
0.00807692 	3.39938e-05 	-0.00191629 	0.263502
0.00812709 	2.86663e-05 	-0.00191777 	0.263168
0.00817726 	2.33389e-05 	-0.00191924 	0.262834
0.00822742 	1.97987e-05 	-0.00192053 	0.262482
0.00827759 	1.64552e-05 	-0.0019218 	0.262127
0.00832776 	1.31117e-05 	-0.00192307 	0.261773
0.00837793 	1.06181e-05 	-0.00192418 	0.261405
0.00842809 	8.58323e-06 	-0.00192521 	0.261031
0.00847826 	6.54837e-06 	-0.00192624 	0.260656
0.00852843 	4.82571e-06 	-0.00192714 	0.260273
0.0085786 	3.4765e-06 	-0.00192789 	0.259878
0.00862876 	2.12729e-06 	-0.00192865 	0.259484
0.00867893 	8.19729e-07 	-0.00192932 	0.259083
0.0087291 	-3.98277e-07 	-0.00192982 	0.258669
0.00877926 	-1.61628e-06 	-0.00193031 	0.258255
0.00882943 	-2.91565e-06 	-0.00193076 	0.257837
0.0088796 	-4.48001e-06 	-0.00193105 	0.257403
0.00892977 	-6.04437e-06 	-0.00193134 	0.25697
0.00897993 	-7.76409e-06 	-0.00193158 	0.256533
0.0090301 	-1.00803e-05 	-0.00193161 	0.25608
0.00908027 	-1.23966e-05 	-0.00193164 	0.255628
0.00913043 	-1.49602e-05 	-0.00193156 	0.255171
0.0091806 	-1.8344e-05 	-0.00193107 	0.2547
0.00923077 	-2.17279e-05 	-0.00193058 	0.254228
0.00928094 	-2.5498e-05 	-0.00192988 	0.25375
0.0093311 	-3.0131e-05 	-0.00192871 	0.253259
0.00938127 	-3.47641e-05 	-0.00192755 	0.252767
0.00943144 	-3.99831e-05 	-0.00192611 	0.252267
0.00948161 	-4.59532e-05 	-0.00192434 	0.251755
0.00953177 	-5.19234e-05 	-0.00192257 	0.251242
0.00958194 	-5.87698e-05 	-0.00192048 	0.250717
0.00963211 	-6.61586e-05 	-0.00191821 	0.250183
0.00968227 	-7.35473e-05 	-0.00191593 	0.24965
0.00973244 	-8.22137e-05 	-0.00191319 	0.249098
0.00978261 	-9.11109e-05 	-0.00191036 	0.248543
0.00983278 	-0.000100207 	-0.00190745 	0.247984
0.00988294 	-0.000110692 	-0.00190397 	0.247407
0.00993311 	-0.000121177 	-0.00190049 	0.246829
0.00998328 	-0.000132405 	-0.00189668 	0.246241
0.0100334 	-0.000144539 	-0.00189247 	0.24564
0.0100836 	-0.000156672 	-0.00188825 	0.245039
0.0101338 	-0.000170197 	-0.00188335 	0.244419
0.0101839 	-0.000184018 	-0.00187831 	0.243794
0.0102341 	-0.000198257 	-0.00187305 	0.243163
0.0102843 	-0.000213794 	-0.00186711 	0.242513
0.0103344 	-0.000229332 	-0.00186116 	0.241863
0.0103846 	-0.000246113 	-0.00185459 	0.241194
0.0104348 	-0.000263406 	-0.00184775 	0.240518
0.0104849 	-0.000281101 	-0.00184074 	0.239836
0.0105351 	-0.000300238 	-0.0018331 	0.239133
0.0105853 	-0.000319375 	-0.00182546 	0.23843
0.0106355 	-0.000340069 	-0.00181727 	0.237705
0.0106856 	-0.000361224 	-0.00180892 	0.236973
0.0107358 	-0.000383186 	-0.00180029 	0.23623
0.010786 	-0.000406538 	-0.00179119 	0.235468
0.0108361 	-0.000429903 	-0.00178209 	0.234706
0.0108863 	-0.000455501 	-0.00177212 	0.233912
0.0109365 	-0.000481098 	-0.00176214 	0.233117
0.0109866 	-0.000508181 	-0.00175149 	0.2323
0.0110368 	-0.000535942 	-0.00174051 	0.231472
0.011087 	-0.000564522 	-0.00172912 	0.23063
0.0111371 	-0.00059429 	-0.0017171 	0.229768
0.0111873 	-0.000624365 	-0.0017049 	0.228899
0.0112375 	-0.00065595 	-0.00169185 	0.228
0.0112876 	-0.000687536 	-0.0016788 	0.227102
0.0113378 	-0.0007207 	-0.00166478 	0.226166
0.011388 	-0.000753914 	-0.00165073 	0.225228
0.0114381 	-0.000788277 	-0.00163585 	0.224257
0.0114883 	-0.000822911 	-0.00162077 	0.223278
0.0115385 	-0.000858342 	-0.00160494 	0.222267
0.0115886 	-0.000894136 	-0.00158876 	0.22124
0.0116388 	-0.000930465 	-0.00157189 	0.220179
0.011689 	-0.000967149 	-0.00155456 	0.219095
0.0117391 	-0.00100423 	-0.0015366 	0.217977
0.0117893 	-0.00104164 	-0.00151813 	0.21683
0.0118395 	-0.00107942 	-0.00149908 	0.215647
0.0118896 	-0.00111752 	-0.00147953 	0.214433
0.0119398 	-0.00115604 	-0.00145939 	0.213184
0.01199 	-0.00119488 	-0.00143879 	0.211907
0.0120401 	-0.00123418 	-0.00141753 	0.210594
0.0120903 	-0.00127376 	-0.00139588 	0.20926
0.0121405 	-0.00131378 	-0.00137352 	0.207888
0.0121906 	-0.00135397 	-0.00135087 	0.206502
0.0122408 	-0.00139446 	-0.00132738 	0.205073
0.012291 	-0.00143502 	-0.00130373 	0.203636
0.0123411 	-0.00147575 	-0.00127892 	0.202144
0.0123913 	-0.00151653 	-0.0012539 	0.200639
0.0124415 	-0.00155754 	-0.00122798 	0.199083
0.0124916 	-0.00159884 	-0.00120176 	0.197496
0.0125418 	-0.00164055 	-0.00117511 	0.195865
0.012592 	-0.0016831 	-0.00114816 	0.194175
0.0126421 	-0.00172607 	-0.00112106 	0.192456
0.0126923 	-0.00177036 	-0.00109343 	0.190642
0.0127425 	-0.00181498 	-0.00106552 	0.188796
0.0127926 	-0.00186028 	-0.00103696 	0.186873
0.0128428 	-0.0019057 	-0.00100784 	0.184882
0.012893 	-0.00195119 	-0.000978372 	0.182849
0.0129431 	-0.00199614 	-0.000948238 	0.180705
0.0129933 	-0.0020406 	-0.000917893 	0.178513
0.0130435 	-0.00208433 	-0.000887233 	0.17625
0.0130936 	-0.00212659 	-0.000856196 	0.173887
0.0131438 	-0.0021679 	-0.000824987 	0.171466
0.013194 	-0.00220758 	-0.000793546 	0.168953
0.0132441 	-0.00224514 	-0.000762004 	0.166335
0.0132943 	-0.00228112 	-0.000730405 	0.163645
0.0133445 	-0.00231472 	-0.00069874 	0.16085
0.0133946 	-0.00234505 	-0.000666907 	0.157926
0.0134448 	-0.00237286 	-0.000634963 	0.15491
0.013495 	-0.00239777 	-0.0006029 	0.151789
0.0135452 	-0.0024174 	-0.000570921 	0.14849
0.0135953 	-0.0024333 	-0.000539162 	0.145073
0.0136455 	-0.00244515 	-0.000507654 	0.14153
0.0136957 	-0.00245177 	-0.000476487 	0.13783
0.0137458 	-0.00245173 	-0.000445762 	0.133942
0.013796 	-0.00244611 	-0.000415439 	0.129901
0.0138462 	-0.00243443 	-0.000385583 	0.125698
0.0138963 	-0.00241614 	-0.000356267 	0.121325
0.0139465 	-0.0023883 	-0.000327774 	0.116711
0.0139967 	-0.0023524 	-0.000299995 	0.111901
0.0140468 	-0.00230813 	-0.000273023 	0.106888
0.014097 	-0.00225493 	-0.000246961 	0.101656
0.0141472 	-0.0021921 	-0.000221883 	0.0961886
0.0141973 	-0.00211877 	-0.000197813 	0.090465
0.0142475 	-0.0020324 	-0.000174977 	0.0844375
0.0142977 	-0.00193463 	-0.000153314 	0.0781666
0.0143478 	-0.00182589 	-0.000132909 	0.0716885
0.014398 	-0.00170695 	-0.000113825 	0.0650573
0.0144482 	-0.00157897 	-9.611e-05 	0.0583482
0.0144983 	-0.00144344 	-7.98217e-05 	0.0516531
0.0145485 	-0.00130189 	-6.50149e-05 	0.0450714
0.0145987 	-0.00115569 	-5.17242e-05 	0.0386974
0.0146488 	-0.00100584 	-3.99664e-05 	0.0326077
0.014699 	-0.000853017 	-2.97431e-05 	0.0268545
0.0147492 	-0.00069801 	-2.10513e-05 	0.0214656
0.0147993 	-0.000542447 	-1.39338e-05 	0.0164478
0.0148495 	-0.000390239 	-8.15606e-06 	0.011791
0.0148997 	-0.000248965 	-3.94718e-06 	0.00748262
0.0149498 	-0.000122879 	-1.39517e-06 	0.00354104
0.015 	0 	0 	0
