/*--------------------------------*- C++ -*----------------------------------*\
| =========                 |                                                 |
| \\      /  F ield         | OpenFOAM: The Open Source CFD Toolbox           |
|  \\    /   O peration     | Version:  v1912                                 |
|   \\  /    A nd           | Website:  www.openfoam.com                      |
|    \\/     M anipulation  |                                                 |
\*---------------------------------------------------------------------------*/
FoamFile
{
    version     2.0;
    format      ascii;
    class       volScalarField;
    location    "200";
    object      pPrime2Mean;
}
// * * * * * * * * * * * * * * * * * * * * * * * * * * * * * * * * * * * * * //

dimensions      [2 -2 -4 0 0 0 0];


internalField   nonuniform List<scalar> 
204768
(
0.116507
0.116867
0.11692
0.11718
0.117226
0.116728
0.117144
0.116814
0.117285
0.117155
0.117931
0.117403
0.117018
0.117825
0.117455
0.117588
0.117802
0.117943
0.117157
0.116528
0.11684
0.116827
0.117031
0.117399
0.117044
0.116272
0.116867
0.116787
0.116291
0.116583
0.116432
0.116444
0.116932
0.117266
0.116209
0.116753
0.116966
0.116907
0.116653
0.116919
0.116915
0.117405
0.117109
0.117514
0.117239
0.117863
0.117289
0.117277
0.117052
0.117542
0.117189
0.117163
0.117096
0.116686
0.117167
0.1171
0.117157
0.117012
0.11702
0.116772
0.116945
0.116789
0.11688
0.116798
0.116499
0.116735
0.116459
0.116634
0.116495
0.11721
0.116846
0.116734
0.116821
0.116371
0.116508
0.116879
0.117653
0.11669
0.117233
0.117102
0.116999
0.117159
0.117235
0.117302
0.117435
0.117357
0.117258
0.117058
0.117359
0.117689
0.117582
0.117035
0.117161
0.117531
0.117373
0.116913
0.116543
0.117075
0.116545
0.117075
0.116264
0.116646
0.116737
0.117296
0.116667
0.116423
0.117313
0.116949
0.11747
0.116819
0.117311
0.116957
0.117098
0.116894
0.117346
0.117588
0.117754
0.116655
0.117956
0.117317
0.117683
0.117773
0.11801
0.11795
0.117981
0.117163
0.118408
0.117468
0.117661
0.116983
0.116999
0.116894
0.117319
0.117569
0.11676
0.117374
0.117039
0.116978
0.116961
0.116844
0.116707
0.117208
0.117029
0.117073
0.117086
0.116697
0.116911
0.116854
0.117283
0.117128
0.117682
0.117325
0.117695
0.117334
0.117962
0.11735
0.118637
0.117579
0.117922
0.117655
0.117455
0.117668
0.117277
0.117134
0.117651
0.11759
0.116699
0.117523
0.116993
0.116402
0.116896
0.116726
0.116814
0.11713
0.116522
0.117033
0.117075
0.116978
0.116827
0.116932
0.116844
0.116713
0.117386
0.117434
0.11677
0.117414
0.117493
0.117178
0.117704
0.117792
0.117523
0.116951
0.117558
0.118198
0.117636
0.117739
0.117935
0.117407
0.117527
0.117527
0.117079
0.117252
0.117529
0.116905
0.11713
0.11661
0.116861
0.11648
0.116587
0.117094
0.116503
0.116953
0.117014
0.117222
0.116648
0.116606
0.117027
0.117006
0.116852
0.117352
0.117571
0.117571
0.117258
0.11824
0.117081
0.117525
0.118179
0.117229
0.117525
0.117439
0.117554
0.117912
0.117859
0.117275
0.117561
0.116793
0.117331
0.117327
0.116892
0.117117
0.117926
0.116718
0.117041
0.116821
0.117338
0.116997
0.116732
0.116785
0.116905
0.11665
0.116291
0.116529
0.11673
0.116625
0.117132
0.11688
0.117807
0.116623
0.116825
0.117517
0.117432
0.117455
0.117605
0.117809
0.117556
0.118013
0.117352
0.117466
0.117908
0.117222
0.117565
0.117231
0.117111
0.116991
0.117237
0.117321
0.117001
0.116867
0.116804
0.117643
0.117271
0.116991
0.117418
0.116644
0.116755
0.116735
0.117285
0.117226
0.116711
0.11684
0.11688
0.117268
0.116661
0.117729
0.11734
0.117161
0.117727
0.117235
0.117235
0.117342
0.117226
0.117365
0.117659
0.117365
0.117422
0.117374
0.118048
0.117786
0.117847
0.116823
0.116934
0.117085
0.116869
0.1166
0.116608
0.116575
0.116983
0.116774
0.116976
0.116659
0.116426
0.117121
0.116558
0.117392
0.116764
0.117073
0.117094
0.117172
0.117182
0.117367
0.116888
0.117504
0.117565
0.11729
0.116896
0.117508
0.117342
0.117525
0.117546
0.117502
0.11784
0.117502
0.117203
0.117153
0.117962
0.117779
0.116894
0.116898
0.117037
0.117083
0.117083
0.116049
0.116322
0.116198
0.116289
0.116535
0.11721
0.116747
0.116522
0.116974
0.116964
0.117262
0.116896
0.117361
0.117146
0.116871
0.11754
0.11713
0.117266
0.11767
0.117525
0.117996
0.117172
0.117897
0.117481
0.117485
0.118002
0.117718
0.117516
0.117283
0.11776
0.116882
0.116768
0.116709
0.11722
0.11684
0.116398
0.116858
0.116407
0.116222
0.116842
0.117197
0.117176
0.117558
0.116655
0.117277
0.117607
0.116228
0.1168
0.11647
0.117233
0.117287
0.117384
0.116787
0.117638
0.11742
0.117258
0.117891
0.117519
0.117222
0.117567
0.117651
0.117022
0.117733
0.116894
0.116833
0.117491
0.116877
0.117216
0.116735
0.116787
0.117178
0.117374
0.116638
0.116812
0.116936
0.116829
0.116341
0.116493
0.116354
0.117081
0.11681
0.116676
0.116596
0.11632
0.11659
0.117123
0.117002
0.11721
0.117437
0.117319
0.117733
0.117542
0.11796
0.11776
0.116844
0.118177
0.117842
0.117773
0.11684
0.117498
0.117481
0.117348
0.116848
0.116671
0.116209
0.117283
0.116346
0.116907
0.116707
0.116983
0.116924
0.116316
0.116558
0.117002
0.116817
0.116722
0.116959
0.116692
0.116648
0.117193
0.117493
0.117235
0.117466
0.116901
0.117262
0.117487
0.1175
0.117435
0.116848
0.117983
0.117357
0.117701
0.117271
0.117847
0.117214
0.117527
0.117376
0.117628
0.116716
0.116989
0.117119
0.116941
0.116358
0.116943
0.116388
0.116697
0.116871
0.117022
0.116722
0.116838
0.116924
0.116756
0.117294
0.116211
0.116739
0.116732
0.116652
0.11754
0.117262
0.116728
0.117027
0.117167
0.117136
0.117777
0.117878
0.117931
0.118048
0.117327
0.117767
0.117552
0.117817
0.117983
0.117231
0.117613
0.11648
0.116547
0.116947
0.116552
0.116442
0.116747
0.117319
0.116587
0.116205
0.11648
0.116846
0.116394
0.117367
0.11709
0.116844
0.116848
0.116608
0.116627
0.116867
0.117754
0.116798
0.117071
0.118095
0.117083
0.117426
0.117626
0.117451
0.117289
0.117542
0.117857
0.116989
0.117481
0.117151
0.1178
0.117874
0.117079
0.117281
0.116785
0.117466
0.116266
0.116583
0.116766
0.117012
0.116587
0.116434
0.116915
0.117422
0.116968
0.117275
0.116695
0.116795
0.117006
0.117002
0.117043
0.11747
0.116901
0.116718
0.11713
0.117321
0.117336
0.117311
0.11735
0.117086
0.117308
0.116749
0.117386
0.117138
0.117752
0.117931
0.117418
0.116982
0.11692
0.116846
0.117121
0.117134
0.117277
0.116245
0.11693
0.117197
0.117203
0.116617
0.117153
0.11693
0.116617
0.116272
0.116369
0.116564
0.11657
0.116817
0.116524
0.117025
0.117014
0.117041
0.116924
0.117207
0.116877
0.11722
0.116886
0.116821
0.117338
0.117008
0.117384
0.117472
0.117908
0.118141
0.117504
0.116798
0.117195
0.117374
0.116907
0.117111
0.116234
0.11698
0.116831
0.116043
0.116711
0.116714
0.116978
0.11669
0.117062
0.116631
0.11655
0.116673
0.116686
0.116842
0.116743
0.116724
0.117004
0.116564
0.11685
0.117348
0.117571
0.117126
0.117231
0.117037
0.117495
0.117722
0.117542
0.117792
0.117533
0.117392
0.11702
0.117586
0.117311
0.116554
0.117222
0.116566
0.116529
0.116039
0.116993
0.116318
0.116707
0.116787
0.116886
0.11688
0.117006
0.117289
0.116793
0.116589
0.116995
0.117126
0.116941
0.11754
0.116606
0.117002
0.116861
0.116402
0.117456
0.11751
0.117292
0.116602
0.117638
0.117575
0.117346
0.117184
0.116728
0.117069
0.117054
0.116741
0.116766
0.117723
0.116678
0.117376
0.116455
0.116428
0.116941
0.116308
0.116716
0.116756
0.116282
0.116802
0.116039
0.116436
0.116758
0.116245
0.116066
0.116922
0.116619
0.116688
0.117161
0.116426
0.117044
0.117212
0.117296
0.117355
0.117109
0.116861
0.117735
0.116987
0.117731
0.117128
0.117132
0.117285
0.117477
0.117146
0.117157
0.117702
0.116997
0.117271
0.117083
0.116657
0.116474
0.116528
0.116463
0.116514
0.116667
0.117146
0.116507
0.116695
0.115873
0.116621
0.116488
0.116426
0.116917
0.117004
0.116879
0.117399
0.11729
0.11697
0.117081
0.117332
0.117672
0.117138
0.117414
0.117563
0.117174
0.117495
0.116678
0.117088
0.117071
0.117104
0.116858
0.117266
0.116692
0.116901
0.116497
0.116034
0.116455
0.11661
0.116652
0.116493
0.116287
0.116722
0.116329
0.117088
0.116325
0.116608
0.116867
0.116381
0.117025
0.117172
0.116415
0.116844
0.117025
0.116356
0.117277
0.117579
0.117249
0.117622
0.117216
0.116919
0.117298
0.117441
0.116829
0.116667
0.117043
0.117243
0.116293
0.116796
0.117167
0.116831
0.116671
0.117128
0.116652
0.116419
0.116518
0.116163
0.116402
0.11652
0.116543
0.116598
0.116158
0.116657
0.116961
0.116989
0.116232
0.116507
0.116581
0.11714
0.116976
0.116987
0.117414
0.117498
0.117327
0.116785
0.117083
0.117073
0.117336
0.117102
0.117357
0.116999
0.117323
0.117037
0.116753
0.117128
0.116652
0.116512
0.116623
0.116264
0.116934
0.116558
0.116253
0.116104
0.116924
0.115841
0.116859
0.116392
0.116354
0.116646
0.11665
0.117237
0.11692
0.116547
0.116493
0.116587
0.116743
0.117075
0.117037
0.117365
0.117432
0.116858
0.117409
0.117252
0.117252
0.117525
0.117353
0.117273
0.117348
0.116556
0.116989
0.116703
0.117147
0.11622
0.117085
0.116499
0.116583
0.1168
0.116678
0.116688
0.11631
0.117035
0.11659
0.116562
0.116693
0.116783
0.116991
0.116825
0.116642
0.116634
0.116398
0.116325
0.117407
0.117409
0.116531
0.117092
0.117359
0.116678
0.117273
0.116989
0.117172
0.117935
0.116488
0.116997
0.116859
0.116833
0.11672
0.1166
0.116148
0.116447
0.11709
0.115673
0.115955
0.11664
0.116564
0.116508
0.116882
0.117033
0.116463
0.116779
0.116446
0.116838
0.117105
0.11615
0.116905
0.117243
0.116385
0.11688
0.117014
0.116848
0.117138
0.117104
0.11655
0.117041
0.117626
0.117571
0.117441
0.117271
0.11685
0.117062
0.117002
0.116793
0.116827
0.116882
0.116365
0.117025
0.117174
0.116335
0.116444
0.116974
0.116943
0.115976
0.116402
0.116222
0.116587
0.1161
0.116337
0.116724
0.11628
0.116724
0.116699
0.116516
0.116396
0.116642
0.117027
0.117096
0.117311
0.117369
0.117048
0.11697
0.116877
0.117344
0.116978
0.117336
0.11688
0.11685
0.117336
0.117048
0.117535
0.117147
0.11718
0.116814
0.116335
0.117161
0.116358
0.117117
0.116234
0.116686
0.116398
0.116993
0.116858
0.116732
0.116199
0.1164
0.116695
0.117065
0.116693
0.11624
0.116381
0.116676
0.116804
0.117043
0.117012
0.117006
0.116579
0.117258
0.117123
0.117491
0.116919
0.117016
0.116964
0.117544
0.117184
0.117151
0.117035
0.116772
0.116827
0.11684
0.116848
0.116558
0.116499
0.116465
0.11639
0.1168
0.11659
0.116915
0.116407
0.116285
0.116762
0.116472
0.116821
0.116425
0.116398
0.116711
0.116917
0.117599
0.11628
0.116617
0.117226
0.116915
0.117067
0.116718
0.116913
0.117083
0.117418
0.117237
0.117193
0.116982
0.116705
0.117157
0.116814
0.117073
0.116974
0.117098
0.116827
0.116642
0.116325
0.116617
0.11664
0.116568
0.116095
0.116415
0.116116
0.116398
0.116489
0.11549
0.116398
0.116346
0.116991
0.116718
0.117329
0.117149
0.117023
0.117315
0.116348
0.11652
0.117004
0.117367
0.117044
0.117046
0.116922
0.117279
0.117231
0.117151
0.11657
0.116879
0.117002
0.116495
0.116587
0.116318
0.116837
0.11693
0.116688
0.116709
0.116484
0.116488
0.116295
0.116213
0.116146
0.116743
0.116564
0.116753
0.116169
0.116753
0.116791
0.117027
0.116592
0.11722
0.116373
0.116982
0.11665
0.117542
0.116901
0.117311
0.117287
0.117014
0.117296
0.117308
0.116852
0.11726
0.116854
0.117163
0.116999
0.115864
0.116823
0.116331
0.116461
0.116581
0.115963
0.116787
0.116169
0.115974
0.116066
0.117002
0.116598
0.116661
0.116001
0.116827
0.11627
0.116011
0.116354
0.116737
0.116594
0.11668
0.116571
0.11652
0.117121
0.116648
0.116922
0.116659
0.117191
0.117289
0.116724
0.116579
0.117285
0.117094
0.117603
0.116835
0.116966
0.116755
0.116516
0.116426
0.116867
0.116919
0.115776
0.116198
0.116646
0.116489
0.116962
0.116888
0.116547
0.11594
0.116123
0.115679
0.116312
0.116909
0.116734
0.116858
0.116364
0.116537
0.116575
0.116447
0.11718
0.117098
0.116962
0.116922
0.116936
0.116768
0.116838
0.117485
0.117458
0.11694
0.116432
0.11631
0.116508
0.11676
0.116949
0.116732
0.116814
0.116226
0.116676
0.116308
0.116699
0.116432
0.116829
0.116663
0.116137
0.116709
0.11688
0.11622
0.116707
0.116468
0.116964
0.116564
0.116325
0.116657
0.116701
0.116922
0.116568
0.117023
0.116974
0.117151
0.11636
0.117508
0.116995
0.117193
0.116528
0.117355
0.116837
0.116888
0.11701
0.116636
0.117294
0.116631
0.116758
0.116781
0.116983
0.11681
0.116468
0.116711
0.116781
0.116739
0.115982
0.116074
0.116035
0.116409
0.116215
0.117058
0.116364
0.116119
0.116438
0.116358
0.1171
0.116594
0.117111
0.116856
0.116482
0.117352
0.117413
0.116495
0.116461
0.117222
0.117348
0.117113
0.116432
0.116554
0.116482
0.116915
0.116751
0.116785
0.116571
0.116047
0.116728
0.116051
0.116293
0.116684
0.116613
0.116581
0.11644
0.116608
0.116333
0.116222
0.116219
0.116676
0.116863
0.116699
0.117033
0.117167
0.116583
0.11713
0.11673
0.116356
0.116972
0.117235
0.117741
0.117332
0.116968
0.116571
0.116291
0.116755
0.11664
0.117249
0.116766
0.116577
0.117472
0.117165
0.116159
0.116478
0.116594
0.116503
0.117031
0.115892
0.116175
0.116644
0.116318
0.116159
0.116222
0.116255
0.116608
0.115799
0.11702
0.115982
0.116707
0.116295
0.116526
0.116798
0.11739
0.117407
0.117163
0.116644
0.116856
0.116112
0.117022
0.116579
0.116861
0.116741
0.116531
0.11731
0.116325
0.116619
0.117126
0.116932
0.116079
0.115993
0.116066
0.116367
0.116415
0.11635
0.115705
0.116617
0.116415
0.11644
0.116583
0.116545
0.116371
0.116884
0.116938
0.11718
0.116632
0.116558
0.116547
0.116604
0.11652
0.11684
0.116756
0.116659
0.116581
0.117393
0.116629
0.116692
0.116606
0.116922
0.117002
0.116047
0.116686
0.116074
0.116657
0.116365
0.116449
0.116268
0.116629
0.11598
0.116486
0.116825
0.116096
0.116346
0.116453
0.11636
0.116926
0.116219
0.116583
0.116739
0.116398
0.116409
0.116055
0.116764
0.116289
0.116735
0.116735
0.116695
0.117107
0.116909
0.117317
0.116974
0.116804
0.116968
0.116676
0.11639
0.116676
0.117476
0.116669
0.116419
0.115788
0.116732
0.116198
0.116556
0.116659
0.116253
0.116934
0.116119
0.116219
0.117039
0.116259
0.116367
0.116014
0.116724
0.116226
0.116653
0.116634
0.116867
0.11643
0.116976
0.116762
0.116615
0.116234
0.116827
0.117197
0.117105
0.11701
0.116732
0.11705
0.116749
0.117216
0.116699
0.116875
0.116585
0.11685
0.116432
0.116899
0.116755
0.116478
0.115971
0.116764
0.115641
0.115843
0.11713
0.116699
0.11618
0.116579
0.116648
0.11614
0.117144
0.11611
0.116714
0.116447
0.116713
0.116537
0.116562
0.116142
0.116644
0.116312
0.117163
0.116816
0.116701
0.117073
0.117077
0.116508
0.117012
0.116789
0.116943
0.116459
0.116627
0.117146
0.116304
0.116732
0.116194
0.11651
0.11591
0.116871
0.116177
0.116627
0.116411
0.116873
0.116579
0.115965
0.116634
0.116385
0.116179
0.116333
0.116997
0.116171
0.116888
0.11688
0.116343
0.116241
0.116722
0.116339
0.116238
0.116882
0.116505
0.116415
0.117123
0.116791
0.116684
0.117399
0.116995
0.117039
0.116982
0.117083
0.116016
0.116491
0.116259
0.116581
0.116625
0.116589
0.11681
0.116371
0.116261
0.116484
0.116312
0.116753
0.116802
0.116436
0.116375
0.116449
0.11628
0.116489
0.116285
0.116379
0.116869
0.116306
0.116686
0.116852
0.116831
0.116985
0.117222
0.116617
0.116846
0.116533
0.116705
0.116796
0.11706
0.116409
0.116653
0.116365
0.117071
0.116079
0.116575
0.116507
0.116102
0.116964
0.11669
0.116776
0.116182
0.116087
0.116529
0.116158
0.116266
0.116421
0.11623
0.11676
0.116518
0.116455
0.116461
0.1161
0.116602
0.116829
0.116518
0.116251
0.116096
0.117186
0.116362
0.116934
0.117325
0.116718
0.11623
0.11681
0.116854
0.116604
0.116606
0.116615
0.116978
0.116671
0.116455
0.116846
0.117094
0.116703
0.116684
0.116587
0.116262
0.117233
0.116507
0.116383
0.11685
0.116123
0.115992
0.115738
0.116339
0.116425
0.116838
0.117014
0.116371
0.116295
0.116182
0.116852
0.115858
0.117214
0.116499
0.116806
0.116823
0.117012
0.116846
0.117393
0.116768
0.117041
0.117123
0.11639
0.116295
0.116365
0.116125
0.116688
0.116793
0.117496
0.116224
0.116945
0.116261
0.116642
0.116657
0.116478
0.116528
0.116953
0.116493
0.116039
0.116297
0.116535
0.116619
0.115984
0.117008
0.116226
0.116598
0.116547
0.11659
0.116793
0.116636
0.116411
0.116928
0.117496
0.116537
0.116903
0.116507
0.116774
0.11655
0.116537
0.116632
0.116718
0.116758
0.116135
0.116978
0.117327
0.116493
0.116791
0.116528
0.115841
0.116415
0.116692
0.116793
0.116606
0.116184
0.116743
0.116455
0.116293
0.116499
0.116491
0.11659
0.116968
0.11681
0.117033
0.117224
0.11717
0.11665
0.117321
0.116964
0.116932
0.116476
0.116541
0.116762
0.117067
0.117281
0.116161
0.116266
0.116447
0.116585
0.116631
0.116405
0.116623
0.116756
0.116749
0.116682
0.116247
0.116571
0.117044
0.117271
0.116575
0.116062
0.1166
0.116461
0.116613
0.116293
0.115875
0.115946
0.116764
0.117144
0.11628
0.116564
0.116772
0.117008
0.116974
0.117178
0.116514
0.11681
0.116348
0.117048
0.1164
0.116413
0.116642
0.116989
0.116758
0.11636
0.116659
0.11628
0.116772
0.117264
0.116785
0.115688
0.116777
0.116152
0.115885
0.116781
0.116699
0.11673
0.115955
0.11623
0.116385
0.116747
0.116844
0.11729
0.116911
0.116529
0.116501
0.116711
0.116718
0.117409
0.117065
0.11693
0.116663
0.117344
0.116558
0.116949
0.116405
0.116779
0.116659
0.116608
0.11702
0.116213
0.117075
0.116564
0.116465
0.11692
0.116289
0.116955
0.116421
0.116234
0.116812
0.116625
0.116491
0.116596
0.116846
0.115938
0.117373
0.116184
0.116091
0.116581
0.116783
0.117228
0.116911
0.116327
0.117266
0.116745
0.117115
0.116941
0.117231
0.116716
0.116482
0.116463
0.116297
0.116743
0.116526
0.116537
0.115993
0.116642
0.116438
0.116806
0.116556
0.116508
0.11661
0.117296
0.11681
0.116142
0.116806
0.116283
0.116238
0.116619
0.116579
0.11623
0.117403
0.116615
0.116621
0.117006
0.116461
0.116405
0.117205
0.116869
0.116983
0.116056
0.116362
0.117102
0.116459
0.11668
0.117228
0.116949
0.116446
0.116238
0.116669
0.116869
0.116182
0.116863
0.116564
0.116898
0.116531
0.116238
0.116734
0.1168
0.116352
0.116356
0.116499
0.116272
0.116455
0.116613
0.116592
0.116364
0.116951
0.116478
0.116434
0.116829
0.116724
0.116594
0.116646
0.117235
0.116825
0.117184
0.116785
0.116539
0.116709
0.116587
0.116556
0.116478
0.116507
0.116722
0.116617
0.116598
0.117197
0.116871
0.116276
0.116688
0.11692
0.116686
0.117159
0.116852
0.116779
0.116289
0.116449
0.11627
0.116903
0.11669
0.116495
0.116636
0.116932
0.116463
0.116516
0.116531
0.116318
0.116665
0.117311
0.117075
0.116318
0.117332
0.116686
0.117065
0.1168
0.116604
0.117165
0.116959
0.116922
0.116459
0.116837
0.11669
0.116524
0.116982
0.116827
0.116514
0.116764
0.117165
0.11655
0.11632
0.11729
0.116476
0.115932
0.116432
0.116556
0.11622
0.116699
0.11672
0.117035
0.116365
0.116737
0.117094
0.117018
0.116783
0.116196
0.116587
0.117298
0.116898
0.117062
0.11657
0.116838
0.11731
0.117271
0.116663
0.116718
0.116264
0.116343
0.11631
0.116917
0.116899
0.116873
0.1171
0.116947
0.116468
0.116508
0.116196
0.116837
0.117086
0.116602
0.117075
0.116529
0.116812
0.116467
0.116983
0.117092
0.116894
0.117092
0.116442
0.116472
0.116581
0.116732
0.11694
0.117285
0.117378
0.116735
0.116726
0.116982
0.116562
0.11681
0.116409
0.116333
0.116566
0.116783
0.117035
0.117001
0.11739
0.116596
0.116535
0.116411
0.116964
0.116922
0.116724
0.116604
0.116663
0.116879
0.116907
0.116129
0.116642
0.117279
0.116871
0.1171
0.11659
0.116463
0.116583
0.117247
0.116827
0.116758
0.11692
0.116722
0.116865
0.11684
0.116516
0.116924
0.117426
0.116983
0.116877
0.116791
0.116753
0.117126
0.116695
0.115818
0.116549
0.116697
0.116453
0.116112
0.117067
0.11698
0.116339
0.116716
0.11735
0.116768
0.116274
0.116396
0.116945
0.117075
0.117155
0.116831
0.116508
0.117233
0.116764
0.116507
0.117525
0.116331
0.11754
0.116983
0.116686
0.11714
0.116762
0.11689
0.116739
0.117056
0.116394
0.116791
0.116575
0.117041
0.116266
0.116451
0.116539
0.11672
0.116766
0.116556
0.117367
0.116377
0.116554
0.116749
0.116865
0.117214
0.117064
0.116957
0.117064
0.116909
0.116875
0.116795
0.116993
0.11685
0.117241
0.116568
0.116823
0.117033
0.116676
0.117792
0.116919
0.117115
0.116676
0.116577
0.116615
0.11727
0.117043
0.117117
0.116251
0.116766
0.116594
0.117384
0.116978
0.11636
0.116764
0.116911
0.117088
0.116592
0.116739
0.116695
0.11655
0.1171
0.116611
0.116913
0.116655
0.116594
0.116575
0.116968
0.116714
0.116562
0.116783
0.117197
0.117378
0.116848
0.117029
0.117466
0.116501
0.116856
0.117012
0.116442
0.117771
0.116894
0.116615
0.11702
0.117044
0.116762
0.116617
0.116875
0.116968
0.116745
0.11647
0.116482
0.116974
0.116917
0.116915
0.116619
0.116789
0.117161
0.116783
0.117327
0.116198
0.116978
0.116222
0.116693
0.116741
0.116615
0.117205
0.116472
0.117031
0.116571
0.116947
0.116718
0.116747
0.116585
0.11713
0.117218
0.117016
0.117004
0.117065
0.117315
0.116491
0.116686
0.116974
0.116608
0.117357
0.116955
0.116879
0.11644
0.11697
0.117184
0.11714
0.116623
0.11618
0.116676
0.116503
0.116589
0.116678
0.116486
0.116566
0.116812
0.117025
0.117008
0.117321
0.116945
0.117435
0.116692
0.116629
0.117285
0.116396
0.117069
0.116568
0.116903
0.11738
0.116768
0.116482
0.116491
0.11664
0.116585
0.116783
0.11726
0.116911
0.116596
0.11656
0.116833
0.116844
0.116465
0.116796
0.117073
0.117018
0.116514
0.116896
0.116413
0.116745
0.116562
0.116726
0.116388
0.116583
0.116589
0.117195
0.117159
0.117182
0.117149
0.116562
0.116751
0.117697
0.11681
0.117012
0.117229
0.116669
0.117083
0.116421
0.116816
0.117239
0.116638
0.117023
0.117081
0.116604
0.116898
0.116415
0.116381
0.117119
0.116898
0.116779
0.116978
0.117002
0.11684
0.116617
0.116726
0.116776
0.117098
0.116913
0.117054
0.116863
0.117231
0.116871
0.117197
0.11673
0.116579
0.11639
0.11718
0.116936
0.117126
0.116602
0.116999
0.117441
0.116642
0.116943
0.116474
0.116955
0.11693
0.117092
0.116659
0.117182
0.11694
0.116377
0.116848
0.117119
0.116859
0.117146
0.117348
0.117132
0.11582
0.116791
0.117254
0.116674
0.116714
0.117327
0.116858
0.116564
0.116844
0.117035
0.116732
0.116571
0.11705
0.117729
0.116972
0.117159
0.117559
0.116789
0.11725
0.116644
0.117689
0.116772
0.116777
0.117188
0.117203
0.117088
0.117193
0.116983
0.116812
0.11714
0.117188
0.11718
0.117348
0.117197
0.116549
0.116459
0.117262
0.117275
0.116653
0.117037
0.116699
0.116968
0.11656
0.116421
0.117559
0.117783
0.116648
0.117783
0.11676
0.116991
0.11697
0.117069
0.117191
0.11676
0.117399
0.117584
0.116999
0.116764
0.116673
0.116888
0.116783
0.117844
0.117418
0.116734
0.116745
0.117031
0.117332
0.116993
0.116783
0.116789
0.117455
0.117218
0.117031
0.117237
0.11714
0.116961
0.117542
0.117062
0.117332
0.11706
0.117146
0.116695
0.116859
0.117062
0.117159
0.117355
0.117432
0.117598
0.117657
0.117096
0.117468
0.11729
0.117043
0.116888
0.116905
0.117088
0.11688
0.116861
0.117073
0.11702
0.117596
0.117046
0.116919
0.117039
0.116293
0.116743
0.117193
0.116837
0.116789
0.117151
0.11721
0.11701
0.117567
0.11688
0.11688
0.11725
0.116549
0.11717
0.116831
0.116693
0.116886
0.116903
0.117218
0.117052
0.117573
0.117643
0.117493
0.117048
0.116753
0.117243
0.1171
0.116966
0.117277
0.117315
0.117325
0.116932
0.117374
0.116964
0.116705
0.11725
0.116804
0.116821
0.117245
0.116573
0.117271
0.117008
0.117249
0.116911
0.116741
0.117403
0.11713
0.116432
0.117014
0.116455
0.116392
0.117134
0.116657
0.117128
0.11651
0.117714
0.117104
0.116745
0.116957
0.117632
0.117342
0.117582
0.116888
0.117569
0.116751
0.117035
0.116587
0.11665
0.116966
0.117245
0.116978
0.117002
0.116528
0.117125
0.116915
0.117258
0.116735
0.117167
0.116219
0.117174
0.117054
0.117029
0.117094
0.117218
0.117435
0.117607
0.117384
0.116873
0.117083
0.116627
0.117407
0.117346
0.117325
0.11721
0.117125
0.117168
0.116547
0.117458
0.117357
0.117159
0.117407
0.11731
0.117075
0.116947
0.117153
0.116539
0.11768
0.117241
0.116753
0.117479
0.116638
0.117174
0.117716
0.116896
0.11681
0.116989
0.116766
0.117268
0.117439
0.117283
0.117119
0.116968
0.117199
0.117239
0.117243
0.116589
0.116812
0.116873
0.116812
0.116947
0.117493
0.117016
0.116974
0.117744
0.117414
0.117596
0.117039
0.117098
0.116806
0.117168
0.116886
0.116861
0.117149
0.117006
0.117193
0.117235
0.116739
0.116943
0.116615
0.116896
0.116638
0.117128
0.116882
0.117222
0.11664
0.116854
0.117197
0.117384
0.117302
0.116976
0.117111
0.117817
0.116787
0.117208
0.117411
0.1173
0.117435
0.117506
0.117762
0.117069
0.117355
0.116833
0.117798
0.116896
0.116684
0.116735
0.117041
0.116535
0.117058
0.117235
0.11701
0.117025
0.116482
0.11743
0.117495
0.116911
0.117504
0.116873
0.117125
0.117722
0.116686
0.116966
0.116795
0.117434
0.116726
0.116886
0.116766
0.117701
0.117481
0.11702
0.117603
0.116899
0.116512
0.116774
0.116976
0.117329
0.117449
0.11693
0.117012
0.116789
0.117582
0.116983
0.116844
0.117758
0.116976
0.11759
0.116993
0.116989
0.117331
0.11652
0.117533
0.117071
0.117292
0.117363
0.117001
0.116962
0.117231
0.117199
0.116648
0.116936
0.117437
0.116991
0.1173
0.117258
0.116837
0.117123
0.117214
0.117149
0.117174
0.117346
0.117142
0.11746
0.11762
0.116968
0.116838
0.116966
0.117573
0.116936
0.117409
0.117085
0.116949
0.117208
0.117062
0.11698
0.117029
0.11739
0.117966
0.117476
0.117493
0.117033
0.117275
0.116861
0.117678
0.117481
0.117218
0.117363
0.116774
0.116638
0.116949
0.117603
0.117111
0.117168
0.117947
0.116724
0.117632
0.117168
0.117649
0.117445
0.116766
0.117058
0.116953
0.117016
0.1173
0.116507
0.117283
0.117399
0.117702
0.117392
0.11726
0.117504
0.117018
0.11722
0.117205
0.116547
0.117208
0.117258
0.117006
0.117041
0.11754
0.117508
0.117565
0.117086
0.117386
0.117212
0.117485
0.117632
0.117723
0.117132
0.11754
0.117037
0.116867
0.117538
0.1173
0.117212
0.117407
0.116766
0.11705
0.116671
0.117741
0.117332
0.116629
0.116644
0.117418
0.117672
0.117434
0.116508
0.116919
0.117085
0.117411
0.117603
0.117231
0.117451
0.116823
0.117191
0.1171
0.117044
0.116917
0.116596
0.117523
0.117584
0.116888
0.116728
0.117218
0.116846
0.117071
0.116613
0.116879
0.117254
0.117371
0.117468
0.117317
0.117348
0.117435
0.117405
0.11717
0.116953
0.11759
0.117491
0.117054
0.116652
0.117147
0.116961
0.116968
0.117306
0.11743
0.117439
0.116705
0.117502
0.11714
0.116508
0.116913
0.117754
0.116997
0.117563
0.116682
0.117104
0.116795
0.117369
0.117393
0.117733
0.117125
0.117413
0.117279
0.117405
0.11698
0.117311
0.117329
0.11697
0.117479
0.117201
0.117378
0.116915
0.116842
0.11693
0.117655
0.11734
0.117121
0.117601
0.116961
0.117134
0.117058
0.11717
0.117012
0.116747
0.116896
0.116827
0.11701
0.116796
0.117603
0.116442
0.116856
0.116594
0.116631
0.116989
0.116411
0.117311
0.116627
0.117414
0.116804
0.116987
0.117062
0.117393
0.11763
0.117498
0.117098
0.116526
0.117083
0.117405
0.117134
0.117689
0.116335
0.117147
0.116703
0.11684
0.117676
0.116896
0.11656
0.117224
0.117321
0.11673
1.0691
1.06833
1.06854
1.06877
1.06818
1.06859
1.06855
1.06841
1.0683
1.06825
1.06836
1.0685
1.06777
1.06836
1.06746
1.06828
1.06783
1.06728
1.06834
1.06788
1.06782
1.0684
1.06858
1.06864
1.06834
1.06891
1.06841
1.06884
1.06889
1.06912
1.06877
1.06832
1.06892
1.0688
1.06869
1.06872
1.06819
1.06748
1.06843
1.06767
1.06787
1.06777
1.06724
1.06804
1.06762
1.06814
1.06783
1.06766
1.0683
1.06837
1.06886
1.06823
1.06808
1.06784
1.06755
1.06783
1.06816
1.06802
1.0682
1.06853
1.06832
1.06841
1.06886
1.06814
1.06851
1.06889
1.06848
1.06872
1.06855
1.06857
1.06901
1.0683
1.06731
1.06744
1.06749
1.06753
1.06711
1.06716
1.06678
1.06704
1.06743
1.06754
1.06698
1.06693
1.06718
1.06761
1.06779
1.06775
1.06748
1.06744
1.06742
1.06734
1.06752
1.06784
1.06707
1.0678
1.06745
1.06689
1.0681
1.06785
1.06771
1.06734
1.0685
1.06836
1.06763
1.06757
1.06761
1.06709
1.06708
1.06683
1.0666
1.06735
1.06712
1.06657
1.06638
1.06697
1.06656
1.067
1.0672
1.06773
1.06608
1.06726
1.06752
1.06636
1.06693
1.0666
1.06651
1.06709
1.06768
1.06663
1.06681
1.06744
1.06651
1.06736
1.0674
1.06743
1.06754
1.06825
1.06737
1.0674
1.06709
1.06751
1.06709
1.06721
1.06722
1.06696
1.06723
1.06701
1.06691
1.06699
1.06684
1.06667
1.06729
1.06676
1.06666
1.06651
1.06707
1.06662
1.06702
1.0671
1.06734
1.06711
1.06725
1.06673
1.06704
1.06675
1.06671
1.06637
1.0674
1.06764
1.0678
1.06782
1.06725
1.06734
1.06729
1.06729
1.06773
1.06713
1.0672
1.06678
1.06693
1.06744
1.06693
1.06711
1.06671
1.06722
1.06706
1.06675
1.06737
1.06742
1.0666
1.06677
1.06732
1.0671
1.06672
1.06671
1.06678
1.06699
1.06719
1.06651
1.06703
1.06632
1.06695
1.0673
1.06644
1.06714
1.06747
1.06797
1.06776
1.06744
1.06708
1.0673
1.06715
1.06667
1.06681
1.06674
1.0663
1.06731
1.06775
1.06688
1.06704
1.06676
1.06734
1.06681
1.0669
1.06709
1.06769
1.06676
1.0668
1.06703
1.06708
1.06672
1.06721
1.06685
1.06696
1.06701
1.06673
1.06639
1.06658
1.0668
1.06682
1.0669
1.06771
1.06818
1.06763
1.06751
1.06766
1.06739
1.06761
1.06733
1.06697
1.06713
1.06685
1.06706
1.06681
1.06699
1.0673
1.06712
1.06725
1.06765
1.06677
1.0665
1.06665
1.06681
1.06724
1.06737
1.0667
1.06751
1.06633
1.06671
1.06682
1.06709
1.06664
1.06662
1.06702
1.06692
1.06691
1.0668
1.0676
1.06728
1.06725
1.06744
1.06792
1.0671
1.06695
1.06707
1.06693
1.06691
1.06711
1.06717
1.06707
1.06671
1.0666
1.06711
1.06692
1.06765
1.06682
1.06675
1.06713
1.06715
1.06689
1.067
1.0669
1.06701
1.06765
1.06692
1.06671
1.06663
1.06731
1.06738
1.06732
1.06674
1.06687
1.06699
1.06684
1.06766
1.068
1.06745
1.06724
1.06722
1.06749
1.06749
1.0673
1.06722
1.06685
1.06692
1.06674
1.06689
1.06715
1.06729
1.06679
1.06605
1.06724
1.06729
1.06725
1.06721
1.0674
1.06663
1.06748
1.06753
1.06684
1.06729
1.06674
1.06747
1.06707
1.06712
1.06776
1.06744
1.06756
1.0672
1.06751
1.06747
1.06745
1.06713
1.06764
1.06725
1.06731
1.06694
1.06676
1.06711
1.06715
1.06715
1.06709
1.06713
1.06693
1.06705
1.06679
1.06631
1.06641
1.06761
1.06687
1.06704
1.06703
1.06674
1.06698
1.06677
1.06709
1.06638
1.06714
1.06725
1.06697
1.06743
1.06687
1.06688
1.06776
1.06759
1.06736
1.06738
1.06763
1.06737
1.0676
1.06739
1.06723
1.06748
1.06672
1.06758
1.06642
1.06722
1.06643
1.06732
1.06661
1.06741
1.0669
1.06695
1.06653
1.0666
1.06693
1.06723
1.06674
1.0671
1.06724
1.06688
1.06721
1.06746
1.0671
1.06662
1.06667
1.06694
1.06715
1.06735
1.06702
1.06797
1.06695
1.06708
1.06743
1.06786
1.06726
1.06747
1.06726
1.06728
1.06711
1.06657
1.06741
1.06698
1.06698
1.06663
1.06604
1.06683
1.06679
1.06663
1.06725
1.06709
1.06747
1.06693
1.06736
1.06728
1.06745
1.06717
1.06697
1.06688
1.06681
1.06746
1.06639
1.06697
1.06725
1.067
1.06695
1.06761
1.06738
1.06794
1.06772
1.06761
1.06718
1.06725
1.06738
1.06671
1.06687
1.06726
1.06707
1.0674
1.06707
1.06722
1.06703
1.06724
1.06717
1.0673
1.06692
1.06648
1.06677
1.06665
1.06713
1.06684
1.0673
1.06712
1.06732
1.06692
1.06698
1.0671
1.06693