/*--------------------------------*- C++ -*----------------------------------*\
| =========                 |                                                 |
| \\      /  F ield         | OpenFOAM: The Open Source CFD Toolbox           |
|  \\    /   O peration     | Version:  v1906                                 |
|   \\  /    A nd           | Web:      www.OpenFOAM.com                      |
|    \\/     M anipulation  |                                                 |
\*---------------------------------------------------------------------------*/
FoamFile
{
    version     2.0;
    format      ascii;
    class       surfaceScalarField;
    location    "39.2";
    object      phi;
}
// * * * * * * * * * * * * * * * * * * * * * * * * * * * * * * * * * * * * * //

dimensions      [1 0 -1 0 0 0 0];
oriented        oriented;


internalField   nonuniform List<scalar> 
5500
(
3.32004e-05
0.000991238
3.31775e-05
1.26249e-05
-5.81069e-06
8.11031e-05
6.85125e-07
-2.22183e-05
0.000109986
1.35886e-06
-3.51654e-05
0.000121026
3.0197e-07
-3.28837e-05
0.000123792
-3.07392e-07
-3.32407e-05
0.000124799
-1.36298e-06
-3.28867e-05
0.000123794
-6.84315e-07
-3.51734e-05
0.000121033
-1.2619e-05
-2.22266e-05
0.000110003
-5.82238e-06
8.11322e-05
7.32156e-05
0.000900711
7.56817e-05
5.30288e-05
1.08748e-05
0.000230045
2.72937e-05
-1.98354e-05
0.000293227
1.42355e-05
-4.91126e-05
0.000314617
4.58635e-06
-4.91625e-05
0.000320015
-4.5816e-06
-4.97763e-05
0.000321759
-1.42323e-05
-4.91655e-05
0.000320017
-2.72898e-05
-4.91249e-05
0.000314626
-5.30194e-05
-1.98558e-05
0.000293258
1.0848e-05
0.000230109
7.30529e-05
0.000856355
0.000137227
6.46081e-05
4.36235e-05
0.000390271
3.9121e-05
-8.23764e-08
0.00047083
2.05584e-05
-4.3424e-05
0.00049586
6.72624e-06
-4.77225e-05
0.000503647
-6.71314e-06
-4.86734e-05
0.000505927
-2.05487e-05
-4.77235e-05
0.000503649
-3.9115e-05
-4.34369e-05
0.000495871
-6.46003e-05
-1.15255e-07
0.000470868
4.35719e-05
0.000390356
5.38776e-05
0.000899357
0.000239394
6.21411e-05
7.04773e-05
0.000568547
4.21849e-05
2.11399e-05
0.000653991
2.21815e-05
-3.02041e-05
0.000679784
7.29685e-06
-3.97101e-05
0.000689615
-7.27963e-06
-4.10281e-05
0.000692376
-2.21684e-05
-3.97081e-05
0.000689617
-4.21772e-05
-3.02159e-05
0.000679797
-6.21344e-05
2.10956e-05
0.000654033
7.03987e-05
0.000568641
7.26049e-05
0.00091662
0.000414927
6.32415e-05
0.000112194
0.000764342
4.25532e-05
4.2286e-05
0.000852498
2.23391e-05
-1.65326e-05
0.000879495
7.37533e-06
-3.16448e-05
0.000891284
-7.35676e-06
-3.32703e-05
0.000894567
-2.23243e-05
-3.164e-05
0.000891287
-4.2544e-05
-1.65429e-05
0.000879509
-6.32357e-05
4.22342e-05
0.000852542
0.000112093
0.000764438
7.13752e-05
0.000924214
0.000663792
6.21394e-05
0.000142933
0.000983993
4.30066e-05
5.82338e-05
0.00107193
2.27057e-05
-4.94995e-06
0.00110248
7.50998e-06
-2.55605e-05
0.00111651
-7.49187e-06
-2.74204e-05
0.00112045
-2.26902e-05
-2.55539e-05
0.00111652
-4.29957e-05
-4.95932e-06
0.00110249
-6.21333e-05
5.81783e-05
0.00107197
0.000142822
0.000984086
6.77199e-05
0.000902625
0.000973917
6.09169e-05
0.000159299
0.00123037
4.46264e-05
6.71134e-05
0.00131948
2.38768e-05
3.86806e-06
0.0013555
7.88595e-06
-2.17927e-05
0.00137215
-7.87006e-06
-2.38758e-05
0.00137692
-2.38612e-05
-2.1787e-05
0.00137216
-4.46132e-05
3.85754e-06
0.00135553
-6.09097e-05
6.70571e-05
0.00131954
0.000159189
0.00123046
6.64993e-05
0.000834977
0.00132198
6.07807e-05
0.000164662
0.00150917
4.74206e-05
6.82279e-05
0.00160158
2.59614e-05
8.87827e-06
0.00164393
8.52319e-06
-2.0907e-05
0.00166354
-8.51087e-06
-2.33308e-05
0.00166931
-2.59459e-05
-2.0906e-05
0.00166354
-4.74042e-05
8.86295e-06
0.00164395
-6.07709e-05
6.81719e-05
0.00160164
0.00016456
0.00150927
6.7012e-05
0.000722403
0.00169446
6.16919e-05
0.000160359
0.00182847
5.09864e-05
5.95948e-05
0.00192194
2.88963e-05
7.29893e-06
0.00196995
9.41254e-06
-2.49408e-05
0.0019927
-9.40348e-06
-2.78998e-05
0.00199966
-2.88806e-05
-2.49483e-05
0.00199271
-5.09662e-05
7.27469e-06
0.00196998
-6.16785e-05
5.9539e-05
0.00192201
0.000160271
0.00182856
6.66793e-05
0.00209395
0.000578177
6.33711e-05
0.00219242
0.000142596
5.48241e-05
0.00228067
3.77317e-05
3.25875e-05
0.00233232
-5.27833e-06
1.05489e-05
0.00235831
-3.72024e-05
-1.054e-05
0.0023666
-4.08516e-05
-3.25697e-05
0.00235832
-3.72212e-05
-5.47995e-05
0.00233236
-5.31406e-06
-6.33539e-05
0.00228074
3.76763e-05
0.0021925
0.000142524
-3.0389e-05
5.5178e-05
3.87861e-05
-3.0077e-05
-2.06214e-05
0.000101413
-1.85177e-05
-2.47496e-05
0.000123177
-1.08082e-05
-1.7405e-05
0.000130723
-3.44272e-06
-1.83256e-05
0.000134754
3.4369e-06
-1.79864e-05
0.000135907
1.08049e-05
-1.83286e-05
0.000134756
1.8518e-05
-1.74076e-05
0.000130728
3.00847e-05
-2.47538e-05
0.000123191
-2.0617e-05
0.000101437
-2.39609e-05
6.05722e-05
0.000118227
-2.2318e-05
-6.28535e-05
0.000270635
-1.61298e-05
-5.29993e-05
0.00031529
-8.12533e-06
-4.09286e-05
0.000330137
-2.58406e-06
-4.0315e-05
0.000336464
2.58678e-06
-3.97382e-05
0.000338342
8.12787e-06
-4.03185e-05
0.000336467
1.61306e-05
-4.09276e-05
0.000330145
2.23219e-05
-5.30002e-05
0.000315315
-6.28505e-05
0.000270687
-1.415e-05
1.61852e-05
0.000209938
-8.85191e-06
-0.000101497
0.000423617
-6.64703e-06
-7.21636e-05
0.000487791
-2.02104e-06
-5.82196e-05
0.000508527
-6.51242e-07
-5.47124e-05
0.000516676
6.63956e-07
-5.42707e-05
0.000519146
2.03179e-06
-5.47145e-05
0.000516679
6.65004e-06
-5.82089e-05
0.000508536
8.85294e-06
-7.2157e-05
0.000487824
-0.000101505
0.000423691
-6.86736e-06
-5.5713e-05
0.000325033
-6.48877e-07
-0.000123308
0.000584141
-9.49835e-07
-8.07927e-05
0.000662923
1.62415e-06
-6.89469e-05
0.00068794
6.13637e-07
-6.22135e-05
0.000698129
-5.90624e-07
-6.18859e-05
0.000701197
-1.60846e-06
-6.22085e-05
0.000698131
9.632e-07
-6.89321e-05
0.000687951
6.47467e-07
-8.07684e-05
0.000662962
-0.000123316
0.000584228
-3.9539e-06
-0.000114543
0.000481665
5.50386e-06
-0.000137468
0.000769047
2.19975e-06
-8.14469e-05
0.000856458
3.12978e-06
-7.54081e-05
0.000885029
1.27228e-06
-6.65328e-05
0.000897463
-1.24446e-06
-6.59696e-05
0.00090117
-3.10952e-06
-6.65201e-05
0.000897466
-2.19036e-06
-7.53806e-05
0.000885041
-5.50172e-06
-8.14146e-05
0.000856502
-0.00013747
0.00076914
-4.63758e-06
-0.000139323
0.000697841
6.12577e-06
-0.000147889
0.000983653
3.11443e-06
-8.09924e-05
0.00107448
3.58756e-06
-8.07248e-05
0.00110732
1.53468e-06
-7.03071e-05
0.00112234
-1.5033e-06
-6.92704e-05
0.0011268
-3.56389e-06
-7.02863e-05
0.00112235
-3.10128e-06
-8.06847e-05
0.00110734
-6.12127e-06
-8.09508e-05
0.00107453
-0.000147878
0.000983745
-6.13776e-06
-0.000129275
0.000976131
4.21431e-06
-0.000156543
0.00122867
3.16991e-06
-8.21624e-05
0.0013217
3.69623e-06
-8.57158e-05
0.00135997
1.66922e-06
-7.41294e-05
0.00137801
-1.63611e-06
-7.2422e-05
0.00138338
-3.6698e-06
-7.41015e-05
0.00137801
-3.15114e-06
-8.56655e-05
0.00135999
-4.20595e-06
-8.21087e-05
0.00132175
-0.000156506
0.00122876
-5.54306e-06
-0.000101843
0.00130562
2.47048e-06
-0.000161773
0.00150639
3.48468e-06
-8.43638e-05
0.00160277
3.86121e-06
-8.95514e-05
0.00164739
1.8126e-06
-7.73595e-05
0.00166882
-1.78009e-06
-7.4848e-05
0.00167533
-3.8324e-06
-7.73274e-05
0.00166883
-3.45802e-06
-8.94961e-05
0.00164742
-2.45812e-06
-8.42923e-05
0.00160282
-0.000161695
0.00150648
-2.72557e-06
-7.24459e-05
0.00167049
2.97611e-06
-0.000161784
0.00182278
4.6072e-06
-8.50643e-05
0.00192102
4.25457e-06
-9.07883e-05
0.00197154
1.98508e-06
-7.90123e-05
0.00199662
-1.95686e-06
-7.57589e-05
0.00200452
-4.2239e-06
-7.89825e-05
0.00199663
-4.56947e-06
-9.07368e-05
0.00197157
-2.94738e-06
-8.49783e-05
0.00192108
-0.000161639
0.00182286
1.55596e-06
0.00206664
-4.82972e-05
4.74196e-06
0.00218139
-0.000153935
6.80408e-06
0.00227627
-8.27233e-05
5.03194e-06
0.00233084
-8.75307e-05
2.11842e-06
0.00235972
-7.75022e-05
-2.09617e-06
0.00236919
-7.41367e-05
-5.00037e-06
0.00235973
-7.74818e-05
-6.75147e-06
0.00233087
-8.74961e-05
-4.64346e-06
0.00227633
-8.26748e-05
0.00218146
-0.000153628
-1.63775e-05
5.59485e-06
6.59586e-05
-1.52778e-05
-1.298e-05
0.000113294
-1.0317e-05
-7.14299e-06
0.00012536
-6.68284e-06
-3.34235e-06
0.000130433
-2.13645e-06
-3.70959e-06
0.000133918
2.13151e-06
-3.19743e-06
0.000134838
6.67935e-06
-3.71027e-06
0.00013392
1.03173e-05
-3.34507e-06
0.000130437
1.5283e-05
-7.14453e-06
0.000125371
-1.29864e-05
0.000113317
-2.80558e-05
-4.42051e-06
0.000184376
-3.05325e-05
-3.62818e-05
0.000296415
-1.96594e-05
-2.59775e-05
0.000323253
-1.14341e-05
-1.47643e-05
0.000333336
-3.83659e-06
-1.3954e-05
0.000339113
3.83297e-06
-1.32732e-05
0.00034075
1.14318e-05
-1.39552e-05
0.000339115
1.966e-05
-1.47687e-05
0.000333342
3.05377e-05
-2.59773e-05
0.000323271
-3.62998e-05
0.000296462
-2.7326e-05
-3.34241e-05
0.000293616
-3.0949e-05
-6.02461e-05
0.000451206
-2.00785e-05
-4.61955e-05
0.00049714
-1.11353e-05
-2.78979e-05
0.000512719
-3.81721e-06
-2.48393e-05
0.000520246
3.81811e-06
-2.43129e-05
0.000522553
1.11364e-05
-2.48403e-05
0.000520248
2.00801e-05
-2.79014e-05
0.000512728
3.09536e-05
-4.61918e-05
0.000497167
-6.02748e-05
0.000451273
-2.45185e-05
-7.25671e-05
0.000413235
-2.75733e-05
-7.92282e-05
0.000606179
-1.86939e-05
-6.19632e-05
0.000669814
-1.01189e-05
-3.919e-05
0.00069066
-3.48514e-06
-3.34419e-05
0.0007001
3.49005e-06
-3.3152e-05
0.000703064
1.01233e-05
-3.3442e-05
0.000700103
1.86968e-05
-3.9191e-05
0.000690669
2.75784e-05
-6.19565e-05
0.000669847
-7.92665e-05
0.00060626
-2.2514e-05
-0.000110827
0.000564972
-2.44064e-05
-9.17469e-05
0.00078346
-1.79957e-05
-7.21093e-05
0.000860196
-9.6947e-06
-4.83418e-05
0.000885883
-3.30689e-06
-3.98177e-05
0.000897455
3.31419e-06
-3.96807e-05
0.000901081
9.70126e-06
-3.98166e-05
0.000897457
1.8e-05
-4.83394e-05
0.000885894
2.44134e-05
-7.21016e-05
0.000860236
-9.17945e-05
0.000783549
-2.18398e-05
-0.000134789
0.000765501
-2.30038e-05
-9.93331e-05
0.000992406
-1.84664e-05
-7.86277e-05
0.00107647
-1.00431e-05
-5.65804e-05
0.00110714
-3.35925e-06
-4.53092e-05
0.00112115
3.36702e-06
-4.51144e-05
0.00112551
1.00507e-05
-4.53073e-05
0.00112116
1.84726e-05
-5.65752e-05
0.00110716
2.30135e-05
-7.86212e-05
0.00107651
-9.93884e-05
0.000992497
-2.1995e-05
-0.000138188
0.00102354
-2.29833e-05
-0.000105041
0.00123537
-1.95506e-05
-8.33148e-05
0.00132296
-1.08436e-05
-6.43908e-05
0.00135908
-3.53847e-06
-5.05255e-05
0.00137592
3.54484e-06
-4.99423e-05
0.00138113
1.08513e-05
-5.05241e-05
0.00137593
1.95591e-05
-6.43848e-05
0.0013591
2.2996e-05
-8.33106e-05
0.00132301
-0.000105099
0.00123546
-2.15773e-05
-0.000125429
0.00133603
-2.27588e-05
-0.000110168
0.00151271
-2.02499e-05
-8.61008e-05
0.00160305
-1.15912e-05
-7.07983e-05
0.00164515
-3.68964e-06
-5.48307e-05
0.00166523
3.69318e-06
-5.34627e-05
0.00167148
1.15982e-05
-5.48317e-05
0.00166523
2.02615e-05
-7.07954e-05
0.00164517
2.2775e-05
-8.60996e-05
0.0016031
-0.000110225
0.00151279
-1.96998e-05
-0.000106971
0.00169145
-2.12198e-05
-0.000114045
0.00182818
-1.96379e-05
-8.60616e-05
0.0019194
-1.18438e-05
-7.41477e-05
0.00196711
-3.70152e-06
-5.7073e-05
0.00199073
3.70212e-06
-5.45726e-05
0.00199823
1.18503e-05
-5.70785e-05
0.00199074
1.96538e-05
-7.4153e-05
0.00196713
2.12401e-05
-8.60643e-05
0.00191946
-0.000114096
0.00182826
-1.59213e-05
0.00208171
-9.01704e-05
-1.80611e-05
0.00218465
-0.000115165
-1.71967e-05
0.00227214
-8.2787e-05
-1.13796e-05
0.00232373
-7.2849e-05
-3.53943e-06
0.00235109
-5.62818e-05
3.53959e-06
0.00236003
-5.24822e-05
1.13872e-05
0.0023511
-5.62932e-05
1.7217e-05
0.00232376
-7.28662e-05
1.80851e-05
0.0022722
-8.27947e-05
0.00218472
-0.000115211
-5.78157e-06
-3.65638e-06
8.11895e-05
-4.17669e-06
-6.42406e-06
0.000118114
-3.46795e-06
-3.28023e-06
0.000127933
-2.59207e-06
-2.37402e-06
0.000131932
-8.12273e-07
-2.82492e-06
0.000134964
8.10517e-07
-2.45475e-06
0.000135671
2.59012e-06
-2.82394e-06
0.000134965
3.46741e-06
-2.37453e-06
0.000131935
4.17969e-06
-3.28199e-06
0.000127941
-6.43049e-06
0.000118136
-1.24296e-05
-1.83814e-05
0.000223977
-1.27851e-05
-1.78035e-05
0.00030815
-8.89596e-06
-1.32675e-05
0.000329352
-5.66264e-06
-9.35115e-06
0.000337081
-1.98367e-06
-9.71993e-06
0.000342331
1.98468e-06
-9.34474e-06
0.000343673
5.66262e-06
-9.7168e-06
0.000342332
8.89658e-06
-9.35094e-06
0.000337086
1.27891e-05
-1.3269e-05
0.000329367
-1.78164e-05
0.000308192
-1.31219e-05
-4.57373e-05
0.000347231
-1.45398e-05
-3.30438e-05
0.000467865
-9.70356e-06
-2.64124e-05
0.000505451
-5.71281e-06
-1.85929e-05
0.000517972
-2.09285e-06
-1.81178e-05
0.000525026
2.09929e-06
-1.80657e-05
0.000527083
5.71696e-06
-1.81115e-05
0.000525027
9.70586e-06
-1.85897e-05
0.000517979
1.4543e-05
-2.64104e-05
0.000505473
-3.30592e-05
0.000467923
-1.20838e-05
-8.05936e-05
0.000472271
-1.30865e-05
-4.88246e-05
0.000622964
-8.53824e-06
-3.88442e-05
0.000677699
-4.66016e-06
-2.74885e-05
0.000695679
-1.7537e-06
-2.56039e-05
0.000704682
1.7657e-06
-2.60011e-05
0.000707483
4.66869e-06
-2.55936e-05
0.000704684
8.54235e-06
-2.74801e-05
0.000695688
1.3089e-05
-3.88364e-05
0.000677729
-4.88399e-05
0.000623036
-1.09392e-05
-0.000115042
0.00062131
-1.0909e-05
-6.15584e-05
0.000796165
-7.15785e-06
-4.81752e-05
0.000865779
-3.59068e-06
-3.45512e-05
0.000889381
-1.36751e-06
-3.09138e-05
0.000900544
1.38414e-06
-3.17573e-05
0.000904088
3.60313e-06
-3.08989e-05
0.000900546
7.16398e-06
-3.4536e-05
0.000889392
1.09118e-05
-4.81611e-05
0.000865815
-6.15732e-05
0.000796247
-1.02231e-05
-0.000139591
0.000810507
-9.2786e-06
-6.97479e-05
0.000999653
-6.39706e-06
-5.46776e-05
0.00108009
-2.9924e-06
-4.00681e-05
0.00110926
-1.12252e-06
-3.4501e-05
0.00112287
1.14219e-06
-3.57016e-05
0.00112719
3.00796e-06
-3.44817e-05
0.00112288
6.40559e-06
-4.00455e-05
0.00110927
9.28314e-06
-5.46576e-05
0.00108014
-6.97627e-05
0.00099974
-1.01354e-05
-0.000148403
0.00105263
-8.70281e-06
-7.50617e-05
0.00123925
-6.49411e-06
-5.99079e-05
0.00132599
-2.98732e-06
-4.53033e-05
0.00136081
-1.06612e-06
-3.77483e-05
0.00137725
1.08696e-06
-3.91572e-05
0.00138244
3.00496e-06
-3.77256e-05
0.00137726
6.50549e-06
-4.52741e-05
0.00136083
8.71053e-06
-5.98828e-05
0.00132603
-7.50767e-05
0.00123934
-1.03217e-05
-0.000143172
0.00135146
-8.78648e-06
-8.01185e-05
0.00151623
-7.1498e-06
-6.46131e-05
0.00160612
-3.40277e-06
-5.0841e-05
0.00164694
-1.13639e-06
-4.14501e-05
0.00166667
1.15654e-06
-4.28815e-05
0.00167291
3.4214e-06
-4.14257e-05
0.00166667
7.1646e-06
-5.08076e-05
0.00164696
8.79895e-06
-6.45844e-05
0.00160618
-8.01332e-05
0.00151631
-1.01393e-05
-0.000131436
0.00170002
-8.73665e-06
-8.56141e-05
0.00183228
-7.86461e-06
-6.85398e-05
0.00192246
-3.9825e-06
-5.65541e-05
0.00196894
-1.24455e-06
-4.57527e-05
0.0019923
1.26204e-06
-4.69785e-05
0.00199982
4.00105e-06
-4.57294e-05
0.00199231
7.8835e-06
-5.65208e-05
0.00196897
8.75546e-06
-6.85102e-05
0.00192252
-8.56288e-05
0.00183236
-9.09363e-06
0.00208887
-0.000120377
-8.08781e-06
0.00218875
-9.07123e-05
-8.20185e-06
0.00227493
-7.12128e-05
-4.52254e-06
0.00232552
-6.20139e-05
-1.33944e-06
0.00235266
-5.05004e-05
1.3526e-06
0.00236167
-5.12973e-05
4.54009e-06
0.00235267
-5.04816e-05
8.22539e-06
0.00232555
-6.19864e-05
8.11412e-06
0.00227499
-7.11861e-05
0.00218882
-9.07295e-05
-4.81886e-06
-6.99577e-06
9.7831e-05
-3.65514e-06
-3.43185e-06
0.000120383
-2.08008e-06
-2.00393e-06
0.000128363
-1.37019e-06
-3.03474e-07
0.000131526
-3.38524e-07
-9.74069e-08
0.000134031
3.37736e-07
4.10251e-07
0.000134585
1.36952e-06
-9.68485e-08
0.000134031
2.08019e-06
-3.02748e-07
0.000131528
3.65658e-06
-2.00287e-06
0.000128369
-3.43542e-06
0.000120401
-1.28363e-05
-1.4558e-05
0.00025723
-1.35947e-05
-8.12116e-06
0.000313599
-7.65355e-06
-8.923e-06
0.000330331
-5.00067e-06
-2.06396e-06
0.00033619
-1.62166e-06
-1.79266e-06
0.000340649
1.62024e-06
-8.48787e-07
0.000341692
4.99964e-06
-1.79139e-06
0.000340648
7.65463e-06
-2.06314e-06
0.000336193
1.35987e-05
-8.92103e-06
0.000330343
-8.13309e-06
0.000313635
-1.68072e-05
-2.32632e-05
0.000389573
-2.02516e-05
-1.47413e-05
0.000477931
-1.20352e-05
-1.97381e-05
0.000508051
-7.66891e-06
-6.15485e-06
0.000517699
-2.64168e-06
-5.71337e-06
0.000523921
2.64077e-06
-4.63327e-06
0.000525587
7.66852e-06
-5.71146e-06
0.000523921
1.20374e-05
-6.15435e-06
0.000517703
2.0258e-05
-1.97356e-05
0.000508068
-1.47626e-05
0.000477983
-1.80186e-05
-3.53817e-05
0.000520451
-2.30446e-05
-2.25703e-05
0.00063582
-1.45744e-05
-3.20427e-05
0.000681536
-9.07313e-06
-1.21234e-05
0.000696149
-3.19931e-06
-1.11943e-05
0.000704292
3.19942e-06
-1.02222e-05
0.000706675
9.07389e-06
-1.11919e-05
0.000704292
1.45778e-05
-1.21234e-05
0.000696156
2.3053e-05
-3.20401e-05
0.00068156
-2.26004e-05
0.000635885
-1.78378e-05
-5.00466e-05
0.000671676
-2.33524e-05
-2.98996e-05
0.00080901
-1.58811e-05
-4.33345e-05
0.000869601
-9.68483e-06
-1.88767e-05
0.00088994
-3.45265e-06
-1.70752e-05
0.000900196
3.45367e-06
-1.63751e-05
0.000903338
9.68684e-06
-1.70728e-05
0.000900197
1.58861e-05
-1.88775e-05
0.000889949
2.33629e-05
-4.33327e-05
0.000869633
-2.99373e-05
0.000809085
-1.69812e-05
-6.32768e-05
0.000857725
-2.22749e-05
-3.49184e-05
0.00100997
-1.65447e-05
-5.19847e-05
0.00108302
-9.92267e-06
-2.54732e-05
0.00110923
-3.55432e-06
-2.24274e-05
0.00112186
3.55553e-06
-2.20729e-05
0.00112578
9.9257e-06
-2.24258e-05
0.00112186
1.65515e-05
-2.54756e-05
0.00110925
2.22879e-05
-5.19846e-05
0.00108305
-3.49625e-05
0.00101005
-1.59334e-05
-6.94034e-05
0.00109065
-2.07004e-05
-3.69429e-05
0.00124605
-1.70012e-05
-5.76093e-05
0.00132791
-1.00808e-05
-3.1613e-05
0.00136003
-3.61087e-06
-2.70056e-05
0.00137537
3.61105e-06
-2.69782e-05
0.00138012
1.00843e-05
-2.7006e-05
0.00137537
1.70103e-05
-3.16186e-05
0.00136005
2.07164e-05
-5.76117e-05
0.00132796
-3.6992e-05
0.00124613
-1.48309e-05
-6.54755e-05
0.00137722
-1.90543e-05
-3.72198e-05
0.00152073
-1.73412e-05
-6.04316e-05
0.00160723
-1.02501e-05
-3.72268e-05
0.00164547
-3.65732e-06
-3.0845e-05
0.00166392
3.65535e-06
-3.10383e-05
0.00166966
1.02536e-05
-3.08493e-05
0.00166392
1.73527e-05
-3.72377e-05
0.00164549
1.90735e-05
-6.04369e-05
0.00160728
-3.72717e-05
0.00152081
-1.33849e-05
-5.38363e-05
0.00171517
-1.71131e-05
-3.7044e-05
0.00183584
-1.72652e-05
-6.05068e-05
0.00192269
-1.03428e-05
-4.16647e-05
0.00196646
-3.66714e-06
-3.35654e-05
0.00198835
3.66307e-06
-3.37895e-05
0.00199525
1.03463e-05
-3.35753e-05
0.00198836
1.72793e-05
-4.16825e-05
0.00196648
1.71357e-05
-6.05147e-05
0.00192274
-3.70958e-05
0.00183591
-1.11156e-05
0.00209683
-3.95385e-05
-1.4445e-05
0.0021912
-3.61665e-05
-1.63702e-05
0.0022737
-5.73436e-05
-1.02945e-05
0.00232123
-4.34475e-05
-3.61065e-06
0.00234669
-3.42703e-05
3.60694e-06
0.00235489
-3.42241e-05
1.02992e-05
0.0023467
-3.4286e-05
1.63865e-05
0.00232126
-4.34722e-05
1.44702e-05
0.00227375
-5.73529e-05
0.00219127
-3.62154e-05
-6.87051e-07
-1.57873e-06
0.000100789
-1.40643e-06
-1.26892e-06
0.000122371
-1.60836e-06
-2.0465e-06
0.000130612
-1.04634e-06
-2.81031e-06
0.000133775
-3.51626e-07
-2.99607e-06
0.000136333
3.52134e-07
-3.12325e-06
0.000137006
1.04668e-06
-2.99604e-06
0.000136333
1.60804e-06
-2.80921e-06
0.000133777
1.40747e-06
-2.0469e-06
0.000130617
-1.26905e-06
0.000122386
-2.48083e-06
-1.00678e-05
0.000270691
-3.59525e-06
-6.02139e-06
0.000319467
-2.48758e-06
-7.89902e-06
0.000335077
-1.78545e-06
-7.76048e-06
0.000340439
-5.80509e-07
-8.27926e-06
0.000344728
5.83871e-07
-8.42743e-06
0.000345833
1.7877e-06
-8.27819e-06
0.000344728
2.48799e-06
-7.75659e-06
0.000340442
3.59741e-06
-7.89919e-06
0.000335087
-6.02216e-06
0.000319495
-3.68109e-06
-2.66845e-05
0.000413564
-4.71538e-06
-1.36454e-05
0.00048659
-2.47115e-06
-1.5617e-05
0.000513526
-1.78363e-06
-1.29011e-05
0.000522153
-5.86294e-07
-1.36133e-05
0.00052806
5.937e-07
-1.36958e-05
0.000529678
1.78893e-06
-1.36101e-05
0.00052806
2.47315e-06
-1.28929e-05
0.000522157
4.71777e-06
-1.56153e-05
0.000513541
-1.36467e-05
0.000486634
-4.404e-06
-4.6074e-05
0.00054866
-5.29861e-06
-2.22819e-05
0.000645353
-2.33204e-06
-2.3475e-05
0.000686429
-1.55593e-06
-1.7236e-05
0.00069971
-5.17972e-07
-1.7873e-05
0.000707516
5.29606e-07
-1.78622e-05
0.000709796
1.56453e-06
-1.78667e-05
0.000707516
2.33588e-06
-1.72223e-05
0.000699716
5.30116e-06
-2.34697e-05
0.000686451
-2.22838e-05
0.00064541
-4.85085e-06
-6.47298e-05
0.000700045
-5.58838e-06
-3.01962e-05
0.000817664
-2.20773e-06
-3.07379e-05
0.000873486
-1.26946e-06
-2.05546e-05
0.000892323
-4.19909e-07
-2.08057e-05
0.000902281
4.3568e-07
-2.0692e-05
0.000905315
1.28125e-06
-2.07954e-05
0.000902282
2.21364e-06
-2.05344e-05
0.000892332
5.59153e-06
-3.07278e-05
0.000873516
-3.01987e-05
0.000817733
-5.03351e-06
-7.97347e-05
0.000882809
-5.55817e-06
-3.61457e-05
0.00101644
-2.12186e-06
-3.69838e-05
0.00108583
-1.0082e-06
-2.3113e-05
0.00111068
-3.18452e-07
-2.27148e-05
0.00112308
3.37973e-07
-2.24994e-05
0.00112694
1.02279e-06
-2.26998e-05
0.00112309
2.13021e-06
-2.30862e-05
0.00111069
5.56283e-06
-3.69686e-05
0.00108586
-3.61491e-05
0.00101652
-5.00376e-06
-8.85335e-05
0.00110947
-5.24896e-06
-3.97906e-05
0.00124994
-2.12415e-06
-4.19697e-05
0.00132978
-8.42825e-07
-2.52127e-05
0.00136086
-2.44302e-07
-2.40034e-05
0.00137606
2.66608e-07
-2.37033e-05
0.00138082
8.59529e-07
-2.3983e-05
0.00137606
2.13544e-06
-2.51803e-05
0.00136087
5.25648e-06
-4.19499e-05
0.00132982
-3.97951e-05
0.00125002
-4.88717e-06
-9.09189e-05
0.0013894
-4.81941e-06
-4.19725e-05
0.00152285
-2.26198e-06
-4.57073e-05
0.00160842
-7.97457e-07
-2.7123e-05
0.00164592
-2.16564e-07
-2.5026e-05
0.00166437
2.39717e-07
-2.46885e-05
0.0016702
8.15542e-07
-2.50009e-05
0.00166437
2.2768e-06
-2.70875e-05
0.00164594
4.8313e-06
-4.56844e-05
0.00160847
-4.19781e-05
0.00152293
-4.71405e-06
-8.8927e-05
0.00172263
-4.30749e-06
-4.36721e-05
0.00183713
-2.47297e-06
-4.81715e-05
0.00192333
-8.23679e-07
-2.91065e-05
0.0019668
-2.14446e-07
-2.6155e-05
0.00198888
2.3562e-07
-2.58655e-05
0.00199598
8.42354e-07
-2.6128e-05
0.00198888
2.49202e-06
-2.90718e-05
0.00196682
4.32518e-06
-4.8148e-05
0.00192338
-4.36789e-05
0.00183721
-4.32702e-06
0.00210097
-8.43843e-05
-3.55634e-06
0.00219162
-4.48595e-05
-2.5431e-06
0.00227371
-4.91919e-05
-8.36594e-07
0.00232169
-3.12659e-05
-1.9464e-07
0.00234765
-2.77483e-05
2.1136e-07
0.00235622
-2.75986e-05
8.5505e-07
0.00234766
-2.77238e-05
2.5673e-06
0.00232172
-3.12381e-05
3.58061e-06
0.00227376
-4.91705e-05
0.00219169
-4.48684e-05
-3.01782e-06
-4.52259e-07
0.00010728
-2.00488e-06
-7.66918e-07
0.000122126
-7.38176e-07
5.09157e-08
0.000129295
-4.94946e-07
1.89238e-06
0.000131641
-9.14612e-08
2.25821e-06
0.000133673
9.2499e-08
2.67782e-06
0.000134145
4.96012e-07
2.2591e-06
0.000133672
7.39244e-07
1.89406e-06
0.000131641
2.0054e-06
5.3322e-08
0.000129299
-7.67032e-07
0.000122139
-9.20607e-06
5.67045e-06
0.000282993
-1.02295e-05
-2.79965e-07
0.000320004
-6.14741e-06
-2.36903e-06
0.000333417
-4.08132e-06
2.75744e-06
0.00033751
-1.3139e-06
3.14422e-06
0.000341077
1.3137e-06
3.99205e-06
0.000341893
4.08174e-06
3.14577e-06
0.000341075
6.14915e-06
2.76036e-06
0.00033751
1.02332e-05
-2.36553e-06
0.000333423
-2.84946e-07
0.000320029
-1.32477e-05
1.11339e-05
0.000434617
-1.70607e-05
-1.51475e-06
0.000491639
-1.10041e-05
-9.19188e-06
0.000514294
-7.2492e-06
1.22466e-07
0.000521036
-2.4361e-06
2.34044e-07
0.000526159
2.4344e-06
1.36907e-06
0.000527433
7.24867e-06
2.35694e-07
0.000526158
1.10062e-05
1.25615e-07
0.000521037
1.70681e-05
-9.18971e-06
0.000514306
-1.52817e-06
0.000491678
-1.4887e-05
1.04558e-05
0.000579139
-2.06635e-05
-5.77513e-06
0.000655391
-1.40799e-05
-1.90419e-05
0.000689697
-9.19227e-06
-5.45558e-06
0.000700403
-3.15346e-06
-5.61014e-06
0.000707324
3.15105e-06
-4.33071e-06
0.000709195
9.1915e-06
-5.60886e-06
0.000707323
1.40829e-05
-5.45315e-06
0.000700406
2.06743e-05
-1.90423e-05
0.000689715
-5.79719e-06
0.000655443
-1.49967e-05
3.13292e-06
0.000737391
-2.18829e-05
-1.17697e-05
0.000830547
-1.58983e-05
-2.95888e-05
0.000878051
-1.0283e-05
-1.25319e-05
0.000893787
-3.57642e-06
-1.27407e-05
0.000902709
3.5737e-06
-1.14241e-05
0.000905261
1.02825e-05
-1.27402e-05
0.000902708
1.59027e-05
-1.25312e-05
0.000893793
2.18964e-05
-2.95925e-05
0.000878075
-1.17991e-05
0.000830608
-1.44305e-05
-7.85866e-06
0.000922693
-2.17356e-05
-1.72603e-05
0.00102924
-1.69565e-05
-3.88745e-05
0.00109034
-1.0878e-05
-1.98098e-05
0.00111189
-3.82446e-06
-1.97691e-05
0.00112306
3.82121e-06
-1.84944e-05
0.00112636
1.08777e-05
-1.97703e-05
0.00112306
1.69627e-05
-1.98122e-05
0.00111189
2.17518e-05
-3.88821e-05
0.00109037
-1.72957e-05
0.00102931
-1.36013e-05
-1.77203e-05
0.00114657
-2.09298e-05
-2.07758e-05
0.00126079
-1.76256e-05
-4.57676e-05
0.00133337
-1.12507e-05
-2.64708e-05
0.00136115
-3.98546e-06
-2.58805e-05
0.00137491
3.98093e-06
-2.46789e-05
0.00137904
1.12506e-05
-2.58843e-05
0.00137491
1.76342e-05
-2.6478e-05
0.00136116
2.09488e-05
-4.57794e-05
0.00133341
-2.08159e-05
0.00126086
-1.2616e-05
-2.19143e-05
0.00141886
-1.97765e-05
-2.24092e-05
0.00153165
-1.80905e-05
-5.02616e-05
0.00161123
-1.1566e-05
-3.22093e-05
0.00164514
-4.11143e-06
-3.07764e-05
0.00166181
4.10486e-06
-2.95835e-05
0.00166689
1.15656e-05
-3.07838e-05
0.00166181
1.81015e-05
-3.2223e-05
0.00164515
1.97983e-05
-5.02771e-05
0.00161127
-2.2452e-05
0.00153172
-1.13705e-05
-1.93533e-05
0.00174285
-1.82744e-05
-2.31477e-05
0.00184478
-1.82669e-05
-5.23177e-05
0.00192538
-1.18538e-05
-3.62297e-05
0.00196441
-4.21636e-06
-3.37285e-05
0.0019842
4.20819e-06
-3.23737e-05
0.00199035
1.18533e-05
-3.37406e-05
0.0019842
1.82805e-05
-3.62508e-05
0.00196443
1.82989e-05
-5.23348e-05
0.00192542
-2.31904e-05
0.00184485
-9.66519e-06
0.00211429
-1.33075e-05
-1.63159e-05
0.00219849
-2.33592e-05
-1.79517e-05
0.00227388
-5.08473e-05
-1.20968e-05
0.00231611
-3.65e-05
-4.30918e-06
0.00233907
-3.29304e-05
4.30228e-06
0.00234643
-3.11843e-05
1.20979e-05
0.00233907
-3.29463e-05
1.79677e-05
0.00231613
-3.65274e-05
1.63424e-05
0.00227392
-5.08627e-05
0.00219855
-2.33989e-05
1.61272e-06
-3.26154e-06
0.000107321
1.50822e-06
3.34025e-06
0.000118891
1.83763e-06
4.53714e-07
0.000128513
1.53537e-06
-5.59535e-07
0.000132504
5.50502e-07
-8.84325e-07
0.000135543
-5.48275e-07
-1.24364e-06
0.000136489
-1.53445e-06
-8.8402e-07
0.000135543
-1.83839e-06
-5.6007e-07
0.000132506
-1.5082e-06
4.50099e-07
0.000128519
3.33455e-06
0.000118905
2.96615e-06
-1.75624e-05
0.000291367
4.7659e-06
5.18639e-06
0.00031636
5.35126e-06
7.84456e-07
0.000332502
3.558e-06
2.51007e-07
0.000338494
1.32791e-06
-7.30093e-07
0.000343154
-1.31991e-06
-1.21763e-06
0.000344516
-3.55252e-06
-7.28412e-07
0.000343154
-5.35004e-06
2.52184e-07
0.000338496
-4.76668e-06
7.79737e-07
0.000332511
5.177e-06
0.000316384
2.84038e-06
-2.98645e-05
0.000441241
5.79172e-06
7.03104e-06
0.000486845
6.81954e-06
2.5844e-06
0.000511468
4.28729e-06
3.85834e-06
0.000519962
1.62325e-06
2.15615e-06
0.000525939
-1.61054e-06
1.83605e-06
0.000527615
-4.27781e-06
2.16019e-06
0.000525939
-6.81617e-06
3.86359e-06
0.000519965
-5.79314e-06
2.58219e-06
0.000511482
7.02157e-06
0.000486881
1.86849e-06
-3.3229e-05
0.000578768
4.97733e-06
9.36742e-06
0.000649948
6.7823e-06
4.53781e-06
0.000685941
4.29888e-06
8.66976e-06
0.000698077
1.64991e-06
6.37931e-06
0.000705752
-1.63341e-06
6.39761e-06
0.000707919
-4.2862e-06
6.38643e-06
0.000705752
-6.77707e-06
8.68074e-06
0.000698082
-4.97883e-06
4.54042e-06
0.00068596
9.35918e-06
0.000649996
5.16808e-07
-2.85831e-05
0.000731712
3.58763e-06
1.16544e-05
0.000825191
6.37782e-06
5.46408e-06
0.000874337
4.22497e-06
1.33796e-05
0.000891233
1.63718e-06
1.07057e-05
0.000900973
-1.61729e-06
1.11169e-05
0.000903799
-4.20941e-06
1.07163e-05
0.000900973
-6.37075e-06
1.33972e-05
0.00089124
-3.58851e-06
5.47281e-06
0.000874363
1.16481e-05
0.00082525
-2.03554e-07
-2.09855e-05
0.000915505
2.79036e-06
1.39008e-05
0.001024
6.25887e-06
5.84011e-06
0.0010865
4.389e-06
1.78725e-05
0.00110927
1.69719e-06
1.50208e-05
0.00112144
-1.67408e-06
1.57852e-05
0.00112507
-4.37063e-06
1.5035e-05
0.00112144
-6.24968e-06
1.78971e-05
0.00110928
-2.78985e-06
5.85537e-06
0.00108653
1.38959e-05
0.00102407
-1.96094e-07
-1.46261e-05
0.00114061
2.98792e-06
1.66151e-05
0.00125489
6.61703e-06
6.74836e-06
0.00132884
4.87982e-06
2.24226e-05
0.00135834
1.85734e-06
1.9586e-05
0.00137337
-1.83137e-06
2.05793e-05
0.00137794
-4.85878e-06
1.96036e-05
0.00137337
-6.6053e-06
2.24534e-05
0.00135835
-2.98508e-06
6.76938e-06
0.00132888
1.66109e-05
0.00125496
3.02019e-07
-1.07881e-05
0.00141442
4.01145e-06
2.04422e-05
0.00152411
7.3489e-06
8.75181e-06
0.00160589
5.64115e-06
2.6822e-05
0.00164245
2.09576e-06
2.4168e-05
0.00166078
-2.06774e-06
2.51802e-05
0.00166646
-5.61784e-06
2.41884e-05
0.00166078
-7.33405e-06
2.68569e-05
0.00164247
-4.005e-06
8.77639e-06
0.00160594
2.04369e-05
0.00152419
1.24576e-06
-8.2873e-06
0.00173787
5.54197e-06
2.55877e-05
0.00183534
8.31946e-06
1.14247e-05
0.00191993
6.6089e-06
2.99148e-05
0.00196304
2.39137e-06
2.75313e-05
0.00198506
-2.36287e-06
2.82601e-05
0.00199203
-6.5842e-06
2.75529e-05
0.00198506
-8.30096e-06
2.99498e-05
0.00196306
-5.53046e-06
1.14489e-05
0.00191999
2.55765e-05
0.00183541
2.03312e-06
0.00210689
-4.92602e-06
7.47515e-06
0.00218849
3.01554e-05
9.49346e-06
0.0022701
1.31926e-05
7.76236e-06
0.00231842
2.93448e-05
2.75707e-06
0.00234447
2.71457e-05
-2.73034e-06
0.00235294
2.72467e-05
-7.73749e-06
0.00234448
2.71658e-05
-9.47076e-06
0.00231845
2.93736e-05
-7.45737e-06
0.00227015
1.32109e-05
0.00218855
3.01367e-05
1.47124e-06
1.49201e-05
8.94571e-05
5.68762e-06
4.71583e-06
0.00010996
5.04404e-06
7.23884e-06
0.000121919
2.84728e-06
7.41341e-06
0.000127288
9.75386e-07
6.81679e-06
0.000130599
-9.73102e-07
6.9224e-06
0.000131516
-2.84519e-06
6.81774e-06
0.000130599
-5.04165e-06
7.41413e-06
0.000127289
-5.68784e-06
7.24159e-06
0.000121925
4.7138e-06
0.000109976
-4.46837e-06
3.87479e-05
0.000276485
-5.6959e-06
1.38805e-05
0.000308423
-3.0457e-06
9.97571e-06
0.000327116
-1.80106e-06
1.02435e-05
0.000334421
-5.22085e-07
8.93147e-06
0.000339762
5.21783e-07
9.17605e-06
0.000341221
1.80065e-06
8.93349e-06
0.000339761
3.04705e-06
1.0244e-05
0.000334422
5.69943e-06
9.97724e-06
0.000327125
1.38721e-05
0.000308448
-7.81826e-06
6.59784e-05
0.000429667
-1.2131e-05
1.7452e-05
0.000487587
-8.06314e-06
5.75482e-06
0.000511623
-4.78443e-06
6.66207e-06
0.000520267
-1.49325e-06
4.75876e-06