/*--------------------------------*- C++ -*----------------------------------*\
| =========                 |                                                 |
| \\      /  F ield         | OpenFOAM: The Open Source CFD Toolbox           |
|  \\    /   O peration     | Version:  v1906                                 |
|   \\  /    A nd           | Web:      www.OpenFOAM.com                      |
|    \\/     M anipulation  |                                                 |
\*---------------------------------------------------------------------------*/
FoamFile
{
    version     2.0;
    format      ascii;
    class       volScalarField;
    location    "39.2";
    object      pPrime2Mean;
}
// * * * * * * * * * * * * * * * * * * * * * * * * * * * * * * * * * * * * * //

dimensions      [2 -2 -4 0 0 0 0];


internalField   nonuniform List<scalar> 
2000
(
-2.67029e-05
0.132696
0.152946
0.186466
0.209751
0.218004
0.209345
0.18593
0.152544
0.132471
0.0112324
0.13275
0.152237
0.185455
0.208931
0.217182
0.208527
0.184971
0.151682
0.132595
0.00917244
0.137688
0.153202
0.186663
0.210119
0.218546
0.209854
0.186066
0.152641
0.13732
0.058485
0.133966
0.155973
0.18981
0.213493
0.222
0.213188
0.189339
0.155632
0.133741
0.031189
0.13695
0.161449
0.194895
0.218754
0.227367
0.218431
0.194521
0.160788
0.13677
0.0458603
0.143719
0.168835
0.201973
0.225788
0.234468
0.225416
0.201565
0.168449
0.143536
0.07164
0.152996
0.178905
0.211424
0.23488
0.243607
0.234676
0.210981
0.178467
0.152729
0.0984669
0.164686
0.192133
0.223114
0.246527
0.255125
0.246199
0.222685
0.191723
0.164581
0.12558
0.180792
0.208876
0.238081
0.260628
0.269154
0.260389
0.237751
0.208427
0.180513
0.158587
0.201328
0.228724
0.255678
0.276691
0.284998
0.276451
0.25528
0.228409
0.201166
0.293446
0.17251
0.0995121
0.0934582
0.101099
0.105457
0.101053
0.093338
0.0994167
0.172363
0.293432
0.171019
0.0979023
0.0918999
0.0994892
0.103739
0.0991478
0.0916367
0.0975876
0.170887
0.290121
0.168505
0.0964375
0.0906639
0.0981693
0.102644
0.0981426
0.0904388
0.0962486
0.168411
0.272703
0.165312
0.0954189
0.0900307
0.0978889
0.102303
0.0978394
0.0899448
0.0952435
0.165152
0.265398
0.16102
0.0944042
0.0897388
0.0979462
0.10244
0.097805
0.0895214
0.09412
0.16094
0.263031
0.153927
0.0929604
0.0892868
0.0979137
0.102495
0.0979061
0.089077
0.0927181
0.153948
0.247641
0.143915
0.0912857
0.088707
0.0979614
0.102661
0.0979786
0.0885792
0.091177
0.143847
0.214613
0.131754
0.0893784
0.0883846
0.0983143
0.103109
0.098114
0.088129
0.0892429
0.131599
0.175835
0.118719
0.0875473
0.0882301
0.0987511
0.103832
0.0986385
0.0880871
0.0873451
0.118721
0.140568
0.106506
0.0859261
0.088583
0.0992317
0.104319
0.0992393
0.0883598
0.0857697
0.106535
0.363159
0.365931
0.3561
0.358063
0.362478
0.36293
0.36236
0.357878
0.355951
0.365723
0.356915
0.359762
0.35004
0.351984
0.356487
0.356878
0.356335
0.351698
0.349924
0.359739
0.351706
0.354612
0.34487
0.346848
0.351315
0.351658
0.351221
0.346617
0.344788
0.354465
0.348389
0.3526
0.34292
0.344995
0.34944
0.349842
0.349386
0.344761
0.342726
0.352386
0.34746
0.352667
0.343397
0.34536
0.349964
0.350294
0.349823
0.345257
0.343145
0.352583
0.345594
0.351736
0.343027
0.345087
0.349825
0.350193
0.349596
0.344978
0.342989
0.351643
0.342995
0.349934
0.342609
0.34437
0.349077
0.349522
0.348993
0.34416
0.342487
0.349857
0.339787
0.347464
0.341934
0.343472
0.348299
0.348869
0.348169
0.34341
0.341917
0.347326
0.336519
0.344677
0.341431
0.342901
0.347628
0.348345
0.34753
0.342627
0.341208
0.344507
0.333971
0.342012
0.341064
0.342451
0.347454
0.348215
0.347229
0.342237
0.341118
0.341921
0.793562
0.824438
0.802164
0.80686
0.810825
0.80954
0.810692
0.806787
0.802309
0.824566
0.783876
0.814753
0.792435
0.797218
0.801096
0.799969
0.801153
0.797235
0.792625
0.81489
0.776669
0.806908
0.784882
0.789461
0.793512
0.792242
0.793531
0.789633
0.784872
0.807045
0.77564
0.804356
0.782673
0.787399
0.791435
0.7901
0.79138
0.787321
0.782801
0.804344
0.779242
0.805412
0.784552
0.789009
0.79319
0.791901
0.793211
0.789043
0.784605
0.805506
0.781853
0.804956
0.785355
0.789448
0.793943
0.792683
0.793983
0.789478
0.785604
0.805223
0.783028
0.803511
0.785833
0.789093
0.793943
0.792696
0.793978
0.789211
0.785845
0.80365
0.78297
0.800856
0.785522
0.788143
0.793495
0.792238
0.793423
0.788191
0.785521
0.800816
0.781981
0.797102
0.784813
0.786846
0.792496
0.791714
0.792494
0.786839
0.784857
0.797211
0.780388
0.792715
0.784113
0.785671
0.791643
0.79104
0.79166
0.785761
0.784184
0.792795
1.64581
1.66837
1.63186
1.62745
1.61905
1.61282
1.61911
1.62768
1.63205
1.66854
1.63197
1.65425
1.61747
1.61346
1.60511
1.59884
1.6051
1.61354
1.6176
1.65436
1.62036
1.64257
1.606
1.60229
1.59391
1.58787
1.59388
1.60241
1.60609
1.64261
1.61572
1.63854
1.60241
1.59913
1.59093
1.58466
1.59095
1.59922
1.60253
1.63865
1.61691
1.64033
1.60482
1.60163
1.59367
1.58728
1.59356
1.60171
1.60486
1.64046
1.61785
1.64067
1.60597
1.60265
1.59481
1.58846
1.59475
1.60274
1.60599
1.64089
1.61893
1.64005
1.60647
1.60255
1.59521
1.58877
1.59519
1.60267
1.60658
1.64013
1.61885
1.63793
1.60655
1.60162
1.59486
1.58835
1.59494
1.60174
1.60658
1.63814
1.6178
1.63449
1.6064
1.60011
1.59396
1.58728
1.59399
1.60019
1.60638
1.63466
1.61612
1.62968
1.6057
1.59794
1.59227
1.58585
1.59244
1.59789
1.60582
1.62979
2.8285
2.79774
2.7953
2.8156
2.82071
2.82355
2.82082
2.81584
2.79556
2.79785
2.80901
2.77887
2.77623
2.79644
2.80152
2.80451
2.80148
2.7966
2.77643
2.77907
2.79286
2.76415
2.76124
2.78152
2.78646
2.78953
2.78658
2.78171
2.76144
2.76425
2.78719
2.76051
2.75734
2.77775
2.78272
2.7858
2.78287
2.77809
2.75754
2.76068
2.78824
2.76479
2.7611
2.78212
2.78728
2.79021
2.78743
2.78235
2.76136
2.76487
2.78697
2.76689
2.7629
2.78469
2.79003
2.79288
2.79017
2.78488
2.76301
2.76694
2.78471
2.76751
2.76352
2.78607
2.79189
2.79468
2.79201
2.78617
2.7637
2.76776
2.78078
2.76717
2.76349
2.78674
2.7933
2.79589
2.79328
2.78681
2.76367
2.76744
2.77533
2.76624
2.7632
2.78701
2.79449
2.7969
2.79454
2.78706
2.76335
2.76631
2.76901
2.76457
2.7629
2.78651
2.79545
2.79765
2.79552
2.78663
2.76296
2.76446
4.20504
4.2648
4.23447
4.20988
4.18605
4.17617
4.18601
4.21003
4.23435
4.26461
4.18132
4.23931
4.20887
4.1848
4.16066
4.15113
4.16088
4.18481
4.2089
4.2393
4.164
4.2193
4.18834
4.16443
4.14054
4.1308
4.14055
4.16464
4.18833
4.21922
4.16311
4.21308
4.18213
4.15818
4.13423
4.12453
4.13421
4.15816
4.18201
4.21297
4.17442
4.21764
4.18628
4.16227
4.13814
4.12836
4.13822
4.1623
4.18641
4.21765
4.18332
4.21999
4.18845
4.16342
4.13932
4.12946
4.13936
4.16336
4.18835
4.2199
4.19076
4.22025
4.18939
4.16271
4.13862
4.12851
4.13876
4.16268
4.18928
4.22021
4.19712
4.21987
4.18956
4.16086
4.13664
4.12617
4.13666
4.16092
4.18955
4.21983
4.20337
4.21937
4.18962
4.15813
4.13366
4.12277
4.1337
4.15815
4.18957
4.21926
4.2091
4.2184
4.18929
4.15475
4.12967
4.11842
4.12964
4.15475
4.18918
4.21842
6.26695
6.1254
6.10154
6.11473
6.11481
6.11947
6.11503
6.115
6.10202
6.12577
6.23236
6.09388
6.07007
6.08302
6.08318
6.08792
6.08349
6.08335
6.07043
6.09419
6.20369
6.06861
6.04532
6.05863
6.05891
6.06386
6.05914
6.05897
6.0457
6.06891
6.19057
6.05988
6.03776
6.05215
6.05314
6.05811
6.05343
6.05265
6.03812
6.06026
6.18412
6.06236
6.04218
6.05844
6.06029
6.06538
6.06053
6.05877
6.04255
6.06263
6.16866
6.05992
6.04231
6.06118
6.06434
6.06948
6.06454
6.06133
6.04273
6.06018
6.14347
6.05377
6.03923
6.06149
6.0665
6.07176
6.06661
6.06172
6.03961
6.05402
6.11214
6.04466
6.03332
6.05961
6.06718
6.07241
6.06749
6.05985
6.03382
6.04483
6.0789
6.03293
6.02587
6.05629
6.06731
6.07241
6.06748
6.05646
6.02615
6.03302
6.04567
6.01944
6.01836
6.05216
6.06729
6.07221
6.06745
6.05256
6.01858
6.01976
8.49487
8.85583
8.81939
8.64781
8.51427
8.46577
8.51411
8.64734
8.81903
8.85589
8.4587
8.80951
8.77321
8.60136
8.46767
8.419
8.46735
8.60084
8.77298
8.80951
8.43859
8.77707
8.73766
8.56428
8.42963
8.38089
8.42937
8.56375
8.73726
8.77703
8.46637
8.78051
8.73311
8.55707
8.42052
8.37159
8.42036
8.55658
8.73285
8.78045
8.55433
8.81061
8.75306
8.57048
8.43196
8.38206
8.43146
8.56994
8.75269
8.81045
8.63862
8.84138
8.76799
8.57804
8.43585
8.3854
8.43559
8.57748
8.76773
8.84125
8.72621
8.87231
8.77917
8.57982
8.43308
8.38157
8.43281
8.57937
8.77865
8.87223
8.81109
8.90317
8.78602
8.57547
8.42303
8.37
8.4227
8.57513
8.78547
8.90305
8.88805
8.92896
8.78577
8.56375
8.40462
8.34999
8.40423
8.56324
8.78531
8.92868
8.94871
8.93962
8.77355
8.54109
8.37608
8.31951
8.3756
8.54048
8.77306
8.93924
13.0844
12.2707
11.5928
11.1419
10.8739
10.7887
10.873
11.1403
11.5912
12.27
13.08
12.2275
11.5453
11.0957
10.828
10.7431
10.8272
11.0942
11.5437
12.2268
13.1136
12.1785
11.4991
11.054
10.7881
10.7034
10.7871
11.0526
11.4974
12.1778
13.003
12.1444
11.4715
11.0341
10.7707
10.6869
10.7699
11.0328
11.47
12.1435
12.9295
12.1182
11.4543
11.0273
10.768
10.6851
10.767
11.0258
11.4527
12.1174
12.8385
12.0678
11.4214
11.0069
10.7529
10.671
10.752
11.0055
11.4199
12.067
12.6651
11.9913
11.3745
10.9742
10.7265
10.6458
10.7256
10.9727
11.3731
11.9905
12.4381
11.8922
11.3153
10.9299
10.6898
10.6105
10.6889
10.9285
11.3139
11.8914
12.2012
11.778
11.2463
10.8757
10.6449
10.5673
10.644
10.8743
11.2449
11.7771
11.9729
11.6565
11.1714
10.8169
10.597
10.5217
10.5963
10.8156
11.1702
11.6556
0.193798
0.223568
0.248882
0.272907
0.292747
0.30081
0.292402
0.272545
0.248667
0.223345
0.223135
0.242619
0.265186
0.287016
0.305443
0.313211
0.305149
0.286568
0.264889
0.242498
0.245363
0.25769
0.276688
0.2967
0.314068
0.321444
0.313885
0.296259
0.276297
0.257509
0.262157
0.268824
0.284739
0.303368
0.319826
0.327032
0.319498
0.302944
0.284409
0.26862
0.274275
0.27697
0.290258
0.307796
0.323467
0.330528
0.323151
0.307467
0.289957
0.276646
0.282755
0.282616
0.294041
0.310925
0.326103
0.332991
0.325813
0.310484
0.293703
0.282326
0.288443
0.286444
0.296452
0.312944
0.327869
0.334723
0.32765
0.312597
0.296177
0.286209
0.291363
0.288227
0.29756
0.313969
0.328787
0.335306
0.328432
0.31361
0.297226
0.287962
0.291965
0.288336
0.297533
0.313873
0.32852
0.335239
0.328314
0.313417
0.297136
0.288118
0.292051
0.288216
0.297316
0.313749
0.328556
0.33503
0.328142
0.313377
0.297054
0.287941
0.115065
0.0967655
0.0849934
0.0887051
0.0991554
0.104273
0.0992203
0.0884647
0.0846043
0.0966663
0.0999222
0.0903358
0.0839272
0.0886116
0.0986538
0.103413
0.0985165
0.0885162
0.0837708
0.0902328
0.0917835
0.086338
0.0832386
0.0883141
0.0978241
0.102425
0.0977287
0.0881786
0.0830936
0.0863361
0.0872192
0.0838852
0.082592
0.0879765
0.0969505
0.101315
0.0968952
0.0876446
0.082449
0.0838432
0.0844097
0.0823574
0.082058
0.0876789
0.0963364
0.10054
0.0961876
0.0875378
0.0818157
0.0823021
0.0827465
0.0814629
0.0817184
0.0873871
0.0959625
0.100069
0.0957336
0.0871696
0.0814285
0.0812912
0.0817757
0.0807629
0.0814495
0.0872288
0.0957069
0.0997429
0.0956841
0.0871887
0.0813637
0.0807743
0.0807648
0.0801277
0.0808754
0.0867672
0.0951633
0.0992222
0.0949726
0.0865231
0.0807915
0.0799141
0.0797043
0.0790291
0.0798588
0.0857048
0.0940437
0.0981083
0.0938759
0.0856152
0.0797672
0.078989
0.0789833
0.0784531
0.079071
0.0849743
0.0932426
0.0972881
0.0931778
0.0847149
0.0789623
0.0782127
0.332823
0.33988
0.341404
0.342678
0.347471
0.348509
0.34745
0.342512
0.341141
0.339855
0.333261
0.338909
0.341871
0.343231
0.348021
0.349152
0.347952
0.343102
0.341623
0.338886
0.334244
0.33861
0.342733
0.344248
0.348944
0.350281
0.348795
0.344078
0.342607
0.338591
0.335634
0.338924
0.343843
0.345413
0.350176
0.351496
0.34992
0.345409
0.343569
0.338854
0.337053
0.3396
0.34502
0.346975
0.351603
0.352942
0.351393
0.346663
0.344801
0.339396
0.33857
0.340563
0.346472
0.348577
0.353018
0.354626
0.35293
0.348356
0.346249
0.340448
0.340525
0.341936
0.348186
0.350506
0.354919
0.356636
0.354847
0.350113
0.348007
0.341825
0.339409
0.3407
0.347235
0.349495
0.354004
0.355749
0.353849
0.349314
0.34692
0.340616
0.334898
0.336107
0.342682
0.345058
0.349585
0.351225
0.349335
0.344864
0.342459
0.335892
0.329247
0.330378
0.336992
0.339312
0.343782
0.345446
0.343693
0.339159
0.336672
0.330153
0.778851
0.788256
0.783548
0.785013
0.79104
0.791149
0.791077
0.785088
0.783533
0.788311
0.777424
0.78474
0.783123
0.784815
0.790812
0.791372
0.790754
0.784817
0.783047
0.784716
0.776474
0.782196
0.782726
0.784838
0.790766
0.791616
0.790764
0.784876
0.782707
0.782051
0.775547
0.780138
0.782349
0.784988
0.79077
0.791946
0.790789
0.78504
0.782381
0.780102
0.774918
0.77886
0.78248
0.785254
0.791176
0.792463
0.791161
0.785219
0.782434
0.778938
0.775057
0.778532
0.78301
0.786077
0.791956
0.793358
0.79195
0.785917
0.782938
0.778545
0.776068
0.779011
0.78434
0.787256
0.793423
0.794914
0.793352
0.787407
0.784403
0.779081
0.772623
0.775549
0.781336
0.784365
0.790596
0.792078
0.790573
0.784388
0.781431
0.775541
0.764177
0.767002
0.77319
0.776258
0.782454
0.783981
0.78241
0.776188
0.773235
0.766911
0.754658
0.757652
0.763851
0.766809
0.7731
0.774588
0.773108
0.766827
0.763821
0.757557
1.61354
1.62407
1.60453
1.59526
1.59025
1.58385
1.59024
1.59526
1.60464
1.62416
1.61058
1.61883
1.60316
1.59248
1.58814
1.58183
1.58811
1.59258
1.60326
1.61885
1.60811
1.61438
1.60186
1.59027
1.58645
1.58011
1.58634
1.59029
1.60211
1.61451
1.6069
1.61123
1.60102
1.58858
1.58513
1.57907
1.58509
1.58864
1.60107
1.61126
1.60641
1.60927
1.60087
1.58773
1.58473
1.57874
1.58474
1.58786
1.60084
1.60938
1.60711
1.60881
1.60155
1.58816
1.58529
1.57951
1.58536
1.58821
1.60164
1.60874
1.60924
1.61013
1.60379
1.58982
1.58728
1.58159
1.58731
1.5899
1.60377
1.61022
1.60551
1.60621
1.60009
1.5861
1.58355
1.57784
1.58352
1.58613
1.60011
1.60605
1.59415
1.59472
1.58867
1.57455
1.57204
1.56646
1.5721
1.57451
1.58861
1.5948
1.58077
1.58138
1.57525
1.56109
1.55861
1.55297
1.55856
1.56106
1.57514
1.58142
2.76272
2.7625
2.76267
2.78554
2.79591
2.7979
2.79599
2.78568
2.76281
2.76244
2.75779
2.76053
2.76255
2.78434
2.79582
2.79755
2.79591
2.78456
2.76272
2.76052
2.75443
2.75912
2.76265
2.78327
2.7957
2.79719
2.79574
2.78334
2.76296
2.75915
2.75216
2.75841
2.76319
2.78269
2.79589
2.79721
2.79589
2.78299
2.76325
2.75846
2.75117
2.7586
2.76442
2.78314
2.7965
2.79789
2.79664
2.78323
2.76446
2.75867
2.75165
2.7599
2.76627
2.78436
2.79796
2.79936
2.79821
2.78454
2.76639
2.75999
2.75398
2.76274
2.76947
2.78718
2.80106
2.80245
2.80112
2.78729
2.76955
2.76278
2.74842
2.75765
2.7643
2.78184
2.79589
2.7973
2.79599
2.78201
2.76455
2.75768
2.73257
2.74212
2.74876
2.76623
2.78023
2.78154
2.78022
2.76646
2.7489
2.74224
2.71408
2.72376
2.73048
2.74803
2.7621
2.76338
2.76202
2.74818
2.73047
2.72385
4.21243
4.21655
4.18781
4.15063
4.12479
4.11316
4.12493
4.15059
4.18779
4.21652
4.21376
4.21372
4.18555
4.14647
4.12024
4.10821
4.12033
4.14651
4.18549
4.21374
4.21461
4.21116
4.18299
4.14337
4.11708
4.10455
4.1171
4.14345
4.18308
4.21117
4.21552
4.20962
4.18108
4.14153
4.11527
4.10252
4.11531
4.14161
4.18113
4.20947
4.21719
4.20929
4.18057
4.1413
4.11481
4.10194
4.11497
4.1412
4.18062
4.20915
4.22005
4.21053
4.18158
4.14257
4.11629
4.10328
4.11633
4.14267
4.18163
4.21053
4.22547
4.21468
4.18516
4.14642
4.12006
4.10697
4.12016
4.14654
4.18529
4.2147
4.22101
4.20941
4.17964
4.14104
4.11462
4.10145
4.11472
4.14113
4.17949
4.20942
4.20227
4.19044
4.16008
4.12187
4.09546
4.0823
4.0955
4.12199
4.16019
4.1904
4.179
4.16706
4.13664
4.09855
4.07212
4.05886
4.07223
4.09861
4.1366
4.167
6.01826
6.00843
6.0131
6.04947
6.06783
6.07301
6.06805
6.04974
6.01329
6.00862
5.99879
6.00238
6.01059
6.04824
6.06903
6.07421
6.06922
6.04867
6.01093
6.00266
5.98635
6.00043
6.00965
6.04773
6.06967
6.07482
6.06982
6.04795
6.00998
6.00044
5.97874
6.0003
6.00931
6.04722
6.06971
6.07491
6.06995
6.04743
6.0098
6.00039
5.9743
6.00119
6.01001
6.04742
6.0702
6.07524
6.07041
6.04774
6.01038
6.00135
5.97307
6.00393
6.01245
6.04951
6.07227
6.07751
6.07245
6.04993
6.01281
6.00404
5.97597
6.00956
6.01814
6.05483
6.07739
6.08267
6.07771
6.05514
6.01837
6.0097
5.96692
6.00226
6.01058
6.04708
6.0697
6.07491
6.06994
6.04731
6.01097
6.00238
5.94086
5.97706
5.98528
6.02183
6.04454
6.04975
6.04469
6.02215
5.9855
5.97731
5.90987
5.9464
5.95438
5.99109
6.01385
6.01898
6.01406
5.99133
5.95465
5.94654
8.97764
8.93019
8.74519
8.50645
8.33759
8.27968
8.33734
8.50587
8.74456
8.93001
8.97782
8.90197
8.70596
8.46642
8.29648
8.23746
8.29612
8.46581
8.70543
8.90165
8.96254
8.86874
8.66609
8.4288
8.25937
8.20028
8.25918
8.42822
8.66561
8.8686
8.94136
8.83674
8.63062
8.39666
8.22922
8.16991
8.22884
8.39604
8.63004
8.83643
8.92162
8.81039
8.60372
8.37322
8.20748
8.14828
8.20713
8.37264
8.60318
8.81001
8.90781
8.79257
8.58603
8.35837
8.19396
8.13507
8.19359
8.35781
8.58551
8.79224
8.90263
8.78471
8.57856
8.35301
8.18992
8.13135
8.18958
8.35241
8.57795
8.78446
8.88205
8.76224
8.55642
8.33256
8.17059
8.11224
8.17022
8.33209
8.55595
8.76186
8.83767
8.71686
8.51141
8.2884
8.12691
8.06861
8.12651
8.28785
8.51072
8.71658
8.78678
8.6655
8.46011
8.23762
8.07596
8.01788
8.07569
8.23697
8.4597
8.66525
11.7795
11.5409
11.1026
10.7688
10.5607
10.4883
10.5601
10.7675
11.1013
11.5402
11.6399
11.4512
11.0564
10.7433
10.5455
10.476
10.5446
10.7419
11.0551
11.4502
11.5509
11.3938
11.0337
10.7358
10.5449
10.4775
10.5441
10.7344
11.0323
11.393
11.5001
11.3623
11.0259
10.738
10.5517
10.4857
10.5508
10.7366
11.0246
11.3614
11.4755
11.349
11.0273
10.7456
10.5622
10.497
10.5612
10.7442
11.026
11.3482
11.4684
11.3491
11.0362
10.7579
10.5759
10.5111
10.5749
10.7565
11.0349
11.3481
11.4777
11.3633
11.0548
10.7775
10.5958
10.5312
10.5948
10.7763
11.0534
11.3624
11.4768
11.3666
11.0589
10.7806
10.5983
10.5337
10.5972
10.7791
11.0577
11.3655
11.4504
11.3431
11.0347
10.7546
10.5716
10.5066
10.5706
10.7533
11.0333
11.3421
11.4079
11.3024
10.9931
10.7121
10.5285
10.4636
10.5276
10.7107
10.9918
11.3014
)
;

boundaryField
{
    leftWall
    {
        type            calculated;
        value           nonuniform List<scalar> 
100
(
-2.67029e-05
0.293446
0.363159
0.793562
1.64581
2.8285
4.20504
6.26694
8.49487
13.0844
0.132696
0.17251
0.365932
0.824442
1.66838
2.79774
4.26479
6.1254
8.85583
12.2707
0.152946
0.099514
0.3561
0.80217
1.63185
2.7953
4.23447
6.10154
8.81939
11.5928
0.186464
0.0934582
0.358063
0.806862
1.62745
2.81559
4.20988
6.11473
8.64781
11.1419
0.209751
0.101099
0.362478
0.810827
1.61905
2.82071
4.18605
6.11481
8.51427
10.8739
0.218004
0.105457
0.36293
0.809536
1.61282
2.82355
4.17617
6.11946
8.46577
10.7887
0.209345
0.101053
0.36236
0.810692
1.61911
2.82082
4.18601
6.11503
8.51411
10.873
0.18593
0.0933418
0.357874
0.806791
1.62768
2.81584
4.21003
6.115
8.64734
11.1403
0.152544
0.0994186
0.355951
0.802309
1.63205
2.79556
4.23435
6.10203
8.81903
11.5912
0.132471
0.172363
0.365723
0.824568
1.66854
2.79785
4.26461
6.12577
8.8559
12.27
)
;
    }
    rightWall
    {
        type            calculated;
        value           nonuniform List<scalar> 
100
(
0.292049
0.0789814
0.329247
0.754658
1.58077
2.71408
4.179
5.90987
8.78678
11.4079
0.288212
0.0784512
0.330378
0.757647
1.58138
2.72376
4.16706
5.9464
8.6655
11.3024
0.297316
0.0790691
0.336992
0.763853
1.57525
2.73048
4.13664
5.95438
8.46011
10.9931
0.313749
0.0849724
0.339314
0.766809
1.56109
2.74803
4.09855
5.99109
8.23762
10.7121
0.328556
0.0932484
0.343782
0.773098
1.55861
2.7621
4.07211
6.01385
8.07596
10.5285
0.33503
0.0972919
0.345446
0.774588
1.55297
2.76338
4.05887
6.01898
8.01788
10.4636
0.328142
0.0931778
0.343691
0.773102
1.55856
2.76202
4.07223
6.01407
8.07569
10.5276
0.313377
0.0847149
0.339159
0.766823
1.56106
2.74818
4.09861
5.99133
8.23697
10.7107
0.297054
0.0789642
0.336672
0.763821
1.57514
2.73047
4.1366
5.95465
8.4597
10.9918
0.287941
0.0782127
0.330153
0.757557
1.58142
2.72385
4.167
5.94654
8.66525
11.3014
)
;
    }
    leftSides_periodic0
    {
        type            cyclic;
    }
    leftSides_periodic1
    {
        type            cyclic;
    }
    rightSides_periodic0
    {
        type            cyclic;
    }
    rightSides_periodic1
    {
        type            cyclic;
    }
    leftInOut_periodic0
    {
        type            cyclic;
    }
    leftInOut_periodic1
    {
        type            cyclic;
    }
    rightInOut_periodic0
    {
        type            cyclic;
    }
    rightInOut_periodic1
    {
        type            cyclic;
    }
}


// ************************************************************************* //
