/*--------------------------------*- C++ -*----------------------------------*\
| =========                 |                                                 |
| \\      /  F ield         | OpenFOAM: The Open Source CFD Toolbox           |
|  \\    /   O peration     | Version:  v1906                                 |
|   \\  /    A nd           | Web:      www.OpenFOAM.com                      |
|    \\/     M anipulation  |                                                 |
\*---------------------------------------------------------------------------*/
FoamFile
{
    version     2.0;
    format      ascii;
    class       volVectorField;
    location    "39.2";
    object      wallShearStress;
}
// * * * * * * * * * * * * * * * * * * * * * * * * * * * * * * * * * * * * * //

dimensions      [1 -1 -2 0 0 0 0];


internalField   uniform (0 0 0);

boundaryField
{
    leftWall
    {
        type            calculated;
        value           nonuniform List<vector> 
100
(
(-1.54442e-05 -0.165448 0.00596143)
(-8.28413e-06 -0.0166966 -0.172021)
(-1.07768e-05 -0.000650067 -0.138261)
(-8.89566e-06 0.000113205 -0.327949)
(-7.54938e-06 0.000514871 -0.250198)
(-5.66416e-06 -0.000248567 -0.447119)
(-2.48074e-06 0.000380314 -0.27691)
(-3.97702e-06 -5.31111e-05 -0.476098)
(6.71207e-07 -0.000189928 -0.304686)
(1.66771e-05 0.0147314 -0.2657)
(-0.0515993 -0.010182 -0.178563)
(0.050116 0.00217048 -0.351961)
(0.0323233 0.000822123 -0.384578)
(0.0113723 0.00027293 -0.42362)
(0.0106059 0.000187116 -0.417303)
(0.00254787 -1.14261e-05 -0.438196)
(0.00659487 1.52813e-05 -0.439124)
(-0.00263972 -0.000229981 -0.418445)
(-0.00222454 -0.00114006 -0.450944)
(-0.0701911 -0.00536127 -0.260029)
(0.00362449 0.0030029 -0.293826)
(0.035996 0.00262151 -0.438904)
(0.0153221 0.000395449 -0.439713)
(0.00324041 0.000109933 -0.457835)
(0.00142752 9.66798e-05 -0.452285)
(0.00135433 9.34339e-05 -0.460415)
(0.000223086 -8.23463e-05 -0.471549)
(-0.00248763 3.45334e-05 -0.442022)
(-0.00858855 -0.00142335 -0.487772)
(-0.0515335 -0.00475649 -0.325419)
(-0.00321714 0.00415445 -0.34013)
(0.0173169 0.0017452 -0.471541)
(0.0104956 7.11687e-05 -0.453859)
(0.00430942 4.78267e-05 -0.481226)
(0.00295408 -9.61098e-06 -0.456628)
(0.00225927 0.00020706 -0.479108)
(0.00132398 -0.000251347 -0.472963)
(-0.00204892 0.000163544 -0.460302)
(-0.00535812 -0.0014113 -0.493055)
(-0.0319725 -0.00392935 -0.366241)
(-0.00102457 0.00382233 -0.345611)
(0.00983545 0.00183317 -0.487503)
(0.00630583 0.000153843 -0.462561)
(0.00255506 0.000117489 -0.49811)
(0.00110853 -1.40509e-05 -0.460841)
(0.000827744 0.000230752 -0.493393)
(0.000293418 -0.000282124 -0.475212)
(-0.00167439 0.000188016 -0.474356)
(-0.00253273 -0.00133101 -0.498101)
(-0.0162448 -0.00395867 -0.384641)
(4.76522e-06 0.00385411 -0.347885)
(4.46443e-06 0.0018158 -0.492824)
(4.28693e-06 0.000114502 -0.464244)
(1.48354e-06 7.68892e-05 -0.503252)
(1.11128e-06 -6.31371e-05 -0.460545)
(-2.96161e-07 0.000241464 -0.497997)
(-1.57729e-07 -0.00032256 -0.474676)
(-1.85975e-06 0.000223146 -0.47906)
(-1.04515e-06 -0.00132949 -0.499119)
(-9.1933e-06 -0.00394506 -0.390121)
(0.00103021 0.00382251 -0.345611)
(-0.00983056 0.00183353 -0.487513)
(-0.00630131 0.000153897 -0.462564)
(-0.00255312 0.00011741 -0.498116)
(-0.00110845 -1.4074e-05 -0.460838)
(-0.000828624 0.000230771 -0.493397)
(-0.00029587 -0.000282209 -0.475207)
(0.00167213 0.000187992 -0.474358)
(0.00252875 -0.00133109 -0.498097)
(0.016228 -0.00395873 -0.384642)
(0.00322124 0.00415511 -0.340146)
(-0.0173132 0.00174555 -0.471566)
(-0.0104915 7.14665e-05 -0.453871)
(-0.0043065 4.78989e-05 -0.481245)
(-0.00295253 -9.68715e-06 -0.456631)
(-0.00225903 0.000206984 -0.479119)
(-0.00132469 -0.000251503 -0.472958)
(0.00204865 0.000163652 -0.46031)
(0.00535649 -0.0014114 -0.493054)
(0.0319579 -0.00392945 -0.366253)
(-0.00363067 0.00300389 -0.293879)
(-0.0360026 0.00262187 -0.438969)
(-0.0153274 0.000395661 -0.439745)
(-0.00324224 0.00011019 -0.457877)
(-0.00142871 9.66108e-05 -0.4523)
(-0.00135389 9.34991e-05 -0.460445)
(-0.000224468 -8.25369e-05 -0.47155)
(0.00248921 3.48091e-05 -0.442051)
(0.00858738 -0.00142361 -0.487777)
(0.0515315 -0.00475631 -0.32547)
(0.0515876 -0.0101757 -0.178689)
(-0.0501201 0.00216971 -0.352042)
(-0.0323317 0.000822675 -0.384668)
(-0.0113801 0.000273592 -0.423694)
(-0.0106104 0.000187322 -0.417379)
(-0.0025518 -1.14204e-05 -0.43825)
(-0.00659559 1.52938e-05 -0.439168)
(0.00263722 -0.000229417 -0.418497)
(0.00222572 -0.00113992 -0.450981)
(0.0702061 -0.00536182 -0.260134)
)
;
    }
    rightWall
    {
        type            calculated;
        value           nonuniform List<vector> 
100
(
(-1.06889e-06 0.00767926 -0.675925)
(8.11423e-06 0.00185282 -0.479587)
(9.26723e-07 0.000325566 -0.374019)
(-4.12476e-06 -0.000341641 -0.371341)
(-2.00243e-07 -0.000139129 -0.345696)
(-2.30767e-06 -1.47114e-05 -0.378729)
(2.81864e-06 -0.000128862 -0.338389)
(-1.49835e-06 9.0784e-05 -0.39836)
(4.09756e-06 -0.00366509 -0.313499)
(1.2062e-05 -0.00589492 -0.764669)
(-0.00648875 0.00810236 -0.662458)
(0.0135132 0.001844 -0.469488)
(0.00677848 0.000189125 -0.35733)
(0.00511513 -0.000303315 -0.373663)
(-0.00114123 -0.000199711 -0.337146)
(0.00387166 -9.00223e-05 -0.389325)
(-0.00351548 -0.000125638 -0.33262)
(0.00141596 -9.69252e-05 -0.413983)
(-0.0114459 -0.00346128 -0.307016)
(-0.0321089 -0.0052975 -0.795658)
(0.00198895 0.00745806 -0.655999)
(0.0225254 0.000645267 -0.495183)
(0.0105916 8.16275e-05 -0.381773)
(0.00618346 -0.000230193 -0.405286)
(-0.00104122 -9.16265e-05 -0.348883)
(0.00407872 -8.46788e-05 -0.410308)
(-0.00353723 3.7712e-05 -0.336981)
(-0.000337913 -0.000139935 -0.432982)
(-0.0133365 -0.00303737 -0.309693)
(-0.0433561 -0.00472983 -0.823492)
(0.0036916 0.00696912 -0.666199)
(0.0154429 0.000605105 -0.516673)
(0.00651146 0.000345436 -0.392676)
(0.00445615 -0.000195947 -0.422828)
(-0.00101553 -3.28562e-05 -0.351965)
(0.00389869 -0.000129582 -0.428187)
(-0.00275955 0.000120063 -0.341773)
(0.000166254 -0.000206321 -0.453763)
(-0.0111826 -0.00265005 -0.319163)
(-0.034052 -0.00468466 -0.840745)
(0.00151519 0.00687178 -0.670463)
(0.00863661 0.000468302 -0.529479)
(0.00503867 0.000242291 -0.400885)
(0.00329384 -0.000188479 -0.438729)
(0.000138041 -4.86633e-05 -0.357415)
(0.00204607 -0.000184887 -0.442457)
(-0.00131254 0.000139137 -0.345624)
(-0.000534571 -0.000229254 -0.468512)
(-0.00616764 -0.00248077 -0.323843)
(-0.0185961 -0.00464062 -0.855041)
(5.7361e-06 0.00681836 -0.671682)
(5.82185e-06 0.000349674 -0.534886)
(3.8069e-06 0.000251605 -0.404816)
(4.1135e-06 -0.000178914 -0.443564)
(-2.18944e-07 -1.71527e-05 -0.358929)
(1.09125e-06 -0.000158546 -0.445681)
(-2.47593e-06 0.000172937 -0.346188)
(-5.40032e-07 -0.000224579 -0.472245)
(-3.68503e-06 -0.00245448 -0.325)
(-1.35489e-05 -0.00460221 -0.859932)
(-0.0015105 0.00687126 -0.670469)
(-0.00863562 0.000467754 -0.529504)
(-0.00503462 0.000242314 -0.400889)
(-0.00328709 -0.000188466 -0.438746)
(-0.000138713 -4.86517e-05 -0.357411)
(-0.00204417 -0.000184932 -0.442469)
(0.0013071 0.000139177 -0.345615)
(0.000534385 -0.000229273 -0.468523)
(0.00615974 -0.00248056 -0.323835)
(0.0185759 -0.00464035 -0.855056)
(-0.00369048 0.00696895 -0.666212)
(-0.0154563 0.000604764 -0.516709)
(-0.0065154 0.000345131 -0.392682)
(-0.0044546 -0.000195996 -0.422861)
(0.00101481 -3.29075e-05 -0.351964)
(-0.0038976 -0.000129588 -0.42821)
(0.00275726 0.00012016 -0.341762)
(-0.000165891 -0.00020639 -0.453783)
(0.0111793 -0.0026497 -0.319154)
(0.0340417 -0.00468441 -0.840768)
(-0.00199481 0.0074577 -0.656016)
(-0.0225375 0.00064721 -0.49521)
(-0.0105991 8.17105e-05 -0.381761)
(-0.00618947 -0.000230164 -0.405313)
(0.00103971 -9.14734e-05 -0.348878)
(-0.00408163 -8.47585e-05 -0.410337)
(0.0035377 3.79566e-05 -0.336973)
(0.000336253 -0.00014013 -0.433009)
(0.0133384 -0.0030369 -0.309683)
(0.0433608 -0.00472967 -0.823525)
(0.0064799 0.00810234 -0.662472)
(-0.0135085 0.00184606 -0.469504)
(-0.00678056 0.00018938 -0.357319)
(-0.00512433 -0.000303337 -0.373673)
(0.00114003 -0.000199793 -0.33714)
(-0.00387732 -9.00053e-05 -0.389336)
(0.00351836 -0.000125566 -0.332612)
(-0.00141932 -9.70779e-05 -0.413992)
(0.0114512 -0.00346104 -0.307014)
(0.0321288 -0.00529731 -0.795668)
)
;
    }
    leftSides_periodic0
    {
        type            cyclic;
    }
    leftSides_periodic1
    {
        type            cyclic;
    }
    rightSides_periodic0
    {
        type            cyclic;
    }
    rightSides_periodic1
    {
        type            cyclic;
    }
    leftInOut_periodic0
    {
        type            cyclic;
    }
    leftInOut_periodic1
    {
        type            cyclic;
    }
    rightInOut_periodic0
    {
        type            cyclic;
    }
    rightInOut_periodic1
    {
        type            cyclic;
    }
}


// ************************************************************************* //
