-0.0075 	0 	0 	0
-0.0075 	-5.19562e-35 	1.10651e-36 	-8.11344e-33
-0.00745622 	-6.82861e-05 	1.45429e-06 	-0.0106635
-0.00745622 	-6.82861e-05 	1.45429e-06 	-0.0106635
-0.00741165 	-0.000134727 	3.12111e-06 	-0.0215303
-0.00741165 	-0.000134727 	3.12111e-06 	-0.0215303
-0.00736628 	-0.000190199 	4.99357e-06 	-0.0325582
-0.00736628 	-0.000190199 	4.99357e-06 	-0.0325582
-0.0073201 	-0.00023648 	6.24341e-06 	-0.0436255
-0.0073201 	-0.00023648 	6.24341e-06 	-0.0436255
-0.00727309 	-0.000276163 	7.89777e-06 	-0.0546332
-0.00727309 	-0.000276163 	7.89777e-06 	-0.0546332
-0.00722524 	-0.000309675 	9.5631e-06 	-0.0654909
-0.00722524 	-0.000309675 	9.5631e-06 	-0.0654909
-0.00717653 	-0.000336877 	1.13557e-05 	-0.076104
-0.00717653 	-0.000336877 	1.13557e-05 	-0.076104
-0.00712695 	-0.000357605 	1.32338e-05 	-0.0863799
-0.00712695 	-0.000357605 	1.32338e-05 	-0.0863799
-0.00707647 	-0.000371861 	1.51693e-05 	-0.0962341
-0.00707647 	-0.000371861 	1.51693e-05 	-0.0962341
-0.0070251 	-0.000379884 	1.71873e-05 	-0.105603
-0.0070251 	-0.000379884 	1.71873e-05 	-0.105603
-0.0069728 	-0.000382114 	1.92508e-05 	-0.114458
-0.0069728 	-0.000382114 	1.92508e-05 	-0.114458
-0.00691956 	-0.000379091 	2.14246e-05 	-0.122807
-0.00691956 	-0.000379091 	2.14246e-05 	-0.122807
-0.00686537 	-0.000371471 	2.37528e-05 	-0.130685
-0.00686537 	-0.000371471 	2.37528e-05 	-0.130685
-0.00681021 	-0.000360069 	2.61955e-05 	-0.138127
-0.00681021 	-0.000360069 	2.61955e-05 	-0.138127
-0.00675406 	-0.000345727 	2.87999e-05 	-0.145168
-0.00675406 	-0.000345727 	2.87999e-05 	-0.145168
-0.0066969 	-0.000329212 	3.1582e-05 	-0.151843
-0.0066969 	-0.000329212 	3.1582e-05 	-0.151843
-0.00663871 	-0.000311198 	3.45155e-05 	-0.158179
-0.00663871 	-0.000311198 	3.45155e-05 	-0.158179
-0.00657949 	-0.000292251 	3.75819e-05 	-0.164199
-0.00657949 	-0.000292251 	3.75819e-05 	-0.164199
-0.0065192 	-0.000272838 	4.07447e-05 	-0.169927
-0.0065192 	-0.000272838 	4.07447e-05 	-0.169927
-0.00645783 	-0.000253352 	4.3958e-05 	-0.175382
-0.00645783 	-0.000253352 	4.3958e-05 	-0.175382
-0.00639535 	-0.000234134 	4.71787e-05 	-0.180584
-0.00639535 	-0.000234134 	4.71787e-05 	-0.180584
-0.00633176 	-0.000215482 	5.03752e-05 	-0.18555
-0.00633176 	-0.000215482 	5.03752e-05 	-0.18555
-0.00626703 	-0.000197672 	5.35373e-05 	-0.19029
-0.00626703 	-0.000197672 	5.35373e-05 	-0.19029
-0.00620114 	-0.00018098 	5.66698e-05 	-0.194814
-0.00620114 	-0.00018098 	5.66698e-05 	-0.194814
-0.00613406 	-0.000165675 	5.97595e-05 	-0.199129
-0.00613406 	-0.000165675 	5.97595e-05 	-0.199129
-0.00606579 	-0.000151967 	6.27408e-05 	-0.203248
-0.00606579 	-0.000151967 	6.27408e-05 	-0.203248
-0.00599629 	-0.000139915 	6.5508e-05 	-0.20719
-0.00599629 	-0.000139915 	6.5508e-05 	-0.20719
-0.00592554 	-0.000129381 	6.79754e-05 	-0.210986
-0.00592554 	-0.000129381 	6.79754e-05 	-0.210986
-0.00585352 	-0.000120097 	7.01317e-05 	-0.214661
-0.00585352 	-0.000120097 	7.01317e-05 	-0.214661
-0.00578022 	-0.000111863 	7.20541e-05 	-0.218236
-0.00578022 	-0.000111863 	7.20541e-05 	-0.218236
-0.00570559 	-0.000104785 	7.38936e-05 	-0.221705
-0.00570559 	-0.000104785 	7.38936e-05 	-0.221705
-0.00562963 	-9.9362e-05 	7.57374e-05 	-0.225045
-0.00562963 	-9.9362e-05 	7.57374e-05 	-0.225045
-0.00555231 	-9.62746e-05 	7.74061e-05 	-0.22823
-0.00555231 	-9.62746e-05 	7.74061e-05 	-0.22823
-0.0054736 	-9.59716e-05 	7.86372e-05 	-0.231253
-0.0054736 	-9.59716e-05 	7.86372e-05 	-0.231253
-0.00539348 	-9.84845e-05 	7.94018e-05 	-0.234133
-0.00539348 	-9.84845e-05 	7.94018e-05 	-0.234133
-0.00531193 	-0.000103686 	7.98684e-05 	-0.236892
-0.00531193 	-0.000103686 	7.98684e-05 	-0.236892
-0.00522891 	-0.000111556 	8.02245e-05 	-0.239545
-0.00522891 	-0.000111556 	8.02245e-05 	-0.239545
-0.0051444 	-0.000122137 	8.05027e-05 	-0.242097
-0.0051444 	-0.000122137 	8.05027e-05 	-0.242097
-0.00505838 	-0.000135398 	8.08368e-05 	-0.244549
-0.00505838 	-0.000135398 	8.08368e-05 	-0.244549
-0.00497081 	-0.000151273 	8.14058e-05 	-0.246902
-0.00497081 	-0.000151273 	8.14058e-05 	-0.246902
-0.00488168 	-0.000169727 	8.18463e-05 	-0.249158
-0.00488168 	-0.000169727 	8.18463e-05 	-0.249158
-0.00479094 	-0.000190522 	8.1538e-05 	-0.251345
-0.00479094 	-0.000190522 	8.1538e-05 	-0.251345
-0.00469858 	-0.000212944 	8.02837e-05 	-0.253532
-0.00469858 	-0.000212944 	8.02837e-05 	-0.253532
-0.00460456 	-0.000236502 	7.93279e-05 	-0.255792
-0.00460456 	-0.000236502 	7.93279e-05 	-0.255792
-0.00450886 	-0.000262447 	7.98578e-05 	-0.258095
-0.00450886 	-0.000262447 	7.98578e-05 	-0.258095
-0.00441144 	-0.000293332 	8.06831e-05 	-0.260301
-0.00441144 	-0.000293332 	8.06831e-05 	-0.260301
-0.00431227 	-0.000330104 	8.04038e-05 	-0.26233
-0.00431227 	-0.000330104 	8.04038e-05 	-0.26233
-0.00421133 	-0.000371597 	7.89773e-05 	-0.264222
-0.00421133 	-0.000371597 	7.89773e-05 	-0.264222
-0.00410857 	-0.000416731 	7.74286e-05 	-0.266036
-0.00410857 	-0.000416731 	7.74286e-05 	-0.266036
-0.00400397 	-0.000465484 	7.67437e-05 	-0.267808
-0.00400397 	-0.000465484 	7.67437e-05 	-0.267808
-0.0038975 	-0.000518516 	7.67523e-05 	-0.269561
-0.0038975 	-0.000518516 	7.67523e-05 	-0.269561
-0.00378912 	-0.000576831 	7.72522e-05 	-0.271313
-0.00378912 	-0.000576831 	7.72522e-05 	-0.271313
-0.00367879 	-0.000641061 	7.83072e-05 	-0.27307
-0.00367879 	-0.000641061 	7.83072e-05 	-0.27307
-0.00356649 	-0.000709964 	7.97315e-05 	-0.274807
-0.00356649 	-0.000709964 	7.97315e-05 	-0.274807
-0.00345217 	-0.000780977 	8.1434e-05 	-0.276484
-0.00345217 	-0.000780977 	8.1434e-05 	-0.276484
-0.0033358 	-0.000852792 	8.36518e-05 	-0.278085
-0.0033358 	-0.000852792 	8.36518e-05 	-0.278085
-0.00321735 	-0.000925991 	8.65762e-05 	-0.27962
-0.00321735 	-0.000925991 	8.65762e-05 	-0.27962
-0.00309677 	-0.00100132 	9.02192e-05 	-0.281096
-0.00309677 	-0.00100132 	9.02192e-05 	-0.281096
-0.00297403 	-0.00107846 	9.4601e-05 	-0.282512
-0.00297403 	-0.00107846 	9.4601e-05 	-0.282512
-0.00284909 	-0.00115653 	9.9821e-05 	-0.283864
-0.00284909 	-0.00115653 	9.9821e-05 	-0.283864
-0.0027219 	-0.00123477 	0.00010598 	-0.285146
-0.0027219 	-0.00123477 	0.00010598 	-0.285146
-0.00259244 	-0.0013125 	0.000113084 	-0.286349
-0.00259244 	-0.0013125 	0.000113084 	-0.286349
-0.00246065 	-0.00138875 	0.00012115 	-0.287458
-0.00246065 	-0.00138875 	0.00012115 	-0.287458
-0.00232651 	-0.00146198 	0.00013044 	-0.28846
-0.00232651 	-0.00146198 	0.00013044 	-0.28846
-0.00218995 	-0.00153036 	0.000141468 	-0.289354
-0.00218995 	-0.00153036 	0.000141468 	-0.289354
-0.00205095 	-0.00159265 	0.000154496 	-0.290154
-0.00205095 	-0.00159265 	0.000154496 	-0.290154
-0.00190946 	-0.00164855 	0.000169416 	-0.290869
-0.00190946 	-0.00164855 	0.000169416 	-0.290869
-0.00176543 	-0.00169793 	0.000186237 	-0.2915
-0.00176543 	-0.00169793 	0.000186237 	-0.2915
-0.00161881 	-0.0017403 	0.000205077 	-0.292044
-0.00161881 	-0.0017403 	0.000205077 	-0.292044
-0.00146957 	-0.001775 	0.000225979 	-0.292499
-0.00146957 	-0.001775 	0.000225979 	-0.292499
-0.00131765 	-0.00180138 	0.000248946 	-0.292863
-0.00131765 	-0.00180138 	0.000248946 	-0.292863
-0.001163 	-0.00181886 	0.000273967 	-0.293136
-0.001163 	-0.00181886 	0.000273967 	-0.293136
-0.00100559 	-0.00182689 	0.00030105 	-0.293323
-0.00100559 	-0.00182689 	0.00030105 	-0.293323
-0.000845345 	-0.00182516 	0.000328839 	-0.293436
-0.000845345 	-0.00182516 	0.000328839 	-0.293436
-0.000682232 	-0.00181399 	0.000358276 	-0.293493
-0.000682232 	-0.00181399 	0.000358276 	-0.293493
-0.000516194 	-0.00179493 	0.000390807 	-0.293511
-0.000516194 	-0.00179493 	0.000390807 	-0.293511
-0.000347178 	-0.00177078 	0.000424082 	-0.293489
-0.000347178 	-0.00177078 	0.000424082 	-0.293489
-0.000175132 	-0.00174402 	0.000461671 	-0.293399
-0.000175132 	-0.00174402 	0.000461671 	-0.293399
0 	-0.00171533 	0.000500726 	-0.293196
0 	-0.00171533 	0.000500726 	-0.293196
0 	-0.00171533 	0.000500726 	-0.293196
0 	-0.00171533 	0.000500726 	-0.293196
0.000175132 	-0.00168401 	0.00053585 	-0.292851
0.000175132 	-0.00776517 	-8.08444e-05 	-0.328379
0.000347178 	-0.00164869 	0.000570635 	-0.292361
0.000347178 	-0.00782805 	2.40525e-05 	-0.327198
0.000516194 	-0.00160844 	0.000601647 	-0.291732
0.000516194 	-0.00785112 	0.000129772 	-0.325896
0.000682232 	-0.00156324 	0.000629505 	-0.290976
0.000682232 	-0.0078342 	0.000235864 	-0.324491
0.000845345 	-0.00151319 	0.000657736 	-0.290093
0.000845345 	-0.00777675 	0.000344849 	-0.322993
0.00100559 	-0.00145806 	0.000684108 	-0.289079
0.00100559 	-0.00767892 	0.0004554 	-0.321413
0.001163 	-0.00139871 	0.000708056 	-0.287951
0.001163 	-0.00754197 	0.00056679 	-0.31976
0.00131765 	-0.00133721 	0.000730235 	-0.286741
0.00131765 	-0.00736851 	0.000678763 	-0.318042
0.00146957 	-0.00127478 	0.000751209 	-0.285467
0.00146957 	-0.00716208 	0.000790857 	-0.316268
0.00161881 	-0.00121201 	0.000770833 	-0.284129
0.00161881 	-0.00692683 	0.000903687 	-0.314452
0.00176543 	-0.00115055 	0.000789065 	-0.282724
0.00176543 	-0.00666691 	0.00101753 	-0.312641
0.00190946 	-0.00109139 	0.00080563 	-0.28124
0.00190946 	-0.00637815 	0.00112695 	-0.310816
0.00205095 	-0.00103159 	0.000820412 	-0.279619
0.00205095 	-0.00603507 	0.00122975 	-0.308643
0.00218995 	-0.000966408 	0.000834171 	-0.277774
0.00218995 	-0.0056064 	0.0013347 	-0.305471
0.00232651 	-0.000895799 	0.000846727 	-0.275691
0.00232651 	-0.00510015 	0.00144398 	-0.301029
0.00246065 	-0.000825749 	0.000857747 	-0.273506
0.00246065 	-0.00457266 	0.00155591 	-0.296034
0.00259244 	-0.000763329 	0.000866733 	-0.271417
0.00259244 	-0.004086 	0.00166584 	-0.291701
0.0027219 	-0.000709817 	0.000872165 	-0.269505
0.0027219 	-0.00365028 	0.00176173 	-0.288553
0.00284909 	-0.000661695 	0.00087485 	-0.267719
0.00284909 	-0.0032316 	0.00184724 	-0.286233
0.00297403 	-0.000617301 	0.000876653 	-0.265986
0.00297403 	-0.00281015 	0.00193157 	-0.284259
0.00309677 	-0.000576077 	0.000877806 	-0.264259
0.00309677 	-0.00238606 	0.00201248 	-0.282359
0.00321735 	-0.000535764 	0.00087811 	-0.262511
0.00321735 	-0.00196102 	0.00208715 	-0.280447
0.0033358 	-0.000493212 	0.000877339 	-0.260724
0.0033358 	-0.00153601 	0.00215561 	-0.278524
0.00345217 	-0.000446212 	0.000875073 	-0.258885
0.00345217 	-0.00111275 	0.0022177 	-0.276603
0.00356649 	-0.000394597 	0.000871041 	-0.256995
0.00356649 	-0.000693141 	0.002273 	-0.274691
0.00367879 	-0.000340141 	0.000865222 	-0.255063
0.00367879 	-0.000278832 	0.00232128 	-0.272788
0.00378912 	0.000128751 	0.00236267 	-0.270893
0.00378912 	-0.000285423 	0.000857739 	-0.253107
0.0038975 	-0.0002325 	0.000848751 	-0.251138
0.0038975 	0.000528307 	0.00239739 	-0.269002
0.00400397 	-0.000182223 	0.00083841 	-0.249164
0.00400397 	0.000918682 	0.00242555 	-0.267113
0.00410857 	-0.000134337 	0.000826838 	-0.247183
0.00410857 	0.00129885 	0.00244706 	-0.265221
0.00421133 	-8.79977e-05 	0.0008141 	-0.245188
0.00421133 	0.00166791 	0.00246176 	-0.263325
0.00431227 	-4.22972e-05 	0.00080021 	-0.243172
0.00431227 	0.0020252 	0.00246991 	-0.261423
0.00441144 	3.4339e-06 	0.000785169 	-0.24113
0.00441144 	0.00237035 	0.00247181 	-0.259508
0.00450886 	4.95211e-05 	0.000769028 	-0.239055
0.00450886 	0.00270292 	0.00246757 	-0.257568
0.00460456 	9.59752e-05 	0.000751877 	-0.236941
0.00460456 	0.00302204 	0.00245722 	-0.255587
0.00469858 	0.000142629 	0.000733805 	-0.234785
0.00469858 	0.00332655 	0.00244062 	-0.253554
0.00479094 	0.000189307 	0.000714881 	-0.232584
0.00479094 	0.00361536 	0.002418 	-0.251463
0.00488168 	0.000235941 	0.000695144 	-0.230334
0.00488168 	0.00388782 	0.00238972 	-0.249318
0.00497081 	0.000282601 	0.000674629 	-0.228032
0.00497081 	0.00414375 	0.00235591 	-0.247121
0.00505838 	0.000329437 	0.000653378 	-0.225676
0.00505838 	0.00438324 	0.00231663 	-0.244877
0.0051444 	0.000376605 	0.000631446 	-0.223259
0.0051444 	0.00460647 	0.00227203 	-0.242585
0.00522891 	0.000424253 	0.000608902 	-0.220776
0.00522891 	0.0048136 	0.00222236 	-0.240243
0.00531193 	0.00500482 	0.0021679 	-0.237847
0.00531193 	0.000472533 	0.000585814 	-0.218222
0.00539348 	0.000521602 	0.000562246 	-0.215591
0.00539348 	0.00518039 	0.0021089 	-0.235393
0.0054736 	0.000571595 	0.000538261 	-0.212875
0.0054736 	0.0053406 	0.00204565 	-0.232876
0.00555231 	0.000622592 	0.000513888 	-0.210066
0.00555231 	0.00548574 	0.00197847 	-0.23029
0.00562963 	0.000674609 	0.000489212 	-0.207156
0.00562963 	0.00561605 	0.00190776 	-0.227629
0.00570559 	0.000727634 	0.000464371 	-0.204135
0.00570559 	0.00573159 	0.00183386 	-0.224882
0.00578022 	0.000781674 	0.000439405 	-0.200992
0.00578022 	0.0058323 	0.00175713 	-0.222041
0.00585352 	0.000836687 	0.000414307 	-0.19771
0.00585352 	0.00591797 	0.0016779 	-0.219093
0.00592554 	0.000892465 	0.000389101 	-0.194272
0.00592554 	0.00598827 	0.00159657 	-0.216023
0.00599629 	0.00094855 	0.000363929 	-0.190657
0.00599629 	0.0060428 	0.00151351 	-0.212815
0.00606579 	0.00608094 	0.00142914 	-0.209448
0.00606579 	0.00100429 	0.000339018 	-0.186844
0.00613406 	0.00105897 	0.000314488 	-0.182813
0.00613406 	0.00610186 	0.00134393 	-0.205897
0.00620114 	0.00111187 	0.000290405 	-0.178542
0.00620114 	0.00610449 	0.00125834 	-0.202133
0.00626703 	0.00116218 	0.000266865 	-0.17401
0.00626703 	0.00608756 	0.00117283 	-0.198123
0.00633176 	0.00120896 	0.000243963 	-0.169194
0.00633176 	0.00604973 	0.0010878 	-0.193831
0.00639535 	0.00125114 	0.000221798 	-0.164071
0.00639535 	0.0059896 	0.00100365 	-0.189217
0.00645783 	0.00128745 	0.000200471 	-0.158617
0.00645783 	0.00590564 	0.000920852 	-0.18424
0.0065192 	0.0013165 	0.000180066 	-0.152805
0.0065192 	0.00579632 	0.000839784 	-0.178852
0.00657949 	0.00133666 	0.000160668 	-0.146611
0.00657949 	0.00566015 	0.000760844 	-0.173007
0.00663871 	0.00134619 	0.000142386 	-0.14001
0.00663871 	0.00549579 	0.000684505 	-0.166658
0.0066969 	0.00134343 	0.000125267 	-0.132982
0.0066969 	0.00530223 	0.000611063 	-0.159768
0.00675406 	0.00132702 	0.000109317 	-0.125501
0.00675406 	0.00507845 	0.000540923 	-0.152299
0.00681021 	0.00129582 	9.45202e-05 	-0.117544
0.00681021 	0.00482249 	0.000474284 	-0.144175
0.00686537 	0.00124877 	8.08781e-05 	-0.109111
0.00686537 	0.00453217 	0.000411257 	-0.135312
0.00691956 	0.00118522 	6.84565e-05 	-0.100242
0.00691956 	0.00420669 	0.000352378 	-0.125666
0.0069728 	0.00110548 	5.72359e-05 	-0.0910266
0.0069728 	0.00384761 	0.00029785 	-0.115258
0.0070251 	0.00101117 	4.71549e-05 	-0.0815936
0.0070251 	0.00345951 	0.000247726 	-0.104183
0.00707647 	0.000905137 	3.81574e-05 	-0.0721016
0.00707647 	0.00305032 	0.000202086 	-0.0926159
0.00712695 	0.000791098 	3.01643e-05 	-0.0627128
0.00712695 	0.00263074 	0.000160885 	-0.0807989
0.00717653 	0.00067309 	2.31283e-05 	-0.0535655
0.00717653 	0.00221281 	0.000124196 	-0.0690003
0.00722524 	0.000554969 	1.70029e-05 	-0.0447555
0.00722524 	0.00180813 	9.19997e-05 	-0.057463
0.00727309 	0.000440249 	1.17822e-05 	-0.0363359
0.00727309 	0.00142722 	6.43938e-05 	-0.0463733
0.0073201 	0.000332469 	7.48403e-06 	-0.0283319
0.0073201 	0.00108087 	4.12934e-05 	-0.0358691
0.00736628 	0.000236068 	3.91611e-06 	-0.020762
0.00736628 	0.000783794 	2.28568e-05 	-0.0260808
0.00741165 	0.000153231 	1.56551e-06 	-0.0135984
0.00741165 	0.000533281 	9.7612e-06 	-0.0170263
0.00745622 	7.78349e-05 	3.43922e-07 	-0.00672193
0.00745622 	0.000285579 	2.28784e-06 	-0.00843768
0.0075 	0 	0 	0
0.0075 	0 	0 	0
