/*--------------------------------*- C++ -*----------------------------------*\
| =========                 |                                                 |
| \\      /  F ield         | OpenFOAM: The Open Source CFD Toolbox           |
|  \\    /   O peration     | Version:  v1912                                 |
|   \\  /    A nd           | Website:  www.openfoam.com                      |
|    \\/     M anipulation  |                                                 |
\*---------------------------------------------------------------------------*/
FoamFile
{
    version     2.0;
    format      ascii;
    class       volVectorField;
    location    "10.4";
    object      UMean;
}
// * * * * * * * * * * * * * * * * * * * * * * * * * * * * * * * * * * * * * //

dimensions      [0 1 -1 0 0 0 0];


internalField   nonuniform List<vector> 
34128
(
(1.09841e-06 1.61881e-07 -0.00330582)
(7.94122e-07 1.64593e-07 -0.00328152)
(4.50658e-07 1.64346e-07 -0.00327644)
(2.16258e-07 1.64166e-07 -0.00328305)
(8.56877e-08 1.63422e-07 -0.00329289)
(6.53256e-08 1.62205e-07 -0.00329865)
(1.98522e-07 1.61999e-07 -0.00329992)
(3.08447e-07 1.63776e-07 -0.00328703)
(-1.42693e-07 1.64868e-07 -0.00327371)
(-6.24736e-07 1.63217e-07 -0.00328631)
(-4.85572e-07 1.60967e-07 -0.00330885)
(9.58229e-08 1.60537e-07 -0.00331031)
(3.19603e-06 1.46468e-06 -0.0100593)
(2.33316e-06 1.49964e-06 -0.00998787)
(1.3363e-06 1.50075e-06 -0.00997283)
(6.41756e-07 1.4955e-06 -0.00999217)
(2.70874e-07 1.48459e-06 -0.010021)
(2.07844e-07 1.47066e-06 -0.0100379)
(5.64048e-07 1.46973e-06 -0.0100415)
(8.75584e-07 1.48894e-06 -0.0100038)
(-4.06533e-07 1.50034e-06 -0.00996499)
(-1.77704e-06 1.4814e-06 -0.0100019)
(-1.37338e-06 1.45527e-06 -0.0100679)
(2.97404e-07 1.45089e-06 -0.0100722)
(5.20906e-06 3.87849e-06 -0.0170441)
(3.83387e-06 3.97777e-06 -0.0169268)
(2.21331e-06 3.9832e-06 -0.016902)
(1.06256e-06 3.96706e-06 -0.0169336)
(4.68504e-07 3.93535e-06 -0.0169807)
(3.6068e-07 3.89704e-06 -0.0170083)
(9.00972e-07 3.89507e-06 -0.0170142)
(1.40104e-06 3.94725e-06 -0.0169527)
(-6.4827e-07 3.97789e-06 -0.0168894)
(-2.84139e-06 3.9253e-06 -0.0169498)
(-2.18563e-06 3.85295e-06 -0.0170578)
(5.12317e-07 3.84128e-06 -0.0170649)
(7.13856e-06 7.55475e-06 -0.0242411)
(5.29746e-06 7.75179e-06 -0.0240798)
(3.08375e-06 7.76555e-06 -0.0240455)
(1.47901e-06 7.73209e-06 -0.0240886)
(6.7673e-07 7.6681e-06 -0.0241533)
(5.21678e-07 7.59388e-06 -0.0241911)
(1.20887e-06 7.59055e-06 -0.024199)
(1.88704e-06 7.69083e-06 -0.0241149)
(-8.6519e-07 7.7495e-06 -0.0240286)
(-3.81589e-06 7.64669e-06 -0.0241114)
(-2.92123e-06 7.50572e-06 -0.0242593)
(7.41333e-07 7.48387e-06 -0.0242691)
(8.98432e-06 1.23653e-05 -0.031624)
(6.72422e-06 1.26926e-05 -0.0314206)
(3.94856e-06 1.27196e-05 -0.0313769)
(1.89011e-06 1.26623e-05 -0.031431)
(8.92645e-07 1.25546e-05 -0.0315122)
(6.88068e-07 1.2434e-05 -0.0315596)
(1.48692e-06 1.2429e-05 -0.0315692)
(2.33521e-06 1.25908e-05 -0.031464)
(-1.05525e-06 1.26853e-05 -0.0313564)
(-4.69919e-06 1.25167e-05 -0.0314602)
(-3.57938e-06 1.22862e-05 -0.0316459)
(9.854e-07 1.22519e-05 -0.0316584)
(1.0745e-05 1.83348e-05 -0.0391612)
(8.11359e-06 1.88245e-05 -0.0389182)
(4.80756e-06 1.88703e-05 -0.0388655)
(2.29351e-06 1.87826e-05 -0.0389297)
(1.11225e-06 1.86197e-05 -0.0390264)
(8.56394e-07 1.84432e-05 -0.0390827)
(1.73381e-06 1.84359e-05 -0.0390936)
(2.74647e-06 1.86713e-05 -0.038969)
(-1.21721e-06 1.8809e-05 -0.0388419)
(-5.49056e-06 1.85594e-05 -0.0389654)
(-4.15969e-06 1.82195e-05 -0.0391862)
(1.24554e-06 1.81714e-05 -0.0392012)
(1.24188e-05 2.54399e-05 -0.0468183)
(9.46447e-06 2.61241e-05 -0.0465383)
(5.6597e-06 2.61953e-05 -0.0464769)
(2.68576e-06 2.60706e-05 -0.0465503)
(1.33057e-06 2.58406e-05 -0.0466614)
(1.0225e-06 2.55995e-05 -0.0467258)
(1.94772e-06 2.55891e-05 -0.0467377)
(3.12106e-06 2.5909e-05 -0.0465955)
(-1.3507e-06 2.60965e-05 -0.0464511)
(-6.19002e-06 2.57513e-05 -0.0465926)
(-4.66223e-06 2.52829e-05 -0.0468455)
(1.52272e-06 2.522e-05 -0.0468629)
(1.40035e-05 3.36666e-05 -0.0545585)
(1.07754e-05 3.45775e-05 -0.0542445)
(6.50314e-06 3.46817e-05 -0.0541746)
(3.06254e-06 3.45133e-05 -0.0542564)
(1.54186e-06 3.42043e-05 -0.0543808)
(1.18158e-06 3.38906e-05 -0.0544523)
(2.12638e-06 3.3876e-05 -0.0544648)
(3.45853e-06 3.429e-05 -0.0543071)
(-1.4563e-06 3.45338e-05 -0.0541475)
(-6.79848e-06 3.40786e-05 -0.0543051)
(-5.08763e-06 3.3463e-05 -0.054587)
(1.81778e-06 3.3385e-05 -0.0546069)
(1.54972e-05 4.29992e-05 -0.062345)
(1.20449e-05 4.41689e-05 -0.062)
(7.33559e-06 4.43146e-05 -0.061922)
(3.4191e-06 4.4096e-05 -0.0620113)
(1.73997e-06 4.36959e-05 -0.062148)
(1.32837e-06 4.33021e-05 -0.0622258)
(2.26716e-06 4.3282e-05 -0.0622384)
(3.75794e-06 4.37988e-05 -0.0620671)
(-1.53543e-06 4.41045e-05 -0.0618946)
(-7.31773e-06 4.35253e-05 -0.0620665)
(-5.43708e-06 4.27444e-05 -0.0623742)
(2.13138e-06 4.26518e-05 -0.0623964)
(1.68986e-05 5.34231e-05 -0.0701436)
(1.32715e-05 5.48839e-05 -0.0697706)
(8.15464e-06 5.50808e-05 -0.0696847)
(3.75088e-06 5.48054e-05 -0.0697807)
(1.91888e-06 5.4302e-05 -0.0699288)
(1.45743e-06 5.38213e-05 -0.0700119)
(2.36725e-06 5.3794e-05 -0.0700241)
(4.01805e-06 5.44209e-05 -0.0698413)
(-1.59021e-06 5.47943e-05 -0.069658)
(-7.75037e-06 5.40772e-05 -0.0698423)
(-5.71226e-06 5.31132e-05 -0.0701727)
(2.46406e-06 5.30067e-05 -0.0701972)
(1.82074e-05 6.49235e-05 -0.0779241)
(1.44547e-05 6.67077e-05 -0.0775261)
(8.95817e-06 6.69667e-05 -0.0774325)
(4.05397e-06 6.66282e-05 -0.0775345)
(2.07311e-06 6.60089e-05 -0.0776931)
(1.56345e-06 6.54351e-05 -0.0777807)
(2.42388e-06 6.53985e-05 -0.0777922)
(4.2375e-06 6.61419e-05 -0.0775997)
(-1.62319e-06 6.6588e-05 -0.0774076)
(-8.09949e-06 6.57197e-05 -0.0776026)
(-5.91513e-06 6.45551e-05 -0.0779526)
(2.81625e-06 6.44362e-05 -0.0779793)
(1.94246e-05 7.74814e-05 -0.0856623)
(1.55944e-05 7.96216e-05 -0.0852418)
(9.74455e-06 7.99548e-05 -0.0851409)
(4.32546e-06 7.95469e-05 -0.0852483)
(2.19801e-06 7.87989e-05 -0.0854166)
(1.64148e-06 7.81263e-05 -0.0855078)
(2.43442e-06 7.80779e-05 -0.0855182)
(4.41494e-06 7.89432e-05 -0.0853177)
(-1.63706e-06 7.94666e-05 -0.0851186)
(-8.36831e-06 7.8434e-05 -0.0853228)
(-6.04762e-06 7.70518e-05 -0.0856896)
(3.18839e-06 7.69224e-05 -0.0857185)
(2.05524e-05 9.10918e-05 -0.0933408)
(1.66912e-05 9.36203e-05 -0.0929004)
(1.05129e-05 9.40411e-05 -0.0927924)
(4.56381e-06 9.3558e-05 -0.0929046)
(2.29014e-06 9.2668e-05 -0.093082)
(1.68714e-06 9.18911e-05 -0.0931761)
(2.39653e-06 9.18282e-05 -0.0931851)
(4.5492e-06 9.28196e-05 -0.0929782)
(-1.6345e-06 9.34246e-05 -0.0927735)
(-8.55994e-06 9.22149e-05 -0.0929855)
(-6.11139e-06 9.05987e-05 -0.0933666)
(3.58101e-06 9.04612e-05 -0.0933975)
(2.15941e-05 0.000105745 -0.10095)
(1.77469e-05 0.000108695 -0.100492)
(1.12632e-05 0.000109218 -0.100377)
(4.76846e-06 0.000108654 -0.100494)
(2.34687e-06 0.000107608 -0.100679)
(1.69652e-06 0.000106722 -0.100776)
(2.30825e-06 0.000106642 -0.100783)
(4.63943e-06 0.000107762 -0.100571)
(-1.61767e-06 0.000108452 -0.100362)
(-8.67674e-06 0.000107054 -0.100581)
(-6.10742e-06 0.000105187 -0.100974)
(3.99517e-06 0.000105045 -0.101007)
(2.25524e-05 0.000121388 -0.10848)
(1.87629e-05 0.000124793 -0.108006)
(1.19953e-05 0.000125435 -0.107885)
(4.9389e-06 0.000124784 -0.108006)
(2.36556e-06 0.000123568 -0.108199)
(1.66596e-06 0.000122569 -0.108297)
(2.16777e-06 0.000122467 -0.108303)
(4.68463e-06 0.000123718 -0.108087)
(-1.58853e-06 0.000124496 -0.107875)
(-8.72052e-06 0.000122897 -0.108099)
(-6.0361e-06 0.000120766 -0.108502)
(4.4321e-06 0.000120622 -0.108536)
(2.34291e-05 0.00013798 -0.115921)
(1.97397e-05 0.000141872 -0.115433)
(1.27085e-05 0.00014265 -0.115306)
(5.07498e-06 0.000141907 -0.11543)
(2.34413e-06 0.000140507 -0.115631)
(1.59202e-06 0.000139389 -0.11573)
(1.97337e-06 0.000139263 -0.115733)
(4.68342e-06 0.000140645 -0.115515)
(-1.54907e-06 0.000141511 -0.115301)
(-8.69256e-06 0.000139701 -0.115529)
(-5.89721e-06 0.000137293 -0.11594)
(4.89302e-06 0.000137152 -0.115976)
(2.42263e-05 0.000155479 -0.123263)
(2.06774e-05 0.00015989 -0.122763)
(1.34023e-05 0.000160825 -0.122629)
(5.1771e-06 0.000159985 -0.122757)
(2.28108e-06 0.000158383 -0.122965)
(1.47174e-06 0.000157144 -0.123064)
(1.72366e-06 0.000156991 -0.123066)
(4.63453e-06 0.0001585 -0.122846)
(-1.5009e-06 0.000159455 -0.122631)
(-8.59322e-06 0.000157426 -0.122862)
(-5.68959e-06 0.000154729 -0.12328)
(5.37951e-06 0.000154598 -0.123317)
(2.49455e-05 0.000173843 -0.130498)
(2.1576e-05 0.000178803 -0.129987)
(1.40755e-05 0.000179916 -0.129849)
(5.246e-06 0.000178974 -0.129979)
(2.17528e-06 0.000177156 -0.130193)
(1.30244e-06 0.000175792 -0.130293)
(1.41751e-06 0.000175607 -0.130293)
(4.53661e-06 0.000177241 -0.130072)
(-1.4453e-06 0.000178282 -0.129856)
(-8.42202e-06 0.000176025 -0.130089)
(-5.41112e-06 0.000173033 -0.130512)
(5.89359e-06 0.000172917 -0.130551)
(2.55878e-05 0.000193027 -0.137621)
(2.24349e-05 0.000198567 -0.1371)
(1.47269e-05 0.00019988 -0.136956)
(5.28249e-06 0.000198831 -0.137089)
(2.02579e-06 0.00019678 -0.137309)
(1.08164e-06 0.000195289 -0.137409)
(1.05402e-06 0.000195069 -0.137407)
(4.3883e-06 0.00019682 -0.137186)
(-1.3832e-06 0.000197945 -0.136969)
(-8.17757e-06 0.000195454 -0.137205)
(-5.05869e-06 0.000192161 -0.137632)
(6.43784e-06 0.000192067 -0.137671)
(2.61541e-05 0.000212987 -0.144624)
(2.32529e-05 0.000219136 -0.144095)
(1.53545e-05 0.000220672 -0.143946)
(5.28731e-06 0.000219514 -0.144082)
(1.83168e-06 0.000217212 -0.144307)
(8.07e-07 0.00021559 -0.144406)
(6.32535e-07 0.000215331 -0.144403)
(4.18819e-06 0.000217192 -0.144182)
(-1.31521e-06 0.000218394 -0.143966)
(-7.8576e-06 0.000215665 -0.144202)
(-4.62815e-06 0.000212068 -0.144632)
(7.01539e-06 0.000212006 -0.144672)
(2.66446e-05 0.000233676 -0.151503)
(2.40282e-05 0.000240462 -0.150967)
(1.59555e-05 0.000242249 -0.150813)
(5.26096e-06 0.000240976 -0.150951)
(1.59192e-06 0.000238405 -0.151181)
(4.76265e-07 0.000236651 -0.151279)
(1.52631e-07 0.000236349 -0.151275)
(3.93485e-06 0.000238308 -0.151055)
(-1.24162e-06 0.000239579 -0.150838)
(-7.45901e-06 0.00023661 -0.151076)
(-4.11433e-06 0.000232711 -0.151508)
(7.62999e-06 0.000232691 -0.151548)
(2.70588e-05 0.000255047 -0.158251)
(2.47579e-05 0.000262497 -0.157709)
(1.65263e-05 0.000264562 -0.157551)
(5.20354e-06 0.000263172 -0.15769)
(1.30523e-06 0.000260314 -0.157924)
(8.7177e-08 0.000258425 -0.158021)
(-3.85854e-07 0.000258075 -0.158016)
(3.62691e-06 0.00026012 -0.157798)
(-1.16237e-06 0.000261451 -0.157582)
(-6.97794e-06 0.00025824 -0.157819)
(-3.51113e-06 0.000254044 -0.158253)
(8.28595e-06 0.000254077 -0.158293)
(2.73958e-05 0.00027705 -0.164861)
(2.54387e-05 0.00028519 -0.164314)
(1.70622e-05 0.000287563 -0.164152)
(5.11468e-06 0.000286053 -0.164293)
(9.70013e-07 0.000282889 -0.16453)
(-3.62523e-07 0.000280863 -0.164626)
(-9.82777e-07 0.00028046 -0.164621)
(3.2631e-06 0.000282574 -0.164405)
(-1.07705e-06 0.000283953 -0.164189)
(-6.40993e-06 0.0002805 -0.164426)
(-2.81162e-06 0.000276015 -0.16486)
(8.98816e-06 0.000276115 -0.1649)
(2.76541e-05 0.000299631 -0.171327)
(2.60659e-05 0.000308486 -0.170776)
(1.75576e-05 0.000311197 -0.170611)
(4.99348e-06 0.000309566 -0.170751)
(5.84348e-07 0.000306076 -0.170992)
(-8.75091e-07 0.00030391 -0.171087)
(-1.63762e-06 0.000303447 -0.171081)
(2.84244e-06 0.000305614 -0.170868)
(-9.84852e-07 0.000307028 -0.170653)
(-5.75e-06 0.000303335 -0.170889)
(-2.00823e-06 0.000298573 -0.171322)
(9.74193e-06 0.000298753 -0.171362)
(2.78319e-05 0.000322729 -0.177639)
(2.66341e-05 0.000332325 -0.177085)
(1.80056e-05 0.000335407 -0.176917)
(4.83858e-06 0.000333652 -0.177058)
(1.45966e-07 0.000329817 -0.177301)
(-1.45274e-06 0.000327507 -0.177394)
(-2.34941e-06 0.000326978 -0.177389)
(2.36439e-06 0.000329178 -0.177178)
(-8.84484e-07 0.000330611 -0.176964)
(-4.99288e-06 0.000326682 -0.177198)
(-1.09297e-06 0.000321658 -0.17763)
(1.05529e-05 0.000321934 -0.177669)
(2.79269e-05 0.000346279 -0.183787)
(2.71371e-05 0.000356639 -0.183232)
(1.83984e-05 0.000360126 -0.183061)
(4.64815e-06 0.000358246 -0.183202)
(-3.47674e-07 0.000354048 -0.183447)
(-2.09756e-06 0.00035159 -0.183538)
(-3.11664e-06 0.000350985 -0.183533)
(1.82908e-06 0.000353198 -0.183326)
(-7.74061e-07 0.000354633 -0.183114)
(-4.13308e-06 0.000350472 -0.183346)
(-5.76594e-08 0.000345203 -0.183774)
(1.1427e-05 0.000345594 -0.183813)
(2.79369e-05 0.000370207 -0.189761)
(2.75678e-05 0.000381356 -0.189207)
(1.87273e-05 0.000385283 -0.189034)
(4.41999e-06 0.000383278 -0.189173)
(-8.99328e-07 0.000378697 -0.189419)
(-2.81146e-06 0.000376084 -0.189509)
(-3.93713e-06 0.000375394 -0.189504)
(1.23755e-06 0.000377597 -0.189302)
(-6.5095e-07 0.000379016 -0.189092)
(-3.1651e-06 0.000374628 -0.18932)
(1.10583e-06 0.000369137 -0.189744)
(1.23703e-05 0.000369662 -0.189783)
(2.78599e-05 0.000394429 -0.195551)
(2.79188e-05 0.000406393 -0.195)
(1.89832e-05 0.000410796 -0.194824)
(4.1516e-06 0.000408667 -0.194962)
(-1.5119e-06 0.000403683 -0.195208)
(-3.59604e-06 0.000400907 -0.195296)
(-4.80803e-06 0.000400121 -0.195292)
(5.92025e-07 0.000402289 -0.195094)
(-5.11589e-07 0.000403674 -0.194887)
(-2.08345e-06 0.000399067 -0.195111)
(2.40539e-06 0.000393377 -0.19553)
(1.33887e-05 0.000394057 -0.195568)
(2.76945e-05 0.000418853 -0.201145)
(2.81826e-05 0.000431655 -0.200599)
(1.91565e-05 0.000436572 -0.200421)
(3.84018e-06 0.000434319 -0.200557)
(-2.18841e-06 0.000428913 -0.200803)
(-4.45253e-06 0.000425964 -0.200889)
(-5.72565e-06 0.000425069 -0.200885)
(-1.0383e-07 0.000427178 -0.200694)
(-3.51293e-07 0.000428507 -0.20049)
(-8.82688e-07 0.000423689 -0.200708)
(3.84846e-06 0.000417827 -0.201121)
(1.44885e-05 0.000418685 -0.201158)
(2.744e-05 0.000443372 -0.206537)
(2.83518e-05 0.000457037 -0.205996)
(1.92374e-05 0.000462506 -0.205818)
(3.48248e-06 0.000460132 -0.205951)
(-2.93209e-06 0.000454285 -0.206196)
(-5.38178e-06 0.000451151 -0.206279)
(-6.68547e-06 0.000450131 -0.206275)
(-8.4467e-07 0.000452154 -0.206091)
(-1.64072e-07 0.000453407 -0.205891)
(4.42602e-07 0.000448388 -0.206104)
(5.44206e-06 0.000442383 -0.206508)
(1.56756e-05 0.000443443 -0.206545)
(2.70967e-05 0.000467868 -0.211717)
(2.84197e-05 0.00048242 -0.211184)
(1.92164e-05 0.000488478 -0.211006)
(3.07477e-06 0.000485985 -0.211136)
(-3.74631e-06 0.000479679 -0.211379)
(-6.384e-06 0.000476345 -0.211459)
(-7.68185e-06 0.000475182 -0.211456)
(-1.62331e-06 0.000477094 -0.211278)
(5.74312e-08 0.000478247 -0.211083)
(1.89782e-06 0.000473038 -0.211289)
(7.19262e-06 0.000466925 -0.211684)
(1.69566e-05 0.000468214 -0.21172)
(2.66656e-05 0.000492188 -0.216678)
(2.83791e-05 0.000507652 -0.216157)
(1.9084e-05 0.000514337 -0.215978)
(2.61348e-06 0.000511727 -0.216105)
(-4.63416e-06 0.000504947 -0.216345)
(-7.45845e-06 0.000501392 -0.216422)
(-8.70766e-06 0.000500068 -0.216419)
(-2.43014e-06 0.000501839 -0.21625)
(3.22043e-07 0.00050287 -0.21606)
(3.48783e-06 0.000497484 -0.216258)
(9.10535e-06 0.000491298 -0.216642)
(1.83374e-05 0.000492846 -0.216677)
(2.61482e-05 0.000516151 -0.221415)
(2.82231e-05 0.00053255 -0.220905)
(1.88319e-05 0.000539901 -0.220728)
(2.09579e-06 0.000537181 -0.22085)
(-5.59795e-06 0.000529906 -0.221087)
(-8.60297e-06 0.000526109 -0.22116)
(-9.75406e-06 0.000524603 -0.221157)
(-3.25291e-06 0.000526204 -0.220997)
(6.40402e-07 0.000527088 -0.220814)
(5.21643e-06 0.00052154 -0.221004)
(1.11834e-05 0.000515321 -0.221374)
(1.98232e-05 0.000517158 -0.221408)
(2.55461e-05 0.000539574 -0.225917)
(2.79448e-05 0.000556929 -0.225423)
(1.84523e-05 0.000564982 -0.225248)
(1.51907e-06 0.000562158 -0.225365)
(-6.63871e-06 0.000554371 -0.225597)
(-9.81335e-06 0.000550307 -0.225666)
(-1.08103e-05 0.000548595 -0.225663)
(-4.07676e-06 0.000549995 -0.225513)
(1.02458e-06 0.000550708 -0.225338)
(7.08624e-06 0.000545015 -0.225517)
(1.34281e-05 0.000538807 -0.225872)
(2.14182e-05 0.000540967 -0.225906)
(2.48614e-05 0.000562261 -0.230179)
(2.75378e-05 0.000580589 -0.229703)
(1.79382e-05 0.00058938 -0.229531)
(8.80958e-07 0.000586459 -0.229643)
(-7.7556e-06 0.000578145 -0.229868)
(-1.10826e-05 0.000573783 -0.229933)
(-1.18634e-05 0.000571841 -0.22993)
(-4.88389e-06 0.000573009 -0.22979)
(1.48773e-06 0.000573524 -0.229623)
(9.09839e-06 0.000567706 -0.229792)
(1.58381e-05 0.000561559 -0.23013)
(2.31259e-05 0.000564077 -0.230164)
(2.40966e-05 0.000584006 -0.234193)
(2.69964e-05 0.000603323 -0.233737)
(1.72842e-05 0.000612883 -0.23357)
(1.7997e-07 0.000609874 -0.233675)
(-8.94533e-06 0.000601019 -0.233894)
(-1.24006e-05 0.000596326 -0.233953)
(-1.28974e-05 0.000594127 -0.23395)
(-5.65319e-06 0.00059503 -0.233821)
(2.04404e-06 0.000595321 -0.233663)
(1.1252e-05 0.000589401 -0.233821)
(1.84092e-05 0.000583367 -0.234141)
(2.49481e-05 0.00058628 -0.234174)
(2.32549e-05 0.000604601 -0.237953)
(2.63154e-05 0.000624916 -0.23752)
(1.6487e-05 0.000635275 -0.237358)
(-5.83912e-07 0.000632189 -0.237458)
(-1.02015e-05 0.000622779 -0.237668)
(-1.37532e-05 0.000617717 -0.237722)
(-1.38934e-05 0.000615231 -0.237718)
(-6.36004e-06 0.000615837 -0.2376)
(2.70848e-06 0.000615876 -0.237452)
(1.35434e-05 0.00060988 -0.237598)
(2.11335e-05 0.000604018 -0.237898)
(2.68846e-05 0.000607365 -0.23793)
(2.23399e-05 0.000623839 -0.241454)
(2.54912e-05 0.000645158 -0.241046)
(1.55454e-05 0.000656339 -0.240891)
(-1.40875e-06 0.000653188 -0.240984)
(-1.15137e-05 0.000643211 -0.241184)
(-1.5122e-05 0.00063774 -0.241232)
(-1.4829e-05 0.000634938 -0.241227)
(-6.97627e-06 0.000635211 -0.241122)
(3.49635e-06 0.000634972 -0.240984)
(1.59659e-05 0.00062893 -0.241117)
(2.39989e-05 0.000623301 -0.241397)
(2.89332e-05 0.000627121 -0.241429)
(2.13563e-05 0.000641525 -0.244693)
(2.45211e-05 0.000663844 -0.244311)
(1.44613e-05 0.000675869 -0.244164)
(-2.29023e-06 0.000672666 -0.244251)
(-1.2867e-05 0.000662112 -0.24444)
(-1.64837e-05 0.000656185 -0.244482)
(-1.56781e-05 0.000653037 -0.244476)
(-7.47049e-06 0.000652944 -0.244382)
(4.42261e-06 0.0006524 -0.244255)
(1.85091e-05 0.000646344 -0.244375)
(2.69886e-05 0.000641014 -0.244633)
(3.10887e-05 0.000645349 -0.244665)
(2.03092e-05 0.000657475 -0.247666)
(2.34044e-05 0.000680783 -0.247312)
(1.32394e-05 0.000693665 -0.247174)
(-3.2213e-06 0.000690427 -0.247255)
(-1.42412e-05 0.000679287 -0.247433)
(-1.78097e-05 0.000672855 -0.247467)
(-1.64112e-05 0.000669327 -0.24746)
(-7.80863e-06 0.00066884 -0.247378)
(5.50122e-06 0.000667967 -0.247263)
(2.11581e-05 0.000661928 -0.247369)
(3.00804e-05 0.000656967 -0.247605)
(3.33421e-05 0.00066186 -0.247636)
(1.92049e-05 0.000671515 -0.250374)
(2.21421e-05 0.000695798 -0.25005)
(1.18881e-05 0.000709538 -0.249922)
(-4.19162e-06 0.000706281 -0.249997)
(-1.5611e-05 0.000694552 -0.250162)
(-1.90665e-05 0.00068756 -0.250189)
(-1.69957e-05 0.000683619 -0.25018)
(-7.95463e-06 0.000682706 -0.25011)
(6.74423e-06 0.000681478 -0.250005)
(2.38931e-05 0.000675494 -0.250099)
(3.32469e-05 0.000670978 -0.250312)
(3.56812e-05 0.00067647 -0.250344)
(1.80514e-05 0.000683496 -0.252819)
(2.07382e-05 0.000708728 -0.252526)
(1.0419e-05 0.000723335 -0.252409)
(-5.18728e-06 0.000720074 -0.252477)
(-1.6946e-05 0.00070774 -0.252628)
(-2.02161e-05 0.00070014 -0.252648)
(-1.73962e-05 0.000695761 -0.252637)
(-7.87227e-06 0.000694387 -0.252579)
(8.16097e-06 0.00069278 -0.252485)
(2.66901e-05 0.000686896 -0.252566)
(3.64545e-05 0.000682896 -0.252757)
(3.80889e-05 0.000689021 -0.252788)
(1.68583e-05 0.000693342 -0.255005)
(1.92008e-05 0.000719476 -0.254743)
(8.84852e-06 0.000734936 -0.254638)
(-6.19134e-06 0.000731691 -0.254701)
(-1.82107e-05 0.000718751 -0.254837)
(-2.12173e-05 0.000710489 -0.254849)
(-1.75761e-05 0.000705638 -0.254837)
(-7.5257e-06 0.000703781 -0.254789)
(9.75673e-06 0.000701779 -0.254706)
(2.95195e-05 0.000696032 -0.254775)
(3.9664e-05 0.000692623 -0.254943)
(4.05435e-05 0.000699424 -0.254975)
(1.5638e-05 0.000700976 -0.25694)
(1.75418e-05 0.000727967 -0.256708)
(7.19742e-06 0.000744257 -0.256617)
(-7.18325e-06 0.000741041 -0.256673)
(-1.93655e-05 0.000727499 -0.256795)
(-2.20266e-05 0.000718518 -0.2568)
(-1.74989e-05 0.000713168 -0.256785)
(-6.88213e-06 0.000710809 -0.256747)
(1.15318e-05 0.000708397 -0.256675)
(3.23471e-05 0.000702826 -0.256731)
(4.28303e-05 0.000700082 -0.256879)
(4.30173e-05 0.000707595 -0.256911)
(1.44045e-05 0.000706351 -0.258633)
(1.57775e-05 0.000734142 -0.258432)
(5.49079e-06 0.000751234 -0.258353)
(-8.13871e-06 0.000748059 -0.258404)
(-2.03681e-05 0.000733916 -0.258511)
(-2.25991e-05 0.000724163 -0.258508)
(-1.71299e-05 0.000718288 -0.258491)
(-5.91417e-06 0.000715412 -0.258462)
(1.34808e-05 0.000712583 -0.2584)
(3.51341e-05 0.000707227 -0.258445)
(4.59032e-05 0.000705214 -0.258572)
(4.54766e-05 0.000713471 -0.258605)
(1.31736e-05 0.000709454 -0.260095)
(1.39285e-05 0.00073798 -0.259924)
(3.75806e-06 0.000755832 -0.259858)
(-9.03021e-06 0.000752711 -0.259905)
(-2.11746e-05 0.000737969 -0.259996)
(-2.28913e-05 0.000727392 -0.259986)
(-1.64385e-05 0.00072097 -0.259967)
(-4.60219e-06 0.00071757 -0.259946)
(1.55917e-05 0.000714324 -0.259893)
(3.78381e-05 0.000709219 -0.259928)
(4.88275e-05 0.000707998 -0.260036)
(4.78811e-05 0.000717026 -0.260069)
(1.19628e-05 0.000710301 -0.261341)
(1.20199e-05 0.000739487 -0.261198)
(2.03237e-06 0.000758048 -0.261146)
(-9.82806e-06 0.000754989 -0.261188)
(-2.17416e-05 0.000739653 -0.261264)
(-2.28628e-05 0.000728204 -0.261247)
(-1.54005e-05 0.000721216 -0.261226)
(-2.93727e-06 0.000717296 -0.261212)
(1.78452e-05 0.000713641 -0.261167)
(4.04137e-05 0.000708819 -0.261193)
(5.15445e-05 0.000708439 -0.261284)
(5.01842e-05 0.000718263 -0.261318)
(1.07902e-05 0.000708933 -0.262386)
(1.00805e-05 0.000738696 -0.26227)
(3.49166e-07 0.000757906 -0.26223)
(-1.05032e-05 0.000754915 -0.262268)
(-2.20293e-05 0.000738992 -0.26233)
(-2.24801e-05 0.000726626 -0.262306)
(-1.4002e-05 0.000719059 -0.262284)
(-9.23855e-07 0.000714629 -0.262275)
(2.02138e-05 0.000710583 -0.262238)
(4.28164e-05 0.000706072 -0.262255)
(5.39954e-05 0.000706575 -0.26233)
(5.23351e-05 0.00071721 -0.262365)
(9.67655e-06 0.000705444 -0.263247)
(8.14314e-06 0.000735693 -0.263155)
(-1.25906e-06 0.000755481 -0.263128)
(-1.10312e-05 0.000752558 -0.263162)
(-2.20047e-05 0.000736056 -0.26321)
(-2.17191e-05 0.000722741 -0.26318)
(-1.22425e-05 0.000714586 -0.263156)
(1.41699e-06 0.000709664 -0.263152)
(2.26636e-05 0.00070525 -0.263122)
(4.50074e-05 0.000701078 -0.263131)
(5.61296e-05 0.000702495 -0.263193)
(5.42844e-05 0.000713947 -0.263228)
(8.64654e-06 0.00069999 -0.263943)
(6.25138e-06 0.000730623 -0.263873)
(-2.76179e-06 0.000750905 -0.263858)
(-1.13952e-05 0.000748048 -0.263889)
(-2.16477e-05 0.000730984 -0.263923)
(-2.05685e-05 0.000716694 -0.263888)
(-1.01345e-05 0.00070795 -0.263864)
(4.04668e-06 0.000702568 -0.263863)
(2.51547e-05 0.000697818 -0.263838)
(4.69526e-05 0.000694002 -0.263842)
(5.7908e-05 0.000696349 -0.263891)
(5.59886e-05 0.000708616 -0.263926)
(7.71918e-06 0.000692736 -0.264497)
(4.44337e-06 0.000723654 -0.264446)
(-4.13066e-06 0.000744336 -0.264442)
(-1.15862e-05 0.000741536 -0.264469)
(-2.09564e-05 0.000723929 -0.264492)
(-1.90332e-05 0.00070865 -0.264452)
(-7.69425e-06 0.000699321 -0.264427)
(6.9329e-06 0.000693519 -0.264429)
(2.76572e-05 0.000688475 -0.264409)
(4.86313e-05 0.000685028 -0.264407)
(5.93055e-05 0.000688304 -0.264447)
(5.7416e-05 0.000701376 -0.264481)
(6.90387e-06 0.000683862 -0.26493)
(2.74808e-06 0.000714959 -0.264896)
(-5.34584e-06 0.000735943 -0.2649)
(-1.16054e-05 0.000733183 -0.264925)
(-1.99429e-05 0.000715054 -0.264938)
(-1.713e-05 0.000698779 -0.264895)
(-4.94981e-06 0.000688877 -0.264869)
(1.00384e-05 0.000682704 -0.264873)
(3.01434e-05 0.000677417 -0.264856)
(5.00375e-05 0.000674346 -0.264851)
(6.0315e-05 0.000678534 -0.264882)
(5.85452e-05 0.000692394 -0.264916)
(6.20642e-06 0.000673535 -0.265262)
(1.19406e-06 0.000704713 -0.265241)
(-6.39391e-06 0.000725894 -0.265253)
(-1.14591e-05 0.00072315 -0.265276)
(-1.86259e-05 0.000704517 -0.26528)
(-1.48857e-05 0.000687249 -0.265234)
(-1.94535e-06 0.000676795 -0.265208)
(1.33072e-05 0.000670313 -0.265213)
(3.25794e-05 0.000664841 -0.265199)
(5.11692e-05 0.000662146 -0.265191)
(6.09398e-05 0.000667215 -0.265216)
(5.93628e-05 0.000681837 -0.265248)
(5.63135e-06 0.000661912 -0.265509)
(-1.96876e-07 0.000693075 -0.265499)
(-7.26477e-06 0.000714349 -0.265518)
(-1.11542e-05 0.000711591 -0.265539)
(-1.7031e-05 0.00069247 -0.265535)
(-1.23387e-05 0.000674223 -0.265487)
(1.27165e-06 0.000663242 -0.265462)
(1.66847e-05 0.000656521 -0.265468)
(3.4936e-05 0.000650932 -0.265456)
(5.20292e-05 0.000648606 -0.265445)
(6.11914e-05 0.000654506 -0.265465)
(5.9863e-05 0.000669856 -0.265496)
(5.17951e-06 0.000649135 -0.265688)
(-1.40903e-06 0.000680194 -0.265687)
(-7.95442e-06 0.000701457 -0.26571)
(-1.07e-05 0.000698648 -0.26573)
(-1.51907e-05 0.000679053 -0.26572)
(-9.53386e-06 0.000659851 -0.265671)
(4.6511e-06 0.000648377 -0.265647)
(2.01183e-05 0.000641493 -0.265653)
(3.71881e-05 0.000635858 -0.265643)
(5.26275e-05 0.000633889 -0.26563)
(6.10903e-05 0.00064056 -0.265645)
(6.00493e-05 0.000656595 -0.265676)
(4.84838e-06 0.000635334 -0.265812)
(-2.43314e-06 0.000666207 -0.265818)
(-8.4638e-06 0.000687358 -0.265845)
(-1.01076e-05 0.000684454 -0.265863)
(-1.31404e-05 0.000664396 -0.265848)
(-6.51934e-06 0.000644269 -0.265799)
(8.14252e-06 0.000632343 -0.265775)
(2.35593e-05 0.000625379 -0.265782)
(3.93152e-05 0.000619774 -0.265773)
(5.29798e-05 0.000618147 -0.265759)
(6.06649e-05 0.000625515 -0.265771)
(5.99339e-05 0.000642188 -0.2658)
(4.63309e-06 0.000620621 -0.265893)
(-3.26586e-06 0.000651233 -0.265905)
(-8.79777e-06 0.000672173 -0.265933)
(-9.38849e-06 0.000669127 -0.265949)
(-1.09165e-05 0.000648614 -0.265932)
(-3.34404e-06 0.000627604 -0.265882)
(1.1698e-05 0.000615271 -0.26586)
(2.69644e-05 0.000608312 -0.265867)
(4.13022e-05 0.000602817 -0.265859)
(5.31049e-05 0.000601513 -0.265844)
(5.99488e-05 0.000609495 -0.265853)
(5.9536e-05 0.000626752 -0.265881)
(4.5278e-06 0.000605089 -0.265941)
(-3.9083e-06 0.000635376 -0.265956)
(-8.9636e-06 0.000656011 -0.265986)
(-8.55344e-06 0.00065277 -0.266)
(-8.55414e-06 0.000631807 -0.26598)
(-5.49473e-08 0.00060996 -0.265931)
(1.52741e-05 0.000597273 -0.26591)
(3.02975e-05 0.000590407 -0.265918)
(4.3138e-05 0.000585103 -0.265911)
(5.30234e-05 0.000584099 -0.265895)
(5.8977e-05 0.000592605 -0.265901)
(5.88793e-05 0.000610387 -0.265928)
(4.527e-06 0.000588815 -0.265962)
(-4.3644e-06 0.000618717 -0.265979)
(-8.9696e-06 0.000638961 -0.26601)
(-7.61252e-06 0.000635467 -0.266023)
(-6.08607e-06 0.000614058 -0.266001)
(3.3044e-06 0.000591427 -0.265953)
(1.88323e-05 0.000578442 -0.265934)
(3.35288e-05 0.00057176 -0.265942)
(4.48158e-05 0.000566729 -0.265935)
(5.27557e-05 0.000566 -0.26592)
(5.77838e-05 0.000574934 -0.265924)
(5.79894e-05 0.000593179 -0.26595)
(4.62637e-06 0.000571857 -0.265964)
(-4.63928e-06 0.000601326 -0.265983)
(-8.82405e-06 0.000621095 -0.266014)
(-6.57509e-06 0.000617289 -0.266025)
(-3.54263e-06 0.000595434 -0.266002)
(6.69454e-06 0.000572078 -0.265956)
(2.2339e-05 0.000558855 -0.265938)
(3.66337e-05 0.000552448 -0.265946)
(4.63308e-05 0.000547773 -0.26594)
(5.23204e-05 0.000547293 -0.265924)
(5.64006e-05 0.000556551 -0.265927)
(5.68915e-05 0.000575195 -0.265952)
(4.8232e-06 0.00055426 -0.265952)
(-4.73807e-06 0.000583254 -0.265971)
(-8.53459e-06 0.000602472 -0.266001)
(-5.45022e-06 0.000598291 -0.266011)
(-9.51841e-07 0.000575989 -0.265987)
(1.00798e-05 0.000551972 -0.265943)
(2.5764e-05 0.000538574 -0.265927)
(3.95911e-05 0.000532535 -0.265935)
(4.768e-05 0.000528297 -0.26593)
(5.17341e-05 0.000528036 -0.265914)
(5.48547e-05 0.000537515 -0.265915)
(5.56094e-05 0.000556489 -0.265939)
(5.11628e-06 0.000536055 -0.265928)
(-4.66521e-06 0.000564541 -0.265947)
(-8.10796e-06 0.000583136 -0.265976)
(-4.24727e-06 0.000578518 -0.265985)
(1.65979e-06 0.000555767 -0.265961)
(1.34274e-05 0.000531156 -0.265918)
(2.90796e-05 0.000517648 -0.265904)
(4.23818e-05 0.000512067 -0.265913)
(4.88604e-05 0.000508347 -0.265909)
(5.10109e-05 0.000508275 -0.265893)
(5.31697e-05 0.000517868 -0.265893)
(5.41648e-05 0.000537102 -0.265916)
(5.50554e-06 0.000517263 -0.265897)
(-4.42424e-06 0.000545215 -0.265915)
(-7.55012e-06 0.000563122 -0.265942)
(-2.97633e-06 0.000558003 -0.265951)
(4.26638e-06 0.0005348 -0.265926)
(1.67061e-05 0.000509665 -0.265886)
(3.22588e-05 0.000496114 -0.265874)
(4.49869e-05 0.000491082 -0.265884)
(4.9869e-05 0.000487959 -0.26588)
(5.0163e-05 0.000488046 -0.265864)
(5.13661e-05 0.000497643 -0.265863)
(5.25773e-05 0.000517065 -0.265885)
(5.99153e-06 0.000497898 -0.26586)
(-4.01794e-06 0.000525298 -0.265877)
(-6.86656e-06 0.000542457 -0.265903)
(-1.6486e-06 0.000536773 -0.26591)
(6.84174e-06 0.000513115 -0.265886)
(1.9885e-05 0.000487527 -0.265848)
(3.52737e-05 0.000474003 -0.265838)
(4.73863e-05 0.000469606 -0.265848)
(5.07016e-05 0.000467157 -0.265845)
(4.92006e-05 0.000467371 -0.26583)
(4.94623e-05 0.000476866 -0.265828)
(5.08651e-05 0.000496403 -0.265848)
(6.57499e-06 0.000477967 -0.26582)
(-3.44854e-06 0.000504805 -0.265836)
(-6.06263e-06 0.000521162 -0.265859)
(-2.76646e-07 0.00051485 -0.265865)
(9.35859e-06 0.000490734 -0.265842)
(2.29326e-05 0.000464767 -0.265807)
(3.80948e-05 0.000451337 -0.265798)
(4.95584e-05 0.000447662 -0.265809)
(5.13532e-05 0.000445961 -0.265807)
(4.8133e-05 0.000446271 -0.265792)
(4.74756e-05 0.000455554 -0.265789)
(4.90457e-05 0.000475132 -0.265808)
(7.25636e-06 0.000457473 -0.265778)
(-2.71788e-06 0.000483747 -0.265792)
(-5.14387e-06 0.000499254 -0.265813)
(1.12537e-06 0.000492255 -0.265818)
(1.17884e-05 0.000467677 -0.265796)
(2.58154e-05 0.000441403 -0.265763)
(4.06899e-05 0.000428136 -0.265757)
(5.14792e-05 0.000425265 -0.265768)
(5.18177e-05 0.000424381 -0.265767)
(4.69692e-05 0.000424757 -0.265752)
(4.54231e-05 0.000433723 -0.265749)
(4.71362e-05 0.000453266 -0.265767)
(8.03521e-06 0.000436417 -0.265735)
(-1.82793e-06 0.000462134 -0.265747)
(-4.1161e-06 0.000476751 -0.265767)
(2.54195e-06 0.000469004 -0.26577)
(1.41012e-05 0.00044396 -0.265749)
(2.84978e-05 0.000417453 -0.265719)
(4.30236e-05 0.000404417 -0.265714)
(5.31226e-05 0.000402425 -0.265726)
(5.20878e-05 0.000402425 -0.265726)
(4.57183e-05 0.000402838 -0.265712)
(4.33227e-05 0.000411383 -0.265708)
(4.51541e-05 0.000430818 -0.265724)