0 	0 	0 	0
5.01672e-05 	-2.64821e-05 	-4.98424e-06 	0.0204717
0.000100334 	-5.29641e-05 	-9.96849e-06 	0.0409434
0.000150502 	-7.94462e-05 	-1.49527e-05 	0.061415
0.000200669 	-0.000105928 	-1.9937e-05 	0.0818867
0.000250836 	-0.00013241 	-2.49212e-05 	0.102358
0.000301003 	-0.000158892 	-2.99055e-05 	0.12283
0.000351171 	-0.000182763 	-3.56337e-05 	0.141164
0.000401338 	-0.000196757 	-4.41754e-05 	0.151412
0.000451505 	-0.000210751 	-5.27171e-05 	0.16166
0.000501672 	-0.000224745 	-6.12588e-05 	0.171909
0.000551839 	-0.000238739 	-6.98005e-05 	0.182157
0.000602007 	-0.000252733 	-7.83422e-05 	0.192405
0.000652174 	-0.000266727 	-8.68839e-05 	0.202654
0.000702341 	-0.000280721 	-9.54256e-05 	0.212902
0.000752508 	-0.000291565 	-0.000104172 	0.221737
0.000802676 	-0.000294596 	-0.000113424 	0.227069
0.000852843 	-0.000297627 	-0.000122677 	0.232402
0.00090301 	-0.000300658 	-0.00013193 	0.237734
0.000953177 	-0.000303689 	-0.000141183 	0.243066
0.00100334 	-0.00030672 	-0.000150436 	0.248398
0.00105351 	-0.000309752 	-0.000159689 	0.25373
0.00110368 	-0.000312783 	-0.000168941 	0.259062
0.00115385 	-0.000315814 	-0.000178194 	0.264394
0.00120401 	-0.000318623 	-0.000187395 	0.269621
0.00125418 	-0.000316878 	-0.000195538 	0.272675
0.00130435 	-0.000315133 	-0.000203681 	0.275729
0.00135452 	-0.000313387 	-0.000211824 	0.278783
0.00140468 	-0.000311642 	-0.000219967 	0.281837
0.00145485 	-0.000309897 	-0.000228109 	0.28489
0.00150502 	-0.000308152 	-0.000236252 	0.287944
0.00155518 	-0.000306406 	-0.000244395 	0.290998
0.00160535 	-0.000304661 	-0.000252538 	0.294052
0.00165552 	-0.000302916 	-0.000260681 	0.297106
0.00170569 	-0.000301171 	-0.000268823 	0.30016
0.00175585 	-0.00029916 	-0.000276509 	0.302922
0.00180602 	-0.000296419 	-0.000282937 	0.304881
0.00185619 	-0.000293679 	-0.000289366 	0.30684
0.00190635 	-0.000290938 	-0.000295794 	0.308799
0.00195652 	-0.000288197 	-0.000302222 	0.310758
0.00200669 	-0.000285457 	-0.000308651 	0.312717
0.00205686 	-0.000282716 	-0.000315079 	0.314676
0.00210702 	-0.000279975 	-0.000321507 	0.316635
0.00215719 	-0.000277234 	-0.000327935 	0.318594
0.00220736 	-0.000274494 	-0.000334364 	0.320553
0.00225753 	-0.000271753 	-0.000340792 	0.322512
0.00230769 	-0.000269012 	-0.00034722 	0.324471
0.00235786 	-0.000266272 	-0.000353649 	0.32643
0.00240803 	-0.00026385 	-0.000358812 	0.327948
0.00245819 	-0.00026157 	-0.000363412 	0.32927
0.00250836 	-0.00025929 	-0.000368012 	0.330592
0.00255853 	-0.00025701 	-0.000372612 	0.331913
0.0026087 	-0.000254731 	-0.000377212 	0.333235
0.00265886 	-0.000252451 	-0.000381812 	0.334557
0.00270903 	-0.000250171 	-0.000386412 	0.335879
0.0027592 	-0.000247892 	-0.000391012 	0.337201
0.00280936 	-0.000245612 	-0.000395612 	0.338522
0.00285953 	-0.000243332 	-0.000400212 	0.339844
0.0029097 	-0.000241052 	-0.000404812 	0.341166
0.00295987 	-0.000238773 	-0.000409412 	0.342488
0.00301003 	-0.000236493 	-0.000414012 	0.343809
0.0030602 	-0.000234213 	-0.000418612 	0.345131
0.00311037 	-0.00023195 	-0.00042318 	0.346443
0.00316054 	-0.000230403 	-0.000426381 	0.347327
0.0032107 	-0.000228856 	-0.000429581 	0.348211
0.00326087 	-0.000227308 	-0.000432781 	0.349096
0.00331104 	-0.000225761 	-0.000435982 	0.34998
0.0033612 	-0.000224214 	-0.000439182 	0.350864
0.00341137 	-0.000222666 	-0.000442382 	0.351748
0.00346154 	-0.000221119 	-0.000445583 	0.352632
0.00351171 	-0.000219572 	-0.000448783 	0.353516
0.00356187 	-0.000218025 	-0.000451983 	0.354401
0.00361204 	-0.000216477 	-0.000455184 	0.355285
0.00366221 	-0.00021493 	-0.000458384 	0.356169
0.00371237 	-0.000213383 	-0.000461584 	0.357053
0.00376254 	-0.000211836 	-0.000464785 	0.357937
0.00381271 	-0.000210288 	-0.000467985 	0.358821
0.00386288 	-0.000208741 	-0.000471186 	0.359706
0.00391304 	-0.000207194 	-0.000474386 	0.36059
0.00396321 	-0.000205646 	-0.000477586 	0.361474
0.00401338 	-0.000204554 	-0.000479939 	0.362054
0.00406355 	-0.000203507 	-0.000482208 	0.362604
0.00411371 	-0.00020246 	-0.000484477 	0.363155
0.00416388 	-0.000201412 	-0.000486746 	0.363705
0.00421405 	-0.000200365 	-0.000489015 	0.364255
0.00426421 	-0.000199317 	-0.000491284 	0.364806
0.00431438 	-0.00019827 	-0.000493553 	0.365356
0.00436455 	-0.000197223 	-0.000495822 	0.365907
0.00441472 	-0.000196175 	-0.000498092 	0.366457
0.00446488 	-0.000195128 	-0.000500361 	0.367007
0.00451505 	-0.00019408 	-0.00050263 	0.367558
0.00456522 	-0.000193033 	-0.000504899 	0.368108
0.00461538 	-0.000191985 	-0.000507168 	0.368658
0.00466555 	-0.000190938 	-0.000509437 	0.369209
0.00471572 	-0.000189891 	-0.000511706 	0.369759
0.00476589 	-0.000188843 	-0.000513975 	0.370309
0.00481605 	-0.000187796 	-0.000516245 	0.37086
0.00486622 	-0.000186748 	-0.000518514 	0.37141
0.00491639 	-0.000185701 	-0.000520783 	0.371961
0.00496656 	-0.000184654 	-0.000523052 	0.372511
0.00501672 	-0.000183827 	-0.000524585 	0.372808
0.00506689 	-0.000183011 	-0.000526079 	0.373092
0.00511706 	-0.000182196 	-0.000527573 	0.373376
0.00516722 	-0.000181381 	-0.000529066 	0.373659
0.00521739 	-0.000180565 	-0.00053056 	0.373943
0.00526756 	-0.00017975 	-0.000532054 	0.374227
0.00531773 	-0.000178935 	-0.000533548 	0.374511
0.00536789 	-0.00017812 	-0.000535042 	0.374794
0.00541806 	-0.000177304 	-0.000536535 	0.375078
0.00546823 	-0.000176489 	-0.000538029 	0.375362
0.00551839 	-0.000175674 	-0.000539523 	0.375645
0.00556856 	-0.000174859 	-0.000541017 	0.375929
0.00561873 	-0.000174043 	-0.00054251 	0.376213
0.0056689 	-0.000173228 	-0.000544004 	0.376497
0.00571906 	-0.000172413 	-0.000545498 	0.37678
0.00576923 	-0.000171598 	-0.000546992 	0.377064
0.0058194 	-0.000170782 	-0.000548486 	0.377348
0.00586957 	-0.000169967 	-0.000549979 	0.377632
0.00591973 	-0.000169152 	-0.000551473 	0.377915
0.0059699 	-0.000168337 	-0.000552967 	0.378199
0.00602007 	-0.000167521 	-0.000554461 	0.378483
0.00607023 	-0.000166706 	-0.000555954 	0.378766
0.0061204 	-0.000165891 	-0.000557448 	0.37905
0.00617057 	-0.000165175 	-0.000558405 	0.379187
0.00622074 	-0.00016451 	-0.000559088 	0.379249
0.0062709 	-0.000163844 	-0.000559772 	0.379311
0.00632107 	-0.000163179 	-0.000560456 	0.379373
0.00637124 	-0.000162513 	-0.00056114 	0.379435
0.0064214 	-0.000161848 	-0.000561824 	0.379497
0.00647157 	-0.000161183 	-0.000562507 	0.379559
0.00652174 	-0.000160517 	-0.000563191 	0.379621
0.00657191 	-0.000159852 	-0.000563875 	0.379683
0.00662207 	-0.000159186 	-0.000564559 	0.379745
0.00667224 	-0.000158521 	-0.000565243 	0.379807
0.00672241 	-0.000157856 	-0.000565926 	0.379869
0.00677258 	-0.00015719 	-0.00056661 	0.379931
0.00682274 	-0.000156525 	-0.000567294 	0.379993
0.00687291 	-0.000155859 	-0.000567978 	0.380055
0.00692308 	-0.000155194 	-0.000568662 	0.380117
0.00697324 	-0.000154529 	-0.000569345 	0.380179
0.00702341 	-0.000153863 	-0.000570029 	0.380241
0.00707358 	-0.000153198 	-0.000570713 	0.380303
0.00712375 	-0.000152532 	-0.000571397 	0.380365
0.00717391 	-0.000151867 	-0.00057208 	0.380427
0.00722408 	-0.000151201 	-0.000572764 	0.380489
0.00727425 	-0.000150536 	-0.000573448 	0.380551
0.00732441 	-0.000149871 	-0.000574132 	0.380613
0.00737458 	-0.000149205 	-0.000574816 	0.380675
0.00742475 	-0.00014854 	-0.000575499 	0.380737
0.00747492 	-0.000147874 	-0.000576183 	0.380799
0.00752508 	-0.000147268 	-0.000576459 	0.380762
0.00757525 	-0.000146721 	-0.000576326 	0.380624
0.00762542 	-0.000146173 	-0.000576193 	0.380486
0.00767559 	-0.000145626 	-0.00057606 	0.380348
0.00772575 	-0.000145078 	-0.000575927 	0.380211
0.00777592 	-0.000144531 	-0.000575794 	0.380073
0.00782609 	-0.000143983 	-0.000575661 	0.379935
0.00787625 	-0.000143436 	-0.000575528 	0.379798
0.00792642 	-0.000142889 	-0.000575395 	0.37966
0.00797659 	-0.000142341 	-0.000575262 	0.379522
0.00802676 	-0.000141794 	-0.000575129 	0.379384
0.00807692 	-0.000141246 	-0.000574996 	0.379247
0.00812709 	-0.000140699 	-0.000574863 	0.379109
0.00817726 	-0.000140151 	-0.00057473 	0.378971
0.00822742 	-0.000139604 	-0.000574597 	0.378834
0.00827759 	-0.000139056 	-0.000574464 	0.378696
0.00832776 	-0.000138509 	-0.000574331 	0.378558
0.00837793 	-0.000137962 	-0.000574198 	0.378421
0.00842809 	-0.000137414 	-0.000574065 	0.378283
0.00847826 	-0.000136867 	-0.000573932 	0.378145
0.00852843 	-0.000136319 	-0.000573799 	0.378007
0.0085786 	-0.000135772 	-0.000573666 	0.37787
0.00862876 	-0.000135224 	-0.000573533 	0.377732
0.00867893 	-0.000134677 	-0.0005734 	0.377594
0.0087291 	-0.00013413 	-0.000573267 	0.377457
0.00877926 	-0.000133582 	-0.000573134 	0.377319
0.00882943 	-0.000133035 	-0.000573002 	0.377181
0.0088796 	-0.000132545 	-0.000572529 	0.376962
0.00892977 	-0.000132171 	-0.000571387 	0.376581
0.00897993 	-0.000131796 	-0.000570246 	0.3762
0.0090301 	-0.000131421 	-0.000569104 	0.375819
0.00908027 	-0.000131046 	-0.000567962 	0.375438
0.00913043 	-0.000130672 	-0.000566821 	0.375057
0.0091806 	-0.000130297 	-0.000565679 	0.374676
0.00923077 	-0.000129922 	-0.000564537 	0.374296
0.00928094 	-0.000129547 	-0.000563396 	0.373915
0.0093311 	-0.000129173 	-0.000562254 	0.373534
0.00938127 	-0.000128798 	-0.000561112 	0.373153
0.00943144 	-0.000128423 	-0.000559971 	0.372772
0.00948161 	-0.000128048 	-0.000558829 	0.372391
0.00953177 	-0.000127674 	-0.000557687 	0.37201
0.00958194 	-0.000127299 	-0.000556546 	0.371629
0.00963211 	-0.000126924 	-0.000555404 	0.371248
0.00968227 	-0.000126549 	-0.000554262 	0.370868
0.00973244 	-0.000126174 	-0.000553121 	0.370487
0.00978261 	-0.0001258 	-0.000551979 	0.370106
0.00983278 	-0.000125425 	-0.000550837 	0.369725
0.00988294 	-0.00012505 	-0.000549696 	0.369344
0.00993311 	-0.000124675 	-0.000548554 	0.368963
0.00998328 	-0.000124301 	-0.000547412 	0.368582
0.0100334 	-0.000123946 	-0.000546213 	0.368187
0.0100836 	-0.000123964 	-0.00054394 	0.367518
0.0101338 	-0.000123983 	-0.000541668 	0.36685
0.0101839 	-0.000124001 	-0.000539395 	0.366181
0.0102341 	-0.00012402 	-0.000537122 	0.365512
0.0102843 	-0.000124038 	-0.00053485 	0.364844
0.0103344 	-0.000124057 	-0.000532577 	0.364175
0.0103846 	-0.000124075 	-0.000530304 	0.363507
0.0104348 	-0.000124094 	-0.000528031 	0.362838
0.0104849 	-0.000124112 	-0.000525759 	0.36217
0.0105351 	-0.000124131 	-0.000523486 	0.361501
0.0105853 	-0.000124149 	-0.000521213 	0.360832
0.0106355 	-0.000124167 	-0.000518941 	0.360164
0.0106856 	-0.000124186 	-0.000516668 	0.359495
0.0107358 	-0.000124204 	-0.000514395 	0.358827
0.010786 	-0.000124223 	-0.000512123 	0.358158
0.0108361 	-0.000124241 	-0.00050985 	0.35749
0.0108863 	-0.00012426 	-0.000507577 	0.356821
0.0109365 	-0.000124278 	-0.000505305 	0.356152
0.0109866 	-0.000124297 	-0.000503032 	0.355484
0.0110368 	-0.00012438 	-0.000500618 	0.354782
0.011087 	-0.000125125 	-0.000496764 	0.353741
0.0111371 	-0.000125869 	-0.00049291 	0.352699
0.0111873 	-0.000126614 	-0.000489056 	0.351658
0.0112375 	-0.000127359 	-0.000485202 	0.350617
0.0112876 	-0.000128103 	-0.000481348 	0.349575
0.0113378 	-0.000128848 	-0.000477494 	0.348534
0.011388 	-0.000129593 	-0.00047364 	0.347493
0.0114381 	-0.000130337 	-0.000469786 	0.346452
0.0114883 	-0.000131082 	-0.000465932 	0.34541
0.0115385 	-0.000131827 	-0.000462078 	0.344369
0.0115886 	-0.000132571 	-0.000458225 	0.343328
0.0116388 	-0.000133316 	-0.000454371 	0.342286
0.011689 	-0.000134061 	-0.000450517 	0.341245
0.0117391 	-0.000134805 	-0.000446663 	0.340204
0.0117893 	-0.00013555 	-0.000442809 	0.339163
0.0118395 	-0.000136295 	-0.000438955 	0.338121
0.0118896 	-0.000137039 	-0.000435101 	0.33708
0.0119398 	-0.000138822 	-0.000428807 	0.335493
0.01199 	-0.000140628 	-0.000422456 	0.333894
0.0120401 	-0.000142434 	-0.000416106 	0.332295
0.0120903 	-0.00014424 	-0.000409755 	0.330695
0.0121405 	-0.000146047 	-0.000403405 	0.329096
0.0121906 	-0.000147853 	-0.000397054 	0.327496
0.0122408 	-0.000149659 	-0.000390704 	0.325897
0.012291 	-0.000151465 	-0.000384353 	0.324298
0.0123411 	-0.000153272 	-0.000378003 	0.322698
0.0123913 	-0.000155078 	-0.000371652 	0.321099
0.0124415 	-0.000156884 	-0.000365302 	0.3195
0.0124916 	-0.00015869 	-0.000358951 	0.3179
0.0125418 	-0.000160497 	-0.000352601 	0.316301
0.012592 	-0.000162303 	-0.00034625 	0.314702
0.0126421 	-0.000164405 	-0.000338959 	0.312813
0.0126923 	-0.000167171 	-0.000329558 	0.310277
0.0127425 	-0.000169937 	-0.000320158 	0.30774
0.0127926 	-0.000172702 	-0.000310757 	0.305203
0.0128428 	-0.000175468 	-0.000301356 	0.302667
0.012893 	-0.000178234 	-0.000291955 	0.30013
0.0129431 	-0.000181 	-0.000282554 	0.297593
0.0129933 	-0.000183765 	-0.000273153 	0.295057
0.0130435 	-0.000186531 	-0.000263752 	0.29252
0.0130936 	-0.000189297 	-0.000254352 	0.289984
0.0131438 	-0.000192063 	-0.000244951 	0.287447
0.013194 	-0.000194828 	-0.00023555 	0.28491
0.0132441 	-0.000197594 	-0.000226149 	0.282374
0.0132943 	-0.000199946 	-0.000215251 	0.278604
0.0133445 	-0.000202147 	-0.00020381 	0.274386
0.0133946 	-0.000204348 	-0.000192368 	0.270168
0.0134448 	-0.000206548 	-0.000180926 	0.26595
0.013495 	-0.000208749 	-0.000169484 	0.261731
0.0135452 	-0.00021095 	-0.000158042 	0.257513
0.0135953 	-0.000213151 	-0.0001466 	0.253295
0.0136455 	-0.000215352 	-0.000135158 	0.249077
0.0136957 	-0.000217553 	-0.000123716 	0.244859
0.0137458 	-0.000219754 	-0.000112274 	0.240641
0.013796 	-0.000221955 	-0.000100833 	0.236423
0.0138462 	-0.000219327 	-9.12037e-05 	0.228935
0.0138963 	-0.000216465 	-8.16632e-05 	0.221288
0.0139465 	-0.000213602 	-7.21228e-05 	0.213641
0.0139967 	-0.00021074 	-6.25823e-05 	0.205994
0.0140468 	-0.000207877 	-5.30418e-05 	0.198346
0.014097 	-0.000205015 	-4.35013e-05 	0.190699
0.0141472 	-0.000202152 	-3.39608e-05 	0.183052
0.0141973 	-0.00019929 	-2.44203e-05 	0.175405
0.0142475 	-0.000196427 	-1.48799e-05 	0.167758
0.0142977 	-0.000187127 	-1.00542e-05 	0.157282
0.0143478 	-0.000175229 	-7.12998e-06 	0.145665
0.014398 	-0.000163332 	-4.20581e-06 	0.134048
0.0144482 	-0.000151434 	-1.28163e-06 	0.122432
0.0144983 	-0.000139537 	1.64254e-06 	0.110815
0.0145485 	-0.00012764 	4.56672e-06 	0.0991979
0.0145987 	-0.000115742 	7.4909e-06 	0.0875811
0.0146488 	-0.000103845 	1.04151e-05 	0.0759643
0.014699 	-8.95529e-05 	9.74247e-06 	0.0649709
0.0147492 	-7.46274e-05 	8.11872e-06 	0.0541424
0.0147993 	-5.97019e-05 	6.49498e-06 	0.0433139
0.0148495 	-4.47764e-05 	4.87123e-06 	0.0324855
0.0148997 	-2.9851e-05 	3.24749e-06 	0.021657
0.0149498 	-1.49255e-05 	1.62374e-06 	0.0108285
0.015 	0 	0 	0
