/*--------------------------------*- C++ -*----------------------------------*\
| =========                 |                                                 |
| \\      /  F ield         | OpenFOAM: The Open Source CFD Toolbox           |
|  \\    /   O peration     | Version:  v1906                                 |
|   \\  /    A nd           | Web:      www.OpenFOAM.com                      |
|    \\/     M anipulation  |                                                 |
\*---------------------------------------------------------------------------*/
FoamFile
{
    version     2.0;
    format      ascii;
    class       volScalarField;
    location    "100";
    object      nut;
}
// * * * * * * * * * * * * * * * * * * * * * * * * * * * * * * * * * * * * * //

dimensions      [0 2 -1 0 0 0 0];


internalField   nonuniform List<scalar> 
2528
(
1.31178e-11
1.03775e-11
1.01756e-11
1.29244e-11
2.66491e-11
1.85002e-11
2.43211e-11
2.18323e-11
3.09467e-10
1.99028e-10
3.15954e-10
2.2043e-10
2.13676e-09
1.40398e-09
2.22938e-09
1.52092e-09
8.72637e-09
5.93957e-09
9.27408e-09
6.30431e-09
2.5337e-08
1.79263e-08
2.74132e-08
1.86319e-08
5.81243e-08
4.26955e-08
6.38398e-08
4.34969e-08
1.12307e-07
8.53331e-08
1.24665e-07
8.54351e-08
1.90664e-07
1.49166e-07
2.12878e-07
1.47277e-07
2.9311e-07
2.35043e-07
3.2778e-07
2.29631e-07
4.17372e-07
3.41645e-07
4.65967e-07
3.31184e-07
5.60176e-07
4.6637e-07
6.2039e-07
4.49469e-07
7.04927e-07
5.99437e-07
7.71403e-07
5.74124e-07
8.59241e-07
7.36951e-07
9.3148e-07
7.0239e-07
1.0254e-06
8.84543e-07
1.09895e-06
8.39417e-07
1.20316e-06
1.04227e-06
1.27335e-06
9.85335e-07
1.39309e-06
1.21051e-06
1.45362e-06
1.13997e-06
1.59437e-06
1.38978e-06
1.63872e-06
1.30307e-06
1.80528e-06
1.58101e-06
1.82874e-06
1.47463e-06
2.02459e-06
1.78492e-06
2.02655e-06
1.65544e-06
2.25114e-06
2.00096e-06
2.2384e-06
1.84744e-06
2.48367e-06
2.22675e-06
2.4713e-06
2.05277e-06
2.72051e-06
2.45776e-06
2.72802e-06
2.27149e-06
2.9504e-06
2.68953e-06
3.00141e-06
2.49865e-06
3.17019e-06
2.92116e-06
3.27647e-06
2.72573e-06
3.38931e-06
3.15364e-06
3.54355e-06
2.9482e-06
3.60703e-06
3.38682e-06
3.80476e-06
3.16679e-06
3.82259e-06
3.61809e-06
4.06397e-06
3.38224e-06
4.0353e-06
3.84023e-06
4.31152e-06
3.58816e-06
4.24452e-06
4.06111e-06
4.53578e-06
3.79292e-06
4.4496e-06
4.28015e-06
4.75508e-06
3.99586e-06
4.64984e-06
4.49683e-06
4.96818e-06
4.19633e-06
4.84453e-06
4.71067e-06
5.17385e-06
4.39367e-06
5.03303e-06
4.92131e-06
5.3707e-06
4.58728e-06
5.21476e-06
5.12846e-06
5.55701e-06
4.77659e-06
5.38917e-06
5.3319e-06
5.73039e-06
4.96127e-06
5.55762e-06
5.53147e-06
5.88687e-06
5.14078e-06
5.7223e-06
5.72696e-06
6.02372e-06
5.31482e-06
5.88424e-06
5.91575e-06
6.13915e-06
5.48326e-06
6.04404e-06
6.0969e-06
6.23805e-06
5.64613e-06
6.20105e-06
6.26929e-06
4.68677e-06
5.80364e-06
6.35281e-06
6.43235e-06
3.65568e-06
5.95613e-06
6.49564e-06
6.58253e-06
3.86039e-06
6.10387e-06
6.61984e-06
6.15336e-06
5.28826e-06
6.24696e-06
6.72619e-06
5.03005e-06
6.98048e-06
6.3853e-06
6.65835e-06
4.97357e-06
7.14641e-06
6.51855e-06
4.16947e-06
6.18418e-06
7.30425e-06
6.64663e-06
3.69465e-06
7.48871e-06
7.45407e-06
6.76996e-06
5.00945e-06
7.66078e-06
7.59077e-06
6.88858e-06
7.47897e-06
7.82602e-06
7.71081e-06
7.00476e-06
7.67608e-06
7.98397e-06
7.8123e-06
7.11967e-06
7.8971e-06
8.13351e-06
7.89454e-06
7.23347e-06
8.14484e-06
8.27346e-06
7.95953e-06
7.34629e-06
8.41989e-06
8.40253e-06
8.00751e-06
7.4584e-06
8.71101e-06
8.52411e-06
8.0393e-06
7.56995e-06
9.01192e-06
8.6401e-06
8.05607e-06
7.68165e-06
9.31835e-06
8.75246e-06
8.05938e-06
7.79452e-06
9.62801e-06
8.86222e-06
8.05096e-06
7.91016e-06
9.94116e-06
8.96868e-06
8.03259e-06
8.03118e-06
1.02562e-05
9.07137e-06
8.00613e-06
8.16134e-06
1.05719e-05
9.17498e-06
7.9938e-06
8.3052e-06
1.08879e-05
9.28126e-06
7.99814e-06
8.46611e-06
1.1206e-05
9.38849e-06
8.01829e-06
8.64341e-06
1.15287e-05
9.49784e-06
8.04842e-06
8.83575e-06
1.18598e-05
9.61048e-06
8.08404e-06
9.04117e-06
1.22013e-05
9.72562e-06
8.12626e-06
9.25746e-06
1.25433e-05
9.84056e-06
8.17719e-06
9.48147e-06
1.28731e-05
9.95343e-06
8.23855e-06
9.70925e-06
1.31692e-05
1.00637e-05
8.31189e-06
9.93639e-06
1.34292e-05
1.01699e-05
8.39502e-06
1.01582e-05
1.36542e-05
1.0271e-05
8.48095e-06
1.03672e-05
1.385e-05
1.03655e-05
8.57142e-06
1.05505e-05
1.40023e-05
1.0452e-05
8.66616e-06
1.0702e-05
1.41162e-05
1.05313e-05
8.75748e-06
1.08198e-05
1.40305e-05
1.0602e-05
8.83863e-06
1.08996e-05
8.60652e-06
1.06649e-05
8.8972e-06
1.09444e-05
6.40279e-06
1.07209e-05
8.92953e-06
1.09674e-05
8.01286e-06
1.07709e-05
8.93194e-06
1.0978e-05
1.46985e-05
1.08014e-05
8.90581e-06
1.09744e-05
4.53531e-13
4.37017e-12
5.62988e-12
3.49562e-12
2.89246e-12
1.09446e-11
1.74797e-11
7.32145e-12
5.14951e-11
1.49054e-10
2.56516e-10
8.9796e-11
3.84271e-10
1.07951e-09
1.83595e-09
6.45063e-10
1.69425e-09
4.63811e-09
7.71717e-09
2.77275e-09
5.3931e-09
1.42653e-08
2.3046e-08
8.56987e-09
1.37219e-08
3.47528e-08
5.41682e-08
2.1077e-08
2.95494e-08
7.11668e-08
1.0661e-07
4.37712e-08
5.58239e-08
1.27414e-07
1.83236e-07
7.97779e-08
9.48595e-08
2.05206e-07
2.83686e-07
1.31149e-07
1.47764e-07
3.03928e-07
4.05132e-07
1.98503e-07
2.14261e-07
4.21281e-07
5.4359e-07
2.8112e-07
2.9293e-07
5.54149e-07
6.824e-07
3.77338e-07
3.81682e-07
6.99262e-07
8.24079e-07
4.85022e-07
4.76772e-07
8.39169e-07
9.72553e-07
6.01179e-07
5.64801e-07
9.83462e-07
1.12795e-06
7.12308e-07
6.55828e-07
1.13364e-06
1.28944e-06
8.28008e-07
7.49875e-07
1.28922e-06
1.45632e-06
9.48737e-07
8.47042e-07
1.44936e-06
1.62783e-06
1.07401e-06
9.47252e-07
1.61338e-06
1.80347e-06
1.20321e-06
1.05009e-06
1.78077e-06
1.98289e-06
1.33584e-06
1.1541e-06
1.95119e-06
2.1655e-06
1.47152e-06
1.25675e-06
2.12437e-06
2.34912e-06
1.61006e-06
1.35571e-06
2.29992e-06
2.52884e-06
1.75145e-06
1.45193e-06
2.47665e-06
2.69763e-06
1.89577e-06
1.55247e-06
2.65336e-06
2.85566e-06
2.04308e-06
1.6694e-06
2.82986e-06
3.01554e-06
2.19332e-06
1.81264e-06
3.00562e-06
3.20359e-06
2.34592e-06
1.97995e-06
3.17989e-06
3.44578e-06
2.49812e-06
2.15152e-06
3.35176e-06
3.73993e-06
2.65015e-06
2.30255e-06
3.51994e-06
4.03106e-06
2.80238e-06
2.42842e-06
3.68235e-06
4.21916e-06
2.95446e-06
2.54045e-06
3.83567e-06
4.2126e-06
3.1056e-06
2.65223e-06
3.97488e-06
4.03654e-06
3.25449e-06
2.74319e-06
4.09351e-06
3.88052e-06
3.39925e-06
2.82714e-06
4.18512e-06
3.95546e-06
3.53678e-06
2.7514e-06
4.2471e-06
4.36396e-06
3.66121e-06
2.48065e-06
4.28816e-06
5.00467e-06
3.76189e-06
2.2141e-06
4.33413e-06
5.5941e-06
3.82333e-06
2.1262e-06
4.41989e-06
5.77039e-06
3.83223e-06
2.29745e-06
4.57077e-06
5.93003e-06
3.79313e-06
2.71704e-06
4.80158e-06
6.07699e-06
3.73976e-06
3.22039e-06
5.1251e-06
6.21147e-06
3.71924e-06
3.50698e-06
5.53272e-06
6.33413e-06
3.75842e-06
3.60122e-06
5.94471e-06
6.44483e-06
3.86172e-06
3.69777e-06
6.25543e-06
6.54304e-06
4.03449e-06
3.79921e-06
6.41154e-06
6.62802e-06
4.28341e-06
3.90884e-06
6.56077e-06
6.69815e-06
4.59191e-06
4.02669e-06
6.7056e-06
6.75167e-06
4.90642e-06
4.15103e-06
6.84497e-06
6.78681e-06
5.17067e-06
4.2791e-06
6.97769e-06
6.80199e-06
5.3136e-06
4.40642e-06
7.10244e-06
6.79694e-06
5.40929e-06
4.52983e-06
7.21643e-06
6.77223e-06
5.50128e-06
4.64608e-06
7.31563e-06
6.73048e-06
5.58961e-06
4.75218e-06
6.90969e-06
6.67568e-06
5.67305e-06
4.84622e-06
5.5613e-06
6.61321e-06
5.74974e-06
4.927e-06
4.59705e-06
6.55018e-06
5.81709e-06
4.99202e-06
4.56018e-06
6.49195e-06
5.87175e-06
5.03846e-06
5.5198e-06
5.56009e-06
5.75905e-06
5.06346e-06
7.10947e-06
3.99496e-06
4.15431e-06
5.06437e-06
8.02147e-06
3.29289e-06
3.19261e-06
5.03945e-06
8.13504e-06
3.60191e-06
3.1825e-06
4.69434e-06
8.23613e-06
4.89857e-06
4.06297e-06
2.95279e-06
8.3196e-06
6.22633e-06
5.47342e-06
2.29543e-06
8.38168e-06
6.24085e-06
6.16371e-06
2.4294e-06
8.42049e-06
6.27142e-06
6.21163e-06
3.18786e-06
8.43516e-06
6.32093e-06
6.25486e-06
4.18362e-06
8.42364e-06
6.3917e-06
6.2845e-06
3.98719e-06
8.38287e-06
6.48602e-06
6.29515e-06
3.75867e-06
8.31139e-06
6.60664e-06
6.28606e-06
3.4997e-06
8.2083e-06
6.75799e-06
6.25771e-06
3.21491e-06
8.07343e-06
6.95234e-06
6.21171e-06
2.93239e-06
7.90702e-06
7.18762e-06
6.15007e-06
2.66992e-06
7.71027e-06
7.43914e-06
6.07719e-06
2.45191e-06
7.46678e-06
7.69638e-06
5.99906e-06
2.30971e-06
6.26441e-06
7.96606e-06
5.92286e-06
2.26823e-06
6.245e-06
8.2449e-06
5.85603e-06
2.34026e-06
6.47608e-06
8.52921e-06
5.80519e-06
2.51344e-06
6.14731e-06
8.81469e-06
5.7763e-06
9.21093e-12
7.51135e-12
9.6895e-12
8.1642e-12
1.67571e-11
1.4215e-11
1.6887e-11
1.44416e-11
1.83306e-10
1.62942e-10
1.78573e-10
1.54773e-10
1.28413e-09
1.16343e-09
1.24912e-09
1.08624e-09
5.37408e-09
4.95713e-09
5.22374e-09
4.57051e-09
1.60384e-08
1.50495e-08
1.555e-08
1.3736e-08
3.78023e-08
3.60011e-08
3.64944e-08
3.26311e-08
7.48561e-08
7.2117e-08
7.18792e-08
6.51582e-08
1.29805e-07
1.26062e-07
1.23924e-07
1.13954e-07
2.03099e-07
1.98202e-07
1.92792e-07
1.7978e-07
2.9327e-07
2.86881e-07
2.76904e-07
2.61599e-07
3.97652e-07
3.89215e-07
3.73618e-07
3.57099e-07
5.04983e-07
4.94499e-07
4.74389e-07
4.60922e-07
6.13162e-07
5.99938e-07
5.74555e-07
5.60528e-07
7.28984e-07
7.12274e-07
6.8113e-07
6.66329e-07
8.51907e-07
8.30925e-07
7.93458e-07
7.77954e-07
9.81483e-07
9.55478e-07
9.10974e-07
8.94767e-07
1.11732e-06
1.08576e-06
1.03338e-06
1.01624e-06
1.25892e-06
1.222e-06
1.16093e-06
1.14188e-06
1.40597e-06
1.36538e-06
1.2953e-06
1.27125e-06
1.55937e-06
1.51882e-06
1.44016e-06
1.40425e-06
1.72289e-06
1.68704e-06
1.60015e-06
1.54178e-06
1.90396e-06
1.87465e-06
1.77652e-06
1.68679e-06
2.11114e-06
2.08225e-06
1.96173e-06
1.84465e-06
2.3474e-06
2.30326e-06
2.13463e-06
2.02139e-06
2.60331e-06
2.52739e-06
2.26069e-06
2.21944e-06
2.85933e-06
2.7405e-06
2.30765e-06
2.43332e-06
3.10274e-06
2.93359e-06
2.29247e-06
2.64997e-06
3.31799e-06
3.12782e-06
2.30967e-06
2.85788e-06
3.52552e-06
3.32192e-06
2.4637e-06
3.05685e-06
3.72968e-06
3.51454e-06
2.77583e-06
3.23455e-06
3.9287e-06
3.70363e-06
3.13333e-06
3.41191e-06
3.99219e-06
3.88692e-06
3.30144e-06
3.58798e-06
3.69227e-06
4.06196e-06
3.43803e-06
3.76136e-06
3.24241e-06
4.2263e-06
3.57271e-06
3.93015e-06
3.1246e-06
4.37772e-06
3.70505e-06
4.09206e-06
3.63289e-06
3.92215e-06
3.83466e-06
4.24439e-06
4.75455e-06
3.23875e-06
3.9611e-06
4.38419e-06
5.45407e-06
2.90194e-06
4.08388e-06
4.50834e-06
5.6903e-06
3.3023e-06
4.20254e-06
3.9306e-06
5.92293e-06
4.61133e-06
4.31678e-06
3.09161e-06
6.15347e-06
5.35887e-06
4.41127e-06
2.62528e-06
6.38108e-06
5.54089e-06
4.5028e-06
2.89811e-06
6.60546e-06
5.71866e-06
4.59845e-06
4.14739e-06
6.82657e-06
5.89348e-06
4.69971e-06
5.2151e-06
7.04525e-06
6.06568e-06
4.80235e-06
5.35005e-06
7.26268e-06
6.23564e-06
4.88027e-06
5.49153e-06
7.47924e-06
6.40298e-06
4.94524e-06
5.64413e-06
7.69498e-06
6.56721e-06
4.99842e-06
5.80115e-06
7.91017e-06
6.72775e-06
5.03809e-06
5.95889e-06
8.12534e-06
6.88394e-06
5.06302e-06
6.11893e-06
8.34264e-06
7.03495e-06
5.07078e-06
6.28213e-06
8.56228e-06
7.18122e-06
5.0603e-06
6.44838e-06
8.78484e-06
7.32504e-06
5.03036e-06
6.61783e-06
9.01127e-06
7.46688e-06
4.04652e-06
6.79074e-06
9.24519e-06
7.60741e-06
2.56743e-06
6.96753e-06
9.48768e-06
7.74733e-06
1.86743e-06
7.14867e-06
9.73986e-06
7.8868e-06
2.02738e-06
7.33439e-06
1.00029e-05
8.02502e-06
3.52058e-06
7.52442e-06
1.02779e-05
8.16067e-06
4.60579e-06
7.71772e-06
1.05657e-05
8.29241e-06
4.65333e-06
7.91246e-06
1.08669e-05
8.4189e-06
4.72496e-06
8.10648e-06
1.1174e-05
8.53877e-06
4.81632e-06
8.29859e-06
1.1485e-05
8.65068e-06
4.92372e-06
8.48793e-06
1.1796e-05
8.75299e-06
5.04365e-06
8.67336e-06
1.21021e-05
8.84928e-06
5.17369e-06
8.85288e-06
1.23964e-05
8.93988e-06
5.31436e-06
9.02391e-06
1.26716e-05
9.02526e-06
5.46297e-06
9.18327e-06
1.29223e-05
9.10585e-06
5.60915e-06
9.327e-06
1.31425e-05
9.18207e-06
5.7457e-06
9.4503e-06
1.33284e-05
9.25388e-06
5.87099e-06
9.54778e-06
1.34773e-05
9.31692e-06
5.98429e-06
9.61571e-06
1.35911e-05
9.37273e-06
6.08596e-06
9.64621e-06
1.36764e-05
9.42256e-06
6.17724e-06
9.63656e-06
1.37358e-05
9.46814e-06
6.25447e-06
9.58685e-06
1.37665e-05
9.5097e-06
6.31421e-06
9.52546e-06
1.37764e-05
9.54724e-06
6.35349e-06
9.47134e-06
1.37689e-05
9.57497e-06
6.36897e-06
9.41357e-06
1.37427e-05
9.59452e-06
6.35738e-06
9.35455e-06
8.39259e-12
1.03102e-11
1.46842e-11
7.74893e-12
1.07333e-11
1.81949e-11
2.13033e-11
1.28346e-11
6.48201e-11
1.64876e-10
1.79854e-10
1.0805e-10
4.26295e-10
1.10003e-09
1.23137e-09
7.19361e-10
1.79912e-09
4.5029e-09
5.14683e-09
2.96947e-09
5.51795e-09
1.33376e-08
1.53566e-08
8.90774e-09
1.35213e-08
3.15074e-08
3.62051e-08
2.13874e-08
2.80592e-08
6.28987e-08
7.18584e-08
4.35206e-08
5.12387e-08
1.103e-07
1.2525e-07
7.79328e-08
8.46115e-08
1.74781e-07
1.97531e-07
1.26169e-07
1.28962e-07
2.55751e-07
2.88154e-07
1.88481e-07
1.84333e-07
3.51503e-07
3.95385e-07
2.64004e-07
2.50216e-07
4.59838e-07
5.16964e-07
3.51141e-07
3.258e-07
5.70562e-07
6.43525e-07
4.47964e-07
4.10189e-07
6.86679e-07
7.75164e-07
5.44058e-07
5.0257e-07
8.11343e-07
9.17201e-07
6.43302e-07
6.02381e-07
9.44639e-07
1.06944e-06
7.48211e-07
7.09334e-07
1.08632e-06
1.23187e-06
8.58581e-07
8.23162e-07
1.23612e-06
1.40485e-06
9.73957e-07
9.43671e-07
1.39375e-06
1.58924e-06
1.09386e-06
1.07071e-06
1.55886e-06
1.78634e-06
1.21778e-06
1.20394e-06
1.73113e-06
1.99722e-06
1.34514e-06
1.34258e-06
1.91031e-06
2.22135e-06
1.47528e-06
1.48629e-06
2.09638e-06
2.45534e-06
1.60745e-06
1.63464e-06
2.28953e-06
2.69426e-06
1.74094e-06
1.7872e-06
2.48901e-06
2.92842e-06
1.87523e-06
1.94348e-06
2.68984e-06
3.15247e-06
2.01007e-06
2.10301e-06
2.87286e-06
3.37758e-06
2.14558e-06
2.26532e-06
3.05333e-06
3.60261e-06
2.28197e-06
2.42995e-06
3.23276e-06
3.82644e-06
2.41902e-06
2.59651e-06
3.41069e-06
4.04749e-06
2.5544e-06
2.76459e-06
3.58668e-06
4.26427e-06
2.69074e-06
2.93384e-06
3.76037e-06
4.47545e-06
2.83002e-06
3.104e-06
3.93145e-06
4.67974e-06
2.97403e-06
3.2749e-06
4.09971e-06
4.87589e-06
3.1212e-06
3.44633e-06
4.26501e-06
5.06279e-06
3.2624e-06
3.61791e-06
4.42738e-06
5.24078e-06
3.36542e-06
3.78886e-06
4.58694e-06
5.40952e-06
3.46331e-06
3.95804e-06
4.74383e-06
5.4663e-06
3.55666e-06
4.12422e-06
4.89798e-06
5.28369e-06
3.64637e-06
4.28614e-06
5.04877e-06
4.93855e-06
3.7338e-06
4.44256e-06
5.19504e-06
4.76476e-06
3.82059e-06
4.59218e-06
5.34244e-06
5.0207e-06
3.90822e-06
4.7412e-06
5.49104e-06
5.69639e-06
3.99726e-06
4.88959e-06
5.64092e-06
6.46317e-06
4.08731e-06
5.03773e-06
5.79159e-06
6.7327e-06
4.17764e-06
5.1864e-06
5.94197e-06
6.89768e-06
4.26755e-06
5.33616e-06
6.09132e-06
7.05965e-06
4.35635e-06
5.48549e-06
6.2388e-06
7.21743e-06
4.44335e-06
5.63387e-06
6.38329e-06
7.36985e-06
4.52792e-06
5.78175e-06
6.52371e-06
7.5156e-06
4.60947e-06
5.92827e-06
6.65901e-06
7.65484e-06
4.6874e-06
6.07243e-06
6.78829e-06
7.7867e-06
4.76116e-06
6.21315e-06
6.91115e-06
7.91234e-06
4.83017e-06
6.25115e-06
7.02404e-06
8.03378e-06
4.89385e-06
5.96324e-06
7.12606e-06
8.15395e-06
4.95166e-06
6.22945e-06
7.21694e-06
8.27658e-06
5.00307e-06
6.74578e-06
7.29697e-06
8.40476e-06
5.04752e-06
6.85195e-06
7.36737e-06
8.5388e-06
5.08445e-06
6.94069e-06
7.43167e-06
8.67714e-06
5.11323e-06
7.01023e-06
7.49029e-06
8.81861e-06
5.13323e-06
7.05855e-06
7.54347e-06
8.96231e-06
5.14373e-06
7.08878e-06
7.59103e-06
9.10733e-06
5.14389e-06
7.09866e-06
7.63268e-06
9.2529e-06
5.13276e-06
7.08571e-06
7.66834e-06
9.3984e-06
5.1092e-06
7.04735e-06
7.69288e-06
9.5435e-06
5.07193e-06
6.98093e-06
7.70393e-06
9.68807e-06
5.01946e-06
6.88387e-06
7.69892e-06
9.83199e-06
4.95021e-06
6.76503e-06
7.67542e-06
9.97481e-06
4.86242e-06
6.62425e-06
7.63096e-06
1.01221e-05
4.75436e-06
6.46137e-06
7.56353e-06
1.02866e-05
4.62681e-06
6.27612e-06
7.47545e-06
1.04679e-05
4.48442e-06
6.06768e-06
7.36425e-06
1.06643e-05
4.32812e-06
5.83476e-06
7.22792e-06
1.08735e-05
4.15854e-06
5.57544e-06
7.06489e-06
1.10928e-05
3.97772e-06
5.28853e-06
6.87436e-06
1.13188e-05
3.78809e-06
4.97241e-06
6.6563e-06
1.15479e-05
3.5872e-06
4.62502e-06
6.4128e-06
1.17762e-05
3.37849e-06
4.24023e-06
6.14765e-06
1.20002e-05
3.17517e-06
1.48397e-05
1.0823e-05
8.8492e-06
1.09568e-05
1.49292e-05
1.08454e-05
8.76214e-06
1.09243e-05
1.49591e-05
1.08607e-05
8.65074e-06
1.08762e-05
1.49295e-05
1.08711e-05
8.51439e-06
1.08122e-05
1.48516e-05
8.78148e-06
8.35206e-06
1.07317e-05
1.47288e-05
5.46458e-06
8.16538e-06
1.06352e-05
1.45837e-05
5.98476e-06
7.95985e-06
1.05246e-05
1.44164e-05
1.08473e-05
7.74157e-06
1.04042e-05
1.42288e-05
1.08434e-05
7.51432e-06
1.0287e-05
1.40247e-05
1.08095e-05
7.2818e-06
1.01856e-05
1.38057e-05
1.07487e-05
7.04746e-06
1.00984e-05
1.35705e-05
1.06648e-05
6.81438e-06
1.00225e-05
1.33151e-05
1.05779e-05
6.58537e-06
9.95115e-06
1.30346e-05
1.04857e-05
6.36294e-06
9.88263e-06
1.27275e-05
1.03852e-05
6.14953e-06
7.13079e-06
1.23987e-05
1.0274e-05
5.94934e-06
5.05012e-06
1.20532e-05
1.01495e-05
5.76434e-06
6.39531e-06
1.16953e-05
1.00098e-05
5.59538e-06
9.58378e-06
1.13284e-05
9.85413e-06
5.44317e-06
9.546e-06
1.09556e-05
9.68209e-06
5.30725e-06
9.49157e-06
1.05791e-05
9.4939e-06
5.18663e-06
9.41699e-06
1.02012e-05
9.29084e-06
5.07962e-06
9.32532e-06
9.82378e-06
9.07508e-06
4.98535e-06
9.21562e-06
9.44835e-06
8.84877e-06
4.90329e-06
9.08888e-06
9.07639e-06
8.61399e-06
4.83241e-06
8.94557e-06
8.70916e-06
8.37276e-06
4.29837e-06
8.78723e-06
8.34778e-06
8.12698e-06
3.7844e-06
8.61522e-06
7.99325e-06
7.87836e-06
4.58112e-06
8.43091e-06
7.64521e-06
7.62841e-06
4.50218e-06
8.23579e-06
7.30369e-06
7.37833e-06
4.42095e-06
8.03137e-06
6.96848e-06
7.12917e-06
4.33367e-06
7.81911e-06
6.09718e-06
6.88198e-06
4.24091e-06
7.60042e-06
4.87425e-06
6.63786e-06
4.14338e-06
7.37671e-06
4.30105e-06
6.39788e-06
4.04997e-06
7.14916e-06
4.55902e-06
6.16181e-06
3.95992e-06
6.91876e-06
5.22911e-06
5.92947e-06
3.87242e-06
6.68669e-06
4.94917e-06
5.70168e-06
3.78681e-06
6.45433e-06
4.66315e-06
5.47914e-06
3.70578e-06
6.22296e-06
4.37626e-06
5.26151e-06
3.63404e-06
5.99125e-06
4.09377e-06
5.04451e-06
3.57217e-06
5.7552e-06
3.81941e-06
4.82886e-06
3.51791e-06
5.5149e-06
3.49592e-06
4.61544e-06
3.46873e-06
5.27192e-06
3.1291e-06
4.40508e-06
3.422e-06
5.02783e-06
2.795e-06
4.05116e-06
3.37505e-06
4.78403e-06
2.575e-06
3.34428e-06
3.25779e-06
4.54176e-06
2.45159e-06
2.82414e-06
2.91918e-06
4.30209e-06
2.33603e-06
2.72294e-06
2.66294e-06
3.9887e-06
2.16933e-06
2.95645e-06
2.56809e-06
3.51135e-06
1.93747e-06
3.18083e-06
2.59999e-06
3.01895e-06
1.71524e-06
3.04586e-06
2.66036e-06
2.68721e-06
1.52544e-06
2.87685e-06
2.65141e-06
2.57194e-06
1.36695e-06
2.67548e-06
2.54551e-06
2.5826e-06
1.22968e-06
2.45956e-06
2.38424e-06
2.57212e-06
1.10481e-06
2.23873e-06
2.21767e-06
2.44681e-06
9.87748e-07
2.01573e-06
2.06698e-06
2.22459e-06
8.77092e-07
1.81058e-06
1.92512e-06
1.98223e-06
7.72642e-07
1.63282e-06
1.78672e-06
1.76862e-06
6.7427e-07
1.47401e-06
1.65008e-06
1.58695e-06
5.81631e-07
1.32584e-06
1.5137e-06
1.42482e-06
4.93686e-07
1.18369e-06
1.37744e-06
1.27205e-06
4.00071e-07
1.04596e-06
1.24168e-06
1.12433e-06
3.15336e-07
9.12673e-07
1.1069e-06
9.8115e-07
2.40675e-07
7.84312e-07
9.73695e-07
8.43173e-07
1.77033e-07
6.61517e-07
8.42862e-07
7.11232e-07
1.24898e-07
5.44367e-07
7.15465e-07
5.85332e-07
8.41169e-08
4.26282e-07
5.92781e-07
4.57444e-07
5.38355e-08
3.08019e-07
4.75684e-07
3.30379e-07
3.25937e-08
2.07387e-07
3.57369e-07
2.225e-07
1.85718e-08
1.28214e-07
2.41231e-07
1.37715e-07
9.89235e-09
7.17765e-08
1.47181e-07
7.7265e-08
4.87891e-09
3.59635e-08
7.92983e-08
3.88414e-08
2.19616e-09
1.59604e-08
3.69173e-08
1.7312e-08
8.82128e-10
6.18405e-09
1.45646e-08
6.74269e-09
3.05025e-10
2.035e-09
4.75488e-09
2.23219e-09
8.556e-11
5.39027e-10
1.22805e-09
5.95231e-10
1.75475e-11
1.03776e-10
2.28379e-10
1.1542e-10
2.19588e-12
1.19721e-11
2.53105e-11
1.33931e-11
1.90245e-13
7.60582e-13
1.50641e-12
8.24483e-13
1.11824e-13
3.13718e-13
5.88102e-13
3.14294e-13
2.76202e-06
5.81906e-06
9.09288e-06
5.77383e-06
3.05906e-06
5.50946e-06
9.35364e-06
5.79741e-06
3.38354e-06
5.23626e-06
9.58233e-06
5.84772e-06
3.72333e-06
5.01328e-06
9.77516e-06
5.92297e-06
4.07e-06
4.85262e-06
9.93026e-06
6.01196e-06
4.41664e-06
4.76362e-06
1.00542e-05
6.09968e-06
4.75911e-06
4.75303e-06
1.01545e-05
6.17966e-06
5.09311e-06
4.8199e-06
1.02306e-05
6.24856e-06
5.41357e-06
4.95045e-06
1.02828e-05
6.30466e-06
5.71538e-06
5.12648e-06
1.03111e-05
6.34753e-06
5.99515e-06
5.33151e-06
1.03163e-05
6.38e-06
6.25206e-06
5.55111e-06
1.02995e-05
6.40535e-06
6.48324e-06
5.77685e-06
1.02621e-05
6.42707e-06
6.68637e-06
6.00655e-06
1.02055e-05
6.44873e-06
6.86092e-06
6.23589e-06
1.01297e-05
6.47382e-06
7.00689e-06
6.45579e-06
9.84138e-06
6.50543e-06
7.12443e-06
6.66062e-06
7.7193e-06
6.5453e-06
7.21381e-06
6.84636e-06
5.8664e-06
6.59156e-06
7.27554e-06
7.01001e-06
5.38707e-06
6.6397e-06
7.31033e-06
7.14943e-06
6.39517e-06
6.68657e-06
7.31915e-06
7.2633e-06
8.41376e-06
6.73069e-06
7.30328e-06
7.35101e-06
9.32851e-06
6.77117e-06
7.26424e-06
7.41267e-06
9.17142e-06
6.80393e-06
7.20378e-06
7.44888e-06
9.00551e-06
6.82563e-06
7.12381e-06
7.46068e-06
8.76259e-06
6.83387e-06
6.95251e-06
7.44951e-06
8.16597e-06
6.82678e-06
6.77753e-06
7.41708e-06
7.59519e-06
6.80303e-06
6.66398e-06
7.36526e-06
7.32569e-06
6.76183e-06
6.61712e-06
7.29625e-06
7.43254e-06
6.70285e-06
6.51562e-06
7.21269e-06
7.71678e-06
6.62609e-06
6.36785e-06
7.11632e-06
7.90968e-06
6.53183e-06
6.2115e-06
7.00704e-06
7.91861e-06
6.41998e-06
6.04708e-06
6.88436e-06
7.80656e-06
6.28773e-06
5.87521e-06
6.74807e-06
7.66014e-06
6.13702e-06
5.69558e-06
6.59546e-06
7.48738e-06
5.96972e-06
5.50891e-06
6.42699e-06
7.29546e-06
5.78753e-06
5.3172e-06
6.24379e-06
7.08676e-06
5.59206e-06
5.11809e-06
6.04752e-06
6.86323e-06
5.3848e-06
4.90758e-06
5.83973e-06
6.62689e-06
5.16735e-06
4.6879e-06
5.62256e-06
6.37729e-06
4.94155e-06
4.46108e-06
5.39794e-06
6.11739e-06
4.70925e-06
4.22903e-06
5.16764e-06
5.85032e-06
4.47221e-06
3.99362e-06
4.93331e-06
5.57813e-06
4.23211e-06
3.75664e-06
4.6965e-06
5.30271e-06
3.99052e-06
3.51977e-06
4.45866e-06
5.02542e-06
3.74893e-06
3.28451e-06
4.22114e-06
4.74752e-06
3.50868e-06
3.05223e-06
3.98508e-06
4.46451e-06
3.2711e-06
2.82412e-06
3.75133e-06
4.17516e-06
3.03742e-06
2.60128e-06
3.5204e-06
3.87568e-06
2.80881e-06
2.38463e-06
3.2916e-06
3.56781e-06
2.58625e-06
2.17498e-06
3.0353e-06
3.26608e-06
2.36579e-06
1.97296e-06
2.76955e-06
2.98115e-06
2.12443e-06
1.76857e-06
2.50696e-06
2.71366e-06
1.88556e-06
1.56651e-06
2.26037e-06
2.46003e-06
1.66316e-06
1.37615e-06
2.03438e-06
2.22075e-06
1.46362e-06
1.2012e-06
1.82544e-06
1.99484e-06
1.28428e-06
1.04211e-06
1.62982e-06
1.78153e-06
1.12148e-06
8.97659e-07
1.44546e-06
1.58034e-06
9.72671e-07
7.66658e-07
1.27161e-06
1.39095e-06
8.36468e-07
6.48079e-07
1.10813e-06
1.21316e-06
7.12103e-07
5.4099e-07
9.55098e-07
1.04684e-06
5.98989e-07
4.44096e-07
8.12572e-07
8.91959e-07
4.96424e-07
3.48025e-07
6.80603e-07
7.48536e-07
4.0203e-07
2.63005e-07
5.58818e-07
6.16299e-07
3.08137e-07
1.90795e-07
4.42474e-07
4.92906e-07
2.27063e-07
1.31916e-07
3.28509e-07
3.68692e-07
1.59696e-07
8.62753e-08
2.30968e-07
2.61458e-07
1.06358e-07
5.29832e-08
1.52016e-07
1.73659e-07
6.65412e-08
3.03377e-08
9.25282e-08
1.06577e-07
3.88014e-08
1.60835e-08
5.14733e-08
5.95756e-08
2.09224e-08
7.82704e-09
2.58832e-08
2.98968e-08
1.03379e-08
3.45286e-09
1.16254e-08
1.32611e-08
4.62174e-09
1.3531e-09
4.58435e-09
5.09867e-09
1.8325e-09
4.55519e-10
1.54047e-09
1.64919e-09
6.23426e-10
1.24531e-10
4.18027e-10
4.27316e-10
1.72085e-10
2.51647e-11
8.31501e-11
8.13938e-11
3.50531e-11
3.40021e-12
1.04146e-11
9.95407e-12
4.70594e-12
6.47407e-13
1.22019e-12
1.22418e-12
8.17703e-13
5.5279e-13
8.50209e-13
9.78575e-13
6.76336e-13
1.37024e-05
9.60785e-06
6.31443e-06
9.30363e-06
1.36402e-05
9.61752e-06
6.24088e-06
9.29583e-06
1.35521e-05
9.62248e-06
6.14044e-06
4.18694e-06
1.34445e-05
9.61835e-06
6.01565e-06
3.73759e-06
1.33232e-05
9.6034e-06
5.87562e-06
5.85758e-06
1.31933e-05
9.57691e-06
5.72186e-06
1.02837e-05
1.30591e-05
9.53903e-06
5.55704e-06
1.06153e-05
1.2927e-05
9.49057e-06
5.38355e-06
1.07363e-05
1.24221e-05
9.43246e-06
5.20374e-06
1.082e-05
7.02544e-06
9.36718e-06
5.01993e-06
1.08694e-05
5.23951e-06
9.30137e-06
4.83301e-06
1.08829e-05
5.93012e-06
7.33801e-06
4.64373e-06
1.0866e-05
8.78399e-06
3.86381e-06
4.45454e-06
1.08211e-05
1.19689e-05
3.59322e-06
4.26813e-06
1.07504e-05
1.23714e-05
5.41868e-06
4.08679e-06
1.06558e-05
1.22452e-05
8.74488e-06
3.912e-06
1.05378e-05
1.20977e-05
9.61542e-06
3.74567e-06
1.0414e-05
1.19284e-05
9.63184e-06
3.59699e-06
1.03024e-05
1.17383e-05
9.60527e-06
3.48132e-06
9.20781e-06
1.15256e-05
9.53613e-06
3.39962e-06
5.28434e-06
1.1291e-05
9.428e-06
3.34495e-06
4.49047e-06
1.10364e-05
9.28798e-06
3.31468e-06
5.74305e-06
1.07647e-05
9.12942e-06
3.30011e-06
8.30573e-06
1.04803e-05
8.95477e-06
3.30208e-06
1.01056e-05
1.01801e-05
8.76645e-06
3.32104e-06
1.00799e-05
8.33111e-06
8.56694e-06
3.35812e-06
1.00271e-05
5.95652e-06
8.36096e-06
2.04965e-06
9.94649e-06
4.93355e-06
8.06621e-06
1.61469e-06
9.83753e-06
5.27299e-06
5.57721e-06
1.83043e-06
9.70176e-06
6.61664e-06
4.95333e-06
2.62095e-06
9.54047e-06
7.91325e-06
5.84901e-06
3.68271e-06
9.35516e-06
8.3048e-06
7.13218e-06
3.9376e-06
9.14727e-06
8.07649e-06
7.13407e-06
3.97237e-06
8.92263e-06
7.82826e-06
6.94647e-06
3.98793e-06
8.68361e-06
7.562e-06
6.75047e-06
3.98665e-06
8.43262e-06
7.28021e-06
6.54701e-06
3.97054e-06
8.1719e-06
6.98551e-06
6.3373e-06
3.93985e-06
7.90356e-06
6.68374e-06
6.12175e-06
3.84456e-06
7.62949e-06
6.37955e-06
5.90139e-06
3.76851e-06
7.35117e-06
6.07339e-06
5.67812e-06
3.70117e-06
7.0699e-06
5.76788e-06
5.45347e-06
3.63342e-06
6.78687e-06
5.4652e-06
5.22849e-06
3.56117e-06
6.50293e-06
5.16655e-06
5.00387e-06
3.48366e-06
6.21876e-06
4.87239e-06
4.77997e-06
3.40173e-06
5.93499e-06
4.58277e-06
4.55695e-06
3.31514e-06
5.65211e-06
4.29764e-06
4.33496e-06
3.22201e-06
5.37031e-06
4.01685e-06
4.11387e-06
3.12217e-06
5.08971e-06
3.74028e-06
3.89356e-06
3.01767e-06
4.81039e-06
3.46788e-06
3.67388e-06
2.90927e-06
4.53243e-06
3.19966e-06
3.45488e-06
2.79401e-06
4.25593e-06
2.93546e-06
3.23673e-06
2.66623e-06
3.98115e-06
2.67438e-06
3.01966e-06
2.52205e-06
3.70855e-06
2.41697e-06
2.80398e-06
2.36231e-06
3.43606e-06
2.16462e-06
2.59012e-06
2.19452e-06
3.16329e-06
1.91878e-06
2.37857e-06
2.02772e-06
2.89172e-06
1.68106e-06
2.16904e-06
1.86578e-06
2.62293e-06
1.45319e-06
1.96086e-06
1.70916e-06
2.35854e-06
1.23706e-06
1.75551e-06
1.55696e-06
2.09997e-06
1.03465e-06
1.5545e-06
1.40848e-06
1.84889e-06
8.47936e-07
1.35877e-06
1.26352e-06
1.60714e-06
6.78744e-07
1.16625e-06
1.12234e-06
1.37647e-06
5.28706e-07
9.86735e-07
9.85451e-07
1.15855e-06
3.99078e-07
8.2181e-07
8.53499e-07
9.54997e-07
2.9055e-07
6.64449e-07
7.27247e-07
7.67435e-07
2.03032e-07
5.19612e-07
6.07611e-07
5.97276e-07
1.35489e-07
3.89686e-07
4.95603e-07
4.46318e-07
8.59141e-08
2.77245e-07
3.91509e-07
3.16896e-07
5.15059e-08
1.84765e-07
2.83564e-07
2.11135e-07
2.9037e-08
1.13702e-07
1.89576e-07
1.30124e-07
1.52917e-08
6.36669e-08
1.15353e-07
7.30803e-08
7.45276e-09
3.19909e-08
6.26649e-08
3.68658e-08
3.31447e-09
1.42331e-08
2.98697e-08
1.6476e-08
1.31575e-09
5.51439e-09
1.22976e-08
6.41537e-09
4.50122e-10
1.80923e-09
4.27884e-09
2.11689e-09
1.25253e-10
4.77308e-10
1.1985e-09
5.62086e-10
2.57155e-11
9.19808e-11
2.42796e-10
1.09016e-10
3.41909e-12
1.10811e-11
2.92839e-11
1.3145e-11
5.16835e-13
1.20184e-12
2.46076e-12
1.3443e-12
4.01983e-13
8.09873e-13
1.20269e-12
8.67295e-13
3.81508e-06
5.86867e-06
1.22157e-05
2.99761e-06
3.35601e-06
5.58736e-06
1.24178e-05
2.87097e-06
2.86699e-06
5.31334e-06
1.26036e-05
2.81892e-06
2.34853e-06
5.05205e-06
1.27702e-05
2.8625e-06
1.80585e-06
4.8077e-06
1.29069e-05
3.00358e-06
1.25081e-06
4.58234e-06
1.30122e-05
3.2081e-06
7.04308e-07
4.37698e-06
1.30854e-05
3.43749e-06
2.46904e-07
4.19261e-06
1.31272e-05
3.66398e-06
7.38098e-08
4.03036e-06
1.31385e-05
3.87314e-06
9.01752e-08
3.89623e-06
1.31206e-05
4.06023e-06
7.02477e-08
3.7996e-06
1.30757e-05
4.22373e-06
6.5608e-08
3.75197e-06
1.30065e-05
4.36414e-06
6.1126e-08
3.75136e-06
1.2916e-05
4.48308e-06
4.4474e-09
3.8098e-06
1.28065e-05
4.58254e-06
1.76168e-07
3.92645e-06
1.26798e-05
4.66518e-06
4.46381e-07
4.08696e-06
1.25376e-05
4.73428e-06
7.45994e-07
4.27471e-06
1.23812e-05
4.79494e-06
1.04192e-06
4.47585e-06
1.22122e-05
4.8521e-06
1.32214e-06
4.68017e-06
1.20329e-05
4.90964e-06
1.58512e-06
4.88053e-06
1.18455e-05
4.97116e-06
1.83216e-06
5.07195e-06
1.16529e-05
5.03971e-06
2.06515e-06
5.24857e-06
1.14577e-05
5.11375e-06
2.28584e-06
5.40263e-06
1.12605e-05
5.19094e-06
2.49565e-06
5.53547e-06
1.10603e-05
5.25759e-06
2.69566e-06
5.64822e-06
1.08558e-05
5.25772e-06
2.88676e-06
5.74196e-06
1.06463e-05
5.26619e-06
3.06942e-06
5.81777e-06
1.04311e-05
5.26568e-06
3.24304e-06
5.8768e-06
1.02096e-05
5.25394e-06
3.40536e-06
5.92027e-06
9.97975e-06
5.23157e-06
3.55216e-06
5.9496e-06
9.7425e-06
5.1995e-06
3.66298e-06
5.42931e-06
9.49969e-06
5.16221e-06
3.6117e-06
4.80656e-06
9.25259e-06
5.11549e-06
3.54777e-06
4.53711e-06
9.00194e-06
5.02918e-06
3.52448e-06
4.71175e-06
8.69541e-06
4.87566e-06
3.54027e-06
5.13883e-06
8.15615e-06
4.67316e-06
3.56755e-06
5.49375e-06
7.64921e-06
4.47125e-06
3.58253e-06
5.58817e-06
7.23203e-06
4.30549e-06
3.5777e-06
5.44052e-06
6.88733e-06
4.17792e-06
3.55496e-06
5.16099e-06
6.58308e-06
4.06916e-06
3.51727e-06
4.87153e-06
6.298e-06
3.95925e-06
3.4664e-06
4.63823e-06
6.02256e-06
3.83892e-06
3.40381e-06
4.46311e-06
5.75317e-06
3.70865e-06
3.33126e-06
4.31771e-06
5.48838e-06
3.57239e-06
3.25076e-06
4.17341e-06
5.22751e-06
3.43315e-06
3.16387e-06
4.01892e-06
4.97068e-06
3.29199e-06
3.0707e-06
3.86018e-06
4.71957e-06
3.1487e-06
2.97033e-06
3.70772e-06
4.47729e-06
3.00266e-06
2.8621e-06
3.56374e-06
4.24583e-06
2.85385e-06
2.74635e-06
3.42168e-06
4.02365e-06
2.70378e-06
2.62419e-06
3.27372e-06
3.80626e-06
2.55498e-06
2.49685e-06
3.116e-06
3.58907e-06
2.40815e-06
2.36493e-06
2.94865e-06
3.3696e-06
2.2577e-06
2.22722e-06
2.77362e-06
3.14781e-06
2.10098e-06
2.07596e-06
2.59304e-06
2.92488e-06
1.9448e-06
1.92369e-06
2.40776e-06
2.70168e-06
1.78968e-06
1.77312e-06
2.21402e-06
2.47641e-06
1.63577e-06
1.6235e-06
2.02134e-06
2.25131e-06
1.48354e-06
1.47421e-06
1.83179e-06
2.03091e-06
1.33363e-06
1.32536e-06
1.64581e-06
1.81615e-06
1.18669e-06
1.17761e-06
1.46366e-06