/*--------------------------------*- C++ -*----------------------------------*\
| =========                 |                                                 |
| \\      /  F ield         | OpenFOAM: The Open Source CFD Toolbox           |
|  \\    /   O peration     | Version:  v1912                                 |
|   \\  /    A nd           | Website:  www.openfoam.com                      |
|    \\/     M anipulation  |                                                 |
\*---------------------------------------------------------------------------*/
FoamFile
{
    version     2.0;
    format      ascii;
    class       volSymmTensorField;
    location    "100";
    object      turbulenceProperties:R;
}
// * * * * * * * * * * * * * * * * * * * * * * * * * * * * * * * * * * * * * //

dimensions      [0 2 -2 0 0 0 0];


internalField   nonuniform List<symmTensor> 
2528
(
(1.36871e-06 -8.65295e-11 -4.60341e-13 1.36867e-06 4.61443e-09 1.36871e-06)
(1.08279e-06 -4.23752e-10 -4.27246e-13 1.08276e-06 3.1834e-09 1.08279e-06)
(1.06171e-06 4.11526e-11 3.56596e-13 1.06173e-06 3.16686e-09 1.0617e-06)
(1.34853e-06 4.32095e-10 5.13284e-13 1.3485e-06 4.44646e-09 1.34853e-06)
(4.7702e-07 -7.75875e-11 -2.75411e-12 4.77204e-07 9.55992e-09 4.77018e-07)
(3.34771e-07 -1.75487e-10 -2.22735e-12 3.34727e-07 5.78456e-09 3.34766e-07)
(4.35959e-07 1.11344e-11 2.51127e-12 4.36008e-07 7.82042e-09 4.35943e-07)
(3.96012e-07 4.99106e-11 2.53526e-12 3.95965e-07 7.57426e-09 3.9601e-07)
(1.88404e-06 -3.45044e-10 -5.17446e-11 1.88855e-06 1.05945e-07 1.88395e-06)
(1.23236e-06 1.27364e-09 -3.77637e-11 1.23178e-06 5.94069e-08 1.23229e-06)
(1.92548e-06 -3.93048e-10 5.28135e-11 1.92636e-06 9.79597e-08 1.92528e-06)
(1.37336e-06 -2.92346e-09 4.0294e-11 1.37277e-06 7.24778e-08 1.37332e-06)
(6.28518e-06 -2.17074e-09 -4.76236e-10 6.26214e-06 6.74372e-07 6.28402e-06)
(4.17097e-06 9.848e-09 -3.49196e-10 4.16678e-06 3.88708e-07 4.17033e-06)
(6.52224e-06 -2.80317e-09 4.97114e-10 6.52914e-06 6.43803e-07 6.52088e-06)
(4.5696e-06 -2.03695e-08 3.63977e-10 4.56541e-06 4.60341e-07 4.56922e-06)
(1.50831e-05 -9.89712e-09 -2.35245e-09 1.52128e-05 2.54026e-06 1.50766e-05)
(1.02947e-05 3.6474e-08 -1.76451e-09 1.02797e-05 1.53422e-06 1.02915e-05)
(1.59136e-05 -9.81075e-09 2.5038e-09 1.59411e-05 2.50532e-06 1.59083e-05)
(1.11173e-05 -7.50444e-08 1.79972e-09 1.11028e-05 1.76318e-06 1.11154e-05)
(2.9513e-05 -2.63779e-08 -7.80246e-09 2.95156e-05 6.83982e-06 2.94892e-05)
(2.06273e-05 1.38338e-07 -5.98538e-09 2.05825e-05 4.35499e-06 2.06164e-05)
(3.14451e-05 -2.93384e-08 8.46495e-09 3.15318e-05 6.98405e-06 3.14309e-05)
(2.19506e-05 -2.37198e-07 5.96964e-09 2.1908e-05 4.84969e-06 2.1944e-05)
(4.9644e-05 -5.09947e-08 -1.96999e-08 4.98969e-05 1.45395e-05 4.95787e-05)
(3.57424e-05 4.15221e-07 -1.53531e-08 3.56407e-05 9.75653e-06 3.57143e-05)
(5.36384e-05 -7.31189e-08 2.17296e-08 5.38492e-05 1.53287e-05 5.36108e-05)
(3.74941e-05 -6.06078e-07 1.49875e-08 3.73992e-05 1.05477e-05 3.74773e-05)
(7.49353e-05 -7.71769e-08 -4.08726e-08 7.53681e-05 2.59242e-05 7.47885e-05)
(5.55279e-05 9.81051e-07 -3.20456e-08 5.53338e-05 1.8263e-05 5.54682e-05)
(8.18833e-05 -1.53497e-07 4.56474e-08 8.23154e-05 2.8059e-05 8.18433e-05)
(5.75039e-05 -1.2751e-06 3.06993e-08 5.73257e-05 1.92609e-05 5.74681e-05)
(0.000103767 -9.31766e-08 -7.33484e-08 0.000104478 4.03746e-05 0.000103483)
(7.91205e-05 1.90464e-06 -5.71871e-08 7.87962e-05 2.97002e-05 7.90112e-05)
(0.000114483 -2.78331e-07 8.25672e-08 0.000115259 4.45721e-05 0.000114442)
(8.10683e-05 -2.28385e-06 5.39588e-08 8.07734e-05 3.07409e-05 8.10023e-05)
(0.000134156 -8.66159e-08 -1.17976e-07 0.000135143 5.65993e-05 0.000133669)
(0.0001051 3.16369e-06 -9.04249e-08 0.000104616 4.32202e-05 0.000104922)
(0.000149134 -4.47167e-07 1.33324e-07 0.000150393 6.33796e-05 0.000149119)
(0.000106807 -3.5911e-06 8.43445e-08 0.000106365 4.41567e-05 0.000106698)
(0.000164172 -4.99258e-08 -1.74678e-07 0.000165439 7.31721e-05 0.000163409)
(0.000131882 4.63632e-06 -1.3006e-07 0.000131214 5.76593e-05 0.000131616)
(0.000183592 -6.49719e-07 1.97566e-07 0.00018548 8.27742e-05 0.00018364)
(0.00013321 -5.07246e-06 1.20302e-07 0.000132593 5.84119e-05 0.000133045)
(0.000192368 1.71151e-08 -2.42712e-07 0.000193874 8.89733e-05 0.000191258)
(0.00015808 6.12569e-06 -1.73633e-07 0.000157221 7.19476e-05 0.00015771)
(0.000216165 -8.64804e-07 2.7301e-07 0.000218778 0.000100927 0.000216321)
(0.000158948 -6.54544e-06 1.59656e-07 0.000158148 7.24736e-05 0.000158712)
(0.000217883 1.07058e-07 -3.15109e-07 0.000219516 0.000101326 0.000216387)
(0.000182696 7.34682e-06 -2.16185e-07 0.000181689 8.43964e-05 0.000182215)
(0.000245862 -1.05782e-06 3.51111e-07 0.000249186 0.000114868 0.000246166)
(0.000183053 -7.74613e-06 1.9763e-07 0.000182106 8.45678e-05 0.000182739)
(0.000240326 2.12801e-07 -3.95435e-07 0.000241981 0.000111694 0.000238397)
(0.000205191 8.17727e-06 -2.54464e-07 0.000204084 9.47927e-05 0.000204594)
(0.000272196 -1.24911e-06 4.37569e-07 0.00027629 0.000127257 0.00027269)
(0.000204996 -8.60499e-06 2.31707e-07 0.000203928 9.47025e-05 0.000204596)
(0.000259623 3.32971e-07 -4.85137e-07 0.000261253 0.000120578 0.000257212)
(0.000225416 8.66739e-06 -2.88031e-07 0.000224217 0.000104162 0.000224697)
(0.000295182 -1.44337e-06 5.31973e-07 0.00030014 0.000138103 0.000295904)
(0.000224669 -9.18429e-06 2.61493e-07 0.000223463 0.000103797 0.000224172)
(0.000275946 4.66881e-07 -5.84083e-07 0.000277531 0.000128071 0.000273009)
(0.0002434 8.82414e-06 -3.14742e-07 0.000242093 0.000112502 0.000242553)
(0.000314909 -1.64533e-06 6.3394e-07 0.000320815 0.000147451 0.000315892)
(0.000242041 -9.48638e-06 2.85177e-07 0.000240673 0.000111831 0.000241438)
(0.000289583 6.12635e-07 -6.92751e-07 0.000291068 0.000134311 0.000286083)
(0.000259202 8.65134e-06 -3.3241e-07 0.000257787 0.000119838 0.000258223)
(0.000331559 -1.85356e-06 7.42996e-07 0.000338408 0.000155376 0.000332833)
(0.000257141 -9.4941e-06 3.00738e-07 0.000255625 0.000118842 0.000256422)
(0.000300861 7.67431e-07 -8.11023e-07 0.00030215 0.000139428 0.000296769)
(0.000272947 8.12764e-06 -3.38782e-07 0.000271437 0.000126243 0.000271834)
(0.00034535 -2.06632e-06 8.58704e-07 0.000353101 0.000161959 0.000346938)
(0.000270076 -9.1885e-06 3.06114e-07 0.000268437 0.000124859 0.000269231)
(0.000310125 9.3032e-07 -9.38251e-07 0.000311133 0.000143587 0.000305426)
(0.000284808 7.23982e-06 -3.32231e-07 0.000283199 0.000131786 0.00028356)
(0.000356485 -2.2848e-06 9.81147e-07 0.000365155 0.000167315 0.000358406)
(0.000281008 -8.57935e-06 2.99899e-07 0.000279243 0.000129952 0.000280028)
(0.000317683 1.10308e-06 -1.07434e-06 0.000318408 0.000146955 0.00031237)
(0.000294985 5.99027e-06 -3.11764e-07 0.000293255 0.000136533 0.000293602)
(0.000365159 -2.50677e-06 1.11232e-06 0.000374838 0.000171563 0.000367429)
(0.000290121 -7.67867e-06 2.81569e-07 0.000288197 0.000134211 0.000288997)
(0.000323815 1.28569e-06 -1.21855e-06 0.000324272 0.000149668 0.000317895)
(0.000303672 4.3881e-06 -2.77718e-07 0.000301845 0.000140606 0.000302159)
(0.000371567 -2.72193e-06 1.25562e-06 0.000382434 0.000174748 0.000374205)
(0.000297614 -6.48105e-06 2.52121e-07 0.000295455 0.000137689 0.000296336)
(0.000328782 1.47548e-06 -1.36869e-06 0.000328939 0.000151825 0.000322271)
(0.000311054 2.48056e-06 -2.32606e-07 0.000309249 0.000144083 0.000309417)
(0.00037597 -2.91351e-06 1.41386e-06 0.00038818 0.000177039 0.000379)
(0.000303676 -4.95789e-06 2.14373e-07 0.000301224 0.000140498 0.000302232)
(0.000332772 1.67046e-06 -1.52181e-06 0.000332622 0.000153533 0.0003257)
(0.000317356 3.85981e-07 -1.79834e-07 0.00031563 0.000147037 0.000315605)
(0.000378784 -3.06707e-06 1.5871e-06 0.00039217 0.000178584 0.000382229)
(0.000308456 -3.09434e-06 1.71364e-07 0.000305816 0.000142727 0.000306836)
(0.000335922 1.86329e-06 -1.66851e-06 0.00033549 0.000154412 0.000328355)
(0.000322787 -1.75115e-06 -1.23798e-07 0.0003211 0.000149533 0.000320937)
(0.000380421 -3.1828e-06 1.76851e-06 0.000394618 0.000179509 0.000384293)
(0.000312146 -9.6539e-07 1.26391e-07 0.00030948 0.000144447 0.000310342)
(0.000338346 2.04978e-06 -1.80596e-06 0.000337668 0.000154503 0.000330362)
(0.000327497 -3.82202e-06 -6.63932e-08 0.000325772 0.000151665 0.000325565)
(0.000381145 -3.27988e-06 1.94829e-06 0.000396012 0.000179993 0.000385431)
(0.000314987 1.26266e-06 8.04776e-08 0.000312308 0.000145752 0.000312999)
(0.000340143 2.23095e-06 -1.93979e-06 0.000339251 0.0001544 0.000331796)
(0.000331572 -5.79623e-06 -7.23618e-09 0.000329752 0.000153482 0.000329574)
(0.000381151 -3.37954e-06 2.12071e-06 0.000396781 0.000180148 0.000385826)
(0.000317186 3.42755e-06 3.32396e-08 0.000314364 0.000146684 0.000315016)
(0.000341386 2.39956e-06 -2.07051e-06 0.000340311 0.00015405 0.000332729)
(0.000335039 -7.7196e-06 5.45654e-08 0.000333187 0.000154981 0.000332994)
(0.000380601 -3.48977e-06 2.28772e-06 0.000397169 0.00018008 0.000385638)
(0.000318854 5.47349e-06 -1.59031e-08 0.000315736 0.000147309 0.000316505)
(0.000342132 2.54863e-06 -2.19785e-06 0.00034092 0.000153434 0.000333214)
(0.000337956 -9.63684e-06 1.19168e-07 0.000336115 0.000156126 0.000335881)
(0.000379688 -3.60134e-06 2.4517e-06 0.000397143 0.000179795 0.000385062)
(0.000319995 7.46377e-06 -6.70138e-08 0.000316593 0.000147602 0.00031747)
(0.000342429 2.67306e-06 -2.3212e-06 0.000341155 0.000152559 0.000333293)
(0.000340382 -1.15542e-05 1.85905e-07 0.000338541 0.000156634 0.000338298)
(0.000378609 -3.68875e-06 2.60649e-06 0.000396594 0.000178972 0.000384267)
(0.000320623 9.46697e-06 -1.19576e-07 0.000317039 0.000147252 0.000317928)
(0.000342325 2.76928e-06 -2.43989e-06 0.000341075 0.000151443 0.000333016)
(0.000342348 -1.35077e-05 2.55411e-07 0.000340514 0.000156826 0.000340272)
(0.000377399 -3.73257e-06 2.74454e-06 0.000395685 0.000177229 0.000383261)
(0.000320807 1.15309e-05 -1.74135e-07 0.000317048 0.000146627 0.000317945)
(0.000341875 2.83391e-06 -2.55351e-06 0.000340722 0.000150117 0.000332443)
(0.000343889 -1.54957e-05 3.27155e-07 0.000342065 0.000156753 0.000341838)
(0.00037605 -3.74214e-06 2.8767e-06 0.000394598 0.000175355 0.00038205)
(0.000320589 1.36493e-05 -2.30206e-07 0.000316629 0.00014578 0.000317564)
(0.000341126 2.86382e-06 -2.6616e-06 0.000340135 0.000148536 0.00033163)
(0.000345039 -1.75055e-05 4.01229e-07 0.000343224 0.000156402 0.000343029)
(0.000374641 -3.71165e-06 3.00195e-06 0.00039334 0.000173348 0.000380717)
(0.000319988 1.58081e-05 -2.87875e-07 0.000315822 0.000144735 0.000316805)
(0.00034012 2.85653e-06 -2.7642e-06 0.00033937 0.000146732 0.000330626)
(0.000345827 -1.95232e-05 4.77471e-07 0.000344024 0.000155807 0.000343875)
(0.000373264 -3.64032e-06 3.11992e-06 0.000391888 0.000171254 0.000379368)
(0.000319025 1.79907e-05 -3.46971e-07 0.00031465 0.000143474 0.000315691)
(0.000338908 2.81067e-06 -2.86058e-06 0.000338466 0.000144733 0.000329486)
(0.000346285 -2.15332e-05 5.56277e-07 0.000344497 0.00015497 0.000344408)
(0.000371984 -3.53063e-06 3.22959e-06 0.000390261 0.000169147 0.000378089)
(0.000317715 2.01827e-05 -4.07806e-07 0.000313129 0.000142001 0.00031424)
(0.00033755 2.72629e-06 -2.95085e-06 0.00033746 0.000142497 0.000328267)
(0.00034645 -2.35157e-05 6.38014e-07 0.000344653 0.000153882 0.000344667)
(0.000371378 -3.38663e-06 3.33083e-06 0.000387457 0.000167042 0.000377472)
(0.000316071 2.23696e-05 -4.70615e-07 0.00031127 0.000140339 0.000312467)
(0.000336081 2.60587e-06 -3.03452e-06 0.000336433 0.000140138 0.000327006)
(0.000346343 -2.54596e-05 7.23929e-07 0.000344544 0.000152628 0.000344674)
(0.000369059 -3.20619e-06 3.42228e-06 0.000388407 0.000165004 0.000375108)
(0.000314096 2.45483e-05 -5.36458e-07 0.000309082 0.000138545 0.000310378)
(0.000334541 2.45597e-06 -3.11292e-06 0.000335456 0.000137751 0.000325758)
(0.000345973 -2.72701e-05 8.14481e-07 0.000344238 0.000151223 0.000344441)
(0.000364553 -2.87066e-06 3.50159e-06 0.00039416 0.000161046 0.000370463)
(0.000311793 2.66461e-05 -6.05678e-07 0.00030657 0.000136542 0.000307975)
(0.000332996 2.28753e-06 -3.18707e-06 0.000334537 0.000135234 0.00032462)
(0.000345193 -2.87374e-05 8.96881e-07 0.000344124 0.000149713 0.000343821)
(0.000364269 -2.17914e-06 3.56568e-06 0.000391956 0.000151337 0.000369905)
(0.000309165 2.85058e-05 -6.66412e-07 0.000303719 0.000134371 0.000305268)
(0.000331594 2.12297e-06 -3.25893e-06 0.000333527 0.000132673 0.000323777)
(0.00034444 -2.967e-05 9.4351e-07 0.000343414 0.000148178 0.000343247)
(0.0003696 -1.33305e-06 3.61361e-06 0.000379276 0.000143654 0.000374835)
(0.00030623 3.00549e-05 -6.9337e-07 0.000300476 0.000132016 0.000302281)
(0.000330462 1.98528e-06 -3.32712e-06 0.0003324 0.000130177 0.000323334)
(0.000345757 -3.05357e-05 9.97025e-07 0.00033809 0.000146376 0.000344757)
(0.000378232 -1.11463e-06 3.64587e-06 0.000360161 0.000164958 0.000382969)
(0.000303004 3.14396e-05 -7.2559e-07 0.000296793 0.00012945 0.000299036)
(0.000330272 1.82644e-06 -3.39236e-06 0.000330109 0.000127824 0.000323883)
(0.000347314 -3.32295e-05 1.24028e-06 0.000331828 0.000141978 0.000346516)
(0.000374798 -1.69734e-06 2.71751e-06 0.000363321 0.000172655 0.000377861)
(0.000299456 3.30282e-05 -9.31246e-07 0.000292722 0.000126684 0.000295502)
(0.000326252 1.55254e-06 -3.46803e-06 0.000336444 0.000125697 0.000320582)
(0.000343041 -3.87629e-05 1.87964e-06 0.000336821 0.000134325 0.000342455)
(0.000359396 -2.2738e-06 2.11068e-06 0.000378453 0.000169908 0.000361333)
(0.000295511 3.50014e-05 -1.50095e-06 0.000288402 0.000123622 0.000291597)
(0.000319407 1.01747e-06 -3.55851e-06 0.000349394 0.000120758 0.000314448)
(0.00033275 -4.42556e-05 2.71713e-06 0.000353441 0.000135276 0.000332367)
(0.00034503 -2.405e-06 2.23183e-06 0.000375903 0.000164125 0.000346545)
(0.000291137 3.73961e-05 -2.25441e-06 0.000283893 0.000120165 0.000287289)
(0.000322775 1.85941e-07 -3.57677e-06 0.00034273 0.000108189 0.000318547)
(0.000329185 -4.01084e-05 3.00059e-06 0.000355047 0.000150815 0.00032898)
(0.00033644 -2.22157e-06 3.0123e-06 0.000358269 0.000159343 0.000337789)
(0.000286405 4.02229e-05 -2.75394e-06 0.000279069 0.000116332 0.000282661)
(0.000337929 3.28033e-08 -3.36239e-06 0.000313407 0.000103792 0.000334407)
(0.000336397 -2.60675e-05 2.65189e-06 0.000330271 0.000153153 0.00033631)
(0.000332665 -2.0139e-06 3.68713e-06 0.000331407 0.000150044 0.00033358)
(0.000281449 4.31341e-05 -3.04653e-06 0.000273716 0.000112178 0.000277836)
(0.000346879 2.69275e-06 -2.87777e-06 0.000296236 0.000148798 0.000344055)
(0.000337072 -1.91092e-05 2.67913e-06 0.000310888 0.000150206 0.000337048)
(0.000324378 -2.18376e-06 3.28272e-06 0.000315369 0.000125609 0.000324551)
(0.000276321 4.55609e-05 -3.16448e-06 0.000267834 0.00010762 0.000272831)
(0.000326066 4.95085e-06 -1.59864e-06 0.000331275 0.000152081 0.000324678)
(0.000327803 -2.22024e-05 3.00065e-06 0.000307317 0.00014674 0.000327887)
(0.000309122 -3.07928e-06 2.98892e-06 0.000316277 0.000117436 0.000308561)
(0.000270943 4.7063e-05 -2.85252e-06 0.000261741 0.000102775 0.000267513)
(0.000307225 5.61948e-06 -1.33628e-06 0.000346706 0.000146164 0.000306345)
(0.000311736 -3.30142e-05 2.6829e-06 0.000316379 0.000134747 0.000312037)
(0.000299255 -3.84405e-06 2.87691e-06 0.000308981 0.000113682 0.000297898)
(0.000265237 4.78542e-05 -2.02954e-06 0.000255749 9.7743e-05 0.000261778)
(0.000297508 5.92311e-06 -1.77248e-06 0.00033608 0.000141641 0.000296846)
(0.000300886 -4.02429e-05 2.04931e-06 0.000315492 0.000114585 0.000301388)
(0.000293105 -4.06162e-06 2.85791e-06 0.000296394 0.000109894 0.000290853)
(0.000259252 4.8162e-05 -1.4264e-06 0.000249845 9.25424e-05 0.000255743)
(0.000298524 5.41129e-06 -2.61766e-06 0.000302452 0.000133485 0.000298376)
(0.000298083 -4.26228e-05 1.82219e-06 0.000299535 0.000105806 0.000298756)
(0.000285835 -3.82197e-06 2.86079e-06 0.000287855 0.000106246 0.00028264)
(0.000253172 4.83553e-05 -1.19706e-06 0.000243801 8.72561e-05 0.000249622)
(0.000293277 3.06515e-06 -2.65673e-06 0.000282583 9.58344e-05 0.000293996)
(0.000292829 -4.29219e-05 1.83637e-06 0.000289555 0.000100496 0.000293646)
(0.000279143 -3.37778e-06 2.85452e-06 0.000279689 0.000102858 0.000275002)
(0.000247095 4.86024e-05 -1.18877e-06 0.000237568 8.19428e-05 0.00024352)
(0.000275299 1.96873e-06 -2.70007e-06 0.000291686 8.12689e-05 0.000276945)
(0.000285221 -4.34716e-05 1.94671e-06 0.000285295 9.53291e-05 0.000286164)
(0.000273091 -2.85796e-06 2.83727e-06 0.000271538 9.97876e-05 0.000268005)
(0.000241013 4.87956e-05 -1.27007e-06 0.000231322 7.65809e-05 0.000237424)
(0.000263829 1.36244e-06 -2.7466e-06 0.000291569 7.42845e-05 0.000266468)
(0.000278989 -4.38526e-05 2.0892e-06 0.000279275 9.0393e-05 0.000280046)
(0.000267468 -2.25127e-06 2.8085e-06 0.000263587 9.69703e-05 0.000261447)
(0.000234929 4.86071e-05 -1.38335e-06 0.000225191 7.12106e-05 0.000231331)
(0.00025844 7.04798e-07 -2.79332e-06 0.00028308 6.77123e-05 0.00026213)
(0.000273178 -4.37345e-05 2.26265e-06 0.000273382 8.58526e-05 0.000274333)
(0.000262095 -1.57125e-06 2.7663e-06 0.000255944 9.442e-05 0.00025517)
(0.000228902 4.7923e-05 -1.52695e-06 0.000219201 6.59424e-05 0.000225303)
(0.000252525 -6.1906e-09 -2.83297e-06 0.000279677 6.10389e-05 0.000257302)
(0.000267597 -4.30905e-05 2.47171e-06 0.000267912 8.19089e-05 0.000268859)
(0.000256914 -8.42997e-07 2.70938e-06 0.000248466 9.20457e-05 0.000249133)
(0.000222996 4.68431e-05 -1.70433e-06 0.000213373 6.07161e-05 0.000219405)
(0.000247635 -7.19879e-07 -2.85739e-06 0.000278357 5.45125e-05 0.000253497)
(0.000262274 -4.18388e-05 2.71301e-06 0.000262607 7.87769e-05 0.000263728)
(0.000251814 -9.57252e-08 2.63418e-06 0.000241116 8.97921e-05 0.000243242)
(0.000217256 4.5416e-05 -1.91598e-06 0.000207752 5.56071e-05 0.000213688)
(0.000244372 -1.3899e-06 -2.8615e-06 0.000277883 4.83591e-05 0.000251323)
(0.000257008 -3.98256e-05 2.97841e-06 0.000257614 7.65124e-05 0.000258822)
(0.000246705 6.35595e-07 2.53875e-06 0.000233823 8.76432e-05 0.00023741)
(0.000211724 4.36597e-05 -2.16268e-06 0.000202397 5.06916e-05 0.000208188)
(0.000242509 -1.95853e-06 -2.8391e-06 0.000278571 4.25676e-05 0.000250613)
(0.000251699 -3.67298e-05 3.26394e-06 0.00025296 7.55947e-05 0.000253973)
(0.000241512 1.29621e-06 2.42023e-06 0.000226482 8.55163e-05 0.000231574)
(0.000206445 4.15862e-05 -2.44454e-06 0.000197344 4.59435e-05 0.000202943)
(0.000241892 -2.35525e-06 -2.77804e-06 0.000280642 3.69696e-05 0.00025119)
(0.000246707 -3.23342e-05 3.58014e-06 0.000247794 7.67276e-05 0.000249331)
(0.000236138 1.80866e-06 2.27256e-06 0.000218997 8.33995e-05 0.000225691)
(0.000201464 3.92115e-05 -2.76126e-06 0.000192581 4.14027e-05 0.000198025)
(0.000242602 -2.52429e-06 -2.66105e-06 0.000283854 3.14644e-05 0.000253078)
(0.000241961 -2.71402e-05 3.93529e-06 0.000241772 7.89714e-05 0.000244743)
(0.000230452 2.10383e-06 2.08821e-06 0.000211274 8.09961e-05 0.000219774)
(0.000196811 3.65433e-05 -3.10577e-06 0.000188036 3.68845e-05 0.000193568)
(0.000244616 -2.47545e-06 -2.48213e-06 0.000288151 2.59457e-05 0.000256229)
(0.000236588 -2.19678e-05 4.32743e-06 0.000235861 7.81747e-05 0.000239409)
(0.00022441 2.18761e-06 1.8747e-06 0.000203242 7.78855e-05 0.000213834)
(0.000192515 3.35805e-05 -3.46362e-06 0.000183647 3.19732e-05 0.00018971)
(0.000247885 -2.3026e-06 -2.27151e-06 0.000293526 2.04336e-05 0.000260571)
(0.000230151 -1.73717e-05 4.74507e-06 0.000230796 7.05945e-05 0.000232967)
(0.000218121 2.15362e-06 1.65666e-06 0.000195016 7.35999e-05 0.000207737)
(0.000188639 3.03302e-05 -3.83383e-06 0.000179533 2.62991e-05 0.000186418)
(0.000252345 -2.12414e-06 -2.07511e-06 0.000299898 1.48255e-05 0.000266121)
(0.000223585 -1.35667e-05 5.1729e-06 0.000225601 5.84835e-05 0.00022638)
(0.000211748 2.13692e-06 1.46184e-06 0.000186853 6.83854e-05 0.000201351)
(0.000185285 2.68514e-05 -4.23265e-06 0.000175984 1.99171e-05 0.000183512)
(0.000257923 -1.99432e-06 -1.90948e-06 0.000307026 8.82907e-06 0.000273071)
(0.000217775 -1.0127e-05 5.60612e-06 0.000219516 4.65825e-05 0.000220544)
(0.00020537 2.23244e-06 1.29217e-06 0.000178974 6.28195e-05 0.000194803)
(0.000182492 2.32482e-05 -4.66607e-06 0.000173176 1.3213e-05 0.000180976)
(0.000264563 -1.88083e-06 -1.77055e-06 0.000314711 1.74634e-06 0.000281574)
(0.000212467 -6.61834e-06 6.0455e-06 0.000213777 3.6243e-05 0.000215202)
(0.000199071 2.45059e-06 1.13781e-06 0.000171472 5.7372e-05 0.000188303)
(0.000180284 1.95921e-05 -5.1293e-06 0.000171114 6.48614e-06 0.000178922)
(0.000272363 -1.74062e-06 -1.64493e-06 0.000323135 -6.98174e-06 0.000291326)
(0.000207482 -3.108e-06 6.50009e-06 0.000209245 2.70086e-05 0.000210177)
(0.000192923 2.75848e-06 9.95289e-07 0.000164326 5.21875e-05 0.000181987)
(0.000178694 1.59182e-05 -5.62392e-06 0.00016974 -1.11719e-07 0.000177455)
(0.000281457 -1.57109e-06 -1.5155e-06 0.000332571 -1.72149e-05 0.000301949)
(0.000203184 3.25064e-07 6.97579e-06 0.00020554 1.86776e-05 0.000205828)
(0.000186983 3.12607e-06 8.61768e-07 0.000157533 4.72863e-05 0.000175928)
(0.000177734 1.22617e-05 -6.15196e-06 0.000169024 -6.65465e-06 0.000176618)
(0.000291839 -1.38499e-06 -1.37505e-06 0.000343077 -2.84082e-05 0.000313398)
(0.00019978 3.68221e-06 7.47991e-06 0.000202461 1.127e-05 0.000202364)
(0.000181286 3.52873e-06 7.33514e-07 0.000151118 4.27718e-05 0.000170164)
(0.000177402 8.66692e-06 -6.71942e-06 0.000168945 -1.31431e-05 0.000176419)
(0.00030335 -1.18428e-06 -1.2206e-06 0.000354797 -4.00616e-05 0.000325638)
(0.00019726 6.91325e-06 8.0164e-06 0.000200164 4.74361e-06 0.000199771)
(0.000175857 3.94741e-06 6.0662e-07 0.000145101 3.85677e-05 0.000164718)
(0.000177676 5.18667e-06 -7.32875e-06 0.000169488 -1.95622e-05 0.000176832)
(0.000315786 -9.66839e-07 -1.05093e-06 0.000367911 -5.19383e-05 0.000338571)
(0.000195598 9.95023e-06 8.58791e-06 0.000198757 -1.01399e-06 0.000198023)
(0.000170721 4.36838e-06 4.77177e-07 0.000139458 3.46964e-05 0.000159617)
(0.000178509 1.88832e-06 -7.98122e-06 0.000170646 -2.59561e-05 0.000177811)
(0.000329706 -7.35842e-07 -8.62648e-07 0.000381025 -6.38952e-05 0.000352803)
(0.0001948 1.27164e-05 9.19711e-06 0.000198252 -6.00922e-06 0.000197128)
(0.000165858 4.77895e-06 3.41125e-07 0.000134201 3.11134e-05 0.000154854)
(0.000179842 -1.17763e-06 -8.67523e-06 0.000172407 -3.22491e-05 0.000179293)
(0.000345122 -5.04625e-07 -6.52185e-07 0.000393718 -7.5825e-05 0.000368382)
(0.000194874 1.51547e-05 9.8453e-06 0.000198621 -1.02485e-05 0.000197097)
(0.000161249 5.17581e-06 1.95317e-07 0.000129365 2.78149e-05 0.000150403)
(0.000181627 -3.96367e-06 -9.40265e-06 0.00017471 -3.83309e-05 0.000181225)
(0.000358547 -2.53295e-07 -4.14861e-07 0.000412555 -8.98949e-05 0.000381832)
(0.000195827 1.71958e-05 1.05341e-05 0.000199847 -1.38045e-05 0.000197936)
(0.000156977 5.56299e-06 3.63281e-08 0.000124802 2.49277e-05 0.000146343)
(0.000183943 -6.39671e-06 -1.0159e-05 0.000177225 -4.40298e-05 0.00018368)
(0.000369417 2.14781e-08 -1.50419e-07 0.000438702 -0.000120633 0.000392647)
(0.000197747 1.85779e-05 1.12945e-05 0.000201759 -1.67233e-05 0.000199738)
(0.000152949 5.94232e-06 -1.37345e-07 0.000120773 2.23949e-05 0.000142584)
(0.000186494 -8.20737e-06 -1.09703e-05 0.000180353 -4.91222e-05 0.000186357)
(0.000389983 -1.86567e-07 1.39075e-07 0.000446996 -0.000191872 0.000412889)
(0.000200445 1.88727e-05 1.22801e-05 0.000204729 -1.91774e-05 0.000202372)
(0.000149189 6.3359e-06 -3.26246e-07 0.000117285 2.01701e-05 0.000139141)
(0.000189151 -8.90218e-06 -1.19936e-05 0.000184169 -5.34489e-05 0.000189119)
(0.000429999 -9.39222e-07 2.73936e-07 0.000425338 -0.000201369 0.000444031)
(0.000204011 1.79538e-05 1.38044e-05 0.000208598 -2.17157e-05 0.000206027)
(0.000145846 6.74596e-06 -5.27113e-07 0.000114002 1.82545e-05 0.000136146)
(0.000192224 -8.24237e-06 -1.35596e-05 0.000187865 -5.69048e-05 0.000192281)
(0.000448096 -1.17626e-06 3.47446e-07 0.00043551 -0.000208362 0.00045862)
(0.000208669 1.64212e-05 1.63206e-05 0.000213263 -2.45843e-05 0.000210834)
(0.000142599 7.18941e-06 -7.30924e-07 0.000111529 1.67499e-05 0.000133242)
(0.000195049 -6.70301e-06 -1.61301e-05 0.000192622 -5.91695e-05 0.000195188)
(0.000434247 -6.80958e-07 6.09659e-07 0.000471012 -0.000210018 0.000447591)
(0.000213865 1.49478e-05 1.93856e-05 0.000220348 -2.63752e-05 0.000216059)
(0.00014014 7.68701e-06 -9.25408e-07 0.000108433 1.6524e-05 0.000131107)
(0.000197735 -4.88094e-06 -1.92268e-05 0.000198159 -5.88674e-05 0.000197924)
(0.000400762 4.06723e-07 1.41728e-06 0.000508735 -0.0001786 0.000425443)
(0.000221236 1.40544e-05 2.09644e-05 0.000226872 -2.54077e-05 0.000223362)
(0.000137741 8.15142e-06 -1.10097e-06 0.000106064 1.88235e-05 0.000129026)
(0.000201718 -3.30663e-06 -2.07927e-05 0.000201603 -5.44323e-05 0.000201896)
(4.73211e-08 9.43699e-13 1.22595e-14 4.73209e-08 3.30664e-11 4.73211e-08)
(4.55979e-07 1.23484e-11 7.55052e-13 4.5598e-07 9.40357e-10 4.55979e-07)
(5.87416e-07 -1.2858e-11 -1.45584e-13 5.87415e-07 1.32674e-09 5.87417e-07)
(3.6473e-07 -2.35407e-11 -5.9583e-13 3.6473e-07 6.73738e-10 3.6473e-07)
(5.1906e-08 1.57373e-12 2.1771e-13 5.19048e-08 3.06967e-10 5.19054e-08)
(1.96507e-07 1.03454e-11 5.37451e-12 1.9651e-07 2.33621e-09 1.96506e-07)
(3.1486e-07 -1.22506e-11 -1.25545e-12 3.14858e-07 4.50962e-09 3.1486e-07)
(1.31531e-07 -3.43377e-11 -3.54479e-12 1.31532e-07 1.40837e-09 1.31529e-07)
(3.12887e-07 1.22571e-12 6.17016e-12 3.12865e-07 6.18771e-09 3.12868e-07)
(9.08348e-07 1.81788e-10 1.16979e-10 9.08413e-07 3.10668e-08 9.0832e-07)
(1.57562e-06 -2.95271e-11 -2.92851e-11 1.5756e-06 6.7311e-08 1.57562e-06)
(5.47764e-07 -4.27242e-10 -6.94452e-11 5.478e-07 1.68706e-08 5.47734e-07)
(1.10547e-06 9.82694e-11 6.32031e-11 1.10533e-06 4.68165e-08 1.10528e-06)
(3.13431e-06 1.81092e-09 1.14938e-09 3.13489e-06 2.21544e-07 3.13404e-06)
(5.40679e-06 -4.8868e-10 -2.8764e-10 5.40682e-06 4.69651e-07 5.40669e-06)
(1.87374e-06 -3.20858e-09 -6.7657e-10 1.87408e-06 1.19062e-07 1.87346e-06)
(2.78996e-06 7.95443e-10 3.56397e-10 2.78944e-06 2.0769e-07 2.78898e-06)
(7.79721e-06 7.66731e-09 6.1839e-09 7.79973e-06 9.35705e-07 7.79587e-06)
(1.32805e-05 -2.99167e-09 -1.54708e-09 1.32814e-05 1.91174e-06 1.32801e-05)
(4.6529e-06 -1.29793e-08 -3.6409e-09 4.65446e-06 5.01827e-07 4.65148e-06)
(5.74579e-06 2.81987e-09 1.38457e-09 5.74413e-06 6.71346e-07 5.74225e-06)
(1.5771e-05 2.01137e-08 2.26184e-08 1.57793e-05 2.80391e-06 1.57666e-05)
(2.64148e-05 -7.92483e-09 -5.64256e-09 2.64191e-05 5.51878e-06 2.64139e-05)
(9.41739e-06 -3.55673e-08 -1.33802e-08 9.42269e-06 1.50841e-06 9.41253e-06)
(1.03246e-05 7.31745e-09 4.15381e-09 1.03204e-05 1.72494e-06 1.03148e-05)
(2.7661e-05 3.94902e-08 6.31936e-08 2.76819e-05 6.59417e-06 2.76499e-05)
(4.53743e-05 -1.38548e-08 -1.56494e-08 4.53877e-05 1.24389e-05 4.53729e-05)
(1.65777e-05 -7.54148e-08 -3.77355e-08 1.65915e-05 3.58057e-06 1.65648e-05)
(1.67908e-05 1.58199e-08 1.02561e-08 1.67815e-05 3.7148e-06 1.67683e-05)
(4.35999e-05 6.34616e-08 1.44416e-07 4.36435e-05 1.29065e-05 4.35768e-05)
(6.97885e-05 -1.74544e-08 -3.5337e-08 6.98208e-05 2.32314e-05 6.97867e-05)
(2.63261e-05 -1.32634e-07 -8.7447e-08 2.63557e-05 7.12452e-06 2.62977e-05)
(2.52559e-05 2.99244e-08 2.16759e-08 2.52379e-05 6.94677e-06 2.52113e-05)
(6.3133e-05 8.85557e-08 2.8238e-07 6.32124e-05 2.18582e-05 6.30914e-05)
(9.8346e-05 -1.4986e-08 -6.79784e-08 9.84101e-05 3.7479e-05 9.83439e-05)
(3.85708e-05 -2.01621e-07 -1.74052e-07 3.86263e-05 1.2355e-05 3.85167e-05)
(3.56265e-05 5.07225e-08 4.03045e-08 3.55954e-05 1.157e-05 3.55483e-05)
(8.52859e-05 1.13687e-07 4.88038e-07 8.54152e-05 3.29762e-05 8.52188e-05)
(0.000129149 -4.43524e-09 -1.15193e-07 0.000129259 5.39446e-05 0.000129146)
(5.2927e-05 -2.72548e-07 -3.07017e-07 5.30202e-05 1.91946e-05 5.28348e-05)
(4.75945e-05 7.83868e-08 6.73867e-08 4.75451e-05 1.75026e-05 4.74702e-05)
(0.000108817 1.43172e-07 7.64639e-07 0.00010901 4.53866e-05 0.000108719)
(0.000160253 1.22952e-08 -1.76579e-07 0.000160426 7.1113e-05 0.000160251)
(6.87834e-05 -3.35501e-07 -4.91509e-07 6.89263e-05 2.72864e-05 6.86403e-05)
(6.06842e-05 1.12227e-07 1.03209e-07 6.06106e-05 2.44472e-05 6.0502e-05)
(0.00013253 1.86786e-07 1.10834e-06 0.000132798 5.81582e-05 0.000132395)
(0.000190102 2.87001e-08 -2.50233e-07 0.00019035 8.77249e-05 0.000190101)
(8.54275e-05 -3.84723e-07 -7.27793e-07 8.56313e-05 3.61126e-05 8.52211e-05)
(7.43421e-05 1.51454e-07 1.47192e-07 7.42377e-05 3.19831e-05 7.40922e-05)
(0.00015548 2.59207e-07 1.51089e-06 0.000155829 7.05503e-05 0.000155307)
(0.000217692 3.79036e-08 -3.27638e-07 0.000218027 0.000101281 0.000217693)
(0.00010218 -4.2082e-07 -1.01221e-06 0.000102454 4.51462e-05 0.0001019)
(8.80333e-05 1.96627e-07 1.9817e-07 8.78912e-05 3.96687e-05 8.77095e-05)
(0.000177046 3.7625e-07 1.96296e-06 0.000177475 8.22186e-05 0.000176837)
(0.000242566 3.97925e-08 -4.0877e-07 0.000242997 0.000112859 0.00024257)
(0.000118488 -4.51658e-07 -1.33925e-06 0.000118836 5.39532e-05 0.000118126)
(0.000101309 2.48804e-07 2.54465e-07 0.000101123 4.70161e-05 0.000100909)
(0.000196918 5.33641e-07 2.41404e-06 0.000197418 9.15768e-05 0.00019668)
(0.000264733 3.87441e-08 -4.95911e-07 0.000265263 0.000123187 0.000264743)
(0.000133954 -4.88585e-07 -1.70058e-06 0.000134375 6.22577e-05 0.000133507)
(0.000113856 3.02218e-07 3.08827e-07 0.000113625 5.28326e-05 0.00011339)
(0.000215077 7.29663e-07 2.88824e-06 0.000215649 0.000100011 0.000214814)
(0.000284179 3.74645e-08 -5.89313e-07 0.000284819 0.000132248 0.000284196)
(0.000148355 -5.28717e-07 -2.05631e-06 0.000148841 6.89442e-05 0.000147828)
(0.000125532 3.5949e-07 3.66019e-07 0.000125246 5.82434e-05 0.000125002)
(0.000231511 9.63701e-07 3.38756e-06 0.000232156 0.000107648 0.000231227)
(0.000300992 3.43381e-08 -6.87788e-07 0.000301753 0.000140081 0.000301019)
(0.000161658 -5.80329e-07 -2.43118e-06 0.000162208 7.51151e-05 0.00016105)
(0.000136273 4.1626e-07 4.2586e-07 0.000135917 6.32184e-05 0.00013568)
(0.000246243 1.23698e-06 3.90883e-06 0.00024696 0.000114495 0.000245945)
(0.000315319 2.82032e-08 -7.907e-07 0.000316216 0.000146763 0.000315357)
(0.000173819 -6.47588e-07 -2.82517e-06 0.000174432 8.07617e-05 0.00017313)
(0.000146016 4.70523e-07 4.88272e-07 0.000145579 6.77233e-05 0.000145364)
(0.000259337 1.54532e-06 4.44815e-06 0.00026012 0.000120569 0.000259031)
(0.00032734 1.98207e-08 -8.97459e-07 0.000328388 0.000152376 0.000327392)