/*--------------------------------*- C++ -*----------------------------------*\
| =========                 |                                                 |
| \\      /  F ield         | OpenFOAM: The Open Source CFD Toolbox           |
|  \\    /   O peration     | Version:  v1912                                 |
|   \\  /    A nd           | Website:  www.openfoam.com                      |
|    \\/     M anipulation  |                                                 |
\*---------------------------------------------------------------------------*/
FoamFile
{
    version     2.0;
    format      ascii;
    class       volScalarField;
    location    "100";
    object      turbulenceProperties:I;
}
// * * * * * * * * * * * * * * * * * * * * * * * * * * * * * * * * * * * * * //

dimensions      [0 0 0 0 0 0 0];


internalField   nonuniform List<scalar> 
2528
(
0.15564
0.156657
0.156823
0.15594
0.0294122
0.0280915
0.0317271
0.0273929
0.034787
0.0322166
0.0393865
0.0305885
0.0459527
0.0429207
0.0521955
0.0405338
0.0566891
0.0534837
0.0644621
0.0503282
0.0663371
0.0631985
0.0754714
0.0592719
0.0746611
0.0718097
0.0849355
0.067147
0.0815271
0.079145
0.0926772
0.0738287
0.0868904
0.0851059
0.0986356
0.0792554
0.0908169
0.0896926
0.102896
0.0834456
0.0934699
0.0930115
0.105665
0.0864925
0.0950639
0.0952379
0.107215
0.0885466
0.0958244
0.0965765
0.107828
0.0897851
0.095959
0.0972271
0.107741
0.0903779
0.0956376
0.0973672
0.107159
0.0904916
0.0949961
0.0971381
0.106222
0.0902483
0.0941382
0.0966399
0.105027
0.0897371
0.0931402
0.0959496
0.103645
0.0890271
0.0920596
0.0951263
0.102129
0.0881726
0.0909376
0.0942186
0.100519
0.0872151
0.089802
0.0932637
0.0988531
0.0861894
0.0886709
0.0922893
0.0971696
0.0851258
0.0875561
0.091315
0.095506
0.0840493
0.0864627
0.0903502
0.0938941
0.0829805
0.0853922
0.0893999
0.0923492
0.0819298
0.0843441
0.0884641
0.0908745
0.0809009
0.0833172
0.087543
0.0894679
0.0798933
0.0823111
0.0866346
0.0881263
0.0789039
0.0813254
0.0857377
0.0868462
0.0779304
0.0803605
0.0848512
0.085623
0.0769709
0.0794171
0.0839752
0.0844546
0.0760243
0.0784957
0.0831085
0.0833387
0.0750881
0.0775985
0.0822521
0.0822751
0.0741611
0.0767266
0.0814054
0.0812628
0.073241
0.0758827
0.0805699
0.0803021
0.0723263
0.0750698
0.0797456
0.0793918
0.0714141
0.0742902
0.0789339
0.0785276
0.0705022
0.0735476
0.0781351
0.0777223
0.0695882
0.0728473
0.0773504
0.0770133
0.0686692
0.0721938
0.076578
0.0763253
0.0677433
0.0715927
0.0758192
0.0753595
0.066808
0.0710471
0.0750926
0.0736554
0.0658616
0.0705539
0.0744028
0.07135
0.064903
0.0701287
0.0736225
0.0692929
0.0639327
0.0698067
0.0724825
0.0675314
0.0629508
0.0694459
0.0709333
0.0659538
0.0619594
0.0685242
0.0694051
0.0645235
0.0609614
0.0666433
0.0680467
0.0631929
0.0599598
0.0647405
0.0668153
0.0619471
0.0589593
0.0631284
0.0656669
0.0607749
0.0579647
0.0617509
0.0645788
0.059667
0.0569806
0.0605659
0.0635469
0.0586136
0.0560113
0.059541
0.0625695
0.0576054
0.0550609
0.0586753
0.0616432
0.0566328
0.0541339
0.0579792
0.0607639
0.0556861
0.0532351
0.0574555
0.0599241
0.0547554
0.0523697
0.057103
0.0591145
0.0538306
0.0515423
0.0569168
0.0583231
0.0529018
0.0507573
0.0568912
0.0575317
0.0519592
0.0500191
0.0570189
0.0567114
0.0509937
0.0493312
0.0572927
0.0558346
0.0500014
0.0486994
0.0577048
0.0549144
0.0489878
0.0481325
0.0582473
0.054006
0.0479666
0.0476431
0.0589125
0.0531522
0.0469555
0.0472419
0.0596945
0.0523766
0.0459696
0.0469365
0.0605927
0.0516971
0.0450156
0.0467308
0.0616083
0.0511268
0.0440987
0.0466264
0.0627414
0.050674
0.0432224
0.0466228
0.0639887
0.0503434
0.0423898
0.0467171
0.0653447
0.0501373
0.0416022
0.0469047
0.066801
0.0500559
0.0408591
0.0471793
0.0683463
0.0500976
0.0401607
0.0475333
0.0699688
0.0502605
0.0395078
0.047958
0.0716863
0.0505431
0.0389043
0.0484439
0.0735651
0.0509447
0.038353
0.0489811
0.07578
0.051468
0.0378518
0.0495603
0.0784353
0.0521224
0.0373979
0.0501736
0.0805534
0.0529193
0.036988
0.0508137
0.0809108
0.0538601
0.0366139
0.0514691
0.191088
0.14426
0.15907
0.144654
0.0430915
0.0311125
0.0352524
0.0283573
0.0527399
0.0402038
0.0451172
0.0347063
0.0649274
0.0533911
0.0585316
0.0458711
0.0764083
0.0654544
0.0708353
0.0562048
0.0864583
0.0761875
0.081561
0.0654858
0.0951158
0.085562
0.0905866
0.0737248
0.102488
0.0935212
0.0978461
0.0809126
0.108632
0.100013
0.103345
0.0870216
0.113563
0.105047
0.107197
0.0920375
0.117303
0.108721
0.109617
0.0959851
0.119905
0.111205
0.110872
0.0989365
0.121469
0.112705
0.111228
0.101004
0.12213
0.113426
0.11091
0.102319
0.122043
0.113536
0.110129
0.103015
0.121361
0.1132
0.109019
0.103208
0.12023
0.112531
0.107676
0.103021
0.118776
0.111614
0.106173
0.102541
0.117085
0.110513
0.104561
0.101836
0.115226
0.109276
0.102879
0.100957
0.113252
0.10794
0.101154
0.0999437
0.111203
0.106533
0.0994082
0.0988293
0.109105
0.105079
0.0976551
0.097638
0.106966
0.103594
0.0959021
0.0963908
0.10479
0.102093
0.0941487
0.0951047
0.102584
0.100585
0.0923867
0.0937938
0.100375
0.0990784
0.0906112
0.0924713
0.098214
0.097579
0.0888323
0.0911467
0.0961556
0.0960905
0.0870798
0.0898274
0.094234
0.0946158
0.0853937
0.0885201
0.092451
0.093156
0.0837933
0.0872291
0.0907897
0.0917105
0.0822605
0.0859578
0.0892314
0.0902777
0.0807374
0.0847094
0.0877648
0.0888525
0.0791298
0.0834851
0.0863909
0.0874272
0.0773613
0.082286
0.085099
0.0859891
0.0754585
0.0811102
0.0838176
0.0845211
0.0735689
0.0799543
0.0823654
0.0830045
0.0718332
0.0788108
0.0805113
0.0814251
0.0702514
0.0776641
0.078162
0.0797847
0.0687851
0.0764899
0.0755368
0.0781073
0.0674209
0.0752536
0.0730328
0.0764318
0.0661525
0.0739202
0.0708004
0.074805
0.0649725
0.0724698
0.0687978
0.0732689
0.0638692
0.0709129
0.0669936
0.0718454
0.0628328
0.0692815
0.0653832
0.0705202
0.061855
0.06762
0.0639713
0.0692747
0.0609298
0.0659788
0.0627549
0.0681003
0.0600515
0.0644023
0.0617078
0.0669937
0.0592149
0.0629125
0.060795
0.0659512
0.0584163
0.0615058
0.0599867
0.0649705
0.0576519
0.060171
0.0592592
0.06405
0.0569185
0.0589034
0.0585924
0.0631924
0.0562121
0.0577056
0.0579702
0.0623942
0.0555277
0.0565831
0.0573829
0.0615965
0.0548572
0.0555429
0.0568242
0.0606485
0.0541906
0.0545901
0.0562925
0.0593565
0.0535256
0.0537339
0.0557903
0.0577589
0.0528428
0.0529885
0.0553221
0.0562194
0.0520496
0.0522825
0.0548907
0.0549125
0.0508849
0.0514225
0.0545038
0.053755
0.0490828
0.0501473
0.0541726
0.0526807
0.0469224
0.0485011
0.0537896
0.051678
0.0450398
0.046967
0.052979
0.0507343
0.0434677
0.0457053
0.0511963
0.0498429
0.042054
0.0446146
0.0486041
0.0489989
0.040755
0.0436207
0.0460458
0.0481983
0.0395673
0.0427117
0.0437561
0.0474372
0.0384957
0.0418867
0.0415864
0.0467114
0.0375463
0.0411492
0.0394424
0.0460164
0.0367241
0.0405022
0.03733
0.0453462
0.0360311
0.0399516
0.0352821
0.0446922
0.035465
0.0395063
0.0333711
0.0440435
0.035033
0.0391787
0.0317013
0.0433843
0.0347457
0.0389834
0.030411
0.0426101
0.0346028
0.0389371
0.0296613
0.0415349
0.0346014
0.0390571
0.0295881
0.0402487
0.0347369
0.039359
0.0302425
0.0390278
0.0350042
0.0398554
0.0315357
0.0379198
0.0353966
0.040549
0.139838
0.14138
0.139232
0.141218
0.0283538
0.0290925
0.0275431
0.0282544
0.0340732
0.0354933
0.0325507
0.0335416
0.0451666
0.0470342
0.0431572
0.0443521
0.0553036
0.0575426
0.0528816
0.0542487
0.0642968
0.0668631
0.0614891
0.0630458
0.0721031
0.0749498
0.0689219
0.0707195
0.0786544
0.0817179
0.0751103
0.0772194
0.0839106
0.0871107
0.0800198
0.0825094
0.0878995
0.0911497
0.0836842
0.086603
0.0907193
0.0939389
0.0862076
0.0895749
0.0925178
0.0956397
0.0877374
0.0915437
0.0934606
0.0964336
0.088431
0.0926493
0.0937759
0.0965626
0.0885058
0.0930824
0.0936289
0.096205
0.0881232
0.093013
0.0931419
0.0954894
0.0874024
0.0925657
0.0924049
0.0945138
0.0864328
0.0918331
0.091487
0.0933493
0.0852815
0.0908868
0.0904392
0.0920522
0.0840009
0.0897792
0.0892996
0.0906669
0.0826338
0.088554
0.0880972
0.0892313
0.0812197
0.0872418
0.0868574
0.0877826
0.0797986
0.085869
0.085607
0.0863578
0.0784107
0.0844581
0.084379
0.0849911
0.0770862
0.0830339
0.0832077
0.0837075
0.0758401
0.0816248
0.08212
0.0825159
0.0746586
0.0802607
0.0811256
0.0814174
0.0734961
0.0789662
0.0802217
0.080409
0.0722659
0.0777539
0.0794022
0.079486
0.0709073
0.076625
0.0786615
0.0786406
0.069455
0.0755758
0.0779962
0.0778702
0.068028
0.0746033
0.0774119
0.0771741
0.0667151
0.0737026
0.0768945
0.0765522
0.0655138
0.0728721
0.0763608
0.0760061
0.0643801
0.0721126
0.0755989
0.075543
0.0632984
0.071427
0.0744628
0.0751559
0.0622722
0.0708198
0.073102
0.0747634
0.0612984
0.070295
0.0718527
0.0741355
0.0603693
0.0698651
0.0708174
0.0729607
0.0594774
0.06953
0.0698959
0.0712915
0.0586156
0.069208
0.0690131
0.0696618
0.0577782
0.0686521
0.0681617
0.0683175
0.0569594
0.0674567
0.0673473
0.0671246
0.0561564
0.0655763
0.0665648
0.0659706
0.0553698
0.0636401
0.0658056
0.0648521
0.054602
0.0620437
0.0650628
0.0637809
0.0538589
0.0606631
0.0643294
0.0627547
0.053146
0.0593344
0.0636013
0.0617675
0.052469
0.0580367
0.0628745
0.0608127
0.0518341
0.0567973
0.0621472
0.0598845
0.0512546
0.0556224
0.0614173
0.0589792
0.0507519
0.0545054
0.0606845
0.0580941
0.0503543
0.05344
0.0599523
0.0572283
0.0500981
0.0524211
0.0592252
0.056383
0.0500057
0.0514451
0.0585118
0.0555607
0.050001
0.0505108
0.0578227
0.0547653
0.0498141
0.0496184
0.0571702
0.0540003
0.0487304
0.0487701
0.0565697
0.0532656
0.0463463
0.0479703
0.056037
0.0525561
0.043829
0.0472246
0.0555879
0.0518653
0.0419669
0.0465394
0.055237
0.0511885
0.0404671
0.045921
0.0549984
0.0505226
0.0391021
0.0453711
0.0548831
0.049867
0.0379048
0.0448872
0.0549002
0.0492224
0.0368765
0.0444662
0.0550529
0.0485917
0.0359946
0.044107
0.0553381
0.0479798
0.0352349
0.0438103
0.055747
0.0473933
0.0345739
0.0435781
0.0562712
0.0468412
0.0339936
0.0434136
0.0569045
0.0463344
0.0334819
0.0433215
0.057642
0.0458854
0.0330257
0.0433078
0.0584794
0.0455083
0.0326108
0.0433804
0.0594135
0.0452187
0.032226
0.043549
0.0604412
0.0450334
0.0318626
0.0438266
0.0615593
0.0449697
0.0315139
0.044229
0.0627643
0.0450441
0.0311739
0.0447746
0.0640509
0.0452697
0.030836
0.0454671
0.0654112
0.0456526
0.0304921
0.0463253
0.0668434
0.0461943
0.0301336
0.0474042
0.0683633
0.0469022
0.02976
0.0487427
0.136841
0.152375
0.141824
0.152098
0.0232743
0.0277642
0.0256895
0.0270882
0.0215159
0.0296389
0.0277128
0.0280044
0.028456
0.0387051
0.0371338
0.0364992
0.0356909
0.0477512
0.046363
0.0450638
0.0425677
0.0561553
0.0548439
0.053077
0.048951
0.063702
0.0624268
0.0603691
0.0547463
0.0702346
0.0690052
0.0668248
0.0598756
0.0756541
0.0745116
0.0723616
0.0642882
0.0799397
0.0789348
0.0769387
0.0679694
0.0831489
0.0823312
0.0805646
0.070942
0.0854046
0.0848063
0.0832982
0.0732592
0.086858
0.0864918
0.0852341
0.0749975
0.0876606
0.0875348
0.0864853
0.0762395
0.0879697
0.0880897
0.0871631
0.0770714
0.0879116
0.0882724
0.087394
0.0775748
0.0875787
0.0881728
0.087279
0.0778318
0.0870414
0.0878588
0.0868948
0.0779068
0.0863532
0.0873845
0.0862993
0.0778512
0.0855558
0.0867929
0.0855398
0.0777011
0.0846806
0.0861207
0.0846524
0.0774826
0.0837515
0.0853973
0.083666
0.0772156
0.082787
0.0846479
0.0826024
0.0769155
0.081801
0.0838914
0.0814785
0.0765913
0.0808035
0.08314
0.0803067
0.0762513
0.079804
0.0824009
0.0790962
0.0758995
0.0788088
0.0816778
0.0778528
0.0755413
0.0778181
0.0809722
0.0765823
0.0751811
0.0768343
0.0802827
0.0752883
0.074823
0.0758604
0.0796074
0.0739751
0.0744725
0.0748984
0.0789434
0.0726453
0.0741341
0.0739509
0.0782869
0.0713027
0.0738138
0.0730206
0.0776344
0.0699517
0.0735174
0.0721103
0.0769827
0.0685978
0.0732517
0.0712233
0.0763282
0.0672478
0.0730215
0.0703644
0.0756683
0.0659062
0.072824
0.0695374
0.0750003
0.0645736
0.0726495
0.0687483
0.0743213
0.0632543
0.0724852
0.068
0.0736209
0.0619567
0.0723183
0.0672922
0.0728656
0.0606921
0.0721383
0.0666164
0.0719686
0.0594739
0.0719346
0.0659615
0.0708579
0.0583168
0.0716964
0.065317
0.0695719
0.0572276
0.0714124
0.0646739
0.0682483
0.0562013
0.0710702
0.0640223
0.0669882
0.055225
0.070656
0.0633559
0.0657777
0.0542864
0.0701607
0.0626741
0.0645712
0.053376
0.0695866
0.0619786
0.0633618
0.0524855
0.0689532
0.0612724
0.0621586
0.0516089
0.0682827
0.0605582
0.0609675
0.0507413
0.0675893
0.0598383
0.059793
0.0498794
0.066883
0.0591139
0.0586387
0.0490205
0.0661707
0.0583856
0.0575107
0.0481628
0.0654468
0.0576533
0.056416
0.0473053
0.0646787
0.056916
0.0553653
0.0464475
0.0637901
0.0561721
0.0543712
0.0455892
0.0627742
0.0554197
0.053448
0.0447308
0.061766
0.0546568
0.0526005
0.043873
0.0607988
0.0538811
0.0518174
0.0430165
0.0598496
0.0530903
0.0510825
0.0421619
0.058928
0.052283
0.0503832
0.0413109
0.0580405
0.0514594
0.0497108
0.0404653
0.0571868
0.0506224
0.0490601
0.0396267
0.0563642
0.0497775
0.0484285
0.0387979
0.0555688
0.0489295
0.0478161
0.0379804
0.0547966
0.0480844
0.0472248
0.037176
0.0540431
0.0472464
0.0466583
0.0363847
0.0533031
0.0464191
0.0461213
0.0356057
0.0525701
0.0456043
0.0456202
0.034837
0.051837
0.0448031
0.0451615
0.0340763
0.0510932
0.0440152
0.0447535
0.0333206
0.0503257
0.0432391
0.044404
0.032567
0.0495174
0.0424724
0.0441204
0.0318134
0.0486472
0.0417128
0.0439094
0.0310588
0.0476872
0.0409569
0.043777
0.0303064
0.0465995
0.0402035
0.0437279
0.029565
0.0453283
0.0394523
0.0437657
0.0288527
0.0437942
0.0387061
0.0438927
0.0282029
0.0419321
0.0379736
0.0441125
0.0276752
0.0807625
0.0549201
0.036266
0.0521255
0.080706
0.0560772
0.0359414
0.0527796
0.0808228
0.0573337
0.0356391
0.0534423
0.0810563
0.0587377
0.0353576
0.0541251
0.0813708
0.0603728
0.0350943
0.0548362
0.0817475
0.062385
0.0348474
0.0555874
0.0821597
0.064451
0.0346191
0.0563929
0.0825793
0.0650959
0.034413
0.0572656
0.0829814
0.0648321
0.0342332
0.0582094
0.0833517
0.0644358
0.0340825
0.0592225
0.0836824
0.0640594
0.0339649
0.0603062
0.0839709
0.0636978
0.0338836
0.0614605
0.0842194
0.0633519
0.0338426
0.062689
0.0844332
0.0630392
0.0338455
0.0640406
0.0846205
0.062767
0.0338967
0.0655839
0.0847913
0.0625375
0.0340009
0.0673475
0.0849556
0.0623519
0.0341656
0.0687604
0.085122
0.0622097
0.034396
0.0688477
0.0852961
0.0621105
0.0346917
0.0684783
0.0854802
0.0620537
0.0350469
0.0680976
0.0856758
0.0620385
0.0354575
0.067759
0.0858847
0.0620638
0.035924
0.0674452
0.0861067
0.062129
0.0364489
0.0671649
0.0863431
0.0622328
0.0370348
0.0669377
0.0865945
0.062375
0.0376915
0.0667735
0.0868626
0.0625549
0.0384215
0.0666777
0.0871501
0.0627726
0.0391612
0.0666529
0.08746
0.0630282
0.0397132
0.0666997
0.0877976
0.0633235
0.0399873
0.0668186
0.0881706
0.063661
0.0401878
0.0670099
0.088605
0.0640445
0.0404267
0.0672741
0.089148
0.0644785
0.0407221
0.0676112
0.0897874
0.0649707
0.0410923
0.0680218
0.090361
0.0655293
0.0415596
0.0685071
0.0906173
0.0661623
0.0421408
0.069069
0.0905459
0.0668768
0.0428492
0.069709
0.0904214
0.0676774
0.0436963
0.0704299
0.0904156
0.0685705
0.0446856
0.0712339
0.0905498
0.0695629
0.0458132
0.0721235
0.0907899
0.070663
0.0470761
0.0731022
0.0911349
0.0718828
0.0484729
0.0741745
0.0916037
0.0732376
0.0500014
0.075346
0.0922045
0.0747504
0.0516598
0.0766225
0.0929038
0.0764581
0.0534481
0.0780127
0.0936476
0.0783823
0.0553659
0.0795281
0.0943701
0.0804911
0.0574432
0.081185
0.095076
0.0826238
0.0597157
0.0830114
0.0958175
0.0844335
0.0621218
0.0850395
0.0966341
0.0859458
0.0645495
0.0872919
0.0975239
0.0873981
0.0669243
0.0897376
0.0984465
0.0889675
0.0692555
0.092199
0.0993508
0.0907213
0.0716185
0.0945023
0.100195
0.0926496
0.0740876
0.0966523
0.10095
0.0947536
0.0766934
0.0987761
0.101593
0.0970295
0.0794232
0.101003
0.102097
0.099452
0.0822467
0.103392
0.102426
0.101965
0.085138
0.10592
0.102536
0.10451
0.0880767
0.108516
0.102372
0.107036
0.0910431
0.11111
0.101862
0.109493
0.0940134
0.113643
0.100914
0.111827
0.0969572
0.116055
0.099464
0.113967
0.0998301
0.118276
0.097456
0.115815
0.102571
0.120208
0.0948564
0.117238
0.105094
0.12172
0.0916618
0.11806
0.107277
0.122629
0.0878992
0.118002
0.108951
0.122652
0.0836222
0.116785
0.109872
0.121511
0.0788997
0.114153
0.109663
0.118938
0.0737998
0.109936
0.107906
0.114746
0.0683749
0.104117
0.104287
0.108898
0.0626483
0.0968447
0.0986463
0.101517
0.056612
0.0883597
0.0910839
0.0928186
0.0502317
0.0788831
0.0819012
0.0830141
0.0434698
0.068555
0.0714374
0.0722448
0.0363257
0.057457
0.0599588
0.060607
0.0289293
0.0457297
0.0477145
0.048267
0.0218897
0.0339126
0.0352916
0.0358007
0.0204159
0.0268313
0.0274977
0.0278475
0.13826
0.141774
0.14481
0.141661
0.0333042
0.0369408
0.0359022
0.0414226
0.0353852
0.0361514
0.0365066
0.0424317
0.0376715
0.0355973
0.0371957
0.043513
0.0401149
0.0353158
0.0379589
0.0445825
0.0426841
0.0353406
0.0387847
0.0455588
0.0453481
0.035698
0.039654
0.0464468
0.0480712
0.0364053
0.0405526
0.0472869
0.0508118
0.0374524
0.0414786
0.0481147
0.0535239
0.0387827
0.0424296
0.0489549
0.056163
0.0403179
0.0434044
0.0498266
0.0586663
0.0419777
0.0444027
0.0507429
0.0609732
0.0436917
0.0454243
0.0517139
0.0630804
0.0454022
0.0464701
0.0527473
0.0650177
0.0470407
0.0475429
0.0538497
0.0668179
0.048563
0.0486504
0.0550259
0.0685054
0.0499819
0.0498024
0.0562789
0.0700966
0.0513234
0.0510329
0.0576106
0.0716035
0.0526077
0.0524782
0.0590057
0.073033
0.0538487
0.0541772
0.0604323
0.0743889
0.0550571
0.0557414
0.06185
0.0756735
0.0562399
0.0569331
0.0632027
0.076886
0.0574011
0.0578783
0.0644542
0.0780257
0.0585432
0.05877
0.0656109
0.0790882
0.0596675
0.0596969
0.0666941
0.0800691
0.0607733
0.060668
0.0677178
0.0809624
0.0618597
0.0616811
0.0686866
0.0817603
0.0629246
0.062744
0.069603
0.0824459
0.0639649
0.0638344
0.0704701
0.0830081
0.0649769
0.06489
0.0712913
0.0834524
0.0659554
0.0658703
0.0720689
0.0837972
0.0668971
0.0667855
0.0728059
0.0840609
0.0678048
0.0676647
0.0735054
0.0842598
0.0686831
0.0685292
0.0741688
0.0844106
0.0695376
0.0693861
0.0747993
0.084524
0.0703721
0.0702372
0.0753983
0.0846069
0.0711909
0.0710839
0.0759681
0.0846655
0.0719979
0.0719273
0.0765109
0.0847047
0.0727962
0.0727679
0.0770289
0.0847291
0.0735895
0.073607
0.0775239
0.0847427
0.0743808
0.0744465
0.077998
0.0847508
0.0751741
0.0752879
0.0784533
0.0847573
0.0759735
0.0761339
0.0788925
0.0847671
0.0767827
0.0769875
0.079317
0.084786
0.0776073
0.0778514
0.0797299
0.0848191
0.0784533
0.0787299
0.0801336
0.0848707
0.0793272
0.0796273
0.0805311
0.084944
0.0802379
0.0805499
0.0809264
0.0850414
0.0811914
0.0815042
0.0813224
0.0851623
0.0821916
0.0824963
0.081725
0.0853073
0.0832387
0.0835326
0.0821398
0.0854744
0.0843327
0.0846161
0.0825743
0.0856606
0.0854723
0.0857425
0.0830322
0.0858584
0.086653
0.086904
0.0835061
0.0860556
0.0878652
0.0880898
0.0839827
0.0862342
0.0890885
0.0892895
0.0844362
0.0863706
0.0903013
0.0904879
0.0848373
0.0864323
0.09148
0.0916673
0.0851553
0.0863807
0.0925985
0.0928034
0.0853572
0.0861671
0.093623
0.0938648
0.0854021
0.085735
0.0945123
0.0948106
0.0852427
0.0850161
0.0952103
0.0955874
0.0848181
0.0839278
0.0956457
0.0961254
0.0840543
0.0823595
0.0957253
0.0963348
0.0828569
0.0802311
0.0953306
0.0960977
0.0811083
0.077477
0.0942947
0.095256
0.0787305
0.0740623
0.0924347
0.0936094
0.0756678
0.0700011
0.0896011
0.0910031
0.0719109
0.065361
0.0856928
0.0873108
0.0675034
0.0602565
0.0806986
0.082494
0.0625406
0.0548261
0.0747206
0.0766231
0.0571522
0.0492026
0.0679557
0.069867
0.0514731
0.0434897
0.0606382
0.0624385
0.0456178
0.0377521
0.0529741
0.05453
0.0396664
0.0320199
0.0451063
0.0462821
0.0336662
0.0263077
0.0371256
0.0378079
0.0276517
0.0206902
0.0291459
0.0292888
0.0217191
0.0158832
0.0217525
0.0214169
0.0165735
0.0203675
0.0222572
0.0217877
0.0203789
0.144723
0.146322
0.146329
0.144212
0.06998
0.0477754
0.0293847
0.0503247
0.0716829
0.0487848
0.0290243
0.0523332
0.0734508
0.0498941
0.0286859
0.0554789
0.0752916
0.0510883
0.0283703
0.0594949
0.0772272
0.0523586
0.0280776
0.0613893
0.0792764
0.053699
0.0278047
0.0619872
0.081423
0.0551071
0.0275502
0.0623119
0.0835991
0.0565849
0.0273136
0.0626909
0.0860534
0.0581377
0.027095
0.0632214
0.0894605
0.0597401
0.026896
0.0638999
0.0937969
0.0613252
0.0267182
0.0647199
0.0970311
0.0631975
0.0265651
0.0656729
0.0983747
0.0659834
0.0264454
0.06675
0.0988567
0.0688655
0.0263718
0.067945
0.0992025
0.0699226
0.0263605
0.0692557
0.0996965
0.0699321
0.0264277
0.07068
0.100394
0.0696765
0.0265945
0.0721706
0.101266
0.0694404
0.0268834
0.0736464
0.102299
0.0693191
0.0273132
0.0753245
0.103483
0.0693136
0.0279105
0.0777918
0.104816
0.0694227
0.028704
0.0808162
0.106295
0.0696478
0.0297013
0.0827072
0.107907
0.0699904
0.0308969
0.0834916
0.10961
0.0704511
0.0322747
0.083856
0.111405
0.0710297
0.0338016
0.0841335
0.113487
0.0717073
0.03556
0.0844457
0.116171
0.0724443
0.0377808
0.0848045
0.119296
0.0733036
0.0403132
0.0852004
0.121859
0.0744923
0.0422468
0.085631
0.123306
0.0758929
0.0432382
0.0860949
0.12401
0.0769126
0.0437543
0.0865907
0.124475
0.0775304
0.0442269
0.0871185
0.124952
0.0780346
0.0447946
0.0876771
0.125509
0.0785663
0.0454783
0.0882652
0.126127
0.0791634
0.0462658
0.0888816
0.12679
0.0798165
0.0471474
0.0895251
0.127484
0.0805208
0.048111
0.0901928
0.128199
0.0812734
0.0491433
0.0908834
0.128925
0.0820715
0.0502331
0.0915947
0.129647
0.0829108
0.0513725
0.0923247
0.130357
0.0837867
0.0525565
0.0930723
0.131048
0.0846941
0.0537819
0.0938345
0.131714
0.0856284
0.0550465
0.0946102
0.132345
0.0865848
0.0563472
0.0953977
0.132932
0.0875581
0.0576824
0.0961943
0.133464
0.0885442
0.059051
0.0969989
0.133928
0.0895393
0.0604538
0.0978088
0.134312
0.0905397
0.0618921
0.0986222
0.134605
0.091542
0.0633665
0.0994373
0.134793
0.0925436
0.0648807
0.100251
0.134857
0.0935426
0.0664411
0.101063
0.134782
0.094537
0.0680565
0.101867
0.134548
0.0955249
0.0697378
0.102662
0.134131
0.0965025
0.0714901
0.103444
0.133505
0.0974663
0.0733115
0.104208
0.132642
0.0984089
0.075193
0.104947
0.131502
0.0993244
0.0771193
0.105655
0.130046
0.100205
0.0790734
0.106318
0.128225
0.101033
0.0810343
0.106924
0.125985
0.101778
0.0829764
0.107448
0.123266
0.102396
0.0848653
0.107848
0.120013
0.10282
0.0866559
0.108062
0.116174
0.102957
0.0882858
0.107998
0.111716
0.102678
0.0896729
0.107535
0.106634
0.10182
0.0907029
0.106503
0.100959
0.100184
0.0912213
0.104722
0.0947589
0.0975979
0.0910127
0.102008
0.0881325
0.0939158
0.0897637
0.0981971
0.0811958
0.0890609
0.0872075
0.0931937
0.0740647
0.0830802
0.0831798
0.0870236
0.0668404
0.0761563
0.0776751
0.0798554
0.0595971
0.0685566
0.0709134
0.0719577
0.0523728
0.0605406
0.0632894
0.0636039
0.0451609
0.0522759
0.0552101
0.054976
0.0378946
0.0437992
0.0469137
0.0461174
0.0304623
0.0350312
0.0383748
0.0369406
0.0231901
0.0261492
0.0295524
0.0275818
0.0253496
0.0251721
0.0269935
0.0258331
0.15484
0.150961
0.152215
0.151713
0.039728
0.0372747
0.0444261
0.0273678
0.0371879
0.036634
0.0448253
0.0273976
0.0342876
0.036063
0.045296
0.0278743
0.0309484
0.0355627
0.0458296
0.0289061
0.0270409
0.0351278
0.04642
0.0305092
0.0223651
0.0347414
0.0470627
0.0324789
0.0166417
0.0343681
0.0477529
0.0345798
0.00972373
0.0339726
0.0484872
0.0366622
0.00524964
0.0335707
0.0492615
0.0386536
0.00580247
0.0332164
0.050073
0.0405309
0.00520991
0.0329799
0.0509182
0.0422949
0.00520775
0.032938
0.0517934
0.0439457
0.00526386
0.0331702
0.0526956
0.045482
0.00148794
0.0337475
0.0536216
0.0469053
0.00970828
0.0346811
0.0545692
0.0482162
0.0158567
0.0359017
0.055536
0.0494164
0.0209068
0.0373208
0.05652
0.0505119
0.025169
0.0388632
0.0575198
0.0515343
0.0289063
0.0404743
0.0585336
0.0525399
0.0323018
0.0421219
0.0595606
0.053582
0.0354777
0.0437885
0.0605997
0.0547066
0.0385164
0.045463
0.0616512
0.0559402
0.0414759
0.0471415
0.0627159
0.057273
0.0443976
0.0488288
0.0637956
0.0586818
0.0473131
0.0505306
0.0648935
0.0601479
0.0502481
0.0522537
0.0660133
0.061663
0.0532232
0.0540039
0.0671608
0.0632259
0.0562515
0.0557866
0.0683431
0.0648372
0.0593296
0.0576027
0.0695713
0.0664963
0.0624408
0.0594512
0.0708536
0.0682026
0.0655679
0.0614143
0.0721909
0.0699556
0.0687421
0.0636009
0.0735789
0.0717536
0.0720004
0.0659407
0.0750137
0.0736009
0.07531
0.0682351
0.0765007
0.0755145
0.0786292
0.070338
0.0780592
0.0775135
0.0819245
0.0722788
0.0796981
0.0796011
0.0851913
0.0741782
0.0814013
0.0817598
0.0884465
0.0761266
0.0831503
0.0839647
0.0917061
0.0781756
0.0849344
0.0861989
0.0949804
0.0803405
0.0867491
0.0884599
0.0982754
0.0825967
0.0885933
0.0907522
0.101597
0.0849074
0.0904662
0.0930821
0.104948
0.0872459
0.0923678
0.0954517
0.108329
0.0896014
0.0942965
0.0978618
0.111741
0.0919746
0.0962518
0.100309
0.115182
0.0943637
0.0982311
0.102792
0.118654
0.0967614
0.100229
0.105306
0.122159
0.0991554
0.102239
0.107848
0.125702
0.101538
0.104253
0.110411
0.129283
0.103908
0.106263
0.112984
0.132901
0.106272
0.108266
0.115552
0.136555
0.108633
0.11026
0.118101
0.140239
0.110993
0.112242
0.120622
0.143947
0.113352
0.114208
0.123105
0.147675
0.115703
0.116151
0.125536
0.151404
0.118036
0.118059
0.127895
0.155106
0.120338
0.119917
0.130151
0.158744
0.122586
0.121704
0.132264
0.162271
0.124747
0.12339
0.134179
0.165624
0.126775
0.12493
0.135827
0.168715
0.128612
0.12627
0.137118
0.171424
0.130183
0.127333
0.137926
0.17359
0.131378
0.128015
0.138109
0.175073
0.132053
0.128178
0.137534
0.175679
0.132
0.127621
0.136058
0.175213
0.131015
0.126156
0.13356
0.173518
0.128887
0.123573
0.129971
0.170506
0.125438
0.119696
0.125303
0.166165
0.120584
0.114442
0.11965
0.160524
0.114376
0.107866
0.113157
0.153597
0.106987
0.100151
0.105968
0.145346
0.0986269
0.0915371
0.0981749
0.13564
0.0894504
0.0822197
0.0897818
0.124254
0.0794875
0.0722812
0.0806922
0.110834
0.0686186
0.0616713
0.0706853
0.0948537
0.0565628
0.0502369
0.0593588
0.0754499
0.0429907
0.0379538
0.0461034
0.0543789
0.0328683
0.0301335
0.0354268
0.168043
0.153813
0.152859
0.160014
)
;

boundaryField
{
    leftWall
    {
        type            calculated;
        value           uniform 1;
    }
    rightWall
    {
        type            calculated;
        value           uniform 1;
    }
    leftSides_periodic0
    {
        type            cyclic;
    }
    leftSides_periodic1
    {
        type            cyclic;
    }
    rightSides_periodic0
    {
        type            cyclic;
    }
    rightSides_periodic1
    {
        type            cyclic;
    }
    leftInOut_periodic0
    {
        type            cyclic;
    }
    leftInOut_periodic1
    {
        type            cyclic;
    }
    rightInOut_periodic0
    {
        type            cyclic;
    }
    rightInOut_periodic1
    {
        type            cyclic;
    }
}


// ************************************************************************* //
