-0.0075 	0 	0 	0
-0.0075 	9.25858e-35 	-2.06051e-36 	1.85086e-31
-0.00745622 	7.60534e-06 	-1.69258e-07 	0.0152036
-0.00745622 	7.60534e-06 	-1.69258e-07 	0.0152036
-0.00741165 	1.55485e-05 	-7.31077e-07 	0.029565
-0.00741165 	1.55485e-05 	-7.31077e-07 	0.029565
-0.00736628 	2.3387e-05 	-1.73782e-06 	0.0431799
-0.00736628 	2.3387e-05 	-1.73782e-06 	0.0431799
-0.0073201 	3.08956e-05 	-3.23869e-06 	0.0560789
-0.0073201 	3.08956e-05 	-3.23869e-06 	0.0560789
-0.00727309 	3.80809e-05 	-5.21468e-06 	0.0682942
-0.00727309 	3.80809e-05 	-5.21468e-06 	0.0682942
-0.00722524 	4.497e-05 	-7.68107e-06 	0.0798575
-0.00722524 	4.497e-05 	-7.68107e-06 	0.0798575
-0.00717653 	5.15566e-05 	-1.06428e-05 	0.0907925
-0.00717653 	5.15566e-05 	-1.06428e-05 	0.0907925
-0.00712695 	5.78165e-05 	-1.41142e-05 	0.101102
-0.00712695 	5.78165e-05 	-1.41142e-05 	0.101102
-0.00707647 	6.37154e-05 	-1.81237e-05 	0.11077
-0.00707647 	6.37154e-05 	-1.81237e-05 	0.11077
-0.0070251 	6.92205e-05 	-2.27202e-05 	0.119774
-0.0070251 	6.92205e-05 	-2.27202e-05 	0.119774
-0.0069728 	7.43117e-05 	-2.79686e-05 	0.128108
-0.0069728 	7.43117e-05 	-2.79686e-05 	0.128108
-0.00691956 	7.89864e-05 	-3.39386e-05 	0.135787
-0.00691956 	7.89864e-05 	-3.39386e-05 	0.135787
-0.00686537 	8.32577e-05 	-4.06924e-05 	0.142845
-0.00686537 	8.32577e-05 	-4.06924e-05 	0.142845
-0.00681021 	8.71501e-05 	-4.8282e-05 	0.149331
-0.00681021 	8.71501e-05 	-4.8282e-05 	0.149331
-0.00675406 	9.06953e-05 	-5.67642e-05 	0.155299
-0.00675406 	9.06953e-05 	-5.67642e-05 	0.155299
-0.0066969 	9.39253e-05 	-6.61957e-05 	0.160804
-0.0066969 	9.39253e-05 	-6.61957e-05 	0.160804
-0.00663871 	9.68684e-05 	-7.66181e-05 	0.165893
-0.00663871 	9.68684e-05 	-7.66181e-05 	0.165893
-0.00657949 	9.95499e-05 	-8.8042e-05 	0.170606
-0.00657949 	9.95499e-05 	-8.8042e-05 	0.170606
-0.0065192 	0.000101996 	-0.00010044 	0.174984
-0.0065192 	0.000101996 	-0.00010044 	0.174984
-0.00645783 	0.000104232 	-0.000113767 	0.179069
-0.00645783 	0.000104232 	-0.000113767 	0.179069
-0.00639535 	0.000106281 	-0.000127969 	0.182898
-0.00639535 	0.000106281 	-0.000127969 	0.182898
-0.00633176 	0.000108165 	-0.000142996 	0.1865
-0.00633176 	0.000108165 	-0.000142996 	0.1865
-0.00626703 	0.0001099 	-0.000158792 	0.189904
-0.00626703 	0.0001099 	-0.000158792 	0.189904
-0.00620114 	0.000111502 	-0.000175298 	0.193132
-0.00620114 	0.000111502 	-0.000175298 	0.193132
-0.00613406 	0.000112983 	-0.000192453 	0.196204
-0.00613406 	0.000112983 	-0.000192453 	0.196204
-0.00606579 	0.000114356 	-0.000210195 	0.199138
-0.00606579 	0.000114356 	-0.000210195 	0.199138
-0.00599629 	0.000115632 	-0.000228454 	0.201952
-0.00599629 	0.000115632 	-0.000228454 	0.201952
-0.00592554 	0.000116821 	-0.000247159 	0.20466
-0.00592554 	0.000116821 	-0.000247159 	0.20466
-0.00585352 	0.000117933 	-0.000266232 	0.207278
-0.00585352 	0.000117933 	-0.000266232 	0.207278
-0.00578022 	0.000118977 	-0.000285579 	0.209818
-0.00578022 	0.000118977 	-0.000285579 	0.209818
-0.00570559 	0.00011996 	-0.0003051 	0.212289
-0.00570559 	0.00011996 	-0.0003051 	0.212289
-0.00562963 	0.000120888 	-0.000324694 	0.2147
-0.00562963 	0.000120888 	-0.000324694 	0.2147
-0.00555231 	0.000121769 	-0.000344254 	0.217058
-0.00555231 	0.000121769 	-0.000344254 	0.217058
-0.0054736 	0.000122605 	-0.000363677 	0.219368
-0.0054736 	0.000122605 	-0.000363677 	0.219368
-0.00539348 	0.000123403 	-0.000382855 	0.221635
-0.00539348 	0.000123403 	-0.000382855 	0.221635
-0.00531193 	0.000124167 	-0.000401679 	0.223864
-0.00531193 	0.000124167 	-0.000401679 	0.223864
-0.00522891 	0.000124899 	-0.000420042 	0.226057
-0.00522891 	0.000124899 	-0.000420042 	0.226057
-0.0051444 	0.000125604 	-0.000437839 	0.228216
-0.0051444 	0.000125604 	-0.000437839 	0.228216
-0.00505838 	0.000126283 	-0.000454969 	0.230344
-0.00505838 	0.000126283 	-0.000454969 	0.230344
-0.00497081 	0.000126939 	-0.000471334 	0.232439
-0.00497081 	0.000126939 	-0.000471334 	0.232439
-0.00488168 	0.000127575 	-0.000486845 	0.234504
-0.00488168 	0.000127575 	-0.000486845 	0.234504
-0.00479094 	0.000128191 	-0.000501417 	0.236536
-0.00479094 	0.000128191 	-0.000501417 	0.236536
-0.00469858 	0.00012879 	-0.000514968 	0.238536
-0.00469858 	0.00012879 	-0.000514968 	0.238536
-0.00460456 	0.000129372 	-0.000527422 	0.240501
-0.00460456 	0.000129372 	-0.000527422 	0.240501
-0.00450886 	0.000129939 	-0.000538713 	0.242429
-0.00450886 	0.000129939 	-0.000538713 	0.242429
-0.00441144 	0.00013049 	-0.0005488 	0.244319
-0.00441144 	0.00013049 	-0.0005488 	0.244319
-0.00431227 	0.000131028 	-0.000557675 	0.24617
-0.00431227 	0.000131028 	-0.000557675 	0.24617
-0.00421133 	0.000131553 	-0.000565365 	0.247978
-0.00421133 	0.000131553 	-0.000565365 	0.247978
-0.00410857 	0.000132066 	-0.00057193 	0.249741
-0.00410857 	0.000132066 	-0.00057193 	0.249741
-0.00400397 	0.000132567 	-0.000577451 	0.251456
-0.00400397 	0.000132567 	-0.000577451 	0.251456
-0.0038975 	0.000133053 	-0.000582033 	0.253121
-0.0038975 	0.000133053 	-0.000582033 	0.253121
-0.00378912 	0.000133524 	-0.000585776 	0.254737
-0.00378912 	0.000133524 	-0.000585776 	0.254737
-0.00367879 	0.000133981 	-0.000588768 	0.256307
-0.00367879 	0.000133981 	-0.000588768 	0.256307
-0.00356649 	0.000134424 	-0.000591083 	0.257834
-0.00356649 	0.000134424 	-0.000591083 	0.257834
-0.00345217 	0.000134853 	-0.00059278 	0.259314
-0.00345217 	0.000134853 	-0.00059278 	0.259314
-0.0033358 	0.000135266 	-0.000593924 	0.260745
-0.0033358 	0.000135266 	-0.000593924 	0.260745
-0.00321735 	0.00013566 	-0.000594586 	0.262125
-0.00321735 	0.00013566 	-0.000594586 	0.262125
-0.00309677 	0.000136032 	-0.000594843 	0.263451
-0.00309677 	0.000136032 	-0.000594843 	0.263451
-0.00297403 	0.000136378 	-0.000594777 	0.26472
-0.00297403 	0.000136378 	-0.000594777 	0.26472
-0.00284909 	0.000136695 	-0.000594473 	0.26593
-0.00284909 	0.000136695 	-0.000594473 	0.26593
-0.0027219 	0.000136979 	-0.000594017 	0.267078
-0.0027219 	0.000136979 	-0.000594017 	0.267078
-0.00259244 	0.000137225 	-0.000593492 	0.268161
-0.00259244 	0.000137225 	-0.000593492 	0.268161
-0.00246065 	0.000137429 	-0.000592979 	0.269177
-0.00246065 	0.000137429 	-0.000592979 	0.269177
-0.00232651 	0.000137588 	-0.000592546 	0.270124
-0.00232651 	0.000137588 	-0.000592546 	0.270124
-0.00218995 	0.000137698 	-0.000592252 	0.270998
-0.00218995 	0.000137698 	-0.000592252 	0.270998
-0.00205095 	0.000137755 	-0.000592143 	0.271799
-0.00205095 	0.000137755 	-0.000592143 	0.271799
-0.00190946 	0.000137756 	-0.000592246 	0.272525
-0.00190946 	0.000137756 	-0.000592246 	0.272525
-0.00176543 	0.000137696 	-0.000592573 	0.273175
-0.00176543 	0.000137696 	-0.000592573 	0.273175
-0.00161881 	0.000137572 	-0.000593116 	0.273748
-0.00161881 	0.000137572 	-0.000593116 	0.273748
-0.00146957 	0.000137378 	-0.000593846 	0.274244
-0.00146957 	0.000137378 	-0.000593846 	0.274244
-0.00131765 	0.00013711 	-0.000594717 	0.274663
-0.00131765 	0.00013711 	-0.000594717 	0.274663
-0.001163 	0.000136761 	-0.000595671 	0.275006
-0.001163 	0.000136761 	-0.000595671 	0.275006
-0.00100559 	0.000136324 	-0.00059664 	0.275272
-0.00100559 	0.000136324 	-0.00059664 	0.275272
-0.000845345 	0.00013579 	-0.000597601 	0.275461
-0.000845345 	0.00013579 	-0.000597601 	0.275461
-0.000682232 	0.000135148 	-0.000598457 	0.275572
-0.000682232 	0.000135148 	-0.000598457 	0.275572
-0.000516194 	0.000134385 	-0.000599093 	0.275603
-0.000516194 	0.000134385 	-0.000599093 	0.275603
-0.000347178 	0.000133486 	-0.00059951 	0.275552
-0.000347178 	0.000133486 	-0.00059951 	0.275552
-0.000175132 	0.00013244 	-0.000599521 	0.275417
-0.000175132 	0.00013244 	-0.000599521 	0.275417
0 	0.000131243 	-0.000599138 	0.275196
0 	0.000131243 	-0.000599138 	0.275196
0 	0.000131243 	-0.000599138 	0.275196
0 	0.000131243 	-0.000599138 	0.275196
0.000175132 	0.000129908 	-0.000598452 	0.274891
0.000175132 	0.000133403 	-0.0005342 	0.270952
0.000347178 	0.000128464 	-0.000597325 	0.274507
0.000347178 	0.000133099 	-0.000534938 	0.270644
0.000516194 	0.000126929 	-0.000595874 	0.274052
0.000516194 	0.000132641 	-0.000535319 	0.270256
0.000682232 	0.000125317 	-0.000594083 	0.273527
0.000682232 	0.000132044 	-0.000535293 	0.269792
0.000845345 	0.000123646 	-0.000591862 	0.272937
0.000845345 	0.000131329 	-0.000534906 	0.269257
0.00100559 	0.000121933 	-0.000589286 	0.272284
0.00100559 	0.000130514 	-0.000534152 	0.268653
0.001163 	0.00012019 	-0.00058637 	0.271571
0.001163 	0.000129614 	-0.000533028 	0.267985
0.00131765 	0.000118428 	-0.000583133 	0.2708
0.00131765 	0.000128645 	-0.000531537 	0.267256
0.00146957 	0.000116657 	-0.000579594 	0.269974
0.00146957 	0.000127619 	-0.000529692 	0.266468
0.00161881 	0.000114885 	-0.000575767 	0.269094
0.00161881 	0.000126547 	-0.000527504 	0.265623
0.00176543 	0.000113119 	-0.000571666 	0.268163
0.00176543 	0.000125438 	-0.000524978 	0.264724
0.00190946 	0.000111364 	-0.000567301 	0.267181
0.00190946 	0.000124302 	-0.000522121 	0.263773
0.00205095 	0.000109625 	-0.000562681 	0.266151
0.00205095 	0.000123146 	-0.000518939 	0.26277
0.00218995 	0.000107905 	-0.000557811 	0.265073
0.00218995 	0.000121974 	-0.000515435 	0.261718
0.00232651 	0.00010621 	-0.000552696 	0.263948
0.00232651 	0.000120794 	-0.000511609 	0.260617
0.00246065 	0.00010454 	-0.000547338 	0.262776
0.00246065 	0.000119608 	-0.000507463 	0.259468
0.00259244 	0.000102899 	-0.000541737 	0.26156
0.00259244 	0.000118421 	-0.000502992 	0.258273
0.0027219 	0.000101288 	-0.000535892 	0.260298
0.0027219 	0.000117236 	-0.000498191 	0.257032
0.00284909 	9.97092e-05 	-0.000529798 	0.258992
0.00284909 	0.000116056 	-0.000493051 	0.255746
0.00297403 	9.81634e-05 	-0.000523451 	0.257641
0.00297403 	0.000114881 	-0.000487564 	0.254415
0.00309677 	9.66517e-05 	-0.000516844 	0.256246
0.00309677 	0.000113715 	-0.000481716 	0.253038
0.00321735 	9.51747e-05 	-0.00050997 	0.254806
0.00321735 	0.000112557 	-0.000475497 	0.251616
0.0033358 	9.37329e-05 	-0.000502823 	0.25332
0.0033358 	0.000111408 	-0.000468895 	0.250147
0.00345217 	0.000110269 	-0.000461914 	0.248632
0.00345217 	9.23267e-05 	-0.000495396 	0.251789
0.00356649 	9.09563e-05 	-0.00048768 	0.250211
0.00356649 	0.000109139 	-0.000454546 	0.24707
0.00367879 	8.96218e-05 	-0.000479651 	0.248585
0.00367879 	0.000108022 	-0.000446773 	0.245461
0.00378912 	8.83229e-05 	-0.000471286 	0.24691
0.00378912 	0.000106919 	-0.000438578 	0.243806
0.0038975 	8.70582e-05 	-0.000462539 	0.245183
0.0038975 	0.00010583 	-0.000429901 	0.242099
0.00400397 	8.58242e-05 	-0.000453338 	0.243398
0.00400397 	0.000104743 	-0.000420629 	0.240327
0.00410857 	0.00010365 	-0.000410641 	0.238478
0.00410857 	8.46173e-05 	-0.000443594 	0.241549
0.00421133 	8.34334e-05 	-0.00043322 	0.239632
0.00421133 	0.000102544 	-0.000399839 	0.236548
0.00431227 	8.22685e-05 	-0.000422134 	0.237638
0.00431227 	0.000101422 	-0.000388163 	0.234531
0.00441144 	8.11197e-05 	-0.000410289 	0.235562
0.00441144 	0.000100281 	-0.000375599 	0.232426
0.00450886 	7.99852e-05 	-0.000397675 	0.233398
0.00450886 	9.91177e-05 	-0.00036218 	0.230226
0.00460456 	7.88632e-05 	-0.000384302 	0.231141
0.00460456 	9.79279e-05 	-0.000347952 	0.227929
0.00469858 	7.77512e-05 	-0.00037019 	0.228787
0.00469858 	9.67083e-05 	-0.000332969 	0.225531
0.00479094 	7.66466e-05 	-0.000355363 	0.226331
0.00479094 	9.5455e-05 	-0.000317287 	0.223026
0.00488168 	7.55467e-05 	-0.000339857 	0.223768
0.00488168 	9.4164e-05 	-0.00030097 	0.220412
0.00497081 	7.44488e-05 	-0.000323719 	0.221094
0.00497081 	9.28311e-05 	-0.000284093 	0.217683
0.00505838 	7.33499e-05 	-0.000307009 	0.218306
0.00505838 	9.1452e-05 	-0.000266744 	0.214836
0.0051444 	7.2247e-05 	-0.000289807 	0.215398
0.0051444 	9.00229e-05 	-0.000249027 	0.211868
0.00522891 	7.11374e-05 	-0.000272208 	0.212369
0.00522891 	8.85399e-05 	-0.000231064 	0.208776
0.00531193 	7.00178e-05 	-0.000254323 	0.209214
0.00531193 	8.69996e-05 	-0.000212993 	0.205559
0.00539348 	6.88852e-05 	-0.00023628 	0.205931
0.00539348 	8.53989e-05 	-0.000194966 	0.202214
0.0054736 	6.77363e-05 	-0.000218215 	0.202517
0.0054736 	8.37348e-05 	-0.000177141 	0.19874
0.00555231 	6.65677e-05 	-0.000200269 	0.198969
0.00555231 	8.20045e-05 	-0.000159674 	0.195136
0.00562963 	6.53756e-05 	-0.000182583 	0.195282
0.00562963 	8.02051e-05 	-0.000142719 	0.1914
0.00570559 	6.41562e-05 	-0.000165297 	0.191454
0.00570559 	7.83335e-05 	-0.000126414 	0.187529
0.00578022 	6.29055e-05 	-0.000148538 	0.187479
0.00578022 	7.63867e-05 	-0.000110886 	0.18352
0.00585352 	6.16191e-05 	-0.000132426 	0.183352
0.00585352 	7.43614e-05 	-9.62403e-05 	0.179369
0.00592554 	6.02924e-05 	-0.000117062 	0.179068
0.00592554 	7.22542e-05 	-8.25603e-05 	0.175072
0.00599629 	5.89205e-05 	-0.000102534 	0.17462
0.00599629 	7.00613e-05 	-6.99089e-05 	0.170622
0.00606579 	5.74978e-05 	-8.89182e-05 	0.169998
0.00606579 	6.77787e-05 	-5.83295e-05 	0.16601
0.00613406 	5.60173e-05 	-7.62766e-05 	0.16519
0.00613406 	6.54009e-05 	-4.78462e-05 	0.161225
0.00620114 	6.29212e-05 	-3.84649e-05 	0.156248
0.00620114 	5.44714e-05 	-6.46548e-05 	0.160179
0.00626703 	5.28529e-05 	-5.40924e-05 	0.154951
0.00626703 	6.03351e-05 	-3.01854e-05 	0.151066
0.00633176 	5.764e-05 	-2.29933e-05 	0.145668
0.00633176 	5.11554e-05 	-4.46158e-05 	0.149493
0.00639535 	5.48343e-05 	-1.68522e-05 	0.14004
0.00639535 	4.93723e-05 	-3.62277e-05 	0.143792
0.00645783 	4.74962e-05 	-2.89121e-05 	0.137833
0.00645783 	5.19169e-05 	-1.1711e-05 	0.134168
0.0065192 	4.55198e-05 	-2.26374e-05 	0.1316
0.0065192 	4.88885e-05 	-7.50508e-06 	0.128035
0.00657949 	4.34359e-05 	-1.7359e-05 	0.125081
0.00657949 	4.57519e-05 	-4.15989e-06 	0.121629
0.00663871 	4.12373e-05 	-1.30195e-05 	0.118261
0.00663871 	4.25121e-05 	-1.59564e-06 	0.114934
0.0066969 	3.89137e-05 	-9.53088e-06 	0.11112
0.0066969 	3.9172e-05 	2.80824e-07 	0.107926
0.00675406 	3.5732e-05 	1.5689e-06 	0.100568
0.00675406 	3.64513e-05 	-6.78998e-06 	0.103624
0.00681021 	3.2203e-05 	2.36618e-06 	0.0928503
0.00681021 	3.38415e-05 	-4.68983e-06 	0.0957536
0.00686537 	2.86182e-05 	2.7684e-06 	0.0848039
0.00686537 	3.10913e-05 	-3.12957e-06 	0.087533
0.00691956 	2.50311e-05 	2.86592e-06 	0.0765049
0.00691956 	2.82247e-05 	-2.02244e-06 	0.0790353
0.0069728 	2.15115e-05 	2.74466e-06 	0.0680735
0.0069728 	2.52832e-05 	-1.27763e-06 	0.0703809
0.0070251 	2.23244e-05 	-8.04389e-07 	0.0617324
0.0070251 	1.81402e-05 	2.48296e-06 	0.0596675
0.00707647 	1.94147e-05 	-5.18278e-07 	0.0532741
0.00707647 	1.49961e-05 	2.14753e-06 	0.0514624
0.00712695 	1.66166e-05 	-3.49461e-07 	0.0451795
0.00712695 	1.21419e-05 	1.78869e-06 	0.0436212
0.00717653 	1.39761e-05 	-2.47453e-07 	0.0375803
0.00717653 	9.61265e-06 	1.43921e-06 	0.036266
0.00722524 	1.15153e-05 	-1.81133e-07 	0.0305504
0.00722524 	7.4139e-06 	1.11661e-06 	0.0294652
0.00727309 	5.52728e-06 	8.27938e-07 	0.0232395
0.00727309 	9.23373e-06 	-1.3459e-07 	0.0241127
0.0073201 	3.91838e-06 	5.78271e-07 	0.0175786
0.0073201 	7.10995e-06 	-9.68891e-08 	0.0182562
0.00736628 	2.53846e-06 	3.52077e-07 	0.0124559
0.00736628 	5.09862e-06 	-7.73947e-08 	0.0129529
0.00741165 	3.18042e-06 	-4.47451e-08 	0.00816838
0.00741165 	1.37947e-06 	1.87824e-07 	0.00783832
0.00745622 	1.44384e-06 	-1.90641e-08 	0.00386718
0.00745622 	5.20313e-07 	6.97539e-08 	0.00369156
0.0075 	0 	0 	0
0.0075 	0 	0 	0
