/*--------------------------------*- C++ -*----------------------------------*\
| =========                 |                                                 |
| \\      /  F ield         | OpenFOAM: The Open Source CFD Toolbox           |
|  \\    /   O peration     | Version:  v1906                                 |
|   \\  /    A nd           | Web:      www.OpenFOAM.com                      |
|    \\/     M anipulation  |                                                 |
\*---------------------------------------------------------------------------*/
FoamFile
{
    version     2.0;
    format      ascii;
    class       volScalarField;
    location    "96.8";
    object      nut;
}
// * * * * * * * * * * * * * * * * * * * * * * * * * * * * * * * * * * * * * //

dimensions      [0 2 -1 0 0 0 0];


internalField   nonuniform List<scalar> 
634
(
7.94649e-06
9.65145e-06
1.19358e-05
1.47916e-05
8.03717e-06
1.04171e-05
1.20169e-05
1.49573e-05
8.11047e-06
1.03906e-05
1.2069e-05
1.50975e-05
8.16588e-06
1.03424e-05
1.20922e-05
1.52106e-05
8.20458e-06
1.02764e-05
1.2088e-05
1.52953e-05
8.22813e-06
1.01954e-05
1.20598e-05
1.53509e-05
8.23848e-06
1.01017e-05
1.20116e-05
1.5378e-05
8.23759e-06
9.9972e-06
1.1947e-05
1.53748e-05
8.22726e-06
9.88344e-06
1.18693e-05
1.53393e-05
8.20898e-06
9.7615e-06
1.17807e-05
1.52696e-05
8.18441e-06
9.63228e-06
1.16829e-05
1.51643e-05
8.15602e-06
9.49649e-06
1.1577e-05
1.50241e-05
8.1242e-06
9.35495e-06
1.1464e-05
1.48526e-05
8.08987e-06
9.20778e-06
1.13441e-05
1.46592e-05
8.05358e-06
9.05508e-06
1.12175e-05
1.44505e-05
8.01554e-06
8.89692e-06
1.10843e-05
1.42313e-05
7.97565e-06
8.73342e-06
1.09449e-05
1.40048e-05
7.93362e-06
8.56472e-06
1.07992e-05
1.37735e-05
7.88902e-06
8.391e-06
1.06475e-05
1.35388e-05
7.84133e-06
8.2125e-06
1.04897e-05
1.33011e-05
7.79e-06
8.02949e-06
1.03261e-05
1.30597e-05
7.73443e-06
7.84229e-06
1.01567e-05
1.28131e-05
7.67403e-06
7.65124e-06
9.98163e-06
1.25589e-05
7.60823e-06
7.45672e-06
9.80066e-06
1.22953e-05
7.53649e-06
7.25914e-06
9.61361e-06
1.2025e-05
7.45834e-06
7.05882e-06
9.42021e-06
1.17501e-05
7.37338e-06
6.85585e-06
9.22029e-06
1.14724e-05
7.28125e-06
6.65035e-06
9.01371e-06
1.11936e-05
7.1817e-06
6.44253e-06
8.80046e-06
1.0915e-05
7.07449e-06
6.23267e-06
8.5806e-06
1.06374e-05
6.94759e-06
6.02114e-06
8.35428e-06
1.03615e-05
6.6742e-06
5.80832e-06
8.12172e-06
1.00871e-05
6.48344e-06
5.57853e-06
7.88326e-06
9.8142e-06
6.39286e-06
5.28997e-06
7.6393e-06
9.5424e-06
6.34099e-06
4.98329e-06
7.35916e-06
9.27032e-06
6.25455e-06
4.68032e-06
7.04586e-06
8.99744e-06
6.10767e-06
4.40007e-06
6.71409e-06
8.72523e-06
5.92739e-06
4.15044e-06
6.37528e-06
8.4535e-06
5.72582e-06
3.92924e-06
6.04004e-06
8.13753e-06
5.51451e-06
3.72892e-06
5.71477e-06
7.73628e-06
5.29683e-06
3.5411e-06
5.40213e-06
7.33427e-06
5.07429e-06
3.35941e-06
5.10247e-06
6.96065e-06
4.84812e-06
3.18056e-06
4.81514e-06
6.62153e-06
4.6196e-06
3.00408e-06
4.5392e-06
6.30904e-06
4.38992e-06
2.83113e-06
4.27372e-06
6.01226e-06
4.16026e-06
2.66311e-06
4.01788e-06
5.72253e-06
3.93188e-06
2.50033e-06
3.77098e-06
5.43499e-06
3.70604e-06
2.3413e-06
3.53247e-06
5.14823e-06
3.48393e-06
2.18235e-06
3.3019e-06
4.86286e-06
3.26652e-06
2.01087e-06
3.07893e-06
4.58003e-06
3.05455e-06
1.8351e-06
2.86317e-06
4.30057e-06
2.8485e-06
1.67143e-06
2.65396e-06
4.02482e-06
2.64845e-06
1.51995e-06
2.44989e-06
3.75285e-06
2.45393e-06
1.37847e-06
2.24686e-06
3.4847e-06
2.2634e-06
1.24534e-06
2.04142e-06
3.22053e-06
2.07085e-06
1.11952e-06
1.84463e-06
2.96056e-06
1.88306e-06
1.00034e-06
1.6575e-06
2.70499e-06
1.70281e-06
8.87428e-07
1.47932e-06
2.45328e-06
1.52985e-06
7.8059e-07
1.30952e-06
2.206e-06
1.36376e-06
6.79765e-07
1.14795e-06
1.96586e-06
1.20442e-06
5.84927e-07
9.94777e-07
1.73389e-06
1.05199e-06
4.9582e-07
8.5032e-07
1.511e-06
9.06856e-07
4.07624e-07
7.14935e-07
1.29824e-06
7.69499e-07
3.18447e-07
5.88231e-07
1.09669e-06
6.40079e-07
2.39562e-07
4.60655e-07
9.07071e-07
5.17542e-07
1.72498e-07
3.37482e-07
7.29004e-07
3.88232e-07
1.18162e-07
2.33331e-07
5.48073e-07
2.75143e-07
7.65445e-08
1.50674e-07
3.84309e-07
1.81909e-07
4.66382e-08
8.99842e-08
2.48977e-07
1.10714e-07
2.65901e-08
4.92757e-08
1.46198e-07
6.12622e-08
1.41029e-08
2.45455e-08
7.6339e-08
3.0491e-08
6.90093e-09
1.10078e-08
3.4853e-08
1.35075e-08
3.07454e-09
4.3665e-09
1.3688e-08
5.24459e-09
1.22059e-09
1.48379e-09
4.51251e-09
1.734e-09
4.16814e-10
4.07979e-10
1.18947e-09
4.62284e-10
1.15386e-10
8.18516e-11
2.27275e-10
8.97318e-11
2.3333e-11
9.93676e-12
2.59703e-11
1.04927e-11
2.87325e-12
7.50392e-13
1.57698e-12
7.27698e-13
2.42275e-13
3.81624e-13
6.00756e-13
3.4272e-13
1.39772e-13
2.84326e-06
2.96222e-06
8.35261e-06
5.90673e-06
2.74352e-06
3.26222e-06
8.42762e-06
6.07585e-06
2.69542e-06
3.55077e-06
8.50441e-06
6.26612e-06
2.70675e-06
3.82504e-06
8.58014e-06
6.46893e-06
2.77751e-06
4.08353e-06
8.6526e-06
6.6767e-06
2.90004e-06
4.32572e-06
8.72005e-06
6.88315e-06
3.06229e-06
4.55177e-06
8.78108e-06
7.08329e-06
3.25133e-06
4.76243e-06
8.83308e-06
7.27328e-06
3.45572e-06
4.95907e-06
8.87683e-06
7.45027e-06
3.66631e-06
5.14037e-06
8.91297e-06
7.61242e-06
3.8765e-06
5.30169e-06
8.94014e-06
7.75844e-06
4.08168e-06
5.44338e-06
8.95854e-06
7.88738e-06
4.2787e-06
5.56565e-06
8.96727e-06
7.99867e-06
4.46537e-06
5.66868e-06
8.96566e-06
8.09209e-06
4.64014e-06
5.7528e-06
8.95345e-06
8.16762e-06
4.80179e-06
5.81852e-06
8.9313e-06
8.22543e-06
4.94924e-06
5.86665e-06
8.89988e-06
8.26583e-06
5.08137e-06
5.8982e-06
8.85941e-06
8.28923e-06
5.19688e-06
5.91444e-06
8.81009e-06
8.29614e-06
5.29505e-06
5.91665e-06
8.75213e-06
8.2871e-06
5.37657e-06
5.90552e-06
8.68569e-06
8.26272e-06
5.44225e-06
5.88195e-06
8.61091e-06
8.22363e-06
5.49296e-06
5.84689e-06
8.5279e-06
8.17049e-06
5.52981e-06
5.80069e-06
8.43677e-06
8.10397e-06
5.55363e-06
5.74362e-06
8.33757e-06
8.02477e-06
5.56476e-06
5.67657e-06
8.23034e-06
7.93356e-06
5.56339e-06
5.6004e-06
8.11509e-06
7.83101e-06
5.54979e-06
5.51595e-06
7.99181e-06
7.71778e-06
5.52436e-06
5.42401e-06
7.86049e-06
7.59453e-06
5.48752e-06
5.32528e-06
7.72109e-06
7.46203e-06
5.43906e-06
5.2204e-06
7.5736e-06
7.31923e-06
5.37823e-06
5.10994e-06
7.3813e-06
7.16576e-06
5.30426e-06
4.99441e-06
7.14245e-06
7.00167e-06
5.21689e-06
4.87427e-06
6.8907e-06
6.82698e-06
5.11628e-06
4.7499e-06
6.64163e-06
6.64084e-06
5.00301e-06
4.62161e-06
6.39894e-06
6.4438e-06
4.87835e-06
4.48967e-06
6.16377e-06
6.23737e-06
4.74342e-06
4.35427e-06
5.93521e-06
6.02295e-06
4.59927e-06
4.21558e-06
5.71138e-06
5.80178e-06
4.4469e-06
4.07372e-06
5.49039e-06
5.57491e-06
4.28725e-06
3.92881e-06
5.27067e-06
5.34333e-06
4.12124e-06
3.78096e-06
5.05111e-06
5.10789e-06
3.94974e-06
3.63034e-06
4.83101e-06
4.86946e-06
3.77362e-06
3.47716e-06
4.60998e-06
4.62889e-06
3.59372e-06
3.31035e-06
4.38791e-06
4.38696e-06
3.41088e-06
3.12791e-06
4.16489e-06
4.14449e-06
3.2259e-06
2.93471e-06
3.94118e-06
3.90225e-06
3.03958e-06
2.73459e-06
3.71721e-06
3.661e-06
2.85268e-06
2.54057e-06
3.49353e-06
3.42147e-06
2.66594e-06
2.36258e-06
3.27076e-06
3.18438e-06
2.48006e-06
2.19354e-06
3.0497e-06
2.94764e-06
2.29546e-06
2.02671e-06
2.83109e-06
2.68898e-06
2.1097e-06
1.86436e-06
2.61487e-06
2.43068e-06
1.90916e-06
1.7072e-06
2.39801e-06
2.18179e-06
1.71636e-06
1.55561e-06
2.18288e-06
1.94968e-06
1.53399e-06
1.40961e-06
1.97473e-06
1.73461e-06
1.36249e-06
1.269e-06
1.77441e-06
1.53448e-06
1.20148e-06
1.13365e-06
1.58218e-06
1.34784e-06
1.05056e-06
1.00367e-06
1.39827e-06
1.17392e-06
9.09472e-07
8.79379e-07
1.2231e-06
1.01229e-06
7.78153e-07
7.61209e-07
1.05719e-06
8.62606e-07
6.56572e-07
6.49481e-07
9.01258e-07
7.24539e-07
5.43501e-07
5.44579e-07
7.5584e-07
5.97114e-07
4.28504e-07
4.46572e-07
6.18211e-07
4.71689e-07
3.25031e-07
3.4667e-07
4.76412e-07
3.54459e-07
2.35177e-07
2.54465e-07
3.50574e-07
2.54063e-07
1.60765e-07
1.76687e-07
2.4379e-07
1.72122e-07
1.02764e-07
1.14848e-07
1.58346e-07
1.09185e-07
6.07995e-08
6.915e-08
9.4866e-08
6.42686e-08
3.29771e-08
3.81764e-08
5.17577e-08
3.4812e-08
1.62445e-08
1.9132e-08
2.53783e-08
1.72066e-08
7.18421e-09
8.59994e-09
1.1014e-08
7.67389e-09
2.80145e-09
3.40483e-09
4.14409e-09
3.03137e-09
9.33565e-10
1.15098e-09
1.31064e-09
1.02707e-09
2.51672e-10
3.14532e-10
3.31471e-10
2.82246e-10
4.98275e-11
6.30592e-11
6.14867e-11
5.70483e-11
6.29131e-12
8.01368e-12
7.30447e-12
7.34062e-12
8.35186e-13
1.00588e-12
9.03543e-13
9.56493e-13
6.2808e-13
7.1838e-13
8.23765e-13
6.98527e-13
)
;

boundaryField
{
    leftWall
    {
        type            nutUWallFunction;
        Cmu             0.09;
        kappa           0.41;
        E               9.8;
        value           nonuniform 0();
    }
    rightWall
    {
        type            nutUWallFunction;
        Cmu             0.09;
        kappa           0.41;
        E               9.8;
        value           uniform 0;
    }
    leftSides_periodic0
    {
        type            cyclic;
    }
    leftSides_periodic1
    {
        type            cyclic;
    }
    rightSides_periodic0
    {
        type            cyclic;
    }
    rightSides_periodic1
    {
        type            cyclic;
    }
    leftInOut_periodic0
    {
        type            cyclic;
    }
    leftInOut_periodic1
    {
        type            cyclic;
    }
    rightInOut_periodic0
    {
        type            cyclic;
    }
    rightInOut_periodic1
    {
        type            cyclic;
    }
    procBoundary1to0
    {
        type            processor;
        value           nonuniform List<scalar> 
11
(
7.84278e-06
9.47697e-06
1.18417e-05
1.46212e-05
1.46212e-05
8.28445e-06
5.77154e-06
2.98017e-06
2.66036e-06
8.28445e-06
5.77154e-06
)
;
    }
    procBoundary1to0throughleftInOut_periodic0
    {
        type            processorCyclic;
        value           uniform 1.18417e-05;
    }
    procBoundary1to2throughleftSides_periodic0
    {
        type            processorCyclic;
        value           nonuniform List<scalar> 2(9.08374e-06 7.49152e-06);
    }
    procBoundary1to2throughrightSides_periodic0
    {
        type            processorCyclic;
        value           nonuniform List<scalar> 2(7.2456e-06 3.57669e-06);
    }
    procBoundary1to3
    {
        type            processor;
        value           nonuniform List<scalar> 
316
(
1.40723e-05
1.29013e-05
1.10081e-05
1.16573e-05
1.41859e-05
1.30085e-05
1.10727e-05
1.1569e-05
1.42515e-05
1.30958e-05
1.11172e-05
1.14626e-05
1.42728e-05
1.31641e-05
1.1142e-05
1.13412e-05
1.42537e-05
1.32139e-05
1.11482e-05
1.12089e-05
1.4198e-05
1.32452e-05
1.11367e-05
1.10684e-05
1.41098e-05
1.32584e-05
1.1109e-05
1.09212e-05
1.39932e-05
1.32595e-05
1.10705e-05
1.07689e-05
1.3852e-05
1.32456e-05
1.10227e-05
1.06131e-05
1.369e-05
1.32198e-05
1.09662e-05
1.04552e-05
1.35101e-05
1.31907e-05
1.09031e-05
1.02962e-05
1.33154e-05
1.31583e-05
1.08354e-05
1.01368e-05
1.31081e-05
1.31203e-05
1.07635e-05
9.97761e-06
1.28908e-05
1.30745e-05
1.06874e-05
9.81928e-06
1.26655e-05
1.3018e-05
1.06078e-05
9.66145e-06
1.2434e-05
1.29486e-05
1.05252e-05
9.50371e-06
1.21974e-05
1.28649e-05
1.04399e-05
9.34558e-06
1.19566e-05
1.2766e-05
1.03518e-05
9.1866e-06
1.1713e-05
1.26513e-05
1.0261e-05
9.02627e-06
1.14691e-05
1.25203e-05
1.01673e-05
8.86415e-06
1.05949e-05
1.2374e-05
1.00704e-05
8.6998e-06
8.78626e-06
1.22137e-05
9.97003e-06
8.53289e-06
7.81067e-06
1.20409e-05
9.86579e-06
8.36316e-06
8.04898e-06
1.1857e-05
9.75725e-06
8.19041e-06
9.09376e-06
1.16638e-05
9.64395e-06
8.01565e-06
9.77977e-06
1.1463e-05
9.52547e-06
7.83918e-06
9.82758e-06
1.12566e-05
9.40137e-06
7.66047e-06
9.61369e-06
1.10456e-05
9.27122e-06
7.47911e-06
9.39197e-06
1.08306e-05
9.13458e-06
7.29477e-06
9.16194e-06
1.06114e-05
8.991e-06
7.10715e-06
8.92344e-06
1.03877e-05
8.84002e-06
6.91738e-06
8.65361e-06
1.01593e-05
8.68123e-06
6.72615e-06
8.37926e-06
9.92664e-06
8.51424e-06
6.53367e-06
8.10875e-06
9.69019e-06
8.33871e-06
6.34014e-06
7.84393e-06
9.45102e-06
8.15443e-06
6.14499e-06
7.58248e-06
9.21053e-06
7.96125e-06
5.94687e-06
7.32214e-06
8.9698e-06
7.75918e-06
5.74607e-06
7.06302e-06
8.72887e-06
7.54833e-06
5.54361e-06
6.80452e-06
8.48667e-06
7.32897e-06
5.34023e-06
6.54569e-06
8.24167e-06
7.10149e-06
5.13581e-06
6.2868e-06
7.99253e-06
6.86625e-06
4.93015e-06
6.02849e-06
7.73833e-06
6.62354e-06
4.72336e-06
5.77096e-06
7.47859e-06
6.37406e-06
4.51543e-06
5.51395e-06
7.21314e-06
6.11875e-06
4.30634e-06
5.25694e-06
6.94212e-06
5.85856e-06
4.09609e-06
4.99943e-06
6.66591e-06
5.59439e-06
3.88472e-06
4.7411e-06
6.38504e-06
5.32717e-06
3.67235e-06
4.48182e-06
6.10012e-06
5.05715e-06
3.45916e-06
4.22162e-06
5.81172e-06
4.7843e-06
3.24543e-06
3.96074e-06
5.52032e-06
4.50953e-06
3.03145e-06
3.69962e-06
5.22583e-06
4.21899e-06
2.8177e-06
3.4388e-06
4.92736e-06
3.91263e-06
2.60468e-06
3.17885e-06
4.62473e-06
3.60716e-06
2.39299e-06
2.91987e-06
4.31815e-06
3.31055e-06
2.1833e-06
2.66269e-06
3.99435e-06
3.02387e-06
1.97635e-06
2.41027e-06
3.63849e-06
2.74672e-06
1.77306e-06
2.16414e-06
3.29831e-06
2.47759e-06
1.57443e-06
1.92558e-06
2.97528e-06
2.21743e-06
1.38156e-06
1.69588e-06
2.6673e-06
1.96803e-06
1.19564e-06
1.47627e-06
2.37294e-06
1.73008e-06
1.01799e-06
1.26785e-06
2.09147e-06
1.50413e-06
8.50094e-07
1.06865e-06
1.82291e-06
1.29085e-06
6.93647e-07
8.73567e-07
1.56782e-06
1.09098e-06
5.50462e-07
6.93425e-07
1.32714e-06
9.05228e-07
4.22497e-07
5.30996e-07
1.10199e-06
7.33e-07
3.11611e-07
3.8911e-07
8.9344e-07
5.63313e-07
2.19239e-07
2.7027e-07
6.85087e-07
4.08527e-07
1.45994e-07
1.76046e-07
4.9474e-07
2.77968e-07
9.12848e-08
1.06341e-07
3.31786e-07
1.74905e-07
5.31771e-08
5.89179e-08
2.02203e-07
1.00333e-07
2.86366e-08
2.96219e-08
1.09326e-07
5.18568e-08
1.41279e-08
1.33511e-08
5.12195e-08
2.39372e-08
6.30513e-09
5.29916e-09
2.03618e-08
9.76637e-09
2.49494e-09
1.79619e-09
6.70567e-09
3.44029e-09
8.46649e-10
4.92178e-10
1.75057e-09
9.90575e-10
2.32839e-10
9.87752e-11
3.30246e-10
2.08264e-10
4.70299e-11
1.23888e-11
3.75343e-11
2.62229e-11
6.00908e-12
1.35541e-12
2.64377e-12
2.22882e-12
7.42059e-13
8.87218e-13
1.33198e-12
1.04816e-12
5.29262e-13
)
;
    }
    procBoundary1to3throughrightSides_periodic0
    {
        type            processorCyclic;
        value           nonuniform List<scalar> 
314
(
7.30911e-06
7.37895e-06
7.4451e-06
7.50484e-06
7.55589e-06
7.59644e-06
7.62518e-06
7.64123e-06
7.64412e-06
7.63366e-06
7.61021e-06
7.57479e-06
7.45523e-06
7.32505e-06
7.18949e-06
7.05023e-06
6.92424e-06
6.81769e-06
6.71591e-06
6.58837e-06
6.40711e-06
6.17273e-06
5.92411e-06
5.71321e-06
5.56599e-06
5.46975e-06
5.39419e-06
5.31539e-06
5.22416e-06
5.11994e-06
5.00432e-06
4.87983e-06
4.74943e-06
4.61581e-06
4.4805e-06
4.34366e-06
4.20497e-06
4.06415e-06
3.92118e-06
3.77621e-06
3.62949e-06
3.48138e-06
3.33237e-06
3.18294e-06
3.03349e-06
2.88433e-06
2.73569e-06
2.5876e-06
2.43967e-06
2.29114e-06
2.13988e-06
1.97525e-06
1.81444e-06
1.6595e-06
1.50941e-06
1.36331e-06
1.22096e-06
1.0826e-06
9.48572e-07
8.19395e-07
6.94603e-07
5.62718e-07
4.36393e-07
3.23955e-07
2.28305e-07
1.51431e-07
9.37534e-08
5.37874e-08
2.84128e-08
1.37217e-08
5.99273e-09
2.32191e-09
7.7181e-10
2.07619e-10
4.06862e-11
4.75733e-12
2.69492e-13
7.9678e-14
3.359e-06
3.18791e-06
3.07224e-06
3.02037e-06
3.035e-06
3.11118e-06
2.9639e-06
2.72533e-06
2.58844e-06
2.58956e-06
2.73031e-06
3.02494e-06
3.47614e-06
3.99776e-06
4.40346e-06
4.61909e-06
4.8442e-06
5.2585e-06
5.75385e-06
6.1301e-06
6.44001e-06
6.54123e-06
6.37029e-06
5.44073e-06
4.57082e-06
4.2548e-06
4.58444e-06
5.3789e-06
6.16194e-06
6.63984e-06
6.6271e-06
6.52344e-06
5.82444e-06
4.83589e-06
4.16921e-06
3.99481e-06
4.25917e-06
4.75505e-06
5.14882e-06
5.27821e-06
5.21347e-06
5.02641e-06
4.78409e-06
4.44635e-06
4.07628e-06
3.74536e-06
3.48979e-06
3.29913e-06
3.14031e-06
2.98157e-06
2.80646e-06
2.61467e-06
2.41268e-06
2.20738e-06
2.00793e-06
1.816e-06
1.63101e-06
1.45225e-06
1.27965e-06
1.11367e-06
9.55402e-07
8.05901e-07
6.47341e-07
4.98092e-07
3.65213e-07
2.52533e-07
1.62837e-07
9.68416e-08
5.26e-08
2.58663e-08
1.14002e-08
4.42877e-09
1.47046e-09
3.94404e-10
7.70413e-11
9.02364e-12
5.7565e-13
2.34243e-13
9.15563e-06
9.25008e-06
9.3529e-06
9.458e-06
9.56019e-06
9.65508e-06
9.73908e-06
9.80866e-06
9.86463e-06
9.45117e-06
8.75374e-06
8.2876e-06
8.19123e-06
8.35619e-06
8.58303e-06
8.72158e-06
8.73638e-06
8.67418e-06
8.58972e-06
8.50632e-06
8.42e-06
8.31869e-06
8.19573e-06
8.05296e-06
7.89798e-06
7.74002e-06
7.58692e-06
7.44405e-06
7.31464e-06
7.20001e-06
7.09984e-06
7.01188e-06
6.93106e-06
6.84974e-06
6.7596e-06
6.65398e-06
6.52908e-06
6.384e-06
6.21991e-06
6.03892e-06
5.84331e-06
5.63535e-06
5.41723e-06
5.191e-06
4.95851e-06
4.72141e-06
4.4812e-06
4.23921e-06
3.99666e-06
3.7546e-06
3.51389e-06
3.27513e-06
3.03872e-06
2.80471e-06
2.57167e-06
2.34254e-06
2.11894e-06
1.90162e-06
1.69126e-06
1.48871e-06
1.29485e-06
1.11061e-06
9.36372e-07
7.71747e-07
6.01649e-07
4.48583e-07
3.16773e-07
2.0935e-07
1.27861e-07
7.12912e-08
3.58828e-08
1.6115e-08
6.35085e-09
2.13195e-09
5.77039e-10
1.13671e-10
1.34497e-11
8.8858e-13
3.74928e-13
7.78356e-06
8.03719e-06
8.00498e-06
8.0544e-06
8.11412e-06
8.15498e-06
8.17904e-06
8.18458e-06
8.17419e-06
8.15358e-06
8.12659e-06
8.09218e-06
8.04646e-06
7.98613e-06
7.91047e-06
7.82161e-06
7.72453e-06
7.62728e-06
7.53932e-06
7.4658e-06
7.39947e-06
7.31616e-06
7.18217e-06
6.97432e-06
6.70007e-06
6.39903e-06
6.12326e-06
5.91377e-06
5.78821e-06
5.73989e-06
5.74127e-06
5.7506e-06
5.72434e-06
5.63446e-06
5.48029e-06
5.28475e-06
5.07767e-06
4.88054e-06
4.70113e-06
4.53657e-06
4.37921e-06
4.22167e-06
4.05942e-06
3.89112e-06
3.71762e-06
3.54061e-06
3.3617e-06
3.18208e-06
3.0025e-06
2.82345e-06
2.64502e-06
2.46567e-06
2.2802e-06
2.09743e-06
1.91891e-06
1.7447e-06
1.57466e-06
1.40893e-06
1.24798e-06
1.09258e-06
9.43543e-07
7.90429e-07
6.35604e-07
4.93152e-07
3.66505e-07
2.58791e-07
1.7216e-07
1.07041e-07
6.17633e-08
3.28637e-08
1.60101e-08
7.06299e-09
2.76782e-09
9.3159e-10
2.53991e-10
5.04867e-11
5.99394e-12
3.49706e-13
1.0978e-13
)
;
    }
}


// ************************************************************************* //
