/*--------------------------------*- C++ -*----------------------------------*\
| =========                 |                                                 |
| \\      /  F ield         | OpenFOAM: The Open Source CFD Toolbox           |
|  \\    /   O peration     | Version:  v1906                                 |
|   \\  /    A nd           | Web:      www.OpenFOAM.com                      |
|    \\/     M anipulation  |                                                 |
\*---------------------------------------------------------------------------*/
FoamFile
{
    version     2.0;
    format      ascii;
    class       volScalarField;
    location    "96.8";
    object      p_rgh;
}
// * * * * * * * * * * * * * * * * * * * * * * * * * * * * * * * * * * * * * //

dimensions      [1 -1 -2 0 0 0 0];


internalField   nonuniform List<scalar> 
634
(
100001
100009
100001
100003
100001
100009
100001
100003
100001
100009
100001
100003
100001
100009
100001
100002
100001
100009
100002
100002
100001
100009
100002
100001
100001
100009
100002
100001
100001
100009
100002
100000
100001
100008
100002
99999.6
100001
100008
100002
99999
100001
100008
100003
99998.4
100002
100008
100003
99997.8
100002
100008
100003
99997.2
100002
100007
100003
99996.5
100002
100007
100004
99995.9
100002
100007
100004
99995.2
100002
100007
100004
99994.6
100003
100007
100005
99993.9
100003
100006
100005
99993.2
100003
100006
100005
99992.5
100003
100006
100005
99991.8
100004
100006
100006
99991.1
100004
100005
100006
99990.4
100004
100005
100006
99989.8
100004
100005
100007
99989.1
100005
100005
100007
99988.4
100005
100005
100008
99987.7
100005
100004
100008
99987
100005
100004
100008
99986.4
100006
100004
100009
99985.7
100006
100004
100009
99985
100006
100004
100009
99984.4
100006
100003
100010
99983.8
100007
100003
100010
99983.2
100007
100003
100010
99982.6
100007
100003
100011
99982
100008
100003
100011
99981.4
100008
100002
100011
99980.9
100008
100002
100011
99980.3
100008
100002
100012
99979.8
100009
100002
100012
99979.3
100009
100002
100012
99978.8
100009
100002
100012
99978.4
100009
100002
100013
99977.9
100009
100001
100013
99977.5
100010
100001
100013
99977.1
100010
100001
100013
99976.8
100010
100001
100013
99976.4
100010
100001
100014
99976.1
100010
100001
100014
99975.8
100010
100001
100014
99975.5
100011
100001
100014
99975.2
100011
100001
100014
99975
100011
100001
100014
99974.7
100011
100001
100014
99974.5
100011
100001
100015
99974.3
100011
100001
100015
99974.1
100011
100001
100015
99974
100011
100001
100015
99973.8
100012
100001
100015
99973.7
100012
100001
100015
99973.6
100012
100001
100015
99973.5
100012
100001
100015
99973.4
100012
100001
100015
99973.4
100012
100001
100015
99973.3
100012
100001
100016
99973.3
100012
100001
100016
99973.3
100012
100001
100016
99973.3
100012
100001
100016
99973.4
100012
100001
100016
99973.5
100013
100001
100016
99973.6
100013
100002
100017
99973.8
100013
100002
100017
99974.2
100014
100002
100017
99974.5
100014
100002
100018
99974.9
100014
100002
100018
99975.3
100015
100003
100018
99975.7
100015
100003
100018
99976
100015
100003
100019
99976.4
100016
100003
99930.3
99928.5
99931.2
99932.1
99930.3
99928.5
99931.3
99932.1
99930.4
99928.5
99931.4
99932.1
99930.5
99928.6
99931.5
99932.1
99930.5
99928.6
99931.6
99932.1
99930.6
99928.7
99931.7
99932.1
99930.7
99928.7
99931.8
99932.1
99930.7
99928.7
99931.9
99932
99930.8
99928.8
99932
99932
99930.8
99928.8
99932.1
99932
99930.9
99928.9
99932.2
99932
99931
99928.9
99932.3
99932
99931
99929
99932.4
99932
99931.1
99929.1
99932.5
99931.9
99931.1
99929.1
99932.6
99931.9
99931.2
99929.2
99932.7
99931.9
99931.3
99929.3
99932.8
99931.9
99931.3
99929.3
99932.9
99931.9
99931.4
99929.4
99933
99931.8
99931.4
99929.5
99933.1
99931.8
99931.5
99929.5
99933.1
99931.8
99931.6
99929.6
99933.2
99931.8
99931.6
99929.7
99933.3
99931.7
99931.7
99929.8
99933.4
99931.7
99931.7
99929.9
99933.5
99931.7
99931.8
99929.9
99933.6
99931.7
99931.8
99930
99933.6
99931.7
99931.9
99930.1
99933.7
99931.6
99931.9
99930.2
99933.8
99931.6
99932
99930.3
99933.9
99931.6
99932
99930.4
99933.9
99931.6
99932.1
99930.5
99934
99931.6
99932.1
99930.5
99934.1
99931.6
99932.2
99930.6
99934.1
99931.5
99932.2
99930.7
99934.2
99931.5
99932.3
99930.8
99934.2
99931.5
99932.3
99930.9
99934.3
99931.5
99932.4
99931
99934.4
99931.5
99932.4
99931.1
99934.4
99931.5
99932.5
99931.1
99934.5
99931.5
99932.5
99931.2
99934.5
99931.5
99932.5
99931.3
99934.6
99931.4
99932.6
99931.4
99934.6
99931.4
99932.6
99931.5
99934.7
99931.4
99932.6
99931.6
99934.7
99931.4
99932.7
99931.6
99934.8
99931.4
99932.7
99931.7
99934.8
99931.4
99932.8
99931.8
99934.9
99931.4
99932.8
99931.9
99934.9
99931.4
99932.8
99931.9
99935
99931.5
99932.9
99932
99935
99931.5
99932.9
99932.1
99935.1
99931.5
99932.9
99932.2
99935.1
99931.5
99933
99932.3
99935.2
99931.5
99933
99932.3
99935.2
99931.5
99933.1
99932.4
99935.3
99931.6
99933.1
99932.5
99935.4
99931.6
99933.2
99932.6
99935.4
99931.6
99933.2
99932.7
99935.5
99931.7
99933.3
99932.8
99935.6
99931.7
99933.3
99932.9
99935.6
99931.8
99933.4
99933
99935.7
99931.9
99933.5
99933.2
99935.8
99932
99933.6
99933.3
99935.9
99932.1
99933.8
99933.5
99936.1
99932.2
99933.9
99933.7
99936.2
99932.4
99934.2
99934
99936.4
99932.7
99934.5
99934.3
99936.7
99933
99934.9
99934.8
99937.1
99933.5
99935.5
99935.4
99937.6
99934.1
99936.3
99936.1
99938.2
99934.8
99937.1
99936.8
99938.9
99935.6
99938.1
99937.7
99939.8
99936.4
99939
99938.6
99940.6
99937.3
99940
99939.5
99941.5
99938.2
99941
99940.4
99942.4
99939
99942
99941.3
99943.2
99939.8
99943
99942.2
99944.1
99940.6
99943.9
99943.1
99944.9
99941.4
)
;

boundaryField
{
    leftWall
    {
        type            fixedFluxPressure;
        gradient        nonuniform 0();
        value           nonuniform 0();
    }
    rightWall
    {
        type            fixedFluxPressure;
        gradient        nonuniform List<scalar> 8(5062.61 21466.8 8368.01 19661.8 7272.12 18750.3 4705.01 17462.7);
        value           nonuniform List<scalar> 8(100019 99944.4 99976.6 99943.5 100016 99945.3 100003 99941.7);
    }
    leftSides_periodic0
    {
        type            cyclic;
    }
    leftSides_periodic1
    {
        type            cyclic;
    }
    rightSides_periodic0
    {
        type            cyclic;
    }
    rightSides_periodic1
    {
        type            cyclic;
    }
    leftInOut_periodic0
    {
        type            cyclic;
    }
    leftInOut_periodic1
    {
        type            cyclic;
    }
    rightInOut_periodic0
    {
        type            cyclic;
    }
    rightInOut_periodic1
    {
        type            cyclic;
    }
    procBoundary1to0
    {
        type            processor;
        value           nonuniform List<scalar> 
11
(
100000
100009
100001
100004
100004
99931.2
99932.1
99930.2
99928.5
99931.2
99932.1
)
;
    }
    procBoundary1to0throughleftInOut_periodic0
    {
        type            processorCyclic;
        value           uniform 100001;
    }
    procBoundary1to2throughleftSides_periodic0
    {
        type            processorCyclic;
        value           nonuniform List<scalar> 2(100027 100026);
    }
    procBoundary1to2throughrightSides_periodic0
    {
        type            processorCyclic;
        value           nonuniform List<scalar> 2(100025 100022);
    }
    procBoundary1to3
    {
        type            processor;
        value           nonuniform List<scalar> 
316
(
99942.5
99956.6
99933.4
99965.7
99943.8
99955.3
99934.3
99965
99945.2
99953.9
99935.2
99964.1
99946.7
99952.4
99936.3
99963.3
99948.3
99950.8
99937.4
99962.3
99950
99949.1
99938.6
99961.4
99951.7
99947.3
99939.9
99960.3
99953.6
99945.4
99941.3
99959.3
99955.5
99943.4
99942.7
99958.2
99957.5
99941.3
99944.2
99957
99959.5
99939.1
99945.7
99955.8
99961.6
99936.8
99947.3
99954.5
99963.8
99934.4
99949
99953.3
99966
99932
99950.7
99951.9
99968.2
99929.4
99952.5
99950.6
99970.5
99926.8
99954.4
99949.2
99972.8
99924
99956.2
99947.7
99975.2
99921.2
99958.2
99946.3
99977.6
99918.4
99960.2
99944.8
99980
99915.5
99962.2
99943.3
99982.2
99912.5
99964.3
99941.8
99984.1
99909.5
99966.4
99940.3
99985.8
99906.5
99968.5
99938.7
99987.7
99903.5
99970.7
99937.1
99989.8
99900.4
99972.9
99935.6
99992.2
99897.3
99975.1
99934
99994.7
99894.2
99977.4
99932.4
99997.1
99891.1
99979.7
99930.8
99999.6
99888
99981.9
99929.3
100002
99885
99984.2
99927.7
100004
99881.9
99986.5
99926.2
100007
99878.9
99988.8
99924.6
100009
99875.9
99991
99923.1
100011
99872.9
99993.3
99921.6
100013
99870
99995.5
99920.2
100016
99867.1
99997.7
99918.7
100018
99864.3
99999.9
99917.3
100020
99861.5
100002
99916
100022
99858.8
100004
99914.6
100024
99856.1
100006
99913.3
100026
99853.5
100008
99912.1
100028
99851
100010
99910.9
100029
99848.5
100012
99909.7
100031
99846.1
100014
99908.6
100033
99843.8
100016
99907.5
100034
99841.6
100017
99906.5
100036
99839.5
100019
99905.5
100037
99837.4
100020
99904.6
100038
99835.5
100022
99903.7
100040
99833.6
100023
99902.9
100041
99831.9
100024
99902.2
100042
99830.2
100026
99901.4
100043
99828.7
100027
99900.8
100044
99827.3
100028
99900.2
100045
99826
100029
99899.7
100046
99824.8
100030
99899.2
100047
99823.8
100031
99898.8
100048
99822.8
100031
99898.4
100048
99822
100032
99898.1
100049
99821.2
100033
99897.8
100049
99820.6
100033
99897.6
100050
99820
100034
99897.4
100050
99819.5
100035
99897.3
100051
99819.1
100035
99897.3
100051
99818.8
100035
99897.3
100052
99818.6
100036
99897.5
100052
99818.5
100036
99897.7
100053
99818.5
100037
99898.1
100054
99818.6
100038
99898.7
100055
99818.9
100039
99899.4
100056
99819.5
100040
99900.3
100057
99820.4
100041
99901.4
100059
99821.9
100043
99902.6
100060
99823.9
100045
99903.9
100062
99826.1
100047
99905.2
100063
99828.3
100049
99906.5
100065
99830.5
100051
99907.8
100066
99832.6
100053
99909.1
100068
99834.6
100055
99910.4
)
;
    }
    procBoundary1to3throughrightSides_periodic0
    {
        type            processorCyclic;
        value           nonuniform List<scalar> 
314
(
100025
100025
100025
100025
100025
100025
100025
100025
100025
100025
100025
100025
100025
100025
100025
100024
100024
100024
100024
100024
100024
100024
100024
100024
100024
100024
100024
100024
100024
100023
100023
100023
100023
100023
100023
100023
100023
100023
100023
100023
100023
100023
100023
100023
100023
100023
100023
100023
100023
100023
100023
100023
100023
100023
100023
100023
100023
100023
100023
100024
100024
100024
100024
100025
100025
100026
100027
100028
100029
100031
100033
100035
100037
100039
100041
100043
100045
100047
100023
100023
100023
100023
100023
100023
100023
100023
100024
100024
100024
100024
100024
100024
100024
100025
100025
100025
100025
100025
100026
100026
100026
100026
100026
100027
100027
100027
100027
100028
100028
100028
100028
100029
100029
100029
100029
100030
100030
100030
100030
100031
100031
100031
100031
100032
100032
100032
100032
100032
100032
100033
100033
100033
100033
100033
100034
100034
100034
100034
100034
100035
100035
100035
100036
100036
100037
100038
100039
100041
100043
100045
100047
100049
100052
100054
100056
100058
100027
100027
100027
100027
100027
100027
100027
100027
100027
100027
100026
100026
100026
100026
100026
100026
100026
100026
100026
100026
100026
100026
100026
100025
100025
100025
100025
100025
100025
100025
100025
100025
100024
100024
100024
100024
100024
100024
100024
100024
100023
100023
100023
100023
100023
100023
100023
100023
100023
100023
100023
100023
100023
100023
100023
100023
100023
100023
100023
100023
100023
100023
100023
100024
100024
100024
100024
100025
100026
100027
100028
100030
100032
100034
100036
100038
100040
100042
100044
100026
100026
100026
100026
100026
100026
100026
100026
100026
100026
100026
100026
100027
100027
100027
100027
100027
100027
100027
100027
100027
100027
100027
100028
100028
100028
100028
100028
100028
100028
100028
100029
100029
100029
100029
100029
100029
100029
100029
100030
100030
100030
100030
100030
100030
100030
100030
100031
100031
100031
100031
100031
100031
100031
100032
100032
100032
100032
100032
100033
100033
100033
100033
100034
100034
100035
100035
100036
100037
100038
100040
100042
100044
100045
100047
100049
100051
100053
100055
)
;
    }
}


// ************************************************************************* //
