/*--------------------------------*- C++ -*----------------------------------*\
| =========                 |                                                 |
| \\      /  F ield         | OpenFOAM: The Open Source CFD Toolbox           |
|  \\    /   O peration     | Version:  v1906                                 |
|   \\  /    A nd           | Web:      www.OpenFOAM.com                      |
|    \\/     M anipulation  |                                                 |
\*---------------------------------------------------------------------------*/
FoamFile
{
    version     2.0;
    format      ascii;
    class       volScalarField;
    location    "96.8";
    object      T;
}
// * * * * * * * * * * * * * * * * * * * * * * * * * * * * * * * * * * * * * //

dimensions      [0 0 0 1 0 0 0];


internalField   nonuniform List<scalar> 
634
(
347.137
343.08
343.472
347.113
347.131
343.054
343.431
347.049
347.125
343.032
343.391
346.989
347.12
343.01
343.351
346.932
347.113
342.989
343.311
346.878
347.107
342.968
343.272
346.827
347.099
342.947
343.233
346.778
347.091
342.926
343.194
346.731
347.082
342.905
343.156
346.685
347.071
342.883
343.118
346.642
347.06
342.86
343.08
346.599
347.047
342.837
343.042
346.558
347.033
342.813
343.003
346.517
347.018
342.789
342.965
346.476
347.001
342.764
342.927
346.436
346.982
342.738
342.888
346.396
346.962
342.712
342.85
346.357
346.94
342.685
342.811
346.318
346.916
342.657
342.772
346.279
346.891
342.629
342.732
346.24
346.865
342.6
342.692
346.201
346.837
342.57
342.652
346.162
346.808
342.539
342.612
346.124
346.777
342.508
342.571
346.085
346.745
342.476
342.53
346.047
346.712
342.444
342.489
346.009
346.678
342.411
342.447
345.971
346.643
342.377
342.405
345.933
346.606
342.342
342.363
345.894
346.569
342.306
342.32
345.855
346.53
342.27
342.276
345.816
346.49
342.232
342.232
345.777
346.448
342.193
342.187
345.737
346.405
342.152
342.141
345.697
346.362
342.11
342.095
345.657
346.318
342.065
342.047
345.616
346.275
342.018
341.998
345.575
346.231
341.968
341.947
345.534
346.186
341.915
341.894
345.492
346.14
341.86
341.839
345.45
346.093
341.802
341.781
345.407
346.045
341.742
341.72
345.362
345.996
341.678
341.657
345.316
345.945
341.611
341.589
345.268
345.893
341.541
341.519
345.219
345.838
341.466
341.444
345.167
345.781
341.386
341.364
345.114
345.722
341.301
341.28
345.059
345.659
341.209
341.19
345.001
345.594
341.111
341.094
344.94
345.524
341.003
340.992
344.876
345.45
340.884
340.881
344.808
345.37
340.754
340.762
344.736
345.285
340.611
340.633
344.659
345.194
340.453
340.491
344.576
345.094
340.278
340.336
344.486
344.985
340.084
340.164
344.389
344.865
339.868
339.973
344.283
344.731
339.626
339.76
344.165
344.582
339.353
339.521
344.035
344.414
339.043
339.25
343.89
344.223
338.689
338.941
343.725
344.003
338.278
338.585
343.536
343.747
337.79
338.171
343.317
343.446
337.198
337.678
343.059
343.083
336.474
337.066
342.748
342.629
335.583
336.288
342.361
342.036
334.495
335.282
341.851
341.237
333.192
333.982
341.151
340.139
331.685
332.349
340.15
338.628
330.011
330.406
338.69
336.625
328.23
328.259
336.613
334.155
326.397
326.04
333.898
331.362
324.552
323.845
330.736
328.426
322.716
321.72
327.393
325.475
320.9
319.673
324.05
322.576
319.104
317.698
320.783
319.751
317.331
315.784
317.608
317.001
315.58
313.919
314.52
314.321
313.854
347.342
347.504
343.988
344.029
347.288
347.405
343.928
343.983
347.233
347.31
343.871
343.939
347.176
347.217
343.815
343.897
347.119
347.126
343.762
343.856
347.064
347.038
343.711
343.817
347.01
346.951
343.66
343.778
346.958
346.867
343.611
343.739
346.908
346.785
343.563
343.701
346.86
346.704
343.515
343.664
346.812
346.625
343.468
343.626
346.766
346.548
343.421
343.589
346.72
346.473
343.374
343.551
346.674
346.399
343.327
343.514
346.628
346.326
343.28
343.476
346.582
346.255
343.233
343.438
346.536
346.185
343.186
343.4
346.49
346.116
343.138
343.361
346.443
346.048
343.09
343.322
346.396
345.98
343.042
343.283
346.348
345.913
342.993
343.244
346.3
345.846
342.944
343.204
346.251
345.78
342.894
343.164
346.201
345.714
342.844
343.124
346.152
345.648
342.793
343.083
346.102
345.583
342.742
343.042
346.052
345.517
342.69
343.001
346.001
345.451
342.637
342.96
345.951
345.385
342.585
342.918
345.9
345.319
342.531
342.877
345.85
345.252
342.477
342.834
345.799
345.185
342.423
342.792
345.748
345.118
342.367
342.75
345.697
345.05
342.31
342.707
345.646
344.981
342.252
342.664
345.594
344.912
342.192
342.62
345.542
344.841
342.13
342.576
345.49
344.769
342.067
342.532
345.438
344.697
342.002
342.487
345.385
344.623
341.936
342.441
345.331
344.547
341.868
342.394
345.277
344.47
341.799
342.347
345.222
344.391
341.727
342.298
345.166
344.31
341.654
342.249
345.108
344.227
341.578
342.198
345.05
344.141
341.5
342.145
344.99
344.052
341.42
342.091
344.928
343.959
341.337
342.034
344.865
343.861
341.25
341.975
344.798
343.757
341.16
341.913
344.729
343.648
341.066
341.848
344.657
343.533
340.968
341.778
344.579
343.411
340.864
341.703
344.496
343.28
340.754
341.621
344.406
343.139
340.636
341.53
344.307
342.987
340.51
341.43
344.199
342.821
340.374
341.318
344.077
342.64
340.226
341.191
343.941
342.439
340.063
341.048
343.786
342.216
339.884
340.883
343.607
341.965
339.683
340.691
343.398
341.68
339.456
340.466
343.151
341.351
339.197
340.197
342.849
340.967
338.894
339.868
342.468
340.504
338.532
339.45
341.974
339.927
338.079
338.907
341.315
339.191
337.496
338.186
340.422
338.237
336.727
337.216
339.209
337.001
335.702
335.927
337.603
335.432
334.347
334.272
335.583
333.527
332.627
332.277
333.21
331.345
330.582
330.039
330.602
328.979
328.317
327.68
327.873
326.515
325.943
325.298
325.104
324.017
323.537
322.943
322.343
321.52
321.139
320.64
319.615
319.043
318.768
318.393
316.932
316.598
316.431
316.2
314.3
314.19
314.135
314.057
)
;

boundaryField
{
    leftWall
    {
        type            fixedValue;
        value           nonuniform 0();
    }
    rightWall
    {
        type            fixedValue;
        value           uniform 313;
    }
    leftSides_periodic0
    {
        type            cyclic;
    }
    leftSides_periodic1
    {
        type            cyclic;
    }
    rightSides_periodic0
    {
        type            cyclic;
    }
    rightSides_periodic1
    {
        type            cyclic;
    }
    leftInOut_periodic0
    {
        type            cyclic;
    }
    leftInOut_periodic1
    {
        type            cyclic;
    }
    rightInOut_periodic0
    {
        type            cyclic;
    }
    rightInOut_periodic1
    {
        type            cyclic;
    }
    procBoundary1to0
    {
        type            processor;
        value           nonuniform List<scalar> 
11
(
347.142
343.106
343.514
347.179
347.179
344.051
344.076
347.393
347.606
344.051
344.076
)
;
    }
    procBoundary1to0throughleftInOut_periodic0
    {
        type            processorCyclic;
        value           uniform 343.514;
    }
    procBoundary1to2throughleftSides_periodic0
    {
        type            processorCyclic;
        value           nonuniform List<scalar> 2(344.331 344.502);
    }
    procBoundary1to2throughrightSides_periodic0
    {
        type            processorCyclic;
        value           nonuniform List<scalar> 2(347.479 347.181);
    }
    procBoundary1to3
    {
        type            processor;
        value           nonuniform List<scalar> 
316
(
343.485
347.594
347.228
343.015
343.453
347.544
347.23
342.995
343.422
347.494
347.231
342.976
343.392
347.444
347.232
342.957
343.363
347.394
347.232
342.938
343.334
347.345
347.232
342.918
343.306
347.295
347.232
342.898
343.277
347.246
347.231
342.877
343.249
347.198
347.23
342.856
343.22
347.149
347.227
342.834
343.191
347.102
347.224
342.811
343.162
347.056
347.22
342.787
343.132
347.01
347.216
342.762
343.102
346.967
347.21
342.736
343.071
346.924
347.203
342.709
343.039
346.883
347.196
342.68
343.006
346.843
347.187
342.65
342.972
346.805
347.177
342.618
342.937
346.767
347.166
342.585
342.901
346.731
347.153
342.55
342.86
346.696
347.139
342.514
342.812
346.662
347.124
342.477
342.756
346.629
347.107
342.437
342.701
346.596
347.089
342.396
342.652
346.563
347.07
342.354
342.605
346.531
347.048
342.309
342.558
346.499
347.026
342.263
342.509
346.468
347.002
342.216
342.46
346.437
346.977
342.167
342.41
346.406
346.95
342.116
342.358
346.375
346.922
342.064
342.305
346.344
346.892
342.01
342.25
346.313
346.861
341.955
342.194
346.282
346.829
341.898
342.137
346.251
346.796
341.839
342.078
346.219
346.761
341.779
342.017
346.187
346.725
341.717
341.954
346.155
346.687
341.653
341.89
346.122
346.648
341.587
341.824
346.089
346.607
341.519
341.755
346.056
346.564
341.45
341.685
346.022
346.52
341.379
341.613
345.987
346.473
341.305
341.538
345.951
346.425
341.229
341.461
345.915
346.374
341.151
341.382
345.877
346.32
341.07
341.3
345.838
346.264
340.987
341.215
345.798
346.205
340.9
341.127
345.756
346.142
340.81
341.035
345.713
346.076
340.717
340.94
345.667
346.006
340.619
340.841
345.619
345.93
340.517
340.737
345.568
345.849
340.409
340.628
345.513
345.762
340.296
340.512
345.454
345.666
340.175
340.39
345.39
345.563
340.046
340.259
345.32
345.45
339.907
340.118
345.243
345.325
339.756
339.966
345.157
345.187
339.59
339.8
345.062
345.034
339.405
339.617
344.954
344.861
339.196
339.412
344.831
344.665
338.957
339.177
344.69
344.439
338.675
338.902
344.525
344.177
338.338
338.57
344.328
343.865
337.923
338.16
344.089
343.484
337.401
337.634
343.792
342.995
336.727
336.942
343.404
342.344
335.849
336.012
342.869
341.444
334.71
334.761
342.086
340.173
333.271
333.131
340.89
338.392
331.54
331.13
339.052
336.028
329.571
328.85
336.393
333.173
327.447
326.411
333.007
330.034
325.239
323.915
329.246
326.807
322.996
321.421
325.426
323.604
320.745
318.96
321.707
320.474
318.503
316.542
318.129
317.427
316.28
314.171
314.686
314.461
314.086
)
;
    }
    procBoundary1to3throughrightSides_periodic0
    {
        type            processorCyclic;
        value           nonuniform List<scalar> 
314
(
347.402
347.327
347.253
347.18
347.11
347.041
346.975
346.91
346.846
346.785
346.725
346.666
346.61
346.554
346.5
346.446
346.393
346.342
346.291
346.241
346.191
346.141
346.09
346.04
345.989
345.938
345.888
345.838
345.788
345.739
345.689
345.639
345.588
345.537
345.484
345.43
345.375
345.319
345.26
345.2
345.137
345.072
345.004
344.933
344.859
344.78
344.698
344.611
344.519
344.421
344.316
344.204
344.083
343.952
343.81
343.654
343.483
343.293
343.083
342.846
342.576
342.261
341.881
341.409
340.807
340.023
338.989
337.636
335.925
333.882
331.592
329.155
326.651
324.126
321.607
319.107
316.636
314.203
347.064
346.944
346.822
346.699
346.578
346.463
346.353
346.241
346.128
346.017
345.91
345.813
345.728
345.653
345.584
345.517
345.451
345.388
345.331
345.276
345.224
345.174
345.123
345.066
345
344.927
344.858
344.799
344.748
344.698
344.65
344.6
344.546
344.482
344.409
344.331
344.258
344.194
344.136
344.078
344.02
343.961
343.9
343.835
343.766
343.692
343.614
343.532
343.448
343.36
343.268
343.172
343.069
342.958
342.839
342.71
342.57
342.416
342.245
342.055
341.84
341.594
341.307
340.96
340.522
339.951
339.182
338.126
336.684
334.799
332.513
329.959
327.287
324.594
321.929
319.312
316.749
314.239
344.237
344.145
344.055
343.968
343.883
343.801
343.722
343.645
343.571
343.496
343.419
343.339
343.261
343.186
343.115
343.047
342.98
342.914
342.849
342.785
342.721
342.659
342.597
342.535
342.474
342.412
342.351
342.289
342.228
342.167
342.107
342.048
341.989
341.931
341.874
341.817
341.761
341.705
341.65
341.594
341.538
341.481
341.423
341.364
341.303
341.241
341.177
341.11
341.04
340.967
340.89
340.809
340.723
340.631
340.533
340.427
340.312
340.186
340.048
339.895
339.723
339.529
339.307
339.049
338.738
338.35
337.852
337.188
336.284
335.041
333.382
331.307
328.928
326.403
323.852
321.338
318.882
316.489
314.152
344.441
344.383
344.327
344.273
344.22
344.169
344.119
344.07
344.022
343.975
343.929
343.883
343.838
343.793
343.749
343.705
343.661
343.617
343.573
343.529
343.485
343.442
343.397
343.352
343.305
343.256
343.204
343.151
343.096
343.041
342.986
342.931
342.876
342.82
342.763
342.704
342.643
342.578
342.512
342.443
342.371
342.297
342.22
342.14
342.057
341.97
341.879
341.783
341.682
341.575
341.463
341.343
341.216
341.08
340.935
340.778
340.608
340.424
340.223
340.002
339.756
339.48
339.161
338.782
338.32
337.741
336.999
336.036
334.788
333.219
331.346
329.252
327.039
324.79
322.555
320.355
318.2
316.089
314.021
)
;
    }
}


// ************************************************************************* //
