0 	0 	0 	0
5.01672e-05 	-2.18355e-05 	-4.45147e-06 	0.0203398
0.000100334 	-4.3671e-05 	-8.90295e-06 	0.0406796
0.000150502 	-6.55066e-05 	-1.33544e-05 	0.0610194
0.000200669 	-8.73421e-05 	-1.78059e-05 	0.0813591
0.000250836 	-0.000109178 	-2.22574e-05 	0.101699
0.000301003 	-0.000131013 	-2.67088e-05 	0.122039
0.000351171 	-0.000150859 	-3.18675e-05 	0.140272
0.000401338 	-0.000163179 	-3.97002e-05 	0.150538
0.000451505 	-0.0001755 	-4.7533e-05 	0.160803
0.000501672 	-0.00018782 	-5.53658e-05 	0.171069
0.000551839 	-0.000200141 	-6.31986e-05 	0.181335
0.000602007 	-0.000212461 	-7.10314e-05 	0.191601
0.000652174 	-0.000224781 	-7.88641e-05 	0.201867
0.000702341 	-0.000237102 	-8.66969e-05 	0.212132
0.000752508 	-0.000246689 	-9.47574e-05 	0.220967
0.000802676 	-0.000249499 	-0.000103382 	0.226254
0.000852843 	-0.000252308 	-0.000112007 	0.231541
0.00090301 	-0.000255118 	-0.000120632 	0.236828
0.000953177 	-0.000257927 	-0.000129257 	0.242115
0.00100334 	-0.000260737 	-0.000137883 	0.247402
0.00105351 	-0.000263546 	-0.000146508 	0.252689
0.00110368 	-0.000266356 	-0.000155133 	0.257976
0.00115385 	-0.000269166 	-0.000163758 	0.263263
0.00120401 	-0.000271778 	-0.000172342 	0.268444
0.00125418 	-0.00027034 	-0.000180086 	0.271459
0.00130435 	-0.000268903 	-0.000187831 	0.274473
0.00135452 	-0.000267465 	-0.000195575 	0.277487
0.00140468 	-0.000266027 	-0.00020332 	0.280501
0.00145485 	-0.00026459 	-0.000211064 	0.283516
0.00150502 	-0.000263152 	-0.000218808 	0.28653
0.00155518 	-0.000261715 	-0.000226553 	0.289544
0.00160535 	-0.000260277 	-0.000234297 	0.292558
0.00165552 	-0.000258839 	-0.000242042 	0.295573
0.00170569 	-0.000257402 	-0.000249786 	0.298587
0.00175585 	-0.000255711 	-0.000257131 	0.301312
0.00180602 	-0.000253325 	-0.000263377 	0.303243
0.00185619 	-0.000250938 	-0.000269623 	0.305174
0.00190635 	-0.000248552 	-0.000275869 	0.307104
0.00195652 	-0.000246165 	-0.000282115 	0.309035
0.00200669 	-0.000243779 	-0.000288361 	0.310966
0.00205686 	-0.000241392 	-0.000294608 	0.312896
0.00210702 	-0.000239006 	-0.000300854 	0.314827
0.00215719 	-0.00023662 	-0.0003071 	0.316758
0.00220736 	-0.000234233 	-0.000313346 	0.318688
0.00225753 	-0.000231847 	-0.000319592 	0.320619
0.00230769 	-0.00022946 	-0.000325838 	0.32255
0.00235786 	-0.000227074 	-0.000332084 	0.32448
0.00240803 	-0.000224923 	-0.000337176 	0.325978
0.00245819 	-0.000222878 	-0.000341754 	0.327283
0.00250836 	-0.000220833 	-0.000346332 	0.328588
0.00255853 	-0.000218788 	-0.00035091 	0.329893
0.0026087 	-0.000216743 	-0.000355488 	0.331198
0.00265886 	-0.000214698 	-0.000360066 	0.332502
0.00270903 	-0.000212653 	-0.000364644 	0.333807
0.0027592 	-0.000210608 	-0.000369222 	0.335112
0.00280936 	-0.000208563 	-0.0003738 	0.336417
0.00285953 	-0.000206518 	-0.000378379 	0.337722
0.0029097 	-0.000204473 	-0.000382957 	0.339027
0.00295987 	-0.000202427 	-0.000387535 	0.340332
0.00301003 	-0.000200382 	-0.000392113 	0.341636
0.0030602 	-0.000198337 	-0.000396691 	0.342941
0.00311037 	-0.000196306 	-0.000401238 	0.344236
0.00316054 	-0.000194874 	-0.000404479 	0.345113
0.0032107 	-0.000193441 	-0.000407719 	0.34599
0.00326087 	-0.000192009 	-0.000410959 	0.346866
0.00331104 	-0.000190576 	-0.000414199 	0.347743
0.0033612 	-0.000189144 	-0.000417439 	0.34862
0.00341137 	-0.000187711 	-0.000420679 	0.349496
0.00346154 	-0.000186279 	-0.000423919 	0.350373
0.00351171 	-0.000184846 	-0.000427159 	0.351249
0.00356187 	-0.000183414 	-0.000430399 	0.352126
0.00361204 	-0.000181981 	-0.000433639 	0.353003
0.00366221 	-0.000180549 	-0.000436879 	0.353879
0.00371237 	-0.000179116 	-0.000440119 	0.354756
0.00376254 	-0.000177684 	-0.000443359 	0.355632
0.00381271 	-0.000176251 	-0.000446599 	0.356509
0.00386288 	-0.000174819 	-0.000449839 	0.357386
0.00391304 	-0.000173387 	-0.000453079 	0.358262
0.00396321 	-0.000171954 	-0.000456319 	0.359139
0.00401338 	-0.000170922 	-0.000458717 	0.359718
0.00406355 	-0.000169929 	-0.000461032 	0.360268
0.00411371 	-0.000168935 	-0.000463346 	0.360817
0.00416388 	-0.000167942 	-0.000465661 	0.361367
0.00421405 	-0.000166949 	-0.000467976 	0.361917
0.00426421 	-0.000165956 	-0.000470291 	0.362467
0.00431438 	-0.000164963 	-0.000472606 	0.363016
0.00436455 	-0.00016397 	-0.000474921 	0.363566
0.00441472 	-0.000162977 	-0.000477236 	0.364116
0.00446488 	-0.000161983 	-0.00047955 	0.364666
0.00451505 	-0.00016099 	-0.000481865 	0.365216
0.00456522 	-0.000159997 	-0.00048418 	0.365765
0.00461538 	-0.000159004 	-0.000486495 	0.366315
0.00466555 	-0.000158011 	-0.00048881 	0.366865
0.00471572 	-0.000157018 	-0.000491125 	0.367415
0.00476589 	-0.000156025 	-0.00049344 	0.367964
0.00481605 	-0.000155031 	-0.000495754 	0.368514
0.00486622 	-0.000154038 	-0.000498069 	0.369064
0.00491639 	-0.000153045 	-0.000500384 	0.369614
0.00496656 	-0.000152052 	-0.000502699 	0.370163
0.00501672 	-0.000151264 	-0.000504297 	0.370464
0.00506689 	-0.000150487 	-0.000505856 	0.370751
0.00511706 	-0.00014971 	-0.000507415 	0.371039
0.00516722 	-0.000148934 	-0.000508974 	0.371326
0.00521739 	-0.000148157 	-0.000510533 	0.371613
0.00526756 	-0.00014738 	-0.000512092 	0.3719
0.00531773 	-0.000146603 	-0.000513651 	0.372187
0.00536789 	-0.000145826 	-0.000515211 	0.372475
0.00541806 	-0.000145049 	-0.00051677 	0.372762
0.00546823 	-0.000144272 	-0.000518329 	0.373049
0.00551839 	-0.000143496 	-0.000519888 	0.373336
0.00556856 	-0.000142719 	-0.000521447 	0.373624
0.00561873 	-0.000141942 	-0.000523006 	0.373911
0.0056689 	-0.000141165 	-0.000524565 	0.374198
0.00571906 	-0.000140388 	-0.000526124 	0.374485
0.00576923 	-0.000139611 	-0.000527684 	0.374773
0.0058194 	-0.000138834 	-0.000529243 	0.37506
0.00586957 	-0.000138058 	-0.000530802 	0.375347
0.00591973 	-0.000137281 	-0.000532361 	0.375634
0.0059699 	-0.000136504 	-0.00053392 	0.375922
0.00602007 	-0.000135727 	-0.000535479 	0.376209
0.00607023 	-0.00013495 	-0.000537038 	0.376496
0.0061204 	-0.000134173 	-0.000538597 	0.376783
0.00617057 	-0.000133493 	-0.000539642 	0.376924
0.00622074 	-0.000132863 	-0.000540426 	0.376991
0.0062709 	-0.000132232 	-0.00054121 	0.377058
0.00632107 	-0.000131601 	-0.000541993 	0.377125
0.00637124 	-0.00013097 	-0.000542777 	0.377192
0.0064214 	-0.00013034 	-0.000543561 	0.377259
0.00647157 	-0.000129709 	-0.000544345 	0.377326
0.00652174 	-0.000129078 	-0.000545128 	0.377393
0.00657191 	-0.000128447 	-0.000545912 	0.37746
0.00662207 	-0.000127817 	-0.000546696 	0.377527
0.00667224 	-0.000127186 	-0.00054748 	0.377594
0.00672241 	-0.000126555 	-0.000548263 	0.377661
0.00677258 	-0.000125925 	-0.000549047 	0.377728
0.00682274 	-0.000125294 	-0.000549831 	0.377795
0.00687291 	-0.000124663 	-0.000550615 	0.377862
0.00692308 	-0.000124032 	-0.000551398 	0.377929
0.00697324 	-0.000123402 	-0.000552182 	0.377996
0.00702341 	-0.000122771 	-0.000552966 	0.378062
0.00707358 	-0.00012214 	-0.00055375 	0.378129
0.00712375 	-0.000121509 	-0.000554533 	0.378196
0.00717391 	-0.000120879 	-0.000555317 	0.378263
0.00722408 	-0.000120248 	-0.000556101 	0.37833
0.00727425 	-0.000119617 	-0.000556885 	0.378397
0.00732441 	-0.000118987 	-0.000557668 	0.378464
0.00737458 	-0.000118356 	-0.000558452 	0.378531
0.00742475 	-0.000117725 	-0.000559236 	0.378598
0.00747492 	-0.000117094 	-0.00056002 	0.378665
0.00752508 	-0.000116521 	-0.000560419 	0.378633
0.00757525 	-0.000116005 	-0.000560434 	0.378502
0.00762542 	-0.000115489 	-0.000560449 	0.37837
0.00767559 	-0.000114973 	-0.000560464 	0.378239
0.00772575 	-0.000114457 	-0.000560478 	0.378108
0.00777592 	-0.000113941 	-0.000560493 	0.377977
0.00782609 	-0.000113426 	-0.000560508 	0.377845
0.00787625 	-0.00011291 	-0.000560523 	0.377714
0.00792642 	-0.000112394 	-0.000560538 	0.377583
0.00797659 	-0.000111878 	-0.000560553 	0.377452
0.00802676 	-0.000111362 	-0.000560568 	0.37732
0.00807692 	-0.000110846 	-0.000560582 	0.377189
0.00812709 	-0.00011033 	-0.000560597 	0.377058
0.00817726 	-0.000109814 	-0.000560612 	0.376927
0.00822742 	-0.000109298 	-0.000560627 	0.376795
0.00827759 	-0.000108782 	-0.000560642 	0.376664
0.00832776 	-0.000108266 	-0.000560657 	0.376533
0.00837793 	-0.00010775 	-0.000560671 	0.376402
0.00842809 	-0.000107235 	-0.000560686 	0.376271
0.00847826 	-0.000106719 	-0.000560701 	0.376139
0.00852843 	-0.000106203 	-0.000560716 	0.376008
0.0085786 	-0.000105687 	-0.000560731 	0.375877
0.00862876 	-0.000105171 	-0.000560746 	0.375746
0.00867893 	-0.000104655 	-0.000560761 	0.375614
0.0087291 	-0.000104139 	-0.000560775 	0.375483
0.00877926 	-0.000103623 	-0.00056079 	0.375352
0.00882943 	-0.000103107 	-0.000560805 	0.375221
0.0088796 	-0.000102645 	-0.000560504 	0.375009
0.00892977 	-0.000102288 	-0.000559578 	0.374638
0.00897993 	-0.000101932 	-0.000558653 	0.374266
0.0090301 	-0.000101575 	-0.000557728 	0.373895
0.00908027 	-0.000101219 	-0.000556802 	0.373524
0.00913043 	-0.000100862 	-0.000555877 	0.373153
0.0091806 	-0.000100506 	-0.000554952 	0.372782
0.00923077 	-0.000100149 	-0.000554027 	0.372411
0.00928094 	-9.97924e-05 	-0.000553101 	0.37204
0.0093311 	-9.94358e-05 	-0.000552176 	0.371669
0.00938127 	-9.90793e-05 	-0.000551251 	0.371298
0.00943144 	-9.87227e-05 	-0.000550325 	0.370927
0.00948161 	-9.83662e-05 	-0.0005494 	0.370556
0.00953177 	-9.80096e-05 	-0.000548475 	0.370184
0.00958194 	-9.7653e-05 	-0.00054755 	0.369813
0.00963211 	-9.72965e-05 	-0.000546624 	0.369442
0.00968227 	-9.69399e-05 	-0.000545699 	0.369071
0.00973244 	-9.65833e-05 	-0.000544774 	0.3687
0.00978261 	-9.62268e-05 	-0.000543848 	0.368329
0.00983278 	-9.58702e-05 	-0.000542923 	0.367958
0.00988294 	-9.55137e-05 	-0.000541998 	0.367587
0.00993311 	-9.51571e-05 	-0.000541073 	0.367216
0.00998328 	-9.48005e-05 	-0.000540147 	0.366845
0.0100334 	-9.44615e-05 	-0.000539166 	0.366459
0.0100836 	-9.44485e-05 	-0.00053714 	0.365804
0.0101338 	-9.44356e-05 	-0.000535113 	0.36515
0.0101839 	-9.44227e-05 	-0.000533087 	0.364495
0.0102341 	-9.44098e-05 	-0.00053106 	0.363841
0.0102843 	-9.43969e-05 	-0.000529034 	0.363186
0.0103344 	-9.4384e-05 	-0.000527008 	0.362531
0.0103846 	-9.43711e-05 	-0.000524981 	0.361877
0.0104348 	-9.43582e-05 	-0.000522955 	0.361222
0.0104849 	-9.43453e-05 	-0.000520928 	0.360568
0.0105351 	-9.43324e-05 	-0.000518902 	0.359913
0.0105853 	-9.43195e-05 	-0.000516876 	0.359258
0.0106355 	-9.43066e-05 	-0.000514849 	0.358604
0.0106856 	-9.42937e-05 	-0.000512823 	0.357949
0.0107358 	-9.42808e-05 	-0.000510797 	0.357295
0.010786 	-9.42678e-05 	-0.00050877 	0.35664
0.0108361 	-9.42549e-05 	-0.000506744 	0.355985
0.0108863 	-9.4242e-05 	-0.000504717 	0.355331
0.0109365 	-9.42291e-05 	-0.000502691 	0.354676
0.0109866 	-9.42162e-05 	-0.000500665 	0.354022
0.0110368 	-9.42583e-05 	-0.000498496 	0.353334
0.011087 	-9.48609e-05 	-0.000494877 	0.352312
0.0111371 	-9.54635e-05 	-0.000491257 	0.351291
0.0111873 	-9.60661e-05 	-0.000487638 	0.350269
0.0112375 	-9.66687e-05 	-0.000484018 	0.349247
0.0112876 	-9.72713e-05 	-0.000480399 	0.348226
0.0113378 	-9.7874e-05 	-0.00047678 	0.347204
0.011388 	-9.84766e-05 	-0.00047316 	0.346182
0.0114381 	-9.90792e-05 	-0.000469541 	0.345161
0.0114883 	-9.96818e-05 	-0.000465922 	0.344139
0.0115385 	-0.000100284 	-0.000462302 	0.343117
0.0115886 	-0.000100887 	-0.000458683 	0.342096
0.0116388 	-0.00010149 	-0.000455063 	0.341074
0.011689 	-0.000102092 	-0.000451444 	0.340052
0.0117391 	-0.000102695 	-0.000447825 	0.339031
0.0117893 	-0.000103297 	-0.000444205 	0.338009
0.0118395 	-0.0001039 	-0.000440586 	0.336987
0.0118896 	-0.000104503 	-0.000436967 	0.335966
0.0119398 	-0.000105976 	-0.00043086 	0.334407
0.01199 	-0.000107469 	-0.000424696 	0.332836
0.0120401 	-0.000108962 	-0.000418533 	0.331266
0.0120903 	-0.000110455 	-0.000412369 	0.329695
0.0121405 	-0.000111949 	-0.000406205 	0.328124
0.0121906 	-0.000113442 	-0.000400041 	0.326553
0.0122408 	-0.000114935 	-0.000393877 	0.324982
0.012291 	-0.000116428 	-0.000387714 	0.323411
0.0123411 	-0.000117922 	-0.00038155 	0.32184
0.0123913 	-0.000119415 	-0.000375386 	0.320269
0.0124415 	-0.000120908 	-0.000369222 	0.318698
0.0124916 	-0.000122401 	-0.000363058 	0.317127
0.0125418 	-0.000123894 	-0.000356895 	0.315556
0.012592 	-0.000125388 	-0.000350731 	0.313986
0.0126421 	-0.000127131 	-0.000343605 	0.312131
0.0126923 	-0.000129436 	-0.000334322 	0.309639
0.0127425 	-0.000131741 	-0.000325038 	0.307147
0.0127926 	-0.000134046 	-0.000315755 	0.304655
0.0128428 	-0.000136351 	-0.000306471 	0.302164
0.012893 	-0.000138656 	-0.000297188 	0.299672
0.0129431 	-0.000140961 	-0.000287904 	0.29718
0.0129933 	-0.000143266 	-0.000278621 	0.294688
0.0130435 	-0.000145571 	-0.000269337 	0.292197
0.0130936 	-0.000147876 	-0.000260054 	0.289705
0.0131438 	-0.000150181 	-0.00025077 	0.287213
0.013194 	-0.000152486 	-0.000241487 	0.284721
0.0132441 	-0.00015479 	-0.000232203 	0.28223
0.0132943 	-0.000156793 	-0.000221328 	0.278525
0.0133445 	-0.000158686 	-0.000209874 	0.27438
0.0133946 	-0.000160578 	-0.00019842 	0.270235
0.0134448 	-0.000162471 	-0.000186967 	0.26609
0.013495 	-0.000164363 	-0.000175513 	0.261945
0.0135452 	-0.000166256 	-0.000164059 	0.257799
0.0135953 	-0.000168148 	-0.000152605 	0.253654
0.0136455 	-0.000170041 	-0.000141151 	0.249509
0.0136957 	-0.000171933 	-0.000129698 	0.245364
0.0137458 	-0.000173826 	-0.000118244 	0.241219
0.013796 	-0.000175718 	-0.00010679 	0.237074
0.0138462 	-0.000173719 	-9.69549e-05 	0.229636
0.0138963 	-0.000171529 	-8.71988e-05 	0.222037
0.0139465 	-0.00016934 	-7.74426e-05 	0.214439
0.0139967 	-0.000167151 	-6.76865e-05 	0.206841
0.0140468 	-0.000164961 	-5.79304e-05 	0.199243
0.014097 	-0.000162772 	-4.81743e-05 	0.191644
0.0141472 	-0.000160583 	-3.84182e-05 	0.184046
0.0141973 	-0.000158393 	-2.86621e-05 	0.176448
0.0142475 	-0.000156204 	-1.8906e-05 	0.168849
0.0142977 	-0.000148773 	-1.37941e-05 	0.158306
0.0143478 	-0.000139229 	-1.05553e-05 	0.146575
0.014398 	-0.000129684 	-7.31648e-06 	0.134843
0.0144482 	-0.000120139 	-4.07768e-06 	0.123112
0.0144983 	-0.000110594 	-8.38874e-07 	0.111381
0.0145485 	-0.00010105 	2.39993e-06 	0.0996496
0.0145987 	-9.15047e-05 	5.63873e-06 	0.0879184
0.0146488 	-8.196e-05 	8.87754e-06 	0.0761871
0.014699 	-7.06512e-05 	8.44213e-06 	0.0651467
0.0147492 	-5.8876e-05 	7.03511e-06 	0.0542889
0.0147993 	-4.71008e-05 	5.62809e-06 	0.0434311
0.0148495 	-3.53256e-05 	4.22107e-06 	0.0325733
0.0148997 	-2.35504e-05 	2.81404e-06 	0.0217156
0.0149498 	-1.17752e-05 	1.40702e-06 	0.0108578
0.015 	0 	0 	0
