-0.0075 	0 	0 	0
-0.0075 	-2.69395e-34 	4.37473e-36 	-8.13363e-33
-0.00745622 	-0.000354065 	5.74971e-06 	-0.01069
-0.00745622 	-0.000354065 	5.74971e-06 	-0.01069
-0.00741165 	-0.000543483 	1.26423e-05 	-0.0204212
-0.00741165 	-0.000543483 	1.26423e-05 	-0.0204212
-0.00736628 	-0.000643941 	2.10039e-05 	-0.0299634
-0.00736628 	-0.000643941 	2.10039e-05 	-0.0299634
-0.0073201 	-0.00073504 	2.76775e-05 	-0.0397455
-0.0073201 	-0.00073504 	2.76775e-05 	-0.0397455
-0.00727309 	-0.000824737 	3.6115e-05 	-0.0496548
-0.00727309 	-0.000824737 	3.6115e-05 	-0.0496548
-0.00722524 	-0.000899279 	4.51251e-05 	-0.0594758
-0.00722524 	-0.000899279 	4.51251e-05 	-0.0594758
-0.00717653 	-0.00095514 	5.48689e-05 	-0.0690814
-0.00717653 	-0.00095514 	5.48689e-05 	-0.0690814
-0.00712695 	-0.000992868 	6.5249e-05 	-0.0783856
-0.00712695 	-0.000992868 	6.5249e-05 	-0.0783856
-0.00707647 	-0.00101457 	7.61131e-05 	-0.0873231
-0.00707647 	-0.00101457 	7.61131e-05 	-0.0873231
-0.0070251 	-0.0010232 	8.737e-05 	-0.0958479
-0.0070251 	-0.0010232 	8.737e-05 	-0.0958479
-0.0069728 	-0.00102207 	9.8897e-05 	-0.103938
-0.0069728 	-0.00102207 	9.8897e-05 	-0.103938
-0.00691956 	-0.00101369 	0.000110557 	-0.111598
-0.00691956 	-0.00101369 	0.000110557 	-0.111598
-0.00686537 	-0.000999203 	0.000122677 	-0.118847
-0.00686537 	-0.000999203 	0.000122677 	-0.118847
-0.00681021 	-0.000978606 	0.000135374 	-0.125711
-0.00681021 	-0.000978606 	0.000135374 	-0.125711
-0.00675406 	-0.000951201 	0.000148391 	-0.132207
-0.00675406 	-0.000951201 	0.000148391 	-0.132207
-0.0066969 	-0.00091613 	0.000161686 	-0.138347
-0.0066969 	-0.00091613 	0.000161686 	-0.138347
-0.00663871 	-0.000872406 	0.000175454 	-0.14414
-0.00663871 	-0.000872406 	0.000175454 	-0.14414
-0.00657949 	-0.000819069 	0.000189826 	-0.14958
-0.00657949 	-0.000819069 	0.000189826 	-0.14958
-0.0065192 	-0.000756049 	0.000204608 	-0.154666
-0.0065192 	-0.000756049 	0.000204608 	-0.154666
-0.00645783 	-0.000684767 	0.000219562 	-0.159413
-0.00645783 	-0.000684767 	0.000219562 	-0.159413
-0.00639535 	-0.000607875 	0.000234608 	-0.163855
-0.00639535 	-0.000607875 	0.000234608 	-0.163855
-0.00633176 	-0.000528335 	0.000249573 	-0.168032
-0.00633176 	-0.000528335 	0.000249573 	-0.168032
-0.00626703 	-0.000448646 	0.000264444 	-0.171978
-0.00626703 	-0.000448646 	0.000264444 	-0.171978
-0.00620114 	-0.000370741 	0.000279979 	-0.175719
-0.00620114 	-0.000370741 	0.000279979 	-0.175719
-0.00613406 	-0.000295946 	0.000297139 	-0.179277
-0.00613406 	-0.000295946 	0.000297139 	-0.179277
-0.00606579 	-0.000225663 	0.000310789 	-0.18268
-0.00606579 	-0.000225663 	0.000310789 	-0.18268
-0.00599629 	-0.000165469 	0.000316937 	-0.185985
-0.00599629 	-0.000165469 	0.000316937 	-0.185985
-0.00592554 	-0.000123071 	0.00032932 	-0.189298
-0.00592554 	-0.000123071 	0.00032932 	-0.189298
-0.00585352 	-9.85567e-05 	0.000361852 	-0.192725
-0.00585352 	-9.85567e-05 	0.000361852 	-0.192725
-0.00578022 	-8.25366e-05 	0.000400973 	-0.196201
-0.00578022 	-8.25366e-05 	0.000400973 	-0.196201
-0.00570559 	-5.89899e-05 	0.000410987 	-0.199422
-0.00570559 	-5.89899e-05 	0.000410987 	-0.199422
-0.00562963 	-1.89228e-05 	0.000404171 	-0.202229
-0.00562963 	-1.89228e-05 	0.000404171 	-0.202229
-0.00555231 	2.1123e-05 	0.000424892 	-0.204847
-0.00555231 	2.1123e-05 	0.000424892 	-0.204847
-0.0054736 	2.76634e-05 	0.000456504 	-0.207617
-0.0054736 	2.76634e-05 	0.000456504 	-0.207617
-0.00539348 	-1.98299e-05 	0.000458428 	-0.210775
-0.00539348 	-1.98299e-05 	0.000458428 	-0.210775
-0.00531193 	-0.00010879 	0.00043374 	-0.214299
-0.00531193 	-0.00010879 	0.00043374 	-0.214299
-0.00522891 	-0.000176887 	0.000448421 	-0.217618
-0.00522891 	-0.000176887 	0.000448421 	-0.217618
-0.0051444 	-0.000182164 	0.000513601 	-0.220284
-0.0051444 	-0.000182164 	0.000513601 	-0.220284
-0.00505838 	-0.000154745 	0.000560322 	-0.222523
-0.00505838 	-0.000154745 	0.000560322 	-0.222523
-0.00497081 	-0.00012839 	0.000568402 	-0.224641
-0.00497081 	-0.00012839 	0.000568402 	-0.224641
-0.00488168 	-0.000108122 	0.000564654 	-0.226719
-0.00488168 	-0.000108122 	0.000564654 	-0.226719
-0.00479094 	-8.73904e-05 	0.000574513 	-0.228731
-0.00479094 	-8.73904e-05 	0.000574513 	-0.228731
-0.00469858 	-6.12183e-05 	0.000595801 	-0.230653
-0.00469858 	-6.12183e-05 	0.000595801 	-0.230653
-0.00460456 	-2.56126e-05 	0.000614259 	-0.232482
-0.00460456 	-2.56126e-05 	0.000614259 	-0.232482
-0.00450886 	1.79691e-05 	0.000624787 	-0.234254
-0.00450886 	1.79691e-05 	0.000624787 	-0.234254
-0.00441144 	5.37673e-05 	0.000630296 	-0.236091
-0.00441144 	5.37673e-05 	0.000630296 	-0.236091
-0.00431227 	6.16941e-05 	0.00064095 	-0.238102
-0.00431227 	6.16941e-05 	0.00064095 	-0.238102
-0.00421133 	4.70795e-05 	0.000658029 	-0.240172
-0.00421133 	4.70795e-05 	0.000658029 	-0.240172
-0.00410857 	3.43355e-05 	0.000672117 	-0.242115
-0.00410857 	3.43355e-05 	0.000672117 	-0.242115
-0.00400397 	3.62205e-05 	0.000679759 	-0.243914
-0.00400397 	3.62205e-05 	0.000679759 	-0.243914
-0.0038975 	4.89483e-05 	0.000692001 	-0.245643
-0.0038975 	4.89483e-05 	0.000692001 	-0.245643
-0.00378912 	6.2981e-05 	0.000701823 	-0.24735
-0.00378912 	6.2981e-05 	0.000701823 	-0.24735
-0.00367879 	6.77804e-05 	0.000684483 	-0.249116
-0.00367879 	6.77804e-05 	0.000684483 	-0.249116
-0.00356649 	5.10312e-05 	0.000669218 	-0.251156
-0.00356649 	5.10312e-05 	0.000669218 	-0.251156
-0.00345217 	4.49558e-06 	0.000720203 	-0.253783
-0.00345217 	4.49558e-06 	0.000720203 	-0.253783
-0.0033358 	-8.27839e-05 	0.000835346 	-0.257149
-0.0033358 	-8.27839e-05 	0.000835346 	-0.257149
-0.00321735 	-0.000181152 	0.000865654 	-0.260272
-0.00321735 	-0.000181152 	0.000865654 	-0.260272
-0.00309677 	-0.000240279 	0.000795837 	-0.262276
-0.00309677 	-0.000240279 	0.000795837 	-0.262276
-0.00297403 	-0.000266455 	0.000776164 	-0.263695
-0.00297403 	-0.000266455 	0.000776164 	-0.263695
-0.00284909 	-0.000288862 	0.000825673 	-0.265102
-0.00284909 	-0.000288862 	0.000825673 	-0.265102
-0.0027219 	-0.000317546 	0.000885094 	-0.266555
-0.0027219 	-0.000317546 	0.000885094 	-0.266555
-0.00259244 	-0.000348512 	0.000922987 	-0.267942
-0.00259244 	-0.000348512 	0.000922987 	-0.267942
-0.00246065 	-0.000377134 	0.00095307 	-0.269221
-0.00246065 	-0.000377134 	0.00095307 	-0.269221
-0.00232651 	-0.000400765 	0.00098646 	-0.270398
-0.00232651 	-0.000400765 	0.00098646 	-0.270398
-0.00218995 	-0.000418478 	0.00102193 	-0.271486
-0.00218995 	-0.000418478 	0.00102193 	-0.271486
-0.00205095 	-0.00043226 	0.00105966 	-0.272501
-0.00205095 	-0.00043226 	0.00105966 	-0.272501
-0.00190946 	-0.00044484 	0.00109719 	-0.273461
-0.00190946 	-0.00044484 	0.00109719 	-0.273461
-0.00176543 	-0.000456517 	0.00113714 	-0.274385
-0.00176543 	-0.000456517 	0.00113714 	-0.274385
-0.00161881 	-0.00047058 	0.00120504 	-0.275414
-0.00161881 	-0.00047058 	0.00120504 	-0.275414
-0.00146957 	-0.000509238 	0.00129575 	-0.276922
-0.00146957 	-0.000509238 	0.00129575 	-0.276922
-0.00131765 	-0.000614279 	0.00130794 	-0.279378
-0.00131765 	-0.000614279 	0.00130794 	-0.279378
-0.001163 	-0.000794359 	0.00122941 	-0.282971
-0.001163 	-0.000794359 	0.00122941 	-0.282971
-0.00100559 	-0.000939756 	0.00126184 	-0.286504
-0.00100559 	-0.000939756 	0.00126184 	-0.286504
-0.000845345 	-0.000987074 	0.00147176 	-0.289268
-0.000845345 	-0.000987074 	0.00147176 	-0.289268
-0.000682232 	-0.00100516 	0.00169684 	-0.292289
-0.000682232 	-0.00100516 	0.00169684 	-0.292289
-0.000516194 	-0.00102997 	0.00174024 	-0.294969
-0.000516194 	-0.00102997 	0.00174024 	-0.294969
-0.000347178 	-0.00104472 	0.00168293 	-0.296269
-0.000347178 	-0.00104472 	0.00168293 	-0.296269
-0.000175132 	-0.00103281 	0.00173579 	-0.296777
-0.000175132 	-0.00103281 	0.00173579 	-0.296777
0 	-0.000997289 	0.00185079 	-0.297045
0 	-0.000997289 	0.00185079 	-0.297045
0 	-0.000997289 	0.00185079 	-0.297045
0 	-0.000997289 	0.00185079 	-0.297045
0.000175132 	-0.000945749 	0.0019437 	-0.297101
0.000175132 	-0.00594311 	0.01409 	-0.356004
0.000347178 	-0.000882313 	0.0020141 	-0.296864
0.000347178 	-0.00570959 	0.0142847 	-0.356461
0.000516194 	-0.000807731 	0.00207017 	-0.29636
0.000516194 	-0.0054185 	0.0143723 	-0.355772
0.000682232 	-0.000723489 	0.00213459 	-0.29565
0.000682232 	-0.00508143 	0.0145865 	-0.35446
0.000845345 	-0.000638856 	0.00221413 	-0.294815
0.000845345 	-0.00476064 	0.0149046 	-0.353409
0.00100559 	-0.000559945 	0.00223868 	-0.293847
0.00100559 	-0.00448766 	0.0148512 	-0.352786
0.001163 	-0.000448468 	0.00214764 	-0.292349
0.001163 	-0.00398954 	0.0141178 	-0.349761
0.00131765 	-0.000223742 	0.00211074 	-0.289688
0.00131765 	-0.00273642 	0.0138365 	-0.339344
0.00146957 	7.66077e-05 	0.00229453 	-0.286241
0.00146957 	-0.00105678 	0.0146851 	-0.324403
0.00161881 	0.000329736 	0.00251687 	-0.282705
0.00161881 	0.000170096 	0.0153232 	-0.31291
0.00176543 	0.000500734 	0.00252244 	-0.278796
0.00176543 	0.000782205 	0.0151894 	-0.306634
0.00190946 	0.000611543 	0.00239058 	-0.274946
0.00190946 	0.00104555 	0.0149548 	-0.303434
0.00205095 	0.000697151 	0.00235365 	-0.27195
0.00205095 	0.00119619 	0.0149131 	-0.301194
0.00218995 	0.000778737 	0.00240599 	-0.269691
0.00218995 	0.00133097 	0.0149359 	-0.299001
0.00232651 	0.000854699 	0.00243717 	-0.267818
0.00232651 	0.00144248 	0.0149115 	-0.296951
0.00246065 	0.000922958 	0.00242928 	-0.266068
0.00246065 	0.00151417 	0.0148665 	-0.295249
0.00259244 	0.00098573 	0.0024162 	-0.264352
0.00259244 	0.00156242 	0.0148206 	-0.293659
0.0027219 	0.0010449 	0.00240561 	-0.262661
0.0027219 	0.00161234 	0.0147448 	-0.291885
0.00284909 	0.00110226 	0.0023904 	-0.260975
0.00284909 	0.00166947 	0.0146317 	-0.289958
0.00297403 	0.00115974 	0.00237835 	-0.259267
0.00297403 	0.00173241 	0.014495 	-0.287973
0.00309677 	0.00121972 	0.0023404 	-0.257501
0.00309677 	0.00180495 	0.0142676 	-0.285947
0.00321735 	0.00128614 	0.00227481 	-0.255676
0.00321735 	0.00189714 	0.0141729 	-0.283817
0.0033358 	0.00135679 	0.00227737 	-0.253917
0.0033358 	0.00195632 	0.0145284 	-0.281838
0.00345217 	0.00141849 	0.00236888 	-0.252304
0.00345217 	0.00183742 	0.0147997 	-0.280886
0.00356649 	0.0014764 	0.00239565 	-0.25036
0.00356649 	0.00155128 	0.0140051 	-0.28088
0.00367879 	0.0015884 	0.00216801 	-0.24708
0.00367879 	0.00161466 	0.0123006 	-0.278306
0.00378912 	0.00269076 	0.0118224 	-0.269368
0.00378912 	0.00182951 	0.00197461 	-0.242503
0.0038975 	0.00213244 	0.00202986 	-0.238163
0.0038975 	0.00424465 	0.0128262 	-0.258938
0.00400397 	0.00237895 	0.00212686 	-0.234963
0.00400397 	0.00532713 	0.0135436 	-0.25264
0.00410857 	0.00254923 	0.00211077 	-0.232576
0.00410857 	0.00581283 	0.013256 	-0.249347
0.00421133 	0.00266632 	0.00198656 	-0.230522
0.00421133 	0.00593574 	0.0124778 	-0.247307
0.00431227 	0.00276483 	0.00191594 	-0.228539
0.00431227 	0.00596401 	0.0121322 	-0.245478
0.00441144 	0.00285409 	0.00188346 	-0.226563
0.00441144 	0.00598376 	0.0120115 	-0.2436
0.00450886 	0.0029289 	0.00184137 	-0.224591
0.00450886 	0.00598476 	0.0117745 	-0.241711
0.00460456 	0.00298655 	0.00178226 	-0.222609
0.00460456 	0.00596188 	0.0115147 	-0.239813
0.00469858 	0.00303277 	0.00167656 	-0.220623
0.00469858 	0.00591536 	0.011261 	-0.237909
0.00479094 	0.00308051 	0.00158831 	-0.218697
0.00479094 	0.0058389 	0.0110117 	-0.236023
0.00488168 	0.003132 	0.00158984 	-0.216821
0.00488168 	0.00572246 	0.0107578 	-0.234242
0.00497081 	0.00316279 	0.00164498 	-0.214701
0.00497081 	0.00556605 	0.0104919 	-0.232661
0.00505838 	0.00314189 	0.00160898 	-0.211966
0.00505838 	0.00538529 	0.0102115 	-0.231241
0.0051444 	0.00307866 	0.00146096 	-0.208895
0.0051444 	0.00520191 	0.00992748 	-0.229793
0.00522891 	0.00301232 	0.00132092 	-0.206051
0.00522891 	0.00502633 	0.00965087 	-0.228168
0.00531193 	0.00485307 	0.00938125 	-0.226364
0.00531193 	0.00297475 	0.00126973 	-0.203523
0.00539348 	0.00296689 	0.00126289 	-0.201142
0.00539348 	0.00466968 	0.00911174 	-0.224444
0.0054736 	0.00296347 	0.00120735 	-0.198759
0.0054736 	0.00446809 	0.00883618 	-0.222456
0.00555231 	0.00295267 	0.00113563 	-0.196314
0.00555231 	0.00424781 	0.00855747 	-0.220416
0.00562963 	0.00293632 	0.00107982 	-0.193799
0.00562963 	0.00400918 	0.00827725 	-0.218326
0.00570559 	0.00291556 	0.00102343 	-0.191201
0.00570559 	0.00375099 	0.00799086 	-0.21618
0.00578022 	0.00289086 	0.00096527 	-0.188508
0.00578022 	0.00347243 	0.00769837 	-0.213975
0.00585352 	0.00286249 	0.000906652 	-0.185702
0.00585352 	0.00317453 	0.00740016 	-0.211704
0.00592554 	0.00283081 	0.000849012 	-0.182766
0.00592554 	0.00286046 	0.00709809 	-0.209355
0.00599629 	0.00279631 	0.000792639 	-0.17968
0.00599629 	0.00253378 	0.0067951 	-0.206902
0.00606579 	0.00219723 	0.00648839 	-0.204308
0.00606579 	0.00275937 	0.000737203 	-0.176423
0.00613406 	0.00271966 	0.000683225 	-0.172972
0.00613406 	0.00185302 	0.0061778 	-0.201525
0.00620114 	0.00267608 	0.000631312 	-0.169291
0.00620114 	0.00150336 	0.00586546 	-0.198509
0.00626703 	0.00262711 	0.000581261 	-0.165339
0.00626703 	0.00115096 	0.0055501 	-0.195216
0.00633176 	0.00257124 	0.000532299 	-0.16108
0.00633176 	0.000799574 	0.00523031 	-0.191606
0.00639535 	0.00250756 	0.000484263 	-0.156481
0.00639535 	0.000454385 	0.00490725 	-0.187623
0.00645783 	0.00243535 	0.000438055 	-0.151512
0.00645783 	0.000122098 	0.0045842 	-0.183205
0.0065192 	0.00235356 	0.000394379 	-0.146144
0.0065192 	-0.000190069 	0.00426287 	-0.17829
0.00657949 	0.00226122 	0.000353083 	-0.140354
0.00657949 	-0.000476198 	0.00394385 	-0.172824
0.00663871 	0.00215831 	0.000313908 	-0.134124
0.00663871 	-0.000733774 	0.00362838 	-0.166767
0.0066969 	0.00204569 	0.000277107 	-0.127447
0.0066969 	-0.000965599 	0.00331563 	-0.1601
0.00675406 	0.00192391 	0.000242888 	-0.12031
0.00675406 	-0.00117714 	0.00300439 	-0.152805
0.00681021 	0.00179352 	0.000211197 	-0.112698
0.00681021 	-0.00136856 	0.00269404 	-0.144811
0.00686537 	0.00165593 	0.000181759 	-0.104614
0.00686537 	-0.00152831 	0.00238751 	-0.136011
0.00691956 	0.00151351 	0.000154657 	-0.0960951
0.00691956 	-0.00163449 	0.00209244 	-0.12633
0.0069728 	0.00136982 	0.000130278 	-0.0872222
0.0069728 	-0.00166366 	0.00181272 	-0.115764
0.0070251 	0.00122901 	0.000108402 	-0.0781171
0.0070251 	-0.00159912 	0.00154936 	-0.104411
0.00707647 	0.0010947 	8.86921e-05 	-0.068929
0.00707647 	-0.00143546 	0.00130501 	-0.0924655
0.00712695 	0.000969296 	7.10544e-05 	-0.059813
0.00712695 	-0.00118219 	0.00108193 	-0.0802019
0.00717653 	0.000853478 	5.53548e-05 	-0.0509073
0.00717653 	-0.000865332 	0.000880825 	-0.0679275
0.00722524 	0.000746353 	4.13749e-05 	-0.0423212
0.00722524 	-0.000525367 	0.000698129 	-0.0559341
0.00727309 	0.000645832 	2.90709e-05 	-0.0341403
0.00727309 	-0.000215852 	0.000535827 	-0.0444838
0.0073201 	0.000548738 	1.88376e-05 	-0.026448
0.0073201 	-7.86063e-06 	0.000408615 	-0.0338469
0.00736628 	0.000450243 	9.08986e-06 	-0.0193519
0.00736628 	-3.76626e-06 	0.000229895 	-0.0243769
0.00741165 	0.000333251 	3.79561e-06 	-0.0128229
0.00741165 	-0.000186752 	0.000150052 	-0.0161552
0.00745622 	0.000178393 	1.09191e-06 	-0.0065068
0.00745622 	-0.000271682 	7.29254e-05 	-0.00839281
0.0075 	0 	0 	0
0.0075 	0 	0 	0
