/*--------------------------------*- C++ -*----------------------------------*\
| =========                 |                                                 |
| \\      /  F ield         | OpenFOAM: The Open Source CFD Toolbox           |
|  \\    /   O peration     | Version:  v1912                                 |
|   \\  /    A nd           | Website:  www.openfoam.com                      |
|    \\/     M anipulation  |                                                 |
\*---------------------------------------------------------------------------*/
FoamFile
{
    version     2.0;
    format      ascii;
    class       volScalarField;
    location    "10.4";
    object      k;
}
// * * * * * * * * * * * * * * * * * * * * * * * * * * * * * * * * * * * * * //

dimensions      [0 2 -2 0 0 0 0];


internalField   nonuniform List<scalar> 
34128
(
2.54234e-07
2.542e-07
2.58664e-07
2.63512e-07
2.58442e-07
2.48351e-07
2.52434e-07
2.68898e-07
2.85164e-07
2.8935e-07
2.775e-07
2.70824e-07
4.96966e-08
4.95746e-08
5.04572e-08
5.17564e-08
5.14719e-08
4.9937e-08
5.04884e-08
5.31728e-08
5.53287e-08
5.48683e-08
5.23423e-08
5.17636e-08
8.30614e-08
8.22656e-08
8.37625e-08
8.77384e-08
9.09585e-08
9.06934e-08
9.03308e-08
9.20314e-08
9.03072e-08
8.28829e-08
7.75714e-08
8.03873e-08
2.54331e-07
2.51483e-07
2.55921e-07
2.69156e-07
2.81461e-07
2.82212e-07
2.80264e-07
2.83644e-07
2.74962e-07
2.48041e-07
2.31132e-07
2.42143e-07
6.27924e-07
6.2052e-07
6.30889e-07
6.63832e-07
6.95715e-07
6.98641e-07
6.93342e-07
7.00583e-07
6.77406e-07
6.09068e-07
5.67201e-07
5.95491e-07
1.28546e-06
1.26952e-06
1.28914e-06
1.35643e-06
1.42391e-06
1.43169e-06
1.42012e-06
1.43319e-06
1.38353e-06
1.24194e-06
1.15659e-06
1.21563e-06
2.3047e-06
2.27438e-06
2.306e-06
2.42583e-06
2.55087e-06
2.56843e-06
2.54628e-06
2.56599e-06
2.47285e-06
2.21692e-06
2.06535e-06
2.17289e-06
3.74385e-06
3.69116e-06
3.73552e-06
3.92798e-06
4.13804e-06
4.17343e-06
4.13484e-06
4.15944e-06
4.0007e-06
3.58278e-06
3.34038e-06
3.51757e-06
5.62563e-06
5.5403e-06
5.59454e-06
5.87897e-06
6.20521e-06
6.26998e-06
6.20762e-06
6.23155e-06
5.9811e-06
5.35212e-06
4.99595e-06
5.2653e-06
7.92581e-06
7.79543e-06
7.85169e-06
8.24337e-06
8.7175e-06
8.82635e-06
8.73188e-06
8.74535e-06
8.37585e-06
7.49231e-06
7.00495e-06
7.38726e-06
1.05711e-05
1.03817e-05
1.04262e-05
1.09334e-05
1.15838e-05
1.17531e-05
1.1618e-05
1.1608e-05
1.1095e-05
9.92598e-06
9.29862e-06
9.80953e-06
1.34475e-05
1.31842e-05
1.31977e-05
1.38196e-05
1.46674e-05
1.49132e-05
1.473e-05
1.46823e-05
1.40083e-05
1.25411e-05
1.17751e-05
1.2422e-05
1.64151e-05
1.60641e-05
1.60225e-05
1.67485e-05
1.7805e-05
1.81408e-05
1.7904e-05
1.78055e-05
1.69637e-05
1.52066e-05
1.4313e-05
1.50934e-05
1.9352e-05
1.88999e-05
1.8778e-05
1.95965e-05
2.0871e-05
2.13076e-05
2.10142e-05
2.08568e-05
1.98464e-05
1.78128e-05
1.68019e-05
1.77081e-05
2.21977e-05
2.16322e-05
2.14037e-05
2.22993e-05
2.3796e-05
2.43422e-05
2.39914e-05
2.3769e-05
2.25945e-05
2.03065e-05
1.91912e-05
2.02104e-05
2.48994e-05
2.42106e-05
2.38494e-05
2.48039e-05
2.65222e-05
2.71843e-05
2.67777e-05
2.64864e-05
2.51566e-05
2.26437e-05
2.14387e-05
2.25541e-05
2.7415e-05
2.65955e-05
2.6078e-05
2.70713e-05
2.90054e-05
2.97876e-05
2.93292e-05
2.89669e-05
2.74943e-05
2.47912e-05
2.35127e-05
2.47037e-05
2.97127e-05
2.87586e-05
2.80644e-05
2.90752e-05
3.12147e-05
3.21191e-05
3.16152e-05
3.11814e-05
2.95805e-05
2.67259e-05
2.53909e-05
2.66347e-05
3.17704e-05
3.06818e-05
2.97946e-05
3.08011e-05
3.31308e-05
3.41586e-05
3.36172e-05
3.31125e-05
3.13987e-05
2.84336e-05
2.70598e-05
2.83319e-05
3.35747e-05
3.23553e-05
3.1264e-05
3.22441e-05
3.4745e-05
3.58957e-05
3.53267e-05
3.47521e-05
3.2941e-05
2.99077e-05
2.85131e-05
2.97884e-05
3.51195e-05
3.37767e-05
3.24755e-05
3.34072e-05
3.60562e-05
3.73286e-05
3.67432e-05
3.60998e-05
3.42062e-05
3.11475e-05
2.97506e-05
3.10041e-05
3.64035e-05
3.4949e-05
3.34372e-05
3.4299e-05
3.70692e-05
3.84608e-05
3.78714e-05
3.71596e-05
3.51979e-05
3.21566e-05
3.07766e-05
3.19837e-05
3.74281e-05
3.58779e-05
3.41608e-05
3.4931e-05
3.77913e-05
3.92981e-05
3.87177e-05
3.79377e-05
3.5922e-05
3.29411e-05
3.15981e-05
3.27353e-05
3.81939e-05
3.65692e-05
3.46578e-05
3.5315e-05
3.82297e-05
3.98456e-05
3.92873e-05
3.84388e-05
3.63842e-05
3.35066e-05
3.22224e-05
3.32677e-05
3.86983e-05
3.70254e-05
3.49376e-05
3.54607e-05
3.83884e-05
4.01046e-05
3.95808e-05
3.86641e-05
3.65874e-05
3.38562e-05
3.26545e-05
3.35879e-05
3.8933e-05
3.72435e-05
3.50048e-05
3.5373e-05
3.82673e-05
4.00714e-05
3.95934e-05
3.86097e-05
3.65299e-05
3.39886e-05
3.28952e-05
3.36994e-05
3.88836e-05
3.72137e-05
3.4858e-05
3.50521e-05
3.78612e-05
3.97358e-05
3.93137e-05
3.82661e-05
3.62058e-05
3.38971e-05
3.29393e-05
3.36007e-05
3.85191e-05
3.69128e-05
3.44884e-05
3.44921e-05
3.71543e-05
3.90688e-05
3.87114e-05
3.76106e-05
3.56016e-05
3.35689e-05
3.27755e-05
3.32846e-05
3.77737e-05
3.62856e-05
3.38687e-05
3.36717e-05
3.61077e-05
3.80106e-05
3.77242e-05
3.65941e-05
3.4685e-05
3.29771e-05
3.23807e-05
3.27327e-05
3.65874e-05
3.52692e-05
3.29544e-05
3.2558e-05
3.46869e-05
3.65185e-05
3.63043e-05
3.5176e-05
3.34206e-05
3.20822e-05
3.17159e-05
3.19118e-05
3.49712e-05
3.38568e-05
3.17264e-05
3.11461e-05
3.29136e-05
3.46249e-05
3.44784e-05
3.33793e-05
3.18179e-05
3.08684e-05
3.0754e-05
3.0801e-05
3.30187e-05
3.21247e-05
3.02309e-05
2.94863e-05
3.08684e-05
3.243e-05
3.23441e-05
3.12904e-05
2.99427e-05
2.93787e-05
2.95193e-05
2.94312e-05
3.07747e-05
3.00995e-05
2.84721e-05
2.76017e-05
2.86008e-05
2.99906e-05
2.99546e-05
2.89621e-05
2.78361e-05
2.76269e-05
2.79902e-05
2.77976e-05
2.83164e-05
2.78464e-05
2.65025e-05
2.55471e-05
2.6187e-05
2.73917e-05
2.73928e-05
2.64753e-05
2.55683e-05
2.56692e-05
2.62235e-05
2.59526e-05
2.5735e-05
2.54468e-05
2.43875e-05
2.33897e-05
2.37106e-05
2.4726e-05
2.47514e-05
2.39193e-05
2.32191e-05
2.35746e-05
2.42829e-05
2.39583e-05
2.31226e-05
2.29859e-05
2.21974e-05
2.11986e-05
2.12519e-05
2.20829e-05
2.21209e-05
2.13809e-05
2.08674e-05
2.14164e-05
2.2237e-05
2.18814e-05
2.05641e-05
2.05455e-05
2.00015e-05
1.90384e-05
1.88823e-05
1.95412e-05
1.95823e-05
1.89372e-05
1.85849e-05
1.9265e-05
2.01539e-05
1.97875e-05
1.8132e-05
1.81983e-05
1.78633e-05
1.6966e-05
1.66596e-05
1.7165e-05
1.72023e-05
1.6651e-05
1.64314e-05
1.71833e-05
1.80975e-05
1.77371e-05
1.5883e-05
1.6004e-05
1.58375e-05
1.50278e-05
1.46268e-05
1.5001e-05
1.50306e-05
1.45689e-05
1.44526e-05
1.52236e-05
1.61236e-05
1.57826e-05
1.38568e-05
1.40075e-05
1.39677e-05
1.32587e-05
1.28117e-05
1.30788e-05
1.30995e-05
1.27208e-05
1.26798e-05
1.34259e-05
1.4278e-05
1.39664e-05
1.20767e-05
1.22382e-05
1.22857e-05
1.16821e-05
1.12286e-05
1.14127e-05
1.14254e-05
1.11216e-05
1.11305e-05
1.18177e-05
1.25953e-05
1.23201e-05
1.05518e-05
1.07116e-05
1.08118e-05
1.0311e-05
9.8809e-06
1.00045e-05
1.0012e-05
9.77412e-06
9.81126e-06
1.04147e-05
1.1099e-05
1.08646e-05
9.28038e-06
9.43156e-06
9.55585e-06
9.15001e-06
8.76374e-06
8.84691e-06
8.85303e-06
8.67252e-06
8.72011e-06
9.22329e-06
9.8024e-06
9.61137e-06
8.25315e-06
8.39339e-06
8.51948e-06
8.19723e-06
7.86747e-06
7.92762e-06
7.93684e-06
7.80565e-06
7.8497e-06
8.24236e-06
8.7107e-06
8.56429e-06
7.45692e-06
7.58735e-06
7.69875e-06
7.44698e-06
7.18028e-06
7.2319e-06
7.24897e-06
7.16011e-06
7.19006e-06
7.46644e-06
7.82295e-06
7.72161e-06
6.87723e-06
7.00129e-06
7.08645e-06
6.89184e-06
6.69048e-06
6.74529e-06
6.77478e-06
6.72241e-06
6.73069e-06
6.88789e-06
7.13464e-06
7.0783e-06
6.50035e-06
6.62238e-06
6.67419e-06
6.52435e-06
6.38809e-06
6.45476e-06
6.50059e-06
6.47988e-06
6.46166e-06
6.49882e-06
6.63993e-06
6.62788e-06
6.31338e-06
6.43667e-06
6.45319e-06
6.33724e-06
6.26357e-06
6.34636e-06
6.4112e-06
6.41569e-06
6.37003e-06
6.29162e-06
6.33332e-06
6.36355e-06
6.28701e-06
6.41686e-06
6.40706e-06
6.30334e-06
6.24986e-06
6.35138e-06
6.43537e-06
6.46039e-06
6.38925e-06
6.24532e-06
6.20831e-06
6.27518e-06
6.36757e-06
6.50589e-06
6.47001e-06
6.37506e-06
6.34e-06
6.45576e-06
6.55022e-06
6.5855e-06
6.50376e-06
6.30369e-06
6.19767e-06
6.29576e-06
6.52342e-06
6.66614e-06
6.62037e-06
6.53232e-06
6.50461e-06
6.61573e-06
6.70112e-06
6.73544e-06
6.66837e-06
6.45122e-06
6.29067e-06
6.41516e-06
6.69978e-06
6.8367e-06
6.80533e-06
6.72831e-06
6.68765e-06
6.77325e-06
6.83831e-06
6.86777e-06
6.82593e-06
6.645e-06
6.46737e-06
6.60343e-06
6.85504e-06
6.98318e-06
6.97172e-06
6.9072e-06
6.84823e-06
6.90799e-06
6.95604e-06
6.9831e-06
6.964e-06
6.8281e-06
6.67941e-06
6.8049e-06
6.99089e-06
7.1103e-06
7.11287e-06
7.05924e-06
6.98847e-06
7.0267e-06
7.06087e-06
7.08712e-06
7.08875e-06
6.98899e-06
6.87376e-06
6.98315e-06
7.11357e-06
7.22386e-06
7.23579e-06
7.19228e-06
7.11474e-06
7.13453e-06
7.15677e-06
7.18283e-06
7.20365e-06
7.13411e-06
7.04488e-06
7.14137e-06
7.22657e-06
7.32711e-06
7.3447e-06
7.31111e-06
7.23065e-06
7.23428e-06
7.24566e-06
7.27141e-06
7.30997e-06
7.26701e-06
7.19852e-06
7.28395e-06
7.33149e-06
7.42151e-06
7.4418e-06
7.41815e-06
7.33784e-06
7.32718e-06
7.32824e-06
7.35304e-06
7.40776e-06
7.38899e-06
7.33779e-06
7.41319e-06
7.42871e-06
7.50748e-06
7.528e-06
7.51434e-06
7.43679e-06
7.41352e-06
7.40454e-06
7.42742e-06
7.49645e-06
7.50005e-06
7.46391e-06
7.52994e-06
7.51802e-06
7.58492e-06
7.6036e-06
7.59986e-06
7.52737e-06
7.49317e-06
7.47433e-06
7.49418e-06
7.57541e-06
7.59962e-06
7.57701e-06
7.63426e-06
7.59902e-06
7.6536e-06
7.6687e-06
7.67461e-06
7.60923e-06
7.56585e-06
7.53737e-06
7.55308e-06
7.6442e-06
7.68706e-06
7.67677e-06
7.72595e-06
7.67133e-06
7.71333e-06
7.72343e-06
7.73853e-06
7.68206e-06
7.63135e-06
7.59356e-06
7.60408e-06
7.70264e-06
7.76193e-06
7.76286e-06
7.80485e-06
7.7347e-06
7.76406e-06
7.76805e-06
7.79169e-06
7.74566e-06
7.68954e-06
7.64289e-06
7.64732e-06
7.75086e-06
7.82413e-06
7.83516e-06
7.87098e-06
7.78904e-06
7.80591e-06
7.803e-06
7.83434e-06
7.79999e-06
7.74045e-06
7.68553e-06
7.68315e-06
7.78927e-06
7.8739e-06
7.89386e-06
7.92461e-06
7.83444e-06
7.83915e-06
7.82882e-06
7.86692e-06
7.84515e-06
7.78422e-06
7.72177e-06
7.71205e-06
7.8185e-06
7.91179e-06
7.93946e-06
7.96624e-06
7.87113e-06
7.86419e-06
7.84624e-06
7.89003e-06
7.8814e-06
7.82109e-06
7.752e-06
7.73463e-06
7.83935e-06
7.93865e-06
7.97276e-06
7.99663e-06
7.89945e-06
7.88157e-06
7.85608e-06
7.90442e-06
7.90915e-06
7.8514e-06
7.77671e-06
7.7516e-06
7.85278e-06
7.95555e-06
7.99482e-06
8.01671e-06
7.91991e-06
7.89197e-06
7.85926e-06
7.911e-06
7.9289e-06
7.87557e-06
7.79644e-06
7.76374e-06
7.85987e-06
7.96373e-06
8.0069e-06
8.02758e-06
7.93312e-06
7.89619e-06
7.85682e-06
7.91081e-06
7.94131e-06
7.89409e-06
7.81184e-06
7.7719e-06
7.86178e-06
7.96463e-06
8.01044e-06
8.03052e-06
7.93983e-06
7.89512e-06
7.8499e-06
7.90502e-06
7.94717e-06
7.90754e-06
7.8236e-06
7.77699e-06
7.85974e-06
7.95977e-06
8.00704e-06
8.02692e-06
7.9409e-06
7.8898e-06
7.83971e-06
7.89493e-06
7.94742e-06
7.91657e-06
7.83247e-06
7.77995e-06
7.85501e-06
7.95076e-06
7.99836e-06
8.01825e-06
7.93735e-06
7.88134e-06
7.82752e-06
7.88196e-06
7.94314e-06
7.92193e-06
7.83924e-06
7.78172e-06
7.84887e-06
7.93924e-06
7.98615e-06
8.00606e-06
7.93026e-06
7.87092e-06
7.81466e-06
7.86758e-06
7.93557e-06
7.92446e-06
7.84473e-06
7.78324e-06
7.84257e-06
7.92684e-06
7.97214e-06
7.99193e-06
7.92084e-06
7.85979e-06
7.80249e-06
7.85336e-06
7.92608e-06
7.92505e-06
7.84976e-06
7.78541e-06
7.83725e-06
7.91511e-06
7.95801e-06
7.97741e-06
7.91034e-06
7.84923e-06
7.79232e-06
7.84088e-06
7.91615e-06
7.92472e-06
7.85516e-06
7.78905e-06
7.83398e-06
7.90547e-06
7.94533e-06
7.96396e-06
7.90006e-06
7.84048e-06
7.78547e-06
7.83169e-06
7.90736e-06
7.92452e-06
7.86168e-06
7.79487e-06
7.83364e-06
7.89918e-06
7.9355e-06
7.95297e-06
7.89127e-06
7.83474e-06
7.78315e-06
7.82729e-06
7.9013e-06
7.92555e-06
7.87003e-06
7.80343e-06
7.83691e-06
7.89724e-06
7.92974e-06
7.94564e-06
7.8852e-06
7.83312e-06
7.78648e-06
7.82909e-06
7.89957e-06
7.92895e-06
7.88083e-06
7.81512e-06
7.84426e-06
7.9004e-06
7.92899e-06
7.94303e-06
7.88297e-06
7.83662e-06
7.79642e-06
7.83832e-06
7.90367e-06
7.93583e-06
7.89456e-06
7.83013e-06
7.85587e-06
7.9091e-06
7.93395e-06
7.94596e-06
7.88555e-06
7.846e-06
7.81375e-06
7.85602e-06
7.91499e-06
7.94722e-06
7.91155e-06
7.8484e-06
7.87163e-06
7.92345e-06
7.94502e-06
7.955e-06
2.73115e-07
2.71895e-07
2.76348e-07
2.84232e-07
2.82566e-07
2.72458e-07
2.75471e-07
2.91386e-07
3.0574e-07
3.05518e-07
2.90506e-07
2.85996e-07
5.16577e-08
5.11094e-08
5.15654e-08
5.32446e-08
5.38012e-08
5.24234e-08
5.2714e-08
5.52595e-08
5.7094e-08
5.59204e-08
5.29315e-08
5.27182e-08
7.74746e-08
7.49758e-08
7.35828e-08
7.71025e-08
8.26284e-08
8.34462e-08
8.23876e-08
8.36922e-08
8.16899e-08
7.3838e-08
6.85512e-08
7.16733e-08
2.31832e-07
2.2321e-07
2.1751e-07
2.28682e-07
2.48536e-07
2.53072e-07
2.48878e-07
2.50973e-07
2.41605e-07
2.13905e-07
1.97574e-07
2.09272e-07
5.70337e-07
5.48595e-07
5.33552e-07
5.61134e-07
6.11642e-07
6.23995e-07
6.13254e-07
6.17396e-07
5.92634e-07
5.22797e-07
4.82593e-07
5.12259e-07
1.16603e-06
1.12096e-06
1.08854e-06
1.1446e-06
1.24973e-06
1.27664e-06
1.25434e-06
1.26136e-06
1.2087e-06
1.06486e-06
9.83176e-07
1.0443e-06
2.08822e-06
2.00635e-06
1.94498e-06
2.0442e-06
2.23541e-06
2.28677e-06
2.24634e-06
2.25602e-06
2.15812e-06
1.89993e-06
1.75535e-06
1.865e-06
3.38766e-06
3.25272e-06
3.14696e-06
3.30503e-06
3.61963e-06
3.70871e-06
3.64241e-06
3.65246e-06
3.48758e-06
3.06946e-06
2.83909e-06
3.01653e-06
5.08202e-06
4.87598e-06
4.70678e-06
4.93779e-06
5.41541e-06
5.55849e-06
5.45815e-06
5.46357e-06
5.20713e-06
4.58398e-06
4.24688e-06
4.51106e-06
7.14567e-06
6.85035e-06
6.59589e-06
6.9094e-06
7.58693e-06
7.80199e-06
7.66015e-06
7.65328e-06
7.2811e-06
6.41544e-06
5.95623e-06
6.32255e-06
9.5083e-06
9.10733e-06
8.74458e-06
9.14296e-06
1.00491e-05
1.03537e-05
1.0165e-05
1.01366e-05
9.62897e-06
8.49785e-06
7.90951e-06
8.3866e-06
1.20629e-05
1.15437e-05
1.10505e-05
1.15274e-05
1.26779e-05
1.30868e-05
1.28492e-05
1.27903e-05
1.21359e-05
1.07358e-05
1.0021e-05
1.06083e-05
1.46798e-05
1.40356e-05
1.33928e-05
1.39329e-05
1.53278e-05
1.58508e-05
1.55668e-05
1.54703e-05
1.46685e-05
1.30175e-05
1.21884e-05
1.28752e-05
1.72554e-05
1.64824e-05
1.56737e-05
1.62621e-05
1.78983e-05
1.85422e-05
1.82169e-05
1.80794e-05
1.71332e-05
1.52528e-05
1.43203e-05
1.50916e-05
1.97334e-05
1.88319e-05
1.78436e-05
1.84621e-05
2.0329e-05
2.1098e-05
2.07394e-05
2.0559e-05
1.94761e-05
1.73968e-05
1.63744e-05
1.72106e-05
2.20652e-05
2.104e-05
1.98625e-05
2.04906e-05
2.25703e-05
2.34663e-05
2.30848e-05
2.28611e-05
2.16529e-05
1.94115e-05
1.8315e-05
1.91934e-05
2.42122e-05
2.30725e-05
2.17011e-05
2.23167e-05
2.4585e-05
2.56078e-05
2.52162e-05
2.49494e-05
2.36299e-05
2.12681e-05
2.01145e-05
2.10106e-05
2.61451e-05
2.49047e-05
2.33405e-05
2.39208e-05
2.63479e-05
2.7495e-05
2.71077e-05
2.67986e-05
2.53831e-05
2.29455e-05
2.17534e-05
2.26417e-05
2.78437e-05
2.6521e-05
2.47703e-05
2.52925e-05
2.78438e-05
2.9111e-05
2.87436e-05
2.83924e-05
2.6897e-05
2.44297e-05
2.32186e-05
2.4074e-05
2.92953e-05
2.79132e-05
2.59877e-05
2.64296e-05
2.90668e-05
3.04478e-05
3.01163e-05
2.97227e-05
2.81634e-05
2.57125e-05
2.45031e-05
2.53019e-05
3.04942e-05
2.90795e-05
2.69962e-05
2.73359e-05
3.00179e-05
3.15051e-05
3.12245e-05
3.07874e-05
2.91803e-05
2.67907e-05
2.56044e-05
2.63253e-05
3.144e-05
3.0023e-05
2.7803e-05
2.80195e-05
3.07032e-05
3.22873e-05
3.20713e-05
3.15888e-05
2.99501e-05
2.76649e-05
2.65236e-05
2.71482e-05
3.21352e-05
3.07489e-05
2.84181e-05
2.84913e-05
3.11317e-05
3.28021e-05
3.26615e-05
3.21313e-05
3.04779e-05
2.83376e-05
2.72639e-05
2.77778e-05
3.25834e-05
3.12624e-05
2.88513e-05
2.87622e-05
3.13128e-05
3.3057e-05
3.3e-05
3.24197e-05
3.07692e-05
2.88115e-05
2.78285e-05
2.82216e-05
3.27868e-05
3.15654e-05
2.91103e-05
2.88419e-05
3.12547e-05
3.30574e-05
3.3089e-05
3.24565e-05
3.08282e-05
2.9088e-05
2.82192e-05
2.8486e-05
3.27446e-05
3.16556e-05
2.91984e-05
2.87369e-05
3.09635e-05
3.28061e-05
3.29276e-05
3.2242e-05
3.06567e-05
2.91652e-05
2.84345e-05
2.85744e-05
3.24526e-05
3.15262e-05
2.9114e-05
2.84508e-05
3.04438e-05
3.23032e-05
3.25116e-05
3.17739e-05
3.02544e-05
2.90381e-05
2.84689e-05
2.84861e-05
3.18976e-05
3.11589e-05
2.88489e-05
2.79832e-05
2.96979e-05
3.15417e-05
3.18275e-05
3.10452e-05
2.96182e-05
2.86984e-05
2.83126e-05
2.82157e-05
3.10467e-05
3.05105e-05
2.83779e-05
2.73263e-05
2.87196e-05
3.04993e-05
3.08445e-05
3.00363e-05
2.87375e-05
2.81303e-05
2.79474e-05
2.77488e-05
2.98717e-05
2.95373e-05
2.76623e-05
2.64628e-05
2.75028e-05
2.9163e-05
2.95428e-05
2.87354e-05
2.76007e-05
2.73113e-05
2.73438e-05
2.70583e-05
2.8394e-05
2.82469e-05
2.66873e-05
2.53891e-05
2.60659e-05
2.75606e-05
2.79506e-05
2.71673e-05
2.6222e-05
2.62366e-05
2.64849e-05
2.61299e-05
2.66866e-05
2.67097e-05
2.54937e-05
2.4138e-05
2.44573e-05
2.57597e-05
2.61406e-05
2.53944e-05
2.46481e-05
2.49423e-05
2.53967e-05
2.49923e-05
2.47854e-05
2.49491e-05
2.40721e-05
2.27119e-05
2.27082e-05
2.38038e-05
2.41575e-05
2.34613e-05
2.29105e-05
2.34404e-05
2.40619e-05
2.36332e-05
2.27533e-05
2.30211e-05
2.24643e-05
2.11477e-05
2.08714e-05
2.1757e-05
2.20686e-05
2.14334e-05
2.10646e-05
2.17778e-05
2.25288e-05
2.20941e-05
2.0662e-05
2.09958e-05
2.07252e-05
1.94942e-05
1.9005e-05
1.96879e-05
1.99473e-05
1.93808e-05
1.9173e-05
2.00135e-05
2.08532e-05
2.04272e-05
1.85818e-05
1.89456e-05
1.89159e-05
1.78038e-05
1.71647e-05
1.76616e-05
1.78637e-05
1.737e-05
1.72966e-05
1.82092e-05
1.90959e-05
1.86901e-05
1.65755e-05
1.6939e-05
1.70976e-05
1.61271e-05
1.53995e-05
1.57339e-05
1.58787e-05
1.54582e-05
1.549e-05
1.64234e-05
1.73173e-05
1.69401e-05
1.46946e-05
1.50351e-05
1.53276e-05
1.45098e-05
1.37486e-05
1.39486e-05
1.40407e-05
1.36904e-05
1.37974e-05
1.47077e-05
1.55732e-05
1.52307e-05
1.29771e-05
1.32808e-05
1.36557e-05
1.29904e-05
1.22411e-05
1.23363e-05
1.23836e-05
1.20983e-05
1.22522e-05
1.31037e-05
1.39119e-05
1.36084e-05
1.14482e-05
1.17094e-05
1.21217e-05
1.15992e-05
1.08958e-05
1.09155e-05
1.09284e-05
1.07012e-05
1.08767e-05
1.1643e-05
1.2372e-05
1.2111e-05
1.01209e-05
1.0341e-05
1.07545e-05
1.03579e-05
9.72291e-06
9.69401e-06
9.68418e-06
9.50754e-06
9.68336e-06
1.03462e-05
1.09822e-05
1.07663e-05
8.99892e-06
9.18427e-06
9.57253e-06
9.2803e-06
8.72572e-06
8.67205e-06
8.65152e-06
8.51807e-06
8.67716e-06
9.22529e-06
9.76106e-06
9.59298e-06
8.07921e-06
8.23988e-06
8.5851e-06
8.37368e-06
7.90294e-06
7.84471e-06
7.8253e-06
7.72837e-06
7.85759e-06
8.28482e-06
8.71869e-06
8.60127e-06
7.35518e-06
7.50323e-06
7.79471e-06
7.64058e-06
7.25065e-06
7.20472e-06
7.19772e-06
7.1316e-06
7.22131e-06
7.52447e-06
7.85863e-06
7.79517e-06
6.81908e-06
6.96789e-06
7.1997e-06
7.08073e-06
6.76424e-06
6.74479e-06
6.76075e-06
6.7207e-06
6.76416e-06
6.94126e-06
7.18016e-06
7.17458e-06
6.46413e-06
6.62837e-06
6.79688e-06
6.69297e-06
6.43975e-06
6.45931e-06
6.50772e-06
6.4897e-06
6.48278e-06
6.53163e-06
6.68064e-06
6.73768e-06
6.28474e-06
6.48049e-06
6.58333e-06
6.47633e-06
6.27326e-06
6.34225e-06
6.42916e-06
6.427e-06
6.37221e-06
6.29283e-06
6.35766e-06
6.48269e-06
6.25003e-06
6.46707e-06
6.54459e-06
6.41915e-06
6.22945e-06
6.3255e-06
6.45592e-06
6.46811e-06
6.36294e-06
6.21729e-06
6.20912e-06
6.40368e-06
6.31372e-06
6.56188e-06
6.61582e-06
6.46114e-06
6.28167e-06
6.40808e-06
6.5772e-06
6.59436e-06
6.45402e-06
6.23957e-06
6.18705e-06
6.42855e-06
6.46388e-06
6.73196e-06
6.78101e-06
6.60187e-06
6.4228e-06
6.56791e-06
6.74094e-06
6.7512e-06
6.61304e-06
6.3579e-06
6.27193e-06
6.56033e-06
6.65072e-06
6.9076e-06
6.97227e-06
6.7995e-06
6.6182e-06
6.74982e-06
6.8885e-06
6.88739e-06
6.77763e-06
6.54267e-06
6.44583e-06
6.76316e-06
6.8178e-06
7.05052e-06
7.12993e-06
6.98874e-06
6.80913e-06
6.90821e-06
7.01078e-06
7.00237e-06
6.91922e-06
6.73281e-06
6.66251e-06
6.96561e-06
6.96053e-06
7.16972e-06
7.25627e-06
7.14477e-06
6.97165e-06
7.04303e-06
7.11721e-06
7.10431e-06
7.04466e-06
6.89732e-06
6.85848e-06
7.13216e-06
7.08759e-06
7.27387e-06
7.36234e-06
7.27772e-06
7.11346e-06
7.16223e-06
7.21357e-06
7.19761e-06
7.15915e-06
7.04293e-06
7.02501e-06
7.27281e-06
7.20394e-06
7.36775e-06
7.4545e-06
7.3948e-06
7.241e-06
7.2707e-06
7.30282e-06
7.28415e-06
7.26499e-06
7.17506e-06
7.17103e-06
7.39564e-06
7.31186e-06
7.45347e-06
7.53587e-06
7.49977e-06
7.3579e-06
7.37108e-06
7.38619e-06
7.36441e-06
7.36275e-06
7.29616e-06
7.30163e-06
7.50492e-06
7.41194e-06
7.53163e-06
7.60769e-06
7.59422e-06
7.46588e-06
7.46456e-06
7.46396e-06
7.43823e-06
7.45216e-06
7.40687e-06
7.41912e-06
7.60244e-06
7.50398e-06
7.60211e-06
7.67029e-06
7.67855e-06
7.56552e-06
7.55154e-06
7.53605e-06
7.50527e-06
7.53268e-06
7.50696e-06
7.52417e-06
7.68859e-06
7.58746e-06
7.66458e-06
7.72371e-06
7.75266e-06
7.6568e-06
7.63201e-06
7.60222e-06
7.56527e-06
7.60386e-06
7.59591e-06
7.61676e-06
7.76325e-06
7.6619e-06
7.71876e-06
7.76798e-06
7.81636e-06
7.73946e-06
7.70585e-06
7.66232e-06
7.61812e-06
7.66545e-06
7.67329e-06
7.69668e-06
7.82623e-06
7.72698e-06
7.76454e-06
7.80328e-06
7.86955e-06
7.81322e-06
7.77294e-06
7.71628e-06
7.6639e-06
7.7175e-06
7.73893e-06
7.76389e-06
7.87753e-06
7.78256e-06
7.80197e-06
7.82991e-06
7.9123e-06
7.87788e-06
7.83323e-06
7.76414e-06
7.70283e-06
7.76027e-06
7.79296e-06
7.81858e-06
7.91738e-06
7.8287e-06
7.83128e-06
7.84833e-06
7.94484e-06
7.93332e-06
7.88674e-06
7.80604e-06
7.73526e-06
7.79421e-06
7.8358e-06
7.86123e-06
7.9463e-06
7.8656e-06
7.85285e-06
7.85911e-06
7.96757e-06
7.97954e-06
7.93352e-06
7.84221e-06
7.76164e-06
7.81996e-06
7.86808e-06
7.89256e-06
7.96497e-06
7.89361e-06
7.86716e-06
7.86292e-06
7.98104e-06
8.01661e-06
7.97369e-06
7.87292e-06
7.7825e-06
7.83826e-06
7.89067e-06
7.91353e-06
7.97431e-06
7.91318e-06
7.87481e-06
7.86057e-06
7.98593e-06
8.04471e-06
8.00738e-06
7.89853e-06
7.79844e-06
7.84994e-06
7.90455e-06
7.92523e-06
7.97538e-06
7.92491e-06
7.87651e-06
7.85291e-06
7.98309e-06
8.06412e-06
8.0348e-06
7.91944e-06
7.81013e-06
7.85595e-06
7.91085e-06
7.92892e-06
7.96938e-06
7.92949e-06
7.87309e-06
7.84092e-06
7.97349e-06
8.07527e-06
8.05617e-06
7.93612e-06
7.8183e-06
7.8573e-06
7.91082e-06
7.92595e-06
7.95764e-06
7.92776e-06
7.86545e-06
7.82565e-06
7.95825e-06
8.0787e-06
8.07177e-06
7.9491e-06
7.82373e-06
7.85505e-06
7.90578e-06
7.91777e-06
7.94154e-06
7.92063e-06
7.85457e-06
7.80821e-06
7.93864e-06
8.07514e-06
8.08196e-06
7.95894e-06
7.82725e-06
7.85035e-06
7.8971e-06
7.90584e-06
7.92255e-06
7.90918e-06
7.84151e-06
7.78978e-06
7.91604e-06
8.06551e-06
8.0872e-06
7.96628e-06
7.82971e-06
7.84434e-06
7.8862e-06
7.89164e-06
7.9021e-06
7.89454e-06
7.82737e-06
7.77156e-06
7.89194e-06
8.05092e-06
8.08805e-06
7.97179e-06
7.83201e-06
7.83819e-06
7.87448e-06
7.87664e-06
7.8816e-06
7.87795e-06
7.81329e-06
7.75477e-06
7.86793e-06
8.03272e-06
8.08522e-06
7.97622e-06
7.83501e-06
7.83304e-06
7.86331e-06
7.86219e-06
7.86241e-06
7.86068e-06
7.8004e-06
7.74062e-06
7.84562e-06
8.01243e-06
8.07957e-06
7.98029e-06
7.83955e-06
7.82997e-06
7.85398e-06
7.84958e-06
7.84575e-06
7.84403e-06
7.7898e-06
7.73031e-06
7.82666e-06
7.9918e-06
8.07214e-06
7.98479e-06
7.8464e-06
7.82997e-06
7.84767e-06
7.83993e-06
7.8327e-06
7.82929e-06
7.78256e-06
7.72499e-06
7.81271e-06
7.97268e-06
8.06412e-06
7.99044e-06
7.85622e-06
7.83388e-06
7.84542e-06
7.83422e-06
7.82419e-06
7.8177e-06
7.7797e-06
7.72577e-06
7.80537e-06
7.95706e-06
8.05687e-06
7.99798e-06
7.86952e-06
7.84241e-06
7.84808e-06
7.83325e-06
7.82097e-06
7.81045e-06
7.78216e-06
7.73367e-06
7.80616e-06
7.94695e-06
8.05187e-06
8.00803e-06
7.88666e-06
7.85601e-06
7.85631e-06
7.83763e-06
7.82358e-06
7.80858e-06
7.79077e-06
7.74966e-06
7.81648e-06
7.94434e-06
8.05067e-06
8.02115e-06
7.90777e-06
7.87492e-06
7.87054e-06
7.8478e-06
7.83242e-06
2.77705e-07
2.75778e-07
2.78714e-07
2.86678e-07
2.86466e-07
2.76684e-07
2.79484e-07
2.95499e-07
3.09502e-07
3.08548e-07
2.93069e-07
2.88697e-07
5.25195e-08
5.19273e-08
5.21632e-08
5.38363e-08
5.45828e-08
5.32444e-08
5.35865e-08
5.61793e-08
5.7917e-08
5.6703e-08
5.36725e-08
5.33893e-08
7.87011e-08
7.66241e-08
7.5263e-08
7.86525e-08
8.40013e-08
8.47653e-08
8.42774e-08
8.57993e-08
8.34873e-08
7.6096e-08
7.10008e-08
7.35083e-08
2.35357e-07
2.2837e-07
2.23052e-07
2.33728e-07
2.52693e-07
2.57011e-07
2.54885e-07
2.57708e-07
2.4729e-07
2.21327e-07
2.05749e-07
2.1527e-07
5.78643e-07
5.61211e-07
5.47358e-07
5.73595e-07
6.21625e-07
6.33483e-07
6.28043e-07
6.33944e-07
6.06518e-07
5.41118e-07
5.02856e-07
5.2706e-07
1.18211e-06
1.14635e-06
1.11685e-06
1.16989e-06
1.26941e-06
1.29547e-06
1.28431e-06
1.29477e-06
1.23655e-06
1.10195e-06
1.02435e-06
1.07429e-06
2.11506e-06
2.0509e-06
1.99574e-06
2.08902e-06
2.26907e-06
2.31922e-06
2.2993e-06
2.31471e-06
2.20675e-06
1.96539e-06
1.82833e-06
1.91805e-06
3.42752e-06
3.3232e-06
3.22942e-06
3.37686e-06
3.67122e-06
3.75893e-06
3.72681e-06
3.74534e-06
3.56398e-06
3.17369e-06
2.95593e-06
3.10135e-06
5.13558e-06
4.97867e-06
4.83072e-06
5.04421e-06
5.48784e-06
5.62979e-06
5.58198e-06
5.59863e-06
5.31745e-06
4.73692e-06
4.41939e-06
4.63629e-06
7.21142e-06
6.99012e-06
6.77076e-06
7.05746e-06
7.68165e-06
7.89634e-06
7.82989e-06
7.83632e-06
7.42953e-06
6.62506e-06
6.19441e-06
6.49583e-06
9.58232e-06
9.28689e-06
8.97867e-06
9.33881e-06
1.01662e-05
1.04717e-05
1.03847e-05
1.03702e-05
9.817e-06
8.76889e-06
8.22e-06
8.61361e-06
1.21392e-05
1.17633e-05
1.13503e-05
1.17763e-05
1.2817e-05
1.3228e-05
1.31204e-05
1.30733e-05
1.2362e-05
1.10689e-05
1.0406e-05
1.08923e-05
1.47511e-05
1.4293e-05
1.37626e-05
1.42396e-05
1.54891e-05
1.60149e-05
1.58884e-05
1.57982e-05
1.49284e-05
1.34089e-05
1.26452e-05
1.32166e-05
1.73137e-05
1.67748e-05
1.61161e-05
1.66285e-05
1.80797e-05
1.87277e-05
1.85861e-05
1.84455e-05
1.74204e-05
1.56954e-05
1.48427e-05
1.54889e-05
1.97714e-05
1.91559e-05
1.83609e-05
1.88903e-05
2.05298e-05
2.13043e-05
2.11525e-05
2.09553e-05
1.97831e-05
1.78809e-05
1.69534e-05
1.76616e-05
2.20769e-05
2.1392e-05
2.04561e-05
2.09828e-05
2.27914e-05
2.3694e-05
2.35376e-05
2.3279e-05
2.1972e-05
1.99261e-05
1.89397e-05
1.96951e-05
2.41936e-05
2.34489e-05
2.23717e-05
2.28753e-05
2.4829e-05
2.58587e-05
2.57038e-05
2.53802e-05
2.39538e-05
2.18007e-05
2.07726e-05
2.15594e-05
2.60951e-05
2.53026e-05
2.40879e-05
2.4548e-05
2.66189e-05
2.7772e-05
2.76251e-05
2.72339e-05
2.57054e-05
2.34831e-05
2.24312e-05
2.32338e-05
2.77642e-05
2.69377e-05
2.55939e-05
2.59905e-05
2.81476e-05
2.94181e-05
2.92859e-05
2.88251e-05
2.72128e-05
2.49595e-05
2.39019e-05
2.47056e-05
2.91914e-05
2.83468e-05
2.6886e-05
2.72e-05
2.94101e-05
3.07902e-05
3.06788e-05
3.01471e-05
2.84699e-05
2.62229e-05
2.51776e-05
2.5969e-05
3.03742e-05
2.95287e-05
2.79667e-05
2.81798e-05
3.04079e-05
3.18879e-05
3.18032e-05
3.11996e-05
2.94763e-05
2.72715e-05
2.62564e-05
2.70242e-05
3.13146e-05
3.0487e-05
2.88423e-05
2.89374e-05
3.11472e-05
3.27161e-05
3.26626e-05
3.19868e-05
3.02366e-05
2.81078e-05
2.71407e-05
2.78754e-05
3.20174e-05
3.12268e-05
2.95214e-05
2.94827e-05
3.16368e-05
3.32815e-05
3.32626e-05
3.25153e-05
3.07576e-05
2.87367e-05
2.78353e-05
2.85296e-05
3.24872e-05
3.17528e-05
3.00123e-05
2.9826e-05
3.18858e-05
3.35906e-05
3.36083e-05
3.27915e-05
3.10463e-05
2.91633e-05
2.83459e-05
2.89944e-05
3.27261e-05
3.20661e-05
3.03205e-05
2.99756e-05
3.1902e-05
3.36478e-05
3.37024e-05
3.28197e-05
3.1108e-05
2.93915e-05
2.86768e-05
2.92757e-05
3.27322e-05
3.21635e-05
3.04469e-05
2.99367e-05
3.16903e-05
3.34542e-05
3.35441e-05
3.26016e-05
3.09454e-05
2.94221e-05
2.88294e-05
2.93763e-05
3.25001e-05
3.20365e-05
3.03867e-05
2.97102e-05
3.1253e-05
3.3008e-05
3.31299e-05
3.21367e-05
3.05589e-05
2.92527e-05
2.88013e-05
2.92941e-05
3.20171e-05
3.16671e-05
3.01279e-05
2.92925e-05
3.05892e-05
3.23014e-05
3.24483e-05
3.14199e-05
2.9946e-05
2.88775e-05
2.85857e-05
2.90229e-05
3.12536e-05
3.10153e-05
2.96397e-05
2.86704e-05
2.96904e-05
3.13132e-05
3.14714e-05
3.04343e-05
2.90971e-05
2.82841e-05
2.81675e-05
2.85457e-05
3.01792e-05
3.00402e-05
2.88789e-05
2.78207e-05
2.85447e-05
3.00269e-05
3.0179e-05
2.91659e-05
2.79984e-05
2.74526e-05
2.752e-05
2.78337e-05
2.88042e-05
2.87474e-05
2.78319e-05
2.67345e-05
2.71627e-05
2.84641e-05
2.85952e-05
2.76339e-05
2.66585e-05
2.63771e-05
2.66273e-05
2.68718e-05
2.71891e-05
2.72016e-05
2.65445e-05
2.54447e-05
2.55856e-05
2.66853e-05
2.67877e-05
2.58941e-05
2.51186e-05
2.50898e-05
2.5515e-05
2.56907e-05
2.53643e-05
2.54286e-05
2.5017e-05
2.3955e-05
2.3842e-05
2.47324e-05
2.48002e-05
2.39871e-05
2.34058e-05
2.35998e-05
2.41678e-05
2.42819e-05
2.33888e-05
2.34862e-05
2.32965e-05
2.23065e-05
2.19845e-05
2.26698e-05
2.26997e-05
2.19751e-05
2.15727e-05
2.19512e-05
2.26308e-05
2.26892e-05
2.13321e-05
2.14453e-05
2.14438e-05
2.0553e-05
2.0073e-05
2.05675e-05
2.0559e-05
1.99263e-05
1.96803e-05
2.02001e-05
2.09577e-05
2.09674e-05
1.92635e-05
1.93787e-05
1.95254e-05
1.8752e-05
1.81667e-05
1.84923e-05
1.84482e-05
1.79063e-05
1.77895e-05
1.84055e-05
1.9207e-05
1.91762e-05
1.72468e-05
1.73542e-05
1.76072e-05
1.69596e-05
1.63188e-05
1.65028e-05
1.64287e-05
1.59729e-05
1.59558e-05
1.66243e-05
1.74367e-05
1.73748e-05
1.53355e-05
1.54304e-05
1.57495e-05
1.52268e-05
1.45737e-05
1.4646e-05
1.45496e-05
1.4173e-05
1.42262e-05
1.49068e-05
1.57004e-05
1.56178e-05
1.35716e-05
1.36532e-05
1.40033e-05
1.35966e-05
1.29657e-05
1.29562e-05
1.28468e-05
1.25411e-05
1.26373e-05
1.32952e-05
1.40447e-05
1.39522e-05
1.19843e-05
1.20553e-05
1.24084e-05
1.21027e-05
1.15187e-05
1.14556e-05
1.13433e-05
1.11e-05
1.12151e-05
1.18218e-05
1.25075e-05
1.24156e-05
1.05913e-05
1.0657e-05
1.09928e-05
1.07693e-05
1.02472e-05
1.01554e-05
1.00506e-05
9.8617e-06
9.97589e-06
1.05092e-05
1.11169e-05
1.10357e-05
9.40051e-06
9.46735e-06
9.77294e-06
9.61166e-06
9.15762e-06
9.05815e-06
8.97105e-06
8.82994e-06
8.92749e-06
9.37121e-06
9.89177e-06
9.83019e-06
8.4122e-06
8.48729e-06
8.75628e-06
8.63733e-06
8.25064e-06
8.16061e-06
8.10124e-06
8.00259e-06
8.07172e-06
8.41447e-06
8.84286e-06
8.80866e-06
7.62175e-06
7.71195e-06
7.94309e-06
7.84826e-06
7.52294e-06
7.45572e-06
7.434e-06
7.37389e-06
7.40631e-06
7.64022e-06
7.97445e-06
7.97417e-06
7.02178e-06
7.13307e-06
7.3292e-06
7.24266e-06
6.96922e-06
6.93475e-06
6.9607e-06
6.93624e-06
6.92682e-06
7.0463e-06
7.28632e-06
7.32546e-06
6.60407e-06
6.74073e-06
6.90797e-06
6.81676e-06
6.58382e-06
6.58846e-06
6.67249e-06
6.68116e-06
6.62805e-06
6.62878e-06
6.7757e-06
6.85888e-06
6.36098e-06
6.52464e-06
6.67145e-06
6.56593e-06
6.36164e-06