/*--------------------------------*- C++ -*----------------------------------*\
| =========                 |                                                 |
| \\      /  F ield         | OpenFOAM: The Open Source CFD Toolbox           |
|  \\    /   O peration     | Version:  v1912                                 |
|   \\  /    A nd           | Website:  www.openfoam.com                      |
|    \\/     M anipulation  |                                                 |
\*---------------------------------------------------------------------------*/
FoamFile
{
    version     2.0;
    format      ascii;
    class       volVectorField;
    location    "10.4";
    object      U;
}
// * * * * * * * * * * * * * * * * * * * * * * * * * * * * * * * * * * * * * //

dimensions      [0 1 -1 0 0 0 0];


internalField   nonuniform List<vector> 
34128
(
(-3.61783e-06 1.30323e-07 -0.00279424)
(-3.1053e-06 1.20844e-07 -0.00279382)
(-4.89836e-06 1.30233e-07 -0.00281807)
(-8.40489e-06 1.49141e-07 -0.00284462)
(-6.68805e-06 1.41864e-07 -0.00281762)
(-9.08075e-07 1.33573e-07 -0.00276218)
(3.49341e-06 1.25991e-07 -0.0027847)
(8.3512e-06 1.16353e-07 -0.00287401)
(1.27459e-05 1.23639e-07 -0.00295945)
(1.10193e-05 1.37886e-07 -0.00298064)
(1.7097e-06 1.39021e-07 -0.00291862)
(-7.64963e-06 1.22257e-07 -0.00288352)
(-1.05078e-05 1.5109e-06 -0.00870366)
(-9.3462e-06 1.44601e-06 -0.00870281)
(-1.55312e-05 1.57281e-06 -0.00877503)
(-2.58878e-05 1.67556e-06 -0.0088551)
(-1.98282e-05 1.58547e-06 -0.00877711)
(-2.05079e-06 1.5186e-06 -0.00861366)
(1.11543e-05 1.45897e-06 -0.00867969)
(2.5349e-05 1.35974e-06 -0.00894343)
(3.83278e-05 1.42364e-06 -0.0091947)
(3.35518e-05 1.60923e-06 -0.00925339)
(6.12404e-06 1.68267e-06 -0.00906766)
(-2.20878e-05 1.52429e-06 -0.00896572)
(-1.72804e-05 4.24434e-06 -0.0149536)
(-1.56504e-05 4.10386e-06 -0.0149523)
(-2.68992e-05 4.45844e-06 -0.015072)
(-4.41064e-05 4.6733e-06 -0.0152076)
(-3.299e-05 4.41021e-06 -0.0150836)
(-2.75086e-06 4.24672e-06 -0.0148153)
(1.9392e-05 4.10091e-06 -0.0149231)
(4.27703e-05 3.82456e-06 -0.0153571)
(6.43129e-05 3.98292e-06 -0.015768)
(5.68402e-05 4.51104e-06 -0.0158562)
(1.16262e-05 4.75994e-06 -0.0155447)
(-3.56223e-05 4.34825e-06 -0.0153808)
(-2.41107e-05 8.3848e-06 -0.0215108)
(-2.19948e-05 8.16554e-06 -0.0215089)
(-3.88175e-05 8.85458e-06 -0.0216752)
(-6.29742e-05 9.18528e-06 -0.0218691)
(-4.62828e-05 8.65433e-06 -0.0217065)
(-3.16956e-06 8.36451e-06 -0.0213379)
(2.8099e-05 8.10352e-06 -0.0214849)
(6.06189e-05 7.55873e-06 -0.0220835)
(9.07771e-05 7.8411e-06 -0.0226451)
(8.09244e-05 8.88809e-06 -0.0227512)
(1.82474e-05 9.43312e-06 -0.0223113)
(-4.81092e-05 8.66809e-06 -0.0220924)
(-3.11748e-05 1.38895e-05 -0.028339)
(-2.83525e-05 1.36081e-05 -0.0283362)
(-5.11056e-05 1.4726e-05 -0.0285478)
(-8.24051e-05 1.51527e-05 -0.0288036)
(-5.97882e-05 1.42582e-05 -0.0286119)
(-3.42375e-06 1.38228e-05 -0.0281489)
(3.72038e-05 1.34249e-05 -0.0283321)
(7.89086e-05 1.25199e-05 -0.0290876)
(0.000117778 1.29429e-05 -0.029788)
(0.000105821 1.46802e-05 -0.0298977)
(2.60024e-05 1.56553e-05 -0.029326)
(-5.94269e-05 1.44557e-05 -0.0290611)
(-3.86388e-05 2.07324e-05 -0.0353989)
(-3.46912e-05 2.04206e-05 -0.0353945)
(-6.35868e-05 2.20514e-05 -0.0356499)
(-0.000102308 2.25372e-05 -0.0359719)
(-7.35625e-05 2.11829e-05 -0.0357623)
(-3.604e-06 2.059e-05 -0.0352122)
(4.66454e-05 2.00378e-05 -0.0354279)
(9.76411e-05 1.86796e-05 -0.0363306)
(0.000145342 1.92494e-05 -0.0371553)
(0.000131522 2.18467e-05 -0.0372517)
(3.49017e-05 2.33974e-05 -0.0365451)
(-6.94615e-05 2.16947e-05 -0.0362449)
(-4.66485e-05 2.88954e-05 -0.0426483)
(-4.09736e-05 2.85969e-05 -0.0426416)
(-7.60876e-05 3.08176e-05 -0.0429387)
(-0.000122583 3.13126e-05 -0.0433315)
(-8.76395e-05 2.94002e-05 -0.0431166)
(-3.78941e-06 2.86423e-05 -0.0424882)
(5.63539e-05 2.79215e-05 -0.0427323)
(0.00011679 2.60157e-05 -0.0437703)
(0.000173455 2.67296e-05 -0.0447019)
(0.000157992 3.03585e-05 -0.0447668)
(4.49566e-05 3.26422e-05 -0.043923)
(-7.81008e-05 3.03752e-05 -0.0435994)
(-5.53228e-05 3.83575e-05 -0.0500435)
(-4.71588e-05 3.81252e-05 -0.0500331)
(-8.84395e-05 4.10083e-05 -0.0503695)
(-0.00014312 4.14517e-05 -0.0508377)
(-0.000102032 3.88802e-05 -0.0506313)
(-4.05716e-06 3.79525e-05 -0.0499343)
(6.62392e-05 3.70513e-05 -0.0502024)
(0.000136294 3.45034e-05 -0.0513621)
(0.000202059 3.53517e-05 -0.052381)
(0.000185166 4.01875e-05 -0.0523955)
(5.61776e-05 4.33727e-05 -0.0514133)
(-8.52359e-05 4.04841e-05 -0.051079)
(-6.47476e-05 4.90952e-05 -0.0575408)
(-5.32043e-05 4.89893e-05 -0.0575249)
(-0.000100481 5.26042e-05 -0.0578977)
(-0.000163795 5.29262e-05 -0.0584458)
(-0.000116736 4.959e-05 -0.0582621)
(-4.48776e-06 4.84892e-05 -0.0575074)
(7.61869e-05 4.73981e-05 -0.0577945)
(0.000156053 4.41153e-05 -0.059061)
(0.000231052 4.50832e-05 -0.0601462)
(0.000212951 5.13065e-05 -0.0600914)
(6.85709e-05 5.55726e-05 -0.0589711)
(-9.07674e-05 5.20052e-05 -0.0586387)
(-7.4974e-05 6.10856e-05 -0.0651)
(-5.90675e-05 6.11711e-05 -0.0650759)
(-0.000112059 6.55858e-05 -0.0654812)
(-0.000184474 6.57082e-05 -0.0661136)
(-0.000131729 6.14953e-05 -0.0659673)
(-5.16588e-06 6.02184e-05 -0.0651658)
(8.60619e-05 5.893e-05 -0.0654669)
(0.00017594 5.48229e-05 -0.0668244)
(0.000260296 5.58937e-05 -0.0679545)
(0.000241226 6.36919e-05 -0.0678126)
(8.21336e-05 6.92284e-05 -0.0665554)
(-9.46139e-05 6.49227e-05 -0.0662372)
(-8.6017e-05 7.43059e-05 -0.072686)
(-6.47071e-05 7.46519e-05 -0.0726499)
(-0.000123029 7.99329e-05 -0.0730831)
(-0.000205012 7.97682e-05 -0.0738038)
(-0.000146973 7.45586e-05 -0.0737095)
(-6.17764e-06 7.31018e-05 -0.0728726)
(9.57152e-05 7.16106e-05 -0.0731823)
(0.000195806 6.65956e-05 -0.0746151)
(0.00028963 6.77543e-05 -0.0757689)
(0.000269852 7.73233e-05 -0.0755233)
(9.68485e-05 8.43298e-05 -0.0741314)
(-9.67197e-05 7.92225e-05 -0.0738384)
(-9.78558e-05 8.87305e-05 -0.0802708)
(-7.00815e-05 8.94083e-05 -0.0802178)
(-0.000133254 9.56203e-05 -0.0806728)
(-0.000225248 9.50699e-05 -0.0814854)
(-0.000162409 8.87334e-05 -0.0814581)
(-7.60524e-06 8.70924e-05 -0.0805966)
(0.000104994 8.53945e-05 -0.0809095)
(0.000215494 7.93952e-05 -0.0824025)
(0.000318874 8.06328e-05 -0.08356)
(0.000298668 9.218e-05 -0.0831955)
(0.000112679 0.000100867 -0.0816712)
(-9.70615e-05 9.48883e-05 -0.0814132)
(-0.000110437 0.000104349 -0.0878349)
(-7.51479e-05 0.00010543 -0.0877586)
(-0.000142599 0.000112633 -0.088228)
(-0.000245005 0.000111592 -0.0891363)
(-0.000177961 0.000103995 -0.0891912)
(-9.52059e-06 0.000102167 -0.0883158)
(0.000113756 0.000100259 -0.0886264)
(0.000234851 9.32084e-05 -0.0901657)
(0.000347844 9.45215e-05 -0.0913082)
(0.000327501 0.000108255 -0.0908101)
(0.000129564 0.000118834 -0.0891551)
(-9.56535e-05 0.000111914 -0.0889406)
(-0.000123676 0.000121154 -0.0953676)
(-7.98594e-05 0.000122711 -0.0952608)
(-0.000150926 0.000130959 -0.0957352)
(-0.000264083 0.000129301 -0.0967423)
(-0.000193524 0.000120293 -0.096895)
(-1.19777e-05 0.000118275 -0.0960162)
(0.000121872 0.000116154 -0.0963187)
(0.000253737 0.000107992 -0.0978919)
(0.000376354 0.000109394 -0.0990023)
(0.000356162 0.000125546 -0.0983571)
(0.000147417 0.000138249 -0.0965723)
(-9.25494e-05 0.000130309 -0.0964085)
(-0.000137446 0.000139087 -0.10286)
(-8.41582e-05 0.000141195 -0.102714)
(-0.000158079 0.000150531 -0.103183)
(-0.000282233 0.000148114 -0.10429)
(-0.000208943 0.000137536 -0.104555)
(-1.50019e-05 0.000135327 -0.103683)
(0.000129236 0.000132992 -0.103972)
(0.000272009 0.000123671 -0.105568)
(0.000404192 0.00012519 -0.106631)
(0.000384427 0.000144006 -0.105828)
(0.000166109 0.000159072 -0.103915)
(-8.78474e-05 0.000150031 -0.103807)
(-0.000151574 0.000158101 -0.1103)
(-8.79714e-05 0.000160836 -0.110107)
(-0.000163882 0.000171296 -0.110557)
(-0.000299149 0.00016796 -0.111765)
(-0.000224005 0.000155638 -0.112157)
(-1.85797e-05 0.000153241 -0.111301)
(0.000135769 0.000150692 -0.111572)
(0.000289535 0.000140174 -0.11318)
(0.000431123 0.000141862 -0.114184)
(0.000412028 0.000163603 -0.113214)
(0.000185452 0.00018128 -0.111173)
(-8.16983e-05 0.000171058 -0.111124)
(-0.000165845 0.000178148 -0.117678)
(-9.12112e-05 0.000181589 -0.117431)
(-0.000168135 0.000193201 -0.117847)
(-0.000314473 0.000188765 -0.119156)
(-0.000238443 0.000174518 -0.119687)
(-2.26513e-05 0.000171936 -0.118856)
(0.000141432 0.000169176 -0.119105)
(0.000306204 0.000157435 -0.120716)
(0.000456909 0.000159362 -0.121652)
(0.000438667 0.000184305 -0.120508)
(0.000205205 0.000204857 -0.118339)
(-7.43083e-05 0.000193377 -0.118351)
(-0.000180004 0.000199176 -0.124987)
(-9.37745e-05 0.000203404 -0.124676)
(-0.000170615 0.00021619 -0.125045)
(-0.000327795 0.000210455 -0.126452)
(-0.000251928 0.000194088 -0.127134)
(-2.71035e-05 0.000191329 -0.126336)
(0.000146239 0.000188362 -0.126559)
(0.000321936 0.000175379 -0.128167)
(0.000481314 0.000177636 -0.129027)
(0.000464018 0.000206077 -0.127704)
(0.000225072 0.000229778 -0.125409)
(-6.59403e-05 0.000216971 -0.125481)
(-0.000193761 0.000221125 -0.132219)
(-9.55422e-05 0.000226226 -0.131838)
(-0.000171075 0.000240202 -0.132144)
(-0.000338649 0.000232953 -0.133645)
(-0.000264071 0.000214264 -0.134488)
(-3.17641e-05 0.000211339 -0.133731)
(0.000150257 0.000208173 -0.133927)
(0.000336682 0.000193936 -0.135526)
(0.000504106 0.00019663 -0.136303)
(0.000487736 0.000228876 -0.1348)
(0.000244698 0.00025602 -0.132377)
(-5.69134e-05 0.000241827 -0.132508)
(-0.000206794 0.000243935 -0.139365)
(-9.63812e-05 0.000249992 -0.138908)
(-0.000169251 0.000265174 -0.139138)
(-0.000346515 0.000256184 -0.140728)
(-0.000274419 0.000234969 -0.141741)
(-3.6399e-05 0.000231892 -0.141031)
(0.00015361 0.000228531 -0.141199)
(0.000350427 0.000213034 -0.142783)
(0.000525065 0.000216287 -0.143473)
(0.000509458 0.000252658 -0.14179)
(0.000263674 0.000283551 -0.13924)
(-4.75992e-05 0.00026793 -0.139427)
(-0.000218755 0.000267539 -0.14642)
(-9.61483e-05 0.000274636 -0.145882)
(-0.000164858 0.00029104 -0.146021)
(-0.000350831 0.000280072 -0.147694)
(-0.000282461 0.000256129 -0.148883)
(-4.07131e-05 0.000252915 -0.148227)
(0.000156477 0.000249362 -0.148367)
(0.000363191 0.000232601 -0.149932)
(0.000543985 0.000236547 -0.150532)
(0.000528811 0.00027737 -0.14867)
(0.000281541 0.000312336 -0.145996)
(-3.84154e-05 0.000295261 -0.146234)
(-0.000229278 0.000291869 -0.153374)
(-9.46956e-05 0.000300085 -0.152752)
(-0.00015761 0.000317725 -0.152788)
(-0.000350996 0.000304542 -0.154538)
(-0.000287635 0.000277672 -0.155905)
(-4.43534e-05 0.000274343 -0.15531)
(0.00015909 0.000270595 -0.155423)
(0.000375025 0.000252569 -0.156965)
(0.000560684 0.000257351 -0.157471)
(0.000545426 0.000302954 -0.155436)
(0.000297799 0.000342332 -0.152638)
(-2.98147e-05 0.000323796 -0.152923)
(-0.000237992 0.000316855 -0.160219)
(-9.18784e-05 0.000326255 -0.159512)
(-0.000147227 0.00034515 -0.159433)
(-0.000346397 0.000329513 -0.161252)
(-0.000289343 0.000299535 -0.162799)
(-4.6919e-05 0.000296111 -0.162269)
(0.000161722 0.000292158 -0.162356)
(0.000386006 0.000272864 -0.163872)
(0.000575007 0.000278634 -0.164284)
(0.000558949 0.000329346 -0.162081)
(0.000311916 0.000373487 -0.159164)
(-2.22704e-05 0.000353502 -0.15949)
(-0.000244531 0.000342422 -0.166942)
(-8.75659e-05 0.000353057 -0.166152)
(-0.000133457 0.000373222 -0.165951)
(-0.000336426 0.000354903 -0.167827)
(-0.000286972 0.000321655 -0.169552)
(-4.7975e-05 0.000318163 -0.169092)
(0.000164679 0.00031398 -0.169157)
(0.000396232 0.000293414 -0.170644)
(0.00058683 0.000300333 -0.170959)
(0.000569055 0.000356475 -0.168598)
(0.000323353 0.000405737 -0.165567)
(-1.62557e-05 0.000384334 -0.165927)
(-0.000248553 0.000368497 -0.173533)
(-8.16525e-05 0.000380389 -0.172663)
(-0.000116091 0.000401835 -0.172333)
(-0.000320519 0.000380621 -0.174256)
(-0.000279922 0.000343974 -0.176153)
(-4.70725e-05 0.000340444 -0.175766)
(0.000168275 0.000335988 -0.175813)
(0.000405808 0.000314144 -0.177266)
(0.00059607 0.000322381 -0.177486)
(0.000575468 0.000384265 -0.174978)
(0.000331582 0.000439011 -0.17184)
(-1.22195e-05 0.000416232 -0.172227)
(-0.000249758 0.000395007 -0.179977)
(-7.40703e-05 0.000408141 -0.179033)
(-9.49956e-05 0.00043087 -0.178571)
(-0.000298187 0.00040657 -0.180528)
(-0.00026764 0.000366437 -0.182588)
(-4.37743e-05 0.000362905 -0.182277)
(0.000172814 0.000358108 -0.18231)
(0.000414841 0.000334979 -0.183727)
(0.000602684 0.000344714 -0.183852)
(0.000577977 0.000412636 -0.181212)
(0.000336117 0.000473225 -0.177975)
(-1.05576e-05 0.00044912 -0.178383)
(-0.000247901 0.000421878 -0.186261)
(-6.48005e-05 0.00043619 -0.185251)
(-7.01268e-05 0.000460188 -0.184655)
(-0.000269062 0.000432643 -0.186632)
(-0.000249653 0.000388994 -0.188843)
(-3.76822e-05 0.000385501 -0.18861)
(0.000178568 0.000380269 -0.188633)
(0.000423421 0.000355841 -0.190011)
(0.000606676 0.000367266 -0.190044)
(0.000576451 0.000441504 -0.187286)
(0.000336543 0.000508282 -0.183962)
(-1.15829e-05 0.000482901 -0.184383)
(-0.000242814 0.000449037 -0.192368)
(-5.38827e-05 0.000464399 -0.191303)
(-4.15549e-05 0.000489631 -0.190576)
(-0.000232927 0.000458724 -0.192557)
(-0.000225608 0.000411595 -0.194904)
(-2.84659e-05 0.000408191 -0.19475)
(0.000185745 0.000402394 -0.194767)
(0.00043161 0.000376652 -0.196102)
(0.000608093 0.000389972 -0.196047)
(0.000570856 0.000470782 -0.193189)
(0.000332544 0.000544075 -0.189792)
(-1.54953e-05 0.000517457 -0.19022)
(-0.000234411 0.00047641 -0.198286)
(-4.14194e-05 0.000492617 -0.197177)
(-9.47581e-06 0.000519014 -0.196324)
(-0.000189751 0.000484683 -0.198293)
(-0.000195296 0.000434195 -0.200759)
(-1.58862e-05 0.000430934 -0.200684)
(0.000194476 0.000424408 -0.200699)
(0.000439433 0.000397331 -0.201988)
(0.00060702 0.000412762 -0.201848)
(0.000561259 0.000500382 -0.19891)
(0.000323938 0.000580486 -0.195453)
(-2.2357e-05 0.000552642 -0.195884)
(-0.000222697 0.000503916 -0.204003)
(-2.75745e-05 0.000520676 -0.202863)
(2.57859e-05 0.000548131 -0.20189)
(-0.000139702 0.000510376 -0.203831)
(-0.000158671 0.000456745 -0.206396)
(1.87931e-07 0.000453687 -0.2064)
(0.000204798 0.00044623 -0.206417)
(0.000446866 0.000417793 -0.207657)
(0.000603577 0.000435566 -0.207437)
(0.000547835 0.000530211 -0.204437)
(0.00031069 0.00061738 -0.200937)
(-3.20742e-05 0.000588283 -0.201365)
(-0.00020776 0.00053147 -0.20951)
(-1.25681e-05 0.000548394 -0.20835)
(6.37814e-05 0.000576749 -0.207265)
(-8.31608e-05 0.000535644 -0.209164)
(-0.000115865 0.000479183 -0.211806)
(1.97681e-05 0.000476393 -0.211889)
(0.000216643 0.000467768 -0.211911)
(0.000453829 0.000437937 -0.213097)
(0.000597904 0.000458305 -0.212803)
(0.000530854 0.000560177 -0.20976)
(0.000292932 0.000654614 -0.206234)
(-4.43878e-05 0.000624176 -0.206657)
(-0.000189775 0.000558938 -0.214796)
(3.32929e-06 0.00057556 -0.213631)
(0.000103945 0.000604614 -0.212445)
(-2.07226e-05 0.000560293 -0.214284)
(-6.72078e-05 0.000501402 -0.216981)
(4.27332e-05 0.000498939 -0.217141)
(0.000229837 0.000488873 -0.21717)
(0.000460186 0.000457606 -0.218299)
(0.000590157 0.000480851 -0.217936)
(0.000510678 0.000590179 -0.214872)
(0.000270962 0.00069203 -0.211338)
(-5.88723e-05 0.00066009 -0.211754)
(-0.000169004 0.000586154 -0.219851)
(1.9804e-05 0.000601898 -0.218694)
(0.000145601 0.000631407 -0.217421)
(4.67873e-05 0.000584104 -0.219184)
(-1.32372e-05 0.000523308 -0.22191)
(6.88247e-05 0.000521224 -0.222145)
(0.0002441 0.000509399 -0.222183)
(0.000465746 0.000476649 -0.22325)
(0.000580503 0.000503071 -0.222826)
(0.000487755 0.000620072 -0.219764)
(0.000245245 0.000729442 -0.216242)
(-7.49406e-05 0.000695732 -0.216648)
(-0.000145783 0.000612949 -0.224665)
(3.65158e-05 0.000627131 -0.22353)
(0.000187978 0.000656798 -0.222185)
(0.00011833 0.00060686 -0.223858)
(4.53139e-05 0.000544809 -0.226585)
(9.76598e-05 0.000543144 -0.226889)
(0.000259068 0.000529199 -0.226938)
(0.000470282 0.000494905 -0.22794)
(0.000569114 0.000524829 -0.227464)
(0.000462602 0.000649716 -0.224428)
(0.000216412 0.00076662 -0.220939)
(-9.18538e-05 0.000730775 -0.221335)
(-0.000120507 0.000639143 -0.229227)
(5.3122e-05 0.00065097 -0.228128)
(0.000230245 0.00068045 -0.226729)
(0.000192684 0.000628338 -0.228298)
(0.000107537 0.00056581 -0.230998)
(0.000128749 0.000564592 -0.231364)
(0.000274313 0.000548121 -0.231425)
(0.000473544 0.000512205 -0.232359)
(0.000556165 0.000545974 -0.231841)
(0.000435796 0.000678964 -0.228854)
(0.000185251 0.000803329 -0.225421)
(-0.000108747 0.00076487 -0.225805)
(-9.36137e-05 0.000664544 -0.233528)
(6.93012e-05 0.000673112 -0.232476)
(0.000271553 0.00070201 -0.231043)
(0.000268484 0.000648306 -0.232497)
(0.000172377 0.000586218 -0.235143)
(0.000161521 0.000585464 -0.235563)
(0.000289378 0.000566009 -0.235634)
(0.000475281 0.000528376 -0.236498)
(0.000541837 0.000566342 -0.235949)
(0.000407955 0.000707656 -0.233034)
(0.000152679 0.00083931 -0.229681)
(-0.000124664 0.000797644 -0.230052)
(-6.55624e-05 0.000688953 -0.237558)
(8.47772e-05 0.000693256 -0.236564)
(0.000311072 0.000721115 -0.23512)
(0.000344274 0.000666532 -0.236449)
(0.000238671 0.000605941 -0.239013)
(0.000195353 0.000605663 -0.239477)
(0.000303806 0.000582719 -0.239558)
(0.00047527 0.000543244 -0.240351)
(0.000526313 0.000585766 -0.239782)
(0.000379716 0.00073562 -0.236963)
(0.000119712 0.000874281 -0.23371)
(-0.000138605 0.000828708 -0.234069)
(-3.68111e-05 0.000712178 -0.241311)
(9.93416e-05 0.000711108 -0.240384)
(0.00034804 0.000737411 -0.238949)
(0.00041856 0.000682786 -0.240149)
(0.000305193 0.000624902 -0.242606)
(0.000229605 0.00062511 -0.243103)
(0.000317184 0.00059812 -0.243191)
(0.000473333 0.000556648 -0.243912)
(0.000509782 0.000604075 -0.243334)
(0.000351717 0.000762671 -0.240633)
(8.74286e-05 0.000907949 -0.237503)
(-0.000149571 0.000857655 -0.237847)
(-7.79497e-06 0.000734036 -0.244782)
(0.000112872 0.000726392 -0.243928)
(0.0003818 0.000750558 -0.242524)
(0.000489875 0.00069685 -0.243593)
(0.000370703 0.000643032 -0.24592)
(0.000263655 0.000643748 -0.246437)
(0.000329171 0.00061211 -0.246529)
(0.000469369 0.000568448 -0.247177)
(0.000492441 0.000621104 -0.246604)
(0.000324574 0.000788618 -0.244039)
(5.69233e-05 0.000940009 -0.241052)
(-0.000156623 0.000884078 -0.241381)
(2.1096e-05 0.000754365 -0.247967)
(0.000125345 0.00073888 -0.247189)
(0.000411836 0.000760251 -0.245837)
(0.000556841 0.000708526 -0.246776)
(0.000434002 0.000660276 -0.248954)
(0.000296934 0.000661545 -0.249478)
(0.000339531 0.000624619 -0.24957)
(0.000463366 0.000578509 -0.250147)
(0.000474498 0.000636701 -0.24959)
(0.000298864 0.000813262 -0.24718)
(2.92609e-05 0.000970134 -0.244352)
(-0.000158934 0.000907597 -0.244664)
(4.95355e-05 0.000773017 -0.250865)
(0.000136839 0.000748389 -0.250163)
(0.000437803 0.000766233 -0.248883)
(0.000618226 0.000717642 -0.249697)
(0.000493981 0.000676521 -0.251711)
(0.000328947 0.00067839 -0.252229)
(0.000348145 0.000635493 -0.252316)
(0.000455414 0.000586669 -0.252824)
(0.000456177 0.000650629 -0.252294)
(0.000275107 0.000836405 -0.250052)
(5.42633e-06 0.000998006 -0.2474)
(-0.000155843 0.000927862 -0.247692)
(7.72743e-05 0.000789772 -0.253479)
(0.000147532 0.000754677 -0.252851)
(0.000459534 0.000768244 -0.251657)
(0.00067299 0.000723971 -0.252355)
(0.000549657 0.000691758 -0.254196)
(0.000359292 0.000694369 -0.254696)
(0.000355026 0.00064483 -0.254771)
(0.000445707 0.000592959 -0.255214)
(0.00043771 0.000662829 -0.254721)
(0.00025375 0.000857785 -0.252659)
(-1.37228e-05 0.00102331 -0.250192)
(-0.0001469 0.00094457 -0.250462)
(0.000104143 0.000804639 -0.255814)
(0.000157676 0.000757775 -0.255255)
(0.000477043 0.000766158 -0.254159)
(0.000720329 0.000727467 -0.254752)
(0.000600205 0.000705958 -0.256416)
(0.000387669 0.000709488 -0.256886)
(0.000360302 0.000652628 -0.256945)
(0.000434535 0.00059732 -0.257325)
(0.000419351 0.000673172 -0.256876)
(0.000235154 0.000877225 -0.255001)
(-2.7495e-05 0.0010457 -0.252729)
(-0.000131908 0.000957377 -0.252973)
(0.000130052 0.000817505 -0.257877)
(0.00016758 0.000757652 -0.25738)
(0.000490507 0.00075996 -0.256391)
(0.000759687 0.000728055 -0.256893)
(0.000644971 0.000719052 -0.25838)
(0.000413866 0.000723744 -0.258811)
(0.000364204 0.000658913 -0.258848)
(0.000422268 0.000599737 -0.259168)
(0.000401361 0.000681535 -0.25877)
(0.000219582 0.000894545 -0.257086)
(-3.5406e-05 0.00106491 -0.255012)
(-0.000110936 0.000966192 -0.255227)
(0.00015498 0.000828291 -0.259681)
(0.000177579 0.00075434 -0.259236)
(0.000500236 0.000749659 -0.258357)
(0.000790764 0.000725687 -0.258783)
(0.000683481 0.000730979 -0.260099)
(0.000437755 0.000737152 -0.260485)
(0.000367033 0.000663753 -0.260495)
(0.000409332 0.000600242 -0.260758)
(0.000384003 0.000687831 -0.260416)
(0.000207199 0.000909531 -0.258921)
(-3.72071e-05 0.00108072 -0.257045)
(-8.43291e-05 0.000970889 -0.257227)
(0.000178964 0.000836945 -0.261238)
(0.000187991 0.000747942 -0.260836)
(0.000506635 0.000735369 -0.260067)
(0.000813506 0.000720379 -0.260431)
(0.000715432 0.000741678 -0.261587)
(0.000459262 0.000749719 -0.261921)
(0.000369124 0.000667231 -0.2619)
(0.00039618 0.000598894 -0.262112)
(0.00036753 0.000691996 -0.261825)
(0.000198062 0.000921999 -0.260517)
(-3.28945e-05 0.0010929 -0.258835)
(-5.26974e-05 0.000971433 -0.258979)
(0.000202068 0.000843427 -0.262564)
(0.000199081 0.000738611 -0.262193)
(0.00051016 0.000717297 -0.26153)
(0.000828083 0.000712199 -0.261848)
(0.000740682 0.000751082 -0.262858)
(0.000478348 0.000761441 -0.263138)
(0.00037081 0.000669436 -0.263083)
(0.000383268 0.000595769 -0.263246)
(0.000352172 0.00069399 -0.263014)
(0.00019212 0.000931792 -0.261886)
(-2.27147e-05 0.0011013 -0.260391)
(-1.68939e-05 0.000967882 -0.260494)
(0.000224359 0.000847696 -0.263675)
(0.000211024 0.000726521 -0.263326)
(0.000511282 0.000695714 -0.262762)
(0.000834871 0.000701257 -0.263047)
(0.000759241 0.000759125 -0.263927)
(0.000494985 0.000772297 -0.264153)
(0.000372391 0.000670461 -0.264062)
(0.000371026 0.000590972 -0.264179)
(0.000338125 0.000693806 -0.264001)
(0.000189203 0.000938773 -0.263042)
(-7.16258e-06 0.00110582 -0.261723)
(2.20166e-05 0.000960372 -0.261783)
(0.000245873 0.00084977 -0.264589)
(0.000223872 0.000711903 -0.264254)
(0.000510451 0.000670949 -0.263779)
(0.000834441 0.000687702 -0.264043)
(0.000771276 0.00076574 -0.264811)
(0.000509159 0.000782275 -0.264984)
(0.000374103 0.000670432 -0.264857)
(0.000359812 0.000584699 -0.264933)
(0.000325527 0.000691514 -0.264802)
(0.000189021 0.000942848 -0.263999)
(1.30247e-05 0.00110641 -0.262844)
(6.28062e-05 0.000949111 -0.262859)
(0.000266614 0.000849724 -0.265328)
(0.00023754 0.000695143 -0.264997)
(0.000508071 0.000643475 -0.2646)
(0.000827548 0.000671807 -0.264853)
(0.000777156 0.000770904 -0.265529)
(0.000520907 0.000791367 -0.265656)
(0.000376082 0.000669491 -0.265493)
(0.000349844 0.000577108 -0.265533)
(0.000314469 0.000687192 -0.265444)
(0.000191216 0.000944012 -0.264777)
(3.68938e-05 0.00110314 -0.26377)
(0.000104167 0.000934434 -0.26374)
(0.000286602 0.00084765 -0.265915)
(0.00025185 0.000676601 -0.265582)
(0.000504472 0.000613879 -0.265249)
(0.000815068 0.000653864 -0.265499)
(0.000777359 0.000774582 -0.266105)
(0.00053029 0.000799572 -0.26619)
(0.000378374 0.000667764 -0.265995)
(0.000341249 0.000568397 -0.266003)
(0.000304992 0.000680967 -0.265948)
(0.000195452 0.000942287 -0.265399)
(6.3419e-05 0.00109617 -0.264519)
(0.000144868 0.000916764 -0.264445)
(0.000305841 0.000843667 -0.266374)
(0.000266586 0.000656623 -0.266035)
(0.000499883 0.000582654 -0.265751)
(0.000797848 0.000634148 -0.266005)
(0.000772381 0.000776758 -0.266557)
(0.000537348 0.000806841 -0.266608)
(0.000380965 0.000665367 -0.266385)
(0.000334104 0.000558751 -0.266365)
(0.000297072 0.000672974 -0.266336)
(0.000201334 0.000937763 -0.265885)
(9.16209e-05 0.00108571 -0.265114)
(0.000183867 0.000896524 -0.265)
(0.000324276 0.000837856 -0.266725)
(0.000281486 0.000635552 -0.266378)
(0.000494455 0.000550315 -0.266134)
(0.000776698 0.000612997 -0.266393)
(0.000762752 0.000777402 -0.266904)
(0.000542122 0.000813097 -0.266929)
(0.000383797 0.00066237 -0.266682)
(0.000328406 0.000548328 -0.266636)
(0.000290646 0.000663357 -0.266625)
(0.000208425 0.000930557 -0.266256)
(0.000120505 0.00107205 -0.265576)
(0.000220242 0.000874184 -0.265426)
(0.000341827 0.000830303 -0.266986)
(0.000296263 0.000613688 -0.26663)
(0.000488289 0.000517387 -0.266416)
(0.00075238 0.000590725 -0.266683)
(0.000749016 0.000776504 -0.267164)
(0.000544668 0.000818262 -0.267169)
(0.000386777 0.000658822 -0.266903)
(0.000324091 0.000537272 -0.266834)
(0.000285611 0.000652272 -0.266833)
(0.000216318 0.000920824 -0.266529)
(0.000149115 0.00105551 -0.265924)
(0.000253237 0.000850212 -0.265744)
(0.000358397 0.000821099 -0.267173)
(0.000310634 0.000591289 -0.266811)
(0.000481446 0.000484298 -0.266618)
(0.000725586 0.000567615 -0.266891)
(0.00073171 0.000774065 -0.267351)
(0.000545055 0.000822251 -0.267343)
(0.000389788 0.000654743 -0.267063)
(0.000321052 0.000525702 -0.266973)
(0.000281838 0.000639876 -0.266977)
(0.000224641 0.000908751 -0.266721)
(0.000176638 0.00103644 -0.266178)
(0.000282316 0.000825031 -0.265973)
(0.000373884 0.000810338 -0.267302)
(0.000324342 0.000568579 -0.266933)
(0.000473951 0.000451422 -0.266756)
(0.000696915 0.000543933 -0.267034)
(0.000711348 0.000770092 -0.267479)
(0.000543368 0.000824974 -0.267464)
(0.000392706 0.000650131 -0.267174)
(0.000319148 0.000513715 -0.267066)
(0.000279181 0.000626322 -0.267069)
(0.00023306 0.000894548 -0.26685)
(0.000202407 0.00101519 -0.266354)
(0.000307152 0.000799032 -0.26613)
(0.00038819 0.000798106 -0.267383)
(0.000337162 0.000545749 -0.267011)
(0.000465807 0.000419075 -0.266844)
(0.000666863 0.000519914 -0.267126)
(0.000688397 0.000764603 -0.26756)
(0.000539699 0.000826341 -0.267542)
(0.000395405 0.00064496 -0.267247)
(0.000318223 0.00050138 -0.267123)
(0.000277491 0.000611753 -0.267121)
(0.000241295 0.000878435 -0.266926)
(0.000225917 0.000992113 -0.266468)
(0.000327602 0.000772556 -0.26623)
(0.000401224 0.000784483 -0.267428)
(0.00034891 0.000522951 -0.267053)
(0.000456999 0.000387508 -0.266894)
(0.000635822 0.00049576 -0.267177)
(0.000663269 0.000757616 -0.267604)
(0.000534141 0.000826261 -0.267587)
(0.000397764 0.000639182 -0.26729)
(0.000318117 0.000488741 -0.267153)
(0.000276625 0.0005963 -0.267143)
(0.000249126 0.000860635 -0.266963)
(0.000246815 0.000967548 -0.266533)
(0.000343669 0.000745894 -0.266285)
(0.0004129 0.000769541 -0.267445)
(0.000359434 0.000500306 -0.267069)
(0.000447499 0.000356916 -0.266914)
(0.000604079 0.000471638 -0.267197)
(0.000636304 0.000749154 -0.267619)
(0.00052678 0.000824644 -0.267606)
(0.000399664 0.000632731 -0.26731)
(0.000318667 0.000475815 -0.267161)
(0.000276452 0.000580076 -0.267141)
(0.000256388 0.000841367 -0.266969)
(0.00026489 0.000941807 -0.266561)
(0.000355459 0.00071928 -0.266307)
(0.000423138 0.000753344 -0.267439)
(0.000368608 0.000477905 -0.267065)
(0.000437268 0.000327444 -0.266913)
(0.000571836 0.000447681 -0.267194)
(0.000607781 0.000739237 -0.267611)
(0.000517687 0.000821401 -0.267604)
(0.000400989 0.000625525 -0.267312)
(0.00031972 0.000462601 -0.267154)
(0.000276854 0.000563181 -0.267121)
(0.000262961 0.000820843 -0.266952)
(0.000280038 0.000915173 -0.266559)
(0.000363133 0.0006929 -0.266302)
(0.000431854 0.000735944 -0.267417)
(0.000376322 0.000455816 -0.267044)
(0.00042626 0.000299193 -0.266895)
(0.000539226 0.000423997 -0.267173)
(0.000577914 0.000727885 -0.267585)
(0.000506918 0.000816444 -0.267586)
(0.00040163 0.000617469 -0.2673)
(0.000321128 0.000449074 -0.267136)
(0.000277722 0.000545697 -0.267089)
(0.000268765 0.000799262 -0.266918)
(0.000292236 0.000887901 -0.266536)
(0.000366879 0.000666902 -0.266279)
(0.000438962 0.000717386 -0.267381)
(0.000382479 0.000434086 -0.267013)
(0.000414429 0.000272231 -0.266864)
(0.000506335 0.000400664 -0.267139)
(0.000546867 0.000715113 -0.267546)
(0.00049451 0.000809686 -0.267556)
(0.000401475 0.000608456 -0.267278)
(0.000322753 0.000435192 -0.267108)
(0.000278961 0.000527692 -0.267048)
(0.000273741 0.00077681 -0.266872)
(0.000301504 0.000860224 -0.266498)
(0.000366879 0.000641397 -0.266241)
(0.000444366 0.000697706 -0.267336)
(0.000386987 0.000412747 -0.266972)
(0.000401725 0.000246597 -0.266825)
(0.000473215 0.000377745 -0.267094)
(0.000514768 0.000700933 -0.267497)
(0.000480486 0.000801039 -0.267516)
(0.000400419 0.000598367 -0.267248)
(0.000324459 0.000420896 -0.267075)
(0.000280478 0.000509216 -0.267002)
(0.000277848 0.000753663 -0.266818)
(0.000307892 0.000832347 -0.266449)
(0.000363306 0.00061647 -0.266194)
(0.000447965 0.000676935 -0.267283)
(0.000389759 0.000391814 -0.266925)
(0.000388107 0.000222308 -0.26678)
(0.000439907 0.00035528 -0.267043)
(0.000481718 0.000685355 -0.26744)
(0.000464855 0.000790417 -0.267469)
(0.000398356 0.000587077 -0.267213)
(0.000326117 0.000406113 -0.267037)
(0.000282183 0.000490311 -0.266951)
(0.000281048 0.000729983 -0.266758)
(0.000311458 0.000804461 -0.266392)
(0.000356316 0.000592185 -0.266139)
(0.000449649 0.000655096 -0.267226)
(0.000390709 0.000371293 -0.266874)
(0.00037354 0.00019936 -0.26673)
(0.00040645 0.000333298 -0.266986)
(0.000447809 0.000668388 -0.267377)
(0.000447623 0.000777735 -0.267416)
(0.000395182 0.000574453 -0.267173)
(0.000327599 0.000390755 -0.266997)
(0.000283988 0.000471004 -0.266899)
(0.000283308 0.000705925 -0.266695)
(0.000312262 0.000776739 -0.26633)
(0.000346055 0.000568587 -0.26608)
(0.000449306 0.000632208 -0.267164)
(0.000389757 0.000351173 -0.26682)
(0.000358004 0.000177732 -0.266678)
(0.000372893 0.000311813 -0.266927)
(0.000413133 0.000650039 -0.26731)
(0.000428791 0.00076291 -0.267359)
(0.000390799 0.000560354 -0.26713)
(0.000328775 0.000374724 -0.266956)
(0.000285799 0.000451312 -0.266846)
(0.000284592 0.000681633 -0.266632)
(0.000310368 0.000749344 -0.266266)
(0.000332666 0.000545705 -0.266019)
(0.00044682 0.000608283 -0.2671)
(0.00038683 0.000331435 -0.266765)
(0.000341491 0.000157387 -0.266625)
(0.000339306 0.000290829 -0.266866)
(0.000377796 0.000630318 -0.267241)
(0.000408372 0.000745863 -0.267299)
(0.00038511 0.000544639 -0.267085)
(0.000329517 0.000357911 -0.266915)
(0.000287518 0.000431241 -0.266795)
(0.000284865 0.000657242 -0.266569)
(0.00030584 0.000722423 -0.266202)
(0.0003163 0.000523556 -0.265958)