/*--------------------------------*- C++ -*----------------------------------*\
| =========                 |                                                 |
| \\      /  F ield         | OpenFOAM: The Open Source CFD Toolbox           |
|  \\    /   O peration     | Version:  v1912                                 |
|   \\  /    A nd           | Website:  www.openfoam.com                      |
|    \\/     M anipulation  |                                                 |
\*---------------------------------------------------------------------------*/
FoamFile
{
    version     2.0;
    format      ascii;
    class       volSymmTensorField;
    location    "10.4";
    object      UPrime2Mean;
}
// * * * * * * * * * * * * * * * * * * * * * * * * * * * * * * * * * * * * * //

dimensions      [0 2 -2 0 0 0 0];


internalField   nonuniform List<symmTensor> 
34128
(
(2.47519e-11 -3.58352e-14 -6.6096e-11 9.16558e-13 -2.33201e-09 8.74639e-06)
(3.06567e-11 -3.45574e-14 4.87786e-11 9.16495e-13 -2.33342e-09 8.74853e-06)
(2.79035e-11 1.59568e-15 1.78668e-10 9.16301e-13 -2.33324e-09 8.76197e-06)
(2.3302e-11 2.75826e-14 -2.2265e-11 9.16519e-13 -2.33276e-09 8.76445e-06)
(2.51544e-11 3.93841e-14 -6.7033e-11 9.16591e-13 -2.33273e-09 8.7479e-06)
(2.09748e-11 2.34815e-14 6.52542e-11 9.16936e-13 -2.33304e-09 8.73746e-06)
(3.11748e-11 -1.55136e-14 2.14371e-10 9.16706e-13 -2.3327e-09 8.73838e-06)
(4.3218e-11 -1.03771e-14 3.81075e-10 9.16654e-13 -2.33249e-09 8.75589e-06)
(3.30902e-11 3.11484e-14 2.1162e-10 9.16429e-13 -2.33201e-09 8.77521e-06)
(2.035e-11 3.618e-14 -3.88047e-11 9.16757e-13 -2.33206e-09 8.76466e-06)
(2.11854e-11 1.07419e-14 -5.89362e-11 9.16947e-13 -2.33123e-09 8.74392e-06)
(2.17489e-11 -2.28557e-14 -9.00674e-11 9.17871e-13 -2.3325e-09 8.73767e-06)
(2.16304e-10 -1.19788e-12 -2.26808e-10 4.52414e-12 -9.2494e-09 3.47716e-05)
(2.67367e-10 -1.07345e-12 7.27536e-10 4.49532e-12 -9.27675e-09 3.47823e-05)
(2.43847e-10 5.23878e-14 1.86676e-09 4.48987e-12 -9.2553e-09 3.48855e-05)
(2.0463e-10 3.42664e-13 3.81914e-10 4.50075e-12 -9.2349e-09 3.49079e-05)
(2.19941e-10 6.92286e-13 8.22451e-11 4.50518e-12 -9.25773e-09 3.47821e-05)
(1.83224e-10 4.67135e-13 1.09816e-09 4.51778e-12 -9.27872e-09 3.47052e-05)
(2.73544e-10 -4.33758e-13 2.16186e-09 4.51198e-12 -9.27308e-09 3.47138e-05)
(3.77471e-10 1.86963e-13 3.45633e-09 4.50228e-12 -9.23731e-09 3.48467e-05)
(2.88256e-10 1.08238e-12 2.26076e-09 4.50415e-12 -9.20279e-09 3.49958e-05)
(1.77452e-10 8.33267e-13 2.17679e-10 4.51499e-12 -9.20808e-09 3.49184e-05)
(1.83994e-10 3.66505e-13 -1.39973e-10 4.52858e-12 -9.21305e-09 3.47621e-05)
(1.89262e-10 -3.86724e-13 -5.90462e-10 4.51866e-12 -9.22034e-09 3.47138e-05)
(5.9216e-10 -4.62263e-12 -7.49782e-10 3.81717e-12 -7.66703e-09 6.74676e-05)
(7.30544e-10 -3.91853e-12 1.58551e-09 3.60653e-12 -7.77474e-09 6.74853e-05)
(6.67454e-10 1.05084e-12 4.51114e-09 3.59482e-12 -7.66434e-09 6.77436e-05)
(5.62783e-10 1.78411e-12 7.26557e-10 3.67718e-12 -7.57153e-09 6.78033e-05)
(6.02829e-10 3.38229e-12 -3.62158e-11 3.68831e-12 -7.69358e-09 6.74878e-05)
(5.01613e-10 2.67057e-12 2.44946e-09 3.75669e-12 -7.79539e-09 6.72994e-05)
(7.51097e-10 -1.01053e-12 4.90716e-09 3.73249e-12 -7.77371e-09 6.73211e-05)
(1.03231e-09 2.23947e-12 8.21593e-09 3.69922e-12 -7.59885e-09 6.7648e-05)
(7.87064e-10 5.79386e-12 5.52703e-09 3.75533e-12 -7.42669e-09 6.80202e-05)
(4.85577e-10 4.08022e-12 3.60304e-10 3.8182e-12 -7.45723e-09 6.78313e-05)
(5.01485e-10 2.1812e-12 -6.38788e-10 3.90383e-12 -7.51113e-09 6.74421e-05)
(5.16742e-10 -9.50912e-13 -1.81425e-09 3.84889e-12 -7.55391e-09 6.73197e-05)
(1.14691e-09 -1.19237e-11 -1.57336e-09 7.73643e-12 -4.938e-09 0.000101416)
(1.41209e-09 -1.00076e-11 2.47367e-09 6.93984e-12 -5.21944e-09 0.000101435)
(1.29251e-09 3.22795e-12 7.76774e-09 6.92569e-12 -4.92548e-09 0.000101896)
(1.0954e-09 4.79545e-12 8.42693e-10 7.24277e-12 -4.68041e-09 0.000102008)
(1.1695e-09 9.19738e-12 -5.29896e-10 7.25911e-12 -5.01272e-09 0.000101444)
(9.71868e-10 7.37065e-12 3.82769e-09 7.48758e-12 -5.27778e-09 0.000101116)
(1.45871e-09 -2.31547e-12 7.85375e-09 7.41e-12 -5.22651e-09 0.000101155)
(1.99683e-09 6.90663e-12 1.39046e-08 7.32516e-12 -4.77447e-09 0.000101725)
(1.52076e-09 1.62373e-11 9.66383e-09 7.5807e-12 -4.31695e-09 0.000102385)
(9.4115e-10 1.11613e-11 3.83574e-10 7.80691e-12 -4.39338e-09 0.000102056)
(9.67644e-10 6.19105e-12 -1.53532e-09 8.10645e-12 -4.55883e-09 0.000101366)
(9.98811e-10 -2.05715e-12 -3.62404e-09 7.90315e-12 -4.68757e-09 0.000101146)
(1.87521e-09 -2.37642e-11 -2.52698e-09 1.48241e-11 9.64009e-09 0.000133815)
(2.304e-09 -1.98329e-11 3.39549e-09 1.27139e-11 9.0745e-09 0.000133832)
(2.11299e-09 7.2552e-12 1.1446e-08 1.27516e-11 9.67952e-09 0.000134527)
(1.80048e-09 9.65674e-12 6.5079e-10 1.36144e-11 1.01748e-08 0.000134702)
(1.91604e-09 1.89747e-11 -1.43544e-09 1.35876e-11 9.4792e-09 0.000133851)
(1.59008e-09 1.52912e-11 5.06036e-09 1.41237e-11 8.94858e-09 0.000133369)
(2.39117e-09 -4.42835e-12 1.0593e-08 1.39403e-11 9.04436e-09 0.000133427)
(3.26009e-09 1.5643e-11 1.99854e-08 1.38185e-11 9.93961e-09 0.000134264)
(2.48126e-09 3.45903e-11 1.44551e-08 1.46035e-11 1.0876e-08 0.000135251)
(1.54164e-09 2.31883e-11 3.36328e-10 1.51776e-11 1.07237e-08 0.00013477)
(1.57709e-09 1.31322e-11 -2.76601e-09 1.59083e-11 1.03439e-08 0.000133736)
(1.63062e-09 -3.56365e-12 -5.83873e-09 1.5377e-11 1.00616e-08 0.000133401)
(2.77112e-09 -4.10283e-11 -3.44669e-09 3.21216e-11 3.03426e-08 0.000163104)
(3.3976e-09 -3.42933e-11 4.37661e-09 2.75457e-11 2.93635e-08 0.000163112)
(3.1224e-09 1.3304e-11 1.5383e-08 2.7743e-11 3.04215e-08 0.000164061)
(2.67563e-09 1.64612e-11 4.84495e-11 2.96527e-11 3.1277e-08 0.000164307)
(2.83802e-09 3.34494e-11 -2.84668e-09 2.94812e-11 3.00444e-08 0.000163146)
(2.35208e-09 2.6842e-11 5.93987e-09 3.05256e-11 2.91469e-08 0.000162509)
(3.54239e-09 -7.88964e-12 1.27373e-08 3.01459e-11 2.93018e-08 0.000162588)
(4.81014e-09 2.92847e-11 2.59678e-08 3.00291e-11 3.0801e-08 0.000163692)
(3.66036e-09 6.26856e-11 1.96607e-08 3.1894e-11 3.24282e-08 0.000165024)
(2.28497e-09 4.12834e-11 2.00533e-10 3.31112e-11 3.21758e-08 0.000164388)
(2.32452e-09 2.35979e-11 -4.31685e-09 3.45758e-11 3.14605e-08 0.000162988)
(2.40717e-09 -5.63429e-12 -8.32361e-09 3.3412e-11 3.09434e-08 0.000162529)
(3.82769e-09 -6.40852e-11 -4.19017e-09 6.39401e-11 5.86379e-08 0.000188443)
(4.68307e-09 -5.38287e-11 5.4587e-09 5.52532e-11 5.71092e-08 0.000188442)
(4.31326e-09 2.17407e-11 1.94648e-08 5.58201e-11 5.87795e-08 0.000189654)
(3.71748e-09 2.51923e-11 -1.0316e-09 5.95137e-11 6.01122e-08 0.000189975)
(3.92993e-09 5.32154e-11 -4.84218e-09 5.8995e-11 5.81458e-08 0.000188494)
(3.25306e-09 4.2395e-11 6.29388e-09 6.07768e-11 5.67844e-08 0.000187711)
(4.90482e-09 -1.30432e-11 1.39904e-08 6.00657e-11 5.7011e-08 0.000187808)
(6.6334e-09 4.90064e-11 3.14742e-08 6.00663e-11 5.92625e-08 0.000189163)
(5.04922e-09 1.02455e-10 2.50768e-08 6.38725e-11 6.18091e-08 0.000190839)
(3.16905e-09 6.65172e-11 -4.59572e-11 6.6152e-11 6.14355e-08 0.000190057)
(3.20437e-09 3.82022e-11 -6.17811e-09 6.87154e-11 6.02375e-08 0.000188286)
(3.32294e-09 -8.26002e-12 -1.09736e-08 6.64662e-11 5.93929e-08 0.000187699)
(5.0369e-09 -9.30601e-11 -4.6586e-09 1.16139e-10 9.38825e-08 0.000209469)
(6.14938e-09 -7.87413e-11 6.67725e-09 1.01129e-10 9.16663e-08 0.000209458)
(5.67701e-09 3.28855e-11 2.36202e-08 1.02421e-10 9.41211e-08 0.000210932)
(4.92148e-09 3.57102e-11 -2.60197e-09 1.08918e-10 9.60521e-08 0.000211329)
(5.18491e-09 7.8696e-11 -7.4531e-09 1.07705e-10 9.31381e-08 0.000209531)
(4.28737e-09 6.21425e-11 6.01375e-09 1.1046e-10 9.12263e-08 0.000208616)
(6.46932e-09 -2.03134e-11 1.41716e-08 1.09218e-10 9.15329e-08 0.00020873)
(8.71446e-09 7.59065e-11 3.62586e-08 1.09536e-10 9.46608e-08 0.000210307)
(6.63816e-09 1.55721e-10 3.05552e-08 1.16535e-10 9.83634e-08 0.000212312)
(4.19159e-09 9.99173e-11 -4.02394e-10 1.20447e-10 9.78539e-08 0.0002114)
(4.21076e-09 5.74752e-11 -8.3205e-09 1.24509e-10 9.60044e-08 0.000209267)
(4.37169e-09 -1.15238e-11 -1.37088e-08 1.20533e-10 9.473e-08 0.000208552)
(6.38998e-09 -1.2779e-10 -4.80719e-09 1.95121e-10 1.3543e-07 0.000226127)
(7.78464e-09 -1.09134e-10 8.0465e-09 1.70942e-10 1.32389e-07 0.000226106)
(7.20429e-09 4.70831e-11 2.78094e-08 1.73517e-10 1.35812e-07 0.000227835)
(6.28206e-09 4.77999e-11 -4.61664e-09 1.84171e-10 1.38464e-07 0.000228306)
(6.59493e-09 1.10131e-10 -1.06467e-08 1.81712e-10 1.34376e-07 0.000226204)
(5.4487e-09 8.61071e-11 5.06882e-09 1.85656e-10 1.31842e-07 0.000225177)
(8.22549e-09 -3.01557e-11 1.32212e-08 1.83594e-10 1.3223e-07 0.000225304)
(1.10366e-08 1.11046e-10 4.0209e-08 1.84532e-10 1.36327e-07 0.000227065)
(8.41693e-09 2.24209e-10 3.60118e-08 1.96459e-10 1.41426e-07 0.000229375)
(5.35017e-09 1.4248e-10 -8.29574e-10 2.02754e-10 1.40775e-07 0.000228352)
(5.33764e-09 8.18903e-11 -1.06796e-08 2.08708e-10 1.38087e-07 0.000225879)
(5.54669e-09 -1.55757e-11 -1.64672e-08 2.02134e-10 1.36271e-07 0.000225037)
(7.8781e-09 -1.67874e-10 -4.64252e-09 3.077e-10 1.82492e-07 0.000238559)
(9.5769e-09 -1.44946e-10 9.55447e-09 2.70802e-10 1.78491e-07 0.000238529)
(8.88554e-09 6.47107e-11 3.20132e-08 2.75486e-10 1.83071e-07 0.000240498)
(7.79321e-09 6.12235e-11 -6.98131e-09 2.92036e-10 1.86569e-07 0.000241042)
(8.15142e-09 1.47583e-10 -1.43271e-08 2.87516e-10 1.81074e-07 0.000238654)
(6.7305e-09 1.14133e-10 3.50414e-09 2.92817e-10 1.77864e-07 0.000237535)
(1.01625e-08 -4.30769e-11 1.1187e-08 2.89523e-10 1.78325e-07 0.000237671)
(1.35828e-08 1.55399e-10 4.33311e-08 2.91488e-10 1.83451e-07 0.000239577)
(1.03754e-08 3.09541e-10 4.1425e-08 3.10655e-10 1.90187e-07 0.000242162)
(6.64262e-09 1.95204e-10 -1.24731e-09 3.20302e-10 1.89398e-07 0.00024105)
(6.57926e-09 1.11895e-10 -1.31526e-08 3.28494e-10 1.85675e-07 0.000238264)
(6.8412e-09 -2.06395e-11 -1.91961e-08 3.18168e-10 1.83196e-07 0.000237302)
(9.49321e-09 -2.12719e-10 -4.20903e-09 4.61095e-10 2.34309e-07 0.000247014)
(1.15151e-08 -1.85987e-10 1.11672e-08 4.07151e-10 2.29207e-07 0.000246976)
(1.07119e-08 8.61859e-11 3.62236e-08 4.15103e-10 2.35143e-07 0.000249168)
(9.44926e-09 7.57548e-11 -9.57226e-09 4.39739e-10 2.39613e-07 0.000249779)
(9.8461e-09 1.90937e-10 -1.83508e-08 4.32007e-10 2.32475e-07 0.000247129)
(8.12661e-09 1.45863e-10 1.42389e-09 4.38762e-10 2.28552e-07 0.000245941)
(1.22699e-08 -5.96768e-11 8.19612e-09 4.33664e-10 2.29067e-07 0.00024608)
(1.63372e-08 2.09808e-10 4.57177e-08 4.37144e-10 2.35245e-07 0.000248092)
(1.25045e-08 4.13229e-10 4.68234e-08 4.66546e-10 2.4386e-07 0.00025092)
(8.06753e-09 2.5911e-10 -1.5434e-09 4.80783e-10 2.4295e-07 0.00024974)
(7.93069e-09 1.47946e-10 -1.5607e-08 4.91463e-10 2.37987e-07 0.000246675)
(8.24909e-09 -2.69891e-11 -2.18484e-08 4.75891e-10 2.34718e-07 0.000245598)
(1.12288e-08 -2.61597e-10 -3.57103e-09 6.62834e-10 2.90087e-07 0.000251792)
(1.35901e-08 -2.31977e-10 1.28381e-08 5.8666e-10 2.83742e-07 0.000251743)
(1.26762e-08 1.1195e-10 4.04365e-08 5.99445e-10 2.91231e-07 0.000254139)
(1.12456e-08 9.11979e-11 -1.22563e-08 6.3487e-10 2.96802e-07 0.000254812)
(1.16717e-08 2.39895e-10 -2.25489e-08 6.22376e-10 2.87785e-07 0.000251927)
(9.63182e-09 1.80721e-10 -1.03291e-09 6.30604e-10 2.83135e-07 0.00025069)
(1.4539e-08 -8.06875e-11 4.41973e-09 6.22917e-10 2.83671e-07 0.000250829)
(1.92858e-08 2.74927e-10 4.75119e-08 6.28438e-10 2.90892e-07 0.000252909)
(1.47969e-08 5.36664e-10 5.22668e-08 6.71855e-10 3.01628e-07 0.000255948)
(9.62478e-09 3.35257e-10 -1.5891e-09 6.9225e-10 3.00625e-07 0.000254722)
(9.38839e-09 1.90557e-10 -1.78959e-08 7.05521e-10 2.94221e-07 0.000251413)
(9.76539e-09 -3.49016e-11 -2.43805e-08 6.82808e-10 2.90025e-07 0.000250229)
(1.30811e-08 -3.13737e-10 -2.79107e-09 9.20995e-10 3.49072e-07 0.000253193)
(1.57955e-08 -2.82629e-10 1.45217e-08 8.1648e-10 3.4133e-07 0.000253131)
(1.47734e-08 1.42291e-10 4.46572e-08 8.36117e-10 3.50569e-07 0.000255709)
(1.31799e-08 1.07471e-10 -1.49168e-08 8.85616e-10 3.5737e-07 0.00025644)
(1.36233e-08 2.94101e-10 -2.67611e-08 8.66373e-10 3.46249e-07 0.000253346)
(1.12427e-08 2.18071e-10 -3.73322e-09 8.75959e-10 3.40875e-07 0.000252082)
(1.69633e-08 -1.06595e-10 8.36366e-12 8.64636e-10 3.41385e-07 0.000252215)
(2.24186e-08 3.51378e-10 4.88555e-08 8.72756e-10 3.49607e-07 0.00025433)
(1.72484e-08 6.80956e-10 5.78356e-08 9.34857e-10 3.62706e-07 0.000257548)
(1.13163e-08 4.24753e-10 -1.25657e-09 9.63358e-10 3.61653e-07 0.000256295)
(1.09509e-08 2.40467e-10 -1.98862e-08 9.79155e-10 3.53614e-07 0.000252779)
(1.13872e-08 -4.45431e-11 -2.67586e-08 9.46943e-10 3.48351e-07 0.000251497)
(1.50494e-08 -3.68249e-10 -1.93049e-09 1.24381e-09 4.10451e-07 0.000251501)
(1.81291e-08 -3.37546e-10 1.61675e-08 1.10383e-09 4.01148e-07 0.000251422)
(1.70022e-08 1.77764e-10 4.88706e-08 1.13292e-09 4.12332e-07 0.000254158)
(1.52524e-08 1.24372e-10 -1.74542e-08 1.20045e-09 4.20495e-07 0.000254942)
(1.56985e-08 3.52813e-10 -3.08379e-08 1.17189e-09 4.07048e-07 0.000251667)
(1.29582e-08 2.56731e-10 -6.54949e-09 1.18267e-09 4.00982e-07 0.000250395)
(1.95402e-08 -1.38707e-10 -4.89003e-09 1.16632e-09 4.01402e-07 0.000250518)
(2.573e-08 4.3934e-10 4.98747e-08 1.17744e-09 4.10547e-07 0.000252637)
(1.98586e-08 8.47447e-10 6.35842e-08 1.26393e-09 4.2625e-07 0.000256006)
(1.31469e-08 5.28811e-10 -4.37221e-10 1.30298e-09 4.25206e-07 0.000254744)
(1.26192e-08 2.98296e-10 -2.14436e-08 1.32094e-09 4.15347e-07 0.000251058)
(1.31141e-08 -5.61262e-11 -2.894e-08 1.2763e-09 4.0887e-07 0.000249686)
(1.71352e-08 -4.24332e-10 -1.04986e-09 1.63909e-09 4.73255e-07 0.000247017)
(2.05903e-08 -3.96444e-10 1.77185e-08 1.45542e-09 4.62216e-07 0.000246913)
(1.93627e-08 2.18547e-10 5.30403e-08 1.49712e-09 4.75526e-07 0.000249785)
(1.74647e-08 1.41712e-10 -1.9772e-08 1.58733e-09 4.85182e-07 0.000250618)
(1.78961e-08 4.1513e-10 -3.46273e-08 1.54638e-09 4.69207e-07 0.00024719)
(1.47784e-08 2.95346e-10 -9.34635e-09 1.55813e-09 4.62503e-07 0.000245928)
(2.22684e-08 -1.78218e-10 -1.01013e-08 1.53496e-09 4.62753e-07 0.000246037)
(2.92164e-08 5.38715e-10 5.06962e-08 1.54926e-09 4.72711e-07 0.000248134)
(2.26288e-08 1.03691e-09 6.95412e-08 1.6669e-09 4.91254e-07 0.000251624)
(1.51227e-08 6.48519e-10 9.66455e-10 1.71949e-09 4.90291e-07 0.00025037)
(1.43962e-08 3.65038e-10 -2.24291e-08 1.73902e-09 4.78456e-07 0.000246551)
(1.49471e-08 -6.94682e-11 -3.08766e-08 1.67845e-09 4.70619e-07 0.000245099)
(1.93409e-08 -4.81229e-10 -1.92622e-10 2.11474e-09 5.36549e-07 0.000240064)
(2.31799e-08 -4.59066e-10 1.91283e-08 1.87805e-09 5.23587e-07 0.000239929)
(2.18558e-08 2.64731e-10 5.71342e-08 1.93614e-09 5.3919e-07 0.000242913)
(1.9819e-08 1.59332e-10 -2.1791e-08 2.05443e-09 5.50465e-07 0.000243789)
(2.02155e-08 4.80011e-10 -3.80021e-08 1.99741e-09 5.31783e-07 0.000240238)
(1.67042e-08 3.32292e-10 -1.20119e-08 2.00991e-09 5.24519e-07 0.000239002)
(2.51472e-08 -2.26446e-10 -1.54817e-08 1.9776e-09 5.24501e-07 0.000239093)
(3.28747e-08 6.49234e-10 5.14179e-08 1.99489e-09 5.35132e-07 0.000241145)
(2.55607e-08 1.25e-09 7.57275e-08 2.15167e-09 5.56743e-07 0.00024473)
(1.72506e-08 7.85013e-10 3.03699e-09 2.22143e-09 5.55947e-07 0.000243499)
(1.62851e-08 4.41876e-10 -2.27316e-08 2.24163e-09 5.42009e-07 0.000239584)
(1.68879e-08 -8.41771e-11 -3.25339e-08 2.16093e-09 5.32673e-07 0.000238061)
(2.16711e-08 -5.38291e-10 6.14259e-10 2.67864e-09 5.99371e-07 0.000230962)
(2.59008e-08 -5.25232e-10 2.03585e-08 2.37844e-09 5.84286e-07 0.000230789)
(2.4484e-08 3.1622e-10 6.1112e-08 2.45733e-09 6.0233e-07 0.000233862)
(2.23185e-08 1.7702e-10 -2.34575e-08 2.60989e-09 6.15346e-07 0.000234777)
(2.26568e-08 5.46232e-10 -4.08725e-08 2.53255e-09 5.93802e-07 0.000231128)
(1.87373e-08 3.65668e-10 -1.44704e-08 2.54562e-09 5.86083e-07 0.000229934)
(2.81771e-08 -2.84898e-10 -2.09297e-08 2.50122e-09 5.85681e-07 0.000230004)
(3.67037e-08 7.7038e-10 5.20849e-08 2.52085e-09 5.96815e-07 0.00023199)
(2.86579e-08 1.48714e-09 8.21275e-08 2.72602e-09 6.21712e-07 0.000235648)
(1.9539e-08 9.39416e-10 5.82152e-09 2.81728e-09 6.21186e-07 0.000234451)
(1.82908e-08 5.30217e-10 -2.22677e-08 2.83694e-09 6.05052e-07 0.000230476)
(1.89395e-08 -9.95734e-11 -3.38785e-08 2.73123e-09 5.94081e-07 0.000228893)
(2.41321e-08 -5.94988e-10 1.35748e-09 3.33857e-09 6.60717e-07 0.000220027)
(2.87577e-08 -5.94851e-10 2.13769e-08 2.96314e-09 6.43298e-07 0.000219806)
(2.72514e-08 3.72681e-10 6.49243e-08 3.06794e-09 6.63907e-07 0.000222947)
(2.49673e-08 1.94524e-10 -2.47395e-08 3.26175e-09 6.78781e-07 0.000223897)
(2.52213e-08 6.1241e-10 -4.31833e-08 3.15926e-09 6.54247e-07 0.000220177)
(2.08811e-08 3.93314e-10 -1.66808e-08 3.17279e-09 6.46201e-07 0.000219037)
(3.13602e-08 -3.55167e-10 -2.6384e-08 3.11261e-09 6.45287e-07 0.000219083)
(4.07033e-08 9.01415e-10 5.26924e-08 3.13329e-09 6.56727e-07 0.000220987)
(3.19252e-08 1.74848e-09 8.86898e-08 3.39751e-09 6.8511e-07 0.000224694)
(2.19974e-08 1.11279e-09 9.33491e-09 3.51537e-09 6.84968e-07 0.000223543)
(2.04197e-08 6.3171e-10 -2.09795e-08 3.533e-09 6.66587e-07 0.00021954)
(2.11064e-08 -1.14649e-10 -3.48759e-08 3.39663e-09 6.53855e-07 0.000217908)
(2.6732e-08 -6.50904e-10 2.03399e-09 4.10216e-09 7.19546e-07 0.000207567)
(3.17567e-08 -6.67914e-10 2.21558e-08 3.63859e-09 6.99577e-07 0.000207291)
(3.01629e-08 4.33524e-10 6.85121e-08 3.77505e-09 7.22847e-07 0.000210477)
(2.77702e-08 2.1155e-10 -2.5625e-08 4.01791e-09 7.39685e-07 0.000211459)
(2.79102e-08 6.77007e-10 -4.49123e-08 3.88489e-09 7.12067e-07 0.000207692)
(2.31396e-08 4.1282e-10 -1.86368e-08 3.89889e-09 7.03847e-07 0.00020662)
(3.46993e-08 -4.38897e-10 -3.18216e-08 3.81834e-09 7.0228e-07 0.00020664)
(4.48743e-08 1.04139e-09 5.31878e-08 3.83807e-09 7.13797e-07 0.000208445)
(3.53682e-08 2.03387e-09 9.53271e-08 4.17349e-09 7.45846e-07 0.00021218)
(2.46364e-08 1.30613e-09 1.35583e-08 4.32389e-09 7.46218e-07 0.000211086)
(2.26793e-08 7.48237e-10 -1.88344e-08 4.33774e-09 7.25577e-07 0.000207087)
(2.33939e-08 -1.28055e-10 -3.54894e-08 4.16424e-09 7.10975e-07 0.000205415)
(2.948e-08 -7.05726e-10 2.64679e-09 4.97692e-09 7.74796e-07 0.000193886)
(3.49051e-08 -7.44482e-10 2.26712e-08 4.41106e-09 7.52056e-07 0.000193547)
(3.32239e-08 4.97894e-10 7.18077e-08 4.58563e-09 7.78053e-07 0.000196758)
(3.07315e-08 2.27776e-10 -2.61182e-08 4.88613e-09 7.9695e-07 0.000197768)
(3.07248e-08 7.38336e-10 -4.60665e-08 4.71669e-09 7.66188e-07 0.000193979)
(2.55174e-08 4.21531e-10 -2.03623e-08 4.73131e-09 7.57972e-07 0.000192985)
(3.81972e-08 -5.37764e-10 -3.72512e-08 4.62474e-09 7.55602e-07 0.000192976)
(4.92172e-08 1.18913e-09 5.34772e-08 4.6407e-09 7.66936e-07 0.000194669)
(3.89923e-08 2.34281e-09 1.01918e-07 5.06105e-09 8.02807e-07 0.000198411)
(2.74672e-08 1.52027e-09 1.84386e-08 5.25083e-09 8.03831e-07 0.000197383)
(2.50778e-08 8.81875e-10 -1.58254e-08 5.25892e-09 7.80964e-07 0.000193418)
(2.58079e-08 -1.38109e-10 -3.568e-08 5.041e-09 7.64397e-07 0.000191718)
(3.2386e-08 -7.59215e-10 3.20059e-09 5.97017e-09 8.25393e-07 0.000179281)
(3.82103e-08 -8.24675e-10 2.29012e-08 5.28668e-09 7.99667e-07 0.000178873)
(3.64396e-08 5.64688e-10 7.47353e-08 5.50647e-09 8.2842e-07 0.000182089)
(3.38549e-08 2.42869e-10 -2.62361e-08 5.87399e-09 8.49453e-07 0.000183123)
(3.36651e-08 7.94563e-10 -4.66765e-08 5.66179e-09 8.15528e-07 0.000179335)
(2.80195e-08 4.16548e-10 -2.19052e-08 5.6773e-09 8.07518e-07 0.00017843)
(4.18563e-08 -6.53463e-10 -4.27029e-08 5.53786e-09 8.04185e-07 0.000178391)
(5.37312e-08 1.34323e-09 5.34367e-08 5.54631e-09 8.15052e-07 0.000179956)
(4.28025e-08 2.67439e-09 1.08308e-07 6.06699e-09 8.54863e-07 0.000183685)
(3.05007e-08 1.75589e-09 2.38891e-08 6.30392e-09 8.56686e-07 0.000182732)
(2.76239e-08 1.03485e-09 -1.1971e-08 6.30415e-09 8.31671e-07 0.000178829)
(2.83544e-08 -1.42803e-10 -3.54079e-08 6.03365e-09 8.1307e-07 0.000177113)
(3.54596e-08 -8.11183e-10 3.69794e-09 7.08899e-09 8.70272e-07 0.000164044)
(4.1679e-08 -9.08643e-10 2.28263e-08 6.2713e-09 8.41357e-07 0.000163562)
(3.98142e-08 6.32581e-10 7.72138e-08 6.54412e-09 8.72855e-07 0.000166763)
(3.71419e-08 2.56523e-10 -2.60034e-08 6.98881e-09 8.96082e-07 0.000167817)
(3.6729e-08 8.43718e-10 -4.67901e-08 6.72713e-09 8.59019e-07 0.000164053)
(3.06503e-08 3.94729e-10 -2.3329e-08 6.74387e-09 8.51435e-07 0.000163248)
(4.56776e-08 -7.87709e-10 -4.82157e-08 6.56338e-09 8.46979e-07 0.000163176)
(5.8413e-08 1.50202e-09 5.29254e-08 6.55952e-09 8.57065e-07 0.000164601)
(4.68015e-08 3.02733e-09 1.14321e-07 7.19774e-09 9.00898e-07 0.000168297)
(3.37468e-08 2.01342e-09 2.97907e-08 7.49059e-09 9.03671e-07 0.000167425)
(3.0326e-08 1.20944e-09 -7.31642e-09 7.48078e-09 8.76629e-07 0.000163612)
(3.10387e-08 -1.39829e-10 -3.46355e-08 7.14864e-09 8.5595e-07 0.000161891)
(3.87099e-08 -8.61457e-10 4.13618e-09 8.34012e-09 9.08399e-07 0.000148461)
(4.53161e-08 -9.9655e-10 2.24296e-08 7.37049e-09 8.76112e-07 0.000147903)
(4.33496e-08 7.00063e-10 7.91601e-08 7.70477e-09 9.10302e-07 0.000151068)
(4.0591e-08 2.68511e-10 -2.5448e-08 8.23755e-09 9.35759e-07 0.000152137)
(3.99115e-08 8.83713e-10 -4.64654e-08 7.91936e-09 8.95629e-07 0.00014842)
(3.34132e-08 3.52699e-10 -2.47037e-08 7.93775e-09 8.88711e-07 0.000147725)
(4.96595e-08 -9.4223e-10 -5.38234e-08 7.70649e-09 8.82968e-07 0.000147618)
(6.32556e-08 1.66352e-09 5.18e-08 7.68442e-09 8.9194e-07 0.00014889)
(5.09891e-08 3.39984e-09 1.19758e-07 8.45922e-09 9.3983e-07 0.000152531)
(3.72136e-08 2.29299e-09 3.59946e-08 8.81782e-09 9.437e-07 0.000151747)
(3.31913e-08 1.40796e-09 -1.93412e-09 8.7958e-09 9.14797e-07 0.00014805)
(3.38648e-08 -1.26606e-10 -3.33323e-08 8.39207e-09 8.92026e-07 0.000146338)
(4.21437e-08 -9.09844e-10 4.50533e-09 9.72984e-09 9.38803e-07 0.000132808)
(4.91237e-08 -1.08855e-09 2.16982e-08 8.58936e-09 9.02992e-07 0.000132172)
(4.70441e-08 7.65494e-10 8.04944e-08 8.99415e-09 9.39776e-07 0.000135281)
(4.41964e-08 2.78752e-10 -2.45968e-08 9.6267e-09 9.6747e-07 0.00013636)
(4.32033e-08 9.12385e-10 -4.57645e-08 9.24481e-09 9.24396e-07 0.000132714)
(3.63093e-08 2.86868e-10 -2.60964e-08 9.2652e-09 9.18393e-07 0.000132135)
(5.37966e-08 -1.11877e-09 -5.9543e-08 8.97177e-09 9.11208e-07 0.000131993)
(6.82463e-08 1.82545e-09 4.99299e-08 8.92435e-09 9.18713e-07 0.000133101)
(5.53604e-08 3.78964e-09 1.24415e-07 9.85671e-09 9.70641e-07 0.000136665)
(4.09057e-08 2.59437e-09 4.23258e-08 1.0292e-08 9.75753e-07 0.000135974)
(3.62252e-08 1.63257e-09 4.07463e-09 1.02557e-08 9.45194e-07 0.000132418)
(3.6834e-08 -1.00315e-10 -3.14795e-08 9.76954e-09 9.20354e-07 0.000130728)
(4.57648e-08 -9.56097e-10 4.78694e-09 1.12638e-08 9.60603e-07 0.000117347)
(5.30996e-08 -1.18476e-09 2.06241e-08 9.93242e-09 9.21157e-07 0.000116637)
(5.08916e-08 8.27162e-10 8.11456e-08 1.04174e-08 9.60388e-07 0.000119669)
(4.79465e-08 2.87377e-10 -2.34732e-08 1.11621e-08 9.90297e-07 0.000120751)
(4.65901e-08 9.27538e-10 -4.47485e-08 1.07093e-08 9.44456e-07 0.0001172)
(3.93372e-08 1.93463e-10 -2.75636e-08 1.07319e-08 9.39624e-07 0.000116744)
(5.80786e-08 -1.31908e-09 -6.53658e-08 1.03631e-08 9.30848e-07 0.000116565)
(7.33658e-08 1.98518e-09 4.72098e-08 1.02818e-08 9.36525e-07 0.000117499)
(5.99048e-08 4.1939e-09 1.28085e-07 1.13947e-08 9.92416e-07 0.000120964)
(4.48233e-08 2.91689e-09 4.85891e-08 1.19187e-08 9.98899e-07 0.000120371)
(3.94296e-08 1.88524e-09 1.05794e-08 1.18663e-08 9.66927e-07 0.000116979)
(3.99443e-08 -5.79399e-11 -2.90764e-08 1.1286e-08 9.40077e-07 0.000115324)
(4.95733e-08 -9.99881e-10 4.95392e-09 1.2947e-08 9.7304e-07 0.000102326)
(5.72358e-08 -1.28525e-09 1.92052e-08 1.14035e-08 9.29896e-07 0.000101545)
(5.48801e-08 8.83344e-10 8.10568e-08 1.19787e-08 9.71379e-07 0.000104481)
(5.18231e-08 2.9479e-10 -2.2096e-08 1.28489e-08 1.00345e-06 0.000105558)
(5.00513e-08 9.27e-10 -4.34731e-08 1.23179e-08 9.55072e-07 0.000102124)
(4.24912e-08 6.85732e-11 -2.91453e-08 1.23427e-08 9.51665e-07 0.000101796)
(6.24895e-08 -1.54489e-09 -7.12529e-08 1.18834e-08 9.41167e-07 0.000101581)
(7.85865e-08 2.13978e-09 4.357e-08 1.17582e-08 9.44656e-07 0.000102334)
(6.46042e-08 4.60924e-09 1.30577e-07 1.30766e-08 1.00437e-06 0.000105678)
(4.89606e-08 3.25939e-09 5.45752e-08 1.37027e-08 1.01233e-06 0.000105184)
(4.28027e-08 2.16763e-09 1.74214e-08 1.36324e-08 9.79223e-07 0.000101979)
(4.31894e-08 3.6883e-12 -2.61443e-08 1.29455e-08 9.50466e-07 0.000100371)
(5.35636e-08 -1.04073e-09 4.97113e-09 1.47833e-08 9.75499e-07 8.79655e-05)
(6.15179e-08 -1.39e-09 1.74461e-08 1.30054e-08 9.28653e-07 8.71212e-05)
(5.89906e-08 9.32372e-10 8.01905e-08 1.36814e-08 9.72143e-07 8.9941e-05)
(5.58002e-08 3.01729e-10 -2.04795e-08 1.46909e-08 1.00628e-06 9.10066e-05)
(5.356e-08 9.08673e-10 -4.19873e-08 1.4075e-08 9.5566e-07 8.77126e-05)
(4.57617e-08 -9.17889e-11 -3.08615e-08 1.41017e-08 9.53925e-07 8.75138e-05)
(6.70062e-08 -1.79789e-09 -7.71361e-08 1.35345e-08 9.41592e-07 8.72642e-05)
(8.3872e-08 2.286e-09 3.89822e-08 1.33537e-08 9.4254e-07 8.78313e-05)
(6.94325e-08 5.03166e-09 1.31724e-07 1.49047e-08 1.00586e-06 9.10309e-05)
(5.33045e-08 3.62012e-09 6.00689e-08 1.56475e-08 1.0154e-06 9.06384e-05)
(4.63371e-08 2.48097e-09 2.44158e-08 1.55581e-08 9.81452e-07 8.76381e-05)
(4.65576e-08 8.78473e-11 -2.27305e-08 1.47512e-08 9.50937e-07 8.60912e-05)
(5.77247e-08 -1.07804e-09 4.79678e-09 1.67755e-08 9.67526e-07 7.44599e-05)
(6.5924e-08 -1.49889e-09 1.5357e-08 1.474e-08 9.17034e-07 7.35621e-05)
(6.31967e-08 9.72689e-10 7.85313e-08 1.55276e-08 9.62237e-07 7.62468e-05)
(5.98438e-08 3.09307e-10 -1.86371e-08 1.66911e-08 9.98309e-07 7.72917e-05)
(5.70824e-08 8.70578e-10 -4.03314e-08 1.5984e-08 9.45797e-07 7.41593e-05)
(4.91336e-08 -2.9161e-10 -3.27118e-08 1.60117e-08 9.45969e-07 7.40897e-05)
(7.15986e-08 -2.07962e-09 -8.29239e-08 1.53169e-08 9.31715e-07 7.38072e-05)
(8.91764e-08 2.42033e-09 3.34612e-08 1.50671e-08 9.29785e-07 7.41874e-05)
(7.43543e-08 5.45656e-09 1.3139e-07 1.68797e-08 9.96438e-07 7.72217e-05)
(5.78338e-08 3.99675e-09 6.48566e-08 1.7755e-08 1.0076e-06 7.69295e-05)
(5.00197e-08 2.82595e-09 3.13558e-08 1.76455e-08 9.73144e-07 7.41508e-05)
(5.00314e-08 1.97868e-10 -1.89093e-08 1.67049e-08 9.41063e-07 7.2677e-05)
(6.2039e-08 -1.11097e-09 4.38482e-09 1.89249e-08 9.48826e-07 6.19683e-05)
(7.04245e-08 -1.6117e-09 1.29531e-08 1.66074e-08 8.94811e-07 6.10285e-05)
(6.74639e-08 1.00289e-09 7.60897e-08 1.75176e-08 9.41384e-07 6.35609e-05)
(6.39119e-08 3.19024e-10 -1.65839e-08 1.88505e-08 9.79228e-07 6.45764e-05)
(6.05788e-08 8.10871e-10 -3.85367e-08 1.80468e-08 9.25224e-07 6.16252e-05)
(5.25869e-08 -5.34782e-10 -3.46784e-08 1.80739e-08 9.27522e-07 6.16817e-05)
(7.62294e-08 -2.39144e-09 -8.85167e-08 1.72296e-08 9.11291e-07 6.13692e-05)
(9.44448e-08 2.53907e-09 2.70627e-08 1.68953e-08 9.06169e-07 6.15648e-05)
(7.93253e-08 5.87865e-09 1.29481e-07 1.90005e-08 9.75796e-07 6.44142e-05)
(6.25182e-08 4.38616e-09 6.87334e-08 2.00253e-08 9.88611e-07 6.42198e-05)
(5.38309e-08 3.20263e-09 3.80179e-08 1.98954e-08 9.53981e-07 6.16759e-05)
(5.3587e-08 3.37078e-10 -1.47824e-08 1.88065e-08 9.20577e-07 6.02862e-05)
(6.64826e-08 -1.13845e-09 3.68697e-09 2.12308e-08 9.19249e-07 5.06119e-05)
(7.4982e-08 -1.72803e-09 1.02558e-08 1.86063e-08 8.61911e-07 4.96434e-05)
(7.17507e-08 1.02177e-09 7.29018e-08 1.96498e-08 9.09462e-07 5.20081e-05)
(6.7955e-08 3.32675e-10 -1.43366e-08 2.11683e-08 9.4887e-07 5.29855e-05)
(6.40042e-08 7.27831e-10 -3.6626e-08 2.02636e-08 8.93836e-07 5.02329e-05)
(5.60968e-08 -8.25016e-10 -3.67292e-08 2.02877e-08 8.98458e-07 5.041e-05)
(8.08546e-08 -2.73427e-09 -9.38166e-08 1.92694e-08 8.80226e-07 5.00712e-05)
(9.96142e-08 2.63838e-09 1.98774e-08 1.88331e-08 8.71627e-07 5.00877e-05)
(8.42923e-08 6.29191e-09 1.25948e-07 2.12637e-08 9.43798e-07 5.27349e-05)
(6.73186e-08 4.78445e-09 7.1505e-08 2.24563e-08 9.58242e-07 5.26343e-05)
(5.77446e-08 3.61027e-09 4.41662e-08 2.23059e-08 9.23793e-07 5.03345e-05)
(5.71947e-08 5.08753e-10 -1.04787e-08 2.10543e-08 8.89357e-07 4.90388e-05)
(7.1025e-08 -1.15901e-09 2.65154e-09 2.36908e-08 8.78793e-07 4.04747e-05)
(7.95515e-08 -1.84747e-09 7.29995e-09 2.07334e-08 8.18409e-07 3.9492e-05)
(7.60077e-08 1.02823e-09 6.90301e-08 2.19208e-08 8.665e-07 4.16758e-05)
(7.19168e-08 3.51992e-10 -1.19013e-08 2.36416e-08 9.07221e-07 4.26063e-05)
(6.73097e-08 6.19669e-10 -3.46092e-08 2.26332e-08 8.51671e-07 4.00673e-05)
(5.96339e-08 -1.16596e-09 -3.88098e-08 2.2651e-08 8.58799e-07 4.03572e-05)
(8.5424e-08 -3.10895e-09 -9.87057e-08 2.14314e-08 8.38574e-07 3.99963e-05)
(1.04614e-07 2.71429e-09 1.20334e-08 2.08731e-08 8.26252e-07 3.98426e-05)
(8.91941e-08 6.6896e-09 1.20773e-07 2.36638e-08 9.00457e-07 4.22731e-05)
(7.2187e-08 5.18688e-09 7.29875e-08 2.50435e-08 9.16462e-07 4.22605e-05)
(6.17281e-08 4.04728e-09 4.95558e-08 2.48729e-08 8.82549e-07 4.02108e-05)
(6.08191e-08 7.16184e-10 -6.156e-09 2.34443e-08 8.47422e-07 3.90172e-05)
(7.56274e-08 -1.1714e-09 1.23836e-09 2.62999e-08 8.27606e-07 3.16071e-05)
(8.40788e-08 -1.96963e-09 4.1434e-09 2.2983e-08 7.64544e-07 3.06261e-05)
(8.01778e-08 1.02158e-09 6.45618e-08 2.43241e-08 8.12692e-07 3.26178e-05)
(7.5734e-08 3.7912e-10 -9.2714e-09 2.62648e-08 8.54426e-07 3.34929e-05)
(7.0442e-08 4.84399e-10 -3.24732e-08 2.51517e-08 7.98929e-07 3.11801e-05)
(6.31631e-08 -1.56133e-09 -4.08217e-08 2.51592e-08 8.08719e-07 3.15722e-05)
(8.98806e-08 -3.51652e-09 -1.03001e-07 2.37077e-08 7.86547e-07 3.11944e-05)
(1.09366e-07 2.76231e-09 3.71836e-09 2.30048e-08 7.70306e-07 3.08835e-05)
(9.39603e-08 7.06475e-09 1.13967e-07 2.61919e-08 8.45958e-07 3.30854e-05)
(7.7065e-08 5.58767e-09 7.30177e-08 2.77789e-08 8.634e-07 3.31532e-05)
(6.57407e-08 4.51113e-09 5.39377e-08 2.75891e-08 8.30379e-07 3.13559e-05)
(6.44175e-08 9.62518e-10 -1.99955e-09 2.59692e-08 7.94947e-07 3.02709e-05)
(8.02418e-08 -1.17339e-09 -5.75775e-10 2.90475e-08 7.66026e-07 2.40312e-05)
(8.84998e-08 -2.09339e-09 8.62361e-10 2.53443e-08 7.00755e-07 2.30684e-05)
(8.41945e-08 1.00174e-09 5.96056e-08 2.68481e-08 7.48431e-07 2.48592e-05)
(7.93357e-08 4.16805e-10 -6.44592e-09 2.90263e-08 7.90829e-07 2.56709e-05)
(7.33443e-08 3.20927e-10 -3.01943e-08 2.781e-08 7.3601e-07 2.35941e-05)
(6.66432e-08 -2.01345e-09 -4.26349e-08 2.78024e-08 7.4857e-07 2.40749e-05)
(9.41595e-08 -3.95625e-09 -1.06475e-07 2.60853e-08 7.24556e-07 2.36864e-05)
(1.13785e-07 2.77896e-09 -4.83144e-09 2.52121e-08 7.04277e-07 2.32357e-05)