-0.0075 	0 	0 	0
-0.00715932 	-0.00018523 	-4.02021e-05 	0.139308
-0.00676191 	-0.000296689 	-0.000121575 	0.219239
-0.00629832 	-0.000327001 	-0.000222106 	0.268935
-0.00575752 	-0.000307886 	-0.000320953 	0.302566
-0.00512667 	-0.000271303 	-0.000406793 	0.327917
-0.00439077 	-0.000235844 	-0.000472812 	0.347854
-0.00353231 	-0.000208307 	-0.000522043 	0.363242
-0.00253089 	-0.000187096 	-0.000559746 	0.374167
-0.00136271 	-0.000168331 	-0.000584279 	0.38049
0 	-0.000150861 	-0.000589649 	0.381798
0.00136271 	-0.000136758 	-0.000572034 	0.3776
0.00253089 	-0.000129001 	-0.000532709 	0.368154
0.00353231 	-0.000131013 	-0.000477149 	0.354126
0.00439077 	-0.000146612 	-0.000403953 	0.335504
0.00512667 	-0.000177037 	-0.000307637 	0.311038
0.00575752 	-0.000215205 	-0.000191813 	0.277847
0.00629832 	-0.000238572 	-7.69075e-05 	0.230734
0.00676191 	-0.000206516 	-1.98575e-06 	0.159784
0.00715932 	-0.000107572 	1.22753e-05 	0.0715707
0.0075 	0 	0 	0
