-0.0075 	0 	0 	0
-0.0075 	1.48173e-34 	-2.74101e-36 	-7.01515e-33
-0.00745622 	0.000194744 	-3.60251e-06 	-0.00922001
-0.00745622 	0.000194744 	-3.60251e-06 	-0.00922001
-0.00741165 	0.000306705 	-5.05492e-06 	-0.0184584
-0.00741165 	0.000306705 	-5.05492e-06 	-0.0184584
-0.00736628 	0.000357854 	-4.93838e-06 	-0.0276819
-0.00736628 	0.000357854 	-4.93838e-06 	-0.0276819
-0.0073201 	0.000400413 	-2.22497e-06 	-0.0368343
-0.0073201 	0.000400413 	-2.22497e-06 	-0.0368343
-0.00727309 	0.000445704 	1.12911e-06 	-0.0459814
-0.00727309 	0.000445704 	1.12911e-06 	-0.0459814
-0.00722524 	0.000486707 	5.2376e-06 	-0.0550926
-0.00722524 	0.000486707 	5.2376e-06 	-0.0550926
-0.00717653 	0.000520517 	9.92423e-06 	-0.0640843
-0.00717653 	0.000520517 	9.92423e-06 	-0.0640843
-0.00712695 	0.000545956 	1.51674e-05 	-0.0728825
-0.00712695 	0.000545956 	1.51674e-05 	-0.0728825
-0.00707647 	0.000562701 	2.10837e-05 	-0.0814235
-0.00707647 	0.000562701 	2.10837e-05 	-0.0814235
-0.0070251 	0.000570941 	2.78719e-05 	-0.089657
-0.0070251 	0.000570941 	2.78719e-05 	-0.089657
-0.0069728 	0.000571227 	3.53908e-05 	-0.0975499
-0.0069728 	0.000571227 	3.53908e-05 	-0.0975499
-0.00691956 	0.000564292 	4.33632e-05 	-0.105088
-0.00691956 	0.000564292 	4.33632e-05 	-0.105088
-0.00686537 	0.000550957 	5.18179e-05 	-0.112278
-0.00686537 	0.000550957 	5.18179e-05 	-0.112278
-0.00681021 	0.000531984 	6.09789e-05 	-0.119138
-0.00681021 	0.000531984 	6.09789e-05 	-0.119138
-0.00675406 	0.000507885 	7.10596e-05 	-0.125688
-0.00675406 	0.000507885 	7.10596e-05 	-0.125688
-0.0066969 	0.000479111 	8.19713e-05 	-0.13195
-0.0066969 	0.000479111 	8.19713e-05 	-0.13195
-0.00663871 	0.000446196 	9.3506e-05 	-0.137938
-0.00663871 	0.000446196 	9.3506e-05 	-0.137938
-0.00657949 	0.000409679 	0.000105688 	-0.143667
-0.00657949 	0.000409679 	0.000105688 	-0.143667
-0.0065192 	0.000370113 	0.000118588 	-0.14915
-0.0065192 	0.000370113 	0.000118588 	-0.14915
-0.00645783 	0.000328054 	0.000132165 	-0.154397
-0.00645783 	0.000328054 	0.000132165 	-0.154397
-0.00639535 	0.000284035 	0.000146355 	-0.159419
-0.00639535 	0.000284035 	0.000146355 	-0.159419
-0.00633176 	0.000238553 	0.000161098 	-0.164222
-0.00633176 	0.000238553 	0.000161098 	-0.164222
-0.00626703 	0.000192082 	0.000176409 	-0.168816
-0.00626703 	0.000192082 	0.000176409 	-0.168816
-0.00620114 	0.000145109 	0.000192469 	-0.173218
-0.00620114 	0.000145109 	0.000192469 	-0.173218
-0.00613406 	9.81746e-05 	0.000209483 	-0.177455
-0.00613406 	9.81746e-05 	0.000209483 	-0.177455
-0.00606579 	5.18786e-05 	0.000227337 	-0.181563
-0.00606579 	5.18786e-05 	0.000227337 	-0.181563
-0.00599629 	6.81401e-06 	0.000245174 	-0.185562
-0.00599629 	6.81401e-06 	0.000245174 	-0.185562
-0.00592554 	-3.66271e-05 	0.000261489 	-0.189436
-0.00592554 	-3.66271e-05 	0.000261489 	-0.189436
-0.00585352 	-7.83483e-05 	0.000275347 	-0.193132
-0.00585352 	-7.83483e-05 	0.000275347 	-0.193132
-0.00578022 	-0.000118246 	0.000290853 	-0.196597
-0.00578022 	-0.000118246 	0.000290853 	-0.196597
-0.00570559 	-0.000155949 	0.000313194 	-0.199808
-0.00570559 	-0.000155949 	0.000313194 	-0.199808
-0.00562963 	-0.000191484 	0.000339115 	-0.20278
-0.00562963 	-0.000191484 	0.000339115 	-0.20278
-0.00555231 	-0.000225026 	0.000360852 	-0.205559
-0.00555231 	-0.000225026 	0.000360852 	-0.205559
-0.0054736 	-0.000255696 	0.000372291 	-0.208175
-0.0054736 	-0.000255696 	0.000372291 	-0.208175
-0.00539348 	-0.000283746 	0.000382416 	-0.210648
-0.00539348 	-0.000283746 	0.000382416 	-0.210648
-0.00531193 	-0.000312931 	0.000405363 	-0.213065
-0.00531193 	-0.000312931 	0.000405363 	-0.213065
-0.00522891 	-0.000347725 	0.000432109 	-0.215594
-0.00522891 	-0.000347725 	0.000432109 	-0.215594
-0.0051444 	-0.000387128 	0.000445492 	-0.218367
-0.0051444 	-0.000387128 	0.000445492 	-0.218367
-0.00505838 	-0.000422519 	0.000440038 	-0.221386
-0.00505838 	-0.000422519 	0.000440038 	-0.221386
-0.00497081 	-0.000443831 	0.000439024 	-0.224475
-0.00497081 	-0.000443831 	0.000439024 	-0.224475
-0.00488168 	-0.000448501 	0.000473314 	-0.227263
-0.00488168 	-0.000448501 	0.000473314 	-0.227263
-0.00479094 	-0.000444976 	0.000517014 	-0.229525
-0.00479094 	-0.000444976 	0.000517014 	-0.229525
-0.00469858 	-0.000442618 	0.000532981 	-0.231382
-0.00469858 	-0.000442618 	0.000532981 	-0.231382
-0.00460456 	-0.000442351 	0.000527967 	-0.233017
-0.00460456 	-0.000442351 	0.000527967 	-0.233017
-0.00450886 	-0.000441912 	0.000524896 	-0.234591
-0.00450886 	-0.000441912 	0.000524896 	-0.234591
-0.00441144 	-0.000440775 	0.000532055 	-0.236377
-0.00441144 	-0.000440775 	0.000532055 	-0.236377
-0.00431227 	-0.000438424 	0.000539236 	-0.238629
-0.00431227 	-0.000438424 	0.000539236 	-0.238629
-0.00421133 	-0.000433988 	0.000549547 	-0.241088
-0.00421133 	-0.000433988 	0.000549547 	-0.241088
-0.00410857 	-0.000427574 	0.000575938 	-0.243327
-0.00410857 	-0.000427574 	0.000575938 	-0.243327
-0.00400397 	-0.00041709 	0.000611798 	-0.245305
-0.00400397 	-0.00041709 	0.000611798 	-0.245305
-0.0038975 	-0.000396419 	0.000625885 	-0.247044
-0.0038975 	-0.000396419 	0.000625885 	-0.247044
-0.00378912 	-0.000364462 	0.000619374 	-0.248547
-0.00378912 	-0.000364462 	0.000619374 	-0.248547
-0.00367879 	-0.000331525 	0.000613678 	-0.249985
-0.00367879 	-0.000331525 	0.000613678 	-0.249985
-0.00356649 	-0.000303794 	0.000590716 	-0.251571
-0.00356649 	-0.000303794 	0.000590716 	-0.251571
-0.00345217 	-0.000269818 	0.000558036 	-0.253279
-0.00345217 	-0.000269818 	0.000558036 	-0.253279
-0.0033358 	-0.000218914 	0.000572048 	-0.254788
-0.0033358 	-0.000218914 	0.000572048 	-0.254788
-0.00321735 	-0.00015804 	0.00061775 	-0.25598
-0.00321735 	-0.00015804 	0.00061775 	-0.25598
-0.00309677 	-9.74764e-05 	0.000630569 	-0.257042
-0.00309677 	-9.74764e-05 	0.000630569 	-0.257042
-0.00297403 	-3.99625e-05 	0.000606241 	-0.258094
-0.00297403 	-3.99625e-05 	0.000606241 	-0.258094
-0.00284909 	1.30396e-05 	0.000577191 	-0.259188
-0.00284909 	1.30396e-05 	0.000577191 	-0.259188
-0.0027219 	5.98288e-05 	0.000579066 	-0.260413
-0.0027219 	5.98288e-05 	0.000579066 	-0.260413
-0.00259244 	9.8538e-05 	0.000635916 	-0.261877
-0.00259244 	9.8538e-05 	0.000635916 	-0.261877
-0.00246065 	0.000129148 	0.000692845 	-0.26342
-0.00246065 	0.000129148 	0.000692845 	-0.26342
-0.00232651 	0.000148172 	0.000670643 	-0.264796
-0.00232651 	0.000148172 	0.000670643 	-0.264796
-0.00218995 	0.000147573 	0.000542932 	-0.266237
-0.00218995 	0.000147573 	0.000542932 	-0.266237
-0.00205095 	0.000144011 	0.000443976 	-0.267782
-0.00205095 	0.000144011 	0.000443976 	-0.267782
-0.00190946 	0.000171282 	0.000510569 	-0.268928
-0.00190946 	0.000171282 	0.000510569 	-0.268928
-0.00176543 	0.000230888 	0.000581618 	-0.269651
-0.00176543 	0.000230888 	0.000581618 	-0.269651
-0.00161881 	0.000294408 	0.000556406 	-0.270305
-0.00161881 	0.000294408 	0.000556406 	-0.270305
-0.00146957 	0.000343943 	0.000519085 	-0.270982
-0.00146957 	0.000343943 	0.000519085 	-0.270982
-0.00131765 	0.000382316 	0.00049675 	-0.271645
-0.00131765 	0.000382316 	0.00049675 	-0.271645
-0.001163 	0.000415456 	0.000483089 	-0.272254
-0.001163 	0.000415456 	0.000483089 	-0.272254
-0.00100559 	0.000443877 	0.000465901 	-0.272803
-0.00100559 	0.000443877 	0.000465901 	-0.272803
-0.000845345 	0.000463506 	0.000428431 	-0.273341
-0.000845345 	0.000463506 	0.000428431 	-0.273341
-0.000682232 	0.000467158 	0.00039412 	-0.273976
-0.000682232 	0.000467158 	0.00039412 	-0.273976
-0.000516194 	0.000451018 	0.000446034 	-0.274817
-0.000516194 	0.000451018 	0.000446034 	-0.274817
-0.000347178 	0.000430708 	0.000487057 	-0.275648
-0.000347178 	0.000430708 	0.000487057 	-0.275648
-0.000175132 	0.000430255 	0.000380869 	-0.276068
-0.000175132 	0.000430255 	0.000380869 	-0.276068
0 	0.000444718 	0.000286713 	-0.276133
0 	0.000444718 	0.000286713 	-0.276133
0 	0.000444718 	0.000286713 	-0.276133
0 	0.000444718 	0.000286713 	-0.276133
0.000175132 	0.00045385 	0.000281531 	-0.276096
0.000175132 	-0.00181159 	0.00350971 	-0.246426
0.000347178 	0.000451576 	0.000270053 	-0.275976
0.000347178 	-0.00181338 	0.00360272 	-0.246863
0.000516194 	0.000439315 	0.000251372 	-0.275731
0.000516194 	-0.00179202 	0.00368301 	-0.247715
0.000682232 	0.000417733 	0.000236734 	-0.275354
0.000682232 	-0.0017367 	0.00374143 	-0.249128
0.000845345 	0.000387898 	0.000218437 	-0.274857
0.000845345 	-0.00165256 	0.00380544 	-0.250279
0.00100559 	0.000352267 	0.000201131 	-0.274248
0.00100559 	-0.00156626 	0.00388528 	-0.250563
0.001163 	0.000313228 	0.000183826 	-0.273535
0.001163 	-0.00149139 	0.00395207 	-0.250517
0.00131765 	0.000270543 	0.000170472 	-0.272731
0.00131765 	-0.00142399 	0.00400046 	-0.250555
0.00146957 	0.000219769 	0.000160875 	-0.271872
0.00146957 	-0.00135863 	0.00404389 	-0.250698
0.00161881 	0.000157055 	0.000139758 	-0.270956
0.00161881 	-0.00129658 	0.00408542 	-0.250865
0.00176543 	8.11852e-05 	0.00011549 	-0.269803
0.00176543 	-0.00124546 	0.00412085 	-0.251033
0.00190946 	-4.50231e-06 	0.000120586 	-0.268103
0.00190946 	-0.00122072 	0.00414904 	-0.251204
0.00205095 	-8.25474e-05 	0.000130244 	-0.2658
0.00205095 	-0.00123736 	0.00417077 	-0.251378
0.00218995 	-0.000159066 	6.3865e-05 	-0.263838
0.00218995 	-0.00129606 	0.00418691 	-0.251544
0.00232651 	-0.000259654 	-1.55433e-07 	-0.262759
0.00232651 	-0.00138424 	0.00419513 	-0.251697
0.00246065 	-0.000370099 	0.000114934 	-0.261854
0.00246065 	-0.00148985 	0.00419393 	-0.251843
0.00259244 	-0.000443208 	0.000269652 	-0.260397
0.00259244 	-0.00160833 	0.00418901 	-0.251978
0.0027219 	-0.000461737 	0.000167466 	-0.258268
0.0027219 	-0.00173555 	0.00419484 	-0.252029
0.00284909 	-0.000470131 	-1.44317e-05 	-0.256008
0.00284909 	-0.00186476 	0.00422303 	-0.251871
0.00297403 	-0.000499206 	-4.86274e-06 	-0.253834
0.00297403 	-0.0019994 	0.0042495 	-0.251539
0.00309677 	-0.000531558 	9.95113e-05 	-0.251607
0.00309677 	-0.00214635 	0.00424038 	-0.251325
0.00321735 	-0.000550017 	0.000140635 	-0.249631
0.00321735 	-0.00229246 	0.00420369 	-0.251475
0.0033358 	-0.000555425 	0.000101754 	-0.248091
0.0033358 	-0.00241713 	0.00419453 	-0.251481
0.00345217 	-0.000550467 	8.28109e-05 	-0.246649
0.00345217 	-0.00250974 	0.00423459 	-0.250832
0.00356649 	-0.000527524 	0.000110948 	-0.245004
0.00356649 	-0.0025393 	0.00427938 	-0.249483
0.00367879 	-0.000479915 	0.000134144 	-0.243035
0.00367879 	-0.00246668 	0.0042587 	-0.246892
0.00378912 	-0.00228344 	0.00412656 	-0.242274
0.00378912 	-0.000408629 	0.000124013 	-0.240697
0.0038975 	-0.000325652 	0.000104431 	-0.23816
0.0038975 	-0.00205148 	0.00397252 	-0.236522
0.00400397 	-0.000251656 	0.000109514 	-0.235834
0.00400397 	-0.00190574 	0.00395733 	-0.232414
0.00410857 	-0.000191628 	0.000133776 	-0.233849
0.00410857 	-0.00189212 	0.00403541 	-0.230873
0.00421133 	-0.000130527 	0.000145418 	-0.231972
0.00421133 	-0.00192403 	0.0040532 	-0.230294
0.00431227 	-5.40997e-05 	0.000139584 	-0.230025
0.00431227 	-0.0019106 	0.00398206 	-0.229368
0.00441144 	4.12938e-05 	0.000131827 	-0.227993
0.00441144 	-0.00182216 	0.00388161 	-0.227924
0.00450886 	0.000151816 	0.000129816 	-0.22591
0.00450886 	-0.00167846 	0.0038114 	-0.226238
0.00460456 	0.000274045 	0.000130331 	-0.223784
0.00460456 	-0.00149766 	0.00375572 	-0.224464
0.00469858 	0.000405966 	0.000134189 	-0.221614
0.00469858 	-0.00128407 	0.00369094 	-0.222666
0.00479094 	0.00054583 	0.000132884 	-0.219402
0.00479094 	-0.0010393 	0.00362233 	-0.220868
0.00488168 	0.000688487 	0.000118922 	-0.217117
0.00488168 	-0.000764836 	0.00354732 	-0.219042
0.00497081 	0.000823791 	0.000116265 	-0.214655
0.00497081 	-0.000466161 	0.00347105 	-0.217148
0.00505838 	0.000951435 	0.000132259 	-0.211879
0.00505838 	-0.000154777 	0.00340009 	-0.215187
0.0051444 	0.00108435 	0.000152978 	-0.208798
0.0051444 	0.00015821 	0.0033199 	-0.213224
0.00522891 	0.0012345 	0.000152489 	-0.205773
0.00522891 	0.00047816 	0.00322306 	-0.211342
0.00531193 	0.000825206 	0.0031174 	-0.209512
0.00531193 	0.00140141 	0.000122575 	-0.203061
0.00539348 	0.00157239 	9.92301e-05 	-0.200479
0.00539348 	0.00121359 	0.00301943 	-0.20749
0.0054736 	0.00173685 	9.7117e-05 	-0.197809
0.0054736 	0.001639 	0.00293607 	-0.205105
0.00555231 	0.00189273 	0.000100275 	-0.195002
0.00555231 	0.00208329 	0.00284804 	-0.20247
0.00562963 	0.00204215 	9.63557e-05 	-0.192086
0.00562963 	0.00253221 	0.00274415 	-0.199737
0.00570559 	0.00218646 	8.86788e-05 	-0.189071
0.00570559 	0.00298278 	0.00263239 	-0.19693
0.00578022 	0.00232557 	8.30102e-05 	-0.185943
0.00578022 	0.00343695 	0.00252213 	-0.194013
0.00585352 	0.00245943 	7.74135e-05 	-0.182691
0.00585352 	0.00389451 	0.00241251 	-0.190966
0.00592554 	0.0025878 	6.96947e-05 	-0.179299
0.00592554 	0.00435271 	0.00230018 	-0.187782
0.00599629 	0.00270982 	6.05637e-05 	-0.175751
0.00599629 	0.00480836 	0.00218558 	-0.184452
0.00606579 	0.00525765 	0.00206928 	-0.180965
0.00606579 	0.00282411 	5.22015e-05 	-0.172025
0.00613406 	0.00292928 	4.54445e-05 	-0.168099
0.00613406 	0.00569599 	0.00195198 	-0.177309
0.00620114 	0.00302431 	3.95002e-05 	-0.163945
0.00620114 	0.00611831 	0.00183411 	-0.173467
0.00626703 	0.00310821 	3.31264e-05 	-0.159536
0.00626703 	0.00651916 	0.00171608 	-0.169419
0.00633176 	0.00317945 	2.58454e-05 	-0.154846
0.00633176 	0.00689252 	0.00159836 	-0.165144
0.00639535 	0.00323578 	1.8336e-05 	-0.149858
0.00639535 	0.00723161 	0.0014814 	-0.160619
0.00645783 	0.00327461 	1.16876e-05 	-0.144555
0.00645783 	0.00752877 	0.00136583 	-0.155818
0.0065192 	0.0032937 	6.62549e-06 	-0.138922
0.0065192 	0.00777598 	0.00125241 	-0.150711
0.00657949 	0.00329176 	2.77456e-06 	-0.132945
0.00657949 	0.00796535 	0.0011414 	-0.145266
0.00663871 	0.00326781 	-1.05971e-06 	-0.126612
0.00663871 	0.00808876 	0.00103265 	-0.139433
0.0066969 	0.00322008 	-4.96538e-06 	-0.119911
0.0066969 	0.00813716 	0.000926292 	-0.133156
0.00675406 	0.00314615 	-8.08215e-06 	-0.112833
0.00675406 	0.00809993 	0.000823093 	-0.126391
0.00681021 	0.00304375 	-9.74223e-06 	-0.10538
0.00681021 	0.00796567 	0.000723987 	-0.119121
0.00686537 	0.00291175 	-1.03833e-05 	-0.09758
0.00686537 	0.00772499 	0.00062951 	-0.111353
0.00691956 	0.00275116 	-1.1116e-05 	-0.0894928
0.00691956 	0.00737294 	0.000540053 	-0.103131
0.0069728 	0.00256469 	-1.18518e-05 	-0.0812126
0.0069728 	0.00691073 	0.000456406 	-0.0945384
0.0070251 	0.00235644 	-1.20768e-05 	-0.0728573
0.0070251 	0.00634745 	0.000379509 	-0.0856978
0.00707647 	0.00213183 	-1.17466e-05 	-0.0645521
0.00707647 	0.00570064 	0.000309997 	-0.0767506
0.00712695 	0.00189725 	-1.08105e-05 	-0.0564072
0.00712695 	0.00499488 	0.000248221 	-0.0678336
0.00717653 	0.00165946 	-9.23687e-06 	-0.0485008
0.00717653 	0.00425875 	0.000194312 	-0.059052
0.00722524 	0.00142524 	-7.08892e-06 	-0.0408733
0.00722524 	0.00352184 	0.000147723 	-0.0504631
0.00727309 	0.00120146 	-4.5091e-06 	-0.0335333
0.00727309 	0.00281397 	0.000108894 	-0.042078
0.0073201 	0.000996006 	-1.83112e-06 	-0.0264684
0.0073201 	0.00216811 	8.00777e-05 	-0.0338723
0.00736628 	0.000819861 	6.15699e-07 	-0.0196098
0.00736628 	0.00162743 	4.46673e-05 	-0.0257516
0.00741165 	0.000640707 	1.48164e-06 	-0.0128793
0.00741165 	0.0011713 	2.93944e-05 	-0.0174523
0.00745622 	0.00037324 	1.28622e-06 	-0.00633409
0.00745622 	0.000660043 	1.39201e-05 	-0.00878304
0.0075 	0 	0 	0
0.0075 	0 	0 	0
