/*--------------------------------*- C++ -*----------------------------------*\
| =========                 |                                                 |
| \\      /  F ield         | OpenFOAM: The Open Source CFD Toolbox           |
|  \\    /   O peration     | Version:  v1912                                 |
|   \\  /    A nd           | Website:  www.openfoam.com                      |
|    \\/     M anipulation  |                                                 |
\*---------------------------------------------------------------------------*/
FoamFile
{
    version     2.0;
    format      ascii;
    class       volScalarField;
    location    "99.6";
    object      pPrime2Mean;
}
// * * * * * * * * * * * * * * * * * * * * * * * * * * * * * * * * * * * * * //

dimensions      [2 -2 -4 0 0 0 0];


internalField   nonuniform List<scalar> 
2000
(
6.86646e-05
0.0561371
0.0853558
0.123098
0.148672
0.157442
0.148716
0.122871
0.0852489
0.0563221
0.00467873
0.0563545
0.0851517
0.122807
0.148621
0.157446
0.148262
0.122633
0.085083
0.0563278
0.00367546
0.0586758
0.0860996
0.123743
0.149738
0.158436
0.149549
0.123623
0.0859356
0.058712
0.0235233
0.0575294
0.0881748
0.126064
0.152163
0.160912
0.152088
0.125881
0.0879955
0.057373
0.0124016
0.0593376
0.0918427
0.129522
0.1558
0.164709
0.155642
0.129599
0.0916061
0.0594006
0.0182819
0.0631618
0.0966816
0.134542
0.160494
0.169649
0.160299
0.134348
0.0965729
0.0631943
0.0288105
0.0687008
0.103157
0.140638
0.166451
0.175587
0.166452
0.140411
0.103212
0.0686054
0.0405178
0.0757504
0.111549
0.147957
0.173803
0.182819
0.17375
0.14784
0.111292
0.0758476
0.0537624
0.0854492
0.121761
0.156973
0.182287
0.191137
0.182001
0.156914
0.121883
0.0852909
0.0714455
0.0977745
0.1336
0.167076
0.190933
0.199697
0.190878
0.166916
0.133467
0.0978928
0.125172
0.0735207
0.0416298
0.0371723
0.0399876
0.0415897
0.0398636
0.0372868
0.0416756
0.0734463
0.124933
0.0729961
0.0410252
0.0364017
0.039278
0.0408211
0.0390549
0.0366268
0.0409508
0.0729141
0.123272
0.0722885
0.0405769
0.0363064
0.0387001
0.0404987
0.0387096
0.0359688
0.0404797
0.0723534
0.119215
0.0713177
0.0402584
0.0359459
0.0386314
0.040163
0.0386295
0.0358715
0.0401917
0.071188
0.117598
0.0695648
0.0399303
0.0359097
0.0386353
0.0404701
0.0386028
0.0356731
0.0397568
0.0696793
0.118237
0.067009
0.0393944
0.0358677
0.038681
0.040369
0.0387688
0.0357475
0.0392876
0.0669079
0.113859
0.0632725
0.0388889
0.0355415
0.0387192
0.0405731
0.038805
0.0357246
0.038744
0.0628929
0.101643
0.0584106
0.0381641
0.0356293
0.0390778
0.0407715
0.0387821
0.0356159
0.0380955
0.058445
0.0854473
0.053236
0.0376644
0.0358238
0.0392761
0.041153
0.0390682
0.0357571
0.0374184
0.0531673
0.0697784
0.0483456
0.0368996
0.0361671
0.0393906
0.0412617
0.039465
0.0359306
0.036726
0.0484352
0.190107
0.195969
0.194405
0.197254
0.201023
0.201145
0.200941
0.197201
0.194378
0.195906
0.187338
0.193481
0.192133
0.194824
0.198692
0.198692
0.19858
0.194965
0.192118
0.193411
0.185308
0.191681
0.190292
0.193106
0.19672
0.196726
0.196615
0.192978
0.190342
0.191563
0.184114
0.191164
0.189751
0.192486
0.195831
0.196087
0.195906
0.19241
0.189775
0.191101
0.184168
0.191408
0.190413
0.192875
0.196314
0.196476
0.196217
0.192715
0.190168
0.191284
0.184452
0.191132
0.190523
0.192892
0.196371
0.19673
0.196293
0.192795
0.190384
0.191212
0.184448
0.19091
0.19079
0.192945
0.196264
0.19652
0.196264
0.192802
0.190594
0.190931
0.184769
0.190508
0.19113
0.192944
0.19627
0.196539
0.196289
0.193018
0.191265
0.19046
0.185116
0.190186
0.191578
0.193184
0.19648
0.196737
0.196383
0.193098
0.191481
0.190245
0.186062
0.190287
0.192541
0.193811
0.196909
0.19717
0.196852
0.193783
0.192444
0.190125
0.552847
0.561672
0.552561
0.554562
0.555902
0.554556
0.555769
0.554487
0.552725
0.561754
0.548758
0.558065
0.548838
0.550829
0.552137
0.550745
0.552181
0.550934
0.548954
0.558077
0.546066
0.555374
0.546282
0.547924
0.549229
0.547878
0.54921
0.547871
0.546337
0.555302
0.546225
0.555004
0.5459
0.547209
0.548769
0.547182
0.548622
0.547131
0.545946
0.555101
0.548988
0.555983
0.547136
0.547924
0.549379
0.548006
0.549385
0.547955
0.547085
0.55619
0.551065
0.556047
0.547777
0.548409
0.549765
0.548571
0.549913
0.548521
0.548098
0.556204
0.55155
0.555716
0.548695
0.54842
0.550001
0.548592
0.549953
0.54851
0.548677
0.555601
0.551029
0.554998
0.549103
0.548531
0.54991
0.548624
0.549965
0.548428
0.548912
0.555233
0.550436
0.554218
0.549625
0.548326
0.549877
0.548721
0.549915
0.548197
0.549488
0.554279
0.550335
0.553802
0.550158
0.54846
0.549986
0.548815
0.550074
0.548717
0.549925
0.553802
1.22332
1.23457
1.22149
1.22401
1.22407
1.2219
1.22404
1.22407
1.22166
1.23446
1.21747
1.2289
1.21581
1.21847
1.21846
1.21627
1.21852
1.21854
1.21616
1.2289
1.21201
1.22407
1.21151
1.21417
1.21403
1.21225
1.21408
1.21404
1.21168
1.22419
1.20855
1.22236
1.21032
1.21301
1.21306
1.21099
1.2132
1.21314
1.21047
1.22251
1.2077
1.22323
1.21153
1.214
1.21433
1.21218
1.21432
1.2141
1.2115
1.22345
1.20827
1.22348
1.21226
1.21439
1.215
1.21269
1.21496
1.21447
1.21214
1.22334
1.20949
1.22325
1.21268
1.21443
1.21529
1.21313
1.21521
1.21464
1.21266
1.22329
1.20974
1.22226
1.21301
1.21448
1.21536
1.21326
1.21558
1.21446
1.21295
1.22232
1.20958
1.22083
1.21339
1.21424
1.21541
1.21317
1.21541
1.21438
1.21339
1.22107
1.20952
1.21949
1.21356
1.21387
1.21521
1.21308
1.21506
1.21398
1.21362
1.21935
2.22216
2.19674
2.19006
2.19253
2.19027
2.18916
2.19052
2.19267
2.18991
2.19676
2.21416
2.18954
2.18268
2.18497
2.1827
2.18165
2.18305
2.18511
2.18269
2.18966
2.20839
2.18441
2.17713
2.17939
2.177
2.17595
2.17711
2.17943
2.17733
2.18432
2.20768
2.18399
2.17657
2.17798
2.17567
2.17458
2.17587
2.17829
2.17672
2.18401
2.2091
2.1868
2.17856
2.18003
2.17758
2.17623
2.17754
2.17984
2.17858
2.18669
2.20931
2.18856
2.17965
2.18098
2.17866
2.1771
2.17876
2.181
2.17984
2.18843
2.2092
2.18961
2.18051
2.18168
2.17931
2.17785
2.17948
2.18179
2.18052
2.1897
2.20756
2.19006
2.18103
2.1821
2.18
2.17828
2.17995
2.18223
2.18094
2.19038
2.20517
2.19048
2.18123
2.18232
2.1804
2.17882
2.18048
2.18236
2.18126
2.19057
2.20229
2.19058
2.18122
2.18253
2.18087
2.17919
2.18077
2.18253
2.18121
2.19057
3.30548
3.36019
3.37705
3.39062
3.39765
3.39857
3.39757
3.39095
3.37724
3.36012
3.29635
3.3499
3.36715
3.38088
3.38754
3.38869
3.38779
3.38088
3.36704
3.35
3.29014
3.34169
3.35898
3.3726
3.37967
3.38082
3.37977
3.37292
3.35907
3.34181
3.28945
3.33904
3.35681
3.37055
3.37743
3.37848
3.3775
3.37049
3.3568
3.33914
3.29377
3.34131
3.35896
3.3725
3.3793
3.38044
3.37952
3.37262
3.35915
3.3413
3.29783
3.34286
3.36053
3.37333
3.38027
3.38163
3.38026
3.37342
3.36065
3.3428
3.30396
3.3439
3.36201
3.37399
3.38075
3.38202
3.38095
3.37398
3.36205
3.34386
3.31082
3.34517
3.36367
3.37462
3.38149
3.38211
3.38141
3.37479
3.36391
3.34519
3.31874
3.34742
3.36588
3.37526
3.38151
3.38227
3.38157
3.37516
3.36608
3.34732
3.32752
3.35064
3.36854
3.37581
3.38127
3.38189
3.38132
3.37595
3.3685
3.35073
5.12903
5.00961
4.96247
4.95678
4.9527
4.95368
4.95264
4.95687
4.96247
5.00962
5.1152
4.99722
4.94993
4.94417
4.93977
4.94111
4.93997
4.94405
4.9501
4.99737
5.10316
4.98771
4.94014
4.9339
4.92997
4.93111
4.93005
4.93411
4.94028
4.98768
5.0966
4.98395
4.93678
4.93049
4.92673
4.92781
4.92674
4.93074
4.93689
4.9841
5.09072
4.98396
4.9379
4.9318
4.92821
4.92936
4.92837
4.93193
4.93809
4.98386
5.07813
4.98112
4.93666
4.93132
4.92815
4.92933
4.92825
4.93148
4.9369
4.98108
5.05953
4.97629
4.93368
4.92952
4.92713
4.92817
4.92697
4.92951
4.9339
4.97639
5.03792
4.9692
4.92914
4.92634
4.92514
4.92616
4.92528
4.92641
4.92929
4.96919
5.01353
4.96024
4.92356
4.92259
4.92325
4.92396
4.92319
4.92274
4.92374
4.96018
4.98703
4.94986
4.91831
4.91903
4.92159
4.92249
4.92175
4.91927
4.91823
4.94995
6.28282
6.62346
6.87309
6.96554
6.99237
6.99703
6.99234
6.96545
6.87341
6.62389
6.26724
6.60505
6.85615
6.9484
6.97543
6.98012
6.97545
6.94853
6.85634
6.60541
6.26247
6.59672
6.84744
6.93856
6.96499
6.96961
6.96504
6.93855
6.84764
6.59717
6.27752
6.60912
6.85603
6.94398
6.96941
6.97417
6.96959
6.94416
6.85629
6.6095
6.32237
6.63933
6.87803
6.96016
6.98438
6.98822
6.98408
6.96023
6.87838
6.63968
6.38196
6.6762
6.9003
6.97581
6.99757
7.00107
6.99751
6.97596
6.90075
6.67659
6.46037
6.71858
6.92369
6.9908
7.00924
7.0121
7.00926
6.99085
6.9239
6.71902
6.55244
6.7666
6.94778
7.00433
7.01819
7.0199
7.01824
7.00445
6.94799
6.76693
6.65222
6.81676
6.96964
7.01402
7.02209
7.0224
7.02205
7.01409
6.96967
6.81701
6.74994
6.86393
6.98453
7.01514
7.01704
7.01561
7.01704
7.01513
6.98468
6.86417
9.54928
9.5686
9.51099
9.45151
9.41403
9.40586
9.4139
9.45129
9.51083
9.56886
9.56972
9.55349
9.49286
9.43346
9.39621
9.38808
9.39619
9.43329
9.49257
9.55381
9.59484
9.53491
9.47335
9.41551
9.37963
9.37169
9.37946
9.41519
9.47299
9.53526
9.50154
9.52227
9.45895
9.40413
9.3702
9.36253
9.37011
9.40401
9.45878
9.52246
9.4488
9.51255
9.44661
9.39618
9.36512
9.35774
9.36478
9.39581
9.44655
9.51266
9.40515
9.49212
9.42674
9.38154
9.35365
9.34689
9.35361
9.38121
9.4264
9.49238
9.34766
9.46041
9.40009
9.36095
9.33663
9.33014
9.33638
9.36062
9.40001
9.46054
9.2876
9.41767
9.3679
9.33443
9.31436
9.30831
9.31425
9.33395
9.36758
9.41794
9.23174
9.36805
9.33163
9.303
9.28718
9.28203
9.28714
9.30258
9.33129
9.36797
9.18338
9.31637
9.29279
9.26798
9.2566
9.25229
9.25654
9.26761
9.29271
9.31634
0.0909843
0.111244
0.144789
0.175594
0.198359
0.207329
0.198477
0.17548
0.144844
0.111137
0.10774
0.122625
0.153135
0.181675
0.202991
0.211319
0.203112
0.181536
0.153137
0.122646
0.120716
0.131168
0.158653
0.184942
0.205153
0.21307
0.205154
0.184824
0.158518
0.131214
0.130621
0.137491
0.161896
0.186848
0.20591
0.213766
0.205885
0.18667
0.161791
0.137638
0.137455
0.14226
0.164171
0.187691
0.205835
0.213493
0.205683
0.187529
0.163849
0.142086
0.142256
0.145088
0.165321
0.187855
0.205765
0.213047
0.205654
0.187639
0.165239
0.144888
0.145319
0.146811
0.16581
0.187817
0.205166
0.212597
0.205227
0.187864
0.165668
0.146742
0.146946
0.147717
0.165773
0.187531
0.204906
0.211649
0.204493
0.187429
0.165737
0.147562
0.147417
0.147665
0.165531
0.187113
0.204185
0.21118
0.204155
0.186977
0.165232
0.147512
0.147266
0.147402
0.165257
0.186794
0.204035
0.210875
0.203745
0.186714
0.165159
0.147326
0.0576172
0.0443172
0.0364265
0.0363178
0.0395355
0.0412636
0.0395069
0.036211
0.0364399
0.0441189
0.049778
0.0412979
0.0359669
0.03619
0.0392971
0.0410786
0.039362
0.0361919
0.0357971
0.041235
0.0448914
0.0394516
0.0354424
0.0359879
0.0391331
0.0407143
0.0389118
0.0360641
0.03549
0.0393257
0.0420952
0.0380764
0.0351295
0.035881
0.0387135
0.0401287
0.0387993
0.0357265
0.0348759
0.0380688
0.0402412
0.037384
0.0349064
0.0356007
0.0385342
0.0399094
0.0383587
0.0357475
0.034771
0.0373421
0.0390587
0.0367241
0.0346737
0.0355263
0.0382233
0.0398026
0.0382938
0.0353813
0.0344849
0.0366364
0.0384731
0.0364017
0.0344257
0.0354557
0.0381489
0.0394783
0.0382614
0.0355244
0.0344391
0.0365219
0.0377846
0.0361614
0.034277
0.03508
0.0378609
0.03932
0.0378876
0.0351658
0.0340633
0.0359783
0.0373402
0.0354977
0.0337639
0.0349216
0.0374794
0.0389919
0.0373878
0.0346909
0.0337734
0.035553
0.0370617
0.035284
0.0334816
0.0345802
0.0371361
0.0384464
0.0371552
0.0342674
0.0334778
0.0353031
0.18783
0.190893
0.193537
0.194584
0.197283
0.197687
0.197384
0.194521
0.193346
0.190804
0.18984
0.191742
0.194593
0.195332
0.197861
0.198454
0.197874
0.195261
0.194448
0.191799
0.19165
0.192671
0.195402
0.196344
0.19858
0.199181
0.19849
0.196293
0.195499
0.192722
0.193388
0.193735
0.196451
0.197321
0.199329
0.199696
0.199394
0.197235
0.196501
0.193556
0.194767
0.19475
0.19754
0.198338
0.200176
0.20076
0.199884
0.198156
0.197369
0.194752
0.195986
0.195896
0.198605
0.199154
0.200764
0.201546
0.200886
0.199171
0.198187
0.19577
0.197239
0.196905
0.199345
0.200125
0.201801
0.202398
0.201704
0.199947
0.199175
0.196831
0.196913
0.196688
0.199341
0.199778
0.201485
0.202251
0.201292
0.199684
0.198887
0.196619
0.195063
0.194731
0.197275
0.198105
0.199799
0.200434
0.199543
0.197876
0.197296
0.194721
0.193213
0.192501
0.195238
0.195908
0.197479
0.198093
0.197414
0.195606
0.194906
0.192457
0.551195
0.553381
0.550655
0.548906
0.550177
0.549417
0.550247
0.549093
0.550587
0.553499
0.552225
0.553326
0.551289
0.549644
0.550602
0.549921
0.550484
0.54974
0.551359
0.553225
0.553396
0.553547
0.552084
0.550301
0.55084
0.550241
0.551006
0.550171
0.55197
0.553547
0.554199
0.553665
0.552479
0.550529
0.551275
0.550772
0.551052
0.550798
0.552296
0.55353
0.554674
0.553808
0.552626
0.551119
0.551456
0.551016
0.551397
0.551109
0.552605
0.553843
0.55534
0.554283
0.553188
0.551394
0.551916
0.55155
0.551828
0.551615
0.553198
0.554226
0.556284
0.554632
0.55397
0.551966
0.552401
0.552052
0.552238
0.552023
0.553993
0.554712
0.555138
0.553352
0.552666
0.550711
0.55102
0.550838
0.551098
0.550793
0.552797
0.553291
0.551676
0.54994
0.549505
0.547373
0.5476
0.547321
0.547729
0.547344
0.549454
0.549898
0.547909
0.546053
0.54558
0.543488
0.543997
0.543482
0.543932
0.543549
0.545584
0.546144
1.2096
1.21728
1.21358
1.21325
1.21472
1.21287
1.21468
1.21333
1.21374
1.21736
1.20914
1.21565
1.2134
1.21249
1.2142
1.21237
1.21432
1.21249
1.21363
1.21564
1.2091
1.21396
1.21321
1.21209
1.21384
1.21198
1.21371
1.21204
1.21319
1.21385
1.20896
1.21262
1.21302
1.21156
1.21355
1.21156
1.21351
1.21154
1.21307
1.21275
1.20899
1.21202
1.213
1.21126
1.21344
1.21175
1.21347
1.21134
1.21318
1.21201
1.20934
1.21168
1.21344
1.21136
1.21363
1.21181
1.2138
1.2114
1.21347
1.21162
1.21032
1.21214
1.21433
1.21209
1.21437
1.21267
1.21457
1.21222
1.2142
1.21239
1.20872
1.21057
1.21281
1.21063
1.21299
1.21116
1.21306
1.21059
1.21285
1.21053
1.20411
1.2059
1.20833
1.20592
1.20827
1.20651
1.20824
1.20586
1.20828
1.20587
1.19878
1.20052
1.20287
1.20039
1.20284
1.2013
1.20297
1.20058
1.20295
1.20065
2.19925
2.19008
2.18131
2.18238
2.18117
2.17951
2.1812
2.18239
2.18127
2.1902
2.19639
2.18941
2.18136
2.18194
2.18139
2.17963
2.18142
2.18206
2.18128
2.1895
2.19428
2.18867
2.18151
2.18155
2.18154
2.17968
2.1815
2.18172
2.18156
2.18859
2.19258
2.18829
2.18162
2.18168
2.18173
2.18011
2.18173
2.18168
2.18165
2.18824
2.19152
2.18823
2.1821
2.18182
2.18218
2.18047
2.18217
2.18196
2.1821
2.18816
2.19146
2.18884
2.18289
2.18223
2.18283
2.18093
2.18277
2.18233
2.18288
2.1888
2.19208
2.18957
2.18408
2.18312
2.18359
2.18199
2.18371
2.18325
2.18392
2.18973
2.18953
2.18737
2.18176
2.18071
2.18151
2.17967
2.18152
2.18073
2.18169
2.18739
2.18304
2.1813
2.17537
2.1743
2.17501
2.17321
2.17498
2.17446
2.17543
2.18126
2.1756
2.17389
2.1681
2.16703
2.16779
2.16592
2.16781
2.16711
2.16794
2.1741
3.33556
3.354
3.37041
3.37585
3.38054
3.38091
3.38065
3.37586
3.37054
3.35402
3.34248
3.35683
3.37153
3.37528
3.37928
3.37942
3.37931
3.37533
3.37148
3.35667
3.34823
3.35852
3.37181
3.37468
3.37807
3.37795
3.37827
3.37475
3.37186
3.35868
3.35248
3.36027
3.3718
3.37421
3.37749
3.37671
3.37747
3.37434
3.37185
3.36036
3.356
3.36174
3.37229
3.37431
3.37692
3.37636
3.37697
3.37417
3.37241
3.3619
3.35922
3.36315
3.37305
3.3747
3.37718
3.3763
3.3773
3.3746
3.37294
3.3631
3.36241
3.36514
3.37435
3.37604
3.37852
3.37754
3.37852
3.37622
3.37437
3.36541
3.36121
3.3635
3.37229
3.37417
3.37657
3.37541
3.37642
3.37421
3.37234
3.36356
3.35409
3.35596
3.36483
3.36666
3.3689
3.36761
3.36894
3.36681
3.36492
3.3561
3.34494
3.34695
3.35564
3.35754
3.35984
3.35883
3.35998
3.35771
3.35562
3.34693
4.96413
4.94096
4.91495
4.91768
4.92158
4.92265
4.92175
4.91785
4.91511
4.94088
4.94769
4.93542
4.91412
4.91771
4.92279
4.9239
4.92303
4.91792
4.91413
4.93543
4.93657
4.93252
4.91403
4.91874
4.92445
4.92533
4.92455
4.91868
4.91436
4.93257
4.92923
4.93083
4.9147
4.91938
4.92571
4.9263
4.92551
4.91948
4.91471
4.93096
4.92455
4.9299
4.91545
4.92034
4.92658
4.92744
4.92667
4.9205
4.91561
4.93014
4.92192
4.92993
4.91693
4.92159
4.9279
4.92878
4.92805
4.9218
4.91699
4.92998
4.92194
4.93172
4.91941
4.92402
4.93032
4.93118
4.93039
4.92419
4.91934
4.93147
4.91752
4.92796
4.9164
4.92092
4.92745
4.92817
4.92739
4.92114
4.91672
4.92812
4.90664
4.91782
4.90639
4.91095
4.91731
4.91817
4.91735
4.9109
4.90634
4.91801
4.89398
4.90551
4.89373
4.8983
4.90467
4.90551
4.90479
4.89822
4.89373
4.90555
6.82567
6.89842
6.98586
7.00363
7.0001
6.99732
7.00016
7.00372
6.98603
6.89835
6.87012
6.91268
6.97377
6.98233
6.97518
6.97104
6.97531
6.98252
6.97403
6.91267
6.89098
6.91391
6.95579
6.95797
6.94845
6.94362
6.94853
6.9579
6.95581
6.91416
6.89904
6.90886
6.93654
6.93394
6.92369
6.91841
6.92351
6.93399
6.93633
6.90884
6.90059
6.90131
6.92013
6.91482
6.90377
6.8979
6.90366
6.91488
6.92027
6.90129
6.89933
6.89431
6.90741
6.90014
6.88864
6.88279
6.88859
6.9001
6.90751
6.89432
6.89831
6.88948
6.89932
6.89083
6.87906
6.87326
6.87922
6.89063
6.89943
6.88963
6.88975
6.8787
6.88649
6.87732
6.86555
6.85966
6.86542
6.87734
6.88646
6.87876
6.87111
6.8592
6.86588
6.85669
6.84491
6.83904
6.84493
6.85654
6.86575
6.85933
6.85063
6.83827
6.84487
6.83566
6.82405
6.81816
6.82393
6.83562
6.84484
6.8385
9.151
9.26997
9.25619
9.2363
9.22858
9.22487
9.22846
9.23602
9.25591
9.2699
9.13437
9.23543
9.23098
9.21601
9.21108
9.20818
9.21094
9.21554
9.23099
9.23547
9.12881
9.21418
9.21855
9.20722
9.20397
9.20152
9.20382
9.20703
9.21836
9.21403
9.12903
9.20252
9.21387
9.20557
9.20363
9.20133
9.2034
9.20554
9.21402
9.2024
9.13144
9.19757
9.21423
9.20805
9.20685
9.20478
9.20657
9.2078
9.21395
9.19737
9.1347
9.1972
9.21771
9.21391
9.21319
9.21119
9.21297
9.21343
9.21762
9.19694
9.14138
9.20256
9.22651
9.22401
9.22372
9.22197
9.22364
9.22383
9.22607
9.20233
9.14306
9.2052
9.23121
9.22998
9.23016
9.22819
9.22972
9.22962
9.23111
9.20494
9.1342
9.19779
9.2255
9.22428
9.22449
9.22272
9.22401
9.22402
9.22518
9.19763
9.11806
9.18311
9.21133
9.21027
9.21034
9.20883
9.21016
9.21012
9.21106
9.18285
)
;

boundaryField
{
    leftWall
    {
        type            calculated;
        value           nonuniform List<scalar> 
100
(
6.86646e-05
0.125172
0.190107
0.552847
1.22332
2.22216
3.30548
5.12904
6.28282
9.54928
0.0561371
0.0735207
0.195969
0.561676
1.23456
2.19674
3.36018
5.00961
6.62347
9.5686
0.0853558
0.0416298
0.194405
0.552561
1.22148
2.19006
3.37705
4.96247
6.87309
9.51099
0.123098
0.0371723
0.197256
0.554564
1.22401
2.19252
3.39063
4.95678
6.96554
9.45152
0.148672
0.0399876
0.201023
0.555899
1.22407
2.19027
3.39764
4.9527
6.99237
9.41403
0.157442
0.0415897
0.201147
0.554554
1.2219
2.18915
3.39857
4.95368
6.99703
9.40586
0.148716
0.0398655
0.200941
0.555769
1.22404
2.19052
3.39757
4.95264
6.99234
9.4139
0.122871
0.0372906
0.197201
0.554487
1.22408
2.19267
3.39095
4.95687
6.96545
9.45129
0.0852489
0.0416775
0.194378
0.552727
1.22166
2.18991
3.37724
4.96247
6.87341
9.51083
0.0563221
0.0734463
0.195906
0.561758
1.23446
2.19677
3.36012
5.00961
6.62389
9.56886
)
;
    }
    rightWall
    {
        type            calculated;
        value           nonuniform List<scalar> 
100
(
0.147264
0.0370617
0.193213
0.547909
1.19878
2.1756
3.34494
4.89398
6.85063
9.11806
0.1474
0.0352859
0.192501
0.546053
1.20052
2.17389
3.34695
4.90551
6.83827
9.18311
0.165257
0.0334816
0.195238
0.545582
1.20287
2.1681
3.35563
4.89373
6.84487
9.21134
0.186794
0.0345783
0.195913
0.543488
1.20039
2.16703
3.35754
4.8983
6.83566
9.21027
0.204035
0.0371361
0.197479
0.543995
1.20284
2.16779
3.35984
4.90467
6.82405
9.21034
0.210875
0.0384464
0.198093
0.543482
1.2013
2.16592
3.35883
4.90552
6.81816
9.20883
0.203743
0.0371552
0.197412
0.543932
1.20297
2.16781
3.35998
4.90479
6.82393
9.21017
0.186714
0.0342693
0.195606
0.543549
1.20059
2.16711
3.35771
4.89822
6.83562
9.21012
0.165161
0.0334759
0.194906
0.54558
1.20294
2.16794
3.35562
4.89373
6.84484
9.21106
0.147326
0.0353031
0.192457
0.546144
1.20066
2.1741
3.34693
4.90555
6.8385
9.18285
)
;
    }
    leftSides_periodic0
    {
        type            cyclic;
    }
    leftSides_periodic1
    {
        type            cyclic;
    }
    rightSides_periodic0
    {
        type            cyclic;
    }
    rightSides_periodic1
    {
        type            cyclic;
    }
    leftInOut_periodic0
    {
        type            cyclic;
    }
    leftInOut_periodic1
    {
        type            cyclic;
    }
    rightInOut_periodic0
    {
        type            cyclic;
    }
    rightInOut_periodic1
    {
        type            cyclic;
    }
}


// ************************************************************************* //
