/*--------------------------------*- C++ -*----------------------------------*\
| =========                 |                                                 |
| \\      /  F ield         | OpenFOAM: The Open Source CFD Toolbox           |
|  \\    /   O peration     | Version:  v1912                                 |
|   \\  /    A nd           | Website:  www.openfoam.com                      |
|    \\/     M anipulation  |                                                 |
\*---------------------------------------------------------------------------*/
FoamFile
{
    version     2.0;
    format      ascii;
    class       volScalarField;
    location    "198.4";
    object      nut;
}
// * * * * * * * * * * * * * * * * * * * * * * * * * * * * * * * * * * * * * //

dimensions      [0 2 -1 0 0 0 0];


internalField   nonuniform List<scalar> 
10147
(
1.59399e-05
1.44258e-05
1.27866e-05
1.24361e-05
1.24866e-05
1.24738e-05
1.24487e-05
1.24201e-05
1.24178e-05
1.24224e-05
1.24539e-05
1.24818e-05
1.24975e-05
1.24489e-05
1.2797e-05
1.44269e-05
1.27549e-05
1.25678e-05
1.25056e-05
1.24921e-05
1.24912e-05
1.24958e-05
1.25127e-05
1.25769e-05
1.27632e-05
1.30766e-05
1.3384e-05
1.28634e-05
1.26398e-05
1.26509e-05
1.26272e-05
1.2553e-05
1.28806e-05
1.46433e-05
1.27832e-05
1.56447e-05
1.42524e-05
1.283e-05
1.25279e-05
1.25675e-05
1.25308e-05
1.24879e-05
1.24476e-05
1.24423e-05
1.24501e-05
1.24934e-05
1.25392e-05
1.2579e-05
1.25413e-05
1.28416e-05
1.42544e-05
1.53262e-05
1.40634e-05
1.28478e-05
1.25956e-05
1.26248e-05
1.25702e-05
1.25116e-05
1.2461e-05
1.24529e-05
1.24636e-05
1.25173e-05
1.25789e-05
1.26367e-05
1.26094e-05
1.28601e-05
1.40663e-05
1.49935e-05
1.38619e-05
1.28439e-05
1.26406e-05
1.26625e-05
1.25927e-05
1.25204e-05
1.24608e-05
1.24504e-05
1.24637e-05
1.25264e-05
1.26016e-05
1.26745e-05
1.26548e-05
1.28569e-05
1.38658e-05
1.46542e-05
1.36539e-05
1.28207e-05
1.26641e-05
1.26813e-05
1.25989e-05
1.25152e-05
1.24481e-05
1.24355e-05
1.2451e-05
1.25213e-05
1.2608e-05
1.26934e-05
1.26786e-05
1.28344e-05
1.36587e-05
1.43092e-05
1.34435e-05
1.27807e-05
1.26678e-05
1.26824e-05
1.259e-05
1.24969e-05
1.24237e-05
1.24093e-05
1.24267e-05
1.25032e-05
1.25992e-05
1.26945e-05
1.26825e-05
1.27949e-05
1.34492e-05
1.39657e-05
1.32342e-05
1.27261e-05
1.26535e-05
1.26674e-05
1.25673e-05
1.24668e-05
1.23887e-05
1.23728e-05
1.23918e-05
1.24731e-05
1.25765e-05
1.26795e-05
1.26683e-05
1.27408e-05
1.32408e-05
1.36303e-05
1.30291e-05
1.26593e-05
1.26233e-05
1.26379e-05
1.2532e-05
1.2426e-05
1.23442e-05
1.23272e-05
1.23475e-05
1.24325e-05
1.25414e-05
1.265e-05
1.26382e-05
1.26743e-05
1.30366e-05
1.33092e-05
1.28304e-05
1.25822e-05
1.25811e-05
1.25976e-05
1.24867e-05
1.23761e-05
1.22915e-05
1.22735e-05
1.22948e-05
1.23827e-05
1.24961e-05
1.26097e-05
1.25962e-05
1.25976e-05
1.28386e-05
1.30062e-05
1.26395e-05
1.24978e-05
1.25321e-05
1.25514e-05
1.24356e-05
1.23206e-05
1.22333e-05
1.22145e-05
1.22367e-05
1.23272e-05
1.24451e-05
1.25636e-05
1.25473e-05
1.25135e-05
1.26484e-05
1.2723e-05
1.24572e-05
1.24102e-05
1.24791e-05
1.2502e-05
1.23823e-05
1.22636e-05
1.21738e-05
1.21544e-05
1.21773e-05
1.22704e-05
1.2392e-05
1.25142e-05
1.24943e-05
1.24261e-05
1.24666e-05
1.24597e-05
1.22835e-05
1.23226e-05
1.24226e-05
1.24494e-05
1.23276e-05
1.22063e-05
1.21149e-05
1.20953e-05
1.21185e-05
1.22132e-05
1.23373e-05
1.24615e-05
1.24377e-05
1.23387e-05
1.22934e-05
1.2213e-05
1.21179e-05
1.22358e-05
1.23621e-05
1.2393e-05
1.22706e-05
1.21482e-05
1.20561e-05
1.20365e-05
1.20598e-05
1.21552e-05
1.22803e-05
1.2405e-05
1.23771e-05
1.2252e-05
1.21281e-05
1.19832e-05
1.19596e-05
1.21493e-05
1.2297e-05
1.23317e-05
1.22102e-05
1.20879e-05
1.19962e-05
1.19768e-05
1.19999e-05
1.20949e-05
1.22199e-05
1.23436e-05
1.23117e-05
1.21654e-05
1.19701e-05
1.17695e-05
1.18091e-05
1.2062e-05
1.22262e-05
1.22646e-05
1.21452e-05
1.20241e-05
1.19336e-05
1.19147e-05
1.19373e-05
1.20311e-05
1.21547e-05
1.22763e-05
1.22406e-05
1.20779e-05
1.18198e-05
1.15707e-05
1.16672e-05
1.19728e-05
1.2149e-05
1.21906e-05
1.20743e-05
1.19555e-05
1.18668e-05
1.18486e-05
1.18705e-05
1.19624e-05
1.20836e-05
1.2202e-05
1.2163e-05
1.19884e-05
1.1678e-05
1.1385e-05
1.15332e-05
1.18803e-05
1.20644e-05
1.21089e-05
1.19964e-05
1.18807e-05
1.17946e-05
1.17772e-05
1.17982e-05
1.18875e-05
1.20055e-05
1.21199e-05
1.2078e-05
1.18956e-05
1.15441e-05
1.12111e-05
1.14055e-05
1.17835e-05
1.19719e-05
1.20186e-05
1.19107e-05
1.17988e-05
1.17158e-05
1.16993e-05
1.17193e-05
1.18054e-05
1.19196e-05
1.20293e-05
1.1985e-05
1.17983e-05
1.14164e-05
1.10484e-05
1.1282e-05
1.16812e-05
1.18708e-05
1.19193e-05
1.18165e-05
1.1709e-05
1.16294e-05
1.1614e-05
1.16329e-05
1.17154e-05
1.18251e-05
1.19296e-05
1.18834e-05
1.16955e-05
1.12927e-05
1.08963e-05
1.11606e-05
1.15727e-05
1.17609e-05
1.18108e-05
1.17134e-05
1.16106e-05
1.15348e-05
1.15205e-05
1.15382e-05
1.16168e-05
1.17217e-05
1.18207e-05
1.1773e-05
1.15864e-05
1.11711e-05
1.07527e-05
1.10392e-05
1.14571e-05
1.1642e-05
1.16929e-05
1.16011e-05
1.15032e-05
1.14314e-05
1.14182e-05
1.14347e-05
1.15092e-05
1.1609e-05
1.17024e-05
1.16536e-05
1.14702e-05
1.10494e-05
1.06151e-05
1.0916e-05
1.13341e-05
1.15144e-05
1.15363e-05
1.14797e-05
1.13868e-05
1.13189e-05
1.13068e-05
1.13221e-05
1.13926e-05
1.14874e-05
1.15447e-05
1.15254e-05
1.13467e-05
1.09258e-05
1.04809e-05
1.07892e-05
1.12036e-05
1.12867e-05
1.12542e-05
1.12285e-05
1.11903e-05
1.11555e-05
1.1153e-05
1.11576e-05
1.11948e-05
1.12351e-05
1.12625e-05
1.12965e-05
1.12155e-05
1.07987e-05
1.03475e-05
1.06576e-05
1.09862e-05
1.10075e-05
1.0973e-05
1.0946e-05
1.09167e-05
1.08875e-05
1.08864e-05
1.08895e-05
1.0921e-05
1.09526e-05
1.09814e-05
1.1017e-05
1.09948e-05
1.06667e-05
1.02128e-05
1.05204e-05
1.0719e-05
1.07548e-05
1.07341e-05
1.07005e-05
1.06656e-05
1.06327e-05
1.06304e-05
1.0635e-05
1.06701e-05
1.07071e-05
1.07424e-05
1.07641e-05
1.07271e-05
1.05292e-05
1.00752e-05
1.03773e-05
1.04762e-05
1.05457e-05
1.05424e-05
1.0503e-05
1.04605e-05
1.04226e-05
1.04189e-05
1.04251e-05
1.04653e-05
1.05097e-05
1.05505e-05
1.05549e-05
1.04843e-05
1.03857e-05
9.93361e-06
1.02285e-05
1.02744e-05
1.03757e-05
1.03881e-05
1.03454e-05
1.02971e-05
1.02555e-05
1.02509e-05
1.02582e-05
1.03022e-05
1.03521e-05
1.03959e-05
1.03846e-05
1.02828e-05
1.02365e-05
9.78759e-06
1.00741e-05
1.01059e-05
1.02315e-05
1.02568e-05
1.02127e-05
1.01612e-05
1.01174e-05
1.01123e-05
1.01202e-05
1.01663e-05
1.02193e-05
1.02642e-05
1.024e-05
1.01144e-05
1.00817e-05
9.63696e-06
9.90346e-06
9.95615e-06
1.00991e-05
1.01345e-05
1.00902e-05
1.00372e-05
9.99247e-06
9.98741e-06
9.99531e-06
1.00423e-05
1.00967e-05
1.01416e-05
1.01072e-05
9.96461e-06
9.90995e-06
9.48149e-06
9.70285e-06
9.81249e-06
9.96715e-06
1.00107e-05
9.96662e-06
9.91337e-06
9.86859e-06
9.86372e-06
9.87142e-06
9.9184e-06
9.97283e-06
1.00175e-05
9.97495e-06
9.82075e-06
9.70878e-06
9.31133e-06
9.50106e-06
9.66684e-06
9.82939e-06
9.87942e-06
9.83584e-06
9.78316e-06
9.73885e-06
9.73428e-06
9.74164e-06
9.78808e-06
9.84185e-06
9.88588e-06
9.83682e-06
9.6748e-06
9.50679e-06
9.1067e-06
9.30843e-06
9.51539e-06
9.68312e-06
9.73843e-06
9.69551e-06
9.64382e-06
9.60028e-06
9.59607e-06
9.60302e-06
9.64862e-06
9.7013e-06
9.74457e-06
9.6902e-06
9.52302e-06
9.31421e-06
8.90237e-06
9.12482e-06
9.35718e-06
9.52728e-06
9.58654e-06
9.5445e-06
9.49417e-06
9.45183e-06
9.44799e-06
9.45448e-06
9.49881e-06
9.55005e-06
9.59237e-06
9.53401e-06
9.36448e-06
9.13062e-06
8.7074e-06
8.94651e-06
9.19256e-06
9.36009e-06
9.42106e-06
9.38051e-06
9.33217e-06
9.29209e-06
9.2886e-06
9.2946e-06
9.33658e-06
9.38577e-06
9.42655e-06
9.36644e-06
9.19952e-06
8.95224e-06
8.52197e-06
8.76906e-06
9.02154e-06
9.17621e-06
9.23419e-06
9.19689e-06
9.15207e-06
9.11677e-06
9.11351e-06
9.11907e-06
9.1561e-06
9.20171e-06
9.23928e-06
9.18209e-06
9.02814e-06
8.77463e-06
8.34436e-06
8.58471e-06
8.8404e-06
8.95726e-06
9.00424e-06
8.97389e-06
8.93482e-06
8.91024e-06
8.90694e-06
8.91211e-06
8.93819e-06
8.97803e-06
9.0088e-06
8.96247e-06
8.84653e-06
8.58996e-06
8.1716e-06
8.38108e-06
8.63951e-06
8.72007e-06
8.76538e-06
8.73778e-06
8.70187e-06
8.67981e-06
8.67681e-06
8.68159e-06
8.70508e-06
8.74171e-06
8.76968e-06
8.72497e-06
8.6449e-06
8.38573e-06
7.9963e-06
8.15846e-06
8.40302e-06
8.47595e-06
8.51943e-06
8.49449e-06
8.46161e-06
8.44194e-06
8.4392e-06
8.44363e-06
8.46466e-06
8.49822e-06
8.5235e-06
8.48055e-06
8.40805e-06
8.16279e-06
7.80037e-06
7.92907e-06
8.15963e-06
8.22528e-06
8.26678e-06
8.24442e-06
8.21444e-06
8.19703e-06
8.19451e-06
8.19864e-06
8.21734e-06
8.24797e-06
8.27064e-06
8.22958e-06
8.16432e-06
7.93308e-06
7.58065e-06
7.69309e-06
7.90967e-06
7.96838e-06
8.00779e-06
7.98793e-06
7.9607e-06
7.94542e-06
7.94311e-06
7.94696e-06
7.96346e-06
7.99129e-06
8.01144e-06
7.97241e-06
7.91403e-06
7.69679e-06
7.35402e-06
7.45064e-06
7.65341e-06
7.70552e-06
7.74275e-06
7.72529e-06
7.70069e-06
7.68741e-06
7.68527e-06
7.68887e-06
7.70332e-06
7.72849e-06
7.7462e-06
7.70929e-06
7.65745e-06
7.45404e-06
7.12057e-06
7.20183e-06
7.39104e-06
7.43691e-06
7.47188e-06
7.45674e-06
7.43463e-06
7.42322e-06
7.42123e-06
7.4246e-06
7.43713e-06
7.45977e-06
7.47515e-06
7.44044e-06
7.39477e-06
7.20495e-06
6.88043e-06
6.94686e-06
7.1228e-06
7.16278e-06
7.19542e-06
7.18251e-06
7.16277e-06
7.1531e-06
7.15125e-06
7.15441e-06
7.16515e-06
7.18539e-06
7.19852e-06
7.16607e-06
7.12625e-06
6.94969e-06
6.63371e-06
6.6859e-06
6.84893e-06
6.88334e-06
6.91363e-06
6.90286e-06
6.88536e-06
6.8773e-06
6.87557e-06
6.87855e-06
6.88762e-06
6.90559e-06
6.91656e-06
6.88641e-06
6.8521e-06
6.68846e-06
6.38048e-06
6.41909e-06
6.56961e-06
6.5988e-06
6.62671e-06
6.61799e-06
6.60261e-06
6.59603e-06
6.5944e-06
6.59722e-06
6.60475e-06
6.62058e-06
6.62949e-06
6.60166e-06
6.57251e-06
6.42139e-06
6.12082e-06
6.14657e-06
6.28502e-06
6.30933e-06
6.33487e-06
6.32809e-06
6.31472e-06
6.3095e-06
6.30796e-06
6.31062e-06
6.31674e-06
6.33055e-06
6.3375e-06
6.31199e-06
6.28768e-06
6.14864e-06
5.85485e-06
5.86852e-06
5.99535e-06
6.01512e-06
6.03831e-06
6.03337e-06
6.02188e-06
6.0179e-06
6.01644e-06
6.01895e-06
6.0238e-06
6.0357e-06
6.0408e-06
6.0176e-06
5.99777e-06
5.87035e-06
5.58271e-06
5.58513e-06
5.70082e-06
5.71639e-06
5.73726e-06
5.73404e-06
5.72432e-06
5.72146e-06
5.72007e-06
5.72246e-06
5.72613e-06
5.73625e-06
5.73962e-06
5.71869e-06
5.70302e-06
5.58674e-06
5.30458e-06
5.29665e-06
5.40168e-06
5.41339e-06
5.432e-06
5.4304e-06
5.42232e-06
5.42047e-06
5.41914e-06
5.42141e-06
5.42403e-06
5.43249e-06
5.43424e-06
5.41553e-06
5.40367e-06
5.29806e-06
5.02076e-06
5.00341e-06
5.09826e-06
5.10646e-06
5.12288e-06
5.12278e-06
5.11622e-06
5.11527e-06
5.114e-06
5.11616e-06
5.11783e-06
5.12476e-06
5.125e-06
5.10845e-06
5.10006e-06
5.00463e-06
4.73162e-06
4.70584e-06
4.79101e-06
4.79605e-06
4.81036e-06
4.81162e-06
4.80647e-06
4.80632e-06
4.8051e-06
4.80715e-06
4.80799e-06
4.81349e-06
4.81236e-06
4.79788e-06
4.79262e-06
4.70688e-06
4.43766e-06
4.40451e-06
4.48049e-06
4.48271e-06
4.49501e-06
4.49752e-06
4.49364e-06
4.4942e-06
4.49302e-06
4.49498e-06
4.49508e-06
4.49929e-06
4.4969e-06
4.48441e-06
4.48193e-06
4.40538e-06
4.13958e-06
4.10014e-06
4.16742e-06
4.16718e-06
4.1776e-06
4.18121e-06
4.17849e-06
4.17966e-06
4.17852e-06
4.18039e-06
4.17984e-06
4.18288e-06
4.17939e-06
4.16875e-06
4.16871e-06
4.10087e-06
3.83823e-06
3.79368e-06
3.85276e-06
3.85041e-06
3.85908e-06
3.86365e-06
3.86196e-06
3.86365e-06
3.86255e-06
3.86433e-06
3.86322e-06
3.86522e-06
3.86077e-06
3.85186e-06
3.8539e-06
3.79428e-06
3.53474e-06
3.4863e-06
3.53767e-06
3.53357e-06
3.54066e-06
3.54602e-06
3.54523e-06
3.54736e-06
3.5463e-06
3.54799e-06
3.54641e-06
3.5475e-06
3.54226e-06
3.53492e-06
3.53868e-06
3.48678e-06
3.2305e-06
3.17944e-06
3.22361e-06
3.21813e-06
3.22382e-06
3.22979e-06
3.22978e-06
3.23226e-06
3.23125e-06
3.23285e-06
3.23088e-06
3.23118e-06
3.22533e-06
3.21937e-06
3.22451e-06
3.17982e-06
2.92722e-06
2.87484e-06
2.91232e-06
2.9058e-06
2.91029e-06
2.91669e-06
2.91732e-06
2.92009e-06
2.91912e-06
2.92063e-06
2.91834e-06
2.918e-06
2.91171e-06
2.90695e-06
2.91312e-06
2.87512e-06
2.62692e-06
2.57444e-06
2.60577e-06
2.59855e-06
2.60201e-06
2.60868e-06
2.60982e-06
2.6128e-06
2.61189e-06
2.6133e-06
2.61077e-06
2.6099e-06
2.60334e-06
2.59961e-06
2.60647e-06
2.57465e-06
2.33187e-06
2.28042e-06
2.30614e-06
2.29855e-06
2.30115e-06
2.30793e-06
2.30946e-06
2.31259e-06
2.31173e-06
2.31305e-06
2.31033e-06
2.30906e-06
2.30239e-06
2.29953e-06
2.30676e-06
2.28057e-06
2.04458e-06
1.99516e-06
2.01583e-06
2.00817e-06
2.01009e-06
2.0168e-06
2.01861e-06
2.02183e-06
2.02101e-06
2.02224e-06
2.01941e-06
2.01785e-06
2.01124e-06
2.00907e-06
2.01637e-06
1.99525e-06
1.76769e-06
1.72118e-06
1.73741e-06
1.72994e-06
1.73133e-06
1.73783e-06
1.73981e-06
1.74304e-06
1.74228e-06
1.74341e-06
1.74053e-06
1.73878e-06
1.73239e-06
1.73076e-06
1.73788e-06
1.72124e-06
1.50395e-06
1.46109e-06
1.47348e-06
1.46643e-06
1.46746e-06
1.47358e-06
1.47563e-06
1.47881e-06
1.47812e-06
1.47914e-06
1.47628e-06
1.47445e-06
1.46842e-06
1.46717e-06
1.47389e-06
1.46112e-06
1.25608e-06
1.21744e-06
1.22662e-06
1.22016e-06
1.22095e-06
1.22658e-06
1.22861e-06
1.23166e-06
1.23104e-06
1.23195e-06
1.22919e-06
1.22736e-06
1.22181e-06
1.22082e-06
1.22698e-06
1.21744e-06
1.02663e-06
9.92593e-07
9.99199e-07
9.93435e-07
9.94097e-07
9.9913e-07
1.00107e-06
1.00392e-06
1.00337e-06
1.00417e-06
1.00157e-06
9.99809e-07
9.94856e-07
9.94012e-07
9.99506e-07
9.92586e-07
8.15929e-07
7.85977e-07
7.90939e-07
7.85967e-07
7.86336e-07
7.90845e-07
7.92599e-07
7.95125e-07
7.94613e-07
7.95336e-07
7.93024e-07
7.91431e-07
7.86992e-07
7.86466e-07
7.91202e-07
7.85964e-07
6.26042e-07
6.0075e-07
6.04279e-07
6.00166e-07
6.0036e-07
6.04228e-07
6.05753e-07
6.07916e-07
6.07467e-07
6.08089e-07
6.06105e-07
6.04717e-07
6.00911e-07
6.00584e-07
6.04497e-07
6.00735e-07
4.60857e-07
4.40449e-07
4.42845e-07
4.39592e-07
4.3971e-07
4.4286e-07
4.44129e-07
4.45903e-07
4.45534e-07
4.4604e-07
4.4441e-07
4.43252e-07
4.40153e-07
4.39929e-07
4.4302e-07
4.40434e-07
3.22873e-07
3.0725e-07
3.08828e-07
3.0638e-07
3.06481e-07
3.08898e-07
3.099e-07
3.11275e-07
3.10995e-07
3.11378e-07
3.10112e-07
3.09197e-07
3.0682e-07
3.06638e-07
3.08961e-07
3.07238e-07
2.13074e-07
2.01856e-07
2.02877e-07
2.01143e-07
2.0125e-07
2.02976e-07
2.03717e-07
2.04711e-07
2.04515e-07
2.04784e-07
2.03868e-07
2.0319e-07
2.01492e-07
2.01328e-07
2.02973e-07
2.01847e-07
1.30794e-07
1.23357e-07
1.24008e-07
1.22869e-07
1.22975e-07
1.24107e-07
1.24614e-07
1.25272e-07
1.25149e-07
1.25319e-07
1.24714e-07
1.24249e-07
1.23135e-07
1.22991e-07
1.24072e-07
1.23351e-07
7.35956e-08
6.91307e-08
6.95302e-08
6.88504e-08
6.89406e-08
6.96124e-08
6.99256e-08
7.03174e-08
7.02492e-08
7.03459e-08
6.99853e-08
6.96973e-08
6.90368e-08
6.89243e-08
6.95692e-08
6.91275e-08
3.73549e-08
3.49798e-08
3.52061e-08
3.4846e-08
3.49092e-08
3.52634e-08
3.54347e-08
3.56412e-08
3.5608e-08
3.56564e-08
3.54666e-08
3.53088e-08
3.49607e-08
3.48857e-08
3.52273e-08
3.49784e-08
1.68113e-08
1.57152e-08
1.58282e-08
1.5663e-08
1.56989e-08
1.58621e-08
1.59433e-08
1.6038e-08
1.60239e-08
1.60451e-08
1.59582e-08
1.58833e-08
1.57229e-08
1.56816e-08
1.58382e-08
1.57148e-08
6.57328e-09
6.14346e-09
6.19113e-09
6.12701e-09
6.14338e-09
6.20802e-09
6.24061e-09
6.27781e-09
6.27269e-09
6.28068e-09
6.24661e-09
6.21654e-09
6.15302e-09
6.13451e-09
6.19525e-09
6.14339e-09
2.16756e-09
2.02808e-09
2.0445e-09
2.02406e-09
2.02994e-09
2.0514e-09
2.06219e-09
2.07441e-09
2.0728e-09
2.07537e-09
2.0642e-09
2.05425e-09
2.03316e-09
2.02658e-09
2.0459e-09
2.02809e-09
5.7294e-10
5.37199e-10
5.41599e-10
5.36501e-10
5.38116e-10
5.43803e-10
5.46615e-10
5.49816e-10
5.49403e-10
5.50076e-10
5.47152e-10
5.44562e-10
5.38971e-10
5.37173e-10
5.41977e-10
5.3721e-10
1.11246e-10
1.04633e-10
1.05478e-10
1.04567e-10
1.04885e-10
1.05978e-10
1.06509e-10
1.07117e-10
1.0704e-10
1.07167e-10
1.06612e-10
1.06124e-10
1.05049e-10
1.04697e-10
1.05552e-10
1.04637e-10
1.47329e-11
1.39627e-11
1.40704e-11
1.39635e-11
1.40097e-11
1.41355e-11
1.42026e-11
1.42711e-11
1.42651e-11
1.42772e-11
1.42149e-11
1.41527e-11
1.4029e-11
1.39787e-11
1.4079e-11
1.39631e-11
3.17062e-12
3.07475e-12
3.09623e-12
3.07619e-12
3.09114e-12
3.09793e-12
3.11136e-12
3.11414e-12
3.11753e-12
3.11466e-12
3.11243e-12
3.09936e-12
3.09268e-12
3.07731e-12
3.09675e-12
3.07459e-12
2.82782e-12
2.7563e-12
2.77501e-12
2.75745e-12
2.77209e-12
2.77341e-12
2.78526e-12
2.78518e-12
2.78924e-12
2.78546e-12
2.78586e-12
2.77418e-12
2.7729e-12
2.75797e-12
2.77518e-12
2.7561e-12
1.29658e-05
1.30879e-05
1.34235e-05
1.31118e-05
1.2821e-05
1.26631e-05
1.26167e-05
1.26132e-05
1.26141e-05
1.26169e-05
1.26237e-05
1.26719e-05
1.28291e-05
1.31167e-05
1.3424e-05
1.30859e-05
1.32821e-05
1.32835e-05
1.34488e-05
1.31359e-05
1.28714e-05
1.27398e-05
1.2709e-05
1.27151e-05
1.27177e-05
1.27186e-05
1.27158e-05
1.27483e-05
1.28791e-05
1.31405e-05
1.34488e-05
1.32807e-05
1.35581e-05
1.34474e-05
1.34571e-05
1.31431e-05
1.29027e-05
1.27966e-05
1.27806e-05
1.27956e-05
1.27998e-05
1.2799e-05
1.27871e-05
1.28048e-05
1.29102e-05
1.31474e-05
1.34567e-05
1.34438e-05
1.37923e-05
1.35786e-05
1.34488e-05
1.31343e-05
1.2916e-05
1.28337e-05
1.28312e-05
1.28545e-05
1.28599e-05
1.28578e-05
1.28375e-05
1.28415e-05
1.29232e-05
1.31383e-05
1.34481e-05
1.35742e-05
1.39833e-05
1.36767e-05
1.34246e-05
1.31104e-05
1.29122e-05
1.28516e-05
1.28614e-05
1.28919e-05
1.28983e-05
1.2895e-05
1.28674e-05
1.28591e-05
1.29191e-05
1.31141e-05
1.34236e-05
1.36715e-05
1.41309e-05
1.37419e-05
1.33851e-05
1.30724e-05
1.28923e-05
1.28511e-05
1.28718e-05
1.29085e-05
1.29157e-05
1.29115e-05
1.28776e-05
1.28583e-05
1.2899e-05
1.30759e-05
1.33838e-05
1.37362e-05
1.42364e-05
1.37752e-05
1.33312e-05
1.30218e-05
1.28587e-05
1.28348e-05
1.28648e-05
1.29065e-05
1.29142e-05
1.29094e-05
1.28703e-05
1.28417e-05
1.28651e-05
1.30251e-05
1.33297e-05
1.37689e-05
1.43017e-05
1.37783e-05
1.32651e-05
1.29627e-05
1.28164e-05
1.2808e-05
1.28456e-05
1.2891e-05
1.2899e-05
1.28939e-05
1.2851e-05
1.28148e-05
1.28227e-05
1.29659e-05
1.32634e-05
1.37716e-05
1.4329e-05
1.37544e-05
1.31912e-05
1.29004e-05
1.27705e-05
1.27755e-05
1.28189e-05
1.28669e-05
1.28749e-05
1.28697e-05
1.28243e-05
1.27823e-05
1.27768e-05
1.29036e-05
1.31896e-05
1.37474e-05
1.4321e-05
1.37076e-05
1.3113e-05
1.28369e-05
1.27222e-05
1.27384e-05
1.27861e-05
1.28356e-05
1.28435e-05
1.28385e-05
1.27914e-05
1.27451e-05
1.27285e-05
1.28401e-05
1.31114e-05
1.37005e-05
1.42808e-05
1.36412e-05
1.30315e-05
1.27717e-05
1.26708e-05
1.26963e-05
1.27471e-05
1.27975e-05
1.28051e-05
1.28003e-05
1.27524e-05
1.27029e-05
1.2677e-05
1.27749e-05
1.303e-05
1.36341e-05
1.42116e-05
1.35578e-05
1.29462e-05
1.27034e-05
1.2615e-05
1.26482e-05
1.27012e-05
1.27518e-05
1.27591e-05
1.27546e-05
1.27064e-05
1.26547e-05
1.26211e-05
1.27067e-05
1.29448e-05
1.35507e-05
1.41167e-05
1.34588e-05
1.2856e-05
1.26306e-05
1.25533e-05
1.25929e-05
1.26472e-05
1.26977e-05
1.27047e-05
1.27004e-05
1.26523e-05
1.25993e-05
1.25593e-05
1.26338e-05
1.28547e-05
1.34519e-05
1.39991e-05
1.33458e-05
1.27597e-05
1.25514e-05
1.24841e-05
1.2529e-05
1.2584e-05
1.2634e-05
1.26406e-05
1.26368e-05
1.2589e-05
1.25353e-05
1.24901e-05
1.25546e-05
1.27585e-05
1.33391e-05
1.38613e-05
1.32196e-05
1.2656e-05
1.24644e-05
1.24061e-05
1.24552e-05
1.25104e-05
1.25597e-05
1.25659e-05
1.25624e-05
1.25153e-05
1.24613e-05
1.24119e-05
1.24675e-05
1.26549e-05
1.32131e-05
1.37054e-05
1.30808e-05
1.25435e-05
1.2368e-05
1.23177e-05
1.23702e-05
1.24252e-05
1.24736e-05
1.24794e-05
1.24762e-05
1.243e-05
1.23762e-05
1.23234e-05
1.23711e-05
1.25425e-05
1.30745e-05
1.35333e-05
1.29298e-05
1.24211e-05
1.2261e-05
1.22178e-05
1.2273e-05
1.23275e-05
1.23749e-05
1.23803e-05
1.23774e-05
1.23321e-05
1.22788e-05
1.22234e-05
1.22641e-05
1.24202e-05
1.29238e-05
1.3347e-05
1.27671e-05
1.22881e-05
1.21424e-05
1.21055e-05
1.21628e-05
1.22165e-05
1.22628e-05
1.22677e-05
1.22652e-05
1.22209e-05
1.21684e-05
1.2111e-05
1.21455e-05
1.22873e-05
1.27614e-05
1.31482e-05
1.25933e-05
1.21439e-05
1.20117e-05
1.19802e-05
1.20391e-05
1.20918e-05
1.2137e-05
1.21416e-05
1.21394e-05
1.20961e-05
1.20446e-05
1.19855e-05
1.20146e-05
1.21432e-05
1.25879e-05
1.29386e-05
1.24092e-05
1.19886e-05
1.18686e-05
1.18419e-05
1.19021e-05
1.19537e-05
1.19977e-05
1.2002e-05
1.2e-05
1.19579e-05
1.19073e-05
1.18471e-05
1.18715e-05
1.19879e-05
1.2404e-05
1.27197e-05
1.22157e-05
1.18226e-05
1.17138e-05
1.16913e-05
1.17524e-05
1.1803e-05
1.18458e-05
1.18497e-05
1.18481e-05
1.1807e-05
1.17575e-05
1.16963e-05
1.17167e-05
1.1822e-05
1.22108e-05
1.24923e-05
1.20137e-05
1.16469e-05
1.15484e-05
1.15294e-05
1.15914e-05
1.16408e-05
1.16825e-05
1.1686e-05
1.16847e-05
1.16446e-05
1.15963e-05
1.15343e-05
1.15512e-05
1.16464e-05
1.20092e-05
1.22573e-05
1.1804e-05
1.14624e-05
1.13735e-05
1.13578e-05
1.14202e-05
1.14683e-05
1.15088e-05
1.15121e-05
1.1511e-05
1.14721e-05
1.1425e-05
1.13625e-05
1.13763e-05
1.14619e-05
1.17997e-05
1.20151e-05
1.1587e-05
1.12697e-05
1.11902e-05
1.11774e-05
1.124e-05
1.12866e-05
1.13258e-05
1.13288e-05
1.13279e-05
1.12903e-05
1.12446e-05
1.11821e-05
1.1193e-05
1.12692e-05
1.1583e-05
1.17664e-05
1.13631e-05
1.10692e-05
1.0999e-05
1.0989e-05
1.10513e-05
1.10962e-05
1.11341e-05
1.11366e-05
1.11361e-05
1.10998e-05
1.10558e-05
1.09935e-05
1.10018e-05
1.10689e-05
1.13594e-05
1.15115e-05
1.11326e-05
1.08616e-05
1.08004e-05
1.07931e-05
1.08546e-05
1.08977e-05
1.09341e-05
1.09363e-05
1.09361e-05
1.09012e-05
1.0859e-05
1.07975e-05
1.08031e-05
1.08613e-05
1.11293e-05
1.12508e-05
1.08958e-05
1.06468e-05
1.05944e-05
1.05895e-05
1.065e-05
1.06913e-05
1.07261e-05
1.0728e-05
1.0728e-05
1.06947e-05
1.06543e-05
1.05938e-05
1.05971e-05
1.06467e-05
1.08928e-05
1.09845e-05
1.06525e-05
1.04249e-05
1.03808e-05
1.03782e-05
1.04374e-05
1.04768e-05
1.051e-05
1.05116e-05
1.05119e-05
1.04801e-05
1.04415e-05
1.03824e-05
1.03835e-05
1.04249e-05
1.06498e-05
1.07128e-05
1.0403e-05
1.01961e-05
1.01596e-05
1.01591e-05
1.02167e-05
1.02542e-05
1.02858e-05
1.02871e-05
1.02876e-05
1.02574e-05
1.02207e-05
1.01632e-05
1.01623e-05
1.01962e-05
1.04006e-05
1.04362e-05
1.01477e-05
9.96084e-06
9.93138e-06
9.93268e-06
9.98841e-06
1.00241e-05
1.0054e-05
1.0055e-05
1.00558e-05
1.00272e-05
9.9923e-06
9.93667e-06
9.93406e-06
9.96108e-06
1.01455e-05
1.01551e-05
9.88699e-06
9.71959e-06
9.69646e-06
9.69934e-06
9.75306e-06
9.78682e-06
9.81503e-06
9.81577e-06
9.81677e-06
9.78982e-06
9.75683e-06
9.70324e-06
9.69913e-06
9.71997e-06
9.8851e-06
9.86985e-06
9.62131e-06
9.47267e-06
9.45523e-06
9.45947e-06
9.51106e-06
9.54279e-06
9.56923e-06
9.56972e-06
9.57092e-06
9.54569e-06
9.51471e-06
9.46327e-06
9.45789e-06
9.47318e-06
9.61968e-06
9.58085e-06
9.35098e-06
9.2203e-06
9.20788e-06
9.21329e-06
9.26257e-06
9.2922e-06
9.31688e-06
9.31714e-06
9.31853e-06
9.29502e-06
9.26612e-06
9.21699e-06
9.21054e-06
9.22094e-06
9.34959e-06
9.28833e-06
9.07623e-06
8.96266e-06
8.95454e-06
8.9609e-06
9.00777e-06
9.03527e-06
9.05824e-06
9.05827e-06
9.05984e-06
9.03801e-06
9.01121e-06
8.96451e-06
8.95719e-06
8.96343e-06
9.07508e-06
8.99258e-06
8.79733e-06
8.69992e-06
8.69536e-06
8.70247e-06
8.74687e-06
8.77227e-06
8.79357e-06
8.7934e-06
8.79513e-06
8.77492e-06
8.75021e-06
8.70599e-06
8.698e-06
8.70081e-06
8.7964e-06
8.69383e-06
8.51452e-06
8.43226e-06
8.43061e-06
8.43828e-06
8.48018e-06
8.50351e-06
8.5232e-06
8.52284e-06
8.52471e-06
8.50608e-06
8.48342e-06
8.44171e-06
8.43325e-06
8.43328e-06
8.51379e-06
8.39235e-06
8.22809e-06
8.15988e-06
8.16064e-06
8.16867e-06
8.20808e-06
8.22938e-06
8.24753e-06
8.24699e-06
8.24899e-06
8.23187e-06
8.21123e-06
8.17202e-06
8.16326e-06
8.16101e-06
8.22755e-06
8.08839e-06
7.93834e-06
7.88298e-06
7.88574e-06
7.89397e-06
7.93097e-06
7.95034e-06
7.96699e-06
7.96631e-06
7.96841e-06
7.95274e-06
7.93402e-06
7.89724e-06
7.88836e-06
7.88421e-06
7.93799e-06
7.78223e-06
7.64565e-06
7.60176e-06
7.60621e-06
7.61447e-06
7.64917e-06
7.66673e-06
7.68196e-06
7.68115e-06
7.68333e-06
7.66906e-06
7.65213e-06
7.61766e-06
7.60881e-06
7.60307e-06
7.64546e-06
7.47409e-06
7.35015e-06
7.31629e-06
7.32217e-06
7.33034e-06
7.36287e-06
7.37877e-06
7.39263e-06
7.39173e-06
7.39396e-06
7.38102e-06
7.36574e-06
7.33345e-06
7.32476e-06
7.31768e-06
7.35012e-06
7.16417e-06
7.05192e-06
7.02668e-06
7.03378e-06
7.04173e-06
7.07225e-06
7.08663e-06
7.0992e-06
7.09823e-06
7.10048e-06
7.0888e-06
7.07503e-06
7.04477e-06
7.03635e-06
7.02814e-06
7.05201e-06
6.85252e-06
6.75106e-06
6.73314e-06
6.74128e-06
6.74892e-06
6.77756e-06
6.79056e-06
6.80191e-06
6.8009e-06
6.80315e-06
6.79267e-06
6.78026e-06
6.75189e-06
6.74383e-06
6.73466e-06
6.75127e-06
6.53913e-06
6.44762e-06
6.43584e-06
6.44486e-06
6.4521e-06
6.47901e-06
6.49077e-06
6.50095e-06
6.49992e-06
6.50216e-06
6.4928e-06
6.48163e-06
6.455e-06
6.44738e-06
6.43741e-06
6.44794e-06
6.22397e-06
6.14162e-06
6.13489e-06
6.14466e-06
6.15144e-06
6.17675e-06
6.18739e-06
6.19647e-06
6.19544e-06
6.19764e-06
6.18936e-06
6.17929e-06
6.15427e-06
6.14716e-06
6.1365e-06
6.14203e-06
5.90697e-06
5.8331e-06
5.83045e-06
5.84085e-06
5.84711e-06
5.87093e-06
5.88059e-06
5.88863e-06
5.88761e-06
5.88976e-06
5.88249e-06
5.87341e-06
5.84988e-06
5.84332e-06
5.83209e-06
5.83358e-06
5.58813e-06
5.52213e-06
5.5227e-06
5.53362e-06
5.53933e-06
5.56178e-06
5.57054e-06
5.5776e-06
5.57662e-06
5.57869e-06
5.57238e-06
5.56418e-06
5.54204e-06
5.53607e-06
5.52437e-06
5.52268e-06
5.26755e-06
5.20888e-06
5.21192e-06
5.22327e-06
5.2284e-06
5.24956e-06
5.25754e-06
5.26366e-06
5.26274e-06
5.26472e-06
5.25932e-06
5.2519e-06
5.23105e-06
5.22569e-06
5.2136e-06
5.20948e-06
4.94546e-06
4.89366e-06
4.89851e-06
4.9102e-06
4.91475e-06
4.9347e-06
4.94196e-06
4.94721e-06
4.94635e-06
4.94824e-06
4.94368e-06
4.93697e-06
4.91734e-06
4.91259e-06
4.90021e-06
4.89431e-06
4.62227e-06
4.57692e-06
4.58303e-06
4.59498e-06
4.59895e-06
4.61775e-06
4.62437e-06
4.62881e-06
4.62801e-06
4.6298e-06
4.62603e-06
4.61996e-06
4.60148e-06
4.59734e-06
4.58474e-06
4.57761e-06
4.2986e-06
4.25934e-06
4.26626e-06
4.27837e-06
4.28178e-06
4.29948e-06
4.30552e-06
4.3092e-06
4.30848e-06
4.31015e-06
4.30712e-06
4.30162e-06
4.28425e-06
4.28069e-06
4.26796e-06
4.26006e-06
3.97536e-06
3.94184e-06
3.94918e-06
3.96138e-06
3.96425e-06
3.98089e-06
3.98638e-06
3.98938e-06
3.98873e-06
3.99029e-06
3.98792e-06
3.98296e-06
3.96666e-06
3.96365e-06
3.95088e-06
3.94259e-06
3.65369e-06
3.62557e-06
3.63306e-06
3.64524e-06
3.64762e-06
3.66321e-06
3.66821e-06
3.67058e-06
3.67001e-06
3.67146e-06
3.66969e-06
3.66522e-06
3.64996e-06
3.64746e-06
3.63473e-06
3.62633e-06
3.33501e-06
3.31194e-06
3.31937e-06
3.33144e-06
3.33338e-06
3.34794e-06
3.35246e-06
3.35428e-06
3.35378e-06
3.35512e-06
3.35388e-06
3.34988e-06
3.33565e-06
3.3336e-06
3.32102e-06
3.31271e-06
3.02102e-06
3.00262e-06
3.00985e-06
3.0217e-06
3.02327e-06
3.0368e-06
3.04087e-06
3.0422e-06
3.04177e-06
3.043e-06
3.04222e-06
3.03866e-06
3.02545e-06
3.02379e-06
3.01147e-06
3.0034e-06
2.71368e-06
2.69953e-06
2.69819e-06
2.69933e-06
2.70095e-06
2.71432e-06
2.72193e-06
2.72197e-06
2.72315e-06
2.72289e-06
2.72346e-06
2.71639e-06
2.70332e-06
2.70151e-06
2.69968e-06
2.7003e-06
2.39035e-06
2.36527e-06
2.36147e-06
2.36281e-06
2.36368e-06
2.37622e-06
2.38321e-06
2.38305e-06
2.38417e-06
2.38391e-06
2.38465e-06
2.37818e-06
2.36593e-06
2.36488e-06
2.36289e-06
2.36587e-06
2.06685e-06
2.04576e-06
2.04225e-06
2.04538e-06
2.04562e-06
2.05703e-06
2.06266e-06
2.06253e-06
2.06331e-06
2.06331e-06
2.06398e-06
2.05883e-06
2.04769e-06
2.0473e-06
2.04361e-06
2.04632e-06
1.76838e-06
1.7533e-06
1.75094e-06
1.7555e-06
1.75542e-06
1.76556e-06
1.76992e-06
1.76986e-06
1.77031e-06
1.77054e-06
1.77108e-06
1.76716e-06
1.75728e-06
1.75724e-06
1.7522e-06
1.75385e-06
1.49981e-06
1.48989e-06
1.48871e-06
1.49404e-06
1.49386e-06
1.50272e-06
1.50604e-06
1.50604e-06
1.50625e-06
1.50663e-06
1.50706e-06
1.50413e-06
1.49551e-06
1.4956e-06
1.48986e-06
1.49041e-06
1.26068e-06
1.25467e-06
1.25453e-06
1.2601e-06
1.25994e-06
1.26755e-06
1.27006e-06
1.27009e-06
1.27015e-06
1.2706e-06
1.27093e-06
1.26878e-06
1.26137e-06
1.26147e-06
1.25556e-06
1.25517e-06
1.04925e-06
1.0461e-06
1.04677e-06
1.05222e-06
1.05213e-06
1.05858e-06
1.06045e-06
1.06051e-06
1.06046e-06
1.06094e-06
1.0612e-06
1.05964e-06
1.05337e-06
1.05341e-06
1.04768e-06
1.04655e-06
8.6352e-07
8.62377e-07
8.63638e-07
8.68719e-07
8.68734e-07
8.7412e-07
8.75504e-07
8.75567e-07
8.75464e-07
8.75933e-07
8.76141e-07
8.75016e-07
8.6979e-07
8.69741e-07
8.64432e-07
8.62781e-07
7.01405e-07
7.01611e-07
7.03255e-07
7.07823e-07
7.07941e-07
7.12368e-07
7.13387e-07
7.13443e-07
7.13315e-07
7.13748e-07
7.1392e-07
7.13121e-07
7.08832e-07
7.08689e-07
7.03937e-07
7.01967e-07
5.60818e-07
5.61877e-07
5.63725e-07
5.677e-07
5.67913e-07
5.71486e-07
5.72236e-07
5.72275e-07
5.72147e-07
5.72526e-07
5.72676e-07
5.72111e-07
5.68654e-07
5.68425e-07
5.64303e-07
5.62185e-07
4.39048e-07
4.40604e-07
4.42582e-07
4.45933e-07
4.46239e-07
4.49057e-07
4.49614e-07
4.4962e-07
4.49511e-07
4.49824e-07
4.49974e-07
4.49569e-07
4.46848e-07
4.46533e-07
4.43066e-07
4.40867e-07
3.23112e-07
3.25464e-07
3.28571e-07
3.31348e-07
3.32036e-07
3.34102e-07
3.34603e-07
3.34406e-07
3.34385e-07
3.34579e-07
3.34909e-07
3.34542e-07
3.32563e-07
3.31875e-07
3.29009e-07
3.25714e-07
2.25224e-07
2.2713e-07
2.29733e-07
2.31758e-07
2.32382e-07
2.33869e-07
2.34264e-07
2.34083e-07
2.34088e-07
2.34213e-07
2.34496e-07
2.34203e-07
2.32783e-07
2.3216e-07
2.30069e-07
2.27322e-07
1.47422e-07
1.48787e-07
1.50777e-07
1.52151e-07
1.52657e-07
1.53667e-07
1.53965e-07
1.53816e-07
1.53835e-07
1.53909e-07
1.5413e-07
1.53905e-07
1.52942e-07
1.52437e-07
1.51017e-07
1.48925e-07
8.94126e-08
9.02759e-08
9.16443e-08
9.24998e-08
9.2864e-08
9.35019e-08
9.37098e-08
9.36023e-08
9.3624e-08
9.36626e-08
9.38177e-08
9.36576e-08
9.30508e-08
9.26871e-08
9.18016e-08
9.03666e-08
4.95896e-08
5.00693e-08
5.09024e-08
5.1385e-08
5.16157e-08
5.19831e-08
5.21138e-08
5.20465e-08
5.20642e-08
5.2082e-08
5.21775e-08
5.20751e-08
5.1726e-08
5.14955e-08
5.09953e-08
5.01227e-08
2.48412e-08
2.50748e-08
2.55178e-08
2.57619e-08
2.5889e-08
2.60788e-08
2.6151e-08
2.61151e-08
2.61264e-08
2.61337e-08
2.61844e-08
2.6127e-08
2.59467e-08
2.58195e-08
2.55663e-08
2.51026e-08
1.1097e-08
1.11969e-08
1.14005e-08
1.15101e-08
1.15705e-08
1.16572e-08
1.16916e-08
1.16755e-08
1.16813e-08
1.16841e-08
1.17069e-08
1.16792e-08
1.15969e-08
1.15364e-08
1.14226e-08