/*--------------------------------*- C++ -*----------------------------------*\
| =========                 |                                                 |
| \\      /  F ield         | OpenFOAM: The Open Source CFD Toolbox           |
|  \\    /   O peration     | Version:  v1912                                 |
|   \\  /    A nd           | Website:  www.openfoam.com                      |
|    \\/     M anipulation  |                                                 |
\*---------------------------------------------------------------------------*/
FoamFile
{
    version     2.0;
    format      ascii;
    class       volScalarField;
    location    "198.4";
    object      omega;
}
// * * * * * * * * * * * * * * * * * * * * * * * * * * * * * * * * * * * * * //

dimensions      [0 0 -1 0 0 0 0];


internalField   nonuniform List<scalar> 
10147
(
20.2376
19.1147
18.5673
18.6921
18.8658
19.0239
19.1103
19.1645
19.1767
19.1601
19.1016
19.0124
18.854
18.6841
18.5629
19.1083
18.8993
19.0454
19.1291
19.1786
19.1886
19.1752
19.1219
19.0349
18.8885
18.7178
18.6201
19.05
19.1264
19.0589
18.93
18.7697
18.633
19.0982
19.0645
20.055
19.0901
18.6523
18.7963
18.9557
19.085
19.1493
19.1869
19.1968
19.1837
19.1427
19.076
18.946
18.7904
18.6495
19.0854
19.965
19.1534
18.8348
19.0039
19.1557
19.2542
19.297
19.3185
19.326
19.3164
19.2924
19.2476
19.1481
18.9999
18.8338
19.1503
19.9666
19.307
19.1077
19.307
19.4539
19.5249
19.5477
19.5538
19.5592
19.5527
19.545
19.5204
19.4484
19.3047
19.1084
19.3056
20.056
19.5474
19.468
19.7012
19.8454
19.8922
19.8965
19.8882
19.8918
19.8881
19.8954
19.8897
19.8418
19.7004
19.4702
19.5475
20.2383
19.873
19.9127
20.1824
20.3258
20.3513
20.3386
20.317
20.3191
20.3177
20.339
20.3504
20.3238
20.1828
19.9163
19.8746
20.5104
20.2819
20.4393
20.7464
20.8905
20.8975
20.8693
20.8355
20.8366
20.8371
20.8712
20.8981
20.8898
20.7478
20.4439
20.2848
20.8681
20.7723
21.0449
21.3893
21.5352
21.5264
21.4843
21.4395
21.4399
21.4417
21.4873
21.5283
21.5356
21.3915
21.0505
20.7765
21.307
21.3423
21.7272
22.103
22.2515
22.2316
22.1786
22.1246
22.1247
22.1274
22.1826
22.2345
22.2525
22.1057
21.7334
21.3476
21.8245
21.9901
22.4811
22.8758
23.0268
23.0018
22.9425
22.8824
22.8827
22.8856
22.9471
23.0052
23.0281
22.8787
22.4877
21.9966
22.4189
22.7142
23.2978
23.7003
23.8534
23.8258
23.7634
23.7
23.7011
23.7035
23.7684
23.8296
23.8549
23.7033
23.3046
22.7217
23.0907
23.5132
24.1691
24.5738
24.7286
24.6993
24.6349
24.5693
24.5711
24.573
24.6401
24.7033
24.7303
24.5768
24.1759
23.5216
23.8451
24.3865
25.0911
25.496
25.6523
25.6213
25.5552
25.4876
25.4903
25.4914
25.5607
25.6255
25.6542
25.4991
25.0979
24.3957
24.6805
25.3331
26.063
26.4679
26.6255
26.5926
26.5248
26.4552
26.4586
26.4591
26.5305
26.5969
26.6275
26.4711
26.0698
25.343
25.596
26.3484
27.0858
27.4911
27.6501
27.6149
27.5452
27.4734
27.4775
27.4774
27.5511
27.6194
27.6522
27.4945
27.0927
26.3587
26.5911
27.4259
28.1614
28.5681
28.7285
28.6905
28.6188
28.5444
28.5492
28.5486
28.6249
28.6953
28.7307
28.5716
28.1683
27.4365
27.6659
28.5621
29.2921
29.7015
29.8635
29.8224
29.7484
29.6711
29.6765
29.6755
29.7547
29.8274
29.866
29.7052
29.2992
28.5729
28.819
29.7567
30.481
30.8944
31.0584
31.0136
30.937
30.8566
30.8625
30.8612
30.9436
31.0189
31.061
30.8983
30.4884
29.7677
30.0456
31.0117
31.7314
32.1501
32.3163
32.2675
32.1882
32.1044
32.1108
32.1091
32.1951
32.2731
32.3192
32.1543
31.7391
31.023
31.3414
32.3299
33.0468
33.4718
33.6405
33.5873
33.5054
33.418
33.4249
33.4229
33.5126
33.5932
33.6437
33.4762
33.0548
32.3415
32.7052
33.7152
34.4308
34.8624
35.0339
34.9762
34.8919
34.8009
34.8085
34.806
34.8994
34.9825
35.0373
34.8671
34.4392
33.7271
34.1387
35.1714
35.8867
36.3239
36.4993
36.436
36.35
36.2558
36.2642
36.2612
36.3579
36.4426
36.5029
36.329
35.8955
35.1838
35.6453
36.7026
37.4164
37.8615
38.0435
37.9727
37.8841
37.7861
37.7952
37.7917
37.8923
37.9796
38.0474
37.8667
37.4255
36.7154
37.2286
38.3122
39.0239
39.4813
39.6716
39.5931
39.5005
39.398
39.4078
39.4038
39.5091
39.6003
39.6757
39.4869
39.0335
38.3253
38.8924
40.002
40.7151
41.1833
41.3804
41.2952
41.2004
41.0944
41.1053
41.1004
41.2093
41.3027
41.3848
41.1891
40.7251
40.0155
40.6397
41.7723
42.4896
42.9617
43.1631
43.0726
42.9782
42.8705
42.883
42.8767
42.9873
43.0804
43.1676
42.9677
42.5001
41.786
42.4717
43.6214
44.3416
44.8098
45.0124
44.9181
44.8262
44.7183
44.733
44.7246
44.8354
44.926
45.0171
44.816
44.3523
43.6351
44.3881
45.5471
46.2652
46.7236
46.925
46.8274
46.7394
46.6323
46.6493
46.6386
46.7487
46.8356
46.93
46.7301
46.276
45.5607
46.3873
47.5494
48.2582
48.7028
48.9008
48.8008
48.7173
48.6115
48.631
48.6179
48.7268
48.8092
48.9062
48.7096
48.2691
47.5628
48.4691
49.6336
50.322
50.7498
50.9427
50.841
50.7624
50.6584
50.6803
50.6649
50.7721
50.8498
50.9486
50.757
50.333
49.647
50.6367
51.8057
52.4601
52.869
53.0553
52.9527
52.8794
52.7776
52.8019
52.7842
52.8893
52.9619
53.0617
52.8767
52.4712
51.819
52.8976
54.068
54.6777
55.0662
55.2443
55.1419
55.0742
54.975
55.0016
54.9816
55.0843
55.1516
55.2513
55.0744
54.689
54.0812
55.258
56.4226
56.9807
57.3477
57.5164
57.4153
57.3535
57.2573
57.286
57.264
57.3638
57.4255
57.5242
57.3566
56.9921
56.4356
57.7202
58.8724
59.3752
59.7205
59.879
59.78
59.7243
59.6313
59.6623
59.6381
59.735
59.7908
59.8876
59.7301
59.3868
58.8852
60.2866
61.4215
61.8675
62.1922
62.3406
62.2439
62.1947
62.1047
62.1378
62.1116
62.2058
62.2555
62.3501
62.2025
61.8793
61.4341
62.9597
64.0754
64.4639
64.7721
64.9121
64.8176
64.7745
64.6865
64.7219
64.6937
64.786
64.8299
64.9226
64.7833
64.4759
64.0878
65.7429
66.8426
67.1728
67.4705
67.6035
67.5107
67.4737
67.3872
67.425
67.3947
67.4858
67.524
67.6151
67.4827
67.1853
66.8549
68.6414
69.7328
70.0056
70.2952
70.4211
70.3305
70.2998
70.2153
70.2555
70.223
70.3125
70.3447
70.4339
70.3084
70.0184
69.745
71.6638
72.7539
72.9715
73.2524
73.3715
73.2832
73.2592
73.1771
73.2196
73.1851
73.2725
73.2985
73.3856
73.2668
72.9849
72.7662
74.8227
75.9135
76.0777
76.3494
76.4619
76.3762
76.3592
76.2798
76.3247
76.2881
76.373
76.3925
76.4773
76.3649
76.0917
75.9258
78.1298
79.221
79.3324
79.5947
79.7008
79.618
79.6082
79.5322
79.5793
79.5408
79.6228
79.6353
79.7175
79.6114
79.3469
79.2334
81.5949
82.687
82.7455
82.9986
83.0986
83.0189
83.0168
82.9446
82.9939
82.9535
83.032
83.0374
83.1168
83.0166
82.7606
82.6995
85.2292
86.3232
86.3285
86.5729
86.6672
86.591
86.5966
86.5288
86.5801
86.5381
86.6125
86.6107
86.687
86.5923
86.3443
86.3358
89.0466
90.1436
90.095
90.3315
90.4206
90.3482
90.3617
90.299
90.3521
90.3086
90.3784
90.3693
90.442
90.3524
90.1116
90.1564
93.0642
94.1658
94.062
94.2919
94.3762
94.308
94.3295
94.2725
94.3273
94.2825
94.347
94.3305
94.3993
94.3144
94.0795
94.1788
97.3033
98.4117
98.2508
98.4756
98.5555
98.4921
98.5215
98.4711
98.5273
98.4815
98.5399
98.516
98.5805
98.4998
98.2692
98.4249
101.79
102.908
102.688
102.909
102.985
102.927
102.965
102.922
102.979
102.933
102.984
102.953
103.012
102.935
102.707
102.922
106.559
107.689
107.406
107.627
107.699
107.647
107.692
107.658
107.716
107.669
107.713
107.674
107.729
107.655
107.426
107.702
111.648
112.795
112.446
112.668
112.738
112.692
112.745
112.72
112.779
112.732
112.767
112.721
112.77
112.699
112.468
112.809
117.111
118.277
117.859
118.086
118.154
118.115
118.175
118.161
118.22
118.174
118.198
118.146
118.188
118.119
117.882
118.292
123.008
124.201
123.708
123.943
124.01
123.978
124.046
124.044
124.102
124.057
124.07
124.011
124.046
123.978
123.733
124.215
129.419
130.643
130.072
130.319
130.384
130.361
130.435
130.447
130.504
130.461
130.461
130.397
130.424
130.357
130.098
130.658
136.441
137.702
137.047
137.31
137.375
137.361
137.442
137.469
137.525
137.484
137.469
137.399
137.418
137.351
137.074
137.718
144.194
145.499
144.754
145.039
145.103
145.099
145.186
145.231
145.284
145.246
145.215
145.14
145.149
145.083
144.783
145.515
152.829
154.183
153.342
153.654
153.719
153.726
153.818
153.882
153.932
153.898
153.849
153.77
153.768
153.701
153.374
154.2
162.532
163.94
162.997
163.342
163.406
163.426
163.524
163.608
163.655
163.625
163.556
163.473
163.459
163.393
163.031
163.957
173.535
174.997
173.949
174.333
174.396
174.43
174.533
174.64
174.682
174.659
174.568
174.481
174.453
174.388
173.984
175.015
186.126
187.642
186.485
186.916
186.977
187.028
187.134
187.267
187.303
187.287
187.171
187.082
187.039
186.974
186.523
187.661
200.663
202.231
200.965
201.449
201.51
201.578
201.687
201.848
201.877
201.869
201.727
201.637
201.576
201.511
201.005
202.25
217.591
219.206
217.834
218.377
218.438
218.527
218.639
218.829
218.85
218.851
218.681
218.589
218.509
218.444
217.877
219.226
237.462
239.11
237.642
238.249
238.31
238.423
238.536
238.757
238.769
238.781
238.581
238.489
238.386
238.32
237.687
239.131
260.953
262.609
261.062
261.735
261.796
261.937
262.052
262.304
262.305
262.329
262.1
262.007
261.876
261.81
261.109
262.632
288.897
290.52
288.916
289.657
289.715
289.891
290.008
290.291
290.28
290.318
290.06
289.966
289.801
289.737
288.967
290.543
322.32
323.843
322.218
323.026
323.076
323.296
323.416
323.729
323.702
323.757
323.471
323.376
323.167
323.111
322.272
323.867
363.335
365.025
363.259
364.13
364.265
364.472
364.607
364.968
364.946
364.998
364.665
364.555
364.359
364.218
363.314
365.05
414.691
416.467
414.663
415.577
415.82
416.011
416.166
416.569
416.551
416.6
416.225
416.097
415.917
415.668
414.72
416.492
479.152
480.93
479.195
480.132
480.501
480.673
480.853
481.29
481.279
481.322
480.915
480.762
480.601
480.225
479.254
480.957
560.742
562.47
560.9
561.844
562.349
562.5
562.708
563.164
563.162
563.197
562.772
562.59
562.449
561.938
560.959
562.497
665.772
667.48
666.142
667.101
667.74
667.863
668.094
668.554
668.561
668.587
668.159
667.953
667.839
667.194
666.202
667.509
804.771
806.638
805.55
806.567
807.323
807.404
807.642
808.082
808.1
808.116
807.707
807.492
807.418
806.657
805.61
806.669
995.994
998.392
997.512
998.682
999.519
999.534
999.746
1000.14
1000.17
1000.18
999.808
999.615
999.606
998.767
997.571
998.427
1271.82
1275.31
1274.53
1276.01
1276.87
1276.79
1276.92
1277.26
1277.28
1277.29
1276.98
1276.86
1276.94
1276.08
1274.58
1275.35
1691.1
1696.38
1695.52
1697.52
1698.36
1698.14
1698.14
1698.41
1698.4
1698.44
1698.19
1698.2
1698.41
1697.59
1695.58
1696.43
2366.04
2373.89
2372.75
2375.54
2376.32
2375.92
2375.72
2375.93
2375.87
2375.95
2375.76
2375.96
2376.35
2375.59
2372.8
2373.95
3529.09
3540.42
3538.76
3542.69
3543.42
3542.75
3542.29
3542.48
3542.34
3542.51
3542.32
3542.77
3543.44
3542.73
3538.81
3540.49
5723.77
5739.8
5737.32
5742.92
5743.69
5742.57
5741.8
5742.03
5741.76
5742.06
5741.83
5742.58
5743.68
5742.95
5737.38
5739.89
10451.1
10473.7
10470
10478
10479
10477.2
10476
10476.4
10475.9
10476.4
10476
10477.2
10479
10478.1
10470.1
10473.8
22971.2
23003.4
22998
23009.7
23011
23008.1
23006.4
23007
23006.3
23007
23006.4
23008.1
23011
23009.7
22998.1
23003.5
69990.3
70033.5
70026.4
70042.2
70044.1
70039.8
70037.5
70038.4
70037.4
70038.4
70037.6
70039.8
70044
70042.2
70026.5
70033.8
439448
439448
439448
439448
439448
439448
439448
439448
439448
439448
439448
439448
439448
439448
439448
439448
19.9364
19.1102
18.7408
18.8474
19.0176
19.1528
19.2282
19.2706
19.2792
19.2681
19.2227
19.1445
19.0087
18.8412
18.7369
19.1064
19.9748
19.2578
18.9539
19.0717
19.2382
19.3665
19.4337
19.4688
19.4761
19.4672
19.4298
19.3602
19.2312
19.0666
18.9508
19.2553
20.1023
19.4933
19.2606
19.3933
19.5593
19.6808
19.7399
19.7678
19.7739
19.7671
19.7375
19.6764
19.5538
19.3893
19.2583
19.492
20.3147
19.8135
19.6567
19.8078
19.9758
20.091
20.142
20.1628
20.1679
20.163
20.1411
20.0882
19.9717
19.8048
19.6552
19.8134
20.6104
20.2158
20.1388
20.3112
20.4833
20.5926
20.6358
20.6497
20.6539
20.6506
20.6361
20.5913
20.4804
20.3092
20.138
20.2168
20.9873
20.6984
20.7036
20.8999
21.0777
21.1818
21.2173
21.2246
21.2281
21.2262
21.2189
21.1818
21.076
20.8988
20.7034
20.7004
21.4437
21.2598
21.3485
21.5699
21.7533
21.8519
21.88
21.8812
21.8841
21.8833
21.8825
21.853
21.7526
21.5694
21.3489
21.2629
21.9778
21.8983
22.0681
22.3111
22.4971
22.5893
22.6108
22.6069
22.6096
22.6094
22.6139
22.591
22.497
22.311
22.0688
21.9023
22.5883
22.6098
22.852
23.1098
23.2959
23.3817
23.3977
23.3899
23.3924
23.3926
23.4013
23.3839
23.2961
23.11
22.8531
22.6146
23.2745
23.3891
23.6916
23.9589
24.1442
24.2244
24.2358
24.2248
24.2273
24.2278
24.2397
24.2269
24.1446
23.9592
23.6928
23.3945
24.0349
24.2322
24.5828
24.8564
25.0409
25.116
25.1237
25.1101
25.1127
25.1132
25.1278
25.1188
25.0414
24.8569
24.584
24.2382
24.8683
25.1373
25.5247
25.8026
25.9863
26.057
26.0614
26.0458
26.0486
26.049
26.0659
26.0601
25.987
25.8032
25.526
25.1437
25.7732
26.104
26.5182
26.799
26.9822
27.0489
27.0505
27.033
27.0361
27.0364
27.0552
27.0522
26.9831
26.7997
26.5195
26.1108
26.749
27.1324
27.565
27.848
28.0309
28.0938
28.093
28.0739
28.0773
28.0775
28.098
28.0973
28.0319
27.8487
27.5663
27.1394
27.7958
28.2233
28.6677
28.9524
29.1355
29.1947
29.1918
29.1711
29.1748
29.1749
29.197
29.1985
29.1366
28.9532
28.6691
28.2306
28.9139
29.3783
29.8294
30.1158
30.2993
30.355
30.3501
30.3279
30.332
30.3318
30.3556
30.359
30.3006
30.1167
29.8309
29.3857
30.1038
30.5989
31.0535
31.3418
31.5264
31.5784
31.5715
31.5478
31.5523
31.5519
31.5773
31.5827
31.5278
31.3429
31.0551
30.6066
31.3656
31.8869
32.3434
32.6343
32.8205
32.8686
32.8597
32.8343
32.8392
32.8386
32.8657
32.8732
32.8221
32.6356
32.3451
31.8947
32.6991
33.2434
33.7019
33.9967
34.185
34.2288
34.2176
34.1904
34.1955
34.1948
34.224
34.2337
34.1868
33.9982
33.7038
33.2514
34.1034
34.6688
35.1311
35.4312
35.6223
35.6611
35.6472
35.6178
35.6232
35.6224
35.6539
35.6662
35.6243
35.4329
35.1332
34.677
35.5782
36.1626
36.6311
36.9383
37.1327
37.1654
37.1485
37.1164
37.1221
37.1212
37.1554
37.1708
37.135
36.9402
36.6336
36.1709
37.1234
37.7244
38.2013
38.5164
38.7145
38.7402
38.7198
38.6849
38.6908
38.6898
38.727
38.7458
38.717
38.5186
38.2042
37.7329
38.7397
39.3544
39.8404
40.163
40.3644
40.3827
40.3589
40.3211
40.3273
40.3261
40.3663
40.3886
40.3672
40.1656
39.8438
39.363
40.4281
41.0531
41.5478
41.876
42.0798
42.0908
42.0641
42.0239
42.0305
42.029
42.0716
42.097
42.0829
41.879
41.5516
41.0619
42.19
42.8217
43.3237
43.6545
43.8594
43.8637
43.8348
43.7928
43.8
43.798
43.8426
43.8702
43.8628
43.6579
43.328
42.8306
44.0267
44.6614
45.168
45.4981
45.7027
45.7012
45.6709
45.6275
45.6355
45.6328
45.6789
45.708
45.7064
45.502
45.1727
44.6703
45.9396
46.5736
47.0807
47.4071
47.6099
47.6035
47.5724
47.5284
47.5371
47.5337
47.5806
47.6106
47.6141
47.4114
47.0858
46.5825
47.9303
48.5603
49.0625
49.3825
49.5823
49.572
49.5406
49.4964
49.5059
49.5018
49.549
49.5795
49.587
49.3872
49.0681
48.5691
50.001
50.6241
51.1152
51.4265
51.6223
51.609
51.5777
51.5339
51.5442
51.5394
51.5864
51.6169
51.6276
51.4318
51.1211
50.6328
52.1545
52.7681
53.2411
53.5425
53.7335
53.7181
53.6872
53.6443
53.6555
53.6499
53.6961
53.7265
53.7394
53.5484
53.2474
52.7767
54.3941
54.9955
55.4439
55.7346
55.9204
55.9038
55.8738
55.8327
55.8448
55.8384
55.883
55.9127
55.927
55.7412
55.4506
55.004
56.7236
57.3105
57.7279
58.0079
58.1882
58.1714
58.1436
58.105
58.1179
58.1107
58.153
58.1809
58.1956
58.0153
57.7349
57.3188
59.1475
59.7176
60.0984
60.3687
60.5435
60.5278
60.5031
60.4675
60.4814
60.4733
60.5129
60.5379
60.5517
60.3769
60.1058
59.7258
61.6706
62.2224
62.5616
62.8245
62.9938
62.9807
62.9598
62.9276
62.9424
62.9336
62.9699
62.9915
63.003
62.8334
62.5695
62.2305
64.2988
64.8314
65.125
65.3833
65.5477
65.5382
65.5218
65.4934
65.5089
65.4995
65.5323
65.5498
65.5578
65.3931
65.1333
64.8394
67.0391
67.5524
67.7971
68.0539
68.2139
68.2093
68.1979
68.1735
68.1898
68.1798
68.2089
68.2217
68.2252
68.0647
67.8058
67.5602
69.8998
70.394
70.5878
70.8457
71.0021
71.0035
70.9977
70.9777
70.9945
70.9841
71.0091
71.0168
71.0145
70.8576
70.5971
70.4018
72.8911
73.3664
73.5089
73.7701
73.9237
73.9317
73.9315
73.9163
73.9336
73.9229
73.9434
73.9459
73.9374
73.783
73.5187
73.3741
76.0245
76.4808
76.574
76.8404
76.9923
77.0072
77.0124
77.0024
77.0199
77.0092
77.0249
77.0223
77.0072
76.8545
76.5845
76.4884
79.3142
79.7526
79.8011
80.0742
80.2254
80.2473
80.2574
80.2531
80.2705
80.26
80.2705
80.2634
80.2417
80.0895
79.8124
79.7603
82.7779
83.2017
83.2113
83.4923
83.6442
83.6726
83.6871
83.6887
83.7058
83.6959
83.7008
83.6899
83.6619
83.509
83.2234
83.2096
86.4381
86.8512
86.8285
87.119
87.2729
87.3075
87.3254
87.3335
87.3497
87.3408
87.3397
87.3258
87.292
87.137
86.8416
86.8594
90.3233
90.7305
90.6832
90.9841
91.1417
91.1817
91.2021
91.2171
91.2321
91.2246
91.217
91.2011
91.1622
91.0035
90.6973
90.739
94.4697
94.876
94.8125
95.1249
95.2879
95.3326
95.3543
95.3767
95.3901
95.3845
95.3699
95.3531
95.3099
95.1458
94.8278
94.885
98.9218
99.3326
99.2623
99.5871
99.7574
99.8058
99.8276
99.8581
99.8693
99.866
99.8438
99.8275
99.7808
99.6095
99.2788
99.3422
103.735
104.155
104.089
104.427
104.606
104.657
104.678
104.717
104.726
104.725
104.694
104.68
104.631
104.45
104.106
104.166
108.976
109.412
109.359
109.711
109.903
109.955
109.973
110.022
110.027
110.03
109.99
109.979
109.929
109.736
109.378
109.423
114.727
115.183
115.157
115.523
115.73
115.782
115.795
115.855
115.856
115.863
115.813
115.807
115.758
115.55
115.178
115.195
121.087
121.569
121.583
121.963
122.189
122.238
122.245
122.317
122.313
122.325
122.263
122.264
122.217
121.991
121.605
121.582
128.178
128.688
128.757
129.151
129.399
129.444
129.443
129.528
129.519
129.536
129.462
129.47
129.429
129.18
128.78
128.702
136.144
136.686
136.825
137.234
137.509
137.547
137.536
137.635
137.62
137.643
137.554
137.573
137.538
137.264
136.85
136.702
145.161
145.737
145.965
146.386
146.693
146.721
146.699
146.814
146.792
146.822
146.717
146.748
146.723
146.417
145.991
145.754
155.44
156.051
156.388
156.82
157.164
157.179
157.144
157.277
157.247
157.284
157.162
157.206
157.194
156.851
156.414
156.07
167.233
167.879
168.345
168.788
169.176
169.174
169.123
169.276
169.238
169.282
169.141
169.2
169.206
168.819
168.373
167.899
180.834
181.515
182.141
182.6
183.039
183.014
182.944
183.118
183.069
183.123
182.961
183.039
183.067
182.63
182.169
181.536
196.612
197.344
198.163
198.641
199.14
199.087
198.995
199.191
199.131
199.195
199.01
199.11
199.166
198.672
198.193
197.366
214.998
215.79
216.828
217.309
217.878
217.794
217.684
217.902
217.832
217.905
217.698
217.815
217.903
217.339
216.859
215.815
236.404
237.228
238.498
238.963
239.613
239.494
239.375
239.612
239.537
239.614
239.388
239.514
239.637
238.993
238.531
237.255
261.211
262.033
263.543
263.973
264.714
264.559
264.442
264.693
264.617
264.694
264.455
264.579
264.737
264.004
263.578
262.062
289.823
290.611
292.363
292.743
293.584
293.394
293.29
293.551
293.479
293.552
293.303
293.414
293.608
292.776
292.4
290.643
322.702
323.43
325.419
325.736
326.685
326.463
326.383
326.649
326.586
326.651
326.398
326.485
326.712
325.772
325.459
323.465
360.421
361.072
363.283
363.528
364.593
364.343
364.3
364.565
364.518
364.568
364.317
364.368
364.625
363.569
363.327
361.11
403.77
404.338
406.745
406.909
408.099
407.824
407.833
408.092
408.068
408.097
407.854
407.855
408.137
406.957
406.795
404.38
453.145
453.311
456.025
456.104
457.333
457.1
457.163
457.392
457.378
457.401
457.19
457.139
457.382
456.161
456.084
453.357
509.496
509.295
512.192
512.195
513.447
513.266
513.392
513.593
513.593
513.605
513.426
513.315
513.507
512.263
512.258
509.344
575.615
575.069
578.016
577.956
579.206
579.088
579.279
579.458
579.476
579.475
579.32
579.146
579.277
578.033
578.087
575.12
655.923
655.062
657.938
657.832
659.061
659.006
659.256
659.421
659.454
659.442
659.303
659.072
659.14
657.915
658.013
655.112
757.703
756.579
759.278
759.143
760.327
760.33
760.624
760.788
760.83
760.811
760.674
760.398
760.409
759.228
759.351
756.626
893.391
892.059
894.435
894.286
895.389
895.435
895.751
895.937
895.98
895.959
895.8
895.5
895.465
894.363
894.497
892.098
1084.04
1082.56
1084.45
1084.31
1085.29
1085.35
1085.66
1085.9
1085.93
1085.92
1085.7
1085.41
1085.35
1084.36
1084.49
1082.59
1365.34
1363.82
1365.06
1364.94
1365.77
1365.83
1366.1
1366.42
1366.42
1366.43
1366.12
1365.86
1365.79
1364.97
1365.07
1363.82
1799.7
1798.22
1798.71
1798.63
1799.28
1799.31
1799.52
1799.96
1799.92
1799.96
1799.52
1799.31
1799.27
1798.62
1798.68
1798.2
2503.62
2502.27
2501.94
2501.93
2502.39
2502.38
2502.51
2503.1
2503.01
2503.09
2502.49
2502.34
2502.33
2501.87
2501.87
2502.23
3717.32
3716.18
3714.99
3715.04
3715.32
3715.25
3715.31
3716.09
3715.93
3716.07
3715.27
3715.17
3715.21
3714.92
3714.87
3716.11
6003.49
6002.63
6000.5
6000.6
6000.7
6000.56
6000.56
6001.59
6001.36
6001.54
6000.49
6000.43
6000.52
6000.42
6000.32
6002.52
10922.2
10921.7
10918.4
10918.5
10918.4
10918.2
10918.2
10919.6
10919.2
10919.5
10918.1
10918
10918.2
10918.3
10918.2
10921.5
23977.6
23977.4
23972.6
23972.7
23972.4
23972
23972
23973.9
23973.4
23973.8
23971.9
23971.8
23972
23972.3
23972.3
23977.2
73472.8
73472.9
73466.4
73466.3
73465.8
73465.4
73465.4
73467.8
73467.2
73467.7
73465.1
73465
73465.3
73465.8
73465.9
73472.6
439448
439448
439448
439448
439448
439448
439448
439448
439448
439448
439448
439448
439448
439448
439448
439448
19.9974
19.144
18.7955
18.968
19.1228
19.215
19.2514
19.2767
19.285
19.2743
19.2467
19.2087
19.1168
18.9655
18.7962
19.1404
19.9971
19.2759
19.0499
19.2599
19.408
19.4661
19.4748
19.4822
19.4881
19.4808
19.4719
19.4618
19.404
19.2592
19.0525
19.2736
20.0904
19.4999
19.3931
19.644
19.788
19.8149
19.798
19.7887
19.7919
19.7883
19.7968
19.8126
19.7857
19.6447
19.3975
19.499
20.2745
19.8139
19.8219
20.1156
20.258
20.2569
20.2165
20.1917
20.192
20.1922
20.2168
20.2564
20.2573
20.1178
19.8278
19.8143
20.5466
20.2124
20.3332
20.6708
20.8136
20.7873
20.7257
20.6868
20.6845
20.6881
20.7275
20.7884
20.8142
20.6741
20.3405
20.2141
20.9044
20.6916
20.9242
21.3043
21.4496
21.4018
21.3212
21.2695
21.265
21.2715
21.3243
21.4043
21.4513
21.3084
20.9327
20.6949
21.3458
21.2493
21.5921
22.0052
22.1549
22.0928
21.9979
21.9354
21.9293
21.938
22.002
22.0963
22.1571
22.0099
21.6016
21.2539
21.8692
21.8832
22.3304
22.7614
22.9159
22.8474
22.7445
22.6749
22.668
22.6781
22.7494
22.8515
22.9185
22.7662
22.3406
21.8888
22.4731
22.5905
23.129
23.5672
23.7265
23.6546
23.5477
23.4742
23.4672
23.4776
23.553
23.659
23.7293
23.5723
23.1395
22.597
23.1559
23.3685
23.9807
24.4212
24.5851
24.5108
24.4012
24.3249
24.3182
24.3286
24.4068
24.5155
24.5881
24.4265
23.9914
23.3757
23.9162
24.2146
24.883
25.3237
25.492
25.4156
25.3037
25.2249
25.2183
25.2287
25.3095
25.4205
25.4952
25.3291
24.8939
24.2223
24.7524
25.1266
25.8359
26.2761
26.4488
26.3701
26.2559
26.1746
26.1682
26.1785
26.262
26.3753
26.4522
26.2817
25.847
25.1346
25.663
26.1019
26.8409
27.2807
27.4578
27.3766
27.2598
27.1758
27.1694
27.1799
27.2661
27.382
27.4613
27.2865
26.8522
26.1098
26.6469
27.1383
27.9003
28.3402
28.5217
28.4378
28.3181
28.2312
28.2247
28.2354
28.3247
28.4435
28.5254
28.3462
27.9119
27.1463
27.7027
28.2356
29.0172
29.4577
29.6438
29.5568
29.434
29.344
29.3374
29.3484
29.4409
29.5629
29.6477
29.464
29.029
28.2437
28.8295
29.3949
30.1947
30.6362
30.8269
30.737
30.611
30.5178
30.511
30.5223
30.6182
30.7433
30.8311
30.6427
30.2068
29.4032
30.0263
30.6181
31.4357
31.8782
32.0735
31.9808
31.8519
31.7556
31.7487
31.7603
31.8594
31.9874
32.0779
31.8849
31.4482
30.6265
31.2923
31.9072
32.7425
33.1847
33.3843
33.2897
33.1586
33.0597
33.0528
33.0646
33.1664
33.2965
33.3888
33.1915
32.7552
31.9157
32.6268
33.2636
34.1154
34.5547
34.7581
34.6628
34.5309
34.4303
34.4237
34.4353
34.5389
34.6698
34.7627
34.5616
34.1282
33.2724
34.0291
34.6883
35.5528
35.9856
36.1919
36.0974
35.9665
35.8654
35.8595
35.8706
35.9747
36.1046
36.1966
35.9924
35.5656
34.6973
35.4988
36.1806
37.0517
37.4746
37.6828
37.5905
37.4619
37.3615
37.3566
37.3668
37.4702
37.5979
37.6876
37.4813
37.0643
36.1898
37.0359
37.7392
38.6096
39.0205
39.2301
39.1407
39.015
38.9161
38.9122
38.9214
39.0234
39.1482
39.2349
39.0272
38.622
37.7486
38.6405
39.363
40.2266
40.624
40.834
40.7485
40.6261
40.5294
40.5266
40.5348
40.6348
40.7561
40.839
40.6306
40.2387
39.3726
40.3134
41.0516
41.9032
42.2857
42.4954
42.4145
42.2962
42.2022
42.2005
42.2077
42.3049
42.4224
42.5004
42.2922
41.915
41.0616
42.0557
42.8041
43.6406
44.0069
44.2156
44.1401
44.0264
43.9361
43.9354
43.9416
44.0352
44.1481
44.2208
44.0134
43.6521
42.8146
43.8688
44.6224
45.4405
45.7898
45.997
45.9269
45.8185
45.7329
45.7333
45.7384
45.8275
45.9351
46.0025
45.7964
45.4515
44.6331
45.7548
46.5093
47.305
47.6375
47.8426
47.7774
47.6752
47.5954
47.5968
47.601
47.6842
47.7859
47.8483
47.6442
47.3156
46.5202
47.7163
48.4681
49.2375
49.5536
49.7559
49.6952
49.5998
49.5273
49.5295
49.5328
49.609
49.7039
49.762
49.5604
49.2477
48.4792
49.7566
50.5027
51.2422
51.5424
51.7415
51.6847
51.5969
51.5329
51.536
51.5385
51.6061
51.6937
51.7479
51.5495
51.2521
50.5138
51.8796
52.6177
53.3242
53.6091
53.8046
53.7513
53.6718
53.6149
53.6189
53.6205
53.6812
53.7606
53.8114
53.6165
53.3339
52.6288
54.0904
54.8182
55.4893
55.7597
55.9512
55.9016
55.8298
55.7793
55.7841
55.7849
55.8393
55.9112
55.9585
55.7675
55.499
54.8293
56.3947
57.1106
57.7445
58.0014
58.1885
58.1426
58.0776
58.0329
58.0386
58.0385
58.0873
58.1525
58.1963
58.0095
57.7539
57.1216
58.7995
59.5021
60.098
60.3418
60.5244
60.4817
60.423
60.3838
60.3905
60.3895
60.4329
60.4921
60.5328
60.3504
60.1072
59.5131
61.3131
62.0015
62.5591
62.7896
62.9677
62.9278
62.8752
62.8412
62.8488
62.8469
62.8853
62.9387
62.9767
62.7988
62.5684
62.0124
63.9452
64.6186
65.1375
65.3549
65.5284
65.4912
65.4445
65.4156
65.4243
65.4214
65.4549
65.5026
65.5382
65.3647
65.1473
64.6295
66.7074
67.3654
67.8488
68.0497
68.2186
68.1838
68.1431
68.1192
68.1289
68.1251
68.1537
68.1957
68.2291
68.0602
67.8594
67.3763
69.6132
70.2555
70.7147
70.8876
71.0528
71.0192
70.9847
70.9656
70.9765
70.9716
70.9956
71.0317
71.0639
70.8988
70.726
70.2664
72.6815
73.3066
73.7574
73.8945
74.0572
74.0166
73.9851
73.9708
73.9831
73.9769
73.9963
74.0296
74.0688
73.9061
73.7693
73.3174
75.9328
76.5397
77.0053
77.1068
77.2677
77.2124
77.1771
77.1677
77.1805
77.1739
77.1886
77.2257
77.2795
77.1189
77.0175
76.5505
79.3876
79.9903
80.4903
80.5568
80.7163
80.649
80.6091
80.6043
80.6168
80.6103
80.6206
80.6623
80.7283
80.5691
80.5027
80.0018
83.0856
83.7206
84.2469
84.2788
84.4379
84.3608
84.3178
84.32
84.3318
84.3258
84.3292
84.3742
84.4501
84.2913
84.2593
83.7326
87.1101
87.7707
88.3162
88.3139
88.4738
88.3889
88.3442
88.3556
88.3663
88.3613
88.3554
88.4022
88.4859
88.3264
88.3283
87.7829
91.5187
92.1882
92.7466
92.7103
92.8724
92.7818
92.7365
92.7596
92.7687
92.7649
92.7474
92.7947
92.8843
92.7226
92.7583
92.2004
96.3676
97.0288
97.595
97.5245
97.6907
97.5959
97.5514
97.5884
97.5955
97.5934
97.5618
97.6085
97.7021
97.5365
97.606
97.0406
101.722
102.358
102.928
102.823
102.995
102.898
102.855
102.908
102.913
102.913
102.865
102.909
103.006
102.834
102.938
102.369
107.658
108.251
108.822
108.682
108.863
108.763
108.723
108.795
108.797
108.799
108.732
108.774
108.872
108.692
108.83
108.261
114.265
114.797
115.367
115.192
115.383
115.283
115.247
115.34
115.338
115.343
115.255
115.293
115.392
115.201
115.374
114.806
121.645
122.1
122.668
122.457
122.662
122.562
122.529
122.646
122.64
122.648
122.536
122.57
122.669
122.464
122.673
122.108
129.919
130.281
130.846
130.598
130.821
130.719
130.692
130.834
130.823
130.835
130.697
130.725
130.826
130.604
130.849
130.287
139.231
139.479
140.04
139.754
139.997
139.894
139.873
140.042
140.027
140.042
139.876
139.898
140
139.758
140.041
139.484
149.765
149.88
150.426
150.098
150.364
150.259
150.246
150.447
150.427
150.445
150.246
150.259
150.363
150.099
150.424
149.881
161.713
161.679
162.208
161.834
162.125
162.017
162.015
162.252
162.226
162.248
162.013
162.014
162.121
161.832
162.202
161.678
175.233
175.039
175.562
175.146
175.469
175.357
175.366
175.638
175.607
175.632
175.361
175.35
175.461
175.141
175.553
175.035
190.473
190.111
190.641
190.188
190.548
190.431
190.453
190.757
190.722
190.749
190.445
190.421
190.537
190.18
190.629
190.105
207.587
207.047
207.591
207.107
207.507
207.387
207.424
207.756
207.719
207.748
207.414
207.374
207.494
207.097
207.577
207.039
226.712
225.99
226.547
226.036
226.479
226.356
226.413
226.77
226.732
226.761
226.402
226.343
226.464
226.024
226.531
225.981
247.972
247.061
247.621
247.088
247.573
247.453
247.535
247.913
247.877
247.903
247.524
247.439
247.559
247.077
247.605
247.051
271.476
270.371
270.918
270.367
270.891
270.779
270.894
271.286
271.255
271.277
270.883
270.767
270.879
270.359
270.902
270.36
297.331
296.032
296.543
295.982
296.536
296.442
296.596
296.998
296.976
296.99
296.588
296.434
296.529
295.977
296.529
296.021
325.673
324.184
324.632
324.071
324.647
324.58
324.78
325.187
325.176
325.181
324.777
324.579
324.648
324.072
324.621
324.173
356.704
355.039
355.398
354.852
355.439
355.411
355.661
356.066
356.069
356.064
355.664
355.419
355.45
354.862
355.394
355.03
390.767
388.958
389.209
388.697
389.282
389.304
389.606
390.004
390.022
390.006
389.617
389.323
389.305
388.717
389.211
388.95
428.496
426.563
426.702
426.245
426.817
426.899
427.25
427.635
427.67
427.643
427.271
426.931
426.855
426.278
426.713
426.558
470.997
468.978
469.004
468.619
469.167
469.313
469.708
470.079
470.128
470.093
469.739
469.359
469.22
468.664
469.025
468.977
520.123
518.096
518.041
517.747
518.266
518.475
518.9
519.255
519.316
519.275
518.941
518.534
518.334
517.805
518.072
518.099
578.967
577.06
577.006
576.825
577.321
577.578
578.009
578.346
578.412
578.371
578.058
577.648
577.4
576.893
577.046
577.067
652.481
650.859
650.8
650.753
651.233
651.513
651.917
652.233
652.298
652.261
651.972
651.59
651.319
650.828
650.846
650.871
748.391
747.277
747.366
747.474
747.961
748.223
748.558
748.848
748.903
748.878
748.613
748.299
748.047
747.551
747.415
747.295
879.773
879.468
879.936
880.216
880.749
880.927
881.134
881.395
881.427
881.422
881.184
880.994
880.824
880.287
879.985
879.494
1068.36
1069.21
1070.33
1070.79
1071.43
1071.44
1071.45
1071.68
1071.67
1071.7
1071.49
1071.48
1071.48
1070.85
1070.37
1069.24
1350.33
1352.65
1354.71
1355.36
1356.15
1355.92
1355.67
1355.86
1355.8
1355.87
1355.69
1355.93
1356.17