/*--------------------------------*- C++ -*----------------------------------*\
| =========                 |                                                 |
| \\      /  F ield         | OpenFOAM: The Open Source CFD Toolbox           |
|  \\    /   O peration     | Version:  v1912                                 |
|   \\  /    A nd           | Website:  www.openfoam.com                      |
|    \\/     M anipulation  |                                                 |
\*---------------------------------------------------------------------------*/
FoamFile
{
    version     2.0;
    format      ascii;
    class       volVectorField;
    location    "198.4";
    object      U;
}
// * * * * * * * * * * * * * * * * * * * * * * * * * * * * * * * * * * * * * //

dimensions      [0 1 -1 0 0 0 0];


internalField   nonuniform List<vector> 
10147
(
(-7.82757e-07 0.00498973 0.270979)
(0.00177399 0.00334199 0.273406)
(0.000973474 0.00139996 0.277503)
(0.000499667 0.00180644 0.278655)
(-4.93333e-05 0.00177044 0.278934)
(7.80162e-05 0.00203226 0.278727)
(-2.13211e-05 0.00205444 0.278639)
(8.19649e-06 0.00221222 0.278557)
(1.49911e-05 0.00216074 0.278552)
(1.98188e-05 0.00220792 0.2786)
(4.73171e-05 0.0020468 0.278719)
(-5.72719e-05 0.00202125 0.278831)
(6.53586e-05 0.00176179 0.279043)
(-0.000488664 0.00179646 0.278751)
(-0.000965731 0.00138938 0.27758)
(-0.00177089 0.00332619 0.273458)
(2.06499e-05 -0.00311832 0.278774)
(-8.31636e-06 -0.00323763 0.279247)
(5.7202e-05 -0.0032909 0.279482)
(2.74989e-05 -0.00337733 0.279522)
(8.40314e-06 -0.00335921 0.279556)
(-1.14843e-05 -0.00337741 0.279563)
(-4.09131e-05 -0.00329055 0.279561)
(2.46737e-05 -0.00323687 0.279353)
(-4.99745e-06 -0.00311645 0.278895)
(0.000324833 -0.00300106 0.277915)
(0.000197046 -0.00315956 0.277074)
(0.000922142 -0.00348146 0.27659)
(-3.02146e-05 -0.00224924 0.275683)
(-3.86546e-05 -0.00233072 0.275856)
(-0.000109005 -0.00235402 0.27607)
(-0.000165978 -0.00240597 0.275969)
(-0.000712823 -0.00237618 0.274588)
(-0.000337216 -0.00117674 0.270859)
(0.000470669 -0.00201857 0.275689)
(-1.35622e-06 0.00484112 0.271382)
(0.00172936 0.00325021 0.273565)
(0.000953255 0.00148342 0.277352)
(0.000521312 0.00180971 0.278442)
(-3.99845e-05 0.00177272 0.278747)
(8.42157e-05 0.00202836 0.278594)
(-1.85424e-05 0.00204843 0.278546)
(9.99935e-06 0.00220302 0.278492)
(1.50697e-05 0.00215191 0.278494)
(1.81464e-05 0.00219888 0.278534)
(4.45777e-05 0.0020408 0.278624)
(-6.34037e-05 0.00201754 0.278694)
(5.60295e-05 0.00176403 0.278853)
(-0.000510316 0.00179977 0.278536)
(-0.000945672 0.00147278 0.277426)
(-0.00172693 0.0032346 0.273614)
(-1.9272e-06 0.00469623 0.271696)
(0.00166351 0.00315965 0.273643)
(0.000915611 0.00156114 0.277128)
(0.000543194 0.00181187 0.27815)
(-3.04209e-05 0.00177323 0.278476)
(8.92496e-05 0.0020229 0.278372)
(-1.55063e-05 0.00204067 0.278363)
(1.2192e-05 0.00219192 0.278335)
(1.51767e-05 0.0021412 0.278344)
(1.6149e-05 0.00218795 0.278376)
(4.16851e-05 0.00203304 0.278439)
(-6.83081e-05 0.00201217 0.27847)
(4.64292e-05 0.00176438 0.278579)
(-0.000532335 0.00180197 0.278241)
(-0.000908323 0.00155044 0.277199)
(-0.00166179 0.0031443 0.273689)
(-2.47311e-06 0.00456331 0.27192)
(0.00159101 0.00306633 0.273639)
(0.000865855 0.00162823 0.276834)
(0.000561068 0.00181335 0.277786)
(-2.0509e-05 0.00177105 0.278126)
(9.35914e-05 0.00201533 0.278068)
(-1.26214e-05 0.00203126 0.278096)
(1.45185e-05 0.00217911 0.278092)
(1.52888e-05 0.00212886 0.278107)
(1.40246e-05 0.00217531 0.278132)
(3.89687e-05 0.00202368 0.278169)
(-7.25125e-05 0.00200489 0.278163)
(3.6443e-05 0.00176241 0.278227)
(-0.000550405 0.00180359 0.277874)
(-0.000858922 0.00161766 0.276902)
(-0.00158999 0.0030512 0.273682)
(-2.97247e-06 0.0044418 0.272058)
(0.00152268 0.00297723 0.273557)
(0.000816437 0.00168472 0.276472)
(0.000575239 0.00181358 0.27735)
(-1.08824e-05 0.00176704 0.277702)
(9.7662e-05 0.002006 0.277685)
(-9.98028e-06 0.00202013 0.277746)
(1.67664e-05 0.00216455 0.277766)
(1.5373e-05 0.00211481 0.277787)
(1.19187e-05 0.00216092 0.277805)
(3.64418e-05 0.00201264 0.277818)
(-7.6487e-05 0.0019957 0.277778)
(2.67332e-05 0.00175847 0.277801)
(-0.000564763 0.00180394 0.277436)
(-0.000809842 0.00167422 0.276536)
(-0.00152231 0.00296235 0.273597)
(-3.42442e-06 0.00432663 0.272112)
(0.00145828 0.00289061 0.273396)
(0.000768604 0.00173306 0.276043)
(0.000586323 0.00181239 0.276848)
(-1.61653e-06 0.00176116 0.277208)
(0.000101521 0.00199508 0.277228)
(-7.56142e-06 0.00200744 0.27732)
(1.89269e-05 0.00214842 0.277362)
(1.54281e-05 0.00209923 0.277387)
(9.83973e-06 0.00214495 0.2774)
(3.40831e-05 0.00200008 0.27739)
(-8.02891e-05 0.00198492 0.277319)
(1.73777e-05 0.00175268 0.277304)
(-0.000576025 0.00180286 0.276932)
(-0.000762324 0.00172265 0.276104)
(-0.00145848 0.00287601 0.273434)
(-3.829e-06 0.00421756 0.272084)
(0.00139698 0.00280671 0.273159)
(0.000722331 0.00177367 0.275549)
(0.000594729 0.00180971 0.276281)
(7.29691e-06 0.00175348 0.276645)
(0.000105195 0.0019826 0.276699)
(-5.35054e-06 0.00199326 0.276821)
(2.10069e-05 0.00213082 0.276883)
(1.54562e-05 0.00208222 0.276913)
(7.78741e-06 0.00212749 0.27692)
(3.18853e-05 0.00198604 0.276889)
(-8.39402e-05 0.0019726 0.276788)
(8.36727e-06 0.0017451 0.27674)
(-0.0005846 0.00180031 0.276363)
(-0.000716342 0.00176338 0.275608)
(-0.00139769 0.0027924 0.273194)
(-4.18581e-06 0.00411391 0.271975)
(0.00133855 0.00272577 0.272848)
(0.000677865 0.00180712 0.274993)
(0.000600798 0.0018055 0.275653)
(1.58558e-05 0.00174415 0.276019)
(0.000108711 0.0019686 0.276103)
(-3.33927e-06 0.00197765 0.276252)
(2.30057e-05 0.00211183 0.276333)
(1.54587e-05 0.00206385 0.276368)
(5.76737e-06 0.00210862 0.276369)
(2.98456e-05 0.0019706 0.276318)
(-8.74688e-05 0.00195884 0.27619)
(-2.97512e-07 0.00173581 0.276112)
(-0.00059083 0.00179624 0.275733)
(-0.000672143 0.00179697 0.27505)
(-0.00133971 0.00271177 0.272881)
(-4.4948e-06 0.00401494 0.271786)
(0.00128295 0.00264772 0.272464)
(0.000635425 0.001834 0.274376)
(0.00060483 0.00179974 0.274966)
(2.40601e-05 0.00173323 0.27533)
(0.000112094 0.00195316 0.275443)
(-1.52018e-06 0.00196071 0.275617)
(2.49218e-05 0.00209152 0.275716)
(1.54374e-05 0.00204421 0.275754)
(3.78554e-06 0.00208842 0.275751)
(2.79624e-05 0.00195384 0.275682)
(-9.08982e-05 0.00194369 0.275528)
(-8.61887e-06 0.00172489 0.275422)
(-0.000595013 0.00179062 0.275044)
(-0.000629945 0.00182401 0.274431)
(-0.0012845 0.00263404 0.272494)
(-4.75652e-06 0.00392011 0.271519)
(0.00123018 0.00257251 0.272009)
(0.000595109 0.00185483 0.273701)
(0.00060709 0.00179243 0.274222)
(3.19125e-05 0.00172076 0.274584)
(0.00011536 0.00193637 0.274721)
(1.1338e-07 0.00194251 0.274918)
(2.67559e-05 0.00206996 0.275033)
(1.53945e-05 0.00202336 0.275076)
(1.8466e-06 0.00206696 0.275068)
(2.6234e-05 0.00193581 0.274982)
(-9.42422e-05 0.00192719 0.274805)
(-1.66002e-05 0.00171245 0.274674)
(-0.000597415 0.00178345 0.274299)
(-0.000589846 0.001845 0.273753)
(-0.00123206 0.00255917 0.272037)
(-4.97216e-06 0.00382893 0.271176)
(0.00118023 0.00250008 0.271485)
(0.000556911 0.00187009 0.272968)
(0.000607807 0.00178358 0.273423)
(3.94155e-05 0.0017068 0.273781)
(0.000118519 0.00191831 0.273941)
(1.56664e-06 0.00192309 0.27416)
(2.85092e-05 0.00204723 0.27429)
(1.53321e-05 0.00200139 0.274335)
(-4.5342e-08 0.00204431 0.274324)
(2.46585e-05 0.0019166 0.274222)
(-9.75081e-05 0.00190939 0.274024)
(-2.42423e-05 0.00169857 0.27387)
(-0.00059827 0.00177476 0.273499)
(-0.00055184 0.00186045 0.273019)
(-0.00118238 0.00248707 0.27151)
(-5.14355e-06 0.00374099 0.270757)
(0.00113307 0.00243032 0.270893)
(0.000520771 0.00188024 0.27218)
(0.000607188 0.00177321 0.272573)
(4.65681e-05 0.00169141 0.272926)
(0.000121583 0.00189906 0.273105)
(2.84366e-06 0.00190255 0.273344)
(3.01824e-05 0.00202339 0.273488)
(1.52525e-05 0.00197835 0.273537)
(-1.88572e-06 0.00202053 0.273522)
(2.32351e-05 0.00189626 0.273405)
(-0.000100704 0.00189038 0.273187)
(-3.15425e-05 0.00168331 0.273014)
(-0.000597783 0.00176455 0.272647)
(-0.000515874 0.0018708 0.272229)
(-0.00113543 0.00241765 0.270916)
(-5.27307e-06 0.00365593 0.270265)
(0.00108863 0.00236313 0.270235)
(0.000486637 0.00188572 0.271339)
(0.000605421 0.00176136 0.271673)
(5.33679e-05 0.00167465 0.27202)
(0.000124566 0.00187869 0.272217)
(3.9487e-06 0.00188092 0.272474)
(3.17752e-05 0.00199851 0.272631)
(1.51575e-05 0.00195431 0.272682)
(-3.66971e-06 0.00199571 0.272664)
(2.19624e-05 0.00187485 0.272535)
(-0.000103842 0.00187023 0.272298)
(-3.84972e-05 0.0016667 0.272107)
(-0.000596145 0.00175287 0.271746)
(-0.000481896 0.00187649 0.271387)
(-0.00109116 0.0023508 0.270256)
(-5.36361e-06 0.00357343 0.2697)
(0.00104685 0.00229838 0.269513)
(0.000454477 0.00188691 0.270447)
(0.000602684 0.00174807 0.270725)
(5.98131e-05 0.0016566 0.271066)
(0.000127483 0.00185726 0.271279)
(4.88727e-06 0.00185829 0.271552)
(3.32869e-05 0.00197265 0.271722)
(1.50491e-05 0.00192933 0.271775)
(-5.39338e-06 0.00196991 0.271754)
(2.08371e-05 0.00185242 0.271612)
(-0.000106934 0.00184902 0.271359)
(-4.51035e-05 0.00164882 0.271153)
(-0.000593533 0.00173974 0.270798)
(-0.000449876 0.00187789 0.270493)
(-0.00104949 0.0022864 0.269533)
(-5.41841e-06 0.00349322 0.269066)
(0.0010076 0.00223598 0.26873)
(0.000424261 0.00188418 0.269505)
(0.000599137 0.00173337 0.269732)
(6.59044e-05 0.00163733 0.270066)
(0.000130349 0.00183484 0.270293)
(5.66634e-06 0.00183472 0.270581)
(3.47177e-05 0.00194589 0.270762)
(1.49292e-05 0.0019035 0.270817)
(-7.05398e-06 0.00194321 0.270794)
(1.98543e-05 0.00182905 0.270641)
(-0.000109993 0.00182681 0.270373)
(-5.1361e-05 0.00162972 0.270152)
(-0.000590107 0.00172522 0.269804)
(-0.000419786 0.00187537 0.26955)
(-0.00101031 0.00222433 0.268748)
(-5.44092e-06 0.00341507 0.268363)
(0.000970751 0.00217578 0.267886)
(0.000395949 0.00187787 0.268516)
(0.000594926 0.00171734 0.268695)
(7.16455e-05 0.0016169 0.269022)
(0.000133178 0.00181149 0.269261)
(6.29417e-06 0.00181026 0.269563)
(3.60685e-05 0.00191829 0.269754)
(1.47993e-05 0.00187686 0.269811)
(-8.65002e-06 0.00191567 0.269785)
(1.90077e-05 0.00180479 0.269622)
(-0.000113031 0.00180369 0.26934)
(-5.72726e-05 0.00160948 0.269107)
(-0.000586016 0.00170936 0.268766)
(-0.000391586 0.00186928 0.26856)
(-0.000973498 0.00216447 0.267902)
(-5.43461e-06 0.0033388 0.267593)
(0.000936216 0.00211768 0.266983)
(0.000369484 0.00186832 0.267481)
(0.000590183 0.00170002 0.267614)
(7.70437e-05 0.00159541 0.267934)
(0.000135986 0.00178729 0.268185)
(6.78014e-06 0.00178501 0.2685)
(3.73415e-05 0.00188993 0.2687)
(1.46611e-05 0.00184949 0.268757)
(-1.01812e-05 0.00188737 0.26873)
(1.82896e-05 0.00177973 0.268557)
(-0.00011606 0.0017797 0.268263)
(-6.2845e-05 0.00158818 0.268019)
(-0.000581389 0.00169222 0.267685)
(-0.000365221 0.00185995 0.267523)
(-0.000938963 0.0021067 0.266998)
(-5.40292e-06 0.00326425 0.266758)
(0.000903926 0.00206158 0.266024)
(0.000344801 0.00185582 0.2664)
(0.000585026 0.00168149 0.266492)
(8.21117e-05 0.00157292 0.266805)
(0.000138787 0.00176232 0.267065)
(7.13456e-06 0.00175902 0.267391)
(3.85394e-05 0.00186088 0.2676)
(1.45159e-05 0.00182147 0.267659)
(-1.16484e-05 0.00185839 0.26763)
(1.76917e-05 0.00175393 0.267449)
(-0.000119094 0.00175494 0.267143)
(-6.80902e-05 0.00156589 0.266889)
(-0.000576344 0.00167386 0.266562)
(-0.000340623 0.00184767 0.266441)
(-0.000906643 0.00205092 0.266037)
(-5.34924e-06 0.00319129 0.265858)
(0.000873827 0.00200737 0.265009)
(0.000321816 0.00184068 0.265275)
(0.000579552 0.00166183 0.265329)
(8.68701e-05 0.00154955 0.265635)
(0.000141593 0.00173665 0.265903)
(7.36819e-06 0.00173241 0.26624)
(3.96665e-05 0.00183125 0.266456)
(1.4365e-05 0.00179289 0.266516)
(-1.30538e-05 0.00182882 0.266486)
(1.72049e-05 0.0017275 0.266296)
(-0.000122143 0.00172949 0.265981)
(-7.30284e-05 0.00154272 0.265719)
(-0.00057098 0.00165438 0.265398)
(-0.000317711 0.00183275 0.265315)
(-0.000876489 0.00199703 0.265021)
(-5.27678e-06 0.00311979 0.264896)
(0.000845868 0.00195494 0.263939)
(0.000300423 0.00182317 0.264106)
(0.000573836 0.00164113 0.264125)
(9.13296e-05 0.00152534 0.264424)
(0.000144414 0.00171033 0.2647)
(7.4918e-06 0.00170519 0.265045)
(4.07282e-05 0.00180104 0.265268)
(1.42098e-05 0.00176376 0.265329)
(-1.44007e-05 0.00179867 0.265298)
(1.68207e-05 0.00170045 0.265101)
(-0.000125214 0.00170338 0.264776)
(-7.76697e-05 0.00151872 0.264507)
(-0.000565371 0.00163385 0.264194)
(-0.00029638 0.00181546 0.264145)
(-0.000848451 0.00194491 0.26395)
(-5.18852e-06 0.00304957 0.263873)
(0.000819984 0.00190412 0.262816)
(0.000280462 0.00180348 0.262893)
(0.000568076 0.00161939 0.26288)
(9.54196e-05 0.00150032 0.263172)
(0.000147266 0.00168334 0.263454)
(7.51883e-06 0.00167733 0.263808)
(4.17259e-05 0.00177023 0.264038)
(1.40506e-05 0.00173405 0.264099)
(-1.56905e-05 0.00176792 0.264067)
(1.65247e-05 0.00167276 0.263863)
(-0.000128324 0.0016766 0.263531)
(-8.19405e-05 0.00149391 0.263255)
(-0.000559716 0.00161229 0.262949)
(-0.000276468 0.00179598 0.262932)
(-0.000822469 0.00189439 0.262826)
(-5.08707e-06 0.00298039 0.262789)
(0.000796094 0.00185467 0.26164)
(0.000262085 0.00178178 0.261637)
(0.000562526 0.00159669 0.261595)
(9.90174e-05 0.00147456 0.261878)
(0.000150202 0.0016557 0.262167)
(7.46187e-06 0.0016488 0.262528)
(4.26453e-05 0.00173875 0.262764)
(1.38856e-05 0.00170368 0.262825)
(-1.69151e-05 0.0017365 0.262793)
(1.62971e-05 0.0016444 0.262583)
(-0.000131526 0.00164917 0.262243)
(-8.57154e-05 0.00146836 0.261961)
(-0.000554257 0.00158977 0.261663)
(-0.000258137 0.00177449 0.261676)
(-0.000798464 0.00184523 0.261649)
(-4.97493e-06 0.00291197 0.261646)
(0.000774107 0.00180633 0.260412)
(0.000245987 0.00175812 0.260338)
(0.000557258 0.00157297 0.260263)
(0.000102123 0.00144798 0.260533)
(0.000153292 0.00162726 0.260832)
(7.33318e-06 0.00161952 0.261202)
(4.34699e-05 0.00170655 0.261445)
(1.37116e-05 0.00167258 0.261507)
(-1.80664e-05 0.00170435 0.261473)
(1.61183e-05 0.00161528 0.261256)
(-0.000134896 0.00162095 0.260908)
(-8.89949e-05 0.00144198 0.260616)
(-0.000549063 0.00156623 0.260331)
(-0.000242088 0.00175105 0.260376)
(-0.000776346 0.00179717 0.260419)
(-4.8545e-06 0.00284406 0.260446)
(0.000753926 0.0017588 0.259133)
(0.000232618 0.00173238 0.258992)
(0.000552225 0.00154815 0.258878)
(0.000104918 0.00142044 0.259132)
(0.000156516 0.00159788 0.25944)
(7.14614e-06 0.00158934 0.259821)
(4.42132e-05 0.00167349 0.260073)
(1.35288e-05 0.00164063 0.260136)
(-1.91572e-05 0.00167135 0.260101)
(1.59787e-05 0.00158526 0.259875)
(-0.000138408 0.00159178 0.259515)
(-9.19662e-05 0.00141464 0.259214)
(-0.000544091 0.00154159 0.258945)
(-0.000228751 0.0017255 0.259029)
(-0.000756024 0.00174992 0.259139)
(-4.72807e-06 0.00277647 0.259191)
(0.000735445 0.00171184 0.257804)
(0.000221389 0.00170459 0.257592)
(0.000547173 0.00152221 0.257437)
(0.000107633 0.00139191 0.257675)
(0.000159784 0.00156761 0.257993)
(6.89856e-06 0.00155825 0.258384)
(4.49143e-05 0.0016395 0.258644)
(1.33432e-05 0.00160774 0.258708)
(-2.02114e-05 0.00163742 0.258672)
(1.58973e-05 0.00155432 0.258438)
(-0.000141966 0.00156171 0.258068)
(-9.48645e-05 0.00138632 0.257757)
(-0.000539104 0.00151584 0.257504)
(-0.000217521 0.00169792 0.257628)
(-0.000737391 0.00170324 0.25781)
(-4.59783e-06 0.00270902 0.257882)
(0.000718541 0.0016653 0.256426)
(0.00021087 0.00167506 0.256136)
(0.000541808 0.00149519 0.255945)
(0.000110371 0.00136243 0.25617)
(0.000163048 0.00153645 0.256495)
(6.57546e-06 0.00152632 0.256896)
(4.5605e-05 0.00160465 0.257163)
(1.31636e-05 0.00157398 0.257227)
(-2.12415e-05 0.00160264 0.25719)
(1.59044e-05 0.00152253 0.256949)
(-0.000145517 0.00153076 0.256569)
(-9.77941e-05 0.00135704 0.256252)
(-0.000533818 0.00148899 0.256012)
(-0.000206969 0.00166861 0.256171)
(-0.000720328 0.00165696 0.256432)
(-4.4659e-06 0.00264163 0.256521)
(0.000703076 0.00161903 0.255002)
(0.000199909 0.00164399 0.25463)
(0.000536076 0.00146705 0.254409)
(0.000113098 0.00133201 0.254621)
(0.0001663 0.00150443 0.254953)
(6.16638e-06 0.00149355 0.255361)
(4.6289e-05 0.00156899 0.255635)
(1.29947e-05 0.0015394 0.255698)
(-2.22426e-05 0.00156706 0.255662)
(1.60156e-05 0.00148989 0.255415)
(-0.000149051 0.00149893 0.255027)
(-0.00010072 0.00132681 0.254703)
(-0.000528183 0.00146103 0.254475)
(-0.00019597 0.00163775 0.254664)
(-0.0007047 0.00161095 0.255007)
(-4.33417e-06 0.00257422 0.25511)
(0.000689012 0.00157296 0.253531)
(0.000188382 0.00161144 0.253078)
(0.000530086 0.00143776 0.252832)
(0.000115739 0.00130066 0.253035)
(0.000169548 0.00147155 0.253373)
(5.6688e-06 0.00145998 0.253787)
(4.69522e-05 0.00153255 0.254066)
(1.28365e-05 0.00150402 0.254129)
(-2.32017e-05 0.00153069 0.254093)
(1.6231e-05 0.00145645 0.25384)
(-0.000152575 0.00146626 0.253447)
(-0.000103564 0.00129566 0.253117)
(-0.000522306 0.00143191 0.252899)
(-0.000184423 0.0016054 0.253112)
(-0.000690472 0.00156513 0.253535)
(-4.20415e-06 0.0025067 0.25365)
(0.000676439 0.00152715 0.252016)
(0.000176742 0.0015775 0.251485)
(0.000523995 0.00140731 0.25122)
(0.000118218 0.00126841 0.251416)
(0.0001728 0.00143782 0.251758)
(5.08442e-06 0.0014256 0.252178)
(4.75797e-05 0.00149534 0.25246)
(1.26878e-05 0.00146786 0.252523)
(-2.41084e-05 0.00149357 0.252487)
(1.6545e-05 0.0014222 0.25223)
(-0.0001561 0.00143273 0.251832)
(-0.000106248 0.00126361 0.251497)
(-0.000516337 0.00140164 0.251287)
(-0.000172783 0.00157167 0.251519)
(-0.000677743 0.00151958 0.252019)
(-4.07689e-06 0.00243908 0.252142)
(0.000665324 0.00148161 0.250453)
(0.000165447 0.00154229 0.249854)
(0.000517941 0.0013757 0.249575)
(0.000120479 0.00123528 0.249764)
(0.000176066 0.00140326 0.250111)
(4.41658e-06 0.00139045 0.250535)
(4.81626e-05 0.0014574 0.25082)
(1.25469e-05 0.00143095 0.250883)
(-2.49581e-05 0.00145571 0.250847)
(1.6951e-05 0.00138717 0.250587)
(-0.000159633 0.00139837 0.250184)
(-0.000108714 0.00123066 0.249846)
(-0.000510411 0.00137021 0.249641)
(-0.000161503 0.00153665 0.249888)
(-0.000666474 0.00147429 0.250455)
(-3.9532e-06 0.00237144 0.250586)
(0.0006554 0.00143623 0.248841)
(0.000154777 0.00150589 0.248187)
(0.000512022 0.00134295 0.247897)
(0.000122488 0.00120127 0.248081)
(0.000179349 0.00136786 0.248431)
(3.66844e-06 0.00135452 0.248859)
(4.8698e-05 0.00141872 0.249148)
(1.24128e-05 0.00139328 0.24921)
(-2.57507e-05 0.00141711 0.249174)
(1.74436e-05 0.00135136 0.248911)
(-0.000163179 0.00136316 0.248505)
(-0.000110929 0.00119684 0.248162)
(-0.000504623 0.00133763 0.247962)
(-0.000150858 0.00150043 0.24822)
(-0.000656395 0.00142914 0.248843)
(-3.83382e-06 0.00230372 0.248979)
(0.000646347 0.00139089 0.247182)
(0.000144825 0.00146836 0.246484)
(0.000506295 0.00130907 0.246186)
(0.000124233 0.00116638 0.246367)
(0.00018265 0.00133161 0.246721)
(2.84238e-06 0.0013178 0.247151)
(4.9187e-05 0.00137929 0.247442)
(1.22849e-05 0.00135486 0.247503)
(-2.64888e-05 0.00137777 0.247469)
(1.80197e-05 0.00131477 0.247203)
(-0.000166738 0.00132711 0.246794)
(-0.000112876 0.00116214 0.246448)
(-0.000499028 0.00130391 0.246251)
(-0.000140939 0.00146309 0.246517)
(-0.00064719 0.00138404 0.247183)
(-3.72018e-06 0.00223584 0.247319)
(0.000638005 0.00134555 0.245477)
(0.000135559 0.00142974 0.244745)
(0.000500798 0.00127405 0.244442)
(0.000125704 0.00113059 0.244621)
(0.000185966 0.00129448 0.244978)
(1.9403e-06 0.00128028 0.245411)
(4.96331e-05 0.0013391 0.245704)
(1.2163e-05 0.00131563 0.245764)
(-2.71764e-05 0.00133766 0.24573)
(1.8677e-05 0.00127736 0.245463)
(-0.000170307 0.00129018 0.245051)
(-0.000114547 0.00112653 0.244703)
(-0.000493665 0.00126906 0.244508)
(-0.000131711 0.00142465 0.244777)
(-0.000638707 0.00133892 0.245478)
(-3.61401e-06 0.00216773 0.245608)
(0.000630389 0.00130012 0.243728)
(0.000126896 0.00139002 0.242969)
(0.000495601 0.00123785 0.242666)
(0.000126877 0.00109386 0.242844)
(0.000189289 0.00125643 0.243203)
(9.64763e-07 0.00124189 0.243637)
(5.00398e-05 0.00129807 0.243931)
(1.20462e-05 0.00127556 0.243991)
(-2.78186e-05 0.00129671 0.243957)
(1.94118e-05 0.00123909 0.243689)
(-0.000173877 0.00125232 0.243275)
(-0.000115917 0.00108998 0.242925)
(-0.000488602 0.00123303 0.242731)
(-0.000123092 0.0013851 0.243001)
(-0.000630965 0.00129371 0.243729)
(-3.51633e-06 0.00209932 0.243847)
(0.000623578 0.00125449 0.241938)
(0.000118816 0.00134914 0.241158)
(0.000490804 0.00120044 0.240854)
(0.000127717 0.00105616 0.241032)
(0.000192605 0.00121738 0.241393)
(-8.00191e-08 0.00120257 0.241829)
(5.04101e-05 0.00125615 0.242124)
(1.19332e-05 0.00123457 0.242183)
(-2.84212e-05 0.00125486 0.24215)
(2.02174e-05 0.00119989 0.24188)
(-0.000177437 0.00121347 0.241465)
(-0.000116948 0.00105246 0.241113)
(-0.000483938 0.00119578 0.240919)
(-0.000115063 0.00134439 0.241189)
(-0.000624043 0.00124829 0.241938)
(-3.42761e-06 0.00203051 0.242039)
(0.000617673 0.00120855 0.240106)
(0.000111452 0.00130706 0.23931)
(0.000486479 0.00116171 0.239006)
(0.000128216 0.00101739 0.239182)
(0.000195911 0.00117723 0.239545)
(-1.19027e-06 0.00116222 0.239983)
(5.07476e-05 0.00121322 0.240279)
(1.18225e-05 0.00119255 0.240337)
(-2.89904e-05 0.00121201 0.240305)
(2.10885e-05 0.00115965 0.240033)
(-0.000180981 0.0011735 0.239617)
(-0.000117632 0.00101387 0.239263)
(-0.000479742 0.00115721 0.23907)
(-0.000107758 0.00130247 0.239341)
(-0.000618043 0.00120256 0.240105)
(-3.34806e-06 0.00196111 0.240186)
(0.000612686 0.00116212 0.23823)
(0.000104956 0.00126365 0.237424)
(0.000482621 0.00112154 0.237115)
(0.000128403 0.000977412 0.237291)
(0.000199202 0.00113582 0.237656)
(-2.3663e-06 0.00112068 0.238095)
(5.1058e-05 0.00116914 0.238393)
(1.1714e-05 0.00114935 0.23845)
(-2.95327e-05 0.00116801 0.238419)
(2.2026e-05 0.00111823 0.238145)
(-0.000184508 0.00113228 0.237728)
(-0.000118001 0.00097407 0.237371)
(-0.000476007 0.0011172 0.237179)
(-0.000101323 0.00125922 0.237455)
(-0.000612974 0.00115634 0.23823)
(-3.27765e-06 0.00189101 0.23829)
(0.000608498 0.00111498 0.236309)
(9.92719e-05 0.00121876 0.235496)
(0.000479158 0.00107984 0.235182)
(0.000128317 0.000936093 0.235356)
(0.000202475 0.00109304 0.235723)
(-3.61107e-06 0.00107783 0.236163)
(5.13484e-05 0.00112377 0.236464)
(1.16083e-05 0.00110484 0.236519)
(-3.00527e-05 0.00112271 0.236489)
(2.3035e-05 0.0010755 0.236213)
(-0.000188011 0.00108968 0.235795)
(-0.000118095 0.000932922 0.235436)
(-0.000472666 0.00107566 0.235245)
(-9.56977e-05 0.00121448 0.235526)
(-0.000608715 0.00110939 0.236308)
(-3.21616e-06 0.00182008 0.23635)
(0.000604945 0.00106687 0.234342)
(9.41397e-05 0.00117228 0.233523)
(0.000476026 0.00103649 0.233204)
(0.000127974 0.0008933 0.233378)
(0.000205722 0.00104874 0.233747)
(-4.92562e-06 0.00103354 0.234187)
(5.16241e-05 0.00107697 0.23449)
(1.15066e-05 0.00105888 0.234544)
(-3.05536e-05 0.00107598 0.234515)
(2.41179e-05 0.00103132 0.234237)
(-0.000191484 0.00104556 0.233818)
(-0.000117929 0.000890298 0.233457)
(-0.000469655 0.00103247 0.233267)
(-9.06251e-05 0.00116816 0.233553)
(-0.000605101 0.00106147 0.23434)
(-3.16351e-06 0.00174805 0.234363)
(0.000601916 0.00101759 0.232327)
(8.9299e-05 0.0011241 0.231505)
(0.000473214 0.000991352 0.231182)
(0.000127371 0.000848897 0.231357)
(0.00020893 0.00100277 0.231727)
(-6.30908e-06 0.00098764 0.232167)
(5.18892e-05 0.00102859 0.232471)
(1.14088e-05 0.00101131 0.232524)
(-3.10389e-05 0.00102767 0.232496)
(2.5274e-05 0.000985539 0.232217)
(-0.000194913 0.000999772 0.231797)
(-0.0001175 0.000846063 0.231435)
(-0.000466964 0.000987482 0.231245)
(-8.58485e-05 0.00112012 0.231535)
(-0.000602025 0.00101238 0.232325)
(-3.11984e-06 0.00167474 0.232327)
(0.000599354 0.000966992 0.230265)
(8.46435e-05 0.00107407 0.229442)
(0.000470739 0.000944282 0.229116)
(0.000126505 0.000802743 0.229291)
(0.00021208 0.000954993 0.229663)
(-7.76025e-06 0.000939996 0.230103)
(5.21477e-05 0.000978476 0.230408)
(1.13143e-05 0.00096199 0.23046)
(-3.15135e-05 0.000977625 0.230433)
(2.65017e-05 0.000938009 0.230152)
(-0.000198279 0.000952169 0.229732)
(-0.000116805 0.000800073 0.229369)
(-0.000464612 0.000940567 0.229179)
(-8.12642e-05 0.00107024 0.229471)
(-0.000599428 0.000961961 0.230263)
(-3.08529e-06 0.00159996 0.230242)
(0.000597202 0.000914883 0.228155)
(8.01478e-05 0.00102207 0.227333)
(0.000468618 0.000895158 0.227006)
(0.000125373 0.000754706 0.227182)
(0.000215152 0.000905265 0.227554)
(-9.27767e-06 0.000890465 0.227994)
(5.24041e-05 0.000926502 0.2283)
(1.12228e-05 0.000910784 0.228351)
(-3.19825e-05 0.000925718 0.228324)
(2.77992e-05 0.000888594 0.228042)
(-0.000201564 0.000902615 0.227623)
(-0.000115841 0.000752198 0.22726)
(-0.000462614 0.000891596 0.227068)
(-7.68464e-05 0.00101838 0.227362)
(-0.000597256 0.000910031 0.228153)
(-3.05971e-06 0.00152357 0.228108)
(0.0005954 0.000861104 0.225998)
(7.57772e-05 0.000967972 0.22518)
(0.000466863 0.000843868 0.224851)
(0.000123973 0.000704668 0.225028)
(0.000218124 0.000853468 0.225401)
(-1.08595e-05 0.000838924 0.22584)
(5.26634e-05 0.000872541 0.226147)
(1.11336e-05 0.000857568 0.226196)
(-3.24515e-05 0.000871821 0.226171)
(2.91643e-05 0.000837168 0.225888)
(-0.000204744 0.000850989 0.22547)
(-0.000114606 0.000702321 0.225106)
(-0.000460981 0.000840459 0.224912)
(-7.25602e-05 0.000964432 0.225208)
(-0.000595447 0.000856426 0.225996)
(-3.04279e-06 0.00144545 0.225926)
(0.000593881 0.000805512 0.223794)
(7.14937e-05 0.000911685 0.22298)
(0.000465486 0.000790317 0.222651)
(0.000122303 0.00065253 0.222831)
(0.000220972 0.000799497 0.223203)
(-1.25035e-05 0.000785266 0.223642)
(5.29307e-05 0.000816485 0.223949)
(1.10461e-05 0.000802238 0.223997)
(-3.29266e-05 0.00081583 0.223973)
(3.05941e-05 0.000783625 0.223689)
(-0.000207796 0.000797187 0.223272)
(-0.000113097 0.000650341 0.222907)
(-0.000459727 0.00078706 0.222712)
(-6.83673e-05 0.000908286 0.223008)
(-0.000593934 0.000801006 0.223791)
(-3.03415e-06 0.00136546 0.223694)
(0.000592581 0.000747991 0.221541)
(6.72597e-05 0.000853125 0.220736)
(0.000464501 0.000734431 0.220406)
(0.00012036 0.000598213 0.220589)
(0.000223667 0.000743268 0.220961)
(-1.42064e-05 0.000729404 0.221398)
(5.32117e-05 0.00075825 0.221705)
(1.09594e-05 0.000744709 0.221752)
(-3.34146e-05 0.000757657 0.221729)
(3.20848e-05 0.000727876 0.221445)
(-0.000210692 0.000741125 0.221029)
(-0.000111312 0.00059618 0.220665)
(-0.000458864 0.000731325 0.220467)
(-6.42297e-05 0.000849863 0.220763)
(-0.000592652 0.000743653 0.221538)
(-3.03326e-06 0.00128353 0.221413)
(0.000591432 0.000688447 0.219241)
(6.30398e-05 0.00079223 0.218445)
(0.000463922 0.000676161 0.218116)
(0.000118143 0.000541662 0.218302)
(0.000226178 0.000684722 0.218674)
(-1.59644e-05 0.000671273 0.219109)
(5.35123e-05 0.000697776 0.219416)
(1.08726e-05 0.000684921 0.219462)
(-3.39228e-05 0.000697244 0.219439)
(3.36316e-05 0.000669859 0.219156)
(-0.000213401 0.000682743 0.218741)
(-0.000109248 0.000539784 0.218378)
(-0.000458406 0.000673206 0.218176)
(-6.01117e-05 0.000789105 0.218473)
(-0.000591533 0.000684275 0.219238)
(-3.03947e-06 0.00119958 0.219081)
(0.000590363 0.000626818 0.216892)
(5.88016e-05 0.000728967 0.216109)
(0.000463763 0.000615486 0.21578)
(0.000115649 0.000482854 0.21597)
(0.000228471 0.000623829 0.21634)
(-1.77724e-05 0.000610839 0.216774)
(5.38391e-05 0.000635028 0.21708)
(1.07845e-05 0.000622843 0.217125)
(-3.44595e-05 0.000634557 0.217103)
(3.52284e-05 0.000609539 0.21682)
(-0.000215889 0.000622012 0.216407)
(-0.000106904 0.000481128 0.216045)
(-0.000458366 0.000612681 0.215839)
(-5.59801e-05 0.000725978 0.216135)
(-0.000590504 0.000622809 0.216888)
(-3.05199e-06 0.00111359 0.216699)
(0.000589301 0.000563077 0.214493)
(5.45162e-05 0.000663336 0.213725)
(0.000464039 0.000552418 0.213397)
(0.000112876 0.0004218 0.213591)
(0.000230505 0.000560593 0.21396)
(-1.96239e-05 0.000548102 0.214391)
(5.41991e-05 0.00057001 0.214696)
(1.06937e-05 0.000558479 0.21474)
(-3.50335e-05 0.000569599 0.214719)
(3.68675e-05 0.000546913 0.214437)
(-0.000218117 0.000558935 0.214025)
(-0.000104277 0.000420225 0.213665)
(-0.00045876 0.000549764 0.213456)
(-5.18052e-05 0.000660482 0.213751)
(-0.000589491 0.00055923 0.214489)
(-3.06987e-06 0.00102557 0.214264)
(0.000588169 0.000497238 0.212042)
(5.01583e-05 0.000595374 0.211292)
(0.000464764 0.00048701 0.210965)
(0.000109823 0.000358551 0.211164)
(0.000232237 0.000495055 0.21153)
(-2.15111e-05 0.000483098 0.211959)
(5.45996e-05 0.000502763 0.212263)
(1.05986e-05 0.000491871 0.212306)
(-3.56546e-05 0.00050241 0.212286)
(3.85393e-05 0.00048202 0.212005)
(-0.000220043 0.000493554 0.211595)
(-0.000101365 0.000357125 0.211237)
(-0.000459599 0.000484505 0.211023)
(-4.75609e-05 0.000592654 0.211318)
(-0.000588415 0.00049355 0.212038)
(-3.09197e-06 0.000935566 0.211775)
(0.000586883 0.000429362 0.209537)
(4.57071e-05 0.000525162 0.208807)
(0.000465951 0.00041936 0.208482)
(0.00010649 0.000293208 0.208686)
(0.000233617 0.000427307 0.20905)
(-2.34241e-05 0.000415912 0.209476)
(5.50483e-05 0.000433375 0.209778)
(1.04975e-05 0.00042311 0.20982)
(-3.63334e-05 0.00043308 0.209801)
(4.02322e-05 0.000414942 0.209521)
(-0.000221617 0.000425959 0.209114)
(-9.81675e-05 0.000291929 0.208758)
(-0.000460896 0.000417005 0.208539)
(-4.32248e-05 0.000522576 0.208833)
(-0.000587193 0.000425833 0.209533)
(-3.11696e-06 0.000843694 0.209226)
(0.000585355 0.000359567 0.206974)
(4.1146e-05 0.000452836 0.206268)
(0.000467611 0.000349621 0.205944)
(0.000102876 0.000225927 0.206154)
(0.000234591 0.000357491 0.206514)
(-2.53509e-05 0.000346681 0.206937)
(5.55534e-05 0.000361988 0.207238)
(1.03882e-05 0.000352341 0.207279)
(-3.70812e-05 0.000361752 0.20726)
(4.1932e-05 0.000345818 0.206982)
(-0.000222786 0.000356295 0.206578)
(-9.46854e-05 0.000224791 0.206225)
(-0.000462661 0.000347416 0.206)
(-3.87791e-05 0.000450383 0.206293)
(-0.000585732 0.000356195 0.20697)
(-3.14334e-06 0.000750124 0.206615)
(0.000583488 0.000288035 0.204348)
(3.64631e-05 0.000378593 0.20367)
(0.000469747 0.000278012 0.203346)
(9.89838e-05 0.000156928 0.203563)
(0.000235096 0.000285817 0.203919)
(-2.72769e-05 0.000275609 0.204339)
(5.6123e-05 0.000288812 0.204637)
(1.02682e-05 0.000279773 0.204677)
(-3.79098e-05 0.000288634 0.204658)
(4.36213e-05 0.000274848 0.204383)
(-0.00022349 0.000284768 0.203982)
(-9.092e-05 0.000155934 0.203633)