/*--------------------------------*- C++ -*----------------------------------*\
| =========                 |                                                 |
| \\      /  F ield         | OpenFOAM: The Open Source CFD Toolbox           |
|  \\    /   O peration     | Version:  v1912                                 |
|   \\  /    A nd           | Website:  www.openfoam.com                      |
|    \\/     M anipulation  |                                                 |
\*---------------------------------------------------------------------------*/
FoamFile
{
    version     2.0;
    format      ascii;
    class       volScalarField;
    location    "10.8";
    object      alphat;
}
// * * * * * * * * * * * * * * * * * * * * * * * * * * * * * * * * * * * * * //

dimensions      [1 -1 -1 0 0 0 0];


internalField   nonuniform List<scalar> 
34128
(
2.10666e-09
1.99248e-09
1.87291e-09
1.88528e-09
1.98064e-09
2.04761e-09
2.03045e-09
1.96692e-09
1.94835e-09
1.97091e-09
1.98188e-09
2.00114e-09
2.47911e-09
2.3471e-09
2.24361e-09
2.26837e-09
2.36162e-09
2.42366e-09
2.3999e-09
2.33292e-09
2.31361e-09
2.32717e-09
2.3271e-09
2.35649e-09
1.17519e-08
1.11681e-08
1.12492e-08
1.15237e-08
1.16719e-08
1.17062e-08
1.15394e-08
1.13426e-08
1.12898e-08
1.11559e-08
1.09558e-08
1.11945e-08
7.48822e-08
7.12891e-08
7.26392e-08
7.46065e-08
7.51039e-08
7.49251e-08
7.37902e-08
7.27286e-08
7.24508e-08
7.13213e-08
6.97673e-08
7.14075e-08
3.19572e-07
3.04751e-07
3.11507e-07
3.20089e-07
3.21597e-07
3.2026e-07
3.15354e-07
3.11161e-07
3.10076e-07
3.04991e-07
2.98129e-07
3.05183e-07
9.98411e-07
9.54228e-07
9.77854e-07
1.00489e-06
1.0079e-06
1.00208e-06
9.86643e-07
9.74697e-07
9.71673e-07
9.55257e-07
9.33558e-07
9.55634e-07
2.49289e-06
2.38945e-06
2.45525e-06
2.5228e-06
2.52553e-06
2.50641e-06
2.46771e-06
2.44151e-06
2.43521e-06
2.39297e-06
2.33866e-06
2.39384e-06
5.24906e-06
5.04892e-06
5.2027e-06
5.34378e-06
5.33854e-06
5.28779e-06
5.20619e-06
5.16018e-06
5.15031e-06
5.05899e-06
4.94546e-06
5.06172e-06
9.65079e-06
9.31972e-06
9.63009e-06
9.88471e-06
9.8546e-06
9.74163e-06
9.59185e-06
9.52612e-06
9.51552e-06
9.3442e-06
9.13925e-06
9.35284e-06
1.58869e-05
1.54071e-05
1.59593e-05
1.63662e-05
1.62852e-05
1.60683e-05
1.58227e-05
1.57472e-05
1.57438e-05
1.54585e-05
1.51311e-05
1.54817e-05
2.38811e-05
2.32602e-05
2.4142e-05
2.47303e-05
2.45672e-05
2.41986e-05
2.38314e-05
2.37672e-05
2.37848e-05
2.33554e-05
2.28834e-05
2.34077e-05
3.33084e-05
3.25825e-05
3.38682e-05
3.46511e-05
3.43752e-05
3.38091e-05
3.32998e-05
3.32772e-05
3.33343e-05
3.27408e-05
3.2117e-05
3.28419e-05
4.26927e-05
4.20834e-05
4.37808e-05
4.46361e-05
4.4186e-05
4.34006e-05
4.28092e-05
4.29281e-05
4.30696e-05
4.2361e-05
4.16672e-05
4.25288e-05
5.11817e-05
5.05933e-05
5.26406e-05
5.36287e-05
5.30741e-05
5.20871e-05
5.1371e-05
5.15696e-05
5.17676e-05
5.09459e-05
5.01732e-05
5.12032e-05
5.97845e-05
5.9259e-05
6.16613e-05
6.27757e-05
6.21146e-05
6.09098e-05
6.00616e-05
6.0354e-05
6.06167e-05
5.96923e-05
5.88611e-05
6.00628e-05
6.83816e-05
6.79655e-05
7.07235e-05
7.19533e-05
7.11843e-05
6.97483e-05
6.87622e-05
6.91625e-05
6.9499e-05
6.84853e-05
6.76197e-05
6.89938e-05
7.68592e-05
7.66011e-05
7.97104e-05
8.10414e-05
8.0164e-05
7.84866e-05
7.73585e-05
7.78798e-05
7.82998e-05
7.72136e-05
7.63398e-05
7.78846e-05
8.51218e-05
8.50718e-05
8.85238e-05
8.99384e-05
8.89528e-05
8.70271e-05
8.57545e-05
8.64098e-05
8.69238e-05
8.57835e-05
8.49292e-05
8.66414e-05
9.30973e-05
9.33062e-05
9.70895e-05
9.85669e-05
9.74743e-05
9.52959e-05
9.38772e-05
9.46795e-05
9.52992e-05
9.41242e-05
9.33171e-05
9.51927e-05
0.000100744
0.000101263
0.000105366
0.000106883
0.000105685
0.00010325
0.000101684
0.000102648
0.000103386
0.000102195
0.000101463
0.000103498
0.000108063
0.000108945
0.000113357
0.000114887
0.000113588
0.000110891
0.000109175
0.000110317
0.00011119
0.000109999
0.000109368
0.000111562
0.000115108
0.000116408
0.000121122
0.000122638
0.00012124
0.000118275
0.000116402
0.000117745
0.000118771
0.000117594
0.000117088
0.000119441
0.000121981
0.000123762
0.000128775
0.000130244
0.000128752
0.000125507
0.000123469
0.000125041
0.000126244
0.000125092
0.000124737
0.00012725
0.000128816
0.000131152
0.000136457
0.000137836
0.000136252
0.000132724
0.000130515
0.000132351
0.00013376
0.000132642
0.000132463
0.000135128
0.000135733
0.000138712
0.000144296
0.000145525
0.000143849
0.000140044
0.000137669
0.000139814
0.000141458
0.000140387
0.000140407
0.000143204
0.000142792
0.000146513
0.000152353
0.000153345
0.000151572
0.000147516
0.000145008
0.00014751
0.00014941
0.000148405
0.000148652
0.000151532
0.000149944
0.000154516
0.000160569
0.000161202
0.00015932
0.00015507
0.000152497
0.000155403
0.000157571
0.000156662
0.000157166
0.000160041
0.000156981
0.00016251
0.0001687
0.000168814
0.000166802
0.000162461
0.000159935
0.000163281
0.000165711
0.000164949
0.000165744
0.000168466
0.000163451
0.000169996
0.000176194
0.000175618
0.000173439
0.000169166
0.000166866
0.000170643
0.000173285
0.000172758
0.000173881
0.000176238
0.000168646
0.000176181
0.000182207
0.000180793
0.000178402
0.000174399
0.000172558
0.000176698
0.000179447
0.00017927
0.000180765
0.000182504
0.000171883
0.000180281
0.000185955
0.000183647
0.000181033
0.00017745
0.000176264
0.000180654
0.00018339
0.000183667
0.000185554
0.000186467
0.000173311
0.00018217
0.000187525
0.00018463
0.000181852
0.000178612
0.00017792
0.000182395
0.000185073
0.000185727
0.000187919
0.000188203
0.000173143
0.000182225
0.000187248
0.00018389
0.00018097
0.000178088
0.000177843
0.000182298
0.000184886
0.00018586
0.000188269
0.00018806
0.000171459
0.000180567
0.00018522
0.000181501
0.000178465
0.000175959
0.000176138
0.000180485
0.000182942
0.000184212
0.000186782
0.000186134
0.0001684
0.00017733
0.00018158
0.000177619
0.000174514
0.000172384
0.000172939
0.00017709
0.000179382
0.000180915
0.000183593
0.000182571
0.000164207
0.000172741
0.000176562
0.0001725
0.000169405
0.000167635
0.000168479
0.00017235
0.000174454
0.000176198
0.000178921
0.000177615
0.000159224
0.000167138
0.000170499
0.000166494
0.000163523
0.000162087
0.000163101
0.000166616
0.000168522
0.000170407
0.000173102
0.000171628
0.000153883
0.000160959
0.000163823
0.000160029
0.000157335
0.000156213
0.000157251
0.00016035
0.000162063
0.000163995
0.000166575
0.000165078
0.000148685
0.000154716
0.000157034
0.000153597
0.000151366
0.000150549
0.000151459
0.000154105
0.000155639
0.000157499
0.000159864
0.000158483
0.000144182
0.000148978
0.000150682
0.000147728
0.000146175
0.000145681
0.000146317
0.000148501
0.000149873
0.000151522
0.000153553
0.000152394
0.000140961
0.000144346
0.000145349
0.000142977
0.000142335
0.000142222
0.000142465
0.000144204
0.000145429
0.000146704
0.000148261
0.000147382
0.000139657
0.000141452
0.000141642
0.000139921
0.000140458
0.000140847
0.000140588
0.000141925
0.000143009
0.00014372
0.00014464
0.00014404
0.000140983
0.000140988
0.000140211
0.000139185
0.000141216
0.000142303
0.00014147
0.00014246
0.000143386
0.000143303
0.000143386
0.000143003
0.000145802
0.000143746
0.000141802
0.000141498
0.000145422
0.000147498
0.000146059
0.000146773
0.000147488
0.000146305
0.000145293
0.000145017
0.000155275
0.000150741
0.000147352
0.000147796
0.00015417
0.000157677
0.000155599
0.000156115
0.000156529
0.000153825
0.000151367
0.000151042
0.000171129
0.000163417
0.00015817
0.000159409
0.000169078
0.000174715
0.000171944
0.000172349
0.000172307
0.000167446
0.000163018
0.000162437
0.000196083
0.000184002
0.00017624
0.00017836
0.000192669
0.000201585
0.000198041
0.000198443
0.000197676
0.000189635
0.000182399
0.00018128
0.000234417
0.000216047
0.000204716
0.000207846
0.00022889
0.000242973
0.000238597
0.000239178
0.000237245
0.000224372
0.000212954
0.000210864
0.000290535
0.000264815
0.00024847
0.000252597
0.000282338
0.000303708
0.000299229
0.000300769
0.000297165
0.000277628
0.000260019
0.000256038
0.000372373
0.000335876
0.000312313
0.000317533
0.000360087
0.000392793
0.000389077
0.000391947
0.000382515
0.00035478
0.000327894
0.000315097
0.000462449
0.000418327
0.00038924
0.000397071
0.000450595
0.000486632
0.000480602
0.000478463
0.000465831
0.000429955
0.000394415
0.000377223
0.000562481
0.000509485
0.000473546
0.000483049
0.00054929
0.000592499
0.000586365
0.000583618
0.000567511
0.00052345
0.000478765
0.000456469
0.000679781
0.000618131
0.000575743
0.000586768
0.000665919
0.000716586
0.000710532
0.000707013
0.00068694
0.000634254
0.000580101
0.000552157
0.000815232
0.000744571
0.000695463
0.000708061
0.000801373
0.000859995
0.0008542
0.000849727
0.000825165
0.000763044
0.000698164
0.000663683
0.000969255
0.000889769
0.000833858
0.000848106
0.000956344
0.00102295
0.00101756
0.00101193
0.000982432
0.000910605
0.000833931
0.000792077
0.00114108
0.00105365
0.000991334
0.00100728
0.0011303
0.00120438
0.00119941
0.00119244
0.00115792
0.00107658
0.000987563
0.000937787
0.00132855
0.00123479
0.00116703
0.00118471
0.00132127
0.00140162
0.00139704
0.00138856
0.00134932
0.00125926
0.00115805
0.00110021
0.00152821
0.00143037
0.00135866
0.00137808
0.00152583
0.00161059
0.00160636
0.00159626
0.00155292
0.00145556
0.00134312
0.00127756
0.00173553
0.00163626
0.00156258
0.00158369
0.00173932
0.00182624
0.00182224
0.00181052
0.00176397
0.00166122
0.00153931
0.00146687
0.00194535
0.00184748
0.00177403
0.00179675
0.00195634
0.00204303
0.00203907
0.00202585
0.00197714
0.00187122
0.00174224
0.00166421
0.00215243
0.00205866
0.00198767
0.00201182
0.00217125
0.00225544
0.00225132
0.00223682
0.00218705
0.00208025
0.00194702
0.001865
0.0023519
0.00226457
0.00219804
0.00222339
0.00237877
0.00245848
0.00245401
0.00243856
0.00238877
0.00228324
0.0021487
0.00206444
0.00253966
0.00246057
0.00240012
0.00242633
0.00257425
0.00264798
0.00264309
0.00262708
0.00257814
0.00247573
0.00234269
0.00225785
0.0027126
0.00264297
0.00258968
0.00261636
0.00275389
0.00282084
0.00281561
0.00279947
0.00275205
0.00265418
0.00252508
0.00244109
0.00286869
0.00280912
0.00276354
0.00279042
0.00291516
0.0029749
0.00296975
0.0029539
0.00290846
0.00281605
0.00269281
0.00261075
0.00300689
0.00295748
0.00291964
0.00294786
0.00305677
0.00310939
0.00310473
0.00308956
0.00304637
0.00295987
0.00284382
0.00276433
0.00312707
0.00308751
0.00305696
0.0030868
0.00317847
0.00322459
0.00322064
0.00320651
0.00316576
0.0030851
0.00297697
0.00290026
0.00322982
0.00319945
0.00317543
0.00320594
0.00328082
0.00332084
0.00331824
0.00330548
0.00326727
0.003192
0.00309195
0.00301782
0.00331623
0.0032942
0.00327573
0.00330549
0.00336482
0.00339932
0.00339868
0.0033877
0.00335184
0.00328147
0.00318918
0.00311707
0.00338776
0.003373
0.00335932
0.00338659
0.00343234
0.00346134
0.00346369
0.00345467
0.00342093
0.00335485
0.00326958
0.00319868
0.00344601
0.00343749
0.0034278
0.0034508
0.00348542
0.00350938
0.00351502
0.003508
0.00347621
0.00341373
0.00333445
0.00326374
0.00349263
0.00348915
0.00348227
0.00350056
0.0035261
0.00354564
0.0035537
0.00354939
0.00351943
0.00345985
0.00338531
0.00331359
0.00352922
0.00352951
0.00352377
0.00353822
0.0035563
0.00357198
0.00358208
0.00358084
0.0035523
0.00349495
0.00342371
0.0033501
0.00355726
0.00355982
0.00355476
0.00356588
0.00357771
0.00359003
0.00360191
0.00360352
0.00357636
0.00352071
0.0034512
0.00337551
0.00357805
0.00358194
0.00357741
0.00358531
0.00359177
0.00360111
0.00361457
0.00361849
0.00359304
0.00353869
0.00346933
0.00339183
0.00359271
0.00359732
0.00359302
0.00359801
0.00359967
0.00360629
0.00362114
0.00362712
0.0036036
0.00355023
0.00348023
0.00340099
0.003602
0.00360701
0.0036025
0.00360499
0.00360229
0.00360636
0.00362241
0.00363042
0.003609
0.00355639
0.00348539
0.00340473
0.00360644
0.0036117
0.00360664
0.00360681
0.00360031
0.00360184
0.00361891
0.00362898
0.00360991
0.00355797
0.00348598
0.00340441
0.00360633
0.00361186
0.00360599
0.00360378
0.00359391
0.00359292
0.00361088
0.00362308
0.0036067
0.00355545
0.0034827
0.00340099
2.26201e-09
2.13242e-09
2.02019e-09
2.04773e-09
2.1424e-09
2.19964e-09
2.17541e-09
2.10973e-09
2.09198e-09
2.11053e-09
2.11374e-09
2.14332e-09
2.53759e-09
2.40546e-09
2.31759e-09
2.35989e-09
2.44847e-09
2.48864e-09
2.45322e-09
2.39238e-09
2.37861e-09
2.38802e-09
2.38363e-09
2.42819e-09
1.01569e-08
9.8431e-09
1.01013e-08
1.04527e-08
1.05223e-08
1.02975e-08
1.00249e-08
9.98735e-09
1.00296e-08
9.88481e-09
9.73794e-09
1.0095e-08
6.22752e-08
6.0745e-08
6.33267e-08
6.576e-08
6.57028e-08
6.36951e-08
6.18207e-08
6.19318e-08
6.23458e-08
6.11668e-08
6.0062e-08
6.25138e-08
2.6416e-07
2.58298e-07
2.70186e-07
2.80648e-07
2.79872e-07
2.70767e-07
2.6267e-07
2.63511e-07
2.65413e-07
2.60186e-07
2.55383e-07
2.65904e-07
8.23373e-07
8.0709e-07
8.45929e-07
8.78392e-07
8.74763e-07
8.45276e-07
8.19888e-07
8.23425e-07
8.29702e-07
8.13127e-07
7.98223e-07
8.30965e-07
2.05179e-06
2.01728e-06
2.11829e-06
2.19801e-06
2.18583e-06
2.10978e-06
2.04643e-06
2.05788e-06
2.07459e-06
2.0329e-06
1.99649e-06
2.0776e-06
4.31125e-06
4.25389e-06
4.47469e-06
4.63805e-06
4.60561e-06
4.44071e-06
4.30799e-06
4.33843e-06
4.37632e-06
4.28854e-06
4.21472e-06
4.38351e-06
7.90949e-06
7.83513e-06
8.25395e-06
8.54304e-06
8.47144e-06
8.16087e-06
7.91914e-06
7.98766e-06
8.06304e-06
7.9032e-06
7.77481e-06
8.08025e-06
1.29936e-05
1.29246e-05
1.36295e-05
1.40827e-05
1.39479e-05
1.34277e-05
1.30351e-05
1.31687e-05
1.33028e-05
1.30452e-05
1.28491e-05
1.3342e-05
1.94962e-05
1.94723e-05
2.05446e-05
2.11867e-05
2.09647e-05
2.01752e-05
1.95948e-05
1.98254e-05
2.00422e-05
1.96677e-05
1.93999e-05
2.01239e-05
2.71521e-05
2.72265e-05
2.87235e-05
2.95594e-05
2.92337e-05
2.81297e-05
2.73357e-05
2.76951e-05
2.80177e-05
2.75191e-05
2.71879e-05
2.81719e-05
3.46255e-05
3.49676e-05
3.68317e-05
3.77273e-05
3.72792e-05
3.59037e-05
3.49829e-05
3.55272e-05
3.59656e-05
3.54094e-05
3.50967e-05
3.62383e-05
4.15382e-05
4.20449e-05
4.42175e-05
4.52238e-05
4.47147e-05
4.30908e-05
4.19974e-05
4.26662e-05
4.32031e-05
4.25853e-05
4.2276e-05
4.36122e-05
4.85685e-05
4.92663e-05
5.17231e-05
5.28203e-05
5.22644e-05
5.0403e-05
4.91364e-05
4.99309e-05
5.05707e-05
4.9909e-05
4.96251e-05
5.11483e-05
5.56197e-05
5.65348e-05
5.92437e-05
6.04061e-05
5.98193e-05
5.77386e-05
5.63029e-05
5.72227e-05
5.79694e-05
5.72843e-05
5.70493e-05
5.87461e-05
6.26011e-05
6.37583e-05
6.66802e-05
6.78769e-05
6.72768e-05
6.50021e-05
6.34054e-05
6.4449e-05
6.53062e-05
6.462e-05
6.44572e-05
6.63092e-05
6.94369e-05
7.08595e-05
7.39498e-05
7.51448e-05
7.45502e-05
7.21128e-05
7.03679e-05
7.15332e-05
7.25044e-05
7.184e-05
7.17715e-05
7.37548e-05
7.607e-05
7.77798e-05
8.09902e-05
8.2143e-05
8.15735e-05
7.90094e-05
7.71329e-05
7.8419e-05
7.95073e-05
7.88868e-05
7.89331e-05
8.10182e-05
8.24686e-05
8.44868e-05
8.77665e-05
8.88332e-05
8.83086e-05
8.56575e-05
8.3669e-05
8.5077e-05
8.62856e-05
8.57292e-05
8.59078e-05
8.80603e-05
8.86351e-05
9.09841e-05
9.42819e-05
9.52153e-05
9.47553e-05
9.20593e-05
8.99803e-05
9.15151e-05
9.28478e-05
9.23726e-05
9.26973e-05
9.48783e-05
9.46146e-05
9.73204e-05
0.000100585
0.000101335
0.000100958
9.82626e-05
9.61159e-05
9.77876e-05
9.92494e-05
9.88683e-05
9.93488e-05
0.000101515
0.000100492
0.000103587
0.00010677
0.000107277
0.000107003
0.000104357
0.000102169
0.000103994
0.000105591
0.000105313
0.000105954
0.000108054
0.000106376
0.0001099
0.000112952
0.000113147
0.000112992
0.00011045
0.000108259
0.000110262
0.000111996
0.000111828
0.00011263
0.000114603
0.000112362
0.000116366
0.000119236
0.000119035
0.000119005
0.000116635
0.000114498
0.000116707
0.000118578
0.000118526
0.000119486
0.000121248
0.000118493
0.000123037
0.000125676
0.000124976
0.000125057
0.000122945
0.000120942
0.000123391
0.000125394
0.000125465
0.000126576
0.000128009
0.000124717
0.000129867
0.000132229
0.000130919
0.000131064
0.000129306
0.000127556
0.000130282
0.000132399
0.000132603
0.000133852
0.000134805
0.000130853
0.000136659
0.000138716
0.000136688
0.000136805
0.000135501
0.000134166
0.000137195
0.000139381
0.000139741
0.000141107
0.000141413
0.000136538
0.000142995
0.000144743
0.000141919
0.000141868
0.000141099
0.000140369
0.000143686
0.00014586
0.000146422
0.000147899
0.000147412
0.000141223
0.000148237
0.000149702
0.000146063
0.000145683
0.000145479
0.000145537
0.000149074
0.000151134
0.000151959
0.000153553
0.00015219
0.000144384
0.000151783
0.000153004
0.000148613
0.000147849
0.00014812
0.000149066
0.000152723
0.00015457
0.000155704
0.000157412
0.000155193
0.000146162
0.000153669
0.000154717
0.000149868
0.000148778
0.000149396
0.000150953
0.00015462
0.000156293
0.000157646
0.000159422
0.000156711
0.000146704
0.000154142
0.000155057
0.000149902
0.000148501
0.000149399
0.000151452
0.000155054
0.000156559
0.00015808
0.000159888
0.000156857
0.000146079
0.000153288
0.000154101
0.000148777
0.000147093
0.000148201
0.000150653
0.000154123
0.000155452
0.0001571
0.000158909
0.0001557
0.000144426
0.000151239
0.000151969
0.000146618
0.000144719
0.000145967
0.000148697
0.000151968
0.00015312
0.000154847
0.000156623
0.00015339
0.000141981
0.000148226
0.000148867
0.000143638
0.000141639
0.000142971
0.000145828
0.000148837
0.000149823
0.000151568
0.000153268
0.000150172
0.000139076
0.000144582
0.000145096
0.000140138
0.000138201
0.000139586
0.000142402
0.000145099
0.000145937
0.000147622
0.000149189
0.000146369
0.000136128
0.000140729
0.000141042
0.000136499
0.000134827
0.000136274
0.000138879
0.000141227
0.000141942
0.000143468
0.000144825
0.000142357
0.000133619
0.000137159
0.000137163
0.000133159
0.000131995
0.000133558
0.000135802
0.000137786
0.000138396
0.000139643
0.000140687
0.000138575
0.000132092
0.000134421
0.000133977
0.000130609
0.000130233
0.00013202
0.00013378
0.000135406
0.000135917
0.000136743
0.00013734
0.000135507
0.000132144
0.000133107
0.00013205
0.000129389
0.000130123
0.000132297
0.000133487
0.00013478
0.000135179
0.000135412
0.00013539
0.000133679
0.00013445
0.000133873
0.000132013
0.00013011
0.000132324
0.000135104
0.000135684
0.000136682
0.000136932
0.000136361
0.000135505
0.000133675
0.00013983
0.000137482
0.000134605
0.000133497
0.000137644
0.00014134
0.000141276
0.000142036
0.00014207
0.000140426
0.00013845
0.000136173
0.000149387
0.000144922
0.000140757
0.000140487
0.000147174
0.000152249
0.000151493
0.000152076
0.000151783
0.000148685
0.000145199
0.000142035
0.000164749
0.000157609
0.000151765
0.000152402
0.000162532
0.000169721
0.00016821
0.000168683
0.000167861
0.0001627
0.000157113
0.000152451
0.0001885
0.000177727
0.000169603
0.000171263
0.000186296
0.000196803
0.000194471
0.000194914
0.00019319
0.000184925
0.00017628
0.000169212
0.000224819
0.000208826
0.000197467
0.000200316
0.000222613
0.000238401
0.000235283
0.000235855
0.000232565
0.00021941
0.000206082
0.000195156
0.000278556
0.000256352
0.000240456
0.000244442
0.000275721
0.000299377
0.000295743
0.000297191
0.000291896
0.000272228
0.000251809
0.00023457
0.000355616
0.000325702
0.000303325
0.000308772
0.000353924
0.000382662
0.000373436
0.000373766
0.000369485
0.000347788
0.000317991
0.000289934
0.000431866
0.000399228
0.000375514
0.000389811
0.000451208
0.000467023
0.000455866
0.00045657
0.000451226
0.000423287
0.000383442
0.000345219
0.000525903
0.000487691
0.000458904
0.000477589
0.000552404
0.000569196
0.000556431
0.000557627
0.000551432
0.000517715
0.000467145
0.000417058
0.000636548
0.000593658
0.000560774
0.000584244
0.000671493
0.000688849
0.00067452
0.000676346
0.000669328
0.000629796
0.000568025
0.000505822
0.000764909
0.000717444
0.000680686
0.000709733
0.000809703
0.000827485
0.000811628
0.000814207
0.000806337
0.000760485
0.000685678
0.00061026
0.000912014
0.00086042
0.000820233
0.000855651
0.000967903
0.00098582
0.000968541
0.000971904
0.000963226
0.000910772
0.000821312
0.000731227
0.00107776
0.0010229
0.000980166
0.00102256
0.00114562
0.00116321
0.00114471
0.00114876
0.00113954
0.00108034
0.000975271
0.000869647
0.00126063
0.0012038
0.00115976
0.00120943
0.00134079
0.0013574
0.00133801
0.00134254
0.00133292
0.00126731
0.00114663
0.00102545
0.00145768
0.00140046
0.00135659
0.00141347
0.0015497
0.00156477
0.00154478
0.00154946
0.00153953
0.00146829
0.0013331
0.00119738
0.00166468
0.00160884
0.00156665
0.00163022
0.0017673
0.00178053
0.00176012
0.00176457
0.00175435
0.00167857
0.00153111
0.00138292
0.00187656
0.0018238
0.00178468
0.00185396
0.00198767
0.0019991
0.00197835
0.00198221
0.00197168
0.00189268
0.00173608
0.00157844
0.00208787
0.00203973
0.00200474
0.00207836
0.00220465
0.00221466
0.00219367
0.00219665
0.00218577
0.00210494
0.00194296
0.00177948
0.00229336
0.00225101
0.00222088
0.00229716
0.00241249
0.0024217
0.00240068
0.00240264
0.00239132
0.00231004
0.00214659
0.00198118
0.00248841
0.00245264
0.00242771
0.00250479
0.00260621
0.0026155
0.00259483
0.00259577
0.00258393
0.00250343
0.00234223
0.00217869
0.00266935
0.00264052
0.00262079
0.00269679
0.00278224
0.00279246
0.00277267
0.00277275
0.00276034
0.00268163
0.00252589
0.0023676
0.00283361
0.00281168
0.00279688
0.00286992
0.00293877
0.00295028
0.00293195
0.00293147
0.00291846
0.00284227
0.00269447
0.00254417
0.00297973
0.00296432
0.002954
0.00302211
0.00307519
0.00308805
0.00307161
0.00307092
0.00305731
0.00298408
0.00284589
0.00270557
0.00310725
0.00309772
0.00309129
0.00315096
0.00319174
0.00320528
0.00319155
0.00319105
0.00317682
0.00310677
0.00297907
0.0028499
0.00321655
0.00321207
0.00320889
0.00325798
0.00328946
0.00330212
0.0032925
0.00329256
0.0032776
0.00321082
0.0030938
0.00297619
0.00330862
0.00330825
0.00330764
0.00334594
0.00336999
0.00338078
0.00337581
0.0033767
0.00336083
0.00329735
0.0031906
0.00308428
0.00338491
0.00338768
0.00338885
0.00341737
0.00343548
0.00344376
0.00344324
0.00344507
0.0034284
0.00336796
0.00327057
0.00317471
0.00344707
0.00345208
0.00345383
0.00347474
0.00348768
0.00349392
0.0034963
0.00349951
0.00348221
0.00342451
0.00333522
0.00324854
0.00349687
0.00350305
0.00350429
0.00352053
0.00352833
0.00353271
0.00353673
0.00354199
0.00352417
0.00346878
0.00338628
0.00330721
0.00353613
0.0035426
0.00354315
0.00355643
0.0035591
0.00356159
0.00356766
0.0035742
0.00355612
0.00350252
0.00342562
0.00335239
0.00356655
0.00357284
0.00357372
0.00358382
0.00358151
0.00358198
0.00359002
0.00359706
0.00357969
0.0035274
0.00345508
0.00338542
0.00358964
0.003596
0.003597
0.00360391
0.00359688
0.00359518
0.00360499
0.00361249
0.00359642
0.00354497
0.00347634
0.00340746
0.00360665
0.00361296
0.00361343
0.00361765
0.00360633
0.00360234
0.00361365
0.00362225
0.00360751
0.0035566
0.00349071
0.00342006
0.00361853
0.00362445
0.00362392
0.00362567
0.00361077
0.00360438
0.00361695
0.00362712
0.00361387
0.00356347
0.00349871
0.00342481
0.00362609
0.00363111
0.00362948
0.0036286
0.00361082
0.00360203
0.00361564
0.00362769
0.00361622
0.00356655
0.00350142
0.00342336
0.00362988
0.00363353
0.00363083
0.00362711
0.00360674
0.00359573
0.0036102
0.00362436
0.00361502
0.00356649
0.00349979
0.00341707
0.00363012
0.0036321
0.00362841
0.00362158
0.00359868
0.00358565
0.00360087
0.00361735
0.00361052
0.00356353
0.00349461
0.00340722
2.28479e-09
2.15771e-09
2.04646e-09
2.07548e-09
2.17009e-09
2.22281e-09
2.1951e-09
2.13213e-09
2.11658e-09
2.13374e-09
2.13639e-09
2.16796e-09
2.57864e-09
2.44638e-09
2.35028e-09
2.38976e-09
2.48472e-09
2.52756e-09
2.48805e-09
2.42548e-09
2.41278e-09
2.42352e-09
2.42081e-09
2.46405e-09
1.0564e-08
1.02032e-08
1.02806e-08
1.05496e-08
1.07471e-08
1.06563e-08
1.03649e-08
1.02446e-08
1.02691e-08
1.01752e-08
1.00716e-08
1.0366e-08
6.5136e-08
6.32419e-08
6.44861e-08
6.63025e-08
6.71892e-08
6.62021e-08
6.42148e-08
6.37006e-08
6.39703e-08
6.31739e-08
6.23856e-08
6.43551e-08
2.76494e-07
2.69013e-07
2.75072e-07
2.82831e-07
2.86171e-07
2.81574e-07
2.73041e-07
2.71146e-07
2.72408e-07
2.68848e-07
2.65388e-07
2.73742e-07
8.61879e-07
8.40393e-07
8.60898e-07
8.84822e-07
8.94134e-07
8.79021e-07
8.52477e-07
8.47391e-07
8.5162e-07
8.40267e-07
8.29432e-07
8.55117e-07
2.14759e-06
2.09972e-06
2.15481e-06
2.21303e-06
2.23321e-06
2.19372e-06
2.12815e-06
2.11798e-06
2.12943e-06
2.10073e-06
2.07404e-06
2.13675e-06
4.51204e-06
4.42563e-06
4.54971e-06
4.66755e-06
4.70301e-06
4.61644e-06
4.48081e-06
4.46568e-06
4.4921e-06
4.43143e-06
4.37689e-06
4.50512e-06
8.27696e-06
8.14733e-06
8.38874e-06
8.59385e-06
8.64615e-06
8.4818e-06
8.2385e-06
8.22343e-06
8.27681e-06
8.16603e-06
8.07045e-06
8.29788e-06
1.35964e-05
1.34329e-05
1.38473e-05
1.41622e-05
1.42289e-05
1.39526e-05
1.35642e-05
1.3561e-05
1.36572e-05
1.34784e-05
1.33312e-05
1.36899e-05
2.04007e-05
2.0229e-05
2.08679e-05
2.1303e-05
2.13789e-05
2.09598e-05
2.0397e-05
2.04238e-05
2.05804e-05
2.03205e-05
2.01177e-05
2.06307e-05
2.84143e-05
2.82735e-05
2.91729e-05
2.97229e-05
2.98027e-05
2.92198e-05
2.84665e-05
2.85453e-05
2.87791e-05
2.84335e-05
2.81795e-05
2.88554e-05
3.62581e-05
3.63006e-05
3.74403e-05
3.80013e-05
3.801e-05
3.72771e-05
3.64342e-05
3.66286e-05
3.69443e-05
3.65715e-05
3.63425e-05
3.71129e-05
4.35195e-05
4.36463e-05
4.49735e-05
4.55929e-05
4.56035e-05
4.47497e-05
4.37718e-05
4.40273e-05
4.4412e-05
4.39995e-05
4.3765e-05
4.4643e-05
5.09117e-05
5.11412e-05
5.26434e-05
5.33076e-05
5.33219e-05
5.23572e-05
5.12522e-05
5.15733e-05
5.20291e-05
5.1587e-05
5.13568e-05
5.23279e-05
5.83322e-05
5.86846e-05
6.03476e-05
6.10396e-05
6.10568e-05
5.99938e-05
5.8774e-05
5.9166e-05
5.96949e-05
5.92337e-05
5.9017e-05
6.00634e-05
6.56843e-05
6.618e-05
6.79889e-05
6.86892e-05
6.87058e-05
6.75592e-05
6.6241e-05
6.67103e-05
6.73136e-05
6.68432e-05
6.66477e-05
6.7749e-05
7.28863e-05
7.35467e-05
7.54865e-05
7.61725e-05
7.61831e-05
7.49684e-05
7.35719e-05
7.41268e-05
7.4805e-05
7.4334e-05
7.41654e-05
7.52991e-05
7.9876e-05
8.07234e-05
8.27796e-05
8.34266e-05
8.34242e-05
8.21567e-05
8.0705e-05
8.1356e-05
8.21085e-05
8.16432e-05
8.1505e-05
8.26469e-05
8.66179e-05
8.76762e-05
8.98353e-05
9.04156e-05
9.03928e-05
8.90874e-05
8.76054e-05
8.83655e-05
8.91907e-05
8.87344e-05
8.86275e-05
8.97521e-05
9.31129e-05
9.44086e-05
9.66586e-05
9.71414e-05
9.70916e-05
9.57625e-05
9.42757e-05
9.51613e-05
9.60568e-05
9.5609e-05
9.55315e-05
9.6611e-05
9.94059e-05
0.000100971
0.000103301
0.000103651
0.000103568
0.000102232
0.000100765
0.000101797
0.00010276
0.000102315
0.000102263
0.000103265
0.000105583
0.000107457
0.00010986
0.000110032
0.00010991
0.000108586
0.000107168
0.000108372
0.000109401
0.000108949
0.000108913
0.000109794
0.000111752
0.000113985
0.000116452
0.000116395
0.000116221
0.000114934
0.000113602
0.000115011
0.000116102
0.000115632
0.000115599
0.0001163
0.000118003
0.000120656
0.000123187
0.000122833
0.000122584
0.000121365
0.000120171
0.000121824
0.000122969
0.000122468
0.000122423
0.000122865
0.00012437
0.000127513
0.000130113
0.000129385
0.000129017
0.0001279
0.000126915
0.000128857
0.000130042
0.0001295
0.000129425
0.000129517
0.000130791
0.0001345
0.000137184
0.00013599
0.000135433
0.000134454
0.000133773
0.000136047
0.00013725
0.000136662
0.00013654
0.000136183
0.00013707
0.000141412
0.000144205
0.000142448
0.000141607
0.000140797
0.000140536
0.000143174
0.000144361
0.000143734
0.000143563
0.000142661
0.000142833
0.000147829
0.000150749
0.000148355
0.000147111
0.000146491
0.000146769
0.000149766
0.000150887
0.000150258
0.000150061
0.000148571
0.000147519
0.000153111
0.00015616
0.000153098
0.00015134
0.000150914
0.000151829
0.000155125
0.00015612
0.00015555
0.000155379
0.000153339
0.000150598
0.000156649
0.000159804
0.000156109
0.000153831
0.000153566
0.000155121
0.000158613
0.000159432
0.000158978
0.000158887
0.000156418
0.000152286
0.000158528
0.000161699
0.00015764
0.000154991
0.000154852
0.000156834
0.000160385
0.000161061
0.000160695
0.000160674
0.00015802
0.000152699
0.000158974
0.000162105
0.00015781
0.000154871
0.000154841
0.000157156
0.000160681
0.000161218
0.000160934
0.000160984
0.000158271
0.000151907
0.000158068
0.000161109
0.000156689
0.000153548
0.000153612
0.000156164
0.000159586
0.000159987
0.00015978
0.000159904
0.000157242
0.000150059
0.00015595
0.000158842
0.000154418
0.000151191
0.00015134
0.000154016
0.000157257
0.000157529
0.000157389
0.00015758
0.00015507
0.0001474
0.000152856
0.000155526
0.000151231
0.000148072
0.000148309
0.000150975
0.000153962
0.000154121
0.000154023
0.00015426
0.000151981
0.000144272
0.000149125
0.000151489
0.000147459
0.000144557
0.000144896
0.000147408
0.000150081
0.000150147
0.000150051
0.000150291
0.000148285
0.000141092
0.000145181
0.000147147
0.000143516
0.000141086
0.000141558
0.000143772
0.000146089
0.000146086
0.000145936
0.00014611
0.00014437
0.000138338
0.000141517
0.000142993
0.000139886
0.000138162
0.00013881
0.000140591
0.000142532
0.000142488
0.00014221
0.000142222
0.000140684
0.000136554
0.00013868
0.000139581
0.000137108
0.000136331
0.000137214
0.00013844
0.00014001
0.000139953
0.000139459
0.000139187
0.000137723
0.000136352
0.000137265
0.000137513
0.000135774
0.000136209
0.000137383
0.000137939
0.000139174
0.000139135
0.000138318
0.000137611
0.00013603
0.000138397
0.00013793
0.000137458
0.000136548
0.000138486
0.000140022
0.000139784
0.000140742
0.00014076
0.000139494
0.000138163
0.000136207
0.000143486
0.000141448
0.000140188
0.000140216
0.000143992
0.000145988
0.000144803
0.000145568
0.000145697
0.000143821
0.000141626
0.000138962
0.000152669
0.000148799
0.000146678
0.000147781
0.000153834
0.000156426
0.000154076
0.000154764
0.000155085
0.000152385
0.000148999
0.000145192
0.00016746
0.000161359
0.000158273
0.000160652
0.000169614
0.000173009
0.000169148
0.00016992
0.000170573
0.000166748
0.000161682
0.000156131
0.000190168
0.000181194
0.000176992
0.000180943
0.000193776
0.0001983
0.000192378
0.000193483
0.000194705
0.000189303
0.000181789
0.000173611
0.000224379
0.000211536
0.000206009
0.000211964
0.000230113
0.000236245
0.000227485
0.00022935
0.000231515
0.000223843
0.000212647
0.000200465
0.000275078
0.000257349
0.000250313
0.000258841
0.000283762
0.000291773
0.000279897
0.000283531
0.000287271
0.000276217
0.000259372
0.000241027
0.000348404
0.000323818
0.000314842
0.000327015
0.00036161
0.000372177
0.00035614
0.000362859
0.000369034
0.000352691
0.000327107
0.000299333
0.000436778
0.000407648
0.00038997
0.000413603
0.000462521
0.000469816
0.000454338
0.000457197
0.000457551
0.000434443
0.000403741
0.000364814
0.000530463
0.000496403
0.000475084
0.000506361