/*--------------------------------*- C++ -*----------------------------------*\
| =========                 |                                                 |
| \\      /  F ield         | OpenFOAM: The Open Source CFD Toolbox           |
|  \\    /   O peration     | Version:  v1912                                 |
|   \\  /    A nd           | Website:  www.openfoam.com                      |
|    \\/     M anipulation  |                                                 |
\*---------------------------------------------------------------------------*/
FoamFile
{
    version     2.0;
    format      ascii;
    class       volScalarField;
    location    "10.8";
    object      heatTransferCoeff(T);
}
// * * * * * * * * * * * * * * * * * * * * * * * * * * * * * * * * * * * * * //

dimensions      [1 0 -3 -1 0 0 0];


internalField   uniform 0;

boundaryField
{
    leftWall
    {
        type            calculated;
        value           nonuniform List<scalar> 
216
(
-167.233
-169.682
-170.338
-172.803
-174.186
-176.714
-178.795
-181.423
-184.203
-186.986
-190.513
-193.525
-197.858
-201.149
-206.282
-209.806
-215.632
-219.281
-164.977
-167.255
-167.959
-170.272
-171.71
-174.108
-176.24
-178.741
-181.547
-184.162
-187.647
-190.406
-194.593
-197.542
-202.461
-205.667
-211.367
-214.952
-161.275
-163.256
-164
-166.029
-167.538
-169.7
-171.93
-174.242
-177.172
-179.64
-183.272
-185.925
-190.29
-193.212
-198.408
-201.768
-207.96
-211.975
-161.091
-163.234
-164.033
-166.231
-167.85
-170.193
-172.571
-175.066
-178.172
-180.822
-184.643
-187.478
-192.034
-195.137
-200.515
-204.035
-210.362
-214.45
-164.297
-166.622
-167.357
-169.719
-171.239
-173.715
-175.971
-178.582
-181.548
-184.306
-187.964
-190.889
-195.242
-198.391
-203.499
-207.002
-213.006
-217.053
-165.877
-168.127
-168.768
-171.043
-172.423
-174.781
-176.878
-179.377
-182.195
-184.893
-188.457
-191.415
-195.769
-199.063
-204.268
-207.992
-214.132
-218.404
-165.147
-167.269
-167.93
-170.09
-171.511
-173.754
-175.914
-178.296
-181.185
-183.769
-187.408
-190.259
-194.689
-197.878
-203.145
-206.732
-212.873
-216.922
-164.257
-166.288
-167.007
-169.085
-170.578
-172.762
-174.988
-177.306
-180.228
-182.699
-186.298
-188.945
-193.231
-196.111
-201.148
-204.383
-210.323
-214.13
-164.408
-166.676
-167.377
-169.63
-171.039
-173.327
-175.382
-177.717
-180.395
-182.805
-186.132
-188.694
-192.757
-195.607
-200.56
-203.896
-209.944
-213.988
-165.204
-167.641
-168.292
-170.69
-172.008
-174.414
-176.345
-178.778
-181.319
-183.82
-187.023
-189.682
-193.646
-196.593
-201.449
-204.837
-210.732
-214.722
-166.959
-169.13
-169.708
-171.865
-173.066
-175.281
-177.089
-179.401
-181.835
-184.285
-187.391
-190.04
-193.876
-196.792
-201.422
-204.685
-210.206
-213.96
-168.74
-170.762
-171.333
-173.331
-174.508
-176.579
-178.334
-180.521
-182.876
-185.211
-188.208
-190.746
-194.439
-197.26
-201.729
-204.943
-210.318
-214.083
)
;
    }
    rightWall
    {
        type            calculated;
        value           nonuniform List<scalar> 
216
(
-164.853
-166.669
-167.024
-168.896
-169.625
-171.611
-172.725
-174.85
-176.379
-178.675
-180.661
-183.163
-185.659
-188.423
-191.504
-194.619
-198.404
-201.996
-166.197
-168.016
-168.354
-170.239
-170.933
-172.919
-173.986
-176.088
-177.552
-179.799
-181.694
-184.128
-186.506
-189.192
-192.13
-195.162
-198.786
-202.296
-167.715
-169.688
-170.007
-172.049
-172.72
-174.839
-175.879
-178.084
-179.508
-181.82
-183.657
-186.116
-188.42
-191.092
-193.937
-196.906
-200.394
-203.772
-167.88
-169.772
-170.09
-172.051
-172.731
-174.781
-175.845
-178.006
-179.473
-181.767
-183.665
-186.131
-188.504
-191.193
-194.099
-197.062
-200.565
-203.863
-167.358
-169.194
-169.523
-171.404
-172.088
-174.061
-175.11
-177.201
-178.638
-180.874
-182.73
-185.149
-187.467
-190.106
-192.944
-195.843
-199.275
-202.499
-166.632
-168.628
-168.972
-170.988
-171.674
-173.768
-174.785
-176.973
-178.336
-180.632
-182.376
-184.813
-186.994
-189.616
-192.314
-195.192
-198.525
-201.779
-165.588
-167.665
-168.012
-170.114
-170.818
-173.006
-174.052
-176.342
-177.746
-180.154
-181.95
-184.503
-186.744
-189.485
-192.248
-195.247
-198.644
-202.012
-165.235
-167.237
-167.559
-169.599
-170.285
-172.41
-173.45
-175.683
-177.092
-179.454
-181.264
-183.784
-186.042
-188.762
-191.537
-194.523
-197.907
-201.248
-165.534
-167.45
-167.765
-169.747
-170.44
-172.524
-173.599
-175.812
-177.28
-179.639
-181.522
-184.052
-186.383
-189.117
-191.951
-194.946
-198.354
-201.691
-165.86
-167.785
-168.1
-170.119
-170.837
-172.988
-174.138
-176.459
-178.057
-180.575
-182.638
-185.371
-187.927
-190.89
-193.97
-197.189
-200.827
-204.342
-166.547
-168.539
-168.839
-170.904
-171.595
-173.767
-174.874
-177.193
-178.732
-181.23
-183.223
-185.919
-188.407
-191.318
-194.347
-197.506
-201.14
-204.604
-166.599
-168.671
-168.981
-171.097
-171.782
-173.969
-175.038
-177.322
-178.784
-181.191
-183.072
-185.627
-187.976
-190.711
-193.597
-196.57
-200.097
-203.415
)
;
    }
    leftSides_periodic0
    {
        type            cyclic;
    }
    leftSides_periodic1
    {
        type            cyclic;
    }
    rightSides_periodic0
    {
        type            cyclic;
    }
    rightSides_periodic1
    {
        type            cyclic;
    }
    leftInOut_periodic0
    {
        type            calculated;
        value           uniform 0;
    }
    leftInOut_periodic1
    {
        type            calculated;
        value           nonuniform 0();
    }
    rightInOut_periodic0
    {
        type            calculated;
        value           uniform 0;
    }
    rightInOut_periodic1
    {
        type            calculated;
        value           nonuniform 0();
    }
    procBoundary1to0
    {
        type            processor;
        value           uniform 0;
    }
    procBoundary1to2
    {
        type            processor;
        value           uniform 0;
    }
    procBoundary1to4
    {
        type            processor;
        value           uniform 0;
    }
}


// ************************************************************************* //
