/*--------------------------------*- C++ -*----------------------------------*\
| =========                 |                                                 |
| \\      /  F ield         | OpenFOAM: The Open Source CFD Toolbox           |
|  \\    /   O peration     | Version:  v1912                                 |
|   \\  /    A nd           | Website:  www.openfoam.com                      |
|    \\/     M anipulation  |                                                 |
\*---------------------------------------------------------------------------*/
FoamFile
{
    version     2.0;
    format      ascii;
    class       volScalarField;
    location    "10.8";
    object      k;
}
// * * * * * * * * * * * * * * * * * * * * * * * * * * * * * * * * * * * * * //

dimensions      [0 2 -2 0 0 0 0];


internalField   nonuniform List<scalar> 
34128
(
2.81622e-07
2.66362e-07
2.50381e-07
2.52035e-07
2.64779e-07
2.7373e-07
2.71438e-07
2.62945e-07
2.60463e-07
2.63477e-07
2.64942e-07
2.67515e-07
5.45706e-08
5.16617e-08
4.93789e-08
4.99239e-08
5.19804e-08
5.33481e-08
5.2824e-08
5.13485e-08
5.09236e-08
5.12232e-08
5.12242e-08
5.18737e-08
8.866e-08
8.42381e-08
8.48253e-08
8.68947e-08
8.80345e-08
8.83044e-08
8.70416e-08
8.55497e-08
8.51517e-08
8.4147e-08
8.26484e-08
8.44609e-08
2.69489e-07
2.5644e-07
2.61141e-07
2.68217e-07
2.70142e-07
2.69574e-07
2.6546e-07
2.61585e-07
2.60581e-07
2.56553e-07
2.51019e-07
2.56984e-07
6.63116e-07
6.31781e-07
6.45108e-07
6.62939e-07
6.66656e-07
6.64224e-07
6.5391e-07
6.44924e-07
6.42627e-07
6.32231e-07
6.18195e-07
6.33079e-07
1.35252e-06
1.29053e-06
1.3203e-06
1.35717e-06
1.36316e-06
1.3564e-06
1.33502e-06
1.31776e-06
1.31344e-06
1.29167e-06
1.26277e-06
1.29343e-06
2.41383e-06
2.30754e-06
2.36562e-06
2.43212e-06
2.43974e-06
2.42408e-06
2.38524e-06
2.35673e-06
2.34987e-06
2.31007e-06
2.25836e-06
2.31376e-06
3.89897e-06
3.73596e-06
3.83877e-06
3.94704e-06
3.95368e-06
3.92177e-06
3.85778e-06
3.81628e-06
3.80703e-06
3.74119e-06
3.65792e-06
3.74877e-06
5.81924e-06
5.59143e-06
5.75947e-06
5.92167e-06
5.92224e-06
5.86368e-06
5.76614e-06
5.7123e-06
5.70203e-06
5.60148e-06
5.4784e-06
5.61634e-06
8.13494e-06
7.84134e-06
8.09742e-06
8.32381e-06
8.3109e-06
8.21269e-06
8.07329e-06
8.01095e-06
8.00273e-06
7.85934e-06
7.69018e-06
7.88669e-06
1.0756e-05
1.04042e-05
1.07705e-05
1.10677e-05
1.10324e-05
1.08802e-05
1.06915e-05
1.0628e-05
1.06268e-05
1.04343e-05
1.02162e-05
1.04812e-05
1.35534e-05
1.31597e-05
1.36545e-05
1.40238e-05
1.39574e-05
1.37371e-05
1.34935e-05
1.3439e-05
1.34515e-05
1.32066e-05
1.29409e-05
1.32817e-05
1.63771e-05
1.59651e-05
1.65996e-05
1.70373e-05
1.69324e-05
1.66318e-05
1.633e-05
1.62966e-05
1.63305e-05
1.60336e-05
1.57264e-05
1.61464e-05
1.91113e-05
1.87027e-05
1.94813e-05
1.99825e-05
1.98363e-05
1.94461e-05
1.90826e-05
1.90803e-05
1.91422e-05
1.87959e-05
1.84546e-05
1.89561e-05
2.16951e-05
2.13132e-05
2.22354e-05
2.27932e-05
2.26045e-05
2.21177e-05
2.16902e-05
2.17287e-05
2.18251e-05
2.14335e-05
2.10675e-05
2.16509e-05
2.40795e-05
2.37478e-05
2.4808e-05
2.54131e-05
2.51833e-05
2.45956e-05
2.41033e-05
2.41913e-05
2.43277e-05
2.3897e-05
2.35169e-05
2.418e-05
2.62293e-05
2.59699e-05
2.71581e-05
2.77996e-05
2.75316e-05
2.68424e-05
2.6286e-05
2.64307e-05
2.66114e-05
2.61491e-05
2.57663e-05
2.65047e-05
2.81215e-05
2.79549e-05
2.9257e-05
2.99223e-05
2.96209e-05
2.88328e-05
2.82148e-05
2.84218e-05
2.865e-05
2.81644e-05
2.77907e-05
2.85977e-05
2.97445e-05
2.96885e-05
3.10874e-05
3.17628e-05
3.14335e-05
3.0553e-05
2.98778e-05
3.01508e-05
3.04283e-05
2.99283e-05
2.9575e-05
3.04417e-05
3.10956e-05
3.11654e-05
3.26417e-05
3.3312e-05
3.29615e-05
3.19981e-05
3.12721e-05
3.16133e-05
3.19404e-05
3.14355e-05
3.11128e-05
3.20281e-05
3.21794e-05
3.23873e-05
3.39204e-05
3.45694e-05
3.42041e-05
3.31706e-05
3.24022e-05
3.28122e-05
3.31884e-05
3.26876e-05
3.24049e-05
3.33555e-05
3.30056e-05
3.3361e-05
3.49294e-05
3.55401e-05
3.51664e-05
3.4078e-05
3.32777e-05
3.37563e-05
3.418e-05
3.36917e-05
3.34567e-05
3.44271e-05
3.35863e-05
3.40957e-05
3.56783e-05
3.62329e-05
3.58562e-05
3.47306e-05
3.3911e-05
3.4457e-05
3.49255e-05
3.44578e-05
3.42761e-05
3.52484e-05
3.39333e-05
3.4601e-05
3.61766e-05
3.66571e-05
3.62813e-05
3.51381e-05
3.4314e-05
3.49257e-05
3.54355e-05
3.49953e-05
3.48709e-05
3.58249e-05
3.40558e-05
3.48831e-05
3.64312e-05
3.68201e-05
3.64472e-05
3.53077e-05
3.44962e-05
3.51711e-05
3.57174e-05
3.5311e-05
3.52456e-05
3.6159e-05
3.3958e-05
3.49432e-05
3.64446e-05
3.6725e-05
3.63554e-05
3.52419e-05
3.44619e-05
3.51967e-05
3.57736e-05
3.54061e-05
3.53993e-05
3.62483e-05
3.36392e-05
3.47768e-05
3.62138e-05
3.63709e-05
3.6003e-05
3.49376e-05
3.42099e-05
3.50002e-05
3.55996e-05
3.52753e-05
3.53246e-05
3.60851e-05
3.30921e-05
3.43708e-05
3.57269e-05
3.57487e-05
3.53798e-05
3.43847e-05
3.37314e-05
3.45697e-05
3.51806e-05
3.4904e-05
3.50055e-05
3.56533e-05
3.22942e-05
3.36908e-05
3.49484e-05
3.483e-05
3.4456e-05
3.35541e-05
3.29992e-05
3.38702e-05
3.44761e-05
3.4254e-05
3.44036e-05
3.49154e-05
3.12119e-05
3.26906e-05
3.38336e-05
3.35794e-05
3.31969e-05
3.24078e-05
3.19723e-05
3.28534e-05
3.34347e-05
3.32747e-05
3.34675e-05
3.38268e-05
2.9841e-05
3.1361e-05
3.23799e-05
3.20039e-05
3.16112e-05
3.09455e-05
3.06407e-05
3.15093e-05
3.20492e-05
3.19542e-05
3.21832e-05
3.23847e-05
2.82306e-05
2.97599e-05
3.0653e-05
3.01697e-05
2.97648e-05
2.92256e-05
2.90557e-05
2.98964e-05
3.03842e-05
3.03512e-05
3.0607e-05
3.06531e-05
2.64027e-05
2.79066e-05
2.86793e-05
2.81116e-05
2.76951e-05
2.72768e-05
2.72343e-05
2.80322e-05
2.84614e-05
2.84834e-05
2.87551e-05
2.8663e-05
2.44106e-05
2.58572e-05
2.65184e-05
2.58932e-05
2.54679e-05
2.51588e-05
2.52289e-05
2.59714e-05
2.63386e-05
2.64076e-05
2.66861e-05
2.64783e-05
2.23203e-05
2.3682e-05
2.42431e-05
2.35887e-05
2.31592e-05
2.29434e-05
2.31064e-05
2.37833e-05
2.40888e-05
2.41957e-05
2.44728e-05
2.41763e-05
2.02003e-05
2.14552e-05
2.19285e-05
2.12716e-05
2.08443e-05
2.07043e-05
2.0937e-05
2.15418e-05
2.17887e-05
2.19237e-05
2.21922e-05
2.18359e-05
1.8115e-05
1.92474e-05
1.9645e-05
1.90093e-05
1.8592e-05
1.85102e-05
1.87888e-05
1.93181e-05
1.95117e-05
1.96649e-05
1.99189e-05
1.95305e-05
1.6121e-05
1.71215e-05
1.74541e-05
1.6859e-05
1.64599e-05
1.64205e-05
1.67224e-05
1.71763e-05
1.73234e-05
1.74851e-05
1.77196e-05
1.73239e-05
1.42639e-05
1.51292e-05
1.5406e-05
1.48653e-05
1.4493e-05
1.44828e-05
1.47881e-05
1.51698e-05
1.52778e-05
1.54389e-05
1.56499e-05
1.52669e-05
1.25777e-05
1.33096e-05
1.35377e-05
1.306e-05
1.27221e-05
1.27314e-05
1.30244e-05
1.33392e-05
1.34156e-05
1.35679e-05
1.37523e-05
1.33963e-05
1.10842e-05
1.16885e-05
1.18734e-05
1.14625e-05
1.11657e-05
1.11879e-05
1.14574e-05
1.17124e-05
1.17636e-05
1.19002e-05
1.20557e-05
1.17355e-05
9.79493e-06
1.02802e-05
1.04259e-05
1.00813e-05
9.83084e-06
9.86271e-06
1.01017e-05
1.0305e-05
1.03363e-05
1.04515e-05
1.05765e-05
1.02956e-05
8.71288e-06
9.08901e-06
9.19836e-06
8.91658e-06
8.71651e-06
8.7574e-06
8.96263e-06
9.12234e-06
9.13793e-06
9.22714e-06
9.32039e-06
9.07832e-06
7.83513e-06
8.11206e-06
8.18696e-06
7.96257e-06
7.81602e-06
7.86744e-06
8.03855e-06
8.16247e-06
8.16509e-06
8.22455e-06
8.28536e-06
8.07853e-06
7.15542e-06
7.34199e-06
7.38365e-06
7.21017e-06
7.11979e-06
7.18489e-06
7.32357e-06
7.41866e-06
7.40983e-06
7.43638e-06
7.46407e-06
7.28704e-06
6.66633e-06
6.76943e-06
6.77846e-06
6.64911e-06
6.61753e-06
6.7006e-06
6.80981e-06
6.88197e-06
6.8622e-06
6.85296e-06
6.84675e-06
6.69313e-06
6.3608e-06
6.38488e-06
6.36136e-06
6.26957e-06
6.29948e-06
6.4055e-06
6.48882e-06
6.54287e-06
6.512e-06
6.46432e-06
6.42322e-06
6.28636e-06
6.23084e-06
6.17929e-06
6.12313e-06
6.0626e-06
6.15525e-06
6.28899e-06
6.35052e-06
6.39056e-06
6.34841e-06
6.26072e-06
6.18387e-06
6.05728e-06
6.21753e-06
6.13442e-06
6.05096e-06
6.01176e-06
6.13878e-06
6.28553e-06
6.34098e-06
6.37874e-06
6.33206e-06
6.22198e-06
6.11519e-06
5.99144e-06
6.3069e-06
6.19143e-06
6.08175e-06
6.06056e-06
6.22392e-06
6.38469e-06
6.4369e-06
6.47243e-06
6.41964e-06
6.28696e-06
6.15183e-06
6.02859e-06
6.46358e-06
6.33038e-06
6.20252e-06
6.19444e-06
6.3792e-06
6.54141e-06
6.59469e-06
6.6271e-06
6.57152e-06
6.42913e-06
6.27708e-06
6.15769e-06
6.62973e-06
6.50523e-06
6.3782e-06
6.37615e-06
6.55073e-06
6.69647e-06
6.75321e-06
6.78324e-06
6.73079e-06
6.60086e-06
6.45564e-06
6.34827e-06
6.77125e-06
6.66521e-06
6.55501e-06
6.55372e-06
6.69967e-06
6.82725e-06
6.88642e-06
6.91422e-06
6.86579e-06
6.75462e-06
6.63217e-06
6.54437e-06
6.89192e-06
6.8003e-06
6.70701e-06
6.70552e-06
6.82657e-06
6.94015e-06
7.00079e-06
7.0266e-06
6.98178e-06
6.88678e-06
6.78587e-06
6.71778e-06
6.99836e-06
6.91804e-06
6.83991e-06
6.83785e-06
6.9382e-06
7.04072e-06
7.10198e-06
7.12592e-06
7.08453e-06
7.0038e-06
6.92251e-06
6.87309e-06
7.09467e-06
7.02352e-06
6.95903e-06
6.95616e-06
7.03894e-06
7.13219e-06
7.19317e-06
7.21525e-06
7.17729e-06
7.10954e-06
7.0464e-06
7.01472e-06
7.1831e-06
7.11965e-06
7.06745e-06
7.06364e-06
7.13124e-06
7.21623e-06
7.27592e-06
7.29603e-06
7.26161e-06
7.20592e-06
7.15974e-06
7.14487e-06
7.26466e-06
7.20783e-06
7.16667e-06
7.16198e-06
7.21631e-06
7.29347e-06
7.3508e-06
7.36878e-06
7.33804e-06
7.29369e-06
7.26342e-06
7.26432e-06
7.33969e-06
7.28863e-06
7.25733e-06
7.25193e-06
7.29462e-06
7.36406e-06
7.41794e-06
7.43358e-06
7.40668e-06
7.37303e-06
7.35759e-06
7.37313e-06
7.40821e-06
7.36221e-06
7.33963e-06
7.33378e-06
7.36629e-06
7.42795e-06
7.47734e-06
7.49048e-06
7.46752e-06
7.44391e-06
7.4422e-06
7.47109e-06
7.47014e-06
7.42858e-06
7.41364e-06
7.40768e-06
7.43133e-06
7.4851e-06
7.52904e-06
7.53955e-06
7.52061e-06
7.50634e-06
7.5172e-06
7.55808e-06
7.52544e-06
7.48777e-06
7.47947e-06
7.47374e-06
7.48976e-06
7.5355e-06
7.57321e-06
7.58103e-06
7.56612e-06
7.56046e-06
7.58266e-06
7.63411e-06
7.57413e-06
7.53988e-06
7.53733e-06
7.53217e-06
7.54165e-06
7.57929e-06
7.61012e-06
7.61529e-06
7.60438e-06
7.60656e-06
7.63888e-06
7.69943e-06
7.61631e-06
7.5851e-06
7.58751e-06
7.58323e-06
7.58715e-06
7.61666e-06
7.6402e-06
7.64282e-06
7.63583e-06
7.64506e-06
7.68626e-06
7.75448e-06
7.65217e-06
7.6237e-06
7.63038e-06
7.62726e-06
7.62648e-06
7.64793e-06
7.66392e-06
7.66421e-06
7.66102e-06
7.67651e-06
7.7254e-06
7.79985e-06
7.68196e-06
7.65603e-06
7.66641e-06
7.66466e-06
7.65993e-06
7.67347e-06
7.68189e-06
7.68014e-06
7.68061e-06
7.70157e-06
7.75696e-06
7.83626e-06
7.70602e-06
7.68248e-06
7.69609e-06
7.69589e-06
7.68785e-06
7.69375e-06
7.69478e-06
7.69136e-06
7.69532e-06
7.72095e-06
7.78171e-06
7.86452e-06
7.72478e-06
7.70353e-06
7.72e-06
7.72144e-06
7.71067e-06
7.7093e-06
7.70332e-06
7.6987e-06
7.70595e-06
7.73547e-06
7.80049e-06
7.88549e-06
7.73872e-06
7.71973e-06
7.73874e-06
7.74188e-06
7.72888e-06
7.72075e-06
7.70835e-06
7.70304e-06
7.71334e-06
7.74597e-06
7.81418e-06
7.90009e-06
7.74842e-06
7.73166e-06
7.75297e-06
7.75781e-06
7.74302e-06
7.7288e-06
7.71076e-06
7.7053e-06
7.71839e-06
7.75337e-06
7.82373e-06
7.9093e-06
7.75455e-06
7.74e-06
7.76341e-06
7.7699e-06
7.75374e-06
7.73423e-06
7.71149e-06
7.70644e-06
7.72203e-06
7.7586e-06
7.8301e-06
7.91412e-06
7.75783e-06
7.74547e-06
7.77083e-06
7.77887e-06
7.76173e-06
7.73789e-06
7.71154e-06
7.70744e-06
7.72519e-06
7.76264e-06
7.8343e-06
7.91555e-06
7.7591e-06
7.74888e-06
7.77605e-06
7.78552e-06
7.76779e-06
7.74072e-06
7.71195e-06
7.70929e-06
7.72882e-06
7.76645e-06
7.83731e-06
7.91465e-06
7.75923e-06
7.75108e-06
7.77995e-06
7.79068e-06
7.77275e-06
7.74367e-06
7.71375e-06
7.71292e-06
7.7338e-06
7.77094e-06
7.84012e-06
7.91242e-06
7.75913e-06
7.75295e-06
7.78341e-06
7.79524e-06
7.77749e-06
7.74773e-06
7.71794e-06
7.71922e-06
7.74097e-06
7.77701e-06
7.84366e-06
7.90985e-06
7.75976e-06
7.75543e-06
7.78737e-06
7.80009e-06
7.78294e-06
7.75389e-06
7.72547e-06
7.72899e-06
7.75107e-06
7.78544e-06
7.84879e-06
7.9079e-06
7.76207e-06
7.75945e-06
7.79273e-06
7.80613e-06
7.79e-06
7.76309e-06
7.73719e-06
7.7429e-06
7.76471e-06
7.79691e-06
7.85628e-06
7.90741e-06
7.76696e-06
7.76592e-06
7.80039e-06
7.81426e-06
7.79954e-06
7.77617e-06
7.75379e-06
7.76144e-06
7.78236e-06
7.81196e-06
7.86676e-06
7.90914e-06
7.77526e-06
7.7757e-06
7.81115e-06
7.82527e-06
7.81236e-06
7.79385e-06
7.77576e-06
7.78493e-06
7.80427e-06
7.83093e-06
7.8807e-06
7.91374e-06
3.02387e-07
2.85066e-07
2.70068e-07
2.7375e-07
2.86401e-07
2.94051e-07
2.90813e-07
2.82034e-07
2.79661e-07
2.82139e-07
2.82567e-07
2.8652e-07
5.58613e-08
5.29489e-08
5.10094e-08
5.19404e-08
5.38949e-08
5.47815e-08
5.40003e-08
5.26597e-08
5.23572e-08
5.25657e-08
5.24711e-08
5.34547e-08
7.66447e-08
7.42604e-08
7.61845e-08
7.88351e-08
7.93816e-08
7.76951e-08
7.56337e-08
7.53429e-08
7.56632e-08
7.45764e-08
7.34762e-08
7.61803e-08
2.24245e-07
2.18627e-07
2.27778e-07
2.36543e-07
2.36462e-07
2.29294e-07
2.22515e-07
2.22865e-07
2.24357e-07
2.20145e-07
2.16206e-07
2.25088e-07
5.48765e-07
5.36057e-07
5.60147e-07
5.81943e-07
5.8086e-07
5.6221e-07
5.4525e-07
5.46744e-07
5.50674e-07
5.39941e-07
5.30089e-07
5.52169e-07
1.11769e-06
1.09366e-06
1.14449e-06
1.18894e-06
1.18572e-06
1.1465e-06
1.11152e-06
1.11539e-06
1.12377e-06
1.10162e-06
1.08164e-06
1.12683e-06
1.99313e-06
1.95418e-06
2.04769e-06
2.12661e-06
2.11912e-06
2.04714e-06
1.98403e-06
1.99253e-06
2.0083e-06
1.96847e-06
1.93342e-06
2.01427e-06
3.217e-06
3.16174e-06
3.31743e-06
3.44353e-06
3.42846e-06
3.30888e-06
3.20586e-06
3.22267e-06
3.24981e-06
3.18526e-06
3.13015e-06
3.261e-06
4.7974e-06
4.72835e-06
4.96759e-06
5.15252e-06
5.12545e-06
4.94205e-06
4.78679e-06
4.81726e-06
4.86093e-06
4.76466e-06
4.6855e-06
4.88094e-06
6.70033e-06
6.62507e-06
6.96829e-06
7.22033e-06
7.1764e-06
6.91351e-06
6.69462e-06
6.74568e-06
6.81205e-06
6.67835e-06
6.57324e-06
6.8462e-06
8.85057e-06
8.78181e-06
9.24502e-06
9.56709e-06
9.50215e-06
9.147e-06
8.85558e-06
8.93523e-06
9.03106e-06
8.85668e-06
8.72665e-06
9.0864e-06
1.11414e-05
1.10961e-05
1.16875e-05
1.20761e-05
1.1988e-05
1.15329e-05
1.11638e-05
1.12802e-05
1.14121e-05
1.11972e-05
1.10466e-05
1.14971e-05
1.34495e-05
1.3447e-05
1.41651e-05
1.46101e-05
1.44998e-05
1.39434e-05
1.34962e-05
1.36567e-05
1.38299e-05
1.35785e-05
1.34149e-05
1.39538e-05
1.56863e-05
1.57415e-05
1.65767e-05
1.70672e-05
1.69397e-05
1.62858e-05
1.5761e-05
1.59696e-05
1.61877e-05
1.5905e-05
1.57363e-05
1.63589e-05
1.78031e-05
1.79303e-05
1.88677e-05
1.93902e-05
1.92525e-05
1.85089e-05
1.79095e-05
1.8169e-05
1.84343e-05
1.81272e-05
1.7962e-05
1.86602e-05
1.97618e-05
1.99733e-05
2.09932e-05
2.15318e-05
2.13928e-05
2.05715e-05
1.9903e-05
2.02146e-05
2.05279e-05
2.02045e-05
2.00517e-05
2.0814e-05
2.15347e-05
2.18405e-05
2.29194e-05
2.3457e-05
2.33266e-05
2.24432e-05
2.17139e-05
2.20772e-05
2.24374e-05
2.21067e-05
2.19749e-05
2.27863e-05
2.31041e-05
2.35115e-05
2.46236e-05
2.51421e-05
2.50302e-05
2.41038e-05
2.33242e-05
2.37376e-05
2.41422e-05
2.38132e-05
2.37102e-05
2.45528e-05
2.44608e-05
2.49744e-05
2.60927e-05
2.65735e-05
2.64895e-05
2.55416e-05
2.4725e-05
2.51855e-05
2.56307e-05
2.53121e-05
2.52442e-05
2.60973e-05
2.56021e-05
2.6224e-05
2.73221e-05
2.77464e-05
2.76983e-05
2.67523e-05
2.59138e-05
2.6418e-05
2.68988e-05
2.65988e-05
2.65702e-05
2.74109e-05
2.65308e-05
2.72609e-05
2.83138e-05
2.86637e-05
2.86569e-05
2.77369e-05
2.68938e-05
2.74381e-05
2.79487e-05
2.76742e-05
2.7687e-05
2.84905e-05
2.72526e-05
2.80894e-05
2.90751e-05
2.93333e-05
2.93704e-05
2.85005e-05
2.76718e-05
2.82526e-05
2.87867e-05
2.8543e-05
2.85969e-05
2.93376e-05
2.77752e-05
2.87159e-05
2.96159e-05
2.97665e-05
2.98468e-05
2.905e-05
2.82559e-05
2.88705e-05
2.94209e-05
2.92118e-05
2.9304e-05
2.9956e-05
2.81054e-05
2.91462e-05
2.99467e-05
2.99756e-05
3.0095e-05
2.93919e-05
2.86539e-05
2.93e-05
2.98588e-05
2.96862e-05
2.98121e-05
3.03502e-05
2.82481e-05
2.93837e-05
3.00761e-05
2.99713e-05
3.01223e-05
2.95303e-05
2.88706e-05
2.95463e-05
3.01047e-05
2.99692e-05
3.01222e-05
3.05233e-05
2.82047e-05
2.94281e-05
3.00093e-05
2.97621e-05
2.99337e-05
2.9466e-05
2.89066e-05
2.961e-05
3.01582e-05
3.00589e-05
3.02318e-05
3.04754e-05
2.79729e-05
2.92753e-05
2.97472e-05
2.93532e-05
2.95314e-05
2.91963e-05
2.87574e-05
2.9486e-05
3.00137e-05
2.9949e-05
3.01338e-05
3.0204e-05
2.75464e-05
2.8915e-05
2.92852e-05
2.87465e-05
2.8914e-05
2.87135e-05
2.84123e-05
2.91612e-05
2.96574e-05
2.96257e-05
2.98154e-05
2.97032e-05
2.69089e-05
2.83215e-05
2.86035e-05
2.79332e-05
2.80695e-05
2.79968e-05
2.78446e-05
2.86024e-05
2.90551e-05
2.90576e-05
2.92482e-05
2.89581e-05
2.6038e-05
2.74629e-05
2.76744e-05
2.68976e-05
2.69824e-05
2.7021e-05
2.70198e-05
2.77692e-05
2.81676e-05
2.82064e-05
2.83964e-05
2.79495e-05
2.49336e-05
2.63376e-05
2.6498e-05
2.56461e-05
2.56641e-05
2.57922e-05
2.59331e-05
2.66577e-05
2.69949e-05
2.7069e-05
2.72563e-05
2.6684e-05
2.36348e-05
2.49949e-05
2.51231e-05
2.42228e-05
2.41632e-05
2.43601e-05
2.46311e-05
2.53206e-05
2.55934e-05
2.56975e-05
2.58787e-05
2.52082e-05
2.21541e-05
2.34471e-05
2.356e-05
2.2642e-05
2.25032e-05
2.27448e-05
2.31229e-05
2.37672e-05
2.39778e-05
2.41056e-05
2.42781e-05
2.35453e-05
2.05348e-05
2.1741e-05
2.18519e-05
2.09461e-05
2.07332e-05
2.0996e-05
2.1453e-05
2.2044e-05
2.21974e-05
2.23421e-05
2.25047e-05
2.17472e-05
1.88324e-05
1.99363e-05
2.00543e-05
1.91871e-05
1.89109e-05
1.91741e-05
1.96802e-05
2.0212e-05
2.03156e-05
2.04706e-05
2.06225e-05
1.98754e-05
1.7105e-05
1.80959e-05
1.82255e-05
1.74186e-05
1.70941e-05
1.73413e-05
1.78677e-05
1.83368e-05
1.83993e-05
1.85579e-05
1.86986e-05
1.79922e-05
1.54077e-05
1.62797e-05
1.64213e-05
1.56907e-05
1.53355e-05
1.55555e-05
1.60764e-05
1.64822e-05
1.65126e-05
1.66684e-05
1.67972e-05
1.61542e-05
1.37887e-05
1.45407e-05
1.46911e-05
1.40465e-05
1.36792e-05
1.38664e-05
1.43609e-05
1.47051e-05
1.47119e-05
1.4859e-05
1.49748e-05
1.44096e-05
1.22868e-05
1.29217e-05
1.30752e-05
1.2521e-05
1.21596e-05
1.2313e-05
1.2766e-05
1.30525e-05
1.30429e-05
1.31759e-05
1.3277e-05
1.27959e-05
1.09306e-05
1.14542e-05
1.16042e-05
1.11395e-05
1.08003e-05
1.09229e-05
1.13251e-05
1.15593e-05
1.15389e-05
1.16533e-05
1.17377e-05
1.13392e-05
9.73872e-06
1.0159e-05
1.02985e-05
9.91909e-06
9.61551e-06
9.71323e-06
1.00605e-05
1.02487e-05
1.02212e-05
1.03131e-05
1.03788e-05
1.00557e-05
8.72104e-06
9.04707e-06
9.16971e-06
8.86869e-06
8.61147e-06
8.69191e-06
8.98438e-06
9.13302e-06
9.10068e-06
9.16709e-06
9.21186e-06
8.95284e-06
7.88099e-06
8.12178e-06
8.22244e-06
7.99151e-06
7.78879e-06
7.86052e-06
8.10114e-06
8.21657e-06
8.18e-06
8.21833e-06
8.23995e-06
8.03153e-06
7.21779e-06
7.38153e-06
7.45626e-06
7.28673e-06
7.14471e-06
7.21663e-06
7.41029e-06
7.49812e-06
7.45671e-06
7.46452e-06
7.46068e-06
7.28858e-06
6.72884e-06
6.82208e-06
6.86806e-06
6.7515e-06
6.67547e-06
6.75634e-06
6.90908e-06
6.97401e-06
6.92595e-06
6.9005e-06
6.86863e-06
6.71883e-06
6.41187e-06
6.43877e-06
6.45409e-06
6.38279e-06
6.37841e-06
6.47626e-06
6.59489e-06
6.6405e-06
6.58295e-06
6.52071e-06
6.45778e-06
6.31712e-06
6.26505e-06
6.22788e-06
6.21144e-06
6.17852e-06
6.25181e-06
6.37165e-06
6.46455e-06
6.49383e-06
6.42361e-06
6.32068e-06
6.22312e-06
6.0795e-06
6.24241e-06
6.17692e-06
6.13393e-06
6.12718e-06
6.2378e-06
6.37317e-06
6.45133e-06
6.47747e-06
6.40487e-06
6.28322e-06
6.15544e-06
5.9982e-06
6.32386e-06
6.22496e-06
6.15366e-06
6.17069e-06
6.32899e-06
6.47873e-06
6.54508e-06
6.56739e-06
6.49064e-06
6.34802e-06
6.18722e-06
6.00793e-06
6.48196e-06
6.36269e-06
6.27129e-06
6.30758e-06
6.49912e-06
6.64551e-06
6.70886e-06
6.72814e-06
6.64917e-06
6.49682e-06
6.31304e-06
6.11268e-06
6.65803e-06
6.54593e-06
6.45429e-06
6.49842e-06
6.6786e-06
6.80607e-06
6.8728e-06
6.88961e-06
6.81372e-06
6.67479e-06
6.49808e-06
6.29518e-06
6.80627e-06
6.71367e-06
6.63954e-06
6.68135e-06
6.82574e-06
6.93422e-06
7.00355e-06
7.01909e-06
6.94762e-06
6.82748e-06
6.67889e-06
6.50414e-06
6.93039e-06
6.85355e-06
6.79643e-06
6.83339e-06
6.94677e-06
7.04044e-06
7.11105e-06
7.12665e-06
7.05978e-06
6.95508e-06
6.83197e-06
6.69192e-06
7.03959e-06
6.97564e-06
6.9335e-06
6.96434e-06
7.0513e-06
7.13303e-06
7.20398e-06
7.2205e-06
7.15833e-06
7.06673e-06
6.96594e-06
6.85745e-06
7.13918e-06
7.08619e-06
7.0574e-06
7.08119e-06
7.14504e-06
7.21667e-06
7.28721e-06
7.30506e-06
7.24762e-06
7.16753e-06
7.08673e-06
7.00701e-06
7.23175e-06
7.18829e-06
7.17141e-06
7.18764e-06
7.23089e-06
7.29355e-06
7.36301e-06
7.38222e-06
7.3295e-06
7.25987e-06
7.19731e-06
7.14395e-06
7.31819e-06
7.28307e-06
7.27668e-06
7.28527e-06
7.31008e-06
7.36441e-06
7.43206e-06
7.45239e-06
7.40436e-06
7.3445e-06
7.2988e-06
7.26967e-06
7.39852e-06
7.37063e-06
7.37334e-06
7.3746e-06
7.38295e-06
7.42928e-06
7.49434e-06
7.51538e-06
7.472e-06
7.42142e-06
7.39141e-06
7.38454e-06
7.47243e-06
7.45068e-06
7.46111e-06
7.45566e-06
7.44945e-06
7.48794e-06
7.54958e-06
7.57081e-06
7.53208e-06
7.49038e-06
7.47502e-06
7.48851e-06
7.53956e-06
7.52285e-06
7.53971e-06
7.5284e-06
7.5095e-06
7.5402e-06
7.59756e-06
7.61846e-06
7.58433e-06
7.55123e-06
7.54952e-06
7.58149e-06
7.59965e-06
7.58694e-06
7.60904e-06
7.59285e-06
7.56304e-06
7.58595e-06
7.63821e-06
7.65826e-06
7.62873e-06
7.60396e-06
7.61496e-06
7.66352e-06
7.65256e-06
7.6429e-06
7.66921e-06
7.64917e-06
7.61012e-06
7.62523e-06
7.67162e-06
7.69038e-06
7.66543e-06
7.64874e-06
7.67155e-06
7.73486e-06
7.69829e-06
7.69086e-06
7.7205e-06
7.69765e-06
7.6509e-06
7.65822e-06
7.69804e-06
7.71513e-06
7.69476e-06
7.68592e-06
7.71971e-06
7.79596e-06
7.73695e-06
7.73106e-06
7.76332e-06
7.73866e-06
7.68561e-06
7.68516e-06
7.71785e-06
7.73299e-06
7.7172e-06
7.71599e-06
7.75996e-06
7.84743e-06
7.76875e-06
7.76385e-06
7.79818e-06
7.77265e-06
7.71455e-06
7.70642e-06
7.73152e-06
7.74457e-06
7.73333e-06
7.73953e-06
7.79294e-06
7.88997e-06
7.79399e-06
7.78968e-06
7.82569e-06
7.80012e-06
7.73809e-06
7.72242e-06
7.73966e-06
7.75055e-06
7.74387e-06
7.75722e-06
7.81936e-06
7.92439e-06
7.81305e-06
7.80907e-06
7.84647e-06
7.82163e-06
7.75665e-06
7.73365e-06
7.74294e-06
7.75175e-06
7.74958e-06
7.76983e-06
7.84e-06
7.95154e-06
7.8264e-06
7.82258e-06
7.86123e-06
7.83779e-06
7.77073e-06
7.74072e-06
7.74213e-06
7.74903e-06
7.75133e-06
7.77818e-06
7.85569e-06
7.97232e-06
7.83462e-06
7.8309e-06
7.87074e-06
7.84926e-06
7.78088e-06
7.74429e-06
7.73808e-06
7.74336e-06
7.75004e-06
7.78316e-06
7.8673e-06
7.98764e-06
7.83835e-06
7.83475e-06
7.8758e-06
7.85675e-06
7.78774e-06
7.7451e-06
7.73175e-06
7.73576e-06
7.74671e-06
7.78571e-06
7.87573e-06
7.99843e-06
7.83836e-06
7.83494e-06
7.87729e-06
7.86105e-06
7.792e-06
7.74397e-06
7.72414e-06
7.7273e-06
7.74236e-06
7.78679e-06
7.88191e-06
8.00563e-06
7.8355e-06
7.83236e-06
7.87615e-06
7.86299e-06
7.79444e-06
7.74182e-06
7.71632e-06
7.71907e-06
7.73801e-06
7.78737e-06
7.88677e-06
8.01014e-06
7.83067e-06
7.82795e-06
7.87334e-06
7.86346e-06
7.79587e-06
7.73957e-06
7.70939e-06
7.71219e-06
7.73471e-06
7.78845e-06
7.89121e-06
8.01288e-06
7.82486e-06
7.82271e-06
7.86987e-06
7.86336e-06
7.79715e-06
7.73823e-06
7.70445e-06
7.70771e-06
7.73345e-06
7.79095e-06
7.89611e-06
8.01468e-06
7.8191e-06
7.81766e-06
7.86676e-06
7.86362e-06
7.79918e-06
7.73878e-06
7.7026e-06
7.70665e-06
7.73517e-06
7.79575e-06
7.90228e-06
8.01635e-06
7.8144e-06
7.81385e-06
7.86498e-06
7.86516e-06
7.80284e-06
7.74223e-06
7.70486e-06
7.70996e-06
7.74072e-06
7.80364e-06
7.91044e-06
8.0186e-06
7.81177e-06
7.81227e-06
7.86551e-06
7.86887e-06
7.80902e-06
7.74952e-06
7.71216e-06
7.71844e-06
7.75082e-06
7.81532e-06
7.92123e-06
8.02208e-06
7.81216e-06
7.81389e-06
7.86922e-06
7.87558e-06
7.81854e-06
7.76153e-06
7.72532e-06
7.73275e-06
7.76607e-06
7.83131e-06
7.93517e-06
8.02736e-06
7.81642e-06
7.81957e-06
7.87688e-06
7.88603e-06
7.83215e-06
7.77898e-06
7.74495e-06
7.75338e-06
7.78686e-06
7.85203e-06
7.95264e-06
8.03492e-06
3.05432e-07
2.88447e-07
2.73579e-07
2.77458e-07
2.90102e-07
2.97148e-07
2.93445e-07
2.85028e-07
2.82949e-07
2.85241e-07
2.85594e-07
2.89812e-07
5.6766e-08
5.3851e-08
5.173e-08
5.25991e-08
5.4694e-08
5.56393e-08
5.47682e-08
5.33894e-08
5.31104e-08
5.3348e-08
5.32905e-08
5.42449e-08
7.97209e-08
7.69814e-08
7.75414e-08
7.95714e-08
8.10826e-08
8.04071e-08
7.82031e-08
7.72886e-08
7.74741e-08
7.67715e-08
7.59976e-08
7.82295e-08
2.34573e-07
2.2764e-07
2.31977e-07
2.38526e-07
2.41841e-07
2.38345e-07
2.31157e-07
2.29257e-07
2.3023e-07
2.27393e-07
2.24592e-07
2.31742e-07
5.74502e-07
5.58416e-07
5.70398e-07
5.86602e-07
5.94067e-07
5.84766e-07
5.66884e-07
5.627e-07
5.65305e-07
5.58023e-07
5.50953e-07
5.68554e-07
1.17033e-06
1.13919e-06
1.16514e-06
1.19806e-06
1.21241e-06
1.19267e-06
1.15604e-06
1.14823e-06
1.15385e-06
1.13875e-06
1.12427e-06
1.15995e-06
2.08714e-06
2.03508e-06
2.08398e-06
2.14215e-06
2.16619e-06
2.12967e-06
2.06418e-06
2.0517e-06
2.06244e-06
2.03515e-06
2.00948e-06
2.07257e-06
3.36881e-06
3.29167e-06
3.37507e-06
3.46741e-06
3.50338e-06
3.4423e-06
3.33652e-06
3.31933e-06
3.33811e-06
3.29363e-06
3.25278e-06
3.3535e-06
5.02377e-06
4.92093e-06
5.05218e-06
5.18646e-06
5.23545e-06
5.14116e-06
4.98379e-06
4.96346e-06
4.99418e-06
4.92742e-06
4.86795e-06
5.01602e-06
7.01645e-06
6.89224e-06
7.08478e-06
7.26584e-06
7.32756e-06
7.1917e-06
6.97313e-06
6.95333e-06
7.00074e-06
6.90739e-06
6.82716e-06
7.0302e-06
9.26828e-06
9.13234e-06
9.39743e-06
9.62587e-06
9.6988e-06
9.51458e-06
9.22853e-06
9.215e-06
9.28429e-06
9.16164e-06
9.0605e-06
9.32252e-06
1.1668e-05
1.15345e-05
1.1879e-05
1.21505e-05
1.22325e-05
1.19959e-05
1.16406e-05
1.16406e-05
1.17367e-05
1.15844e-05
1.14644e-05
1.17848e-05
1.40873e-05
1.39735e-05
1.43979e-05
1.47039e-05
1.47923e-05
1.45033e-05
1.40818e-05
1.41033e-05
1.42301e-05
1.40502e-05
1.39159e-05
1.4289e-05
1.64336e-05
1.63527e-05
1.68524e-05
1.71842e-05
1.72796e-05
1.6941e-05
1.64575e-05
1.65062e-05
1.66658e-05
1.64612e-05
1.63162e-05
1.67342e-05
1.86561e-05
1.86212e-05
1.91883e-05
1.95355e-05
1.96386e-05
1.92559e-05
1.87168e-05
1.87979e-05
1.89914e-05
1.87657e-05
1.86141e-05
1.90664e-05
2.07144e-05
2.07373e-05
2.13612e-05
2.17126e-05
2.18241e-05
2.14047e-05
2.08188e-05
2.09367e-05
2.11637e-05
2.09209e-05
2.0767e-05
2.12409e-05
2.25793e-05
2.26698e-05
2.33381e-05
2.36819e-05
2.38023e-05
2.33554e-05
2.27335e-05
2.28914e-05
2.315e-05
2.28949e-05
2.27421e-05
2.32232e-05
2.42311e-05
2.43971e-05
2.50969e-05
2.54211e-05
2.555e-05
2.50862e-05
2.44408e-05
2.46412e-05
2.49282e-05
2.46651e-05
2.45164e-05
2.49889e-05
2.56592e-05
2.59068e-05
2.66252e-05
2.69177e-05
2.70538e-05
2.65843e-05
2.59293e-05
2.61737e-05
2.64849e-05
2.62179e-05
2.60751e-05
2.65226e-05
2.68597e-05
2.71933e-05
2.79185e-05
2.81675e-05
2.8308e-05
2.78441e-05
2.71946e-05
2.7484e-05
2.78145e-05
2.7547e-05
2.74106e-05
2.78163e-05
2.78342e-05
2.82569e-05
2.89789e-05
2.91727e-05
2.93137e-05
2.88661e-05
2.82376e-05
2.8573e-05
2.89172e-05
2.86519e-05
2.85213e-05
2.88685e-05
2.85878e-05
2.91021e-05
2.9813e-05
2.99406e-05
3.00761e-05
2.96549e-05
2.90633e-05
2.94454e-05
2.97977e-05
2.9536e-05
2.94098e-05
2.96823e-05
2.91276e-05
2.97354e-05
3.04298e-05
3.04805e-05
3.06032e-05
3.02172e-05
2.96779e-05
3.01078e-05
3.04623e-05
3.02051e-05
3.00814e-05
3.02637e-05
2.94603e-05
3.01628e-05
3.08377e-05
3.08023e-05
3.09029e-05
3.05594e-05
3.00875e-05
3.0566e-05
3.09172e-05
3.06648e-05
3.05414e-05
3.06192e-05
2.95905e-05
3.0388e-05
3.1043e-05
3.09135e-05
3.09813e-05
3.06856e-05
3.02955e-05
3.08233e-05
3.11653e-05
3.09182e-05
3.07928e-05
3.07541e-05
2.95197e-05
3.04107e-05
3.10476e-05
3.08184e-05
3.08417e-05
3.05965e-05
3.03012e-05
3.08779e-05
3.12052e-05
3.0964e-05
3.08349e-05
3.0671e-05
2.92457e-05
3.02268e-05
3.08488e-05
3.05175e-05
3.04842e-05
3.02896e-05
3.00995e-05
3.07235e-05
3.10307e-05
3.07967e-05
3.0663e-05
3.03701e-05
2.87631e-05
2.98264e-05
3.0438e-05
3.00063e-05
2.99048e-05
2.97582e-05
2.96801e-05
3.03465e-05
3.06285e-05
3.04045e-05
3.02673e-05
2.98484e-05
2.80578e-05
2.91868e-05
2.97905e-05
2.92679e-05
2.90882e-05
2.89837e-05
2.90195e-05
2.97163e-05
2.99679e-05
2.97599e-05
2.96243e-05
2.9095e-05
2.71102e-05
2.82782e-05
2.88735e-05
2.82776e-05
2.80149e-05
2.79441e-05
2.80881e-05
2.8797e-05
2.90137e-05
2.88296e-05
2.87034e-05
2.8093e-05
2.5922e-05
2.70993e-05
2.76838e-05
2.70362e-05
2.66928e-05
2.66468e-05
2.68863e-05
2.75884e-05
2.77683e-05
2.76132e-05
2.75032e-05
2.68456e-05
2.45315e-05
2.5697e-05
2.62699e-05
2.55883e-05
2.5169e-05
2.51399e-05
2.54614e-05
2.61438e-05
2.62872e-05
2.6163e-05
2.60727e-05
2.53939e-05
2.29569e-05
2.40881e-05
2.46454e-05
2.39508e-05
2.34683e-05
2.34489e-05
2.38332e-05
2.44827e-05
2.45923e-05
2.44988e-05
2.44303e-05
2.37578e-05
2.12457e-05
2.23215e-05
2.28578e-05
2.21709e-05
2.16425e-05
2.16268e-05
2.20523e-05
2.26577e-05
2.2737e-05
2.26726e-05
2.26268e-05
2.1986e-05
1.94563e-05
2.04587e-05
2.09676e-05
2.03071e-05
1.97525e-05
1.97365e-05
2.0182e-05
2.07342e-05
2.07877e-05
2.07492e-05
2.07256e-05
2.01373e-05
1.76488e-05
1.85638e-05
1.90386e-05
1.84201e-05
1.78599e-05
1.78416e-05
1.82874e-05
1.87805e-05
1.88128e-05
1.8796e-05
1.87924e-05
1.82712e-05
1.58793e-05
1.66973e-05
1.71316e-05
1.65672e-05
1.60211e-05
1.60003e-05
1.64299e-05
1.68608e-05
1.68763e-05
1.68763e-05
1.68892e-05
1.64431e-05
1.41963e-05
1.4912e-05
1.53008e-05
1.47985e-05
1.42842e-05
1.4262e-05
1.46627e-05
1.50312e-05
1.50339e-05
1.50452e-05
1.50701e-05
1.47005e-05
1.26385e-05
1.32508e-05
1.35904e-05
1.31546e-05
1.26865e-05
1.2665e-05
1.30279e-05
1.33366e-05
1.33298e-05
1.3347e-05
1.33788e-05
1.30815e-05
1.12339e-05
1.17451e-05
1.20341e-05
1.16659e-05
1.12546e-05
1.1236e-05
1.15559e-05
1.18094e-05
1.17957e-05
1.18138e-05
1.18473e-05
1.16138e-05
1.00002e-05
1.04155e-05
1.06542e-05
1.03521e-05
1.00045e-05
9.99109e-06
1.02658e-05
1.047e-05
1.04515e-05
1.04661e-05
1.04964e-05
1.03154e-05
8.94683e-06
9.27304e-06
9.46351e-06
9.22422e-06
8.94403e-06
8.9375e-06
9.16699e-06
9.32849e-06
9.30701e-06
9.3144e-06
9.33686e-06
9.19594e-06
8.07616e-06
8.32106e-06
8.46678e-06
8.28581e-06
8.07396e-06
8.07567e-06
8.26131e-06
8.387e-06
8.36399e-06
8.36123e-06
8.37194e-06
8.25827e-06
7.38611e-06
7.55773e-06
7.663e-06
7.53529e-06
7.39083e-06
7.40164e-06
7.54536e-06
7.64195e-06
7.61883e-06
7.60376e-06
7.5993e-06
7.50072e-06
6.87194e-06
6.97802e-06
7.04765e-06
6.96792e-06
6.88847e-06
6.90904e-06
7.01282e-06
7.08658e-06
7.0648e-06
7.03603e-06
7.01351e-06
6.9189e-06
6.52777e-06
6.57554e-06
6.61452e-06
6.57729e-06
6.55931e-06
6.59036e-06
6.65624e-06
6.71289e-06
6.69371e-06
6.65068e-06
6.60775e-06
6.50733e-06
6.34718e-06
6.34348e-06
6.35684e-06
6.35615e-06
6.39463e-06