/*--------------------------------*- C++ -*----------------------------------*\
| =========                 |                                                 |
| \\      /  F ield         | OpenFOAM: The Open Source CFD Toolbox           |
|  \\    /   O peration     | Version:  v1906                                 |
|   \\  /    A nd           | Web:      www.OpenFOAM.com                      |
|    \\/     M anipulation  |                                                 |
\*---------------------------------------------------------------------------*/
FoamFile
{
    version     2.0;
    format      ascii;
    class       volScalarField;
    location    "96.4";
    object      p_rgh;
}
// * * * * * * * * * * * * * * * * * * * * * * * * * * * * * * * * * * * * * //

dimensions      [1 -1 -2 0 0 0 0];


internalField   nonuniform List<scalar> 
2528
(
100000
100140
99991.9
100126
100000
100140
99992.2
100127
100001
100141
99992.6
100127
100001
100141
99993
100128
100001
100141
99993.3
100128
100002
100141
99993.7
100128
100002
100141
99993.9
100129
100002
100142
99994.2
100129
100002
100142
99994.3
100129
100002
100142
99994.5
100129
100002
100142
99994.6
100129
100003
100142
99994.8
100129
100003
100142
99994.9
100129
100003
100142
99995
100128
100003
100141
99995.2
100128
100003
100141
99995.4
100128
100003
100141
99995.6
100128
100004
100141
99995.8
100128
100004
100141
99996
100128
100004
100141
99996.3
100127
100004
100140
99996.6
100127
100005
100140
99996.9
100127
100005
100140
99997.2
100126
100005
100139
99997.6
100126
100006
100139
99998
100126
100006
100138
99998.4
100125
100006
100138
99998.8
100125
100007
100137
99999.3
100124
100008
100137
99999.8
100124
100008
100136
100000
100123
100009
100135
100001
100123
100009
100135
100002
100122
100010
100134
100002
100121
100011
100133
100003
100121
100011
100132
100004
100120
100012
100132
100004
100119
100013
100131
100005
100119
100014
100130
100006
100118
100014
100129
100007
100117
100015
100128
100007
100116
100016
100127
100008
100115
100017
100126
100009
100115
100018
100125
100010
100114
100019
100124
100011
100113
100020
100123
100012
100112
100021
100121
100013
100111
100022
100120
100014
100110
100023
100119
100015
100109
100024
100118
100016
100109
100025
100116
100017
100108
100026
100115
100018
100107
100027
100114
100019
100106
100028
100113
100020
100105
100029
100112
100021
100104
100030
100111
100022
100104
100031
100110
100023
100103
100031
100109
100024
100103
100032
100107
100025
100102
100034
100106
100026
100102
100035
100104
100027
100101
100036
100103
100028
100101
100037
100101
100029
100100
100038
100100
100030
100099
100040
100098
100031
100099
100041
100097
100032
100098
100042
100095
100033
100097
100044
100094
100034
100097
100045
100092
100035
100096
100046
100092
100036
100095
100048
100091
100037
100095
100049
100090
100038
100094
100051
100088
100039
100093
100053
100087
100040
100093
100054
100085
100041
100092
100056
100083
100042
100091
100058
100081
100043
100090
100060
100080
100044
100090
100061
100078
100045
100089
100063
100076
100046
100088
99929.9
99923.2
99930.3
99926.6
99930.6
99923.9
99931.3
99927.6
99931.4
99924.7
99932.3
99928.7
99932.2
99925.4
99933.4
99929.7
99933
99926.2
99934.4
99930.7
99933.8
99927
99935.3
99931.6
99934.5
99927.7
99936
99932.4
99935.1
99928.2
99936.6
99932.9
99935.6
99928.7
99937
99933.3
99936
99929
99937.2
99933.7
99936.3
99929.3
99937.5
99933.9
99936.5
99929.5
99937.6
99934.1
99936.6
99929.7
99937.8
99934.2
99936.8
99929.8
99937.9
99934.4
99936.9
99929.9
99938
99934.5
99937
99930.1
99938.1
99934.6
99937.1
99930.2
99938.2
99934.7
99937.1
99930.3
99938.2
99934.8
99937.2
99930.3
99938.3
99934.9
99937.2
99930.4
99938.3
99935
99937.3
99930.5
99938.4
99935
99937.3
99930.6
99938.4
99935.1
99937.3
99930.6
99938.4
99935.2
99937.4
99930.7
99938.5
99935.2
99937.4
99930.8
99938.5
99935.3
99937.4
99930.8
99938.5
99935.3
99937.4
99930.9
99938.5
99935.4
99937.4
99930.9
99938.5
99935.5
99937.4
99931
99938.5
99935.5
99937.3
99931
99938.5
99935.6
99937.3
99931.1
99938.5
99935.6
99937.3
99931.1
99938.5
99935.6
99937.3
99931.2
99938.4
99935.7
99937.2
99931.2
99938.4
99935.7
99937.2
99931.3
99938.4
99935.8
99937.2
99931.3
99938.4
99935.8
99937.1
99931.4
99938.3
99935.9
99937.1
99931.4
99938.3
99935.9
99937
99931.4
99938.3
99935.9
99937
99931.5
99938.2
99936
99936.9
99931.5
99938.2
99936
99936.9
99931.6
99938.1
99936
99936.8
99931.6
99938.1
99936.1
99936.7
99931.6
99938
99936.1
99936.7
99931.7
99938
99936.1
99936.6
99931.7
99937.9
99936.1
99936.6
99931.7
99937.8
99936.2
99936.5
99931.8
99937.8
99936.2
99936.4
99931.8
99937.7
99936.2
99936.4
99931.8
99937.7
99936.2
99936.3
99931.8
99937.6
99936.2
99936.3
99931.9
99937.5
99936.2
99936.2
99931.9
99937.5
99936.3
99936.2
99931.9
99937.4
99936.3
99936.1
99931.9
99937.4
99936.3
99936
99931.9
99937.3
99936.3
99935.9
99932
99937.3
99936.3
99935.9
99932
99937.2
99936.3
99935.8
99932
99937.1
99936.3
99935.7
99932
99937.1
99936.3
99935.6
99932
99937
99936.3
99935.5
99932.1
99937
99936.2
99935.5
99932.1
99936.9
99936.2
99935.4
99932.1
99936.8
99936.2
99935.3
99932.1
99936.8
99936.2
99935.2
99932.1
99936.7
99936.2
99935.2
99932.1
99936.7
99936.2
99935.1
99932.1
99936.6
99936.2
99935
99932.1
99936.6
99936.1
99934.9
99932.1
99936.5
99936.1
99934.8
99932.1
99936.5
99936.1
99934.8
99932.1
99936.5
99936.1
99934.7
99932.1
99936.4
99936
99934.6
99932.1
99936.4
99936
99934.5
99932.1
99936.3
99936
99934.5
99932.1
99936.3
99935.9
99934.4
99932.1
99936.2
99935.9
99934.3
99932.1
99936.2
99935.9
99934.3
99932.1
99936.2
99935.9
99964.6
99993.1
99965.2
99980.1
99966.2
99994.2
99966.7
99982
99967.9
99995.4
99968.2
99983.8
99969.6
99996.6
99969.7
99985.6
99971.3
99997.8
99971.2
99987.4
99972.9
99999
99972.6
99989
99974.3
100000
99973.9
99990.4
99975.4
100001
99974.9
99991.4
99976.2
100002
99975.7
99992.2
99976.8
100003
99976.3
99992.8
99977.3
100003
99976.8
99993.3
99977.7
100004
99977.2
99993.6
99978
100004
99977.5
99993.9
99978.2
100004
99977.8
99994.2
99978.5
100005
99978
99994.4
99978.7
100005
99978.2
99994.5
99978.9
100005
99978.4
99994.7
99979
100005
99978.5
99994.8
99979.2
100005
99978.7
99994.9
99979.4
100005
99978.8
99995
99979.5
100005
99978.9
99995.1
99979.7
100006
99979
99995.2
99979.8
100006
99979.1
99995.2
99979.9
100006
99979.2
99995.3
99980.1
100006
99979.3
99995.3
99980.2
100006
99979.4
99995.3
99980.3
100006
99979.5
99995.4
99980.5
100006
99979.5
99995.4
99980.6
100006
99979.6
99995.4
99980.8
100006
99979.7
99995.4
99980.9
100006
99979.7
99995.4
99981.1
100006
99979.8
99995.4
99981.2
100006
99979.8
99995.4
99981.4
100005
99979.9
99995.4
99981.6
100005
99980
99995.4
99981.7
100005
99980
99995.3
99981.9
100005
99980.1
99995.3
99982.1
100005
99980.1
99995.3
99982.3
100005
99980.2
99995.3
99982.5
100005
99980.2
99995.3
99982.7
100005
99980.3
99995.2
99982.9
100005
99980.4
99995.2
99983.1
100004
99980.4
99995.2
99983.3
100004
99980.5
99995.2
99983.6
100004
99980.5
99995.1
99983.8
100004
99980.6
99995.1
99984
100004
99980.7
99995.1
99984.3
100004
99980.7
99995
99984.5
100003
99980.8
99995
99984.7
100003
99980.9
99995
99984.9
100003
99980.9
99994.9
99985.1
100003
99981
99994.9
99985.3
100002
99981.1
99994.8
99985.6
100002
99981.1
99994.7
99985.9
100002
99981.2
99994.7
99986.1
100002
99981.3
99994.6
99986.4
100001
99981.3
99994.5
99986.7
100001
99981.4
99994.5
99987
100001
99981.5
99994.4
99987.3
100000
99981.6
99994.3
99987.5
100000
99981.7
99994.2
99987.8
99999.9
99981.7
99994.1
99988.1
99999.8
99981.8
99994
99988.4
99999.7
99981.9
99993.9
99988.7
99999.4
99982
99993.8
99989
99999.1
99982.1
99993.7
99989.3
99998.7
99982.2
99993.5
99989.6
99998.3
99982.3
99993.4
99989.9
99997.9
99982.4
99993.3
99990.2
99997.5
99982.5
99993.2
99990.5
99997
99982.6
99993
99990.8
99996.6
99982.6
99992.9
99991.2
99996.2
99982.7
99992.8
99991.5
99995.7
99982.8
99992.6
99991.8
99995.3
99982.9
99992.5
99992.1
99994.8
99983
99992.4
99992.4
99994.4
99983.1
99992.2
99992.7
99994.2
99983.2
99992.2
99993
99994.1
99983.3
99992.2
100104
100107
100092
100110
100106
100108
100094
100112
100108
100110
100097
100115
100110
100112
100099
100117
100112
100114
100102
100120
100114
100116
100104
100122
100116
100118
100106
100124
100117
100119
100107
100125
100118
100120
100108
100127
100119
100121
100109
100127
100120
100121
100110
100128
100120
100122
100110
100128
100121
100122
100110
100129
100121
100122
100111
100129
100121
100123
100111
100129
100121
100123
100111
100129
100122
100123
100111
100130
100122
100123
100111
100130
100122
100123
100112
100130
100122
100123
100112
100130
100122
100123
100112
100130
100122
100123
100112
100130
100122
100123
100112
100130
100123
100123
100112
100130
100123
100123
100112
100130
100123
100123
100113
100130
100123
100123
100113
100130
100123
100124
100113
100130
100123
100124
100113
100130
100123
100124
100113
100130
100123
100124
100113
100130
100123
100124
100113
100130
100124
100124
100114
100130
100124
100124
100114
100130
100124
100124
100114
100130
100124
100124
100114
100130
100124
100124
100114
100130
100124
100124
100115
100130
100124
100124
100115
100130
100124
100124
100115
100129
100125
100124
100115
100129
100125
100124
100116
100129
100125
100124
100116
100129
100125
100124
100116
100129
100125
100124
100116
100129
100125
100124
100117
100129
100125
100124
100117
100129
100125
100124
100117
100129
100126
100124
100117
100129
100126
100124
100118
100129
100126
100124
100118
100129
100126
100124
100118
100129
100126
100124
100118
100128
100126
100124
100119
100128
100126
100124
100119
100128
100127
100124
100119
100128
100127
100124
100120
100128
100127
100124
100120
100128
100127
100124
100120
100128
100127
100124
100120
100128
100127
100124
100121
100128
100127
100124
100121
100128
100127
100124
100121
100128
100128
100124
100121
100128
100128
100124
100122
100128
100128
100124
100122
100128
100128
100124
100122
100128
100128
100124
100122
100128
100128
100125
100123
100128
100128
100125
100123
100128
100128
100125
100123
100127
100128
100125
100123
100127
100128
100125
100124
100127
100129
100125
100124
100127
100129
100125
100124
100127
100129
100125
100124
100127
100129
100125
100125
100127
100129
100125
100125
100127
100129
100125
100125
100127
100065
100075
100046
100088
100067
100074
100047
100088
100069
100072
100048
100087
100071
100070
100049
100086
100074
100068
100050
100084
100076
100065
100051
100083
100079
100062
100052
100082
100081
100059
100053
100080
100084
100056
100054
100079
100087
100052
100056
100077
100090
100049
100057
100076
100094
100045
100058
100074
100097
100041
100060
100072
100100
100037
100061
100071
100104
100033
100063
100069
100107
100029
100064
100067
100111
100025
100066
100065
100115
100020
100068
100063
100118
100016
100070
100061
100122
100011
100071
100059
100126
100007
100073
100057
100130
100002
100075
100055
100133
99997.8
100077
100053
100137
99993.1
100079
100050
100141
99988.5
100081
100048
100144
99983.9
100083
100046
100148
99979.3
100085
100044
100152
99974.7
100087
100042
100155
99970.1
100090
100040
100158
99965.6
100091
100038
100162
99961.1
100092
100036
100165
99956.7
100093
100034
100168
99952.4
100094
100032
100171
99948.4
100096
100030
100174
99944.8
100098
100028
100177
99941.5
100100
100026
100180
99938.4
100103
100025
100182
99935.4
100105
100023
100185
99932.4
100107
100021
100187
99929.3
100109
100020
100190
99926.2
100110
100018
100192
99923
100112
100017
100194
99919.9
100114
100016
100196
99916.9
100116
100014
100198
99914.1
100117
100013
100200
99911.4
100119
100012
100201
99909
100120
100011
100203
99906.7
100122
100010
100204
99904.6
100123
100009
100205
99902.6
100124
100008
100207
99900.7
100125
100007
100208
99898.9
100126
100006
100209
99897.3
100127
100005
100210
99895.8
100128
100005
100211
99894.4
100129
100004
100212
99893.1
100130
100004
100213
99892
100130
100003
100214
99890.9
100131
100003
100215
99889.9
100132
100002
100215
99889.1
100132
100002
100216
99888.3
100133
100001
100216
99887.7
100133
100001
100217
99887.1
100133
100001
100217
99886.6
100134
100001
100218
99886.2
100134
100000
100218
99885.8
100134
100000
100218
99885.5
100135
100000
100219
99885.4
100135
100000
100219
99885.2
100135
100000
100219
99885.2
100136
100000
100220
99885.2
100136
100000
100220
99885.4
100136
100001
100221
99885.6
100137
100001
100221
99885.8
100137
100001
100221
99886.1
100138
100001
100222
99886.4
100138
100001
100222
99886.7
100138
100001
100222
99887
100139
100002
100222
99887.3
100139
100002
99934.3
99932.1
99936.2
99935.9
99934.3
99932.2
99936.2
99936
99934.3
99932.2
99936.3
99936.1
99934.3
99932.3
99936.3
99936.2
99934.2
99932.3
99936.3
99936.3
99934.2
99932.4
99936.4
99936.4
99934.2
99932.5
99936.4
99936.5
99934.2
99932.6
99936.4
99936.6
99934.1
99932.7
99936.4
99936.7
99934.1
99932.8
99936.4
99936.8
99934
99932.9
99936.4
99937
99933.9
99933
99936.4
99937.1
99933.8
99933.2
99936.4
99937.2
99933.7
99933.3
99936.3
99937.3
99933.6
99933.5
99936.3
99937.4
99933.5
99933.7
99936.3
99937.6
99933.3
99933.9
99936.3
99937.7
99933.2
99934.1
99936.2
99937.9
99933
99934.4
99936.1
99938
99932.9
99934.6
99936.1
99938.2
99932.7
99934.9
99936
99938.4
99932.5
99935.1
99935.9
99938.6
99932.3
99935.4
99935.8
99938.7
99932.1
99935.7
99935.7
99938.9
99931.9
99936
99935.6
99939.1
99931.7
99936.3
99935.5
99939.3
99931.5
99936.6
99935.3
99939.5
99931.2
99936.9
99935.2
99939.7
99931
99937.3
99935.1
99939.8
99930.8
99937.6
99935
99940
99930.6
99937.9
99934.9
99940.2
99930.3
99938.3
99934.7
99940.4
99930.1
99938.6
99934.6
99940.6
99929.9
99938.9
99934.5
99940.8
99929.7
99939.3
99934.3
99941
99929.5
99939.6
99934.2
99941.1
99929.2
99939.9
99934.1
99941.3
99929
99940.2
99933.9
99941.5
99928.8
99940.6
99933.8
99941.6
99928.6
99940.9
99933.7
99941.8
99928.4
99941.2
99933.6
99942
99928.3
99941.5
99933.4
99942.1
99928.1
99941.8
99933.3
99942.3
99927.9
99942.1
99933.2
99942.4
99927.8
99942.3
99933.1
99942.5
99927.6
99942.6
99933
99942.7
99927.5
99942.9
99932.9
99942.8
99927.3
99943.1
99932.8
99942.9
99927.2
99943.4
99932.7
99943
99927.1
99943.6
99932.7
99943.2
99927
99943.8
99932.6
99943.3
99926.9
99944
99932.5
99943.4
99926.9
99944.2
99932.5
99943.5
99926.8
99944.4
99932.4
99943.6
99926.7
99944.6
99932.4
99943.7
99926.7
99944.7
99932.4
99943.8
99926.7
99944.9
99932.3
99943.9
99926.6
99945.1
99932.3
99944
99926.6
99945.2
99932.3
99944.1
99926.6
99945.4
99932.4
99944.2
99926.7
99945.5
99932.4
99944.3
99926.7
99945.7
99932.4
99944.4
99926.7
99945.8
99932.5
99944.6
99926.8
99946
99932.5
99944.7
99926.9
99946.2
99932.6
99944.9
99927.1
99946.4
99932.8
99945.2
99927.3
99946.6
99932.9
99945.5
99927.6
99947
99933.2
99945.9
99928
99947.4
99933.5
99946.4
99928.6
99947.9
99934
99947
99929.3
99948.6
99934.6
99947.8
99930.1
99949.5
99935.4
99948.6
99931.1
99950.4
99936.2
99949.4
99932.1
99951.3
99937.1
99950.2
99933.1
99952.3
99938
99951
99934.1
99953.3
99938.9
99951.8
99935.1
99954.2
99939.8
99952.6
99936
99955.2
99940.7
99953.4
99937
99956.1
99941.5
99954.2
99993.4
99993.9
99983.4
99992.1
99993.7
99993.6
99983.5
99992.1
99994.1
99993.2
99983.7
99992
99994.5
99992.7
99983.9
99991.9
99994.9
99992.2
99984
99991.8
99995.3
99991.7
99984.2
99991.7
99995.8
99991.1
99984.4
99991.6
99996.2
99990.5
99984.6
99991.5
99996.6
99989.9
99984.8
99991.3
99997
99989.2
99985
99991.2
99997.3
99988.6
99985.3
99991
99997.8
99987.9
99985.5
99990.8
99998.3
99987.1
99985.7
99990.7
99998.9
99986.4
99986
99990.6
99999.6
99985.7
99986.2
99990.5
100000
99984.9
99986.5
99990.3
100001
99984.1
99986.7
99990
100002
99983.3
99986.9
99989.8
100002
99982.6
99987.2
99989.5
100003
99981.8
99987.5
99989.2
100004
99981
99987.8
99988.9
100004
99980.2
99988.2
99988.6
100005
99979.4
99988.5
99988.3
100006
99978.6
99988.9
99988
100007
99977.8
99989.3
99987.7
100007
99977
99989.7
99987.4
100008
99976.2
99990.2
99987.2
100009
99975.3
99990.6
99987
100009
99974.5
99991
99986.8
100010
99973.7
99991.4
99986.5
100010
99973
99991.8
99986.2
100011
99972.5
99992.1
99985.9
100012
99972.1
99992.4
99985.6
100012
99971.7
99992.8
99985.3
100013
99971.2
99993.3
99985
100014
99970.5
99993.7
99984.7
100014
99969.7
99994.2
99984.4
100015
99969
99994.6
99984.1
100016
99968.2
99995.1
99983.8
100016
99967.5
99995.5
99983.5
100017
99966.9
99996
99983.3
100018
99966.2
99996.4
99983
100018
99965.6
99996.8
99982.8
100019
99965
99997.2
99982.5
100019
99964.5
99997.6
99982.3
100020
99963.9
99998
99982.1
100020
99963.4
99998.3
99981.9
100021
99963
99998.7
99981.7
100021
99962.5
99999
99981.5
100022
99962.1
99999.4
99981.4
100022
99961.7
99999.7
99981.2
100023
99961.4
100000
99981.1
100023
99961.1
100000
99981
100023
99960.8
100001
99980.9
100024
99960.5
100001
99980.8
100024
99960.3
100001
99980.7
100024
99960.1
100001
99980.7
100025
99959.9
100002
99980.6
100025
99959.8
100002
99980.6
100025
99959.6
100002
99980.6
100025
99959.6
100002
99980.6
100026
99959.5
100002
99980.7
100026
99959.5
100003
99980.8
100026
99959.5
100003
99980.9
100027
99959.6
100003
99981
100027
99959.7
100003
99981.2
100027
99959.9
100004
99981.5
100028
99960.2
100004
99982
100028
99960.6
100005
99982.6
100029
99961.2
100006
99983.4
100030
99962.1
100007
99984.4
100031
99963.4
100008
99985.6
100033
99965
100010
99986.9
100034
99966.8
100011
99988.3
100036
99968.7
100013
99989.8
100037
99970.6
100015
99991.2
100039
99972.5
100017
99992.7
100040
99974.4
100019
99994.1
100042
99976.2
100020
99995.5
100129
100125
100125
100127
100129
100125
100125
100127
100129
100125
100125
100127
100129
100126
100126
100127
100129
100126
100126
100127
100129
100126
100126
100126
100130
100126
100126
100126
100130
100126
100126
100126
100130
100126
100126
100126
100130
100126
100126
100126
100130
100126
100127
100126
100130
100126
100127
100126
100130
100126
100127
100126
100130
100126
100127
100125
100130
100126
100127
100125
100130
100126
100127
100125
100130
100126
100127
100125
100130
100126
100128
100125
100130
100127
100128
100125
100130
100127
100128
100125
100130
100127
100128
100125
100130
100127
100128
100125
100130
100127
100128
100124
100130
100127
100128
100124
100130
100127
100129
100124
100130
100127
100129
100124
100131
100127
100129
100124
100131
100127
100129
100124
100131
100127
100129
100124
100131
100128
100129
100124
100131
100128
100129
100124
100131
100128
100129
100124
100131
100128
100130
100124
100131
100128
100130
100123
100131
100128
100130
100123
100131
100128
100130
100123
100131
100128
100130
100123
100131
100128
100130
100123
100131
100128
100130
100123
100131
100128
100130
100123
100131
100129
100131
100123
100131
100129
100131
100123
100131
100129
100131
100123
100131
100129
100131
100123
100131
100129
100131
100123
100131
100129
100131
100123
100131
100129
100131
100123
100131
100129
100131
100123
100131
100129
100132
100123
100131
100130
100132
100123
100131
100130
100132
100123
100131
100130
100132
100124
100132
100130
100132
100124
100132
100130
100132
100124
100132
100130
100132
100124
100132
100130
100132
100124
100132
100130
100133
100124
100132
100131
100133
100124
100132
100131
100133
100124
100132
100131
100133
100124
100133
100131
100133
100125
100133
100131
100133
100125
100133
100132
100134
100125
100133
100132
100134
100125
100134
100132
100134
100126
100134
100133
100135
100126
100135
100133
100135
100127
100135
100134
100136
100128
100136
100135
100136
100129
100138
100136
100138
100130
100139
100138
100139
100132
100141
100140
100141
100133
100143
100142
100143
100135
100146
100144
100145
100137
100148
100146
100147
100139
100150
100148
100149
100141
100152
100151
100151
100143
100155
100153
100153
100144
100157
100155
100155
100146
)
;

boundaryField
{
    leftWall
    {
        type            fixedFluxPressure;
        gradient        nonuniform List<scalar> 
16
(
-7923.04
-17678
-36438.2
-46682.8
-5969.77
-16829.4
-26955.5
-45538
-8275.29
-23679.7
-32867.4
-57663.4
-11043.4
-24284.4
-41332.9
-54984.1
)
;
        value           nonuniform List<scalar> 
16
(
99999.8
99929.5
99963.8
100103
100140
99922.8
99992.5
100106
99991.7
99929.7
99964.5
100090
100126
99926
99979.2
100109
)
;
    }
    rightWall
    {
        type            fixedFluxPressure;
        gradient        nonuniform List<scalar> 
16
(
4814.18
21641
31680.4
48697
7507.97
21077.9
41682.8
46962.2
6723.32
19196.7
37986.7
42994
4963.29
16910.9
31463.8
39010.2
)
;
        value           nonuniform List<scalar> 
16
(
100222
99937.5
100042
100158
99887.4
99956.6
99977.1
100156
100139
99941.9
100021
100155
100002
99954.5
99996.2
100147
)
;
    }
    leftSides_periodic0
    {
        type            cyclic;
    }
    leftSides_periodic1
    {
        type            cyclic;
    }
    rightSides_periodic0
    {
        type            cyclic;
    }
    rightSides_periodic1
    {
        type            cyclic;
    }
    leftInOut_periodic0
    {
        type            cyclic;
    }
    leftInOut_periodic1
    {
        type            cyclic;
    }
    rightInOut_periodic0
    {
        type            cyclic;
    }
    rightInOut_periodic1
    {
        type            cyclic;
    }
}


// ************************************************************************* //
