/*--------------------------------*- C++ -*----------------------------------*\
| =========                 |                                                 |
| \\      /  F ield         | OpenFOAM: The Open Source CFD Toolbox           |
|  \\    /   O peration     | Version:  v1912                                 |
|   \\  /    A nd           | Website:  www.openfoam.com                      |
|    \\/     M anipulation  |                                                 |
\*---------------------------------------------------------------------------*/
FoamFile
{
    version     2.0;
    format      ascii;
    class       volScalarField;
    location    "96.4";
    object      pPrime2Mean;
}
// * * * * * * * * * * * * * * * * * * * * * * * * * * * * * * * * * * * * * //

dimensions      [2 -2 -4 0 0 0 0];


internalField   nonuniform List<scalar> 
2528
(
0
4892.72
16.3781
3963.1
0
4892.72
16.3781
3963.1
0
4892.72
16.3781
3963.1
0.00249863
4892.72
16.3781
3963.1
0.00249863
4892.72
16.3781
3963.1
0.00249863
4892.72
16.3781
3963.1
0.00249863
4892.72
15.9762
3963.1
0.00249863
4892.72
15.9762
3963.1
0.00249863
4892.72
15.5793
3963.1
0.00249863
4892.72
15.5793
3963.1
0.00249863
4892.72
15.1874
3963.1
0
4892.72
14.8005
3963.1
0
4892.72
14.4185
3963.1
0
4823.07
14.0416
3963.1
0
4823.07
13.3027
3900.44
0
4823.07
12.9407
3900.44
0.24963
4823.07
12.2318
3900.44
0.24963
4823.07
11.5428
3900.44
0.24963
4753.92
10.8738
3900.44
0.24963
4753.92
9.90775
3838.29
0.24963
4753.92
9.28867
3838.29
0.998516
4685.27
8.3975
3838.29
0.998516
4685.27
7.27917
3776.63
0.998516
4685.27
6.49284
3776.63
2.24666
4617.13
5.51429
3776.63
2.24666
4617.13
4.61563
3715.47
2.24666
4549.48
3.79685
3715.47
3.99405
4549.48
2.88571
3654.81
3.99405
4482.33
2.09938
3654.81
6.24071
4415.68
1.43786
3594.65
8.98662
4415.68
0.808794
3594.65
8.98662
4349.52
0.359465
3534.99
12.2318
4283.87
0.0898647
3475.83
12.2318
4283.87
0
3475.83
15.9762
4218.72
0.24963
3417.16
20.2199
4154.07
0.24963
3359
24.9628
4089.91
0.998516
3301.34
24.9628
4026.26
2.24666
3301.34
30.205
3963.1
3.99405
3244.17
35.9465
3900.44
6.24071
3187.5
42.1872
3838.29
6.24071
3131.34
48.9272
3776.63
8.98662
3075.67
56.1664
3715.47
12.2318
3075.67
63.9049
3654.81
15.9762
3020.5
72.1426
3594.65
20.2199
2965.83
80.8796
3534.99
24.9628
2911.67
90.1158
3417.16
30.205
2858
99.8513
3359
35.9465
2804.82
110.086
3301.34
42.1872
2752.15
120.82
3244.17
48.9272
2699.98
132.053
3131.34
56.1664
2699.98
143.786
3075.67
63.9049
2648.31
156.018
3020.5
72.1426
2597.13
168.749
2965.83
80.8796
2546.46
181.979
2911.67
90.1158
2496.28
181.979
2858
99.8513
2496.28
195.709
2804.82
110.086
2446.61
209.937
2699.98
120.82
2446.61
224.666
2648.31
132.053
2446.61
239.893
2546.46
143.786
2397.43
271.845
2496.28
156.018
2348.75
288.57
2397.43
168.749
2348.75
305.795
2348.75
181.979
2300.58
323.518
2252.9
195.709
2252.9
360.463
2205.72
209.937
2252.9
379.685
2112.85
239.893
2205.72
399.405
2067.17
255.619
2159.04
440.344
1977.31
271.845
2159.04
461.563
1977.31
288.57
2112.85
505.497
1933.12
305.795
2067.17
528.214
1889.44
305.795
2067.17
575.144
1803.56
323.518
2021.99
599.358
1761.38
341.741
1977.31
649.283
1678.5
360.463
1933.12
701.206
1597.62
379.685
1933.12
727.916
1518.74
399.405
1889.44
782.835
1480.05
419.625
1846.25
839.75
1404.16
440.344
1846.25
898.662
1330.27
461.563
1803.56
32893.3
34118.7
32838.9
33530.6
32893.3
34118.7
32838.9
33530.6
32893.3
34118.7
32838.9
33530.6
32893.3
34118.7
32838.9
33530.6
32893.3
34118.7
32838.9
33530.6
32893.3
34118.7
32838.9
33530.6
32893.3
34118.7
32857
33530.6
32893.3
34118.7
32857
33530.6
32893.3
34118.7
32857
33530.6
32893.3
34118.7
32857
33530.6
32893.3
34118.7
32857
33530.6
32893.3
34118.7
32857
33530.6
32911.4
34118.7
32857
33530.6
32911.4
34118.7
32857
33512.3
32911.4
34118.7
32857
33512.3
32911.4
34118.7
32857
33512.3
32911.4
34118.7
32857
33512.3
32911.4
34118.7
32875.2
33512.3
32929.5
34100.3
32875.2
33512.3
32929.5
34100.3
32875.2
33512.3
32929.5
34100.3
32875.2
33512.3
32929.5
34100.3
32893.3
33512.3
32947.7
34100.3
32893.3
33512.3
32947.7
34100.3
32893.3
33512.3
32947.7
34100.3
32911.4
33512.3
32965.8
34100.3
32911.4
33512.3
32965.8
34100.3
32911.4
33512.3
32984
34081.8
32929.5
33512.3
32984
34081.8
32929.5
33512.3
33002.1
34081.8
32947.7
33494.1
33002.1
34081.8
32947.7
33494.1
33020.3
34081.8
32965.8
33494.1
33020.3
34081.8
32965.8
33494.1
33038.4
34081.8
32984
33494.1
33038.4
34063.4
32984
33494.1
33056.6
34063.4
33002.1
33494.1
33056.6
34063.4
33020.3
33494.1
33074.8
34063.4
33020.3
33494.1
33092.9
34063.4
33038.4
33494.1
33092.9
34063.4
33056.6
33494.1
33111.1
34044.9
33056.6
33494.1
33129.3
34044.9
33074.8
33475.8
33147.5
34044.9
33092.9
33475.8
33147.5
34044.9
33092.9
33475.8
33165.7
34044.9
33111.1
33475.8
33183.9
34044.9
33129.3
33475.8
33202.1
34026.5
33147.5
33475.8
33202.1
34026.5
33165.7
33475.8
33220.3
34026.5
33183.9
33475.8
33238.5
34026.5
33183.9
33475.8
33238.5
34026.5
33202.1
33475.8
33256.7
34026.5
33220.3
33475.8
33275
34026.5
33238.5
33475.8
33275
34026.5
33238.5
33475.8
33293.2
34026.5
33256.7
33494.1
33311.4
34026.5
33275
33494.1
33329.7
34026.5
33293.2
33494.1
33347.9
34026.5
33311.4
33494.1
33366.2
34026.5
33311.4
33494.1
33366.2
34026.5
33329.7
33494.1
33384.4
34026.5
33347.9
33512.3
33402.7
34026.5
33366.2
33512.3
33420.9
34026.5
33384.4
33512.3
33439.2
34026.5
33384.4
33512.3
33457.5
34026.5
33402.7
33530.6
33475.8
34026.5
33420.9
33530.6
33494.1
34026.5
33439.2
33530.6
33494.1
34026.5
33439.2
33548.9
33512.3
34026.5
33457.5
33548.9
33530.6
34044.9
33475.8
33548.9
33548.9
34044.9
33475.8
33567.2
33567.2
34044.9
33494.1
33567.2
33585.6
34044.9
33512.3
33585.6
33603.9
34063.4
33530.6
33585.6
33622.2
34063.4
33530.6
33585.6
33640.5
34063.4
33548.9
33603.9
33658.9
34081.8
33567.2
33603.9
33677.2
34081.8
33567.2
33622.2
33677.2
34081.8
33585.6
33622.2
96360
87692.8
96143
91642.3
96360
87692.8
96143
91642.3
96360
87692.8
96143
91642.3
96360
87692.8
96143
91642.3
96360
87692.8
96143
91642.3
96360
87692.8
96143
91642.3
96360
87692.8
96143
91642.3
96360
87692.8
96143
91642.3
96360
87692.8
96143
91642.3
96360
87692.8
96143
91642.3
96329
87692.8
96143
91642.3
96329
87692.8
96143
91642.3
96329
87722.4
96143
91672.5
96329
87722.4
96143
91672.5
96329
87722.4
96143
91672.5
96297.9
87722.4
96143
91672.5
96297.9
87722.4
96112
91672.5
96297.9
87752
96112
91672.5
96266.9
87752
96112
91702.8
96266.9
87752
96112
91702.8
96235.9
87781.6
96112
91702.8
96235.9
87781.6
96112
91702.8
96204.9
87811.2
96112
91702.8
96204.9
87811.2
96081
91733
96173.9
87840.8
96081
91733
96173.9
87840.8
96081
91733
96143
87870.4
96081
91763.3
96112
87870.4
96050
91763.3
96081
87900
96050
91763.3
96050
87929.7
96050
91793.6
96019.1
87959.3
96050
91793.6
95988.1
87988.9
96019.1
91793.6
95957.1
88018.6
96019.1
91823.9
95926.2
88048.2
95988.1
91823.9
95864.3
88077.9
95988.1
91854.1
95833.4
88107.5
95988.1
91854.1
95771.5
88137.2
95957.1
91854.1
95740.6
88166.9
95957.1
91884.4
95678.8
88226.2
95926.2
91884.4
95647.9
88255.9
95926.2
91914.7
95586.1
88315.3
95895.2
91914.7
95524.3
88374.7
95895.2
91914.7
95462.5
88434.1
95864.3
91945
95400.8
88463.8
95864.3
91945
95369.9
88523.3
95833.4
91975.3
95308.2
88582.7
95833.4
91975.3
95215.7
88672
95802.4
92005.6
95184.9
88731.5
95771.5
92005.6
95123.2
88791.1
95771.5
92035.9
95092.4
88880.4
95740.6
92035.9
95030.8
88940
95740.6
92066.3
94969.2
89029.4
95709.7
92096.6
94907.6
89118.9
95709.7
92096.6
94846
89208.4
95678.8
92126.9
94784.5
89298
95647.9
92157.2
94692.2
89387.6
95647.9
92187.6
94630.7
89477.2
95617
92217.9
94538.5
89596.8
95586.1
92217.9
94477.1
89686.6
95555.2
92248.3
94415.7
89806.3
95555.2
92309
94323.6
89896.2
95524.3
92339.3
94262.2
89986.1
95493.4
92369.7
94170.2
90046
95462.5
92400.1
94078.2
90106
95462.5
92430.5
94017
90166
95431.6
92491.2
93925.1
90286.1
95400.8
92521.6
93863.8
90406.2
95369.9
92552
93772
90556.5
95339.1
92612.8
93680.2
90676.8
95339.1
92643.2
93588.5
90827.3
95308.2
92704.1
93527.4
90947.8
95277.4
92734.5
93435.7
91098.6
95246.5
92795.4
93344.1
91249.4
95246.5
92825.8
93252.5
91400.4
95215.7
92886.7
93191.5
91551.5
95184.9
92917.2
93100
91702.8
95184.9
92978.1
93008.6
91823.9
95154
93008.6
92917.2
91914.7
95123.2
93039.1
92825.8
91975.3
95092.4
93069.5
149778
148890
154809
147736
149778
148890
154809
147736
149778
148890
154809
147736
149778
148890
154809
147736
149778
148890
154809
147736
149778
148890
154809
147736
149778
148890
154809
147736
149778
148890
154809
147736
149778
148890
154809
147736
149778
148890
154809
147736
149778
148890
154809
147736
149778
148890
154769
147736
149778
148890
154769
147736
149778
148890
154769
147774
149740
148890
154769
147774
149740
148890
154730
147774
149740
148929
154730
147774
149740
148929
154730
147774
149740
148929
154691
147813
149701
148929
154691
147813
149701
148929
154651
147813
149701
148929
154612
147851
149662
148929
154612
147851
149662
148967
154573
147889
149662
148967
154533
147889
149624
148967
154494
147928
149624
148967
154455
147928
149624
149006
154416
147966
149585
149006
154376
148005
149585
149006
154337
148005
149546
149006
154298
148043
149508
149044
154259
148082
149508
149044
154180
148120
149469
149044
154141
148158
149469
149083
154102
148197
149430
149083
154023
148235
149392
149122
153945
148274
149392
149122
153906
148312
149353
149122
153827
148351
149315
149160
153749
148389
149276
149160
153671
148466
149276
149199
153592
148505
149237
149199
153514
148543
149199
149237
153436
148582
149160
149237
153357
148659
149160
149276
153279
148697
149122
149276
153201
148736
149083
149315
153123
148813
149044
149315
153044
148852
149006
149353
152966
148890
149006
149353
152888
148967
148967
149392
152771
149006
148929
149392
152693
149044
148890
149392
152615
149083
148852
149430
152537
149122
148813
149430
152459
149199
148813
149469
152342
149237
148775
149469
152264
149276
148736
149469
152186
149315
148697
149508
152108
149353
148697
149508
152030
149392
148659
149508
151952
149430
148620
149546
151874
149469
148582
149546
151796
149508
148582
149546
151718
149546
148543
149546
151640
149585
148505
149546
151563
149624
148466
149585
151524
149662
148466
149585
151446
149701
148428
149585
151368
149740
148389
149585
151290
149778
148389
149585
151251
149778
148351
149585
151174
149817
148312
149585
151096
149856
148312
149585
151057
149894
148274
149585
150980
149894
148274
149585
150941
149933
148235
149585
150863
149972
148197
149585
150824
150010
959.571
1294.07
461.563
1803.56
1022.48
1258.38
483.281
1761.38
1087.38
1188.48
505.497
1719.69
1154.28
1120.58
528.214
1678.5
1223.18
1054.68
551.429
1637.81
1330.27
959.571
575.144
1597.62
1404.16
868.956
599.358
1518.74
1518.74
782.835
624.071
1480.05
1637.81
701.206
649.283
1441.85
1761.38
599.358
701.206
1366.96
1889.44
528.214
727.916
1294.07
2021.99
440.344
755.126
1258.38
2159.04
360.463
811.043
1188.48
2348.75
288.57
839.75
1120.58
2496.28
224.666
898.662
1054.68
2699.98
168.749
928.867
990.775
2911.67
120.82
990.775
928.867
3075.67
72.1426
1054.68
868.956
3301.34
42.1872
1120.58
811.043
3534.99
15.9762
1154.28
755.126
3715.47
3.99405
1223.18
701.206
3963.1
0.122318
1294.07
649.283
4218.72
7.01206
1366.96
599.358
4482.33
24.4661
1441.85
551.429
4685.27
53.2108
1518.74
505.497
4962.86
92.023
1597.62
461.563
5176.29
141.399
1678.5
419.625
5467.86
201.34
1761.38
379.685
5691.78
271.845
1846.25
323.518
5997.32
351.04
1933.12
288.57
6231.72
440.344
1977.31
255.619
6470.62
539.759
2021.99
224.666
6714
644.201
2067.17
195.709
6961.89
746.911
2159.04
181.979
7214.26
851.373
2252.9
156.018
7471.13
950.308
2348.75
132.053
7732.49
1044.97
2446.61
110.086
7998.34
1144.12
2597.13
90.1158
8178.07
1247.76
2699.98
80.8796
8451.42
1359.59
2752.15
63.9049
8636.14
1480.05
2858
56.1664
8822.87
1605.62
2965.83
42.1872
9106.69
1732.14
3075.67
35.9465
9298.41
1859.15
3187.5
30.205
9395.01
1981.75
3244.17
20.2199
9589.72
2099.1
3359
15.9762
9687.83
2215.11
3417.16
12.2318
9885.53
2324.6
3534.99
8.98662
9985.13
2426.88
3594.65
6.24071
10185.8
2526.33
3654.81
3.99405
10286.9
2622.66
3715.47
2.24666
10388.5
2715.58
3776.63
0.998516
10593.2
2799.53
3838.29
0.998516
10696.3
2879.4
3900.44
0.24963
10799.9
2954.96
3963.1
0
10904
3026
3963.1
0.0224686
10904
3092.32
4026.26
0.159761
11008.6
3153.74
4089.91
0.421873
11113.7
3210.11
4089.91
0.721428
11113.7
3255.56
4154.07
1.2082
11219.3
3301.34
4154.07
1.56018
11219.3
3341.65
4218.72
2.09938
11325.4
3376.4
4218.72
2.5562
11325.4
3405.49
4218.72
2.88571
11325.4
3434.71
4283.87
3.41741
11432
3458.17
4283.87
3.79685
11432
3475.83
4283.87
4.19625
11432
3493.52
4283.87
4.40344
11432
3505.34
4283.87
4.83281
11539.1
3517.19
4349.52
5.05498
11539.1
3529.05
4349.52
5.51429
11539.1
3540.93
4349.52
5.75144
11539.1
3546.88
4349.52
5.99358
11539.1
3552.83
4349.52
5.99358
11539.1
3558.79
4349.52
6.24071
11539.1
3564.76
4349.52
6.49284
11539.1
3570.72
4349.52
6.49284
11539.1
3570.72
4349.52
6.74995
11539.1
3570.72
4349.52
6.74995
33695.5
34081.8
33585.6
33622.2
33695.5
34081.8
33585.6
33603.9
33695.5
34081.8
33585.6
33603.9
33713.9
34081.8
33585.6
33585.6
33713.9
34081.8
33585.6
33567.2
33713.9
34063.4
33585.6
33548.9
33732.2
34063.4
33585.6
33530.6
33732.2
34063.4
33585.6
33512.3
33750.6
34044.9
33585.6
33494.1
33768.9
34026.5
33585.6
33475.8
33787.3
34008.1
33585.6
33457.5
33805.7
33989.6
33603.9
33439.2
33824
33971.2
33603.9
33420.9
33842.4
33952.8
33622.2
33402.7
33879.2
33916
33622.2
33384.4
33897.6
33897.6
33640.5
33366.2
33934.4
33860.8
33640.5
33329.7
33971.2
33824
33658.9
33311.4
33989.6
33787.3
33677.2
33275
34026.5
33750.6
33695.5
33256.7
34063.4
33713.9
33713.9
33220.3
34100.3
33658.9
33732.2
33202.1
34155.7
33622.2
33750.6
33165.7
34192.6
33567.2
33768.9
33129.3
34229.6
33530.6
33805.7
33111.1
34266.5
33475.8
33824
33074.8
34322.1
33420.9
33842.4
33038.4
34359.1
33366.2
33879.2
33002.1
34396.2
33311.4
33897.6
32984
34451.8
33256.7
33934.4
32947.7
34488.9
33202.1
33952.8
32911.4
34544.6
33147.5
33971.2
32893.3
34581.7
33092.9
34008.1
32857
34637.5
33038.4
34026.5
32820.8
34674.7
32984
34063.4
32802.7
34711.9
32929.5
34081.8
32766.5
34767.8
32875.2
34118.7
32730.4
34805.1
32820.8
34155.7
32712.3
34842.4
32766.5
34174.1
32676.2
34879.7
32712.3
34192.6
32658.1
34917
32658.1
34229.6
32622
34954.4
32604
34248.1
32604
34991.7
32567.9
34285
32585.9
35029.1
32513.8
34303.6
32567.9
35066.6
32477.8
34322.1
32531.8
35104
32423.8
34340.6
32513.8
35122.7
32387.8
34377.6
32495.8
35160.2
32351.8
34396.2
32477.8
35178.9
32315.9
34414.7
32459.8
35197.7
32280
34433.2
32441.8
35235.2
32244.1
34451.8
32423.8
35253.9
32208.2
34451.8
32423.8
35272.7
32172.4
34470.3
32405.8
35291.5
32154.4
34488.9
32387.8
35310.2
32136.5
34507.4
32387.8
35310.2
32100.7
34507.4
32369.8
35329
32082.8
34526
32369.8
35347.8
32064.9
34526
32351.8
35347.8
32047
34544.6
32351.8
35366.6
32029.1
34544.6
32333.9
35366.6
32011.2
34544.6
32333.9
35385.4
32011.2
34563.1
32333.9
35385.4
31993.4
34563.1
32315.9
35385.4
31993.4
34563.1
32315.9
35404.2
31975.5
34563.1
32315.9
35404.2
31975.5
34581.7
32315.9
35404.2
31957.6
34581.7
32315.9
35404.2
31957.6
34581.7
32315.9
35404.2
31957.6
34581.7
32297.9
35423
31939.8
34581.7
32297.9
35423
31939.8
34581.7
32297.9
35423
31939.8
34581.7
32297.9
35423
31939.8
34581.7
32297.9
35423
31939.8
34581.7
32297.9
35423
31921.9
34600.3
32297.9
35423
31921.9
34600.3
32297.9
35423
31921.9
34600.3
32297.9
35423
31921.9
34600.3
32297.9
35423
31921.9
34600.3
32297.9
92734.5
92035.9
95061.6
93100
92643.2
92157.2
95030.8
93100
92552
92278.6
95000
93130.5
92430.5
92430.5
94938.4
93191.5
92309
92612.8
94907.6
93222
92187.6
92764.9
94846
93252.5
92066.3
92947.6
94784.5
93313.6
91945
93130.5
94723
93344.1
91823.9
93344.1
94661.5
93405.2
91733
93557.9
94630.7
93466.3
91642.3
93772
94569.3
93527.4
91521.3
93986.3
94507.8
93588.5
91370.2
94200.9
94446.4
93649.6
91189.1
94446.4
94354.3
93680.2
91008.1
94661.5
94292.9
93741.4
90797.2
94907.6
94231.6
93802.6
90616.7
95154
94170.2
93894.4
90406.2
95400.8
94108.9
93955.7
90226
95647.9
94047.6
94047.6
90016.1
95895.2
93955.7
94170.2
89806.3
96143
93863.8
94262.2
89626.7
96391
93772
94354.3
89417.4
96639.3
93680.2
94446.4
89208.4
96888
93557.9
94569.3
88969.8
97137
93435.7
94661.5
88761.3
97386.3
93344.1
94753.7
88553
97635.9
93222
94846
88345
97917.1
93100
94907.6
88196.5
98167.5
92978.1
95000
88077.9
98418.1
92856.3
95092.4
87929.7
98637.6
92764.9
95184.9
87781.6
98794.6
92704.1
95308.2
87604
98920.3
92612.8
95400.8
87397.1
99077.5
92491.2
95524.3
87190.4
99234.8
92369.7
95617
86984
99486.8
92248.3
95740.6
86807.3
99707.6
92126.9
95833.4
86630.7
99960.1
92005.6
95926.2
86425
100181
91884.4
96019.1
86248.8
100435
91763.3
96112
86102.1
100625
91642.3
96204.9
85926.3
100847
91521.3
96297.9
85750.6
101037
91400.4
96391
85604.4
101260
91309.8
96484.1
85458.3
101419
91189.1
96577.2
85312.3
101610
91098.6
96639.3
85166.4
101769
91008.1
96732.6
85049.8
101929
90917.7
96794.7
84933.3
102088
90827.3
96856.9
84816.8
102248
90737
96919.1
84700.5
102376
90646.7
96981.3
84584.2
102504
90586.6
97043.6
84497
102600
90526.4
97105.9
84409.9
102728
90436.3
97137
84322.8
102824
90406.2
97199.3
84235.8
102920
90346.1
97230.5
84177.8
103016
90286.1
97261.6
84119.8
103080
90256.1
97323.9
84061.9
103144
90196
97355.1
84032.9
103209
90166
97355.1
83975
103273
90136
97386.3
83946
103305
90106
97417.5
83917.1
103369
90076
97448.7
83888.1
103401
90076
97448.7
83859.2
103433
90046
97479.9
83830.3
103466
90046
97479.9
83801.3
103498
90016.1
97479.9
83801.3
103498
90016.1
97511.1
83772.4
103530
89986.1
97511.1
83772.4
103530
89986.1
97511.1
83772.4
103530
89986.1
97542.3
83743.5
103562
89986.1
97542.3
83743.5
103562
89956.1
97542.3
83743.5
103562
89956.1
97542.3
83743.5
103594
89956.1
97542.3
83714.6
103594
89956.1
97542.3
83714.6
103594
89956.1
97542.3
83714.6
103594
89956.1
97573.5
83714.6
103594
89956.1
97573.5
148197
149585
150785
150049
148197
149585
150747
150088
148158
149624
150708
150127
148158
149624
150669
150204
148158
149624
150630
150243
148158
149624
150592
150320
148120
149624
150553
150359
148120
149624
150514
150436
148120
149624
150475
150475
148120
149662
150436
150553
148082
149662
150398
150592
148082
149662
150359
150669
148082
149662
150320
150747
148082
149662
150281
150785
148082
149624
150243
150863
148043
149624
150204
150902
148043
149624
150165
150980
148043
149624
150127
151018
148043
149624
150088
151096
148043
149585
150049
151135
148043
149585
150010
151213
148043
149585
149972
151251
148043
149585
149933
151290
148043
149546
149894
151368
148043
149546
149856
151407
148043
149546
149856
151485
148043
149508
149817
151524
148043
149508
149778
151563
148043
149469
149740
151640
148043
149469
149701
151679
148043
149430
149701
151718
148043
149430
149662
151757
148043
149430
149624
151796
148082
149392
149585
151835
148082
149392
149585
151874
148082
149353
149546
151913
148082
149353
149508
151952
148082
149315
149469
151991
148082
149315
149469
151991
148120
149276
149430
152030
148120
149276
149430
152069
148120
149276
149392
152108
148120
149237
149392
152108
148120
149237
149353
152147
148158
149199
149353
152186
148158
149199
149315
152186
148158
149199
149315
152225
148158
149160
149276
152264
148158
149160
149276
152264
148197
149160
149276
152303
148197
149122
149237
152303
148197
149122
149237
152342
148197
149122
149237
152342
148197
149083
149237
152342
148197
149083
149199
152381
148235
149083
149199
152381
148235
149083
149199
152381
148235
149083
149199
152420
148235
149044
149199
152420
148235
149044
149199
152420
148235
149044
149160
152420
148235
149044
149160
152420
148235
149044
149160
152459
148235
149044
149160
152459
148235
149044
149160
152459
148235
149006
149160
152459
148235
149006
149160
152459
148235
149006
149160
152459
148235
149006
149160
152459
148274
149006
149160
152459
148274
149006
149160
152459
148274
149006
149160
152459
148274
149006
149160
152459
148274
149006
149160
152459
148274
149006
149160
152459
148274
149006
149160
152459
148274
149006
149160
152498
148274
149006
149160
152498
148274
149006
149160
152498
)
;

boundaryField
{
    leftWall
    {
        type            calculated;
        value           nonuniform List<scalar> 
16
(
0
32893.3
96360
149778
4892.72
34118.7
87692.8
148890
16.3781
32838.9
96143
154809
3963.1
33530.6
91642.3
147736
)
;
    }
    rightWall
    {
        type            calculated;
        value           nonuniform List<scalar> 
16
(
11539.1
35423
83714.6
148274
3570.72
31921.9
103594
149006
4349.52
34600.3
89956.1
149160
6.74995
32297.9
97573.5
152498
)
;
    }
    leftSides_periodic0
    {
        type            cyclic;
    }
    leftSides_periodic1
    {
        type            cyclic;
    }
    rightSides_periodic0
    {
        type            cyclic;
    }
    rightSides_periodic1
    {
        type            cyclic;
    }
    leftInOut_periodic0
    {
        type            cyclic;
    }
    leftInOut_periodic1
    {
        type            cyclic;
    }
    rightInOut_periodic0
    {
        type            cyclic;
    }
    rightInOut_periodic1
    {
        type            cyclic;
    }
}


// ************************************************************************* //
