/*--------------------------------*- C++ -*----------------------------------*\
| =========                 |                                                 |
| \\      /  F ield         | OpenFOAM: The Open Source CFD Toolbox           |
|  \\    /   O peration     | Version:  v1912                                 |
|   \\  /    A nd           | Website:  www.openfoam.com                      |
|    \\/     M anipulation  |                                                 |
\*---------------------------------------------------------------------------*/
FoamFile
{
    version     2.0;
    format      ascii;
    class       volScalarField;
    location    "96.4";
    object      turbulenceProperties:nuTilda;
}
// * * * * * * * * * * * * * * * * * * * * * * * * * * * * * * * * * * * * * //

dimensions      [0 2 -1 0 0 0 0];


internalField   nonuniform List<scalar> 
2528
(
1.39094e-11
6.5326e-12
1.13365e-11
1.77934e-11
2.36862e-11
1.26696e-11
2.08773e-11
3.43656e-11
2.41771e-10
1.1893e-10
1.92535e-10
3.24626e-10
1.67661e-09
7.90243e-10
1.26702e-09
2.07729e-09
6.97105e-09
3.23882e-09
5.11695e-09
8.07585e-09
2.06417e-08
9.71672e-09
1.50044e-08
2.27316e-08
4.82438e-08
2.35213e-08
3.52347e-08
5.13074e-08
9.48177e-08
4.85603e-08
7.02054e-08
9.85914e-08
1.63485e-07
8.85657e-08
1.23245e-07
1.67597e-07
2.54873e-07
1.46284e-07
1.95818e-07
2.58966e-07
3.67467e-07
2.23027e-07
2.87456e-07
3.71296e-07
4.98465e-07
3.18622e-07
3.96266e-07
5.02052e-07
6.44624e-07
4.31793e-07
5.19672e-07
6.48518e-07
8.02912e-07
5.60619e-07
6.55006e-07
8.08493e-07
9.71041e-07
7.02975e-07
8.00172e-07
9.80729e-07
1.1475e-06
8.56765e-07
9.54037e-07
1.16414e-06
1.33071e-06
1.02006e-06
1.11541e-06
1.35757e-06
1.51934e-06
1.19118e-06
1.28324e-06
1.55979e-06
1.71225e-06
1.36867e-06
1.45663e-06
1.76941e-06
1.90844e-06
1.55128e-06
1.63475e-06
1.985e-06
2.10701e-06
1.73796e-06
1.81687e-06
2.20491e-06
2.30715e-06
1.92796e-06
2.00223e-06
2.42747e-06
2.50912e-06
2.12065e-06
2.18999e-06
2.65102e-06
2.71255e-06
2.3156e-06
2.37922e-06
2.87393e-06
2.91694e-06
2.51246e-06
2.56882e-06
3.09716e-06
3.12164e-06
2.711e-06
2.75912e-06
3.32073e-06
3.32597e-06
2.91112e-06
2.95107e-06
3.54371e-06
3.52928e-06
3.11274e-06
3.14443e-06
3.76521e-06
3.73102e-06
3.31597e-06
3.33906e-06
3.98433e-06
3.93083e-06
3.521e-06
3.53464e-06
4.20051e-06
4.12953e-06
3.72814e-06
3.73104e-06
4.41344e-06
4.32692e-06
3.93791e-06
3.92803e-06
4.6229e-06
4.52279e-06
4.15064e-06
4.12573e-06
4.8288e-06
4.71665e-06
4.36585e-06
4.324e-06
5.03104e-06
4.90809e-06
4.58159e-06
4.52268e-06
5.22928e-06
5.09677e-06
4.79791e-06
4.72149e-06
5.42279e-06
5.28239e-06
5.01408e-06
4.92015e-06
5.61041e-06
5.46453e-06
5.22934e-06
5.11825e-06
5.79068e-06
5.64261e-06
5.44278e-06
5.3153e-06
5.96216e-06
5.81596e-06
5.65338e-06
5.51067e-06
6.12354e-06
5.98384e-06
5.86193e-06
5.70366e-06
6.27366e-06
6.14549e-06
6.07203e-06
5.89352e-06
6.4115e-06
6.30008e-06
6.28431e-06
6.07947e-06
6.53618e-06
6.44697e-06
6.49247e-06
6.26069e-06
6.64707e-06
6.58588e-06
6.69315e-06
6.43636e-06
6.74383e-06
6.71691e-06
6.88928e-06
6.60585e-06
6.82632e-06
6.84007e-06
7.08094e-06
6.76903e-06
6.89443e-06
6.95585e-06
7.26723e-06
6.92604e-06
6.94769e-06
7.06465e-06
7.44672e-06
7.07698e-06
6.98509e-06
7.16448e-06
7.61755e-06
7.22228e-06
6.99957e-06
7.25556e-06
7.77743e-06
7.36274e-06
6.99182e-06
7.33852e-06
7.92831e-06
7.49976e-06
6.96264e-06
7.41497e-06
8.08062e-06
7.63472e-06
6.913e-06
7.48421e-06
8.2514e-06
7.76814e-06
6.84401e-06
7.55793e-06
8.46652e-06
7.90023e-06
6.75965e-06
7.65929e-06
8.68834e-06
8.03136e-06
6.64231e-06
7.76643e-06
8.87374e-06
8.1624e-06
6.48913e-06
7.87143e-06
9.04719e-06
8.29387e-06
6.40636e-06
8.00382e-06
9.21907e-06
8.42564e-06
6.39464e-06
8.15486e-06
9.39088e-06
8.5574e-06
6.39857e-06
8.32922e-06
9.56263e-06
8.68824e-06
6.4371e-06
8.53059e-06
9.73425e-06
8.81371e-06
6.51371e-06
8.75579e-06
9.90551e-06
8.93009e-06
6.63291e-06
9.0022e-06
1.00752e-05
9.03393e-06
6.79927e-06
9.267e-06
1.024e-05
9.12279e-06
6.99095e-06
9.5478e-06
1.03953e-05
9.1953e-06
7.18409e-06
9.84373e-06
1.05407e-05
9.25103e-06
7.37366e-06
1.01515e-05
1.0687e-05
9.29017e-06
7.55652e-06
1.04685e-05
1.08565e-05
9.3141e-06
7.72573e-06
1.07913e-05
1.11444e-05
9.32476e-06
7.8865e-06
1.11152e-05
1.14723e-05
9.32399e-06
8.03152e-06
1.14346e-05
1.16948e-05
9.31308e-06
8.16409e-06
1.17437e-05
1.1885e-05
9.29322e-06
8.28697e-06
1.20371e-05
1.20645e-05
9.26423e-06
8.405e-06
1.23107e-05
1.2231e-05
9.22443e-06
8.52183e-06
1.25572e-05
1.23787e-05
9.17193e-06
8.63961e-06
1.27727e-05
1.25028e-05
9.10453e-06
8.76078e-06
1.29533e-05
1.26011e-05
9.02255e-06
8.87982e-06
1.30969e-05
1.26765e-05
8.92756e-06
8.96769e-06
2.74709e-12
2.53473e-12
6.87692e-12
5.98451e-12
6.72548e-12
7.11437e-12
1.79499e-11
1.65134e-11
9.09943e-11
1.01204e-10
2.45966e-10
2.29899e-10
6.62099e-10
7.37974e-10
1.75226e-09
1.63644e-09
2.86928e-09
3.19455e-09
7.36596e-09
6.87749e-09
8.93964e-09
9.92466e-09
2.20556e-08
2.06177e-08
2.21495e-08
2.44794e-08
5.21034e-08
4.88339e-08
4.62617e-08
5.0824e-08
1.03241e-07
9.71301e-08
8.45862e-08
9.22626e-08
1.78787e-07
1.68965e-07
1.39103e-07
1.50487e-07
2.78872e-07
2.64796e-07
2.10067e-07
2.25213e-07
4.0099e-07
3.82478e-07
2.96206e-07
3.14513e-07
5.41241e-07
5.18355e-07
3.95268e-07
4.15536e-07
6.9537e-07
6.68334e-07
5.04594e-07
5.25151e-07
8.59755e-07
8.28578e-07
6.21657e-07
6.40552e-07
1.03228e-06
9.96063e-07
7.44689e-07
7.59819e-07
1.21108e-06
1.16896e-06
8.72557e-07
8.81603e-07
1.39461e-06
1.34586e-06
1.00417e-06
1.00466e-06
1.58166e-06
1.52559e-06
1.13866e-06
1.12802e-06
1.77135e-06
1.70739e-06
1.27532e-06
1.25093e-06
1.96304e-06
1.89076e-06
1.4136e-06
1.37284e-06
2.15634e-06
2.07551e-06
1.55307e-06
1.49336e-06
2.35105e-06
2.26168e-06
1.69336e-06
1.61222e-06
2.54716e-06
2.44954e-06
1.83432e-06
1.72908e-06
2.74483e-06
2.63955e-06
1.9758e-06
1.84351e-06
2.94447e-06
2.82975e-06
2.11768e-06
1.95474e-06
3.14514e-06
3.01887e-06
2.25984e-06
2.06159e-06
3.34556e-06
3.20593e-06
2.40207e-06
2.16266e-06
3.54568e-06
3.38939e-06
2.5442e-06
2.25675e-06
3.74542e-06
3.56759e-06
2.68614e-06
2.34336e-06
3.94477e-06
3.7396e-06
2.82673e-06
2.42282e-06
4.14366e-06
3.90623e-06
2.96583e-06
2.49609e-06
4.34209e-06
4.06999e-06
3.10319e-06
2.56453e-06
4.54009e-06
4.23504e-06
3.23855e-06
2.62903e-06
4.73777e-06
4.40619e-06
3.37168e-06
2.68949e-06
4.93535e-06
4.58759e-06
3.5021e-06
2.74358e-06
5.13317e-06
4.77868e-06
3.6294e-06
2.78905e-06
5.33173e-06
4.97064e-06
3.75296e-06
2.82519e-06
5.52784e-06
5.15387e-06
3.87207e-06
2.85239e-06
5.71868e-06
5.32536e-06
3.98586e-06
2.87116e-06
5.90326e-06
5.4856e-06
4.09333e-06
2.88174e-06
6.08046e-06
5.63547e-06
4.19342e-06
2.88428e-06
6.24895e-06
5.77396e-06
4.28491e-06
2.87903e-06
6.40724e-06
5.89866e-06
4.36664e-06
2.86624e-06
6.55366e-06
6.00746e-06
4.43758e-06
2.84618e-06
6.68687e-06
6.09965e-06
4.49705e-06
2.81909e-06
6.80592e-06
6.17646e-06
4.54505e-06
2.78522e-06
6.90984e-06
6.24169e-06
4.58247e-06
2.74465e-06
6.9978e-06
6.28838e-06
4.61155e-06
2.69731e-06
7.06945e-06
6.3206e-06
4.63752e-06
2.64354e-06
7.12499e-06
6.3529e-06
4.66325e-06
2.58619e-06
7.17046e-06
6.38563e-06
4.68971e-06
2.52868e-06
7.21099e-06
6.41692e-06
4.7172e-06
2.47231e-06
7.24855e-06
6.44066e-06
4.74539e-06
2.41821e-06
7.28461e-06
6.45652e-06
4.77472e-06
2.36908e-06
7.31926e-06
6.46574e-06
4.80719e-06
2.3272e-06
7.35144e-06
6.47118e-06
4.84523e-06
2.29267e-06
7.3802e-06
6.47657e-06
4.88938e-06
2.26362e-06
7.40448e-06
6.48499e-06
4.93949e-06
2.23834e-06
7.42273e-06
6.49856e-06
4.99486e-06
2.21469e-06
7.43338e-06
6.51889e-06
5.05432e-06
2.18924e-06
7.43581e-06
6.54622e-06
5.11541e-06
2.1572e-06
7.43056e-06
6.57258e-06
5.17489e-06
2.11261e-06
7.42048e-06
6.5908e-06
5.22988e-06
2.04933e-06
7.4083e-06
6.60021e-06
5.27806e-06
1.96607e-06
7.39341e-06
6.60099e-06
5.31771e-06
1.86839e-06
7.37615e-06
6.59406e-06
5.34784e-06
1.76696e-06
7.35772e-06
6.58028e-06
5.36693e-06
1.67642e-06
7.33981e-06
6.56101e-06
5.37347e-06
1.61468e-06
7.3248e-06
6.53813e-06
5.3666e-06
1.59935e-06
7.31545e-06
6.51844e-06
5.34557e-06
1.63723e-06
7.31519e-06
6.50768e-06
5.31014e-06
1.71526e-06
7.32772e-06
6.50844e-06
5.26104e-06
1.81096e-06
7.35703e-06
6.52339e-06
5.20014e-06
1.90289e-06
7.40595e-06
6.55228e-06
5.13032e-06
1.97345e-06
7.4765e-06
6.5953e-06
5.05623e-06
2.0088e-06
7.56868e-06
6.65426e-06
4.98349e-06
1.99791e-06
7.68111e-06
6.72763e-06
4.91987e-06
1.9332e-06
7.8097e-06
6.80976e-06
4.87418e-06
1.81661e-06
7.94871e-06
6.89382e-06
8.07768e-12
2.91776e-12
6.67987e-12
1.02448e-11
1.78115e-11
5.32909e-12
1.2531e-11
1.82822e-11
2.25329e-10
6.05025e-11
1.42746e-10
1.9715e-10
1.60194e-09
4.37197e-10
1.01548e-09
1.37111e-09
6.72765e-09
1.89998e-09
4.30775e-09
5.67273e-09
2.00449e-08
5.93911e-09
1.3006e-08
1.66322e-08
4.69362e-08
1.47564e-08
3.09022e-08
3.82795e-08
9.19732e-08
3.08879e-08
6.14229e-08
7.36833e-08
1.57445e-07
5.65816e-08
1.06484e-07
1.23868e-07
2.42961e-07
9.32438e-08
1.66024e-07
1.87665e-07
3.46045e-07
1.41207e-07
2.3829e-07
2.62287e-07
4.63227e-07
1.99842e-07
3.20525e-07
3.44348e-07
5.91553e-07
2.6782e-07
4.10101e-07
4.317e-07
7.29174e-07
3.43591e-07
5.05419e-07
5.22538e-07
8.74515e-07
4.26156e-07
6.05067e-07
6.15488e-07
1.02635e-06
5.14918e-07
7.07924e-07
7.09407e-07
1.18375e-06
6.09458e-07
8.13107e-07
8.0338e-07
1.34601e-06
7.09564e-07
9.1995e-07
8.96689e-07
1.51263e-06
8.15243e-07
1.02793e-06
9.88757e-07
1.68325e-06
9.2616e-07
1.13668e-06
1.07911e-06
1.85766e-06
1.04212e-06
1.24593e-06
1.16739e-06
2.03578e-06
1.16321e-06
1.35546e-06
1.25328e-06
2.21765e-06
1.28969e-06
1.46519e-06
1.3366e-06
2.40351e-06
1.42191e-06
1.57517e-06
1.41724e-06
2.59382e-06
1.56037e-06
1.68563e-06
1.49538e-06
2.78906e-06
1.70549e-06
1.79693e-06
1.57139e-06
2.98959e-06
1.85727e-06
1.90966e-06
1.64419e-06
3.19531e-06
2.01517e-06
2.02412e-06
1.70983e-06
3.40528e-06
2.1785e-06
2.14038e-06
1.76556e-06
3.61829e-06
2.34752e-06
2.25827e-06
1.8124e-06
3.83329e-06
2.52383e-06
2.3771e-06
1.8524e-06
4.05003e-06
2.70902e-06
2.49589e-06
1.88716e-06
4.26851e-06
2.90293e-06
2.61377e-06
1.91752e-06
4.48853e-06
3.10397e-06
2.73044e-06
1.94379e-06
4.70989e-06
3.31149e-06
2.84607e-06
1.96685e-06
4.93194e-06
3.52601e-06
2.96056e-06
1.98815e-06
5.15385e-06
3.74844e-06
3.07361e-06
2.01154e-06
5.37468e-06
3.97925e-06
3.18815e-06
2.04131e-06
5.59333e-06
4.21841e-06
3.3068e-06
2.08023e-06
5.80855e-06
4.46596e-06
3.43005e-06
2.13203e-06
6.01889e-06
4.72182e-06
3.55834e-06
2.20093e-06
6.22279e-06
4.98578e-06
3.69189e-06
2.2864e-06
6.41854e-06
5.25733e-06
3.83079e-06
2.38553e-06
6.60438e-06
5.5356e-06
3.97499e-06
2.49901e-06
6.77868e-06
5.81921e-06
4.12423e-06
2.62815e-06
6.94066e-06
6.10807e-06
4.27813e-06
2.77422e-06
7.09028e-06
6.40342e-06
4.43622e-06
2.9385e-06
7.22662e-06
6.70538e-06
4.59807e-06
3.12187e-06
7.35578e-06
7.01346e-06
4.76363e-06
3.32464e-06
7.52044e-06
7.32698e-06
4.93349e-06
3.547e-06
7.72267e-06
7.6449e-06
5.10357e-06
3.78881e-06
7.91237e-06
7.9656e-06
5.27775e-06
4.04969e-06
8.0872e-06
8.28708e-06
5.47119e-06
4.32882e-06
8.25919e-06
8.6067e-06
5.67134e-06
4.62483e-06
8.42979e-06
8.92139e-06
5.85892e-06
4.9357e-06
8.59864e-06
9.22748e-06
6.04585e-06
5.2588e-06
8.76623e-06
9.52113e-06
6.23763e-06
5.59112e-06
8.93297e-06
9.79862e-06
6.43376e-06
5.92929e-06
9.09917e-06
1.00586e-05
6.63483e-06
6.26965e-06
9.2651e-06
1.02976e-05
6.84054e-06
6.60822e-06
9.431e-06
1.05141e-05
7.04924e-06
6.94084e-06
9.59816e-06
1.07266e-05
7.25733e-06
7.264e-06
9.76857e-06
1.10659e-05
7.45878e-06
7.57443e-06
9.94319e-06
1.15163e-05
7.6478e-06
7.86851e-06
1.01217e-05
1.19207e-05
7.82318e-06
8.14208e-06
1.03022e-05
1.22584e-05
7.98367e-06
8.39425e-06
1.04815e-05
1.25711e-05
8.12844e-06
8.62231e-06
1.06576e-05
1.28713e-05
8.25739e-06
8.82542e-06
1.08281e-05
1.31525e-05
8.37094e-06
9.00398e-06
1.09902e-05
1.34114e-05
8.47024e-06
9.15959e-06
1.1141e-05
1.36443e-05
8.55613e-06
9.29286e-06
1.12773e-05
1.38475e-05
8.62811e-06
9.4045e-06
1.13908e-05
1.40176e-05
8.68512e-06
9.49655e-06
1.14766e-05
1.41519e-05
8.7217e-06
9.57156e-06
1.15305e-05
1.42511e-05
8.73617e-06
9.63165e-06
1.15498e-05
1.43118e-05
8.72868e-06
9.67815e-06
1.15319e-05
1.43225e-05
8.6985e-06
9.71233e-06
1.14786e-05
1.42045e-05
8.64478e-06
9.73631e-06
1.13948e-05
1.41547e-05
8.56749e-06
9.74158e-06
8.85719e-12
1.00056e-11
1.51256e-11
1.34921e-11
1.2884e-11
1.39085e-11
2.44174e-11
1.8614e-11
9.57615e-11
1.03279e-10
2.34313e-10
1.65714e-10
6.39992e-10
6.99534e-10
1.60701e-09
1.16739e-09
2.6754e-09
2.95446e-09
6.6266e-09
4.96408e-09
8.08937e-09
8.99101e-09
1.94616e-08
1.49385e-08
1.94987e-08
2.17453e-08
4.51388e-08
3.52675e-08
3.97657e-08
4.44034e-08
8.81293e-08
6.97445e-08
7.13734e-08
7.9702e-08
1.51176e-07
1.20791e-07
1.15932e-07
1.29401e-07
2.34884e-07
1.89086e-07
1.73989e-07
1.94083e-07
3.38082e-07
2.73812e-07
2.4515e-07
2.73334e-07
4.58568e-07
3.73214e-07
3.28383e-07
3.66078e-07
5.93855e-07
4.85333e-07
4.22344e-07
4.70995e-07
7.42079e-07
6.08926e-07
5.25645e-07
5.87133e-07
9.02258e-07
7.43265e-07
6.37071e-07
7.13856e-07
1.07338e-06
8.87817e-07
7.55779e-07
8.50538e-07
1.25462e-06
1.04231e-06
8.81164e-07
9.96446e-07
1.44525e-06
1.20665e-06
1.01262e-06
1.15064e-06
1.64466e-06
1.38086e-06
1.14962e-06
1.31291e-06
1.85227e-06
1.56497e-06
1.29174e-06
1.48302e-06
2.06746e-06
1.7589e-06
1.43862e-06
1.66029e-06
2.2896e-06
1.96221e-06
1.5892e-06
1.84417e-06
2.51795e-06
2.1739e-06
1.74304e-06
2.03424e-06
2.75165e-06
2.39264e-06
1.89976e-06
2.2299e-06
2.98975e-06
2.6172e-06
2.05892e-06
2.43035e-06
3.23121e-06
2.84671e-06
2.22004e-06
2.63475e-06
3.47498e-06
3.08138e-06
2.3826e-06
2.84217e-06
3.72039e-06
3.32193e-06
2.54605e-06
3.05161e-06
3.96708e-06
3.56888e-06
2.70975e-06
3.26197e-06
4.21474e-06
3.82165e-06
2.87309e-06
3.47207e-06
4.46309e-06
4.07939e-06
3.03546e-06
3.68062e-06
4.71191e-06
4.34111e-06
3.19613e-06
3.8866e-06
4.96031e-06
4.60574e-06
3.35449e-06
4.09027e-06
5.20751e-06
4.87199e-06
3.50987e-06
4.29296e-06
5.45272e-06
5.13842e-06
3.66161e-06
4.49406e-06
5.69515e-06
5.40337e-06
3.80907e-06
4.69286e-06
5.9339e-06
5.66495e-06
3.95164e-06
4.88865e-06
6.16799e-06
5.92122e-06
4.0887e-06
5.08071e-06
6.39644e-06
6.17053e-06
4.21971e-06
5.26833e-06
6.61857e-06
6.4112e-06
4.3442e-06
5.45082e-06
6.83366e-06
6.64142e-06
4.46173e-06
5.62739e-06
7.04103e-06
6.85952e-06
4.57198e-06
5.79709e-06
7.23999e-06
7.06367e-06
4.67475e-06
5.95857e-06
7.4298e-06
7.2519e-06
4.76996e-06
6.11069e-06
7.60974e-06
7.42212e-06
4.85764e-06
6.25283e-06
7.77914e-06
7.57195e-06
4.938e-06
6.38418e-06
7.93715e-06
7.69906e-06
5.01149e-06
6.50371e-06
8.08298e-06
7.80111e-06
5.0787e-06
6.61041e-06
8.21574e-06
7.87611e-06
5.14023e-06
6.7034e-06
8.33444e-06
7.93041e-06
5.19602e-06
6.78207e-06
8.43848e-06
7.96466e-06
5.24546e-06
6.84606e-06
8.52797e-06
7.98049e-06
5.28817e-06
6.89549e-06
8.60303e-06
7.98064e-06
5.32952e-06
6.93091e-06
8.6634e-06
7.96893e-06
5.3698e-06
6.95267e-06
8.70876e-06
7.95057e-06
5.40884e-06
6.96011e-06
8.73855e-06
7.93196e-06
5.44555e-06
6.95203e-06
8.75185e-06
7.92096e-06
5.47887e-06
6.92803e-06
8.74763e-06
7.92488e-06
5.5083e-06
6.88831e-06
8.72456e-06
7.94518e-06
5.53344e-06
6.83388e-06
8.68111e-06
7.98079e-06
5.5539e-06
6.76664e-06
8.61661e-06
8.03125e-06
5.569e-06
6.68967e-06
8.53463e-06
8.09531e-06
5.57925e-06
6.60725e-06
8.43848e-06
8.1711e-06
5.58507e-06
6.52383e-06
8.33218e-06
8.25532e-06
5.58703e-06
6.44117e-06
8.22058e-06
8.34303e-06
5.58522e-06
6.35892e-06
8.10931e-06
8.42841e-06
5.57825e-06
6.276e-06
8.00307e-06
8.50585e-06
5.56572e-06
6.1914e-06
7.9063e-06
8.57046e-06
5.54607e-06
6.10449e-06
7.82439e-06
8.61821e-06
5.51782e-06
6.0151e-06
7.76279e-06
8.64649e-06
5.47907e-06
5.92137e-06
7.72659e-06
8.65628e-06
5.42778e-06
5.82138e-06
7.72022e-06
8.65167e-06
5.365e-06
5.71641e-06
7.74623e-06
8.63764e-06
5.28945e-06
5.60971e-06
7.80555e-06
8.61959e-06
5.2001e-06
5.50598e-06
7.89673e-06
8.60273e-06
5.0962e-06
5.41134e-06
8.01605e-06
8.59169e-06
4.97752e-06
5.33369e-06
8.15875e-06
8.58994e-06
4.84453e-06
5.28238e-06
8.31811e-06
8.60097e-06
4.69833e-06
5.26588e-06
8.48752e-06
8.62238e-06
1.32054e-05
1.27594e-05
8.82296e-06
9.07305e-06
1.32793e-05
1.29201e-05
8.71524e-06
9.17346e-06
1.33312e-05
1.30694e-05
8.60335e-06
9.24584e-06
1.33741e-05
1.3157e-05
8.49135e-06
9.30703e-06
1.3407e-05
1.32402e-05
8.38284e-06
9.35583e-06
1.34333e-05
1.33281e-05
8.28208e-06
9.38288e-06
1.34529e-05
1.34177e-05
8.1928e-06
9.38586e-06
1.34652e-05
1.3504e-05
8.11459e-06
9.36745e-06
1.34628e-05
1.35807e-05
8.04696e-06
9.33312e-06
1.34391e-05
1.36418e-05
7.98922e-06
9.29017e-06
1.33936e-05
1.36824e-05
7.94043e-06
9.24026e-06
1.33248e-05
1.36992e-05
7.89937e-06
9.18209e-06
1.32295e-05
1.36907e-05
7.86537e-06
9.11653e-06
1.31084e-05
1.36576e-05
7.83721e-06
9.04354e-06
1.29684e-05
1.35997e-05
7.81153e-06
8.95872e-06
1.28119e-05
1.35191e-05
7.7861e-06
8.86276e-06
1.26383e-05
1.34188e-05
7.75984e-06
8.75594e-06
1.24444e-05
1.33011e-05
7.73091e-06
8.6384e-06
1.22263e-05
1.31684e-05
7.69277e-06
8.51075e-06
1.19869e-05
1.30223e-05
7.64579e-06
8.37364e-06
1.17283e-05
1.28641e-05
7.59135e-06
8.22785e-06
1.14528e-05
1.26949e-05
7.53073e-06
8.07429e-06
1.11634e-05
1.25132e-05
7.46573e-06
7.91393e-06
1.08631e-05
1.23198e-05
7.39813e-06
7.74781e-06
1.05542e-05
1.21155e-05
7.32944e-06
7.57733e-06
1.02393e-05
1.19006e-05
7.26032e-06
7.40423e-06
9.92068e-06
1.16757e-05
7.18963e-06
7.2299e-06
9.6005e-06
1.1441e-05
7.12044e-06
7.05535e-06
9.28083e-06
1.11963e-05
7.05745e-06
6.8811e-06
8.96359e-06
1.09427e-05
6.9593e-06
6.70483e-06
8.65072e-06
1.0682e-05
6.81785e-06
6.52433e-06
8.3443e-06
1.04139e-05
6.7666e-06
6.33957e-06
8.0457e-06
1.01358e-05
6.74398e-06
6.14896e-06
7.74819e-06
9.84409e-06
6.70218e-06
5.95182e-06
7.44913e-06
9.54013e-06
6.63365e-06
5.74944e-06
7.15024e-06
9.23049e-06
6.53677e-06
5.54305e-06
6.85211e-06
8.92178e-06
6.40907e-06
5.33379e-06
6.5552e-06
8.61915e-06
6.25553e-06
5.12229e-06
6.26092e-06
8.32418e-06
6.07956e-06
4.90588e-06
5.97062e-06
8.03466e-06
5.88373e-06
4.68556e-06
5.68532e-06
7.74621e-06
5.67116e-06
4.46832e-06
5.40581e-06
7.45412e-06
5.44641e-06
4.25834e-06
5.13237e-06
7.15498e-06
5.21339e-06
4.05379e-06
4.86436e-06
6.84715e-06
4.97521e-06
3.85085e-06
4.59576e-06
6.53093e-06
4.73437e-06
3.64724e-06
4.32433e-06
6.20832e-06
4.49292e-06
3.44249e-06
4.06243e-06
5.88213e-06
4.25219e-06
3.23742e-06
3.81909e-06
5.55516e-06
4.01298e-06
3.03356e-06
3.5909e-06
5.22982e-06
3.77243e-06
2.83248e-06
3.36869e-06
4.90784e-06
3.53071e-06
2.63531e-06
3.1453e-06
4.59049e-06
3.29392e-06
2.44252e-06
2.92005e-06
4.27847e-06
3.0669e-06
2.25424e-06
2.69515e-06
3.97224e-06
2.84982e-06
2.07065e-06
2.4715e-06
3.67195e-06
2.63939e-06
1.89191e-06
2.25038e-06
3.37752e-06
2.43128e-06
1.71812e-06
2.03365e-06
3.08906e-06
2.22326e-06
1.54922e-06
1.82305e-06
2.80679e-06
2.01599e-06
1.3856e-06
1.61969e-06
2.53083e-06
1.81129e-06
1.22776e-06
1.42416e-06
2.26145e-06
1.61079e-06
1.07552e-06
1.23675e-06
1.99917e-06
1.41554e-06
9.29025e-07
1.05777e-06
1.74472e-06
1.22621e-06
7.88746e-07
8.87804e-07
1.49908e-06
1.04356e-06
6.55512e-07
7.27823e-07
1.26351e-06
8.68714e-07
5.30479e-07
5.78941e-07
1.0397e-06
7.03285e-07
4.14774e-07
4.43087e-07
8.29843e-07
5.48965e-07
3.10884e-07
3.23364e-07
6.3598e-07
4.08848e-07
2.21562e-07
2.22915e-07
4.623e-07
2.87302e-07
1.48863e-07
1.43804e-07
3.14304e-07
1.88284e-07
9.35012e-08
8.61066e-08
1.96726e-07
1.13829e-07
5.44786e-08
4.75628e-08
1.11561e-07
6.29475e-08
2.92289e-08
2.41174e-08
5.65229e-08
3.16578e-08
1.43175e-08
1.11479e-08
2.52844e-08
1.43988e-08
6.32336e-09
4.62841e-09
9.84527e-09
5.85234e-09
2.46724e-09
1.67302e-09
3.25061e-09
2.06534e-09
8.22751e-10
4.95493e-10
8.63952e-10
5.95627e-10
2.21908e-10
1.07405e-10
1.6715e-10
1.24865e-10
4.39332e-11
1.40961e-11
1.94241e-11
1.55151e-11
5.37725e-12
1.29946e-12
1.24379e-12
1.21724e-12
4.72559e-13
6.49317e-13
5.13012e-13
5.72152e-13
2.91143e-13
4.85698e-06
1.67346e-06
8.09785e-06
6.9803e-06
4.87579e-06
1.55276e-06
8.24491e-06
7.07621e-06
4.93487e-06
1.49503e-06
8.37704e-06
7.14168e-06
5.03413e-06
1.5122e-06
8.48931e-06
7.17608e-06
5.16967e-06
1.59737e-06
8.57851e-06
7.19188e-06
5.33354e-06
1.7357e-06
8.64483e-06
7.19665e-06
5.51806e-06
1.91138e-06
8.69705e-06
7.19326e-06
5.71388e-06
2.11118e-06
8.74239e-06
7.18448e-06
5.91543e-06
2.32499e-06
8.78e-06
7.17235e-06
6.11692e-06
2.54566e-06
8.81036e-06
7.15815e-06
6.31187e-06
2.76722e-06
8.83301e-06
7.14131e-06
6.49768e-06
2.98572e-06
8.84731e-06
7.1167e-06
6.67289e-06
3.19717e-06
8.8546e-06
7.08537e-06
6.83411e-06
3.39975e-06
8.85764e-06
7.05867e-06
6.97565e-06
3.59209e-06
8.85327e-06
7.04355e-06
7.0951e-06
3.77334e-06
8.83267e-06
7.02778e-06
7.1924e-06
3.94418e-06
8.80039e-06
7.00387e-06
7.26971e-06
4.10461e-06
8.76133e-06
6.96949e-06
7.3303e-06
4.25429e-06
8.71323e-06
6.92407e-06
7.37336e-06
4.39307e-06
8.65571e-06
6.8676e-06
7.3991e-06
4.52037e-06
8.58723e-06
6.80054e-06
7.40796e-06
4.63528e-06
8.50688e-06
6.72357e-06
7.40052e-06
4.73833e-06
8.41462e-06
6.63749e-06
7.37736e-06
4.82852e-06
8.31105e-06
6.54319e-06
7.33906e-06
4.90478e-06
8.19738e-06
6.44158e-06
7.28631e-06
4.96583e-06
8.07535e-06
6.3336e-06
7.21989e-06
5.01031e-06
7.94697e-06
6.2201e-06
7.14063e-06
5.03725e-06
7.81468e-06
6.10219e-06
7.04952e-06
5.04801e-06
7.67821e-06
5.98057e-06
6.94806e-06
5.04457e-06
7.53894e-06
5.85535e-06
6.83758e-06
5.02705e-06
7.40023e-06
5.72544e-06
6.71827e-06
4.99583e-06
7.26646e-06
5.59092e-06
6.5894e-06
4.95173e-06
7.13664e-06
5.44855e-06
6.45034e-06
4.89599e-06
7.00786e-06
5.29548e-06
6.30121e-06
4.83011e-06
6.87636e-06
5.13329e-06
6.14211e-06
4.75429e-06
6.73457e-06
4.96352e-06
5.9708e-06
4.66876e-06
6.58073e-06
4.78743e-06
5.78376e-06
4.574e-06
6.41439e-06
4.60619e-06
5.58251e-06
4.47054e-06
6.2361e-06
4.42086e-06
5.36944e-06
4.35903e-06
6.04652e-06
4.23238e-06
5.14673e-06
4.23695e-06
5.84647e-06
4.04158e-06
4.91628e-06
4.10421e-06
5.63683e-06
3.84918e-06
4.67999e-06
3.96216e-06
5.41856e-06
3.65585e-06
4.43961e-06
3.81208e-06
5.19271e-06
3.46216e-06
4.19682e-06
3.65503e-06
4.96041e-06
3.26872e-06
3.95322e-06
3.49219e-06
4.72272e-06
3.07611e-06
3.71018e-06
3.32447e-06
4.4808e-06
2.88485e-06
3.46885e-06
3.15282e-06
4.23587e-06
2.69555e-06
3.23018e-06
2.97813e-06
3.98901e-06
2.5087e-06
2.99499e-06
2.80118e-06
3.74143e-06
2.32482e-06
2.76409e-06
2.6228e-06
3.49409e-06
2.14437e-06
2.53821e-06
2.44356e-06
3.24792e-06
1.96781e-06
2.31802e-06
2.264e-06
3.003e-06
1.79556e-06
2.10421e-06
2.08477e-06
2.75937e-06
1.62768e-06
1.89738e-06
1.90663e-06
2.51772e-06
1.46453e-06
1.6981e-06
1.73049e-06
2.27928e-06
1.3068e-06
1.5069e-06
1.55739e-06
2.04583e-06
1.15481e-06
1.32426e-06
1.3883e-06
1.81905e-06
1.00876e-06
1.15069e-06
1.22401e-06
1.60031e-06
8.69707e-07
9.86674e-07
1.06525e-06
1.39068e-06
7.38543e-07
8.32703e-07
9.12807e-07
1.1911e-06
6.16022e-07
6.8932e-07
7.67547e-07
1.00249e-06
5.0284e-07
5.57221e-07
6.30613e-07
8.25876e-07
3.99564e-07
4.37381e-07
5.03246e-07
6.62354e-07
3.07147e-07
3.30973e-07
3.86764e-07
5.13084e-07
2.26875e-07
2.3939e-07
2.83644e-07
3.80416e-07
1.5983e-07
1.63887e-07
1.96456e-07
2.67108e-07
1.06529e-07
1.05076e-07
1.26996e-07
1.75436e-07
6.66323e-08
6.24166e-08
7.56501e-08
1.06329e-07
3.88074e-08
3.40013e-08
4.09828e-08
5.86352e-08
2.08856e-08
1.68173e-08
1.99165e-08
2.90048e-08
1.02973e-08
7.46352e-09
8.54802e-09
1.2673e-08
4.59465e-09
2.91898e-09
3.17415e-09
4.79563e-09
1.81924e-09
9.75283e-10
9.89384e-10
1.52624e-09
6.18432e-10
2.63563e-10
2.46615e-10
3.89257e-10
1.70651e-10
5.22992e-11
4.51947e-11
7.30456e-11
3.47522e-11
6.61446e-12
5.3884e-12
8.80704e-12
4.65754e-12
8.70235e-13
7.74887e-13
1.08852e-12
8.01043e-13
6.42267e-13
7.70751e-13
9.36038e-13
6.60269e-13
1.12982e-05
1.42433e-05
8.48256e-06
9.78683e-06
1.11989e-05
1.42989e-05
8.38541e-06
9.78201e-06
1.10978e-05
1.43256e-05
8.26645e-06
9.73803e-06
1.1016e-05
1.43317e-05
8.12627e-06
9.67453e-06
1.09545e-05
1.43148e-05
7.96487e-06
9.59799e-06
1.09106e-05
1.42741e-05
7.78554e-06
9.51251e-06
1.08836e-05
1.42092e-05
7.59278e-06
9.42249e-06
1.08774e-05
1.41188e-05
7.3931e-06
9.33215e-06
1.08961e-05
1.40039e-05
7.19318e-06
9.24457e-06
1.09438e-05
1.38641e-05
7.00254e-06
9.16116e-06
1.10323e-05
1.37003e-05
6.84545e-06
9.08235e-06
1.11074e-05
1.35147e-05
6.73498e-06
9.0097e-06
1.11321e-05
1.33123e-05
6.66208e-06
8.93682e-06
1.11342e-05
1.30944e-05
6.62348e-06
8.86733e-06
1.11162e-05
1.28677e-05
6.61689e-06
8.83155e-06
1.10764e-05
1.26363e-05
6.64131e-06
8.79034e-06
1.10137e-05
1.23996e-05
6.70079e-06
8.7279e-06
1.0928e-05
1.21578e-05
6.81269e-06
8.65254e-06
1.08202e-05
1.1911e-05
6.94353e-06
8.56582e-06
1.06917e-05
1.16604e-05
7.0339e-06
8.46744e-06
1.05464e-05
1.14071e-05
7.0936e-06
8.35754e-06
1.03886e-05
1.11523e-05
7.14003e-06
8.23676e-06
1.02293e-05
1.09008e-05
7.17508e-06
8.1057e-06
1.00655e-05
1.06596e-05
7.19757e-06
7.96507e-06
9.89533e-06
1.04303e-05
7.20659e-06
7.82205e-06
9.71808e-06
1.02097e-05
7.20157e-06
7.67161e-06
9.535e-06
9.99513e-06
7.18186e-06
7.50755e-06
9.33854e-06
9.78869e-06
7.14711e-06
7.34663e-06
9.12116e-06
9.59598e-06
7.10023e-06
7.20937e-06
8.90488e-06
9.41434e-06
7.04063e-06
7.07669e-06
8.7328e-06
9.2248e-06
6.97187e-06
6.93304e-06
8.59384e-06
9.01688e-06
6.9107e-06
6.7764e-06
8.44679e-06
8.8082e-06
6.86283e-06
6.61114e-06
8.28469e-06
8.64818e-06
6.80191e-06
6.44118e-06
8.10719e-06
8.52182e-06
6.71808e-06
6.2665e-06
7.91389e-06
8.37928e-06
6.61779e-06
6.08569e-06
7.70789e-06
8.21429e-06
6.50141e-06
5.89858e-06
7.49438e-06
8.02832e-06
6.36896e-06
5.70681e-06
7.2745e-06
7.823e-06
6.22186e-06
5.51166e-06
7.04838e-06
7.5993e-06
6.05997e-06
5.31399e-06
6.81616e-06
7.36222e-06
5.88412e-06
5.11435e-06
6.57892e-06
7.11482e-06
5.69647e-06
4.91291e-06
6.33764e-06
6.85824e-06
5.49893e-06
4.70966e-06
6.09263e-06
6.59311e-06
5.293e-06
4.50457e-06
5.84354e-06
6.32084e-06
5.07997e-06
4.29747e-06
5.59022e-06
6.04294e-06
4.86094e-06
4.08831e-06
5.33111e-06
5.76068e-06
4.63652e-06
3.87708e-06
5.0651e-06
5.47518e-06
4.40736e-06
3.66372e-06
4.7928e-06
5.18724e-06
4.17411e-06
3.44844e-06
4.51517e-06
4.89763e-06
3.93747e-06
3.23146e-06
4.23332e-06
4.60707e-06
3.69804e-06
3.0132e-06
3.94828e-06
4.31612e-06
3.45647e-06
2.79411e-06
3.66126e-06
4.02531e-06
3.21362e-06
2.57485e-06
3.37347e-06
3.73526e-06
2.97025e-06
2.35621e-06
3.08623e-06
3.44605e-06
2.72724e-06
2.13907e-06
2.80096e-06
3.15859e-06
2.48559e-06
1.92399e-06
2.51923e-06
2.87397e-06
2.24645e-06
1.71164e-06
2.2426e-06
2.59324e-06
2.01055e-06
1.50409e-06
1.97283e-06
2.31756e-06
1.77892e-06
1.30325e-06
1.71172e-06
2.04822e-06
1.55324e-06
1.11099e-06
1.46122e-06
1.78662e-06
1.33529e-06
9.29198e-07
1.22345e-06
1.53424e-06
1.12685e-06
7.59669e-07
1.00072e-06
1.2926e-06
9.29724e-07
6.04021e-07
7.95089e-07
1.06362e-06
7.46046e-07
4.64416e-07
6.0922e-07
8.49598e-07
5.77885e-07
3.43071e-07
4.46491e-07
6.53212e-07
4.28196e-07
2.41691e-07
3.10055e-07
4.7772e-07
3.00373e-07
1.61064e-07
2.01913e-07
3.27818e-07
1.9713e-07
1.00678e-07
1.22049e-07
2.07808e-07
1.19509e-07
5.85417e-08
6.78559e-08
1.19648e-07
6.60994e-08
3.14083e-08
3.44337e-08
6.15528e-08
3.29691e-08
1.5409e-08
1.58172e-08
2.78689e-08
1.46521e-08
6.82952e-09
6.48422e-09
1.09223e-08
5.70309e-09
2.68231e-09
2.30324e-09
3.60747e-09
1.88713e-09
9.03555e-10
6.67977e-10
9.54007e-10
5.0262e-10
2.46776e-10
1.41245e-10
1.83021e-10
9.74515e-11
4.95139e-11
1.79318e-11
2.1263e-11
1.15786e-11
6.27251e-12
1.54012e-12
1.66291e-12
1.07306e-12
7.53238e-13
7.55978e-13
9.35494e-13
7.03894e-13
5.27425e-13
4.54259e-06
5.2841e-06
8.65567e-06
8.64747e-06
4.38326e-06
5.33242e-06
8.81326e-06
8.66551e-06
4.21317e-06
5.39841e-06
8.9548e-06
8.67407e-06
4.03171e-06
5.46849e-06
9.07513e-06
8.67333e-06
3.84813e-06
5.54118e-06
9.16905e-06
8.66848e-06
3.67219e-06
5.61597e-06
9.23239e-06
8.66365e-06
3.51414e-06
5.69237e-06
9.26233e-06
8.65992e-06
3.38372e-06
5.7694e-06
9.26143e-06
8.65542e-06
3.28928e-06
5.84545e-06
9.23181e-06
8.64605e-06
3.23738e-06
5.91842e-06
9.17562e-06
8.62541e-06
3.23164e-06
5.98606e-06
9.09551e-06
8.59432e-06
3.26816e-06
6.04643e-06
8.99424e-06
8.55749e-06
3.33472e-06
6.09722e-06
8.87481e-06
8.51854e-06
3.41838e-06
6.13735e-06
8.74036e-06
8.48007e-06
3.50958e-06
6.16581e-06
8.59415e-06
8.44362e-06
3.60253e-06
6.18238e-06
8.43933e-06
8.40883e-06
3.69413e-06
6.18698e-06
8.27894e-06
8.37385e-06
3.78331e-06
6.17975e-06
8.11579e-06
8.33664e-06
3.87008e-06
6.16121e-06
7.96354e-06
8.29542e-06
3.955e-06
6.13162e-06
7.82696e-06
8.2489e-06
4.03847e-06
6.09137e-06
7.70548e-06
8.19606e-06
4.1195e-06
6.0409e-06
7.59448e-06
8.13627e-06
4.19109e-06
5.98067e-06
7.49003e-06
8.06914e-06
4.25512e-06
5.91164e-06
7.38875e-06
7.99451e-06
4.31271e-06
5.83495e-06
7.29015e-06
7.90553e-06
4.36433e-06
5.75196e-06
7.19461e-06
7.80105e-06
4.41015e-06
5.66401e-06
7.10092e-06
7.68197e-06
4.45133e-06
5.57229e-06
7.00725e-06
7.54881e-06
4.49074e-06
5.47819e-06
6.91309e-06
7.40205e-06
4.53442e-06
5.38201e-06
6.82131e-06
7.24519e-06
4.58377e-06
5.28393e-06
6.73597e-06
7.08321e-06
4.62647e-06
5.18476e-06
6.65701e-06
6.91891e-06
4.64151e-06
5.08475e-06
6.57811e-06
6.75405e-06
4.62735e-06
4.98379e-06
6.49205e-06
6.58857e-06
4.59743e-06
4.88067e-06
6.39442e-06
6.42195e-06
4.55376e-06
4.7738e-06
6.28357e-06
6.25337e-06
4.49615e-06
4.66409e-06
6.1579e-06
6.08209e-06
4.42497e-06
4.5528e-06
6.01572e-06
5.90672e-06
4.3398e-06
4.44049e-06
5.85713e-06
5.72519e-06
4.24071e-06
4.32659e-06
5.6842e-06
5.53711e-06
4.13238e-06
4.20974e-06
5.49929e-06
5.34341e-06
4.02317e-06
4.08826e-06
5.30494e-06
5.14499e-06
3.91515e-06
3.96121e-06
5.10367e-06
4.94249e-06
3.80269e-06
3.8284e-06
4.8975e-06
4.73645e-06
3.67914e-06
3.69006e-06
4.68791e-06
4.52746e-06
3.54474e-06
3.54674e-06
4.47595e-06
4.31598e-06
3.40195e-06
3.39895e-06
4.26228e-06
4.10237e-06
3.25173e-06
3.24709e-06
4.04736e-06
3.88699e-06
3.09505e-06
3.09143e-06
3.83155e-06
3.67007e-06
2.93367e-06
2.93215e-06
3.61518e-06
3.45187e-06
2.76906e-06
2.76938e-06
3.39854e-06
3.23258e-06
2.6021e-06
2.60338e-06
3.18177e-06
3.0125e-06
2.43297e-06
2.43441e-06
2.96497e-06
2.7919e-06
2.26159e-06
2.26264e-06
2.74814e-06
2.57103e-06
2.08816e-06
2.08921e-06
2.53131e-06
2.35039e-06
1.91343e-06
1.91494e-06
2.3149e-06
2.13131e-06
1.73835e-06
1.74053e-06
2.09958e-06
1.91527e-06
1.56379e-06
1.56676e-06
1.8867e-06
1.70274e-06
1.39049e-06
1.39445e-06
1.67743e-06