/*--------------------------------*- C++ -*----------------------------------*\
| =========                 |                                                 |
| \\      /  F ield         | OpenFOAM: The Open Source CFD Toolbox           |
|  \\    /   O peration     | Version:  v1912                                 |
|   \\  /    A nd           | Website:  www.openfoam.com                      |
|    \\/     M anipulation  |                                                 |
\*---------------------------------------------------------------------------*/
FoamFile
{
    version     2.0;
    format      ascii;
    class       volScalarField;
    location    "96.4";
    object      turbulenceProperties:epsilon;
}
// * * * * * * * * * * * * * * * * * * * * * * * * * * * * * * * * * * * * * //

dimensions      [0 2 -3 0 0 0 0];


internalField   nonuniform List<scalar> 
2528
(
0.030664
0.0144015
0.0249919
0.0392266
0.00157768
0.000675864
0.00118036
0.0019363
0.00189803
0.000726091
0.00127961
0.00214113
0.00306103
0.00114537
0.00202483
0.00333611
0.00438283
0.00165589
0.00291441
0.00474258
0.00577801
0.00222055
0.00388196
0.00625265
0.00719242
0.00281756
0.00488891
0.00778634
0.00855118
0.00342652
0.00589112
0.00924728
0.0097633
0.00402449
0.00683308
0.0105252
0.0107476
0.00458536
0.00765561
0.0115227
0.011458
0.00508326
0.0083117
0.0121839
0.0118907
0.00549978
0.00877811
0.0125048
0.0120737
0.00582679
0.0090567
0.0125229
0.0120521
0.00606591
0.00916761
0.0122963
0.0118735
0.00622568
0.00913937
0.0118901
0.0115816
0.00631787
0.00900397
0.0113598
0.011208
0.00635502
0.00878622
0.0107525
0.0107783
0.00634856
0.00850733
0.0101072
0.010313
0.0063082
0.00818559
0.00945468
0.00982833
0.006242
0.0078364
0.00881713
0.00933677
0.00615628
0.00747239
0.00821003
0.00884777
0.00605576
0.00710366
0.00764277
0.00836478
0.00594406
0.00673828
0.00711954
0.00789319
0.00582409
0.00638264
0.00664124
0.00743722
0.0056981
0.00604163
0.00620078
0.00700054
0.00556794
0.00571549
0.00579409
0.00658587
0.00543503
0.00540357
0.00541888
0.006195
0.00530052
0.0051072
0.00507263
0.00582852
0.00516513
0.00482695
0.00475283
0.00548607
0.00502934
0.00456297
0.00445669
0.00516514
0.00489339
0.00431481
0.00418157
0.00486452
0.00475721
0.00408197
0.00392513
0.00458295
0.00462104
0.00386332
0.00368537
0.00431951
0.00448601
0.00365802
0.00346075
0.00407329
0.00435453
0.00346527
0.00325023
0.0038433
0.00422675
0.00328429
0.00305329
0.00362856
0.00410337
0.00311442
0.00286981
0.00342807
0.00398482
0.00295504
0.00269974
0.00324101
0.00387139
0.00280564
0.00254291
0.00306663
0.00376368
0.00266573
0.00239891
0.00290425
0.00366081
0.00253487
0.00226716
0.00275329
0.00355895
0.00241262
0.00214698
0.0026133
0.00345413
0.00229861
0.00203764
0.00248394
0.00334777
0.00219243
0.00193836
0.00236465
0.00324337
0.0020937
0.00184835
0.00225486
0.0031443
0.0020019
0.0017668
0.00215393
0.00305307
0.00191638
0.00169299
0.00206097
0.0029709
0.00183652
0.00162647
0.00197518
0.00289851
0.00176169
0.00156709
0.00189637
0.00283673
0.00169129
0.00151601
0.00182361
0.00278783
0.00162466
0.0014726
0.00175645
0.00275397
0.00156107
0.0014359
0.00169508
0.0027326
0.00149986
0.00140482
0.00163529
0.00270549
0.00144068
0.00137937
0.00156147
0.00263337
0.00138343
0.00135619
0.00145745
0.00252187
0.00132816
0.00132549
0.00134814
0.00240753
0.00127488
0.00125464
0.00124501
0.00230591
0.00122353
0.001119
0.00114765
0.00222069
0.00117413
0.000988994
0.00106068
0.00215112
0.00112665
0.000884469
0.000982828
0.00209582
0.00108117
0.000797025
0.000913214
0.00205448
0.00103819
0.000725331
0.000852236
0.00202746
0.000998006
0.000666186
0.000799902
0.00201543
0.000960748
0.000617727
0.000755961
0.00201939
0.000926415
0.000581491
0.00071995
0.00204111
0.000894781
0.000557914
0.000691189
0.00208379
0.000865486
0.000545308
0.000669152
0.00215508
0.000838
0.000542291
0.000653284
0.00225119
0.000811648
0.000548153
0.000643186
0.00228393
0.000785784
0.000561639
0.000638626
0.00221646
0.000760075
0.000582617
0.000639454
0.00213178
0.000734457
0.000610386
0.000645609
0.00206421
0.000709061
0.000644357
0.000657097
0.0020194
0.000684004
0.000683881
0.000673936
0.00199591
0.000659411
0.000728637
0.00069644
0.0019915
0.000635841
0.000779328
0.00072481
0.00200489
0.000614187
0.000837312
0.000759204
0.00203577
0.000595694
0.000901189
0.000799749
0.00208631
0.0005817
0.000965788
0.00605603
0.00558789
0.0151606
0.0131932
0.000438808
0.000464633
0.00117807
0.00108606
0.000682568
0.000760835
0.00187508
0.00176057
0.00112152
0.00125404
0.00306838
0.00288151
0.00161354
0.00180373
0.00439821
0.00412375
0.00214388
0.00239254
0.00582127
0.00544626
0.002709
0.00301357
0.00730291
0.00681912
0.00330118
0.00365342
0.00877648
0.00818561
0.00390289
0.00428709
0.0101467
0.00946342
0.00448716
0.00488073
0.0113207
0.0105689
0.00502368
0.00540061
0.0122392
0.0114451
0.00548679
0.00582219
0.0128873
0.0120734
0.00586077
0.0061338
0.013286
0.0124674
0.00614109
0.00633716
0.0134731
0.0126593
0.00633182
0.00644245
0.0134941
0.012687
0.00644302
0.00646493
0.0133824
0.0125863
0.00648572
0.00641917
0.0131655
0.0123844
0.00646872
0.00631666
0.0128665
0.0121021
0.00640051
0.00616773
0.0125046
0.0117562
0.0062892
0.00598159
0.0120952
0.0113603
0.00614239
0.00576644
0.0116508
0.0109254
0.00596683
0.00552938
0.011181
0.0104605
0.00576862
0.00527653
0.0106935
0.00997271
0.0055528
0.00501358
0.0101943
0.00946819
0.00532393
0.00474602
0.00968769
0.00896021
0.00508609
0.00447976
0.00918172
0.00845682
0.00484311
0.00422093
0.00868319
0.00796395
0.00459851
0.00397507
0.00819429
0.00748864
0.0043553
0.00374552
0.00771722
0.00703689
0.00411597
0.00353187
0.00725381
0.00661099
0.00388397
0.00332952
0.0068059
0.00620726
0.00366049
0.00313065
0.0063749
0.00581648
0.00344655
0.00292703
0.00596188
0.00542631
0.0032429
0.00271506
0.00556748
0.00502642
0.00304994
0.00249887
0.00519197
0.00461485
0.00286813
0.00228907
0.00483538
0.00420374
0.00269765
0.0020944
0.00449746
0.00381589
0.0025386
0.00191741
0.00418076
0.00346805
0.00239101
0.00175706
0.00388645
0.0031625
0.00225477
0.00161191
0.00361383
0.00289383
0.00212961
0.00148057
0.00336227
0.00265583
0.00201514
0.00136165
0.0031311
0.0024446
0.00191075
0.00125393
0.00291967
0.00225772
0.00181559
0.00115637
0.0027272
0.00209281
0.00172843
0.0010682
0.00255264
0.0019459
0.00164746
0.000988925
0.00239461
0.0018095
0.00157022
0.00091817
0.0022516
0.00167202
0.00149346
0.000854958
0.00212193
0.00153177
0.00141354
0.000797221
0.00200356
0.00139734
0.00132722
0.000742014
0.00189405
0.00127616
0.00123485
0.000687815
0.0017894
0.00116632
0.00114017
0.000636016
0.00168635
0.00106512
0.00104824
0.000588876
0.0015837
0.00097378
0.000963388
0.000547544
0.00148219
0.000891323
0.00088702
0.000512393
0.00138436
0.000816126
0.000817912
0.000483289
0.00129282
0.000747833
0.000755024
0.000459641
0.00120761
0.000686394
0.000697955
0.000440578
0.00112817
0.000631433
0.000646214
0.000425229
0.0010548
0.000582502
0.00059934
0.00041239
0.000987808
0.000539116
0.000556898
0.000400198
0.000927302
0.000500962
0.000518575
0.000386145
0.00087314
0.000468687
0.000484102
0.000367475
0.000824858
0.000442597
0.000453123
0.000342663
0.000781999
0.00042219
0.000425291
0.000312905
0.000744365
0.000407048
0.000400263
0.000281035
0.000711559
0.000396868
0.000377694
0.000250273
0.000683038
0.0003915
0.000357368
0.000223704
0.000658142
0.000390949
0.000339112
0.000204236
0.000636132
0.00039533
0.000322842
0.000194056
0.000616249
0.000404599
0.000308523
0.000193406
0.000597792
0.000418861
0.000296196
0.000200019
0.000580231
0.000438463
0.000285997
0.000210636
0.000563393
0.000463719
0.000278138
0.000222166
0.000547615
0.00049506
0.000272949
0.000231832
0.000533607
0.00053266
0.000270885
0.000236997
0.000522328
0.000576051
0.000272611
0.000235136
0.000514751
0.000624565
0.000279017
0.000224033
0.000511856
0.000677184
0.000291249
0.000203249
0.000514554
0.000731645
0.0178077
0.00643229
0.0147262
0.0225853
0.00116951
0.000346551
0.000820757
0.00120025
0.00171831
0.000450872
0.00108185
0.00150603
0.00281083
0.000735395
0.00176141
0.00242353
0.00404839
0.00106445
0.00254384
0.00347243
0.00538715
0.00142851
0.00340214
0.00460561
0.0067925
0.00182824
0.00432292
0.00579065
0.00819963
0.00226146
0.00527502
0.00696899
0.00951807
0.00271875
0.00620663
0.00806003
0.0106583
0.00318295
0.00705687
0.00898309
0.0115586
0.00363209
0.00777284
0.0096805
0.0121951
0.0040443
0.00832224
0.010125
0.0125816
0.00440257
0.0086981
0.0103408
0.0127516
0.0046958
0.00891587
0.0103487
0.0127358
0.00492341
0.00898968
0.0101744
0.0125653
0.00508821
0.00893669
0.00984875
0.0122697
0.00519365
0.00877566
0.00940319
0.0118769
0.00524425
0.00852591
0.00886826
0.0114114
0.00524523
0.00820607
0.0082722
0.0108944
0.00520511
0.00783337
0.00764002
0.0103439
0.00513129
0.00742314
0.00699309
0.00977412
0.0050294
0.00698901
0.00634907
0.00919648
0.00490419
0.00654216
0.00572182
0.00861911
0.00475953
0.00609147
0.00512133
0.00804803
0.00459881
0.00564367
0.00455321
0.0074886
0.00442622
0.00520382
0.00401919
0.00694678
0.00424798
0.00477544
0.0035231
0.00643037
0.00407158
0.00436248
0.00307312
0.00594828
0.00390278
0.00396942
0.00267189
0.00550722
0.00374256
0.00360157
0.00231641
0.00510936
0.00358825
0.00326432
0.00200609
0.0047523
0.00343778
0.00296154
0.00174055
0.00443192
0.00329317
0.00269361
0.00151587
0.00414384
0.00315891
0.0024571
0.00132418
0.0038844
0.00303753
0.00224785
0.00115988
0.00365102
0.00292856
0.00206296
0.00101976
0.00344168
0.00282996
0.00190047
0.000900207
0.00325458
0.00274004
0.00175682
0.000798277
0.00308809
0.00265774
0.00162947
0.000711938
0.00294075
0.00258236
0.00151727
0.000638956
0.00281121
0.00251333
0.00141911
0.000577454
0.00269829
0.00245027
0.00133386
0.000527399
0.00260094
0.00239297
0.00126049
0.000488492
0.00251831
0.0023414
0.00119798
0.000458963
0.00244994
0.00229576
0.00114532
0.000437053
0.00239602
0.00225588
0.00110157
0.000421255
0.00235614
0.00222133
0.00106575
0.000410268
0.00232413
0.00219216
0.00103691
0.000402918
0.00227456
0.00216864
0.00101429
0.00039815
0.00217152
0.00215115
0.000996924
0.000395125
0.00203103
0.00214017
0.000982708
0.000393242
0.00190356
0.00213623
0.000963735
0.000392168
0.00179361
0.00213998
0.000929975
0.000391775
0.00169114
0.00215219
0.000886824
0.00039208
0.00159314
0.00217383
0.0008453
0.000393135
0.00149975
0.00220611
0.000806883
0.000394995
0.00141143
0.00225047
0.000771449
0.000397714
0.00132833
0.00230889
0.000739534
0.000401355
0.00125039
0.00238441
0.000711556
0.000406006
0.0011775
0.00248181
0.000687755
0.000411782
0.0011095
0.00259999
0.000668252
0.000418825
0.00104614
0.00272957
0.000653149
0.000427281
0.000987186
0.00280305
0.000642661
0.000437319
0.000932546
0.00275824
0.000636812
0.000449136
0.000882221
0.00267556
0.00063514
0.000462996
0.000836296
0.00260255
0.000637138
0.000479031
0.000794912
0.00253768
0.000642185
0.000497524
0.000758084
0.00247753
0.000649434
0.0005187
0.000725834
0.00242305
0.00065767
0.000542753
0.000698198
0.00237653
0.000665116
0.000569857
0.000675222
0.00234012
0.000669342
0.000600239
0.000656999
0.00231584
0.00066749
0.000634154
0.000643964
0.00230579
0.000657427
0.000671719
0.000636401
0.00231265
0.000640252
0.000712897
0.00063468
0.00234047
0.000618751
0.000757375
0.000639263
0.00239406
0.000595548
0.00080462
0.000650849
0.00246893
0.000572545
0.000853694
0.00067015
0.00253271
0.000551
0.000908595
0.000698166
0.00246816
0.000531897
0.000963362
0.0195262
0.0220578
0.0333452
0.029744
0.000775812
0.000861986
0.00159686
0.00132771
0.000685429
0.000763291
0.00178766
0.00140347
0.00106282
0.00118989
0.00285176
0.00223504
0.0015155
0.00169941
0.00408239
0.00317142
0.00200765
0.00225483
0.00540198
0.00416153
0.00252838
0.0028455
0.00676175
0.00519138
0.00306402
0.00345462
0.00809219
0.0062259
0.00359333
0.00405423
0.00930534
0.00720658
0.00408923
0.00460916
0.0103181
0.00806723
0.00452438
0.00508586
0.0110762
0.00875372
0.0048775
0.00545931
0.0115648
0.00923657
0.00513727
0.00571783
0.0118028
0.0095112
0.00530285
0.00586248
0.0118292
0.00959948
0.0053815
0.00590546
0.0116892
0.00952991
0.00538525
0.00586374
0.0114198
0.00933
0.00532798
0.00575522
0.0110545
0.00902673
0.00522297
0.00559806
0.0106222
0.00864589
0.00508169
0.00540996
0.0101471
0.00821121
0.00491415
0.00520311
0.00964886
0.00774377
0.00472884
0.00498818
0.0091431
0.00726238
0.00453264
0.00477388
0.00864151
0.00678373
0.00433334
0.00456536
0.00815287
0.0063222
0.00413515
0.00436579
0.00768336
0.00588831
0.00394087
0.00417692
0.00723702
0.00548744
0.00375235
0.00399985
0.00681619
0.00512043
0.00357071
0.00383499
0.0064218
0.00478412
0.00339657
0.00368228
0.00605301
0.00447469
0.00323009
0.00354141
0.00570817
0.00418896
0.00307129
0.0034118
0.00538538
0.00392529
0.00291993
0.00329293
0.00508275
0.00368203
0.00277574
0.00318415
0.00479837
0.00345748
0.00263844
0.00308452
0.00453113
0.00325002
0.00250773
0.00299219
0.00427975
0.00305822
0.00238331
0.00290487
0.00404306
0.00288082
0.00226491
0.00282197
0.00381986
0.00271673
0.00215224
0.00274294
0.00360912
0.00256499
0.00204507
0.00266726
0.00340997
0.00242471
0.00194318
0.00259444
0.00322153
0.00229493
0.00184634
0.00252396
0.00304295
0.00217481
0.00175442
0.00245534
0.00287343
0.00206361
0.00166726
0.00238814
0.00271234
0.00196066
0.00158476
0.0023221
0.00255908
0.00186538
0.00150686
0.00225714
0.00241317
0.00177729
0.00143354
0.00219318
0.00227421
0.00169602
0.00136478
0.00212997
0.00214188
0.0016212
0.00130063
0.00206733
0.00201595
0.00155255
0.00124114
0.00200517
0.00189626
0.00148973
0.00118638
0.00194336
0.00178267
0.00143239
0.00113625
0.00188173
0.00167512
0.00137873
0.00109027
0.00182001
0.00157348
0.00132816
0.00104755
0.00175784
0.00147752
0.00127995
0.00100696
0.00169475
0.001387
0.00123319
0.000966343
0.00163025
0.00130159
0.00118687
0.000924656
0.00156416
0.00122084
0.0011398
0.000881274
0.00149706
0.00114434
0.00109075
0.000836269
0.00143012
0.00107176
0.00103867
0.000790176
0.00136452
0.00100286
0.00098334
0.000743616
0.00130124
0.000937497
0.000926257
0.000697225
0.00124112
0.000875631
0.000869376
0.000651595
0.00118492
0.000817223
0.000814274
0.000607303
0.00113341
0.000762023
0.000762204
0.000564737
0.00108733
0.000710011
0.00071412
0.000524244
0.00104703
0.000661204
0.00067072
0.000486079
0.00101201
0.000615667
0.000632503
0.000450469
0.000981178
0.000573485
0.000599732
0.000417656
0.000953079
0.000535078
0.000572409
0.000387712
0.000926031
0.000500996
0.00055038
0.000360683
0.00089811
0.000471604
0.000533377
0.000336541
0.000867427
0.000447179
0.000521067
0.000315195
0.000833549
0.000427884
0.000512968
0.000296532
0.000797985
0.000413732
0.00050852
0.000280221
0.000762647
0.000404579
0.000507211
0.000266063
0.000729237
0.000400124
0.000508595
0.000253833
0.000699213
0.000399988
0.000512357
0.000243282
0.000673785
0.000403803
0.000518329
0.000234157
0.000653914
0.000411242
0.000526511
0.000226193
0.000640209
0.000422086
0.000536989
0.000219138
0.000632427
0.000436181
0.000550254
0.000845999
0.00213957
0.000573237
0.00101267
0.000897348
0.00211989
0.000570804
0.00103748
0.000952167
0.00202334
0.000575064
0.0010597
0.00100879
0.00191468
0.000586163
0.0010868
0.00106645
0.00181315
0.000604112
0.00111948
0.00112399
0.00172339
0.000628739
0.00115543
0.00118064
0.00164517
0.000659853
0.00119345
0.00123575
0.00157897
0.00069759
0.00123283
0.00128949
0.00152548
0.000742076
0.00127269
0.0013422
0.00148504
0.000793403
0.0013118
0.00139383
0.00145767
0.000851649
0.00134961
0.00144461
0.00144317
0.000916812
0.00138597
0.00149514
0.00144124
0.000988619
0.00142049
0.0015457
0.00145148
0.00106692
0.00145302
0.00159593
0.00147377
0.00115209
0.00148437
0.00164589
0.00150786
0.00124446
0.00151491
0.00169605
0.00155362
0.00134451
0.00154524
0.00174725
0.00161099
0.0014532
0.0015761
0.00180061
0.00168
0.00157281
0.00160811
0.00185633
0.00176082
0.00170475
0.00164181
0.00191479
0.00185368
0.00185071
0.00167768
0.00197638
0.00195879
0.0020128
0.00171613
0.00204139
0.00207687
0.00219327
0.00175751
0.00211023
0.00220828
0.00239465
0.00180212
0.00218338
0.00235347
0.00262019
0.00185012
0.00226142
0.00251286
0.00287505
0.00190151
0.00234506
0.00268686
0.00316948
0.00195631
0.00243508
0.00287599
0.00351396
0.00201448
0.00253242
0.00308171
0.00390112
0.00207612
0.00263814
0.0033049
0.0043294
0.00214225
0.00275347
0.00354553
0.00471301
0.00221424
0.00287956
0.00380559
0.00479961
0.00229309
0.00301735
0.00408963
0.00470864
0.00238069
0.00317055
0.00440296
0.00461224
0.00247875
0.00334192
0.00474517
0.00454977
0.00258797
0.00353282
0.00510861
0.00452178
0.00270914
0.00374535
0.00548374
0.00452813
0.00284329
0.0039821
0.0058616
0.00456807
0.00299078
0.00424531
0.00623797
0.0046435
0.00315093
0.0045375
0.00661545
0.00475636
0.00332068
0.0048618
0.00700215
0.00490807
0.00349492
0.00522274
0.00740861
0.0050991
0.00367409
0.00562589
0.00784471
0.00533034
0.00386407
0.00607167
0.00831822
0.00560348
0.0040718
0.00654848
0.00883411
0.00592127
0.00430166
0.00702306
0.0093944
0.00628808
0.00455551
0.00744812
0.00999862
0.0067094
0.00483318
0.00781493
0.0106447
0.0071869
0.00513278
0.00815883
0.0113294
0.0077137
0.0054513
0.00851774
0.0120489
0.00827005
0.00578491
0.00891245
0.0127991
0.00882182
0.00612905
0.00934707
0.0135754
0.00935107
0.00647812
0.00981483
0.0143718
0.00986476
0.0068249
0.0103053
0.0151816
0.0103799
0.00716051
0.0108021
0.0159963
0.0109081
0.00747474
0.0112805
0.0168048
0.0114435
0.00775668
0.0117133
0.0175924
0.0119631
0.00799203
0.0120732
0.0183404
0.0124359
0.00816417
0.0123345
0.0190249
0.0128308
0.00826026
0.0124727
0.0196164
0.0131184
0.00826748
0.012465
0.0200792
0.0132708
0.00817434
0.0122904
0.0203724
0.0132607
0.00797152
0.011931
0.0204505
0.0130626
0.00765182
0.0113684
0.0202648
0.0126534
0.0072049
0.0105926
0.019763
0.0120054
0.00663706
0.00962032
0.0188724
0.0111062
0.0059705
0.00849825
0.0175433
0.0099778
0.00524327
0.00729819
0.0157826
0.0086841
0.00450163
0.00610076
0.0136869
0.00731978
0.00378911
0.00497467
0.0114374
0.00598406
0.00313638
0.00396277
0.00923865
0.00475378
0.00255716
0.00308242
0.00724382
0.00367064
0.00205057
0.0023351
0.00551712
0.00274921
0.00160741
0.0017161
0.00405507
0.00199118
0.00121603
0.00121767
0.00282878
0.00139025
0.00086798
0.000826229
0.00181405
0.000928719
0.000563147
0.000528613
0.00101278
0.000581097
0.000317515
0.000498683
0.00060599
0.000487262
0.000243297
0.0112853
0.0089163
0.00994418
0.00506015
0.000310475
0.000177311
0.000523138
0.000781306
0.000337379
0.000154461
0.000538295
0.000814206
0.000372059
0.000139589
0.000560587
0.000831461
0.000414674
0.000133245
0.00059033
0.000844969
0.000465041
0.0001341
0.000627898
0.000862018
0.000522611
0.000140433
0.000673481
0.000885454
0.000586256
0.00015087
0.000726016
0.000915892
0.000654657
0.00016456
0.000784638
0.000953594
0.000726014
0.000181148
0.00084974
0.000998569
0.000798784
0.000200611
0.000921359
0.00105065
0.000871278
0.000223215
0.000999526
0.00110909
0.000941766
0.000249321
0.00108398
0.00117328
0.00101013
0.000279129
0.00117523
0.0012395
0.00107729
0.000312832
0.00127491
0.00129511
0.00114455
0.000350975
0.00138133
0.0013308
0.00121279
0.000393996
0.00148622
0.00135331
0.00128239
0.000442062
0.0015807
0.00137224
0.00135331
0.000495297
0.00166517
0.00139262
0.00142513
0.000553804
0.00174484
0.00141605
0.00149811
0.000617617
0.00182239
0.00144259
0.00157234
0.000686782
0.00189959
0.00147218
0.00164778
0.000761412
0.00197773
0.00150464
0.00172436
0.00084139
0.00205765
0.00153958
0.00180189
0.000926854
0.00214015
0.00157648
0.00188004
0.00101804
0.00222593
0.00161466
0.00195842
0.00111528
0.00231559
0.00165337
0.00203645
0.00121901
0.0024096
0.00169177
0.00211348
0.00132948
0.00250833
0.00172891
0.00218858
0.00144573
0.00261309
0.00176419
0.00226056
0.00156644
0.00272499
0.00179765
0.00232832
0.00169114
0.0028444
0.00183009
0.00239169
0.00181908
0.00297025
0.00186205
0.00245142
0.00194907
0.00310185
0.00189525
0.00250851
0.00207981
0.00323875
0.00193153
0.00256373
0.0022108
0.00338115
0.00197124
0.00261783
0.00234312
0.00353184
0.00201482
0.00267265
0.00247825
0.00369158
0.00206273
0.00273084
0.00261755
0.00386089
0.00211552
0.00279322
0.00276208
0.00404002
0.00217376
0.00286014
0.00291269
0.00422944
0.00223804
0.00293222
0.00307234
0.00442974
0.00230889
0.00301015
0.00324281
0.0046417
0.0023868
0.0030948
0.003425
0.00486625
0.00247223
0.00318719
0.00361983
0.00510449
0.00256566
0.00328856
0.00382831
0.00535758
0.00266761
0.00340031
0.00405135
0.00562698
0.00277859
0.0035239
0.00429001
0.00591407
0.00289914
0.00366056
0.00454515
0.0062204
0.00302965
0.00381123
0.00481752
0.00654773
0.00317044
0.00397659
0.00510771
0.00689771
0.00332163
0.00415703
0.00541613
0.00727207
0.00348299
0.00435266
0.00574312
0.00767221
0.00365372
0.00456329
0.00608847
0.0081005
0.00383242
0.00478811
0.00645033
0.00855882
0.00401651
0.00502548
0.00682378
0.00904368
0.00420186
0.00527268
0.00720027
0.00954731
0.0043822
0.00552521
0.00756737
0.0100562
0.00455088
0.00577572
0.00790954
0.0105528
0.00470072
0.00601287
0.00820903
0.0110155
0.00481993
0.0062206
0.00844625
0.0114189
0.00489564
0.00637802
0.00860001
0.0117333
0.00491475
0.00646086
0.00864822
0.0119257
0.00486468
0.00644423
0.00856834
0.0119612
0.00473324
0.00630509
0.00834167
0.0118032
0.00451316
0.00602916
0.00794935
0.0114126
0.0042064
0.00561566
0.00739225
0.0107687
0.00382532
0.00508188
0.00669169
0.00988067
0.00339246
0.00446382
0.00589196
0.00879703
0.00293633
0.00380921
0.00505311
0.0076027
0.00248518
0.0031653
0.00423547
0.00639688
0.00206102
0.00256724
0.00348222
0.00526137
0.00167658
0.00203315
0.00281003
0.00423888
0.00133605
0.0015671
0.00221233
0.00333105
0.00103812
0.00116557
0.00167122
0.00251606
0.000779318
0.000823357
0.00117453
0.0017752
0.000556418
0.000538151
0.000732982
0.00111871
0.000369097
0.000323666
0.000397291
0.000610171
0.00023257
0.000388815
0.00045784
0.000608253
0.000361152
0.0111628
0.0133959
0.0162686
0.0114757
0.00073513
0.00228549
0.000515155
0.000980473
0.000781305
0.00212808
0.000501762
0.000973838
0.000836678
0.00199897
0.000492735
0.000970619
0.000899716
0.00188114
0.000488476
0.000978547
0.000970621
0.00177176
0.000489624
0.00099884
0.00104945
0.0016722
0.000496838
0.00103121
0.0011354
0.00158401
0.000510982
0.00107535
0.00122709
0.00150821
0.000533095
0.00113085
0.00133558
0.00144522
0.0005645
0.00119695
0.00147579
0.00139535
0.000606584
0.00127226
0.00159936
0.00135872
0.000658707
0.00135495
0.00166091
0.00133529
0.000720264
0.00144364
0.00170268
0.00132481
0.000793278
0.00154506
0.00175155
0.00132745
0.00087851
0.00165542
0.00181302
0.00134298
0.000975577
0.00172967
0.00188708
0.00137147
0.00108348
0.00176382
0.00197326
0.00141356
0.00121473
0.00179108
0.00207126
0.00147
0.001375
0.00182896
0.00218047
0.00154173
0.00151504
0.00188119
0.00230026
0.00162973
0.00161162
0.00194746
0.00243
0.00173514
0.00169615
0.00202736
0.00256969
0.00185926
0.00179088
0.00212071
0.00271875
0.00200266
0.00190129
0.00222696
0.00287964
0.00216484
0.0020279
0.00234531
0.00305367
0.00234603
0.00217076
0.00247409
0.00324154
0.00254756
0.00233
0.00261953
0.00344515
0.00277049
0.00250503
0.00278751
0.00367963
0.00301327
0.00269483
0.00294995
0.0039667
0.00327202
0.00289915
0.00306309
0.00427969
0.0035509
0.00313285
0.00313473
0.00452993
0.00388318
0.00340933
0.00319778
0.00468795
0.00431081
0.00367952
0.00327126
0.00480626
0.00479469
0.00387227
0.00335668
0.00493062
0.00518111
0.00399851
0.00345069
0.0050737
0.00542099
0.00410716
0.00355166
0.00523682
0.00560328
0.00422484
0.0036596
0.00541656
0.00579315
0.00435789
0.00377431
0.0056084
0.00600925
0.00450619
0.00389456
0.0058107
0.00625369
0.00466813
0.00401919
0.0060227
0.00652615
0.00484432
0.00414718
0.00624373
0.00682412
0.00503524
0.00427769
0.00647234
0.00714668
0.00524023
0.00441012
0.00670732
0.00749472
0.0054587
0.0045441
0.0069484
0.00786985
0.00569022
0.00467937
0.00719647
0.00827269
0.00593455
0.00481587
0.00745251
0.00870333
0.00619158
0.00495358
0.00771969
0.00916196
0.00646192
0.00509267
0.00800113
0.00964871
0.00674614
0.00523346
0.00829798
0.0101638
0.00704477
0.0053762
0.00861066
0.0107073
0.00735806
0.00552103
0.0089391
0.0112789
0.00768622
0.00566788
0.00928324
0.0118781
0.00802935
0.00581631
0.00964206
0.012504
0.00838667
0.00596534
0.010014
0.013155
0.00875679
0.00611314
0.010396
0.0138302
0.00913687
0.00625681
0.0107831
0.014525
0.00952192
0.00639359
0.0111675
0.0152314
0.00990405
0.00651993
0.0115384
0.0159379
0.0102747
0.00662641
0.0118802
0.016628
0.0106218
0.00670165
0.0121723
0.0172786
0.0109269
0.00673243
0.0123882
0.0178591
0.0111663
0.00670439
0.0124961
0.0183302
0.0113116
0.00660327
0.0124605
0.0186455
0.0113295
0.0064147
0.0122442
0.0187472
0.0111852
0.00612921
0.0118117
0.0185684
0.0108412
0.00574388
0.0111395
0.0180364
0.0102717
0.00526613
0.0102277
0.017079
0.00947302
0.0047155
0.00911078
0.0156718
0.00847398
0.00412174
0.00785798
0.0138637
0.00734003
0.00351881
0.00655883
0.0117926
0.00615934
0.0029372
0.00529951
0.00965305
0.0050173
0.0023984
0.00414523
0.00762738
0.00397306
0.00191343
0.00313513
0.00582566
0.00305373
0.00148502
0.00228774
0.0042815
0.00226161
0.00111141
0.00160547
0.00298439
0.0015889
0.000789611
0.00107437
0.00191527
0.00102866
0.000518632
0.000673959
0.00108316
0.000593277
0.000310466
0.000600706
0.00080253
0.000519257
0.000338461
0.0131391
0.0162592
0.0122339
0.00916681
0.000212819
0.000628262
0.000453457
0.000566793
0.000207171
0.000622913
0.000473622
0.000586793
0.000202772
0.000614421
0.000496252
0.000609736
0.000199974
0.000604142
0.000521269
0.000635218
0.000198886
0.000593276
0.0005487
0.000662522
0.000199789
0.000583087
0.000578658
0.000691032
0.000203088
0.000574724
0.000611294
0.000720478
0.000209275
0.000569152
0.00064655
0.000751019
0.000218862
0.000567101
0.000684488
0.000783258
0.000232362
0.000569075
0.000725274
0.000818294
0.000250278
0.000575368
0.000769204
0.000856834
0.000272652
0.000586117
0.000816687
0.000899331
0.00029893
0.000601394
0.000868302
0.000946391
0.000328706
0.000621147
0.000924796
0.000998733
0.000361982
0.000645312
0.000987133
0.00105706
0.000399087
0.000673785
0.00105648
0.00112176
0.00044064
0.000706499
0.00113424
0.00119294
0.000487496
0.000743434
0.00122207
0.00127059
0.000540654
0.000784589
0.00131998
0.0013548
0.000601219
0.000830094
0.00142816
0.00144568
0.000670292
0.000880142
0.00154666
0.00154345
0.000749139
0.000935046
0.00167624
0.0016484
0.000840266
0.000995221
0.00181755
0.00176094
0.000944809
0.00106115
0.00197115
0.00188163
0.0010638
0.0011334
0.00213638
0.00201292
0.00119789
0.00121258
0.00231167
0.0021565
0.00134725
0.00129945
0.00249587
0.00231399
0.00151198
0.00139489
0.0026896
0.00248788
0.00170269
0.00149989
0.00289491
0.0026819
0.00193483
0.00161597
0.00310718
0.00289808
0.00218776
0.00174487
0.00331192
0.00313533
0.00240416
0.00188839
0.003498
0.00339089
0.00256542
0.00204904
0.00366788
0.00366118
0.00270841
0.00222934
0.00383283
0.00394318
0.00286957
0.00243144
0.00400391
0.00423456
0.00305884
0.0026577
0.00418789
0.0045335
0.00327783
0.00290759
0.00438941
0.00483843
0.0035266
0.00317604
0.00461357
0.00514854
0.00381122
0.00345817
0.0048644
0.00546435
0.00414078
0.00375172
0.00514395
0.00578511
0.00450278
0.00405721
0.00545303
0.006109
0.00485166
0.00437675
0.00579096
0.00643439
0.00514898
0.00471205
0.00615583
0.0067602
0.00540183
0.00506334
0.00654533
0.00708526
0.00564489
0.00542941
0.00695729
0.00740813
0.00590853
0.00580788
0.00738962
0.00772692
0.00620027
0.0061961
0.00784029
0.00803956
0.00651924
0.00659158
0.00830687
0.00834337
0.00686295
0.0069923
0.00878612
0.00863542
0.00722129
0.00739669
0.00927388
0.00891241
0.0075824
0.00780337
0.00976543
0.00917074
0.00793662
0.00821047
0.010256
0.0094064
0.008279
0.0086151
0.0107411
0.00961504
0.0086064
0.00901284
0.0112163
0.00979166
0.00891377
0.00939433
0.0116754
0.00993045
0.00919115
0.00974956
0.01211
0.0100223
0.00942471
0.0100674
0.0125084
0.0100566
0.00959938
0.0103354
0.0128527
0.0100271
0.00970061
0.0105393
0.0131229
0.00992775
0.00971483
0.0106633
0.0132992
0.00975237
0.0096292
0.0106899
0.0133611
0.00949479
0.0094315
0.010601
0.0132864
0.00914662
0.00911095
0.0103777
0.0130522
0.00869551
0.00865716
0.00999912
0.0126358
0.00813487
0.00806557
0.00944492
0.0120094
0.00746775
0.00734748
0.00871311
0.0111635
0.00671176
0.0065313
0.00782551
0.0101141
0.00589965
0.00566132
0.00683189
0.0089102
0.00507402
0.00478963
0.00580098
0.00762976
0.00427688
0.00396261
0.00480153
0.00635987
0.00353935
0.0032104
0.00388382
0.00517213
0.0028771
0.00254471
0.00307147
0.00410667
0.00229276
0.0019644
0.00236654
0.00317431
0.00178143
0.00146273
0.00176042
0.00236848
0.0013361
0.00103267
0.00124288
0.00167761
0.00095069
0.000669658
0.000807
0.00109338
0.000621698
0.000375533
0.000455221
0.000620669
0.000351354
0.000195556
0.000256363
0.000370587
0.000177235
0.00200823
0.00316122
0.00524006
0.00154249
)
;

boundaryField
{
    leftWall
    {
        blended         1;
        beta1           0.075;
        type            omegaWallFunction;
        value           nonuniform List<scalar> 
16
(
0.030664
0.00605603
0.0178077
0.0195262
0.0144015
0.00558789
0.00643229
0.0220578
0.0249919
0.0151606
0.0147262
0.0333452
0.0392266
0.0131932
0.0225853
0.029744
)
;
    }
    rightWall
    {
        blended         1;
        beta1           0.075;
        type            omegaWallFunction;
        value           nonuniform List<scalar> 
16
(
0.0112853
0.0111628
0.0131391
0.00200823
0.0089163
0.0133959
0.0162592
0.00316122
0.00994418
0.0162686
0.0122339
0.00524006
0.00506015
0.0114757
0.00916681
0.00154249
)
;
    }
    leftSides_periodic0
    {
        type            cyclic;
    }
    leftSides_periodic1
    {
        type            cyclic;
    }
    rightSides_periodic0
    {
        type            cyclic;
    }
    rightSides_periodic1
    {
        type            cyclic;
    }
    leftInOut_periodic0
    {
        type            cyclic;
    }
    leftInOut_periodic1
    {
        type            cyclic;
    }
    rightInOut_periodic0
    {
        type            cyclic;
    }
    rightInOut_periodic1
    {