/*--------------------------------*- C++ -*----------------------------------*\
| =========                 |                                                 |
| \\      /  F ield         | OpenFOAM: The Open Source CFD Toolbox           |
|  \\    /   O peration     | Version:  v1912                                 |
|   \\  /    A nd           | Website:  www.openfoam.com                      |
|    \\/     M anipulation  |                                                 |
\*---------------------------------------------------------------------------*/
FoamFile
{
    version     2.0;
    format      ascii;
    class       volScalarField;
    location    "96.4";
    object      turbulenceProperties:L;
}
// * * * * * * * * * * * * * * * * * * * * * * * * * * * * * * * * * * * * * //

dimensions      [0 1 0 0 0 0 0];


internalField   nonuniform List<scalar> 
2528
(
1.72117e-08
1.17954e-08
1.55385e-08
1.9467e-08
5.38724e-08
4.16492e-08
5.26929e-08
6.76628e-08
2.9375e-07
2.19392e-07
2.73283e-07
3.55531e-07
1.11393e-06
8.10185e-07
1.00113e-06
1.2803e-06
2.96507e-06
2.1283e-06
2.60388e-06
3.24629e-06
6.24618e-06
4.50842e-06
5.43126e-06
6.58349e-06
1.1178e-05
8.24379e-06
9.7258e-06
1.14763e-05
1.77689e-05
1.35207e-05
1.55678e-05
1.79422e-05
2.58648e-05
2.03832e-05
2.28782e-05
2.58608e-05
3.52303e-05
2.87444e-05
3.14699e-05
3.50383e-05
4.5618e-05
3.84354e-05
4.11155e-05
4.52734e-05
5.68099e-05
4.92459e-05
5.15988e-05
5.64017e-05
6.86309e-05
6.09676e-05
6.27414e-05
6.83149e-05
8.09534e-05
7.34137e-05
7.44081e-05
8.09681e-05
9.37095e-05
8.64288e-05
8.65284e-05
9.43768e-05
0.000106874
9.98857e-05
9.90981e-05
0.000108558
0.000120415
0.000113682
0.000112105
0.000123507
0.000134309
0.000127736
0.00012554
0.0001392
0.000148536
0.000141986
0.000139395
0.000155582
0.000163076
0.000156382
0.000153659
0.000172579
0.00017791
0.000170884
0.000168317
0.000190089
0.000193018
0.000185473
0.000183343
0.000207995
0.000208462
0.000200139
0.000198698
0.000226176
0.000224244
0.000214877
0.000214327
0.000244509
0.000240349
0.00022969
0.00023015
0.000263094
0.000256747
0.000244582
0.000246215
0.000281954
0.000273392
0.000259564
0.000262612
0.000301035
0.000290238
0.000274648
0.000279326
0.000320283
0.000307243
0.00028986
0.000296346
0.000339648
0.000324376
0.000305226
0.000313651
0.000359107
0.000341708
0.000320787
0.000331232
0.000378659
0.000359231
0.000336598
0.000349071
0.000398311
0.000376937
0.000352697
0.000367186
0.00041808
0.00039479
0.000369051
0.00038557
0.000437977
0.000412761
0.000385503
0.000404215
0.000457986
0.000430819
0.000402057
0.000423106
0.000478052
0.000448941
0.000418657
0.000442221
0.000498061
0.000467092
0.000435244
0.00046153
0.000517865
0.000485221
0.000451751
0.000480992
0.000537304
0.00050327
0.000468088
0.000500552
0.000556223
0.000521167
0.000484324
0.000520148
0.000574474
0.000538833
0.000500807
0.000539708
0.00059192
0.000556176
0.000517736
0.000559156
0.000608431
0.000573101
0.00053471
0.000578409
0.000623898
0.000589548
0.000551409
0.000597382
0.00063824
0.000605477
0.000567871
0.000616007
0.000651393
0.000620851
0.000583962
0.00063427
0.0006633
0.000635689
0.000599521
0.000652177
0.000673858
0.000650005
0.00061437
0.000669737
0.000682897
0.000663602
0.000628286
0.000686991
0.000689648
0.000676503
0.00064093
0.000704026
0.0006941
0.000688728
0.000652223
0.000720991
0.000696305
0.000700301
0.000662886
0.000738044
0.000696378
0.000711558
0.000675047
0.00075526
0.000694325
0.000725136
0.000692868
0.000772664
0.000690817
0.000745149
0.000714121
0.000790276
0.000685717
0.000767773
0.000733985
0.000808157
0.000683141
0.000791129
0.000752791
0.00082635
0.000696228
0.000817563
0.000770714
0.000844837
0.000717073
0.000845604
0.000787705
0.000863592
0.00073772
0.000875657
0.000803701
0.000882522
0.000760588
0.000908011
0.000818562
0.000901155
0.000785664
0.000942067
0.000832089
0.000919091
0.000813541
0.000977243
0.000844011
0.000935955
0.000844593
0.00101293
0.000853926
0.000951468
0.00087552
0.00104858
0.000861311
0.000965484
0.000902895
0.00108385
0.000865843
0.000977974
0.000925981
0.00111819
0.000867514
0.000989024
0.000944459
0.00115117
0.000868291
0.000998881
0.000957699
0.00118228
0.000882312
0.00100786
0.000966716
0.00121095
0.000908492
0.00101622
0.000971074
0.00123655
0.000930701
0.00102407
0.000971694
0.00125853
0.000949644
0.00103146
0.000969428
0.00127639
0.000965667
0.00103835
0.000965291
0.00128991
0.000978499
0.00104452
0.000960001
0.00129852
0.000987897
0.00104956
0.000953763
0.00130213
0.000993646
0.00105285
0.000946641
0.00130076
0.000995687
0.00105376
0.000938856
0.00129461
0.000994043
0.00105166
0.000929587
7.64905e-09
7.34746e-09
1.21023e-08
1.12897e-08
2.88552e-08
2.96705e-08
4.70709e-08
4.51247e-08
1.82274e-07
1.92121e-07
2.9847e-07
2.8823e-07
7.13248e-07
7.52406e-07
1.15073e-06
1.11051e-06
1.95607e-06
2.06189e-06
3.08747e-06
2.98023e-06
4.27258e-06
4.49596e-06
6.55216e-06
6.33367e-06
7.95829e-06
8.35277e-06
1.17971e-05
1.14317e-05
1.31598e-05
1.37682e-05
1.88174e-05
1.82916e-05
1.98439e-05
2.06885e-05
2.7395e-05
2.67199e-05
2.78297e-05
2.8907e-05
3.72037e-05
3.64062e-05
3.68564e-05
3.81359e-05
4.79084e-05
4.70219e-05
4.66515e-05
4.80793e-05
5.92246e-05
5.82791e-05
5.69744e-05
5.84823e-05
7.09273e-05
6.99522e-05
6.76309e-05
6.91416e-05
8.28732e-05
8.18743e-05
7.8484e-05
7.99195e-05
9.50191e-05
9.39453e-05
8.94765e-05
9.07594e-05
0.000107336
0.000106139
0.000100602
0.000101645
0.000119806
0.000118449
0.000111854
0.000112563
0.000132425
0.000130877
0.000123237
0.000123511
0.000145198
0.000143444
0.000134762
0.000134499
0.000158141
0.000156182
0.000146441
0.000145542
0.000171277
0.000169135
0.000158291
0.000156659
0.00018464
0.000182363
0.000170331
0.000167873
0.000198272
0.000195934
0.000182591
0.000179194
0.000212225
0.000209933
0.000195096
0.000190613
0.000226569
0.00022425
0.000207874
0.00020207
0.000241268
0.000238826
0.000220941
0.000213451
0.000256261
0.00025362
0.000234307
0.000224598
0.00027158
0.000268529
0.000247976
0.000235361
0.00028725
0.000283423
0.000261956
0.000245685
0.000303302
0.000298231
0.00027615
0.000255649
0.000319754
0.000313035
0.000290552
0.000265483
0.000336633
0.000328118
0.000305148
0.000275517
0.000353958
0.000343967
0.000319911
0.000286024
0.000371763
0.000361187
0.00033482
0.000297041
0.000390081
0.00038032
0.000349821
0.000308193
0.000408961
0.000401395
0.000364863
0.000319027
0.000428459
0.000423555
0.000379868
0.000329311
0.000448335
0.000445737
0.000394741
0.000339008
0.000468364
0.000467471
0.00040937
0.000348103
0.000488458
0.000488709
0.000423626
0.000356561
0.000508504
0.000509504
0.000437371
0.000364344
0.000528361
0.000529729
0.000450459
0.000371421
0.00054786
0.000549095
0.000462761
0.000377754
0.000566805
0.00056733
0.000474184
0.000383296
0.000585018
0.000584384
0.000484721
0.000387964
0.000602361
0.000600711
0.000494497
0.000391664
0.000618698
0.000617542
0.000503821
0.000394347
0.000633926
0.000634755
0.000513226
0.000396099
0.00064802
0.000651994
0.000523575
0.000397225
0.000661059
0.000669504
0.00053532
0.000398224
0.000673726
0.000687382
0.000548426
0.000399304
0.000686688
0.000705741
0.000562532
0.000400241
0.000700278
0.00072374
0.000577104
0.000400882
0.000714626
0.000741293
0.000591872
0.00040136
0.000729522
0.00075862
0.000607074
0.000401859
0.000744552
0.000775866
0.000623011
0.000402394
0.000759573
0.000793168
0.000639711
0.000402807
0.00077451
0.000810681
0.000657155
0.000402985
0.000789097
0.000828492
0.000675265
0.000402863
0.000803012
0.000846661
0.00069391
0.000402394
0.000816001
0.000865051
0.000712784
0.000401541
0.000827933
0.000882229
0.000731462
0.000400228
0.000838936
0.000896812
0.000749574
0.0003981
0.000849156
0.00090843
0.000766804
0.000394772
0.000858395
0.000916845
0.000782901
0.000390311
0.000866602
0.000921941
0.000797717
0.000385315
0.000873869
0.000923635
0.00081099
0.000380951
0.000880407
0.00092193
0.000822442
0.000378907
0.000886564
0.00091696
0.000831815
0.000381044
0.000892775
0.000909602
0.000838829
0.000388119
0.000899563
0.000900642
0.000843208
0.000398547
0.000907458
0.000890481
0.000844721
0.000409778
0.000916904
0.000879612
0.00084323
0.000419654
0.00092804
0.00086822
0.000838664
0.000426704
0.000940737
0.000856669
0.00083114
0.000430048
0.000954507
0.000845687
0.000820851
0.000429144
0.000968654
0.000835607
0.000808272
0.00042377
0.000982175
0.000826365
0.000794072
0.000414418
0.00099395
0.000818031
1.31164e-08
7.88308e-09
1.19276e-08
1.47714e-08
4.68839e-08
2.57068e-08
3.93491e-08
4.75011e-08
2.85652e-07
1.48873e-07
2.2771e-07
2.67079e-07
1.0997e-06
5.80601e-07
8.78092e-07
1.01553e-06
2.94494e-06
1.59323e-06
2.36764e-06
2.69269e-06
6.21818e-06
3.47993e-06
5.04277e-06
5.622e-06
1.11077e-05
6.4748e-06
9.08966e-06
9.92072e-06
1.75508e-05
1.06843e-05
1.44774e-05
1.54787e-05
2.53052e-05
1.60662e-05
2.10014e-05
2.20362e-05
3.40589e-05
2.24651e-05
2.83776e-05
2.92874e-05
4.35134e-05
2.96724e-05
3.63233e-05
3.69495e-05
5.34317e-05
3.74804e-05
4.46001e-05
4.48125e-05
6.36886e-05
4.57042e-05
5.30655e-05
5.28138e-05
7.42561e-05
5.42131e-05
6.16875e-05
6.0935e-05
8.51272e-05
6.29666e-05
7.04558e-05
6.9189e-05
9.63113e-05
7.19718e-05
7.93772e-05
7.75936e-05
0.000107829
8.12531e-05
8.84689e-05
8.61732e-05
0.000119704
9.08496e-05
9.77548e-05
9.49559e-05
0.000131967
0.000100815
0.00010726
0.000103971
0.000144647
0.000111149
0.000117015
0.000113247
0.000157781
0.000121865
0.000127049
0.000122813
0.000171407
0.000133004
0.000137392
0.000132696
0.000185573
0.000144618
0.000148078
0.000142928
0.000200341
0.00015677
0.000159153
0.000153546
0.000215791
0.000169535
0.00017068
0.000164621
0.000232003
0.000182969
0.000182734
0.00017627
0.000249037
0.000197066
0.000195418
0.000188466
0.000266886
0.000211735
0.000208806
0.000200826
0.000285441
0.000226869
0.000222939
0.000213038
0.00030454
0.000242474
0.000237798
0.000225158
0.000324031
0.000258716
0.000253272
0.000237254
0.000343849
0.000275765
0.000269178
0.000249279
0.000363965
0.000293578
0.000285343
0.000261149
0.000384351
0.000311928
0.000301696
0.000272898
0.000404974
0.000330664
0.000318231
0.000284594
0.000425755
0.000349783
0.000334894
0.000296287
0.000446587
0.000369354
0.000351577
0.000308362
0.000467348
0.000389414
0.00036853
0.000321287
0.000487899
0.000409952
0.000385961
0.00033533
0.000508085
0.000430955
0.00040384
0.000350936
0.000527733
0.000452397
0.000422116
0.000368617
0.000546659
0.000474238
0.000440716
0.000387998
0.00056467
0.000496409
0.000459549
0.000408296
0.000581563
0.000518805
0.000478509
0.000429419
0.000597132
0.000541273
0.00049748
0.000451444
0.000611192
0.000563766
0.000516342
0.000474482
0.000623659
0.000586348
0.00053499
0.000498687
0.000634799
0.000608975
0.000553345
0.000524213
0.000646767
0.000631542
0.000571365
0.000551184
0.000665261
0.000653922
0.000589115
0.000579712
0.000690075
0.000675953
0.000606456
0.000609835
0.00071423
0.000697432
0.000624953
0.000641502
0.000736914
0.000718123
0.000647803
0.000674555
0.000759728
0.000737747
0.000673449
0.000708726
0.000783068
0.000755993
0.00069841
0.000743663
0.000806897
0.000772513
0.00072342
0.000778964
0.000831179
0.000786952
0.000748924
0.000814201
0.000855895
0.000798956
0.000774656
0.000848926
0.000881028
0.000808273
0.000800424
0.000882672
0.000906562
0.00081444
0.00082596
0.000914948
0.000932473
0.000817683
0.000850887
0.000945259
0.000958833
0.000820018
0.000874641
0.000973204
0.000985765
0.000833841
0.000896408
0.00099842
0.00101327
0.000862633
0.000915481
0.00102053
0.00104123
0.000892018
0.000931794
0.0010391
0.00106932
0.000917226
0.000945352
0.00105413
0.00109708
0.000940637
0.000956292
0.0010654
0.00112413
0.000963187
0.000964935
0.00107293
0.00115002
0.000984389
0.000971804
0.0010769
0.00117425
0.00100374
0.000977681
0.00107762
0.00119627
0.00102071
0.000983549
0.0010753
0.00121552
0.00103479
0.000990434
0.00107017
0.00123083
0.00104544
0.000999125
0.00106262
0.00124145
0.00105217
0.00100893
0.00105313
0.00124665
0.00105453
0.00101885
0.00104219
0.00124598
0.00105193
0.00102797
0.00103026
0.00123895
0.00104445
0.00103545
0.00101781
0.00122567
0.00103139
0.00104059
0.00100393
0.00120654
0.00103534
0.00104276
0.000989748
1.37347e-08
1.45979e-08
1.79484e-08
1.69515e-08
4.07474e-08
4.20325e-08
5.49488e-08
4.69465e-08
1.89192e-07
1.94911e-07
2.91257e-07
2.38626e-07
7.04719e-07
7.32369e-07
1.09834e-06
9.18526e-07
1.8854e-06
1.97371e-06
2.90562e-06
2.4921e-06
4.02962e-06
4.23719e-06
6.07778e-06
5.32006e-06
7.35858e-06
7.75326e-06
1.07993e-05
9.5876e-06
1.1969e-05
1.26172e-05
1.70539e-05
1.52785e-05
1.78352e-05
1.87986e-05
2.46848e-05
2.22378e-05
2.48452e-05
2.61848e-05
3.34765e-05
3.02562e-05
3.28475e-05
3.46258e-05
4.32184e-05
3.91329e-05
4.16893e-05
4.3978e-05
5.37364e-05
4.87069e-05
5.12392e-05
5.41218e-05
6.49029e-05
5.88805e-05
6.13936e-05
6.49744e-05
7.66653e-05
6.96404e-05
7.20765e-05
7.65136e-05
8.90332e-05
8.10187e-05
8.32414e-05
8.87492e-05
0.000102012
9.3062e-05
9.48758e-05
0.000101685
0.000115611
0.000105832
0.000106983
0.0001153
0.000129839
0.000119395
0.000119559
0.000129541
0.000144701
0.000133817
0.000132603
0.000144415
0.000160199
0.000149156
0.000146114
0.000159909
0.000176321
0.000165448
0.000160093
0.000175963
0.000193051
0.00018268
0.000174453
0.000192523
0.000210358
0.000200776
0.000189172
0.000209549
0.000228195
0.000219614
0.000204233
0.000226987
0.000246511
0.000239075
0.000219611
0.00024476
0.00026524
0.000259078
0.000235278
0.000262793
0.000284315
0.000279646
0.000251205
0.000281001
0.000303702
0.000300852
0.00026736
0.000299297
0.000323392
0.000322754
0.000283705
0.000317588
0.000343379
0.000345319
0.000300206
0.000335773
0.000363666
0.000368489
0.000316828
0.000353747
0.000384259
0.000392203
0.000333528
0.000371433
0.000405116
0.000416393
0.000350268
0.000388881
0.000426204
0.000440974
0.000367006
0.000406243
0.000447489
0.000465847
0.0003837
0.000423488
0.00046894
0.000490893
0.000400306
0.00044058
0.000490518
0.000515971
0.000416779
0.000457483
0.000512177
0.000540933
0.000433073
0.000474168
0.000533873
0.000565652
0.000449143
0.000490608
0.000555584
0.000589996
0.000464942
0.000506779
0.000577285
0.000613817
0.000480426
0.000522655
0.00059895
0.000636971
0.00049555
0.000538192
0.000620558
0.000659296
0.00051027
0.000553308
0.000642076
0.000680611
0.000524547
0.000567935
0.000663468
0.00070071
0.000538336
0.000582055
0.000684699
0.00071936
0.000551601
0.00059563
0.000705713
0.000736321
0.000564312
0.000608601
0.000726448
0.000751347
0.000576446
0.000620916
0.000746822
0.000764221
0.000587987
0.000632532
0.000766736
0.000775536
0.000598921
0.000643433
0.00078611
0.000785349
0.000609247
0.000653635
0.000804917
0.000793824
0.000619049
0.000663204
0.000823131
0.000801254
0.00062912
0.000672248
0.000840713
0.00080807
0.000639696
0.000680838
0.000857635
0.000814876
0.000650954
0.000688894
0.000873858
0.00082244
0.000662895
0.000696211
0.000889305
0.000831696
0.00067544
0.000702607
0.000903873
0.000843468
0.000688535
0.000707938
0.000917413
0.000857817
0.000702106
0.00071211
0.000929718
0.000874445
0.000716068
0.000715086
0.000940627
0.000893089
0.000730267
0.000716896
0.000950378
0.000913392
0.000744681
0.00071767
0.000959139
0.000934905
0.000759255
0.000717608
0.000967131
0.000957007
0.000773943
0.000716848
0.000974631
0.000978875
0.000788613
0.000715485
0.000981991
0.000999586
0.000802914
0.000713641
0.000989323
0.00101827
0.000816608
0.000711517
0.000996601
0.00103416
0.000829292
0.000709422
0.00100391
0.00104666
0.000840555
0.000707741
0.00101133
0.00105537
0.000849934
0.000706454
0.00101897
0.00106041
0.000856936
0.000705133
0.00102693
0.0010623
0.000861593
0.000703496
0.0010353
0.00106169
0.000863599
0.000701436
0.00104413
0.00105931
0.000862723
0.000698995
0.00105335
0.00105581
0.00085883
0.000696383
0.00106274
0.00105174
0.000851889
0.00069405
0.001072
0.00104747
0.000842014
0.000692695
0.00108061
0.00104332
0.000829427
0.000693187
0.0010881
0.00103891
0.00128446
0.000992642
0.00104623
0.00092672
0.00127099
0.00100432
0.00103774
0.000928762
0.00125595
0.00102488
0.00102582
0.000929318
0.00124093
0.00104435
0.00101095
0.00092805
0.00122606
0.00106368
0.00099372
0.00092482
0.00121184
0.00108263
0.00097496
0.000919531
0.00119835
0.0011008
0.00095546
0.000912336
0.00118557
0.00111751
0.000935513
0.000903628
0.00117286
0.00113198
0.000915402
0.000894004
0.00115964
0.00114346
0.000895375
0.000884201
0.00114583
0.00115135
0.000875624
0.000874402
0.00113125
0.00115529
0.000856297
0.000864504
0.00111554
0.00115514
0.000837591
0.000854599
0.00109871
0.00115101
0.000819573
0.000844668
0.00108121
0.00114298
0.000802012
0.000834255
0.00106319
0.00113141
0.000784774
0.000823342
0.00104449
0.00111673
0.0007678
0.000811855
0.00102481
0.00109937
0.000750916
0.000799704
0.00100373
0.00107975
0.000733488
0.000786859
0.000981447
0.00105825
0.00071557
0.000773313
0.000958067
0.0010352
0.000697276
0.00075908
0.000933718
0.00101094
0.0006787
0.000744202
0.000908588
0.000985538
0.000659981
0.000728735
0.00088284
0.000959268
0.000641255
0.000712751
0.000856617
0.000932347
0.000622615
0.000696365
0.000830057
0.00090497
0.000604025
0.000679728
0.000803282
0.000877304
0.000585171
0.000662964
0.000776412
0.000849478
0.000566149
0.000646173
0.00074956
0.0008215
0.000547883
0.000629406
0.000722831
0.000793514
0.000528223
0.000612454
0.000696336
0.00076572
0.000509226
0.000595108
0.00067021
0.000738082
0.000504053
0.000577351
0.000644565
0.000710349
0.0005052
0.000559018
0.000618894
0.000682253
0.000505457
0.000540044
0.000593035
0.000654038
0.000503288
0.00052057
0.000567166
0.000626387
0.000498534
0.00050073
0.000541371
0.000599887
0.00049104
0.000480642
0.000515717
0.000574903
0.000481133
0.000460417
0.000490345
0.000551436
0.000469022
0.000439975
0.000465383
0.000529159
0.000454905
0.000419532
0.000440928
0.000507585
0.000439062
0.000399713
0.000417034
0.000486254
0.0004219
0.000380753
0.000393723
0.000464849
0.000403786
0.000362356
0.000371058
0.000443226
0.00038503
0.000344129
0.000348926
0.000421396
0.000365884
0.000325885
0.000327572
0.000399497
0.000346551
0.000307624
0.000308019
0.000377716
0.000327181
0.000289462
0.000290562
0.000356237
0.000307939
0.000271567
0.00027447
0.000335208
0.000288835
0.000254097
0.00025883
0.000314725
0.000270097
0.000237164
0.000243079
0.000294848
0.000252287
0.000220816
0.000227182
0.0002756
0.000235673
0.000205064
0.000211333
0.00025698
0.000220086
0.000189913
0.000195639
0.00023897
0.000205154
0.000175364
0.000180225
0.000221536
0.000190519
0.000161395
0.000165244
0.00020465
0.000176037
0.000147967
0.00015081
0.000188289
0.000161773
0.000135072
0.000136968
0.000172423
0.00014785
0.000122703
0.000123706
0.000157022
0.000134343
0.000110781
0.000110974
0.000142063
0.000121261
9.92378e-05
9.87123e-05
0.000127529
0.000108568
8.80217e-05
8.68653e-05
0.000113399
9.6216e-05
7.70993e-05
7.53962e-05
9.96569e-05
8.41686e-05
6.646e-05
6.42763e-05
8.6297e-05
7.24097e-05
5.60986e-05
5.35323e-05
7.33304e-05
6.09277e-05
4.6127e-05
4.32983e-05
6.07611e-05
4.98058e-05
3.67383e-05
3.37888e-05
4.87153e-05
3.9264e-05
2.81636e-05
2.52653e-05
3.74514e-05
2.96094e-05
2.06429e-05
1.79859e-05
2.73099e-05
2.11867e-05
1.43726e-05
1.21272e-05
1.8666e-05
1.42884e-05
9.44609e-06
7.71343e-06
1.18241e-05
9.03858e-06
5.8205e-06
4.6044e-06
6.87302e-06
5.34022e-06
3.33229e-06
2.55269e-06
3.62654e-06
2.9221e-06
1.74835e-06
1.28526e-06
1.70598e-06
1.45033e-06
8.2265e-07
5.62207e-07
6.90983e-07
6.24393e-07
3.34968e-07
1.96786e-07
2.25252e-07
2.13974e-07
1.10774e-07
4.79777e-08
5.18652e-08
5.03505e-08
2.64533e-08
8.14452e-09
7.50661e-09
7.79993e-09
4.56361e-09
2.21929e-09
1.97265e-09
2.08325e-09
1.48607e-09
0.000779414
0.000403207
0.00100374
0.000812269
0.000765604
0.00039457
0.00101015
0.000812208
0.000753883
0.000393347
0.00101195
0.000813561
0.00074476
0.000401369
0.00100898
0.000813214
0.000738285
0.000417539
0.00100135
0.0008105
0.000734036
0.000439277
0.00098966
0.000805483
0.000731675
0.000463831
0.000975646
0.000798423
0.000730626
0.000489004
0.000960628
0.000789688
0.000730724
0.000513224
0.000944712
0.000779653
0.000731631
0.000535502
0.000928192
0.000768662
0.000732958
0.000555076
0.00091124
0.000756992
0.000734654
0.000571606
0.000894032
0.00074449
0.000736447
0.000584956
0.000876689
0.000731915
0.000737783
0.00059533
0.000859247
0.000721881
0.000737954
0.000602825
0.000841887
0.000715839
0.000736669
0.000607676
0.000825179
0.000711647
0.000733922
0.000610375
0.000810334
0.000707369
0.000729943
0.000611276
0.000797191
0.000702171
0.000725066
0.000610634
0.000784685
0.000695827
0.000719222
0.00060869
0.000772354
0.000688364
0.000712439
0.000605586
0.000759845
0.000679856
0.000704772
0.000601384
0.00074694
0.000670412
0.000696289
0.000596307
0.000733556
0.000660165
0.000687059
0.000590347
0.000719666
0.000649262
0.000677155
0.000583477
0.000705307
0.000637859
0.00066666
0.000575635
0.000690566
0.000626102
0.000655661
0.000566757
0.000675562
0.000614134
0.000644247
0.000556833
0.000660446
0.000602104
0.000632527
0.000546159
0.000645144
0.000590093
0.000620645
0.000535044
0.000629712
0.00057808
0.000608718
0.000523529
0.000614379
0.000565898
0.000596715
0.000511674
0.000599507
0.000553497
0.000584494
0.000499587
0.00058508
0.000540498
0.000571917
0.000487388
0.000570945
0.000526567
0.000558921
0.000475149
0.000556869
0.000511814
0.000545448
0.00046277
0.000542291
0.000496345
0.000531238
0.000450158
0.000527111
0.000480249
0.000515921
0.000437269
0.000511323
0.00046361
0.00049957
0.000424093
0.000494981
0.000446506
0.000482336
0.000410647
0.000478144
0.000429014
0.000464354
0.000396664
0.000460867
0.000411209
0.000445739
0.000382113
0.000443207
0.000393163
0.000426605
0.0003671
0.00042522
0.000374946
0.000407058
0.000351722
0.000406965
0.000356624
0.000387203
0.00033606
0.000388504
0.000338262
0.000367142
0.000320202
0.000369892
0.000319923
0.000346969
0.000304213
0.000351192
0.000301665
0.000326777
0.000288162
0.00033247
0.000283555
0.000306658
0.000272115
0.000313781
0.000265648
0.000286694
0.000256124
0.00029519
0.000248001
0.000266974
0.000240243
0.000276749
0.000230667
0.000247575
0.000224507
0.000258508
0.0002137
0.000228569
0.000208944
0.000240457
0.000197143
0.000210027
0.000193597
0.000222589
0.000181015
0.000192009
0.000178523
0.00020496
0.000165354
0.000174568
0.000163791
0.000187663
0.000150222
0.000157752
0.000149473
0.000170822
0.000135631
0.000141605
0.00013562
0.00015454
0.000121562
0.000126167
0.000122255
0.000138884
0.000108086
0.000111474
0.000109376
0.000123884
9.52422e-05
9.7543e-05
9.6975e-05
0.000109549
8.30466e-05
8.43806e-05
8.50348e-05
9.58716e-05
7.15004e-05
7.19827e-05
7.35526e-05
8.28405e-05
6.05899e-05
6.03563e-05
6.25204e-05
7.04398e-05
5.03373e-05
4.95199e-05
5.194e-05
5.86537e-05
4.08191e-05
3.95347e-05
4.19166e-05
4.75502e-05
3.21422e-05
3.05073e-05
3.26261e-05
3.72665e-05
2.44327e-05
2.25787e-05
2.42816e-05
2.79901e-05
1.78161e-05
1.58952e-05
1.71087e-05
1.9941e-05
1.23836e-05
1.05565e-05
1.12908e-05
1.33238e-05
8.15388e-06
6.5607e-06
6.90153e-06
8.25235e-06
5.05169e-06
3.78151e-06
3.86119e-06
4.6811e-06
2.919e-06
1.99595e-06
1.94988e-06
2.39877e-06
1.55187e-06
9.44526e-07
8.725e-07
1.09028e-06
7.42234e-07
3.8616e-07
3.36162e-07
4.26938e-07
3.07419e-07
1.27687e-07
1.05936e-07
1.36621e-07
1.03265e-07
3.07501e-08
2.50506e-08
3.25282e-08
2.56731e-08
6.4164e-09
5.64612e-09
6.7859e-09
6.14214e-09
2.20721e-09
2.41792e-09
2.6646e-09
2.23793e-09
0.00118349
0.00106038
0.0010433
0.000988833
0.00115791
0.00108263
0.00104116
0.000990147
0.00113055
0.00110124
0.00103475
0.000987623
0.00110406
0.00111845
0.00102378
0.000980792
0.00107878
0.00113433
0.0010079
0.000969977
0.00105474
0.00114839
0.000987218
0.000955837
0.00103227
0.00116008
0.000962053
0.000939154
0.00101199
0.00116878
0.00093308
0.000920736
0.000992054
0.0011741
0.000901103
0.000901355
0.000970779
0.00117557
0.000867399
0.000881696
0.000957222
0.00117291
0.000835369
0.000862318
0.000953062
0.00116604
0.000807011
0.000843661
0.000948743
0.00115518
0.00078136
0.000824424
0.000942191
0.00114041
0.000758364
0.000805596
0.000932965
0.0011223
0.000738202
0.000794396
0.000921193
0.00110133
0.000721082
0.000787754
0.000907097
0.00107765
0.000705464
0.000780555
0.000890939
0.0010515
0.000692489
0.000771448
0.000873049
0.00102319
0.000685613
0.000760271
0.000853772
0.000993129
0.000681682
0.000747217
0.000833538
0.000961716
0.000677305
0.000732531
0.000812734
0.000929371
0.000671442
0.000716468
0.000792124
0.000896794
0.000663907
0.000699302
0.000771423
0.000864865
0.000654829
0.000681306
0.000750529
0.000833948
0.000644383
0.000663188
0.000729453
0.000803951
0.000632749
0.000644331
0.000708253
0.000774823
0.000620118
0.000624194
0.000685896
0.000746937
0.000606688
0.000605498
0.000661348
0.00072088
0.00059277
0.000591402
0.000637336
0.000696238
0.000577728
0.000579859
0.000619216
0.000670534
0.000561493
0.000568173
0.000606589
0.000642174
0.00054726
0.000555355
0.000595068
0.000614434
0.000537509
0.000541664
0.000582749
0.000594412
0.000529662
0.000527531
0.000569275
0.000581272
0.000521253
0.000513052
0.000554659
0.000569239
0.000511778
0.000498166
0.000539226
0.000556159
0.000501114
0.000482893
0.00052341
0.000541706
0.000489327
0.000467391
0.000507335
0.000526012
0.000476601
0.00045178
0.000491043
0.000509232
0.000462961
0.000436141
0.000474563
0.000491751
0.000448494
0.000420524
0.000457984
0.000473802
0.000433378
0.000404941
0.000441376
0.000455481
0.000417769
0.000389386
0.000424749
0.000436844
0.000401785
0.000373846
0.000408063
0.000417993
0.000385522
0.000358295
0.000391288
0.000399039
0.000369054
0.000342711
0.000374294
0.000380065
0.000352414
0.000327071
0.000356988
0.000361145
0.000335637
0.000311347
0.00033939
0.000342324
0.000318754
0.000295527
0.000321548
0.000323645
0.000301802
0.000279605
0.00030352
0.000305142
0.000284807
0.000263582
0.000285352
0.000286836
0.000267796
0.000247469
0.000267104
0.000268743
0.000250812
0.000231289
0.000248831
0.000250881
0.000233888
0.000215077
0.000230597
0.00023323
0.000217067
0.000198875
0.000212469
0.00021582
0.000200397
0.000182691
0.000194519
0.00019869
0.000183937
0.000166533
0.000176818
0.000181876
0.000167704
0.000150534
0.000159445
0.00016541
0.000151728
0.000134811
0.000142473
0.000149333
0.000136083
0.000119465
0.000125975
0.000133678
0.000120838
0.00010459
0.000110026
0.000118475
0.000106052
9.02669e-05
9.47003e-05
0.000103742
9.17725e-05
7.65588e-05
8.00441e-05
8.9507e-05
7.80572e-05
6.35813e-05
6.61459e-05
7.58083e-05
6.49549e-05
5.14916e-05
5.31671e-05
6.26979e-05
5.258e-05
4.04644e-05
4.13175e-05
5.02648e-05
4.11267e-05
3.06808e-05
3.08308e-05
3.87209e-05
3.08349e-05
2.23065e-05
2.19318e-05
2.83646e-05
2.19596e-05
1.54526e-05
1.47735e-05
1.95221e-05
1.47151e-05
1.01344e-05
9.36869e-06
1.24672e-05
9.19312e-06
6.24958e-06
5.55853e-06
7.29871e-06
5.30448e-06
3.59203e-06
3.05372e-06
3.86723e-06
2.79174e-06
1.89867e-06
1.52021e-06
1.81971e-06
1.31294e-06
9.02604e-07
6.56403e-07
7.34429e-07
5.31687e-07
3.71427e-07
2.26304e-07
2.37858e-07
1.7319e-07
1.23689e-07
5.40829e-08
5.45815e-08
4.02186e-08
2.98592e-08
8.83079e-09
8.70035e-09
6.98429e-09
5.96104e-09
2.39464e-09
2.66383e-09
2.31068e-09
2.00017e-09
0.000814658
0.000696134
0.00109356
0.0010335
0.000798483
0.000702403
0.00109646
0.00102618
0.000779301
0.000711349
0.00109677
0.00101714
0.000756613
0.0007213
0.00109427
0.00100672
0.000731622
0.000731792
0.0010887
0.000995766
0.000705588
0.000742396
0.00107989
0.00098492
0.000679897
0.000752671
0.00106777
0.000974384
0.000655944
0.000762151
0.00105283
0.000963948
0.000635013
0.000770368
0.00103544
0.000953097
0.000618164
0.000776895
0.0010159
0.000941039
0.000605984
0.000781393
0.000994512
0.000927758
0.00059817
0.000783661
0.000971538
0.00091365
0.000593474
0.000783537
0.000947221
0.000898993
0.000590423
0.000781065
0.000921797
0.000883969
0.000587854
0.000776337
0.000895485
0.000868704
0.000585044
0.000769549
0.000868491
0.000853251
0.000581585
0.000760907
0.000841017
0.000837606
0.000577313
0.000750616
0.00081325
0.000821753
0.000572216
0.000738906
0.000786479
0.000805675
0.000566372
0.000725938
0.000761203
0.000789367
0.000559882
0.000711866
0.000737481
0.000772825
0.000552705
0.000696815
0.000714973
0.000756055
0.000544053
0.000680899
0.000693412
0.000739068
0.000534377
0.000664258
0.000672587
0.000721873
0.00052402
0.000647041
0.000652579
0.000703868
0.000513256
0.000629411
0.00063354
0.000684979
0.000502317
0.000611509
0.000615432
0.000665295
0.000491451
0.000593458
0.000598051
0.000644839
0.000480236
0.000575391
0.000581226
0.000623596
0.000468523
0.000557314
0.00056534
0.00060188
0.000458054
0.000539234
0.000551163
0.000580232
0.000450502
0.000521223
0.000538895
0.000559049
0.000444329
0.000503285
0.000527803
0.000538602
0.000437342
0.000485429
0.0005169
0.000518957
0.000428975
0.000467621
0.00050551
0.00050009
0.000419168
0.000449802
0.000493351
0.000481923
0.00040807
0.000432207
0.000480256
0.000464369
0.000395907
0.000415181
0.000466076
0.00044729
0.000382681
0.000398898
0.000450823
0.000430485
0.00036839
0.000383312
0.000434688
0.000413889
0.000353818
0.000368243
0.000417898
0.000397531
0.000340372
0.000353481
0.000400703
0.000381427
0.000328572
0.000338898
0.000383345
0.000365569
0.000317638
0.000324454
0.000366014
0.000349946
0.000306475
0.000310161
0.000348839
0.000334552
0.000294658
0.000296051
0.000331901
0.00031938
0.000282288
0.000282149
0.000315245
0.000304416
0.000269486
0.000268456
0.000298896
0.000289651
0.000256374
0.000254956
0.000282867
0.000275065
0.000243167
0.000241618
0.000267167
0.00026064
0.000230037
0.000228411
0.000251794
0.000246355
0.000217062
0.000215308
0.000236732
0.000232188
0.000204225
0.000202293
0.000221949
0.000218116
0.000191472
0.000189341
0.000207404
0.000204111
0.000178775
0.000176511
0.00019306
0.000190157
0.000166157
0.000163821
0.000178901
0.000176296
0.000153651
0.00015128
0.00016493
0.000162577
0.000141277
0.00013889
0.000151192
0.000148959
0.000129026
0.000126648
0.000137714
0.000135409
0.000116876
0.000114552
0.000124483
0.000121907
0.000104803
0.000102602
0.000111481
0.000108452
9.27906e-05
9.08086e-05
9.87023e-05
9.50545e-05
8.08432e-05
7.91957e-05
8.61526e-05
8.17516e-05
6.89891e-05