/*--------------------------------*- C++ -*----------------------------------*\
| =========                 |                                                 |
| \\      /  F ield         | OpenFOAM: The Open Source CFD Toolbox           |
|  \\    /   O peration     | Version:  v1906                                 |
|   \\  /    A nd           | Web:      www.OpenFOAM.com                      |
|    \\/     M anipulation  |                                                 |
\*---------------------------------------------------------------------------*/
FoamFile
{
    version     2.0;
    format      ascii;
    class       volVectorField;
    location    "96.4";
    object      U;
}
// * * * * * * * * * * * * * * * * * * * * * * * * * * * * * * * * * * * * * //

dimensions      [0 1 -1 0 0 0 0];


internalField   nonuniform List<vector> 
2528
(
(0.000231194 -0.000356983 -0.00749125)
(-0.00052817 -4.07884e-05 -0.00491494)
(-0.000199815 3.25428e-05 -0.00678626)
(0.000295847 -3.18979e-05 -0.00851848)
(0.00152048 0.000591164 -0.0237383)
(-0.0014953 -0.000101006 -0.0163408)
(-0.00142385 8.28448e-05 -0.0214181)
(0.000807143 -9.85648e-05 -0.0266622)
(0.00359588 -0.000296183 -0.039909)
(-0.00203184 -0.000179078 -0.0279478)
(-0.00343012 0.000148664 -0.035837)
(0.00089144 -0.000191625 -0.0445547)
(0.00567106 0.000538794 -0.0549455)
(-0.0023718 -0.000265811 -0.0386195)
(-0.00543522 0.000220817 -0.0491562)
(0.000792342 -0.000305338 -0.0610252)
(0.00745049 0.000244 -0.0688474)
(-0.00269911 -0.000332563 -0.048363)
(-0.00714718 0.00028003 -0.0614512)
(0.000692271 -0.000418848 -0.0760681)
(0.00902802 0.000430662 -0.0818642)
(-0.00301347 -0.000397085 -0.0574718)
(-0.00866309 0.000338969 -0.0729892)
(0.000592789 -0.000542569 -0.0900086)
(0.0104408 0.000486186 -0.0941018)
(-0.00331221 -0.000456599 -0.0660793)
(-0.010023 0.000395863 -0.083902)
(0.000493018 -0.000674006 -0.103032)
(0.0117063 0.000558893 -0.105605)
(-0.00359358 -0.000510928 -0.0742519)
(-0.0112461 0.000450809 -0.0942549)
(0.000393299 -0.000812755 -0.115244)
(0.0128344 0.000622734 -0.116386)
(-0.00385558 -0.000560519 -0.0820217)
(-0.0123433 0.000504426 -0.104068)
(0.00029385 -0.000958795 -0.126681)
(0.0138331 0.000688706 -0.126443)
(-0.00409617 -0.00060539 -0.0893996)
(-0.0133217 0.000556752 -0.113335)
(0.00019473 -0.00111123 -0.137344)
(0.0147105 0.000753702 -0.135782)
(-0.00431349 -0.000645536 -0.0963839)
(-0.0141871 0.000607392 -0.122042)
(9.59871e-05 -0.00126947 -0.14723)
(0.0154752 0.000817846 -0.144428)
(-0.00450634 -0.000680827 -0.102971)
(-0.0149462 0.000656455 -0.130184)
(-1.33355e-06 -0.00143288 -0.156352)
(0.0161349 0.000880886 -0.152424)
(-0.00467448 -0.000711073 -0.109165)
(-0.0156041 0.000704147 -0.137777)
(-9.6729e-05 -0.00159963 -0.164742)
(0.0166981 0.00094175 -0.159823)
(-0.00481868 -0.000736225 -0.114978)
(-0.0161662 0.000749076 -0.144845)
(-0.00019071 -0.00176868 -0.172454)
(0.0171759 0.0010002 -0.166697)
(-0.00494038 -0.000756391 -0.120432)
(-0.0166419 0.000790494 -0.151441)
(-0.000282462 -0.00194029 -0.179555)
(0.0175782 0.0010572 -0.173113)
(-0.00504141 -0.000771771 -0.125554)
(-0.01704 0.000829518 -0.15762)
(-0.000371287 -0.0021151 -0.186094)
(0.017915 0.00111344 -0.179114)
(-0.00512374 -0.000782581 -0.130376)
(-0.0173691 0.000867542 -0.163418)
(-0.000457324 -0.00229301 -0.192116)
(0.0181946 0.00116886 -0.18474)
(-0.0051893 -0.000789009 -0.134927)
(-0.0176374 0.000904584 -0.168863)
(-0.000540303 -0.0024734 -0.197662)
(0.0184233 0.00122332 -0.190024)
(-0.00523993 -0.000791247 -0.139236)
(-0.0178508 0.000940232 -0.173982)
(-0.000619778 -0.00265591 -0.20277)
(0.0186064 0.00127704 -0.194997)
(-0.00527731 -0.000789483 -0.14333)
(-0.0180142 0.000974793 -0.178801)
(-0.000695366 -0.00284069 -0.20748)
(0.018749 0.00133014 -0.199688)
(-0.00530299 -0.000783913 -0.147231)
(-0.0181324 0.00100852 -0.183341)
(-0.000766598 -0.00302746 -0.211829)
(0.0188556 0.00138277 -0.204121)
(-0.00531836 -0.000774748 -0.150961)
(-0.0182096 0.00104169 -0.187625)
(-0.000833257 -0.00321482 -0.215854)
(0.0189303 0.0014352 -0.208318)
(-0.00532467 -0.000762196 -0.154537)
(-0.0182493 0.00107459 -0.191671)
(-0.00089557 -0.00340228 -0.219597)
(0.0189768 0.00148782 -0.212297)
(-0.00532304 -0.000746449 -0.157975)
(-0.018255 0.00110747 -0.195497)
(-0.000953547 -0.00359005 -0.223096)
(0.0189977 0.00154108 -0.216073)
(-0.00531446 -0.000727685 -0.161288)
(-0.0182292 0.0011404 -0.19912)
(-0.0010072 -0.00377875 -0.226384)
(0.0189949 0.00159531 -0.219656)
(-0.00529981 -0.000706095 -0.164487)
(-0.0181743 0.0011734 -0.202555)
(-0.00105677 -0.0039686 -0.229488)
(0.0189697 0.00165047 -0.223057)
(-0.00527991 -0.00068189 -0.167583)
(-0.0180923 0.00120657 -0.205817)
(-0.00110235 -0.00415889 -0.232426)
(0.0189228 0.00170607 -0.226288)
(-0.00525549 -0.000655317 -0.170584)
(-0.017985 0.0012402 -0.20892)
(-0.00114388 -0.00434932 -0.235218)
(0.0188553 0.00176155 -0.229364)
(-0.00522729 -0.00062666 -0.1735)
(-0.0178543 0.00127459 -0.211879)
(-0.00118123 -0.00453998 -0.237877)
(0.0187688 0.00181676 -0.2323)
(-0.00519596 -0.000596171 -0.176336)
(-0.0177014 0.00130988 -0.214704)
(-0.00121431 -0.0047309 -0.240417)
(0.0186657 0.0018724 -0.235115)
(-0.00516208 -0.000564012 -0.1791)
(-0.0175276 0.00134588 -0.217408)
(-0.00124304 -0.00492212 -0.24285)
(0.0185482 0.00192951 -0.237821)
(-0.00512614 -0.000530452 -0.181797)
(-0.0173339 0.00138245 -0.220001)
(-0.00126738 -0.00511354 -0.245185)
(0.0184177 0.0019888 -0.240426)
(-0.00508863 -0.000495609 -0.184431)
(-0.0171217 0.00141988 -0.222493)
(-0.00128738 -0.00530498 -0.247431)
(0.0182744 0.00205002 -0.242937)
(-0.00504995 -0.000459201 -0.187004)
(-0.0168919 0.00145869 -0.224893)
(-0.00130308 -0.0054962 -0.249592)
(0.0181182 0.00211188 -0.245356)
(-0.00501049 -0.000420862 -0.189519)
(-0.0166454 0.00149901 -0.227209)
(-0.00131447 -0.00568699 -0.251673)
(0.0179488 0.0021736 -0.247689)
(-0.00497065 -0.000381221 -0.191979)
(-0.0163825 0.00154041 -0.229446)
(-0.00132156 -0.00587713 -0.253678)
(0.0177669 0.00223577 -0.249946)
(-0.00493078 -0.000336816 -0.194387)
(-0.0161037 0.00158261 -0.231608)
(-0.00132443 -0.00606656 -0.255609)
(0.0175734 0.00229939 -0.252135)
(-0.00489105 -0.000300677 -0.196747)
(-0.0158091 0.00162584 -0.233702)
(-0.00132319 -0.00625537 -0.257467)
(0.017369 0.0023648 -0.254261)
(-0.00485374 -0.000279565 -0.199056)
(-0.0154991 0.0016705 -0.235733)
(-0.00131806 -0.00644384 -0.259258)
(0.0171536 0.0024314 -0.256326)
(-0.00481867 -0.000243161 -0.201298)
(-0.0151731 0.00171669 -0.237703)
(-0.00130933 -0.00663218 -0.260985)
(0.0169261 0.00249886 -0.258334)
(-0.00478013 -0.00016396 -0.203501)
(-0.0148304 0.00176436 -0.239616)
(-0.00129738 -0.00682048 -0.262652)
(0.0166857 0.00257112 -0.260286)
(-0.00473832 -8.8537e-05 -0.20576)
(-0.0144706 0.00181359 -0.241474)
(-0.00128264 -0.00700866 -0.264265)
(0.0164299 0.0026474 -0.262175)
(-0.00470202 -6.60469e-05 -0.208101)
(-0.0140943 0.00186422 -0.24328)
(-0.00126557 -0.00719663 -0.265828)
(0.016156 0.00272232 -0.263996)
(-0.00466842 -7.21128e-05 -0.210394)
(-0.0137023 0.00191579 -0.245036)
(-0.00124654 -0.00738436 -0.267344)
(0.0158622 0.00279493 -0.265749)
(-0.00463096 -5.54399e-05 -0.212553)
(-0.0132946 0.0019681 -0.246744)
(-0.00122584 -0.00757196 -0.268817)
(0.0155471 0.00286705 -0.267442)
(-0.00459743 7.98142e-06 -0.214605)
(-0.0128702 0.00202151 -0.248407)
(-0.00120381 -0.00775945 -0.270251)
(0.0152124 0.0029436 -0.269085)
(-0.0045707 5.85506e-05 -0.216591)
(-0.0124285 0.00207641 -0.250029)
(-0.0011809 -0.00794687 -0.271649)
(0.0148605 0.00302318 -0.270682)
(-0.00454661 9.74124e-05 -0.218534)
(-0.0119692 0.00213279 -0.251611)
(-0.00115768 -0.00813362 -0.273011)
(0.0144936 0.00310027 -0.272235)
(-0.00452458 0.000124538 -0.22044)
(-0.0114931 0.00219014 -0.253156)
(-0.00113494 -0.00831816 -0.274335)
(0.0141145 0.00317374 -0.27375)
(-0.00451135 7.28315e-05 -0.222286)
(-0.0110006 0.00224787 -0.254668)
(-0.00111382 -0.00849919 -0.275619)
(0.0137165 0.00331345 -0.27522)
(-0.00451323 -2.84277e-06 -0.223965)
(-0.0104909 0.00230597 -0.25615)
(-0.00109574 -0.00866559 -0.276867)
(0.0132441 0.00351828 -0.276552)
(-0.00451016 5.55714e-05 -0.225427)
(-0.00996149 0.00236591 -0.257609)
(-0.00108138 -0.00885463 -0.278088)
(0.0126632 0.00361965 -0.277596)
(-0.00447599 0.000352068 -0.227009)
(-0.00941256 0.00243101 -0.259049)
(-0.00105261 -0.00912026 -0.279232)
(0.0120524 0.00346365 -0.278567)
(-0.00443877 0.000589942 -0.229498)
(-0.00885152 0.00250336 -0.260471)
(-0.000996105 -0.00938143 -0.280091)
(0.011559 0.00327879 -0.280321)
(-0.0044571 0.000342339 -0.23307)
(-0.00829099 0.00258169 -0.26187)
(-0.000966026 -0.00948132 -0.280596)
(0.0112004 0.00366163 -0.283265)
(-0.00445193 1.63901e-05 -0.236337)
(-0.00773911 0.00266336 -0.26324)
(-0.00104265 -0.00935897 -0.281384)
(0.010938 0.00413032 -0.285885)
(-0.00437913 -2.37492e-05 -0.238756)
(-0.007193 0.00274669 -0.26458)
(-0.00116176 -0.0093649 -0.283957)
(0.0107023 0.00424084 -0.28761)
(-0.00430666 0.000136103 -0.240621)
(-0.00664337 0.00282951 -0.265896)
(-0.00114604 -0.00995866 -0.288145)
(0.0103257 0.0041887 -0.288747)
(-0.00425509 0.000196671 -0.242282)
(-0.00608611 0.00291028 -0.267197)
(-0.00116518 -0.0104185 -0.290992)
(0.0098544 0.00425665 -0.289658)
(-0.00419757 0.000167948 -0.243899)
(-0.00552535 0.00299209 -0.268481)
(-0.00130885 -0.0104662 -0.292399)
(0.00938435 0.00438219 -0.290494)
(-0.00412936 0.000161348 -0.245484)
(-0.0049651 0.00307626 -0.269741)
(-0.00141548 -0.0104937 -0.292934)
(0.00891861 0.00448705 -0.291249)
(-0.00405086 0.000157332 -0.247032)
(-0.00440501 0.00315976 -0.270969)
(-0.00146746 -0.0106707 -0.293162)
(0.00845276 0.00458998 -0.291912)
(-0.00396186 0.000150327 -0.248546)
(-0.00384314 0.00324284 -0.272163)
(-0.00153537 -0.0108375 -0.293283)
(0.00798445 0.00469525 -0.29248)
(-0.00386194 0.000139882 -0.250031)
(-0.0032769 0.00333026 -0.273325)
(-0.00161462 -0.0109911 -0.293285)
(0.00751226 0.00479947 -0.292955)
(-0.00375764 3.90761e-05 -0.251473)
(-0.00270584 0.00342025 -0.274451)
(-0.00170354 -0.0111429 -0.293167)
(0.00703271 0.00490105 -0.293338)
(-0.00367369 -0.000166416 -0.25273)
(-0.00212768 0.00350567 -0.275544)
(-0.00180135 -0.0112898 -0.292932)
(0.0065382 0.00500176 -0.293634)
(-0.00356648 -0.000223956 -0.253612)
(-0.00153479 0.00358823 -0.276619)
(-0.00190679 -0.0114292 -0.292582)
(0.00602139 0.0051048 -0.293845)
(-0.00332032 0.000179492 -0.254532)
(-0.000921705 0.00367714 -0.277707)
(-0.00201856 -0.0115612 -0.292122)
(0.00548324 0.00521046 -0.293973)
(-0.00302004 0.000664158 -0.257025)
(-0.000292664 0.00377878 -0.278833)
(-0.00213536 -0.0116857 -0.291555)
(0.00493376 0.00531434 -0.294019)
(-0.00288839 7.41543e-05 -0.26205)
(0.000338683 0.00389476 -0.280006)
(-0.0022558 -0.0118023 -0.290881)
(0.00438028 0.00541181 -0.293983)
(-0.00272736 -0.000549493 -0.266452)
(0.000961948 0.00401994 -0.281204)
(-0.00237875 -0.01191 -0.290099)
(0.00382239 0.00550167 -0.293866)
(-0.00244766 -0.000548965 -0.269279)
(0.00157712 0.00414455 -0.282385)
(-0.00250344 -0.0120087 -0.28921)
(0.00325343 0.00558651 -0.293667)
(-0.0021828 -0.000392956 -0.271135)
(0.00219121 0.00425662 -0.283521)
(-0.00262955 -0.0121004 -0.288215)
(0.00267022 0.00566848 -0.293382)
(-0.00196927 -0.000439517 -0.272669)
(0.00280651 0.00436107 -0.284634)
(-0.00275687 -0.0121764 -0.287122)
(0.00207245 0.00575166 -0.293005)
(-0.00176058 -0.000532835 -0.274175)
(0.00343038 0.00448913 -0.28575)
(-0.00288481 -0.0122487 -0.285949)
(0.0014598 0.00582251 -0.292531)
(-0.00154942 -0.000647521 -0.27569)
(0.00405846 0.00464338 -0.286818)
(-0.00301065 -0.0122697 -0.284737)
(0.000828121 0.0058916 -0.29195)
(-0.00135409 -0.000936959 -0.277119)
(0.00468524 0.00477216 -0.287756)
(-0.00310082 -0.0124424 -0.283304)
(0.000170747 0.00593251 -0.291254)
(-0.00111915 -0.00115703 -0.27822)
(0.00533062 0.00487292 -0.288524)
(-0.00326656 -0.0126497 -0.281142)
(-0.000512804 0.00591709 -0.290485)
(-0.000742302 -0.00068643 -0.279352)
(0.00600452 0.00496907 -0.289171)
(-0.00371298 -0.0122484 -0.277864)
(-8.00072e-05 -2.8229e-07 -0.0038259)
(-8.48859e-06 5.82001e-06 -0.00290747)
(6.72735e-05 -1.88674e-07 -0.0058813)
(-1.32367e-05 5.24814e-06 -0.00482909)
(-0.000313362 -4.13623e-06 -0.011678)
(-1.44977e-05 9.3482e-06 -0.010682)
(0.000274537 -4.75742e-06 -0.0176408)
(-5.05378e-05 5.63343e-06 -0.0161587)
(-0.0005387 -1.19201e-05 -0.0193687)
(-1.50098e-05 1.34392e-05 -0.0194475)
(0.000472859 -1.0673e-05 -0.0291609)
(-9.5225e-05 1.30419e-05 -0.0281423)
(-0.000733615 -2.44374e-05 -0.0270748)
(-1.97599e-05 1.20408e-05 -0.0281743)
(0.000640229 -2.18194e-05 -0.0405692)
(-0.000139062 1.17401e-05 -0.0398664)
(-0.00091055 -3.84239e-05 -0.0349219)
(-3.20414e-05 7.85807e-06 -0.0366899)
(0.000789125 -3.29875e-05 -0.0519285)
(-0.000180117 1.12421e-05 -0.0512075)
(-0.00107526 -5.40126e-05 -0.0428471)
(-5.10802e-05 1.95812e-06 -0.0451263)
(0.000925419 -4.51515e-05 -0.0631424)
(-0.000220206 9.59151e-06 -0.0622639)
(-0.00122824 -7.05586e-05 -0.0507823)
(-7.65146e-05 -5.32823e-06 -0.0534907)
(0.00104988 -5.75175e-05 -0.0741143)
(-0.000260376 7.80992e-06 -0.073024)
(-0.0013681 -8.75633e-05 -0.0586561)
(-0.000107895 -1.35509e-05 -0.0617411)
(0.0011615 -6.97893e-05 -0.0847426)
(-0.000301321 6.16773e-06 -0.0834323)
(-0.00149296 -0.000104855 -0.066398)
(-0.000144591 -2.24568e-05 -0.0698165)
(0.0012588 -8.1816e-05 -0.0949263)
(-0.00034344 4.9201e-06 -0.0934159)
(-0.00160106 -0.000122289 -0.073941)
(-0.00018583 -3.18388e-05 -0.0776518)
(0.00134045 -9.34449e-05 -0.104582)
(-0.000386852 4.08853e-06 -0.102906)
(-0.00169108 -0.000139754 -0.0812273)
(-0.000230798 -4.14592e-05 -0.0851889)
(0.00140571 -0.000104637 -0.113662)
(-0.000431471 3.98207e-06 -0.111858)
(-0.00176231 -0.000157164 -0.0882152)
(-0.000278743 -5.10779e-05 -0.0923875)
(0.00145456 -0.000115299 -0.122161)
(-0.000477114 4.56954e-06 -0.12026)
(-0.00181471 -0.000174447 -0.0948829)
(-0.000329067 -6.06179e-05 -0.0992279)
(0.00148736 -0.000125171 -0.130103)
(-0.00052356 5.97238e-06 -0.128133)
(-0.00184868 -0.00019141 -0.101226)
(-0.000381366 -6.97797e-05 -0.105707)
(0.001505 -0.000134077 -0.137555)
(-0.000570576 8.44162e-06 -0.135509)
(-0.00186496 -0.000207799 -0.107264)
(-0.000435446 -7.85003e-05 -0.111846)
(0.00150888 -0.000141919 -0.144591)
(-0.000618045 1.18204e-05 -0.142446)
(-0.00186472 -0.000223523 -0.113033)
(-0.000491245 -8.66832e-05 -0.117681)
(0.00150044 -0.000148741 -0.151253)
(-0.000665894 1.63943e-05 -0.149003)
(-0.00184941 -0.000238663 -0.118562)
(-0.000548582 -9.39301e-05 -0.123243)
(0.00148094 -0.000154521 -0.157572)
(-0.000713978 2.22311e-05 -0.155224)
(-0.00182039 -0.000253263 -0.123862)
(-0.000607155 -0.000100159 -0.128549)
(0.00145155 -0.000159158 -0.163579)
(-0.00076212 2.93259e-05 -0.16114)
(-0.0017789 -0.000267259 -0.128946)
(-0.000666684 -0.000105241 -0.133618)
(0.00141341 -0.000162634 -0.1693)
(-0.000810135 3.77907e-05 -0.166779)
(-0.00172617 -0.0002806 -0.133825)
(-0.000726899 -0.000109046 -0.138462)
(0.0013676 -0.000164937 -0.17476)
(-0.000857843 4.75991e-05 -0.172164)
(-0.00166338 -0.000293294 -0.138511)
(-0.000787522 -0.000111544 -0.143095)
(0.00131519 -0.000166069 -0.17998)
(-0.000905074 5.87366e-05 -0.177316)
(-0.00159171 -0.000305344 -0.143016)
(-0.000848261 -0.000112654 -0.147532)
(0.00125718 -0.00016604 -0.184981)
(-0.00095167 7.11807e-05 -0.182253)
(-0.0015123 -0.000316758 -0.147348)
(-0.000908793 -0.000112341 -0.151783)
(0.00119451 -0.000164833 -0.189778)
(-0.000997483 8.487e-05 -0.186989)
(-0.00142623 -0.000327542 -0.151517)
(-0.000968743 -0.000110577 -0.155858)
(0.00112809 -0.000162428 -0.194387)
(-0.00104236 9.9739e-05 -0.191539)
(-0.00133457 -0.000337709 -0.155531)
(-0.00102767 -0.000107309 -0.159759)
(0.00105873 -0.00015884 -0.19882)
(-0.00108616 0.000115732 -0.195912)
(-0.00123836 -0.000347311 -0.159396)
(-0.00108509 -0.000102488 -0.163483)
(0.00098723 -0.000154092 -0.203089)
(-0.00112867 0.000132817 -0.200114)
(-0.00113861 -0.000356385 -0.163116)
(-0.00114054 -9.61071e-05 -0.167022)
(0.00091436 -0.000148221 -0.207202)
(-0.00116967 0.000150993 -0.20414)
(-0.00103622 -0.000364942 -0.166697)
(-0.00119372 -8.82891e-05 -0.170373)
(0.000840832 -0.000141267 -0.211166)
(-0.00120892 0.00017024 -0.207982)
(-0.000932001 -0.000373063 -0.170145)
(-0.00124464 -7.93242e-05 -0.173547)
(0.000767311 -0.000133296 -0.214988)
(-0.0012463 0.000190418 -0.211638)
(-0.000826779 -0.000380898 -0.173467)
(-0.00129361 -6.94439e-05 -0.176591)
(0.000694408 -0.000124419 -0.218672)
(-0.00128195 0.000211258 -0.215125)
(-0.000721411 -0.000388641 -0.176669)
(-0.00134098 -5.86245e-05 -0.179579)
(0.000622691 -0.000114767 -0.222222)
(-0.00131632 0.000232464 -0.218491)
(-0.000616704 -0.000396409 -0.179756)
(-0.00138683 -4.65954e-05 -0.182592)
(0.000552696 -0.000104495 -0.225644)
(-0.00134998 0.000253848 -0.221804)
(-0.000513428 -0.000404246 -0.182735)
(-0.00143071 -3.2997e-05 -0.18567)
(0.000484948 -9.37565e-05 -0.228942)
(-0.00138326 0.000275384 -0.225132)
(-0.000412315 -0.000412183 -0.18561)
(-0.00147167 -1.7664e-05 -0.188777)
(0.000419956 -8.26437e-05 -0.232121)
(-0.00141601 0.000297134 -0.228496)
(-0.000314058 -0.000420219 -0.188387)
(-0.00150867 -7.89691e-07 -0.191802)
(0.000358189 -7.11936e-05 -0.235187)
(-0.00144738 0.000319135 -0.231852)
(-0.000219305 -0.000428352 -0.191071)
(-0.00154115 1.68155e-05 -0.194618)
(0.000300076 -5.94256e-05 -0.238143)
(-0.00147612 0.000341307 -0.235089)
(-0.000128673 -0.000436609 -0.193665)
(-0.0015693 3.42449e-05 -0.197174)
(0.000246023 -4.73857e-05 -0.240993)
(-0.00150116 0.000363214 -0.238078)
(-4.27563e-05 -0.000445038 -0.196174)
(-0.00159365 5.14941e-05 -0.199512)
(0.000196424 -3.51555e-05 -0.243742)
(-0.00152219 0.00038423 -0.24075)
(3.78777e-05 -0.000453691 -0.198603)
(-0.00161439 6.94106e-05 -0.201713)
(0.000151667 -2.28286e-05 -0.246391)
(-0.00153968 0.000404061 -0.243124)
(0.000112697 -0.000462608 -0.200957)
(-0.00163127 8.85823e-05 -0.203831)
(0.000112124 -1.04894e-05 -0.248944)
(-0.00155444 0.000422936 -0.245286)
(0.000181223 -0.000471835 -0.203241)
(-0.00164395 0.00010863 -0.205887)
(7.81332e-05 1.78875e-06 -0.251404)
(-0.00156712 0.000441302 -0.24732)
(0.000243046 -0.00048143 -0.205464)
(-0.00165221 0.000129092 -0.207888)
(4.9984e-05 1.39376e-05 -0.253773)
(-0.00157802 0.000459418 -0.249271)
(0.00029782 -0.00049146 -0.207635)
(-0.00165582 0.000150127 -0.20984)
(2.7922e-05 2.58894e-05 -0.256054)
(-0.00158732 0.000477129 -0.251136)
(0.000345273 -0.000501895 -0.209764)
(-0.00165446 0.000171555 -0.211755)
(1.21515e-05 3.75792e-05 -0.25825)
(-0.00159529 0.00049388 -0.252886)
(0.000385177 -0.000512553 -0.211866)
(-0.00164769 0.000193118 -0.213633)
(2.82956e-06 4.89435e-05 -0.260365)
(-0.00160229 0.000509185 -0.254513)
(0.000417203 -0.00052315 -0.213963)
(-0.00163523 0.00021535 -0.215457)
(5.18386e-08 5.99242e-05 -0.262407)
(-0.00160852 0.000523408 -0.256113)
(0.000440587 -0.000533096 -0.216081)
(-0.00161691 0.000237875 -0.217209)
(3.86238e-06 7.04919e-05 -0.264383)
(-0.00161394 0.00053771 -0.257925)
(0.00045343 -0.000542043 -0.218249)
(-0.00159254 0.000259756 -0.218911)
(1.42922e-05 8.06891e-05 -0.266303)
(-0.00161821 0.000552513 -0.260126)
(0.000452882 -0.000549519 -0.220488)
(-0.00156168 0.000281315 -0.220655)
(3.14672e-05 9.07214e-05 -0.268183)
(-0.00162099 0.000566394 -0.262458)
(0.000437897 -0.000555267 -0.22278)
(-0.00152371 0.000304647 -0.222549)
(5.58197e-05 0.000101066 -0.270042)
(-0.00162123 0.000577852 -0.264442)
(0.000411026 -0.000559661 -0.225065)
(-0.00147934 0.000330683 -0.224592)
(8.84501e-05 0.000112342 -0.271899)
(-0.00161894 0.000587124 -0.266019)
(0.000374873 -0.000564963 -0.227264)
(-0.00143095 0.000356645 -0.226643)
(0.000130851 0.00012496 -0.273774)
(-0.00161589 0.000595368 -0.267366)
(0.000331993 -0.000572138 -0.229316)
(-0.0013802 0.000380703 -0.228593)
(0.000182939 0.0001385 -0.27566)
(-0.00161224 0.000603231 -0.268611)
(0.00028607 -0.000578911 -0.231177)
(-0.00132726 0.000403751 -0.230451)
(0.00024181 0.000150539 -0.277521)
(-0.00160688 0.000610808 -0.2698)
(0.000238822 -0.000582933 -0.232853)
(-0.00127249 0.00042662 -0.232288)
(0.000303574 0.000160258 -0.279303)
(-0.00159986 0.000617757 -0.270948)
(0.000187022 -0.000587636 -0.234408)
(-0.00121567 0.000445357 -0.234152)
(0.000363697 0.000170008 -0.280961)
(-0.00159159 0.00062426 -0.272046)
(0.000130198 -0.000596002 -0.235904)
(-0.00115696 0.000459424 -0.236026)
(0.000420187 0.00018189 -0.282507)
(-0.00158121 0.000629627 -0.273058)
(7.00732e-05 -0.000607625 -0.237361)
(-0.00109786 0.000472342 -0.237875)
(0.000474657 0.000194673 -0.283975)
(-0.00156724 0.000629464 -0.273971)
(5.96854e-06 -0.000620152 -0.238784)
(-0.00103905 0.000485738 -0.2397)
(0.000528653 0.000205355 -0.285383)
(-0.00155163 0.000621207 -0.274806)
(-6.32637e-05 -0.000632903 -0.240175)
(-0.000980785 0.000497966 -0.241526)
(0.000582511 0.000214168 -0.286732)
(-0.00153585 0.000608052 -0.275572)
(-0.000137819 -0.00064511 -0.241536)
(-0.000923716 0.00050969 -0.243378)
(0.000636403 0.000222189 -0.288025)
(-0.0015191 0.0005934 -0.276268)
(-0.000217674 -0.000657132 -0.242868)
(-0.000868469 0.000524819 -0.245268)
(0.000690703 0.000229097 -0.289265)
(-0.00150024 0.000578432 -0.276891)
(-0.000302689 -0.00066891 -0.244172)
(-0.000816102 0.00054586 -0.247167)
(0.000745937 0.00023475 -0.290454)
(-0.00147875 0.000563099 -0.277443)
(-0.000392615 -0.000679946 -0.245449)
(-0.000769375 0.0005711 -0.248986)
(0.000802712 0.000239093 -0.291596)
(-0.00145415 0.000547833 -0.277926)
(-0.000487308 -0.000690062 -0.246702)
(-0.000730932 0.000599185 -0.250651)
(0.000861662 0.000242072 -0.292694)
(-0.00142597 0.00053291 -0.27834)
(-0.000586672 -0.000699195 -0.247933)
(-0.000701697 0.000630668 -0.25212)
(0.000923452 0.000243656 -0.293754)
(-0.00139372 0.000518575 -0.278683)
(-0.000690604 -0.000706984 -0.249147)
(-0.000681211 0.000663098 -0.253364)
(0.000988753 0.0002438 -0.294777)
(-0.0013569 0.000505117 -0.278953)
(-0.00079908 -0.000713209 -0.250344)
(-0.000668718 0.000694054 -0.254365)
(0.00105814 0.00024246 -0.295766)
(-0.00131494 0.000492856 -0.279144)
(-0.000912131 -0.000718535 -0.251528)
(-0.000664785 0.000727653 -0.255135)
(0.00113197 0.000239596 -0.296721)
(-0.00126719 0.00048212 -0.27925)
(-0.00102905 -0.000722863 -0.252692)
(-0.00066906 0.000759363 -0.255767)
(0.00121004 0.000235238 -0.29764)
(-0.0012129 0.000473269 -0.279262)
(-0.00114868 -0.000724354 -0.253824)
(-0.000670624 0.000776982 -0.25645)
(0.00129108 0.000229636 -0.298514)
(-0.0011513 0.000466664 -0.279169)
(-0.00127069 -0.000722766 -0.254919)
(-0.000660561 0.000787075 -0.257276)
(0.00137242 0.000223081 -0.29933)
(-0.00108154 0.00046242 -0.278956)
(-0.00139526 -0.000718935 -0.255972)
(-0.000636689 0.000796721 -0.258244)
(0.00144986 0.0002161 -0.300067)
(-0.00100273 0.000460781 -0.278607)
(-0.00152239 -0.000712532 -0.256977)
(-0.000597802 0.000805526 -0.259341)
(0.00151842 0.000209025 -0.300698)
(-0.000913918 0.000462136 -0.278098)
(-0.00165179 -0.000709199 -0.257921)
(-0.000541486 0.000804983 -0.260563)
(0.00157366 0.000195135 -0.301201)
(-0.00081408 0.000459918 -0.277406)
(-0.0017828 -0.000698172 -0.258787)
(-0.000464782 0.00080672 -0.261893)
(0.00161176 0.000184903 -0.301558)
(-0.000702108 0.000465829 -0.276506)
(-0.00191439 -0.000682361 -0.259554)
(-0.000364324 0.000812114 -0.263301)
(0.00162937 0.000174871 -0.30176)
(-0.000577399 0.000474612 -0.275371)
(-0.00204495 -0.000667769 -0.260194)
(-0.00023775 0.000821885 -0.264731)
(0.00162368 0.000158802 -0.3018)
(-0.000442296 0.0004872 -0.27392)
(-0.00217275 -0.000626714 -0.260682)
(-8.99942e-05 0.000853576 -0.266009)
(0.00159297 0.000164034 -0.301682)
(-0.000286527 0.000527773 -0.271978)
(0.000191793 8.21132e-06 -0.00684103)
(-0.000418882 -6.36867e-06 -0.00453976)
(-0.000123238 5.88305e-06 -0.00617818)
(0.000127621 -2.63249e-06 -0.00777318)
(0.0011299 2.22936e-05 -0.0185163)
(-0.00107806 -8.15538e-06 -0.0116469)
(-0.000929595 1.72984e-05 -0.0167955)
(0.000213938 -7.37397e-06 -0.0210454)
(0.00244291 4.71704e-05 -0.029669)
(-0.00149937 -7.85495e-06 -0.0182913)
(-0.00211557 3.64733e-05 -0.0270786)
(6.85319e-05 -2.02412e-05 -0.0335577)
(0.00372551 7.53658e-05 -0.0412772)
(-0.00184553 -1.17798e-06 -0.0255779)
(-0.00327673 5.65094e-05 -0.0378746)
(-0.000142097 -3.48453e-05 -0.0464026)
(0.00486576 0.00010585 -0.0532278)
(-0.00219992 1.42924e-05 -0.0334647)
(-0.00430156 7.89744e-05 -0.0490511)
(-0.000333232 -5.38027e-05 -0.0595051)
(0.00591982 0.000139401 -0.0651497)
(-0.0025467 3.59143e-05 -0.0416185)
(-0.00524758 0.000103019 -0.0602773)
(-0.000517819 -7.578e-05 -0.0724884)
(0.00690569 0.000174954 -0.0768293)
(-0.0028793 6.38476e-05 -0.0498653)
(-0.00613384 0.000128173 -0.071362)
(-0.00069959 -0.000100977 -0.0851529)
(0.00782805 0.000212693 -0.0881217)
(-0.00319453 9.76359e-05 -0.0580885)
(-0.00696554 0.000154624 -0.0821739)
(-0.000878998 -0.000129312 -0.0973749)
(0.00868702 0.000251976 -0.0989208)
(-0.0034905 0.000136959 -0.0661986)
(-0.0077431 0.000181784 -0.0926155)
(-0.00105536 -0.000161211 -0.109069)
(0.00948088 0.00029301 -0.109155)
(-0.00376602 0.000181731 -0.0741246)
(-0.00846515 0.000209858 -0.102617)
(-0.00122704 -0.000196455 -0.120181)
(0.0102073 0.000335487 -0.118795)
(-0.00402039 0.000231278 -0.0818113)
(-0.00912929 0.000238617 -0.112139)
(-0.00139269 -0.000234941 -0.130692)
(0.0108669 0.000378609 -0.12786)
(-0.0042537 0.000285533 -0.089222)
(-0.00973469 0.000267669 -0.121179)
(-0.00155242 -0.000276653 -0.140645)
(0.011465 0.000422783 -0.13641)
(-0.00446636 0.000344027 -0.096339)
(-0.0102846 0.000297362 -0.12978)
(-0.00170605 -0.00032125 -0.150086)
(0.0120079 0.00046776 -0.144491)
(-0.00465918 0.000406495 -0.103172)
(-0.010783 0.000327369 -0.137973)
(-0.00185358 -0.000369061 -0.159024)
(0.0125004 0.000513507 -0.152122)
(-0.00483354 0.00047321 -0.109739)
(-0.0112332 0.00035782 -0.145766)
(-0.0019952 -0.000419789 -0.167471)
(0.012946 0.000559948 -0.159329)
(-0.00499012 0.000543251 -0.116045)
(-0.0116374 0.000388634 -0.15317)
(-0.00213063 -0.000473349 -0.175444)
(0.0133469 0.000606734 -0.166135)
(-0.00512904 0.000616533 -0.122089)
(-0.011997 0.000419604 -0.1602)
(-0.00225961 -0.000529859 -0.182961)
(0.0137053 0.000653811 -0.172565)
(-0.00525075 0.000692834 -0.127878)
(-0.0123134 0.000450755 -0.166871)
(-0.0023819 -0.000589215 -0.190042)
(0.014023 0.000701103 -0.178642)
(-0.00535581 0.000771705 -0.133415)
(-0.012588 0.000482002 -0.173201)
(-0.00249729 -0.000651465 -0.196703)
(0.0143019 0.000748468 -0.184388)
(-0.00544482 0.00085299 -0.138711)
(-0.0128219 0.000513263 -0.179204)
(-0.00260557 -0.000716639 -0.202965)
(0.0145435 0.000795801 -0.189825)
(-0.00551838 0.000936371 -0.143774)
(-0.0130165 0.000544471 -0.184896)
(-0.00270657 -0.000784775 -0.208843)
(0.0147492 0.000842993 -0.194972)
(-0.00557716 0.00102158 -0.148617)
(-0.0131729 0.000575562 -0.190291)
(-0.00280007 -0.000855932 -0.214355)
(0.0149201 0.000889932 -0.19985)
(-0.00562174 0.00110842 -0.153253)
(-0.0132921 0.000606477 -0.195403)
(-0.00288579 -0.000930188 -0.219519)
(0.0150576 0.000936485 -0.204476)
(-0.00565249 0.00119677 -0.157692)
(-0.013375 0.000637159 -0.200247)
(-0.00296327 -0.00100762 -0.224356)
(0.015163 0.000982479 -0.208864)
(-0.0056694 0.00128657 -0.161935)
(-0.0134222 0.000667548 -0.204835)
(-0.00303188 -0.00108822 -0.228896)
(0.0152392 0.00102778 -0.213019)
(-0.0056722 0.00137753 -0.16597)
(-0.0134347 0.000697566 -0.209182)
(-0.00309097 -0.00117186 -0.233176)
(0.01529 0.00107243 -0.216932)
(-0.00566102 0.00146891 -0.169775)
(-0.0134137 0.000727118 -0.213298)
(-0.00314022 -0.00125827 -0.23723)
(0.0153199 0.00111688 -0.220587)
(-0.00563717 0.00155995 -0.173347)
(-0.0133619 0.000756147 -0.217185)
(-0.00318008 -0.00134727 -0.241077)
(0.0153317 0.00116161 -0.22397)
(-0.00560271 0.00165123 -0.176719)
(-0.0132839 0.000784689 -0.220834)
(-0.00321182 -0.00143887 -0.244695)
(0.0153251 0.00120618 -0.227091)
(-0.00555886 0.00174473 -0.179954)
(-0.0131846 0.000812831 -0.224226)
(-0.00323699 -0.00153345 -0.248026)
(0.0152972 0.00124988 -0.229987)
(-0.00550549 0.00184116 -0.183093)
(-0.0130683 0.000840772 -0.227349)
(-0.00325607 -0.00163179 -0.251016)
(0.0152444 0.00129223 -0.232708)
(-0.0054421 0.00193784 -0.186109)
(-0.0129346 0.000868632 -0.230214)
(-0.00326725 -0.0017338 -0.253671)
(0.0151647 0.00133312 -0.235294)
(-0.00536914 0.00203147 -0.188936)
(-0.0127791 0.00089581 -0.232859)
(-0.00326963 -0.00183725 -0.256078)
(0.0150586 0.0013731 -0.237767)
(-0.00528825 0.00212224 -0.191558)
(-0.0125969 0.000921691 -0.235342)
(-0.00326302 -0.00194168 -0.25834)
(0.0149277 0.00141258 -0.240139)
(-0.00520153 0.00221315 -0.194024)
(-0.0123864 0.000946704 -0.237699)
(-0.00324586 -0.00204907 -0.260486)
(0.0147741 0.00145178 -0.242411)
(-0.00511074 0.00230578 -0.196399)
(-0.0121501 0.000971522 -0.239931)
(-0.0032193 -0.00215969 -0.262489)
(0.0145993 0.00149073 -0.24459)
(-0.00501691 0.00239888 -0.19871)
(-0.0118913 0.000996177 -0.24204)
(-0.00318508 -0.0022727 -0.264335)
(0.0144037 0.00152916 -0.246682)
(-0.00492043 0.0024907 -0.200958)
(-0.0116117 0.00102049 -0.24403)
(-0.00314339 -0.00238763 -0.266027)
(0.0141878 0.00156704 -0.248694)
(-0.00482136 0.00258085 -0.203137)
(-0.0113124 0.00104448 -0.245907)
(-0.00309442 -0.00250393 -0.26757)
(0.0139518 0.00160444 -0.250633)
(-0.00471999 0.00266997 -0.205249)
(-0.0109942 0.00106813 -0.247676)
(-0.00303811 -0.0026212 -0.268971)
(0.013696 0.00164129 -0.252507)
(-0.00461693 0.0027582 -0.207298)
(-0.0106581 0.00109144 -0.249343)
(-0.00297446 -0.00273925 -0.270236)
(0.0134203 0.00167799 -0.254323)
(-0.00451271 0.0028452 -0.209286)
(-0.0103047 0.00111442 -0.250916)
(-0.00290377 -0.00285777 -0.271373)
(0.013125 0.00171494 -0.256088)
(-0.0044078 0.00293079 -0.211218)
(-0.0099346 0.00113705 -0.252401)
(-0.00282654 -0.0029764 -0.272394)
(0.0128103 0.00175159 -0.257807)
(-0.00430264 0.0030148 -0.213096)
(-0.00954822 0.00115935 -0.253807)
(-0.00274341 -0.00309487 -0.27331)
(0.0124771 0.00178089 -0.259483)
(-0.0041975 0.00309706 -0.214925)
(-0.00914575 0.00118134 -0.255141)
(-0.00265532 -0.00321293 -0.274129)
(0.012127 0.00182268 -0.261115)
(-0.00409252 0.00317745 -0.216705)
(-0.00872712 0.00120318 -0.256413)
(-0.0025638 -0.00333043 -0.274857)
(0.0117262 0.0018818 -0.262806)
(-0.00398792 0.00325575 -0.218441)