/*--------------------------------*- C++ -*----------------------------------*\
| =========                 |                                                 |
| \\      /  F ield         | OpenFOAM: The Open Source CFD Toolbox           |
|  \\    /   O peration     | Version:  v1906                                 |
|   \\  /    A nd           | Web:      www.OpenFOAM.com                      |
|    \\/     M anipulation  |                                                 |
\*---------------------------------------------------------------------------*/
FoamFile
{
    version     2.0;
    format      ascii;
    class       volSymmTensorField;
    location    "96.4";
    object      UPrime2Mean;
}
// * * * * * * * * * * * * * * * * * * * * * * * * * * * * * * * * * * * * * //

dimensions      [0 2 -2 0 0 0 0];


internalField   nonuniform List<symmTensor> 
2528
(
(2.75819e-06 4.71177e-08 -1.09813e-07 1.88302e-07 -8.50555e-07 6.65208e-06)
(3.45901e-06 2.50936e-08 1.71793e-06 1.90419e-09 4.06982e-08 5.82587e-06)
(2.74046e-06 -5.87694e-09 1.44011e-07 1.78935e-09 -4.77932e-08 6.47389e-06)
(3.46755e-06 -2.42536e-08 -1.86837e-06 1.99789e-09 4.2361e-08 6.00703e-06)
(1.05728e-05 -5.3464e-08 -7.26628e-07 6.35343e-08 -7.2442e-08 1.30278e-05)
(1.10649e-05 9.29996e-08 1.30436e-06 1.52863e-08 8.1996e-08 1.49525e-05)
(1.04541e-05 -3.17484e-08 9.44318e-07 1.43664e-08 -1.28314e-07 1.26331e-05)
(1.11393e-05 -9.34758e-08 -2.14066e-06 1.57222e-08 9.37114e-08 1.56009e-05)
(1.31257e-05 2.6546e-07 -8.75844e-07 2.43585e-07 1.93705e-07 2.09364e-05)
(1.09766e-05 7.04327e-08 -9.75744e-07 4.77059e-08 -1.0457e-07 3.04055e-05)
(1.2913e-05 -6.62172e-08 1.33103e-06 4.48632e-08 2.92827e-08 2.1418e-05)
(1.11597e-05 -8.05534e-08 -8.37994e-07 4.96002e-08 -7.81029e-08 3.16809e-05)
(1.5994e-05 6.99308e-08 -9.11295e-07 1.34154e-07 2.52944e-07 4.02797e-05)
(1.12564e-05 -5.01093e-09 -9.74075e-07 1.20211e-07 -4.43912e-07 5.71759e-05)
(1.57123e-05 -1.02481e-07 1.66822e-06 1.12543e-07 3.42122e-07 4.16451e-05)
(1.15623e-05 -2.1555e-08 -2.0788e-06 1.25458e-07 -4.03189e-07 5.86308e-05)
(2.05588e-05 2.75176e-07 -1.11666e-06 2.79828e-07 8.94797e-07 6.21657e-05)
(1.32818e-05 -7.40606e-08 -9.25411e-07 2.03513e-07 -7.0508e-07 8.72828e-05)
(2.01969e-05 -1.34321e-07 2.24223e-06 1.90477e-07 6.30511e-07 6.38994e-05)
(1.37183e-05 2.69981e-08 -3.52842e-06 2.131e-07 -6.48144e-07 8.79666e-05)
(2.55066e-05 3.01955e-07 -1.34976e-06 3.85535e-07 1.11113e-06 8.50323e-05)
(1.5629e-05 -1.35933e-07 -1.17293e-06 3.1455e-07 -9.25889e-07 0.000119296)
(2.50603e-05 -1.67335e-07 2.88138e-06 2.94197e-07 9.21926e-07 8.66987e-05)
(1.6184e-05 6.50678e-08 -4.72879e-06 3.30201e-07 -8.53605e-07 0.00011821)
(3.03079e-05 3.85629e-07 -1.52687e-06 5.39812e-07 1.46288e-06 0.0001088)
(1.78928e-05 -1.99498e-07 -1.51241e-06 4.50475e-07 -1.11142e-06 0.000152808)
(2.97777e-05 -1.99484e-07 3.47263e-06 4.20973e-07 1.23601e-06 0.000110065)
(1.85377e-05 1.02285e-07 -5.79187e-06 4.73956e-07 -1.02744e-06 0.000149014)
(3.46757e-05 4.67198e-07 -1.62136e-06 7.27084e-07 1.86211e-06 0.000133138)
(1.99182e-05 -2.73014e-07 -1.76307e-06 6.10526e-07 -1.27576e-06 0.000187145)
(3.40647e-05 -2.30004e-07 3.95781e-06 5.70044e-07 1.5929e-06 0.000133776)
(2.06136e-05 1.48101e-07 -6.8145e-06 6.43642e-07 -1.18713e-06 0.000179869)
(3.84374e-05 5.51591e-07 -1.6385e-06 9.38788e-07 2.33012e-06 0.000157498)
(2.16465e-05 -3.64058e-07 -1.79968e-06 7.9614e-07 -1.43777e-06 0.00022141)
(3.77501e-05 -2.58782e-07 4.31177e-06 7.42701e-07 2.0107e-06 0.000157399)
(2.23449e-05 2.1133e-07 -7.85098e-06 8.40747e-07 -1.35584e-06 0.000210133)
(4.1501e-05 6.33846e-07 -1.59388e-06 1.17908e-06 2.8803e-06 0.000181331)
(2.30785e-05 -4.77578e-07 -1.54764e-06 1.00769e-06 -1.61132e-06 0.000254747)
(4.07432e-05 -2.85632e-07 4.52733e-06 9.39326e-07 2.50141e-06 0.000180503)
(2.37267e-05 2.98218e-07 -8.9309e-06 1.06559e-06 -1.55109e-06 0.000239194)
(4.3844e-05 7.13779e-07 -1.50063e-06 1.44568e-06 3.51888e-06 0.000204227)
(2.4254e-05 -6.1429e-07 -9.88157e-07 1.2444e-06 -1.80413e-06 0.000286538)
(4.30246e-05 -3.10366e-07 4.60557e-06 1.15898e-06 3.06686e-06 0.000202768)
(2.47988e-05 4.11329e-07 -1.00615e-05 1.31757e-06 -1.78259e-06 0.00026662)
(4.55078e-05 7.90246e-07 -1.36958e-06 1.73394e-06 4.23034e-06 0.00022589)
(2.5228e-05 -7.70948e-07 -1.62223e-07 1.50373e-06 -2.01178e-06 0.000316426)
(4.46399e-05 -3.32989e-07 4.55138e-06 1.39849e-06 3.6918e-06 0.000223918)
(2.56261e-05 5.49174e-07 -1.12175e-05 1.5946e-06 -2.04901e-06 0.000292138)
(4.65825e-05 8.61808e-07 -1.21293e-06 2.03868e-06 4.98482e-06 0.000246035)
(2.60494e-05 -9.42236e-07 8.46814e-07 1.78235e-06 -2.22045e-06 0.000344212)
(4.56831e-05 -3.53608e-07 4.37509e-06 1.65449e-06 4.35294e-06 0.000243666)
(2.62715e-05 7.06836e-07 -1.23425e-05 1.89332e-06 -2.33794e-06 0.000315545)
(4.71806e-05 9.26716e-07 -1.04279e-06 2.35688e-06 5.75785e-06 0.000264458)
(2.67476e-05 -1.12299e-06 1.95931e-06 2.07781e-06 -2.42041e-06 0.000369794)
(4.62714e-05 -3.72266e-07 4.09208e-06 1.92563e-06 5.03779e-06 0.000261884)
(2.67807e-05 8.78394e-07 -1.33776e-05 2.21066e-06 -2.63571e-06 0.000336707)
(4.7412e-05 9.84367e-07 -8.64829e-07 2.68815e-06 6.54533e-06 0.000281154)
(2.73342e-05 -1.30967e-06 3.13172e-06 2.38913e-06 -2.61266e-06 0.000393199)
(4.65191e-05 -3.89095e-07 3.72133e-06 2.21213e-06 5.74777e-06 0.000278681)
(2.71817e-05 1.05979e-06 -1.42992e-05 2.54506e-06 -2.9373e-06 0.000355637)
(4.73689e-05 1.03556e-06 -6.75518e-07 3.03248e-06 7.35424e-06 0.00029626)
(2.7814e-05 -1.50034e-06 4.34783e-06 2.71592e-06 -2.80371e-06 0.000414544)
(4.65187e-05 -4.04058e-07 3.28588e-06 2.51386e-06 6.48431e-06 0.000294215)
(2.74909e-05 1.24956e-06 -1.51246e-05 2.89635e-06 -3.24573e-06 0.000372462)
(4.71235e-05 1.08158e-06 -4.69482e-07 3.38911e-06 8.18423e-06 0.00030993)
(2.81928e-05 -1.69416e-06 5.59773e-06 3.05781e-06 -2.99729e-06 0.000433949)
(4.63385e-05 -4.16999e-07 2.80962e-06 2.82924e-06 7.2419e-06 0.000308542)
(2.77203e-05 1.44702e-06 -1.58781e-05 3.26447e-06 -3.56468e-06 0.000387311)
(4.67325e-05 1.12277e-06 -2.47047e-07 3.75737e-06 9.02483e-06 0.000322271)
(2.8478e-05 -1.88998e-06 6.86217e-06 3.41428e-06 -3.19253e-06 0.000451482)
(4.60292e-05 -4.27931e-07 2.31514e-06 3.15662e-06 8.01046e-06 0.0003216)
(2.78793e-05 1.65049e-06 -1.65684e-05 3.64869e-06 -3.89361e-06 0.000400283)
(4.62403e-05 1.15897e-06 -1.31034e-08 4.13601e-06 9.87232e-06 0.000333341)
(2.8677e-05 -2.08597e-06 8.11158e-06 3.7846e-06 -3.38634e-06 0.000467161)
(4.56289e-05 -4.3723e-07 1.82285e-06 3.49567e-06 8.78095e-06 0.000333276)
(2.79753e-05 1.85753e-06 -1.71944e-05 4.04804e-06 -4.22858e-06 0.000411452)
(4.56799e-05 1.19001e-06 2.2442e-07 4.5208e-06 1.07164e-05 0.000343105)
(2.87965e-05 -2.27992e-06 9.31611e-06 4.16791e-06 -3.57435e-06 0.000480995)
(4.51638e-05 -4.45542e-07 1.34775e-06 3.84767e-06 9.55349e-06 0.000343496)
(2.80142e-05 2.06575e-06 -1.77525e-05 4.46171e-06 -4.56539e-06 0.000420882)
(4.50743e-05 1.21626e-06 4.54784e-07 4.90853e-06 1.15315e-05 0.000351413)
(2.88426e-05 -2.46953e-06 1.04533e-05 4.56344e-06 -3.75199e-06 0.000493026)
(4.46497e-05 -4.53425e-07 8.98133e-07 4.21338e-06 1.03352e-05 0.000352358)
(2.80017e-05 2.27253e-06 -1.82405e-05 4.88923e-06 -4.89991e-06 0.000428648)
(4.44379e-05 1.23908e-06 6.70066e-07 5.30492e-06 1.23221e-05 0.000358189)
(2.8822e-05 -2.65308e-06 1.15108e-05 4.97066e-06 -3.91758e-06 0.000503345)
(4.40932e-05 -4.60692e-07 4.78018e-07 4.59121e-06 1.11262e-05 0.000360098)
(2.79414e-05 2.47731e-06 -1.86533e-05 5.33062e-06 -5.23308e-06 0.000434853)
(4.37787e-05 1.25935e-06 8.68497e-07 5.71736e-06 1.31033e-05 0.000363725)
(2.87422e-05 -2.82979e-06 1.24838e-05 5.38976e-06 -4.07234e-06 0.000512079)
(4.34949e-05 -4.67047e-07 8.87757e-08 4.97938e-06 1.19106e-05 0.000366895)
(2.78334e-05 2.68096e-06 -1.89782e-05 5.78653e-06 -5.56267e-06 0.000439622)
(4.31003e-05 1.27641e-06 1.05246e-06 6.13859e-06 1.38776e-05 0.000368501)
(2.86098e-05 -2.99987e-06 1.33717e-05 5.8216e-06 -4.21724e-06 0.000519347)
(4.28536e-05 -4.72468e-07 -2.7073e-07 5.37843e-06 1.26715e-05 0.000372783)
(2.76732e-05 2.87883e-06 -1.92123e-05 6.25801e-06 -5.87949e-06 0.000443116)
(4.24034e-05 1.29025e-06 1.22643e-06 6.55788e-06 1.46317e-05 0.000372708)
(2.84313e-05 -3.16219e-06 1.41768e-05 6.26716e-06 -4.3472e-06 0.000525252)
(4.21691e-05 -4.78783e-07 -6.0189e-07 5.78999e-06 1.34205e-05 0.000377734)
(2.74597e-05 3.06326e-06 -1.93826e-05 6.74195e-06 -6.17579e-06 0.000445562)
(4.16882e-05 1.30269e-06 1.39388e-06 6.98108e-06 1.53749e-05 0.000376372)
(2.82114e-05 -3.31545e-06 1.49048e-05 6.72641e-06 -4.45044e-06 0.000529904)
(4.14422e-05 -4.88658e-07 -9.06448e-07 6.2162e-06 1.41614e-05 0.000381835)
(2.7206e-05 3.23172e-06 -1.95419e-05 7.23289e-06 -6.44448e-06 0.000447146)
(4.09557e-05 1.31481e-06 1.54836e-06 7.4177e-06 1.61e-05 0.000379365)
(2.79537e-05 -3.45879e-06 1.55656e-05 7.19769e-06 -4.52927e-06 0.000533449)
(4.06762e-05 -4.98285e-07 -1.18472e-06 6.6569e-06 1.48655e-05 0.000385066)
(2.69358e-05 3.39964e-06 -1.9739e-05 7.73564e-06 -6.69611e-06 0.000447924)
(4.02076e-05 1.32497e-06 1.66892e-06 7.86821e-06 1.67725e-05 0.00038143)
(2.76584e-05 -3.59281e-06 1.61512e-05 7.6814e-06 -4.59951e-06 0.000536055)
(3.98713e-05 -5.0738e-07 -1.43873e-06 7.10354e-06 1.55173e-05 0.00038715)
(2.66591e-05 3.58281e-06 -1.99563e-05 8.26061e-06 -6.9486e-06 0.000447922)
(3.9447e-05 1.33572e-06 1.75669e-06 8.32506e-06 1.73989e-05 0.000382657)
(2.73242e-05 -3.71473e-06 1.66319e-05 8.18123e-06 -4.6551e-06 0.000537772)
(3.90255e-05 -5.19627e-07 -1.6855e-06 7.55601e-06 1.61198e-05 0.000388482)
(2.63499e-05 3.77019e-06 -2.00956e-05 8.81199e-06 -7.20677e-06 0.000447262)
(3.86791e-05 1.34566e-06 1.83033e-06 8.79288e-06 1.80257e-05 0.000383429)
(2.6951e-05 -3.82662e-06 1.69834e-05 8.69535e-06 -4.68384e-06 0.000538413)
(3.81432e-05 -5.34097e-07 -1.93848e-06 8.03036e-06 1.6734e-05 0.000389627)
(2.59893e-05 3.94091e-06 -2.00874e-05 9.38788e-06 -7.50174e-06 0.00044606)
(3.79109e-05 1.35588e-06 1.91277e-06 9.2768e-06 1.8657e-05 0.000383957)
(2.65384e-05 -3.95225e-06 1.72313e-05 9.21799e-06 -4.73602e-06 0.000537916)
(3.72376e-05 -5.44779e-07 -2.18095e-06 8.52877e-06 1.7396e-05 0.000390625)
(2.55633e-05 4.09353e-06 -1.98979e-05 9.97456e-06 -7.82579e-06 0.000443894)
(3.71509e-05 1.36536e-06 1.99138e-06 9.76406e-06 1.91917e-05 0.000383875)
(2.60897e-05 -4.09193e-06 1.74204e-05 9.7718e-06 -4.82316e-06 0.000536494)
(3.63221e-05 -5.53444e-07 -2.3787e-06 9.04895e-06 1.80636e-05 0.000391314)
(2.50611e-05 4.25509e-06 -1.95662e-05 1.05829e-05 -8.02393e-06 0.000440321)
(3.64083e-05 1.38845e-06 2.02208e-06 1.02898e-05 1.97162e-05 0.000383155)
(2.56147e-05 -4.20885e-06 1.75215e-05 1.03715e-05 -4.89117e-06 0.000533963)
(3.53933e-05 -5.73429e-07 -2.53217e-06 9.58592e-06 1.86701e-05 0.000391361)
(2.44796e-05 4.40438e-06 -1.92247e-05 1.12221e-05 -8.0631e-06 0.000435951)
(3.56749e-05 1.41463e-06 1.92647e-06 1.08608e-05 2.03025e-05 0.000381814)
(2.51398e-05 -4.26968e-06 1.75577e-05 1.0939e-05 -4.82193e-06 0.000530623)
(3.44477e-05 -5.9411e-07 -2.68998e-06 1.01388e-05 1.91121e-05 0.000390254)
(2.38639e-05 4.46442e-06 -1.90388e-05 1.18081e-05 -8.02662e-06 0.00043229)
(3.49344e-05 1.4128e-06 1.6066e-06 1.13869e-05 2.07889e-05 0.00037894)
(2.46962e-05 -4.2936e-06 1.76536e-05 1.14694e-05 -4.6043e-06 0.000527521)
(3.34906e-05 -6.04511e-07 -2.7997e-06 1.07239e-05 1.95384e-05 0.000388882)
(2.32475e-05 4.44279e-06 -1.87784e-05 1.23781e-05 -8.01974e-06 0.000429294)
(3.41614e-05 1.37587e-06 1.14081e-06 1.18492e-05 2.09291e-05 0.00037327)
(2.43057e-05 -4.3375e-06 1.7931e-05 1.20531e-05 -4.51876e-06 0.000524829)
(3.25357e-05 -5.98097e-07 -2.75917e-06 1.13352e-05 2.0037e-05 0.000388037)
(2.26584e-05 4.46836e-06 -1.84677e-05 1.30288e-05 -8.25101e-06 0.000426075)
(3.3364e-05 1.31472e-06 8.72543e-07 1.23845e-05 2.10013e-05 0.000366162)
(2.39808e-05 -4.42353e-06 1.84246e-05 1.27449e-05 -4.58251e-06 0.000521747)
(3.15394e-05 -5.87922e-07 -2.6894e-06 1.19194e-05 2.04373e-05 0.00038562)
(2.21455e-05 4.63267e-06 -1.82359e-05 1.37956e-05 -8.58707e-06 0.000420334)
(3.25106e-05 1.3071e-06 1.04144e-06 1.30594e-05 2.13569e-05 0.000360261)
(2.35998e-05 -4.52411e-06 1.87738e-05 1.3525e-05 -4.75154e-06 0.000516862)
(3.03806e-05 -5.98391e-07 -2.79436e-06 1.24679e-05 2.05873e-05 0.000380966)
(2.16606e-05 4.86644e-06 -1.8081e-05 1.46426e-05 -9.06117e-06 0.000413857)
(3.15162e-05 1.35109e-06 1.46381e-06 1.37229e-05 2.17764e-05 0.000356234)
(2.31052e-05 -4.58674e-06 1.88052e-05 1.42747e-05 -4.77904e-06 0.000509635)
(2.90458e-05 -6.48611e-07 -3.32405e-06 1.30844e-05 2.06732e-05 0.000374491)
(2.11716e-05 5.0279e-06 -1.80707e-05 1.544e-05 -9.46556e-06 0.000408778)
(3.04677e-05 1.40777e-06 1.66262e-06 1.42988e-05 2.20343e-05 0.000352154)
(2.25507e-05 -4.59801e-06 1.86204e-05 1.49499e-05 -4.59876e-06 0.000500986)
(2.77457e-05 -7.39506e-07 -4.34884e-06 1.38173e-05 2.09942e-05 0.000368871)
(2.0637e-05 5.09448e-06 -1.77343e-05 1.61986e-05 -9.55345e-06 0.000401251)
(2.95347e-05 1.40209e-06 1.33068e-06 1.48974e-05 2.20681e-05 0.000346443)
(2.20121e-05 -4.568e-06 1.83194e-05 1.55891e-05 -4.39335e-06 0.000491038)
(2.67642e-05 -7.81411e-07 -4.77634e-06 1.45786e-05 2.15342e-05 0.000365579)
(2.00276e-05 5.12868e-06 -1.69416e-05 1.69297e-05 -9.50058e-06 0.000389861)
(2.88375e-05 1.40922e-06 1.17004e-06 1.56507e-05 2.21339e-05 0.000339919)
(2.15626e-05 -4.56983e-06 1.82054e-05 1.62641e-05 -4.29949e-06 0.000481136)
(2.59334e-05 -8.18814e-07 -4.42366e-06 1.52765e-05 2.21177e-05 0.00036326)
(1.94259e-05 5.22088e-06 -1.61345e-05 1.76894e-05 -9.55883e-06 0.000378451)
(2.82451e-05 1.45059e-06 1.28163e-06 1.64783e-05 2.23004e-05 0.000334289)
(2.12768e-05 -4.63977e-06 1.83703e-05 1.70338e-05 -4.20615e-06 0.000470468)
(2.50693e-05 -8.5558e-07 -4.01221e-06 1.59334e-05 2.24637e-05 0.000359305)
(1.8832e-05 5.31441e-06 -1.53838e-05 1.84747e-05 -9.66942e-06 0.000369197)
(2.77045e-05 1.51123e-06 1.32219e-06 1.71421e-05 2.26556e-05 0.000332689)
(2.10341e-05 -4.74513e-06 1.86445e-05 1.79032e-05 -4.20989e-06 0.000460088)
(2.40875e-05 -9.02625e-07 -3.71292e-06 1.66748e-05 2.26897e-05 0.000352566)
(1.82179e-05 5.37861e-06 -1.45212e-05 1.93182e-05 -9.81389e-06 0.000359856)
(2.71588e-05 1.55182e-06 9.49625e-07 1.76892e-05 2.29089e-05 0.000330478)
(2.0551e-05 -4.82424e-06 1.81769e-05 1.87389e-05 -4.10922e-06 0.000448166)
(2.31394e-05 -9.39231e-07 -3.60936e-06 1.7565e-05 2.27771e-05 0.000342791)
(1.75265e-05 5.38721e-06 -1.37757e-05 2.02674e-05 -1.00747e-05 0.000351295)
(2.6544e-05 1.47132e-06 1.65242e-07 1.83583e-05 2.29796e-05 0.000324444)
(1.97461e-05 -4.79115e-06 1.67547e-05 1.94923e-05 -3.99982e-06 0.00043403)
(2.22482e-05 -8.99081e-07 -3.13132e-06 1.84775e-05 2.2733e-05 0.000330061)
(1.68908e-05 5.42157e-06 -1.37844e-05 2.12711e-05 -1.04143e-05 0.000345147)
(2.5949e-05 1.45125e-06 -2.32604e-07 1.92838e-05 2.28117e-05 0.000314395)
(1.90964e-05 -4.79876e-06 1.60172e-05 2.03515e-05 -4.0657e-06 0.000421183)
(2.14804e-05 -8.73857e-07 -2.73857e-06 1.92382e-05 2.25627e-05 0.00031782)
(1.64228e-05 5.58316e-06 -1.43569e-05 2.2358e-05 -1.06638e-05 0.000338905)
(2.54188e-05 1.452e-06 -2.76656e-07 2.0331e-05 2.31514e-05 0.00030628)
(1.88049e-05 -4.79524e-06 1.63284e-05 2.13649e-05 -4.32928e-06 0.000411415)
(2.08706e-05 -8.5065e-07 -2.95095e-06 1.9934e-05 2.23477e-05 0.000308336)
(1.6052e-05 5.67403e-06 -1.4296e-05 2.32957e-05 -1.08475e-05 0.000329585)
(2.5033e-05 1.5358e-06 -2.25904e-07 2.12349e-05 2.36949e-05 0.000302534)
(1.862e-05 -4.7546e-06 1.68744e-05 2.23322e-05 -4.51957e-06 0.000402253)
(2.03569e-05 -7.88166e-07 -3.30599e-06 2.0855e-05 2.25304e-05 0.000304193)
(1.56408e-05 5.65782e-06 -1.34074e-05 2.41393e-05 -1.0923e-05 0.000316953)
(2.46758e-05 1.58047e-06 -4.27164e-07 2.19765e-05 2.3808e-05 0.000299229)
(1.83776e-05 -4.66072e-06 1.70476e-05 2.31456e-05 -4.36641e-06 0.000392264)
(1.98257e-05 -7.06462e-07 -3.60748e-06 2.18264e-05 2.25288e-05 0.000300354)
(1.51565e-05 5.55964e-06 -1.21476e-05 2.50041e-05 -1.07682e-05 0.000304595)
(2.44303e-05 1.5166e-06 -7.70743e-07 2.25898e-05 2.31536e-05 0.000293325)
(1.81815e-05 -4.60663e-06 1.72459e-05 2.391e-05 -4.19297e-06 0.00038449)
(1.91545e-05 -6.5515e-07 -3.80326e-06 2.25122e-05 2.20172e-05 0.000291553)
(1.46322e-05 5.49815e-06 -1.09191e-05 2.58508e-05 -1.04897e-05 0.000294281)
(2.42474e-05 1.38821e-06 -1.18948e-06 2.32869e-05 2.23407e-05 0.000284123)
(1.80645e-05 -4.61085e-06 1.78902e-05 2.48003e-05 -4.16091e-06 0.000379452)
(1.85956e-05 -7.14899e-07 -3.68852e-06 2.32881e-05 2.1531e-05 0.000280394)
(1.42005e-05 5.5462e-06 -1.02163e-05 2.68209e-05 -1.05573e-05 0.000285274)
(2.41722e-05 1.30109e-06 -1.35875e-06 2.42075e-05 2.20726e-05 0.000273706)
(1.79739e-05 -4.66322e-06 1.88301e-05 2.58101e-05 -4.42916e-06 0.000375098)
(1.83104e-05 -8.36617e-07 -3.44951e-06 2.44054e-05 2.15913e-05 0.000271221)
(1.39191e-05 5.69719e-06 -1.00653e-05 2.79901e-05 -1.10521e-05 0.000277501)
(2.42578e-05 1.25885e-06 -1.30627e-06 2.53175e-05 2.27002e-05 0.000267381)
(1.77066e-05 -4.61033e-06 1.90804e-05 2.67785e-05 -4.31296e-06 0.000365468)
(1.81021e-05 -8.96018e-07 -2.74841e-06 2.54396e-05 2.1756e-05 0.000263888)
(1.36901e-05 5.76868e-06 -1.00051e-05 2.91721e-05 -1.15633e-05 0.000270573)
(2.43132e-05 1.21914e-06 -7.96248e-07 2.63205e-05 2.28149e-05 0.000260836)
(1.74004e-05 -4.51805e-06 1.90703e-05 2.7704e-05 -4.11118e-06 0.000354534)
(1.78086e-05 -8.82739e-07 -1.62944e-06 2.62513e-05 2.1569e-05 0.000255868)
(1.34608e-05 5.70709e-06 -9.66017e-06 3.01238e-05 -1.17057e-05 0.000262689)
(2.41902e-05 1.22791e-06 -2.26965e-07 2.71322e-05 2.20534e-05 0.000252444)
(1.72415e-05 -4.43728e-06 1.93036e-05 2.86126e-05 -4.02814e-06 0.000346237)
(1.74301e-05 -8.73125e-07 -5.91315e-07 2.7168e-05 2.12979e-05 0.000247801)
(1.3185e-05 5.60022e-06 -8.82607e-06 3.09586e-05 -1.15581e-05 0.00025299)
(2.39066e-05 1.23714e-06 -6.62257e-07 2.79462e-05 2.14364e-05 0.000245524)
(1.70056e-05 -4.42064e-06 1.91438e-05 2.96047e-05 -4.17605e-06 0.000339605)
(1.70029e-05 -8.79199e-07 2.85504e-07 2.81824e-05 2.10437e-05 0.000240227)
(1.29241e-05 5.56181e-06 -7.78617e-06 3.19274e-05 -1.15836e-05 0.000243426)
(2.35377e-05 1.22277e-06 -1.6604e-06 2.87689e-05 2.11456e-05 0.000239227)
(1.65609e-05 -4.41477e-06 1.8203e-05 3.05776e-05 -4.25334e-06 0.000329161)
(1.66641e-05 -8.93857e-07 7.40341e-07 2.91304e-05 2.07792e-05 0.000234044)
(1.27827e-05 5.64552e-06 -7.10003e-06 3.30593e-05 -1.19818e-05 0.000236591)
(2.322e-05 1.22558e-06 -2.49761e-06 2.96269e-05 2.06083e-05 0.000231621)
(1.61875e-05 -4.35742e-06 1.76036e-05 3.14742e-05 -4.39311e-06 0.000317433)
(1.65075e-05 -9.63221e-07 8.82308e-07 3.00415e-05 2.02489e-05 0.000226806)
(1.26253e-05 5.67872e-06 -6.34901e-06 3.40838e-05 -1.23413e-05 0.00023178)
(2.29805e-05 1.30634e-06 -2.92555e-06 3.07403e-05 2.01878e-05 0.000226179)
(1.60475e-05 -4.191e-06 1.76382e-05 3.23425e-05 -4.36138e-06 0.000306865)
(1.64539e-05 -9.93089e-07 1.22956e-06 3.09583e-05 1.94817e-05 0.000218565)
(1.24498e-05 5.63513e-06 -5.59139e-06 3.49205e-05 -1.24565e-05 0.000227712)
(2.27213e-05 1.40556e-06 -3.08013e-06 3.19046e-05 1.97802e-05 0.000222073)
(1.5993e-05 -4.01843e-06 1.79818e-05 3.31125e-05 -4.12632e-06 0.000296999)
(1.63709e-05 -9.52735e-07 2.00674e-06 3.18501e-05 1.87657e-05 0.000212909)
(1.22913e-05 5.55425e-06 -4.93011e-06 3.58155e-05 -1.24536e-05 0.00022432)
(2.24172e-05 1.50514e-06 -3.42741e-06 3.2917e-05 1.93115e-05 0.000219093)
(1.59345e-05 -3.93113e-06 1.83347e-05 3.40032e-05 -3.87953e-06 0.000286953)
(1.61789e-05 -8.85158e-07 2.99217e-06 3.27951e-05 1.81445e-05 0.000209322)
(1.22922e-05 5.52684e-06 -4.54568e-06 3.68223e-05 -1.24165e-05 0.000220884)
(2.20688e-05 1.55891e-06 -3.99036e-06 3.36784e-05 1.83312e-05 0.000215716)
(1.57949e-05 -3.88978e-06 1.84846e-05 3.51101e-05 -4.32156e-06 0.000282159)
(1.60646e-05 -9.1373e-07 3.29676e-06 3.37794e-05 1.74512e-05 0.000205068)
(1.23736e-05 5.49704e-06 -4.24718e-06 3.78586e-05 -1.23342e-05 0.000216893)
(2.16915e-05 1.53926e-06 -4.30555e-06 3.41842e-05 1.67622e-05 0.000212004)
(1.55943e-05 -3.84272e-06 1.8475e-05 3.61438e-05 -5.15047e-06 0.00028049)
(1.60419e-05 -8.88067e-07 2.83234e-06 3.45803e-05 1.64725e-05 0.000199738)
(1.24191e-05 5.40196e-06 -4.05824e-06 3.8822e-05 -1.23316e-05 0.000214846)
(2.13107e-05 1.51337e-06 -4.43865e-06 3.49096e-05 1.53767e-05 0.000210856)
(1.5402e-05 -3.74486e-06 1.85016e-05 3.68963e-05 -5.61104e-06 0.00027905)
(1.60043e-05 -8.07816e-07 2.81878e-06 3.53512e-05 1.57184e-05 0.000198305)
(1.25556e-05 5.36236e-06 -4.08808e-06 3.96531e-05 -1.24921e-05 0.000214086)
(2.08822e-05 1.49785e-06 -4.49931e-06 3.61433e-05 1.47509e-05 0.000213304)
(1.53172e-05 -3.55917e-06 1.87076e-05 3.74438e-05 -5.4793e-06 0.000277226)
(1.59414e-05 -7.7031e-07 3.10386e-06 3.63561e-05 1.51572e-05 0.000199342)
(1.27958e-05 5.39098e-06 -4.24508e-06 4.03655e-05 -1.28064e-05 0.00021477)
(2.04012e-05 1.45501e-06 -4.48885e-06 3.73802e-05 1.42227e-05 0.000215303)
(1.52182e-05 -3.37878e-06 1.86406e-05 3.8109e-05 -5.48888e-06 0.000273925)
(1.58488e-05 -7.74358e-07 3.46308e-06 3.73774e-05 1.4357e-05 0.000199327)
(1.30128e-05 5.37072e-06 -4.28115e-06 4.11238e-05 -1.32222e-05 0.000216708)
(1.99019e-05 1.35483e-06 -4.43334e-06 3.82082e-05 1.32005e-05 0.000215268)
(1.50311e-05 -3.2905e-06 1.82564e-05 3.90254e-05 -5.92796e-06 0.000269264)
(1.57566e-05 -7.37035e-07 3.68845e-06 3.81075e-05 1.32946e-05 0.000199193)
(1.32279e-05 5.28785e-06 -4.41272e-06 4.20335e-05 -1.35384e-05 0.000220183)
(1.94529e-05 1.27639e-06 -3.97078e-06 3.87486e-05 1.1798e-05 0.000215374)
(1.47363e-05 -3.20445e-06 1.76696e-05 3.99574e-05 -6.42114e-06 0.000265581)
(1.56345e-05 -6.7573e-07 3.94238e-06 3.87582e-05 1.20694e-05 0.000199135)
(1.34593e-05 5.18021e-06 -4.55039e-06 4.288e-05 -1.35103e-05 0.000223345)
(1.90642e-05 1.30368e-06 -3.38291e-06 3.94576e-05 1.06788e-05 0.000217546)
(1.44271e-05 -3.13274e-06 1.70626e-05 4.06402e-05 -6.78308e-06 0.000263562)
(1.54473e-05 -6.57778e-07 3.9982e-06 3.9488e-05 1.07648e-05 0.000199573)
(1.36906e-05 5.01397e-06 -4.62469e-06 4.34574e-05 -1.33046e-05 0.000226481)
(1.865e-05 1.36008e-06 -3.18445e-06 4.03982e-05 9.88851e-06 0.000220392)
(1.42628e-05 -2.98414e-06 1.68132e-05 4.09785e-05 -6.88221e-06 0.000266445)
(1.52407e-05 -6.02216e-07 4.09113e-06 4.0123e-05 9.52066e-06 0.000201236)
(1.3929e-05 4.82918e-06 -4.79206e-06 4.38703e-05 -1.31246e-05 0.000230768)
(1.81786e-05 1.36186e-06 -3.50377e-06 4.12699e-05 9.07426e-06 0.000223878)
(1.41704e-05 -2.78162e-06 1.68661e-05 4.13025e-05 -6.88425e-06 0.000273906)
(1.50402e-05 -5.4935e-07 4.16752e-06 4.07388e-05 8.34164e-06 0.000204762)
(1.41573e-05 4.69529e-06 -5.10196e-06 4.43125e-05 -1.30755e-05 0.000235994)
(1.76676e-05 1.31502e-06 -3.932e-06 4.19871e-05 8.08625e-06 0.000228307)
(1.4023e-05 -2.6011e-06 1.66758e-05 4.17659e-05 -6.82525e-06 0.000280916)
(1.48824e-05 -5.47492e-07 4.0631e-06 4.14513e-05 7.13423e-06 0.000210079)
(1.4406e-05 4.60787e-06 -5.60882e-06 4.4863e-05 -1.3267e-05 0.000242581)
(1.71424e-05 1.30039e-06 -3.99783e-06 4.26624e-05 6.79161e-06 0.000233919)
(1.38682e-05 -2.51691e-06 1.64688e-05 4.24248e-05 -7.36631e-06 0.000287844)
(1.47621e-05 -5.19086e-07 3.81303e-06 4.19857e-05 5.73198e-06 0.000215681)
(1.47703e-05 4.51958e-06 -6.34312e-06 4.54811e-05 -1.35272e-05 0.000249886)
(1.66095e-05 1.32414e-06 -3.83385e-06 4.31339e-05 5.31001e-06 0.000240533)
(1.37775e-05 -2.45256e-06 1.62768e-05 4.30914e-05 -7.96617e-06 0.000296613)
(1.46232e-05 -4.68396e-07 3.54334e-06 4.24551e-05 4.23766e-06 0.000223551)
(1.51313e-05 4.41387e-06 -7.06861e-06 4.5952e-05 -1.37604e-05 0.000256962)
(1.60865e-05 1.29897e-06 -3.95587e-06 4.3602e-05 3.71552e-06 0.000247129)
(1.37578e-05 -2.34983e-06 1.60319e-05 4.34263e-05 -8.14632e-06 0.000304141)
(1.44638e-05 -4.84765e-07 3.33086e-06 4.29864e-05 2.64133e-06 0.000232167)
(1.54392e-05 4.22298e-06 -7.63315e-06 4.63668e-05 -1.36288e-05 0.000264504)
(1.56219e-05 1.21435e-06 -4.31958e-06 4.41667e-05 1.97034e-06 0.000253721)
(1.36795e-05 -2.14408e-06 1.5537e-05 4.36943e-05 -8.00115e-06 0.000308727)
(1.43405e-05 -4.45265e-07 3.22019e-06 4.33508e-05 5.70908e-07 0.000240143)
(1.57201e-05 3.87294e-06 -7.96448e-06 4.66783e-05 -1.2621e-05 0.000272551)
(1.52388e-05 1.12604e-06 -4.57515e-06 4.44901e-05 -4.66644e-08 0.000260225)
(1.34214e-05 -1.80302e-06 1.46486e-05 4.34932e-05 -7.51053e-06 0.000309263)
(1.42595e-05 -3.3741e-07 3.06188e-06 4.33851e-05 -1.85258e-06 0.000247505)
(1.59945e-05 3.41015e-06 -8.14442e-06 4.58364e-05 -1.09982e-05 0.000279243)
(1.48973e-05 1.0984e-06 -4.60175e-06 4.42868e-05 -1.90384e-06 0.000266139)
(1.31551e-05 -1.54524e-06 1.38166e-05 4.24502e-05 -7.30477e-06 0.000306067)
(1.40871e-05 -3.10963e-07 2.89048e-06 4.25098e-05 -3.71215e-06 0.000253084)
(1.62937e-05 3.12907e-06 -8.76507e-06 4.43994e-05 -1.04009e-05 0.000285115)
(9.11357e-07 -2.21081e-09 -3.19527e-08 6.39931e-10 -4.25996e-09 4.28627e-06)
(3.99131e-07 3.55581e-09 6.25111e-08 7.72865e-10 1.46342e-08 2.59474e-06)
(9.05725e-07 6.9117e-10 1.63934e-08 5.92608e-10 -2.95605e-09 2.93205e-06)
(3.80055e-07 -2.19288e-09 -4.31267e-08 7.17526e-10 1.61423e-08 3.48794e-06)
(3.84476e-06 -6.27025e-09 -3.64729e-07 3.2708e-09 -1.00694e-08 1.26851e-05)
(1.45134e-06 1.12488e-08 7.28772e-09 3.93374e-09 2.41242e-08 1.14591e-05)
(3.7969e-06 1.39112e-10 2.52902e-07 3.03487e-09 -8.20558e-09 8.99237e-06)
(1.29843e-06 -6.16954e-09 2.29595e-07 3.53538e-09 2.98851e-08 1.72958e-05)
(5.14166e-06 -7.00622e-09 -7.10405e-07 1.26238e-08 -3.06438e-09 2.22234e-05)
(1.82909e-06 1.37937e-08 -3.65975e-08 1.48586e-08 -1.66389e-08 2.47879e-05)
(5.00676e-06 -4.22762e-09 6.10785e-07 1.16621e-08 -4.6136e-09 1.6074e-05)
(1.45645e-06 -4.4831e-09 5.89695e-07 1.38187e-08 7.16614e-10 3.89229e-05)
(6.4917e-06 -3.4351e-09 -1.07201e-06 2.8541e-08 3.55056e-08 3.77012e-05)
(2.36116e-06 1.06298e-08 -4.21903e-08 3.2726e-08 -6.75866e-08 4.353e-05)
(6.22393e-06 -1.2618e-08 1.14149e-06 2.6558e-08 2.75122e-08 2.69083e-05)
(1.70603e-06 2.07315e-09 8.96978e-07 3.03956e-08 -3.52193e-08 6.86801e-05)
(8.53526e-06 -1.11531e-09 -1.45256e-06 4.91027e-08 8.03275e-08 5.60171e-05)
(3.20586e-06 9.55657e-09 -1.17783e-07 5.55668e-08 -9.63144e-08 6.59436e-05)
(8.09789e-06 -2.02422e-08 1.8082e-06 4.58761e-08 5.95905e-08 3.9616e-05)
(2.206e-06 7.69264e-09 1.25382e-06 5.18995e-08 -4.00755e-08 0.000103734)
(1.08595e-05 6.42466e-10 -1.78071e-06 7.59428e-08 1.30729e-07 7.57743e-05)
(4.1796e-06 1.04508e-08 -2.50058e-07 8.51865e-08 -1.03413e-07 9.1033e-05)
(1.0219e-05 -2.83705e-08 2.54268e-06 7.12222e-08 9.37384e-08 5.33778e-05)
(2.79172e-06 1.27673e-08 1.62063e-06 7.97065e-08 -1.64147e-08 0.000142243)
(1.3277e-05 2.95073e-09 -2.01778e-06 1.08693e-07 1.89957e-07 9.631e-05)
(5.20475e-06 1.20091e-08 -4.1914e-07 1.21256e-07 -9.26953e-08 0.00011793)
(1.24038e-05 -3.71003e-08 3.30072e-06 1.02262e-07 1.32923e-07 6.7759e-05)
(3.40541e-06 1.78942e-08 1.95761e-06 1.13528e-07 3.2512e-08 0.000182735)
(1.56686e-05 7.03375e-09 -2.14568e-06 1.47332e-07 2.61392e-07 0.000117005)
(6.23051e-06 1.3125e-08 -6.09154e-07 1.63729e-07 -6.91954e-08 0.000145621)
(1.45386e-05 -4.66754e-08 4.04918e-06 1.38955e-07 1.80516e-07 8.23247e-05)
(4.01581e-06 2.35904e-08 2.23954e-06 1.53405e-07 1.01574e-07 0.000223765)
(1.79462e-05 1.39359e-08 -2.16541e-06 1.92014e-07 3.4708e-07 0.000137239)
(7.21855e-06 1.28495e-08 -8.06836e-07 2.12622e-07 -3.73432e-08 0.000173028)
(1.65417e-05 -5.72904e-08 4.76344e-06 1.81456e-07 2.39685e-07 9.66275e-05)
(4.60243e-06 3.02355e-08 2.45316e-06 1.99484e-07 1.86563e-07 0.000263953)
(2.00471e-05 2.41801e-08 -2.09437e-06 2.42801e-07 4.48407e-07 0.000156501)
(8.14115e-06 1.05165e-08 -1.00128e-06 2.67757e-07 -7.9986e-10 0.000199209)
(1.83566e-05 -6.89645e-08 5.42546e-06 2.29841e-07 3.12273e-07 0.000110288)
(5.15232e-06 3.81277e-08 2.59645e-06 2.51837e-07 2.84087e-07 0.000302165)
(2.1933e-05 3.74953e-08 -1.95539e-06 2.99498e-07 5.65912e-07 0.000174497)
(8.98151e-06 5.90794e-09 -1.18526e-06 3.28866e-07 3.84642e-08 0.00022355)
(1.99515e-05 -8.14045e-08 6.02442e-06 2.84128e-07 3.99625e-07 0.000123067)
(5.65897e-06 4.73421e-08 2.67725e-06 3.10388e-07 3.92102e-07 0.000337708)
(2.35889e-05 5.30417e-08 -1.77269e-06 3.61327e-07 6.96309e-07 0.000191145)
(9.73304e-06 -7.36098e-10 -1.35488e-06 3.9545e-07 8.03155e-08 0.000245819)
(2.13193e-05 -9.40193e-08 6.55698e-06 3.43772e-07 5.01146e-07 0.000134863)
(6.12023e-06 5.75317e-08 2.71166e-06 3.74588e-07 5.11572e-07 0.000370348)
(2.50144e-05 6.99382e-08 -1.56301e-06 4.27486e-07 8.34234e-07 0.000206483)
(1.03966e-05 -8.79985e-09 -1.50849e-06 4.66762e-07 1.27193e-07 0.00026611)
(2.24681e-05 -1.06019e-07 7.02247e-06 4.07976e-07 6.12087e-07 0.000145662)
(6.53596e-06 6.81787e-08 2.72099e-06 4.43613e-07 6.46799e-07 0.000400339)
(2.62138e-05 8.79068e-08 -1.33071e-06 4.97674e-07 9.75404e-07 0.000220564)
(1.09763e-05 -1.7551e-08 -1.64951e-06 5.42096e-07 1.84643e-07 0.000284664)
(2.34095e-05 -1.17093e-07 7.42135e-06 4.76332e-07 7.27907e-07 0.000155511)
(6.90633e-06 7.88869e-08 2.72009e-06 5.17037e-07 8.00459e-07 0.000428088)
(2.71941e-05 1.06657e-07 -1.07595e-06 5.71975e-07 1.11934e-06 0.000233443)
(1.14755e-05 -2.64695e-08 -1.78123e-06 6.2107e-07 2.56474e-07 0.000301695)
(2.41557e-05 -1.2747e-07 7.74834e-06 5.48885e-07 8.47957e-07 0.000164466)
(7.2318e-06 8.95005e-08 2.71481e-06 5.951e-07 9.69896e-07 0.000453716)
(2.7967e-05 1.25576e-07 -7.97056e-07 6.50513e-07 1.26721e-06 0.000245168)
(1.18967e-05 -3.52745e-08 -1.9009e-06 7.03729e-07 3.41725e-07 0.000317328)
(2.47177e-05 -1.37135e-07 7.99363e-06 6.25981e-07 9.73999e-07 0.000172572)
(7.51367e-06 1.00081e-07 2.70774e-06 6.78095e-07 1.15101e-06 0.00047717)
(2.85464e-05 1.44195e-07 -4.95467e-07 7.3336e-07 1.41837e-06 0.000255773)
(1.22427e-05 -4.38118e-08 -2.0029e-06 7.90293e-07 4.37533e-07 0.000331625)
(2.51078e-05 -1.45859e-07 8.15449e-06 7.07849e-07 1.10695e-06 0.000179858)
(7.75446e-06 1.1062e-07 2.70168e-06 7.66136e-07 1.34143e-06 0.000498406)
(2.89483e-05 1.62337e-07 -1.77826e-07 8.20615e-07 1.57136e-06 0.000265269)
(1.2518e-05 -5.19178e-08 -2.08335e-06 8.809e-07 5.43277e-07 0.000344611)
(2.53413e-05 -1.53546e-07 8.23443e-06 7.94595e-07 1.24554e-06 0.000186327)
(7.95757e-06 1.21072e-07 2.70044e-06 8.59338e-07 1.54026e-06 0.000517408)
(2.9189e-05 1.79975e-07 1.4748e-07 9.12277e-07 1.72516e-06 0.000273664)