/*--------------------------------*- C++ -*----------------------------------*\
| =========                 |                                                 |
| \\      /  F ield         | OpenFOAM: The Open Source CFD Toolbox           |
|  \\    /   O peration     | Version:  v1906                                 |
|   \\  /    A nd           | Web:      www.OpenFOAM.com                      |
|    \\/     M anipulation  |                                                 |
\*---------------------------------------------------------------------------*/
FoamFile
{
    version     2.0;
    format      ascii;
    class       volVectorField;
    location    "96.4";
    object      wallShearStress;
}
// * * * * * * * * * * * * * * * * * * * * * * * * * * * * * * * * * * * * * //

dimensions      [1 -1 -2 0 0 0 0];


internalField   uniform (0 0 0);

boundaryField
{
    leftWall
    {
        type            calculated;
        value           nonuniform List<vector> 
16
(
(-0.0098458 0.0202738 0.31904)
(0.00340736 2.28966e-05 0.162933)
(-0.00816799 -0.000506791 0.291348)
(-0.0096921 0.000150003 0.267442)
(0.0224778 0.00235292 0.20932)
(0.000361511 -0.000322531 0.123824)
(0.0178396 0.000304265 0.193341)
(-0.012096 0.000108521 0.323936)
(0.00850944 -0.00180005 0.289016)
(-0.00286504 1.68818e-05 0.250476)
(0.00524835 -0.000344083 0.263119)
(0.0100658 -0.000113703 0.353722)
(-0.0125835 0.00186193 0.362788)
(0.000563736 -0.000294361 0.205663)
(-0.00543527 0.000119472 0.331047)
(0.0152602 0.000341951 0.364829)
)
;
    }
    rightWall
    {
        type            calculated;
        value           nonuniform List<vector> 
16
(
(-0.245171 0.000698461 0.275254)
(0.00701661 0.000101009 0.344802)
(-0.0317404 0.000419661 0.398416)
(0.00618246 -0.000302413 0.18205)
(-0.0641503 0.000626611 0.31242)
(-0.00343993 0.000432053 0.48098)
(-0.0142295 -0.000480995 0.439012)
(0.00743232 -0.000246612 0.146631)
(0.246857 0.00157692 0.238866)
(-0.00265396 0.000131003 0.442395)
(0.0352346 0.000582083 0.385661)
(-0.00172951 -0.000119857 0.252056)
(0.0785629 -0.00248627 0.227554)
(0.00434958 0.000323395 0.388443)
(0.0230398 -0.000610367 0.328324)
(-0.00508091 -0.000308122 0.121981)
)
;
    }
    leftSides_periodic0
    {
        type            cyclic;
    }
    leftSides_periodic1
    {
        type            cyclic;
    }
    rightSides_periodic0
    {
        type            cyclic;
    }
    rightSides_periodic1
    {
        type            cyclic;
    }
    leftInOut_periodic0
    {
        type            cyclic;
    }
    leftInOut_periodic1
    {
        type            cyclic;
    }
    rightInOut_periodic0
    {
        type            cyclic;
    }
    rightInOut_periodic1
    {
        type            cyclic;
    }
}


// ************************************************************************* //
