/*--------------------------------*- C++ -*----------------------------------*\
| =========                 |                                                 |
| \\      /  F ield         | OpenFOAM: The Open Source CFD Toolbox           |
|  \\    /   O peration     | Version:  v1912                                 |
|   \\  /    A nd           | Website:  www.openfoam.com                      |
|    \\/     M anipulation  |                                                 |
\*---------------------------------------------------------------------------*/
FoamFile
{
    version     2.0;
    format      ascii;
    class       volVectorField;
    location    "97.6";
    object      wallShearStress;
}
// * * * * * * * * * * * * * * * * * * * * * * * * * * * * * * * * * * * * * //

dimensions      [1 -1 -2 0 0 0 0];


internalField   uniform (0 0 0);

boundaryField
{
    leftWall
    {
        type            calculated;
        value           nonuniform List<vector> 
16
(
(-0.0149681 0.0198827 -0.219461)
(0.0471302 0.000253798 -0.329563)
(0.0145018 -0.000337317 -0.328365)
(0.0617076 0.00154463 -0.132436)
(-0.0770074 -0.00023495 -0.167635)
(0.000729958 1.27134e-05 -0.357541)
(0.00499397 -2.75853e-05 -0.366927)
(-0.00463525 -0.00119164 -0.21911)
(0.0185114 -0.000102794 -0.165517)
(-0.0427917 0.000252283 -0.346889)
(-0.00662458 -0.000195764 -0.311491)
(-0.0604208 0.00136227 -0.174199)
(0.0765191 -4.70196e-05 -0.182787)
(0.00276296 -0.000334139 -0.330079)
(-0.00429783 -3.68264e-05 -0.286283)
(0.00724189 -0.00202411 -0.169886)
)
;
    }
    rightWall
    {
        type            calculated;
        value           nonuniform List<vector> 
16
(
(0.0176179 -9.93051e-05 -0.438512)
(-0.0887523 -0.000600633 -0.262491)
(-0.00245585 8.97492e-05 -0.294548)
(-0.228035 -0.0018895 -0.361778)
(-0.00338798 -5.77574e-05 -0.414114)
(0.00795935 0.000846185 -0.220291)
(0.00168675 -8.25735e-05 -0.181109)
(0.0119259 0.00227659 -0.356362)
(-0.0113359 2.37872e-05 -0.311075)
(0.0908063 -0.000600527 -0.175684)
(0.0161498 6.25293e-05 -0.152876)
(0.211354 -0.00187029 -0.344617)
(-0.00315861 -0.000162847 -0.436491)
(0.00412575 0.000778662 -0.28611)
(-0.000338027 -0.00017426 -0.198613)
(-0.0105427 0.00152891 -0.432988)
)
;
    }
    leftSides_periodic0
    {
        type            cyclic;
    }
    leftSides_periodic1
    {
        type            cyclic;
    }
    rightSides_periodic0
    {
        type            cyclic;
    }
    rightSides_periodic1
    {
        type            cyclic;
    }
    leftInOut_periodic0
    {
        type            cyclic;
    }
    leftInOut_periodic1
    {
        type            cyclic;
    }
    rightInOut_periodic0
    {
        type            cyclic;
    }
    rightInOut_periodic1
    {
        type            cyclic;
    }
}


// ************************************************************************* //
