/*--------------------------------*- C++ -*----------------------------------*\
| =========                 |                                                 |
| \\      /  F ield         | OpenFOAM: The Open Source CFD Toolbox           |
|  \\    /   O peration     | Version:  v1906                                 |
|   \\  /    A nd           | Web:      www.OpenFOAM.com                      |
|    \\/     M anipulation  |                                                 |
\*---------------------------------------------------------------------------*/
FoamFile
{
    version     2.0;
    format      ascii;
    class       volScalarField;
    location    "38.4";
    object      heatTransferCoeff(T);
}
// * * * * * * * * * * * * * * * * * * * * * * * * * * * * * * * * * * * * * //

dimensions      [1 0 -3 -1 0 0 0];


internalField   uniform 0;

boundaryField
{
    leftWall
    {
        type            calculated;
        value           nonuniform List<scalar> 
100
(
7.07566
-67.8282
23.9182
-152.053
-21.3691
-182.59
-45.8656
-193.422
-79.7907
-186.121
-81.0447
-159.384
-177.154
-212.953
-189.399
-219.281
-194.009
-218.144
-195.891
-190.108
-210.417
-229.233
-249.105
-239.655
-251.98
-237.766
-255.937
-232.265
-260.582
-207.175
-265.365
-257.252
-279.009
-256.146
-279.517
-251.023
-283.679
-242.076
-290.45
-219.006
-278.535
-269.807
-290.697
-268.039
-290.943
-262.641
-294.733
-253.315
-301.578
-232.238
-282.672
-274.658
-293.665
-272.382
-293.416
-266.93
-297.161
-257.579
-304.266
-237.039
-278.548
-269.823
-290.71
-268.054
-290.955
-262.655
-294.745
-253.328
-301.59
-232.25
-265.401
-257.281
-279.041
-256.173
-279.547
-251.047
-283.707
-242.097
-290.48
-219.027
-210.494
-229.294
-249.169
-239.701
-252.036
-237.805
-255.988
-232.3
-260.634
-207.213
-81.2025
-159.452
-177.292
-213.026
-189.526
-219.349
-194.116
-218.205
-195.991
-190.166
)
;
    }
    rightWall
    {
        type            calculated;
        value           nonuniform List<scalar> 
100
(
-571.911
-430.576
-372.492
-378.991
-409.951
-415.553
-409.384
-467.18
-350.762
-738.585
-542.313
-406.653
-339.597
-382.081
-391.747
-430.701
-392.054
-486.556
-326.215
-740.536
-505.419
-441.426
-362.996
-415.343
-381.408
-443.832
-369.518
-495.145
-297.617
-728.779
-492.631
-452.045
-351.548
-418.217
-361.469
-452.913
-354.634
-504.966
-287.337
-709.592
-482.412
-454.42
-350.651
-427.624
-357.615
-460.073
-348.039
-510.142
-280.606
-699.604
-478.216
-456.984
-351.995
-428.755
-354.895
-459.322
-344.355
-509.243
-277.912
-696.299
-482.397
-454.441
-350.653
-427.634
-357.599
-460.074
-348.02
-510.141
-280.588
-699.589
-492.608
-452.07
-351.554
-418.246
-361.451
-452.921
-354.6
-504.964
-287.311
-709.565
-505.398
-441.425
-362.955
-415.36
-381.372
-443.85
-369.476
-495.159
-297.575
-728.755
-542.291
-406.652
-339.569
-382.083
-391.724
-430.701
-392.029
-486.551
-326.206
-740.511
)
;
    }
    leftSides_periodic0
    {
        type            cyclic;
    }
    leftSides_periodic1
    {
        type            cyclic;
    }
    rightSides_periodic0
    {
        type            cyclic;
    }
    rightSides_periodic1
    {
        type            cyclic;
    }
    leftInOut_periodic0
    {
        type            cyclic;
    }
    leftInOut_periodic1
    {
        type            cyclic;
    }
    rightInOut_periodic0
    {
        type            cyclic;
    }
    rightInOut_periodic1
    {
        type            cyclic;
    }
}


// ************************************************************************* //
