-0.0075 	373
-0.00715932 	361.227
-0.00676191 	359.391
-0.00629832 	358.654
-0.00575752 	358.198
-0.00512667 	357.838
-0.00439077 	357.514
-0.00353231 	357.2
-0.00253089 	356.876
-0.00136271 	356.526
0 	356.139
0.00136271 	355.715
0.00253089 	355.27
0.00353231 	354.812
0.00439077 	354.326
0.00512667 	353.774
0.00575752 	353.073
0.00629832 	352.037
0.00676191 	349.805
0.00715932 	338.527
0.0075 	313
