-0.0075 	0 	0 	0
-0.00715932 	-0.000153872 	-3.09731e-05 	0.138263
-0.00676191 	-0.00025365 	-9.42427e-05 	0.219548
-0.00629832 	-0.000279948 	-0.000175201 	0.268476
-0.00575752 	-0.000263898 	-0.000259623 	0.301045
-0.00512667 	-0.000233106 	-0.00033869 	0.325388
-0.00439077 	-0.000202446 	-0.000405948 	0.344573
-0.00353231 	-0.000177493 	-0.000461247 	0.359595
-0.00253089 	-0.000157373 	-0.000507208 	0.370566
-0.00136271 	-0.000139026 	-0.000543095 	0.377233
0 	-0.000121636 	-0.0005637 	0.379022
0.00136271 	-0.000107388 	-0.000563185 	0.375421
0.00253089 	-9.89404e-05 	-0.000540578 	0.366736
0.00353231 	-9.8731e-05 	-0.000499138 	0.353616
0.00439077 	-0.000109394 	-0.000436402 	0.336071
0.00512667 	-0.000131995 	-0.000345384 	0.312948
0.00575752 	-0.000161864 	-0.000228223 	0.281509
0.00629832 	-0.000182778 	-0.000104593 	0.236691
0.00676191 	-0.000161658 	-1.48826e-05 	0.166432
0.00715932 	-8.32638e-05 	9.95398e-06 	0.073702
0.0075 	0 	0 	0
