/*--------------------------------*- C++ -*----------------------------------*\
| =========                 |                                                 |
| \\      /  F ield         | OpenFOAM: The Open Source CFD Toolbox           |
|  \\    /   O peration     | Version:  v1912                                 |
|   \\  /    A nd           | Website:  www.openfoam.com                      |
|    \\/     M anipulation  |                                                 |
\*---------------------------------------------------------------------------*/
FoamFile
{
    version     2.0;
    format      ascii;
    class       volScalarField;
    location    "10.8";
    object      k;
}
// * * * * * * * * * * * * * * * * * * * * * * * * * * * * * * * * * * * * * //

dimensions      [0 2 -2 0 0 0 0];


internalField   nonuniform List<scalar> 
34128
(
2.67617e-07
2.58281e-07
2.5129e-07
2.5237e-07
2.63195e-07
2.69865e-07
2.67334e-07
2.62657e-07
2.6262e-07
2.65639e-07
2.69141e-07
2.78112e-07
5.2401e-08
5.05236e-08
4.94676e-08
4.9923e-08
5.18003e-08
5.2542e-08
5.12782e-08
5.01463e-08
5.08447e-08
5.25048e-08
5.38371e-08
5.49797e-08
8.79969e-08
8.46173e-08
8.44702e-08
8.64839e-08
8.83985e-08
8.67791e-08
8.07116e-08
7.76639e-08
8.23908e-08
9.0598e-08
9.61648e-08
9.49595e-08
2.69451e-07
2.59044e-07
2.59636e-07
2.66563e-07
2.7167e-07
2.65032e-07
2.44093e-07
2.3404e-07
2.50519e-07
2.78715e-07
2.97713e-07
2.92124e-07
6.64411e-07
6.38946e-07
6.40961e-07
6.5836e-07
6.70601e-07
6.53685e-07
6.01301e-07
5.7628e-07
6.17331e-07
6.87409e-07
7.347e-07
7.20047e-07
1.35762e-06
1.30621e-06
1.31107e-06
1.3469e-06
1.37136e-06
1.33642e-06
1.22925e-06
1.17827e-06
1.2619e-06
1.40431e-06
1.50048e-06
1.46936e-06
2.42812e-06
2.33774e-06
2.34788e-06
2.41229e-06
2.45455e-06
2.39129e-06
2.20024e-06
2.11003e-06
2.25889e-06
2.51119e-06
2.68131e-06
2.62307e-06
3.93215e-06
3.78916e-06
3.80836e-06
3.91303e-06
3.97785e-06
3.87351e-06
3.56628e-06
3.42307e-06
3.66298e-06
4.06667e-06
4.33751e-06
4.23772e-06
5.88617e-06
5.67865e-06
5.71229e-06
5.8692e-06
5.95872e-06
5.79849e-06
5.34382e-06
5.136e-06
5.49359e-06
6.08901e-06
6.48471e-06
6.32513e-06
8.25541e-06
7.97564e-06
8.03049e-06
8.25043e-06
8.3627e-06
8.1307e-06
7.5034e-06
7.22449e-06
7.72414e-06
8.54437e-06
9.08132e-06
8.84066e-06
1.0953e-05
1.05995e-05
1.06832e-05
1.09742e-05
1.11026e-05
1.07834e-05
9.96903e-06
9.62014e-06
1.02806e-05
1.13455e-05
1.20278e-05
1.16836e-05
1.38505e-05
1.34289e-05
1.35489e-05
1.39151e-05
1.40492e-05
1.36297e-05
1.26277e-05
1.22187e-05
1.30502e-05
1.43619e-05
1.51783e-05
1.47097e-05
1.67955e-05
1.63189e-05
1.64815e-05
1.69223e-05
1.70489e-05
1.65204e-05
1.53454e-05
1.48944e-05
1.58964e-05
1.74372e-05
1.83611e-05
1.77513e-05
1.96671e-05
1.9148e-05
1.93566e-05
1.98682e-05
1.99769e-05
1.93379e-05
1.80111e-05
1.75366e-05
1.86996e-05
2.04406e-05
2.14428e-05
2.06837e-05
2.24016e-05
2.18556e-05
2.21124e-05
2.26878e-05
2.27679e-05
2.20202e-05
2.05696e-05
2.00931e-05
2.14016e-05
2.33047e-05
2.43506e-05
2.34378e-05
2.49468e-05
2.43913e-05
2.46975e-05
2.53265e-05
2.53668e-05
2.4516e-05
2.29751e-05
2.25195e-05
2.39524e-05
2.59721e-05
2.70243e-05
2.59585e-05
2.72632e-05
2.67172e-05
2.70732e-05
2.77425e-05
2.77317e-05
2.67864e-05
2.51928e-05
2.47819e-05
2.63135e-05
2.83991e-05
2.94195e-05
2.82059e-05
2.93243e-05
2.88076e-05
2.92133e-05
2.99067e-05
2.98328e-05
2.88043e-05
2.71984e-05
2.68556e-05
2.84568e-05
3.05552e-05
3.15064e-05
3.01549e-05
3.11146e-05
3.06474e-05
3.11027e-05
3.18016e-05
3.16513e-05
3.05529e-05
2.89766e-05
2.87245e-05
3.0364e-05
3.24218e-05
3.32691e-05
3.17934e-05
3.26279e-05
3.22307e-05
3.27357e-05
3.34196e-05
3.31783e-05
3.20246e-05
3.05198e-05
3.03797e-05
3.20254e-05
3.39906e-05
3.47034e-05
3.312e-05
3.38656e-05
3.35586e-05
3.41142e-05
3.47613e-05
3.44129e-05
3.32186e-05
3.18264e-05
3.1818e-05
3.34384e-05
3.52623e-05
3.58141e-05
3.41416e-05
3.48341e-05
3.46372e-05
3.52451e-05
3.58332e-05
3.53605e-05
3.41398e-05
3.28994e-05
3.30405e-05
3.46055e-05
3.62436e-05
3.6613e-05
3.48708e-05
3.55424e-05
3.5475e-05
3.61375e-05
3.66447e-05
3.60302e-05
3.47963e-05
3.37442e-05
3.40504e-05
3.55319e-05
3.69449e-05
3.71153e-05
3.53236e-05
3.59988e-05
3.60796e-05
3.67998e-05
3.72051e-05
3.6432e-05
3.51973e-05
3.43662e-05
3.48502e-05
3.6223e-05
3.73768e-05
3.73362e-05
3.55154e-05
3.62087e-05
3.6455e-05
3.7236e-05
3.75202e-05
3.6574e-05
3.53503e-05
3.47683e-05
3.54394e-05
3.66808e-05
3.75475e-05
3.72886e-05
3.54596e-05
3.61727e-05
3.65991e-05
3.74437e-05
3.75907e-05
3.64611e-05
3.52595e-05
3.49485e-05
3.58115e-05
3.69019e-05
3.74604e-05
3.6981e-05
3.51647e-05
3.58862e-05
3.65027e-05
3.7412e-05
3.74104e-05
3.60936e-05
3.49257e-05
3.48996e-05
3.59532e-05
3.68767e-05
3.71137e-05
3.6417e-05
3.46347e-05
3.53361e-05
3.61445e-05
3.71138e-05
3.69614e-05
3.54668e-05
3.43448e-05
3.46066e-05
3.58397e-05
3.6584e-05
3.64967e-05
3.55932e-05
3.38678e-05
3.44886e-05
3.5474e-05
3.64854e-05
3.61971e-05
3.45617e-05
3.35021e-05
3.4035e-05
3.54161e-05
3.59747e-05
3.55769e-05
3.44897e-05
3.28476e-05
3.33033e-05
3.44333e-05
3.5459e-05
3.50634e-05
3.33492e-05
3.23721e-05
3.31353e-05
3.46134e-05
3.49896e-05
3.43154e-05
3.30818e-05
3.15506e-05
3.17829e-05
3.30163e-05
3.40286e-05
3.35578e-05
3.18294e-05
3.09505e-05
3.18902e-05
3.34123e-05
3.36189e-05
3.27178e-05
3.13822e-05
2.99834e-05
2.99915e-05
3.12941e-05
3.22742e-05
3.17536e-05
3.00557e-05
2.92824e-05
3.03523e-05
3.18769e-05
3.19323e-05
3.08514e-05
2.94511e-05
2.81977e-05
2.79627e-05
2.92938e-05
3.02223e-05
2.9681e-05
2.80588e-05
2.73928e-05
2.85355e-05
3.00169e-05
2.9954e-05
2.87517e-05
2.73282e-05
2.62247e-05
2.57608e-05
2.70789e-05
2.79387e-05
2.74047e-05
2.58986e-05
2.53374e-05
2.64976e-05
2.78983e-05
2.77483e-05
2.64841e-05
2.50782e-05
2.41223e-05
2.34622e-05
2.47288e-05
2.55062e-05
2.50036e-05
2.36459e-05
2.31833e-05
2.43108e-05
2.56004e-05
2.53945e-05
2.41247e-05
2.2773e-05
2.19572e-05
2.11438e-05
2.23265e-05
2.30123e-05
2.25595e-05
2.13719e-05
2.09989e-05
2.2052e-05
2.32089e-05
2.29759e-05
2.17499e-05
2.04827e-05
1.97957e-05
1.8877e-05
1.99512e-05
2.05411e-05
2.01499e-05
1.91422e-05
1.8848e-05
1.97962e-05
2.08079e-05
2.05724e-05
1.94298e-05
1.82699e-05
1.76982e-05
1.67228e-05
1.76727e-05
1.81676e-05
1.78428e-05
1.70135e-05
1.67862e-05
1.76111e-05
1.84744e-05
1.8255e-05
1.72237e-05
1.6186e-05
1.57155e-05
1.47295e-05
1.5548e-05
1.59534e-05
1.56935e-05
1.50312e-05
1.48588e-05
1.55538e-05
1.62735e-05
1.60823e-05
1.51784e-05
1.42701e-05
1.38871e-05
1.2931e-05
1.36192e-05
1.39441e-05
1.37428e-05
1.32284e-05
1.30996e-05
1.36683e-05
1.42558e-05
1.40984e-05
1.3327e-05
1.25486e-05
1.22408e-05
1.13481e-05
1.19135e-05
1.21697e-05
1.2017e-05
1.16268e-05
1.15312e-05
1.19851e-05
1.24562e-05
1.23328e-05
1.16897e-05
1.10361e-05
1.0793e-05
9.98995e-06
1.04443e-05
1.0645e-05
1.05295e-05
1.02375e-05
1.01659e-05
1.0522e-05
1.08947e-05
1.08014e-05
1.02754e-05
9.73765e-06
9.55093e-06
8.8567e-06
9.21439e-06
9.37302e-06
9.28281e-06
9.06302e-06
9.00795e-06
9.28571e-06
9.57864e-06
9.50869e-06
9.08421e-06
8.65098e-06
8.51428e-06
7.94238e-06
8.21842e-06
8.3482e-06
8.27201e-06
8.10018e-06
8.05524e-06
8.27491e-06
8.5057e-06
8.45103e-06
8.11034e-06
7.76926e-06
7.67816e-06
7.23781e-06
7.4466e-06
7.55975e-06
7.48747e-06
7.34195e-06
7.30193e-06
7.4828e-06
7.66741e-06
7.6195e-06
7.34453e-06
7.08347e-06
7.03518e-06
6.73299e-06
6.88724e-06
6.99461e-06
6.91766e-06
6.77987e-06
6.74043e-06
6.89985e-06
7.05209e-06
7.00288e-06
6.77653e-06
6.58463e-06
6.57748e-06
6.41877e-06
6.52872e-06
6.63907e-06
6.55087e-06
6.40563e-06
6.36303e-06
6.51545e-06
6.64691e-06
6.58987e-06
6.39678e-06
6.26527e-06
6.2981e-06
6.2857e-06
6.35919e-06
6.47799e-06
6.37487e-06
6.21137e-06
6.16226e-06
6.3176e-06
6.43775e-06
6.36983e-06
6.19659e-06
6.11843e-06
6.18891e-06
6.27292e-06
6.34197e-06
6.4683e-06
6.3553e-06
6.17365e-06
6.11915e-06
6.28688e-06
6.40515e-06
6.32394e-06
6.15277e-06
6.0919e-06
6.18507e-06
6.36252e-06
6.42778e-06
6.5612e-06
6.44141e-06
6.24139e-06
6.18004e-06
6.36168e-06
6.48016e-06
6.3871e-06
6.21317e-06
6.16752e-06
6.28251e-06
6.513e-06
6.5754e-06
6.70872e-06
6.59967e-06
6.39696e-06
6.32851e-06
6.51478e-06
6.63022e-06
6.53431e-06
6.36327e-06
6.32681e-06
6.44547e-06
6.66856e-06
6.72829e-06
6.85269e-06
6.77182e-06
6.59809e-06
6.5257e-06
6.689e-06
6.79516e-06
6.71721e-06
6.5622e-06
6.52392e-06
6.6192e-06
6.79924e-06
6.85717e-06
6.97557e-06
6.92244e-06
6.78757e-06
6.71484e-06
6.84159e-06
6.93724e-06
6.88431e-06
6.75269e-06
6.70664e-06
6.76932e-06
6.91025e-06
6.96781e-06
7.08371e-06
7.05541e-06
6.95303e-06
6.87859e-06
6.97193e-06
7.0592e-06
7.03103e-06
6.9218e-06
6.86773e-06
6.89965e-06
7.00784e-06
7.06604e-06
7.18132e-06
7.17523e-06
7.10054e-06
7.02323e-06
7.08624e-06
7.16713e-06
7.16383e-06
7.0761e-06
7.01382e-06
7.01651e-06
7.09575e-06
7.1552e-06
7.2705e-06
7.28406e-06
7.23352e-06
7.15291e-06
7.1884e-06
7.26468e-06
7.28622e-06
7.21924e-06
7.14866e-06
7.12354e-06
7.17593e-06
7.23685e-06
7.35201e-06
7.38256e-06
7.35337e-06
7.26969e-06
7.28058e-06
7.35376e-06
7.39961e-06
7.35255e-06
7.27386e-06
7.22256e-06
7.24926e-06
7.31157e-06
7.42586e-06
7.47067e-06
7.46036e-06
7.3744e-06
7.36381e-06
7.43515e-06
7.5041e-06
7.4759e-06
7.38969e-06
7.31421e-06
7.31604e-06
7.37942e-06
7.49186e-06
7.54811e-06
7.55435e-06
7.4672e-06
7.43848e-06
7.509e-06
7.59916e-06
7.58849e-06
7.49576e-06
7.39853e-06
7.37635e-06
7.44033e-06
7.54983e-06
7.6147e-06
7.63518e-06
7.54813e-06
7.50474e-06
7.57523e-06
7.68415e-06
7.68939e-06
7.59148e-06
7.47534e-06
7.43024e-06
7.49425e-06
7.59972e-06
7.6705e-06
7.70291e-06
7.61728e-06
7.56267e-06
7.63369e-06
7.75848e-06
7.77777e-06
7.67629e-06
7.5444e-06
7.47782e-06
7.54126e-06
7.64172e-06
7.71585e-06
7.75788e-06
7.67493e-06
7.6124e-06
7.68432e-06
7.82183e-06
7.85313e-06
7.74987e-06
7.60558e-06
7.51928e-06
7.5816e-06
7.67616e-06
7.75133e-06
7.80073e-06
7.72153e-06
7.65416e-06
7.72715e-06
7.87409e-06
7.91528e-06
7.81208e-06
7.65882e-06
7.55494e-06
7.61561e-06
7.70357e-06
7.77775e-06
7.83233e-06
7.75774e-06
7.68828e-06
7.76234e-06
7.91541e-06
7.96436e-06
7.86306e-06
7.70421e-06
7.58515e-06
7.64376e-06
7.72459e-06
7.79603e-06
7.85374e-06
7.78434e-06
7.71516e-06
7.79016e-06
7.94618e-06
8.0008e-06
7.90313e-06
7.74195e-06
7.61038e-06
7.66659e-06
7.73999e-06
7.80727e-06
7.86615e-06
7.80223e-06
7.73533e-06
7.811e-06
7.967e-06
8.02531e-06
7.93283e-06
7.77234e-06
7.63113e-06
7.68475e-06
7.75061e-06
7.81262e-06
7.8709e-06
7.81243e-06
7.74939e-06
7.82537e-06
7.97865e-06
8.03887e-06
7.95289e-06
7.7958e-06
7.64798e-06
7.69893e-06
7.75737e-06
7.81332e-06
7.86941e-06
7.81603e-06
7.75802e-06
7.83388e-06
7.98212e-06
8.04268e-06
7.9642e-06
7.81286e-06
7.66154e-06
7.70988e-06
7.76122e-06
7.81065e-06
7.86316e-06
7.8142e-06
7.76201e-06
7.83728e-06
7.9786e-06
8.03818e-06
7.96787e-06
7.82416e-06
7.67249e-06
7.7184e-06
7.76316e-06
7.8059e-06
7.85366e-06
7.80818e-06
7.76219e-06
7.83641e-06
7.96939e-06
8.027e-06
7.96514e-06
7.83047e-06
7.68154e-06
7.72531e-06
7.76417e-06
7.80034e-06
7.84242e-06
7.79926e-06
7.7595e-06
7.83221e-06
7.95596e-06
8.01091e-06
7.95742e-06
7.83263e-06
7.68945e-06
7.73147e-06
7.76524e-06
7.79519e-06
7.83094e-06
7.78872e-06
7.7549e-06
7.82572e-06
7.93986e-06
7.99181e-06
7.94623e-06
7.83162e-06
7.69701e-06
7.73771e-06
7.76729e-06
7.79159e-06
7.82061e-06
7.77788e-06
7.7494e-06
7.81799e-06
7.92269e-06
7.9716e-06
7.93313e-06
7.82849e-06
7.705e-06
7.74486e-06
7.77119e-06
7.79057e-06
7.81271e-06
7.76799e-06
7.74402e-06
7.81015e-06
7.90603e-06
7.95216e-06
7.91972e-06
7.82432e-06
7.71423e-06
7.75373e-06
7.77773e-06
7.79298e-06
7.80833e-06
7.76021e-06
7.73977e-06
7.80327e-06
7.89139e-06
7.93521e-06
7.90752e-06
7.82025e-06
7.72547e-06
7.76507e-06
7.78758e-06
7.79954e-06
7.80837e-06
7.75562e-06
7.73761e-06
7.79842e-06
7.88013e-06
7.92231e-06
7.89793e-06
7.81736e-06
7.73947e-06
7.77953e-06
7.80128e-06
7.81076e-06
7.81349e-06
7.75511e-06
7.73842e-06
7.79656e-06
7.87344e-06
7.91469e-06
7.89216e-06
7.81668e-06
7.7569e-06
7.79772e-06
7.81926e-06
7.82692e-06
7.82408e-06
7.75941e-06
7.74301e-06
7.79853e-06
7.87224e-06
7.91326e-06
7.89115e-06
7.81915e-06
7.77832e-06
7.8201e-06
7.84175e-06
7.8481e-06
7.84022e-06
7.769e-06
7.75201e-06
7.80503e-06
7.87713e-06
7.91852e-06
7.89555e-06
7.82552e-06
2.87635e-07
2.76479e-07
2.69625e-07
2.71934e-07
2.8421e-07
2.90155e-07
2.84402e-07
2.7799e-07
2.79806e-07
2.86377e-07
2.92434e-07
3.01316e-07
5.39114e-08
5.17922e-08
5.07683e-08
5.1474e-08
5.36486e-08
5.43211e-08
5.26919e-08
5.14255e-08
5.22786e-08
5.41259e-08
5.5495e-08
5.64707e-08
7.82175e-08
7.50237e-08
7.49603e-08
7.74272e-08
7.98835e-08
7.85217e-08
7.32164e-08
7.10021e-08
7.4921e-08
8.08413e-08
8.41066e-08
8.1861e-08
2.32119e-07
2.22661e-07
2.23522e-07
2.31775e-07
2.38477e-07
2.32872e-07
2.15193e-07
2.08371e-07
2.21697e-07
2.41303e-07
2.51849e-07
2.42664e-07
5.69748e-07
5.46852e-07
5.49518e-07
5.69888e-07
5.85758e-07
5.71552e-07
5.27873e-07
5.11192e-07
5.44082e-07
5.92303e-07
6.18285e-07
5.94798e-07
1.16261e-06
1.11682e-06
1.12295e-06
1.16405e-06
1.19513e-06
1.16602e-06
1.07781e-06
1.04437e-06
1.11075e-06
1.2078e-06
1.26019e-06
1.2115e-06
2.07737e-06
1.99775e-06
2.01004e-06
2.08212e-06
2.13456e-06
2.08237e-06
1.92757e-06
1.86967e-06
1.9865e-06
2.15648e-06
2.24807e-06
2.15965e-06
3.36061e-06
3.23644e-06
3.25884e-06
3.37262e-06
3.4509e-06
3.36577e-06
3.12164e-06
3.03236e-06
3.21818e-06
3.48628e-06
3.6296e-06
3.48357e-06
5.02424e-06
4.84728e-06
4.88518e-06
5.05015e-06
5.15496e-06
5.02589e-06
4.67303e-06
4.54841e-06
4.82112e-06
5.20967e-06
5.41392e-06
5.19002e-06
7.03601e-06
6.80281e-06
6.86276e-06
7.08538e-06
7.212e-06
7.02777e-06
6.55453e-06
6.39576e-06
6.76999e-06
7.29383e-06
7.56151e-06
7.2389e-06
9.31927e-06
9.03289e-06
9.12199e-06
9.40421e-06
9.54199e-06
9.29264e-06
8.69867e-06
8.51346e-06
8.9979e-06
9.66023e-06
9.98443e-06
9.54426e-06
1.17626e-05
1.14332e-05
1.15581e-05
1.18964e-05
1.20297e-05
1.17082e-05
1.10063e-05
1.08091e-05
1.14043e-05
1.21939e-05
1.25571e-05
1.19854e-05
1.4235e-05
1.38795e-05
1.40454e-05
1.44306e-05
1.45407e-05
1.41447e-05
1.33607e-05
1.31715e-05
1.38685e-05
1.47588e-05
1.51336e-05
1.4424e-05
1.66405e-05
1.62754e-05
1.64858e-05
1.6904e-05
1.69723e-05
1.65045e-05
1.56692e-05
1.55076e-05
1.62906e-05
1.72497e-05
1.76113e-05
1.67659e-05
1.89256e-05
1.857e-05
1.88277e-05
1.92617e-05
1.92686e-05
1.87351e-05
1.78842e-05
1.77713e-05
1.86196e-05
1.96095e-05
1.99302e-05
1.89568e-05
2.1047e-05
2.07214e-05
2.10284e-05
2.14582e-05
2.1384e-05
2.07935e-05
1.99667e-05
1.99239e-05
2.08126e-05
2.17908e-05
2.20429e-05
2.09543e-05
2.29723e-05
2.26979e-05
2.3056e-05
2.34595e-05
2.32845e-05
2.26483e-05
2.18867e-05
2.19347e-05
2.28363e-05
2.3758e-05
2.39153e-05
2.27289e-05
2.46793e-05
2.44776e-05
2.48887e-05
2.52424e-05
2.49473e-05
2.42781e-05
2.3623e-05
2.37814e-05
2.46665e-05
2.54871e-05
2.55263e-05
2.42628e-05
2.61552e-05
2.60468e-05
2.65132e-05
2.67935e-05
2.63597e-05
2.56707e-05
2.51618e-05
2.54484e-05
2.62877e-05
2.69645e-05
2.68661e-05
2.55486e-05
2.73944e-05
2.7399e-05
2.79238e-05
2.81078e-05
2.75176e-05
2.68217e-05
2.64958e-05
2.69261e-05
2.76914e-05
2.81855e-05
2.79345e-05
2.65868e-05
2.83972e-05
2.8533e-05
2.91204e-05
2.91868e-05
2.8424e-05
2.77332e-05
2.76232e-05
2.82101e-05
2.88755e-05
2.91527e-05
2.87386e-05
2.73844e-05
2.91683e-05
2.94516e-05
3.01065e-05
3.00365e-05
2.90873e-05
2.8412e-05
2.85457e-05
2.92997e-05
2.9842e-05
2.98741e-05
2.92903e-05
2.7952e-05
2.97145e-05
3.01592e-05
3.08866e-05
3.06653e-05
2.95193e-05
2.88686e-05
2.92675e-05
3.01958e-05
3.05955e-05
3.03605e-05
2.96041e-05
2.83026e-05
3.00426e-05
3.06593e-05
3.1464e-05
3.10811e-05
2.97327e-05
2.91145e-05
2.97929e-05
3.0899e-05
3.11403e-05
3.06234e-05
2.96946e-05
2.84485e-05
3.01577e-05
3.09523e-05
3.18376e-05
3.12889e-05
2.97396e-05
2.91602e-05
3.01237e-05
3.14065e-05
3.14784e-05
3.06719e-05
2.95746e-05
2.83999e-05
3.00613e-05
3.10345e-05
3.20005e-05
3.12894e-05
2.95495e-05
2.90143e-05
3.02582e-05
3.17109e-05
3.16074e-05
3.05121e-05
2.9254e-05
2.81642e-05
2.97519e-05
3.08977e-05
3.194e-05
3.10784e-05
2.91687e-05
2.8682e-05
3.01898e-05
3.17986e-05
3.15201e-05
3.01464e-05
2.87401e-05
2.7745e-05
2.92238e-05
3.05251e-05
3.16293e-05
3.06433e-05
2.86003e-05
2.81651e-05
2.99045e-05
3.16419e-05
3.12006e-05
2.95732e-05
2.80374e-05
2.71434e-05
2.84593e-05
2.98791e-05
3.10124e-05
2.99507e-05
2.78394e-05
2.74584e-05
2.93684e-05
3.11818e-05
3.06112e-05
2.87809e-05
2.71447e-05
2.6354e-05
2.74373e-05
2.89208e-05
3.00403e-05
2.89633e-05
2.68721e-05
2.6548e-05
2.8539e-05
3.03601e-05
2.97093e-05
2.77516e-05
2.60568e-05
2.53665e-05
2.61653e-05
2.76567e-05
2.87242e-05
2.7686e-05
2.56983e-05
2.54308e-05
2.74108e-05
2.91772e-05
2.8495e-05
2.64904e-05
2.47828e-05
2.41861e-05
2.4692e-05
2.61501e-05
2.71416e-05
2.618e-05
2.43524e-05
2.41386e-05
2.60397e-05
2.77082e-05
2.70304e-05
2.50405e-05
2.3356e-05
2.2845e-05
2.30397e-05
2.44254e-05
2.53205e-05
2.44657e-05
2.28422e-05
2.26762e-05
2.44379e-05
2.59723e-05
2.5334e-05
2.34192e-05
2.1794e-05
2.13571e-05
2.12592e-05
2.25386e-05
2.33224e-05
2.25954e-05
2.1206e-05
2.10812e-05
2.26553e-05
2.40285e-05
2.34592e-05
2.16726e-05
2.01386e-05
1.97629e-05
1.9411e-05
2.05589e-05
2.12231e-05
2.06343e-05
1.94934e-05
1.94025e-05
2.07565e-05
2.19519e-05
2.14735e-05
1.98564e-05
1.8439e-05
1.81121e-05
1.75565e-05
1.85574e-05
1.91009e-05
1.86504e-05
1.77564e-05
1.76924e-05
1.88109e-05
1.98226e-05
1.94479e-05
1.80276e-05
1.67445e-05
1.64556e-05
1.57522e-05
1.66007e-05
1.70292e-05
1.67076e-05
1.60447e-05
1.60013e-05
1.68855e-05
1.77182e-05
1.74497e-05
1.62387e-05
1.51e-05
1.4841e-05
1.40461e-05
1.47458e-05
1.5071e-05
1.48616e-05
1.44029e-05
1.43743e-05
1.50402e-05
1.57071e-05
1.5538e-05
1.45348e-05
1.35433e-05
1.3309e-05
1.24756e-05
1.30374e-05
1.32753e-05
1.31568e-05
1.28677e-05
1.28493e-05
1.33244e-05
1.38446e-05
1.37607e-05
1.29518e-05
1.2104e-05
1.18921e-05
1.10671e-05
1.15071e-05
1.16759e-05
1.16252e-05
1.14677e-05
1.14558e-05
1.17746e-05
1.21709e-05
1.2153e-05
1.15159e-05
1.08031e-05
1.0614e-05
9.83643e-06
1.01734e-05
1.02922e-05
1.02867e-05
1.02226e-05
1.02148e-05
1.04149e-05
1.07111e-05
1.07373e-05
1.02441e-05
9.65376e-06
9.48991e-06
8.79104e-06
9.04465e-06
9.13161e-06
9.15091e-06
9.14472e-06
9.13907e-06
9.25777e-06
9.47672e-06
9.52517e-06
9.14524e-06
8.66289e-06
8.52814e-06
7.93189e-06
8.12089e-06
8.19299e-06
8.21939e-06
8.23982e-06
8.23519e-06
8.30689e-06
8.46919e-06
8.51942e-06
8.2223e-06
7.83245e-06
7.73165e-06
7.25607e-06
7.39742e-06
7.47004e-06
7.4888e-06
7.50926e-06
7.50489e-06
7.56004e-06
7.6833e-06
7.71708e-06
7.47417e-06
7.16133e-06
7.10016e-06
6.75913e-06
6.86755e-06
6.95484e-06
6.95361e-06
6.95186e-06
6.94725e-06
7.01234e-06
7.11114e-06
7.11224e-06
6.89782e-06
6.6471e-06
6.63192e-06
6.43714e-06
6.52517e-06
6.64067e-06
6.60862e-06
6.56573e-06
6.56054e-06
6.65927e-06
6.74543e-06
6.69865e-06
6.49015e-06
6.2875e-06
6.32536e-06
6.2871e-06
6.36573e-06
6.52179e-06
6.4496e-06
6.3494e-06
6.34336e-06
6.49788e-06
6.58118e-06
6.4713e-06
6.24926e-06
6.08139e-06
6.17834e-06
6.26669e-06
6.34946e-06
6.52511e-06
6.43199e-06
6.29122e-06
6.28432e-06
6.48274e-06
6.57225e-06
6.41771e-06
6.16897e-06
6.01832e-06
6.14659e-06
6.35038e-06
6.43803e-06
6.63342e-06
6.52085e-06
6.33148e-06
6.32245e-06
6.57783e-06
6.67565e-06
6.4702e-06
6.18498e-06
6.04875e-06
6.21374e-06
6.50826e-06
6.59511e-06
6.79255e-06
6.68656e-06
6.46814e-06
6.45736e-06
6.75198e-06
6.84986e-06
6.61578e-06
6.29949e-06
6.17242e-06
6.3634e-06
6.67479e-06
6.75439e-06
6.93469e-06
6.86097e-06
6.66657e-06
6.65487e-06
6.93585e-06
7.02019e-06
6.80493e-06
6.49001e-06
6.36622e-06
6.54841e-06
6.81172e-06
6.88356e-06
7.04997e-06
7.00586e-06
6.86062e-06
6.84895e-06
7.08202e-06
7.15421e-06
6.97565e-06
6.69794e-06
6.57492e-06
6.71556e-06
6.92621e-06
6.99228e-06
7.14907e-06
7.12968e-06
7.02434e-06
7.00965e-06
7.19792e-06
7.26317e-06
7.12319e-06
6.88451e-06
6.7612e-06
6.85907e-06
7.02667e-06
7.08866e-06
7.23834e-06
7.23978e-06
7.16667e-06
7.14644e-06
7.2943e-06
7.35665e-06
7.25654e-06
7.05445e-06
6.92894e-06
6.98731e-06
7.11776e-06
7.17695e-06
7.32079e-06
7.33979e-06
7.29362e-06
7.2665e-06
7.37778e-06
7.44016e-06
7.38029e-06
7.21265e-06
7.08356e-06
7.10516e-06
7.20164e-06
7.25895e-06
7.39732e-06
7.43101e-06
7.408e-06
7.37363e-06
7.45189e-06
7.51632e-06
7.49605e-06
7.36095e-06
7.22758e-06
7.21498e-06
7.27904e-06
7.33502e-06
7.46781e-06
7.51347e-06
7.51069e-06
7.46944e-06
7.51821e-06
7.58599e-06
7.60363e-06
7.49925e-06
7.36167e-06
7.31752e-06
7.34999e-06
7.40494e-06
7.53173e-06
7.58677e-06
7.60167e-06
7.55439e-06
7.57727e-06
7.64914e-06
7.70206e-06
7.62651e-06
7.48547e-06
7.41271e-06
7.41432e-06
7.4683e-06
7.58856e-06
7.65048e-06
7.68064e-06
7.62849e-06
7.62913e-06
7.70541e-06
7.7902e-06
7.74138e-06
7.5982e-06
7.50018e-06
7.47185e-06
7.52482e-06
7.63799e-06
7.70439e-06
7.7474e-06
7.69169e-06
7.67373e-06
7.75439e-06
7.86707e-06
7.84267e-06
7.6991e-06
7.57948e-06
7.52257e-06
7.57435e-06
7.67992e-06
7.74856e-06
7.802e-06
7.74408e-06
7.71107e-06
7.79579e-06
7.93201e-06
7.92951e-06
7.78758e-06
7.65031e-06
7.56658e-06
7.61696e-06
7.71449e-06
7.78329e-06
7.84477e-06
7.78594e-06
7.74121e-06
7.8295e-06
7.98472e-06
8.00146e-06
7.86334e-06
7.71249e-06
7.60412e-06
7.65288e-06
7.74202e-06
7.8091e-06
7.87629e-06
7.81774e-06
7.76437e-06
7.85554e-06
8.0252e-06
8.0585e-06
7.92635e-06
7.76601e-06
7.63551e-06
7.68245e-06
7.76299e-06
7.82674e-06
7.89736e-06
7.84009e-06
7.78087e-06
7.87411e-06
8.05378e-06
8.10097e-06
7.97686e-06
7.81098e-06
7.66119e-06
7.70615e-06
7.77802e-06
7.83705e-06
7.90896e-06
7.85376e-06
7.79114e-06
7.88558e-06
8.07107e-06
8.12957e-06
8.01534e-06
7.84763e-06
7.68163e-06
7.72453e-06
7.78782e-06
7.84106e-06
7.91224e-06
7.85966e-06
7.79575e-06
7.89045e-06
8.07792e-06
8.14532e-06
8.04249e-06
7.87632e-06
7.69737e-06
7.73824e-06
7.79323e-06
7.83985e-06
7.90848e-06
7.8588e-06
7.79539e-06
7.88942e-06
8.07545e-06
8.14953e-06
8.05923e-06
7.89751e-06
7.70902e-06
7.74798e-06
7.79513e-06
7.83463e-06
7.89908e-06
7.85231e-06
7.79085e-06
7.8833e-06
8.06499e-06
8.14378e-06
8.06665e-06
7.9118e-06
7.71723e-06
7.75452e-06
7.79448e-06
7.82664e-06
7.88557e-06
7.84143e-06
7.78304e-06
7.87307e-06
8.04809e-06
8.12989e-06
8.06608e-06
7.91991e-06
7.7227e-06
7.75866e-06
7.79227e-06
7.81718e-06
7.86953e-06
7.8275e-06
7.77296e-06
7.85983e-06
8.02644e-06
8.10985e-06
8.05898e-06
7.9227e-06
7.72618e-06
7.76127e-06
7.78952e-06
7.80754e-06
7.85256e-06
7.81189e-06
7.76166e-06
7.84477e-06
8.00186e-06
8.0858e-06
8.04698e-06
7.92112e-06
7.72847e-06
7.76321e-06
7.78721e-06
7.79896e-06
7.83627e-06
7.79603e-06
7.75027e-06
7.82913e-06
7.9762e-06
8.05993e-06
8.03181e-06
7.91625e-06
7.73039e-06
7.76538e-06
7.78631e-06
7.79264e-06
7.82218e-06
7.7813e-06
7.73988e-06
7.81416e-06
7.9513e-06
8.03437e-06
8.01522e-06
7.90925e-06
7.73277e-06
7.76863e-06
7.78773e-06
7.78965e-06
7.81168e-06
7.76904e-06
7.73155e-06
7.80109e-06
7.92889e-06
8.01116e-06
7.99895e-06
7.9013e-06
7.73646e-06
7.77383e-06
7.79229e-06
7.79093e-06
7.806e-06
7.76044e-06
7.72628e-06
7.79105e-06
7.91055e-06
7.99207e-06
7.98463e-06
7.89362e-06
7.74228e-06
7.78177e-06
7.80073e-06
7.79726e-06
7.80611e-06
7.75657e-06
7.72494e-06
7.78504e-06
7.89761e-06
7.97862e-06
7.9737e-06
7.88736e-06
7.75103e-06
7.79319e-06
7.81366e-06
7.80921e-06
7.81271e-06
7.75824e-06
7.72826e-06
7.78389e-06
7.8911e-06
7.97194e-06
7.96736e-06
7.88361e-06
7.76344e-06
7.80876e-06
7.83157e-06
7.82715e-06
7.82622e-06
7.76605e-06
7.73679e-06
7.78824e-06
7.89174e-06
7.97274e-06
7.9665e-06
7.88328e-06
7.78014e-06
7.82904e-06
7.85483e-06
7.85124e-06
7.84671e-06
7.78029e-06
7.75084e-06
7.79847e-06
7.89988e-06
7.9813e-06
7.97165e-06
7.88714e-06
2.91082e-07
2.80097e-07
2.73421e-07
2.75424e-07
2.87225e-07
2.93119e-07
2.87963e-07
2.81943e-07
2.83279e-07
2.89189e-07
2.95006e-07
3.03965e-07
5.47466e-08
5.27307e-08
5.17441e-08
5.22181e-08
5.41097e-08
5.48356e-08
5.35289e-08
5.23811e-08
5.30298e-08
5.46737e-08
5.60472e-08
5.71778e-08
8.04222e-08
7.77614e-08
7.77788e-08
7.89735e-08
7.99738e-08
7.90213e-08
7.53138e-08
7.35143e-08
7.65279e-08
8.17332e-08
8.52701e-08
8.39963e-08
2.39315e-07
2.31715e-07
2.32861e-07
2.36688e-07
2.38306e-07
2.3412e-07
2.21964e-07
2.16544e-07
2.26786e-07
2.44016e-07
2.55561e-07
2.49769e-07
5.87549e-07
5.69349e-07
5.72823e-07
5.82094e-07
5.85097e-07
5.74362e-07
5.445e-07
5.3133e-07
5.56591e-07
5.99009e-07
6.2754e-07
6.12544e-07
1.19879e-06
1.16273e-06
1.17079e-06
1.18914e-06
1.19351e-06
1.17128e-06
1.11133e-06
1.0851e-06
1.13608e-06
1.22158e-06
1.27929e-06
1.24796e-06
2.14152e-06
2.07953e-06
2.09583e-06
2.1273e-06
2.13132e-06
2.0909e-06
1.98649e-06
1.9415e-06
2.03128e-06
2.18131e-06
2.28258e-06
2.22512e-06
3.46327e-06
3.36801e-06
3.398e-06
3.44636e-06
3.44529e-06
3.37823e-06
3.21513e-06
3.1467e-06
3.28971e-06
3.52686e-06
3.68613e-06
3.59e-06
5.17576e-06
5.04253e-06
5.09351e-06
5.16152e-06
5.14657e-06
5.04287e-06
4.80985e-06
4.71619e-06
4.92659e-06
5.27109e-06
5.49965e-06
5.34998e-06
7.24514e-06
7.07373e-06
7.15455e-06
7.24321e-06
7.20136e-06
7.05015e-06
6.74192e-06
6.62591e-06
6.91557e-06
7.38119e-06
7.68375e-06
7.46445e-06
9.59215e-06
9.3879e-06
9.50805e-06
9.61624e-06
9.53132e-06
9.32209e-06
8.94144e-06
8.8116e-06
9.18797e-06
9.77839e-06
1.01503e-05
9.84598e-06
1.21021e-05
1.1876e-05
1.20443e-05
1.21686e-05
1.20237e-05
1.17479e-05
1.13063e-05
1.11766e-05
1.1641e-05
1.23473e-05
1.27736e-05
1.23718e-05
1.46407e-05
1.44086e-05
1.46321e-05
1.47669e-05
1.4547e-05
1.41996e-05
1.37166e-05
1.36053e-05
1.41514e-05
1.49519e-05
1.54078e-05
1.49016e-05
1.71096e-05
1.68861e-05
1.71703e-05
1.73073e-05
1.69985e-05
1.65792e-05
1.60781e-05
1.60023e-05
1.66182e-05
1.74855e-05
1.7948e-05
1.7338e-05
1.94541e-05
1.92552e-05
1.96046e-05
1.97342e-05
1.93244e-05
1.88355e-05
1.83424e-05
1.83202e-05
1.89896e-05
1.98912e-05
2.03346e-05
1.96259e-05
2.16301e-05
2.14716e-05
2.18896e-05
2.20014e-05
2.14809e-05
2.09273e-05
2.04698e-05
2.05186e-05
2.12218e-05
2.21215e-05
2.25199e-05
2.17219e-05
2.36046e-05
2.3502e-05
2.39911e-05
2.4074e-05
2.34354e-05
2.2824e-05
2.24301e-05
2.25663e-05
2.32812e-05
2.41411e-05
2.44696e-05
2.35953e-05
2.53558e-05
2.5323e-05
2.58848e-05
2.5928e-05
2.5166e-05
2.45055e-05
2.42019e-05
2.44401e-05
2.51434e-05
2.59258e-05
2.61619e-05
2.52272e-05
2.68707e-05
2.692e-05
2.75558e-05
2.7549e-05
2.66603e-05
2.59601e-05
2.57718e-05
2.61244e-05
2.67925e-05
2.74615e-05
2.75859e-05
2.66083e-05
2.81443e-05
2.82863e-05
2.89965e-05
2.89305e-05
2.79137e-05
2.71837e-05
2.71328e-05
2.76098e-05
2.82202e-05
2.87431e-05
2.87397e-05
2.77373e-05
2.91777e-05
2.94211e-05
3.02054e-05
3.00729e-05
2.89284e-05
2.8178e-05
2.82831e-05
2.8892e-05
2.94242e-05
2.97722e-05
2.96283e-05
2.86191e-05
2.99763e-05
3.03282e-05
3.11852e-05
3.09808e-05
2.97109e-05
2.89491e-05
2.92249e-05
2.99706e-05
3.04068e-05
3.05555e-05
3.02619e-05
2.92624e-05
3.05473e-05
3.10135e-05
3.19404e-05
3.16611e-05
3.02705e-05
2.95057e-05
2.99621e-05
3.08469e-05
3.11725e-05
3.11025e-05
3.06532e-05
2.9678e-05
3.0898e-05
3.14821e-05
3.24747e-05
3.21206e-05
3.0617e-05
2.98568e-05
3.04986e-05
3.15215e-05
3.17257e-05
3.14227e-05
3.08153e-05
2.98767e-05
3.10334e-05
3.17365e-05
3.27886e-05
3.23629e-05
3.07583e-05
3.00095e-05
3.08352e-05
3.19916e-05
3.20682e-05
3.15243e-05
3.07596e-05
2.98673e-05
3.09549e-05
3.17746e-05
3.28772e-05
3.23871e-05
3.06989e-05
2.99681e-05
3.09689e-05
3.225e-05
3.21976e-05
3.14121e-05
3.04947e-05
2.96557e-05
3.06607e-05
3.15901e-05
3.27306e-05
3.21877e-05
3.04392e-05
2.97325e-05
3.08916e-05
3.22833e-05
3.21064e-05
3.10873e-05
3.0026e-05
2.92444e-05
3.01443e-05
3.11691e-05
3.23271e-05
3.17508e-05
2.99754e-05
2.92989e-05
3.05874e-05
3.20645e-05
3.17784e-05
3.05471e-05
2.93559e-05
2.86331e-05
2.93874e-05
3.0479e-05
3.16197e-05
3.10426e-05
2.92939e-05
2.86552e-05
3.0021e-05
3.15377e-05
3.11761e-05
2.97787e-05
2.84814e-05
2.78158e-05
2.83664e-05
2.94841e-05
3.05666e-05
3.00257e-05
2.8372e-05
2.77799e-05
2.91513e-05
3.06506e-05
3.02572e-05
2.87616e-05
2.7394e-05
2.67815e-05
2.70855e-05
2.819e-05
2.91812e-05
2.87047e-05
2.72038e-05
2.6666e-05
2.79762e-05
2.94077e-05
2.9021e-05
2.74967e-05
2.60996e-05
2.55346e-05
2.55914e-05
2.66564e-05
2.75378e-05
2.71412e-05
2.58257e-05
2.53465e-05
2.65521e-05
2.78838e-05
2.75286e-05
2.60251e-05
2.46295e-05
2.41075e-05
2.39068e-05
2.49082e-05
2.56684e-05
2.536e-05
2.42488e-05
2.38294e-05
2.48974e-05
2.61043e-05
2.58003e-05
2.43649e-05
2.30031e-05
2.25191e-05
2.20829e-05
2.30015e-05
2.36361e-05
2.34172e-05
2.25178e-05
2.21577e-05
2.30658e-05
2.41307e-05
2.38914e-05
2.25634e-05
2.12651e-05
2.08147e-05
2.01817e-05
2.10042e-05
2.15159e-05
2.13815e-05
2.06894e-05
2.03865e-05
2.11249e-05
2.20393e-05
2.18705e-05
2.06789e-05
1.94686e-05
1.90488e-05
1.82663e-05
1.89859e-05
1.93837e-05
1.93234e-05
1.88235e-05
1.85744e-05
1.91453e-05
1.99093e-05
1.98095e-05
1.87714e-05
1.76675e-05
1.72769e-05
1.63958e-05
1.70116e-05
1.73093e-05
1.7309e-05
1.69774e-05
1.67776e-05
1.71944e-05
1.78156e-05
1.77766e-05
1.68971e-05
1.59112e-05
1.555e-05
1.46206e-05
1.5137e-05
1.53514e-05
1.5395e-05
1.52022e-05
1.50464e-05
1.53307e-05
1.58227e-05
1.58313e-05
1.51052e-05
1.42422e-05
1.39123e-05
1.2981e-05
1.34061e-05
1.35555e-05
1.36267e-05
1.35403e-05
1.34229e-05
1.36015e-05
1.39816e-05
1.40219e-05
1.34357e-05
1.26946e-05
1.23984e-05
1.1506e-05
1.18504e-05
1.19527e-05
1.20364e-05
1.20241e-05
1.19392e-05
1.2041e-05
1.23283e-05
1.23842e-05
1.19185e-05
1.12929e-05
1.10335e-05
1.0214e-05
1.04892e-05
1.05608e-05
1.06441e-05
1.06761e-05
1.06177e-05
1.06707e-05
1.08847e-05
1.0941e-05
1.05738e-05
1.00536e-05
9.83361e-06
9.11407e-06
9.33173e-06
9.3869e-06
9.45941e-06
9.50936e-06
9.47199e-06
9.50156e-06
9.66046e-06
9.70439e-06
9.41299e-06
8.98556e-06
8.80712e-06
8.20846e-06
8.37922e-06
8.42974e-06
8.48356e-06
8.52964e-06
8.50795e-06
8.53576e-06
8.65604e-06
8.67774e-06
8.44062e-06
8.09185e-06
7.95629e-06
7.49444e-06
7.62759e-06
7.68272e-06
7.71218e-06
7.73699e-06
7.72618e-06
7.76973e-06
7.86577e-06
7.85829e-06
7.65621e-06
7.37171e-06
7.27939e-06
6.96639e-06
7.06959e-06
7.13621e-06
7.13757e-06
7.12801e-06
7.12384e-06
7.19652e-06
7.28054e-06
7.23979e-06
7.05624e-06
6.82208e-06
6.77248e-06
6.61722e-06
6.69634e-06
6.77926e-06
6.75034e-06
6.69769e-06
6.69645e-06
6.80769e-06
6.8896e-06
6.81453e-06
6.63579e-06
6.439e-06
6.43096e-06
6.43845e-06
6.49776e-06
6.60054e-06
6.54013e-06