/*--------------------------------*- C++ -*----------------------------------*\
| =========                 |                                                 |
| \\      /  F ield         | OpenFOAM: The Open Source CFD Toolbox           |
|  \\    /   O peration     | Version:  v1912                                 |
|   \\  /    A nd           | Website:  www.openfoam.com                      |
|    \\/     M anipulation  |                                                 |
\*---------------------------------------------------------------------------*/
FoamFile
{
    version     2.0;
    format      ascii;
    class       surfaceScalarField;
    location    "10.8";
    object      phi;
}
// * * * * * * * * * * * * * * * * * * * * * * * * * * * * * * * * * * * * * //

dimensions      [1 0 -1 0 0 0 0];
oriented        oriented;


internalField   nonuniform List<scalar> 
97428
(
6.10743e-11
2.77838e-09
-1.59099e-07
3.1602e-11
2.83836e-09
-1.5612e-07
1.18596e-10
2.77338e-09
-1.5408e-07
1.2132e-10
3.03254e-09
-1.54585e-07
4.91925e-12
3.30033e-09
-1.57959e-07
-1.05379e-10
3.15571e-09
-1.59765e-07
-2.79218e-10
2.77788e-09
-1.58574e-07
-7.41976e-10
2.8573e-09
-1.56981e-07
-1.32509e-09
3.27181e-09
-1.57259e-07
-1.53478e-09
3.41212e-09
-1.58663e-07
-1.2071e-09
3.22477e-09
-1.6004e-07
2.84153e-09
-1.6256e-07
2.52907e-10
1.08632e-08
-5.03944e-07
1.10522e-10
1.11791e-08
-4.94953e-07
2.33546e-10
1.10184e-08
-4.88827e-07
2.0919e-10
1.19316e-08
-4.9037e-07
-3.49832e-11
1.28327e-08
-5.00607e-07
-2.86895e-10
1.22681e-08
-5.06118e-07
-9.64721e-10
1.0996e-08
-5.02439e-07
-2.53148e-09
1.13093e-08
-4.97489e-07
-4.24393e-09
1.26967e-08
-4.98245e-07
-4.71209e-09
1.30976e-08
-5.02477e-07
-3.54268e-09
1.23229e-08
-5.06748e-07
1.09537e-08
-5.14421e-07
4.90022e-10
2.42484e-08
-8.81155e-07
1.87456e-10
2.50727e-08
-8.6597e-07
2.47959e-10
2.48503e-08
-8.5571e-07
1.72177e-10
2.67257e-08
-8.58362e-07
-1.28572e-10
2.85003e-08
-8.75698e-07
-4.90149e-10
2.72644e-08
-8.85049e-07
-1.80351e-09
2.47438e-08
-8.78644e-07
-4.6177e-09
2.54499e-08
-8.70059e-07
-7.43915e-09
2.81848e-08
-8.71256e-07
-8.0242e-09
2.88399e-08
-8.78465e-07
-5.85378e-09
2.70759e-08
-8.85913e-07
2.42303e-08
-8.98913e-07
7.45125e-10
4.29581e-08
-1.29035e-06
2.45665e-10
4.45887e-08
-1.26878e-06
1.72447e-10
4.43865e-08
-1.25438e-06
2.498e-11
4.74624e-08
-1.25823e-06
-2.78547e-10
5.02344e-08
-1.28288e-06
-7.44977e-10
4.81092e-08
-1.29618e-06
-2.80221e-09
4.41137e-08
-1.28673e-06
-6.96303e-09
4.53747e-08
-1.27418e-06
-1.08645e-08
4.969e-08
-1.27581e-06
-1.14395e-08
5.04849e-08
-1.28622e-06
-8.144e-09
4.73437e-08
-1.29721e-06
4.26206e-08
-1.31567e-06
9.9176e-10
6.69874e-08
-1.73084e-06
2.7238e-10
6.97647e-08
-1.7027e-06
1.21581e-11
6.97099e-08
-1.6842e-06
-1.98829e-10
7.41335e-08
-1.68934e-06
-4.85822e-10
7.79556e-08
-1.72149e-06
-1.06786e-09
7.47349e-08
-1.73879e-06
-3.96043e-09
6.91531e-08
-1.72592e-06
-9.5326e-09
7.11345e-08
-1.70904e-06
-1.4471e-08
7.71373e-08
-1.71112e-06
-1.49243e-08
7.78672e-08
-1.725e-06
-1.04089e-08
7.29804e-08
-1.73998e-06
6.60585e-08
-1.764e-06
1.20292e-09
9.63037e-08
-2.20162e-06
2.56082e-10
1.00607e-07
-2.16673e-06
-2.11613e-10
1.00858e-07
-2.14421e-06
-5.02156e-10
1.0673e-07
-2.15074e-06
-7.4923e-10
1.11533e-07
-2.19051e-06
-1.47313e-09
1.07038e-07
-2.21183e-06
-5.27373e-09
9.98617e-08
-2.19509e-06
-1.22858e-08
1.02733e-07
-2.17352e-06
-1.82048e-08
1.10427e-07
-2.17608e-06
-1.84426e-08
1.10817e-07
-2.19379e-06
-1.26434e-08
1.0384e-07
-2.21325e-06
9.44669e-08
-2.24285e-06
1.35215e-09
1.30853e-07
-2.70133e-06
1.87766e-10
1.37096e-07
-2.65953e-06
-4.97172e-10
1.37851e-07
-2.63314e-06
-8.56163e-10
1.45198e-07
-2.64115e-06
-1.06525e-09
1.50816e-07
-2.68855e-06
-1.97393e-09
1.44884e-07
-2.71384e-06
-6.73534e-09
1.36195e-07
-2.69279e-06
-1.51787e-08
1.40133e-07
-2.66615e-06
-2.20093e-08
1.49441e-07
-2.6693e-06
-2.19566e-08
1.49169e-07
-2.69121e-06
-1.4842e-08
1.39784e-07
-2.71572e-06
1.27766e-07
-2.75082e-06
1.4144e-09
1.70566e-07
-3.22831e-06
6.25493e-11
1.79195e-07
-3.17949e-06
-8.20624e-10
1.80689e-07
-3.14941e-06
-1.23329e-09
1.89472e-07
-3.15894e-06
-1.4279e-09
1.95644e-07
-3.21387e-06
-2.58261e-09
1.88114e-07
-3.24302e-06
-8.33725e-09
1.78072e-07
-3.21722e-06
-1.81652e-08
1.83263e-07
-3.18522e-06
-2.58263e-08
1.94054e-07
-3.18907e-06
-2.54276e-08
1.92777e-07
-3.21562e-06
-1.69982e-08
1.80698e-07
-3.24572e-06
1.65884e-07
-3.28617e-06
1.36663e-09
2.15366e-07
-3.78067e-06
-1.23426e-10
2.26854e-07
-3.72473e-06
-1.15623e-09
2.29356e-07
-3.69121e-06
-1.60121e-09
2.39485e-07
-3.70229e-06
-1.82883e-09
2.45857e-07
-3.76449e-06
-3.31089e-09
2.36561e-07
-3.7973e-06
-1.00709e-08
2.25386e-07
-3.76635e-06
-2.11992e-08
2.32025e-07
-3.72876e-06
-2.95977e-08
2.44142e-07
-3.73352e-06
-2.88171e-08
2.4152e-07
-3.76516e-06
-1.91056e-08
2.2649e-07
-3.80142e-06
2.0876e-07
-3.84695e-06
1.18824e-09
2.65174e-07
-4.35643e-06
-3.71902e-10
2.80022e-07
-4.29333e-06
-1.47315e-09
2.83824e-07
-4.25665e-06
-1.9231e-09
2.95173e-07
-4.26929e-06
-2.25754e-09
3.01308e-07
-4.33834e-06
-4.17003e-09
2.90062e-07
-4.37451e-06
-1.19276e-08
2.78018e-07
-4.33809e-06
-2.42352e-08
2.86309e-07
-4.2948e-06
-3.32675e-08
2.99587e-07
-4.30073e-06
-3.20887e-08
2.95303e-07
-4.33797e-06
-2.11578e-08
2.77092e-07
-4.38088e-06
2.56344e-07
-4.43114e-06
8.61099e-10
3.19897e-07
-4.95374e-06
-6.72074e-10
3.38629e-07
-4.88348e-06
-1.73612e-09
3.44056e-07
-4.84399e-06
-2.15836e-09
3.56477e-07
-4.85814e-06
-2.70177e-09
3.61865e-07
-4.93348e-06
-5.17077e-09
3.48459e-07
-4.97262e-06
-1.3899e-08
3.3584e-07
-4.93048e-06
-2.72294e-08
3.45995e-07
-4.88148e-06
-3.67823e-08
3.60281e-07
-4.88894e-06
-3.52081e-08
3.54053e-07
-4.9323e-06
-2.31498e-08
3.32448e-07
-4.98231e-06
3.08583e-07
-5.03683e-06
3.69344e-10
3.7943e-07
-5.57101e-06
-1.01839e-09
4.02592e-07
-5.49362e-06
-1.90638e-09
4.09997e-07
-5.45168e-06
-2.26348e-09
4.2333e-07
-5.46731e-06
-3.14789e-09
4.27412e-07
-5.54825e-06
-6.32335e-09
4.11612e-07
-5.58986e-06
-1.59766e-08
3.98723e-07
-5.54181e-06
-3.01394e-08
4.10956e-07
-5.48723e-06
-4.00912e-08
4.2612e-07
-5.49664e-06
-3.8144e-08
4.177e-07
-5.54668e-06
-2.50775e-08
3.92494e-07
-5.60415e-06
3.6541e-07
-5.66239e-06
-3.00028e-10
4.43645e-07
-6.20715e-06
-1.40211e-09
4.7181e-07
-6.12267e-06
-1.94283e-09
4.81563e-07
-6.07867e-06
-2.193e-09
4.95655e-07
-6.09574e-06
-3.58145e-09
4.97843e-07
-6.18149e-06
-7.63766e-09
4.7939e-07
-6.22499e-06
-1.8152e-08
4.66538e-07
-6.17092e-06
-3.29242e-08
4.81068e-07
-6.11096e-06
-4.31467e-08
4.97001e-07
-6.1228e-06
-4.08679e-08
4.86177e-07
-6.18011e-06
-2.69387e-08
4.57152e-07
-6.24534e-06
4.26723e-07
-6.30672e-06
-1.1642e-09
5.12354e-07
-6.86153e-06
-1.81371e-09
5.46113e-07
-6.77005e-06
-1.80306e-09
5.58598e-07
-6.72443e-06
-1.90019e-09
5.73314e-07
-6.74289e-06
-3.98745e-09
5.73021e-07
-6.83256e-06
-9.12314e-09
5.51641e-07
-6.87729e-06
-2.04163e-08
5.3913e-07
-6.81713e-06
-3.55435e-08
5.56175e-07
-6.75212e-06
-4.59022e-08
5.72781e-07
-6.76695e-06
-4.33536e-08
5.59352e-07
-6.8321e-06
-2.87326e-08
5.26259e-07
-6.90529e-06
4.92336e-07
-6.96911e-06
-2.23162e-09
5.85298e-07
-7.53349e-06
-2.24368e-09
6.25264e-07
-7.43521e-06
-1.44462e-09
6.4086e-07
-7.38841e-06
-1.33824e-09
6.56093e-07
-7.40819e-06
-4.35031e-09
6.52771e-07
-7.50081e-06
-1.07873e-08
6.28197e-07
-7.54606e-06
-2.27574e-08
6.16322e-07
-7.47989e-06
-3.79534e-08
6.36089e-07
-7.41029e-06
-4.8309e-08
6.53273e-07
-7.42865e-06
-4.55732e-08
6.37026e-07
-7.50208e-06
-3.04577e-08
5.99569e-07
-7.58323e-06
5.61983e-07
-7.64876e-06
-3.5141e-09
6.62202e-07
-8.22226e-06
-2.68345e-09
7.09001e-07
-8.11745e-06
-8.26952e-10
7.28072e-07
-8.0699e-06
-4.62092e-10
7.43753e-07
-8.09089e-06
-4.65422e-09
7.36924e-07
-8.18544e-06
-1.26344e-08
7.08915e-07
-8.23049e-06
-2.51579e-08
6.97951e-07
-8.15854e-06
-4.01054e-08
7.20628e-07
-8.08493e-06
-5.03144e-08
7.38278e-07
-8.1073e-06
-4.74972e-08
7.18974e-07
-8.1893e-06
-3.21119e-08
6.76802e-07
-8.27825e-06
6.35369e-07
-8.34474e-06
-5.02186e-09
7.42778e-07
-8.92716e-06
-3.1267e-09
7.97042e-07
-8.81619e-06
8.63264e-11
8.19927e-07
-8.76829e-06
7.5246e-10
8.36051e-07
-8.79033e-06
-4.88368e-09
8.25303e-07
-8.88573e-06
-1.46654e-08
7.93677e-07
-8.92992e-06
-2.75948e-08
7.83868e-07
-8.85256e-06
-4.19456e-08
8.09611e-07
-8.77565e-06
-5.18625e-08
8.27588e-07
-8.80239e-06
-4.90947e-08
8.04951e-07
-8.89306e-06
-3.36932e-08
7.57661e-07
-8.98947e-06
7.12189e-07
-9.05622e-06
-6.76453e-09
8.26736e-07
-9.64759e-06
-3.57039e-09
8.89086e-07
-9.53092e-06
1.32096e-09
9.16101e-07
-9.48307e-06
2.39376e-09
9.32668e-07
-9.50591e-06
-5.02389e-09
9.17793e-07
-9.60109e-06
-1.68766e-08
8.82386e-07
-9.64379e-06
-3.00382e-08
8.73937e-07
-9.5616e-06
-4.34143e-08
9.02859e-07
-9.48216e-06
-5.28936e-08
9.2099e-07
-9.5135e-06
-5.03334e-08
8.94702e-07
-9.61269e-06
-3.51988e-08
8.41846e-07
-9.71609e-06
7.92139e-07
-9.78248e-06
-8.75116e-09
9.13786e-07
-1.0383e-05
-4.01572e-09
9.84816e-07
-1.02612e-05
2.91696e-09
1.01624e-06
-1.02138e-05
4.44348e-09
1.03334e-06
-1.02371e-05
-5.06122e-09
1.01424e-06
-1.03309e-05
-1.92584e-08
9.74967e-07
-1.03716e-05
-3.24498e-08
9.68026e-07
-1.02854e-05
-4.44448e-08
1.00018e-06
-1.02042e-05
-5.33434e-08
1.01826e-06
-1.02403e-05
-5.11788e-08
9.87968e-07
-1.03476e-05
-3.66253e-08
9.29061e-07
-1.04574e-05
8.74928e-07
-1.05229e-05
-1.09902e-08
1.00364e-06
-1.1133e-05
-4.46907e-09
1.0839e-06
-1.10067e-05
4.8715e-09
1.11997e-06
-1.09601e-05
6.9332e-09
1.13778e-06
-1.09833e-05
-4.98342e-09
1.11452e-06
-1.10747e-05
-2.17938e-08
1.07136e-06
-1.1113e-05
-3.4781e-08
1.066e-06
-1.10236e-05
-4.49625e-08
1.10139e-06
-1.09417e-05
-5.31429e-08
1.11917e-06
-1.09823e-05
-5.15939e-08
1.08449e-06
-1.10971e-05
-3.7968e-08
1.01903e-06
-1.12126e-05
9.60283e-07
-1.12768e-05
-1.34895e-08
1.09601e-06
-1.1897e-05
-4.94263e-09
1.18598e-06
-1.17669e-05
7.18663e-09
1.22691e-06
-1.17215e-05
9.87165e-09
1.24567e-06
-1.17442e-05
-4.77991e-09
1.21849e-06
-1.18319e-05
-2.44571e-08
1.1715e-06
-1.18674e-05
-3.69719e-08
1.1677e-06
-1.17761e-05
-4.48852e-08
1.20624e-06
-1.16944e-05
-5.22187e-08
1.22347e-06
-1.17392e-05
-5.15395e-08
1.18403e-06
-1.18606e-05
-3.92201e-08
1.1115e-06
-1.19811e-05
1.04795e-06
-1.20436e-05
-1.62553e-08
1.1906e-06
-1.26745e-05
-5.45477e-09
1.29067e-06
-1.25415e-05
9.84861e-09
1.33667e-06
-1.24977e-05
1.32524e-08
1.35671e-06
-1.25191e-05
-4.44189e-09
1.32605e-06
-1.26019e-05
-2.72118e-08
1.27532e-06
-1.26344e-05
-3.89505e-08
1.27294e-06
-1.25424e-05
-4.41233e-08
1.31447e-06
-1.24621e-05
-5.04939e-08
1.3309e-06
-1.25105e-05
-5.09739e-08
1.28636e-06
-1.26375e-05
-4.03724e-08
1.20625e-06
-1.2762e-05
1.1377e-06
-1.28229e-05
-1.92923e-08
1.28712e-06
-1.34648e-05
-6.03018e-09
1.39759e-06
-1.33298e-05
1.28261e-08
1.44879e-06
-1.3288e-05
1.70529e-08
1.47058e-06
-1.33074e-05
-3.96237e-09
1.43706e-06
-1.3384e-05
-3.00094e-08
1.38275e-06
-1.34135e-05
-4.06318e-08
1.3815e-06
-1.33224e-05
-4.25814e-08
1.42576e-06
-1.32443e-05
-4.78898e-08
1.44119e-06
-1.32957e-05
-4.98539e-08
1.39126e-06
-1.3427e-05
-4.14125e-08
1.30309e-06
-1.35547e-05
1.22931e-06
-1.36139e-05
-2.26026e-08
1.38529e-06
-1.42671e-05
-6.69942e-09
1.50629e-06
-1.41311e-05
1.60697e-08
1.56282e-06
-1.4092e-05
2.12327e-08
1.58694e-06
-1.41085e-05
-3.33608e-09
1.5514e-06
-1.41776e-05
-3.27884e-08
1.49367e-06
-1.4204e-05
-4.19188e-08
1.49309e-06
-1.41154e-05
-4.01607e-08
1.53976e-06
-1.40405e-05
-4.43286e-08
1.55406e-06
-1.40941e-05
-4.81359e-08
1.49857e-06
-1.42283e-05
-4.23246e-08
1.40188e-06
-1.43583e-05
1.32255e-06
-1.44159e-05
-2.61844e-08
1.48479e-06
-1.50807e-05
-7.49803e-09
1.61632e-06
-1.49446e-05
1.95117e-08
1.67822e-06
-1.49086e-05
2.57329e-08
1.70541e-06
-1.49215e-05
-2.55909e-09
1.66889e-06
-1.49818e-05
-3.54732e-08
1.60796e-06
-1.50051e-05
-4.27038e-08
1.60738e-06
-1.49207e-05
-3.67629e-08
1.65602e-06
-1.485e-05
-3.97374e-08
1.6692e-06
-1.49048e-05
-4.57775e-08
1.60811e-06
-1.50404e-05
-4.30887e-08
1.50248e-06
-1.51718e-05
1.41719e-06
-1.52281e-05
-3.00317e-08
1.58532e-06
-1.59043e-05
-8.46507e-09
1.72721e-06
-1.57693e-05
2.3067e-08
1.79447e-06
-1.5737e-05
3.04764e-08
1.8256e-06
-1.57454e-05
-1.62845e-09
1.78935e-06
-1.57957e-05
-3.79751e-08
1.72541e-06
-1.5816e-05
-4.28714e-08
1.72393e-06
-1.57374e-05
-3.22953e-08
1.77405e-06
-1.56718e-05
-3.40524e-08
1.78629e-06
-1.57268e-05
-4.27396e-08
1.71977e-06
-1.58623e-05
-4.36804e-08
1.60479e-06
-1.59941e-05
1.513e-06
-1.60495e-05
-3.41329e-08
1.68655e-06
-1.67368e-05
-9.64116e-09
1.83846e-06
-1.6604e-05
2.66346e-08
1.91094e-06
-1.65759e-05
3.53693e-08
1.94707e-06
-1.65791e-05
-5.41597e-10
1.91254e-06
-1.66181e-05
-4.01932e-08
1.84576e-06
-1.66356e-05
-4.23026e-08
1.84226e-06
-1.65647e-05
-2.66767e-08
1.89329e-06
-1.65049e-05
-2.72244e-08
1.90501e-06
-1.6559e-05
-3.89891e-08
1.83341e-06
-1.66926e-05
-4.40712e-08
1.70872e-06
-1.6824e-05
1.60969e-06
-1.68788e-05
-3.847e-08
1.78815e-06
-1.75768e-05
-1.10661e-08
1.94953e-06
-1.74473e-05
3.01009e-08
2.02701e-06
-1.74239e-05
4.03037e-08
2.0693e-06
-1.74212e-05
7.03964e-10
2.03813e-06
-1.7448e-05
-4.20169e-08
1.96868e-06
-1.74629e-05
-4.08804e-08
1.96179e-06
-1.74012e-05
-1.98434e-08
2.01314e-06
-1.7348e-05
-1.92238e-08
2.025e-06
-1.74002e-05
-3.45008e-08
1.94892e-06
-1.75303e-05
-4.42282e-08
1.81416e-06
-1.76603e-05
1.70695e-06
-1.77149e-05
-4.30189e-08
1.88973e-06
-1.84229e-05
-1.27765e-08
2.05987e-06
-1.82978e-05
3.33443e-08
2.14197e-06
-1.82796e-05
4.51614e-08
2.19171e-06
-1.82705e-05
2.11216e-09
2.16571e-06
-1.82843e-05
-4.33299e-08
2.09371e-06
-1.82967e-05
-3.84954e-08
2.08185e-06
-1.82457e-05
-1.17557e-08
2.13292e-06
-1.81997e-05
-1.00451e-08
2.14588e-06
-1.82488e-05
-2.92601e-08
2.06614e-06
-1.83739e-05
-4.41147e-08
1.92096e-06
-1.85016e-05
1.80442e-06
-1.85564e-05
-4.77487e-08
1.99088e-06
-1.92739e-05
-1.48033e-08
2.16889e-06
-1.91542e-05
3.62396e-08
2.2551e-06
-1.91417e-05
4.98185e-08
2.31365e-06
-1.91257e-05
3.68667e-09
2.29469e-06
-1.91258e-05
-4.40138e-08
2.22026e-06
-1.9136e-05
-3.50516e-08
2.20168e-06
-1.9097e-05
-2.40272e-09
2.25191e-06
-1.90586e-05
2.89556e-10
2.26722e-06
-1.91037e-05
-2.32643e-08
2.18489e-06
-1.92223e-05
-4.3691e-08
2.02894e-06
-1.93466e-05
1.90165e-06
-1.94021e-05
-5.26223e-08
2.0911e-06
-2.01283e-05
-1.71706e-08
2.27594e-06
-2.0015e-05
3.86625e-08
2.36559e-06
-2.00086e-05
5.41489e-08
2.43432e-06
-1.99856e-05
5.43238e-09
2.42435e-06
-1.99714e-05
-4.39532e-08
2.34758e-06
-1.99797e-05
-3.04724e-08
2.32041e-06
-1.99537e-05
8.18375e-09
2.36935e-06
-1.99234e-05
1.17282e-08
2.38852e-06
-1.99637e-05
-1.65244e-08
2.30486e-06
-2.00742e-05
-4.29146e-08
2.13777e-06
-2.01942e-05
1.99814e-06
-2.02506e-05
-5.75955e-08
2.18979e-06
-2.09847e-05
-1.98931e-08
2.3803e-06
-2.08789e-05
4.04925e-08
2.47257e-06
-2.08789e-05
5.8027e-08
2.55279e-06
-2.08487e-05
7.35341e-09
2.55376e-06
-2.08201e-05
-4.30406e-08
2.47474e-06
-2.08268e-05
-2.47066e-08
2.43704e-06
-2.08147e-05
1.99768e-08
2.48434e-06
-2.07927e-05
2.41843e-08
2.50921e-06
-2.08273e-05
-9.06846e-09
2.42566e-06
-2.09284e-05
-4.17421e-08
2.24709e-06
-2.10431e-05
2.09328e-06
-2.11006e-05
-6.26168e-08
2.28629e-06
-2.18417e-05
-2.29748e-08
2.48115e-06
-2.17442e-05
4.16165e-08
2.57506e-06
-2.17508e-05
6.13304e-08
2.66801e-06
-2.17136e-05
9.45122e-09
2.68187e-06
-2.16707e-05
-4.11827e-08
2.60069e-06
-2.1676e-05
-1.7736e-08
2.55047e-06
-2.16784e-05
3.28383e-08
2.59591e-06
-2.16649e-05
3.75261e-08
2.6286e-06
-2.16932e-05
-9.45839e-10
2.54684e-06
-2.17835e-05
-4.0131e-08
2.35645e-06
-2.18919e-05
2.18646e-06
-2.19506e-05
-6.7628e-08
2.37992e-06
-2.26976e-05
-2.64088e-08
2.57765e-06
-2.26091e-05
4.19322e-08
2.67202e-06
-2.26226e-05
6.39428e-08
2.77884e-06
-2.25786e-05
1.17226e-08
2.80747e-06
-2.25218e-05
-3.83076e-08
2.72423e-06
-2.2526e-05
-9.58334e-09
2.65949e-06
-2.25432e-05
4.66172e-08
2.70301e-06
-2.25382e-05
5.15804e-08
2.74592e-06
-2.25598e-05
7.77275e-09
2.66784e-06
-2.26382e-05
-3.8041e-08
2.46536e-06
-2.27391e-05
2.27701e-06
-2.27992e-05
-7.2567e-08
2.46994e-06
-2.35508e-05
-3.01781e-08
2.66897e-06
-2.3472e-05
4.13518e-08
2.76245e-06
-2.34921e-05
6.57573e-08
2.88406e-06
-2.34419e-05
1.41567e-08
2.92923e-06
-2.33722e-05
-3.43717e-08
2.84406e-06
-2.33756e-05
-3.17032e-10
2.76281e-06
-2.34073e-05
6.11049e-08
2.80451e-06
-2.34107e-05
6.61318e-08
2.86036e-06
-2.34253e-05
1.6995e-08
2.78807e-06
-2.34909e-05
-3.54366e-08
2.5733e-06
-2.35836e-05
2.36428e-06
-2.36449e-05
-7.737e-08
2.55561e-06
-2.43997e-05
-3.42566e-08
2.75425e-06
-2.43308e-05
3.98033e-08
2.84533e-06
-2.43573e-05
6.66782e-08
2.98243e-06
-2.43018e-05
1.67322e-08
3.04571e-06
-2.42203e-05
-2.93666e-08
2.95878e-06
-2.42233e-05
9.9459e-09
2.85917e-06
-2.42689e-05
7.60429e-08
2.89932e-06
-2.42803e-05
8.09269e-08
2.97104e-06
-2.4288e-05
2.66072e-08
2.90685e-06
-2.43404e-05
-3.22887e-08
2.67967e-06
-2.44238e-05
2.44762e-06
-2.44861e-05
-8.19739e-08
2.63619e-06
-2.52426e-05
-3.86124e-08
2.8327e-06
-2.51839e-05
3.72325e-08
2.91972e-06
-2.52163e-05
6.66225e-08
3.07269e-06
-2.51564e-05
1.94137e-08
3.15543e-06
-2.50648e-05
-2.33247e-08
3.06695e-06
-2.50676e-05
2.10384e-08
2.94728e-06
-2.5126e-05
9.11297e-08
2.98633e-06
-2.5145e-05
9.56797e-08
3.07706e-06
-2.51463e-05
3.64769e-08
3.02343e-06
-2.51851e-05
-2.85772e-08
2.78387e-06
-2.52587e-05
2.5264e-06
-2.53215e-05
-8.63202e-08
2.71098e-06
-2.60781e-05
-4.32099e-08
2.9036e-06
-2.60293e-05
3.36033e-08
2.98477e-06
-2.6067e-05
6.55201e-08
3.15361e-06
-2.60039e-05
2.21486e-08
3.25683e-06
-2.59043e-05
-1.63236e-08
3.16709e-06
-2.59071e-05
3.27451e-08
3.02595e-06
-2.59768e-05
1.06027e-07
3.06451e-06
-2.60027e-05
1.10081e-07
3.17748e-06
-2.59982e-05
4.64557e-08
3.137e-06
-2.60238e-05
-2.42929e-08
2.88525e-06
-2.6087e-05
2.60006e-06
-2.61497e-05
-9.0358e-08
2.77933e-06
-2.69046e-05
-4.80132e-08
2.9663e-06
-2.68655e-05
2.8898e-08
3.03976e-06
-2.69075e-05
6.33155e-08
3.22404e-06
-2.68427e-05
2.48656e-08
3.34837e-06
-2.67373e-05
-8.48771e-09
3.25778e-06
-2.67405e-05
4.48063e-08
3.09409e-06
-2.68195e-05
1.20372e-07
3.13292e-06
-2.68514e-05
1.23808e-07
3.27138e-06
-2.68422e-05
5.63839e-08
3.2467e-06
-2.68552e-05
-1.94389e-08
2.98312e-06
-2.69075e-05
2.66807e-06
-2.69695e-05
-9.40473e-08
2.84064e-06
-2.7721e-05
-5.29892e-08
3.02033e-06
-2.7691e-05
2.3117e-08
3.08418e-06
-2.77362e-05
5.99674e-08
3.28295e-06
-2.76711e-05
2.74734e-08
3.42857e-06
-2.75625e-05
1.55817e-11
3.33761e-06
-2.75663e-05
5.69264e-08
3.15077e-06
-2.76523e-05
1.33796e-07
3.19079e-06
-2.76893e-05
1.36543e-07
3.35784e-06
-2.76766e-05
6.60965e-08
3.35159e-06
-2.76781e-05
-1.40314e-08
3.07677e-06
-2.77194e-05
2.72999e-06
-2.77796e-05
-9.73612e-08
2.89446e-06
-2.85262e-05
-5.81101e-08
3.06534e-06
-2.85043e-05
1.62791e-08
3.11772e-06
-2.85518e-05
5.54508e-08
3.32949e-06
-2.84877e-05
2.98625e-08
3.49601e-06
-2.83786e-05
8.96647e-09
3.40533e-06
-2.83832e-05
6.87847e-08
3.19527e-06
-2.84738e-05
1.45933e-07
3.23752e-06
-2.85149e-05
1.47979e-07
3.43602e-06
-2.85002e-05
7.54302e-08
3.45069e-06
-2.84915e-05
-8.09988e-09
3.16546e-06
-2.85218e-05
2.78545e-06
-2.85794e-05
-1.00287e-07
2.9404e-06
-2.93194e-05
-6.33536e-08
3.1012e-06
-2.93047e-05
8.42205e-09
3.14032e-06
-2.9353e-05
4.97581e-08
3.363e-06
-2.92914e-05
3.19083e-08
3.54944e-06
-2.91845e-05
1.81062e-08
3.45982e-06
-2.91901e-05
8.00497e-08
3.2271e-06
-2.92828e-05
1.56448e-07
3.27274e-06
-2.93269e-05
1.57845e-07
3.5051e-06
-2.93118e-05
8.42285e-08
3.54296e-06
-2.92946e-05
-1.68649e-09
3.24841e-06
-2.93141e-05
2.83418e-06
-2.9368e-05
-1.02825e-07
2.97824e-06
-3.01001e-05
-6.87033e-08
3.12796e-06
-3.00915e-05
-3.9639e-10
3.15217e-06
-3.01394e-05
4.29024e-08
3.38305e-06
-3.00815e-05
3.34772e-08
3.58776e-06
-2.99794e-05
2.71647e-08
3.50015e-06
-2.99863e-05
9.03956e-08
3.24605e-06
-3.00784e-05
1.65047e-07
3.29632e-06
-3.01244e-05
1.65913e-07
3.56438e-06
-3.01105e-05
9.23492e-08
3.62737e-06
-3.00867e-05
5.15808e-09
3.32483e-06
-3.0096e-05
2.87598e-06
-3.0145e-05
-1.04992e-07
3.00789e-06
-3.08681e-05
-7.41466e-08
3.14586e-06
-3.08644e-05
-1.00934e-08
3.15373e-06
-3.09107e-05
3.49224e-08
3.38948e-06
-3.08576e-05
3.44345e-08
3.61013e-06
-3.07626e-05
3.58517e-08
3.52563e-06
-3.07709e-05
9.95184e-08
3.25216e-06
-3.08603e-05
1.71499e-07
3.30837e-06
-3.09071e-05
1.72014e-07
3.61326e-06
-3.08959e-05
9.96704e-08
3.70285e-06
-3.08674e-05
1.23216e-08
3.39392e-06
-3.08671e-05
2.91069e-06
-3.09105e-05
-1.06814e-07
3.02938e-06
-3.16236e-05
-7.96708e-08
3.1553e-06
-3.16236e-05
-2.05643e-08
3.14565e-06
-3.16672e-05
2.5887e-08
3.3824e-06
-3.16196e-05
3.46549e-08
3.61596e-06
-3.15339e-05
4.38954e-08
3.53578e-06
-3.15438e-05
1.07151e-07
3.24576e-06
-3.16282e-05
1.75643e-07
3.30921e-06
-3.1675e-05
1.76044e-07
3.65124e-06
-3.16678e-05
1.06096e-07
3.76836e-06
-3.16367e-05
1.97665e-08
3.45488e-06
-3.16276e-05
2.93827e-06
-3.16645e-05
-1.08328e-07
3.0429e-06
-3.23671e-05
-8.52579e-08
3.15685e-06
-3.23697e-05
-3.16717e-08
3.12876e-06
-3.24094e-05
1.59007e-08
3.36214e-06
-3.23679e-05
3.40339e-08
3.60493e-06
-3.2293e-05
5.10215e-08
3.5304e-06
-3.23047e-05
1.13079e-07
3.22739e-06
-3.23826e-05
1.77405e-07
3.29937e-06
-3.24286e-05
1.77971e-07
3.67794e-06
-3.24265e-05
1.11558e-07
3.82291e-06
-3.23945e-05
2.73912e-08
3.5069e-06
-3.23776e-05
2.9587e-06
-3.24075e-05
-1.09575e-07
3.04873e-06
-3.30994e-05
-9.08783e-08
3.15113e-06
-3.31034e-05
-4.32431e-08
3.10396e-06
-3.31385e-05
5.11111e-09
3.32925e-06
-3.31033e-05
3.24999e-08
3.57707e-06
-3.30404e-05
5.69978e-08
3.50953e-06
-3.30541e-05
1.17154e-07
3.19772e-06
-3.31243e-05
1.76797e-07
3.27944e-06
-3.31688e-05
1.77839e-07
3.69308e-06
-3.31726e-05
1.16018e-07
3.8656e-06
-3.31414e-05
3.50923e-08
3.54925e-06
-3.31177e-05
2.97201e-06
-3.31401e-05
-1.10599e-07
3.04727e-06
-3.38216e-05
-9.64858e-08
3.13883e-06
-3.38261e-05
-5.50669e-08
3.07217e-06
-3.38558e-05
-6.27531e-09
3.28446e-06
-3.38268e-05
3.00273e-08
3.53267e-06
-3.37766e-05
6.16427e-08
3.47348e-06
-3.37925e-05
1.19305e-07
3.15755e-06
-3.38542e-05
1.73926e-07
3.25007e-06
-3.38968e-05
1.75765e-07
3.69647e-06
-3.39069e-05
1.19468e-07
3.89562e-06
-3.38778e-05
4.2758e-08
3.58126e-06
-3.38485e-05
2.97823e-06
-3.38634e-05
-1.11441e-07
3.03899e-06
-3.45349e-05
-1.02015e-07
3.12065e-06
-3.45392e-05
-6.68938e-08
3.03452e-06
-3.45632e-05
-1.80157e-08
3.22885e-06
-3.454e-05
2.66471e-08
3.47239e-06
-3.45025e-05
6.48404e-08
3.42281e-06
-3.45208e-05
1.19548e-07
3.10773e-06
-3.45738e-05
1.68992e-07
3.21201e-06
-3.46142e-05
1.71942e-07
3.68812e-06
-3.46305e-05
1.21935e-07
3.9124e-06
-3.46047e-05
5.02694e-08
3.60244e-06
-3.4571e-05
2.97753e-06
-3.45785e-05
-1.12142e-07
3.0247e-06
-3.52413e-05
-1.07391e-07
3.0976e-06
-3.52447e-05
-7.84809e-08
2.99229e-06
-3.52633e-05
-2.98433e-08
3.16377e-06
-3.52452e-05
2.24444e-08
3.39739e-06
-3.52198e-05
6.65505e-08
3.35856e-06
-3.52405e-05
1.17983e-07
3.04949e-06
-3.52853e-05
1.6228e-07
3.16635e-06
-3.53234e-05
1.66621e-07
3.66852e-06
-3.53456e-05
1.23472e-07
3.9158e-06
-3.53237e-05
5.75086e-08
3.6126e-06
-3.52868e-05
2.97032e-06
-3.52875e-05
-1.12719e-07
3.00526e-06
-3.59433e-05
-1.12544e-07
3.07065e-06
-3.59455e-05
-8.96245e-08
2.94664e-06
-3.59587e-05
-4.1526e-08
3.09058e-06
-3.59451e-05
1.75303e-08
3.30905e-06
-3.59307e-05
6.6808e-08
3.28201e-06
-3.59539e-05
1.14785e-07
2.98427e-06
-3.59911e-05
1.54097e-07
3.11439e-06
-3.6027e-05
1.60051e-07
3.6383e-06
-3.60544e-05
1.24141e-07
3.90581e-06
-3.60368e-05
6.43826e-08
3.61163e-06
-3.59978e-05
2.95702e-06
-3.59923e-05
-1.13172e-07
2.98142e-06
-3.66433e-05
-1.17393e-07
3.04056e-06
-3.6644e-05
-1.00121e-07
2.89842e-06
-3.66521e-05
-5.28244e-08
3.01052e-06
-3.66421e-05
1.2039e-08
3.20881e-06
-3.66375e-05
6.57036e-08
3.19443e-06
-3.66631e-05
1.10158e-07
2.9133e-06
-3.66939e-05
1.44746e-07
3.05713e-06
-3.67277e-05
1.52479e-07
3.59801e-06
-3.67595e-05
1.24013e-07
3.88253e-06
-3.67459e-05
7.08096e-08
3.59944e-06
-3.67058e-05
2.93784e-06
-3.66952e-05
-1.13501e-07
2.95391e-06
-3.73435e-05
-1.21847e-07
3.00793e-06
-3.73424e-05
-1.09771e-07
2.84833e-06
-3.73458e-05
-6.34927e-08
2.92481e-06
-3.73384e-05
6.16386e-09
3.09824e-06
-3.73424e-05
6.33763e-08
3.09722e-06
-3.73705e-05
1.04327e-07
2.83759e-06
-3.73961e-05
1.34537e-07
2.99538e-06
-3.7428e-05
1.44171e-07
3.54823e-06
-3.74628e-05
1.2317e-07
3.84625e-06
-3.74529e-05
7.6707e-08
3.57614e-06
-3.74126e-05
2.913e-06
-3.73982e-05
-1.13696e-07
2.92337e-06
-3.80458e-05
-1.25821e-07
2.97324e-06
-3.80429e-05
-1.18406e-07
2.79688e-06
-3.8042e-05
-7.33201e-08
2.83454e-06
-3.80363e-05
7.93908e-11
2.97894e-06
-3.80475e-05
6.0003e-08
2.99175e-06
-3.80781e-05
9.75387e-08
2.75805e-06
-3.80999e-05
1.2377e-07
2.92981e-06
-3.813e-05
1.35365e-07
3.48961e-06
-3.81667e-05
1.21688e-07
3.79743e-06
-3.81599e-05
8.20058e-08
3.54194e-06
-3.81201e-05
2.88267e-06
-3.81031e-05
-1.13743e-07
2.89032e-06
-3.87522e-05
-1.29237e-07
2.93681e-06
-3.87474e-05
-1.25897e-07
2.74437e-06
-3.87425e-05
-8.21335e-08
2.74064e-06
-3.87379e-05
-6.02886e-09
2.85245e-06
-3.87549e-05
5.57776e-08
2.8794e-06
-3.87881e-05
9.00372e-08
2.67542e-06
-3.88073e-05
1.1271e-07
2.86094e-06
-3.88357e-05
1.2627e-07
3.42278e-06
-3.88731e-05
1.1964e-07
3.73666e-06
-3.88688e-05
8.66511e-08
3.49715e-06
-3.88302e-05
2.84702e-06
-3.88117e-05
-1.13624e-07
2.8552e-06
-3.94644e-05
-1.32028e-07
2.8988e-06
-3.94577e-05
-1.32146e-07
2.69091e-06
-3.94492e-05
-8.98009e-08
2.6439e-06
-3.9445e-05
-1.19921e-08
2.72025e-06
-3.94667e-05
5.08984e-08
2.76144e-06
-3.95024e-05
8.20472e-08
2.59032e-06
-3.95201e-05
1.01585e-07
2.78916e-06
-3.95468e-05
1.17064e-07
3.34834e-06
-3.9584e-05
1.17094e-07
3.66461e-06
-3.95815e-05
9.06025e-08
3.44219e-06
-3.95446e-05
2.80618e-06
-3.95258e-05
-1.13317e-07
2.81832e-06
-4.01837e-05
-1.34141e-07
2.85925e-06
-4.01752e-05
-1.37094e-07
2.6365e-06
-4.01634e-05
-9.62313e-08
2.54495e-06
-4.01591e-05
-1.76635e-08
2.58365e-06
-4.01845e-05
4.55544e-08
2.63907e-06
-4.02227e-05
7.37672e-08
2.50322e-06
-4.02398e-05
9.05786e-08
2.71474e-06
-4.0265e-05
1.07887e-07
3.2669e-06
-4.03009e-05
1.14105e-07
3.58203e-06
-4.02996e-05
9.3833e-08
3.37753e-06
-4.02648e-05
2.76026e-06
-4.02466e-05
-1.12799e-07
2.77988e-06
-4.09116e-05
-1.35529e-07
2.81804e-06
-4.09012e-05
-1.40702e-07
2.58096e-06
-4.08865e-05
-1.01369e-07
2.44428e-06
-4.08818e-05
-2.2922e-08
2.44388e-06
-4.091e-05
3.99173e-08
2.51332e-06
-4.09506e-05
6.53653e-08
2.41447e-06
-4.09679e-05
7.98306e-08
2.63783e-06
-4.09915e-05
9.88444e-08
3.17897e-06
-4.10254e-05
1.10722e-07
3.48968e-06
-4.10247e-05
9.63262e-08
3.30367e-06
-4.09924e-05
2.70935e-06
-4.09756e-05
-1.12044e-07
2.73996e-06
-4.16491e-05
-1.36157e-07
2.77499e-06
-4.16369e-05
-1.42953e-07
2.52405e-06
-4.16195e-05
-1.05183e-07
2.34224e-06
-4.1614e-05
-2.76708e-08
2.30196e-06
-4.16443e-05
3.41367e-08
2.38513e-06
-4.16873e-05
5.69798e-08
2.32431e-06
-4.17053e-05
6.94452e-08
2.55851e-06
-4.17274e-05
9.00101e-08
3.08505e-06
-4.17587e-05
1.06978e-07
3.38834e-06
-4.17582e-05
9.80722e-08
3.22114e-06
-4.17286e-05
2.6535e-06
-4.17139e-05
-1.11025e-07
2.69857e-06
-4.23971e-05
-1.35991e-07
2.72979e-06
-4.23832e-05
-1.43835e-07
2.46543e-06
-4.23632e-05
-1.07659e-07
2.23909e-06
-4.23568e-05
-3.18334e-08
2.15883e-06
-4.23888e-05
2.83409e-08
2.25528e-06
-4.2434e-05
4.87243e-08
2.23288e-06
-4.24531e-05
5.94988e-08
2.47677e-06
-4.24736e-05
8.14344e-08
2.98557e-06
-4.25018e-05
1.02899e-07
3.27877e-06
-4.25011e-05
9.90641e-08
3.13047e-06
-4.24744e-05
2.59277e-06
-4.24623e-05
-1.09714e-07
2.65561e-06
-4.31563e-05
-1.34998e-07
2.68207e-06
-4.31408e-05
-1.43342e-07
2.4047e-06
-4.31185e-05
-1.08792e-07
2.13499e-06
-4.31111e-05
-3.5349e-08
2.01527e-06
-4.31442e-05
2.26396e-08
2.12447e-06
-4.31916e-05
4.06942e-08
2.14025e-06
-4.3212e-05
5.00501e-08
2.39258e-06
-4.32308e-05
7.31515e-08
2.88095e-06
-4.32556e-05
9.84999e-08
3.16171e-06
-4.32545e-05
9.92946e-08
3.03219e-06
-4.32308e-05
2.52718e-06
-4.32218e-05
-1.08083e-07
2.61089e-06
-4.39276e-05
-1.33147e-07
2.63139e-06
-4.39104e-05
-1.41464e-07
2.34142e-06
-4.3886e-05
-1.08576e-07
2.03006e-06
-4.38774e-05
-3.81667e-08
1.87197e-06
-4.39114e-05
1.71274e-08
1.99327e-06
-4.39609e-05
3.29734e-08
2.04646e-06
-4.39827e-05
4.11488e-08
2.30585e-06
-4.39999e-05
6.51868e-08
2.77155e-06
-4.4021e-05
9.379e-08
3.03791e-06
-4.40192e-05
9.87544e-08
2.92683e-06
-4.39987e-05
2.45674e-06
-4.39929e-05
-1.06101e-07
2.56417e-06
-4.47114e-05
-1.30405e-07
2.57724e-06
-4.46926e-05
-1.38187e-07
2.27511e-06
-4.46663e-05
-1.07005e-07
1.92434e-06
-4.46566e-05
-4.02416e-08
1.72956e-06
-4.46911e-05
1.18935e-08
1.86218e-06
-4.47425e-05
2.56402e-08
1.95146e-06
-4.47658e-05
3.28423e-08
2.2165e-06
-4.47812e-05
5.75633e-08
2.65776e-06
-4.47986e-05
8.87759e-08
2.90811e-06
-4.47961e-05
9.74318e-08
2.81491e-06
-4.47786e-05
2.38146e-06
-4.47764e-05
-1.03743e-07
2.51515e-06
-4.55083e-05
-1.26742e-07
2.5191e-06
-4.5488e-05
-1.33498e-07
2.20526e-06
-4.54598e-05
-1.04068e-07
1.81786e-06
-4.5449e-05
-4.15331e-08
1.58857e-06
-4.54839e-05
7.00559e-09
1.73165e-06
-4.55371e-05
1.87716e-08
1.8552e-06
-4.55619e-05
2.51812e-08
2.12442e-06
-4.55755e-05
5.03064e-08
2.53994e-06
-4.55891e-05
8.34642e-08
2.77304e-06
-4.55856e-05
9.53132e-08
2.69698e-06
-4.55713e-05
2.30133e-06
-4.55727e-05
-1.00981e-07
2.46346e-06
-4.63187e-05
-1.22129e-07
2.4564e-06
-4.62969e-05
-1.2738e-07
2.13136e-06
-4.62671e-05
-9.97562e-08
1.71062e-06
-4.62553e-05
-4.20035e-08
1.44952e-06
-4.62905e-05
2.54843e-09
1.60204e-06
-4.63453e-05
1.24462e-08
1.7576e-06
-4.63714e-05
1.82151e-08
2.02953e-06
-4.63831e-05
4.34473e-08
2.41848e-06
-4.63929e-05
7.78647e-08
2.63347e-06
-4.63886e-05
9.23843e-08
2.57359e-06
-4.63774e-05
2.21639e-06
-4.63825e-05
-9.77945e-08
2.4087e-06
-4.71431e-05
-1.16541e-07
2.38852e-06
-4.71199e-05
-1.19822e-07
2.05285e-06
-4.70887e-05
-9.40631e-08
1.60261e-06
-4.7076e-05
-4.16196e-08
1.31287e-06
-4.71112e-05
-1.41007e-09
1.47368e-06
-4.71675e-05
6.74599e-09
1.65854e-06
-4.71948e-05
1.20239e-08
1.93172e-06
-4.72047e-05
3.7025e-08
2.29379e-06
-4.72107e-05
7.19926e-08
2.49017e-06
-4.72056e-05
8.86331e-08
2.44532e-06
-4.71974e-05
2.12666e-06
-4.72061e-05
-9.41645e-08
2.35042e-06
-4.79819e-05
-1.09964e-07
2.31488e-06
-4.79574e-05
-1.10825e-07
1.96922e-06
-4.79249e-05
-8.69894e-08
1.4938e-06
-4.79115e-05
-4.03544e-08
1.17904e-06
-4.79468e-05
-4.80129e-09
1.34686e-06
-4.80042e-05
1.75467e-09
1.55791e-06
-4.80326e-05
6.6664e-09
1.83094e-06
-4.80406e-05
3.10864e-08
2.16631e-06
-4.80431e-05
6.58715e-08
2.34395e-06
-4.80371e-05
8.40516e-08
2.31278e-06
-4.80319e-05