/*--------------------------------*- C++ -*----------------------------------*\
| =========                 |                                                 |
| \\      /  F ield         | OpenFOAM: The Open Source CFD Toolbox           |
|  \\    /   O peration     | Version:  v1912                                 |
|   \\  /    A nd           | Website:  www.openfoam.com                      |
|    \\/     M anipulation  |                                                 |
\*---------------------------------------------------------------------------*/
FoamFile
{
    version     2.0;
    format      ascii;
    class       volVectorField;
    location    "10.8";
    object      U;
}
// * * * * * * * * * * * * * * * * * * * * * * * * * * * * * * * * * * * * * //

dimensions      [0 1 -1 0 0 0 0];


internalField   nonuniform List<vector> 
34128
(
(7.04566e-07 1.16731e-07 -0.00286693)
(2.13653e-07 1.15917e-07 -0.0028162)
(3.64276e-07 1.09242e-07 -0.00277779)
(1.10281e-06 1.23658e-07 -0.00278389)
(3.70949e-07 1.39775e-07 -0.00284312)
(-3.04291e-07 1.34458e-07 -0.00287883)
(-7.9792e-07 1.10938e-07 -0.00286503)
(-3.03043e-06 1.14347e-07 -0.00283975)
(-7.51298e-06 1.40615e-07 -0.00283973)
(-1.08628e-05 1.51483e-07 -0.00285631)
(-1.03121e-05 1.46284e-07 -0.00287525)
(-6.07875e-06 1.25476e-07 -0.00292274)
(2.52781e-06 1.3875e-06 -0.00891937)
(1.00782e-06 1.42088e-06 -0.00876912)
(7.10664e-07 1.39232e-06 -0.00865584)
(2.19642e-06 1.51863e-06 -0.0086745)
(3.4178e-07 1.64825e-06 -0.00885131)
(-8.16573e-07 1.57504e-06 -0.00895832)
(-2.525e-06 1.39339e-06 -0.00891573)
(-1.04838e-05 1.43248e-06 -0.00883842)
(-2.42087e-05 1.63062e-06 -0.00883734)
(-3.33139e-05 1.69591e-06 -0.00888669)
(-3.03978e-05 1.59938e-06 -0.008945)
(-1.71076e-05 1.4126e-06 -0.00908667)
(4.58195e-06 3.91837e-06 -0.0153116)
(2.0339e-06 4.03971e-06 -0.0150626)
(6.86389e-07 3.99031e-06 -0.0148764)
(2.34982e-06 4.31071e-06 -0.0149085)
(-3.46722e-07 4.62236e-06 -0.015203)
(-1.36029e-06 4.41916e-06 -0.0153813)
(-4.5724e-06 3.97871e-06 -0.0153069)
(-1.93027e-05 4.09187e-06 -0.0151745)
(-4.23905e-05 4.57094e-06 -0.0151718)
(-5.638e-05 4.70222e-06 -0.0152551)
(-5.00067e-05 4.41944e-06 -0.0153561)
(-2.72067e-05 3.93743e-06 -0.0155916)
(6.66687e-06 7.76298e-06 -0.0220104)
(3.14374e-06 8.03955e-06 -0.0216634)
(2.9132e-07 7.9828e-06 -0.0214069)
(1.71052e-06 8.56623e-06 -0.0214537)
(-1.58804e-06 9.10777e-06 -0.0218657)
(-2.03704e-06 8.71654e-06 -0.0221147)
(-7.06523e-06 7.94297e-06 -0.0220039)
(-2.93352e-05 8.16914e-06 -0.0218125)
(-6.16818e-05 9.00588e-06 -0.021808)
(-7.97301e-05 9.18928e-06 -0.0219279)
(-6.90183e-05 8.62253e-06 -0.0220763)
(-3.648e-05 7.73433e-06 -0.0224043)
(8.58438e-06 1.28845e-05 -0.0289795)
(4.18855e-06 1.33931e-05 -0.0285352)
(-4.70434e-07 1.33545e-05 -0.0282117)
(4.29478e-07 1.42471e-05 -0.0282748)
(-3.27035e-06 1.50393e-05 -0.0288035)
(-2.92971e-06 1.44093e-05 -0.0291219)
(-1.00901e-05 1.32627e-05 -0.028969)
(-4.03823e-05 1.36411e-05 -0.028714)
(-8.1674e-05 1.48751e-05 -0.0287082)
(-0.000103022 1.50715e-05 -0.0288683)
(-8.73158e-05 1.41298e-05 -0.0290699)
(-4.50346e-05 1.27491e-05 -0.0294885)
(1.01459e-05 1.92597e-05 -0.0361794)
(5.02896e-06 2.00865e-05 -0.0356387)
(-1.57951e-06 2.01005e-05 -0.0352523)
(-1.32822e-06 2.13307e-05 -0.0353332)
(-5.27102e-06 2.23701e-05 -0.0359769)
(-4.10636e-06 2.14565e-05 -0.0363625)
(-1.37104e-05 1.99249e-05 -0.0361609)
(-5.22219e-05 2.04947e-05 -0.0358378)
(-0.00010195 2.2136e-05 -0.0358317)
(-0.000125916 2.22862e-05 -0.0360366)
(-0.000104785 2.08855e-05 -0.0362981)
(-5.2973e-05 1.89463e-05 -0.036804)
(1.11786e-05 2.68727e-05 -0.0435676)
(5.54223e-06 2.81119e-05 -0.0429315)
(-2.99368e-06 2.82216e-05 -0.0424869)
(-3.37661e-06 2.98025e-05 -0.0425869)
(-7.45362e-06 3.10599e-05 -0.0433428)
(-5.62285e-06 2.98232e-05 -0.0437924)
(-1.79757e-05 2.79176e-05 -0.0435355)
(-6.46264e-05 2.87195e-05 -0.0431399)
(-0.000122101 3.07561e-05 -0.0431354)
(-0.000148084 3.07873e-05 -0.0433904)
(-0.000121316 2.88502e-05 -0.0437188)
(-6.03896e-05 2.63017e-05 -0.0443075)
(1.15294e-05 3.5705e-05 -0.0510995)
(5.62637e-06 3.74584e-05 -0.0503694)
(-4.64479e-06 3.77159e-05 -0.0498718)
(-5.50699e-06 3.96444e-05 -0.0499922)
(-9.6678e-06 4.10669e-05 -0.0508554)
(-7.52445e-06 3.94698e-05 -0.051365)
(-2.29274e-05 3.72212e-05 -0.0510462)
(-7.73726e-05 3.82976e-05 -0.0505749)
(-0.000141741 4.07021e-05 -0.0505745)
(-0.000169219 4.05342e-05 -0.0508856)
(-0.000136806 3.79907e-05 -0.051288)
(-6.73693e-05 3.4794e-05 -0.0519534)
(1.10686e-05 4.57356e-05 -0.0587305)
(5.2018e-06 4.81116e-05 -0.0579083)
(-6.43944e-06 4.85769e-05 -0.0573633)
(-7.49006e-06 5.0836e-05 -0.0575049)
(-1.17517e-05 5.23486e-05 -0.0584692)
(-9.84706e-06 5.03532e-05 -0.0590332)
(-2.86011e-05 4.78087e-05 -0.0586468)
(-9.02499e-05 4.92042e-05 -0.0580978)
(-0.000160517 5.19401e-05 -0.0581054)
(-0.000189044 5.14918e-05 -0.058479)
(-0.000151169 4.82793e-05 -0.0589616)
(-7.39878e-05 4.44043e-05 -0.0596963)
(9.69041e-06 5.69429e-05 -0.0664191)
(4.21054e-06 6.00563e-05 -0.0655067)
(-8.26297e-06 6.07962e-05 -0.0649204)
(-9.08117e-06 6.33587e-05 -0.0650837)
(-1.35361e-05 6.4865e-05 -0.0661408)
(-1.26184e-05 6.24303e-05 -0.0667527)
(-3.50278e-05 5.96492e-05 -0.0662939)
(-0.000103064 6.14109e-05 -0.065667)
(-0.000178113 6.44386e-05 -0.0656873)
(-0.000207317 6.36323e-05 -0.0661302)
(-0.000164332 5.96951e-05 -0.0666986)
(-8.03133e-05 5.51174e-05 -0.067494)
(7.31333e-06 6.93034e-05 -0.0741285)
(2.61325e-06 7.32749e-05 -0.0731282)
(-9.98541e-06 7.43629e-05 -0.072507)
(-1.00273e-05 7.71946e-05 -0.0726923)
(-1.48492e-05 7.85801e-05 -0.0738327)
(-1.58592e-05 7.56597e-05 -0.0744847)
(-4.22339e-05 7.27099e-05 -0.0739496)
(-0.000115641 7.4887e-05 -0.0732461)
(-0.000194254 7.81685e-05 -0.0732851)
(-0.000223837 7.69339e-05 -0.0738045)
(-0.000176245 7.22211e-05 -0.074463)
(-8.64081e-05 6.69181e-05 -0.0753094)
(3.87761e-06 8.27868e-05 -0.0818287)
(3.84984e-07 8.77427e-05 -0.0807431)
(-1.14686e-05 8.9259e-05 -0.0800932)
(-1.00743e-05 9.23219e-05 -0.080301)
(-1.5521e-05 9.34579e-05 -0.081514)
(-1.95845e-05 8.99992e-05 -0.0821972)
(-5.02409e-05 8.69537e-05 -0.081583)
(-0.00012782 8.95975e-05 -0.0808059)
(-0.000208704 9.30989e-05 -0.0808706)
(-0.000238433 9.13737e-05 -0.0814737)
(-0.000186876 8.58361e-05 -0.0822251)
(-9.23298e-05 7.9785e-05 -0.0831121)
(-6.58336e-07 9.73797e-05 -0.0894987)
(-2.49045e-06 0.000103448 -0.0883299)
(-1.25732e-05 0.000105477 -0.0876576)
(-8.97355e-06 0.000108734 -0.0878886)
(-1.53875e-05 0.000109485 -0.0891631)
(-2.38055e-05 0.00010543 -0.0898678)
(-5.90652e-05 0.000102359 -0.0891722)
(-0.000139457 0.000105518 -0.0883255)
(-0.000221258 0.000109212 -0.0884236)
(-0.000250965 0.000106948 -0.089118)
(-0.000196211 0.000100542 -0.0899642)
(-9.81338e-05 9.37179e-05 -0.090881)
(-6.32196e-06 0.000113054 -0.0971254)
(-6.02602e-06 0.000120373 -0.0958762)
(-1.31656e-05 0.000123005 -0.0951877)
(-6.48738e-06 0.000126422 -0.0954425)
(-1.42928e-05 0.000126646 -0.0967669)
(-2.85307e-05 0.00012193 -0.0974829)
(-6.87167e-05 0.000118907 -0.0967045)
(-0.000150415 0.000122634 -0.0957934)
(-0.000231731 0.0001265 -0.0959332)
(-0.000261313 0.000123648 -0.0967258)
(-0.00020425 0.000116316 -0.0976671)
(-0.000103874 0.000108686 -0.0986024)
(-1.31247e-05 0.000129739 -0.104697)
(-1.02331e-05 0.00013845 -0.103371)
(-1.31225e-05 0.000141775 -0.102672)
(-2.39654e-06 0.000145322 -0.102951)
(-1.20934e-05 0.000144884 -0.104313)
(-3.37617e-05 0.000139442 -0.10503)
(-7.91887e-05 0.000136539 -0.104169)
(-0.000160549 0.000140886 -0.1032)
(-0.000239943 0.000144901 -0.10339)
(-0.000269358 0.000141413 -0.104286)
(-0.00021099 0.000133092 -0.10532)
(-0.000109597 0.000124617 -0.106262)
(-2.10604e-05 0.000147371 -0.112199)
(-1.5123e-05 0.00015762 -0.110801)
(-1.23386e-05 0.000161724 -0.110097)
(3.48862e-06 0.000165382 -0.110401)
(-8.66367e-06 0.000164161 -0.111789)
(-3.94908e-05 0.000157933 -0.112496)
(-9.04496e-05 0.000155217 -0.111554)
(-0.000169694 0.000160231 -0.110536)
(-0.000245705 0.000164371 -0.110782)
(-0.000274976 0.000160195 -0.111785)
(-0.000216433 0.000150807 -0.112908)
(-0.000115343 0.000141447 -0.113846)
(-3.01087e-05 0.00016589 -0.119622)
(-2.07111e-05 0.000177823 -0.118157)
(-1.07344e-05 0.00018279 -0.117452)
(1.13195e-05 0.000186548 -0.11778)
(-3.90114e-06 0.00018444 -0.119183)
(-4.57013e-05 0.000177377 -0.119871)
(-0.000102443 0.000174911 -0.118851)
(-0.00017767 0.000180632 -0.117793)
(-0.000248828 0.000184867 -0.118102)
(-0.000278047 0.000179942 -0.119211)
(-0.000220581 0.000169399 -0.120417)
(-0.000121149 0.00015911 -0.121341)
(-4.02353e-05 0.000185231 -0.126956)
(-2.70181e-05 0.000198996 -0.125429)
(-8.26215e-06 0.0002049 -0.124729)
(2.11996e-05 0.000208758 -0.125079)
(2.26847e-06 0.000205691 -0.126486)
(-5.23652e-05 0.000197754 -0.127146)
(-0.000115079 0.00019559 -0.126054)
(-0.000184277 0.000202051 -0.124966)
(-0.000249113 0.000206343 -0.12534)
(-0.000278445 0.000200598 -0.126555)
(-0.000223434 0.000188798 -0.127836)
(-0.000127045 0.000177536 -0.128736)
(-5.1393e-05 0.000205328 -0.134194)
(-3.40711e-05 0.000221069 -0.132613)
(-4.91188e-06 0.000227978 -0.13192)
(3.31755e-05 0.000231947 -0.132289)
(9.88608e-06 0.000227887 -0.133688)
(-5.94403e-05 0.000219046 -0.134315)
(-0.000128235 0.000217226 -0.133159)
(-0.000189286 0.000224448 -0.132051)
(-0.000246354 0.000228752 -0.132492)
(-0.000276042 0.000222106 -0.133806)
(-0.000224995 0.000208938 -0.135153)
(-0.000133055 0.000196658 -0.136023)
(-6.35216e-05 0.000226116 -0.141328)
(-4.19029e-05 0.000243967 -0.139701)
(-7.15918e-07 0.000251941 -0.139018)
(4.72281e-05 0.000256052 -0.139403)
(1.8954e-05 0.000250996 -0.140784)
(-6.68671e-05 0.000241241 -0.141372)
(-0.000141741 0.000239793 -0.14016)
(-0.000192443 0.00024778 -0.139043)
(-0.000240334 0.000252042 -0.13955)
(-0.000270705 0.000244406 -0.140956)
(-0.000225258 0.000229754 -0.142361)
(-0.000139192 0.000216413 -0.143194)
(-7.65481e-05 0.000247531 -0.148353)
(-5.05508e-05 0.000267613 -0.146687)
(4.24735e-06 0.000276706 -0.146018)
(6.32638e-05 0.000281005 -0.146413)
(2.94317e-05 0.000274992 -0.147764)
(-7.45643e-05 0.000264328 -0.148309)
(-0.00015538 0.000263259 -0.147053)
(-0.000193464 0.000272002 -0.145938)
(-0.00023083 0.00027616 -0.146509)
(-0.0002623 0.000267444 -0.147998)
(-0.000224214 0.000251187 -0.149449)
(-0.000145459 0.000236743 -0.150241)
(-9.03864e-05 0.000269506 -0.155261)
(-6.00527e-05 0.000291923 -0.153566)
(9.85128e-06 0.000302183 -0.152914)
(8.11085e-05 0.000306739 -0.153312)
(4.12317e-05 0.000299848 -0.154622)
(-8.24253e-05 0.000288294 -0.155122)
(-0.000168882 0.000287586 -0.153835)
(-0.000192043 0.000297056 -0.152733)
(-0.000217619 0.000301049 -0.153363)
(-0.000250694 0.000291165 -0.154922)
(-0.000221847 0.000273183 -0.156409)
(-0.000151843 0.000257592 -0.157159)
(-0.000104937 0.000291977 -0.162044)
(-7.04435e-05 0.000316809 -0.16033)
(1.59208e-05 0.000328276 -0.159699)
(0.000100503 0.000333181 -0.160093)
(5.42178e-05 0.000325539 -0.16135)
(-9.03141e-05 0.000313126 -0.161802)
(-0.000181923 0.000312729 -0.160499)
(-0.000187855 0.000322876 -0.159422)
(-0.000200487 0.000326649 -0.160104)
(-0.000235764 0.000315521 -0.16172)
(-0.000218133 0.000295698 -0.163233)
(-0.000158314 0.000278911 -0.163938)
(-0.000120087 0.000314875 -0.168693)
(-8.17492e-05 0.000342173 -0.166971)
(2.22345e-05 0.00035488 -0.166364)
(0.000121099 0.000360256 -0.166746)
(6.82048e-05 0.000352034 -0.167937)
(-9.80628e-05 0.000338803 -0.168343)
(-0.000194122 0.000338629 -0.16704)
(-0.000180573 0.000349384 -0.165997)
(-0.000179247 0.000352895 -0.166723)
(-0.000217406 0.000340468 -0.168381)
(-0.000213041 0.000318693 -0.16991)
(-0.00016482 0.000300648 -0.170572)
(-0.000135708 0.000338131 -0.175198)
(-9.39804e-05 0.000367913 -0.17348)
(2.85304e-05 0.00038188 -0.172902)
(0.000142469 0.000387882 -0.173262)
(8.29609e-05 0.000379301 -0.174375)
(-0.00010547 0.000365296 -0.174734)
(-0.000205051 0.000365214 -0.173448)
(-0.000169875 0.000376486 -0.17245)
(-0.000153752 0.000379718 -0.173211)
(-0.000195551 0.000365968 -0.174896)
(-0.000206537 0.000342136 -0.17643)
(-0.000171286 0.000322751 -0.17705)
(-0.000151663 0.000361672 -0.181548)
(-0.000107125 0.00039392 -0.179845)
(3.45144e-05 0.000409151 -0.179299)
(0.000164106 0.00041597 -0.179629)
(9.82137e-05 0.0004073 -0.180652)
(-0.000112301 0.000392567 -0.180965)
(-0.000214247 0.000392392 -0.179714)
(-0.000155474 0.000404072 -0.178771)
(-0.000123917 0.000407047 -0.179556)
(-0.000170172 0.000391986 -0.181252)
(-0.000198585 0.000366002 -0.18278)
(-0.000177611 0.000345164 -0.183362)
(-0.0001678 0.000385424 -0.187729)
(-0.000121145 0.000420077 -0.186053)
(3.98728e-05 0.000436557 -0.185545)
(0.000185447 0.00044442 -0.185836)
(0.000113659 0.00043598 -0.186758)
(-0.000118293 0.000420564 -0.187027)
(-0.000221219 0.000420058 -0.185827)
(-0.000137134 0.000432017 -0.184947)
(-8.97425e-05 0.000434805 -0.185747)
(-0.000141307 0.000418493 -0.187436)
(-0.00018915 0.000390267 -0.18895)
(-0.000183666 0.000367826 -0.189495)
(-0.000183962 0.000409308 -0.193729)
(-0.000135965 0.000446262 -0.192092)
(4.42875e-05 0.00046395 -0.191626)
(0.00020589 0.000473119 -0.191871)
(0.000128973 0.000465276 -0.192682)
(-0.000123162 0.000449216 -0.192908)
(-0.00022548 0.000448083 -0.191777)
(-0.000114697 0.000460184 -0.190967)
(-5.13307e-05 0.00046291 -0.19177)
(-0.000109064 0.000445461 -0.193437)
(-0.000178201 0.000414907 -0.194926)
(-0.000189299 0.000390667 -0.19544)
(-0.000199984 0.000433239 -0.199535)
(-0.000151477 0.000472345 -0.197949)
(4.74514e-05 0.000491171 -0.197528)
(0.000224819 0.00050194 -0.197722)
(0.000143825 0.000495098 -0.198412)
(-0.000126611 0.000478428 -0.1986)
(-0.000226563 0.000476319 -0.197552)
(-8.81033e-05 0.00048842 -0.196818)
(-8.90105e-06 0.000491276 -0.197613)
(-7.36347e-05 0.000472858 -0.199243)
(-0.000165716 0.000439893 -0.200697)
(-0.000194335 0.000413605 -0.201183)
(-0.000215704 0.000457125 -0.205136)
(-0.000167538 0.000498193 -0.203613)
(4.90842e-05 0.000518053 -0.203241)
(0.00024163 0.000530737 -0.203378)
(0.000157892 0.000525333 -0.203941)
(-0.000128342 0.000508079 -0.204093)
(-0.000224047 0.000504598 -0.203141)
(-5.74033e-05 0.000516561 -0.202488)
(3.72047e-05 0.000519806 -0.203266)
(-3.52946e-05 0.000500644 -0.204843)
(-0.000151682 0.00046519 -0.206255)
(-0.000198578 0.000436552 -0.206716)
(-0.000230961 0.00048087 -0.210523)
(-0.000183973 0.000523669 -0.209073)
(4.89436e-05 0.000544424 -0.208755)
(0.000255757 0.000559349 -0.20883)
(0.000170868 0.000555838 -0.209262)
(-0.000128072 0.000538021 -0.20938)
(-0.00021758 0.000532732 -0.208537)
(-2.27726e-05 0.000544436 -0.207968)
(8.65186e-05 0.000548401 -0.20872)
(5.59545e-06 0.000528776 -0.21023)
(-0.000136102 0.000490746 -0.211589)
(-0.000201821 0.0004594 -0.212029)
(-0.000245595 0.000504332 -0.215688)
(-0.000200571 0.000548612 -0.21432)
(4.68333e-05 0.000570092 -0.214058)
(0.000266678 0.000587569 -0.214071)
(0.000182468 0.000586406 -0.214367)
(-0.000125544 0.00056805 -0.214456)
(-0.000206897 0.000560515 -0.21373)
(1.54775e-05 0.000571863 -0.213249)
(0.000138437 0.00057694 -0.213966)
(4.85761e-05 0.000557157 -0.215396)
(-0.000118997 0.000516459 -0.216693)
(-0.000203846 0.000482002 -0.217115)
(-0.000259445 0.000527352 -0.220619)
(-0.000217092 0.00057282 -0.219344)
(4.26093e-05 0.00059481 -0.219142)
(0.000273934 0.000615147 -0.21909)
(0.000192433 0.000616793 -0.219251)
(-0.000120546 0.00059792 -0.219314)
(-0.000191846 0.000587673 -0.218714)
(5.68823e-05 0.000598601 -0.21832)
(0.000192204 0.000605252 -0.218994)
(9.30818e-05 0.000585678 -0.220331)
(-0.000100419 0.000542233 -0.221558)
(-0.00020443 0.00050421 -0.221965)
(-0.000272356 0.000549777 -0.225308)
(-0.000233271 0.000596101 -0.224134)
(3.61847e-05 0.000618347 -0.223992)
(0.000277144 0.000641825 -0.223878)
(0.000200533 0.000646736 -0.223905)
(-0.000112931 0.000627366 -0.223946)
(-0.000172409 0.000613932 -0.223477)
(0.000100813 0.000624406 -0.223172)
(0.000246917 0.000633166 -0.223796)
(0.000138451 0.000614225 -0.225028)
(-8.04495e-05 0.000567962 -0.226176)
(-0.000203359 0.000525878 -0.22657)
(-0.000284182 0.000571439 -0.229746)
(-0.000248835 0.000618258 -0.228679)
(2.75301e-05 0.000640462 -0.228598)
(0.000276014 0.000667328 -0.228424)
(0.000206567 0.000675937 -0.228324)
(-0.00010263 0.000656096 -0.228346)
(-0.000148721 0.000639001 -0.228009)
(0.000146486 0.000649024 -0.227792)
(0.000301546 0.0006605 -0.228362)
(0.000183942 0.000642665 -0.229479)
(-5.92022e-05 0.000593526 -0.23054)
(-0.000200432 0.00054685 -0.230922)
(-0.00029479 0.000592164 -0.233923)
(-0.000263516 0.000639092 -0.232968)
(1.66703e-05 0.000660916 -0.232948)
(0.000270352 0.000691366 -0.232719)
(0.000210366 0.00070407 -0.2325)
(-8.96771e-05 0.000683791 -0.232509)
(-0.000121079 0.00066258 -0.232302)
(0.000192977 0.000672196 -0.232169)
(0.000354969 0.000687054 -0.232681)
(0.000228752 0.000670848 -0.233677)
(-3.68276e-05 0.000618793 -0.234644)
(-0.000195474 0.000566971 -0.235015)
(-0.000304065 0.000611776 -0.237834)
(-0.000277064 0.000658409 -0.236993)
(3.67837e-06 0.000679478 -0.23703)
(0.000260062 0.00071364 -0.236753)
(0.000211784 0.000730788 -0.236428)
(-7.42158e-05 0.000710115 -0.236427)
(-8.99484e-05 0.000684364 -0.236345)
(0.000239253 0.000693658 -0.236292)
(0.000406001 0.000712618 -0.236744)
(0.000272039 0.000698605 -0.237615)
(-1.35118e-05 0.000643623 -0.238483)
(-0.000188344 0.00058609 -0.238844)
(-0.000311913 0.000630105 -0.241472)
(-0.00028927 0.000676026 -0.240744)
(-1.13319e-05 0.000695932 -0.240835)
(0.00024515 0.000733856 -0.240519)
(0.0002107 0.000755728 -0.240103)
(-5.6512e-05 0.000734721 -0.240096)
(-5.59599e-05 0.00070406 -0.240129)
(0.0002842 0.000713156 -0.240149)
(0.000453447 0.000736975 -0.240544)
(0.000312959 0.000725753 -0.241289)
(1.05246e-05 0.000667867 -0.242055)
(-0.000178948 0.000604067 -0.242403)
(-0.000318271 0.000646995 -0.244832)
(-0.000299972 0.000691784 -0.244216)
(-2.82144e-05 0.000710094 -0.244354)
(0.00022572 0.000751731 -0.244009)
(0.000207011 0.000778527 -0.24352)
(-3.69543e-05 0.000757265 -0.243511)
(-1.98938e-05 0.000721395 -0.243646)
(0.000326668 0.000730458 -0.243732)
(0.000496147 0.000759904 -0.244074)
(0.000350694 0.000752094 -0.244696)
(3.50306e-05 0.000691369 -0.245358)
(-0.000167241 0.000620779 -0.24569)
(-0.0003231 0.000662309 -0.247914)
(-0.000309074 0.00070556 -0.247403)
(-4.67987e-05 0.000721828 -0.247581)
(0.00020197 0.000767015 -0.247219)
(0.000200631 0.000798831 -0.246676)
(-1.60477e-05 0.000777418 -0.246668)
(1.73431e-05 0.000736137 -0.246891)
(0.000365522 0.000745365 -0.247033)
(0.000533032 0.000781194 -0.247328)
(0.000384492 0.000777421 -0.247833)
(5.97316e-05 0.000713975 -0.248391)
(-0.000153238 0.000636121 -0.248705)
(-0.000326399 0.000675864 -0.250716)
(-0.000316547 0.00071724 -0.250304)
(-6.68964e-05 0.000731028 -0.250513)
(0.000174186 0.000779494 -0.250144)
(0.000191498 0.000816304 -0.24957)
(5.60221e-06 0.000794874 -0.249567)
(5.47522e-05 0.000748103 -0.249858)
(0.000399698 0.000757728 -0.250048)
(0.000563185 0.000800644 -0.250304)
(0.0004137 0.000801517 -0.2507)
(8.43371e-05 0.000735486 -0.251156)
(-0.000137011 0.000649922 -0.251448)
(-0.000328194 0.000687596 -0.253242)
(-0.000322432 0.000726712 -0.252918)
(-8.83023e-05 0.000737572 -0.25315)
(0.000142741 0.000788892 -0.252786)
(0.000179578 0.000830565 -0.252201)
(2.73144e-05 0.000809282 -0.252205)
(9.1287e-05 0.000757057 -0.252548)
(0.000428256 0.000767344 -0.252774)
(0.000585884 0.000817996 -0.253)
(0.000437797 0.000824077 -0.2533)
(0.000108546 0.000755711 -0.253657)
(-0.000118699 0.000662184 -0.253922)
(-0.000328539 0.000697463 -0.255497)
(-0.000326834 0.000734062 -0.255251)
(-0.000110794 0.000741591 -0.255495)
(0.000108088 0.000795191 -0.255146)
(0.000164873 0.000841396 -0.254571)
(4.83642e-05 0.000820467 -0.254586)
(0.000125904 0.000763014 -0.25496)
(0.000450438 0.000774237 -0.255214)
(0.00060065 0.000833118 -0.25542)
(0.000456418 0.000844923 -0.255637)
(0.000132057 0.000774517 -0.2559)
(-9.84972e-05 0.000672851 -0.256134)
(-0.000327516 0.000705409 -0.25749)
(-0.00032991 0.000739298 -0.25731)
(-0.000134126 0.000743135 -0.257556)
(7.07639e-05 0.000798304 -0.25723)
(0.000147444 0.000848572 -0.256685)
(6.80218e-05 0.000828239 -0.256712)
(0.000157613 0.000765946 -0.2571)
(0.000465704 0.00077841 -0.257372)
(0.000607273 0.000845878 -0.257568)
(0.00046937 0.000863806 -0.257717)
(0.000154578 0.000791698 -0.257893)
(-7.6659e-05 0.000681865 -0.258092)
(-0.000325233 0.000711421 -0.25923)
(-0.000331855 0.000742488 -0.259104)
(-0.000158024 0.000742323 -0.259343)
(3.13887e-05 0.00079821 -0.259049)
(0.000127423 0.000851909 -0.258549)
(8.55944e-05 0.000832445 -0.258591)
(0.000185525 0.000765882 -0.258976)
(0.000473763 0.000779901 -0.259258)
(0.000605821 0.000856128 -0.259453)
(0.000476644 0.000880464 -0.25955)
(0.000175838 0.000807055 -0.259647)
(-5.34879e-05 0.000689201 -0.259806)
(-0.000321818 0.000715527 -0.260733)
(-0.000332882 0.000743746 -0.260649)
(-0.000182171 0.000739331 -0.260872)
(-9.33232e-06 0.000794959 -0.260613)
(0.000105035 0.000851297 -0.260172)
(0.000100469 0.000833003 -0.26023)
(0.000208904 0.000762925 -0.2606)
(0.000474591 0.000778806 -0.260883)
(0.000596638 0.000863759 -0.261087)
(0.000478407 0.000894652 -0.261144)
(0.00019559 0.000820399 -0.261172)
(-2.93355e-05 0.000694851 -0.261289)
(-0.000317415 0.000717781 -0.262012)
(-0.000333193 0.000743212 -0.261958)
(-0.000206195 0.000734357 -0.262158)
(-5.06047e-05 0.000788649 -0.261937)
(8.06178e-05 0.000846697 -0.261566)
(0.000112153 0.000829894 -0.261642)
(0.000227202 0.000757219 -0.261985)
(0.000468437 0.000775258 -0.262264)
(0.000580334 0.000868693 -0.262481)
(0.000474992 0.000906145 -0.262514)
(0.000213613 0.000831547 -0.262481)
(-4.59969e-06 0.000698815 -0.262555)
(-0.000312186 0.000718258 -0.263085)
(-0.00033297 0.000741035 -0.26305)
(-0.000229665 0.00072761 -0.263221)
(-9.15438e-05 0.00077942 -0.263038)
(5.46425e-05 0.000838134 -0.262742)
(0.000120309 0.000823146 -0.262838)
(0.000240098 0.000748931 -0.263147)
(0.000455822 0.000769394 -0.263418)
(0.000557758 0.000870863 -0.263653)
(0.00046689 0.000914734 -0.263672)
(0.000229719 0.000840327 -0.263588)
(2.02759e-05 0.000701096 -0.26362)
(-0.000306307 0.000717054 -0.263969)
(-0.000332355 0.00073737 -0.263945)
(-0.000252092 0.000719354 -0.264081)
(-0.000131196 0.000767514 -0.263936)
(2.77176e-05 0.000825716 -0.263717)
(0.000124787 0.000812848 -0.263833)
(0.000247519 0.00073824 -0.264106)
(0.000437519 0.000761371 -0.264365)
(0.000529979 0.000870239 -0.264618)
(0.000454728 0.00092025 -0.264634)
(0.000243757 0.000846598 -0.264509)
(4.48163e-05 0.000701716 -0.2645)
(-0.000299964 0.000714355 -0.264683)
(-0.000331433 0.000732476 -0.264662)
(-0.000273016 0.000709892 -0.264764)
(-0.000168718 0.000753232 -0.264652)
(5.27949e-07 0.000809721 -0.264508)
(0.000125643 0.00079925 -0.264645)
(0.000249648 0.000725432 -0.264881)
(0.000414506 0.000751445 -0.265126)
(0.000498215 0.000866927 -0.265397)
(0.000439211 0.00092263 -0.265418)
(0.000255634 0.000850296 -0.265261)
(6.85432e-05 0.000700774 -0.265215)
(-0.000293266 0.000710328 -0.265253)
(-0.000330234 0.000726534 -0.265229)
(-0.000292093 0.000699481 -0.265297)
(-0.000203461 0.000736862 -0.265214)
(-2.63288e-05 0.000790395 -0.265139)
(0.000123111 0.000782594 -0.265295)
(0.00024691 0.000710829 -0.265495)
(0.000387851 0.000739893 -0.265727)
(0.000463592 0.000861013 -0.266015)
(0.000421007 0.000921831 -0.266045)
(0.000265315 0.000851367 -0.265867)
(9.11014e-05 0.000698328 -0.265787)
(-0.000286282 0.00070518 -0.265701)
(-0.000328728 0.000719768 -0.265671)
(-0.000309007 0.000688371 -0.265706)
(-0.000234825 0.000718727 -0.265646)
(-5.22587e-05 0.000768072 -0.265632)
(0.000117541 0.000763165 -0.265807)
(0.000239884 0.000694724 -0.265976)
(0.000358554 0.000726972 -0.266194)
(0.000427136 0.00085266 -0.266496)
(0.00040077 0.000917885 -0.266537)
(0.000272787 0.000849803 -0.266345)
(0.0001122 0.00069448 -0.266239)
(-0.000279108 0.00069909 -0.266048)
(-0.000326849 0.000712347 -0.266008)
(-0.000323447 0.000676757 -0.266011)
(-0.000262292 0.000699133 -0.265968)
(-7.66396e-05 0.000743141 -0.266008)
(0.00010941 0.000741307 -0.266201)
(0.000229228 0.000677378 -0.266346)
(0.000327546 0.000712902 -0.26655)
(0.000389865 0.000842006 -0.26686)
(0.000379137 0.000910835 -0.266912)
(0.000278073 0.000845603 -0.266714)
(0.000131542 0.000689278 -0.266588)
(-0.000271819 0.000692215 -0.266311)
(-0.000324509 0.000704395 -0.26626)
(-0.000335183 0.000664776 -0.266234)
(-0.000285508 0.000678343 -0.266202)
(-9.89546e-05 0.000715968 -0.266285)
(9.92624e-05 0.000717347 -0.266497)
(0.00021566 0.000659039 -0.266624)
(0.000295717 0.000697868 -0.266816)
(0.000352644 0.000829194 -0.267127)
(0.000356661 0.000900769 -0.267188)
(0.000281224 0.000838802 -0.26699)
(0.000148896 0.000682764 -0.266853)
(-0.000264471 0.000684695 -0.266506)
(-0.000321612 0.000696004 -0.266442)
(-0.000344063 0.000652519 -0.26639)
(-0.000304271 0.000656599 -0.266365)
(-0.000118798 0.000686923 -0.266483)
(8.76572e-05 0.000691608 -0.266712)
(0.000199899 0.000639896 -0.266829)
(0.000263833 0.000682005 -0.267009)
(0.000316181 0.000814373 -0.267316)
(0.000333806 0.00088781 -0.267383)
(0.000282321 0.000829465 -0.26719)
(0.000164094 0.000674979 -0.267048)
(-0.000257104 0.000676644 -0.266647)
(-0.000318063 0.000687231 -0.266571)
(-0.000350017 0.000640037 -0.266494)
(-0.000318523 0.000634104 -0.266471)
(-0.000135883 0.000656367 -0.266618)
(7.51367e-05 0.000664405 -0.266863)
(0.00018262 0.000620108 -0.266975)
(0.000232517 0.000665419 -0.267144)
(0.000281025 0.000797692 -0.267441)
(0.000310947 0.000872112 -0.267512)
(0.000281464 0.000817679 -0.267327)
(0.000177033 0.000665958 -0.267187)
(-0.00024974 0.000668148 -0.266745)
(-0.000313775 0.000678097 -0.266656)
(-0.000353038 0.000627339 -0.266558)
(-0.000328323 0.000611025 -0.266534)
(-0.000150043 0.000624632 -0.266702)
(6.21935e-05 0.000636031 -0.266963)
(0.000164425 0.000599803 -0.267075)
(0.000202246 0.000648187 -0.267234)
(0.000247569 0.000779294 -0.267515)
(0.000288373 0.000853844 -0.267588)
(0.000278772 0.000803551 -0.267414)
(0.000187668 0.000655729 -0.267282)
(-0.000242382 0.000659268 -0.26681)
(-0.000308677 0.000668595 -0.266709)
(-0.00035317 0.000614402 -0.266592)
(-0.000333818 0.000587491 -0.266565)
(-0.000161214 0.000592017 -0.266749)
(4.92513e-05 0.00060675 -0.267023)
(0.000145825 0.000579077 -0.267139)
(0.000173364 0.000630357 -0.267287)
(0.000216066 0.00075931 -0.26755)
(0.000266286 0.000833186 -0.267622)
(0.000274368 0.000787196 -0.267462)
(0.000196002 0.000644316 -0.267342)
(-0.000235019 0.000650038 -0.266849)
(-0.000302706 0.000658687 -0.266737)
(-0.000350488 0.000601177 -0.266603)
(-0.000335205 0.000563603 -0.266571)
(-0.000169415 0.000558787 -0.266766)
(3.66578e-05 0.000576794 -0.267054)
(0.000127237 0.000557997 -0.267175)
(0.000146106 0.000611956 -0.267314)
(0.000186661 0.000737862 -0.267556)
(0.000244819 0.000810322 -0.267623)
(0.000268372 0.000768738 -0.267479)
(0.000202069 0.000631737 -0.267374)
(-0.000227631 0.000640466 -0.266869)
(-0.000295813 0.000648312 -0.266746)
(-0.000345082 0.000587593 -0.266597)
(-0.000332703 0.000539428 -0.26656)
(-0.000174714 0.000525172 -0.266763)
(2.46887e-05 0.000546365 -0.267062)
(0.000109 0.000536608 -0.26719)
(0.000120628 0.00059299 -0.267319)
(0.000159417 0.000715058 -0.267538)
(0.00022405 0.000785431 -0.2676)
(0.000260894 0.000748303 -0.267473)
(0.000205924 0.000618003 -0.267385)
(-0.00022019 0.000630539 -0.266874)
(-0.000287956 0.000637392 -0.26674)
(-0.000337043 0.000573562 -0.266579)
(-0.000326532 0.000515016 -0.266536)
(-0.000177207 0.000491371 -0.266743)
(1.35571e-05 0.000515636 -0.267053)
(9.13809e-05 0.000514932 -0.26719)
(9.70298e-05 0.000573453 -0.267308)
(0.000134347 0.000690996 -0.267503)
(0.000204017 0.000758693 -0.267559)
(0.000252033 0.000726014 -0.267449)
(0.000207626 0.000603122 -0.26738)
(-0.000212663 0.000620225 -0.266868)
(-0.0002791 0.000625828 -0.266725)
(-0.000326459 0.000558984 -0.266552)
(-0.000316895 0.000490397 -0.266503)
(-0.000177004 0.000457557 -0.266713)
(3.42669e-06 0.000484753 -0.267032)
(7.45975e-05 0.000492981 -0.267177)
(7.53832e-05 0.000553329 -0.267285)
(0.00011144 0.000665768 -0.267455)
(0.000184736 0.000730282 -0.267504)
(0.000241873 0.000701996 -0.267411)
(0.000207236 0.000587098 -0.267362)
(-0.00020502 0.000609472 -0.266854)
(-0.000269217 0.000613511 -0.266702)
(-0.000313414 0.00054375 -0.266519)
(-0.000303978 0.000465589 -0.266464)
(-0.000174213 0.000423883 -0.266676)
(-5.57615e-06 0.000453844 -0.267002)
(5.88309e-05 0.000470753 -0.267155)
(5.57466e-05 0.000532599 -0.267252)
(9.06768e-05 0.000639462 -0.267398)
(0.000166215 0.000700372 -0.267439)
(0.000230487 0.000676373 -0.267363)
(0.000204809 0.000569934 -0.267335)
(-0.000197231 0.000598216 -0.266833)
(-0.000258289 0.000600317 -0.266674)
(-0.00029799 0.000527744 -0.266482)
(-0.000287952 0.000440601 -0.266422)
(-0.000168938 0.000390484 -0.266635)
(-1.33533e-05 0.000423016 -0.266967)
(4.42375e-05 0.000448236 -0.267126)
(3.81767e-05 0.000511238 -0.267213)
(7.20439e-05 0.000612163 -0.267334)
(0.000148464 0.000669135 -0.267368)
(0.000217943 0.000649271 -0.267309)
(0.000200396 0.000551629 -0.267301)
(-0.000189273 0.000586377 -0.266809)
(-0.000246305 0.000586117 -0.266642)
(-0.000280271 0.000510843 -0.266444)
(-0.000268978 0.000415435 -0.266379)
(-0.000161283 0.000357485 -0.266591)
(-1.98285e-05 0.000392365 -0.266928)
(3.0957e-05 0.000425413 -0.267093)
(2.27344e-05 0.000489225 -0.267169)
(5.55384e-05 0.000583961 -0.267266)
(0.000131503 0.000636746 -0.267293)
(0.000204311 0.000620816 -0.26725)
(0.000194043 0.000532186 -0.267263)
(-0.000181127 0.000573864 -0.266781)
(-0.000233269 0.000570771 -0.266609)
(-0.000260352 0.000492923 -0.266405)
(-0.000247219 0.00039009 -0.266336)
(-0.000151355 0.000324996 -0.266546)
(-2.49445e-05 0.000361973 -0.266886)
(1.9116e-05 0.00040226 -0.267056)
(9.48588e-06 0.000466536 -0.267121)
(4.11702e-05 0.000554949 -0.267196)
(0.000115366 0.000603388 -0.267216)
(0.000189663 0.000591143 -0.267189)
(0.000185798 0.00051161 -0.267221)
(-0.000172782 0.000560577 -0.266752)
(-0.0002192 0.000554137 -0.266575)
(-0.000238346 0.000473856 -0.266367)
(-0.000222851 0.000364559 -0.266295)
(-0.000139273 0.000293125 -0.266503)
(-2.86627e-05 0.00033191 -0.266845)