-0.0075 	0 	0 	0
-0.0075 	1.14261e-35 	-3.56394e-36 	1.85241e-31
-0.00745622 	9.38587e-07 	-2.92755e-07 	0.0152164
-0.00745622 	9.38587e-07 	-2.92755e-07 	0.0152164
-0.00741165 	6.38574e-07 	-8.66902e-07 	0.029616
-0.00741165 	6.38574e-07 	-8.66902e-07 	0.029616
-0.00736628 	-7.05691e-09 	-1.80827e-06 	0.0433109
-0.00736628 	-7.05691e-09 	-1.80827e-06 	0.0433109
-0.0073201 	-4.961e-07 	-3.09304e-06 	0.0563337
-0.0073201 	-4.961e-07 	-3.09304e-06 	0.0563337
-0.00727309 	-8.38138e-07 	-4.77287e-06 	0.0687082
-0.00727309 	-8.38138e-07 	-4.77287e-06 	0.0687082
-0.00722524 	-1.12744e-06 	-6.85248e-06 	0.0804539
-0.00722524 	-1.12744e-06 	-6.85248e-06 	0.0804539
-0.00717653 	-1.39848e-06 	-9.34858e-06 	0.0915788
-0.00717653 	-1.39848e-06 	-9.34858e-06 	0.0915788
-0.00712695 	-1.66514e-06 	-1.22793e-05 	0.10207
-0.00712695 	-1.66514e-06 	-1.22793e-05 	0.10207
-0.00707647 	-1.93156e-06 	-1.56757e-05 	0.111897
-0.00707647 	-1.93156e-06 	-1.56757e-05 	0.111897
-0.0070251 	-2.19525e-06 	-1.95894e-05 	0.121033
-0.0070251 	-2.19525e-06 	-1.95894e-05 	0.121033
-0.0069728 	-2.44956e-06 	-2.40871e-05 	0.12947
-0.0069728 	-2.44956e-06 	-2.40871e-05 	0.12947
-0.00691956 	-2.68649e-06 	-2.92381e-05 	0.137227
-0.00691956 	-2.68649e-06 	-2.92381e-05 	0.137227
-0.00686537 	-2.8989e-06 	-3.51051e-05 	0.144344
-0.00686537 	-2.8989e-06 	-3.51051e-05 	0.144344
-0.00681021 	-3.08222e-06 	-4.17535e-05 	0.150876
-0.00681021 	-3.08222e-06 	-4.17535e-05 	0.150876
-0.00675406 	-3.23429e-06 	-4.92523e-05 	0.156884
-0.00675406 	-3.23429e-06 	-4.92523e-05 	0.156884
-0.0066969 	-3.35467e-06 	-5.76644e-05 	0.162424
-0.0066969 	-3.35467e-06 	-5.76644e-05 	0.162424
-0.00663871 	-3.44401e-06 	-6.70326e-05 	0.16754
-0.00663871 	-3.44401e-06 	-6.70326e-05 	0.16754
-0.00657949 	-3.5032e-06 	-7.73602e-05 	0.172275
-0.00657949 	-3.5032e-06 	-7.73602e-05 	0.172275
-0.0065192 	-3.53317e-06 	-8.86139e-05 	0.17667
-0.0065192 	-3.53317e-06 	-8.86139e-05 	0.17667
-0.00645783 	-3.53529e-06 	-0.000100746 	0.180767
-0.00645783 	-3.53529e-06 	-0.000100746 	0.180767
-0.00639535 	-3.51136e-06 	-0.000113707 	0.184604
-0.00639535 	-3.51136e-06 	-0.000113707 	0.184604
-0.00633176 	-3.46352e-06 	-0.000127443 	0.188215
-0.00633176 	-3.46352e-06 	-0.000127443 	0.188215
-0.00626703 	-3.39407e-06 	-0.000141901 	0.191627
-0.00626703 	-3.39407e-06 	-0.000141901 	0.191627
-0.00620114 	-3.30503e-06 	-0.000157026 	0.194863
-0.00620114 	-3.30503e-06 	-0.000157026 	0.194863
-0.00613406 	-3.19805e-06 	-0.00017276 	0.197942
-0.00613406 	-3.19805e-06 	-0.00017276 	0.197942
-0.00606579 	-3.07419e-06 	-0.000189042 	0.200884
-0.00606579 	-3.07419e-06 	-0.000189042 	0.200884
-0.00599629 	-2.93398e-06 	-0.000205806 	0.203704
-0.00599629 	-2.93398e-06 	-0.000205806 	0.203704
-0.00592554 	-2.77808e-06 	-0.000222985 	0.206419
-0.00592554 	-2.77808e-06 	-0.000222985 	0.206419
-0.00585352 	-2.60781e-06 	-0.000240503 	0.209044
-0.00585352 	-2.60781e-06 	-0.000240503 	0.209044
-0.00578022 	-2.42484e-06 	-0.000258267 	0.211589
-0.00578022 	-2.42484e-06 	-0.000258267 	0.211589
-0.00570559 	-2.23058e-06 	-0.000276182 	0.214064
-0.00570559 	-2.23058e-06 	-0.000276182 	0.214064
-0.00562963 	-2.02598e-06 	-0.000294151 	0.216478
-0.00562963 	-2.02598e-06 	-0.000294151 	0.216478
-0.00555231 	-1.81171e-06 	-0.000312073 	0.218838
-0.00555231 	-1.81171e-06 	-0.000312073 	0.218838
-0.0054736 	-1.58826e-06 	-0.000329848 	0.221149
-0.0054736 	-1.58826e-06 	-0.000329848 	0.221149
-0.00539348 	-1.35603e-06 	-0.000347373 	0.223415
-0.00539348 	-1.35603e-06 	-0.000347373 	0.223415
-0.00531193 	-1.11534e-06 	-0.000364546 	0.225641
-0.00531193 	-1.11534e-06 	-0.000364546 	0.225641
-0.00522891 	-8.66403e-07 	-0.000381267 	0.227829
-0.00522891 	-8.66403e-07 	-0.000381267 	0.227829
-0.0051444 	-6.09376e-07 	-0.000397435 	0.229981
-0.0051444 	-6.09376e-07 	-0.000397435 	0.229981
-0.00505838 	-3.44362e-07 	-0.000412959 	0.232099
-0.00505838 	-3.44362e-07 	-0.000412959 	0.232099
-0.00497081 	-7.14107e-08 	-0.000427747 	0.234183
-0.00497081 	-7.14107e-08 	-0.000427747 	0.234183
-0.00488168 	2.09525e-07 	-0.000441717 	0.236233
-0.00488168 	2.09525e-07 	-0.000441717 	0.236233
-0.00479094 	4.98664e-07 	-0.000454789 	0.238248
-0.00479094 	4.98664e-07 	-0.000454789 	0.238248
-0.00469858 	7.965e-07 	-0.000466889 	0.240228
-0.00469858 	7.965e-07 	-0.000466889 	0.240228
-0.00460456 	1.10384e-06 	-0.000477949 	0.242169
-0.00460456 	1.10384e-06 	-0.000477949 	0.242169
-0.00450886 	1.42167e-06 	-0.000487922 	0.244072
-0.00450886 	1.42167e-06 	-0.000487922 	0.244072
-0.00441144 	1.75092e-06 	-0.000496793 	0.245934
-0.00441144 	1.75092e-06 	-0.000496793 	0.245934
-0.00431227 	2.0921e-06 	-0.00050458 	0.247753
-0.00431227 	2.0921e-06 	-0.00050458 	0.247753
-0.00421133 	2.44547e-06 	-0.000511331 	0.249528
-0.00421133 	2.44547e-06 	-0.000511331 	0.249528
-0.00410857 	2.81205e-06 	-0.000517111 	0.251255
-0.00410857 	2.81205e-06 	-0.000517111 	0.251255
-0.00400397 	3.19512e-06 	-0.000522007 	0.252934
-0.00400397 	3.19512e-06 	-0.000522007 	0.252934
-0.0038975 	3.5995e-06 	-0.000526112 	0.254563
-0.0038975 	3.5995e-06 	-0.000526112 	0.254563
-0.00378912 	4.02823e-06 	-0.000529514 	0.256146
-0.00378912 	4.02823e-06 	-0.000529514 	0.256146
-0.00367879 	4.48053e-06 	-0.000532282 	0.257684
-0.00367879 	4.48053e-06 	-0.000532282 	0.257684
-0.00356649 	4.95349e-06 	-0.000534474 	0.259178
-0.00356649 	4.95349e-06 	-0.000534474 	0.259178
-0.00345217 	5.44492e-06 	-0.000536145 	0.260626
-0.00345217 	5.44492e-06 	-0.000536145 	0.260626
-0.0033358 	5.95396e-06 	-0.000537355 	0.262024
-0.0033358 	5.95396e-06 	-0.000537355 	0.262024
-0.00321735 	6.4799e-06 	-0.000538168 	0.263372
-0.00321735 	6.4799e-06 	-0.000538168 	0.263372
-0.00309677 	7.02171e-06 	-0.000538652 	0.264667
-0.00309677 	7.02171e-06 	-0.000538652 	0.264667
-0.00297403 	7.57798e-06 	-0.000538881 	0.265905
-0.00297403 	7.57798e-06 	-0.000538881 	0.265905
-0.00284909 	8.14682e-06 	-0.000538927 	0.267085
-0.00284909 	8.14682e-06 	-0.000538927 	0.267085
-0.0027219 	8.72595e-06 	-0.000538867 	0.268205
-0.0027219 	8.72595e-06 	-0.000538867 	0.268205
-0.00259244 	9.31281e-06 	-0.000538772 	0.269261
-0.00259244 	9.31281e-06 	-0.000538772 	0.269261
-0.00246065 	9.90461e-06 	-0.000538713 	0.270252
-0.00246065 	9.90461e-06 	-0.000538713 	0.270252
-0.00232651 	1.04982e-05 	-0.000538749 	0.271174
-0.00232651 	1.04982e-05 	-0.000538749 	0.271174
-0.00218995 	1.10901e-05 	-0.00053893 	0.272027
-0.00218995 	1.10901e-05 	-0.00053893 	0.272027
-0.00205095 	1.16768e-05 	-0.000539293 	0.272808
-0.00205095 	1.16768e-05 	-0.000539293 	0.272808
-0.00190946 	1.22549e-05 	-0.000539863 	0.273516
-0.00190946 	1.22549e-05 	-0.000539863 	0.273516
-0.00176543 	1.28206e-05 	-0.000540648 	0.274149
-0.00176543 	1.28206e-05 	-0.000540648 	0.274149
-0.00161881 	1.33693e-05 	-0.000541636 	0.274707
-0.00161881 	1.33693e-05 	-0.000541636 	0.274707
-0.00146957 	1.38949e-05 	-0.0005428 	0.275191
-0.00146957 	1.38949e-05 	-0.0005428 	0.275191
-0.00131765 	1.439e-05 	-0.000544094 	0.2756
-0.00131765 	1.439e-05 	-0.000544094 	0.2756
-0.001163 	1.48469e-05 	-0.000545465 	0.275934
-0.001163 	1.48469e-05 	-0.000545465 	0.275934
-0.00100559 	1.52569e-05 	-0.00054686 	0.276194
-0.00100559 	1.52569e-05 	-0.00054686 	0.276194
-0.000845345 	1.56107e-05 	-0.000548121 	0.276377
-0.000845345 	1.56107e-05 	-0.000548121 	0.276377
-0.000682232 	1.58985e-05 	-0.000549266 	0.276484
-0.000682232 	1.58985e-05 	-0.000549266 	0.276484
-0.000516194 	1.61092e-05 	-0.000550362 	0.276513
-0.000516194 	1.61092e-05 	-0.000550362 	0.276513
-0.000347178 	1.6232e-05 	-0.000551203 	0.27646
-0.000347178 	1.6232e-05 	-0.000551203 	0.27646
-0.000175132 	1.62468e-05 	-0.000552038 	0.276325
-0.000175132 	1.62468e-05 	-0.000552038 	0.276325
0 	1.61281e-05 	-0.000552639 	0.276104
0 	1.61281e-05 	-0.000552639 	0.276104
0 	1.61281e-05 	-0.000552639 	0.276104
0 	1.61281e-05 	-0.000552639 	0.276104
0.000175132 	1.5873e-05 	-0.00055264 	0.275799
0.000175132 	2.08394e-05 	-0.000449995 	0.27257
0.000347178 	1.54953e-05 	-0.000552319 	0.275417
0.000347178 	2.20666e-05 	-0.000451677 	0.272252
0.000516194 	1.50222e-05 	-0.000551412 	0.274963
0.000516194 	2.30996e-05 	-0.000452862 	0.271857
0.000682232 	1.44788e-05 	-0.000549988 	0.274442
0.000682232 	2.39572e-05 	-0.000453652 	0.271388
0.000845345 	1.38766e-05 	-0.000548319 	0.273856
0.000845345 	2.46533e-05 	-0.000454138 	0.27085
0.00100559 	1.32275e-05 	-0.000546295 	0.273209
0.00100559 	2.52055e-05 	-0.000454269 	0.270247
0.001163 	1.25426e-05 	-0.000543935 	0.272504
0.001163 	2.563e-05 	-0.000454044 	0.269582
0.00131765 	1.18321e-05 	-0.000541256 	0.271741
0.00131765 	2.59414e-05 	-0.000453467 	0.268857
0.00146957 	1.11052e-05 	-0.00053827 	0.270925
0.00146957 	2.61527e-05 	-0.000452545 	0.268076
0.00161881 	1.03695e-05 	-0.00053499 	0.270056
0.00161881 	2.62753e-05 	-0.000451288 	0.26724
0.00176543 	9.63178e-06 	-0.000531429 	0.269137
0.00176543 	2.63191e-05 	-0.000449702 	0.266352
0.00190946 	8.89737e-06 	-0.000527596 	0.268168
0.00190946 	2.62927e-05 	-0.000447796 	0.265412
0.00205095 	8.17073e-06 	-0.000523498 	0.267151
0.00205095 	2.62033e-05 	-0.000445572 	0.264423
0.00218995 	7.45544e-06 	-0.000519143 	0.266087
0.00218995 	2.60573e-05 	-0.000443034 	0.263385
0.00232651 	6.75429e-06 	-0.000514532 	0.264977
0.00232651 	2.58602e-05 	-0.000440184 	0.2623
0.00246065 	6.06943e-06 	-0.000509669 	0.263822
0.00246065 	2.56167e-05 	-0.00043702 	0.261169
0.00259244 	5.40254e-06 	-0.000504554 	0.262621
0.00259244 	2.53306e-05 	-0.00043354 	0.259992
0.0027219 	4.75486e-06 	-0.000499183 	0.261377
0.0027219 	2.50053e-05 	-0.000429739 	0.258769
0.00284909 	4.12732e-06 	-0.000493554 	0.260089
0.00284909 	2.46433e-05 	-0.000425612 	0.257503
0.00297403 	3.52062e-06 	-0.000487662 	0.258756
0.00297403 	2.42469e-05 	-0.000421148 	0.256191
0.00309677 	2.93522e-06 	-0.0004815 	0.25738
0.00309677 	2.38181e-05 	-0.000416335 	0.254836
0.00321735 	2.3714e-06 	-0.00047506 	0.255959
0.00321735 	2.33584e-05 	-0.000411163 	0.253436
0.0033358 	1.82921e-06 	-0.000468336 	0.254494
0.0033358 	2.28693e-05 	-0.00040562 	0.25199
0.00345217 	2.23522e-05 	-0.000399696 	0.250499
0.00345217 	1.30853e-06 	-0.00046132 	0.252983
0.00356649 	8.0914e-07 	-0.000454009 	0.251427
0.00356649 	2.18089e-05 	-0.000393394 	0.248962
0.00367879 	3.30792e-07 	-0.000446391 	0.249823
0.00367879 	2.12425e-05 	-0.000386708 	0.247377
0.00378912 	-1.26629e-07 	-0.000438448 	0.248171
0.00378912 	2.06563e-05 	-0.000379625 	0.245745
0.0038975 	-5.63227e-07 	-0.000430161 	0.24647
0.0038975 	2.00516e-05 	-0.000372123 	0.244067
0.00400397 	-9.79442e-07 	-0.000421488 	0.244715
0.00400397 	1.94269e-05 	-0.000364141 	0.242336
0.00410857 	1.87817e-05 	-0.000355578 	0.24054
0.00410857 	-1.3754e-06 	-0.000412366 	0.242902
0.00421133 	-1.7504e-06 	-0.000402723 	0.241024
0.00421133 	1.81169e-05 	-0.000346339 	0.238667
0.00431227 	-2.10424e-06 	-0.000392476 	0.239075
0.00431227 	1.74329e-05 	-0.000336353 	0.236711
0.00441144 	-2.43839e-06 	-0.000381559 	0.237048
0.00441144 	1.67286e-05 	-0.000325575 	0.234666
0.00450886 	-2.75543e-06 	-0.000369937 	0.234935
0.00450886 	1.60021e-05 	-0.000314007 	0.23253
0.00460456 	-3.05777e-06 	-0.00035761 	0.232732
0.00460456 	1.5252e-05 	-0.000301688 	0.230298
0.00469858 	-3.34685e-06 	-0.000344596 	0.230433
0.00469858 	1.44767e-05 	-0.00028867 	0.227966
0.00479094 	-3.62351e-06 	-0.00033092 	0.228035
0.00479094 	1.36749e-05 	-0.00027501 	0.225531
0.00488168 	-3.8884e-06 	-0.000316611 	0.225532
0.00488168 	1.28454e-05 	-0.000260767 	0.222987
0.00497081 	-4.14217e-06 	-0.000301709 	0.22292
0.00497081 	1.19869e-05 	-0.000246006 	0.220332
0.00505838 	-4.3854e-06 	-0.000286264 	0.220195
0.00505838 	1.10984e-05 	-0.000230801 	0.21756
0.0051444 	-4.61862e-06 	-0.000270343 	0.217353
0.0051444 	1.01792e-05 	-0.000215241 	0.214669
0.00522891 	-4.84221e-06 	-0.000254025 	0.214391
0.00522891 	9.22894e-06 	-0.000199426 	0.211655
0.00531193 	-5.05639e-06 	-0.000237408 	0.211304
0.00531193 	8.24797e-06 	-0.000183476 	0.208517
0.00539348 	-5.26119e-06 	-0.000220605 	0.20809
0.00539348 	7.23713e-06 	-0.000167523 	0.205251
0.0054736 	-5.45648e-06 	-0.00020374 	0.204746
0.0054736 	6.19777e-06 	-0.000151707 	0.201857
0.00555231 	-5.64192e-06 	-0.000186943 	0.201269
0.00555231 	5.13175e-06 	-0.000136175 	0.198332
0.00562963 	-5.81703e-06 	-0.000170351 	0.197654
0.00562963 	4.0413e-06 	-0.000121067 	0.194674
0.00570559 	-5.98117e-06 	-0.000154096 	0.193896
0.00570559 	2.92904e-06 	-0.00010652 	0.19088
0.00578022 	-6.13352e-06 	-0.000138303 	0.189992
0.00578022 	1.79801e-06 	-9.26533e-05 	0.186946
0.00585352 	-6.27312e-06 	-0.000123091 	0.185936
0.00585352 	6.51653e-07 	-7.95722e-05 	0.182867
0.00592554 	-6.39884e-06 	-0.000108561 	0.18172
0.00592554 	-5.06074e-07 	-6.73617e-05 	0.178639
0.00599629 	-6.50933e-06 	-9.48055e-05 	0.177338
0.00599629 	-1.67065e-06 	-5.60865e-05 	0.174254
0.00606579 	-6.60282e-06 	-8.18973e-05 	0.17278
0.00606579 	-2.83686e-06 	-4.57909e-05 	0.169703
0.00613406 	-6.67712e-06 	-6.98998e-05 	0.168035
0.00613406 	-3.99892e-06 	-3.65e-05 	0.164975
0.00620114 	-5.15068e-06 	-2.82224e-05 	0.160053
0.00620114 	-6.73008e-06 	-5.88621e-05 	0.163087
0.00626703 	-6.76009e-06 	-4.88211e-05 	0.157919
0.00626703 	-6.28505e-06 	-2.09557e-05 	0.154921
0.00633176 	-7.39327e-06 	-1.46885e-05 	0.149562
0.00633176 	-6.76579e-06 	-3.98067e-05 	0.152513
0.00639535 	-8.46474e-06 	-9.39344e-06 	0.143962
0.00639535 	-6.74551e-06 	-3.18317e-05 	0.146855
0.00645783 	-6.69705e-06 	-2.48878e-05 	0.140929
0.00645783 	-9.48705e-06 	-5.02545e-06 	0.138103
0.0065192 	-6.61802e-06 	-1.89503e-05 	0.134716
0.0065192 	-1.04459e-05 	-1.52664e-06 	0.131968
0.00657949 	-6.5061e-06 	-1.39814e-05 	0.1282
0.00657949 	-1.13246e-05 	1.17014e-06 	0.125539
0.00663871 	-6.3581e-06 	-9.92979e-06 	0.121364
0.00663871 	-1.21039e-05 	3.13885e-06 	0.1188
0.0066969 	-6.16951e-06 	-6.71695e-06 	0.114191
0.0066969 	-1.27621e-05 	4.46516e-06 	0.111729
0.00675406 	-1.32774e-05 	5.23859e-06 	0.104292
0.00675406 	-5.93625e-06 	-4.24996e-06 	0.106648
0.00681021 	-1.36263e-05 	5.5477e-06 	0.0964606
0.00681021 	-5.65777e-06 	-2.42921e-06 	0.0987014
0.00686537 	-1.37837e-05 	5.48197e-06 	0.0882492
0.00686537 	-5.33872e-06 	-1.15794e-06 	0.0903581
0.00691956 	-1.37261e-05 	5.13087e-06 	0.0797237
0.00691956 	-4.98712e-06 	-3.49176e-07 	0.081682
0.0069728 	-1.34362e-05 	4.58574e-06 	0.0710011
0.0069728 	-4.6121e-06 	9.53689e-08 	0.0727898
0.0070251 	-4.22373e-06 	2.78049e-07 	0.06385
0.0070251 	-1.29078e-05 	3.93317e-06 	0.0622465
0.00707647 	-3.83175e-06 	2.96118e-07 	0.0550635
0.00707647 	-1.21498e-05 	3.24829e-06 	0.0536543
0.00712695 	-3.44266e-06 	2.33357e-07 	0.046629
0.00712695 	-1.11854e-05 	2.59062e-06 	0.0454145
0.00717653 	-3.05734e-06 	1.51209e-07 	0.038704
0.00717653 	-1.00458e-05 	1.99999e-06 	0.0376772
0.00722524 	-2.66958e-06 	8.63187e-08 	0.0313825
0.00722524 	-8.76249e-06 	1.49749e-06 	0.0305317
0.00727309 	-7.36026e-06 	1.08735e-06 	0.0240098
0.00727309 	-2.26429e-06 	5.29584e-08 	0.0246978
0.0073201 	-5.85267e-06 	7.60235e-07 	0.0181045
0.0073201 	-1.81168e-06 	4.69123e-08 	0.0186418
0.00736628 	-4.23654e-06 	5.13674e-07 	0.0127887
0.00736628 	-1.25306e-06 	6.12807e-08 	0.013186
0.00741165 	-6.02738e-07 	5.51926e-08 	0.00829281
0.00741165 	-2.59179e-06 	2.93273e-07 	0.00802585
0.00745622 	-9.3255e-08 	3.71218e-08 	0.00391837
0.00745622 	-1.13796e-06 	1.28108e-07 	0.00377296
0.0075 	0 	0 	0
0.0075 	0 	0 	0
