0 	0 	0 	0
0 	4.27114e-36 	-3.01883e-36 	1.85056e-31
5.01672e-05 	2.8784e-07 	-3.23262e-07 	0.0172626
5.01672e-05 	2.8784e-07 	-3.23262e-07 	0.0172626
0.000100334 	-2.58843e-07 	-1.00688e-06 	0.0332077
0.000150502 	-9.22431e-07 	-2.10621e-06 	0.0480123
0.000150502 	-9.22431e-07 	-2.10621e-06 	0.0480123
0.000200669 	-1.44337e-06 	-3.6132e-06 	0.0617649
0.000200669 	-1.44337e-06 	-3.6132e-06 	0.0617649
0.000250836 	-1.87569e-06 	-5.53755e-06 	0.0745412
0.000301003 	-2.27651e-06 	-7.8689e-06 	0.0864038
0.000301003 	-2.27651e-06 	-7.8689e-06 	0.0864038
0.000351171 	-2.66389e-06 	-1.06054e-05 	0.0973935
0.000401338 	-3.04251e-06 	-1.37551e-05 	0.107529
0.000451505 	-3.41069e-06 	-1.73415e-05 	0.116825
0.000451505 	-3.41069e-06 	-1.73415e-05 	0.116825
0.000501672 	-3.76354e-06 	-2.14006e-05 	0.125306
0.000551839 	-4.09536e-06 	-2.59692e-05 	0.133017
0.000551839 	-4.09536e-06 	-2.59692e-05 	0.133017
0.000602007 	-4.40131e-06 	-3.10771e-05 	0.14002
0.000602007 	-4.40131e-06 	-3.10771e-05 	0.14002
0.000652174 	-4.67834e-06 	-3.67472e-05 	0.146385
0.000652174 	-4.67834e-06 	-3.67472e-05 	0.146385
0.000702341 	-4.92531e-06 	-4.29997e-05 	0.152187
0.000702341 	-4.92531e-06 	-4.29997e-05 	0.152187
0.000752508 	-5.14252e-06 	-4.98522e-05 	0.157493
0.000802676 	-5.33081e-06 	-5.73211e-05 	0.16236
0.000852843 	-5.48757e-06 	-6.55055e-05 	0.166779
0.000852843 	-5.48757e-06 	-6.55055e-05 	0.166779
0.00090301 	-5.61901e-06 	-7.42764e-05 	0.170862
0.00090301 	-5.61901e-06 	-7.42764e-05 	0.170862
0.000953177 	-5.72692e-06 	-8.35831e-05 	0.174647
0.00100334 	-5.81315e-06 	-9.3373e-05 	0.178169
0.00100334 	-5.81315e-06 	-9.3373e-05 	0.178169
0.00105351 	-5.87952e-06 	-0.000103596 	0.18146
0.00105351 	-5.87952e-06 	-0.000103596 	0.18146
0.00110368 	-5.92738e-06 	-0.000114214 	0.184544
0.00115385 	-5.95419e-06 	-0.000125271 	0.1874
0.00120401 	-5.96698e-06 	-0.000136613 	0.190105
0.00120401 	-5.96698e-06 	-0.000136613 	0.190105
0.00130435 	-5.95577e-06 	-0.00016001 	0.195122
0.00130435 	-5.95577e-06 	-0.00016001 	0.195122
0.00135452 	-5.93089e-06 	-0.000172055 	0.197427
0.00135452 	-5.93089e-06 	-0.000172055 	0.197427
0.00140468 	-5.89532e-06 	-0.000184261 	0.199622
0.00145485 	-5.8513e-06 	-0.000196576 	0.201732
0.00145485 	-5.8513e-06 	-0.000196576 	0.201732
0.00150502 	-5.79942e-06 	-0.000208981 	0.203766
0.00150502 	-5.79942e-06 	-0.000208981 	0.203766
0.00155518 	-5.73599e-06 	-0.000221476 	0.205692
0.00155518 	-5.73599e-06 	-0.000221476 	0.205692
0.00160535 	-5.66601e-06 	-0.000233988 	0.207558
0.00160535 	-5.66601e-06 	-0.000233988 	0.207558
0.00165552 	-5.59024e-06 	-0.000246505 	0.209371
0.00165552 	-5.59024e-06 	-0.000246505 	0.209371
0.00170569 	-5.50677e-06 	-0.000258991 	0.211113
0.00170569 	-5.50677e-06 	-0.000258991 	0.211113
0.00175585 	-5.41727e-06 	-0.0002714 	0.2128
0.00175585 	-5.41727e-06 	-0.0002714 	0.2128
0.00180602 	-5.32366e-06 	-0.000283739 	0.214448
0.00180602 	-5.32366e-06 	-0.000283739 	0.214448
0.00185619 	-5.22418e-06 	-0.000295946 	0.216042
0.00185619 	-5.22418e-06 	-0.000295946 	0.216042
0.00190635 	-5.11965e-06 	-0.000307984 	0.217591
0.00190635 	-5.11965e-06 	-0.000307984 	0.217591
0.00195652 	-5.01197e-06 	-0.000319904 	0.219111
0.00195652 	-5.01197e-06 	-0.000319904 	0.219111
0.00200669 	-4.89886e-06 	-0.00033158 	0.220583
0.00200669 	-4.89886e-06 	-0.00033158 	0.220583
0.00205686 	-4.782e-06 	-0.000343041 	0.222023
0.00210702 	-4.66265e-06 	-0.000354359 	0.223441
0.00210702 	-4.66265e-06 	-0.000354359 	0.223441
0.00215719 	-4.5375e-06 	-0.000365272 	0.224809
0.00220736 	-4.41022e-06 	-0.000376008 	0.22616
0.00225753 	-4.27951e-06 	-0.00038646 	0.227481
0.00225753 	-4.27951e-06 	-0.00038646 	0.227481
0.00230769 	-4.14492e-06 	-0.000396542 	0.22877
0.00230769 	-4.14492e-06 	-0.000396542 	0.22877
0.00235786 	-4.00867e-06 	-0.000406462 	0.230045
0.00235786 	-4.00867e-06 	-0.000406462 	0.230045
0.00240803 	-3.86754e-06 	-0.000415858 	0.231279
0.00240803 	-3.86754e-06 	-0.000415858 	0.231279
0.00245819 	-3.72479e-06 	-0.00042506 	0.2325
0.00245819 	-3.72479e-06 	-0.00042506 	0.2325
0.00250836 	-3.57876e-06 	-0.00043387 	0.233693
0.00250836 	-3.57876e-06 	-0.00043387 	0.233693
0.00255853 	-3.42996e-06 	-0.00044232 	0.234863
0.0026087 	-3.27919e-06 	-0.000450513 	0.236016
0.0026087 	-3.27919e-06 	-0.000450513 	0.236016
0.00265886 	-3.12466e-06 	-0.000458186 	0.237137
0.00270903 	-2.96924e-06 	-0.000465736 	0.238251
0.00270903 	-2.96924e-06 	-0.000465736 	0.238251
0.0027592 	-2.80919e-06 	-0.000472618 	0.239325
0.00280936 	-2.64839e-06 	-0.000479392 	0.240394
0.00280936 	-2.64839e-06 	-0.000479392 	0.240394
0.00285953 	-2.48359e-06 	-0.00048559 	0.241429
0.00285953 	-2.48359e-06 	-0.00048559 	0.241429
0.0029097 	-2.3174e-06 	-0.000491592 	0.242454
0.0029097 	-2.3174e-06 	-0.000491592 	0.242454
0.00295987 	-2.14769e-06 	-0.000497101 	0.24345
0.00295987 	-2.14769e-06 	-0.000497101 	0.24345
0.00301003 	-1.97608e-06 	-0.000502357 	0.244433
0.0030602 	-1.80133e-06 	-0.000507193 	0.245391
0.00311037 	-1.62437e-06 	-0.000511749 	0.246332
0.00311037 	-1.62437e-06 	-0.000511749 	0.246332
0.00316054 	-1.44456e-06 	-0.000515942 	0.247252
0.00316054 	-1.44456e-06 	-0.000515942 	0.247252
0.00326087 	-1.07766e-06 	-0.000523453 	0.249035
0.00326087 	-1.07766e-06 	-0.000523453 	0.249035
0.00331104 	-8.90561e-07 	-0.000526802 	0.2499
0.0033612 	-7.00588e-07 	-0.000529848 	0.250742
0.0033612 	-7.00588e-07 	-0.000529848 	0.250742
0.00341137 	-5.08196e-07 	-0.000532699 	0.25157
0.00341137 	-5.08196e-07 	-0.000532699 	0.25157
0.00346154 	-3.12136e-07 	-0.000535254 	0.252374
0.00346154 	-3.12136e-07 	-0.000535254 	0.252374
0.00351171 	-1.13764e-07 	-0.000537675 	0.253167
0.00356187 	8.96912e-08 	-0.000539799 	0.253934
0.00356187 	8.96912e-08 	-0.000539799 	0.253934
0.00361204 	2.94671e-07 	-0.000541851 	0.254695
0.00366221 	5.06143e-07 	-0.000543597 	0.255427
0.00366221 	5.06143e-07 	-0.000543597 	0.255427
0.00371237 	7.17835e-07 	-0.000545333 	0.256158
0.00371237 	7.17835e-07 	-0.000545333 	0.256158
0.00376254 	9.36719e-07 	-0.000546743 	0.256858
0.00376254 	9.36719e-07 	-0.000546743 	0.256858
0.00381271 	1.1556e-06 	-0.000548153 	0.257557
0.00381271 	1.1556e-06 	-0.000548153 	0.257557
0.00386288 	1.37964e-06 	-0.000549314 	0.25823
0.00391304 	1.60472e-06 	-0.000550424 	0.258897
0.00391304 	1.60472e-06 	-0.000550424 	0.258897
0.00396321 	1.83289e-06 	-0.000551376 	0.259545
0.00401338 	2.06319e-06 	-0.00055222 	0.26018
0.00401338 	2.06319e-06 	-0.00055222 	0.26018
0.00406355 	2.29492e-06 	-0.00055299 	0.260805
0.00406355 	2.29492e-06 	-0.00055299 	0.260805
0.00411371 	2.52979e-06 	-0.000553602 	0.261408
0.00411371 	2.52979e-06 	-0.000553602 	0.261408
0.00421405 	3.00349e-06 	-0.000554628 	0.262581
0.00421405 	3.00349e-06 	-0.000554628 	0.262581
0.00426421 	3.24233e-06 	-0.000555042 	0.263152
0.00426421 	3.24233e-06 	-0.000555042 	0.263152
0.00431438 	3.48323e-06 	-0.000555353 	0.263702
0.00431438 	3.48323e-06 	-0.000555353 	0.263702
0.00436455 	3.72533e-06 	-0.000555603 	0.26424
0.00436455 	3.72533e-06 	-0.000555603 	0.26424
0.00441472 	3.96797e-06 	-0.000555824 	0.264771
0.00441472 	3.96797e-06 	-0.000555824 	0.264771
0.00446488 	4.21247e-06 	-0.000555945 	0.265277
0.00446488 	4.21247e-06 	-0.000555945 	0.265277
0.00451505 	4.45697e-06 	-0.000556067 	0.265783
0.00451505 	4.45697e-06 	-0.000556067 	0.265783
0.00456522 	4.70257e-06 	-0.000556114 	0.266264
0.00456522 	4.70257e-06 	-0.000556114 	0.266264
0.00461538 	4.94849e-06 	-0.00055614 	0.266738
0.00461538 	4.94849e-06 	-0.00055614 	0.266738
0.00466555 	5.1945e-06 	-0.000556148 	0.267202
0.00471572 	5.44072e-06 	-0.000556112 	0.267643
0.00476589 	5.68695e-06 	-0.000556076 	0.268084
0.00476589 	5.68695e-06 	-0.000556076 	0.268084
0.00486622 	6.17793e-06 	-0.000555947 	0.26891
0.00486622 	6.17793e-06 	-0.000555947 	0.26891
0.00491639 	6.42296e-06 	-0.000555878 	0.269313
0.00496656 	6.66633e-06 	-0.000555804 	0.26969
0.00496656 	6.66633e-06 	-0.000555804 	0.26969
0.00501672 	6.9097e-06 	-0.00055573 	0.270067
0.00506689 	7.15126e-06 	-0.000555666 	0.270426
0.00511706 	7.39134e-06 	-0.000555609 	0.270771
0.00511706 	7.39134e-06 	-0.000555609 	0.270771
0.00521739 	7.86745e-06 	-0.000555525 	0.271432
0.00521739 	7.86745e-06 	-0.000555525 	0.271432
0.00526756 	8.1029e-06 	-0.000555502 	0.271745
0.00526756 	8.1029e-06 	-0.000555502 	0.271745
0.00531773 	8.33743e-06 	-0.000555486 	0.272053
0.00536789 	8.56691e-06 	-0.00055551 	0.272334
0.00536789 	8.56691e-06 	-0.00055551 	0.272334
0.00541806 	8.79639e-06 	-0.000555533 	0.272616
0.00546823 	9.0231e-06 	-0.000555577 	0.272885
0.00551839 	9.24534e-06 	-0.000555653 	0.273136
0.00551839 	9.24534e-06 	-0.000555653 	0.273136
0.00556856 	9.46758e-06 	-0.000555729 	0.273386
0.00556856 	9.46758e-06 	-0.000555729 	0.273386
0.0056689 	9.89869e-06 	-0.000555965 	0.27384
0.0056689 	9.89869e-06 	-0.000555965 	0.27384
0.00571906 	1.01124e-05 	-0.000556095 	0.27406
0.00576923 	1.03191e-05 	-0.000556257 	0.27426
0.00576923 	1.03191e-05 	-0.000556257 	0.27426
0.0058194 	1.05227e-05 	-0.000556435 	0.27445
0.0058194 	1.05227e-05 	-0.000556435 	0.27445
0.00591973 	1.09207e-05 	-0.000556819 	0.27481
0.00591973 	1.09207e-05 	-0.000556819 	0.27481
0.0059699 	1.11124e-05 	-0.000557033 	0.274972
0.0059699 	1.11124e-05 	-0.000557033 	0.274972
0.00602007 	1.13041e-05 	-0.000557247 	0.275134
0.00607023 	1.14848e-05 	-0.000557478 	0.275274
0.0061204 	1.16627e-05 	-0.000557714 	0.275409
0.0061204 	1.16627e-05 	-0.000557714 	0.275409
0.00617057 	1.18405e-05 	-0.000557949 	0.275543
0.00622074 	1.20063e-05 	-0.000558187 	0.275658
0.00622074 	1.20063e-05 	-0.000558187 	0.275658
0.0062709 	1.21683e-05 	-0.000558426 	0.275766
0.00632107 	1.23303e-05 	-0.000558665 	0.275874
0.00632107 	1.23303e-05 	-0.000558665 	0.275874
0.00637124 	1.24802e-05 	-0.000558894 	0.275964
0.00637124 	1.24802e-05 	-0.000558894 	0.275964
0.0064214 	1.26243e-05 	-0.000559119 	0.276046
0.0064214 	1.26243e-05 	-0.000559119 	0.276046
0.00647157 	1.27685e-05 	-0.000559343 	0.276128
0.00647157 	1.27685e-05 	-0.000559343 	0.276128
0.00652174 	1.29017e-05 	-0.00055954 	0.276197
0.00657191 	1.30257e-05 	-0.000559713 	0.276254
0.00657191 	1.30257e-05 	-0.000559713 	0.276254
0.00662207 	1.31498e-05 	-0.000559886 	0.276311
0.00667224 	1.3266e-05 	-0.00056004 	0.276359
0.00672241 	1.33676e-05 	-0.000560162 	0.276392
0.00672241 	1.33676e-05 	-0.000560162 	0.276392
0.00677258 	1.34692e-05 	-0.000560283 	0.276424
0.00682274 	1.35683e-05 	-0.000560401 	0.276454
0.00682274 	1.35683e-05 	-0.000560401 	0.276454
0.00687291 	1.3645e-05 	-0.000560481 	0.276462
0.00687291 	1.3645e-05 	-0.000560481 	0.276462
0.00692308 	1.37217e-05 	-0.00056056 	0.276471
0.00697324 	1.37984e-05 	-0.00056064 	0.276479
0.00702341 	1.38535e-05 	-0.000560653 	0.276468
0.00707358 	1.39029e-05 	-0.000560649 	0.276453
0.00707358 	1.39029e-05 	-0.000560649 	0.276453
0.00717391 	1.39886e-05 	-0.000560623 	0.276411
0.00717391 	1.39886e-05 	-0.000560623 	0.276411
0.00722408 	1.40066e-05 	-0.00056058 	0.276372
0.00722408 	1.40066e-05 	-0.00056058 	0.276372
0.00727425 	1.40246e-05 	-0.000560538 	0.276332
0.00727425 	1.40246e-05 	-0.000560538 	0.276332
0.00732441 	1.40426e-05 	-0.000560495 	0.276292
0.00732441 	1.40426e-05 	-0.000560495 	0.276292
0.00737458 	1.40249e-05 	-0.000560372 	0.276229
0.00737458 	1.40249e-05 	-0.000560372 	0.276229
0.00742475 	1.4007e-05 	-0.000560249 	0.276166
0.00747492 	1.3989e-05 	-0.000560125 	0.276103
0.00752508 	1.39528e-05 	-0.000559927 	0.276028
0.00752508 	1.39528e-05 	-0.000559927 	0.276028
0.00757525 	1.38985e-05 	-0.000559654 	0.275941
0.00762542 	1.38441e-05 	-0.000559382 	0.275854
0.00767559 	1.37894e-05 	-0.000559108 	0.275766
0.00767559 	1.37894e-05 	-0.000559108 	0.275766
0.00772575 	1.37003e-05 	-0.000558738 	0.275655
0.00777592 	1.36112e-05 	-0.000558367 	0.275544
0.00777592 	1.36112e-05 	-0.000558367 	0.275544
0.00782609 	1.35222e-05 	-0.000557997 	0.275433
0.00787625 	1.3416e-05 	-0.00055754 	0.275309
0.00787625 	1.3416e-05 	-0.00055754 	0.275309
0.00792642 	1.32976e-05 	-0.00055702 	0.275175
0.00797659 	1.31791e-05 	-0.000556499 	0.275041
0.00802676 	1.30557e-05 	-0.00055595 	0.274902
0.00802676 	1.30557e-05 	-0.00055595 	0.274902
0.00807692 	1.29134e-05 	-0.00055529 	0.274745
0.00807692 	1.29134e-05 	-0.00055529 	0.274745
0.00812709 	1.27711e-05 	-0.000554631 	0.274588
0.00817726 	1.26289e-05 	-0.000553972 	0.274431
0.00817726 	1.26289e-05 	-0.000553972 	0.274431
0.00822742 	1.24678e-05 	-0.000553236 	0.274254
0.00827759 	1.23047e-05 	-0.000552491 	0.274075
0.00827759 	1.23047e-05 	-0.000552491 	0.274075
0.00832776 	1.21416e-05 	-0.000551746 	0.273895
0.00832776 	1.21416e-05 	-0.000551746 	0.273895
0.00837793 	1.19668e-05 	-0.000550929 	0.273701
0.00842809 	1.17859e-05 	-0.000550074 	0.2735
0.00842809 	1.17859e-05 	-0.000550074 	0.2735
0.00847826 	1.16049e-05 	-0.00054922 	0.273298
0.00847826 	1.16049e-05 	-0.00054922 	0.273298
0.0085786 	1.12214e-05 	-0.000547354 	0.272862
0.0085786 	1.12214e-05 	-0.000547354 	0.272862
0.00862876 	1.10256e-05 	-0.000546392 	0.272638
0.00867893 	1.08261e-05 	-0.000545397 	0.272406
0.0087291 	1.06183e-05 	-0.00054433 	0.27216
0.00877926 	1.04106e-05 	-0.000543263 	0.271913
0.00882943 	1.02006e-05 	-0.000542171 	0.271662
0.0088796 	9.98347e-06 	-0.000541 	0.271393
0.0088796 	9.98347e-06 	-0.000541 	0.271393
0.00892977 	9.76634e-06 	-0.000539829 	0.271124
0.00892977 	9.76634e-06 	-0.000539829 	0.271124
0.00897993 	9.54776e-06 	-0.000538637 	0.27085
0.00897993 	9.54776e-06 	-0.000538637 	0.27085
0.0090301 	9.32361e-06 	-0.000537363 	0.270559
0.00908027 	9.09946e-06 	-0.000536089 	0.270268
0.00908027 	9.09946e-06 	-0.000536089 	0.270268
0.00913043 	8.87417e-06 	-0.000534791 	0.269971
0.0091806 	8.6451e-06 	-0.000533414 	0.269657
0.0091806 	8.6451e-06 	-0.000533414 	0.269657
0.00923077 	8.41603e-06 	-0.000532037 	0.269343
0.00928094 	8.186e-06 	-0.000530628 	0.269022
0.00928094 	8.186e-06 	-0.000530628 	0.269022
0.0093311 	7.95384e-06 	-0.000529149 	0.268685
0.00938127 	7.72167e-06 	-0.000527669 	0.268349
0.00938127 	7.72167e-06 	-0.000527669 	0.268349
0.00943144 	7.48886e-06 	-0.000526143 	0.268002
0.00943144 	7.48886e-06 	-0.000526143 	0.268002
0.00948161 	7.25521e-06 	-0.000524558 	0.267642
0.00948161 	7.25521e-06 	-0.000524558 	0.267642
0.00953177 	7.02156e-06 	-0.000522974 	0.267282
0.00953177 	7.02156e-06 	-0.000522974 	0.267282
0.00958194 	6.78784e-06 	-0.000521324 	0.266908
0.00958194 	6.78784e-06 	-0.000521324 	0.266908
0.00963211 	6.55408e-06 	-0.000519633 	0.266524
0.00968227 	6.32031e-06 	-0.000517943 	0.266141
0.00968227 	6.32031e-06 	-0.000517943 	0.266141
0.00973244 	6.08746e-06 	-0.00051616 	0.265737
0.00978261 	5.85477e-06 	-0.00051436 	0.26533
0.00978261 	5.85477e-06 	-0.00051436 	0.26533
0.00983278 	5.62234e-06 	-0.000512546 	0.26492
0.00983278 	5.62234e-06 	-0.000512546 	0.26492
0.00988294 	5.39174e-06 	-0.000510634 	0.264488
0.00993311 	5.16114e-06 	-0.000508722 	0.264057
0.00993311 	5.16114e-06 	-0.000508722 	0.264057
0.00998328 	4.93188e-06 	-0.000506756 	0.263614
0.0100334 	4.70427e-06 	-0.000504727 	0.263158
0.0100836 	4.47665e-06 	-0.000502698 	0.262701
0.0100836 	4.47665e-06 	-0.000502698 	0.262701
0.0101338 	4.25215e-06 	-0.000500567 	0.262224
0.0101839 	4.02831e-06 	-0.000498415 	0.261742
0.0101839 	4.02831e-06 	-0.000498415 	0.261742
0.0102341 	3.80555e-06 	-0.000496232 	0.261254
0.0102341 	3.80555e-06 	-0.000496232 	0.261254
0.0102843 	3.58616e-06 	-0.000493952 	0.260746
0.0103344 	3.36678e-06 	-0.000491671 	0.260239
0.0103344 	3.36678e-06 	-0.000491671 	0.260239
0.0103846 	3.15098e-06 	-0.000489295 	0.259712
0.0103846 	3.15098e-06 	-0.000489295 	0.259712
0.0104348 	2.93666e-06 	-0.000486878 	0.259177
0.0104348 	2.93666e-06 	-0.000486878 	0.259177
0.0104849 	2.72355e-06 	-0.000484431 	0.258636
0.0104849 	2.72355e-06 	-0.000484431 	0.258636
0.0105351 	2.5148e-06 	-0.000481871 	0.258074
0.0105853 	2.30606e-06 	-0.000479312 	0.257512
0.0105853 	2.30606e-06 	-0.000479312 	0.257512
0.0106856 	1.89927e-06 	-0.000473923 	0.256337
0.0106856 	1.89927e-06 	-0.000473923 	0.256337
0.0107358 	1.69893e-06 	-0.000471153 	0.255735
0.010786 	1.50266e-06 	-0.000468281 	0.255115
0.010786 	1.50266e-06 	-0.000468281 	0.255115
0.0108361 	1.30644e-06 	-0.000465407 	0.254494
0.0108863 	1.11693e-06 	-0.000462365 	0.253843
0.0108863 	1.11693e-06 	-0.000462365 	0.253843
0.0109365 	9.27415e-07 	-0.000459323 	0.253192
0.0109365 	9.27415e-07 	-0.000459323 	0.253192
0.0109866 	7.42746e-07 	-0.000456159 	0.252519
0.0110368 	5.60285e-07 	-0.000452938 	0.251835
0.0110368 	5.60285e-07 	-0.000452938 	0.251835
0.011087 	3.8081e-07 	-0.000449642 	0.251139
0.011087 	3.8081e-07 	-0.000449642 	0.251139
0.0111371 	2.05668e-07 	-0.000446233 	0.250422
0.0111873 	3.18184e-08 	-0.000442791 	0.2497
0.0111873 	3.18184e-08 	-0.000442791 	0.2497
0.0112375 	-1.35694e-07 	-0.000439182 	0.248949
0.0112876 	-3.03206e-07 	-0.000435572 	0.248197
0.0112876 	-3.03206e-07 	-0.000435572 	0.248197
0.0113378 	-4.6298e-07 	-0.000431753 	0.247411
0.0113378 	-4.6298e-07 	-0.000431753 	0.247411
0.011388 	-6.22516e-07 	-0.000427928 	0.246623
0.0114381 	-7.75344e-07 	-0.000423907 	0.245803
0.0114381 	-7.75344e-07 	-0.000423907 	0.245803
0.0114883 	-9.26597e-07 	-0.00041984 	0.244976
0.0115385 	-1.07184e-06 	-0.000415582 	0.24412
0.0115385 	-1.07184e-06 	-0.000415582 	0.24412
0.0115886 	-1.21435e-06 	-0.000411236 	0.24325
0.0116388 	-1.3512e-06 	-0.000406693 	0.242352
0.0116388 	-1.3512e-06 	-0.000406693 	0.242352
0.011689 	-1.48433e-06 	-0.000402022 	0.241434
0.0117391 	-1.61206e-06 	-0.00039714 	0.240488
0.0117893 	-1.73547e-06 	-0.000392091 	0.239519
0.0118395 	-1.85374e-06 	-0.00038681 	0.238519
0.0118395 	-1.85374e-06 	-0.00038681 	0.238519
0.0118896 	-1.96769e-06 	-0.000381334 	0.237492
0.0119398 	-2.07665e-06 	-0.0003756 	0.236431
0.0119398 	-2.07665e-06 	-0.0003756 	0.236431
0.01199 	-2.18176e-06 	-0.000369667 	0.235342
0.0120401 	-2.2817e-06 	-0.000363438 	0.234211
0.0120401 	-2.2817e-06 	-0.000363438 	0.234211
0.0120903 	-2.37851e-06 	-0.000357031 	0.233055
0.0120903 	-2.37851e-06 	-0.000357031 	0.233055
0.0121906 	-2.55832e-06 	-0.000343393 	0.23062
0.0121906 	-2.55832e-06 	-0.000343393 	0.23062
0.0122408 	-2.64035e-06 	-0.0003361 	0.229328
0.012291 	-2.72112e-06 	-0.00032873 	0.228024
0.012291 	-2.72112e-06 	-0.00032873 	0.228024
0.0123411 	-2.79398e-06 	-0.00032088 	0.226638
0.0123913 	-2.86534e-06 	-0.000312938 	0.225236
0.0123913 	-2.86534e-06 	-0.000312938 	0.225236
0.0124415 	-2.9304e-06 	-0.000304613 	0.223765
0.0124415 	-2.9304e-06 	-0.000304613 	0.223765
0.0124916 	-2.99227e-06 	-0.000296098 	0.222256
0.0124916 	-2.99227e-06 	-0.000296098 	0.222256
0.0125418 	-3.04967e-06 	-0.000287314 	0.220693
0.012592 	-3.10207e-06 	-0.000278239 	0.219066
0.0126421 	-3.15201e-06 	-0.00026902 	0.217407
0.0126421 	-3.15201e-06 	-0.00026902 	0.217407
0.0126923 	-3.195e-06 	-0.000259421 	0.215651
0.0127425 	-3.23575e-06 	-0.000249707 	0.213862
0.0127425 	-3.23575e-06 	-0.000249707 	0.213862
0.0127926 	-3.27133e-06 	-0.000239738 	0.211995
0.0128428 	-3.30265e-06 	-0.000229588 	0.210059
0.0128428 	-3.30265e-06 	-0.000229588 	0.210059
0.0129431 	-3.35328e-06 	-0.000208845 	0.205987
0.0129431 	-3.35328e-06 	-0.000208845 	0.205987
0.0129933 	-3.37257e-06 	-0.000198306 	0.203843
0.0130435 	-3.38782e-06 	-0.000187679 	0.201625
0.0130435 	-3.38782e-06 	-0.000187679 	0.201625
0.0131438 	-3.40457e-06 	-0.00016633 	0.196915
0.0131438 	-3.40457e-06 	-0.00016633 	0.196915
0.013194 	-3.40681e-06 	-0.000155676 	0.194432
0.0132441 	-3.40414e-06 	-0.000145114 	0.191839
0.0132441 	-3.40414e-06 	-0.000145114 	0.191839
0.0132943 	-3.39819e-06 	-0.000134638 	0.18917
0.0133445 	-3.38767e-06 	-0.000124309 	0.186392
0.0133445 	-3.38767e-06 	-0.000124309 	0.186392
0.0133946 	-3.37194e-06 	-0.000114217 	0.183483
0.0133946 	-3.37194e-06 	-0.000114217 	0.183483
0.0134448 	-3.35261e-06 	-0.000104316 	0.180479
0.0134448 	-3.35261e-06 	-0.000104316 	0.180479
0.013495 	-3.32935e-06 	-9.46405e-05 	0.177369
0.0135452 	-3.29965e-06 	-8.53869e-05 	0.174082
0.0135452 	-3.29965e-06 	-8.53869e-05 	0.174082
0.0135953 	-3.26566e-06 	-7.64375e-05 	0.170675
0.0135953 	-3.26566e-06 	-7.64375e-05 	0.170675
0.0136455 	-3.22713e-06 	-6.78193e-05 	0.167138
0.0136455 	-3.22713e-06 	-6.78193e-05 	0.167138
0.0136957 	-3.18295e-06 	-5.96293e-05 	0.163435
0.0136957 	-3.18295e-06 	-5.96293e-05 	0.163435
0.0137458 	-3.13217e-06 	-5.1978e-05 	0.159524
0.013796 	-3.07646e-06 	-4.4769e-05 	0.15544
0.013796 	-3.07646e-06 	-4.4769e-05 	0.15544
0.0138462 	-3.0157e-06 	-3.80327e-05 	0.15117
0.0138462 	-3.0157e-06 	-3.80327e-05 	0.15117
0.0138963 	-2.94982e-06 	-3.17999e-05 	0.146698
0.0139465 	-2.877e-06 	-2.62605e-05 	0.141937
0.0139465 	-2.877e-06 	-2.62605e-05 	0.141937
0.0139967 	-2.79861e-06 	-2.12739e-05 	0.136929
0.0139967 	-2.79861e-06 	-2.12739e-05 	0.136929
0.0140468 	-2.71457e-06 	-1.68397e-05 	0.131659
0.0140468 	-2.71457e-06 	-1.68397e-05 	0.131659
0.014097 	-2.62449e-06 	-1.2967e-05 	0.126108
0.0141472 	-2.52767e-06 	-9.65627e-06 	0.12025
0.0141472 	-2.52767e-06 	-9.65627e-06 	0.12025
0.0141973 	-2.42294e-06 	-6.89433e-06 	0.114061
0.0142475 	-2.30762e-06 	-4.72513e-06 	0.107441
0.0142977 	-2.18349e-06 	-3.01837e-06 	0.100404
0.0142977 	-2.18349e-06 	-3.01837e-06 	0.100404
0.0143478 	-2.05291e-06 	-1.72994e-06 	0.0929401
0.014398 	-1.91912e-06 	-8.19932e-07 	0.0850668
0.014398 	-1.91912e-06 	-8.19932e-07 	0.0850668
0.0144482 	-1.78549e-06 	-2.37373e-07 	0.0768417
0.0144983 	-1.65496e-06 	8.08189e-08 	0.0683694
0.0144983 	-1.65496e-06 	8.08189e-08 	0.0683694
0.0145485 	-1.52968e-06 	2.05415e-07 	0.0598007
0.0145485 	-1.52968e-06 	2.05415e-07 	0.0598007
0.0145987 	-1.41011e-06 	2.08146e-07 	0.0513175
0.0146488 	-1.294e-06 	1.52954e-07 	0.0431032
0.014699 	-1.17556e-06 	8.77886e-08 	0.0353081
0.014699 	-1.17556e-06 	8.77886e-08 	0.0353081
0.0147492 	-1.04407e-06 	4.08965e-08 	0.0280291
0.0147993 	-8.79453e-07 	2.10305e-08 	0.0213117
0.0147993 	-8.79453e-07 	2.10305e-08 	0.0213117
0.0148495 	-6.39827e-07 	2.56941e-08 	0.0151663
0.0148495 	-6.39827e-07 	2.56941e-08 	0.0151663
0.0148997 	-3.02577e-07 	3.05282e-08 	0.00958404
0.0148997 	-3.02577e-07 	3.05282e-08 	0.00958404
0.0149498 	-3.63219e-09 	2.41989e-08 	0.00454388
0.0149498 	-3.63219e-09 	2.41989e-08 	0.00454388
0.015 	0 	0 	0
0.015 	0 	0 	0
