-0.0075 	373
-0.00715932 	351.386
-0.00676191 	347.47
-0.00629832 	346.072
-0.00575752 	345.308
-0.00512667 	344.772
-0.00439077 	344.354
-0.00353231 	344.011
-0.00253089 	343.72
-0.00136271 	343.458
0 	343.215
0.00136271 	342.988
0.00253089 	342.776
0.00353231 	342.563
0.00439077 	342.33
0.00512667 	342.044
0.00575752 	341.646
0.00629832 	340.989
0.00676191 	339.385
0.00715932 	331.102
0.0075 	313
