0 	0 	0 	0
5.01672e-05 	-4.10858e-06 	-3.28522e-06 	0.0196194
0.000100334 	-8.21715e-06 	-6.57043e-06 	0.0392388
0.000150502 	-1.23257e-05 	-9.85565e-06 	0.0588582
0.000200669 	-1.64343e-05 	-1.31409e-05 	0.0784776
0.000250836 	-2.05429e-05 	-1.64261e-05 	0.098097
0.000301003 	-2.46515e-05 	-1.97113e-05 	0.117716
0.000351171 	-2.90716e-05 	-2.38098e-05 	0.135268
0.000401338 	-3.46702e-05 	-3.09839e-05 	0.144998
0.000451505 	-4.02688e-05 	-3.8158e-05 	0.154729
0.000501672 	-4.58673e-05 	-4.53321e-05 	0.164459
0.000551839 	-5.14659e-05 	-5.25062e-05 	0.17419
0.000602007 	-5.70644e-05 	-5.96803e-05 	0.18392
0.000652174 	-6.2663e-05 	-6.68544e-05 	0.193651
0.000702341 	-6.82615e-05 	-7.40285e-05 	0.203381
0.000752508 	-7.30522e-05 	-8.13832e-05 	0.211826
0.000802676 	-7.58397e-05 	-8.91859e-05 	0.217082
0.000852843 	-7.86271e-05 	-9.69886e-05 	0.222338
0.00090301 	-8.14146e-05 	-0.000104791 	0.227594
0.000953177 	-8.42021e-05 	-0.000112594 	0.23285
0.00100334 	-8.69896e-05 	-0.000120397 	0.238106
0.00105351 	-8.9777e-05 	-0.000128199 	0.243363
0.00110368 	-9.25645e-05 	-0.000136002 	0.248619
0.00115385 	-9.5352e-05 	-0.000143805 	0.253875
0.00120401 	-9.80202e-05 	-0.000151536 	0.259029
0.00125418 	-9.82408e-05 	-0.000157806 	0.262083
0.00130435 	-9.84614e-05 	-0.000164075 	0.265138
0.00135452 	-9.8682e-05 	-0.000170344 	0.268192
0.00140468 	-9.89026e-05 	-0.000176614 	0.271246
0.00145485 	-9.91233e-05 	-0.000182883 	0.274301
0.00150502 	-9.93439e-05 	-0.000189152 	0.277355
0.00155518 	-9.95645e-05 	-0.000195422 	0.280409
0.00160535 	-9.97851e-05 	-0.000201691 	0.283464
0.00165552 	-0.000100006 	-0.00020796 	0.286518
0.00170569 	-0.000100226 	-0.000214229 	0.289573
0.00175585 	-0.000100163 	-0.000219982 	0.292339
0.00180602 	-9.93182e-05 	-0.000224314 	0.294315
0.00185619 	-9.84735e-05 	-0.000228646 	0.296291
0.00190635 	-9.76288e-05 	-0.000232977 	0.298266
0.00195652 	-9.67841e-05 	-0.000237309 	0.300242
0.00200669 	-9.59394e-05 	-0.000241641 	0.302218
0.00205686 	-9.50947e-05 	-0.000245972 	0.304194
0.00210702 	-9.425e-05 	-0.000250304 	0.306169
0.00215719 	-9.34053e-05 	-0.000254636 	0.308145
0.00220736 	-9.25606e-05 	-0.000258968 	0.310121
0.00225753 	-9.17159e-05 	-0.000263299 	0.312096
0.00230769 	-9.08712e-05 	-0.000267631 	0.314072
0.00235786 	-9.00265e-05 	-0.000271963 	0.316048
0.00240803 	-8.90962e-05 	-0.000274949 	0.31758
0.00245819 	-8.81277e-05 	-0.000277335 	0.318915
0.00250836 	-8.71592e-05 	-0.000279721 	0.32025
0.00255853 	-8.61907e-05 	-0.000282107 	0.321585
0.0026087 	-8.52222e-05 	-0.000284493 	0.32292
0.00265886 	-8.42537e-05 	-0.000286879 	0.324254
0.00270903 	-8.32852e-05 	-0.000289265 	0.325589
0.0027592 	-8.23167e-05 	-0.000291651 	0.326924
0.00280936 	-8.13483e-05 	-0.000294037 	0.328259
0.00285953 	-8.03798e-05 	-0.000296423 	0.329594
0.0029097 	-7.94113e-05 	-0.000298809 	0.330929
0.00295987 	-7.84428e-05 	-0.000301195 	0.332264
0.00301003 	-7.74743e-05 	-0.000303581 	0.333598
0.0030602 	-7.65058e-05 	-0.000305967 	0.334933
0.00311037 	-7.5543e-05 	-0.000308324 	0.336258
0.00316054 	-7.48265e-05 	-0.000309436 	0.337149
0.0032107 	-7.41101e-05 	-0.000310548 	0.338041
0.00326087 	-7.33937e-05 	-0.00031166 	0.338932
0.00331104 	-7.26772e-05 	-0.000312773 	0.339823
0.0033612 	-7.19608e-05 	-0.000313885 	0.340715
0.00341137 	-7.12443e-05 	-0.000314997 	0.341606
0.00346154 	-7.05279e-05 	-0.000316109 	0.342497
0.00351171 	-6.98115e-05 	-0.000317221 	0.343389
0.00356187 	-6.9095e-05 	-0.000318334 	0.34428
0.00361204 	-6.83786e-05 	-0.000319446 	0.345171
0.00366221 	-6.76621e-05 	-0.000320558 	0.346063
0.00371237 	-6.69457e-05 	-0.00032167 	0.346954
0.00376254 	-6.62293e-05 	-0.000322782 	0.347845
0.00381271 	-6.55128e-05 	-0.000323895 	0.348737
0.00386288 	-6.47964e-05 	-0.000325007 	0.349628
0.00391304 	-6.40799e-05 	-0.000326119 	0.350519
0.00396321 	-6.33635e-05 	-0.000327231 	0.351411
0.00401338 	-6.28916e-05 	-0.000327747 	0.351998
0.00406355 	-6.24438e-05 	-0.000328205 	0.352556
0.00411371 	-6.19959e-05 	-0.000328663 	0.353114
0.00416388 	-6.1548e-05 	-0.000329121 	0.353673
0.00421405 	-6.11001e-05 	-0.000329579 	0.354231
0.00426421 	-6.06522e-05 	-0.000330037 	0.354789
0.00431438 	-6.02044e-05 	-0.000330495 	0.355347
0.00436455 	-5.97565e-05 	-0.000330953 	0.355905
0.00441472 	-5.93086e-05 	-0.000331411 	0.356463
0.00446488 	-5.88607e-05 	-0.000331869 	0.357021
0.00451505 	-5.84128e-05 	-0.000332327 	0.357579
0.00456522 	-5.7965e-05 	-0.000332785 	0.358137
0.00461538 	-5.75171e-05 	-0.000333243 	0.358695
0.00466555 	-5.70692e-05 	-0.0003337 	0.359253
0.00471572 	-5.66213e-05 	-0.000334158 	0.359811
0.00476589 	-5.61734e-05 	-0.000334616 	0.360369
0.00481605 	-5.57256e-05 	-0.000335074 	0.360927
0.00486622 	-5.52777e-05 	-0.000335532 	0.361485
0.00491639 	-5.48298e-05 	-0.00033599 	0.362043
0.00496656 	-5.43819e-05 	-0.000336448 	0.362601
0.00501672 	-5.40824e-05 	-0.000336506 	0.362906
0.00506689 	-5.37909e-05 	-0.000336543 	0.363198
0.00511706 	-5.34994e-05 	-0.00033658 	0.36349
0.00516722 	-5.32078e-05 	-0.000336617 	0.363782
0.00521739 	-5.29163e-05 	-0.000336654 	0.364073
0.00526756 	-5.26247e-05 	-0.000336691 	0.364365
0.00531773 	-5.23332e-05 	-0.000336728 	0.364657
0.00536789 	-5.20416e-05 	-0.000336765 	0.364949
0.00541806 	-5.17501e-05 	-0.000336802 	0.36524
0.00546823 	-5.14586e-05 	-0.000336839 	0.365532
0.00551839 	-5.1167e-05 	-0.000336876 	0.365824
0.00556856 	-5.08755e-05 	-0.000336913 	0.366116
0.00561873 	-5.05839e-05 	-0.00033695 	0.366407
0.0056689 	-5.02924e-05 	-0.000336987 	0.366699
0.00571906 	-5.00008e-05 	-0.000337024 	0.366991
0.00576923 	-4.97093e-05 	-0.000337061 	0.367283
0.0058194 	-4.94178e-05 	-0.000337098 	0.367574
0.00586957 	-4.91262e-05 	-0.000337135 	0.367866
0.00591973 	-4.88347e-05 	-0.000337172 	0.368158
0.0059699 	-4.85431e-05 	-0.000337209 	0.36845
0.00602007 	-4.82516e-05 	-0.000337246 	0.368741
0.00607023 	-4.796e-05 	-0.000337283 	0.369033
0.0061204 	-4.76685e-05 	-0.00033732 	0.369325
0.00617057 	-4.7429e-05 	-0.000337108 	0.369462
0.00622074 	-4.7216e-05 	-0.00033677 	0.369521
0.0062709 	-4.70029e-05 	-0.000336432 	0.369579
0.00632107 	-4.67899e-05 	-0.000336094 	0.369638
0.00637124 	-4.65768e-05 	-0.000335756 	0.369696
0.0064214 	-4.63638e-05 	-0.000335418 	0.369755
0.00647157 	-4.61508e-05 	-0.00033508 	0.369814
0.00652174 	-4.59377e-05 	-0.000334742 	0.369872
0.00657191 	-4.57247e-05 	-0.000334404 	0.369931
0.00662207 	-4.55116e-05 	-0.000334066 	0.369989
0.00667224 	-4.52986e-05 	-0.000333728 	0.370048
0.00672241 	-4.50855e-05 	-0.00033339 	0.370107
0.00677258 	-4.48725e-05 	-0.000333052 	0.370165
0.00682274 	-4.46594e-05 	-0.000332714 	0.370224
0.00687291 	-4.44464e-05 	-0.000332376 	0.370282
0.00692308 	-4.42333e-05 	-0.000332038 	0.370341
0.00697324 	-4.40203e-05 	-0.0003317 	0.3704
0.00702341 	-4.38072e-05 	-0.000331362 	0.370458
0.00707358 	-4.35942e-05 	-0.000331024 	0.370517
0.00712375 	-4.33811e-05 	-0.000330686 	0.370575
0.00717391 	-4.31681e-05 	-0.000330348 	0.370634
0.00722408 	-4.2955e-05 	-0.00033001 	0.370693
0.00727425 	-4.2742e-05 	-0.000329672 	0.370751
0.00732441 	-4.25289e-05 	-0.000329334 	0.37081
0.00737458 	-4.23159e-05 	-0.000328996 	0.370868
0.00742475 	-4.21028e-05 	-0.000328658 	0.370927
0.00747492 	-4.18898e-05 	-0.00032832 	0.370986
0.00752508 	-4.17024e-05 	-0.000327809 	0.370936
0.00757525 	-4.15406e-05 	-0.000327125 	0.370779
0.00762542 	-4.13789e-05 	-0.000326441 	0.370622
0.00767559 	-4.12171e-05 	-0.000325757 	0.370465
0.00772575 	-4.10554e-05 	-0.000325073 	0.370308
0.00777592 	-4.08936e-05 	-0.000324389 	0.370151
0.00782609 	-4.07318e-05 	-0.000323705 	0.369993
0.00787625 	-4.05701e-05 	-0.000323021 	0.369836
0.00792642 	-4.04083e-05 	-0.000322337 	0.369679
0.00797659 	-4.02466e-05 	-0.000321653 	0.369522
0.00802676 	-4.00848e-05 	-0.000320969 	0.369365
0.00807692 	-3.9923e-05 	-0.000320285 	0.369208
0.00812709 	-3.97613e-05 	-0.0003196 	0.369051
0.00817726 	-3.95995e-05 	-0.000318916 	0.368893
0.00822742 	-3.94377e-05 	-0.000318232 	0.368736
0.00827759 	-3.9276e-05 	-0.000317548 	0.368579
0.00832776 	-3.91142e-05 	-0.000316864 	0.368422
0.00837793 	-3.89525e-05 	-0.00031618 	0.368265
0.00842809 	-3.87907e-05 	-0.000315496 	0.368108
0.00847826 	-3.86289e-05 	-0.000314812 	0.36795
0.00852843 	-3.84672e-05 	-0.000314128 	0.367793
0.0085786 	-3.83054e-05 	-0.000313444 	0.367636
0.00862876 	-3.81437e-05 	-0.00031276 	0.367479
0.00867893 	-3.79819e-05 	-0.000312076 	0.367322
0.0087291 	-3.78201e-05 	-0.000311392 	0.367165
0.00877926 	-3.76584e-05 	-0.000310708 	0.367008
0.00882943 	-3.74966e-05 	-0.000310023 	0.36685
0.0088796 	-3.73644e-05 	-0.000309218 	0.366609
0.00892977 	-3.72902e-05 	-0.000308174 	0.366202
0.00897993 	-3.72161e-05 	-0.00030713 	0.365794
0.0090301 	-3.7142e-05 	-0.000306086 	0.365387
0.00908027 	-3.70679e-05 	-0.000305042 	0.36498
0.00913043 	-3.69938e-05 	-0.000303998 	0.364572
0.0091806 	-3.69196e-05 	-0.000302954 	0.364165
0.00923077 	-3.68455e-05 	-0.00030191 	0.363757
0.00928094 	-3.67714e-05 	-0.000300866 	0.36335
0.0093311 	-3.66973e-05 	-0.000299822 	0.362943
0.00938127 	-3.66232e-05 	-0.000298778 	0.362535
0.00943144 	-3.65491e-05 	-0.000297734 	0.362128
0.00948161 	-3.64749e-05 	-0.00029669 	0.361721
0.00953177 	-3.64008e-05 	-0.000295646 	0.361313
0.00958194 	-3.63267e-05 	-0.000294602 	0.360906
0.00963211 	-3.62526e-05 	-0.000293558 	0.360498
0.00968227 	-3.61785e-05 	-0.000292514 	0.360091
0.00973244 	-3.61043e-05 	-0.000291471 	0.359684
0.00978261 	-3.60302e-05 	-0.000290427 	0.359276
0.00983278 	-3.59561e-05 	-0.000289383 	0.358869
0.00988294 	-3.5882e-05 	-0.000288339 	0.358462
0.00993311 	-3.58079e-05 	-0.000287295 	0.358054
0.00998328 	-3.57337e-05 	-0.000286251 	0.357647
0.0100334 	-3.5669e-05 	-0.000285185 	0.357225
0.0100836 	-3.57802e-05 	-0.00028371 	0.356534
0.0101338 	-3.58913e-05 	-0.000282235 	0.355843
0.0101839 	-3.60025e-05 	-0.00028076 	0.355152
0.0102341 	-3.61136e-05 	-0.000279285 	0.354461
0.0102843 	-3.62248e-05 	-0.00027781 	0.35377
0.0103344 	-3.63359e-05 	-0.000276335 	0.353079
0.0103846 	-3.64471e-05 	-0.000274859 	0.352388
0.0104348 	-3.65582e-05 	-0.000273384 	0.351697
0.0104849 	-3.66693e-05 	-0.000271909 	0.351006
0.0105351 	-3.67805e-05 	-0.000270434 	0.350315
0.0105853 	-3.68916e-05 	-0.000268959 	0.349624
0.0106355 	-3.70028e-05 	-0.000267484 	0.348933
0.0106856 	-3.71139e-05 	-0.000266009 	0.348242
0.0107358 	-3.72251e-05 	-0.000264534 	0.347551
0.010786 	-3.73362e-05 	-0.000263059 	0.34686
0.0108361 	-3.74474e-05 	-0.000261584 	0.346169
0.0108863 	-3.75585e-05 	-0.000260109 	0.345478
0.0109365 	-3.76696e-05 	-0.000258634 	0.344787
0.0109866 	-3.77808e-05 	-0.000257159 	0.344096
0.0110368 	-3.79187e-05 	-0.000255608 	0.343371
0.011087 	-3.83301e-05 	-0.000253281 	0.342309
0.0111371 	-3.87415e-05 	-0.000250954 	0.341246
0.0111873 	-3.91528e-05 	-0.000248628 	0.340183
0.0112375 	-3.95642e-05 	-0.000246301 	0.33912
0.0112876 	-3.99755e-05 	-0.000243974 	0.338057
0.0113378 	-4.03869e-05 	-0.000241648 	0.336995
0.011388 	-4.07982e-05 	-0.000239321 	0.335932
0.0114381 	-4.12096e-05 	-0.000236994 	0.334869
0.0114883 	-4.16209e-05 	-0.000234667 	0.333806
0.0115385 	-4.20323e-05 	-0.000232341 	0.332744
0.0115886 	-4.24436e-05 	-0.000230014 	0.331681
0.0116388 	-4.2855e-05 	-0.000227687 	0.330618
0.011689 	-4.32663e-05 	-0.00022536 	0.329555
0.0117391 	-4.36777e-05 	-0.000223034 	0.328492
0.0117893 	-4.4089e-05 	-0.000220707 	0.32743
0.0118395 	-4.45004e-05 	-0.00021838 	0.326367
0.0118896 	-4.49117e-05 	-0.000216053 	0.325304
0.0119398 	-4.5659e-05 	-0.00021233 	0.323693
0.01199 	-4.6414e-05 	-0.000208574 	0.322069
0.0120401 	-4.7169e-05 	-0.000204818 	0.320445
0.0120903 	-4.7924e-05 	-0.000201062 	0.318821
0.0121405 	-4.8679e-05 	-0.000197307 	0.317197
0.0121906 	-4.94341e-05 	-0.000193551 	0.315572
0.0122408 	-5.01891e-05 	-0.000189795 	0.313948
0.012291 	-5.09441e-05 	-0.000186039 	0.312324
0.0123411 	-5.16991e-05 	-0.000182283 	0.3107
0.0123913 	-5.24541e-05 	-0.000178527 	0.309076
0.0124415 	-5.32091e-05 	-0.000174772 	0.307452
0.0124916 	-5.39642e-05 	-0.000171016 	0.305828
0.0125418 	-5.47192e-05 	-0.00016726 	0.304204
0.012592 	-5.54742e-05 	-0.000163504 	0.30258
0.0126421 	-5.62598e-05 	-0.000159255 	0.300669
0.0126923 	-5.7114e-05 	-0.000153899 	0.298116
0.0127425 	-5.79681e-05 	-0.000148543 	0.295562
0.0127926 	-5.88223e-05 	-0.000143187 	0.293008
0.0128428 	-5.96765e-05 	-0.000137831 	0.290454
0.012893 	-6.05306e-05 	-0.000132475 	0.2879
0.0129431 	-6.13848e-05 	-0.000127119 	0.285347
0.0129933 	-6.2239e-05 	-0.000121763 	0.282793
0.0130435 	-6.30931e-05 	-0.000116407 	0.280239
0.0130936 	-6.39473e-05 	-0.000111051 	0.277685
0.0131438 	-6.48015e-05 	-0.000105695 	0.275132
0.013194 	-6.56556e-05 	-0.000100339 	0.272578
0.0132441 	-6.65098e-05 	-9.49828e-05 	0.270024
0.0132943 	-6.68255e-05 	-8.93208e-05 	0.266248
0.0133445 	-6.69454e-05 	-8.35475e-05 	0.262029
0.0133946 	-6.70653e-05 	-7.77742e-05 	0.257809
0.0134448 	-6.71852e-05 	-7.20009e-05 	0.253589
0.013495 	-6.73051e-05 	-6.62276e-05 	0.249369
0.0135452 	-6.7425e-05 	-6.04543e-05 	0.245149
0.0135953 	-6.75449e-05 	-5.46811e-05 	0.24093
0.0136455 	-6.76648e-05 	-4.89078e-05 	0.23671
0.0136957 	-6.77846e-05 	-4.31345e-05 	0.23249
0.0137458 	-6.79045e-05 	-3.73612e-05 	0.22827
0.013796 	-6.80244e-05 	-3.15879e-05 	0.224051
0.0138462 	-6.60705e-05 	-2.75465e-05 	0.216773
0.0138963 	-6.40154e-05 	-2.35894e-05 	0.209346
0.0139465 	-6.19604e-05 	-1.96323e-05 	0.201919
0.0139967 	-5.99054e-05 	-1.56752e-05 	0.194492
0.0140468 	-5.78504e-05 	-1.17182e-05 	0.187065
0.014097 	-5.57954e-05 	-7.7611e-06 	0.179638
0.0141472 	-5.37404e-05 	-3.80402e-06 	0.172211
0.0141973 	-5.16853e-05 	1.53054e-07 	0.164784
0.0142475 	-4.96303e-05 	4.11013e-06 	0.157357
0.0142977 	-4.6344e-05 	5.50005e-06 	0.147546
0.0143478 	-4.25612e-05 	5.85461e-06 	0.136773
0.014398 	-3.87783e-05 	6.20916e-06 	0.126001
0.0144482 	-3.49955e-05 	6.56372e-06 	0.115228
0.0144983 	-3.12126e-05 	6.91828e-06 	0.104456
0.0145485 	-2.74297e-05 	7.27284e-06 	0.0936838
0.0145987 	-2.36469e-05 	7.6274e-06 	0.0829114
0.0146488 	-1.9864e-05 	7.98196e-06 	0.072139
0.014699 	-1.68517e-05 	7.1179e-06 	0.0617472
0.0147492 	-1.4043e-05 	5.93158e-06 	0.051456
0.0147993 	-1.12344e-05 	4.74527e-06 	0.0411648
0.0148495 	-8.42583e-06 	3.55895e-06 	0.0308736
0.0148997 	-5.61722e-06 	2.37263e-06 	0.0205824
0.0149498 	-2.80861e-06 	1.18632e-06 	0.0102912
0.015 	0 	0 	0
