0 	373
5.01672e-05 	369.817
0.000100334 	366.634
0.000150502 	363.452
0.000200669 	360.269
0.000250836 	357.086
0.000301003 	353.903
0.000351171 	351.283
0.000401338 	350.788
0.000451505 	350.294
0.000501672 	349.8
0.000551839 	349.305
0.000602007 	348.811
0.000652174 	348.316
0.000702341 	347.822
0.000752508 	347.426
0.000802676 	347.275
0.000852843 	347.124
0.00090301 	346.972
0.000953177 	346.821
0.00100334 	346.67
0.00105351 	346.518
0.00110368 	346.367
0.00115385 	346.216
0.00120401 	346.068
0.00125418 	345.998
0.00130435 	345.927
0.00135452 	345.856
0.00140468 	345.785
0.00145485 	345.714
0.00150502 	345.643
0.00155518 	345.572
0.00160535 	345.502
0.00165552 	345.431
0.00170569 	345.36
0.00175585 	345.297
0.00180602 	345.254
0.00185619 	345.211
0.00190635 	345.169
0.00195652 	345.126
0.00200669 	345.083
0.00205686 	345.041
0.00210702 	344.998
0.00215719 	344.956
0.00220736 	344.913
0.00225753 	344.87
0.00230769 	344.828
0.00235786 	344.785
0.00240803 	344.752
0.00245819 	344.724
0.00250836 	344.695
0.00255853 	344.667
0.0026087 	344.638
0.00265886 	344.61
0.00270903 	344.581
0.0027592 	344.553
0.00280936 	344.524
0.00285953 	344.496
0.0029097 	344.467
0.00295987 	344.438
0.00301003 	344.41
0.0030602 	344.381
0.00311037 	344.353
0.00316054 	344.333
0.0032107 	344.313
0.00326087 	344.293
0.00331104 	344.273
0.0033612 	344.253
0.00341137 	344.233
0.00346154 	344.213
0.00351171 	344.193
0.00356187 	344.173
0.00361204 	344.153
0.00366221 	344.133
0.00371237 	344.113
0.00376254 	344.093
0.00381271 	344.073
0.00386288 	344.053
0.00391304 	344.033
0.00396321 	344.013
0.00401338 	343.998
0.00406355 	343.983
0.00411371 	343.969
0.00416388 	343.954
0.00421405 	343.939
0.00426421 	343.925
0.00431438 	343.91
0.00436455 	343.896
0.00441472 	343.881
0.00446488 	343.866
0.00451505 	343.852
0.00456522 	343.837
0.00461538 	343.823
0.00466555 	343.808
0.00471572 	343.793
0.00476589 	343.779
0.00481605 	343.764
0.00486622 	343.75
0.00491639 	343.735
0.00496656 	343.72
0.00501672 	343.709
0.00506689 	343.698
0.00511706 	343.687
0.00516722 	343.675
0.00521739 	343.664
0.00526756 	343.653
0.00531773 	343.642
0.00536789 	343.63
0.00541806 	343.619
0.00546823 	343.608
0.00551839 	343.597
0.00556856 	343.586
0.00561873 	343.574
0.0056689 	343.563
0.00571906 	343.552
0.00576923 	343.541
0.0058194 	343.529
0.00586957 	343.518
0.00591973 	343.507
0.0059699 	343.496
0.00602007 	343.484
0.00607023 	343.473
0.0061204 	343.462
0.00617057 	343.452
0.00622074 	343.443
0.0062709 	343.434
0.00632107 	343.425
0.00637124 	343.416
0.0064214 	343.408
0.00647157 	343.399
0.00652174 	343.39
0.00657191 	343.381
0.00662207 	343.372
0.00667224 	343.363
0.00672241 	343.354
0.00677258 	343.345
0.00682274 	343.336
0.00687291 	343.327
0.00692308 	343.318
0.00697324 	343.309
0.00702341 	343.3
0.00707358 	343.291
0.00712375 	343.282
0.00717391 	343.273
0.00722408 	343.264
0.00727425 	343.255
0.00732441 	343.246
0.00737458 	343.237
0.00742475 	343.229
0.00747492 	343.22
0.00752508 	343.211
0.00757525 	343.203
0.00762542 	343.194
0.00767559 	343.186
0.00772575 	343.178
0.00777592 	343.169
0.00782609 	343.161
0.00787625 	343.153
0.00792642 	343.144
0.00797659 	343.136
0.00802676 	343.127
0.00807692 	343.119
0.00812709 	343.111
0.00817726 	343.102
0.00822742 	343.094
0.00827759 	343.086
0.00832776 	343.077
0.00837793 	343.069
0.00842809 	343.061
0.00847826 	343.052
0.00852843 	343.044
0.0085786 	343.036
0.00862876 	343.027
0.00867893 	343.019
0.0087291 	343.011
0.00877926 	343.002
0.00882943 	342.994
0.0088796 	342.985
0.00892977 	342.976
0.00897993 	342.967
0.0090301 	342.958
0.00908027 	342.949
0.00913043 	342.94
0.0091806 	342.931
0.00923077 	342.921
0.00928094 	342.912
0.0093311 	342.903
0.00938127 	342.894
0.00943144 	342.885
0.00948161 	342.876
0.00953177 	342.867
0.00958194 	342.857
0.00963211 	342.848
0.00968227 	342.839
0.00973244 	342.83
0.00978261 	342.821
0.00983278 	342.812
0.00988294 	342.802
0.00993311 	342.793
0.00998328 	342.784
0.0100334 	342.775
0.0100836 	342.764
0.0101338 	342.754
0.0101839 	342.743
0.0102341 	342.732
0.0102843 	342.722
0.0103344 	342.711
0.0103846 	342.701
0.0104348 	342.69
0.0104849 	342.679
0.0105351 	342.669
0.0105853 	342.658
0.0106355 	342.647
0.0106856 	342.637
0.0107358 	342.626
0.010786 	342.615
0.0108361 	342.605
0.0108863 	342.594
0.0109365 	342.584
0.0109866 	342.573
0.0110368 	342.562
0.011087 	342.548
0.0111371 	342.535
0.0111873 	342.521
0.0112375 	342.508
0.0112876 	342.494
0.0113378 	342.48
0.011388 	342.467
0.0114381 	342.453
0.0114883 	342.439
0.0115385 	342.426
0.0115886 	342.412
0.0116388 	342.399
0.011689 	342.385
0.0117391 	342.371
0.0117893 	342.358
0.0118395 	342.344
0.0118896 	342.33
0.0119398 	342.311
0.01199 	342.292
0.0120401 	342.272
0.0120903 	342.253
0.0121405 	342.233
0.0121906 	342.214
0.0122408 	342.194
0.012291 	342.175
0.0123411 	342.155
0.0123913 	342.136
0.0124415 	342.116
0.0124916 	342.097
0.0125418 	342.077
0.012592 	342.058
0.0126421 	342.034
0.0126923 	342.003
0.0127425 	341.971
0.0127926 	341.939
0.0128428 	341.908
0.012893 	341.876
0.0129431 	341.845
0.0129933 	341.813
0.0130435 	341.781
0.0130936 	341.75
0.0131438 	341.718
0.013194 	341.686
0.0132441 	341.655
0.0132943 	341.602
0.0133445 	341.541
0.0133946 	341.48
0.0134448 	341.419
0.013495 	341.358
0.0135452 	341.297
0.0135953 	341.236
0.0136455 	341.175
0.0136957 	341.114
0.0137458 	341.053
0.013796 	340.992
0.0138462 	340.824
0.0138963 	340.65
0.0139465 	340.477
0.0139967 	340.303
0.0140468 	340.13
0.014097 	339.956
0.0141472 	339.782
0.0141973 	339.609
0.0142475 	339.435
0.0142977 	338.64
0.0143478 	337.595
0.014398 	336.549
0.0144482 	335.503
0.0144983 	334.457
0.0145485 	333.412
0.0145987 	332.366
0.0146488 	331.32
0.014699 	328.994
0.0147492 	326.328
0.0147993 	323.662
0.0148495 	320.997
0.0148997 	318.331
0.0149498 	315.666
0.015 	313
