/*--------------------------------*- C++ -*----------------------------------*\
| =========                 |                                                 |
| \\      /  F ield         | OpenFOAM: The Open Source CFD Toolbox           |
|  \\    /   O peration     | Version:  v1912                                 |
|   \\  /    A nd           | Website:  www.openfoam.com                      |
|    \\/     M anipulation  |                                                 |
\*---------------------------------------------------------------------------*/
FoamFile
{
    version     2.0;
    format      ascii;
    class       volVectorField;
    location    "98.4";
    object      wallShearStress;
}
// * * * * * * * * * * * * * * * * * * * * * * * * * * * * * * * * * * * * * //

dimensions      [1 -1 -2 0 0 0 0];


internalField   uniform (0 0 0);

boundaryField
{
    leftWall
    {
        type            calculated;
        value           nonuniform List<vector> 
16
(
(-0.00988094 0.0388187 -0.171769)
(0.00973136 0.000507283 -0.356475)
(0.00583426 0.000109225 -0.361747)
(0.0119771 -0.000943227 -0.149375)
(-0.0114692 -0.00150322 -0.213676)
(-0.0156575 -0.00011406 -0.405546)
(0.0108898 -0.000719529 -0.350317)
(-0.0130667 0.000814992 -0.252483)
(0.0162957 0.00151888 -0.18557)
(-0.00956091 -8.63383e-05 -0.401965)
(-0.00253652 0.000119329 -0.353426)
(-0.0110111 -0.00111873 -0.169753)
(0.0172196 -0.00128311 -0.17941)
(0.0127699 -5.07449e-05 -0.303346)
(-0.0125181 -0.000690451 -0.305281)
(0.00999253 0.000666991 -0.150804)
)
;
    }
    rightWall
    {
        type            calculated;
        value           nonuniform List<vector> 
16
(
(-0.0459779 -0.00314495 -0.458365)
(-0.00516869 -0.000190634 -0.238646)
(-0.00804909 -0.000767743 -0.289159)
(-0.013826 0.00115346 -0.482533)
(0.0377339 0.00356353 -0.400955)
(-0.011281 7.74519e-05 -0.156174)
(0.0152154 0.00101138 -0.218933)
(0.0192471 -0.00113841 -0.296168)
(0.046958 -0.00375297 -0.364977)
(0.0142239 0.00032495 -0.183161)
(0.0166261 -0.000805472 -0.165537)
(0.00792069 0.00103543 -0.452821)
(-0.040719 0.00213157 -0.325511)
(0.015779 -0.000110282 -0.414137)
(-0.00895172 0.00124583 -0.287639)
(-0.0228267 -0.00116634 -0.469535)
)
;
    }
    leftSides_periodic0
    {
        type            cyclic;
    }
    leftSides_periodic1
    {
        type            cyclic;
    }
    rightSides_periodic0
    {
        type            cyclic;
    }
    rightSides_periodic1
    {
        type            cyclic;
    }
    leftInOut_periodic0
    {
        type            cyclic;
    }
    leftInOut_periodic1
    {
        type            cyclic;
    }
    rightInOut_periodic0
    {
        type            cyclic;
    }
    rightInOut_periodic1
    {
        type            cyclic;
    }
}


// ************************************************************************* //
