/*--------------------------------*- C++ -*----------------------------------*\
| =========                 |                                                 |
| \\      /  F ield         | OpenFOAM: The Open Source CFD Toolbox           |
|  \\    /   O peration     | Version:  v1912                                 |
|   \\  /    A nd           | Website:  www.openfoam.com                      |
|    \\/     M anipulation  |                                                 |
\*---------------------------------------------------------------------------*/
FoamFile
{
    version     2.0;
    format      ascii;
    class       volScalarField;
    location    "98.8";
    object      nut;
}
// * * * * * * * * * * * * * * * * * * * * * * * * * * * * * * * * * * * * * //

dimensions      [0 2 -1 0 0 0 0];


internalField   nonuniform List<scalar> 
5320
(
4.94247e-07
4.11391e-07
7.26354e-07
6.18236e-07
5.21585e-07
5.68233e-07
6.00555e-07
6.09371e-07
6.1094e-07
5.8475e-07
5.30583e-07
6.33314e-07
7.31044e-07
4.84842e-07
1.9861e-06
3.3e-06
1.34713e-06
1.38869e-06
1.88317e-06
2.24784e-06
2.23398e-06
2.31209e-06
2.40533e-06
2.46498e-06
1.97056e-06
1.19591e-06
1.21011e-06
2.96815e-06
2.81086e-06
3.25307e-06
2.05823e-06
2.70444e-06
3.19873e-06
3.81666e-06
3.89217e-06
3.97869e-06
4.1187e-06
4.16303e-06
3.52224e-06
2.2408e-06
1.68369e-06
3.39159e-06
3.86867e-06
3.18633e-06
2.38884e-06
3.8609e-06
3.58494e-06
5.4275e-06
5.64757e-06
5.43935e-06
5.26744e-06
5.00142e-06
3.852e-06
4.00037e-06
2.91676e-06
2.35423e-06
6.06684e-06
3.14556e-06
3.12047e-06
2.78901e-06
3.34403e-06
6.19061e-06
7.83231e-06
7.39476e-06
7.33472e-06
6.43878e-06
3.54222e-06
2.80374e-06
1.66213e-06
2.31572e-06
3.85476e-06
5.25645e-07
3.42945e-07
4.49403e-07
2.42095e-07
3.103e-07
4.00152e-07
4.07965e-07
4.1075e-07
3.30658e-07
2.61915e-07
4.43618e-07
2.06242e-07
5.02261e-07
2.29541e-05
4.30258e-06
6.70647e-07
1.46537e-06
1.29834e-06
1.66984e-06
1.74582e-06
1.80337e-06
1.86535e-06
1.81395e-06
1.42983e-06
1.0862e-06
2.99443e-07
1.69851e-06
6.11949e-06
1.78385e-08
3.20575e-06
3.63796e-06
3.61241e-06
4.02466e-06
4.21437e-06
4.37543e-06
4.48063e-06
4.47573e-06
3.82249e-06
2.88565e-06
2.88867e-06
7.12792e-07
1.19272e-07
3.25061e-06
5.46658e-06
6.25979e-06
6.86551e-06
7.27283e-06
7.52125e-06
7.6293e-06
7.80913e-06
7.7496e-06
6.86533e-06
5.1189e-06
5.04869e-06
3.54712e-06
1.97527e-06
5.20056e-06
4.57271e-06
3.73965e-06
4.70673e-06
7.2543e-06
8.11325e-06
8.13719e-06
7.36162e-06
6.304e-06
4.23098e-06
3.16247e-06
2.93487e-06
3.84774e-06
2.56525e-06
5.27054e-07
6.65222e-07
5.56444e-07
4.97401e-07
5.93079e-07
6.1897e-07
6.28143e-07
6.30004e-07
6.07047e-07
5.1874e-07
5.21375e-07
6.60873e-07
4.71543e-07
8.19968e-06
3.05284e-06
1.78144e-06
1.5546e-06
1.76505e-06
2.00506e-06
1.97073e-06
2.0083e-06
2.05736e-06
2.0905e-06
1.87353e-06
1.22998e-06
2.17146e-06
3.12477e-06
5.31678e-06
6.13188e-06
2.20533e-06
2.92101e-06
2.94244e-06
3.57483e-06
3.68853e-06
3.6486e-06
3.614e-06
3.57982e-06
3.18866e-06
2.28415e-06
1.91586e-06
6.49135e-06
9.85837e-06
7.46347e-06
2.82748e-06
4.02904e-06
3.72372e-06
5.31985e-06
5.37659e-06
4.98584e-06
4.72814e-06
4.32024e-06
3.37205e-06
3.58106e-06
3.40117e-06
6.72688e-06
1.31059e-05
7.75747e-06
3.24734e-06
3.53247e-06
4.24341e-06
7.51097e-06
8.20368e-06
7.493e-06
7.26089e-06
6.10862e-06
3.29147e-06
2.18666e-06
1.69483e-06
6.02253e-06
2.68227e-06
7.12111e-07
4.11953e-07
4.46468e-07
1.72878e-07
2.16358e-07
3.0166e-07
3.06924e-07
3.10993e-07
2.2524e-07
1.75288e-07
3.99746e-07
3.68196e-07
7.47994e-07
1.48371e-05
2.39268e-06
7.79715e-07
1.2868e-06
1.26232e-06
1.69662e-06
1.7851e-06
1.82185e-06
1.85701e-06
1.78748e-06
1.36548e-06
9.07931e-07
2.83207e-07
1.71541e-06
4.40631e-06
5.89094e-07
2.65474e-06
3.40862e-06
3.44324e-06
3.9401e-06
4.05017e-06
4.11008e-06
4.11447e-06
4.08008e-06
3.55004e-06
2.80536e-06
2.29899e-06
1.85618e-06
3.38706e-06
3.69935e-06
5.00993e-06
6.26744e-06
6.39255e-06
6.87924e-06
6.92262e-06
6.87022e-06
6.87765e-06
6.68813e-06
5.92837e-06
4.56214e-06
4.99186e-06
3.29502e-06
2.34644e-06
4.31614e-06
4.40919e-06
4.56126e-06
5.4846e-06
7.63073e-06
8.18662e-06
8.08913e-06
7.1718e-06
5.93498e-06
3.90333e-06
2.5068e-06
3.54625e-06
4.20883e-06
1.64214e-06
5.28574e-07
6.40704e-07
4.9294e-07
4.37216e-07
5.30734e-07
5.99327e-07
6.0876e-07
6.08986e-07
5.44769e-07
4.49836e-07
4.62611e-07
6.2306e-07
4.74148e-07
5.61586e-06
2.19689e-06
1.44246e-06
1.46187e-06
1.68118e-06
1.92976e-06
1.90236e-06
1.88358e-06
1.88024e-06
1.86667e-06
1.6942e-06
1.16346e-06
1.82609e-06
1.88951e-06
3.11501e-06
6.1263e-06
2.13853e-06
2.78087e-06
2.81754e-06
3.50729e-06
3.57248e-06
3.38852e-06
3.2288e-06
3.10994e-06
2.83901e-06
2.28908e-06
2.08937e-06
5.00909e-06
6.42931e-06
7.86786e-06
2.78625e-06
4.05446e-06
3.78265e-06
4.94435e-06
4.99001e-06
4.59158e-06
4.26354e-06
3.74711e-06
2.9403e-06
2.98595e-06
3.10073e-06
7.13128e-06
9.54289e-06
7.2715e-06
3.15467e-06
4.08263e-06
4.59376e-06
7.5174e-06
8.11966e-06
7.42599e-06
7.12182e-06
5.75727e-06
2.84328e-06
1.69253e-06
2.36692e-06
6.52404e-06
7.52252e-07
7.05184e-07
4.03548e-07
4.12589e-07
1.45408e-07
1.9174e-07
2.75619e-07
2.77564e-07
2.81287e-07
1.95795e-07
1.45196e-07
3.68338e-07
4.42956e-07
7.92229e-07
3.78771e-06
1.50455e-06
6.36388e-07
1.08536e-06
1.28446e-06
1.77975e-06
1.8685e-06
1.86564e-06
1.85888e-06
1.78005e-06
1.27742e-06
9.38459e-07
7.23207e-07
1.85075e-06
6.94104e-07
2.14171e-06
2.40579e-06
3.0417e-06
3.4117e-06
4.03421e-06
4.07987e-06
4.0256e-06
3.9453e-06
3.86908e-06
3.38248e-06
2.89271e-06
2.10863e-06
1.23546e-07
1.58395e-06
4.24014e-06
4.6971e-06
5.96596e-06
6.20014e-06
6.82051e-06
6.76556e-06
6.57145e-06
6.45616e-06
6.17412e-06
5.59262e-06
4.41198e-06
4.50018e-06
2.49127e-06
2.73135e-07
2.25708e-06
4.19513e-06
5.00348e-06
5.69888e-06
7.60243e-06
8.07958e-06
8.11483e-06
7.21923e-06
5.94041e-06
3.72401e-06
2.39952e-06
4.13404e-06
3.99226e-06
2.93836e-07
6.21011e-07
6.22167e-07
4.4908e-07
3.86308e-07
4.77698e-07
5.68823e-07
5.80135e-07
5.74277e-07
4.8181e-07
3.90421e-07
4.30252e-07
5.93328e-07
5.76097e-07
5.72523e-07
2.79091e-06
1.50199e-06
1.34945e-06
1.57173e-06
1.83818e-06
1.87158e-06
1.80344e-06
1.76427e-06
1.72726e-06
1.57923e-06
1.24662e-06
1.51553e-06
1.81472e-06
2.68888e-06
6.70683e-06
2.09011e-06
2.60683e-06
2.67101e-06
3.39555e-06
3.43398e-06
3.16694e-06
2.94606e-06
2.76309e-06
2.51701e-06
2.55385e-06
2.29527e-06
5.91011e-06
5.56993e-06
7.51283e-06
2.72855e-06
4.00663e-06
3.57508e-06
4.44564e-06
4.59139e-06
4.32949e-06
4.02553e-06
3.45099e-06
2.57625e-06
2.9329e-06
2.52522e-06
7.50882e-06
6.25251e-06
6.62157e-06
2.81148e-06
4.06895e-06
4.44647e-06
7.1933e-06
7.81764e-06
7.34056e-06
7.18589e-06
5.75119e-06
2.62279e-06
1.87575e-06
2.73968e-06
7.20253e-06
7.42925e-08
7.32625e-07
3.94114e-07
3.84109e-07
1.30108e-07
1.90067e-07
2.76551e-07
2.74064e-07
2.73941e-07
1.84553e-07
1.27694e-07
3.64162e-07
4.39992e-07
7.81688e-07
3.16811e-06
1.86936e-06
5.85675e-07
9.16232e-07
1.31402e-06
1.84434e-06
1.93387e-06
1.893e-06
1.83971e-06
1.73203e-06
1.20944e-06
1.08492e-06
9.63233e-07
1.77844e-06
1.86086e-06
2.89656e-06
2.11846e-06
2.68032e-06
3.40645e-06
4.12571e-06
4.1258e-06
3.99107e-06
3.8344e-06
3.70062e-06
3.25945e-06
3.18751e-06
2.33436e-06
7.57916e-07
5.68448e-07
3.37572e-06
4.50007e-06
5.6793e-06
6.0468e-06
6.7589e-06
6.72756e-06
6.4791e-06
6.29391e-06
5.97311e-06
5.58706e-06
4.97391e-06
4.39686e-06
2.19099e-06
3.5022e-07
1.37119e-06
3.39179e-06
4.77476e-06
5.49817e-06
7.42058e-06
7.90608e-06
8.23076e-06
7.56774e-06
6.44187e-06
3.94311e-06
2.84612e-06
4.20075e-06
3.82622e-06
5.99542e-07
6.93003e-07
5.95911e-07
4.28132e-07
3.48516e-07
4.3893e-07
5.41591e-07
5.50034e-07
5.40442e-07
4.37438e-07
3.4612e-07
4.23313e-07
5.97408e-07
6.70392e-07
5.04099e-07
3.20198e-06
1.45574e-06
1.16698e-06
1.47168e-06
1.76161e-06
1.84061e-06
1.75864e-06
1.69968e-06
1.64933e-06
1.45999e-06
1.40125e-06
1.39459e-06
2.09074e-06
2.35238e-06
6.7128e-06
1.94222e-06
2.41942e-06
2.47783e-06
3.16462e-06
3.21119e-06
2.99935e-06
2.80084e-06
2.53301e-06
2.24976e-06
2.83783e-06
2.37842e-06
5.60563e-06
3.99622e-06
6.89814e-06
2.86259e-06
3.95046e-06
3.162e-06
3.93956e-06
4.22182e-06
4.16319e-06
4.05528e-06
3.50995e-06
2.41259e-06
3.37101e-06
2.71852e-06
7.51251e-06
6.16634e-06
6.39062e-06
1.92954e-06
3.53394e-06
4.04355e-06
6.73608e-06
7.48053e-06
7.27773e-06
7.4842e-06
6.27487e-06
2.90339e-06
2.30707e-06
2.74629e-06
8.10056e-06
6.87158e-07
7.49621e-07
4.24706e-07
3.74026e-07
1.2033e-07
1.93564e-07
2.85828e-07
2.80737e-07
2.75772e-07
1.80692e-07
1.17188e-07
3.79092e-07
4.31925e-07
7.54325e-07
4.09881e-06
2.23876e-06
6.9226e-07
8.18706e-07
1.28644e-06
1.86674e-06
1.9594e-06
1.89163e-06
1.81122e-06
1.66296e-06
1.17013e-06
1.18529e-06
1.01412e-06
1.64777e-06
2.75756e-06
2.85712e-06
1.74562e-06
2.43643e-06
3.37222e-06
4.12863e-06
4.14298e-06
3.98836e-06
3.79574e-06
3.57309e-06
3.14544e-06
3.31737e-06
2.55459e-06
1.77574e-06
9.27072e-07
3.12213e-06
4.3098e-06
5.20722e-06
5.8863e-06
6.6326e-06
6.73604e-06
6.54694e-06
6.39886e-06
6.1032e-06
5.72535e-06
5.70966e-06
4.93592e-06
3.07797e-06
8.73159e-07
2.19778e-06
2.71735e-06
4.06976e-06
5.09473e-06
7.05802e-06
7.72861e-06
8.35519e-06
8.08017e-06
7.31781e-06
4.60526e-06
3.42155e-06
4.04784e-06
4.13939e-06
5.40386e-07
7.33263e-07
5.92395e-07
4.22741e-07
3.21271e-07
4.14042e-07
5.262e-07
5.31602e-07
5.17222e-07
4.04336e-07
3.14535e-07
4.39882e-07
6.1237e-07
7.23342e-07
3.84144e-07
3.11675e-06
1.35744e-06
1.01867e-06
1.38047e-06
1.69699e-06
1.79734e-06
1.72538e-06
1.65528e-06
1.54043e-06
1.33763e-06
1.48929e-06
1.3287e-06
2.27637e-06
2.03608e-06
5.90868e-06
1.77279e-06
2.24254e-06
2.22743e-06
2.82003e-06
2.94785e-06
2.8642e-06
2.6919e-06
2.37225e-06
2.01453e-06
2.88665e-06
2.34767e-06
5.73491e-06
4.54023e-06
6.99056e-06
2.99925e-06
3.58049e-06
2.6822e-06
3.39822e-06
3.86254e-06
4.01252e-06
4.199e-06
3.8228e-06
2.52996e-06
3.58304e-06
2.85465e-06
7.83932e-06
5.99687e-06
6.45695e-06
9.77223e-07
2.6694e-06
3.50794e-06
6.16238e-06
7.13291e-06
7.18973e-06
7.82409e-06
6.97794e-06
3.57256e-06
2.84295e-06
2.66875e-06
8.60315e-06
7.46225e-07
7.68038e-07
4.58781e-07
3.69586e-07
1.13292e-07
1.95441e-07
2.97435e-07
2.91662e-07
2.8202e-07
1.81611e-07
1.09935e-07
4.00729e-07
4.39097e-07
7.29689e-07
4.28073e-06
2.18603e-06
8.18244e-07
7.81268e-07
1.20522e-06
1.81368e-06
1.92758e-06
1.86816e-06
1.78013e-06
1.6194e-06
1.13781e-06
1.15701e-06
9.52967e-07
1.69274e-06
3.19585e-06
2.56649e-06
1.62682e-06
2.45559e-06
3.29665e-06
4.03278e-06
4.11205e-06
4.02055e-06
3.86249e-06
3.58915e-06
3.06906e-06
3.09551e-06
2.56564e-06
2.92026e-06
1.29273e-06
3.78277e-06
4.24342e-06
4.6096e-06
5.66689e-06
6.46932e-06
6.71864e-06
6.6918e-06
6.6555e-06
6.50567e-06
5.82966e-06
6.06479e-06
5.04785e-06
4.41981e-06
1.49104e-06
3.04606e-06
2.54585e-06
3.08279e-06
4.56626e-06
6.59862e-06
7.54441e-06
8.40971e-06
8.46293e-06
7.96621e-06
5.4022e-06
4.17233e-06
3.91235e-06
4.27263e-06
4.25159e-07
7.69311e-07
6.03439e-07
4.26477e-07
2.98878e-07
3.96522e-07
5.17458e-07
5.22156e-07
5.02821e-07
3.80423e-07
2.90736e-07
4.62125e-07
6.15756e-07
7.53281e-07
1.50087e-07
2.82523e-06
1.23384e-06
9.95518e-07
1.27452e-06
1.61835e-06
1.7287e-06
1.69004e-06
1.63417e-06
1.4743e-06
1.22008e-06
1.41553e-06
1.26188e-06
2.53752e-06
1.89899e-06
5.26981e-06
1.70605e-06
2.28379e-06
1.96167e-06
2.4629e-06
2.68665e-06
2.7553e-06
2.71864e-06
2.40627e-06
1.83388e-06
2.78865e-06
2.14752e-06
6.36686e-06
4.94499e-06
7.24733e-06
2.93067e-06
3.01545e-06
2.23459e-06
2.89016e-06
3.51457e-06
3.83682e-06
4.22482e-06
4.02604e-06
2.72856e-06
3.80147e-06
2.58243e-06
8.49026e-06
5.91823e-06
6.62024e-06
1.1852e-06
1.7264e-06
2.9119e-06
5.61668e-06
6.83635e-06
7.06979e-06
7.92062e-06
7.30485e-06
4.20883e-06
3.51235e-06
2.52488e-06
8.14181e-06
7.03142e-07
7.82384e-07
4.83707e-07
3.76957e-07
1.08239e-07
1.9693e-07
3.07016e-07
3.05551e-07
2.9375e-07
1.84408e-07
1.0446e-07
4.12518e-07
4.60068e-07
7.23039e-07
3.25589e-06
2.01217e-06
8.93958e-07
8.44997e-07
1.10706e-06
1.69453e-06
1.8284e-06
1.82858e-06
1.78533e-06
1.61253e-06
1.09905e-06
1.03543e-06
8.98156e-07
2.06251e-06
3.5263e-06
2.4975e-06
1.79088e-06
2.65278e-06
3.19075e-06
3.83786e-06
4.01169e-06
4.04956e-06
4.0085e-06
3.76631e-06
3.06789e-06
2.78571e-06
2.35551e-06
4.28684e-06
1.64486e-06
3.92531e-06
4.02375e-06
4.372e-06
5.47558e-06
6.30755e-06
6.67029e-06
6.79048e-06
6.89418e-06
6.89423e-06
5.88718e-06
6.00405e-06
4.7915e-06
5.39481e-06
1.77183e-06
3.59172e-06
3.40818e-06
2.38063e-06
4.07416e-06
6.24459e-06
7.44955e-06
8.41304e-06
8.50969e-06
8.05512e-06
5.86622e-06
4.88398e-06
3.72707e-06
3.11551e-06
3.83377e-07
7.95933e-07
6.17239e-07
4.4682e-07
2.78874e-07
3.78882e-07
5.09677e-07
5.19893e-07
4.99352e-07
3.66465e-07
2.71777e-07
4.70699e-07
6.14713e-07
7.75634e-07
3.20535e-07
2.53726e-06
1.13957e-06
1.13116e-06
1.15586e-06
1.49365e-06
1.64089e-06
1.66949e-06
1.64875e-06
1.46183e-06
1.12666e-06
1.22955e-06
1.21693e-06
3.01808e-06
1.87699e-06
5.11643e-06
1.78448e-06
2.5818e-06
1.72082e-06
2.10984e-06
2.44855e-06
2.64898e-06
2.75639e-06
2.50321e-06
1.71751e-06
2.62966e-06
1.90532e-06
7.1427e-06
5.00641e-06
7.16459e-06
2.3285e-06
2.81265e-06
1.87224e-06
2.57285e-06
3.30282e-06
3.69806e-06
4.08132e-06
3.90412e-06
2.76479e-06
3.93224e-06
2.36791e-06
8.1084e-06
5.76237e-06
6.90604e-06
2.02066e-06
1.47668e-06
2.49529e-06
5.33025e-06
6.73701e-06
6.97435e-06
7.71518e-06
7.19961e-06
4.4386e-06
3.94895e-06
2.42075e-06
6.4122e-06
6.91571e-07
7.85124e-07
5.02739e-07
3.99087e-07
1.04803e-07
1.94401e-07
3.13236e-07
3.21251e-07
3.12296e-07
1.92348e-07
1.0107e-07
4.1264e-07
4.92695e-07
7.39669e-07
3.10328e-06
1.89547e-06
9.45839e-07
1.02197e-06
1.01865e-06
1.55451e-06
1.71259e-06
1.78186e-06
1.8153e-06
1.63607e-06
1.05454e-06
8.87412e-07
9.20829e-07
2.63492e-06
3.9165e-06
2.72804e-06
2.1091e-06
2.97779e-06
3.06954e-06
3.58644e-06
3.87274e-06
4.04196e-06
4.12297e-06
3.95769e-06
3.1133e-06
2.50343e-06
2.12113e-06
5.22055e-06
1.9591e-06
3.86873e-06
3.86112e-06
4.69818e-06
5.46422e-06
6.22975e-06
6.6829e-06
6.88977e-06
7.06971e-06
7.03905e-06
5.88686e-06
5.83857e-06
4.65347e-06
4.8719e-06
1.71904e-06
3.88061e-06
4.03334e-06
2.48516e-06
3.86879e-06
6.26208e-06
7.59452e-06
8.4415e-06
8.32424e-06
7.80957e-06
5.82945e-06
5.0036e-06
3.61269e-06
1.95063e-06
3.39429e-07
8.12222e-07
6.25955e-07
4.75291e-07
2.60327e-07
3.61057e-07
5.03175e-07
5.22994e-07
5.0438e-07
3.61474e-07
2.572e-07
4.75284e-07
6.21521e-07
8.02483e-07
3.23732e-07
2.39044e-06
1.11853e-06
1.33957e-06
1.04579e-06
1.3657e-06
1.5591e-06
1.64527e-06
1.66473e-06
1.46518e-06
1.05076e-06
1.04628e-06
1.1805e-06
3.49278e-06
1.96538e-06
5.10985e-06
1.90522e-06
2.84222e-06
1.48966e-06
1.8461e-06
2.27724e-06
2.55914e-06
2.72353e-06
2.48368e-06
1.63228e-06
2.42333e-06
1.59909e-06
7.41449e-06
4.88702e-06
6.80263e-06
2.10027e-06
3.01509e-06
1.65974e-06
2.60577e-06
3.37457e-06
3.67076e-06
3.87946e-06
3.56611e-06
2.575e-06
4.01358e-06
2.58755e-06
6.77534e-06
5.47336e-06
7.0885e-06
2.31615e-06
1.82839e-06
2.48776e-06
5.58874e-06
6.93864e-06
6.95453e-06
7.4461e-06
6.87017e-06
4.2496e-06
3.74151e-06
2.02674e-06
5.42452e-06
6.76653e-07
7.79191e-07
5.17437e-07
4.21744e-07
1.01997e-07
1.93248e-07
3.22611e-07
3.39602e-07
3.31583e-07
2.02405e-07
1.00825e-07
4.1666e-07
5.4209e-07
7.74466e-07
2.92876e-06
1.88933e-06
9.9185e-07
1.17348e-06
9.47807e-07
1.43854e-06
1.62151e-06
1.72782e-06
1.81378e-06
1.62385e-06
9.94696e-07
7.87052e-07
9.37784e-07
3.15309e-06
4.17163e-06
3.10032e-06
2.40783e-06
3.07972e-06
2.95932e-06
3.39002e-06
3.79587e-06
4.03574e-06
4.16798e-06
3.99995e-06
3.14644e-06
2.34545e-06
1.82513e-06
5.26786e-06
2.19685e-06
3.99967e-06
4.40897e-06
5.44015e-06
5.64014e-06
6.39092e-06
6.85988e-06
7.07897e-06
7.24155e-06
7.03452e-06
5.85673e-06
5.56728e-06
4.54478e-06
3.85789e-06
1.78565e-06
4.13974e-06
4.06408e-06
2.90388e-06
4.11424e-06
6.84781e-06
7.97077e-06
8.5124e-06
8.0717e-06
7.42834e-06
5.43118e-06
4.4714e-06
3.02378e-06
2.21736e-06
3.11661e-07
8.19999e-07
6.27776e-07
4.99794e-07
2.44539e-07
3.48721e-07
5.03694e-07
5.31696e-07
5.11968e-07
3.6034e-07
2.46325e-07
4.85733e-07
6.46383e-07
8.34814e-07
4.05565e-07
2.39109e-06
1.11596e-06
1.41865e-06
9.54941e-07
1.27029e-06
1.51207e-06
1.62647e-06
1.64922e-06
1.4288e-06
9.71798e-07
9.44799e-07
1.10865e-06
3.71469e-06
2.01542e-06
5.4375e-06
1.89094e-06
2.84986e-06
1.30181e-06
1.77563e-06
2.28114e-06
2.53448e-06
2.63702e-06
2.31843e-06
1.54222e-06
2.29307e-06
1.22805e-06
6.89053e-06
4.68762e-06
6.71748e-06
2.3735e-06
3.36573e-06
1.67845e-06
3.08301e-06
3.70602e-06
3.73667e-06
3.66773e-06
3.15013e-06
2.20127e-06
3.85251e-06
2.72641e-06
6.02888e-06
5.22383e-06
7.38941e-06
2.24663e-06
2.22621e-06
2.95981e-06
5.90846e-06
7.33747e-06
6.97138e-06
7.14803e-06
6.43239e-06
3.80055e-06
3.03538e-06
1.07156e-06
5.2513e-06
6.58687e-07
7.72663e-07
5.34957e-07
4.41992e-07
1.02271e-07
1.98401e-07
3.38195e-07
3.61778e-07
3.51621e-07
2.13459e-07
1.02296e-07
4.23486e-07
6.00403e-07
8.11588e-07
2.74268e-06
2.04719e-06
1.02513e-06
1.15786e-06
8.90751e-07
1.35489e-06
1.5819e-06
1.68175e-06
1.73819e-06
1.54961e-06
9.09295e-07
7.51508e-07
8.84908e-07
3.23528e-06
4.23772e-06
3.85659e-06
2.58212e-06
3.00241e-06
2.89652e-06
3.40472e-06
3.85389e-06
4.07894e-06
4.15746e-06
3.90638e-06
3.11044e-06
2.44873e-06
1.65315e-06
4.62167e-06
2.43598e-06
4.59179e-06
4.96954e-06
6.02846e-06
5.8312e-06
6.85655e-06
7.19574e-06
7.36494e-06
7.40674e-06
7.01745e-06
5.84938e-06
5.19024e-06
4.22805e-06
4.01894e-06
2.0932e-06
4.45932e-06
3.99408e-06
3.49915e-06
4.76003e-06
7.58483e-06
8.39963e-06
8.54503e-06
7.78974e-06
6.96086e-06
4.86938e-06
3.53552e-06
2.55781e-06
2.8063e-06
3.00677e-07
8.25775e-07
6.33955e-07
5.2053e-07
2.35607e-07
3.47114e-07
5.10336e-07
5.46434e-07
5.25071e-07
3.61399e-07
2.3769e-07
4.9788e-07
6.76872e-07
8.64397e-07
5.00107e-07
2.64412e-06
1.12968e-06
1.32585e-06
8.85152e-07
1.22711e-06
1.50376e-06
1.62067e-06
1.60164e-06
1.35201e-06
8.9186e-07
9.37285e-07
9.17134e-07
3.56074e-06
1.95175e-06
6.19102e-06
1.75456e-06
2.76782e-06
1.20412e-06
1.93509e-06
2.4399e-06
2.58372e-06
2.5256e-06
2.09471e-06
1.41205e-06
2.38148e-06
1.04715e-06
6.1024e-06
4.46431e-06
7.33406e-06
2.17746e-06
3.63753e-06
1.9206e-06
3.71556e-06
4.05331e-06
3.7927e-06
3.44929e-06
2.75826e-06
1.82091e-06
3.53369e-06
2.59542e-06
6.25666e-06
5.15728e-06
7.47616e-06
2.0717e-06
2.83585e-06
3.71762e-06
6.46393e-06
7.67025e-06
6.94401e-06
6.83905e-06
5.89968e-06
3.23018e-06
2.08183e-06
4.77771e-07
4.7781e-06
6.40393e-07
7.73784e-07
5.81408e-07
4.58635e-07
1.07511e-07
2.14921e-07
3.58859e-07
3.88931e-07
3.76425e-07
2.24788e-07
1.06506e-07
4.33071e-07
6.31923e-07
8.3947e-07
2.43239e-06
2.50898e-06
1.09072e-06
1.03636e-06
8.27013e-07
1.33142e-06
1.57323e-06
1.63723e-06
1.62216e-06
1.41115e-06
8.19927e-07
8.13584e-07
7.74569e-07
3.03016e-06
4.13176e-06
5.14523e-06
2.66326e-06
2.81803e-06
2.89131e-06
3.62529e-06
4.02076e-06
4.16277e-06
4.10467e-06
3.74064e-06
3.02466e-06
2.72647e-06
1.70602e-06
4.28054e-06
2.72075e-06
5.58792e-06
5.09689e-06
5.96998e-06
5.98239e-06
7.40428e-06
7.58731e-06
7.65304e-06
7.55422e-06
7.04638e-06
5.84092e-06
4.84725e-06
3.92159e-06
4.67999e-06
2.42686e-06
4.12566e-06
3.63085e-06
4.19667e-06
5.45814e-06
7.99404e-06
8.60842e-06
8.49301e-06
7.53677e-06
6.42864e-06
4.26968e-06
2.54253e-06
2.775e-06
3.37739e-06
3.03752e-07
8.35913e-07
6.64729e-07
5.32494e-07
2.343e-07
3.56413e-07
5.27427e-07
5.62431e-07
5.42037e-07
3.69802e-07
2.34441e-07
5.15996e-07
6.8616e-07
8.87125e-07
5.87274e-07
3.29766e-06
1.18367e-06
1.15586e-06
8.21362e-07
1.22439e-06
1.52952e-06
1.62343e-06
1.54552e-06
1.26068e-06
8.37558e-07
1.05322e-06
7.3876e-07
3.35034e-06
1.90062e-06
7.13089e-06
1.51319e-06
2.60295e-06
1.21884e-06
2.20211e-06
2.65317e-06
2.66336e-06
2.41966e-06
1.88167e-06
1.27669e-06
2.58404e-06
1.06234e-06
5.76265e-06
4.20168e-06
7.74606e-06
1.96484e-06
3.87748e-06
2.23317e-06
4.03922e-06
4.22085e-06
3.81622e-06
3.3217e-06
2.49113e-06
1.56702e-06
3.08617e-06
2.17066e-06
6.39127e-06
5.11069e-06
6.65735e-06
1.99867e-06
3.4998e-06
4.31455e-06
7.24318e-06
7.71529e-06
6.87894e-06
6.61432e-06
5.39221e-06
2.69094e-06
1.40296e-06
1.24159e-06
4.91783e-06
6.09336e-07
7.88267e-07
6.48569e-07
4.61875e-07
1.18054e-07
2.3598e-07
3.93925e-07
4.23398e-07
4.00707e-07
2.49432e-07
1.17401e-07
4.5584e-07
6.2875e-07
8.53148e-07
2.11587e-06
3.35006e-06
1.16484e-06
8.81718e-07
7.44102e-07
1.3265e-06
1.58211e-06
1.5922e-06
1.49731e-06
1.27982e-06
7.55714e-07
9.92796e-07
7.456e-07
2.89525e-06
4.07047e-06
6.29672e-06
2.41328e-06
2.57576e-06
2.92926e-06
3.9093e-06
4.21815e-06
4.23723e-06
4.02711e-06
3.57575e-06
2.94636e-06
2.90229e-06
1.89231e-06
4.35789e-06
3.06391e-06
5.69755e-06
4.85441e-06
6.13667e-06
6.19138e-06
7.79402e-06
7.94149e-06
7.89387e-06
7.68128e-06
7.12705e-06
5.84225e-06
4.65669e-06
3.84337e-06
4.79291e-06
2.65363e-06
2.73076e-06
3.68416e-06
4.67976e-06
5.74787e-06
7.90752e-06
8.48105e-06
8.42871e-06
7.45035e-06
6.05828e-06
3.78694e-06
2.18218e-06
3.77915e-06
3.75507e-06
3.13779e-07
8.57609e-07
7.11105e-07
5.3437e-07
2.40196e-07
3.80551e-07
5.56176e-07
5.80358e-07
5.59803e-07
3.86618e-07
2.42803e-07
5.43727e-07
6.80071e-07
8.95229e-07
7.22002e-07
4.18921e-06
1.22922e-06
9.6953e-07
7.71902e-07
1.24899e-06
1.58324e-06
1.6337e-06
1.4884e-06
1.18957e-06
8.18192e-07
1.25674e-06
7.12435e-07
3.26522e-06
2.01979e-06
7.6552e-06
1.13101e-06
2.38702e-06
1.30766e-06
2.41807e-06
2.84885e-06
2.75153e-06
2.39362e-06
1.78208e-06
1.18086e-06
2.68927e-06
1.17521e-06
5.59251e-06
3.93478e-06
6.70353e-06
2.04175e-06
4.17112e-06
2.39176e-06
3.9929e-06
4.24682e-06
3.91622e-06
3.43543e-06
2.53181e-06
1.44063e-06
2.89118e-06
1.83399e-06
5.95896e-06
4.89725e-06
4.60679e-06
2.03656e-06
3.69863e-06
4.40107e-06
7.16655e-06
7.54089e-06
6.86172e-06
6.63126e-06
5.25502e-06
2.32769e-06
1.48636e-06
2.09451e-06
5.15595e-06
5.56191e-07
8.21701e-07
6.97144e-07
4.72054e-07
1.34738e-07
2.85725e-07
4.39605e-07
4.66159e-07
4.34029e-07
2.69214e-07
1.40904e-07
4.75699e-07
6.43052e-07
8.46066e-07
1.87769e-06
4.26061e-06
1.22579e-06
7.90554e-07
6.77768e-07
1.34523e-06
1.57083e-06
1.54117e-06
1.38736e-06
1.14903e-06
7.01535e-07
1.13828e-06
9.06985e-07
2.89764e-06
3.98213e-06
6.70119e-06
2.22395e-06
2.54058e-06
3.00028e-06
4.09425e-06
4.39372e-06
4.31753e-06
4.02569e-06
3.50991e-06
2.87418e-06
2.95205e-06
2.2865e-06
4.44291e-06
3.33296e-06
4.51056e-06
4.62584e-06
6.05244e-06
6.54083e-06
8.06534e-06
8.2911e-06
8.16604e-06
7.89397e-06
7.3653e-06
6.07695e-06
5.03e-06
4.29031e-06
4.58054e-06
2.86989e-06
1.82554e-06
3.59863e-06
4.50497e-06
5.49799e-06
7.56914e-06
8.24854e-06
8.43261e-06
7.64117e-06
6.1365e-06
3.59506e-06
2.43451e-06
4.29718e-06
3.93908e-06
3.24142e-07
8.96093e-07
7.4312e-07
5.62404e-07
2.58409e-07
4.29639e-07
5.81601e-07
6.04844e-07
5.82746e-07
4.0973e-07
2.65779e-07
5.50998e-07
6.91997e-07
8.88599e-07
9.22939e-07
5.02965e-06
1.20671e-06
9.43765e-07
7.69686e-07
1.29213e-06
1.62499e-06
1.64231e-06
1.46262e-06
1.11552e-06
8.01049e-07
1.28658e-06
9.35163e-07
3.36346e-06
2.17608e-06
7.33136e-06
8.0356e-07
2.42892e-06
1.43782e-06
2.53767e-06
3.01424e-06
2.91079e-06
2.55649e-06
1.88837e-06
1.17079e-06
2.68883e-06
1.33769e-06
5.54366e-06
3.59093e-06
5.32298e-06
2.22107e-06
4.18275e-06
2.36296e-06
3.80613e-06
4.22619e-06
4.16989e-06
3.86776e-06
3.06034e-06
1.4925e-06
3.27337e-06
1.8371e-06
5.66351e-06
4.64007e-06
3.37413e-06
1.59674e-06
3.29653e-06
4.0201e-06
6.8351e-06
7.31526e-06
6.91955e-06
6.9373e-06
5.1082e-06
2.36511e-06
1.87618e-06
2.45966e-06
5.12989e-06
4.90627e-07
8.67324e-07
7.24349e-07
5.08509e-07
1.70615e-07
3.35354e-07
4.93237e-07
5.1989e-07
4.85792e-07
3.2367e-07
1.74223e-07
4.77525e-07
6.81186e-07
8.24128e-07
1.75224e-06
4.98157e-06
1.27061e-06
8.27746e-07
6.57555e-07
1.29587e-06
1.51519e-06
1.50608e-06
1.35549e-06
1.06908e-06
6.26067e-07
1.06474e-06
1.30309e-06
3.15661e-06
3.7732e-06
6.20101e-06
2.11173e-06
2.67944e-06
3.1672e-06
4.22361e-06
4.55203e-06
4.47306e-06
4.17279e-06
3.63278e-06
2.89345e-06
2.97317e-06
2.86383e-06
4.69797e-06
3.45033e-06
3.67928e-06
4.26123e-06
5.78551e-06
7.00998e-06
8.44869e-06
8.7097e-06
8.54878e-06
8.26489e-06
7.77561e-06
6.56418e-06
5.91692e-06
5.10432e-06
4.57984e-06
3.24451e-06
2.46759e-06
3.05808e-06
3.81632e-06
4.94394e-06
7.1345e-06
7.96579e-06
8.46736e-06
8.01639e-06
6.68251e-06
3.87688e-06
2.84668e-06
4.42873e-06
4.08711e-06
3.21305e-07
9.318e-07
7.6258e-07
5.91803e-07
3.06712e-07
4.80467e-07
6.1992e-07
6.39351e-07
6.15682e-07
4.75814e-07
3.01408e-07
5.67207e-07
7.34848e-07
8.75198e-07
1.16213e-06
5.46814e-06
1.11468e-06
9.76471e-07
8.2369e-07
1.31186e-06
1.61809e-06
1.66601e-06
1.49935e-06
1.16612e-06
7.67402e-07
1.12518e-06
1.31855e-06
3.76881e-06
2.26088e-06
6.38689e-06
6.8571e-07
2.48953e-06
1.62664e-06
2.64018e-06
3.11299e-06
3.1562e-06
2.90265e-06
2.25622e-06
1.30306e-06
2.71846e-06
1.43591e-06
5.73136e-06
3.35701e-06
4.87165e-06
2.12741e-06
4.04291e-06
2.26272e-06
3.63483e-06
4.22241e-06
4.47404e-06
4.49043e-06
3.9623e-06
1.83676e-06
3.57365e-06
1.9859e-06
5.58919e-06
4.51873e-06
3.23155e-06
8.72318e-07
2.53415e-06
3.45758e-06
6.36704e-06
7.03607e-06
6.97078e-06
7.36559e-06
5.35483e-06
2.86576e-06
2.28529e-06
2.48412e-06
4.83068e-06
3.98093e-07
8.84087e-07
7.47263e-07
5.23041e-07
2.43028e-07
4.15743e-07
5.72299e-07
5.9256e-07
5.52945e-07
4.02218e-07
2.31237e-07
5.23333e-07
7.35201e-07
7.95738e-07
1.68345e-06
5.12807e-06
1.32767e-06
8.57569e-07
6.68571e-07
1.2143e-06
1.49467e-06
1.5256e-06
1.38511e-06
1.07682e-06
5.8703e-07
9.34576e-07
1.76092e-06
3.78499e-06
3.41962e-06
5.32222e-06
2.18595e-06
2.7611e-06
3.38398e-06
4.19542e-06
4.53863e-06
4.71346e-06
4.4896e-06
3.96871e-06
3.03255e-06
2.99012e-06
3.25753e-06
5.24722e-06
3.60375e-06
3.91491e-06
3.88896e-06
5.38031e-06
7.35976e-06
8.69482e-06
8.88821e-06
8.96374e-06
8.78758e-06
8.36028e-06
7.1288e-06
6.25899e-06
5.8949e-06
4.81262e-06
3.9107e-06
3.31075e-06
2.86891e-06
2.88278e-06
4.33766e-06
6.57241e-06
7.66465e-06
8.44508e-06
8.36533e-06
7.30576e-06
4.51412e-06
3.37093e-06
4.44381e-06
4.19661e-06
2.93132e-07
9.31526e-07
7.83266e-07
6.0382e-07
3.92399e-07
5.8403e-07
6.71805e-07
6.83383e-07
6.59816e-07
5.5658e-07
3.80337e-07
6.39431e-07
7.73784e-07
8.65969e-07
1.30112e-06
5.35218e-06
1.16024e-06
9.80966e-07
8.52951e-07
1.293e-06
1.6379e-06
1.71826e-06
1.59312e-06
1.2314e-06
7.77833e-07
1.07092e-06
1.72215e-06
4.5329e-06
2.23166e-06
5.72817e-06
8.53032e-07
2.41816e-06
1.82143e-06
2.7133e-06
3.22399e-06
3.42042e-06
3.41047e-06
2.81331e-06
1.61634e-06
2.75152e-06
1.35167e-06
6.14174e-06
3.35549e-06
4.03174e-06
1.99702e-06
3.55052e-06
2.21971e-06
3.53932e-06
4.26411e-06
4.71593e-06
5.05192e-06
4.79852e-06
2.49906e-06
3.91879e-06
1.93028e-06
5.82027e-06
4.69833e-06
3.42621e-06
9.43592e-07
1.76042e-06
2.80859e-06
5.76803e-06
6.75848e-06
6.95377e-06
7.63481e-06
5.90899e-06
3.51779e-06
2.83421e-06
2.52584e-06
4.30961e-06
2.78692e-07
8.54359e-07
7.74709e-07
5.57065e-07
3.6096e-07
5.3984e-07
6.48136e-07
6.53872e-07
6.35662e-07
5.08542e-07
3.49669e-07
6.10996e-07
7.66904e-07
7.85285e-07
1.46439e-06
4.82928e-06
1.7187e-06
8.7313e-07
6.67336e-07
1.16587e-06
1.52065e-06
1.60828e-06
1.52287e-06
1.15864e-06
6.29616e-07
9.58684e-07
2.29462e-06
4.72565e-06
2.9228e-06
4.72635e-06
2.5827e-06
2.66184e-06
3.31837e-06
4.11604e-06
4.53666e-06
4.83974e-06
4.89747e-06
4.4986e-06
3.30134e-06
2.92524e-06
3.12765e-06
5.84953e-06
3.9199e-06
4.0487e-06
4.14381e-06
4.79144e-06
7.35275e-06
8.55526e-06
8.83516e-06
9.30969e-06
9.23131e-06
8.9139e-06
7.87465e-06
6.51777e-06
5.88176e-06
4.95646e-06
4.64508e-06
3.76184e-06
3.46966e-06
2.16415e-06
3.71278e-06
5.96142e-06
7.41475e-06
8.33389e-06
8.41143e-06
7.52859e-06
5.05251e-06
3.89461e-06
4.59809e-06
3.97098e-06
2.5877e-07
8.98734e-07
8.07966e-07
6.77498e-07
5.2724e-07
6.56055e-07
7.07603e-07
7.15448e-07
6.99312e-07
6.38822e-07
5.15059e-07
7.12612e-07
8.00598e-07
8.92111e-07
1.21293e-06
4.90796e-06
1.70781e-06
1.01179e-06
8.92867e-07
1.30484e-06
1.68267e-06
1.81446e-06
1.76414e-06
1.39927e-06
8.75671e-07
1.09853e-06
2.27208e-06
5.51935e-06
2.17816e-06
4.95086e-06
1.29688e-06
2.39969e-06
2.09983e-06
2.91387e-06
3.40255e-06
3.68097e-06
3.88469e-06
3.51688e-06
2.24546e-06
2.70456e-06
1.44339e-06
6.45693e-06
3.71677e-06
3.49821e-06
2.11834e-06
3.05698e-06
2.34461e-06
3.6556e-06
4.44763e-06
4.92763e-06
5.37475e-06
5.22958e-06
3.25876e-06
4.27399e-06
2.10076e-06
5.13704e-06
4.97621e-06
3.91905e-06
1.9852e-06
1.40501e-06
2.1999e-06
5.26631e-06
6.58968e-06
6.92012e-06
7.64889e-06
6.50424e-06
3.8461e-06
3.33907e-06
2.66665e-06
3.56727e-06
1.6347e-07
7.96027e-07
8.04666e-07
6.7171e-07
5.0071e-07
6.31723e-07
6.68217e-07
6.72815e-07
6.64333e-07
6.27779e-07
5.13156e-07
6.91441e-07
8.06377e-07
8.36955e-07
9.14501e-07
4.277e-06
2.53659e-06
9.44653e-07
7.2068e-07
1.19731e-06
1.58177e-06
1.72852e-06
1.74035e-06
1.40175e-06
7.81348e-07
1.01435e-06
2.85808e-06
5.22566e-06
2.38988e-06
4.13207e-06
3.42092e-06
2.66501e-06
3.35587e-06
4.20348e-06
4.62594e-06
4.96688e-06
5.16156e-06
4.97241e-06
3.74284e-06
2.85613e-06
3.13681e-06
5.74282e-06
4.47572e-06
3.55164e-06
5.04965e-06
4.56146e-06
7.61916e-06
8.54193e-06
8.87937e-06
9.32143e-06
9.70003e-06
9.77905e-06
8.887e-06
6.30083e-06
5.91607e-06
4.3132e-06
5.14468e-06
3.84098e-06
4.39237e-06
2.08052e-06
3.21504e-06
5.57354e-06
7.30086e-06
8.24273e-06
8.24539e-06
7.35011e-06
5.10794e-06
4.25053e-06
4.63973e-06
3.099e-06
3.9207e-07
9.01676e-07
8.4058e-07
7.88082e-07
6.29504e-07
6.78676e-07
7.08619e-07
7.1475e-07
7.04275e-07
6.76411e-07
6.55405e-07
7.86571e-07
8.58904e-07
9.76778e-07
8.70861e-07
4.41097e-06
2.23406e-06
1.07526e-06
9.75504e-07
1.39898e-06
1.79271e-06
1.96191e-06
1.99944e-06
1.67145e-06
1.06046e-06
1.12634e-06
2.75367e-06
5.70251e-06
2.42353e-06
4.16691e-06
1.85519e-06
2.56603e-06
2.51115e-06
3.2529e-06
3.64915e-06
3.94186e-06
4.2106e-06
4.05865e-06
2.9581e-06
2.59564e-06
1.72386e-06
5.65535e-06
4.89132e-06
3.07108e-06
2.30818e-06
3.07929e-06
2.61282e-06
4.13152e-06
4.84897e-06
5.23953e-06
5.52718e-06
5.37905e-06
3.83962e-06
4.25869e-06
2.408e-06
3.34425e-06
5.10465e-06
5.19222e-06
2.98491e-06
1.77637e-06
1.88462e-06
5.19569e-06
6.64598e-06
6.94873e-06
7.50219e-06
6.93068e-06
3.74598e-06
3.57277e-06
2.61463e-06
3.69033e-06
9.29769e-07