0 	0 	0 	0
5.01672e-05 	0.000425987 	1.12675e-05 	0.0178265
0.000100334 	0.000114115 	2.03739e-05 	0.0313455
0.000150502 	-0.000315153 	2.65915e-05 	0.0436066
0.000200669 	-0.000581269 	2.81811e-05 	0.0556727
0.000250836 	-0.000726664 	2.8257e-05 	0.0673118
0.000301003 	-0.000819289 	2.6915e-05 	0.0782733
0.000351171 	-0.000887156 	2.46308e-05 	0.0884821
0.000401338 	-0.000942731 	2.15063e-05 	0.0979218
0.000451505 	-0.000991228 	1.7522e-05 	0.106602
0.000501672 	-0.00103326 	1.2716e-05 	0.114556
0.000551839 	-0.00106681 	7.19514e-06 	0.121847
0.000602007 	-0.0010901 	1.02064e-06 	0.128548
0.000652174 	-0.0011038 	-5.81187e-06 	0.134727
0.000702341 	-0.00111087 	-1.32978e-05 	0.140435
0.000752508 	-0.00111481 	-2.13835e-05 	0.145708
0.000802676 	-0.00111797 	-2.99711e-05 	0.150577
0.000852843 	-0.00112149 	-3.90073e-05 	0.155024
0.00090301 	-0.00112558 	-4.84015e-05 	0.159148
0.000953177 	-0.00113022 	-5.8184e-05 	0.162985
0.00100334 	-0.00113534 	-6.83636e-05 	0.166566
0.00105351 	-0.0011409 	-7.89254e-05 	0.169919
0.00110368 	-0.00114681 	-8.98414e-05 	0.173066
0.00115385 	-0.00115309 	-0.000101111 	0.175985
0.00120401 	-0.00115958 	-0.000112527 	0.178752
0.00125418 	-0.00116621 	-0.000124059 	0.181383
0.00130435 	-0.00117294 	-0.000135691 	0.183891
0.00135452 	-0.0011797 	-0.000147455 	0.186256
0.00140468 	-0.00118653 	-0.000159125 	0.188511
0.00145485 	-0.00119342 	-0.00017065 	0.190683
0.00150502 	-0.00120036 	-0.000182007 	0.192779
0.00155518 	-0.00120727 	-0.000193429 	0.194767
0.00160535 	-0.00121404 	-0.000205034 	0.196693
0.00165552 	-0.00122069 	-0.000216763 	0.198565
0.00170569 	-0.00122718 	-0.000228547 	0.200362
0.00175585 	-0.00123375 	-0.000240106 	0.202099
0.00180602 	-0.00124042 	-0.000251442 	0.203796
0.00185619 	-0.00124726 	-0.000262327 	0.205435
0.00190635 	-0.00125419 	-0.000272761 	0.207023
0.00195652 	-0.00126117 	-0.000282886 	0.208579
0.00200669 	-0.00126826 	-0.0002924 	0.21008
0.00205686 	-0.00127574 	-0.000301527 	0.21154
0.00210702 	-0.00128348 	-0.000310404 	0.212974
0.00215719 	-0.00129275 	-0.000319319 	0.214343
0.00220736 	-0.00130287 	-0.0003284 	0.215687
0.00225753 	-0.00131437 	-0.000337745 	0.216989
0.00230769 	-0.0013274 	-0.000347012 	0.21824
0.00235786 	-0.00134107 	-0.000356116 	0.219469
0.00240803 	-0.00135614 	-0.000362362 	0.220626
0.00245819 	-0.0013717 	-0.000369304 	0.221754
0.00250836 	-0.00138822 	-0.000377658 	0.222826
0.00255853 	-0.00140636 	-0.000392659 	0.22389
0.0026087 	-0.00142565 	-0.000412378 	0.22495
0.00265886 	-0.00144609 	-0.000428897 	0.226175
0.00270903 	-0.0014668 	-0.000444657 	0.22744
0.0027592 	-0.00148267 	-0.000436064 	0.229114
0.00280936 	-0.00149849 	-0.000423813 	0.23083
0.00285953 	-0.0015141 	-0.000392198 	0.232765
0.0029097 	-0.00153095 	-0.00036609 	0.23456
0.00295987 	-0.00155092 	-0.000353845 	0.235998
0.00301003 	-0.00155036 	-0.0003559 	0.237207
0.0030602 	-0.00151581 	-0.000381629 	0.238033
0.00311037 	-0.00142568 	-0.00041171 	0.23895
0.00316054 	-0.00126325 	-0.000447452 	0.239986
0.0032107 	-0.00105832 	-0.000483116 	0.24127
0.00326087 	-0.000803082 	-0.000518687 	0.242849
0.00331104 	-0.000610687 	-0.000535496 	0.244337
0.0033612 	-0.000496416 	-0.000528981 	0.24571
0.00341137 	-0.000477072 	-0.000506311 	0.246794
0.00346154 	-0.000601588 	-0.00045916 	0.247439
0.00351171 	-0.000742784 	-0.000418717 	0.248003
0.00356187 	-0.000920665 	-0.000393025 	0.24839
0.00361204 	-0.00108542 	-0.000373695 	0.248801
0.00366221 	-0.00119431 	-0.000381446 	0.249313
0.00371237 	-0.00130125 	-0.000389483 	0.249829
0.00376254 	-0.00134457 	-0.000406794 	0.250476
0.00381271 	-0.0013879 	-0.000424105 	0.251123
0.00386288 	-0.00140865 	-0.000432347 	0.251799
0.00391304 	-0.00142479 	-0.000438739 	0.252482
0.00396321 	-0.00143798 	-0.000439852 	0.253152
0.00401338 	-0.00144913 	-0.000437326 	0.253815
0.00406355 	-0.00146007 	-0.000434783 	0.254468
0.00411371 	-0.00147056 	-0.000432203 	0.2551
0.00416388 	-0.00148105 	-0.000429622 	0.255733
0.00421405 	-0.00149127 	-0.000428261 	0.256337
0.00426421 	-0.00150149 	-0.000426907 	0.256941
0.00431438 	-0.00151166 	-0.000425768 	0.257526
0.00436455 	-0.00152179 	-0.000424753 	0.258101
0.00441472 	-0.00153188 	-0.000423731 	0.258669
0.00446488 	-0.00154182 	-0.00042268 	0.259215
0.00451505 	-0.00155176 	-0.000421629 	0.259761
0.00456522 	-0.00156151 	-0.000420399 	0.260284
0.00461538 	-0.00157122 	-0.00041912 	0.2608
0.00466555 	-0.0015809 	-0.000417774 	0.261308
0.00471572 	-0.0015905 	-0.000416264 	0.261796
0.00476589 	-0.00160011 	-0.000414754 	0.262284
0.00481605 	-0.00160957 	-0.000413022 	0.262751
0.00486622 	-0.00161898 	-0.000411218 	0.263211
0.00491639 	-0.00162832 	-0.000409317 	0.263666
0.00496656 	-0.00163734 	-0.00040696 	0.264099
0.00501672 	-0.00164636 	-0.000404602 	0.264532
0.00506689 	-0.00165529 	-0.000401836 	0.264951
0.00511706 	-0.00166414 	-0.000398734 	0.265358
0.00516722 	-0.001673 	-0.000395632 	0.265764
0.00521739 	-0.00168231 	-0.000392049 	0.266149
0.00526756 	-0.00169168 	-0.000388396 	0.266531
0.00531773 	-0.00170128 	-0.000384696 	0.266909
0.00536789 	-0.00171211 	-0.000380734 	0.267266
0.00541806 	-0.00172293 	-0.000376772 	0.267624
0.00546823 	-0.00173458 	-0.00037272 	0.267973
0.00551839 	-0.00174754 	-0.000368521 	0.268308
0.00556856 	-0.0017605 	-0.000364323 	0.268643
0.00561873 	-0.00177468 	-0.000360125 	0.268966
0.0056689 	-0.00178982 	-0.000355927 	0.269279
0.00571906 	-0.00180496 	-0.00035173 	0.269592
0.00576923 	-0.00182159 	-0.000347579 	0.269891
0.0058194 	-0.0018389 	-0.000343448 	0.270182
0.00586957 	-0.0018562 	-0.000339318 	0.270474
0.00591973 	-0.00187566 	-0.000335369 	0.270748
0.0059699 	-0.00189576 	-0.000331475 	0.271017
0.00602007 	-0.00191587 	-0.000327581 	0.271287
0.00607023 	-0.00193893 	-0.000322157 	0.271537
0.0061204 	-0.00196275 	-0.000316335 	0.271783
0.00617057 	-0.00198657 	-0.000310513 	0.272029
0.00622074 	-0.00200676 	-0.000300057 	0.27227
0.0062709 	-0.00202583 	-0.000288179 	0.272509
0.00632107 	-0.0020449 	-0.000276302 	0.272748
0.00637124 	-0.00204594 	-0.000265593 	0.273019
0.0064214 	-0.0020386 	-0.000255429 	0.273305
0.00647157 	-0.00203126 	-0.000245265 	0.27359
0.00652174 	-0.0020118 	-0.000244092 	0.273899
0.00657191 	-0.00198221 	-0.000250437 	0.274227
0.00662207 	-0.00195262 	-0.000256781 	0.274555
0.00667224 	-0.00193285 	-0.000263143 	0.274849
0.00672241 	-0.00193129 	-0.00026954 	0.275079
0.00677258 	-0.00192974 	-0.000275937 	0.27531
0.00682274 	-0.00193228 	-0.000279162 	0.275527
0.00687291 	-0.00197203 	-0.000253577 	0.275615
0.00692308 	-0.00201178 	-0.000227992 	0.275704
0.00697324 	-0.00205154 	-0.000202407 	0.275792
0.00702341 	-0.0020661 	-0.000173556 	0.27595
0.00707358 	-0.00207395 	-0.000143834 	0.276126
0.00712375 	-0.00208179 	-0.000114112 	0.276301
0.00717391 	-0.00206813 	-0.000107195 	0.276545
0.00722408 	-0.00202483 	-0.000131719 	0.276881
0.00727425 	-0.00198153 	-0.000156243 	0.277217
0.00732441 	-0.00193823 	-0.000180767 	0.277554
0.00737458 	-0.00197922 	-0.000199903 	0.277608
0.00742475 	-0.00202099 	-0.00021899 	0.27766
0.00747492 	-0.00206275 	-0.000238076 	0.277712
0.00752508 	-0.0021573 	-0.000221664 	0.277588
0.00757525 	-0.00230463 	-0.000169753 	0.277287
0.00762542 	-0.00245196 	-0.000117842 	0.276986
0.00767559 	-0.00259878 	-6.60475e-05 	0.276686
0.00772575 	-0.00268995 	-2.71014e-05 	0.276539
0.00777592 	-0.00278112 	1.18448e-05 	0.276393
0.00782609 	-0.00287228 	5.07909e-05 	0.276246
0.00787625 	-0.00287519 	5.20751e-05 	0.276326
0.00792642 	-0.00281408 	2.60404e-05 	0.276569
0.00797659 	-0.00275298 	5.61577e-09 	0.276812
0.00802676 	-0.00267864 	-2.55359e-05 	0.277072
0.00807692 	-0.00255469 	-4.92277e-05 	0.277393
0.00812709 	-0.00243075 	-7.29195e-05 	0.277715
0.00817726 	-0.00230681 	-9.66113e-05 	0.278036
0.00822742 	-0.00228629 	-7.46231e-05 	0.277995
0.00827759 	-0.00227716 	-4.76066e-05 	0.277914
0.00832776 	-0.00226803 	-2.05901e-05 	0.277833
0.00837793 	-0.00232934 	1.41741e-05 	0.277544
0.00842809 	-0.00242866 	5.31205e-05 	0.277142
0.00847826 	-0.00252798 	9.20668e-05 	0.276741
0.00852843 	-0.00261991 	0.0001176 	0.276362
0.0085786 	-0.00270302 	0.000127087 	0.27601
0.00862876 	-0.00278613 	0.000136575 	0.275658
0.00867893 	-0.00285209 	0.000139937 	0.275348
0.0087291 	-0.00288116 	0.00013013 	0.275127
0.00877926 	-0.00291022 	0.000120323 	0.274907
0.00882943 	-0.00293189 	0.000110773 	0.274699
0.0088796 	-0.00292943 	0.000102058 	0.274533
0.00892977 	-0.00292698 	9.33431e-05 	0.274367
0.00897993 	-0.00292333 	8.64006e-05 	0.274197
0.0090301 	-0.0029151 	8.6263e-05 	0.274015
0.00908027 	-0.00290688 	8.61254e-05 	0.273833
0.00913043 	-0.0028989 	8.62731e-05 	0.273643
0.0091806 	-0.00289177 	8.73666e-05 	0.273428
0.00923077 	-0.00288463 	8.84602e-05 	0.273212
0.00928094 	-0.00287757 	8.89686e-05 	0.272987
0.0093311 	-0.00287066 	8.81698e-05 	0.272739
0.00938127 	-0.00286374 	8.7371e-05 	0.272491
0.00943144 	-0.00285663 	8.6381e-05 	0.27223
0.00948161 	-0.00284925 	8.51457e-05 	0.27195
0.00953177 	-0.00284187 	8.39104e-05 	0.271669
0.00958194 	-0.00283382 	8.2469e-05 	0.271369
0.00963211 	-0.00282535 	8.09e-05 	0.271056
0.00968227 	-0.00281687 	7.9331e-05 	0.270743
0.00973244 	-0.00280698 	7.74262e-05 	0.270402
0.00978261 	-0.00279683 	7.54607e-05 	0.270055
0.00983278 	-0.00278642 	7.34631e-05 	0.269704
0.00988294 	-0.00277419 	7.12407e-05 	0.269324
0.00993311 	-0.00276197 	6.90183e-05 	0.268944
0.00998328 	-0.00274877 	6.6634e-05 	0.268549
0.0100334 	-0.00273439 	6.40526e-05 	0.268136
0.0100836 	-0.00272002 	6.14711e-05 	0.267723
0.0101338 	-0.00270407 	5.83439e-05 	0.267283
0.0101839 	-0.00268779 	5.51001e-05 	0.266838
0.0102341 	-0.00267116 	5.19577e-05 	0.266384
0.0102843 	-0.00265341 	4.91303e-05 	0.265905
0.0103344 	-0.00263567 	4.63029e-05 	0.265426
0.0103846 	-0.00261738 	4.37626e-05 	0.264922
0.0104348 	-0.00259886 	4.13407e-05 	0.264408
0.0104849 	-0.00258024 	3.88709e-05 	0.263886
0.0105351 	-0.00256121 	3.62293e-05 	0.263331
0.0105853 	-0.00254218 	3.35876e-05 	0.262776
0.0106355 	-0.00252264 	3.24393e-05 	0.262184
0.0106856 	-0.00250294 	3.17342e-05 	0.261581
0.0107358 	-0.00248329 	3.14599e-05 	0.260961
0.010786 	-0.00246372 	3.19266e-05 	0.260311
0.0108361 	-0.00244415 	3.23805e-05 	0.259662
0.0108863 	-0.00242577 	3.08397e-05 	0.258973
0.0109365 	-0.00240739 	2.92988e-05 	0.258285
0.0109866 	-0.00239005 	2.65019e-05 	0.257572
0.0110368 	-0.00237317 	2.3132e-05 	0.256847
0.011087 	-0.00235693 	1.87848e-05 	0.256108
0.0111371 	-0.00234159 	1.30194e-05 	0.255346
0.0111873 	-0.00232662 	7.12856e-06 	0.254577
0.0112375 	-0.00231347 	6.2229e-07 	0.253777
0.0112876 	-0.00230032 	-5.88397e-06 	0.252976
0.0113378 	-0.00228528 	-9.77047e-07 	0.252153
0.011388 	-0.00227019 	4.28007e-06 	0.251329
0.0114381 	-0.00223291 	2.00661e-05 	0.250547
0.0114883 	-0.00219042 	3.8325e-05 	0.249774
0.0115385 	-0.00209824 	4.64271e-05 	0.249119
0.0115886 	-0.00198346 	4.99112e-05 	0.248516
0.0116388 	-0.00182039 	2.8975e-05 	0.248007
0.011689 	-0.00162546 	-8.07499e-06 	0.247558
0.0117391 	-0.00145985 	-5.16501e-05 	0.246945
0.0117893 	-0.00131783 	-0.000100474 	0.246199
0.0118395 	-0.00131069 	-0.000115284 	0.244992
0.0118896 	-0.00141748 	-0.000101356 	0.243396
0.0119398 	-0.00161493 	-6.37858e-05 	0.241557
0.01199 	-0.00188207 	-8.03657e-06 	0.239531
0.0120401 	-0.0021038 	2.8361e-05 	0.237695
0.0120903 	-0.0022981 	5.30692e-05 	0.235973
0.0121405 	-0.00239776 	4.96605e-05 	0.234509
0.0121906 	-0.00245982 	3.50846e-05 	0.233146
0.0122408 	-0.00245402 	1.38641e-05 	0.231911
0.012291 	-0.00243545 	-8.59534e-06 	0.230699
0.0123411 	-0.00240657 	-1.14236e-05 	0.229445
0.0123913 	-0.0023796 	-1.34806e-05 	0.228172
0.0124415 	-0.0023606 	-1.229e-05 	0.226817
0.0124916 	-0.0023436 	-1.31794e-05 	0.225421
0.0125418 	-0.00232941 	-1.69986e-05 	0.223967
0.012592 	-0.00231621 	-2.02e-05 	0.222449
0.0126421 	-0.00230351 	-2.30965e-05 	0.220901
0.0126923 	-0.002291 	-2.57317e-05 	0.219265
0.0127425 	-0.00227849 	-2.82211e-05 	0.217599
0.0127926 	-0.00226595 	-3.03503e-05 	0.215864
0.0128428 	-0.00225184 	-3.0778e-05 	0.214073
0.012893 	-0.00223676 	-3.01432e-05 	0.212245
0.0129431 	-0.00220996 	-2.73431e-05 	0.210343
0.0129933 	-0.00217401 	-2.54397e-05 	0.208418
0.0130435 	-0.00212409 	-2.49568e-05 	0.206459
0.0130936 	-0.00205904 	-2.91675e-05 	0.204422
0.0131438 	-0.00199473 	-3.45979e-05 	0.202307
0.013194 	-0.00194052 	-4.05784e-05 	0.200038
0.0132441 	-0.00192451 	-3.9721e-05 	0.197521
0.0132943 	-0.00193208 	-3.44831e-05 	0.194849
0.0133445 	-0.00197055 	-2.33082e-05 	0.191972
0.0133946 	-0.00200715 	-1.33931e-05 	0.188977
0.0134448 	-0.00202862 	-6.99812e-06 	0.18593
0.013495 	-0.00202648 	-5.80029e-06 	0.182843
0.0135452 	-0.00198791 	-9.75096e-06 	0.179653
0.0135953 	-0.00194281 	-1.24104e-05 	0.176332
0.0136455 	-0.00189771 	-1.30451e-05 	0.172851
0.0136957 	-0.00186585 	-1.0198e-05 	0.169129
0.0137458 	-0.00185485 	-5.24314e-06 	0.165106
0.013796 	-0.00185353 	-3.09933e-07 	0.16086
0.0138462 	-0.00185721 	4.00746e-06 	0.156392
0.0138963 	-0.00186023 	7.29331e-06 	0.1517
0.0139465 	-0.00185661 	9.99703e-06 	0.146701
0.0139967 	-0.00184755 	1.25623e-05 	0.141442
0.0140468 	-0.00183383 	1.50605e-05 	0.135906
0.014097 	-0.00181583 	1.7547e-05 	0.130069
0.0141472 	-0.00179345 	2.00558e-05 	0.123907
0.0141973 	-0.00176581 	2.2579e-05 	0.117397
0.0142475 	-0.00173117 	2.48261e-05 	0.110457
0.0142977 	-0.00169291 	2.65733e-05 	0.103123
0.0143478 	-0.00165608 	2.78423e-05 	0.0953681
0.014398 	-0.00162622 	2.866e-05 	0.0871718
0.0144482 	-0.00160726 	2.89699e-05 	0.0785473
0.0144983 	-0.00159993 	2.8626e-05 	0.0695626
0.0145485 	-0.00160114 	2.74461e-05 	0.0603492
0.0145987 	-0.0016041 	2.52787e-05 	0.0510974
0.0146488 	-0.0015984 	2.20281e-05 	0.042037
0.014699 	-0.00156911 	1.76736e-05 	0.0334082
0.0147492 	-0.00149365 	1.23734e-05 	0.0254428
0.0147993 	-0.00133473 	6.63809e-06 	0.0183796
0.0148495 	-0.00102811 	1.13505e-06 	0.0125233
0.0148997 	-0.000550573 	-2.0524e-06 	0.00804603
0.0149498 	-9.85966e-05 	-2.13016e-06 	0.00431555
0.015 	0 	0 	0
