-0.0075 	373
-0.00715932 	355.047
-0.00676191 	352.161
-0.00629832 	351.055
-0.00575752 	350.403
-0.00512667 	349.912
-0.00439077 	349.494
-0.00353231 	349.112
-0.00253089 	348.743
-0.00136271 	348.366
0 	347.962
0.00136271 	347.531
0.00253089 	347.091
0.00353231 	346.655
0.00439077 	346.208
0.00512667 	345.715
0.00575752 	345.105
0.00629832 	344.205
0.00676191 	342.26
0.00715932 	333.01
0.0075 	313
