0 	0 	0 	0
0 	-6.94351e-37 	-2.61273e-36 	1.85637e-31
5.01672e-05 	-1.25902e-07 	-2.86376e-07 	0.0173165
5.01672e-05 	-1.25902e-07 	-2.86376e-07 	0.0173165
0.000100334 	-6.9281e-07 	-9.4311e-07 	0.0333065
0.000150502 	-1.31495e-06 	-2.02279e-06 	0.0481384
0.000150502 	-1.31495e-06 	-2.02279e-06 	0.0481384
0.000200669 	-1.85809e-06 	-3.52059e-06 	0.0619025
0.000200669 	-1.85809e-06 	-3.52059e-06 	0.0619025
0.000250836 	-2.35351e-06 	-5.43878e-06 	0.0746781
0.000301003 	-2.82891e-06 	-7.76554e-06 	0.0865318
0.000301003 	-2.82891e-06 	-7.76554e-06 	0.0865318
0.000351171 	-3.29117e-06 	-1.04973e-05 	0.0975077
0.000401338 	-3.74087e-06 	-1.36411e-05 	0.107628
0.000451505 	-4.17524e-06 	-1.72205e-05 	0.116908
0.000451505 	-4.17524e-06 	-1.72205e-05 	0.116908
0.000501672 	-4.58975e-06 	-2.12721e-05 	0.125375
0.000551839 	-4.97968e-06 	-2.58341e-05 	0.133073
0.000551839 	-4.97968e-06 	-2.58341e-05 	0.133073
0.000602007 	-5.34121e-06 	-3.09364e-05 	0.140064
0.000602007 	-5.34121e-06 	-3.09364e-05 	0.140064
0.000652174 	-5.6721e-06 	-3.66004e-05 	0.146419
0.000652174 	-5.6721e-06 	-3.66004e-05 	0.146419
0.000702341 	-5.9717e-06 	-4.28439e-05 	0.152209
0.000702341 	-5.9717e-06 	-4.28439e-05 	0.152209
0.000752508 	-6.24053e-06 	-4.9682e-05 	0.157503
0.000802676 	-6.47944e-06 	-5.7129e-05 	0.162358
0.000852843 	-6.68548e-06 	-6.52816e-05 	0.166766
0.000852843 	-6.68548e-06 	-6.52816e-05 	0.166766
0.00090301 	-6.86502e-06 	-7.40136e-05 	0.170838
0.00090301 	-6.86502e-06 	-7.40136e-05 	0.170838
0.000953177 	-7.02002e-06 	-8.32752e-05 	0.174612
0.00100334 	-7.15243e-06 	-9.30152e-05 	0.178125
0.00100334 	-7.15243e-06 	-9.30152e-05 	0.178125
0.00105351 	-7.2642e-06 	-0.000103184 	0.181409
0.00105351 	-7.2642e-06 	-0.000103184 	0.181409
0.00110368 	-7.35668e-06 	-0.000113745 	0.184487
0.00115385 	-7.42707e-06 	-0.000124742 	0.187336
0.00120401 	-7.48254e-06 	-0.000136022 	0.190035
0.00120401 	-7.48254e-06 	-0.000136022 	0.190035
0.00130435 	-7.55397e-06 	-0.000159292 	0.19504
0.00130435 	-7.55397e-06 	-0.000159292 	0.19504
0.00135452 	-7.56879e-06 	-0.000171271 	0.197339
0.00135452 	-7.56879e-06 	-0.000171271 	0.197339
0.00140468 	-7.57199e-06 	-0.000183411 	0.199529
0.00145485 	-7.56605e-06 	-0.00019566 	0.201634
0.00145485 	-7.56605e-06 	-0.00019566 	0.201634
0.00150502 	-7.55161e-06 	-0.000208 	0.203663
0.00150502 	-7.55161e-06 	-0.000208 	0.203663
0.00155518 	-7.52463e-06 	-0.00022043 	0.205584
0.00155518 	-7.52463e-06 	-0.00022043 	0.205584
0.00160535 	-7.49037e-06 	-0.000232881 	0.207445
0.00160535 	-7.49037e-06 	-0.000232881 	0.207445
0.00165552 	-7.44964e-06 	-0.000245339 	0.209253
0.00165552 	-7.44964e-06 	-0.000245339 	0.209253
0.00170569 	-7.40012e-06 	-0.000257772 	0.210991
0.00170569 	-7.40012e-06 	-0.000257772 	0.210991
0.00175585 	-7.34357e-06 	-0.000270133 	0.212673
0.00175585 	-7.34357e-06 	-0.000270133 	0.212673
0.00180602 	-7.2822e-06 	-0.000282427 	0.214318
0.00180602 	-7.2822e-06 	-0.000282427 	0.214318
0.00185619 	-7.21388e-06 	-0.000294594 	0.215909
0.00185619 	-7.21388e-06 	-0.000294594 	0.215909
0.00190635 	-7.1395e-06 	-0.000306595 	0.217455
0.00190635 	-7.1395e-06 	-0.000306595 	0.217455
0.00195652 	-7.0613e-06 	-0.000318481 	0.218973
0.00195652 	-7.0613e-06 	-0.000318481 	0.218973
0.00200669 	-6.97651e-06 	-0.000330127 	0.220444
0.00200669 	-6.97651e-06 	-0.000330127 	0.220444
0.00205686 	-6.88709e-06 	-0.000341561 	0.221883
0.00210702 	-6.7946e-06 	-0.000352854 	0.2233
0.00210702 	-6.7946e-06 	-0.000352854 	0.2233
0.00215719 	-6.69489e-06 	-0.000363747 	0.224668
0.00220736 	-6.59248e-06 	-0.000374464 	0.226018
0.00225753 	-6.48575e-06 	-0.000384901 	0.227339
0.00225753 	-6.48575e-06 	-0.000384901 	0.227339
0.00230769 	-6.37409e-06 	-0.00039497 	0.228629
0.00230769 	-6.37409e-06 	-0.00039497 	0.228629
0.00235786 	-6.2603e-06 	-0.000404879 	0.229904
0.00235786 	-6.2603e-06 	-0.000404879 	0.229904
0.00240803 	-6.14025e-06 	-0.000414266 	0.23114
0.00240803 	-6.14025e-06 	-0.000414266 	0.23114
0.00245819 	-6.01811e-06 	-0.000423461 	0.232362
0.00245819 	-6.01811e-06 	-0.000423461 	0.232362
0.00250836 	-5.8917e-06 	-0.000432267 	0.233557
0.00250836 	-5.8917e-06 	-0.000432267 	0.233557
0.00255853 	-5.76166e-06 	-0.000440713 	0.234729
0.0026087 	-5.62905e-06 	-0.000448905 	0.235884
0.0026087 	-5.62905e-06 	-0.000448905 	0.235884
0.00265886 	-5.49152e-06 	-0.000456579 	0.237007
0.00270903 	-5.35282e-06 	-0.00046413 	0.238124
0.00270903 	-5.35282e-06 	-0.00046413 	0.238124
0.0027592 	-5.2081e-06 	-0.000471019 	0.239201
0.00280936 	-5.06242e-06 	-0.000477799 	0.240272
0.00280936 	-5.06242e-06 	-0.000477799 	0.240272
0.00285953 	-4.91164e-06 	-0.000484007 	0.241311
0.00285953 	-4.91164e-06 	-0.000484007 	0.241311
0.0029097 	-4.75912e-06 	-0.00049002 	0.242339
0.0029097 	-4.75912e-06 	-0.00049002 	0.242339
0.00295987 	-4.60221e-06 	-0.000495542 	0.24334
0.00295987 	-4.60221e-06 	-0.000495542 	0.24334
0.00301003 	-4.44295e-06 	-0.00050081 	0.244326
0.0030602 	-4.27982e-06 	-0.000505656 	0.245289
0.00311037 	-4.11397e-06 	-0.000510222 	0.246235
0.00311037 	-4.11397e-06 	-0.000510222 	0.246235
0.00316054 	-3.9446e-06 	-0.00051442 	0.24716
0.00316054 	-3.9446e-06 	-0.00051442 	0.24716
0.00326087 	-3.59686e-06 	-0.000521934 	0.248954
0.00326087 	-3.59686e-06 	-0.000521934 	0.248954
0.00331104 	-3.41857e-06 	-0.000525278 	0.249823
0.0033612 	-3.23685e-06 	-0.000528315 	0.250672
0.0033612 	-3.23685e-06 	-0.000528315 	0.250672
0.00341137 	-3.05252e-06 	-0.000531153 	0.251506
0.00341137 	-3.05252e-06 	-0.000531153 	0.251506
0.00346154 	-2.86422e-06 	-0.000533689 	0.252316
0.00346154 	-2.86422e-06 	-0.000533689 	0.252316
0.00351171 	-2.67363e-06 	-0.000536089 	0.253115
0.00356187 	-2.47799e-06 	-0.000538187 	0.253889
0.00356187 	-2.47799e-06 	-0.000538187 	0.253889
0.00361204 	-2.28086e-06 	-0.000540212 	0.254655
0.00366221 	-2.07737e-06 	-0.000541926 	0.255393
0.00366221 	-2.07737e-06 	-0.000541926 	0.255393
0.00371237 	-1.87366e-06 	-0.00054363 	0.256131
0.00371237 	-1.87366e-06 	-0.00054363 	0.256131
0.00376254 	-1.66262e-06 	-0.000545006 	0.256836
0.00376254 	-1.66262e-06 	-0.000545006 	0.256836
0.00381271 	-1.45158e-06 	-0.000546383 	0.257541
0.00381271 	-1.45158e-06 	-0.000546383 	0.257541
0.00386288 	-1.23501e-06 	-0.00054751 	0.258219
0.00391304 	-1.01731e-06 	-0.000548587 	0.258892
0.00391304 	-1.01731e-06 	-0.000548587 	0.258892
0.00396321 	-7.96192e-07 	-0.000549508 	0.259546
0.00401338 	-5.7272e-07 	-0.00055032 	0.260187
0.00401338 	-5.7272e-07 	-0.00055032 	0.260187
0.00406355 	-3.47655e-07 	-0.00055106 	0.260818
0.00406355 	-3.47655e-07 	-0.00055106 	0.260818
0.00411371 	-1.19098e-07 	-0.000551642 	0.261426
0.00411371 	-1.19098e-07 	-0.000551642 	0.261426
0.00421405 	3.42392e-07 	-0.000552612 	0.262612
0.00421405 	3.42392e-07 	-0.000552612 	0.262612
0.00426421 	5.75353e-07 	-0.000553 	0.263188
0.00426421 	5.75353e-07 	-0.000553 	0.263188
0.00431438 	8.10604e-07 	-0.000553286 	0.263744
0.00431438 	8.10604e-07 	-0.000553286 	0.263744
0.00436455 	1.04719e-06 	-0.000553515 	0.264288
0.00436455 	1.04719e-06 	-0.000553515 	0.264288
0.00441472 	1.28439e-06 	-0.000553715 	0.264825
0.00441472 	1.28439e-06 	-0.000553715 	0.264825
0.00446488 	1.52371e-06 	-0.000553821 	0.265336
0.00446488 	1.52371e-06 	-0.000553821 	0.265336
0.00451505 	1.76302e-06 	-0.000553926 	0.265848
0.00451505 	1.76302e-06 	-0.000553926 	0.265848
0.00456522 	2.00369e-06 	-0.000553964 	0.266334
0.00456522 	2.00369e-06 	-0.000553964 	0.266334
0.00461538 	2.24474e-06 	-0.000553982 	0.266813
0.00461538 	2.24474e-06 	-0.000553982 	0.266813
0.00466555 	2.48596e-06 	-0.000553985 	0.267282
0.00471572 	2.7276e-06 	-0.00055395 	0.267729
0.00476589 	2.96925e-06 	-0.000553915 	0.268175
0.00476589 	2.96925e-06 	-0.000553915 	0.268175
0.00486622 	3.45153e-06 	-0.000553807 	0.269011
0.00486622 	3.45153e-06 	-0.000553807 	0.269011
0.00491639 	3.69228e-06 	-0.000553751 	0.269419
0.00496656 	3.93157e-06 	-0.000553701 	0.2698
0.00496656 	3.93157e-06 	-0.000553701 	0.2698
0.00501672 	4.17085e-06 	-0.000553651 	0.270182
0.00506689 	4.40846e-06 	-0.000553617 	0.270545
0.00511706 	4.6447e-06 	-0.000553597 	0.270894
0.00511706 	4.6447e-06 	-0.000553597 	0.270894
0.00521739 	5.11332e-06 	-0.000553599 	0.271564
0.00521739 	5.11332e-06 	-0.000553599 	0.271564
0.00526756 	5.34517e-06 	-0.000553626 	0.271881
0.00526756 	5.34517e-06 	-0.000553626 	0.271881
0.00531773 	5.57614e-06 	-0.000553664 	0.272192
0.00536789 	5.80223e-06 	-0.000553752 	0.272477
0.00536789 	5.80223e-06 	-0.000553752 	0.272477
0.00541806 	6.02833e-06 	-0.000553841 	0.272762
0.00546823 	6.25171e-06 	-0.000553956 	0.273035
0.00551839 	6.47071e-06 	-0.000554113 	0.273289
0.00551839 	6.47071e-06 	-0.000554113 	0.273289
0.00556856 	6.6897e-06 	-0.000554269 	0.273543
0.00556856 	6.6897e-06 	-0.000554269 	0.273543
0.0056689 	7.11442e-06 	-0.00055469 	0.274002
0.0056689 	7.11442e-06 	-0.00055469 	0.274002
0.00571906 	7.32491e-06 	-0.000554915 	0.274225
0.00576923 	7.52843e-06 	-0.000555184 	0.274428
0.00576923 	7.52843e-06 	-0.000555184 	0.274428
0.0058194 	7.72884e-06 	-0.000555472 	0.274621
0.0058194 	7.72884e-06 	-0.000555472 	0.274621
0.00591973 	8.1205e-06 	-0.000556089 	0.274985
0.00591973 	8.1205e-06 	-0.000556089 	0.274985
0.0059699 	8.30901e-06 	-0.000556429 	0.27515
0.0059699 	8.30901e-06 	-0.000556429 	0.27515
0.00602007 	8.49751e-06 	-0.000556768 	0.275314
0.00607023 	8.67508e-06 	-0.000557136 	0.275456
0.0061204 	8.84979e-06 	-0.000557511 	0.275593
0.0061204 	8.84979e-06 	-0.000557511 	0.275593
0.00617057 	9.0245e-06 	-0.000557886 	0.275729
0.00622074 	9.18724e-06 	-0.000558273 	0.275845
0.00622074 	9.18724e-06 	-0.000558273 	0.275845
0.0062709 	9.34629e-06 	-0.000558663 	0.275954
0.00632107 	9.50535e-06 	-0.000559054 	0.276064
0.00632107 	9.50535e-06 	-0.000559054 	0.276064
0.00637124 	9.65241e-06 	-0.000559443 	0.276156
0.00637124 	9.65241e-06 	-0.000559443 	0.276156
0.0064214 	9.79388e-06 	-0.000559831 	0.276239
0.0064214 	9.79388e-06 	-0.000559831 	0.276239
0.00647157 	9.93536e-06 	-0.000560219 	0.276323
0.00647157 	9.93536e-06 	-0.000560219 	0.276323
0.00652174 	1.00661e-05 	-0.000560588 	0.276392
0.00657191 	1.01878e-05 	-0.000560942 	0.27645
0.00657191 	1.01878e-05 	-0.000560942 	0.27645
0.00662207 	1.03095e-05 	-0.000561295 	0.276508
0.00667224 	1.04235e-05 	-0.000561635 	0.276558
0.00672241 	1.05232e-05 	-0.000561948 	0.276591
0.00672241 	1.05232e-05 	-0.000561948 	0.276591
0.00677258 	1.06229e-05 	-0.00056226 	0.276624
0.00682274 	1.07201e-05 	-0.000562569 	0.276655
0.00682274 	1.07201e-05 	-0.000562569 	0.276655
0.00687291 	1.07952e-05 	-0.000562838 	0.276664
0.00687291 	1.07952e-05 	-0.000562838 	0.276664
0.00692308 	1.08703e-05 	-0.000563108 	0.276673
0.00697324 	1.09454e-05 	-0.000563377 	0.276682
0.00702341 	1.09992e-05 	-0.000563584 	0.276671
0.00707358 	1.10472e-05 	-0.000563775 	0.276656
0.00707358 	1.10472e-05 	-0.000563775 	0.276656
0.00717391 	1.11306e-05 	-0.000564132 	0.276615
0.00717391 	1.11306e-05 	-0.000564132 	0.276615
0.00722408 	1.11483e-05 	-0.000564266 	0.276575
0.00722408 	1.11483e-05 	-0.000564266 	0.276575
0.00727425 	1.11661e-05 	-0.000564399 	0.276536
0.00727425 	1.11661e-05 	-0.000564399 	0.276536
0.00732441 	1.11839e-05 	-0.000564532 	0.276496
0.00732441 	1.11839e-05 	-0.000564532 	0.276496
0.00737458 	1.11685e-05 	-0.000564574 	0.276433
0.00737458 	1.11685e-05 	-0.000564574 	0.276433
0.00742475 	1.11528e-05 	-0.000564616 	0.27637
0.00747492 	1.11371e-05 	-0.000564658 	0.276306
0.00752508 	1.11047e-05 	-0.000564632 	0.276231
0.00752508 	1.11047e-05 	-0.000564632 	0.276231
0.00757525 	1.10554e-05 	-0.000564536 	0.276143
0.00762542 	1.10061e-05 	-0.000564441 	0.276056
0.00767559 	1.09566e-05 	-0.000564345 	0.275969
0.00767559 	1.09566e-05 	-0.000564345 	0.275969
0.00772575 	1.08753e-05 	-0.000564143 	0.275857
0.00777592 	1.0794e-05 	-0.000563941 	0.275746
0.00777592 	1.0794e-05 	-0.000563941 	0.275746
0.00782609 	1.07127e-05 	-0.000563739 	0.275634
0.00787625 	1.06155e-05 	-0.000563454 	0.275509
0.00787625 	1.06155e-05 	-0.000563454 	0.275509
0.00792642 	1.05066e-05 	-0.000563109 	0.275374
0.00797659 	1.03976e-05 	-0.000562764 	0.275239
0.00802676 	1.02839e-05 	-0.00056239 	0.2751
0.00802676 	1.02839e-05 	-0.00056239 	0.2751
0.00807692 	1.01521e-05 	-0.000561905 	0.274942
0.00807692 	1.01521e-05 	-0.000561905 	0.274942
0.00812709 	1.00203e-05 	-0.00056142 	0.274784
0.00817726 	9.88851e-06 	-0.000560935 	0.274626
0.00817726 	9.88851e-06 	-0.000560935 	0.274626
0.00822742 	9.73906e-06 	-0.000560353 	0.274448
0.00827759 	9.58768e-06 	-0.000559759 	0.274268
0.00827759 	9.58768e-06 	-0.000559759 	0.274268
0.00832776 	9.43629e-06 	-0.000559166 	0.274087
0.00832776 	9.43629e-06 	-0.000559166 	0.274087
0.00837793 	9.27433e-06 	-0.000558493 	0.273892
0.00842809 	9.10665e-06 	-0.000557777 	0.273689
0.00842809 	9.10665e-06 	-0.000557777 	0.273689
0.00847826 	8.93897e-06 	-0.000557061 	0.273486
0.00847826 	8.93897e-06 	-0.000557061 	0.273486
0.0085786 	8.58446e-06 	-0.000555453 	0.273047
0.0085786 	8.58446e-06 	-0.000555453 	0.273047
0.00862876 	8.40363e-06 	-0.000554616 	0.272821
0.00867893 	8.21953e-06 	-0.000553741 	0.272588
0.0087291 	8.02843e-06 	-0.000552784 	0.27234
0.00877926 	7.83732e-06 	-0.000551828 	0.272092
0.00882943 	7.64443e-06 	-0.000550843 	0.271839
0.0088796 	7.44568e-06 	-0.000549768 	0.271568
0.0088796 	7.44568e-06 	-0.000549768 	0.271568
0.00892977 	7.24694e-06 	-0.000548692 	0.271297
0.00892977 	7.24694e-06 	-0.000548692 	0.271297
0.00897993 	7.0471e-06 	-0.000547593 	0.271022
0.00897993 	7.0471e-06 	-0.000547593 	0.271022
0.0090301 	6.84308e-06 	-0.0005464 	0.270729
0.00908027 	6.63905e-06 	-0.000545207 	0.270436
0.00908027 	6.63905e-06 	-0.000545207 	0.270436
0.00913043 	6.43429e-06 	-0.000543986 	0.270137
0.0091806 	6.22708e-06 	-0.000542676 	0.269821
0.0091806 	6.22708e-06 	-0.000542676 	0.269821
0.00923077 	6.01986e-06 	-0.000541366 	0.269505
0.00928094 	5.81223e-06 	-0.000540019 	0.269182
0.00928094 	5.81223e-06 	-0.000540019 	0.269182
0.0093311 	5.60365e-06 	-0.000538591 	0.268843
0.00938127 	5.39508e-06 	-0.000537163 	0.268505
0.00938127 	5.39508e-06 	-0.000537163 	0.268505
0.00943144 	5.18661e-06 	-0.000535683 	0.268156
0.00943144 	5.18661e-06 	-0.000535683 	0.268156
0.00948161 	4.97828e-06 	-0.000534136 	0.267794
0.00948161 	4.97828e-06 	-0.000534136 	0.267794
0.00953177 	4.76995e-06 	-0.000532589 	0.267431
0.00953177 	4.76995e-06 	-0.000532589 	0.267431
0.00958194 	4.56265e-06 	-0.000530968 	0.267055
0.00958194 	4.56265e-06 	-0.000530968 	0.267055
0.00963211 	4.35597e-06 	-0.000529301 	0.266669
0.00968227 	4.1493e-06 	-0.000527635 	0.266284
0.00968227 	4.1493e-06 	-0.000527635 	0.266284
0.00973244 	3.94505e-06 	-0.000525864 	0.265878
0.00978261 	3.74125e-06 	-0.000524075 	0.265468
0.00978261 	3.74125e-06 	-0.000524075 	0.265468
0.00983278 	3.53794e-06 	-0.00052227 	0.265056
0.00983278 	3.53794e-06 	-0.00052227 	0.265056
0.00988294 	3.33806e-06 	-0.000520355 	0.264622
0.00993311 	3.13818e-06 	-0.00051844 	0.264188
0.00993311 	3.13818e-06 	-0.00051844 	0.264188
0.00998328 	2.94046e-06 	-0.000516466 	0.263743
0.0100334 	2.74539e-06 	-0.000514422 	0.263284
0.0100836 	2.55032e-06 	-0.000512377 	0.262825
0.0100836 	2.55032e-06 	-0.000512377 	0.262825
0.0101338 	2.35984e-06 	-0.000510223 	0.262345
0.0101839 	2.17034e-06 	-0.000508044 	0.261861
0.0101839 	2.17034e-06 	-0.000508044 	0.261861
0.0102341 	1.98236e-06 	-0.000505831 	0.26137
0.0102341 	1.98236e-06 	-0.000505831 	0.26137
0.0102843 	1.79908e-06 	-0.000503513 	0.26086
0.0103344 	1.61579e-06 	-0.000501195 	0.260349
0.0103344 	1.61579e-06 	-0.000501195 	0.260349
0.0103846 	1.43731e-06 	-0.000498773 	0.25982
0.0103846 	1.43731e-06 	-0.000498773 	0.25982
0.0104348 	1.26079e-06 	-0.000496309 	0.259283
0.0104348 	1.26079e-06 	-0.000496309 	0.259283
0.0104849 	1.08586e-06 	-0.000493812 	0.258739
0.0104849 	1.08586e-06 	-0.000493812 	0.258739
0.0105351 	9.16578e-07 	-0.000491195 	0.258174
0.0105853 	7.47299e-07 	-0.000488577 	0.257609
0.0105853 	7.47299e-07 	-0.000488577 	0.257609
0.0106856 	4.22239e-07 	-0.000483059 	0.256429
0.0106856 	4.22239e-07 	-0.000483059 	0.256429
0.0107358 	2.63498e-07 	-0.00048022 	0.255824
0.010786 	1.09775e-07 	-0.000477274 	0.255201
0.010786 	1.09775e-07 	-0.000477274 	0.255201
0.0108361 	-4.38956e-08 	-0.000474328 	0.254578
0.0108863 	-1.89438e-07 	-0.000471206 	0.253924
0.0108863 	-1.89438e-07 	-0.000471206 	0.253924
0.0109365 	-3.3498e-07 	-0.000468084 	0.25327
0.0109365 	-3.3498e-07 	-0.000468084 	0.25327
0.0109866 	-4.74771e-07 	-0.000464837 	0.252594
0.0110368 	-6.11937e-07 	-0.000461531 	0.251908
0.0110368 	-6.11937e-07 	-0.000461531 	0.251908
0.011087 	-7.45614e-07 	-0.000458146 	0.251208
0.011087 	-7.45614e-07 	-0.000458146 	0.251208
0.0111371 	-8.74224e-07 	-0.000454645 	0.250489
0.0111873 	-1.00135e-06 	-0.000451109 	0.249764
0.0111873 	-1.00135e-06 	-0.000451109 	0.249764
0.0112375 	-1.12119e-06 	-0.000447398 	0.24901
0.0112876 	-1.24103e-06 	-0.000443687 	0.248256
0.0112876 	-1.24103e-06 	-0.000443687 	0.248256
0.0113378 	-1.35214e-06 	-0.000439755 	0.247466
0.0113378 	-1.35214e-06 	-0.000439755 	0.247466
0.011388 	-1.46299e-06 	-0.000435816 	0.246675
0.0114381 	-1.5664e-06 	-0.000431672 	0.245853
0.0114381 	-1.5664e-06 	-0.000431672 	0.245853
0.0114883 	-1.66807e-06 	-0.000427478 	0.245023
0.0115385 	-1.76323e-06 	-0.000423083 	0.244163
0.0115385 	-1.76323e-06 	-0.000423083 	0.244163
0.0115886 	-1.85542e-06 	-0.000418596 	0.243289
0.0116388 	-1.94174e-06 	-0.000413905 	0.242387
0.0116388 	-1.94174e-06 	-0.000413905 	0.242387
0.011689 	-2.02417e-06 	-0.000409079 	0.241466
0.0117391 	-2.10121e-06 	-0.000404037 	0.240516
0.0117893 	-2.17391e-06 	-0.000398821 	0.239542
0.0118395 	-2.24152e-06 	-0.000393371 	0.238537
0.0118395 	-2.24152e-06 	-0.000393371 	0.238537
0.0118896 	-2.30484e-06 	-0.000387722 	0.237506
0.0119398 	-2.36316e-06 	-0.000381811 	0.236439
0.0119398 	-2.36316e-06 	-0.000381811 	0.236439
0.01199 	-2.41762e-06 	-0.0003757 	0.235346
0.0120401 	-2.46686e-06 	-0.000369292 	0.23421
0.0120401 	-2.46686e-06 	-0.000369292 	0.23421
0.0120903 	-2.51293e-06 	-0.000362704 	0.233049
0.0120903 	-2.51293e-06 	-0.000362704 	0.233049
0.0121906 	-2.59126e-06 	-0.000348701 	0.230605
0.0121906 	-2.59126e-06 	-0.000348701 	0.230605
0.0122408 	-2.62278e-06 	-0.000341223 	0.229309
0.012291 	-2.65307e-06 	-0.000333668 	0.228
0.012291 	-2.65307e-06 	-0.000333668 	0.228
0.0123411 	-2.676e-06 	-0.00032563 	0.22661
0.0123913 	-2.6976e-06 	-0.000317501 	0.225204
0.0123913 	-2.6976e-06 	-0.000317501 	0.225204
0.0124415 	-2.7136e-06 	-0.000308988 	0.223728
0.0124415 	-2.7136e-06 	-0.000308988 	0.223728
0.0124916 	-2.72693e-06 	-0.000300284 	0.222214
0.0124916 	-2.72693e-06 	-0.000300284 	0.222214
0.0125418 	-2.73649e-06 	-0.000291311 	0.220647
0.012592 	-2.74208e-06 	-0.000282047 	0.219015
0.0126421 	-2.74571e-06 	-0.000272641 	0.217351
0.0126421 	-2.74571e-06 	-0.000272641 	0.217351
0.0126923 	-2.7442e-06 	-0.000262855 	0.215591
0.0127425 	-2.74114e-06 	-0.000252957 	0.213798
0.0127425 	-2.74114e-06 	-0.000252957 	0.213798
0.0127926 	-2.73455e-06 	-0.000242806 	0.211927
0.0128428 	-2.72531e-06 	-0.000232478 	0.209987
0.0128428 	-2.72531e-06 	-0.000232478 	0.209987
0.0129431 	-2.69976e-06 	-0.000211389 	0.205907
0.0129431 	-2.69976e-06 	-0.000211389 	0.205907
0.0129933 	-2.68376e-06 	-0.000200683 	0.203759
0.0130435 	-2.66575e-06 	-0.000189894 	0.201537
0.0130435 	-2.66575e-06 	-0.000189894 	0.201537
0.0131438 	-2.62381e-06 	-0.000168238 	0.196819
0.0131438 	-2.62381e-06 	-0.000168238 	0.196819
0.013194 	-2.60048e-06 	-0.00015744 	0.194333
0.0132441 	-2.57554e-06 	-0.00014674 	0.191736
0.0132441 	-2.57554e-06 	-0.00014674 	0.191736
0.0132943 	-2.54963e-06 	-0.000136131 	0.189064
0.0133445 	-2.52244e-06 	-0.000125676 	0.186283
0.0133445 	-2.52244e-06 	-0.000125676 	0.186283
0.0133946 	-2.49401e-06 	-0.000115465 	0.183371
0.0133946 	-2.49401e-06 	-0.000115465 	0.183371
0.0134448 	-2.46479e-06 	-0.000105452 	0.180364
0.0134448 	-2.46479e-06 	-0.000105452 	0.180364
0.013495 	-2.43473e-06 	-9.56684e-05 	0.177251
0.0135452 	-2.4034e-06 	-8.63163e-05 	0.173962
0.0135452 	-2.4034e-06 	-8.63163e-05 	0.173962
0.0135953 	-2.37119e-06 	-7.72742e-05 	0.170551
0.0135953 	-2.37119e-06 	-7.72742e-05 	0.170551
0.0136455 	-2.33803e-06 	-6.85688e-05 	0.167012
0.0136455 	-2.33803e-06 	-6.85688e-05 	0.167012
0.0136957 	-2.30367e-06 	-6.02987e-05 	0.163306
0.0136957 	-2.30367e-06 	-6.02987e-05 	0.163306
0.0137458 	-2.26789e-06 	-5.25758e-05 	0.159392
0.013796 	-2.23106e-06 	-4.53014e-05 	0.155306
0.013796 	-2.23106e-06 	-4.53014e-05 	0.155306
0.0138462 	-2.19313e-06 	-3.8506e-05 	0.151033
0.0138462 	-2.19313e-06 	-3.8506e-05 	0.151033
0.0138963 	-2.15406e-06 	-3.22201e-05 	0.14656
0.0139465 	-2.1132e-06 	-2.66346e-05 	0.141798
0.0139465 	-2.1132e-06 	-2.66346e-05 	0.141798
0.0139967 	-2.07064e-06 	-2.16068e-05 	0.136789
0.0139967 	-2.07064e-06 	-2.16068e-05 	0.136789
0.0140468 	-2.02612e-06 	-1.71358e-05 	0.131519
0.0140468 	-2.02612e-06 	-1.71358e-05 	0.131519
0.014097 	-1.97916e-06 	-1.323e-05 	0.125968
0.0141472 	-1.92907e-06 	-9.88943e-06 	0.120111
0.0141472 	-1.92907e-06 	-9.88943e-06 	0.120111
0.0141973 	-1.87482e-06 	-7.09997e-06 	0.113924
0.0142475 	-1.81437e-06 	-4.90462e-06 	0.107305
0.0142977 	-1.74814e-06 	-3.17187e-06 	0.100272
0.0142977 	-1.74814e-06 	-3.17187e-06 	0.100272
0.0143478 	-1.67681e-06 	-1.85713e-06 	0.0928141
0.014398 	-1.6013e-06 	-9.20349e-07 	0.0849512
0.014398 	-1.6013e-06 	-9.20349e-07 	0.0849512
0.0144482 	-1.52233e-06 	-3.11144e-07 	0.0767414
0.0144983 	-1.44007e-06 	3.22423e-08 	0.0682891
0.0144983 	-1.44007e-06 	3.22423e-08 	0.0682891
0.0145485 	-1.35409e-06 	1.7898e-07 	0.0597442
0.0145485 	-1.35409e-06 	1.7898e-07 	0.0597442
0.0145987 	-1.26307e-06 	1.99161e-07 	0.0512865
0.0146488 	-1.16476e-06 	1.55299e-07 	0.0430966
0.014699 	-1.05592e-06 	9.46117e-08 	0.0353219
0.014699 	-1.05592e-06 	9.46117e-08 	0.0353219
0.0147492 	-9.31751e-07 	4.55726e-08 	0.0280574
0.0147993 	-7.82843e-07 	1.85873e-08 	0.0213478
0.0147993 	-7.82843e-07 	1.85873e-08 	0.0213478
0.0148495 	-5.8594e-07 	1.42107e-08 	0.0152029
0.0148495 	-5.8594e-07 	1.42107e-08 	0.0152029
0.0148997 	-3.25242e-07 	1.56181e-08 	0.0096136
0.0148997 	-3.25242e-07 	1.56181e-08 	0.0096136
0.0149498 	-7.82241e-08 	1.3374e-08 	0.00455971
0.0149498 	-7.82241e-08 	1.3374e-08 	0.00455971
0.015 	0 	0 	0
0.015 	0 	0 	0
