0 	0 	0 	0
5.01672e-05 	-2.41676e-05 	-4.72836e-06 	0.0204026
0.000100334 	-4.83353e-05 	-9.45672e-06 	0.0408053
0.000150502 	-7.25029e-05 	-1.41851e-05 	0.0612079
0.000200669 	-9.66706e-05 	-1.89134e-05 	0.0816105
0.000250836 	-0.000120838 	-2.36418e-05 	0.102013
0.000301003 	-0.000145006 	-2.83702e-05 	0.122416
0.000351171 	-0.000166868 	-3.38285e-05 	0.140696
0.000401338 	-0.000180013 	-4.20474e-05 	0.150951
0.000451505 	-0.000193157 	-5.02663e-05 	0.161207
0.000501672 	-0.000206302 	-5.84852e-05 	0.171462
0.000551839 	-0.000219446 	-6.67041e-05 	0.181717
0.000602007 	-0.000232591 	-7.4923e-05 	0.191972
0.000652174 	-0.000245735 	-8.31419e-05 	0.202227
0.000702341 	-0.00025888 	-9.13608e-05 	0.212482
0.000752508 	-0.000269086 	-9.97951e-05 	0.221316
0.000802676 	-0.000272006 	-0.000108764 	0.226626
0.000852843 	-0.000274925 	-0.000117732 	0.231935
0.00090301 	-0.000277845 	-0.000126701 	0.237245
0.000953177 	-0.000280765 	-0.000135669 	0.242554
0.00100334 	-0.000283685 	-0.000144638 	0.247864
0.00105351 	-0.000286605 	-0.000153606 	0.253173
0.00110368 	-0.000289524 	-0.000162575 	0.258483
0.00115385 	-0.000292444 	-0.000171543 	0.263792
0.00120401 	-0.000295155 	-0.000180465 	0.268996
0.00125418 	-0.000293566 	-0.000188429 	0.27203
0.00130435 	-0.000291978 	-0.000196392 	0.275064
0.00135452 	-0.00029039 	-0.000204356 	0.278099
0.00140468 	-0.000288802 	-0.000212319 	0.281133
0.00145485 	-0.000287214 	-0.000220283 	0.284167
0.00150502 	-0.000285626 	-0.000228247 	0.287201
0.00155518 	-0.000284038 	-0.00023621 	0.290235
0.00160535 	-0.000282449 	-0.000244174 	0.29327
0.00165552 	-0.000280861 	-0.000252137 	0.296304
0.00170569 	-0.000279273 	-0.000260101 	0.299338
0.00175585 	-0.000277425 	-0.000267634 	0.302082
0.00180602 	-0.00027486 	-0.000273982 	0.304027
0.00185619 	-0.000272296 	-0.000280331 	0.305972
0.00190635 	-0.000269731 	-0.000286679 	0.307917
0.00195652 	-0.000267167 	-0.000293028 	0.309862
0.00200669 	-0.000264602 	-0.000299376 	0.311807
0.00205686 	-0.000262038 	-0.000305725 	0.313752
0.00210702 	-0.000259473 	-0.000312073 	0.315696
0.00215719 	-0.000256908 	-0.000318422 	0.317641
0.00220736 	-0.000254344 	-0.00032477 	0.319586
0.00225753 	-0.000251779 	-0.000331118 	0.321531
0.00230769 	-0.000249215 	-0.000337467 	0.323476
0.00235786 	-0.00024665 	-0.000343815 	0.325421
0.00240803 	-0.00024436 	-0.000348949 	0.326929
0.00245819 	-0.000242192 	-0.000353541 	0.328243
0.00250836 	-0.000240023 	-0.000358134 	0.329556
0.00255853 	-0.000237855 	-0.000362726 	0.330869
0.0026087 	-0.000235687 	-0.000367318 	0.332183
0.00265886 	-0.000233518 	-0.00037191 	0.333496
0.00270903 	-0.00023135 	-0.000376503 	0.33481
0.0027592 	-0.000229182 	-0.000381095 	0.336123
0.00280936 	-0.000227013 	-0.000385687 	0.337436
0.00285953 	-0.000224845 	-0.000390279 	0.33875
0.0029097 	-0.000222677 	-0.000394872 	0.340063
0.00295987 	-0.000220508 	-0.000399464 	0.341376
0.00301003 	-0.00021834 	-0.000404056 	0.34269
0.0030602 	-0.000216172 	-0.000408648 	0.344003
0.00311037 	-0.000214019 	-0.000413209 	0.345307
0.00316054 	-0.000212521 	-0.000416427 	0.346187
0.0032107 	-0.000211023 	-0.000419644 	0.347067
0.00326087 	-0.000209525 	-0.000422862 	0.347947
0.00331104 	-0.000208027 	-0.000426079 	0.348827
0.0033612 	-0.000206529 	-0.000429297 	0.349708
0.00341137 	-0.000205031 	-0.000432514 	0.350588
0.00346154 	-0.000203533 	-0.000435732 	0.351468
0.00351171 	-0.000202035 	-0.000438949 	0.352348
0.00356187 	-0.000200537 	-0.000442167 	0.353228
0.00361204 	-0.000199039 	-0.000445384 	0.354109
0.00366221 	-0.000197541 	-0.000448601 	0.354989
0.00371237 	-0.000196043 	-0.000451819 	0.355869
0.00376254 	-0.000194545 	-0.000455036 	0.356749
0.00381271 	-0.000193047 	-0.000458254 	0.357629
0.00386288 	-0.000191549 	-0.000461471 	0.35851
0.00391304 	-0.000190051 	-0.000464689 	0.35939
0.00396321 	-0.000188553 	-0.000467906 	0.36027
0.00401338 	-0.000187483 	-0.000470275 	0.360849
0.00406355 	-0.000186455 	-0.00047256 	0.361399
0.00411371 	-0.000185427 	-0.000474845 	0.361949
0.00416388 	-0.000184399 	-0.00047713 	0.362498
0.00421405 	-0.000183371 	-0.000479415 	0.363048
0.00426421 	-0.000182343 	-0.000481701 	0.363598
0.00431438 	-0.000181316 	-0.000483986 	0.364147
0.00436455 	-0.000180288 	-0.000486271 	0.364697
0.00441472 	-0.00017926 	-0.000488556 	0.365247
0.00446488 	-0.000178232 	-0.000490841 	0.365796
0.00451505 	-0.000177204 	-0.000493127 	0.366346
0.00456522 	-0.000176176 	-0.000495412 	0.366896
0.00461538 	-0.000175148 	-0.000497697 	0.367445
0.00466555 	-0.00017412 	-0.000499982 	0.367995
0.00471572 	-0.000173092 	-0.000502267 	0.368545
0.00476589 	-0.000172064 	-0.000504553 	0.369094
0.00481605 	-0.000171036 	-0.000506838 	0.369644
0.00486622 	-0.000170008 	-0.000509123 	0.370194
0.00491639 	-0.00016898 	-0.000511408 	0.370743
0.00496656 	-0.000167952 	-0.000513693 	0.371293
0.00501672 	-0.000167139 	-0.000515249 	0.371592
0.00506689 	-0.000166336 	-0.000516765 	0.371877
0.00511706 	-0.000165534 	-0.000518281 	0.372162
0.00516722 	-0.000164732 	-0.000519798 	0.372447
0.00521739 	-0.00016393 	-0.000521314 	0.372732
0.00526756 	-0.000163127 	-0.00052283 	0.373017
0.00531773 	-0.000162325 	-0.000524347 	0.373302
0.00536789 	-0.000161523 	-0.000525863 	0.373587
0.00541806 	-0.000160721 	-0.000527379 	0.373872
0.00546823 	-0.000159918 	-0.000528895 	0.374157
0.00551839 	-0.000159116 	-0.000530412 	0.374442
0.00556856 	-0.000158314 	-0.000531928 	0.374727
0.00561873 	-0.000157512 	-0.000533444 	0.375012
0.0056689 	-0.000156709 	-0.000534961 	0.375297
0.00571906 	-0.000155907 	-0.000536477 	0.375582
0.00576923 	-0.000155105 	-0.000537993 	0.375867
0.0058194 	-0.000154303 	-0.000539509 	0.376152
0.00586957 	-0.000153501 	-0.000541026 	0.376437
0.00591973 	-0.000152698 	-0.000542542 	0.376722
0.0059699 	-0.000151896 	-0.000544058 	0.377007
0.00602007 	-0.000151094 	-0.000545575 	0.377292
0.00607023 	-0.000150292 	-0.000547091 	0.377577
0.0061204 	-0.000149489 	-0.000548607 	0.377862
0.00617057 	-0.000148786 	-0.000549596 	0.378001
0.00622074 	-0.000148133 	-0.000550317 	0.378065
0.0062709 	-0.00014748 	-0.000551039 	0.378129
0.00632107 	-0.000146827 	-0.00055176 	0.378193
0.00637124 	-0.000146174 	-0.000552481 	0.378257
0.0064214 	-0.000145522 	-0.000553203 	0.378321
0.00647157 	-0.000144869 	-0.000553924 	0.378385
0.00652174 	-0.000144216 	-0.000554645 	0.378449
0.00657191 	-0.000143563 	-0.000555366 	0.378514
0.00662207 	-0.00014291 	-0.000556088 	0.378578
0.00667224 	-0.000142257 	-0.000556809 	0.378642
0.00672241 	-0.000141604 	-0.00055753 	0.378706
0.00677258 	-0.000140951 	-0.000558252 	0.37877
0.00682274 	-0.000140298 	-0.000558973 	0.378834
0.00687291 	-0.000139645 	-0.000559694 	0.378898
0.00692308 	-0.000138992 	-0.000560416 	0.378962
0.00697324 	-0.000138339 	-0.000561137 	0.379027
0.00702341 	-0.000137687 	-0.000561858 	0.379091
0.00707358 	-0.000137034 	-0.00056258 	0.379155
0.00712375 	-0.000136381 	-0.000563301 	0.379219
0.00717391 	-0.000135728 	-0.000564022 	0.379283
0.00722408 	-0.000135075 	-0.000564743 	0.379347
0.00727425 	-0.000134422 	-0.000565465 	0.379411
0.00732441 	-0.000133769 	-0.000566186 	0.379475
0.00737458 	-0.000133116 	-0.000566907 	0.379539
0.00742475 	-0.000132463 	-0.000567629 	0.379604
0.00747492 	-0.00013181 	-0.00056835 	0.379668
0.00752508 	-0.000131216 	-0.000568674 	0.379632
0.00757525 	-0.00013068 	-0.000568601 	0.379498
0.00762542 	-0.000130144 	-0.000568528 	0.379363
0.00767559 	-0.000129608 	-0.000568455 	0.379228
0.00772575 	-0.000129072 	-0.000568382 	0.379093
0.00777592 	-0.000128536 	-0.000568309 	0.378959
0.00782609 	-0.000128 	-0.000568236 	0.378824
0.00787625 	-0.000127465 	-0.000568163 	0.378689
0.00792642 	-0.000126929 	-0.00056809 	0.378554
0.00797659 	-0.000126393 	-0.000568017 	0.37842
0.00802676 	-0.000125857 	-0.000567944 	0.378285
0.00807692 	-0.000125321 	-0.000567871 	0.37815
0.00812709 	-0.000124785 	-0.000567798 	0.378015
0.00817726 	-0.000124249 	-0.000567724 	0.37788
0.00822742 	-0.000123713 	-0.000567651 	0.377746
0.00827759 	-0.000123177 	-0.000567578 	0.377611
0.00832776 	-0.000122641 	-0.000567505 	0.377476
0.00837793 	-0.000122105 	-0.000567432 	0.377341
0.00842809 	-0.000121569 	-0.000567359 	0.377207
0.00847826 	-0.000121034 	-0.000567286 	0.377072
0.00852843 	-0.000120498 	-0.000567213 	0.376937
0.0085786 	-0.000119962 	-0.00056714 	0.376802
0.00862876 	-0.000119426 	-0.000567067 	0.376668
0.00867893 	-0.00011889 	-0.000566994 	0.376533
0.0087291 	-0.000118354 	-0.000566921 	0.376398
0.00877926 	-0.000117818 	-0.000566848 	0.376263
0.00882943 	-0.000117282 	-0.000566775 	0.376129
0.0088796 	-0.000116802 	-0.000566374 	0.375912
0.00892977 	-0.000116433 	-0.000565325 	0.375536
0.00897993 	-0.000116063 	-0.000564277 	0.37516
0.0090301 	-0.000115694 	-0.000563229 	0.374784
0.00908027 	-0.000115325 	-0.00056218 	0.374407
0.00913043 	-0.000114955 	-0.000561132 	0.374031
0.0091806 	-0.000114586 	-0.000560084 	0.373655
0.00923077 	-0.000114216 	-0.000559036 	0.373278
0.00928094 	-0.000113847 	-0.000557987 	0.372902
0.0093311 	-0.000113478 	-0.000556939 	0.372526
0.00938127 	-0.000113108 	-0.000555891 	0.372149
0.00943144 	-0.000112739 	-0.000554843 	0.371773
0.00948161 	-0.000112369 	-0.000553794 	0.371397
0.00953177 	-0.000112 	-0.000552746 	0.371021
0.00958194 	-0.00011163 	-0.000551698 	0.370644
0.00963211 	-0.000111261 	-0.000550649 	0.370268
0.00968227 	-0.000110892 	-0.000549601 	0.369892
0.00973244 	-0.000110522 	-0.000548553 	0.369515
0.00978261 	-0.000110153 	-0.000547505 	0.369139
0.00983278 	-0.000109783 	-0.000546456 	0.368763
0.00988294 	-0.000109414 	-0.000545408 	0.368387
0.00993311 	-0.000109045 	-0.00054436 	0.36801
0.00998328 	-0.000108675 	-0.000543312 	0.367634
0.0100334 	-0.000108324 	-0.000542207 	0.367243
0.0100836 	-0.000108324 	-0.000540044 	0.366581
0.0101338 	-0.000108323 	-0.000537882 	0.365919
0.0101839 	-0.000108323 	-0.000535719 	0.365257
0.0102341 	-0.000108322 	-0.000533557 	0.364595
0.0102843 	-0.000108322 	-0.000531395 	0.363933
0.0103344 	-0.000108321 	-0.000529232 	0.363271
0.0103846 	-0.000108321 	-0.00052707 	0.362609
0.0104348 	-0.00010832 	-0.000524907 	0.361948
0.0104849 	-0.000108319 	-0.000522745 	0.361286
0.0105351 	-0.000108319 	-0.000520582 	0.360624
0.0105853 	-0.000108318 	-0.00051842 	0.359962
0.0106355 	-0.000108318 	-0.000516258 	0.3593
0.0106856 	-0.000108317 	-0.000514095 	0.358638
0.0107358 	-0.000108317 	-0.000511933 	0.357976
0.010786 	-0.000108316 	-0.00050977 	0.357314
0.0108361 	-0.000108315 	-0.000507608 	0.356652
0.0108863 	-0.000108315 	-0.000505445 	0.35599
0.0109365 	-0.000108314 	-0.000503283 	0.355328
0.0109866 	-0.000108314 	-0.000501121 	0.354666
0.0110368 	-0.000108373 	-0.000498817 	0.353971
0.011087 	-0.000109042 	-0.000495072 	0.352939
0.0111371 	-0.000109711 	-0.000491327 	0.351907
0.0111873 	-0.00011038 	-0.000487582 	0.350876
0.0112375 	-0.000111049 	-0.000483837 	0.349844
0.0112876 	-0.000111718 	-0.000480092 	0.348812
0.0113378 	-0.000112388 	-0.000476347 	0.34778
0.011388 	-0.000113057 	-0.000472602 	0.346748
0.0114381 	-0.000113726 	-0.000468858 	0.345716
0.0114883 	-0.000114395 	-0.000465113 	0.344685
0.0115385 	-0.000115064 	-0.000461368 	0.343653
0.0115886 	-0.000115733 	-0.000457623 	0.342621
0.0116388 	-0.000116402 	-0.000453878 	0.341589
0.011689 	-0.000117071 	-0.000450133 	0.340557
0.0117391 	-0.00011774 	-0.000446388 	0.339525
0.0117893 	-0.000118409 	-0.000442643 	0.338493
0.0118395 	-0.000119078 	-0.000438898 	0.337462
0.0118896 	-0.000119748 	-0.000435153 	0.33643
0.0119398 	-0.000121367 	-0.000428949 	0.334857
0.01199 	-0.000123009 	-0.000422688 	0.333271
0.0120401 	-0.00012465 	-0.000416428 	0.331686
0.0120903 	-0.000126292 	-0.000410167 	0.330101
0.0121405 	-0.000127934 	-0.000403906 	0.328515
0.0121906 	-0.000129575 	-0.000397645 	0.32693
0.0122408 	-0.000131217 	-0.000391384 	0.325345
0.012291 	-0.000132858 	-0.000385124 	0.323759
0.0123411 	-0.0001345 	-0.000378863 	0.322174
0.0123913 	-0.000136142 	-0.000372602 	0.320588
0.0124415 	-0.000137783 	-0.000366341 	0.319003
0.0124916 	-0.000139425 	-0.00036008 	0.317418
0.0125418 	-0.000141066 	-0.00035382 	0.315832
0.012592 	-0.000142708 	-0.000347559 	0.314247
0.0126421 	-0.000144621 	-0.000340347 	0.312375
0.0126923 	-0.000147144 	-0.000331 	0.309861
0.0127425 	-0.000149667 	-0.000321654 	0.307346
0.0127926 	-0.00015219 	-0.000312308 	0.304832
0.0128428 	-0.000154713 	-0.000302962 	0.302318
0.012893 	-0.000157236 	-0.000293615 	0.299804
0.0129431 	-0.000159759 	-0.000284269 	0.297289
0.0129933 	-0.000162282 	-0.000274923 	0.294775
0.0130435 	-0.000164805 	-0.000265577 	0.292261
0.0130936 	-0.000167328 	-0.000256231 	0.289746
0.0131438 	-0.000169851 	-0.000246884 	0.287232
0.013194 	-0.000172374 	-0.000237538 	0.284718
0.0132441 	-0.000174897 	-0.000228192 	0.282204
0.0132943 	-0.000177063 	-0.000217293 	0.278467
0.0133445 	-0.000179101 	-0.00020583 	0.274285
0.0133946 	-0.000181138 	-0.000194367 	0.270103
0.0134448 	-0.000183175 	-0.000182904 	0.265922
0.013495 	-0.000185213 	-0.000171441 	0.26174
0.0135452 	-0.00018725 	-0.000159978 	0.257559
0.0135953 	-0.000189287 	-0.000148515 	0.253377
0.0136455 	-0.000191325 	-0.000137052 	0.249195
0.0136957 	-0.000193362 	-0.000125589 	0.245014
0.0137458 	-0.000195399 	-0.000114126 	0.240832
0.013796 	-0.000197436 	-0.000102663 	0.236651
0.0138462 	-0.000195139 	-9.29344e-05 	0.229189
0.0138963 	-0.00019263 	-8.32902e-05 	0.221568
0.0139465 	-0.000190122 	-7.36459e-05 	0.213947
0.0139967 	-0.000187613 	-6.40017e-05 	0.206325
0.0140468 	-0.000185104 	-5.43575e-05 	0.198704
0.014097 	-0.000182596 	-4.47133e-05 	0.191083
0.0141472 	-0.000180087 	-3.5069e-05 	0.183461
0.0141973 	-0.000177578 	-2.54248e-05 	0.17584
0.0142475 	-0.00017507 	-1.57806e-05 	0.168219
0.0142977 	-0.000166759 	-1.08789e-05 	0.157714
0.0143478 	-0.000156108 	-7.8899e-06 	0.146047
0.014398 	-0.000145457 	-4.90092e-06 	0.13438
0.0144482 	-0.000134806 	-1.91194e-06 	0.122713
0.0144983 	-0.000124155 	1.07705e-06 	0.111046
0.0145485 	-0.000113504 	4.06603e-06 	0.0993783
0.0145987 	-0.000102853 	7.05501e-06 	0.0877111
0.0146488 	-9.22024e-05 	1.0044e-05 	0.0760439
0.014699 	-7.94965e-05 	9.42658e-06 	0.0650319
0.0147492 	-6.62471e-05 	7.85548e-06 	0.0541933
0.0147993 	-5.29977e-05 	6.28438e-06 	0.0433546
0.0148495 	-3.97482e-05 	4.71329e-06 	0.032516
0.0148997 	-2.64988e-05 	3.14219e-06 	0.0216773
0.0149498 	-1.32494e-05 	1.5711e-06 	0.0108387
0.015 	0 	0 	0
