/*--------------------------------*- C++ -*----------------------------------*\
| =========                 |                                                 |
| \\      /  F ield         | OpenFOAM: The Open Source CFD Toolbox           |
|  \\    /   O peration     | Version:  v1912                                 |
|   \\  /    A nd           | Website:  www.openfoam.com                      |
|    \\/     M anipulation  |                                                 |
\*---------------------------------------------------------------------------*/
FoamFile
{
    version     2.0;
    format      ascii;
    class       volScalarField;
    location    "11.2";
    object      heatTransferCoeff(T);
}
// * * * * * * * * * * * * * * * * * * * * * * * * * * * * * * * * * * * * * //

dimensions      [1 0 -3 -1 0 0 0];


internalField   uniform 0;

boundaryField
{
    leftWall
    {
        type            calculated;
        value           nonuniform List<scalar> 
216
(
-165.288
-166.922
-167.571
-169.214
-170.517
-172.257
-174.155
-176.022
-178.485
-180.495
-183.522
-185.701
-189.324
-191.739
-196.059
-198.877
-204.124
-207.659
-165.423
-167.194
-167.822
-169.554
-170.808
-172.577
-174.37
-176.191
-178.482
-180.367
-183.164
-185.169
-188.564
-190.831
-195.037
-197.854
-203.248
-207.092
-166.733
-168.636
-169.18
-171.013
-172.169
-174.023
-175.754
-177.68
-179.992
-182.046
-184.975
-187.229
-190.855
-193.417
-197.879
-200.931
-206.461
-210.31
-166.548
-168.769
-169.375
-171.574
-172.888
-175.184
-177.201
-179.658
-182.392
-185.046
-188.501
-191.356
-195.513
-198.547
-203.375
-206.565
-212.052
-215.467
-167.54
-170.55
-171.257
-174.225
-175.668
-178.651
-180.773
-183.772
-186.545
-189.553
-192.964
-196.005
-200.067
-203.207
-207.979
-211.318
-216.902
-220.603
-168.814
-172.206
-172.902
-176.196
-177.571
-180.757
-182.721
-185.781
-188.294
-191.246
-194.336
-197.275
-201.052
-204.169
-208.834
-212.382
-218.187
-222.426
-165.491
-168.243
-168.915
-171.605
-172.965
-175.629
-177.616
-180.289
-182.897
-185.621
-188.894
-191.737
-195.741
-198.811
-203.645
-207.082
-212.896
-216.878
-161.329
-163.2
-163.833
-165.693
-167.013
-168.973
-170.969
-173.117
-175.84
-178.26
-181.787
-184.569
-188.971
-192.205
-197.563
-201.348
-207.774
-212.233
-160.643
-162.217
-162.827
-164.419
-165.722
-167.444
-169.431
-171.372
-174.088
-176.341
-179.869
-182.536
-186.976
-190.17
-195.637
-199.489
-206.11
-210.747
-161.882
-163.78
-164.457
-166.411
-167.88
-169.954
-172.169
-174.411
-177.356
-179.81
-183.5
-186.219
-190.69
-193.721
-198.99
-202.348
-208.389
-212.077
-164.716
-167.001
-167.761
-170.111
-171.711
-174.18
-176.548
-179.135
-182.208
-184.912
-188.645
-191.481
-195.873
-198.882
-203.981
-207.243
-213.142
-216.821
-166.758
-169.099
-169.868
-172.251
-173.819
-176.321
-178.607
-181.217
-184.154
-186.846
-190.383
-193.156
-197.293
-200.199
-205.008
-208.177
-213.809
-217.427
)
;
    }
    rightWall
    {
        type            calculated;
        value           nonuniform List<scalar> 
216
(
-164.405
-166.37
-166.718
-168.753
-169.494
-171.633
-172.79
-175.063
-176.655
-179.088
-181.143
-183.764
-186.318
-189.159
-192.269
-195.373
-199.114
-202.547
-162.236
-163.971
-164.307
-166.142
-166.867
-168.84
-170.001
-172.144
-173.775
-176.123
-178.254
-180.839
-183.515
-186.379
-189.663
-192.861
-196.834
-200.431
-163.109
-164.863
-165.169
-167.021
-167.701
-169.688
-170.786
-172.935
-174.484
-176.819
-178.85
-181.407
-183.971
-186.794
-189.958
-193.102
-196.955
-200.488
-166.691
-168.721
-169.01
-171.107
-171.761
-173.959
-175.003
-177.319
-178.778
-181.229
-183.126
-185.74
-188.112
-190.916
-193.809
-196.837
-200.317
-203.623
-169.318
-171.64
-171.953
-174.3
-174.982
-177.372
-178.417
-180.856
-182.266
-184.763
-186.552
-189.125
-191.322
-194.003
-196.647
-199.489
-202.651
-205.734
-168.779
-171.02
-171.363
-173.626
-174.341
-176.644
-177.718
-180.067
-181.494
-183.894
-185.683
-188.152
-190.332
-192.914
-195.547
-198.311
-201.494
-204.544
-166.967
-168.765
-169.092
-170.921
-171.598
-173.492
-174.519
-176.502
-177.894
-179.989
-181.778
-184.04
-186.29
-188.798
-191.616
-194.46
-197.974
-201.274
-166.861
-168.59
-168.932
-170.689
-171.386
-173.214
-174.256
-176.179
-177.576
-179.619
-181.407
-183.629
-185.875
-188.357
-191.171
-194.012
-197.527
-200.862
-166.749
-168.535
-168.906
-170.713
-171.477
-173.376
-174.501
-176.527
-178.022
-180.203
-182.104
-184.487
-186.852
-189.493
-192.403
-195.386
-198.944
-202.395
-164.799
-166.447
-166.837
-168.523
-169.355
-171.186
-172.436
-174.466
-176.162
-178.43
-180.614
-183.167
-185.886
-188.779
-192.076
-195.371
-199.307
-203.078
-164.983
-166.771
-167.134
-168.987
-169.771
-171.759
-172.974
-175.14
-176.812
-179.2
-181.361
-184.017
-186.707
-189.684
-192.948
-196.3
-200.202
-203.974
-167.209
-169.18
-169.481
-171.53
-172.173
-174.326
-175.341
-177.625
-179.032
-181.476
-183.304
-185.939
-188.24
-191.105
-193.952
-197.108
-200.596
-204.11
)
;
    }
    leftSides_periodic0
    {
        type            cyclic;
    }
    leftSides_periodic1
    {
        type            cyclic;
    }
    rightSides_periodic0
    {
        type            cyclic;
    }
    rightSides_periodic1
    {
        type            cyclic;
    }
    leftInOut_periodic0
    {
        type            calculated;
        value           uniform 0;
    }
    leftInOut_periodic1
    {
        type            calculated;
        value           nonuniform 0();
    }
    rightInOut_periodic0
    {
        type            calculated;
        value           uniform 0;
    }
    rightInOut_periodic1
    {
        type            calculated;
        value           nonuniform 0();
    }
    procBoundary2to0throughleftSides_periodic0
    {
        type            processorCyclic;
        value           uniform 0;
    }
    procBoundary2to0throughrightSides_periodic0
    {
        type            processorCyclic;
        value           uniform 0;
    }
    procBoundary2to1
    {
        type            processor;
        value           uniform 0;
    }
    procBoundary2to5
    {
        type            processor;
        value           uniform 0;
    }
}


// ************************************************************************* //
