/*--------------------------------*- C++ -*----------------------------------*\
| =========                 |                                                 |
| \\      /  F ield         | OpenFOAM: The Open Source CFD Toolbox           |
|  \\    /   O peration     | Version:  v1912                                 |
|   \\  /    A nd           | Website:  www.openfoam.com                      |
|    \\/     M anipulation  |                                                 |
\*---------------------------------------------------------------------------*/
FoamFile
{
    version     2.0;
    format      ascii;
    class       volScalarField;
    location    "11.2";
    object      omega;
}
// * * * * * * * * * * * * * * * * * * * * * * * * * * * * * * * * * * * * * //

dimensions      [0 0 -1 0 0 0 0];


internalField   nonuniform List<scalar> 
34128
(
156508
156508
156508
156508
156508
156508
156508
156508
156508
156508
156508
156508
25806.1
25806.3
25808
25807.9
25808.9
25810.1
25806.5
25802.3
25801.7
25802.9
25805.8
25808
8855.48
8855.73
8857.49
8858.03
8859.18
8860.04
8856.57
8852.49
8852
8853.58
8856.38
8858.09
4227.96
4228.28
4230.48
4231.82
4233.19
4233.65
4230.06
4226.03
4225.67
4227.62
4230.42
4231.8
2438.09
2438.52
2441.47
2443.81
2445.47
2445.53
2441.51
2437.26
2437.01
2439.41
2442.43
2443.65
1590.3
1590.87
1594.76
1598.19
1600.12
1599.74
1595.21
1590.65
1590.49
1593.32
1596.65
1597.8
1134.44
1135.15
1140.06
1144.56
1146.67
1145.82
1140.86
1136.1
1136.01
1139.12
1142.73
1143.89
867.747
868.596
874.513
879.961
882.099
880.793
875.555
870.809
870.79
873.948
877.724
878.945
702.089
703.069
709.889
716.09
718.113
716.372
711.08
706.598
706.626
709.573
713.36
714.696
594.316
595.41
602.982
609.703
611.483
609.366
604.236
600.251
600.305
602.785
606.426
607.921
521.383
522.576
530.718
537.721
539.166
536.756
531.968
528.669
528.722
530.515
533.872
535.563
470.178
471.455
479.979
487.034
488.104
485.498
481.187
478.702
478.725
479.657
482.621
484.544
432.893
434.237
442.955
449.849
450.554
447.85
444.106
442.507
442.466
442.417
444.915
447.098
404.694
406.089
414.822
421.376
421.752
419.05
415.923
415.229
415.092
413.993
415.99
418.444
382.506
383.934
392.515
398.592
398.689
396.081
393.594
393.785
393.518
391.348
392.834
395.561
364.34
365.781
374.058
379.56
379.424
376.997
375.158
376.183
375.758
372.537
373.516
376.508
348.892
350.32
358.159
363.024
362.693
360.529
359.333
361.107
360.516
356.296
356.782
360.018
335.292
336.686
343.967
348.161
347.668
345.829
345.258
347.692
346.938
341.797
341.806
345.253
322.958
324.292
330.907
334.414
333.796
332.328
332.354
335.369
334.457
328.49
328.038
331.648
311.488
312.74
318.587
321.398
320.698
319.629
320.226
323.751
322.694
316.005
315.103
318.819
300.602
301.751
306.737
308.84
308.105
307.45
308.595
312.557
311.38
304.082
302.747
306.497
290.095
291.125
295.177
296.542
295.81
295.579
297.26
301.566
300.309
292.536
290.785
294.479
279.814
280.711
283.76
284.356
283.655
283.844
286.054
290.587
289.307
281.225
279.08
282.624
269.639
270.39
272.372
272.167
271.516
272.109
274.821
279.463
278.207
270.037
267.524
270.819
259.471
260.066
260.917
259.877
259.29
260.285
263.42
268.105
266.92
258.879
256.027
258.971
249.231
249.653
249.314
247.402
246.886
248.287
251.774
256.43
255.364
247.665
244.513
246.997
238.845
239.081
237.484
234.651
234.212
236.017
239.813
244.365
243.462
236.318
232.905
234.822
228.182
228.289
225.349
221.512
221.16
223.376
227.452
231.822
231.142
224.758
221.124
222.355
217.138
217.114
212.817
207.903
207.622
210.254
214.574
218.68
218.289
212.902
209.084
209.485
205.663
205.489
199.767
193.72
193.489
196.508
201.037
204.788
204.76
200.622
196.669
196.07
193.687
193.333
186.079
179.174
178.907
182.056
186.729
190.049
190.436
187.792
183.74
182.02
181.077
180.535
172.313
165.458
165.088
168.036
172.503
175.574
176.1
174.344
170.429
168.338
168.04
167.486
159.391
152.726
152.215
154.929
159.16
161.996
162.642
161.408
157.764
155.549
155.761
155.227
147.325
140.859
140.184
142.647
146.635
149.21
149.999
149.307
145.942
143.586
144.236
143.714
135.987
129.719
128.866
131.051
134.779
137.061
138.019
137.939
134.849
132.307
133.317
132.799
125.257
119.193
118.156
120.026
123.47
125.43
126.576
127.168
124.351
121.59
122.871
122.349
115.034
109.206
107.977
109.499
112.626
114.242
115.585
116.882
114.337
111.349
112.801
112.272
105.254
99.7239
98.2845
99.4273
102.207
103.463
105.006
107.003
104.73
101.53
103.05
102.514
95.8799
90.7203
89.059
89.8011
92.2062
93.0861
94.8288
97.4886
95.4863
92.1116
93.5991
93.0595
86.9012
82.1763
80.2976
80.6301
82.6392
83.1201
85.0653
88.3257
86.5871
83.0916
84.4552
83.9197
78.3263
74.0858
72.01
71.939
73.5363
73.6583
75.7294
79.5246
78.0381
74.4874
75.6442
75.1284
70.1768
66.4467
64.2144
63.7606
64.9184
64.7682
66.9208
71.1138
69.8625
66.3285
67.1939
66.7324
62.4805
59.265
56.9288
56.1306
56.8453
56.5132
58.6977
63.1341
62.0965
58.6518
59.189
58.7772
55.2696
52.5682
50.1734
49.0844
49.3858
48.9463
51.1119
55.6327
54.7837
51.4973
51.7236
51.3216
48.58
46.3797
43.9769
42.6525
42.5889
42.1048
44.204
48.6581
47.9708
44.9036
44.8586
44.4787
42.4432
40.7181
38.3599
36.8561
36.4988
36.0235
38.0136
42.2551
41.7021
38.9044
38.6428
38.3019
36.8839
35.5958
33.3324
31.7022
31.1255
30.6928
32.5414
36.4601
36.0147
33.5235
33.075
32.7946
31.9128
30.9987
28.8169
27.0978
26.3675
25.9917
27.7128
31.2929
30.9271
28.7011
28.1212
27.9032
27.4527
26.844
24.7363
22.9774
22.177
21.8786
23.4694
26.677
26.3705
24.3628
23.7612
23.5873
23.4437
23.0967
21.1592
19.424
18.6161
18.3972
19.8031
22.5407
22.2993
20.5826
19.9814
19.8601
19.9556
19.8093
18.0631
16.4024
15.6309
15.483
16.7036
18.9703
18.7812
17.3533
16.7817
16.7053
16.9576
16.9601
15.4145
13.8629
13.1524
13.0641
14.1107
15.9396
15.7654
14.6241
14.1037
14.066
14.4133
14.5196
13.1725
11.7525
11.1146
11.0742
11.9629
13.4036
13.2427
12.344
11.888
11.8823
12.2773
12.4504
11.2918
10.0153
9.45363
9.44966
10.1984
11.3082
11.1591
10.4595
10.0723
10.0917
10.5004
10.7115
9.72691
8.59667
8.1096
8.13145
8.75874
9.59527
9.45389
8.91597
8.59615
8.63413
9.03377
9.26173
8.43375
7.44576
7.02813
7.06697
7.59056
8.20759
8.0696
7.66134
7.40338
7.45457
7.83078
8.06114
7.37131
6.51668
6.16153
6.21034
6.64633
7.09124
6.95371
6.64728
6.44384
6.50374
6.84894
7.07251
6.50238
5.76932
5.46904
5.52251
5.885
6.19767
6.05928
5.82984
5.674
5.739
6.05051
6.26204
5.79412
5.1695
4.91661
4.97089
5.27187
5.48468
5.34541
5.17278
5.05714
5.12446
5.40276
5.59981
5.21817
4.68874
4.47633
4.5287
4.77818
4.91665
4.77714
4.64655
4.56287
4.63054
4.87797
5.05993
4.75052
4.30369
4.12566
4.17423
4.38044
4.46427
4.3254
4.22539
4.16654
4.23323
4.45307
4.62047
4.37113
3.99546
3.84658
3.89004
4.05967
4.1038
3.96653
3.88824
3.84838
3.91321
4.10911
4.26309
4.06354
3.74878
3.62477
3.66222
3.80068
3.81634
3.68163
3.61824
3.59269
3.65523
3.83074
3.97268
3.81429
3.5518
3.44887
3.4797
3.59132
3.5869
3.45571
3.402
3.38704
3.44719
3.60554
3.73689
3.61247
3.39497
3.30991
3.33367
3.42188
3.40369
3.27684
3.2289
3.2216
3.27948
3.42357
3.54568
3.44924
3.27056
3.20072
3.21707
3.28468
3.25743
3.1355
3.09051
3.08861
3.14451
3.27689
3.39094
3.31744
3.17235
3.11543
3.12429
3.17366
3.14076
3.02417
2.98015
2.98186
3.03622
3.15914
3.26611
3.21126
3.09531
3.0495
3.05081
3.08401
3.04786
2.9369
2.89248
2.89656
2.94979
3.06529
3.16586
3.126
3.03551
2.99923
2.99298
3.01188
2.97416
2.86898
2.82325
2.82992
2.88144
2.99134
3.08586
3.0578
2.98966
2.96161
2.94773
2.95362
2.91603
2.81669
2.76909
2.77772
2.82819
2.93378
3.02254
3.00356
2.95488
2.93399
2.91243
2.90659
2.87056
2.77709
2.72729
2.7373
2.78746
2.88956
2.97264
2.96076
2.92887
2.91428
2.88543
2.86909
2.83549
2.74779
2.69573
2.70661
2.7571
2.85639
2.93373
2.92739
2.90979
2.90076
2.86535
2.83958
2.80916
2.72682
2.67276
2.68425
2.73554
2.83251
2.90394
2.90189
2.89621
2.89208
2.851
2.81687
2.79036
2.71267
2.65707
2.66912
2.72161
2.81655
2.88185
2.88291
2.88698
2.88715
2.8412
2.80004
2.77714
2.70434
2.64771
2.66035
2.71445
2.80754
2.86646
2.86908
2.88124
2.88514
2.83513
2.78851
2.76905
2.70161
2.64417
2.65733
2.71344
2.80487
2.85717
2.86022
2.8784
2.88542
2.83229
2.78193
2.76634
2.70491
2.6462
2.65966
2.71834
2.80828
2.85377
2.85603
2.87834
2.88789
2.83241
2.78013
2.76896
2.71377
2.65364
2.66716
2.72881
2.81798
2.85639
2.85646
2.88113
2.89256
2.83537
2.7832
2.777
2.72626
2.6667
156508
156508
156508
156508
156508
156508
156508
156508
156508
156508
156508
156508
25807.6
25807.9
25809.7
25810
25811.9
25813.4
25809.1
25803.9
25802.9
25804.5
25808
25810.2
8857.25
8857.6
8859.55
8860.44
8862.23
8863.35
8859.33
8854.55
8853.8
8855.6
8858.74
8860.56
4229.91
4230.3
4232.79
4234.5
4236.31
4236.91
4232.94
4228.5
4227.92
4229.87
4232.9
4234.45
2440.37
2440.84
2444.16
2446.9
2448.87
2448.98
2444.76
2440.33
2439.86
2442.01
2445.15
2446.63
1592.98
1593.54
1597.87
1601.7
1603.85
1603.5
1598.93
1594.45
1594.04
1596.3
1599.63
1601.18
1137.52
1138.18
1143.55
1148.41
1150.67
1149.9
1145.07
1140.65
1140.25
1142.42
1145.88
1147.59
871.195
871.947
878.266
883.976
886.249
885.114
880.206
876.054
875.641
877.461
880.911
882.844
705.847
706.674
713.775
720.089
722.262
720.853
716.081
712.422
711.974
713.18
716.454
718.642
598.318
599.204
606.871
613.506
615.493
613.914
609.482
606.516
606.01
606.368
609.314
611.776
525.562
526.494
534.494
541.172
542.922
541.281
537.355
535.229
534.645
533.97
536.469
539.215
474.476
475.441
483.542
490.026
491.515
489.916
486.614
485.412
484.73
482.902
484.874
487.907
437.252
438.238
446.221
452.321
453.543
452.085
449.482
449.226
448.432
445.392
446.794
450.107
409.066
410.061
417.721
423.294
424.265
423.029
421.164
421.83
420.913
416.663
417.477
421.056
386.855
387.842
395.001
399.942
400.7
399.754
398.631
400.152
399.113
393.704
393.936
397.753
368.637
369.601
376.105
380.348
380.944
380.335
379.929
382.22
381.066
374.592
374.26
378.274
353.115
354.039
359.759
363.264
363.758
363.513
363.787
366.758
365.491
358.08
357.214
361.367
339.425
340.294
345.123
347.869
348.31
348.452
349.366
352.918
351.545
343.348
341.983
346.207
326.984
327.785
331.639
333.59
334.035
334.58
336.099
340.113
338.662
329.852
328.026
332.241
315.392
316.114
318.932
320.049
320.54
321.5
323.585
327.932
326.438
317.219
314.969
319.089
304.363
305
306.733
306.991
307.551
308.926
311.529
316.091
314.593
305.184
302.544
306.482
293.687
294.239
294.836
294.229
294.872
296.649
299.704
304.396
302.932
293.553
290.559
294.231
283.203
283.67
283.1
281.627
282.334
284.515
287.946
292.718
291.318
282.176
278.867
282.182
272.776
273.166
271.409
269.079
269.826
272.397
276.142
280.962
279.672
270.928
267.352
270.214
262.288
262.615
259.671
256.506
257.254
260.17
264.217
269.009
267.883
259.706
255.918
258.227
251.626
251.91
247.804
243.845
244.54
247.729
252.056
256.713
255.821
248.412
244.479
246.129
240.682
240.948
235.731
231.046
231.613
234.964
239.509
243.931
243.356
236.957
232.957
233.831
229.43
229.618
223.371
218.069
218.408
221.777
226.454
230.534
230.355
225.253
221.275
221.248
217.832
217.93
210.631
204.795
204.819
208.054
212.774
216.399
216.707
213.182
209.341
208.278
205.769
205.765
197.394
191.064
190.689
193.652
198.318
201.37
202.267
200.676
197.05
194.784
193.043
192.95
183.549
176.862
176.094
178.623
183.04
185.58
186.945
187.574
184.196
180.621
179.522
179.342
169.618
163.198
162.161
164.27
168.367
170.618
172.112
173.77
170.685
166.612
165.944
165.755
156.546
150.432
149.171
150.845
154.616
156.589
158.208
160.295
157.538
153.438
153.177
152.983
144.357
138.531
137.035
138.244
141.673
143.354
145.125
147.655
145.193
141.089
141.141
140.937
132.915
127.388
125.623
126.337
129.4
130.775
132.722
135.752
133.572
129.446
129.691
129.471
122.084
116.909
114.825
115.023
117.692
118.763
120.896
124.449
122.539
118.394
118.711
118.471
111.767
107.011
104.57
104.242
106.495
107.277
109.59
113.639
111.985
107.85
108.132
107.867
101.909
97.6056
94.8167
93.9677
95.7872
96.3218
98.7884
103.254
101.837
97.7652
97.9253
97.6333
92.4805
88.6504
85.5469
84.1993
85.5778
85.94
88.5087
93.2654
92.0614
88.1224
88.1009
87.7785
83.4791
80.1343
76.7624
74.9534
75.8961
76.2065
78.7972
83.6782
82.6582
78.9277
78.6994
78.3398
74.9178
72.0657
68.4805
66.2584
66.7962
67.1289
69.7283
74.5202
73.6525
70.2051
69.7898
69.3756
66.8218
64.4723
60.7274
58.1504
58.3637
58.744
61.2946
65.8364
65.0886
61.9902
61.4667
60.9614
59.2252
57.3861
53.5396
50.666
50.6463
51.0812
53.53
57.6811
57.0228
54.3248
53.7627
53.1889
52.1636
50.8178
46.948
43.8401
43.666
44.1602
46.4614
50.1114
49.5157
47.2524
46.6823
46.1264
45.6678
44.7801
40.9621
37.7034
37.4418
37.9921
40.107
43.1809
42.6265
40.8138
40.2555
39.7485
39.766
39.286
35.5918
32.2688
31.9628
32.5576
34.46
36.936
36.4075
35.0446
34.5162
34.0736
34.4791
34.3408
30.7827
27.4332
27.1204
27.7546
29.4648
31.4065
30.887
29.8975
29.429
29.0417
29.7217
29.8585
26.4383
23.1325
22.8561
23.5209
25.0476
26.4967
25.9755
25.2833
24.9145
24.5731
25.408
25.7571
22.5891
19.4688
19.2272
19.8815
21.1892
22.1461
21.6263
21.2632
20.9915
20.7125
21.637
22.1266
19.2471
16.3844
16.1753
16.7947
17.8968
18.4668
17.9383
17.8368
17.6504
17.4338
18.3817
18.9516
16.3803
13.8105
13.632
14.2038
15.122
15.3955
14.8694
14.9443
14.8435
14.6867
15.6089
16.2103
13.9497
11.6835
11.5326
12.0496
12.8079
12.8612
12.3733
12.5351
12.513
12.4105
13.2744
13.8705
11.9096
9.94088
9.814
10.2737
10.8955
10.7945
10.341
10.5523
10.5971
10.5417
11.3279
11.8933
10.2121
8.5235
8.41711
8.82007
9.32781
9.12584
8.70269
8.93706
9.03517
9.01845
9.71865
10.2376
8.81071
7.37748
7.28825
7.6375
8.05107
7.789
7.39582
7.63234
7.77013
7.78382
8.39733
8.86205
7.66115
6.45503
6.37996
6.68002
7.01643
6.72402
6.36194
6.58553
6.75045
6.78681
7.31821
7.72701
6.72315
5.71492
5.65137
5.90742
6.18085
5.8786
5.54851
5.75004
5.93107
5.98332
6.44025
6.79562
5.96089
5.12232
5.06806
5.28533
5.5074
5.20863
4.91037
5.08684
5.27367
5.33615
5.72778
6.03466
5.34327
4.64846
4.6016
4.785
4.96503
4.67787
4.41001
4.56135
4.74636
4.81457
5.15041
5.41492
4.84389
4.2699
4.22886
4.38278
4.52814
4.25709
4.01749
4.14378
4.32311
4.39365
4.68277
4.91131
4.44068
3.96774
3.93124
4.05948
4.1759
3.92306
3.70916
3.81169
3.98298
4.05342
4.30398
4.50268
4.11551
3.72692
3.69388
3.79968
3.89156
3.65751
3.46662
3.54749
3.70927
3.77807
3.9971
4.17142
3.85355
3.5356
3.50494
3.591
3.66174
3.44614
3.27552
3.33726
3.48876
3.55492
3.74848
3.90306
3.64283
3.38383
3.355
3.42358
3.47581
3.27776
3.12469
3.17
3.31098
3.37397
3.54711
3.68576
3.47363
3.26374
3.23656
3.2895
3.3253
3.14365
3.00557
3.03703
3.16768
3.22733
3.38415
3.50988
3.33813
3.16914
3.14366
3.18245
3.20341
3.03693
2.91158
2.9315
3.05232
3.10872
3.25246
3.36761
3.22995
3.09509
3.07165
3.09732
3.10461
2.95232
2.83763
2.84801
2.95967
3.01311
3.1462
3.25261
3.14394
3.0376
3.01644
3.03
3.02459
2.88563
2.77978
2.78231
2.88534
2.93641
3.06064
3.15979
3.07585
2.99322
2.97464
2.97716
2.95998
2.83354
2.73498
2.73101
2.82475
2.87523
2.99193
3.08507
3.0222
2.95923
2.94347
2.93631
2.90881
2.79337
2.70085
2.69145
2.77611
2.82686
2.93747
3.02518
2.98014
2.93364
2.92091
2.90549
2.86882
2.76301
2.67561
2.66151
2.73821
2.78949
2.89525
2.9778
2.94731
2.91472
2.90524
2.88234
2.83766
2.74083
2.65791
2.63955
2.70974
2.76162
2.86327
2.94071
2.92181
2.90108
2.895
2.86503
2.81364
2.72554
2.64679
2.62426
2.68908
2.74171
2.83984
2.91209
2.90213
2.89161
2.88896
2.85233
2.79562
2.7161
2.64143
2.61467
2.67507
2.72852
2.82366
2.8905
2.88799
2.88549
2.88618
2.84369
2.78279
2.71288
2.64105
2.61002
2.66685
2.72109
2.81377
2.87494
2.87846
2.88219
2.88602
2.83854
2.77459
2.71499
2.64455
2.60951
2.66379
2.71878
2.80957
2.86477
2.87231
2.88148
2.888
2.83645
2.77074
2.72133
2.65104
2.6127
2.66549
2.72113
2.8108
2.85976
2.86904
2.88299
2.89156
2.83718
2.77112
2.73172
2.66155
2.61965
2.67179
2.72837
2.81735
2.86001
2.86883
2.88675
2.89645
2.84068
2.77582
2.74621
2.67864
2.63044
156508
156508
156508
156508
156508
156508
156508
156508
156508
156508
156508
156508
25808.3
25808.6
25810.3
25810.7
25812.6
25814.2
25809.9
25804.6
25803.6
25805.3
25808.8
25811.1
8857.86
8858.15
8860.02
8860.98
8862.87
8864
8860
8855.23
8854.43
8856.19
8859.37
8861.24
4230.47
4230.79
4233.18
4234.94
4236.85
4237.49
4233.56
4229.16
4228.53
4230.37
4233.38
4235.01
2440.95
2441.33
2444.52
2447.28
2449.35
2449.55
2445.4
2441.05
2440.51
2442.46
2445.55
2447.13
1593.61
1594.06
1598.21
1602.02
1604.28
1604.08
1599.62
1595.26
1594.75
1596.73
1599.96
1601.62
1138.22
1138.76
1143.87
1148.67
1151.05
1150.49
1145.82
1141.54
1141.05
1142.86
1146.17
1147.99
871.975
872.593
878.565
884.188
886.587
885.719
881.006
877.009
876.503
877.911
881.168
883.196
706.696
707.391
714.056
720.261
722.552
721.45
716.904
713.411
712.878
713.643
716.685
718.951
599.226
599.992
607.134
613.632
615.742
614.486
610.302
607.503
606.928
606.846
609.525
612.045
526.52
527.351
534.745
541.225
543.143
541.812
538.147
536.179
535.547
534.466
536.666
539.453
475.47
476.361
483.784
489.98
491.708
490.395
487.358
486.296
485.591
483.42
485.067
488.124
438.272
439.217
446.45
452.152
453.702
452.508
450.161
450.025
449.232
445.942
446.995
450.304
410.1
411.092
417.93
422.984
424.376
423.4
421.77
422.534
421.636
417.254
417.709
421.229
387.89
388.918
395.184
399.485
400.747
400.076
399.161
400.765
399.751
394.348
394.221
397.899
369.662
370.713
376.257
379.739
380.913
380.611
380.389
382.761
381.617
375.297
374.622
378.39
354.117
355.176
359.878
362.503
363.635
363.748
364.189
367.254
365.971
358.853
357.671
361.453
340.39
341.443
345.205
346.958
348.091
348.652
349.724
353.383
351.989
344.192
342.55
346.269
327.898
328.931
331.677
332.583
333.725
334.748
336.422
340.533
339.07
330.764
328.71
332.291
316.237
317.238
318.918
319.014
320.154
321.632
323.88
328.259
326.768
318.188
315.774
319.137
305.121
306.079
306.664
305.983
307.107
309.018
311.791
316.3
314.821
306.195
303.474
306.536
294.342
295.243
294.724
293.294
294.383
296.69
299.894
304.463
303.038
294.582
291.611
294.287
283.739
284.57
282.957
280.795
281.844
284.486
288.033
292.594
291.266
283.191
280.032
282.238
273.189
273.93
271.24
268.355
269.363
272.262
276.087
280.558
279.382
271.892
268.612
270.265
262.595
263.216
259.48
255.887
256.845
259.904
263.949
268.232
267.265
260.573
257.243
258.263
251.829
252.341
247.594
243.36
244.203
247.326
251.511
255.548
254.841
249.133
245.826
246.143
240.743
241.168
235.506
230.702
231.356
234.461
238.71
242.408
242.013
237.478
234.265
233.822
229.279
229.591
223.135
217.831
218.213
221.204
225.439
228.709
228.687
225.484
222.457
221.211
217.359
217.543
210.392
204.651
204.667
207.436
211.578
214.337
214.749
213.099
210.286
208.221
204.902
204.951
197.162
191.036
190.587
193.014
196.985
199.158
200.059
200.174
197.618
194.718
191.792
191.67
183.336
176.91
175.987
177.988
181.663
183.409
184.618
186.559
184.359
180.543
177.928
177.615
169.378
163.201
162.003
163.633
167.001
168.543
169.888
172.354
170.471
166.464
164.312
163.98
156.308
150.397
148.992
150.207
153.275
154.642
156.123
158.843
157.142
153.235
151.546
151.2
144.122
138.466
136.841
137.606
140.371
141.566
143.2
146.167
144.615
140.834
139.529
139.155
132.674
127.298
125.409
125.7
128.153
129.182
130.981
134.2
132.776
129.134
128.122
127.707
121.825
116.81
114.589
114.391
116.523
117.399
119.366
122.811
121.496
118.016
117.219
116.752
111.488
106.915
104.312
103.62
105.426
106.166
108.296
111.91
110.683
107.402
106.754
106.232
101.611
97.4902
94.5375
93.3595
94.8369
95.4576
97.7441
101.449
100.286
97.2506
96.7024
96.1245
92.1676
88.5088
85.2465
83.6062
84.7499
85.2509
87.7068
91.4153
90.2935
87.5493
87.0657
86.4394
83.1547
79.9666
76.4447
74.3571
75.1499
75.5892
78.1886
81.8241
80.7227
78.3112
77.8673
77.2063
74.5858
71.8718
68.1505
65.6479
66.1409
66.5767
69.1887
72.7106
71.6142
69.565
69.1421
68.4671
66.4858
64.2392
60.3882
57.5409
57.7911
58.2617
60.808
64.1216
63.0217
61.3491
60.9307
60.2676
58.8858
57.0876
53.1821
50.0738
50.1435
50.6695
53.1004
56.1081
55.0035
53.7042
53.2814
52.6512
51.8194
50.4394
46.5551
43.2818
43.2295
43.8161
46.0892
48.719
47.6153
46.6684
46.245
45.658
45.3187
44.317
40.5254
37.1998
37.0771
37.7188
39.7963
41.9951
40.9034
40.2714
39.861
39.3287
39.4103
38.7392
35.1042
31.8212
31.6563
32.3328
34.193
35.9651
34.8995
34.5299
34.1495
33.6874
34.11
33.7141
30.2612
27.0397
26.8533
27.5618
29.2284
30.6357
29.6084
29.4394
29.1043
28.6944
29.3459
29.1685
25.9181
22.8177
22.6392
23.3777
24.8593
25.9124
24.9457
24.9263
24.6529
24.2778
25.0518
25.0436
22.0729
19.218
19.0531
19.7655
21.0266
21.7105
20.8693
20.9556
20.7582
20.4527
21.3052
21.4168
18.7527
16.1847
16.0377
16.7035
17.7614
18.1168
17.421
17.5544
17.4528
17.2134
18.0797
18.2686
15.92
13.6521
13.5237
14.1318
15.01
15.107
14.5109
14.6779
14.6782
14.5023
15.3384
15.5716
13.5315
11.5586
11.4478
11.9928
12.7155
12.6258
12.0767
12.2913
12.3764
12.2582
13.0355
13.2879
11.5375
9.84294
9.74813
10.2286
10.8197
10.605
10.0922
10.3381
10.4854
10.4173
11.12
11.3732
9.8874
8.44727
8.3663
8.78433
9.26574
8.97494
8.49903
8.75606
8.94481
8.91808
9.54001
9.78183
8.53195
7.31854
7.24932
7.60925
8.00027
7.66971
7.23317
7.48488
7.69768
7.70357
8.24551
8.46893
7.42525
6.40977
6.35033
6.65773
6.97487
6.63002
6.23445
6.46919
6.69278
6.72318
7.19037
7.39238
6.52586
5.68037
5.62896
5.88985
6.14685
5.80452
5.44992
5.66048
5.88545
5.93319
6.33341
6.5138
5.79743
5.09609
5.05122
5.27145
5.47954
5.15011
4.83488
5.01757
5.23779
5.29685
5.63889
5.79924
5.20881
4.62866
4.58905
4.77396
4.94215
4.63141
4.35251
4.50657
4.71829
4.78391
5.07656
5.2194
4.73386
4.25503
4.21959
4.37398
4.50927
4.21995
3.97375
4.1001
4.3013
4.36983
4.62131
4.74954
4.35096
3.95663
3.92447
4.05245
4.16026
3.89315
3.67591
3.7768
3.96617
4.03497
4.2526
4.36911
4.04248
3.71866
3.68902
3.79406
3.87851
3.63321
3.44148
3.51961
3.69646
3.76372
3.95381
4.06125
3.79414
3.52982
3.50152
3.5865
3.65076
3.4262
3.25648
3.31498
3.47914
3.54373
3.71162
3.81227
3.59445
3.37994
3.35268
3.41996
3.46649
3.26121
3.11015
3.15217
3.30393
3.36522
3.51534
3.61106
3.43415
3.26123
3.23503
3.2866
3.31737
3.12972
2.99434
3.02273
3.1627
3.22046
3.35645
3.44868
3.30582
3.16765
3.14265
3.18011
3.19665
3.02501
2.90277
2.91998
3.04901
3.10329
3.22815
3.31783
3.20346
3.09438
3.07114
3.09543
3.09876
2.94197
2.83057
2.83868
2.95781
3.00881
3.12496
3.2126
3.1222
3.03748
3.01631
3.02845
3.01946
2.87649
2.77397
2.77468
2.88511
2.9331
3.04242
3.12815
3.05808
2.99377
2.97485
2.97581
2.95521
2.8253
2.73
2.7247
2.82779
2.87298
2.97688
3.06052
3.00789
2.96079
2.94416
2.93477
2.90315
2.78577
2.69639
2.68615
2.78384
2.82584
2.92524
3.0065
2.96899
2.93647
2.92216
2.90308
2.86118
2.75586
2.67139
2.65698
2.7504
2.78946
2.88503
2.9635
2.93921
2.91909
2.9071
2.87909
2.82778
2.73404
2.65371
2.63558
2.72494
2.7621
2.85427
2.92953
2.91682
2.90723
2.89756
2.86142
2.80176
2.71911
2.64249
2.62071
2.70611
2.74236
2.83138
2.90298
2.90043
2.89976
2.89235
2.84896
2.78216
2.70995
2.63706
2.61143
2.69283
2.72909
2.81512
2.88266
2.8883
2.89579
2.89052
2.84078
2.76826
2.70455
2.63682
2.60707
2.68445
2.72143
2.80453
2.86765
2.8794
2.89466
2.89129
2.83619
2.75956
2.70277
2.64096
2.60684
2.68086
2.71879
2.79886
2.85735
2.87416
2.89589
2.89414
2.83471
2.75569
2.7054
2.64734
2.61002
2.6816
2.72082
2.79764
2.85136
2.87243
2.89928
2.89872
2.83604
2.75645
2.71251
2.6569
2.61687
2.68642
2.72737
2.8006
2.84951
2.87408
2.9048
2.90486
2.84026
2.7618
2.7242
2.66995
2.62745
156508
156508
156508
156508
156508
156508
156508
156508
156508
156508
156508
156508
25810
25810.4
25812.2
25813
25815.8
25817.7
25812.7
25806.5
25805.2
25807.3
25811.2
25813.5
8859.68
8860.03
8862.07
8863.41
8865.92
8867.29
8862.82
8857.43
8856.4
8858.35
8861.82
8863.78
4232.47
4232.83
4235.44
4237.56
4239.93
4240.73
4236.51
4231.75
4230.91
4232.71
4235.9
4237.67
2443.29
2443.69
2447.16
2450.25
2452.66
2452.99
2448.7
2444.26
2443.5
2445.14
2448.29
2450.09
1596.38
1596.84
1601.29
1605.38
1607.9
1607.83
1603.41
1599.2
1598.45
1599.81
1602.98
1604.96
1141.44
1141.96
1147.35
1152.33
1154.93
1154.56
1150.1
1146.22
1145.44
1146.29
1149.42
1151.65
875.601
876.186
882.356
887.978
890.615
890.033
885.722
882.361
881.501
881.607
884.548
887.075
710.67
711.317
718.021
723.967
726.582
725.928
721.96
719.307
718.352
717.488
720.088
722.914
603.475
604.178
611.125
617.088
619.615
619.032
615.587
613.792
612.728
610.727
612.847
615.952
530.967
531.723
538.607
544.336
546.707
546.337
543.551
542.702
541.517
538.284
539.825
543.168
480.043
480.847
487.385
492.667
494.866
494.819
492.778
492.899
491.585
487.095
488.002
491.532
442.902
443.746
449.699
454.364
456.409
456.76
455.504
456.56
455.113
449.413
449.672
453.341
414.726
415.6
420.774
424.697
426.637
427.421
426.954
428.864
427.289
420.485
420.115
423.873
392.462
393.352
397.6
400.703
402.591
403.821
404.118
406.763
405.073
397.325
396.366
400.159
374.139
375.03
378.244
380.486
382.371
384.044
385.06
388.293
386.515
378.025
376.533
380.298
358.464
359.342
361.452
362.819
364.739
366.836
368.513
372.16
370.338
361.348
359.383
363.051
344.578
345.429
346.4
346.887
348.878
351.365
353.629
357.54
355.692
346.475
344.104
347.592
331.899
332.71
332.534
332.146
334.231
337.072
339.83
343.912
342.059
332.854
330.144
333.36
320.023
320.786
319.472
318.233
320.414
323.57
326.721
330.944
329.122
320.1
317.119
319.972
308.66
309.371
306.941
304.894
307.151
310.577
314.034
318.351
316.61
307.935
304.752
307.156
297.594
298.25
294.746
291.949
294.239
297.88
301.602
305.93
304.333
296.147
292.835
294.713
286.652
287.258
282.736
279.272
281.537
285.307
289.251
293.539
292.083
284.568
281.203
282.489
275.689
276.254
270.813
266.778
268.926
272.729
276.843
280.955
279.718
273.056
269.716
270.358
264.568
265.116
258.877
254.379
256.3
260.027
264.272
268.048
267.106
261.491
258.258
258.218
253.221
253.725
246.847
241.947
243.57
247.087
251.354
254.69
254.126
249.763
246.721
245.97
241.633
242.035
234.643
229.405
230.652
233.82
237.969
240.78
240.682
237.76
235.005
233.511
229.717
229.984
222.184
216.676
217.455
220.092
224.016
226.204
226.675
225.429
223.014
220.714
217.32
217.447
209.376
203.668
203.86
205.788
209.371
210.818
211.985
212.645
210.552
207.454
204.307
204.282
196.096
190.268
189.733
190.773
193.899
194.513
196.477
199.3
197.553
193.587
190.542
190.348
182.195
176.4
175.058
175.29
178.015
178.423
180.559
185.261
183.892
179.021
175.94
175.637
168.088
162.73
160.859
160.578
163.004
163.34
165.54
170.561
169.488
164.555
161.886
161.57
154.686
149.832
147.5
146.801
148.94
149.211
151.495
156.498
155.528
150.909
148.694
148.364
142.121
137.766
134.975
133.858
135.703
135.908
138.306
143.293
142.379
138.089
136.248
135.894
130.307
126.429
123.184
121.632
123.176
123.329
125.857
130.835
129.942
125.98
124.419
124.031
119.148
115.686
112.032
110.038
111.286
111.414
114.065
119.005
118.1
114.48
113.115
112.686
108.554
105.457
101.459
99.0338
99.9994
100.149
102.889
107.721
106.775
103.522
102.29
101.816
98.4667
95.7557
91.4322
88.6076
89.3229
89.5595
92.3205
96.9484
95.9337
93.0774
91.9357
91.4148
88.86
86.5566
81.9545
78.7769
79.3
79.7176
82.3778
86.683
85.5799
83.1451
82.0699
81.5044
79.7305
77.8481
73.035
69.5935
70.0197
70.6378
73.1087
76.948
75.7463
73.7476
72.7318
72.1263
71.0925
69.6332
64.6913
61.0889
61.4582
62.2603
64.5774
67.7824
66.483
64.9206
63.9724
63.333
62.9726
61.9254
56.9451
53.2725
53.6163
54.5742
56.7322
59.2327
57.8476
56.7067
55.8468
55.1815
55.4046
54.7458
49.82
46.1758
46.5042
47.5826
49.5566
51.3467
49.8977
49.1486
48.4089
47.7257
48.4252
48.1194
43.3384
39.8137
40.1249
41.2836
43.0553
44.1674
42.6847
42.2877
41.7038
41.0129
42.0712
42.0719
37.5189
34.1718
34.4588
35.6555
37.2201
37.7299
36.2505
36.1579
35.7655
35.0762
36.3728
36.6215
32.3206
29.1559
29.4338
30.6365
32.0061
32.0428
30.5803
30.6895
30.5067
29.8208
31.2493
31.6861
27.6398
24.7101
24.9847
26.1597
27.3402
26.9997
25.564
25.787
25.8117
25.149
26.6108
27.1795
23.4895
20.882
21.1244
22.2238
23.2152
22.5575
21.1923
21.539
21.7443
21.1447
22.5616
23.2047
19.9027
17.6265
17.8303
18.8281
19.65
18.8377
17.5132
17.9435
18.2773
17.761
19.0762
19.7452
16.8426
14.8902
15.0544
15.9382
16.609
15.7556
14.4679
14.9575
15.3613
14.9378
16.1186
16.7767
14.2646
12.6139
12.74
13.5078
14.048
13.2118
12.0151
12.5138
12.9387
12.6074
13.641
14.2617
12.1161
10.7372
10.8287
11.4848
11.9149
11.1278
10.0769
10.523
10.9467
10.7006
11.5877
12.154
10.3421
9.20171
9.26307
9.81627
10.1554
9.43336
8.53551
8.91178
9.3227
9.15127
9.90118
10.4041
8.88867
7.95325
7.9893
8.45057
8.71575
8.06499
7.31049
7.61606
8.00774
7.89892
8.52587
8.96308
7.70532
6.94293
6.95854
7.33973
7.54558
6.96587
6.33854
6.57939
6.94822
6.88979
7.41024
7.78429
6.74645
6.128
6.12769
6.44046
6.59911
6.08637
5.56797
5.75294
6.09717
6.07768
6.50833
6.82493
5.97231
5.47198
5.45973
5.71487
5.83608
5.38416
4.95676
5.09544
5.41452
5.4239
5.78048
6.04699
5.34877
4.9444
4.92358
5.13066
5.22203
4.82399
4.47135
4.57276
4.86709
4.89677
5.19328
5.41759
4.84713
4.52025
4.49358
4.66083
4.72816
4.37707
4.08546
4.15723
4.4278
4.47077
4.71921
4.90898
4.44368
4.17929
4.14894
4.28313
4.33079
4.02023
3.77796
3.82697
4.07484
4.12558
4.33594
4.49813
4.11918
3.9053
3.87289
3.97951
4.01078
3.735
3.53214
3.56392
3.79083
3.84515
4.02559
4.16619
3.85819
3.6852
3.65206
3.73547
3.75277
3.50682
3.3349
3.35387
3.56197
3.61685
3.77388
3.89791
3.64835
3.50781
3.47578
3.53941
3.5445
3.3242
3.17657
3.18586
3.37739
3.43072
3.56949
3.68101
3.47983
3.36581
3.33556
3.38207
3.37619
3.17809
3.04957
3.05135
3.22849
3.2789
3.40341
3.50563
3.34477
3.25267
3.22456
3.25608
3.23996
3.06136
2.94782
2.94367
3.10843
3.15514
3.26847
3.36388
3.23687
3.16318
3.13727
3.15551
3.12971
2.9684
2.86645
2.85758
3.01177
3.05442
3.15892
3.2494
3.15104
3.09307
3.06881
3.07558
3.04077
2.89441
2.80159
2.78896
2.93413
2.97271
3.07015
3.15708
3.08315
3.03893
3.01581
3.01239
2.96913
2.83562
2.75017
2.73448
2.87198
2.90673
2.99848
3.08278
3.02982
2.99795
2.97593
2.96277
2.91164
2.78906
2.70972
2.69154
2.82246
2.85383
2.94093
3.02315
2.9883
2.96757
2.9467
2.92422
2.86573
2.75246
2.67826
2.65801
2.7833
2.81187
2.89509
2.97543
2.95632
2.94569
2.92601
2.89468
2.82933
2.72405
2.65421
2.63223
2.75293
2.77914
2.85902
2.93741
2.93202
2.93062
2.91214