/*--------------------------------*- C++ -*----------------------------------*\
| =========                 |                                                 |
| \\      /  F ield         | OpenFOAM: The Open Source CFD Toolbox           |
|  \\    /   O peration     | Version:  v1912                                 |
|   \\  /    A nd           | Website:  www.openfoam.com                      |
|    \\/     M anipulation  |                                                 |
\*---------------------------------------------------------------------------*/
FoamFile
{
    version     2.0;
    format      ascii;
    class       surfaceScalarField;
    location    "11.2";
    object      phi;
}
// * * * * * * * * * * * * * * * * * * * * * * * * * * * * * * * * * * * * * //

dimensions      [1 0 -1 0 0 0 0];
oriented        oriented;


internalField   nonuniform List<scalar> 
97428
(
-7.1509e-10
3.21712e-09
-1.48566e-07
-1.68749e-09
3.46727e-09
-1.4937e-07
-2.22302e-09
3.59775e-09
-1.55998e-07
-2.1658e-09
3.39533e-09
-1.63039e-07
-1.9305e-09
3.059e-09
-1.67126e-07
-1.68377e-09
2.79946e-09
-1.66196e-07
-1.29932e-09
2.73622e-09
-1.5864e-07
-6.27976e-10
2.74841e-09
-1.50948e-07
-2.5977e-10
2.9854e-09
-1.50848e-07
-5.32072e-10
3.21165e-09
-1.56511e-07
-7.38381e-10
3.10886e-09
-1.61951e-07
3.00674e-09
-1.62991e-07
-2.28108e-09
1.27379e-08
-4.71974e-07
-5.28341e-09
1.36373e-08
-4.74396e-07
-6.78561e-09
1.39382e-08
-4.94495e-07
-6.43825e-09
1.30456e-08
-5.15885e-07
-5.66225e-09
1.18041e-08
-5.2819e-07
-4.9792e-09
1.09124e-08
-5.25266e-07
-3.91046e-09
1.07317e-08
-5.02501e-07
-1.93315e-09
1.07722e-08
-4.79388e-07
-7.96958e-10
1.1638e-08
-4.79105e-07
-1.65668e-09
1.25721e-08
-4.96167e-07
-2.38134e-09
1.22015e-08
-5.12541e-07
1.16506e-08
-5.15651e-07
-4.00825e-09
2.86733e-08
-8.26882e-07
-9.13856e-09
3.05452e-08
-8.30975e-07
-1.15325e-08
3.08832e-08
-8.65095e-07
-1.0747e-08
2.87438e-08
-9.01415e-07
-9.36187e-09
2.60913e-08
-9.22052e-07
-8.27177e-09
2.43022e-08
-9.16893e-07
-6.56575e-09
2.40256e-08
-8.78661e-07
-3.27372e-09
2.41224e-08
-8.39991e-07
-1.33746e-09
2.59616e-08
-8.39529e-07
-2.84768e-09
2.80852e-08
-8.68099e-07
-4.18721e-09
2.72865e-08
-8.95587e-07
2.58664e-08
-9.00836e-07
-5.88719e-09
5.11511e-08
-1.21283e-06
-1.32228e-08
5.42456e-08
-1.21865e-06
-1.64425e-08
5.43386e-08
-1.26741e-06
-1.50997e-08
5.03383e-08
-1.31928e-06
-1.3051e-08
4.58136e-08
-1.34825e-06
-1.1571e-08
4.29516e-08
-1.34055e-06
-9.25414e-09
4.26825e-08
-1.28674e-06
-4.61803e-09
4.28905e-08
-1.2326e-06
-1.8523e-09
4.60134e-08
-1.23196e-06
-4.08665e-09
4.97814e-08
-1.27195e-06
-6.13607e-09
4.83781e-08
-1.31063e-06
4.56369e-08
-1.31812e-06
-7.90145e-09
8.0267e-08
-1.62907e-06
-1.75016e-08
8.47549e-08
-1.63668e-06
-2.14875e-08
8.41816e-08
-1.70075e-06
-1.94947e-08
7.76536e-08
-1.76878e-06
-1.67454e-08
7.08314e-08
-1.80597e-06
-1.48876e-08
6.68031e-08
-1.79534e-06
-1.19684e-08
6.67264e-08
-1.72602e-06
-5.93944e-09
6.71382e-08
-1.65675e-06
-2.30802e-09
7.18229e-08
-1.65592e-06
-5.35014e-09
7.76475e-08
-1.70702e-06
-8.21872e-09
7.54407e-08
-1.75684e-06
7.0909e-08
-1.76673e-06
-1.00252e-08
1.16085e-07
-2.0746e-06
-2.19294e-08
1.22055e-07
-2.08404e-06
-2.66312e-08
1.20265e-07
-2.16412e-06
-2.39271e-08
1.10492e-07
-2.24887e-06
-2.04613e-08
1.00978e-07
-2.29399e-06
-1.82336e-08
9.5767e-08
-2.28001e-06
-1.47024e-08
9.61463e-08
-2.19546e-06
-7.21127e-09
9.6896e-08
-2.11168e-06
-2.66937e-09
1.03392e-07
-2.11066e-06
-6.61374e-09
1.11634e-07
-2.17231e-06
-1.04286e-08
1.08398e-07
-2.23307e-06
1.01597e-07
-2.24552e-06
-1.22251e-08
1.58641e-07
-2.54812e-06
-2.6451e-08
1.66103e-07
-2.55942e-06
-3.18298e-08
1.62427e-07
-2.65617e-06
-2.83894e-08
1.48642e-07
-2.75812e-06
-2.42147e-08
1.3607e-07
-2.81074e-06
-2.16215e-08
1.29736e-07
-2.79296e-06
-1.74509e-08
1.30904e-07
-2.69368e-06
-8.4067e-09
1.32166e-07
-2.59631e-06
-2.89982e-09
1.40699e-07
-2.59508e-06
-7.85174e-09
1.51667e-07
-2.66643e-06
-1.27604e-08
1.47144e-07
-2.73777e-06
1.37589e-07
-2.753e-06
-1.44614e-08
2.07952e-07
-3.04807e-06
-3.1003e-08
2.1684e-07
-3.06127e-06
-3.70332e-08
2.10501e-07
-3.17529e-06
-3.28718e-08
1.91886e-07
-3.29474e-06
-2.80216e-08
1.75924e-07
-3.35427e-06
-2.50644e-08
1.68599e-07
-3.33226e-06
-2.02086e-08
1.70946e-07
-3.219e-06
-9.49926e-09
1.72928e-07
-3.10922e-06
-2.96237e-09
1.83706e-07
-3.10775e-06
-9.03701e-09
1.97664e-07
-3.18771e-06
-1.52088e-08
1.91565e-07
-3.26907e-06
1.78761e-07
-3.28732e-06
-1.66897e-08
2.64023e-07
-3.57271e-06
-3.55161e-08
2.74208e-07
-3.58781e-06
-4.21869e-08
2.64327e-07
-3.71963e-06
-3.73631e-08
2.40012e-07
-3.8567e-06
-3.18983e-08
2.20368e-07
-3.92241e-06
-2.85754e-08
2.12257e-07
-3.89582e-06
-2.29705e-08
2.16212e-07
-3.7695e-06
-1.04635e-08
2.19144e-07
-3.64874e-06
-2.82059e-09
2.3237e-07
-3.647e-06
-1.0141e-08
2.49544e-07
-3.73418e-06
-1.77672e-08
2.41551e-07
-3.82486e-06
2.2499e-07
-3.84641e-06
-1.88629e-08
3.26854e-07
-4.12025e-06
-3.99165e-08
3.38153e-07
-4.13725e-06
-4.72332e-08
3.23754e-07
-4.28726e-06
-4.18517e-08
2.9282e-07
-4.44187e-06
-3.58616e-08
2.6925e-07
-4.51297e-06
-3.21688e-08
2.60628e-07
-4.48152e-06
-2.5733e-08
2.6664e-07
-4.34326e-06
-1.12762e-08
2.70762e-07
-4.21311e-06
-2.43965e-09
2.86638e-07
-4.21105e-06
-1.11343e-08
3.07237e-07
-4.30382e-06
-2.04266e-08
2.97007e-07
-4.40295e-06
2.76162e-07
-4.42813e-06
-2.09319e-08
3.96442e-07
-4.68898e-06
-4.41282e-08
4.08621e-07
-4.70792e-06
-5.21134e-08
3.88637e-07
-4.8764e-06
-4.63263e-08
3.50121e-07
-5.04825e-06
-3.99296e-08
3.22442e-07
-5.12394e-06
-3.58599e-08
3.13641e-07
-5.08748e-06
-2.84942e-08
3.22162e-07
-4.93845e-06
-1.19169e-08
3.27712e-07
-4.80063e-06
-1.78728e-09
3.46448e-07
-4.79815e-06
-1.19867e-08
3.7068e-07
-4.89471e-06
-2.31757e-08
3.57853e-07
-5.00132e-06
3.32178e-07
-5.03051e-06
-2.28471e-08
4.72772e-07
-5.27747e-06
-4.80736e-08
4.85562e-07
-5.29837e-06
-5.67678e-08
4.58835e-07
-5.48549e-06
-5.07764e-08
4.11737e-07
-5.67409e-06
-4.41214e-08
3.79832e-07
-5.75361e-06
-3.9666e-08
3.71235e-07
-5.71213e-06
-3.12546e-08
3.82699e-07
-5.55356e-06
-1.2369e-08
3.89901e-07
-5.40982e-06
-8.34478e-10
4.11723e-07
-5.4068e-06
-1.26677e-08
4.39813e-07
-5.50516e-06
-2.59992e-08
4.24025e-07
-5.61823e-06
3.92946e-07
-5.65187e-06
-2.4559e-08
5.55824e-07
-5.88461e-06
-5.16746e-08
5.68917e-07
-5.90755e-06
-6.11371e-08
5.34203e-07
-6.11341e-06
-5.51927e-08
4.77499e-07
-6.31823e-06
-4.84579e-08
4.41319e-07
-6.40086e-06
-4.36067e-08
4.33341e-07
-6.35444e-06
-3.4018e-08
4.48155e-07
-6.18756e-06
-1.26199e-08
4.5721e-07
-6.03967e-06
4.45772e-10
4.82364e-07
-6.03595e-06
-1.31466e-08
5.14566e-07
-6.13395e-06
-2.88786e-08
4.9546e-07
-6.25244e-06
4.58379e-07
-6.29107e-06
-2.60185e-08
6.45525e-07
-6.50992e-06
-5.48526e-08
6.58576e-07
-6.53501e-06
-6.51615e-08
6.14543e-07
-6.75958e-06
-5.95663e-08
5.47205e-07
-6.97991e-06
-5.29609e-08
5.06774e-07
-7.06507e-06
-4.77038e-08
4.9985e-07
-7.01389e-06
-3.67916e-08
5.18375e-07
-6.83993e-06
-1.26616e-08
5.29443e-07
-6.68966e-06
2.07086e-09
5.58197e-07
-6.68504e-06
-1.33922e-08
5.9481e-07
-6.78038e-06
-3.17902e-08
5.72059e-07
-6.90323e-06
5.28351e-07
-6.94748e-06
-2.71757e-08
7.41728e-07
-7.15304e-06
-5.75243e-08
7.54355e-07
-7.18037e-06
-6.87756e-08
6.99604e-07
-7.42339e-06
-6.38837e-08
6.20631e-07
-7.65833e-06
-5.76488e-08
5.76046e-07
-7.74552e-06
-5.19775e-08
5.70601e-07
-7.68994e-06
-3.95829e-08
5.93132e-07
-7.51011e-06
-1.24902e-08
6.0631e-07
-7.35922e-06
4.06145e-09
6.38957e-07
-7.35342e-06
-1.33731e-08
6.8037e-07
-7.44372e-06
-3.47023e-08
6.53693e-07
-7.56986e-06
6.02699e-07
-7.62043e-06
-2.79792e-08
8.44254e-07
-7.81338e-06
-5.96016e-08
8.56036e-07
-7.84305e-06
-7.19088e-08
7.8912e-07
-8.10404e-06
-6.81263e-08
6.9758e-07
-8.35259e-06
-6.25356e-08
6.48998e-07
-8.44147e-06
-5.64457e-08
6.45428e-07
-8.38194e-06
-4.24001e-08
6.7218e-07
-8.19744e-06
-1.21073e-08
6.87479e-07
-8.04759e-06
6.4252e-09
7.24346e-07
-8.04029e-06
-1.30579e-08
7.71067e-07
-8.12314e-06
-3.7573e-08
7.40243e-07
-8.25155e-06
6.8126e-07
-8.30916e-06
-2.83781e-08
9.52893e-07
-8.49046e-06
-6.0994e-08
9.63372e-07
-8.52256e-06
-7.44868e-08
8.82827e-07
-8.8008e-06
-7.22719e-08
7.77884e-07
-9.0619e-06
-6.76316e-08
7.25515e-07
-9.15225e-06
-6.11241e-08
7.2416e-07
-9.08933e-06
-4.52523e-08
7.55251e-07
-8.90135e-06
-1.15199e-08
7.7259e-07
-8.75409e-06
9.16336e-09
8.14042e-07
-8.74492e-06
-1.24161e-08
8.66721e-07
-8.81793e-06
-4.0351e-08
8.31601e-07
-8.94761e-06
7.63872e-07
-9.01302e-06
-2.83221e-08
1.0674e-06
-9.18387e-06
-6.16092e-08
1.07608e-06
-9.21845e-06
-7.64325e-08
9.80464e-07
-9.51305e-06
-7.62937e-08
8.61421e-07
-9.78556e-06
-7.29422e-08
8.05503e-07
-9.8773e-06
-6.60264e-08
8.06623e-07
-9.81164e-06
-4.81495e-08
8.42069e-07
-9.62134e-06
-1.07415e-08
8.61259e-07
-9.4781e-06
1.22685e-08
9.07707e-07
-9.46667e-06
-1.14189e-08
9.67162e-07
-9.52752e-06
-4.29747e-08
9.27669e-07
-9.65748e-06
8.50371e-07
-9.73145e-06
-2.77621e-08
1.1875e-06
-9.89329e-06
-6.13545e-08
1.19385e-06
-9.93036e-06
-7.76666e-08
1.08178e-06
-1.02402e-05
-8.01605e-08
9.48106e-07
-1.05229e-05
-7.84676e-08
8.88893e-07
-1.06161e-05
-7.11624e-08
8.92643e-07
-1.05484e-05
-5.11018e-08
9.32343e-07
-1.0357e-05
-9.79145e-09
9.53084e-07
-1.02191e-05
1.57233e-08
1.00499e-06
-1.02049e-05
-1.00405e-08
1.07222e-06
-1.02514e-05
-4.53716e-08
1.02836e-06
-1.03807e-05
9.40588e-07
-1.04639e-05
-2.66518e-08
1.31287e-06
-1.06184e-05
-6.01383e-08
1.31633e-06
-1.06579e-05
-7.8109e-08
1.18655e-06
-1.09816e-05
-8.38366e-08
1.0379e-06
-1.12734e-05
-8.4201e-08
9.75635e-07
-1.13681e-05
-7.65372e-08
9.82043e-07
-1.12993e-05
-5.41185e-08
1.02577e-06
-1.11078e-05
-8.69564e-09
1.04765e-06
-1.09765e-05
1.94992e-08
1.10553e-06
-1.09592e-05
-8.25888e-09
1.18175e-06
-1.09892e-05
-4.74582e-08
1.13357e-06
-1.11169e-05
1.03434e-06
-1.121e-05
-2.49479e-08
1.44316e-06
-1.1359e-05
-5.78726e-08
1.44315e-06
-1.14008e-05
-7.76809e-08
1.29454e-06
-1.17369e-05
-8.72818e-08
1.1308e-06
-1.20364e-05
-9.01285e-08
1.0657e-06
-1.21329e-05
-8.21497e-08
1.07464e-06
-1.20638e-05
-5.7207e-08
1.12203e-06
-1.18735e-05
-7.48644e-09
1.14452e-06
-1.17497e-05
2.35552e-08
1.20897e-06
-1.17289e-05
-6.05757e-09
1.29558e-06
-1.17405e-05
-4.91401e-08
1.2432e-06
-1.18657e-05
1.13143e-06
-1.19692e-05
-2.26121e-08
1.57796e-06
-1.21146e-05
-5.44761e-08
1.57389e-06
-1.21587e-05
-7.63068e-08
1.40556e-06
-1.25054e-05
-9.04522e-08
1.22685e-06
-1.28113e-05
-9.62276e-08
1.15907e-06
-1.29097e-05
-8.79913e-08
1.17025e-06
-1.28414e-05
-6.0372e-08
1.22079e-06
-1.26534e-05
-6.20268e-09
1.24326e-06
-1.25382e-05
2.78362e-08
1.31492e-06
-1.25135e-05
-3.42755e-09
1.41353e-06
-1.25051e-05
-5.03136e-08
1.35712e-06
-1.26267e-05
1.23162e-06
-1.2741e-05
-1.96122e-08
1.7168e-06
-1.28849e-05
-4.98776e-08
1.70812e-06
-1.29311e-05
-7.39186e-08
1.51944e-06
-1.32864e-05
-9.33015e-08
1.32613e-06
-1.35973e-05
-1.02467e-07
1.25574e-06
-1.3698e-05
-9.40444e-08
1.26866e-06
-1.36316e-05
-6.36137e-08
1.32168e-06
-1.3447e-05
-4.88939e-09
1.34341e-06
-1.33411e-05
3.22724e-08
1.42302e-06
-1.33122e-05
-3.69058e-10
1.53541e-06
-1.32824e-05
-5.08676e-08
1.47516e-06
-1.33995e-05
1.33466e-06
-1.35247e-05
-1.59249e-08
1.85916e-06
-1.36695e-05
-4.40207e-08
1.84534e-06
-1.37176e-05
-7.0459e-08
1.63599e-06
-1.40793e-05
-9.57818e-08
1.42873e-06
-1.43935e-05
-1.08805e-07
1.35571e-06
-1.44969e-05
-1.00281e-07
1.36964e-06
-1.44334e-05
-6.6927e-08
1.4243e-06
-1.42536e-05
-3.59737e-09
1.44449e-06
-1.41577e-05
3.67779e-08
1.53287e-06
-1.41244e-05
3.1066e-09
1.66096e-06
-1.40721e-05
-5.06868e-08
1.59709e-06
-1.41837e-05
1.44022e-06
-1.43198e-05
-1.15369e-08
2.00447e-06
-1.44677e-05
-3.68684e-08
1.98504e-06
-1.45175e-05
-6.58861e-08
1.75508e-06
-1.48833e-05
-9.7846e-08
1.53479e-06
-1.51991e-05
-1.15193e-07
1.45899e-06
-1.53054e-05
-1.06661e-07
1.47293e-06
-1.52462e-05
-7.03002e-08
1.52821e-06
-1.50721e-05
-2.38237e-09
1.54605e-06
-1.49869e-05
4.12516e-08
1.64404e-06
-1.4949e-05
6.96926e-09
1.78989e-06
-1.48736e-05
-4.96569e-08
1.72259e-06
-1.49787e-05
1.54796e-06
-1.51254e-05
-6.44804e-09
2.15207e-06
-1.52788e-05
-2.84083e-08
2.12664e-06
-1.53301e-05
-6.01771e-08
1.87656e-06
-1.56972e-05
-9.94494e-08
1.64447e-06
-1.60129e-05
-1.2157e-07
1.56556e-06
-1.61226e-05
-1.13134e-07
1.57823e-06
-1.60686e-05
-7.37144e-08
1.63295e-06
-1.59016e-05
-1.30404e-09
1.64758e-06
-1.58274e-05
4.5578e-08
1.75612e-06
-1.57849e-05
1.1182e-08
1.92181e-06
-1.5686e-05
-4.76697e-08
1.8513e-06
-1.57838e-05
1.65745e-06
-1.59406e-05
-6.72744e-10
2.30123e-06
-1.61018e-05
-1.86564e-08
2.26951e-06
-1.61544e-05
-5.33325e-08
2.00028e-06
-1.65202e-05
-1.00552e-07
1.75792e-06
-1.68337e-05
-1.27869e-07
1.6754e-06
-1.69471e-05
-1.19637e-07
1.6852e-06
-1.68997e-05
-7.71431e-08
1.73798e-06
-1.67407e-05
-4.29723e-10
1.74858e-06
-1.66777e-05
4.96293e-08
1.86864e-06
-1.66308e-05
1.56852e-08
2.05625e-06
-1.65087e-05
-4.46306e-08
1.98269e-06
-1.65982e-05
1.76818e-06
-1.67644e-05
5.75801e-09
2.45117e-06
-1.69356e-05
-7.6603e-09
2.41297e-06
-1.69893e-05
-4.53778e-08
2.12608e-06
-1.7351e-05
-1.01118e-07
1.87529e-06
-1.76604e-05
-1.34016e-07
1.78845e-06
-1.77778e-05
-1.26095e-07
1.79344e-06
-1.77379e-05
-8.05524e-08
1.84275e-06
-1.7588e-05
1.98597e-10
1.84854e-06
-1.75364e-05
5.327e-08
1.9811e-06
-1.74853e-05
2.04041e-08
2.19263e-06
-1.73404e-05
-4.04652e-08
2.11614e-06
-1.7421e-05
1.87957e-06
-1.75955e-05
1.28015e-08
2.601e-06
-1.77791e-05
4.47174e-09
2.55631e-06
-1.78338e-05
-3.63649e-08
2.25373e-06
-1.81884e-05
-1.0112e-07
1.99669e-06
-1.84918e-05
-1.39931e-07
1.90458e-06
-1.86133e-05
-1.32426e-07
1.9025e-06
-1.85819e-05
-8.39019e-08
1.94663e-06
-1.84421e-05
5.05617e-10
1.9469e-06
-1.84019e-05
5.63606e-08
2.09299e-06
-1.83468e-05
2.52484e-08
2.33024e-06
-1.81802e-05
-3.51264e-08
2.25088e-06
-1.82513e-05
1.99093e-06
-1.84329e-05
2.03924e-08
2.74979e-06
-1.86312e-05
1.77161e-08
2.69864e-06
-1.86865e-05
-2.63697e-08
2.38299e-06
-1.90313e-05
-1.00537e-07
2.12211e-06
-1.93266e-05
-1.45529e-07
2.02358e-06
-1.94524e-05
-1.38538e-07
2.0118e-06
-1.94304e-05
-8.71454e-08
2.04894e-06
-1.93014e-05
4.40775e-10
2.04309e-06
-1.92725e-05
5.87645e-08
2.20371e-06
-1.92139e-05
3.01143e-08
2.46827e-06
-1.90269e-05
-2.86e-08
2.38598e-06
-1.90881e-05
2.10145e-06
-1.92755e-05
2.8457e-08
2.89649e-06
-1.94905e-05
3.18495e-08
2.83908e-06
-1.95465e-05
-1.549e-08
2.51346e-06
-1.98786e-05
-9.93503e-08
2.25147e-06
-2.01638e-05
-1.50719e-07
2.14513e-06
-2.02938e-05
-1.44334e-07
2.12071e-06
-2.02819e-05
-9.02323e-08
2.14888e-06
-2.01646e-05
-4.25666e-11
2.13644e-06
-2.01469e-05
6.03522e-08
2.31257e-06
-2.00853e-05
3.48883e-08
2.60573e-06
-1.98794e-05
-2.09093e-08
2.52033e-06
-1.99305e-05
2.21016e-06
-2.0122e-05
3.69078e-08
3.03997e-06
-2.0356e-05
4.67332e-08
2.97663e-06
-2.04125e-05
-3.84477e-09
2.64462e-06
-2.07291e-05
-9.75484e-08
2.38454e-06
-2.10022e-05
-1.55407e-07
2.26879e-06
-2.11363e-05
-1.49708e-07
2.22843e-06
-2.1135e-05
-9.31073e-08
2.24557e-06
-2.10302e-05
-1.01034e-09
2.22621e-06
-2.10233e-05
6.10075e-08
2.41878e-06
-2.09592e-05
3.94496e-08
2.74152e-06
-2.07365e-05
-1.21188e-08
2.65264e-06
-2.07774e-05
2.31599e-06
-2.09713e-05
4.56464e-08
3.17897e-06
-2.12264e-05
6.21782e-08
3.11017e-06
-2.12833e-05
8.42868e-09
2.77587e-06
-2.15816e-05
-9.512e-08
2.52104e-06
-2.18407e-05
-1.59492e-07
2.39402e-06
-2.19785e-05
-1.54551e-07
2.33408e-06
-2.19882e-05
-9.57124e-08
2.33801e-06
-2.18963e-05
-2.41197e-09
2.31151e-06
-2.18998e-05
6.06337e-08
2.52153e-06
-2.18341e-05
4.36746e-08
2.87438e-06
-2.15971e-05
-2.33982e-09
2.78149e-06
-2.16279e-05
2.41775e-06
-2.18221e-05
5.45636e-08
3.31208e-06
-2.21004e-05
7.79728e-08
3.23844e-06
-2.21575e-05
2.11791e-08
2.90649e-06
-2.24348e-05
-9.2053e-08
2.66053e-06
-2.2678e-05
-1.62864e-07
2.52019e-06
-2.2819e-05
-1.58749e-07
2.43671e-06
-2.28398e-05
-9.79887e-08
2.42515e-06
-2.27613e-05
-4.31285e-09
2.39146e-06
-2.27744e-05
5.91621e-08
2.61989e-06
-2.27079e-05
4.74417e-08
3.00296e-06
-2.24597e-05
8.26176e-09
2.90536e-06
-2.24806e-05
2.51417e-06
-2.26731e-05
6.35414e-08
3.43782e-06
-2.29761e-05
9.38895e-08
3.3601e-06
-2.30332e-05
3.42475e-08
3.03568e-06
-2.32872e-05
-8.83309e-08
2.8025e-06
-2.35129e-05
-1.6541e-07
2.64658e-06
-2.36565e-05
-1.62187e-07
2.53528e-06
-2.36881e-05
-9.98781e-08
2.5059e-06
-2.36231e-05
-6.70621e-09
2.46522e-06
-2.3645e-05
5.65596e-08
2.71293e-06
-2.35787e-05
5.06384e-08
3.12582e-06
-2.33227e-05
1.95125e-08
3.02257e-06
-2.33341e-05
2.60399e-06
-2.35227e-05
7.24592e-08
3.55466e-06
-2.38518e-05
1.09695e-07
3.47375e-06
-2.39088e-05
4.74771e-08
3.16254e-06
-2.41375e-05
-8.39306e-08
2.94631e-06
-2.43445e-05
-1.67009e-07
2.7724e-06
-2.44896e-05
-1.64752e-07
2.62876e-06
-2.45316e-05
-1.01324e-07
2.5792e-06
-2.44799e-05
-9.55613e-09
2.53191e-06
-2.45097e-05
5.28357e-08
2.79972e-06
-2.44446e-05
5.31682e-08
3.24145e-06
-2.41845e-05
3.11504e-08
3.13143e-06
-2.4187e-05
2.68588e-06
-2.43695e-05
8.12e-08
3.66104e-06
-2.47256e-05
1.2516e-07
3.57795e-06
-2.47822e-05
6.07188e-08
3.28609e-06
-2.49842e-05
-7.88189e-08
3.0912e-06
-2.51715e-05
-1.67532e-07
2.89676e-06
-2.5317e-05
-1.6633e-07
2.71609e-06
-2.53686e-05
-1.02273e-07
2.64399e-06
-2.53299e-05
-1.28094e-08
2.59074e-06
-2.53663e-05
4.80478e-08
2.87934e-06
-2.53037e-05
5.49579e-08
3.34833e-06
-2.50433e-05
4.29029e-08
3.23019e-06
-2.50376e-05
2.75853e-06
-2.52119e-05
8.96562e-08
3.75541e-06
-2.55954e-05
1.40071e-07
3.67127e-06
-2.56513e-05
7.38394e-08
3.40531e-06
-2.58258e-05
-7.29522e-08
3.23632e-06
-2.59928e-05
-1.6685e-07
3.01877e-06
-2.61376e-05
-1.66815e-07
2.79627e-06
-2.61975e-05
-1.02676e-07
2.69935e-06
-2.61712e-05
-1.63887e-08
2.64099e-06
-2.6213e-05
4.23037e-08
2.95094e-06
-2.61539e-05
5.59635e-08
3.44492e-06
-2.58972e-05
5.44799e-08
3.31713e-06
-2.58843e-05
2.82073e-06
-2.60483e-05
9.77361e-08
3.83629e-06
-2.64591e-05
1.54236e-07
3.75231e-06
-2.65142e-05
8.67276e-08
3.51912e-06
-2.66609e-05
-6.62757e-08
3.38069e-06
-2.68076e-05
-1.64828e-07
3.13748e-06
-2.69502e-05
-1.66106e-07
2.86836e-06
-2.70169e-05
-1.02485e-07
2.74443e-06
-2.70022e-05
-2.01923e-08
2.68208e-06
-2.70481e-05
3.57626e-08
3.01374e-06
-2.69937e-05
5.61758e-08
3.52975e-06
-2.67446e-05
6.55811e-08
3.3906e-06
-2.67251e-05
2.87132e-06
-2.68774e-05
1.0537e-07
3.90231e-06
-2.73149e-05
1.675e-07
3.81974e-06
-2.73687e-05
9.92987e-08
3.62642e-06
-2.74883e-05
-5.87257e-08
3.52326e-06
-2.76149e-05
-1.61335e-07
3.25191e-06
-2.77537e-05
-1.6411e-07
2.93154e-06
-2.78257e-05
-1.01658e-07
2.77861e-06
-2.78215e-05
-2.40945e-08
2.71356e-06
-2.78702e-05
2.86309e-08
3.06705e-06
-2.78216e-05
5.56228e-08
3.60144e-06
-2.75835e-05
7.59149e-08
3.4491e-06
-2.75585e-05
2.90932e-06
-2.76976e-05
1.12514e-07
3.95223e-06
-2.81607e-05
1.79746e-07
3.87238e-06
-2.82131e-05
1.11496e-07
3.72612e-06
-2.83067e-05
-5.02336e-08
3.66287e-06
-2.8414e-05
-1.56248e-07
3.36111e-06
-2.85473e-05
-1.60749e-07
2.98515e-06
-2.86227e-05
-1.00155e-07
2.80145e-06
-2.86277e-05
-2.79516e-08
2.73516e-06
-2.86781e-05
2.11557e-08
3.11031e-06
-2.86361e-05
5.43709e-08
3.65875e-06
-2.84123e-05
8.52097e-08
3.49129e-06
-2.83827e-05
2.93389e-06
-2.85077e-05
1.19155e-07
3.98507e-06
-2.89949e-05
1.90903e-07
3.90926e-06
-2.90455e-05
1.23292e-07
3.81715e-06
-2.9115e-05
-4.07329e-08
3.79831e-06
-2.92041e-05
-1.49459e-07
3.46413e-06
-2.93305e-05
-1.55957e-07
3.02871e-06
-2.94074e-05
-9.79406e-08
2.81277e-06
-2.94202e-05
-3.16029e-08
2.74679e-06
-2.94712e-05
1.36128e-08
3.14308e-06
-2.94365e-05
5.25219e-08
3.70065e-06
-2.92297e-05
9.32322e-08
3.51614e-06
-2.91962e-05
2.94444e-06
-2.93066e-05
1.25307e-07
4.00008e-06
-2.9816e-05
2.00944e-07
3.92962e-06
-2.98646e-05
1.34679e-07
3.89853e-06
-2.99125e-05
-3.01707e-08
3.92829e-06
-2.99849e-05
-1.40887e-07
3.56008e-06
-3.01029e-05
-1.49688e-07
3.06197e-06
-3.01792e-05
-9.4983e-08
2.81267e-06
-3.01986e-05
-3.48805e-08
2.74855e-06
-3.02491e-05
6.2942e-09
3.16509e-06
-3.02223e-05
5.02069e-08
3.72636e-06
-3.00342e-05
9.97965e-08
3.52291e-06
-2.99979e-05
2.94061e-06
-3.00936e-05
1.31011e-07
3.99683e-06
-3.06231e-05
2.0988e-07
3.93301e-06
-3.06693e-05
1.45666e-07
3.96933e-06
-3.06985e-05
-1.85124e-08
4.0515e-06
-3.07561e-05
-1.30483e-07
3.64812e-06
-3.08643e-05
-1.41921e-07
3.08486e-06
-3.09383e-05
-9.12553e-08
2.80147e-06
-3.09626e-05
-3.76174e-08
2.7407e-06
-3.10119e-05
-5.05986e-10
3.17617e-06
-3.09932e-05
4.75769e-08
3.73539e-06
-3.08253e-05
1.04774e-07
3.51124e-06
-3.07866e-05
2.92231e-06
-3.08682e-05
1.36327e-07
3.97522e-06
-3.14154e-05
2.17753e-07
3.91929e-06
-3.14591e-05
1.56266e-07
4.02874e-06
-3.14729e-05
-5.75161e-09
4.16663e-06
-3.15176e-05
-1.18246e-07
3.72749e-06
-3.16149e-05
-1.32666e-07
3.09755e-06
-3.16848e-05
-8.67385e-08
2.77977e-06
-3.17129e-05
-3.9658e-08
2.72362e-06
-3.17602e-05
-6.50032e-09
3.17628e-06
-3.17495e-05
4.47943e-08
3.72758e-06
-3.16022e-05
1.08101e-07
3.48119e-06
-3.1562e-05
2.88973e-06
-3.16301e-05
1.4132e-07
3.9355e-06
-3.2193e-05
2.24621e-07
3.88866e-06
-3.22338e-05
1.66487e-07
4.07608e-06
-3.22355e-05
8.04367e-09
4.27239e-06
-3.22695e-05
-1.04231e-07
3.79749e-06
-3.23551e-05
-1.21967e-07
3.10038e-06
-3.24196e-05
-8.14259e-08
2.74835e-06
-3.24501e-05
-4.08678e-08
2.69778e-06
-3.2495e-05
-1.15001e-08
3.16548e-06
-3.24919e-05
4.20217e-08
3.70306e-06
-3.23651e-05
1.09781e-07
3.43323e-06
-3.23239e-05
2.84332e-06
-3.23798e-05
1.46053e-07
3.87824e-06
-3.2956e-05
2.30552e-07
3.84158e-06
-3.29937e-05
1.76315e-07
4.11079e-06
-3.29868e-05
2.2797e-08
4.36754e-06
-3.30121e-05
-8.85633e-08
3.85755e-06
-3.30855e-05
-1.09919e-07
3.09388e-06
-3.31434e-05
-7.53295e-08
2.70812e-06
-3.31752e-05
-4.11447e-08
2.66366e-06
-3.32173e-05
-1.53091e-08
3.14387e-06
-3.32212e-05
3.94108e-08
3.66226e-06
-3.31144e-05
1.09881e-07
3.36822e-06
-3.30726e-05
2.78379e-06
-3.31176e-05
1.50573e-07
3.80425e-06
-3.37051e-05
2.35601e-07
3.77877e-06
-3.37397e-05
1.8571e-07
4.13246e-06
-3.37272e-05
3.83312e-08
4.45095e-06
-3.37461e-05
-7.14511e-08
3.90724e-06
-3.38071e-05
-9.6669e-08
3.0787e-06
-3.38577e-05
-6.84901e-08
2.6601e-06
-3.38898e-05
-4.04306e-08
2.62186e-06
-3.39287e-05
-1.78107e-08
3.11175e-06
-3.39389e-05
3.70941e-08
3.60588e-06
-3.38506e-05
1.08534e-07
3.28737e-06
-3.38089e-05
2.7121e-06
-3.38445e-05
1.54896e-07
3.71458e-06
-3.44416e-05
2.39809e-07
3.7012e-06
-3.44728e-05
1.94604e-07
4.14086e-06
-3.44576e-05
5.44131e-08
4.52171e-06
-3.44721e-05
-5.31799e-08
3.94641e-06
-3.45212e-05
-8.24241e-08
3.05574e-06
-3.45641e-05
-6.09811e-08
2.60547e-06
-3.45957e-05
-3.87216e-08
2.57332e-06
-3.46316e-05
-1.89483e-08
3.06981e-06
-3.46469e-05
3.51768e-08
3.53491e-06
-3.45752e-05
1.05932e-07
3.1922e-06
-3.4534e-05
2.62942e-06
-3.45618e-05
1.59005e-07
3.61079e-06
-3.51674e-05
2.43199e-07
3.61042e-06
-3.51954e-05
2.02916e-07
4.1362e-06
-3.51798e-05
7.08016e-08
4.57917e-06
-3.51918e-05
-3.40589e-08
3.97512e-06
-3.52296e-05
-6.74262e-08
3.02615e-06
-3.52648e-05
-5.29051e-08
2.54584e-06
-3.52952e-05
-3.60616e-08
2.51921e-06
-3.53282e-05
-1.87732e-08
3.01894e-06
-3.53476e-05
3.373e-08
3.45096e-06
-3.529e-05
1.02315e-07
3.08467e-06
-3.52497e-05
2.53735e-06
-3.52714e-05
1.62857e-07
3.49496e-06
-3.58848e-05
2.45787e-07
3.50834e-06
-3.59097e-05
2.10562e-07
4.11888e-06
-3.58956e-05
8.72488e-08
4.62278e-06
-3.59067e-05
-1.43773e-08
3.99345e-06
-3.59344e-05
-5.18761e-08
2.99111e-06
-3.59624e-05
-4.43286e-08
2.48275e-06
-3.59912e-05
-3.24922e-08
2.46046e-06
-3.60212e-05
-1.73805e-08
2.9599e-06
-3.60435e-05
3.27776e-08
3.35585e-06
-3.59979e-05
9.79132e-08
2.96711e-06
-3.59587e-05
2.43767e-06
-3.59759e-05
1.66398e-07
3.36909e-06
-3.65967e-05
2.47567e-07
3.39672e-06
-3.66186e-05
2.17426e-07
4.08921e-06
-3.66073e-05
1.0347e-07
4.65213e-06
-3.66184e-05
5.55161e-09
4.00154e-06
-3.66374e-05
-3.59542e-08
2.95162e-06
-3.66591e-05
-3.53009e-08
2.41743e-06
-3.66861e-05
-2.80899e-08
2.39778e-06
-3.67131e-05
-1.49035e-08
2.8934e-06
-3.67369e-05
3.2304e-08
3.25133e-06
-3.67013e-05
9.29297e-08
2.84183e-06
-3.66635e-05
2.33202e-06
-3.66778e-05
1.69557e-07
3.23498e-06
-3.73056e-05
2.48509e-07
3.27719e-06
-3.73248e-05
2.23393e-07
4.0477e-06
-3.73168e-05
1.19186e-07
4.66703e-06
-3.73288e-05
2.54085e-08
3.9996e-06
-3.73406e-05
-1.9871e-08
2.90856e-06
-3.7357e-05
-2.5912e-08
2.35088e-06
-3.73822e-05
-2.29603e-08
2.33182e-06
-3.7406e-05
-1.14979e-08
2.82017e-06
-3.74302e-05
3.2279e-08
3.13914e-06
-3.74028e-05
8.75702e-08
2.71097e-06
-3.73669e-05
2.22197e-06
-3.73793e-05
1.72247e-07
3.09438e-06
-3.80143e-05
2.48585e-07
3.15125e-06
-3.80307e-05
2.28369e-07
3.99488e-06
-3.80262e-05
1.34154e-07
4.66741e-06
-3.80396e-05
4.49078e-08
3.98789e-06
-3.80459e-05
-3.82371e-09
2.86266e-06
-3.80582e-05
-1.62581e-08
2.28397e-06
-3.80816e-05
-1.7221e-08
2.26312e-06
-3.8102e-05
-7.36147e-09
2.74096e-06
-3.81255e-05
3.26665e-08
3.02091e-06
-3.81048e-05
8.20271e-08
2.57655e-06
-3.80712e-05
2.10896e-06
-3.80826e-05
1.74385e-07
2.9489e-06
-3.8725e-05
2.4777e-07
3.0203e-06
-3.87388e-05
2.32281e-07
3.93135e-06
-3.87376e-05
1.48174e-07
4.65337e-06
-3.87528e-05
6.38071e-08
3.96665e-06
-3.8755e-05
1.20167e-08
2.81452e-06
-3.87644e-05
-6.43147e-09
2.21732e-06
-3.8786e-05
-1.09912e-08
2.19217e-06
-3.88029e-05
-2.63709e-09
2.65643e-06
-3.88248e-05
3.34217e-08
2.89817e-06
-3.88095e-05
7.64645e-08
2.44034e-06
-3.87785e-05
1.99432e-06
-3.87897e-05
1.75903e-07
2.79996e-06
-3.94398e-05
2.46053e-07
2.88552e-06
-3.94511e-05
2.35086e-07
3.85771e-06
-3.9453e-05
1.61095e-07
4.6251e-06
-3.947e-05
8.19142e-08
3.93613e-06
-3.94697e-05
2.7513e-08
2.76455e-06
-3.94773e-05
3.48564e-09
2.15142e-06
-3.94972e-05
-4.38396e-09
2.11935e-06
-3.95103e-05
2.52037e-09
2.56724e-06
-3.95298e-05
3.44981e-08
2.77224e-06
-3.95189e-05
7.10148e-08
2.30383e-06
-3.9491e-05
1.87919e-06
-3.95025e-05
1.76745e-07
2.64882e-06
-4.01607e-05
2.43434e-07
2.74793e-06
-4.01695e-05
2.3677e-07
3.77455e-06
-4.01742e-05
1.72815e-07
4.58288e-06
-4.0193e-05
9.90893e-08
3.89656e-06
-4.01914e-05
4.2559e-08
2.71302e-06
-4.0198e-05
1.34214e-08
2.08656e-06
-4.02164e-05
2.50056e-09
2.04498e-06
-4.02256e-05
7.9805e-09
2.47397e-06
-4.02421e-05
3.58513e-08
2.64423e-06
-4.02348e-05
6.57789e-08
2.16824e-06
-4.02102e-05
1.76452e-06
-4.02223e-05
1.7687e-07
2.49656e-06
-4.08893e-05
2.39925e-07
2.60835e-06
-4.08958e-05
2.37345e-07
3.68239e-06
-4.09026e-05
1.83281e-07
4.52706e-06
-4.09231e-05
1.1524e-07
3.84812e-06
-4.09214e-05
5.70787e-08
2.66006e-06
-4.0928e-05
2.33182e-08
2.0229e-06
-4.09448e-05
9.57725e-09
1.96933e-06
-4.095e-05
1.36325e-08
2.37718e-06
-4.0963e-05
3.7442e-08
2.51504e-06
-4.09588e-05
6.0828e-08
2.03453e-06
-4.09376e-05
1.65112e-06
-4.09507e-05
1.76254e-07
2.34408e-06
-4.1627e-05
2.35546e-07
2.46744e-06
-4.16311e-05
2.36844e-07
3.58173e-06
-4.16398e-05
1.92477e-07
4.45798e-06
-4.16618e-05
1.3031e-07
3.791e-06
-4.16608e-05
7.10185e-08
2.60571e-06
-4.16681e-05
3.31283e-08
1.96048e-06
-4.16835e-05
1.6776e-08
1.8926e-06
-4.16843e-05
1.9392e-08
2.27733e-06
-4.16936e-05
3.92368e-08
2.38537e-06
-4.1692e-05
5.62092e-08
1.90339e-06
-4.16746e-05
1.5396e-06
-4.16888e-05
1.74877e-07
2.19216e-06
-4.23748e-05
2.3032e-07
2.32569e-06
-4.23768e-05
2.35311e-07
3.47299e-06
-4.23867e-05
2.00416e-07
4.37604e-06
-4.24102e-05
1.44271e-07
3.72532e-06
-4.24107e-05
8.43391e-08
2.54988e-06
-4.24192e-05
4.28102e-08
1.89924e-06
-4.24332e-05
2.40393e-08
1.81494e-06
-4.24295e-05
2.51955e-08
2.17484e-06
-4.24348e-05
4.12082e-08
2.25574e-06
-4.24356e-05
5.19516e-08
1.77531e-06
-4.2422e-05
1.43045e-06
-4.24374e-05
1.72728e-07
2.04143e-06
-4.31338e-05
2.2427e-07
2.18349e-06
-4.31337e-05
2.32798e-07
3.35652e-06
-4.31446e-05
2.07125e-07
4.28163e-06
-4.31694e-05
1.5711e-07
3.65123e-06
-4.31719e-05
9.70075e-08
2.49246e-06
-4.31821e-05
5.23252e-08
1.83905e-06
-4.31947e-05
3.13181e-08
1.73646e-06
-4.31863e-05
3.09951e-08
2.07005e-06
-4.31875e-05
4.33351e-08
2.12652e-06
-4.31904e-05
4.8073e-08
1.65062e-06
-4.31807e-05
1.32403e-06
-4.31975e-05
1.69794e-07
1.89245e-06
-4.39047e-05
2.17418e-07
2.0411e-06
-4.39026e-05
2.29357e-07
3.23263e-06
-4.39141e-05
2.12641e-07
4.17512e-06
-4.394e-05
1.68817e-07
3.56885e-06
-4.39451e-05
1.08991e-07
2.43325e-06
-4.39574e-05
6.16334e-08
1.77973e-06
-4.39685e-05
3.85684e-08
1.65722e-06
-4.39553e-05
3.67535e-08
1.96328e-06
-4.39522e-05
4.56011e-08
1.99794e-06
-4.39571e-05
4.45866e-08
1.52947e-06
-4.39514e-05
1.22058e-06
-4.39697e-05
1.66064e-07
1.74572e-06
-4.46883e-05
2.09783e-07
1.8987e-06
-4.46841e-05
2.25042e-07
3.10154e-06
-4.4696e-05
2.17004e-07
4.05689e-06
-4.47231e-05
1.79385e-07
3.47831e-06
-4.4731e-05
1.20252e-07
2.37206e-06
-4.47456e-05
7.06905e-08
1.72105e-06
-4.47552e-05
4.57469e-08
1.57726e-06
-4.4737e-05
4.24398e-08
1.85477e-06
-4.47295e-05
4.79947e-08
1.87014e-06
-4.47363e-05
4.15051e-08
1.41192e-06
-4.47348e-05
1.12025e-06
-4.47547e-05
1.61524e-07
1.60164e-06
-4.54851e-05
2.01382e-07
1.7564e-06
-4.5479e-05
2.19904e-07
2.96343e-06
-4.54909e-05
2.20252e-07
3.92734e-06
-4.5519e-05
1.88802e-07
3.37976e-06
-4.55301e-05
1.30748e-07
2.30867e-06
-4.55473e-05
7.94462e-08
1.66274e-06
-4.55553e-05
5.28083e-08
1.4966e-06
-4.55319e-05
4.80257e-08
1.74473e-06
-4.552e-05
5.05077e-08
1.74317e-06
-4.55287e-05
3.88448e-08
1.29794e-06
-4.55314e-05
1.02311e-06
-4.55529e-05
1.56162e-07
1.46062e-06
-4.62957e-05
1.92234e-07
1.61426e-06
-4.62877e-05
2.13993e-07
2.81844e-06
-4.62995e-05
2.22423e-07
3.78683e-06
-4.63286e-05
1.97052e-07
3.27341e-06
-4.63431e-05
1.40428e-07
2.24288e-06
-4.63629e-05
8.78427e-08
1.60452e-06
-4.63692e-05
5.97035e-08
1.4152e-06
-4.63405e-05
5.34831e-08
1.63333e-06
-4.63242e-05
5.31353e-08
1.61703e-06
-4.63347e-05
3.66276e-08
1.1874e-06
-4.63416e-05
9.29166e-07
-4.63648e-05
1.49965e-07
1.32301e-06
-4.71205e-05
1.82359e-07
1.47227e-06
-4.71106e-05
2.07364e-07
2.66665e-06
-4.71222e-05
2.23553e-07
3.63579e-06
-4.71523e-05
2.04117e-07
3.15946e-06
-4.71703e-05
1.49234e-07
2.17448e-06
-4.71929e-05
9.58154e-08
1.54609e-06
-4.71974e-05
6.6378e-08
1.33304e-06
-4.71632e-05
5.87822e-08
1.52071e-06
-4.71425e-05
5.58751e-08
1.49163e-06
-4.71547e-05
3.48823e-08
1.08013e-06
-4.7166e-05
8.38332e-07
-4.7191e-05
1.42924e-07
1.18912e-06
-4.796e-05
1.71785e-07
1.33037e-06
-4.79483e-05
2.00074e-07
2.50812e-06
-4.79595e-05
2.23682e-07
3.47463e-06
-4.79906e-05
2.09978e-07
3.0382e-06
-4.80123e-05
1.57105e-07
2.10331e-06
-4.80377e-05
1.03293e-07
1.48715e-06
-4.80403e-05
7.27724e-08
1.25004e-06
-4.80005e-05
6.38916e-08
1.40695e-06
-4.79754e-05
5.87268e-08
1.36684e-06
-4.79894e-05
3.36445e-08
9.75881e-07
-4.80051e-05
7.5047e-07