/*--------------------------------*- C++ -*----------------------------------*\
| =========                 |                                                 |
| \\      /  F ield         | OpenFOAM: The Open Source CFD Toolbox           |
|  \\    /   O peration     | Version:  v1912                                 |
|   \\  /    A nd           | Website:  www.openfoam.com                      |
|    \\/     M anipulation  |                                                 |
\*---------------------------------------------------------------------------*/
FoamFile
{
    version     2.0;
    format      ascii;
    class       volScalarField;
    location    "97.6";
    object      T;
}
// * * * * * * * * * * * * * * * * * * * * * * * * * * * * * * * * * * * * * //

dimensions      [0 0 0 1 0 0 0];


internalField   nonuniform List<scalar> 
2000
(
373.26
369.85
365.274
363.348
362.845
362.693
362.845
363.347
365.273
369.846
373.163
366.218
362.009
360.401
359.802
359.634
359.801
360.401
362.007
366.215
373.139
364.336
360.762
359.339
358.726
358.553
358.725
359.338
360.761
364.333
371.939
363.138
360.102
358.767
358.149
357.972
358.148
358.767
360.101
363.135
370.011
362.447
359.675
358.365
357.74
357.56
357.739
358.364
359.673
362.445
367.662
361.866
359.337
358.032
357.398
357.214
357.398
358.031
359.336
361.864
365.485
361.34
359.015
357.712
357.072
356.884
357.072
357.712
359.013
361.338
363.768
360.827
358.66
357.37
356.725
356.534
356.724
357.369
358.659
360.826
362.448
360.281
358.252
356.988
356.343
356.151
356.343
356.987
358.251
360.28
361.368
359.672
357.788
356.572
355.936
355.742
355.935
356.571
357.787
359.671
370.351
366.941
364.535
363.571
363.131
362.97
363.13
363.571
364.533
366.939
367.273
364.497
362.294
361.397
360.942
360.779
360.941
361.396
362.292
364.496
366.389
363.163
361.337
360.536
360.083
359.923
360.083
360.535
361.336
363.161
365.9
362.259
360.75
360.018
359.573
359.416
359.572
360.017
360.749
362.258
365.112
361.594
360.315
359.623
359.186
359.032
359.186
359.623
360.314
361.593
363.945
361.057
359.963
359.291
358.859
358.709
358.859
359.29
359.962
361.056
362.686
360.611
359.651
358.991
358.565
358.416
358.564
358.99
359.65
360.61
361.602
360.221
359.354
358.706
358.285
358.138
358.285
358.706
359.354
360.22
360.774
359.838
359.049
358.418
358.002
357.857
358.002
358.417
359.048
359.837
360.067
359.413
358.702
358.093
357.683
357.539
357.683
358.092
358.701
359.412
373.887
366.497
363.941
362.856
362.411
362.301
362.411
362.855
363.939
366.493
372.175
364.499
361.457
360.139
359.596
359.446
359.596
360.138
361.455
364.496
370.807
363.647
360.571
359.216
358.629
358.463
358.628
359.215
360.57
363.644
369.676
363.027
360.059
358.707
358.098
357.923
358.097
358.706
360.058
363.025
368.419
362.45
359.666
358.327
357.705
357.525
357.705
358.326
359.665
362.448
366.936
361.882
359.322
357.998
357.367
357.182
357.366
357.997
359.32
361.881
365.332
361.331
358.988
357.679
357.041
356.854
357.041
357.678
358.987
361.329
363.796
360.794
358.632
357.339
356.697
356.507
356.696
357.338
358.631
360.792
362.476
360.235
358.226
356.958
356.317
356.125
356.317
356.957
358.224
360.233
361.367
359.616
357.761
356.54
355.906
355.713
355.905
356.54
357.76
359.615
367.232
365.049
364.164
363.594
363.188
363.047
363.188
363.593
364.163
365.047
365.23
362.938
361.89
361.294
360.89
360.741
360.89
361.293
361.889
362.937
364.463
362.178
361.079
360.459
360.048
359.897
360.048
360.458
361.078
362.177
363.912
361.692
360.601
359.969
359.555
359.403
359.554
359.968
360.6
361.691
363.343
361.268
360.226
359.59
359.176
359.026
359.176
359.59
360.225
361.267
362.677
360.857
359.893
359.261
358.848
358.7
358.848
359.26
359.893
360.856
361.921
360.458
359.586
358.959
358.551
358.405
358.551
358.959
359.585
360.458
361.166
360.087
359.294
358.677
358.273
358.128
358.272
358.677
359.293
360.086
360.49
359.722
358.998
358.394
357.993
357.85
357.993
358.393
358.997
359.721
359.86
359.317
358.662
358.073
357.677
357.535
357.677
358.073
358.661
359.316
372.141
366.054
363.828
362.827
362.398
362.305
362.398
362.827
363.827
366.051
370.198
363.935
361.277
360.044
359.518
359.379
359.518
360.043
361.275
363.932
369.063
363.206
360.422
359.132
358.564
358.407
358.564
359.131
360.421
363.203
368.14
362.733
359.956
358.645
358.053
357.885
358.053
358.645
359.954
362.73
367.202
362.289
359.603
358.287
357.678
357.502
357.678
358.286
359.601
362.287
366.146
361.816
359.279
357.968
357.348
357.166
357.347
357.967
359.278
361.814
364.933
361.302
358.949
357.651
357.023
356.837
357.022
357.65
358.947
361.301
363.628
360.758
358.59
357.31
356.677
356.488
356.676
357.309
358.589
360.757
362.378
360.183
358.185
356.93
356.295
356.105
356.295
356.929
358.183
360.182
361.265
359.557
357.719
356.508
355.88
355.689
355.879
356.507
357.718
359.556
366.041
364.81
364.217
363.758
363.368
363.229
363.367
363.757
364.217
364.808
363.978
362.486
361.812
361.342
360.957
360.815
360.957
361.341
361.812
362.485
363.119
361.726
360.966
360.454
360.065
359.921
360.064
360.454
360.965
361.725
362.592
361.312
360.493
359.946
359.552
359.406
359.551
359.945
360.493
361.311
362.156
360.987
360.141
359.567
359.17
359.025
359.17
359.566
360.14
360.986
361.723
360.677
359.833
359.243
358.845
358.701
358.845
359.242
359.832
360.676
361.263
360.358
359.54
358.946
358.55
358.407
358.55
358.946
359.54
360.357
360.778
360.025
359.256
358.665
358.272
358.13
358.272
358.665
359.255
360.025
360.276
359.673
358.964
358.382
357.992
357.851
357.991
358.381
358.963
359.672
359.727
359.274
358.632
358.062
357.675
357.535
357.675
358.061
358.631
359.273
371.269
365.894
363.684
362.679
362.264
362.172
362.264
362.678
363.683
365.892
369.272
363.788
361.196
359.968
359.451
359.315
359.45
359.968
361.194
363.785
368.318
363.056
360.357
359.084
358.525
358.371
358.524
359.083
360.356
363.054
367.514
362.593
359.9
358.61
358.027
357.862
358.027
358.61
359.898
362.591
366.682
362.176
359.554
358.259
357.658
357.486
357.658
358.258
359.553
362.174
365.769
361.741
359.238
357.945
357.331
357.152
357.331
357.944
359.237
361.739
364.713
361.261
358.915
357.63
357.007
356.824
357.006
357.629
358.914
361.259
363.513
360.73
358.56
357.29
356.661
356.475
356.661
357.289
358.559
360.729
362.299
360.152
358.155
356.909
356.279
356.09
356.278
356.908
358.153
360.151
361.19
359.519
357.686
356.485
355.861
355.671
355.86
356.484
357.685
359.518
365.595
364.826
364.394
364.053
363.679
363.541
363.679
364.053
364.393
364.825
363.41
362.247
361.8
361.429
361.059
360.921
361.059
361.428
361.799
362.246
362.348
361.423
360.894
360.463
360.09
359.95
360.09
360.463
360.893
361.422
361.695
361.024
360.413
359.93
359.552
359.412
359.551
359.93
360.412
361.023
361.25
360.748
360.071
359.548
359.165
359.025
359.165
359.547
360.07
360.747
360.921
360.506
359.778
359.228
358.843
358.703
358.843
359.228
359.778
360.505
360.66
360.255
359.502
358.937
358.552
358.412
358.552
358.937
359.501
360.254
360.414
359.971
359.227
358.658
358.274
358.135
358.274
358.658
359.226
359.97
360.102
359.642
358.937
358.374
357.993
357.855
357.992
358.373
358.936
359.641
359.646
359.249
358.607
358.054
357.676
357.538
357.676
358.054
358.606
359.248
370.012
365.846
363.531
362.452
362.035
361.933
362.035
362.452
363.53
365.844
368.348
363.862
361.193
359.934
359.417
359.281
359.417
359.933
361.192
363.86
367.909
363.114
360.375
359.09
358.531
358.378
358.531
359.089
360.373
363.112
367.476
362.591
359.896
358.612
358.03
357.867
358.03
358.612
359.895
362.589
366.756
362.142
359.534
358.252
357.653
357.482
357.653
358.251
359.532
362.14
365.831
361.694
359.214
357.934
357.322
357.146
357.322
357.933
359.213
361.693
364.706
361.217
358.896
357.621
357
356.818
356.999
357.62
358.895
361.215
363.45
360.699
358.547
357.284
356.656
356.471
356.656
357.283
358.546
360.697
362.225
360.133
358.144
356.905
356.276
356.088
356.275
356.904
358.143
360.132
361.141
359.509
357.678
356.483
355.86
355.672
355.86
356.482
357.677
359.508
365.869
365.756
365.223
364.83
364.393
364.238
364.393
364.83
365.223
365.755
363.659
362.324
361.892
361.561
361.175
361.029
361.175
361.561
361.891
362.323
362.417
361.288
360.883
360.493
360.119
359.978
360.119
360.493
360.882
361.287
361.438
360.885
360.404
359.945
359.569
359.429
359.569
359.945
360.403
360.884
360.763
360.633
360.071
359.562
359.182
359.043
359.182
359.561
360.07
360.632
360.408
360.431
359.783
359.241
358.859
358.72
358.859
359.241
359.782
360.43
360.268
360.219
359.507
358.948
358.565
358.426
358.565
358.947
359.507
360.218
360.192
359.963
359.231
358.666
358.284
358.146
358.283
358.665
359.23
359.962
360.002
359.648
358.939
358.38
358
357.863
358
358.379
358.938
359.647
359.622
359.259
358.609
358.062
357.686
357.549
357.685
358.061
358.608
359.259
360.453
359.03
357.301
356.148
355.525
355.332
355.524
356.147
357.3
359.029
359.67
358.415
356.825
355.724
355.112
354.92
355.112
355.723
356.824
358.414
358.971
357.83
356.346
355.279
354.677
354.486
354.676
355.278
356.345
357.829
358.298
357.235
355.827
354.786
354.193
354.004
354.192
354.785
355.826
357.234
357.621
356.607
355.255
354.234
353.651
353.464
353.65
354.233
355.254
356.607
356.914
355.93
354.622
353.617
353.044
352.857
353.043
353.617
354.621
355.929
356.128
355.167
353.893
352.903
352.338
352.151
352.337
352.902
353.892
355.167
355.087
354.144
352.875
351.902
351.346
351.157
351.346
351.901
352.874
354.144
352.56
351.484
350.088
349.193
348.652
348.454
348.652
349.192
350.087
351.483
334.813
333.845
332.661
332.275
331.968
331.836
331.968
332.274
332.661
333.845
359.388
358.928
358.29
357.702
357.299
357.154
357.299
357.702
358.29
358.927
358.768
358.413
357.826
357.253
356.855
356.71
356.854
357.252
357.825
358.413
358.212
357.898
357.343
356.784
356.392
356.248
356.391
356.784
357.342
357.898
357.675
357.374
356.852
356.31
355.927
355.785
355.926
356.31
356.851
357.373
357.122
356.831
356.347
355.825
355.452
355.312
355.452
355.825
356.346
356.83
356.519
356.243
355.799
355.3
354.939
354.8
354.939
355.3
355.798
356.243
355.79
355.524
355.12
354.65
354.301
354.164
354.301
354.649
355.119
355.523
354.657
354.355
354.011
353.592
353.26
353.127
353.26
353.592
354.011
354.354
351.219
350.668
350.656
350.413
350.139
350.042
350.14
350.413
350.656
350.668
329.736
328.878
330.089
330.456
330.556
330.665
330.557
330.457
330.089
328.878
360.434
358.966
357.267
356.108
355.485
355.293
355.485
356.107
357.266
358.965
359.642
358.342
356.779
355.673
355.061
354.871
355.061
355.672
356.778
358.341
358.935
357.745
356.289
355.22
354.619
354.43
354.619
355.219
356.288
357.744
358.258
357.146
355.769
354.728
354.137
353.949
354.137
354.727
355.768
357.145
357.592
356.526
355.204
354.185
353.602
353.416
353.602
354.184
355.203
356.525
356.899
355.846
354.57
353.57
352.995
352.81
352.994
353.569
354.569
355.845
356.049
354.974
353.761
352.783
352.219
352.039
352.219
352.783
353.76
354.973
354.648
353.48
352.412
351.476
350.938
350.771
350.938
351.475
352.411
353.479
350.573
349.135
348.601
347.755
347.329
347.217
347.329
347.754
348.599
349.134
327.384
326.245
327.189
326.845
326.878
326.95
326.878
326.845
327.188
326.245
359.233
358.847
358.256
357.682
357.29
357.148
357.29
357.682
358.255
358.847
358.647
358.337
357.789
357.227
356.838
356.696
356.838
357.227
357.788
358.336
358.111
357.822
357.305
356.756
356.373
356.231
356.372
356.755
357.304
357.822
357.591
357.307
356.822
356.29
355.915
355.776
355.915
356.289
356.821
357.307
357.053
356.778
356.335
355.824
355.46
355.323
355.46
355.823
356.335
356.778
356.433
356.165
355.784
355.299
354.951
354.817
354.951
355.298
355.784
356.164
355.572
355.293
355.022
354.575
354.255
354.128
354.254
354.575
355.022
355.293
354.083
353.784
353.716
353.327
353.059
352.947
353.059
353.327
353.715
353.784
350.025
349.742
350.142
349.851
349.728
349.652
349.728
349.851
350.142
349.741
327.893
327.979
329.138
329.208
329.562
329.606
329.563
329.21
329.138
327.979
360.327
358.902
357.22
356.068
355.452
355.261
355.451
356.067
357.219
358.901
359.545
358.274
356.728
355.626
355.023
354.834
355.022
355.625
356.727
358.273
358.85
357.68
356.239
355.175
354.582
354.394
354.582
355.174
356.238
357.679
358.184
357.086
355.72
354.683
354.101
353.915
354.1
354.682
355.719
357.085
357.51
356.444
355.137
354.123
353.551
353.367
353.551
354.122
355.136
356.443
356.741
355.674
354.435
353.441
352.883
352.703
352.883
353.44
354.434
355.674
355.728
354.644
353.494
352.514
351.978
351.804
351.977
352.513
353.493
354.644
354.172
353.049
352.018
351.044
350.543
350.379
350.543
351.043
352.017
353.048
350.43
349.282
348.447
347.459
347.046
346.895
347.046
347.458
348.445
349.281
328.701
328.118
327.889
327.278
327.219
327.137
327.219
327.277
327.889
328.117
359.131
358.812
358.231
357.672
357.288
357.148
357.288
357.671
358.23
358.811
358.567
358.31
357.769
357.218
356.837
356.697
356.837
357.218
357.768
358.309
358.049
357.8
357.288
356.75
356.375
356.235
356.375
356.75
357.287
357.799
357.536
357.286
356.807
356.286
355.92
355.783
355.92
356.286
356.806
357.286
356.984
356.736
356.304
355.803
355.451
355.317
355.451
355.803
356.303
356.736
356.322
356.075
355.717
355.242
354.911
354.781
354.91
355.242
355.717
356.075
355.425
355.192
354.938
354.497
354.196
354.073
354.196
354.497
354.938
355.192
354.011
353.825
353.708
353.315
353.063
352.948
353.063
353.315
353.708
353.824
350.427
350.427
350.525
350.259
350.12
350.015
350.12
350.259
350.525
350.427
329.226
329.77
330.226
330.554
330.832
330.808
330.833
330.554
330.226
329.77
360.252
358.861
357.185
356.041
355.429
355.24
355.429
356.041
357.184
358.86
359.474
358.233
356.69
355.599
354.999
354.811
354.998
355.598
356.689
358.232
358.784
357.64
356.2
355.146
354.558
354.372
354.557
355.145
356.199
357.639
358.118
357.038
355.672
354.646
354.069
353.885
354.068
354.645
355.671
357.037
357.417
356.363
355.062
354.059
353.496
353.315
353.495
354.058
355.061
356.363
356.59
355.55
354.313
353.329
352.783
352.605
352.782
353.329
354.312
355.549
355.536
354.5
353.321
352.352
351.826
351.651
351.826
352.351
353.32
354.499
353.99
352.95
351.815
350.859
350.36
350.188
350.36
350.858
351.814
352.95
350.412
349.387
348.261
347.332
346.885
346.712
346.884
347.331
348.26
349.386
328.67
328.117
327.452
327.024
326.859
326.746
326.859
327.023
327.451
328.117
359.075
358.79
358.211
357.669
357.293
357.155
357.293
357.668
358.21
358.789
358.52
358.294
357.757
357.223
356.85
356.712
356.849
357.222
357.756
358.294
358.006
357.79
357.28
356.756
356.389
356.252
356.388
356.756
357.28
357.789
357.488
357.265
356.786
356.278
355.922
355.787
355.921
356.278
356.785
357.264
356.912
356.683
356.25
355.764
355.423
355.293
355.423
355.764
356.249
356.682
356.23
356.008
355.639
355.179
354.859
354.733
354.859
355.179
355.639
356.008
355.383
355.192
354.897
354.469
354.174
354.052
354.174
354.468
354.897
355.191
354.137
354.013
353.81
353.427
353.168
353.05
353.168
353.427
353.809
354.013
351.025
351.118
351.06
350.811
350.635
350.522
350.635
350.811
351.06
351.118
331.162
331.874
332.166
332.535
332.747
332.722
332.747
332.535
332.166
331.874
360.224
358.855
357.178
356.043
355.432
355.244
355.432
356.042
357.177
358.854
359.446
358.226
356.681
355.598
355
354.813
354.999
355.597
356.68
358.225
358.747
357.621
356.18
355.135
354.549
354.364
354.548
355.134
356.179
357.62
358.066
357.003
355.639
354.622
354.048
353.866
354.048
354.621
355.638
357.003
357.356
356.33
355.027
354.034
353.474
353.294
353.474
354.034
355.026
356.329
356.55
355.549
354.298
353.324
352.778
352.6
352.777
353.323
354.297
355.548
355.536
354.551
353.332
352.377
351.849
351.671
351.848
352.376
353.331
354.55
354.009
353.029
351.81
350.878
350.371
350.194
350.371
350.877
351.809
353.029
350.387
349.356
348.024
347.12
346.638
346.462
346.638
347.12
348.023
349.355
326.364
325.537
324.646
324.349
324.15
324.068
324.15
324.348
324.645
325.537
359.087
358.799
358.217
357.682
357.309
357.173
357.309
357.682
358.216
358.798
358.534
358.307
357.772
357.246
356.875
356.739
356.875
357.245
357.771
358.306
358.021
357.815
357.308
356.789
356.424
356.288
356.424
356.789
357.307
357.814
357.512
357.304
356.822
356.317
355.961
355.828
355.961
356.316
356.821
357.303
356.957
356.738
356.289
355.805
355.465
355.335
355.465
355.805
356.289
356.738
356.303
356.088
355.685
355.229
354.907
354.78
354.907
355.229
355.685
356.087
355.526
355.335
354.985
354.557
354.252
354.128
354.252
354.556
354.985
355.335
354.502
354.353
354.064
353.659
353.371
353.251
353.371
353.659
354.063
354.352
352.922
352.835
352.617
352.192
351.896
351.777
351.896
352.192
352.616
352.834
341.358
341.481
341.135
340.549
340.268
340.182
340.268
340.548
341.135
341.48
)
;

boundaryField
{
    leftWall
    {
        type            fixedValue;
        value           uniform 373;
    }
    rightWall
    {
        type            fixedValue;
        value           uniform 313;
    }
    leftSides_periodic0
    {
        type            cyclic;
    }
    leftSides_periodic1
    {
        type            cyclic;
    }
    rightSides_periodic0
    {
        type            cyclic;
    }
    rightSides_periodic1
    {
        type            cyclic;
    }
    leftInOut_periodic0
    {
        type            cyclic;
    }
    leftInOut_periodic1
    {
        type            cyclic;
    }
    rightInOut_periodic0
    {
        type            cyclic;
    }
    rightInOut_periodic1
    {
        type            cyclic;
    }
}


// ************************************************************************* //
