/*--------------------------------*- C++ -*----------------------------------*\
| =========                 |                                                 |
| \\      /  F ield         | OpenFOAM: The Open Source CFD Toolbox           |
|  \\    /   O peration     | Version:  v1912                                 |
|   \\  /    A nd           | Website:  www.openfoam.com                      |
|    \\/     M anipulation  |                                                 |
\*---------------------------------------------------------------------------*/
FoamFile
{
    version     2.0;
    format      ascii;
    class       volScalarField;
    location    "200";
    object      heatTransferCoeff(T);
}
// * * * * * * * * * * * * * * * * * * * * * * * * * * * * * * * * * * * * * //

dimensions      [1 0 -3 -1 0 0 0];


internalField   uniform 0;

boundaryField
{
    leftWall
    {
        type            calculated;
        value           nonuniform 0();
    }
    rightWall
    {
        type            calculated;
        value           nonuniform List<scalar> 
128
(
-275.363
-260.368
-281.436
-261.193
-289.058
-269.987
-301.895
-391.007
-270.559
-264.108
-275.942
-265.646
-282.615
-274.857
-292.038
-392.328
-266.721
-265.687
-272.353
-267.154
-279.273
-276.652
-288.572
-394.465
-266.68
-266.42
-272.181
-267.933
-278.714
-277.338
-286.7
-393.225
-265.482
-266.814
-270.921
-268.654
-277.295
-278.639
-285.013
-394.857
-266.143
-266.579
-271.553
-268.239
-277.941
-277.927
-285.788
-393.525
-266.912
-266.39
-272.311
-267.974
-278.717
-277.667
-286.817
-393.709
-267.17
-266.038
-272.67
-267.638
-279.15
-277.314
-287.277
-393.361
-267.161
-266.048
-272.608
-267.721
-279.041
-277.527
-287.178
-393.734
-267.175
-266.042
-272.681
-267.65
-279.167
-277.329
-287.294
-393.349
-266.917
-266.412
-272.332
-268.015
-278.755
-277.717
-286.853
-393.697
-266.165
-266.629
-271.597
-268.316
-278.003
-278.015
-285.848
-393.528
-265.529
-266.892
-270.986
-268.758
-277.376
-278.756
-285.088
-394.875
-266.71
-266.514
-272.223
-268.051
-278.763
-277.478
-286.729
-393.263
-266.71
-265.797
-272.342
-267.28
-279.257
-276.795
-288.53
-394.518
-270.504
-264.187
-275.881
-265.736
-282.548
-274.958
-291.951
-392.373
)
;
    }
    leftSides_periodic0
    {
        type            cyclic;
    }
    leftSides_periodic1
    {
        type            cyclic;
    }
    rightSides_periodic0
    {
        type            cyclic;
    }
    rightSides_periodic1
    {
        type            cyclic;
    }
    leftInOut_periodic0
    {
        type            cyclic;
    }
    leftInOut_periodic1
    {
        type            cyclic;
    }
    rightInOut_periodic0
    {
        type            cyclic;
    }
    rightInOut_periodic1
    {
        type            cyclic;
    }
    procBoundary3to1
    {
        type            processor;
        value           uniform 0;
    }
    procBoundary3to1throughrightSides_periodic1
    {
        type            processorCyclic;
        value           uniform 0;
    }
    procBoundary3to2
    {
        type            processor;
        value           uniform 0;
    }
    procBoundary3to2throughrightInOut_periodic0
    {
        type            processorCyclic;
        value           uniform 0;
    }
}


// ************************************************************************* //
