/*--------------------------------*- C++ -*----------------------------------*\
| =========                 |                                                 |
| \\      /  F ield         | OpenFOAM: The Open Source CFD Toolbox           |
|  \\    /   O peration     | Version:  v1912                                 |
|   \\  /    A nd           | Website:  www.openfoam.com                      |
|    \\/     M anipulation  |                                                 |
\*---------------------------------------------------------------------------*/
FoamFile
{
    version     2.0;
    format      ascii;
    class       volVectorField;
    location    "200";
    object      U;
}
// * * * * * * * * * * * * * * * * * * * * * * * * * * * * * * * * * * * * * //

dimensions      [0 1 -1 0 0 0 0];


internalField   nonuniform List<vector> 
10077
(
(-4.08283e-06 0.000944483 0.267514)
(0.000684742 7.24955e-05 0.270183)
(0.000500328 -0.000829395 0.273496)
(0.000215125 -0.000827412 0.2746)
(7.03601e-05 -0.000764408 0.274609)
(2.34137e-05 -0.000630809 0.274433)
(1.06428e-05 -0.000539546 0.274324)
(1.22532e-05 -0.000476257 0.274263)
(2.03323e-05 -0.000465778 0.27426)
(2.66193e-05 -0.000477557 0.274302)
(2.39106e-05 -0.000541574 0.274396)
(2.35387e-06 -0.000632364 0.274528)
(-5.4775e-05 -0.000764662 0.274709)
(-0.000209765 -0.000829031 0.274688)
(-0.000500885 -0.000834795 0.273565)
(-0.000689259 6.30409e-05 0.270229)
(-4.12344e-06 0.000903785 0.267786)
(0.000686048 5.69738e-05 0.270171)
(0.000510319 -0.000815656 0.273132)
(0.000229148 -0.000814664 0.274162)
(7.9679e-05 -0.000758716 0.274187)
(2.90491e-05 -0.00062909 0.274056)
(1.2786e-05 -0.000539299 0.273984)
(1.28787e-05 -0.000476665 0.273948)
(2.00436e-05 -0.000466289 0.273952)
(2.54567e-05 -0.000477718 0.273986)
(2.13316e-05 -0.000540877 0.274055)
(-3.54995e-06 -0.000630004 0.274149)
(-6.41451e-05 -0.000758317 0.274285)
(-0.000223622 -0.000815757 0.274249)
(-0.000510741 -0.000820721 0.273197)
(-0.000690578 4.77478e-05 0.270214)
(-4.07984e-06 0.000863755 0.267964)
(0.000686379 4.15816e-05 0.270078)
(0.000518412 -0.000802311 0.272704)
(0.000241965 -0.000801909 0.27366)
(8.84703e-05 -0.000752676 0.273696)
(3.44153e-05 -0.000626969 0.273605)
(1.47784e-05 -0.000538704 0.273569)
(1.33985e-05 -0.000476779 0.273556)
(1.9654e-05 -0.00046651 0.273566)
(2.42005e-05 -0.00047758 0.273594)
(1.87339e-05 -0.000539835 0.273638)
(-9.28779e-06 -0.000627281 0.273697)
(-7.29972e-05 -0.000751648 0.273793)
(-0.000236189 -0.000802516 0.273745)
(-0.000518552 -0.000807032 0.272767)
(-0.000690755 3.25734e-05 0.270118)
(-3.9556e-06 0.000824527 0.268051)
(0.000685832 2.64253e-05 0.269906)
(0.000524787 -0.000789268 0.272215)
(0.000253681 -0.000789163 0.273096)
(9.67684e-05 -0.000746298 0.273139)
(3.95256e-05 -0.000624487 0.273086)
(1.66298e-05 -0.000537782 0.273082)
(1.38189e-05 -0.000476646 0.273092)
(1.91705e-05 -0.000466554 0.273108)
(2.28615e-05 -0.000477256 0.273128)
(1.61239e-05 -0.000538511 0.27315)
(-1.48633e-05 -0.000624217 0.273176)
(-8.13621e-05 -0.00074465 0.273235)
(-0.000247578 -0.000789256 0.273179)
(-0.000524509 -0.00079365 0.272276)
(-0.000689891 1.76693e-05 0.269943)
(-3.76289e-06 0.000786157 0.268051)
(0.000684488 1.15929e-05 0.269657)
(0.000529603 -0.000776511 0.271666)
(0.000264381 -0.000776408 0.272474)
(0.000104593 -0.00073955 0.272521)
(4.4384e-05 -0.000621555 0.272501)
(1.83433e-05 -0.000536434 0.272528)
(1.4149e-05 -0.000476131 0.272559)
(1.86089e-05 -0.000466204 0.27258)
(2.14619e-05 -0.000476537 0.272595)
(1.3526e-05 -0.000536772 0.272595)
(-2.02613e-05 -0.000620742 0.27259)
(-8.92572e-05 -0.000737334 0.272616)
(-0.000257888 -0.000776039 0.272555)
(-0.000528791 -0.000780566 0.271725)
(-0.000688092 3.07534e-06 0.269692)
(-3.51375e-06 0.000748698 0.267965)
(0.000682428 -2.87213e-06 0.269333)
(0.000533011 -0.000764021 0.271061)
(0.000274146 -0.000763682 0.271795)
(0.000111966 -0.000732474 0.271844)
(4.89961e-05 -0.000618218 0.271855)
(1.99235e-05 -0.0005347 0.271911)
(1.43968e-05 -0.000475277 0.271961)
(1.79833e-05 -0.00046553 0.271987)
(2.00223e-05 -0.000475492 0.271996)
(1.09624e-05 -0.00053467 0.271977)
(-2.54692e-05 -0.000616899 0.271943)
(-9.67006e-05 -0.000729733 0.271938)
(-0.000267214 -0.000762878 0.271876)
(-0.000531574 -0.000767762 0.271117)
(-0.000685464 -1.11505e-05 0.269366)
(-3.21797e-06 0.000712187 0.267796)
(0.000679734 -1.69315e-05 0.268937)
(0.000535158 -0.000751787 0.270399)
(0.000283054 -0.000751009 0.271063)
(0.000118908 -0.000725099 0.271112)
(5.337e-05 -0.000614495 0.27115)
(2.13766e-05 -0.000532593 0.271232)
(1.45707e-05 -0.000474092 0.271301)
(1.73064e-05 -0.000464538 0.271332)
(1.85592e-05 -0.000474129 0.271335)
(8.44888e-06 -0.000532221 0.271298)
(-3.04811e-05 -0.000612709 0.271237)
(-0.000103714 -0.000721874 0.271205)
(-0.000275645 -0.000749799 0.271143)
(-0.000533023 -0.000755225 0.270454)
(-0.000682111 -2.49701e-05 0.268967)
(-2.88368e-06 0.000676651 0.267546)
(0.000676493 -3.05504e-05 0.26847)
(0.000536182 -0.000739793 0.269683)
(0.000291181 -0.000738402 0.27028)
(0.000125444 -0.000717442 0.270326)
(5.75149e-05 -0.000610398 0.270389)
(2.27094e-05 -0.000530121 0.270496)
(1.46796e-05 -0.000472579 0.270581)
(1.65896e-05 -0.00046323 0.270617)
(1.7086e-05 -0.000472452 0.270615)
(5.99723e-06 -0.000529432 0.270561)
(-3.52951e-05 -0.000608186 0.270475)
(-0.00011032 -0.000713777 0.270418)
(-0.000283266 -0.000736818 0.270358)
(-0.000533293 -0.000742942 0.269736)
(-0.000678135 -3.83503e-05 0.268497)
(-2.51793e-06 0.00064211 0.267217)
(0.000672787 -4.37018e-05 0.267933)
(0.000536218 -0.000728024 0.268913)
(0.000298595 -0.000725874 0.269446)
(0.000131595 -0.000709522 0.269488)
(6.14396e-05 -0.000605944 0.269574)
(2.39286e-05 -0.000527294 0.269704)
(1.47315e-05 -0.000470747 0.269805)
(1.58431e-05 -0.000461613 0.269844)
(1.56141e-05 -0.000470469 0.269839)
(3.61676e-06 -0.000526317 0.269768)
(-3.99108e-05 -0.000603344 0.269659)
(-0.00011654 -0.00070546 0.269579)
(-0.000290156 -0.000723946 0.269524)
(-0.000532532 -0.000730897 0.268965)
(-0.000673634 -5.12641e-05 0.267959)
(-2.12696e-06 0.000608575 0.26681)
(0.000668701 -5.63634e-05 0.267329)
(0.00053539 -0.000716463 0.268092)
(0.000305364 -0.000713431 0.268564)
(0.000137381 -0.000701353 0.2686)
(6.51522e-05 -0.000601143 0.268708)
(2.50404e-05 -0.000524122 0.268859)
(1.47337e-05 -0.0004686 0.268974)
(1.50758e-05 -0.000459691 0.269017)
(1.41533e-05 -0.000468186 0.269007)
(1.31514e-06 -0.000522883 0.268922)
(-4.43287e-05 -0.000598196 0.268792)
(-0.000122396 -0.000696936 0.268691)
(-0.000296389 -0.000711192 0.268641)
(-0.000530878 -0.000719074 0.268142)
(-0.000668708 -6.36898e-05 0.267352)
(-1.7164e-06 0.000576051 0.266327)
(0.000664317 -6.85174e-05 0.266659)
(0.000533816 -0.000705093 0.26722)
(0.000311548 -0.000701077 0.267635)
(0.000142822 -0.000692946 0.267664)
(6.86595e-05 -0.000596008 0.26779)
(2.60502e-05 -0.000520613 0.267962)
(1.46925e-05 -0.000466144 0.26809)
(1.42958e-05 -0.000457469 0.268137)
(1.27121e-05 -0.000465608 0.268123)
(-9.01192e-07 -0.000519139 0.268024)
(-4.85493e-05 -0.000592752 0.267874)
(-0.000127907 -0.000688216 0.267754)
(-0.000302032 -0.000698557 0.267711)
(-0.000528459 -0.000707457 0.267269)
(-0.000663448 -7.56103e-05 0.266681)
(-1.29135e-06 0.000544538 0.265771)
(0.000659712 -8.01494e-05 0.265925)
(0.000531606 -0.000693894 0.266299)
(0.000317204 -0.000688812 0.266659)
(0.000147935 -0.000684311 0.266681)
(7.1968e-05 -0.000590548 0.266825)
(2.69629e-05 -0.000516775 0.267015)
(1.46136e-05 -0.000463384 0.267156)
(1.351e-05 -0.00045495 0.267205)
(1.12982e-05 -0.000462738 0.267188)
(-3.02682e-06 -0.000515092 0.267076)
(-5.25739e-05 -0.000587021 0.266908)
(-0.000133091 -0.000679308 0.266771)
(-0.000307148 -0.00068604 0.266734)
(-0.000525394 -0.000696025 0.266346)
(-0.000657945 -8.70118e-05 0.265945)
(-8.56501e-07 0.000514031 0.265142)
(0.000654963 -9.12483e-05 0.265129)
(0.000528859 -0.000682846 0.265329)
(0.000322386 -0.000676632 0.265638)
(0.000152738 -0.000675454 0.265652)
(7.50833e-05 -0.000584772 0.265811)
(2.77824e-05 -0.000512614 0.266019)
(1.45018e-05 -0.000460323 0.266171)
(1.27244e-05 -0.000452137 0.266223)
(9.9179e-06 -0.000459581 0.266203)
(-5.0571e-06 -0.000510747 0.26608)
(-5.64033e-05 -0.00058101 0.265894)
(-0.000137967 -0.000670217 0.265741)
(-0.000311795 -0.000673638 0.265713)
(-0.000521792 -0.000684759 0.265375)
(-0.000652284 -9.78836e-05 0.265147)
(-4.16127e-07 0.000484521 0.264443)
(0.00065014 -0.000101805 0.264272)
(0.000525668 -0.000671927 0.26431)
(0.00032714 -0.000664532 0.264572)
(0.000157245 -0.00066638 0.264577)
(7.80099e-05 -0.000578686 0.264752)
(2.85123e-05 -0.000508135 0.264975)
(1.4361e-05 -0.000456963 0.265138)
(1.19441e-05 -0.000449031 0.265193)
(8.57683e-06 -0.000456138 0.26517)
(-6.98799e-06 -0.000506109 0.265036)
(-6.00384e-05 -0.000574724 0.264834)
(-0.000142549 -0.000660947 0.264666)
(-0.000316024 -0.000661344 0.264646)
(-0.000517751 -0.000673636 0.264356)
(-0.000646543 -0.000108217 0.264288)
(2.58571e-08 0.000455996 0.263676)
(0.000645309 -0.000111812 0.263355)
(0.000522115 -0.000661114 0.263245)
(0.000331511 -0.000652505 0.263462)
(0.00016147 -0.000657093 0.263458)
(8.07518e-05 -0.000572295 0.263647)
(2.91551e-05 -0.000503341 0.263885)
(1.41945e-05 -0.000453307 0.264058)
(1.11736e-05 -0.000445634 0.264115)
(7.27993e-06 -0.000452411 0.264089)
(-8.81582e-06 -0.000501181 0.263945)
(-6.34798e-05 -0.000568167 0.263728)
(-0.000146851 -0.000651499 0.263547)
(-0.000319882 -0.00064915 0.263536)
(-0.000513359 -0.000662634 0.263289)
(-0.000640797 -0.000118005 0.26337)
(4.65876e-07 0.000428443 0.262841)
(0.000640528 -0.000121264 0.262381)
(0.000518273 -0.000650381 0.262133)
(0.000335536 -0.000640541 0.262308)
(0.000165426 -0.000647596 0.262295)
(8.33122e-05 -0.000565602 0.262497)
(2.97129e-05 -0.000498235 0.262749)
(1.4005e-05 -0.000449355 0.262931)
(1.04167e-05 -0.000441943 0.262989)
(6.03158e-06 -0.000448398 0.262962)
(-1.05371e-05 -0.000495963 0.262809)
(-6.67281e-05 -0.00056134 0.262578)
(-0.000150885 -0.000641875 0.262383)
(-0.000323411 -0.000637044 0.262382)
(-0.000508697 -0.000651727 0.262176)
(-0.00063511 -0.000127242 0.262394)
(9.0067e-07 0.000401847 0.261942)
(0.000635853 -0.000130154 0.261349)
(0.000514208 -0.000639703 0.260974)
(0.000339251 -0.000628627 0.261111)
(0.000169122 -0.00063789 0.261088)
(8.56935e-05 -0.000558608 0.261303)
(3.01869e-05 -0.000492817 0.261568)
(1.37944e-05 -0.000445105 0.261758)
(9.67647e-06 -0.000437958 0.261818)
(4.8358e-06 -0.000444099 0.261788)
(-1.21485e-05 -0.000490455 0.261627)
(-6.97833e-05 -0.000554242 0.261383)
(-0.000154662 -0.000632073 0.261176)
(-0.000326648 -0.000625014 0.261184)
(-0.000503833 -0.000640889 0.261016)
(-0.000629544 -0.000135922 0.261361)
(1.32727e-06 0.000376192 0.26098)
(0.000631332 -0.000138478 0.260262)
(0.000509977 -0.000629051 0.259769)
(0.000342686 -0.000616747 0.259871)
(0.000172568 -0.000627972 0.259837)
(8.78979e-05 -0.000551311 0.260064)
(3.05777e-05 -0.000487087 0.260342)
(1.35644e-05 -0.000440553 0.260539)
(8.95578e-06 -0.000433673 0.260601)
(3.69623e-06 -0.000439508 0.26057)
(-1.36467e-05 -0.000484655 0.2604)
(-7.26455e-05 -0.000546871 0.260145)
(-0.000158192 -0.00062209 0.259925)
(-0.000329626 -0.000613041 0.259944)
(-0.000498829 -0.000630091 0.259811)
(-0.000624151 -0.000144041 0.260273)
(1.74298e-06 0.000351461 0.259955)
(0.000627005 -0.000146231 0.25912)
(0.000505629 -0.000618394 0.258519)
(0.000345867 -0.000604884 0.258588)
(0.000175772 -0.000617839 0.258543)
(8.99265e-05 -0.00054371 0.258782)
(3.08858e-05 -0.00048104 0.259071)
(1.33158e-05 -0.000435695 0.259275)
(8.25692e-06 -0.000429083 0.259339)
(2.61614e-06 -0.000434621 0.259306)
(-1.50289e-05 -0.000478557 0.25913)
(-7.53145e-05 -0.00053922 0.258862)
(-0.000161482 -0.00061192 0.258631)
(-0.000332371 -0.000601108 0.25866)
(-0.000493738 -0.000619302 0.258559)
(-0.000618978 -0.000151593 0.259129)
(2.14535e-06 0.000327638 0.25887)
(0.00062291 -0.000153407 0.257924)
(0.000501209 -0.000607701 0.257222)
(0.000348818 -0.000593016 0.257261)
(0.00017874 -0.000607483 0.257206)
(9.17801e-05 -0.000535797 0.257456)
(3.11112e-05 -0.000474673 0.257757)
(1.30496e-05 -0.000430524 0.257967)
(7.58182e-06 -0.00042418 0.258032)
(1.5984e-06 -0.000429429 0.257997)
(-1.62924e-05 -0.000472157 0.257815)
(-7.77895e-05 -0.000531284 0.257536)
(-0.000164538 -0.000601553 0.257294)
(-0.000334909 -0.000589191 0.257333)
(-0.000488605 -0.00060849 0.257262)
(-0.000614066 -0.000158574 0.257932)
(2.53215e-06 0.000304697 0.257725)
(0.000619078 -0.000160001 0.256675)
(0.000496754 -0.000596941 0.255879)
(0.000351556 -0.000581119 0.255891)
(0.000181479 -0.000596895 0.255825)
(9.3459e-05 -0.000527568 0.256086)
(3.12536e-05 -0.000467978 0.256398)
(1.27663e-05 -0.000425031 0.256613)
(6.93211e-06 -0.000418955 0.256679)
(6.45468e-07 -0.000423924 0.256643)
(-1.74348e-05 -0.000465446 0.256455)
(-8.00696e-05 -0.000523054 0.256165)
(-0.000167368 -0.000590979 0.255913)
(-0.000337259 -0.000577266 0.255963)
(-0.000483471 -0.000597623 0.255918)
(-0.000609449 -0.000164977 0.256682)
(2.90134e-06 0.000282612 0.256522)
(0.000615533 -0.00016601 0.255372)
(0.000492294 -0.000586082 0.25449)
(0.0003541 -0.000569169 0.254476)
(0.000183993 -0.000586064 0.2544)
(9.49629e-05 -0.000519017 0.254671)
(3.13128e-05 -0.000460951 0.254994)
(1.2466e-05 -0.000419209 0.255215)
(6.3091e-06 -0.0004134 0.255282)
(-2.40483e-07 -0.000418097 0.255245)
(-1.8454e-05 -0.000458418 0.255051)
(-8.21536e-05 -0.000514523 0.25475)
(-0.000169974 -0.000580186 0.254488)
(-0.000339439 -0.000565307 0.254548)
(-0.000478367 -0.000586669 0.254529)
(-0.000605156 -0.0001708 0.255378)
(3.25104e-06 0.000261442 0.255261)
(0.000612296 -0.000171435 0.254018)
(0.000487856 -0.000575095 0.253054)
(0.000356461 -0.000557141 0.253017)
(0.000186285 -0.000574979 0.25293)
(9.62909e-05 -0.000510136 0.253211)
(3.12881e-05 -0.000453587 0.253545)
(1.21491e-05 -0.00041305 0.253771)
(5.71387e-06 -0.000407505 0.253839)
(-1.05758e-06 -0.00041194 0.253801)
(-1.93479e-05 -0.000451067 0.253602)
(-8.40399e-05 -0.000505682 0.25329)
(-0.000172361 -0.000569159 0.253018)
(-0.000341461 -0.000553287 0.253089)
(-0.000473323 -0.000575596 0.253092)
(-0.000601211 -0.000176042 0.254023)
(3.5795e-06 0.000241267 0.253943)
(0.000609378 -0.00017628 0.252611)
(0.000483459 -0.000563951 0.251571)
(0.000358649 -0.000545012 0.251513)
(0.000188358 -0.000563628 0.251415)
(9.74416e-05 -0.000500922 0.251706)
(3.11789e-05 -0.000445882 0.252051)
(1.18156e-05 -0.000406548 0.252281)
(5.14734e-06 -0.000401266 0.25235)
(-1.80422e-06 -0.000405447 0.252311)
(-2.01147e-05 -0.000443388 0.252108)
(-8.57263e-05 -0.000496526 0.251785)
(-0.000174532 -0.000557886 0.251503)
(-0.000343337 -0.000541183 0.251584)
(-0.000468359 -0.000564376 0.251608)
(-0.000597626 -0.000180709 0.252615)
(3.88527e-06 0.000222237 0.252567)
(0.00060678 -0.00018049 0.251152)
(0.00047912 -0.000552627 0.25004)
(0.00036067 -0.000532761 0.249962)
(0.000190214 -0.000552002 0.249854)
(9.84131e-05 -0.000491372 0.250155)
(3.09843e-05 -0.000437836 0.25051)
(1.14654e-05 -0.000399704 0.250745)
(4.61023e-06 -0.00039468 0.250815)
(-2.47896e-06 -0.000398618 0.250774)
(-2.07522e-05 -0.000435379 0.250566)
(-8.72103e-05 -0.00048705 0.250234)
(-0.000176486 -0.000546355 0.249941)
(-0.000345073 -0.000528972 0.250033)
(-0.000463493 -0.000552985 0.250076)
(-0.000594406 -0.000184747 0.251155)
(4.16732e-06 0.000204478 0.251133)
(0.000604494 -0.000184005 0.249641)
(0.00047485 -0.000541106 0.248459)
(0.000362531 -0.000520374 0.248365)
(0.00019185 -0.000540094 0.248246)
(9.92026e-05 -0.00048149 0.248556)
(3.07027e-05 -0.000429454 0.248921)
(1.10985e-05 -0.000392519 0.249161)
(4.10319e-06 -0.000387751 0.249232)
(-3.08044e-06 -0.000391454 0.24919)
(-2.12582e-05 -0.000427046 0.248978)
(-8.84885e-05 -0.000477255 0.248635)
(-0.000178223 -0.000534558 0.248333)
(-0.000346674 -0.000516638 0.248435)
(-0.000458736 -0.000541404 0.248495)
(-0.000591545 -0.000188097 0.249643)
(4.42498e-06 0.000188032 0.249638)
(0.000602508 -0.000186725 0.248076)
(0.000470649 -0.000529361 0.246829)
(0.000364232 -0.000507839 0.24672)
(0.000193268 -0.000527903 0.24659)
(9.98073e-05 -0.00047127 0.24691)
(3.0333e-05 -0.000420722 0.247284)
(1.07146e-05 -0.000384967 0.247529)
(3.62675e-06 -0.000380451 0.2476)
(-3.60735e-06 -0.000383926 0.247558)
(-2.16305e-05 -0.000418373 0.24734)
(-8.9558e-05 -0.000467137 0.246988)
(-0.000179744 -0.000522494 0.246677)
(-0.000348144 -0.000504169 0.24679)
(-0.000454092 -0.000529608 0.246865)
(-0.000589031 -0.000190662 0.248078)
(4.65778e-06 0.000172882 0.248081)
(0.000600805 -0.000188571 0.246457)
(0.000466511 -0.000517346 0.245148)
(0.000365777 -0.000495129 0.245025)
(0.000194469 -0.000515414 0.244884)
(0.000100226 -0.000460693 0.245214)
(2.98751e-05 -0.000411613 0.245598)
(1.03137e-05 -0.000377011 0.245847)
(3.18095e-06 -0.000372747 0.245918)
(-4.05962e-06 -0.000376 0.245875)
(-2.18694e-05 -0.00040933 0.245653)
(-9.0418e-05 -0.000456674 0.245292)
(-0.00018105 -0.000510143 0.244972)
(-0.000349483 -0.000491534 0.245095)
(-0.000449554 -0.00051755 0.245183)
(-0.000586851 -0.000192362 0.246458)
(4.86523e-06 0.000158954 0.246461)
(0.00059937 -0.000189499 0.244781)
(0.000462425 -0.000505015 0.243413)
(0.000367168 -0.000482187 0.243276)
(0.000195458 -0.000502575 0.243124)
(0.000100463 -0.000449718 0.243464)
(2.93315e-05 -0.000402088 0.243858)
(9.89668e-06 -0.000368606 0.244112)
(2.76526e-06 -0.000364593 0.244184)
(-4.43933e-06 -0.000367627 0.244141)
(-2.19791e-05 -0.000399879 0.243914)
(-9.10743e-05 -0.000445822 0.243542)
(-0.000182145 -0.000497452 0.243211)
(-0.000350693 -0.000478678 0.243346)
(-0.000445107 -0.000505183 0.243448)
(-0.000584989 -0.000193152 0.244781)
(5.0468e-06 0.000146162 0.244775)
(0.000598192 -0.000189494 0.243045)
(0.000458346 -0.000492267 0.241617)
(0.000368401 -0.000468907 0.241465)
(0.000196236 -0.000489289 0.2413)
(0.000100523 -0.000438257 0.241652)
(2.87072e-05 -0.000392072 0.242059)
(9.46527e-06 -0.000359686 0.242318)
(2.37807e-06 -0.000355922 0.24239)
(-4.75145e-06 -0.000358743 0.242347)
(-2.19675e-05 -0.000389943 0.242114)
(-9.15341e-05 -0.000434493 0.24173)
(-0.000183033 -0.000484324 0.241387)
(-0.000351772 -0.000465492 0.241534)
(-0.000440708 -0.000492406 0.24165)
(-0.000583432 -0.000193015 0.243045)
(5.20222e-06 0.000134431 0.243021)
(0.000597236 -0.000188583 0.241245)
(0.000454232 -0.000478992 0.239748)
(0.000369471 -0.00045519 0.239585)
(0.000196799 -0.00047547 0.239408)
(0.000100407 -0.000426227 0.239771)
(2.8004e-05 -0.000381478 0.240189)
(9.01994e-06 -0.00035017 0.240453)
(2.01783e-06 -0.000346652 0.240525)
(-4.9992e-06 -0.000349266 0.240482)
(-2.18377e-05 -0.000379435 0.240244)
(-9.17963e-05 -0.000422601 0.239849)
(-0.000183709 -0.000470671 0.239495)
(-0.000352713 -0.000451876 0.239654)
(-0.000436315 -0.000479108 0.239782)
(-0.000582143 -0.000191975 0.241244)
(5.33203e-06 0.00012372 0.241197)
(0.00059642 -0.000186785 0.239365)
(0.000450067 -0.000465124 0.237803)
(0.000370369 -0.000440952 0.237632)
(0.000197143 -0.000461038 0.237443)
(0.000100106 -0.000413561 0.237816)
(2.72191e-05 -0.000370249 0.238243)
(8.55927e-06 -0.000340012 0.238511)
(1.68467e-06 -0.000336734 0.238582)
(-5.18072e-06 -0.000339149 0.238539)
(-2.15857e-05 -0.000368295 0.238298)
(-9.18536e-05 -0.000410079 0.237894)
(-0.000184169 -0.000456411 0.237531)
(-0.000353509 -0.000437745 0.237701)
(-0.000431913 -0.00046522 0.237836)
(-0.000581036 -0.000190051 0.239363)
(5.4379e-06 0.000114002 0.239296)
(0.000595675 -0.000184126 0.237393)
(0.000445847 -0.000450626 0.235776)
(0.000371086 -0.000426153 0.2356)
(0.000197263 -0.000445959 0.235402)
(9.96148e-05 -0.000400229 0.235782)
(2.63488e-05 -0.000358357 0.236216)
(8.08144e-06 -0.000329189 0.236487)
(1.37904e-06 -0.000326144 0.236558)
(-5.29319e-06 -0.000328369 0.236515)
(-2.12075e-05 -0.000356496 0.236271)
(-9.16991e-05 -0.000396896 0.235859)
(-0.000184408 -0.000441509 0.235489)
(-0.000354151 -0.000423057 0.235669)
(-0.000427498 -0.000450707 0.235808)
(-0.000580046 -0.000187265 0.23739)
(5.52094e-06 0.000105242 0.2373)
(0.000594987 -0.000180628 0.235323)
(0.000441567 -0.000435494 0.233663)
(0.000371611 -0.000410785 0.233486)
(0.000197151 -0.000430232 0.233278)
(9.89252e-05 -0.000386233 0.233664)
(2.53899e-05 -0.000345802 0.234105)
(7.58461e-06 -0.000317707 0.234377)
(1.10093e-06 -0.000314885 0.234447)
(-5.33473e-06 -0.000316931 0.234404)
(-2.07002e-05 -0.000344037 0.23416)
(-9.13262e-05 -0.000383053 0.233742)
(-0.00018442 -0.000425963 0.233366)
(-0.000354628 -0.000407804 0.233555)
(-0.000423068 -0.000435563 0.233695)
(-0.000579162 -0.000183641 0.23532)
(5.58016e-06 9.74468e-05 0.235197)
(0.000594343 -0.000176306 0.233155)
(0.000437221 -0.000419768 0.23146)
(0.000371929 -0.000394892 0.231283)
(0.000196802 -0.000413909 0.231067)
(9.80315e-05 -0.00037162 0.231459)
(2.43399e-05 -0.000332626 0.231905)
(7.06715e-06 -0.000305604 0.232176)
(8.50105e-07 -0.000302995 0.232246)
(-5.30414e-06 -0.000304874 0.232204)
(-2.00621e-05 -0.000330959 0.231959)
(-9.07296e-05 -0.000368596 0.231536)
(-0.000184198 -0.000409824 0.231154)
(-0.000354924 -0.000392029 0.231352)
(-0.000418614 -0.000419828 0.231492)
(-0.000578372 -0.000179195 0.23315)
(5.61391e-06 9.06452e-05 0.232982)
(0.000593724 -0.000171181 0.230885)
(0.000432799 -0.000403499 0.229163)
(0.000372022 -0.000378529 0.228988)
(0.000196209 -0.000397056 0.228763)
(9.69284e-05 -0.00035645 0.229159)
(2.3197e-05 -0.000318884 0.22961)
(6.52767e-06 -0.000292933 0.229881)
(6.26266e-07 -0.000290527 0.229951)
(-5.2006e-06 -0.000292249 0.229909)
(-1.92919e-05 -0.000317317 0.229664)
(-8.99045e-05 -0.000353584 0.229236)
(-0.000183736 -0.000393158 0.22885)
(-0.000355024 -0.000375785 0.229056)
(-0.000414126 -0.000403552 0.229195)
(-0.000577659 -0.000173948 0.23088)
(5.62176e-06 8.48361e-05 0.230655)
(0.000593102 -0.000165282 0.228513)
(0.000428285 -0.000386741 0.226768)
(0.000371873 -0.00036175 0.226595)
(0.000195362 -0.000379737 0.226362)
(9.56115e-05 -0.000340786 0.226763)
(2.196e-05 -0.000304634 0.227218)
(5.96501e-06 -0.000279747 0.227488)
(4.29063e-07 -0.000277534 0.227557)
(-5.02359e-06 -0.00027911 0.227515)
(-1.83892e-05 -0.000303168 0.227272)
(-8.8847e-05 -0.000338079 0.226839)
(-0.000183027 -0.000376026 0.226449)
(-0.000354908 -0.000359127 0.226663)
(-0.000409589 -0.000386789 0.226799)
(-0.000576993 -0.00016793 0.228507)
(5.60427e-06 7.99958e-05 0.228216)
(0.000592444 -0.000158648 0.226034)
(0.000423663 -0.000369545 0.224269)
(0.00037146 -0.000344607 0.224099)
(0.000194256 -0.000362011 0.223858)
(9.40771e-05 -0.000324685 0.224264)
(2.06285e-05 -0.000289932 0.224724)
(5.37819e-06 -0.000266099 0.224991)
(2.5814e-07 -0.00026407 0.225061)
(-4.77277e-06 -0.000265508 0.225019)
(-1.73544e-05 -0.000288567 0.224777)
(-8.75542e-05 -0.000322137 0.22434)
(-0.000182062 -0.000358487 0.223945)
(-0.000354555 -0.000342106 0.224168)
(-0.000404985 -0.00036959 0.2243)
(-0.000576338 -0.00016118 0.226028)
(5.5622e-06 7.60841e-05 0.225663)
(0.000591711 -0.00015133 0.223447)
(0.000418916 -0.000351964 0.221662)
(0.000370762 -0.000327152 0.221498)
(0.000192882 -0.000343935 0.221249)
(9.23226e-05 -0.000308204 0.221658)
(1.92028e-05 -0.000274835 0.222122)
(4.76644e-06 -0.000252044 0.222388)
(1.13128e-07 -0.000250189 0.222458)
(-4.44803e-06 -0.0002515 0.222416)
(-1.61882e-05 -0.00027357 0.222176)
(-8.60238e-05 -0.000305815 0.221734)
(-0.000180837 -0.000340597 0.221335)
(-0.000353944 -0.000324772 0.221566)
(-0.000400297 -0.000352007 0.221693)
(-0.000575656 -0.000153748 0.22344)
(5.49636e-06 7.3045e-05 0.222993)
(0.000590859 -0.000143387 0.220746)
(0.000414025 -0.000334054 0.218945)
(0.000369756 -0.000309437 0.218785)
(0.000191236 -0.000325569 0.218529)
(9.03463e-05 -0.000291406 0.218943)
(1.76836e-05 -0.000259401 0.21941)
(4.12919e-06 -0.000237642 0.219674)
(-6.36147e-09 -0.000235951 0.219743)
(-4.04948e-06 -0.000237143 0.219702)
(-1.48923e-05 -0.000258236 0.219463)
(-8.42548e-05 -0.000289172 0.219018)
(-0.000179345 -0.000322417 0.218615)
(-0.000353053 -0.000307179 0.218853)
(-0.000395507 -0.000334096 0.218975)
(-0.000574903 -0.000145694 0.220738)
(5.40751e-06 7.08095e-05 0.220204)
(0.000589845 -0.00013489 0.217928)
(0.000408976 -0.000315876 0.216112)
(0.00036842 -0.000291525 0.21596)
(0.00018931 -0.00030698 0.215695)
(8.8148e-05 -0.000274356 0.216113)
(1.60729e-05 -0.000243699 0.216585)
(3.46617e-06 -0.000222957 0.216846)
(-1.00755e-07 -0.000221421 0.216915)
(-3.5776e-06 -0.000222504 0.216873)
(-1.34693e-05 -0.00024263 0.216638)
(-8.22475e-05 -0.000272276 0.216189)
(-0.000177581 -0.00030401 0.215781)
(-0.000351859 -0.000289388 0.216027)
(-0.000390598 -0.000315919 0.216142)
(-0.000574034 -0.000137088 0.21792)
(5.29648e-06 6.92961e-05 0.217292)
(0.000588626 -0.000125918 0.21499)
(0.000403751 -0.000297505 0.213162)
(0.000366731 -0.000273485 0.213017)
(0.000187102 -0.000288244 0.212745)
(8.5729e-05 -0.000257131 0.213167)
(1.43734e-05 -0.000227803 0.213643)
(2.77748e-06 -0.000208066 0.213901)
(-1.70547e-07 -0.000206674 0.213969)
(-3.03338e-06 -0.000207656 0.213928)
(-1.19228e-05 -0.00022683 0.213695)
(-8.00039e-05 -0.000255202 0.213242)
(-0.000175541 -0.000285454 0.212831)
(-0.000350339 -0.000271467 0.213084)
(-0.000385554 -0.000297549 0.213192)
(-0.000573005 -0.00012801 0.214982)
(5.16421e-06 6.84116e-05 0.214254)
(0.000587155 -0.000116565 0.21193)
(0.000398337 -0.000279025 0.210092)
(0.000364667 -0.000255401 0.209956)
(0.00018461 -0.000269448 0.209676)
(8.30925e-05 -0.000239819 0.210103)
(1.25893e-05 -0.000211803 0.210581)
(2.06361e-06 -0.000193056 0.210836)
(-2.16333e-07 -0.000191797 0.210904)
(-2.41836e-06 -0.000192688 0.210863)
(-1.02578e-05 -0.000210922 0.210633)
(-7.75279e-05 -0.000238036 0.210177)
(-0.000173225 -0.000266833 0.209762)
(-0.000348471 -0.0002535 0.210023)
(-0.000380359 -0.000279069 0.210121)
(-0.000571769 -0.000118553 0.211922)
(5.01174e-06 6.80516e-05 0.21109)
(0.000585389 -0.000106935 0.208746)
(0.000392722 -0.000260533 0.206899)
(0.000362207 -0.000237367 0.206774)
(0.000181832 -0.000250692 0.206487)
(8.02436e-05 -0.00022252 0.206918)
(1.07255e-05 -0.000195799 0.207399)
(1.32551e-06 -0.000178024 0.20765)
(-2.38829e-07 -0.000176891 0.207717)
(-1.73482e-06 -0.000177697 0.207677)
(-8.48061e-06 -0.000195006 0.20745)
(-7.48253e-05 -0.00022088 0.206992)
(-0.000170631 -0.000248249 0.206572)
(-0.000346233 -0.000235581 0.206841)
(-0.000375001 -0.000260579 0.206928)
(-0.000570279 -0.000108822 0.208737)
(4.84029e-06 6.81028e-05 0.207795)
(0.000583281 -9.7143e-05 0.205435)
(0.00038689 -0.000242137 0.203583)
(0.000359331 -0.00021949 0.20347)
(0.00017877 -0.000232086 0.203176)
(7.71892e-05 -0.000205344 0.20361)
(8.78842e-06 -0.0001799 0.204094)
(5.64547e-07 -0.000163081 0.204341)
(-2.38887e-07 -0.000162063 0.204407)
(-9.8568e-07 -0.000162793 0.204368)
(-6.59893e-06 -0.000179192 0.204145)
(-7.19042e-05 -0.000203841 0.203683)
(-0.000167762 -0.000229809 0.203261)
(-0.000343606 -0.000217815 0.203536)
(-0.000369464 -0.000242184 0.203612)
(-0.000568489 -9.89304e-05 0.205425)
(4.65117e-06 6.84461e-05 0.204368)
(0.000580784 -8.73086e-05 0.201995)
(0.000380831 -0.000223952 0.200142)
(0.00035602 -0.00020188 0.200041)
(0.000175427 -0.000213746 0.199741)
(7.39378e-05 -0.000188407 0.200178)
(6.78517e-06 -0.000164222 0.200664)
(-2.17501e-07 -0.000148341 0.200907)
(-2.17476e-07 -0.000147429 0.200972)
(-1.74524e-07 -0.00014809 0.200933)
(-4.6215e-06 -0.000163594 0.200714)
(-6.87737e-05 -0.000187035 0.200251)
(-0.00016462 -0.00021163 0.199825)
(-0.00034057 -0.000200314 0.200107)
(-0.000363735 -0.000224 0.20017)
(-0.000566348 -8.89988e-05 0.201985)
(4.44578e-06 6.8962e-05 0.200805)
(0.000577849 -7.75526e-05 0.198424)
(0.000374528 -0.000206093 0.196572)
(0.000352254 -0.000184651 0.196485)
(0.000171806 -0.000195789 0.19618)
(7.04988e-05 -0.000171826 0.196619)
(4.72383e-06 -0.000148882 0.197106)
(-1.0185e-06 -0.00013392 0.197345)
(-1.75665e-07 -0.000133105 0.197409)
(6.94538e-07 -0.000133702 0.197371)
(-2.55805e-06 -0.00014833 0.197155)
(-6.54447e-05 -0.000170579 0.196691)
(-0.00016121 -0.000193828 0.196263)
(-0.000337104 -0.00018319 0.19655)
(-0.000357796 -0.000206142 0.1966)
(-0.000563805 -7.91478e-05 0.198414)
(4.2256e-06 6.95341e-05 0.197104)
(0.000574424 -6.79921e-05 0.194719)
(0.000367967 -0.000188674 0.192871)
(0.000348014 -0.000167912 0.192799)
(0.000167911 -0.000178327 0.192488)
(6.68831e-05 -0.000155713 0.192929)
(2.61328e-06 -0.000133991 0.193416)
(-1.83599e-06 -0.000119928 0.193651)
(-1.14603e-07 -0.000119202 0.193714)
(1.6169e-06 -0.000119743 0.193677)
(-4.19268e-07 -0.000133511 0.193466)
(-6.1929e-05 -0.000154586 0.193)
(-0.000157536 -0.000176515 0.192571)
(-0.00033319 -0.000166553 0.192863)
(-0.000351632 -0.000188724 0.192898)
(-0.000560807 -6.94945e-05 0.194709)
(3.99211e-06 7.00538e-05 0.193259)
(0.000570455 -5.87369e-05 0.190875)
(0.000361131 -0.000171802 0.189034)
(0.000343282 -0.000151765 0.188977)
(0.000163746 -0.000161466 0.188663)
(6.31024e-05 -0.000140173 0.189105)
(4.63187e-07 -0.000119655 0.189592)
(-2.66714e-06 -0.00010647 0.189822)
(-3.55083e-08 -0.000105825 0.189884)
(2.58748e-06 -0.000106315 0.189847)
(1.78329e-06 -0.000119242 0.18964)
(-5.82394e-05 -0.000139159 0.189175)
(-0.000153603 -0.000159797 0.188744)
(-0.000328809 -0.000150503 0.189041)
(-0.000345223 -0.000171851 0.189061)
(-0.000557297 -6.01487e-05 0.190865)
(3.74685e-06 7.04229e-05 0.189267)
(0.000565887 -4.98861e-05 0.186888)
(0.000354001 -0.000155571 0.185057)
(0.000338039 -0.000136301 0.185016)
(0.000159319 -0.000145301 0.184698)
(5.91694e-05 -0.000125302 0.185141)
(-1.71591e-06 -0.000105967 0.185627)
(-3.50877e-06 -9.36387e-05 0.185852)
(6.03315e-08 -9.30677e-05 0.185913)
(3.6007e-06 -9.35113e-05 0.185877)
(4.03713e-06 -0.000105616 0.185675)
(-5.43898e-05 -0.000124394 0.18521)
(-0.000149418 -0.000143769 0.184779)
(-0.00032394 -0.000135134 0.185079)
(-0.000338552 -0.00015562 0.185084)
(-0.000553216 -5.12095e-05 0.186878)
(3.49137e-06 7.05566e-05 0.18512)
(0.000560659 -4.15258e-05 0.182752)
(0.000346561 -0.000140065 0.180934)
(0.000332266 -0.0001216 0.180909)
(0.000154634 -0.000129913 0.180589)
(5.50977e-05 -0.000111179 0.181031)
(-3.91258e-06 -9.30076e-05 0.181515)
(-4.35728e-06 -8.1514e-05 0.181736)
(1.71547e-07 -8.10092e-05 0.181795)