-0.0075 	0 	0 	0
-0.00715932 	-0.000155487 	-3.11433e-05 	0.138313
-0.00676191 	-0.000256071 	-9.47483e-05 	0.219583
-0.00629832 	-0.00028248 	-0.000176102 	0.268539
-0.00575752 	-0.000266206 	-0.000260817 	0.301135
-0.00512667 	-0.000235144 	-0.000340024 	0.325501
-0.00439077 	-0.000204305 	-0.000407259 	0.344703
-0.00353231 	-0.000179283 	-0.000462448 	0.359733
-0.00253089 	-0.000159153 	-0.000508278 	0.370704
-0.00136271 	-0.000140814 	-0.000543999 	0.377363
0 	-0.000123436 	-0.000564365 	0.379139
0.00136271 	-0.000109209 	-0.000563521 	0.375521
0.00253089 	-0.000100808 	-0.00054052 	0.366814
0.00353231 	-0.000100707 	-0.000498718 	0.353671
0.00439077 	-0.000111596 	-0.000435732 	0.3361
0.00512667 	-0.00013457 	-0.000344617 	0.312951
0.00575752 	-0.000164886 	-0.000227455 	0.281475
0.00629832 	-0.000186033 	-0.000103837 	0.236603
0.00676191 	-0.000164362 	-1.43126e-05 	0.16631
0.00715932 	-8.4579e-05 	1.01039e-05 	0.0736629
0.0075 	0 	0 	0
