0 	0 	0 	0
5.01672e-05 	-2.28966e-05 	-4.58606e-06 	0.0203675
0.000100334 	-4.57931e-05 	-9.17213e-06 	0.0407351
0.000150502 	-6.86897e-05 	-1.37582e-05 	0.0611026
0.000200669 	-9.15863e-05 	-1.83443e-05 	0.0814701
0.000250836 	-0.000114483 	-2.29303e-05 	0.101838
0.000301003 	-0.000137379 	-2.75164e-05 	0.122205
0.000351171 	-0.000158143 	-3.28225e-05 	0.140459
0.000401338 	-0.00017084 	-4.08517e-05 	0.150718
0.000451505 	-0.000183537 	-4.88808e-05 	0.160977
0.000501672 	-0.000196234 	-5.691e-05 	0.171236
0.000551839 	-0.000208931 	-6.49392e-05 	0.181495
0.000602007 	-0.000221628 	-7.29683e-05 	0.191754
0.000652174 	-0.000234326 	-8.09975e-05 	0.202014
0.000702341 	-0.000247023 	-8.90267e-05 	0.212273
0.000752508 	-0.000256892 	-9.72784e-05 	0.221106
0.000802676 	-0.00025975 	-0.000106082 	0.226404
0.000852843 	-0.000262608 	-0.000114886 	0.231701
0.00090301 	-0.000265466 	-0.000123689 	0.236999
0.000953177 	-0.000268324 	-0.000132493 	0.242297
0.00100334 	-0.000271181 	-0.000141296 	0.247594
0.00105351 	-0.000274039 	-0.0001501 	0.252892
0.00110368 	-0.000276897 	-0.000158904 	0.25819
0.00115385 	-0.000279755 	-0.000167707 	0.263487
0.00120401 	-0.00028241 	-0.000176467 	0.268679
0.00125418 	-0.0002809 	-0.000184326 	0.271703
0.00130435 	-0.000279391 	-0.000192184 	0.274727
0.00135452 	-0.000277881 	-0.000200043 	0.277751
0.00140468 	-0.000276371 	-0.000207902 	0.280775
0.00145485 	-0.000274862 	-0.00021576 	0.283799
0.00150502 	-0.000273352 	-0.000223619 	0.286822
0.00155518 	-0.000271842 	-0.000231478 	0.289846
0.00160535 	-0.000270333 	-0.000239337 	0.29287
0.00165552 	-0.000268823 	-0.000247195 	0.295894
0.00170569 	-0.000267313 	-0.000255054 	0.298918
0.00175585 	-0.000265547 	-0.000262497 	0.301652
0.00180602 	-0.000263077 	-0.000268795 	0.303589
0.00185619 	-0.000260607 	-0.000275094 	0.305527
0.00190635 	-0.000258137 	-0.000281393 	0.307465
0.00195652 	-0.000255667 	-0.000287692 	0.309402
0.00200669 	-0.000253197 	-0.00029399 	0.31134
0.00205686 	-0.000250727 	-0.000300289 	0.313277
0.00210702 	-0.000248256 	-0.000306588 	0.315215
0.00215719 	-0.000245786 	-0.000312887 	0.317153
0.00220736 	-0.000243316 	-0.000319185 	0.31909
0.00225753 	-0.000240846 	-0.000325484 	0.321028
0.00230769 	-0.000238376 	-0.000331783 	0.322966
0.00235786 	-0.000235906 	-0.000338082 	0.324903
0.00240803 	-0.00023369 	-0.000343194 	0.326406
0.00245819 	-0.000231588 	-0.000347777 	0.327715
0.00250836 	-0.000229485 	-0.000352361 	0.329024
0.00255853 	-0.000227383 	-0.000356944 	0.330333
0.0026087 	-0.000225281 	-0.000361528 	0.331642
0.00265886 	-0.000223178 	-0.000366111 	0.332951
0.00270903 	-0.000221076 	-0.000370695 	0.33426
0.0027592 	-0.000218974 	-0.000375278 	0.335569
0.00280936 	-0.000216871 	-0.000379862 	0.336878
0.00285953 	-0.000214769 	-0.000384445 	0.338187
0.0029097 	-0.000212667 	-0.000389029 	0.339496
0.00295987 	-0.000210564 	-0.000393612 	0.340805
0.00301003 	-0.000208462 	-0.000398196 	0.342114
0.0030602 	-0.00020636 	-0.000402779 	0.343423
0.00311037 	-0.000204272 	-0.000407332 	0.344723
0.00316054 	-0.00020281 	-0.000410557 	0.345601
0.0032107 	-0.000201347 	-0.000413783 	0.346479
0.00326087 	-0.000199885 	-0.000417008 	0.347358
0.00331104 	-0.000198423 	-0.000420233 	0.348236
0.0033612 	-0.000196961 	-0.000423458 	0.349114
0.00341137 	-0.000195498 	-0.000426683 	0.349993
0.00346154 	-0.000194036 	-0.000429908 	0.350871
0.00351171 	-0.000192574 	-0.000433133 	0.351749
0.00356187 	-0.000191111 	-0.000436359 	0.352628
0.00361204 	-0.000189649 	-0.000439584 	0.353506
0.00366221 	-0.000188187 	-0.000442809 	0.354384
0.00371237 	-0.000186725 	-0.000446034 	0.355263
0.00376254 	-0.000185262 	-0.000449259 	0.356141
0.00381271 	-0.0001838 	-0.000452484 	0.357019
0.00386288 	-0.000182338 	-0.000455709 	0.357898
0.00391304 	-0.000180875 	-0.000458935 	0.358776
0.00396321 	-0.000179413 	-0.00046216 	0.359654
0.00401338 	-0.000178364 	-0.000464539 	0.360233
0.00406355 	-0.000177356 	-0.000466835 	0.360783
0.00411371 	-0.000176347 	-0.00046913 	0.361332
0.00416388 	-0.000175339 	-0.000471426 	0.361882
0.00421405 	-0.000174331 	-0.000473722 	0.362432
0.00426421 	-0.000173322 	-0.000476018 	0.362981
0.00431438 	-0.000172314 	-0.000478314 	0.363531
0.00436455 	-0.000171305 	-0.00048061 	0.36408
0.00441472 	-0.000170297 	-0.000482906 	0.36463
0.00446488 	-0.000169288 	-0.000485202 	0.36518
0.00451505 	-0.00016828 	-0.000487498 	0.365729
0.00456522 	-0.000167272 	-0.000489794 	0.366279
0.00461538 	-0.000166263 	-0.00049209 	0.366828
0.00466555 	-0.000165255 	-0.000494385 	0.367378
0.00471572 	-0.000164246 	-0.000496681 	0.367928
0.00476589 	-0.000163238 	-0.000498977 	0.368477
0.00481605 	-0.00016223 	-0.000501273 	0.369027
0.00486622 	-0.000161221 	-0.000503569 	0.369576
0.00491639 	-0.000160213 	-0.000505865 	0.370126
0.00496656 	-0.000159204 	-0.000508161 	0.370676
0.00501672 	-0.000158406 	-0.000509734 	0.370975
0.00506689 	-0.000157618 	-0.000511268 	0.371261
0.00511706 	-0.00015683 	-0.000512802 	0.371547
0.00516722 	-0.000156043 	-0.000514336 	0.371833
0.00521739 	-0.000155255 	-0.00051587 	0.372119
0.00526756 	-0.000154468 	-0.000517404 	0.372405
0.00531773 	-0.00015368 	-0.000518938 	0.372691
0.00536789 	-0.000152893 	-0.000520472 	0.372977
0.00541806 	-0.000152105 	-0.000522006 	0.373263
0.00546823 	-0.000151317 	-0.00052354 	0.373549
0.00551839 	-0.00015053 	-0.000525074 	0.373835
0.00556856 	-0.000149742 	-0.000526608 	0.374121
0.00561873 	-0.000148955 	-0.000528142 	0.374407
0.0056689 	-0.000148167 	-0.000529676 	0.374693
0.00571906 	-0.00014738 	-0.00053121 	0.374979
0.00576923 	-0.000146592 	-0.000532744 	0.375265
0.0058194 	-0.000145805 	-0.000534278 	0.375551
0.00586957 	-0.000145017 	-0.000535812 	0.375837
0.00591973 	-0.000144229 	-0.000537346 	0.376123
0.0059699 	-0.000143442 	-0.00053888 	0.376409
0.00602007 	-0.000142654 	-0.000540414 	0.376695
0.00607023 	-0.000141867 	-0.000541949 	0.376981
0.0061204 	-0.000141079 	-0.000543483 	0.377267
0.00617057 	-0.00014039 	-0.000544496 	0.377407
0.00622074 	-0.00013975 	-0.000545246 	0.377472
0.0062709 	-0.00013911 	-0.000545996 	0.377537
0.00632107 	-0.00013847 	-0.000546746 	0.377603
0.00637124 	-0.000137831 	-0.000547495 	0.377668
0.0064214 	-0.000137191 	-0.000548245 	0.377733
0.00647157 	-0.000136551 	-0.000548995 	0.377799
0.00652174 	-0.000135911 	-0.000549745 	0.377864
0.00657191 	-0.000135271 	-0.000550494 	0.37793
0.00662207 	-0.000134632 	-0.000551244 	0.377995
0.00667224 	-0.000133992 	-0.000551994 	0.37806
0.00672241 	-0.000133352 	-0.000552744 	0.378126
0.00677258 	-0.000132712 	-0.000553493 	0.378191
0.00682274 	-0.000132073 	-0.000554243 	0.378256
0.00687291 	-0.000131433 	-0.000554993 	0.378322
0.00692308 	-0.000130793 	-0.000555743 	0.378387
0.00697324 	-0.000130153 	-0.000556492 	0.378453
0.00702341 	-0.000129513 	-0.000557242 	0.378518
0.00707358 	-0.000128874 	-0.000557992 	0.378583
0.00712375 	-0.000128234 	-0.000558742 	0.378649
0.00717391 	-0.000127594 	-0.000559492 	0.378714
0.00722408 	-0.000126954 	-0.000560241 	0.378779
0.00727425 	-0.000126315 	-0.000560991 	0.378845
0.00732441 	-0.000125675 	-0.000561741 	0.37891
0.00737458 	-0.000125035 	-0.000562491 	0.378976
0.00742475 	-0.000124395 	-0.00056324 	0.379041
0.00747492 	-0.000123756 	-0.00056399 	0.379106
0.00752508 	-0.000123174 	-0.000564349 	0.379072
0.00757525 	-0.00012265 	-0.000564318 	0.378939
0.00762542 	-0.000122126 	-0.000564287 	0.378806
0.00767559 	-0.000121603 	-0.000564256 	0.378673
0.00772575 	-0.000121079 	-0.000564225 	0.37854
0.00777592 	-0.000120555 	-0.000564194 	0.378406
0.00782609 	-0.000120031 	-0.000564163 	0.378273
0.00787625 	-0.000119508 	-0.000564132 	0.37814
0.00792642 	-0.000118984 	-0.000564101 	0.378007
0.00797659 	-0.00011846 	-0.00056407 	0.377874
0.00802676 	-0.000117936 	-0.000564039 	0.37774
0.00807692 	-0.000117413 	-0.000564008 	0.377607
0.00812709 	-0.000116889 	-0.000563977 	0.377474
0.00817726 	-0.000116365 	-0.000563946 	0.377341
0.00822742 	-0.000115841 	-0.000563915 	0.377208
0.00827759 	-0.000115318 	-0.000563884 	0.377074
0.00832776 	-0.000114794 	-0.000563852 	0.376941
0.00837793 	-0.00011427 	-0.000563821 	0.376808
0.00842809 	-0.000113746 	-0.00056379 	0.376675
0.00847826 	-0.000113223 	-0.000563759 	0.376542
0.00852843 	-0.000112699 	-0.000563728 	0.376408
0.0085786 	-0.000112175 	-0.000563697 	0.376275
0.00862876 	-0.000111652 	-0.000563666 	0.376142
0.00867893 	-0.000111128 	-0.000563635 	0.376009
0.0087291 	-0.000110604 	-0.000563604 	0.375876
0.00877926 	-0.00011008 	-0.000563573 	0.375742
0.00882943 	-0.000109557 	-0.000563542 	0.375609
0.0088796 	-0.000109088 	-0.000563189 	0.375395
0.00892977 	-0.000108727 	-0.000562201 	0.375021
0.00897993 	-0.000108366 	-0.000561213 	0.374647
0.0090301 	-0.000108005 	-0.000560225 	0.374273
0.00908027 	-0.000107645 	-0.000559238 	0.373899
0.00913043 	-0.000107284 	-0.00055825 	0.373525
0.0091806 	-0.000106923 	-0.000557262 	0.373152
0.00923077 	-0.000106562 	-0.000556274 	0.372778
0.00928094 	-0.000106201 	-0.000555286 	0.372404
0.0093311 	-0.000105841 	-0.000554299 	0.37203
0.00938127 	-0.00010548 	-0.000553311 	0.371656
0.00943144 	-0.000105119 	-0.000552323 	0.371282
0.00948161 	-0.000104758 	-0.000551335 	0.370908
0.00953177 	-0.000104398 	-0.000550347 	0.370534
0.00958194 	-0.000104037 	-0.00054936 	0.37016
0.00963211 	-0.000103676 	-0.000548372 	0.369786
0.00968227 	-0.000103315 	-0.000547384 	0.369412
0.00973244 	-0.000102954 	-0.000546396 	0.369039
0.00978261 	-0.000102594 	-0.000545408 	0.368665
0.00983278 	-0.000102233 	-0.000544421 	0.368291
0.00988294 	-0.000101872 	-0.000543433 	0.367917
0.00993311 	-0.000101511 	-0.000542445 	0.367543
0.00998328 	-0.000101151 	-0.000541457 	0.367169
0.0100334 	-0.000100808 	-0.000540413 	0.366781
0.0100836 	-0.000100803 	-0.000538319 	0.366122
0.0101338 	-0.000100798 	-0.000536225 	0.365464
0.0101839 	-0.000100793 	-0.000534131 	0.364805
0.0102341 	-0.000100788 	-0.000532037 	0.364147
0.0102843 	-0.000100782 	-0.000529943 	0.363488
0.0103344 	-0.000100777 	-0.000527848 	0.36283
0.0103846 	-0.000100772 	-0.000525754 	0.362172
0.0104348 	-0.000100767 	-0.00052366 	0.361513
0.0104849 	-0.000100762 	-0.000521566 	0.360855
0.0105351 	-0.000100757 	-0.000519472 	0.360196
0.0105853 	-0.000100752 	-0.000517378 	0.359538
0.0106355 	-0.000100747 	-0.000515284 	0.35888
0.0106856 	-0.000100742 	-0.00051319 	0.358221
0.0107358 	-0.000100737 	-0.000511095 	0.357563
0.010786 	-0.000100732 	-0.000509001 	0.356904
0.0108361 	-0.000100727 	-0.000506907 	0.356246
0.0108863 	-0.000100722 	-0.000504813 	0.355587
0.0109365 	-0.000100717 	-0.000502719 	0.354929
0.0109866 	-0.000100712 	-0.000500625 	0.354271
0.0110368 	-0.000100764 	-0.000498389 	0.353579
0.011087 	-0.0001014 	-0.000494708 	0.352552
0.0111371 	-0.000102036 	-0.000491027 	0.351526
0.0111873 	-0.000102673 	-0.000487347 	0.350499
0.0112375 	-0.000103309 	-0.000483666 	0.349472
0.0112876 	-0.000103945 	-0.000479985 	0.348445
0.0113378 	-0.000104582 	-0.000476304 	0.347418
0.011388 	-0.000105218 	-0.000472623 	0.346392
0.0114381 	-0.000105854 	-0.000468943 	0.345365
0.0114883 	-0.000106491 	-0.000465262 	0.344338
0.0115385 	-0.000107127 	-0.000461581 	0.343311
0.0115886 	-0.000107763 	-0.0004579 	0.342284
0.0116388 	-0.0001084 	-0.000454219 	0.341258
0.011689 	-0.000109036 	-0.000450539 	0.340231
0.0117391 	-0.000109673 	-0.000446858 	0.339204
0.0117893 	-0.000110309 	-0.000443177 	0.338177
0.0118395 	-0.000110945 	-0.000439496 	0.33715
0.0118896 	-0.000111582 	-0.000435815 	0.336124
0.0119398 	-0.000113127 	-0.000429661 	0.334558
0.01199 	-0.000114693 	-0.00042345 	0.33298
0.0120401 	-0.000116259 	-0.000417238 	0.331402
0.0120903 	-0.000117825 	-0.000411027 	0.329824
0.0121405 	-0.000119391 	-0.000404816 	0.328245
0.0121906 	-0.000120957 	-0.000398604 	0.326667
0.0122408 	-0.000122523 	-0.000392393 	0.325089
0.012291 	-0.00012409 	-0.000386182 	0.323511
0.0123411 	-0.000125656 	-0.00037997 	0.321933
0.0123913 	-0.000127222 	-0.000373759 	0.320355
0.0124415 	-0.000128788 	-0.000367548 	0.318776
0.0124916 	-0.000130354 	-0.000361336 	0.317198
0.0125418 	-0.00013192 	-0.000355125 	0.31562
0.012592 	-0.000133486 	-0.000348913 	0.314042
0.0126421 	-0.000135313 	-0.000341744 	0.312179
0.0126923 	-0.000137724 	-0.000332427 	0.309676
0.0127425 	-0.000140135 	-0.00032311 	0.307173
0.0127926 	-0.000142545 	-0.000313793 	0.30467
0.0128428 	-0.000144956 	-0.000304476 	0.302167
0.012893 	-0.000147367 	-0.000295159 	0.299664
0.0129431 	-0.000149778 	-0.000285842 	0.297161
0.0129933 	-0.000152189 	-0.000276525 	0.294658
0.0130435 	-0.000154599 	-0.000267207 	0.292155
0.0130936 	-0.00015701 	-0.00025789 	0.289652
0.0131438 	-0.000159421 	-0.000248573 	0.287149
0.013194 	-0.000161832 	-0.000239256 	0.284646
0.0132441 	-0.000164243 	-0.000229939 	0.282143
0.0132943 	-0.000166324 	-0.000219045 	0.278423
0.0133445 	-0.000168286 	-0.000207577 	0.27426
0.0133946 	-0.000170248 	-0.00019611 	0.270098
0.0134448 	-0.000172209 	-0.000184642 	0.265935
0.013495 	-0.000174171 	-0.000173175 	0.261772
0.0135452 	-0.000176133 	-0.000161707 	0.25761
0.0135953 	-0.000178095 	-0.00015024 	0.253447
0.0136455 	-0.000180056 	-0.000138772 	0.249285
0.0136957 	-0.000182018 	-0.000127305 	0.245122
0.0137458 	-0.00018398 	-0.000115837 	0.240959
0.013796 	-0.000185942 	-0.00010437 	0.236797
0.0138462 	-0.000183797 	-9.45994e-05 	0.22935
0.0138963 	-0.000181452 	-8.49115e-05 	0.221743
0.0139465 	-0.000179107 	-7.52237e-05 	0.214137
0.0139967 	-0.000176762 	-6.55359e-05 	0.20653
0.0140468 	-0.000174417 	-5.58481e-05 	0.198923
0.014097 	-0.000172071 	-4.61603e-05 	0.191317
0.0141472 	-0.000169726 	-3.64725e-05 	0.18371
0.0141973 	-0.000167381 	-2.67846e-05 	0.176103
0.0142475 	-0.000165036 	-1.70968e-05 	0.168496
0.0142977 	-0.000157185 	-1.21162e-05 	0.157976
0.0143478 	-0.000147114 	-9.03395e-06 	0.146281
0.014398 	-0.000137043 	-5.95174e-06 	0.134586
0.0144482 	-0.000126971 	-2.86953e-06 	0.12289
0.0144983 	-0.0001169 	2.12679e-07 	0.111195
0.0145485 	-0.000106828 	3.29489e-06 	0.0994995
0.0145987 	-9.67568e-05 	6.3771e-06 	0.0878042
0.0146488 	-8.66853e-05 	9.45931e-06 	0.0761089
0.014699 	-7.47289e-05 	8.92722e-06 	0.0650842
0.0147492 	-6.22741e-05 	7.43935e-06 	0.0542368
0.0147993 	-4.98193e-05 	5.95148e-06 	0.0433894
0.0148495 	-3.73645e-05 	4.46361e-06 	0.0325421
0.0148997 	-2.49096e-05 	2.97574e-06 	0.0216947
0.0149498 	-1.24548e-05 	1.48787e-06 	0.0108474
0.015 	0 	0 	0
