/*--------------------------------*- C++ -*----------------------------------*\
| =========                 |                                                 |
| \\      /  F ield         | OpenFOAM: The Open Source CFD Toolbox           |
|  \\    /   O peration     | Version:  v1906                                 |
|   \\  /    A nd           | Web:      www.OpenFOAM.com                      |
|    \\/     M anipulation  |                                                 |
\*---------------------------------------------------------------------------*/
FoamFile
{
    version     2.0;
    format      ascii;
    class       volScalarField;
    location    "98.8";
    object      alphat;
}
// * * * * * * * * * * * * * * * * * * * * * * * * * * * * * * * * * * * * * //

dimensions      [1 -1 -1 0 0 0 0];


internalField   nonuniform List<scalar> 
2528
(
1.41736e-08
1.63599e-08
1.67669e-08
2.34248e-08
2.27778e-08
2.33982e-08
3.32072e-08
3.44623e-08
2.27572e-07
1.71459e-07
3.90501e-07
2.6133e-07
1.57978e-06
1.15202e-06
2.72701e-06
1.71085e-06
6.59079e-06
4.83099e-06
1.12468e-05
6.90005e-06
1.96059e-05
1.46093e-05
3.28055e-05
1.993e-05
4.60889e-05
3.51199e-05
7.50903e-05
4.5623e-05
9.12081e-05
7.12036e-05
0.000143858
8.81735e-05
0.000158455
0.000126622
0.000241039
0.000150041
0.000248932
0.000203127
0.000364674
0.000231564
0.000361501
0.00030033
0.000510319
0.000331282
0.000493521
0.000416183
0.000673395
0.000446585
0.000642221
0.000547963
0.000850517
0.000574655
0.000805691
0.000693574
0.0010286
0.000702774
0.000981847
0.000851275
0.00120739
0.000838134
0.00116896
0.00101325
0.00139071
0.00098206
0.0013655
0.00118415
0.0015778
0.00113376
0.00157009
0.00136478
0.00177037
0.00129268
0.00178194
0.00155535
0.00197388
0.00145808
0.00199997
0.00175628
0.00219415
0.00162905
0.00222305
0.00196709
0.00242453
0.00180454
0.00245003
0.00218339
0.0026294
0.00198361
0.00267971
0.00239391
0.00275423
0.00216579
0.00291141
0.00260638
0.00278333
0.00235117
0.00314534
0.00281996
0.00278755
0.00253925
0.00338111
0.00303388
0.00289074
0.00272698
0.00361832
0.00324732
0.00319792
0.00290824
0.00385655
0.00345953
0.00370821
0.00307642
0.0040956
0.00366547
0.00404603
0.00323331
0.00433547
0.00386415
0.00421698
0.00338688
0.00457598
0.00405924
0.00437702
0.00353973
0.00481688
0.00425346
0.0045276
0.00368992
0.00505772
0.00444693
0.00463517
0.00383656
0.00529793
0.00463977
0.00474445
0.00397982
0.00553683
0.00483331
0.0048468
0.00412054
0.00577369
0.00503062
0.00493561
0.00425982
0.00600795
0.00523634
0.00501144
0.00439841
0.00623905
0.00545623
0.00507432
0.00453527
0.00646676
0.0056641
0.00512407
0.00466633
0.00669106
0.00584331
0.00516061
0.00478611
0.00691186
0.00601382
0.00518425
0.00489289
0.00712867
0.00617482
0.00519574
0.00499484
0.00733958
0.00618272
0.00519664
0.00511172
0.00754068
0.00505618
0.00518862
0.00526976
0.00677666
0.00366594
0.00516924
0.00548442
0.00454451
0.00321027
0.00512846
0.0056859
0.00308438
0.00439743
0.00505229
0.00580912
0.00339957
0.00617374
0.00493675
0.00593456
0.00597765
0.00727549
0.00480022
0.00606415
0.00877276
0.00748556
0.00468522
0.0061987
0.00903344
0.00764482
0.00464032
0.0063385
0.00930816
0.00779808
0.00468044
0.00648439
0.00959357
0.00794501
0.00477254
0.00664028
0.0098686
0.00808585
0.00472168
0.00680673
0.0101386
0.00822098
0.00459871
0.00698432
0.010406
0.00835053
0.00447616
0.00717383
0.0106711
0.00847448
0.00435144
0.00737565
0.0109343
0.00859389
0.00422598
0.00758914
0.0111877
0.00870856
0.00410395
0.00781315
0.0114314
0.00881825
0.00343583
0.00804495
0.0116665
0.00892358
0.00314891
0.0082804
0.011895
0.0090248
0.00339441
0.00851168
0.0121197
0.00912224
0.00367386
0.00874142
0.0123435
0.0092163
0.00361135
0.00895722
0.0125696
0.0093075
0.00359086
0.00915514
0.0128011
0.00939664
0.00361733
0.0093207
0.0130408
0.00948487
0.0036863
0.00946668
0.0115902
0.00956464
0.00379555
0.00960832
0.00600927
0.00963648
0.00394197
0.0097385
0.00591044
0.00970063
0.00412071
0.00985174
0.013242
0.00975809
0.00432787
0.00994095
0.0111688
0.00980956
0.00454648
0.0100001
0.0147559
0.00985542
0.00476966
0.00388299
0.0149964
0.00989644
0.00498796
0.00266224
0.0152009
0.00993339
0.00520354
0.00440444
0.0153647
0.00996626
0.0024926
0.0105155
0.0154818
0.00999404
0.00189734
0.0114391
0.015552
0.0100159
0.00342851
0.0116403
0.0155691
0.0100297
0.00629924
0.0118334
5.16248e-10
3.75207e-09
6.40117e-09
3.22265e-09
2.64166e-09
1.06111e-08
1.40833e-08
7.23292e-09
4.60261e-08
1.52211e-07
1.77887e-07
9.21803e-08
3.43527e-07
1.10883e-06
1.2679e-06
6.64588e-07
1.51541e-06
4.7811e-06
5.35601e-06
2.86149e-06
4.8308e-06
1.47546e-05
1.61287e-05
8.85808e-06
1.23262e-05
3.60612e-05
3.8352e-05
2.18189e-05
2.66549e-05
7.4072e-05
7.6579e-05
4.53751e-05
5.06173e-05
0.000132979
0.000133798
8.28009e-05
8.65111e-05
0.000214679
0.000210749
0.000136252
0.000135576
0.000318602
0.000306122
0.00020638
0.000197764
0.000442352
0.000417301
0.000292423
0.000271882
0.000582599
0.000541185
0.000392618
0.000355935
0.000735907
0.000673335
0.000504686
0.000447729
0.000891929
0.000801094
0.0006262
0.000532449
0.0010462
0.000935782
0.000746996
0.000618092
0.00120559
0.00107665
0.000867686
0.00070709
0.00136973
0.00122305
0.00099279
0.00079872
0.00153757
0.00137451
0.0011215
0.000892575
0.00170808
0.00153069
0.00125301
0.000988242
0.00188034
0.00169148
0.00138648
0.0010855
0.00205366
0.00185689
0.0015212
0.00118469
0.00222761
0.00202656
0.00165661
0.00128678
0.00240197
0.00219931
0.00179242
0.00139295
0.00257616
0.00237313
0.0019285
0.00150276
0.00275021
0.00254625
0.0020647
0.00161132
0.00292448
0.00271806
0.0022002
0.00170884
0.00309837
0.00289388
0.00233269
0.00178821
0.0032706
0.00307863
0.00245617
0.00185196
0.00343978
0.00327272
0.00257241
0.00194152
0.00360475
0.00347148
0.00268393
0.0021051
0.00376437
0.00366959
0.00279646
0.00236092
0.00391718
0.00386656
0.00291745
0.00265204
0.00406115
0.00406906
0.0030508
0.00277244
0.00419364
0.00428826
0.00319317
0.00287862
0.00431075
0.00453178
0.00333769
0.00297845
0.00440705
0.00479245
0.00348024
0.00282779
0.00447711
0.00504405
0.00361975
0.00244327
0.00452033
0.00525533
0.00375258
0.00206865
0.00455054
0.00542295
0.00386657
0.00197896
0.00460062
0.00557413
0.00394035
0.00232393
0.00470841
0.00571939
0.0039561
0.00318793
0.00488754
0.00581044
0.00392841
0.00359111
0.00512863
0.00571331
0.00392067
0.00368951
0.00542136
0.00528485
0.00402025
0.00378555
0.00572685
0.00470712
0.00426507
0.00387893
0.00596571
0.00441203
0.00460611
0.00396811
0.00609588
0.00467198
0.00493834
0.00405223
0.00614182
0.00557617
0.00513729
0.00413121
0.00615582
0.00683026
0.00518434
0.004205
0.00619509
0.00718663
0.00518027
0.00339641
0.00630798
0.00723631
0.00516225
0.00246145
0.00651234
0.00650394
0.00511147
0.00208864
0.00677375
0.00563142
0.005043
0.00250841
0.00699697
0.00520598
0.00497566
0.00417475
0.00710136
0.00576607
0.00490434
0.00445984
0.00712568
0.00735903
0.00481885
0.00445846
0.00714883
0.00825276
0.00471485
0.00443915
0.007182
0.00839917
0.00458968
0.00440047
0.00720764
0.00854369
0.00444137
0.00408196
0.00722407
0.008685
0.00427175
0.00358194
0.00723663
0.00881918
0.0040854
0.00322705
0.00725233
0.00894102
0.00388499
0.00321482
0.00727544
0.00904687
0.00366451
0.00350847
0.00729936
0.00913408
0.00341005
0.00372361
0.00730786
0.00920005
0.00311806
0.00354659
0.00728847
0.00924632
0.00280719
0.00335967
0.00719665
0.00927182
0.00250415
0.00317415
0.00707321
0.00927307
0.00223796
0.00300554
0.00693815
0.00924685
0.00199802
0.00286585
0.00679516
0.00918965
0.00177734
0.00275874
0.00659036
0.00906738
0.00164592
0.00268405
0.00618615
0.00889173
0.00162572
0.00263997
0.00575113
0.00870925
0.0017306
0.00262465
0.00569703
0.00851867
0.00194697
0.00263589
0.00613064
0.00836663
0.00224197
0.00267158
0.00604064
0.00839268
0.00258353
0.00273027
0.00596728
0.00825127
0.002949
0.00281049
0.00591733
0.00813081
0.00332125
7.36288e-09
4.70873e-09
6.48955e-09
7.58587e-09
1.91424e-08
9.99563e-09
1.44927e-08
1.51606e-08
2.59037e-07
1.08919e-07
1.67623e-07
1.73885e-07
1.84798e-06
7.51086e-07
1.14805e-06
1.22019e-06
7.78092e-06
3.14087e-06
4.7088e-06
5.11073e-06
2.32698e-05
9.52181e-06
1.38866e-05
1.52887e-05
5.47141e-05
2.30759e-05
3.25558e-05
3.61671e-05
0.000107649
4.72598e-05
6.43852e-05
7.19455e-05
0.000184954
8.48287e-05
0.00011176
0.000125398
0.000286349
0.000137074
0.000175239
0.000197235
0.000409161
0.000203632
0.000253693
0.000286214
0.000535359
0.000282851
0.000341339
0.000387181
0.000668634
0.000364545
0.000428372
0.00048564
0.000810937
0.000447634
0.000521547
0.000590477
0.000961399
0.000535435
0.000620206
0.000700533
0.00112015
0.000627341
0.000724134
0.000815584
0.00128743
0.000723256
0.000832998
0.000935339
0.00146368
0.000823094
0.000946216
0.0010595
0.00164939
0.000926767
0.00106323
0.00118767
0.00184421
0.00103428
0.00118514
0.00131941
0.00204447
0.00114559
0.00131647
0.00145359
0.00224232
0.00125961
0.00146368
0.00158748
0.00243218
0.00137276
0.00162607
0.00171716
0.00262716
0.00148009
0.00178158
0.00184236
0.00286867
0.00158199
0.00188784
0.00197656
0.00319267
0.0016953
0.00192291
0.00215016
0.00357354
0.00185346
0.00193571
0.00238853
0.00394479
0.0020698
0.00202549
0.00269469
0.00427441
0.00230672
0.00225469
0.00291558
0.00455836
0.00252167
0.00259278
0.00305796
0.00482198
0.00270711
0.00292551
0.0030306
0.0050818
0.00286189
0.00314553
0.00266813
0.00533504
0.00301704
0.00330541
0.0024996
0.00557832
0.00317102
0.00346579
0.00273215
0.00580792
0.00332173
0.0036259
0.00333155
0.00602517
0.00346618
0.00378444
0.00400334
0.00624429
0.00360071
0.00394034
0.00415633
0.00470732
0.0037216
0.00409264
0.00430691
0.00372549
0.00383095
0.00423984
0.00445269
0.0041829
0.00382195
0.00438017
0.00458978
0.00581258
0.00206427
0.00451136
0.00471363
0.00768813
0.00185048
0.00463034
0.00482306
0.00794544
0.00256565
0.00473321
0.00492159
0.00819618
0.00421331
0.00481649
0.00251116
0.00844129
0.00483515
0.00488115
0.00199
0.00868061
0.00502712
0.00493102
0.00277716
0.00891434
0.00522444
0.00233608
0.00508218
0.0091427
0.00542442
0.00192258
0.00561639
0.00936548
0.00562518
0.00281516
0.00578487
0.00958168
0.00582675
0.0052104
0.00597545
0.00978935
0.0060294
0.00552797
0.00619211
0.00998531
0.00623597
0.00567718
0.00643307
0.0101649
0.00644631
0.005831
0.00668357
0.0103218
0.00665974
0.00597922
0.00693528
0.0104489
0.00687565
0.00612761
0.00718872
0.0105396
0.00709344
0.00391757
0.00744488
0.010588
0.00731257
0.00260165
0.00770782
0.010591
0.00753251
0.00371876
0.00797671
0.0105437
0.00775289
0.0068285
0.00825222
0.0104178
0.00797327
0.00699437
0.00853382
0.00386344
0.0081947
0.00716492
0.00882011
0.00290386
0.00841603
0.00733726
0.00910658
0.00485749
0.00863477
0.00750951
0.00938929
0.0106083
0.00884485
0.00768039
0.0096635
0.0109382
0.00904222
0.00784856
0.00992473
0.0111575
0.00921902
0.00801245
0.0101679
0.0113983
0.00936622
0.00817086
0.0103909
0.0116685
0.00947238
0.00832291
0.0105901
0.0119738
0.00952748
0.00846829
0.0107626
0.0122875
0.00954764
0.00860761
0.0109054
0.0125838
0.00955507
0.00874134
0.011016
0.0128606
0.00952557
0.00887054
0.0110925
0.0131163
0.0094108
0.00899745
0.0111346
0.013347
0.0031166
0.00911999
0.0111551
0.0135468
0.00238769
0.00923726
0.0111713
0.0137079
0.00410994
0.00935045
0.0111801
0.0138251
0.00987611
0.00945741
0.0111829
0.0138829
0.0100227
0.00955556
0.01118
0.0138758
0.0101664
0.00964189
0.00545196
6.60051e-09
1.07131e-08
1.23415e-08
9.27267e-09
9.25594e-09
1.46129e-08
2.16133e-08
1.4017e-08
6.10767e-08
1.25703e-07
2.25752e-07
1.13822e-07
4.01531e-07
8.9553e-07
1.57308e-06
7.71121e-07
1.68155e-06
3.89498e-06
6.57656e-06
3.23419e-06
5.11288e-06
1.2057e-05
1.96205e-05
9.78335e-06
1.24116e-05
2.93492e-05
4.62627e-05
2.35386e-05
2.55075e-05
5.98254e-05
9.17583e-05
4.78118e-05
4.61372e-05
0.000106563
0.000159616
8.52981e-05
7.55027e-05
0.00017104
0.000250919
0.000137482
0.000114111
0.00025311
0.00036461
0.000204471
0.00016181
0.000351446
0.000498339
0.000285236
0.000217957
0.000464117
0.000646718
0.000378041
0.000281632
0.000583287
0.000798843
0.000480867
0.000350653
0.000706727
0.000964054
0.000581458
0.000420554
0.00083992
0.00114101
0.00068753
0.000496276
0.000983444
0.00132981
0.000799888
0.00057788
0.00113727
0.0015312
0.000918568
0.000665222
0.00130131
0.00174584
0.00104332
0.000757933
0.00147554
0.00197285
0.0011739
0.000855415
0.00165999
0.00220892
0.00131012
0.000956853
0.00185472
0.00245164
0.00145188
0.00106134
0.00205977
0.00270059
0.00159906
0.00116774
0.00227503
0.0029557
0.00175161
0.00127035
0.00249997
0.00321663
0.00190959
0.00137381
0.0027336
0.00347797
0.00207351
0.00147762
0.00297126
0.00373506
0.00224522
0.00158127
0.00320313
0.00399625
0.00242593
0.00168421
0.00342847
0.00426119
0.0026087
0.00178597
0.0036564
0.00452953
0.00276707
0.00188608
0.00388642
0.00479992
0.00292571
0.00198415
0.00411805
0.00507057
0.00308462
0.00207982
0.00435081
0.00534065
0.00324382
0.0021728
0.00458425
0.00560923
0.00340316
0.00226287
0.00481791
0.00587547
0.00356234
0.00234993
0.00505137
0.0061386
0.00372086
0.002434
0.00528421
0.00639784
0.00387824
0.00251532
0.00551601
0.00665246
0.00403411
0.00259431
0.00574637
0.00690178
0.00418826
0.00267116
0.00597488
0.00714515
0.00434061
0.00274508
0.0062011
0.00738204
0.00449125
0.00281442
0.00642425
0.007612
0.00464055
0.00287718
0.00664266
0.0078348
0.00478918
0.0029312
0.00685546
0.00805039
0.00493806
0.00298139
0.00706854
0.00825891
0.00508788
0.00302668
0.00728218
0.00846078
0.00523829
0.00306644
0.00749644
0.00865666
0.00538791
0.0031009
0.00770892
0.00884725
0.00553491
0.00312855
0.00791623
0.00903231
0.00567758
0.00314548
0.00811526
0.00921071
0.00581434
0.00314946
0.00830372
0.00938107
0.00594366
0.00313951
0.00847997
0.00954242
0.00606397
0.0031152
0.00864337
0.00969418
0.00617362
0.00307102
0.0087932
0.00983621
0.00627083
0.00300745
0.00892869
0.00996878
0.00635376
0.00292555
0.00904898
0.0100925
0.00642083
0.00282734
0.009153
0.0102082
0.00647102
0.00271594
0.00923922
0.0103159
0.00650337
0.00259873
0.00930617
0.010415
0.00651459
0.00248435
0.00935237
0.0105048
0.00650286
0.00238671
0.00937375
0.0105822
0.00646763
0.00232528
0.00936851
0.010647
0.00641101
0.00230835
0.0093348
0.0106975
0.00633398
0.00232867
0.00927064
0.0107307
0.00623788
0.00237534
0.00917273
0.0107431
0.00612455
0.00243677
0.00904014
0.0107311
0.00599663
0.00250189
0.00887357
0.0106907
0.00585698
0.00256077
0.00867278
0.010619
0.0057086
0.00260859
0.00843877
0.0105142
0.00555391
0.00263181
0.00817414
0.0103763
0.00539481
0.00262289
0.00788447
0.0102072
0.00523261
0.00257896
0.00757945
0.0100186
0.00506788
0.00250022
0.00727214
0.00981244
0.00490116
0.0023878
0.00698023
0.00959694
0.00473382
0.0022426
0.00672837
0.00938723
0.0045594
0.0020659
0.00653007
0.00919768
0.00436868
0.00185932
0.00638046
0.00904632
0.00416522
0.00162507
0.00627015
0.00893956
0.00395683
0.00136649
0.0061919
0.00886561
0.00375808
0.0155385
0.0100437
0.00645521
0.0120036
0.0154693
0.0100586
0.00658861
0.0121315
0.0153563
0.0100595
0.00670125
0.0122164
0.0152094
0.0100442
0.00679687
0.0122668
0.0150371
0.0100088
0.00687832
0.012292
0.0148472
0.00995365
0.006952
0.0122925
0.014647
0.00987727
0.00701616
0.0122666
0.014454
0.00978115
0.00707758
0.0122156
0.0142784
0.00966629
0.00713644
0.0121403
0.0141154
0.00953576
0.00719264
0.0120417
0.01396
0.00939149
0.00724571
0.0119211
0.0138073
0.00923523
0.0072949
0.0117797
0.0136522
0.00906805
0.00733933
0.0116189
0.0134903
0.00889018
0.00737813
0.0114397
0.0133183
0.00870134
0.00741065
0.011243
0.0131335
0.00850118
0.00743604
0.0110296
0.012933
0.00828964
0.007453
0.0108001
0.0127141
0.00807642
0.00746026
0.0105552
0.0124758
0.00787689
0.00745658
0.0102953
0.0122193
0.00768846
0.00744066
0.0100219
0.0119462
0.00751053
0.00741173
0.00973659
0.0116587
0.00734256
0.00737668
0.00944099
0.0113592
0.007184
0.00733399
0.00913699
0.0110497
0.00703446
0.00728265
0.00882636
0.0107313
0.00689353
0.00722218
0.00851072
0.0104056
0.0067617
0.00715266
0.00823066
0.010074
0.00664356
0.0070745
0.00800113
0.00973813
0.00653913
0.00698845
0.00776964
0.00940093
0.00642808
0.00689507
0.00539498
0.00906739
0.00256714
0.00674583
0.00257289
0.00860843
0.00199913
0.00656501
0.00246664
0.0064336
0.00277342
0.00640631
0.00369198
0.00539817
0.00486842
0.00626813
0.00638159
0.00602505
0.00626076
0.00614838
0.00670638
0.00705791
0.00614911
0.00603549
0.00650805
0.00703692
0.00602246
0.00591861
0.00628873
0.00672909
0.00587729
0.00578728
0.00604763
0.00642058
0.00571345
0.00565679
0.00578979
0.00611007
0.00553313
0.0055847
0.00552094
0.00579861
0.00534061
0.00548518
0.00524608
0.00548892
0.00514048
0.00531809
0.00496925
0.00518331
0.00493519
0.00514261
0.00469384
0.00488244
0.00472645
0.00435177
0.0044222
0.00458493
0.00451513
0.00342023
0.00415622
0.00412163
0.00430147
0.00309587
0.00389727
0.00363629
0.00408601
0.00327655
0.00364649
0.0033102
0.00387001
0.00365747
0.00340309
0.0031156
0.00365437
0.00390952
0.00316562
0.00296659
0.00343943
0.00389233
0.00286644
0.00280081
0.00322661
0.00365772
0.00240313
0.00260564
0.00300639
0.00329689
0.00212065
0.00239307
0.00263638
0.00297484
0.00197534
0.00216182
0.00235891
0.00273865
0.00187172
0.00193819
0.00217699
0.00256355
0.00175233
0.00173377
0.00203342
0.00240982
0.00160445
0.00154792
0.00188747
0.00225262
0.00144567
0.00137654
0.00172786
0.00208283
0.00129188
0.00121613
0.00156167
0.00190105
0.00114787
0.00106502
0.0013981
0.00171972
0.00101255
0.000922697
0.00124093
0.00154308
0.000884191
0.000789368
0.0010903
0.00137191
0.000762247
0.000665518
0.000945701
0.00120595
0.00064717
0.000543583
0.000807257
0.00104531
0.000535371
0.000421336
0.000675956
0.000890703
0.00041571
0.000313311
0.00054346
0.000743419
0.000308766
0.00022185
0.000411088
0.000604789
0.000217601
0.00014842
0.000293678
0.00046179
0.000144384
9.31154e-05
0.000195579
0.000324723
8.95649e-05
5.44115e-05
0.000119816
0.000210083
5.16377e-05
2.94208e-05
6.66725e-05
0.000122707
2.75251e-05
1.46032e-05
3.3335e-05
6.35333e-05
1.34764e-05
6.57286e-06
1.48168e-05
2.87163e-05
5.99274e-06
2.62822e-06
5.7653e-06
1.11597e-05
2.373e-06
9.01897e-07
1.90846e-06
3.63897e-06
8.08717e-07
2.50388e-07
5.09161e-07
9.47827e-07
2.237e-07
5.06469e-08
9.89152e-08
1.78663e-07
4.52497e-08
6.17952e-09
1.15977e-08
2.00672e-08
5.55643e-09
4.57425e-10
8.27612e-10
1.143e-09
4.36467e-10
2.242e-10
4.06571e-10
3.87938e-10
2.29759e-10
0.00291106
0.00589323
0.00803592
0.00368323
0.00302915
0.00590043
0.00796985
0.00402233
0.00316367
0.0059412
0.00792894
0.00433854
0.00331314
0.00601149
0.00790903
0.00462896
0.00347644
0.00610574
0.00790549
0.00489619
0.00365183
0.00621771
0.00791732
0.00514124
0.00383668
0.00634138
0.00793783
0.00536406
0.00402988
0.00647003
0.00796862
0.0055644
0.00422869
0.00659809
0.0080121
0.00574274
0.0044301
0.00672006
0.00806451
0.00589938
0.00463089
0.00683437
0.00812232
0.00603494
0.00482771
0.00694343
0.00818238
0.00615036
0.00501713
0.00704744
0.00824085
0.00624685
0.00519553
0.00714399
0.00830172
0.00632589
0.00530945
0.00723146
0.00826364
0.00638893
0.00512663
0.00730838
0.00845118
0.00643076
0.00511997
0.0073732
0.00859863
0.00630039
0.00530319
0.00742585
0.00870499
0.00620072
0.00557953
0.00746363
0.00879831
0.00614628
0.00585198
0.00743672
0.00887301
0.00617109
0.00595421
0.00731865
0.00892578
0.00629264
0.00597574
0.00723304
0.00894887
0.00644159
0.00597411
0.00717556
0.00894526
0.00648443
0.00595001
0.00712975
0.00891396
0.00645763
0.00590542
0.00708089
0.0088571
0.00641796
0.00584237
0.00701881
0.00877692
0.00636658
0.00576298
0.00694098
0.00867558
0.00630554
0.00566932
0.00685553
0.00855517
0.00623774
0.00556341
0.00677763
0.0084176
0.00616186
0.00544774
0.00671389
0.00826468
0.00607453
0.0053249
0.00663528
0.00809804
0.00597854
0.00519502
0.00654807
0.00791917
0.00587425
0.00505792
0.00646938
0.00772958
0.00576074
0.00491446
0.00639211
0.00753045
0.00563695
0.00476529
0.00631125
0.0073225
0.00550258
0.00461126
0.00622844
0.00710653
0.00535777
0.00445347
0.00613947
0.00688365
0.00520297
0.00429306
0.00603514
0.00665487
0.0050388
0.00413103
0.00591192
0.00642156
0.00486599
0.00396824
0.00577037
0.00618425
0.00468536
0.00380546
0.00561123
0.0059434
0.00449785
0.00364307
0.00543547
0.00569947
0.00430445
0.00347725
0.00524473
0.00545295
0.00410623
0.00330437
0.00504162
0.00520427
0.00390427
0.00312638
0.00483067
0.00495368
0.00369964
0.00294505
0.00461167
0.00470108
0.00349337
0.00276189
0.00437677
0.00441393
0.00328651
0.00257829
0.00412362
0.00410333
0.00308007
0.0023955
0.00385966
0.00381587
0.00287509
0.0022146
0.00359381
0.00354884
0.00267254
0.00203659
0.00333117
0.0032946
0.00247332
0.00186233
0.00307302
0.00304814
0.00227765
0.00169262
0.00281891
0.00280722
0.00208401
0.0015281
0.0025675
0.00256906
0.00189249
0.00136935
0.0023217
0.00233583
0.00170043
0.00121676
0.00208543
0.00211083
0.00149486
0.00106626
0.00186043
0.0018951
0.00130534
0.000919736
0.00164734
0.00168896
0.0011335
0.000786143
0.00144635
0.00149257
0.000977525
0.000665224
0.00125761
0.00130621
0.000835317
0.000556228
0.00108127
0.00113023
0.000705634
0.00045722
0.00091753
0.000965058
0.000587856
0.000361908
0.000766587
0.000811175
0.000475428
0.000277192
0.00062829
0.000668991
0.000368242
0.000204053
0.000492882
0.000532383
0.000274263
0.000143287
0.000365902
0.000398986
0.000194923
9.51959e-05
0.000257355
0.000283624
0.000131083
5.93426e-05
0.000169551
0.000189197
8.2684e-05
3.44296e-05
0.000103377
0.000117151
4.85074e-05
1.84437e-05
5.76546e-05
6.66893e-05
2.62517e-05
9.04042e-06
2.90948e-05
3.4634e-05
1.29903e-05
4.00493e-06
1.3131e-05
1.62835e-05
5.80688e-06
1.57231e-06
5.21045e-06
6.8377e-06
2.29989e-06
5.29401e-07
1.76407e-06
2.48981e-06
7.81113e-07
1.446e-07
4.8252e-07
7.39723e-07
2.15104e-07
2.91592e-08
9.65727e-08
1.59762e-07
4.36147e-08
3.89978e-09
1.20419e-08
2.07783e-08
5.72245e-09
7.00889e-10
1.28764e-09
2.0003e-09
8.64805e-10
5.85646e-10
8.31329e-10
1.03744e-09
6.76746e-10
0.0138179
0.010293
0.00971769
0.00317034
0.0137427
0.0104119
0.00978191
0.00372631
0.0136533
0.0105234
0.00982273
0.0112967
0.0135445
0.0106069
0.00983654
0.0114486
0.0134174
0.0106431
0.0098204
0.0115184
0.0132735
0.0106315
0.00976459
0.0115417
0.0131147
0.0105724
0.00966486
0.011504
0.0129416
0.0104769
0.00951628
0.0114007
0.012758
0.0103477
0.00934607
0.0112399
0.0125686
0.0101884
0.0091871
0.0110279
0.0123798
0.010003
0.009037
0.010775
0.0121989
0.00979576
0.00889485
0.0104915
0.0120358
0.00957139
0.00396378
0.0101881
0.0103986
0.00933519
0.002185
0.00988469
0.00611281
0.00909271
0.00269345
0.00961251
0.003949
0.00885969
0.00858892
0.00938077
0.00410354
0.00865601
0.00874327
0.00918418
0.00768079
0.00848023
0.00882252
0.00604016
0.0120578
0.00832284
0.00885992
0.00358972
0.0122209
0.00817908
0.00885522
0.00298116
0.0122993
0.00804631
0.00881545
0.00434248
0.0123119
0.00792076
0.00874993
0.00875121
0.0122613
0.00780244
0.00865888
0.00881983
0.0121513
0.00769117
0.00855
0.00884528
0.0119919
0.00758633
0.0084282
0.00883764
0.011792
0.00748755
0.00829722
0.00879245
0.0112493
0.00739537
0.00815971
0.00870776
0.00829177
0.00731538
0.00801741
0.00858895
0.00608172
0.0046228
0.00787135
0.00690691
0.00575667
0.00304833
0.00772214
0.00560022
0.00758914
0.00291958
0.00757015
0.00594968
0.0100171
0.00461717
0.00741552
0.0078351
0.00978854
0.00713659
0.00725804
0.00764828
0.00955391
0.00713752
0.0070974
0.00746685
0.00930042
0.00710327
0.00693342
0.00727808
0.00902701
0.00703635
0.0067658
0.00707712
0.0085677
0.00693919
0.00659429
0.00686526
0.00734175
0.00681405
0.00641895
0.00664338
0.0062
0.0066642
0.00623994
0.00641256
0.00583351
0.00649402
0.00605744
0.00604251
0.00631331
0.00630616
0.00587158
0.00552039
0.00704155
0.00610289
0.00568248
0.00525931
0.00672821
0.0058887
0.00549024
0.00529166
0.00642425
0.00566677
0.00529494
0.00515576
0.00611912
0.00543809
0.00509663
0.00490499
0.0057956
0.00520307
0.00489534
0.00465375
0.00546933
0.00496244
0.00469114
0.0044003
0.00515025
0.00471706
0.00448402
0.00414544
0.00482908
0.00446779
0.00427408
0.00388978
0.00450698
0.00421531
0.00406153
0.00363383
0.00418486
0.00394923
0.00383079
0.00337317
0.00386406
0.00368197
0.00359539
0.003109
0.0035459
0.0034143
0.00335699
0.0028432
0.00323163
0.00314686
0.00311623
0.00257868
0.00292187
0.00288018
0.00287423
0.00231809
0.00261957
0.00261432
0.00263134
0.00206399
0.0023267
0.00235238
0.0023863
0.00181892
0.00204544
0.00209664
0.00214142
0.00158547
0.00177805
0.00184937
0.0019034
0.00136606
0.00152651
0.00161267
0.00168139
0.00116254
0.00129213
0.00138851
0.00147573
0.000975748
0.00106969
0.0011786
0.00128233
0.000798098
0.000850973
0.000984355
0.00109945
0.000628899
0.000654732
0.000806748
0.000926911
0.0004791
0.000483902
0.00064331
0.000764953
0.000350546
0.000340827
0.000480359
0.000614232
0.000244513
0.000226727
0.000339648
0.000476907
0.000161291
0.000141069
0.000224299
0.0003371
9.98041e-05
8.1257e-05
0.000136166
0.000219758
5.74843e-05
4.2858e-05
7.47047e-05
0.000129835
3.05902e-05
2.04447e-05
3.64094e-05
6.80883e-05
1.4916e-05
8.6853e-06
1.55011e-05
3.10953e-05
6.58679e-06
3.21692e-06
5.65838e-06
1.2147e-05
2.58387e-06
1.00705e-06
1.72515e-06
3.95963e-06
8.71349e-07
2.53605e-07
4.20316e-07
1.0271e-06
2.38773e-07
4.71453e-08
7.53981e-08
1.92732e-07
4.82174e-08
5.644e-09
8.67528e-09
2.19782e-08
6.23543e-09
7.03208e-10
1.00289e-09
1.83171e-09
8.51432e-10
6.43223e-10
8.97459e-10
1.1281e-09
6.38331e-10
0.00109155
0.00614088
0.00882851
0.00359665
0.000814119
0.00611885
0.00882385
0.0035068
0.00054972
0.00612023
0.00883539
0.0035043
0.000316603
0.00613493
0.00885862
0.00357061
0.000140243
0.00615897
0.00888984
0.00367959
4.64492e-05
0.00618858
0.00892822
0.00381231
6.27571e-05
0.0062202
0.00897339
0.00395319
1.89679e-05
0.00625035
0.00902138
0.00409102
4.40903e-05
0.00627578
0.00907185
0.00421867
3.54915e-05
0.00629362
0.00912466
0.0043321
2.4944e-05
0.00630149
0.00917993
0.00442967
1.31845e-05
0.00629761
0.00923824
0.00451148
2.13718e-07
0.00628105
0.00930086
0.00457891
6.78079e-05
0.00625554
0.00936965
0.00463449
6.62224e-05
0.00622673
0.00944685
0.00468114
8.186e-05
0.00619505
0.00953489
0.00472214
6.62122e-05
0.00616037
0.00963242
0.0047612
0.00036217
0.00612299
0.00973228
0.00480375
0.000721047
0.00608302
0.00982653
0.00485305
0.00107917
0.00604412
0.00990931
0.0049107
0.00141519
0.00600621
0.00997416
0.00497629
0.00172273
0.0059693
0.0100149
0.0050442
0.00200075
0.00593329
0.0100323
0.00510721
0.00225043
0.00589792
0.0100254
0.00516126
0.00247355
0.00586277
0.00999334
0.00520513
0.00267198
0.00582729
0.00993632
0.00523914
0.00284762
0.00579077
0.00985534
0.00526535
0.00300257
0.00575219
0.00975182
0.00478345
0.00313909
0.00571102
0.00962729
0.00391083
0.00325883
0.00567219
0.00948324
0.00342509
0.00336176
0.00534898
0.00932067
0.0034231
0.00336485
0.00509786
0.00896858
0.00385633
0.00332368
0.00507424
0.00856823
0.00462676
0.003314
0.00528953
0.00818006
0.00522245
0.00331304
0.00554942
0.00783207
0.00517128
0.00330402
0.005505
0.00752143
0.00509919
0.00328937
0.0054425
0.00723387
0.00500651
0.00327529
0.00536299
0.00695616
0.00489464
0.00325804
0.00526063
0.00667933
0.00462163
0.00322583
0.00503291
0.00639913
0.00432858
0.00317065
0.00479773
0.0061166
0.00406862
0.00309466
0.00457897
0.00583757
0.00385695
0.00300671
0.00438387
0.00557149
0.00368237
0.00291508
0.00420636
0.00532656
0.00352672
0.00282406
0.00403728
0.00510277
0.00337611
0.00273407
0.00386989
0.00488984
0.0032231
0.0026432
0.00370104
0.00467412
0.00306587
0.00254906
0.00352997
0.00444805
0.0029061
0.00244989
0.00335684
0.00421194
0.00274631
0.00234518
0.00318206
0.00396983
0.00258772
0.00223468
0.00300637
0.00372593
0.00242927
0.00211622
0.00283055
0.00348318
0.00226665
0.00197917
0.00265469
0.00324294
0.00209744
0.00183479
0.00247761
0.00300531
0.0019336
0.00169466
0.00229508
0.00276961
0.00177528
0.00155854
0.00211028
0.00253356
0.00162084
0.00142482
0.00192793
0.00230097
0.00146938
0.00129244
0.00174841
0.00207393
0.0013208
0.00116107
0.00157172
0.00185304
0.00117541
0.00103116
0.00139832
0.00163896
0.00103346
0.000903241
0.00122907
0.00143262
0.000894628
0.000776303
0.00106494
0.00123499
0.000758897
0.000633901
0.000906484
0.00104654
0.000613733
0.000496134
0.000753629
0.000867038
0.000475237
0.00037118
0.000595653
0.00068739
0.000352077
0.000263186
0.000445521
0.000516083
0.000247589
0.000175314
0.000314861
0.00036707
0.000163948
0.000108818
0.000207712
0.000244364
0.000101466
6.25117e-05
0.000126317
0.000150292
5.83146e-05
3.30462e-05
6.99919e-05
8.43064e-05
3.09398e-05
1.59743e-05
3.49734e-05
4.26314e-05
1.50484e-05
6.98735e-06
1.55915e-05
1.92044e-05
6.6346e-06
2.71368e-06
6.10247e-06
7.5805e-06
2.59982e-06
9.04808e-07
2.0358e-06
2.54612e-06
8.75175e-07
2.44253e-07
5.47817e-07
6.89047e-07
2.38641e-07
4.80308e-08
1.073e-07
1.3567e-07
4.74356e-08
5.61626e-09
1.26127e-08
1.60523e-08
5.62843e-09
2.95432e-10
8.2001e-10
1.07919e-09
3.24869e-10
6.78557e-11
3.43001e-10
4.74592e-10
9.92745e-11
)
;

boundaryField
{
    leftWall
    {
        type            compressible::alphatWallFunction;
        Prt             0.85;
        value           uniform 0;
    }
    rightWall
    {
        type            compressible::alphatWallFunction;
        Prt             0.85;
        value           uniform 0;
    }
    leftSides_periodic0
    {
        type            cyclic;
    }
    leftSides_periodic1
    {
        type            cyclic;
    }
    rightSides_periodic0
    {
        type            cyclic;
    }
    rightSides_periodic1
    {
        type            cyclic;
    }
    leftInOut_periodic0
    {
        type            cyclic;
    }
    leftInOut_periodic1
    {
        type            cyclic;
    }
    rightInOut_periodic0
    {
        type            cyclic;
    }
    rightInOut_periodic1
    {
        type            cyclic;
    }
}


// ************************************************************************* //
