/*--------------------------------*- C++ -*----------------------------------*\
| =========                 |                                                 |
| \\      /  F ield         | OpenFOAM: The Open Source CFD Toolbox           |
|  \\    /   O peration     | Version:  v1906                                 |
|   \\  /    A nd           | Web:      www.OpenFOAM.com                      |
|    \\/     M anipulation  |                                                 |
\*---------------------------------------------------------------------------*/
FoamFile
{
    version     2.0;
    format      ascii;
    class       volScalarField;
    location    "98.8";
    object      nut;
}
// * * * * * * * * * * * * * * * * * * * * * * * * * * * * * * * * * * * * * //

dimensions      [0 2 -1 0 0 0 0];


internalField   nonuniform List<scalar> 
2528
(
1.42347e-11
1.64366e-11
1.68387e-11
2.35235e-11
2.28158e-11
2.34647e-11
3.32614e-11
3.45112e-11
2.27331e-10
1.71627e-10
3.90096e-10
2.60974e-10
1.57381e-09
1.15099e-09
2.71696e-09
1.70384e-09
6.54897e-09
4.81778e-09
1.11773e-08
6.85395e-09
1.94383e-08
1.45439e-08
3.25325e-08
1.97513e-08
4.56172e-08
3.49095e-08
7.4343e-08
4.513e-08
9.01655e-08
7.06896e-08
1.42258e-07
8.70988e-08
1.56513e-07
1.25589e-07
2.3816e-07
1.48061e-07
2.4574e-07
2.01327e-07
3.60097e-07
2.28341e-07
3.56717e-07
2.97509e-07
5.03681e-07
3.26491e-07
4.8684e-07
4.12101e-07
6.64389e-07
4.39942e-07
6.33371e-07
5.42405e-07
8.38882e-07
5.65915e-07
7.94431e-07
6.86344e-07
1.01426e-06
6.91891e-07
9.67963e-07
8.42196e-07
1.19028e-06
8.24959e-07
1.15227e-06
1.00223e-06
1.37073e-06
9.66423e-07
1.34583e-06
1.17105e-06
1.55485e-06
1.11551e-06
1.5473e-06
1.34945e-06
1.74434e-06
1.27167e-06
1.75591e-06
1.53764e-06
1.94456e-06
1.43417e-06
1.97057e-06
1.73604e-06
2.16127e-06
1.60213e-06
2.19019e-06
1.94416e-06
2.3879e-06
1.7745e-06
2.41363e-06
2.15768e-06
2.58938e-06
1.95038e-06
2.6397e-06
2.36545e-06
2.71203e-06
2.1293e-06
2.86774e-06
2.57511e-06
2.74043e-06
2.31134e-06
3.09796e-06
2.78585e-06
2.74432e-06
2.49601e-06
3.32996e-06
2.99689e-06
2.84565e-06
2.68033e-06
3.56337e-06
3.20744e-06
3.14776e-06
2.85827e-06
3.79776e-06
3.41673e-06
3.64975e-06
3.02334e-06
4.03293e-06
3.61983e-06
3.98197e-06
3.17731e-06
4.26889e-06
3.81572e-06
4.14997e-06
3.328e-06
4.50546e-06
4.00804e-06
4.30723e-06
3.47797e-06
4.74238e-06
4.19949e-06
4.45518e-06
3.62533e-06
4.97923e-06
4.39019e-06
4.56082e-06
3.76918e-06
5.21544e-06
4.58024e-06
4.66813e-06
3.9097e-06
5.45032e-06
4.77096e-06
4.76864e-06
4.04773e-06
5.68319e-06
4.96539e-06
4.85583e-06
4.18433e-06
5.91346e-06
5.1681e-06
4.93025e-06
4.32026e-06
6.14061e-06
5.38477e-06
4.99195e-06
4.45447e-06
6.36439e-06
5.58958e-06
5.04074e-06
4.58298e-06
6.58479e-06
5.76608e-06
5.07654e-06
4.70041e-06
6.80173e-06
5.93399e-06
5.09966e-06
4.80507e-06
7.01472e-06
6.09249e-06
5.11085e-06
4.90499e-06
7.22187e-06
6.09994e-06
5.11162e-06
5.01955e-06
7.41934e-06
4.9882e-06
5.10363e-06
5.17455e-06
6.66724e-06
3.61642e-06
5.08448e-06
5.38512e-06
4.47086e-06
3.16667e-06
5.0443e-06
5.58276e-06
3.03417e-06
4.33732e-06
4.9693e-06
5.70355e-06
3.34385e-06
6.0889e-06
4.85561e-06
5.82652e-06
5.879e-06
7.17511e-06
4.72129e-06
5.95356e-06
8.62731e-06
7.38194e-06
4.60815e-06
6.08546e-06
8.88317e-06
7.53866e-06
4.56396e-06
6.22253e-06
9.15284e-06
7.68944e-06
4.60342e-06
6.36557e-06
9.43297e-06
7.83396e-06
4.694e-06
6.51842e-06
9.70283e-06
7.97247e-06
4.64399e-06
6.68164e-06
9.96767e-06
8.10533e-06
4.52307e-06
6.8558e-06
1.023e-05
8.23268e-06
4.40257e-06
7.04165e-06
1.049e-05
8.3545e-06
4.27995e-06
7.23957e-06
1.0748e-05
8.47184e-06
4.1566e-06
7.44896e-06
1.09964e-05
8.58449e-06
4.03664e-06
7.66867e-06
1.12352e-05
8.69222e-06
3.37954e-06
7.89601e-06
1.14655e-05
8.79565e-06
3.09739e-06
8.12695e-06
1.16893e-05
8.89501e-06
3.33895e-06
8.35377e-06
1.19092e-05
8.99062e-06
3.61392e-06
8.57909e-06
1.21283e-05
9.08291e-06
3.55253e-06
8.79071e-06
1.23496e-05
9.17236e-06
3.53248e-06
8.98479e-06
1.25762e-05
9.25976e-06
3.55862e-06
9.14711e-06
1.28107e-05
9.34626e-06
3.62659e-06
9.29021e-06
1.13848e-05
9.42441e-06
3.73417e-06
9.42905e-06
5.90228e-06
9.49472e-06
3.87835e-06
9.55663e-06
5.80458e-06
9.55745e-06
4.05432e-06
9.66761e-06
1.30031e-05
9.61357e-06
4.25825e-06
9.755e-06
1.09663e-05
9.66378e-06
4.47347e-06
9.81289e-06
1.44875e-05
9.70845e-06
4.69318e-06
3.81018e-06
1.47227e-05
9.74833e-06
4.90809e-06
2.61222e-06
1.49225e-05
9.78421e-06
5.12035e-06
4.32161e-06
1.50824e-05
9.81605e-06
2.45284e-06
1.03176e-05
1.51964e-05
9.84288e-06
1.86718e-06
1.12238e-05
1.52643e-05
9.86393e-06
3.37415e-06
1.14211e-05
1.52801e-05
9.87693e-06
6.19955e-06
1.16106e-05
5.18734e-13
3.76976e-12
6.42999e-12
3.23753e-12
2.65018e-12
1.0642e-11
1.41154e-11
7.25186e-12
4.61013e-11
1.52376e-10
1.77892e-10
9.2236e-11
3.43545e-10
1.10796e-09
1.26506e-09
6.63642e-10
1.51313e-09
4.76848e-09
5.33213e-09
2.85166e-09
4.81616e-09
1.46898e-08
1.60237e-08
8.81053e-09
1.22711e-08
3.58477e-08
3.80356e-08
2.16637e-08
2.65012e-08
7.35434e-08
7.58432e-08
4.49856e-08
5.02694e-08
1.31908e-07
1.32377e-07
8.19941e-08
8.58388e-08
2.12804e-07
2.08352e-07
1.34804e-07
1.34426e-07
3.15655e-07
3.02466e-07
2.04047e-07
1.95976e-07
4.38082e-07
4.12133e-07
2.88965e-07
2.69302e-07
5.76788e-07
5.3429e-07
3.87813e-07
3.52429e-07
7.2837e-07
6.64557e-07
4.9834e-07
4.43182e-07
8.82589e-07
7.90448e-07
6.18151e-07
5.26901e-07
1.03503e-06
9.23139e-07
7.37215e-07
6.11507e-07
1.19251e-06
1.06189e-06
8.56141e-07
6.9941e-07
1.35465e-06
1.20608e-06
9.79393e-07
7.89893e-07
1.52041e-06
1.35522e-06
1.10618e-06
8.82556e-07
1.68878e-06
1.50899e-06
1.2357e-06
9.76992e-07
1.85886e-06
1.66729e-06
1.36712e-06
1.07299e-06
2.02995e-06
1.83011e-06
1.49976e-06
1.17086e-06
2.20164e-06
1.99712e-06
1.63306e-06
1.2716e-06
2.37372e-06
2.16714e-06
1.76673e-06
1.37634e-06
2.5456e-06
2.3382e-06
1.90065e-06
1.48468e-06
2.71734e-06
2.50856e-06
2.03468e-06
1.59176e-06
2.88926e-06
2.67761e-06
2.168e-06
1.68792e-06
3.06079e-06
2.8506e-06
2.29834e-06
1.76613e-06
3.23067e-06
3.03237e-06
2.41978e-06
1.82892e-06
3.39752e-06
3.22332e-06
2.53409e-06
1.9172e-06
3.56019e-06
3.41886e-06
2.64373e-06
2.07853e-06
3.71757e-06
3.61375e-06
2.75435e-06
2.33093e-06
3.86819e-06
3.80751e-06
2.8733e-06
2.61814e-06
4.01009e-06
4.00671e-06
3.00442e-06
2.7368e-06
4.14064e-06
4.22234e-06
3.14441e-06
2.84142e-06
4.25599e-06
4.46189e-06
3.2865e-06
2.93977e-06
4.35079e-06
4.71833e-06
3.42664e-06
2.79087e-06
4.41967e-06
4.96582e-06
3.56378e-06
2.4112e-06
4.46206e-06
5.17361e-06
3.69434e-06
2.04134e-06
4.49159e-06
5.33841e-06
3.80634e-06
1.95267e-06
4.54074e-06
5.48703e-06
3.87875e-06
2.29284e-06
4.64684e-06
5.62981e-06
3.89404e-06
3.14503e-06
4.82332e-06
5.71922e-06
3.86657e-06
3.54255e-06
5.06095e-06
5.62341e-06
3.85874e-06
3.63943e-06
5.34951e-06
5.20149e-06
3.95653e-06
3.73398e-06
5.65065e-06
4.63269e-06
4.19724e-06
3.8259e-06
5.88602e-06
4.34207e-06
4.53263e-06
3.91367e-06
6.01414e-06
4.59768e-06
4.85933e-06
3.99645e-06
6.05916e-06
5.48722e-06
5.05486e-06
4.07415e-06
6.07267e-06
6.72103e-06
5.10093e-06
4.14672e-06
6.1111e-06
7.07144e-06
5.09671e-06
3.34916e-06
6.22215e-06
7.12008e-06
5.07876e-06
2.42707e-06
6.42341e-06
6.39924e-06
5.02858e-06
2.05932e-06
6.68092e-06
5.54055e-06
4.96101e-06
2.47298e-06
6.90076e-06
5.12174e-06
4.89455e-06
4.11548e-06
7.00338e-06
5.67248e-06
4.82418e-06
4.39629e-06
7.02703e-06
7.23924e-06
4.73988e-06
4.39472e-06
7.04953e-06
8.11807e-06
4.63739e-06
4.37548e-06
7.08191e-06
8.26177e-06
4.51408e-06
4.33712e-06
7.10685e-06
8.40357e-06
4.36802e-06
4.02298e-06
7.1227e-06
8.5422e-06
4.20101e-06
3.52998e-06
7.13473e-06
8.6738e-06
4.01757e-06
3.18005e-06
7.14985e-06
8.79322e-06
3.82031e-06
3.16781e-06
7.17227e-06
8.89691e-06
3.60333e-06
3.45698e-06
7.19547e-06
8.98224e-06
3.35295e-06
3.66878e-06
7.20347e-06
9.04666e-06
3.06569e-06
3.49421e-06
7.18395e-06
9.09169e-06
2.75988e-06
3.30991e-06
7.09304e-06
9.11629e-06
2.4618e-06
3.12703e-06
6.97095e-06
9.11703e-06
2.19996e-06
2.96081e-06
6.83742e-06
9.09074e-06
1.96394e-06
2.8231e-06
6.69606e-06
9.03399e-06
1.74687e-06
2.71748e-06
6.49378e-06
8.91327e-06
1.61756e-06
2.6438e-06
6.09503e-06
8.74007e-06
1.59755e-06
2.60027e-06
5.66595e-06
8.56016e-06
1.70046e-06
2.58506e-06
5.61216e-06
8.37229e-06
1.91289e-06
2.59602e-06
6.03876e-06
8.2223e-06
2.20255e-06
2.63104e-06
5.94957e-06
8.24732e-06
2.53793e-06
2.68871e-06
5.87677e-06
8.10776e-06
2.89675e-06
2.76757e-06
5.82704e-06
7.98879e-06
3.2622e-06
7.39599e-12
4.73136e-12
6.51836e-12
7.61922e-12
1.91856e-11
1.00275e-11
1.45231e-11
1.51904e-11
2.5903e-10
1.09086e-10
1.67581e-10
1.73802e-10
1.84364e-09
7.50979e-10
1.14508e-09
1.21663e-09
7.74479e-09
3.1351e-09
4.68588e-09
5.08358e-09
2.31126e-08
9.48852e-09
1.37897e-08
1.51734e-08
5.42481e-08
2.29599e-08
3.22693e-08
3.58243e-08
1.06586e-07
4.69601e-08
6.37253e-08
7.11521e-08
1.82944e-07
8.42003e-08
1.10492e-07
1.23867e-07
2.83022e-07
1.35944e-07
1.73107e-07
1.94653e-07
4.04173e-07
2.01821e-07
2.50449e-07
2.82276e-07
5.28586e-07
2.80191e-07
3.36814e-07
3.81653e-07
6.59922e-07
3.60965e-07
4.22533e-07
4.78504e-07
8.00107e-07
4.43081e-07
5.14278e-07
5.81597e-07
9.48286e-07
5.29829e-07
6.11403e-07
6.89791e-07
1.10459e-06
6.2061e-07
7.13699e-07
8.02869e-07
1.26926e-06
7.1533e-07
8.20839e-07
9.20548e-07
1.44272e-06
8.13904e-07
9.32252e-07
1.04254e-06
1.62546e-06
9.16248e-07
1.04739e-06
1.16845e-06
1.81714e-06
1.02236e-06
1.16734e-06
1.29784e-06
2.01415e-06
1.13222e-06
1.29655e-06
1.42962e-06
2.20873e-06
1.24473e-06
1.4414e-06
1.5611e-06
2.39542e-06
1.35637e-06
1.60118e-06
1.68841e-06
2.58711e-06
1.46224e-06
1.75418e-06
1.8113e-06
2.8246e-06
1.56273e-06
1.85867e-06
1.94304e-06
3.14327e-06
1.67449e-06
1.89307e-06
2.1135e-06
3.51788e-06
1.83053e-06
1.90555e-06
2.3476e-06
3.88299e-06
2.04401e-06
1.99382e-06
2.6483e-06
4.20707e-06
2.27779e-06
2.21933e-06
2.8652e-06
4.48616e-06
2.48986e-06
2.55201e-06
3.00491e-06
4.74523e-06
2.67277e-06
2.87939e-06
2.97782e-06
5.00053e-06
2.82539e-06
3.09583e-06
2.62146e-06
5.24932e-06
2.97838e-06
3.25309e-06
2.45569e-06
5.4883e-06
3.1302e-06
3.41083e-06
2.68397e-06
5.7138e-06
3.27878e-06
3.5683e-06
3.27261e-06
5.92712e-06
3.42118e-06
3.72423e-06
3.93232e-06
6.1422e-06
3.55377e-06
3.87757e-06
4.0824e-06
4.62992e-06
3.6729e-06
4.02736e-06
4.23013e-06
3.66383e-06
3.78062e-06
4.17213e-06
4.37312e-06
4.11329e-06
3.7715e-06
4.31015e-06
4.50759e-06
5.71544e-06
2.03685e-06
4.43919e-06
4.62906e-06
7.55918e-06
1.82571e-06
4.5562e-06
4.73636e-06
7.81171e-06
2.53114e-06
4.65737e-06
4.83291e-06
8.05777e-06
4.15642e-06
4.73928e-06
2.46577e-06
8.29828e-06
4.76963e-06
4.80286e-06
1.9539e-06
8.53307e-06
4.95876e-06
4.85189e-06
2.72666e-06
8.76236e-06
5.15315e-06
2.29857e-06
4.98959e-06
8.98636e-06
5.35016e-06
1.8917e-06
5.5139e-06
9.20485e-06
5.54792e-06
2.76993e-06
5.67915e-06
9.41687e-06
5.74646e-06
5.12667e-06
5.8661e-06
9.62049e-06
5.94604e-06
5.43913e-06
6.07864e-06
9.8126e-06
6.14948e-06
5.58595e-06
6.31504e-06
9.98861e-06
6.35663e-06
5.73731e-06
6.5608e-06
1.01424e-05
6.56679e-06
5.88316e-06
6.80774e-06
1.02667e-05
6.77938e-06
6.02919e-06
7.05637e-06
1.03554e-05
6.99382e-06
3.85468e-06
7.30766e-06
1.04025e-05
7.20955e-06
2.55992e-06
7.56562e-06
1.0405e-05
7.42606e-06
3.65914e-06
7.82941e-06
1.03581e-05
7.64299e-06
6.71908e-06
8.09971e-06
1.02337e-05
7.8599e-06
6.88234e-06
8.37597e-06
3.79479e-06
8.07782e-06
7.05023e-06
8.65684e-06
2.85186e-06
8.29563e-06
7.21988e-06
8.93789e-06
4.77014e-06
8.51087e-06
7.38945e-06
9.21526e-06
1.0417e-05
8.71756e-06
7.55768e-06
9.48428e-06
1.07405e-05
8.9117e-06
7.72326e-06
9.74057e-06
1.09552e-05
9.08556e-06
7.88463e-06
9.97911e-06
1.11911e-05
9.23024e-06
8.04063e-06
1.01979e-05
1.14558e-05
9.33447e-06
8.19037e-06
1.03933e-05
1.1755e-05
9.38838e-06
8.33356e-06
1.05626e-05
1.20625e-05
9.40786e-06
8.47079e-06
1.07027e-05
1.23528e-05
9.4148e-06
8.60254e-06
1.08112e-05
1.26238e-05
9.38535e-06
8.72983e-06
1.08863e-05
1.28743e-05
9.27178e-06
8.85488e-06
1.09275e-05
1.31002e-05
3.07025e-06
8.97565e-06
1.09477e-05
1.32957e-05
2.35181e-06
9.09124e-06
1.09635e-05
1.34532e-05
4.0478e-06
9.20282e-06
1.09721e-05
1.35677e-05
9.72624e-06
9.30829e-06
1.09748e-05
1.36239e-05
9.87008e-06
9.40509e-06
1.0972e-05
1.36163e-05
1.00111e-05
9.49026e-06
5.35046e-06
6.63134e-12
1.0763e-11
1.23958e-11
9.3147e-12
9.28168e-12
1.46534e-11
2.16558e-11
1.40502e-11
6.11305e-11
1.25812e-10
2.25643e-10
1.13843e-10
4.01122e-10
8.94589e-10
1.5685e-09
7.69589e-10
1.6767e-09
3.88356e-09
6.54203e-09
3.22086e-09
5.08905e-09
1.20004e-08
1.94766e-08
9.72342e-09
1.23338e-08
2.9166e-08
4.58453e-08
2.33527e-08
2.5312e-08
5.9377e-08
9.08152e-08
4.73647e-08
4.57315e-08
1.05663e-07
1.57832e-07
8.44039e-08
7.47717e-08
1.69472e-07
2.47955e-07
1.35923e-07
1.12928e-07
2.50654e-07
3.60132e-07
2.0202e-07
1.60046e-07
3.47891e-07
4.92041e-07
2.81676e-07
2.15489e-07
4.59272e-07
6.38361e-07
3.73176e-07
2.78349e-07
5.77046e-07
7.88335e-07
4.74527e-07
3.46471e-07
6.9901e-07
9.51186e-07
5.73641e-07
4.15443e-07
8.30591e-07
1.12558e-06
6.78134e-07
4.90151e-07
9.7236e-07
1.31164e-06
7.88801e-07
5.70655e-07
1.12429e-06
1.51008e-06
9.0568e-07
6.56813e-07
1.28629e-06
1.72154e-06
1.02852e-06
7.48261e-07
1.45834e-06
1.94517e-06
1.15709e-06
8.44409e-07
1.64046e-06
2.17771e-06
1.29121e-06
9.44451e-07
1.83273e-06
2.41677e-06
1.43075e-06
1.0475e-06
2.03516e-06
2.66193e-06
1.57563e-06
1.15242e-06
2.24766e-06
2.91313e-06
1.72578e-06
1.2536e-06
2.4697e-06
3.17004e-06
1.88126e-06
1.35561e-06
2.70031e-06
3.42733e-06
2.04258e-06
1.45796e-06
2.93486e-06
3.6804e-06
2.21156e-06
1.56013e-06
3.16368e-06
3.93748e-06
2.38937e-06
1.66162e-06
3.38603e-06
4.19822e-06
2.56922e-06
1.76192e-06
3.61091e-06
4.46229e-06
2.72501e-06
1.86061e-06
3.83784e-06
4.72834e-06
2.88106e-06
1.95727e-06
4.06633e-06
4.99463e-06
3.03736e-06
2.05156e-06
4.29592e-06
5.26032e-06
3.19393e-06
2.1432e-06
4.52615e-06
5.52451e-06
3.35064e-06
2.23196e-06
4.75658e-06
5.78638e-06
3.50717e-06
2.31776e-06
4.98679e-06
6.04514e-06
3.66304e-06
2.4006e-06
5.21638e-06
6.30005e-06
3.81778e-06
2.48072e-06
5.44492e-06
6.55039e-06
3.97102e-06
2.55855e-06
5.67202e-06
6.79548e-06
4.12255e-06
2.63426e-06
5.89726e-06
7.03469e-06
4.2723e-06
2.70708e-06
6.12023e-06
7.2675e-06
4.42036e-06
2.77539e-06
6.34015e-06
7.49346e-06
4.56709e-06
2.83719e-06
6.55538e-06
7.71234e-06
4.71317e-06
2.89036e-06
6.76504e-06
7.92411e-06
4.85946e-06
2.93977e-06
6.97495e-06
8.12891e-06
5.00668e-06
2.98432e-06
7.18539e-06
8.32713e-06
5.15448e-06
3.02342e-06
7.39643e-06
8.51944e-06
5.30148e-06
3.05729e-06
7.60569e-06
8.70653e-06
5.4459e-06
3.08443e-06
7.80983e-06
8.88815e-06
5.58603e-06
3.10102e-06
8.00578e-06
9.0632e-06
5.72035e-06
3.10483e-06
8.19129e-06
9.23033e-06
5.84734e-06
3.09492e-06
8.36473e-06
9.38857e-06
5.96546e-06
3.07085e-06
8.52549e-06
9.53737e-06
6.07307e-06
3.02721e-06
8.67284e-06
9.67658e-06
6.16845e-06
2.96446e-06
8.80603e-06
9.80648e-06
6.24976e-06
2.88364e-06
8.9242e-06
9.92769e-06
6.31548e-06
2.78675e-06
9.02633e-06
1.00409e-05
6.36457e-06
2.67687e-06
9.11089e-06
1.01463e-05
6.39613e-06
2.56127e-06
9.17642e-06
1.02433e-05
6.40689e-06
2.44848e-06
9.22149e-06
1.03311e-05
6.39508e-06
2.35219e-06
9.24207e-06
1.04067e-05
6.36016e-06
2.29161e-06
9.2364e-06
1.04698e-05
6.3042e-06
2.27486e-06
9.20266e-06
1.0519e-05
6.22816e-06
2.29481e-06
9.1389e-06
1.05511e-05
6.13338e-06
2.34071e-06
9.04186e-06
1.05629e-05
6.02165e-06
2.40115e-06
8.91063e-06
1.05505e-05
5.89558e-06
2.4652e-06
8.74593e-06
1.05103e-05
5.75799e-06
2.52308e-06
8.54749e-06
1.04392e-05
5.61181e-06
2.57005e-06
8.31633e-06
1.03357e-05
5.45944e-06
2.59276e-06
8.055e-06
1.01996e-05
5.30275e-06
2.58382e-06
7.76902e-06
1.00328e-05
5.143e-06
2.54039e-06
7.46793e-06
9.84692e-06
4.9808e-06
2.46269e-06
7.16461e-06
9.64375e-06
4.81663e-06
2.35183e-06
6.8765e-06
9.43141e-06
4.65189e-06
2.20869e-06
6.62786e-06
9.22477e-06
4.48019e-06
2.03456e-06
6.43199e-06
9.03793e-06
4.29249e-06
1.83101e-06
6.28406e-06
8.88863e-06
4.0923e-06
1.60023e-06
6.17484e-06
8.78315e-06
3.88728e-06
1.34553e-06
6.09717e-06
8.70989e-06
3.69177e-06
1.52491e-05
9.89023e-06
6.35323e-06
1.17776e-05
1.51802e-05
9.9044e-06
6.48469e-06
1.19031e-05
1.50685e-05
9.90482e-06
6.59573e-06
1.19865e-05
1.49234e-05
9.88933e-06
6.69002e-06
1.2036e-05
1.47535e-05
9.85405e-06
6.77037e-06
1.20607e-05
1.45664e-05
9.79931e-06
6.84308e-06
1.20613e-05
1.43691e-05
9.72372e-06
6.90642e-06
1.20361e-05
1.41791e-05
9.62874e-06
6.96707e-06
1.19861e-05
1.40061e-05
9.51531e-06
7.02521e-06
1.19123e-05
1.38455e-05
9.38649e-06
7.08074e-06
1.18157e-05
1.36924e-05
9.24417e-06
7.13318e-06
1.16975e-05
1.3542e-05
9.09007e-06
7.18183e-06
1.15589e-05
1.33892e-05
8.92523e-06
7.22578e-06
1.14011e-05
1.32299e-05
8.7499e-06
7.2642e-06
1.12254e-05
1.30607e-05
8.56378e-06
7.29643e-06
1.10325e-05
1.28788e-05
8.36655e-06
7.32164e-06
1.08232e-05
1.26817e-05
8.15814e-06
7.33857e-06
1.05981e-05
1.24665e-05
7.94809e-06
7.34593e-06
1.03579e-05
1.22324e-05
7.75153e-06
7.34252e-06
1.01029e-05
1.19804e-05
7.5659e-06
7.32705e-06
9.83478e-06
1.17122e-05
7.39063e-06
7.29878e-06
9.55492e-06
1.14299e-05
7.22517e-06
7.26446e-06
9.26493e-06
1.11359e-05
7.06898e-06
7.22262e-06
8.96669e-06
1.08321e-05
6.92168e-06
7.17225e-06
8.66195e-06
1.05197e-05
6.78287e-06
7.1129e-06
8.35227e-06
1.02e-05
6.65302e-06
7.04461e-06
8.07751e-06
9.87464e-06
6.53666e-06
6.96782e-06
7.85232e-06
9.54512e-06
6.4338e-06
6.88324e-06
7.62522e-06
9.21433e-06
6.32441e-06
6.79145e-06
5.29479e-06
8.88715e-06
2.52566e-06
6.64461e-06
2.52517e-06
8.43705e-06
1.96674e-06
6.46666e-06
2.42093e-06
6.30528e-06
2.7284e-06
6.31049e-06
3.6236e-06
5.29028e-06
4.7893e-06
6.17451e-06
6.26341e-06
5.90442e-06
6.15887e-06
6.05666e-06
6.5822e-06
6.91637e-06
6.04891e-06
5.94557e-06
6.38754e-06
6.89558e-06
5.92419e-06
5.83053e-06
6.17225e-06
6.59371e-06
5.78126e-06
5.70124e-06
5.93559e-06
6.29119e-06
5.61997e-06
5.57277e-06
5.68247e-06
5.98672e-06
5.44247e-06
5.50181e-06
5.41855e-06
5.68134e-06
5.25296e-06
5.40382e-06
5.14872e-06
5.3777e-06
5.05598e-06
5.23926e-06
4.87694e-06
5.07807e-06
4.85393e-06
5.06641e-06
4.60656e-06
4.78309e-06
4.64849e-06
4.28732e-06
4.33987e-06
4.49143e-06
4.44052e-06
3.36959e-06
4.07873e-06
4.03736e-06
4.23026e-06
3.05002e-06
3.82449e-06
3.56173e-06
4.01822e-06
3.22803e-06
3.57827e-06
3.24212e-06
3.80567e-06
3.60328e-06
3.33928e-06
3.05131e-06
3.59347e-06
3.85157e-06
3.10612e-06
2.90517e-06
3.38198e-06
3.8346e-06
2.8124e-06
2.74261e-06
3.17257e-06
3.60342e-06
2.35767e-06
2.55128e-06
2.95588e-06
3.2479e-06
2.08036e-06
2.34293e-06
2.59194e-06
2.93057e-06
1.93764e-06
2.11631e-06
2.319e-06
2.69783e-06
1.83583e-06
1.89718e-06
2.14001e-06
2.52526e-06
1.71853e-06
1.69687e-06
1.99872e-06
2.37373e-06
1.57332e-06
1.51477e-06
1.85511e-06
2.21879e-06
1.41742e-06
1.34685e-06
1.69808e-06
2.05144e-06
1.26644e-06
1.18969e-06
1.5346e-06
1.87229e-06
1.12506e-06
1.04165e-06
1.37371e-06
1.69358e-06
9.92227e-07
9.02255e-07
1.21912e-06
1.5195e-06
8.66244e-07
7.71682e-07
1.07098e-06
1.3508e-06
7.46574e-07
6.50416e-07
9.28782e-07
1.18725e-06
6.33665e-07
5.31066e-07
7.92655e-07
1.02896e-06
5.24007e-07
4.11466e-07
6.63571e-07
8.7662e-07
4.0671e-07
3.05819e-07
5.33349e-07
7.31509e-07
3.01918e-07
2.16411e-07
4.03296e-07
5.94943e-07
2.12632e-07
1.4467e-07
2.87979e-07
4.54119e-07
1.40966e-07
9.06762e-08
1.91665e-07
3.19185e-07
8.73502e-08
5.29254e-08
1.17318e-07
2.06369e-07
5.02942e-08
2.85794e-08
6.52059e-08
1.20426e-07
2.67675e-08
1.41651e-08
3.25507e-08
6.22675e-08
1.30834e-08
6.36605e-09
1.44401e-08
2.80909e-08
5.80782e-09
2.54168e-09
5.60636e-09
1.08903e-08
2.29583e-09
8.70906e-10
1.85153e-09
3.54137e-09
7.81122e-10
2.41433e-10
4.92815e-10
9.19743e-10
2.15726e-10
4.87659e-11
9.55181e-11
1.72867e-10
4.35708e-11
5.94168e-12
1.11741e-11
1.93609e-11
5.34254e-12
4.39213e-13
7.95612e-13
1.0997e-12
4.19081e-13
2.1498e-13
3.90006e-13
3.72231e-13
2.20309e-13
2.86646e-06
5.80276e-06
7.89495e-06
3.61752e-06
2.98259e-06
5.8093e-06
7.82943e-06
3.95035e-06
3.11487e-06
5.8489e-06
7.78865e-06
4.26067e-06
3.26187e-06
5.91757e-06
7.76852e-06
4.54565e-06
3.42246e-06
6.00983e-06
7.76448e-06
4.80783e-06
3.59493e-06
6.11953e-06
7.77556e-06
5.04823e-06
3.77669e-06
6.24074e-06
7.79517e-06
5.26678e-06
3.96665e-06
6.36685e-06
7.82487e-06
5.46324e-06
4.16212e-06
6.49238e-06
7.86707e-06
5.63811e-06
4.36012e-06
6.61191e-06
7.91803e-06
5.79165e-06
4.55749e-06
6.72391e-06
7.97431e-06
5.9245e-06
4.75093e-06
6.83074e-06
8.03281e-06
6.03757e-06
4.93708e-06
6.9326e-06
8.08975e-06
6.13206e-06
5.11236e-06
7.02713e-06
8.14905e-06
6.20941e-06
5.22418e-06
7.11272e-06
8.11124e-06
6.27106e-06
5.04403e-06
7.18793e-06
8.2949e-06
6.31189e-06
5.03721e-06
7.25124e-06
8.4392e-06
6.1837e-06
5.2172e-06
7.30259e-06
8.54317e-06
6.08566e-06
5.48878e-06
7.33932e-06
8.63435e-06
6.03201e-06
5.7565e-06
7.31244e-06
8.70725e-06
6.05615e-06
5.85679e-06
7.19594e-06
8.75865e-06
6.17522e-06
5.87768e-06
7.11137e-06
8.78092e-06
6.32117e-06
5.8758e-06
7.05447e-06
8.777e-06
6.363e-06
5.85182e-06
7.00904e-06
8.74591e-06
6.33648e-06
5.80769e-06
6.96063e-06
8.68976e-06
6.29735e-06
5.74542e-06
6.89922e-06
8.61074e-06
6.24672e-06
5.66708e-06
6.82235e-06
8.51097e-06
6.18662e-06
5.57471e-06
6.73799e-06
8.39249e-06
6.1199e-06
5.47032e-06
6.66106e-06
8.25721e-06
6.04524e-06
5.35633e-06
6.59807e-06
8.10688e-06
5.95938e-06
5.2353e-06
6.52046e-06
7.94309e-06
5.86501e-06
5.10737e-06
6.43442e-06
7.76733e-06
5.76251e-06
4.97236e-06
6.35676e-06
7.58107e-06
5.65098e-06
4.8311e-06
6.2805e-06
7.38546e-06
5.52937e-06
4.68424e-06
6.20073e-06
7.18122e-06
5.39739e-06
4.53262e-06
6.11906e-06
6.96913e-06
5.25518e-06
4.37732e-06
6.03135e-06
6.75027e-06
5.10319e-06
4.21946e-06
5.92855e-06
6.52565e-06
4.94201e-06
4.06002e-06
5.80721e-06
6.2966e-06
4.77236e-06
3.89985e-06
5.66788e-06
6.06365e-06
4.59507e-06
3.73971e-06
5.51129e-06
5.82723e-06
4.41103e-06
3.57996e-06
5.33838e-06
5.58782e-06
4.22122e-06
3.41686e-06
5.15079e-06
5.34589e-06
4.0267e-06
3.24684e-06
4.95106e-06
5.10184e-06
3.82853e-06
3.07181e-06
4.74365e-06
4.85595e-06
3.62775e-06
2.89351e-06
4.52836e-06
4.6081e-06
3.42537e-06
2.71343e-06
4.29746e-06
4.3264e-06
3.22242e-06
2.53294e-06
4.04867e-06
4.02173e-06
3.0199e-06
2.35325e-06
3.78929e-06
3.73976e-06
2.81882e-06
2.17544e-06
3.52807e-06
3.47784e-06
2.62013e-06
2.00047e-06
3.27002e-06
3.22848e-06
2.42471e-06
1.82921e-06
3.01641e-06
2.98676e-06
2.23279e-06
1.66242e-06
2.76679e-06
2.75049e-06
2.04287e-06
1.50075e-06
2.51984e-06
2.51694e-06
1.85503e-06
1.34475e-06
2.27841e-06
2.28824e-06
1.66667e-06
1.19482e-06
2.04637e-06
2.06764e-06
1.46509e-06
1.04695e-06
1.82541e-06
1.85614e-06
1.27925e-06
9.02994e-07
1.61615e-06
1.65405e-06
1.11075e-06
7.71752e-07
1.4188e-06
1.46153e-06
9.57808e-07
6.52965e-07
1.23349e-06
1.27887e-06
8.18372e-07
5.45896e-07
1.06038e-06
1.10641e-06
6.91222e-07
4.48646e-07
8.9965e-07
9.44547e-07
5.75751e-07
3.55041e-07
7.51499e-07
7.93773e-07
4.65542e-07
2.71855e-07
6.15779e-07
6.54483e-07
3.6049e-07
2.00049e-07
4.82929e-07
5.20689e-07
2.684e-07
1.40406e-07
3.58386e-07
3.90085e-07
1.90671e-07
9.32201e-08
2.51951e-07
2.77172e-07
1.28147e-07
5.80598e-08
1.65888e-07
1.84784e-07
8.07682e-08
3.36469e-08
1.01059e-07
1.14327e-07
4.7334e-08
1.79988e-08
5.62975e-08
6.50126e-08
2.55829e-08
8.8076e-09
2.83681e-08
3.37168e-08
1.26395e-08
3.89457e-09
1.27802e-08
1.58259e-08
5.64021e-09
1.52598e-09
5.06107e-09
6.6332e-09
2.22977e-09
5.12772e-10
1.70987e-09
2.41064e-09
7.55878e-10
1.39776e-10
4.66693e-10
7.14799e-10
2.07767e-10
2.81301e-11
9.3206e-11
1.5408e-10
4.20499e-11
3.75474e-12
1.15977e-11
2.00014e-11
5.50724e-12
6.73518e-13
1.23759e-12
1.92195e-12
8.30817e-13
5.6171e-13
7.97402e-13
9.94994e-13
6.49031e-13
1.35589e-05
1.01353e-05
9.56507e-06
3.11129e-06
1.34846e-05
1.02518e-05
9.62849e-06
3.65685e-06
1.33963e-05
1.03611e-05
9.66887e-06
1.10859e-05
1.32891e-05
1.04429e-05
9.68265e-06
1.12349e-05
1.31639e-05
1.04781e-05
9.66695e-06
1.13034e-05
1.30222e-05
1.04663e-05
9.61218e-06
1.13262e-05
1.28659e-05
1.04076e-05
9.51418e-06
1.12892e-05
1.26957e-05
1.03132e-05
9.36808e-06
1.11878e-05
1.2515e-05
1.01856e-05
9.20068e-06
1.103e-05
1.23289e-05
1.00284e-05
9.04433e-06
1.08219e-05
1.21433e-05
9.84563e-06
8.89672e-06
1.05737e-05
1.19654e-05
9.64131e-06
8.75692e-06
1.02955e-05
1.1805e-05
9.42016e-06
3.90238e-06
9.99775e-06
1.01988e-05
9.18739e-06
2.15122e-06
9.7e-06
5.99512e-06
8.94846e-06
2.65196e-06
9.43291e-06
3.87276e-06
8.71886e-06
8.45699e-06
9.20551e-06
4.02397e-06
8.51816e-06
8.6092e-06
9.01261e-06
7.53129e-06
8.34492e-06
8.68739e-06
5.92733e-06
1.18225e-05
8.18981e-06
8.72438e-06
3.52268e-06
1.19821e-05
8.04812e-06
8.71991e-06
2.9255e-06
1.20586e-05
7.91725e-06
8.68091e-06
4.26143e-06
1.20706e-05
7.79351e-06
8.61655e-06
8.58791e-06
1.20207e-05
7.6769e-06
8.52705e-06
8.65528e-06
1.19125e-05
7.56724e-06
8.41998e-06
8.68027e-06
1.17558e-05
7.46391e-06
8.30019e-06
8.67279e-06
1.15595e-05
7.36655e-06
8.17135e-06
8.62844e-06
1.10272e-05
7.27571e-06
8.03608e-06
8.54533e-06
8.12777e-06
7.19685e-06
7.89608e-06
8.42872e-06
5.96118e-06
4.54779e-06
7.75238e-06
6.77805e-06
5.64225e-06
2.99879e-06
7.60556e-06
5.49572e-06
7.43781e-06
2.872e-06
7.456e-06
5.83864e-06
9.81688e-06
4.54172e-06
7.30383e-06
7.68882e-06
9.59242e-06
7.01971e-06
7.14885e-06
7.50544e-06
9.36211e-06
7.02045e-06
6.99075e-06
7.32735e-06
9.11333e-06
6.98662e-06
6.82935e-06
7.14205e-06
8.84504e-06
6.92066e-06
6.66436e-06
6.94479e-06
8.39461e-06
6.82495e-06
6.49553e-06
6.73682e-06
7.19308e-06
6.70173e-06
6.32291e-06
6.51901e-06
6.07411e-06
6.55422e-06
6.14668e-06
6.29244e-06
5.7147e-06
6.3867e-06
5.96698e-06
5.92923e-06
6.18431e-06
6.20181e-06
5.78397e-06
5.4168e-06
6.89722e-06
6.00176e-06
5.59777e-06
5.16052e-06
6.58991e-06
5.79098e-06
5.40846e-06
5.19215e-06
6.29182e-06
5.57259e-06
5.21612e-06
5.05868e-06
5.99263e-06
5.34757e-06
5.02081e-06
4.81251e-06
5.67544e-06
5.11632e-06
4.82256e-06
4.56589e-06
5.35557e-06
4.87956e-06
4.62142e-06
4.31708e-06
5.04279e-06
4.63813e-06
4.4174e-06
4.06691e-06
4.72799e-06
4.3929e-06
4.21059e-06
3.81595e-06
4.41231e-06
4.14451e-06
4.00121e-06
3.56472e-06
4.09664e-06
3.88276e-06
3.77389e-06
3.30887e-06
3.78231e-06
3.61986e-06
3.54197e-06
3.0496e-06
3.47059e-06
3.35656e-06
3.30709e-06
2.78873e-06
3.16271e-06
3.09351e-06
3.06988e-06
2.52912e-06
2.85929e-06
2.83121e-06
2.83145e-06
2.27339e-06
2.56322e-06
2.56973e-06
2.59212e-06
2.02404e-06
2.27641e-06
2.31212e-06
2.35068e-06
1.78357e-06
2.001e-06
2.06063e-06
2.1094e-06
1.55451e-06
1.7392e-06
1.81747e-06
1.87487e-06
1.33925e-06
1.49296e-06
1.58472e-06
1.6561e-06
1.13958e-06
1.26355e-06
1.36431e-06
1.45345e-06
9.56341e-07
1.04585e-06
1.15793e-06
1.26288e-06
7.82091e-07
8.31843e-07
9.66962e-07
1.08267e-06
6.16157e-07
6.39865e-07
7.92366e-07
9.12657e-07
4.69272e-07
4.7278e-07
6.31716e-07
7.53076e-07
3.43241e-07
3.32877e-07
4.71581e-07
6.04579e-07
2.39315e-07
2.21337e-07
3.33329e-07
4.6929e-07
1.57772e-07
1.37633e-07
2.20024e-07
3.31596e-07
9.75513e-08
7.92143e-08
1.33483e-07
2.16058e-07
5.6129e-08
4.1737e-08
7.31622e-08
1.27548e-07
2.98295e-08
1.98841e-08
3.5609e-08
6.68082e-08
1.45217e-08
8.43429e-09
1.51329e-08
3.04563e-08
6.40097e-09
3.11872e-09
5.51177e-09
1.18688e-08
2.5061e-09
9.74585e-10
1.67632e-09
3.85786e-09
8.43456e-10
2.44988e-10
4.07372e-10
9.97615e-10
2.30677e-10
4.54606e-11
7.28869e-11
1.86613e-10
4.64936e-11
5.43245e-12
8.36482e-12
2.12151e-11
6.00137e-12
6.75631e-13
9.64561e-13
1.76282e-12
8.17999e-13
6.169e-13
8.61023e-13
1.08252e-12
6.12195e-13
1.07474e-06
6.04631e-06
8.67284e-06
3.53294e-06
8.01532e-07
6.024e-06
8.66766e-06
3.44443e-06
5.41187e-07
6.02475e-06
8.67839e-06
3.44175e-06
3.11668e-07
6.03863e-06
8.70062e-06
3.50666e-06
1.38047e-07
6.0617e-06
8.7307e-06
3.61348e-06
4.57183e-08
6.09027e-06
8.76782e-06
3.74362e-06
6.17649e-08
6.12083e-06
8.81161e-06
3.88176e-06
1.86666e-08
6.14995e-06
8.85817e-06
4.01693e-06
4.3387e-08
6.17445e-06
8.90718e-06
4.14208e-06
3.49231e-08
6.19149e-06
8.95848e-06
4.25328e-06
2.45429e-08
6.19875e-06
9.01221e-06
4.34891e-06
1.29717e-08
6.19445e-06
9.06892e-06
4.42907e-06
2.10256e-10
6.1777e-06
9.12987e-06
4.4951e-06
6.67062e-08
6.15216e-06
9.19687e-06
4.54951e-06
6.51437e-08
6.1234e-06
9.27212e-06
4.59514e-06
8.05232e-08
6.09183e-06
9.35802e-06
4.63523e-06
6.5128e-08
6.05733e-06
9.45325e-06
4.67341e-06
3.56225e-07
6.02019e-06
9.55074e-06
4.71502e-06
7.09189e-07
5.98051e-06
9.64274e-06
4.76324e-06
1.06139e-06
5.9419e-06
9.72349e-06
4.81967e-06
1.39184e-06
5.90427e-06
9.78665e-06
4.88388e-06
1.69424e-06
5.86764e-06
9.82619e-06
4.95037e-06
1.96761e-06
5.83191e-06
9.84274e-06
5.01205e-06
2.2131e-06
5.79682e-06
9.83551e-06
5.06492e-06
2.43245e-06
5.76195e-06
9.80361e-06
5.1078e-06
2.6275e-06
5.72677e-06
9.74723e-06
5.14101e-06
2.80014e-06
5.69057e-06
9.66735e-06
5.16655e-06
2.95243e-06
5.65236e-06
9.56537e-06
4.69354e-06
3.08657e-06
5.61162e-06
9.4428e-06
3.83718e-06
3.20422e-06
5.57317e-06
9.30109e-06
3.36044e-06
3.30532e-06
5.25532e-06
9.14122e-06
3.35831e-06
3.30825e-06
5.00833e-06
8.79552e-06
3.78313e-06
3.26766e-06
4.98485e-06
8.4025e-06
4.53871e-06
3.25803e-06
5.19605e-06
8.02145e-06
5.12284e-06
3.25696e-06
5.45104e-06
7.67984e-06
5.07243e-06
3.24796e-06
5.40713e-06
7.37486e-06
5.00152e-06
3.23343e-06
5.34546e-06
7.09254e-06
4.91042e-06
3.21946e-06
5.26711e-06
6.8199e-06
4.80049e-06
3.20235e-06
5.16632e-06
6.54813e-06
4.53253e-06
3.17055e-06
4.94243e-06
6.27309e-06
4.24494e-06
3.11616e-06
4.71123e-06
5.99578e-06
3.9898e-06
3.04132e-06
4.49617e-06
5.72193e-06
3.78203e-06
2.95472e-06
4.30436e-06
5.46079e-06
3.61063e-06
2.86452e-06
4.12982e-06
5.2204e-06
3.4578e-06
2.7749e-06
3.96357e-06
5.00075e-06
3.30992e-06
2.68631e-06
3.799e-06
4.79177e-06
3.1597e-06
2.59685e-06
3.633e-06
4.58007e-06
3.00534e-06
2.50417e-06
3.46484e-06
4.35824e-06
2.84851e-06
2.40656e-06
3.29467e-06
4.12661e-06
2.69168e-06
2.30352e-06
3.1229e-06
3.88912e-06
2.53603e-06
2.19479e-06
2.95025e-06
3.6499e-06
2.38052e-06
2.07825e-06
2.77748e-06
3.41183e-06
2.22095e-06
1.94347e-06
2.60469e-06
3.17625e-06
2.05494e-06
1.8015e-06
2.43073e-06
2.94324e-06
1.89422e-06
1.66372e-06
2.25143e-06
2.71217e-06
1.73892e-06
1.52989e-06
2.06993e-06
2.48077e-06
1.58745e-06
1.39844e-06
1.89086e-06
2.25279e-06
1.43891e-06
1.26832e-06
1.71458e-06
2.03029e-06
1.29322e-06
1.13921e-06
1.5411e-06
1.81383e-06
1.15068e-06
1.01157e-06