/*--------------------------------*- C++ -*----------------------------------*\
| =========                 |                                                 |
| \\      /  F ield         | OpenFOAM: The Open Source CFD Toolbox           |
|  \\    /   O peration     | Version:  v1906                                 |
|   \\  /    A nd           | Web:      www.OpenFOAM.com                      |
|    \\/     M anipulation  |                                                 |
\*---------------------------------------------------------------------------*/
FoamFile
{
    version     2.0;
    format      ascii;
    class       volScalarField;
    location    "98.8";
    object      p;
}
// * * * * * * * * * * * * * * * * * * * * * * * * * * * * * * * * * * * * * //

dimensions      [1 -1 -2 0 0 0 0];


internalField   nonuniform List<scalar> 
2528
(
100000
100324
100146
100311
100000
100324
100146
100311
100000
100324
100146
100311
100000
100324
100146
100311
100001
100324
100146
100311
100001
100324
100146
100311
100001
100324
100146
100311
100001
100324
100146
100311
100002
100324
100146
100311
100002
100324
100146
100311
100002
100323
100146
100310
100003
100323
100147
100310
100003
100323
100147
100310
100004
100323
100147
100309
100005
100322
100148
100309
100005
100322
100148
100309
100006
100321
100148
100308
100007
100321
100149
100308
100008
100320
100149
100307
100009
100320
100150
100307
100010
100319
100151
100306
100012
100318
100151
100305
100013
100317
100152
100304
100015
100316
100153
100303
100017
100315
100154
100302
100018
100314
100155
100301
100020
100313
100156
100300
100022
100312
100156
100299
100024
100310
100158
100298
100027
100309
100159
100297
100029
100308
100160
100295
100032
100306
100161
100294
100034
100304
100163
100292
100037
100303
100164
100291
100040
100301
100165
100289
100043
100299
100167
100288
100046
100297
100168
100286
100049
100295
100170
100284
100052
100293
100171
100283
100055
100291
100173
100281
100059
100289
100174
100279
100062
100287
100176
100277
100066
100285
100177
100276
100069
100282
100178
100274
100073
100281
100180
100272
100077
100279
100181
100270
100079
100278
100183
100268
100081
100276
100184
100266
100083
100274
100185
100264
100085
100272
100187
100262
100088
100269
100188
100260
100093
100267
100189
100258
100097
100264
100190
100256
100102
100262
100191
100254
100106
100259
100192
100252
100110
100257
100193
100249
100114
100254
100194
100247
100119
100252
100195
100245
100123
100250
100196
100243
100128
100247
100197
100241
100132
100245
100197
100239
100136
100242
100198
100236
100141
100240
100199
100234
100145
100238
100199
100232
100149
100235
100200
100229
100154
100233
100200
100227
100158
100231
100201
100225
100162
100229
100201
100223
100166
100227
100202
100220
100169
100225
100202
100218
100171
100223
100202
100216
100174
100221
100203
100215
100177
100219
100203
100214
100182
100217
100204
100214
100186
100215
100204
100212
100190
100213
100204
100211
100194
100212
100204
100208
100198
100210
100204
100206
100202
100208
100205
100204
100159
100141
100145
100144
100159
100141
100145
100144
100159
100141
100145
100144
100159
100141
100145
100144
100159
100141
100145
100144
100159
100141
100145
100144
100159
100142
100145
100144
100159
100142
100145
100144
100159
100142
100145
100144
100159
100142
100145
100144
100159
100142
100145
100144
100159
100142
100145
100144
100159
100142
100145
100144
100159
100142
100145
100145
100159
100142
100145
100145
100159
100142
100145
100145
100159
100142
100145
100145
100159
100142
100145
100145
100159
100142
100145
100145
100159
100142
100145
100145
100159
100142
100145
100145
100159
100142
100145
100145
100159
100142
100145
100145
100159
100142
100145
100145
100159
100142
100145
100145
100158
100142
100145
100145
100158
100142
100145
100145
100158
100142
100145
100145
100158
100143
100145
100145
100158
100143
100145
100145
100158
100143
100145
100145
100158
100143
100145
100146
100158
100143
100145
100146
100158
100143
100145
100146
100158
100143
100145
100146
100157
100143
100145
100146
100157
100143
100145
100146
100157
100144
100145
100146
100157
100144
100145
100146
100157
100144
100145
100146
100157
100144
100145
100147
100157
100144
100145
100147
100157
100144
100145
100147
100156
100144
100145
100147
100156
100145
100144
100147
100156
100145
100144
100147
100156
100145
100144
100147
100156
100145
100144
100148
100156
100145
100144
100148
100155
100145
100144
100148
100155
100145
100144
100148
100155
100146
100144
100148
100155
100146
100144
100148
100155
100146
100144
100148
100155
100146
100144
100149
100155
100146
100144
100149
100155
100146
100144
100149
100154
100147
100144
100149
100154
100147
100145
100149
100154
100147
100145
100149
100154
100147
100145
100149
100154
100147
100145
100149
100154
100147
100145
100150
100154
100148
100145
100150
100154
100148
100145
100150
100154
100148
100145
100150
100153
100148
100145
100150
100153
100148
100145
100150
100153
100148
100145
100150
100153
100148
100145
100150
100153
100148
100145
100150
100153
100148
100145
100150
100153
100149
100146
100150
100153
100149
100146
100150
100153
100149
100146
100150
100153
100149
100146
100150
100153
100149
100146
100150
100153
100149
100146
100150
100153
100149
100146
100150
99659
99792.7
99735.7
99800.2
99659
99792.7
99735.7
99800.2
99659
99792.7
99735.7
99800.2
99659
99792.7
99735.7
99800.1
99659.1
99792.7
99735.8
99800.1
99659.1
99792.7
99735.8
99800.1
99659.2
99792.6
99735.8
99800.1
99659.2
99792.6
99735.8
99800
99659.3
99792.6
99735.9
99800
99659.4
99792.5
99735.9
99799.9
99659.5
99792.5
99735.9
99799.9
99659.6
99792.4
99736
99799.8
99659.7
99792.3
99736.1
99799.7
99659.9
99792.3
99736.1
99799.6
99660.1
99792.2
99736.2
99799.5
99660.3
99792.1
99736.3
99799.4
99660.6
99792
99736.4
99799.2
99660.9
99791.8
99736.5
99799.1
99661.2
99791.7
99736.7
99798.9
99661.5
99791.5
99736.8
99798.7
99661.9
99791.4
99737
99798.5
99662.3
99791.2
99737.1
99798.3
99662.7
99791
99737.3
99798.1
99663.2
99790.8
99737.5
99797.9
99663.7
99790.6
99737.7
99797.6
99664.3
99790.4
99737.9
99797.3
99665
99790.1
99738.1
99797
99665.7
99789.8
99738.4
99796.6
99666.5
99789.5
99738.6
99796.2
99667.3
99789.2
99738.9
99795.9
99668.2
99788.9
99739.2
99795.5
99669.1
99788.5
99739.6
99795.2
99670
99788.2
99739.9
99794.9
99671.1
99787.8
99740.3
99794.5
99672.2
99787.4
99740.6
99794
99673.3
99786.9
99741
99793.5
99674.2
99786.5
99741.4
99793
99674.9
99786
99741.9
99792.5
99675.6
99785.6
99742.3
99791.9
99676.5
99785.3
99742.8
99791.3
99677.6
99785
99743.2
99790.7
99679.1
99784.7
99743.7
99790.2
99680.6
99784.3
99744.2
99789.7
99682.1
99783.8
99744.7
99789.4
99683.7
99783.2
99745.2
99789.1
99685.2
99782.6
99745.5
99788.7
99686.8
99782
99745.8
99788.1
99688.4
99781.4
99746
99787.4
99690.1
99780.8
99746.4
99786.7
99691.8
99780.1
99746.9
99786
99693.5
99779.5
99747.4
99785.3
99695.2
99778.8
99748
99784.6
99696.9
99778.1
99748.6
99783.8
99698.7
99777.4
99749.1
99783.1
99700.4
99776.7
99749.6
99782.3
99702.2
99775.9
99749.9
99781.5
99704.1
99775.2
99750.2
99780.7
99705.9
99774.5
99750.6
99779.9
99707.5
99773.7
99751.2
99779.1
99708.5
99772.9
99751.8
99778.2
99709.1
99772.2
99752.4
99777.4
99709.6
99771.4
99753
99776.5
99710.6
99770.6
99753.7
99775.6
99712
99769.8
99754.3
99774.7
99713.7
99769
99755
99773.8
99715.4
99768.2
99755.6
99772.9
99717.1
99767.4
99756.2
99772
99718.8
99766.6
99756.9
99771.1
99720.5
99765.8
99757.5
99770.2
99722.2
99765
99758.2
99769.3
99723.9
99764.3
99758.8
99768.4
99725.6
99763.6
99759.5
99767.5
99727.4
99763.3
99760.2
99766.6
99729.1
99763.1
99760.8
99765.8
99730.9
99763
99761.5
99764.9
99732.6
99762.7
99762.2
99764.1
99734.4
99762.1
99762.8
99763.3
99736.1
99761.4
99763.4
99762.5
99737.7
99760.7
99764
99761.8
99214.4
99241.1
99190.7
99229.5
99214.4
99241.1
99190.7
99229.5
99214.4
99241.1
99190.7
99229.5
99214.4
99241.1
99190.7
99229.4
99214.4
99241
99190.7
99229.4
99214.4
99241
99190.7
99229.4
99214.4
99241
99190.7
99229.4
99214.4
99241
99190.8
99229.4
99214.4
99241
99190.8
99229.4
99214.4
99240.9
99190.8
99229.3
99214.4
99240.9
99190.9
99229.3
99214.5
99240.8
99190.9
99229.2
99214.5
99240.8
99191
99229.2
99214.5
99240.7
99191.1
99229.1
99214.5
99240.6
99191.2
99229.1
99214.5
99240.6
99191.3
99229
99214.5
99240.5
99191.4
99228.9
99214.5
99240.4
99191.5
99228.8
99214.6
99240.3
99191.7
99228.8
99214.6
99240.1
99191.9
99228.7
99214.6
99240
99192
99228.5
99214.6
99239.8
99192.2
99228.4
99214.7
99239.7
99192.5
99228.3
99214.7
99239.5
99192.7
99228.1
99214.7
99239.3
99193
99228
99214.8
99239.1
99193.2
99227.8
99214.8
99238.8
99193.5
99227.7
99214.9
99238.6
99193.9
99227.5
99214.9
99238.3
99194.2
99227.3
99215
99238
99194.6
99227
99215
99237.7
99195
99226.8
99215.1
99237.4
99195.4
99226.6
99215.1
99237.1
99195.8
99226.3
99215.2
99236.7
99196.2
99226.1
99215.2
99236.4
99196.7
99225.8
99215.3
99236
99197.2
99225.5
99215.4
99235.6
99197.7
99225.2
99215.4
99235.2
99198.2
99224.9
99215.5
99234.7
99198.8
99224.6
99215.6
99234.3
99199.3
99224.3
99215.7
99233.8
99199.9
99224
99215.7
99233.3
99200.5
99223.6
99215.8
99232.8
99201.1
99223.3
99215.9
99232.3
99201.7
99222.9
99215.9
99231.8
99202.3
99222.6
99216
99231.2
99203
99222.2
99216.1
99230.7
99203.6
99221.8
99216.2
99230.2
99204.2
99221.4
99216.2
99229.6
99204.9
99221
99216.3
99229
99205.5
99220.6
99216.4
99228.4
99206.2
99220.2
99216.4
99227.8
99206.9
99219.8
99216.5
99227.3
99207.5
99219.4
99216.6
99226.7
99208.2
99219
99216.6
99226.1
99208.8
99218.6
99216.7
99225.5
99209.5
99218.2
99216.7
99224.9
99210.1
99217.8
99216.8
99224.3
99210.7
99217.4
99216.8
99223.7
99211.4
99217
99216.9
99223.2
99212
99216.6
99216.9
99222.6
99212.6
99216.2
99217
99222.1
99213.2
99215.8
99217
99221.5
99213.7
99215.4
99217.1
99221
99214.3
99215.1
99217.1
99220.5
99214.8
99214.8
99217.1
99220
99215.3
99214.4
99217.1
99219.6
99215.8
99214.1
99217.2
99219.1
99216.3
99213.8
99217.2
99218.7
99216.8
99213.6
99217.2
99218.3
99217.2
99213.3
99217.2
99218
99217.6
99213
99217.2
99217.6
99218
99212.8
99217.3
99217.3
99218.3
99212.6
99217.3
99217
99218.6
99212.4
99217.3
99216.8
99218.9
99212.2
99217.3
99216.5
99219.2
99212
99217.3
99216.3
99219.4
99211.8
99217.3
99216
99219.7
99211.7
99217.3
99215.8
99219.9
99211.5
100206
100207
100205
100202
100209
100205
100206
100201
100213
100204
100207
100199
100218
100202
100208
100196
100222
100201
100209
100194
100226
100199
100209
100192
100230
100197
100210
100190
100235
100196
100212
100187
100239
100194
100213
100185
100243
100192
100214
100182
100248
100190
100215
100179
100252
100188
100216
100177
100257
100186
100217
100174
100261
100185
100219
100171
100266
100183
100220
100169
100270
100181
100222
100166
100275
100179
100223
100163
100279
100177
100225
100160
100284
100175
100226
100157
100288
100173
100228
100155
100293
100171
100229
100152
100297
100169
100231
100149
100301
100167
100233
100146
100306
100166
100234
100144
100310
100164
100236
100141
100314
100162
100238
100138
100318
100160
100240
100136
100322
100158
100241
100134
100326
100157
100243
100133
100329
100156
100245
100132
100332
100155
100246
100131
100335
100154
100248
100129
100337
100153
100250
100127
100340
100151
100251
100125
100343
100149
100253
100123
100346
100147
100254
100120
100348
100145
100256
100118
100351
100144
100257
100116
100354
100142
100259
100115
100356
100140
100260
100113
100359
100139
100262
100111
100361
100137
100263
100109
100363
100136
100264
100108
100365
100134
100265
100106
100366
100133
100266
100105
100368
100132
100267
100104
100369
100131
100268
100103
100371
100129
100269
100102
100372
100128
100270
100101
100373
100127
100271
100100
100374
100127
100272
100099
100375
100126
100273
100098
100376
100125
100273
100098
100377
100124
100274
100097
100378
100124
100275
100096
100379
100123
100275
100096
100380
100123
100276
100095
100380
100122
100276
100095
100381
100122
100277
100094
100381
100121
100277
100094
100382
100121
100278
100094
100382
100121
100278
100093
100382
100120
100278
100093
100383
100120
100278
100093
100383
100120
100279
100093
100383
100120
100279
100092
100383
100119
100279
100092
100384
100119
100279
100092
100384
100119
100279
100092
100384
100119
100279
100092
100384
100119
100279
100092
100384
100119
100279
100092
100384
100119
100279
100092
100385
100119
100280
100091
100385
100119
100280
100091
100385
100119
100280
100091
100385
100118
100280
100091
100385
100118
100280
100091
100385
100118
100280
100091
100153
100149
100146
100150
100153
100149
100146
100150
100153
100149
100146
100150
100153
100149
100146
100150
100153
100149
100146
100150
100153
100149
100146
100150
100153
100149
100146
100150
100152
100149
100146
100150
100152
100149
100146
100150
100152
100149
100146
100150
100152
100149
100146
100150
100152
100149
100145
100150
100151
100149
100145
100150
100151
100149
100145
100150
100151
100149
100145
100150
100151
100149
100145
100150
100150
100149
100145
100150
100150
100149
100145
100150
100150
100149
100145
100150
100149
100149
100145
100150
100149
100149
100144
100150
100149
100149
100144
100150
100148
100149
100144
100150
100148
100149
100144
100150
100148
100149
100144
100150
100147
100149
100144
100150
100147
100149
100144
100150
100147
100149
100143
100151
100146
100149
100143
100151
100146
100149
100143
100151
100146
100149
100143
100151
100145
100149
100143
100151
100145
100149
100142
100151
100145
100150
100142
100151
100144
100150
100142
100151
100144
100150
100142
100151
100144
100150
100142
100151
100143
100150
100142
100151
100143
100150
100142
100151
100143
100150
100141
100151
100142
100150
100141
100152
100142
100150
100141
100152
100142
100150
100141
100152
100142
100150
100141
100152
100142
100151
100141
100152
100141
100151
100141
100152
100141
100151
100140
100152
100141
100151
100140
100152
100141
100151
100140
100152
100141
100151
100140
100152
100140
100151
100140
100152
100140
100151
100140
100152
100140
100151
100140
100152
100140
100151
100140
100152
100140
100151
100140
100152
100140
100151
100140
100152
100140
100151
100140
100152
100140
100151
100140
100152
100140
100151
100140
100152
100139
100151
100140
100152
100139
100151
100140
100152
100139
100151
100139
100152
100139
100151
100139
100153
100139
100151
100139
100153
100139
100151
100139
100153
100139
100151
100139
100153
100139
100151
100139
100153
100139
100151
100139
100153
100139
100151
100139
100153
100139
100151
100139
100153
100139
100151
100139
100153
100139
100151
100139
100153
100139
100151
100139
100153
100139
100151
100139
100153
100139
100151
100139
100153
100139
100151
100139
100153
100139
100151
100139
100153
100139
100151
100139
100153
100139
100151
100139
100153
99739.3
99759.9
99764.6
99761.4
99741
99759.1
99765.2
99761.1
99742.7
99758.2
99765.8
99760.8
99744.4
99757.2
99766.4
99760.2
99746.2
99756.2
99767
99759.1
99748
99755.1
99767.7
99757.8
99749.9
99753.9
99768.4
99756.4
99751.8
99752.7
99769.2
99754.9
99753.8
99751.5
99770
99753.4
99755.9
99750.3
99770.8
99751.9
99757.9
99749
99771.7
99750.4
99760
99747.8
99772.6
99748.9
99762.2
99746.5
99773.4
99747.3
99764.4
99745.2
99773.9
99745.8
99766.5
99743.8
99774.2
99744.2
99767.9
99742.5
99774.5
99742.7
99768.7
99741.2
99775.1
99741.1
99769.5
99739.8
99776
99739.5
99770.7
99738.5
99777.2
99738.4
99772.7
99737.1
99778.5
99737.6
99775.3
99735.7
99779.7
99737
99778.3
99734.3
99781
99736.3
99781.2
99732.8
99782.3
99735.1
99784.1
99731.4
99783.6
99733.4
99787
99729.9
99785
99731.5
99790
99728.4
99786.3
99729.6
99793
99726.9
99787.7
99727.7
99795.9
99725.4
99789.1
99725.7
99798.1
99723.9
99790.4
99723.8
99799.7
99722.8
99791.8
99722.2
99801.1
99722
99793.2
99720.9
99802.8
99721.4
99794.5
99719.6
99804.9
99720.6
99795.9
99718.1
99807.5
99719.4
99797.2
99716.4
99810.2
99717.9
99798.5
99714.5
99812.9
99716.2
99799.8
99712.8
99815.4
99714.5
99801.1
99711
99817.8
99712.9
99802.4
99709.3
99819.9
99711.3
99803.7
99707.7
99821.6
99709.8
99804.9
99706.1
99823.1
99708.3
99806.1
99704.6
99824.7
99706.9
99807.3
99703.2
99826.5
99705.5
99808.4
99701.9
99828.4
99704.1
99809.5
99700.6
99830.2
99702.8
99810.6
99699.3
99832
99701.5
99811.6
99698.1
99833.6
99700.3
99812.6
99696.9
99835.1
99699.2
99813.5
99695.7
99836.6
99698
99814.4
99694.7
99837.9
99697
99815.3
99693.7
99839.2
99696
99816.1
99692.7
99840.4
99695.1
99816.9
99691.9
99841.4
99694.2
99817.6
99691
99842.5
99693.4
99818.3
99690.3
99843.4
99692.6
99819
99689.6
99844.2
99691.9
99819.6
99689
99845
99691.3
99820.1
99688.4
99845.7
99690.7
99820.6
99687.9
99846.3
99690.2
99821.1
99687.4
99846.8
99689.7
99821.5
99687
99847.3
99689.3
99821.8
99686.7
99847.7
99688.9
99822.1
99686.3
99848
99688.6
99822.4
99686.1
99848.4
99688.4
99822.6
99685.8
99848.6
99688.1
99822.9
99685.6
99848.9
99687.9
99823
99685.4
99849.1
99687.7
99823.2
99685.3
99849.2
99687.6
99823.3
99685.1
99849.4
99687.5
99823.4
99685
99849.5
99687.4
99823.5
99684.9
99849.6
99687.3
99823.6
99684.8
99849.7
99687.2
99823.7
99684.7
99849.8
99687.1
99823.7
99684.6
99849.9
99687.1
99823.8
99684.5
99850
99687
99823.8
99684.5
99850
99687
99823.8
99684.4
99850.1
99686.9
99823.9
99684.4
99850.1
99686.9
99823.9
99684.4
99850.1
99686.9
99823.9
99684.3
99217.3
99215.6
99220.2
99211.5
99217.3
99215.5
99220.4
99211.4
99217.3
99215.3
99220.7
99211.4
99217.3
99215.1
99221
99211.3
99217.4
99215
99221.3
99211.3
99217.4
99214.8
99221.6
99211.2
99217.4
99214.6
99221.9
99211.2
99217.4
99214.5
99222.2
99211.1
99217.4
99214.3
99222.4
99211.1
99217.4
99214.2
99222.7
99211
99217.4
99214
99223
99211
99217.4
99213.9
99223.3
99211
99217.4
99213.7
99223.6
99210.9
99217.4
99213.6
99223.9
99210.9
99217.4
99213.4
99224.2
99210.8
99217.4
99213.3
99224.5
99210.8
99217.3
99213.1
99224.8
99210.7
99217.3
99213
99225.1
99210.7
99217.3
99212.9
99225.4
99210.6
99217.3
99212.7
99225.7
99210.6
99217.3
99212.6
99226
99210.6
99217.2
99212.5
99226.3
99210.5
99217.2
99212.3
99226.6
99210.5
99217.2
99212.2
99226.9
99210.5
99217.1
99212.1
99227.2
99210.4
99217.1
99212
99227.5
99210.4
99217
99211.9
99227.8
99210.3
99217
99211.8
99228
99210.3
99216.9
99211.7
99228.3
99210.3
99216.9
99211.6
99228.6
99210.3
99216.8
99211.4
99228.9
99210.2
99216.8
99211.4
99229.1
99210.2
99216.7
99211.3
99229.4
99210.2
99216.7
99211.2
99229.6
99210.2
99216.6
99211.1
99229.8
99210.2
99216.6
99211
99230
99210.1
99216.5
99210.9
99230.2
99210.1
99216.5
99210.8
99230.4
99210.1
99216.4
99210.7
99230.6
99210.1
99216.3
99210.7
99230.8
99210.1
99216.3
99210.6
99231
99210.1
99216.2
99210.5
99231.1
99210
99216.2
99210.4
99231.3
99210
99216.2
99210.4
99231.4
99210
99216.1
99210.3
99231.6
99210
99216.1
99210.3
99231.7
99210
99216
99210.2
99231.8
99210
99216
99210.2
99231.9
99210
99215.9
99210.1
99232
99210
99215.9
99210.1
99232.1
99210
99215.9
99210
99232.2
99210
99215.8
99210
99232.3
99210
99215.8
99210
99232.4
99210
99215.8
99209.9
99232.5
99210
99215.7
99209.9
99232.6
99210
99215.7
99209.9
99232.6
99210
99215.7
99209.9
99232.7
99210
99215.7
99209.8
99232.7
99210
99215.6
99209.8
99232.8
99210
99215.6
99209.8
99232.8
99210
99215.6
99209.8
99232.9
99210
99215.6
99209.8
99232.9
99210
99215.6
99209.7
99233
99210
99215.6
99209.7
99233
99210
99215.6
99209.7
99233
99210
99215.6
99209.7
99233
99210
99215.6
99209.7
99233
99210
99215.5
99209.7
99233.1
99210
99215.5
99209.7
99233.1
99210
99215.5
99209.7
99233.1
99209.9
99215.5
99209.7
99233.1
99209.9
99215.5
99209.7
99233.1
99209.9
99215.5
99209.7
99233.1
99209.9
99215.5
99209.7
99233.1
99209.9
99215.5
99209.7
99233.1
99209.9
99215.5
99209.7
99233.1
99209.9
99215.5
99209.7
99233.1
99209.9
99215.5
99209.7
99233.1
99209.9
99215.5
99209.7
99233.1
99209.9
)
;

boundaryField
{
    leftWall
    {
        type            calculated;
        value           nonuniform List<scalar> 
16
(
100000
100159
99659
99214.4
100324
100141
99792.7
99241.1
100146
100145
99735.7
99190.7
100311
100144
99800.2
99229.5
)
;
    }
    rightWall
    {
        type            calculated;
        value           nonuniform List<scalar> 
16
(
100385
100139
99850.1
99215.5
100118
100151
99686.9
99209.7
100280
100139
99823.9
99233.1
100091
100153
99684.3
99209.9
)
;
    }
    leftSides_periodic0
    {
        type            cyclic;
    }
    leftSides_periodic1
    {
        type            cyclic;
    }
    rightSides_periodic0
    {
        type            cyclic;
    }
    rightSides_periodic1
    {
        type            cyclic;
    }
    leftInOut_periodic0
    {
        type            cyclic;
    }
    leftInOut_periodic1
    {
        type            cyclic;
    }
    rightInOut_periodic0
    {
        type            cyclic;
    }
    rightInOut_periodic1
    {
        type            cyclic;
    }
}


// ************************************************************************* //
