/*--------------------------------*- C++ -*----------------------------------*\
| =========                 |                                                 |
| \\      /  F ield         | OpenFOAM: The Open Source CFD Toolbox           |
|  \\    /   O peration     | Version:  v1906                                 |
|   \\  /    A nd           | Web:      www.OpenFOAM.com                      |
|    \\/     M anipulation  |                                                 |
\*---------------------------------------------------------------------------*/
FoamFile
{
    version     2.0;
    format      ascii;
    class       volScalarField;
    location    "98.8";
    object      pPrime2Mean;
}
// * * * * * * * * * * * * * * * * * * * * * * * * * * * * * * * * * * * * * //

dimensions      [2 -2 -4 0 0 0 0];


internalField   nonuniform List<scalar> 
2528
(
-1.33514e-05
39395.3
3035.06
38946.3
0.00716209
39390.6
3035.61
38941.4
0.0408592
39383.1
3036.54
38933.7
0.115744
39371.6
3038.03
38921.8
0.236256
39355
3040.21
38904.6
0.416481
39333.2
3043.09
38882
0.667225
39305.7
3046.75
38853.6
1.00589
39272.1
3051.25
38818.6
1.45672
39231.5
3056.71
38776.4
2.05092
39182.9
3063.25
38726
2.8321
39125.2
3071.05
38665.9
3.85293
39056.9
3080.28
38594.7
5.17985
38976.6
3091.12
38511
6.89275
38883
3103.72
38413.3
9.08737
38774.8
3118.29
38300.3
11.8798
38650.8
3135.01
38170.8
15.4099
38509.6
3154.12
38023.6
19.843
38350.2
3175.82
37857.5
25.3702
38171.3
3200.36
37671.4
32.2103
37972.2
3228
37464.6
40.6079
37751.9
3259.04
37236.1
50.8415
37510
3293.8
36985.7
63.2268
37246.1
3332.58
36712.9
78.107
36960.3
3375.67
36417.7
95.8388
36652.5
3423.3
36100.3
116.795
36323.1
3475.74
35761.3
141.378
35972.7
3533.24
35401.3
170.014
35602.1
3596
35020.6
203.134
35212.2
3664.21
34620
241.171
34804.1
3738.08
34200.1
284.56
34378.8
3817.92
33762.1
333.718
33937.2
3904.06
33307.6
389.047
33480.4
3996.76
32839
450.856
33010.9
4096.15
32359.5
519.21
32531.2
4201.96
31871.7
594.015
32041.9
4313.48
31375.2
675.318
31540.7
4429.65
30867.4
763.257
31025.7
4549.7
30345.5
857.763
30497.8
4674.26
29809.9
958.769
29962.1
4805.4
29264.6
1066.65
29424.1
4944.85
28714.5
1182.17
28886.2
5092.92
28163.1
1305.95
28347.9
5248.77
27611.5
1437.6
27808.7
5412
27058.3
1576.12
27269.1
5583.47
26500.9
1721.62
26730
5763.67
25937.6
1875.53
26190.3
5951.52
25368.6
2039.4
25647.3
6145.28
24797.4
2213.34
25101.4
6343.61
24228.8
2395.58
24556.8
6545.63
23666.2
2584.34
24017.6
6750.94
23111.1
2779.63
23485.8
6960.37
22562.4
2983.07
22961.1
7176.11
22017.6
3196.04
22443.4
7399.91
21475.9
3418.14
21933.6
7631.66
20938.9
3647.65
21431.6
7869.94
20409.7
3883.03
20937.1
8113.78
19889.7
4123.76
20450.1
8362.53
19378.6
4370.3
19972.3
8615.19
18876.5
4623.28
19506.5
8871.12
18385.4
4882.77
19053.6
9130.26
17905.9
5147.11
18611.9
9392.23
17436.8
5412.16
18178.5
9655.28
16976.1
5673.67
17752.3
9917.32
16523.9
5931.46
17335.9
10178.5
16082.1
6190.37
16933.3
10442.2
15652.5
6455.69
16544.9
10711.4
15234.1
6728.42
16167
10984.7
14823.5
7005.67
15795.9
11258.5
14418.8
7284.92
15431.9
11531
14021.1
7565.91
15078.7
11802.3
13633.3
7848.9
14739
12072.9
13256.6
8132.95
14412
12343.1
12890.2
8416.08
14094.3
12612.7
12533.1
8696.18
13783.9
12880.6
12186.6
8972.38
13481.7
13146.7
11854.4
9245.18
13191.6
13410
11541.6
9514.87
12918.3
13670
11255.1
9783.13
12664
13927.4
10996.4
123228
142462
126431
141616
123228
142461
126431
141616
123229
142460
126432
141614
123230
142458
126434
141613
123232
142456
126437
141610
123235
142453
126440
141607
123238
142448
126444
141602
123242
142443
126449
141597
123247
142436
126455
141590
123253
142428
126463
141582
123260
142419
126471
141573
123269
142408
126482
141561
123278
142395
126494
141548
123290
142380
126507
141532
123302
142362
126523
141514
123317
142341
126541
141494
123333
142318
126560
141472
123351
142291
126582
141447
123372
142262
126607
141419
123394
142230
126634
141389
123419
142194
126663
141356
123445
142155
126695
141319
123475
142113
126730
141280
123507
142066
126768
141237
123541
142017
126809
141191
123578
141963
126852
141141
123618
141906
126899
141088
123661
141845
126949
141033
123707
141781
127002
140974
123756
141713
127059
140911
123808
141641
127119
140845
123863
141564
127182
140775
123921
141484
127248
140701
123981
141400
127318
140625
124043
141315
127390
140548
124108
141226
127465
140470
124176
141134
127545
140390
124247
141038
127630
140307
124323
140939
127719
140220
124403
140836
127813
140129
124487
140729
127909
140035
124572
140619
128008
139937
124661
140506
128112
139835
124754
140393
128219
139730
124850
140280
128328
139622
124950
140164
128440
139513
125053
140042
128556
139404
125162
139911
128678
139296
125279
139775
128808
139186
125404
139637
128943
139073
125535
139500
129085
138959
125671
139366
129231
138842
125813
139232
129384
138724
125960
139096
129541
138603
126108
138959
129703
138482
126257
138821
129867
138360
126406
138682
130032
138239
126558
138541
130199
138118
126716
138398
130369
137997
126881
138255
130541
137875
127052
138114
130715
137754
127228
137977
130889
137634
127408
137843
131065
137515
127590
137711
131244
137397
127774
137580
131427
137280
127958
137453
131615
137163
128143
137329
131807
137045
128327
137208
132002
136925
128516
137090
132202
136804
128713
136973
132409
136682
128917
136859
132621
136561
129130
136745
132839
136442
129351
136632
133062
136326
129579
136521
133290
136214
129815
136411
133521
136106
130055
136300
133751
135999
130291
136183
133974
135885
130514
136053
134180
135760
130712
135900
134361
135616
68132.1
98517.6
68223.4
102743
68126.4
98509
68217.8
102734
68120.6
98498.4
68212.1
102723
68120.1
98489.9
68211.9
102714
68123
98481
68215
102705
68126.7
98469
68219.3
102691
68131.4
98453.7
68224.6
102674
68137.1
98434.7
68231.2
102654
68143.9
98411.8
68239.2
102628
68151.9
98384.6
68248.6
102598
68161.2
98352.5
68259.6
102563
68172.1
98315
68272.6
102521
68184.6
98271.8
68287.4
102474
68198.8
98222.3
68304.5
102419
68214.9
98166.2
68323.7
102357
68233
98102.9
68345.5
102287
68253.3
98032.1
68369.8
102208
68275.8
97953.2
68397.1
102120
68301
97865.9
68427.3
102023
68328.8
97769.8
68460.8
101916
68359.4
97664.5
68497.7
101798
68392.9
97549.3
68538.2
101668
68429.6
97423.7
68582.6
101526
68470.2
97287.1
68631
101371
68515.3
97138.9
68683.6
101202
68564.6
96980
68740.8
101020
68616.9
96812.3
68802.3
100829
68671
96637.4
68867.5
100629
68727.1
96453.4
68936.3
100418
68787.6
96256.9
69009.5
100194
68855
96045.7
69088.5
99950.6
68929.6
95821.2
69173.9
99688.9
69009.4
95586
69265
99411.8
69092.6
95340.4
69360.4
99121.9
69179.2
95082.9
69460.2
98819.1
69271
94811.1
69565.8
98502.2
69369.5
94524.3
69678.8
98170.5
69473.9
94225.9
69798.5
97826
69581.5
93923.2
69921.2
97473.8
69691.9
93620.6
70045.1
97116.2
69808
93314.3
70173.6
96749.1
69934.3
92995.4
70312.7
96366.1
70073.8
92657.8
70466.6
95964.6
70225.5
92303.1
70633.4
95550.1
70386.8
91937.3
70808.1
95129.9
70556.2
91564.7
70988.2
94705.2
70732.9
91186.7
71173.1
94272.7
70916.9
90804.3
71362.7
93831
71108.7
90418
71557.9
93382.1
71308.5
90027.4
71760.6
92929.4
71516.1
89633.8
71973.1
92476
71730.6
89243.1
72195.1
92026.2
71948.7
88864.1
72421.8
91586.9
72164.3
88500.6
72645.9
91161.7
72374.5
88146.1
72864
90745.4
72583.8
87789
73080.5
90325.8
72801.7
87422.5
73305.9
89894
73035.5
87050.6
73547.9
89453.4
73283.9
86680.9
73804.4
89014.4
73540
86315.5
74067.9
88583
73799.4
85953.3
74334.8
88159.5
74060.6
85595.9
74605.6
87744.1
74322.1
85248.7
74881.3
87338.5
74582.7
84916.6
75161.9
86944.9
74840.6
84600.2
75446.5
86562.8
75095.1
84294.8
75732.3
86187.2
75349.4
83993.7
76018.4
85812.4
75609
83694.5
76306.9
85437.6
75877.8
83398.8
76601.4
85066.8
76155.6
83109.2
76903.1
84703.7
76439
82826.3
77211
84348.2
76726.9
82549.8
77523.7
83997.5
77021
82279.9
77841.5
83649.5
77321.2
82016.9
78163.4
83305.8
77625.1
81759.9
78487.7
82970.1
77928.7
81507.4
78810.4
82645.1
78228
81259.2
79124.5
82330.8
78518.3
81016.2
79420.9
82025.6
78795.2
80775.7
79689.2
81722.5
14583.8
15193.7
14240.4
13369.6
14573.7
15183.6
14230.5
13359.8
14562.1
15171.9
14218.9
13348.6
14555.5
15165.4
14212.6
13342.7
14550.8
15160.8
14208.1
13339
14544.4
15154.7
14202
13334
14536.3
15147
14194.1
13327.6
14526.2
15137.5
14184.5
13319.7
14514.2
15126.1
14172.9
13310.1
14500
15112.6
14159.2
13298.7
14483.3
15096.9
14143.1
13285.4
14463.9
15078.6
14124.3
13269.8
14441.5
15057.5
14102.7
13251.8
14415.9
15033.4
14077.8
13231
14386.7
15005.8
14049.7
13207.4
14353.9
14974.6
14017.9
13180.6
14317.1
14939.5
13982.4
13150.4
14276
14900.2
13942.7
13116.7
14230.4
14856.2
13898.7
13079.1
14179.9
14807.4
13850.1
13037.5
14124.3
14753.5
13796.5
12991.7
14063.4
14694.1
13737.9
12941.6
13996.9
14629.1
13674
12887.1
13924.8
14558.4
13604.9
12828.1
13847.2
14481.9
13530.5
12764.7
13763.9
14399.6
13451
12697
13675.3
14311.4
13366.6
12625.1
13581.4
14217.5
13277.3
12549.3
13482.4
14118.1
13183.5
12469.8
13378.6
14013.4
13085.3
12386.8
13270.4
13903.5
12983.2
12300.7
13158
13788.7
12877.3
12211.9
13041.7
13669.4
12768.1
12120.7
12922.2
13546
12656
12027.5
12799.7
13418.8
12541.5
11932.6
12674.8
13288.3
12425.1
11836.8
12548
13155.1
12307.3
11740.6
12419.8
13019.7
12188.7
11644.6
12290.8
12882.7
12069.5
11549
12161.5
12744.6
11950.4
11453.9
12032.5
12605.9
11831.7
11359.6
11904.3
12467.2
11714
11266.8
11777.8
12329.1
11598
11176.1
11653.4
12192.4
11484.1
11087.8
11531.5
12057.9
11372.9
11001.8
11412.1
11926.1
11264.3
10918.3
11295.7
11797.5
11158.7
10837.9
11182.4
11672.5
11056.2
10761.2
11072.8
11551.9
10957.3
10688.6
10967.4
11435.9
10862.3
10620
10866.6
11325
10771.8
10555.3
10770.4
11219.5
10686.2
10494.7
10679
11119.7
10605.8
10438.4
10592.4
11026.6
10530.6
10386.2
10510.8
10940.3
10460.5
10337.6
10434.7
10860.2
10395.4
10292.1
10364.3
10785.7
10335.2
10249.6
10299.3
10715.9
10279.9
10210.2
10239.6
10651
10229.7
10174.4
10185.1
10591.5
10184.4
10141.9
10136
10537.8
10143.8
10112.2
10092.4
10489.7
10107.7
10085.2
10053.7
10446.5
10075.9
10061.4
10019
10407.4
10048.3
10041.4
9987.59
10371.7
10024.9
10025.3
9959.31
10339
10005.1
10012.4
9934.51
10309.7
9988.37
10001.9
9913.53
10283.9
9974.34
9993.09
9896.46
10261.9
9962.85
9985.89
9883.06
10243.2
9953.8
9980.38
9872.81
10227.3
9947
9976.65
9864.97
10214.2
9942.35
9974.74
9858.9
10203.6
9939.92
9974.66
9854.38
10195.2
9939.63
9976.21
9851.51
10188.8
9941.2
9979.1
9850.43
10184.2
9944.35
9983.18
9851.15
10181.2
9948.91
9988.45
9853.53
10179.9
9954.69
9994.61
9857.38
10180
9961.39
10001.2
10056
12423
14189.2
10755.6
10342.8
12183.5
14467.9
10516.2
10650.3
11937.1
14770.3
10266.6
10977.9
11680.5
15095.3
10004
11322.7
11413.3
15439.8
9731.78
11683.3
11137.8
15800.8
9453.95
12058.8
10857.6
16178
9173.17
12448.5
10575.1
16573.1
8889.84
12851.7
10291.3
16986.8
8603.76
13269.1
10006.2
17418.2
8315.64
13701.9
9720.56
17866.6
8026.27
14151.6
9434.91
18331.8
7736.06
14617.7
9148.8
18814.2
7445.36
15099.5
8861.2
19314.2
7154.51
15597.7
8571.74
19832.9
6863.95
16113.4
8281.48
20370.2
6574.99
16645.7
7992.79
20924.6
6289.86
17191.5
7708
21493.7
6010.56
17747.8
7428.18
22075.2
5738.14
18313.1
7153.35
22668.4
5473.31
18886.2
6883.5
23273.2
5217.07
19466.7
6619.58
23889.1
4970.57
20055.1
6363.15
24514.7
4734.58
20652.3
6115.3
25149.5
4509.36
21258
5876.44
25792.9
4294.79
21869.2
5646.88
26443.8
4090.75
22481.2
5427.05
27099.7
3897.49
23091.1
5217.28
27757.2
3715.58
23697.5
5017.81
28412.3
3545.26
24299.3
4828.88
29061.2
3386.36
24894.9
4650.64
29701.7
3238.55
25482.7
4482.95
30333.4
3101.65
26061.9
4325.48
30955.2
2975.44
26632.3
4177.96
31564.7
2859.45
27192.1
4040.19
32159.2
2753.07
27737.8
3912.05
32738.3
2655.96
28266.4
3793.73
33302.6
2567.92
28777.6
3685.79
33852.4
2488.74
29272.6
3588.69
34386
2417.97
29751.9
3501.96
34901.8
2354.54
30213.8
3424.09
35399.6
2297.14
30655.5
3352.95
35879
2244.85
31075.4
3286.86
36338.1
2197.43
31473.8
3225.21
36774.8
2154.98
31853
3168.01
37188.8
2117.28
32215.2
3115.33
37582
2083.75
32561.7
3067.06
37957.1
2053.83
32892
3022.97
38316
2027.19
33204.9
2983.06
38658.4
2003.6
33499.2
2947.36
38982.6
1982.83
33774.9
2915.68
39286.6
1964.65
34032.1
2887.61
39569.4
1948.81
34271
2862.7
39831.5
1935.03
34491.6
2840.55
40073.5
1923.05
34694.6
2820.92
40296.1
1912.63
34880.8
2803.58
40500.3
1903.57
35051
2788.32
40686.9
1895.67
35206.1
2774.89
40856.7
1888.81
35347
2763.08
41011
1882.84
35474.6
2752.67
41150.6
1877.67
35589.7
2743.52
41276.5
1873.17
35693.1
2735.48
41389.5
1869.26
35785.5
2728.44
41490.4
1865.86
35867.7
2722.31
41579.8
1862.92
35940.2
2717
41658.7
1860.38
36003.8
2712.42
41727.6
1858.2
36059.5
2708.48
41787.7
1856.3
36108.5
2705.08
41840.2
1854.64
36151.9
2702.13
41886.4
1853.18
36190.6
2699.54
41927.5
1851.87
36225.4
2697.23
41964.2
1850.7
36256.8
2695.16
41997.3
1849.65
36284.9
2693.31
42026.9
1848.72
36309.6
2691.67
42053
1847.92
36330.8
2690.26
42075.5
1847.23
36348.2
2689.1
42094
1846.68
36360.8
2688.25
42107.3
1846.28
36370
2687.63
42117.1
1845.98
36376.2
2687.2
42123.7
1845.78
130887
135716
134515
135447
131047
135500
134652
135248
131203
135256
134782
135016
131361
134992
134915
134759
131529
134716
135060
134482
131710
134432
135220
134189
131904
134141
135395
133886
132112
133849
135585
133573
132333
133555
135790
133256
132568
133260
136010
132937
132822
132961
136247
132615
133096
132659
136500
132288
133389
132355
136769
131953
133698
132047
137050
131606
134020
131733
137343
131247
134353
131414
137650
130878
134692
131091
137973
130503
135040
130764
138314
130127
135401
130431
138672
129752
135780
130092
139046
129377
136180
129750
139436
128999
136599
129408
139839
128621
137033
129069
140254
128248
137476
128732
140678
127884
137927
128397
141111
127529
138385
128063
141552
127183
138851
127731
142003
126843
139326
127402
142464
126509
139810
127080
142934
126185
140300
126769
143410
125876
140793
126471
143892
125582
141288
126185
144378
125300
141782
125910
144865
125029
142277
125643
145353
124765
142770
125386
145839
124512
143259
125139
146321
124270
143744
124905
146799
124041
144222
124683
147271
123822
144691
124474
147735
123616
145150
124277
148189
123422
145596
124093
148631
123241
146030
123921
149061
123072
146451
123760
149479
122914
146858
123609
149882
122766
147249
123468
150270
122628
147624
123338
150643
122499
147981
123218
150998
122381
148320
123107
151336
122272
148641
123005
151656
122171
148943
122912
151957
122080
149226
122828
152239
121997
149490
122751
152502
121921
149735
122681
152746
121852
149960
122618
152971
121790
150166
122561
153177
121734
150354
122510
153365
121685
150524
122464
153535
121640
150678
122423
153689
121600
150816
122387
153827
121565
150940
122355
153951
121534
151051
122326
154063
121506
151150
122301
154162
121481
151238
122278
154250
121460
151316
122258
154328
121441
151384
122240
154397
121424
151443
122225
154456
121410
151495
122212
154508
121397
151540
122200
154553
121387
151580
122190
154592
121377
151615
122181
154627
121369
151647
122173
154658
121362
151675
122166
154686
121356
151700
122160
154711
121350
151722
122154
154733
121345
151741
122149
154752
121340
151757
122145
154768
121337
151768
122142
154779
121334
151777
122140
154787
121332
151782
122139
154792
121330
79061
80529.2
79930.2
81408.6
79327.3
80267.9
80161.5
81069.8
79604.5
79987.4
80403.7
80698
79898.2
79690.6
80670.3
80299.6
80208.8
79381
80964.1
79887.1
80534.5
79061.2
81282.1
79469.8
80874.6
78733.2
81621.5
79053.2
81230.8
78398.1
81981.6
78639.1
81606.2
78056.9
82361
78227.9
82003
77711
82758.8
77818.3
82421.1
77362.8
83173.6
77406.9
82859.3
77015
83604.3
76991.1
83317.4
76669.4
84049.3
76571.1
83794.7
76326.3
84508
76149.1
84289
75983.9
84984.7
75728.2
84798.2
75641.4
85489.1
75311.4
85323.3
75301.2
86030.2
74899.6
85866.9
74964.7
86610.1
74494.2
86430.1
74629.5
87222.1
74095.6
87012
74295.8
87853.9
73704.8
87610.2
73970.5
88492.2
73324.2
88222.3
73660.7
89127.7
72955.5
88845.6
73365.1
89758.3
72598.3
89478.1
73075.4
90387.8
72250.2
90120.3
72786.6
91022
71908.9
90772.8
72501.7
91664.7
71576.6
91434.1
72225.7
92321
71257.1
92099.7
71961
92998.4
70953.7
92765
71708.9
93702.2
70668.5
93429.6
71469.8
94432.3
70401.5
94099.9
71242.8
95180.1
70150.2
94784.3
71025.5
95933.4
69911.9
95485.3
70815.3
96685.3
69685.5
96196.3
70611.6
97435.6
69471.3
96907.8
70415.2
98186.4
69269.4
97616.4
70226
98938
69078.3
98321.6
70046.5
99686.4
68898.4
99022.7
69881.3
100428
68733
99719.6
69731.1
101164
68586.1
100412
69593.4
101895
68457.9
101099
69464.9
102621
68343.7
101778
69343.1
103338
68238.1
102444
69228.4
104042
68138.9
103093
69122.6
104729
68046.8
103725
69026.4
105397
67963.9
104337
68940.5
106043
67891.6
104925
68864.9
106665
67830.4
105488
68798.5
107260
67779.3
106023
68739.6
107827
67736.2
106529
68686.9
108364
67699.1
107007
68639.9
108872
67666.3
107456
68598.5
109349
67637.6
107877
68562.6
109797
67613.3
108268
68531.7
110213
67593
108629
68505.3
110597
67576.5
108959
68483
110949
67563.2
109260
68464.4
111270
67552.6
109533
68448.9
111560
67544.2
109779
68436.3
111822
67537.6
109999
68425.9
112057
67532.5
110197
68417.4
112267
67528.5
110372
68410.5
112453
67525.4
110527
68404.8
112618
67522.9
110663
68400.1
112762
67520.9
110782
68396.2
112888
67519.4
110886
68392.9
112998
67518.2
110976
68390.3
113093
67517.3
111054
68388.1
113175
67516.7
111122
68386.3
113246
67516.3
111182
68384.8
113309
67516
111235
68383.5
113364
67515.9
111283
68382.4
113414
67515.7
111326
68381.5
113458
67515.6
111363
68380.6
113497
67515.5
111396
68379.7
113530
67515.4
111423
68379
113559
67515.2
111440
68376.1
113577
67512.7
111448
68368.9
113585
67505.7
111452
68362.4
113589
67499.4
9862.63
10181.4
9968.74
10008.4
9869.4
10184.3
9976.75
10016.8
9877.85
10188.9
9985.77
10026.9
9887.94
10195.2
9996.27
10038.9
9899.55
10203.3
10008.6
10052.8
9912.77
10212.9
10023
10068.8
9927.81
10224
10039.2
10086.5
9944.64
10236.9
10056.6
10106
9963.02
10251.8
10075
10127.5
9982.7
10268.9
10094.5
10151.2
10003.5
10288.1
10115.4
10177.4
10025.4
10309.7
10137.8
10206.2
10048.9
10334
10161.9
10237.6
10074.6
10361
10188
10271.6
10103.1
10390.5
10216
10308.1
10134.5
10422.3
10246.1
10347.2
10168.5
10455.8
10278.6
10388.8
10205
10490.7
10313.5
10432.8
10243.6
10527
10350.6
10479.1
10284.5
10565.4
10389.8
10527.9
10327.8
10606.6
10430.7
10579.2
10373.6
10651.5
10473.2
10633
10421.6
10700.4
10517.3
10689
10471.4
10753.4
10562.9
10746.5
10522.8
10810.2
10609.5
10805
10575.4
10870.1
10656.7
10864.1
10628.8
10932.2
10704.3
10924
10683.1
10996
10753
10985.6
10738.6
11061.2
10803.6
11049.2
10795.4
11127.4
10856.2
11114.3
10853
11194.3
10909.9
11180.3
10910.8
11261.1
10963.9
11246.6
10968.4
11327.7
11017.6
11313.6
11026.2
11394.5
11071.5
11381.2
11084.6
11461.1
11125.9
11448.4
11143.8
11526.4
11180.9
11514.3
11203.5
11590.3
11236.3
11579
11263.7
11653.6
11292.1
11643.3
11324
11717.7
11348.5
11708
11384.1
11783.1
11405.2
11772.5
11443.6
11849
11461.6
11836
11502.2
11914.3
11516.8
11897.6
11559.2
11978.3
11569.9
11957.5
11614.3
12040.8
11620.5
12015.6
11667.7
12101.3
11669.1
12071.9
11719.5
12159.7
11716
12126.5
11770
12216.1
11762
12179.2
11818.9
12270.4
11807
12229.8
11865.9
12322.8
11850.9
12278.4
11910.9
12373.1
11893.2
12324.8
11953.8
12421.1
11933.4
12368.9
11994.4
12466.5
11971.5
12410.6
12032.7
12509.3
12007.3
12449.8
12068.6
12549.3
12040.7
12486.4
12102.1
12586.5
12071.9
12520.4
12133.1
12621.1
12100.7
12552
12161.7
12653
12127.3
12581
12188
12682.3
12151.7
12607.8
12211.9
12709.1
12174
12632.2
12233.7
12733.5
12194.2
12654.5
12253.3
12755.5
12212.4
12674.6
12270.8
12775.3
12228.8
12692.6
12286.4
12792.9
12243.3
12708.7
12300.2
12808.4
12256.1
12722.8
12312.1
12821.9
12267.2
12735.2
12322.4
12833.6
12276.8
12745.9
12331.2
12843.7
12285.1
12755.4
12338.8
12852.3
12292.2
12763.6
12345.3
12859.7
12298.4
12771
12351.1
12866.2
12303.9
12777.5
12356.2
12872
12308.8
12783.4
12360.8
12877.2
12313.1
12788.8
12364.9
12881.9
12317.1
12793.6
12368.6
12886.1
12320.6
12797.9
12371.9
12889.8
12323.7
12801.6
12374.6
12892.9
12326.3
12804.7
12373.3
12891.9
12324.9
12803.6
12365.4
12884.3
12316.9
12795.9
12357.9
12877
12309.4
12788.5
)
;

boundaryField
{
    leftWall
    {
        type            calculated;
        value           nonuniform List<scalar> 
16
(
-1.52588e-05
123228
68132.1
14583.8
39395.3
142462
98517.6
15193.7
3035.06
126431
68223.4
14240.4
38946.3
141616
102743
13369.6
)
;
    }
    rightWall
    {
        type            calculated;
        value           nonuniform List<scalar> 
16
(
36376.2
151782
111452
12357.9
2687.2
122139
68362.4
12877
42123.7
154792
113589
12309.4
1845.78
121330
67499.4
12788.5
)
;
    }
    leftSides_periodic0
    {
        type            cyclic;
    }
    leftSides_periodic1
    {
        type            cyclic;
    }
    rightSides_periodic0
    {
        type            cyclic;
    }
    rightSides_periodic1
    {
        type            cyclic;
    }
    leftInOut_periodic0
    {
        type            cyclic;
    }
    leftInOut_periodic1
    {
        type            cyclic;
    }
    rightInOut_periodic0
    {
        type            cyclic;
    }
    rightInOut_periodic1
    {
        type            cyclic;
    }
}


// ************************************************************************* //
