/*--------------------------------*- C++ -*----------------------------------*\
| =========                 |                                                 |
| \\      /  F ield         | OpenFOAM: The Open Source CFD Toolbox           |
|  \\    /   O peration     | Version:  v1906                                 |
|   \\  /    A nd           | Web:      www.OpenFOAM.com                      |
|    \\/     M anipulation  |                                                 |
\*---------------------------------------------------------------------------*/
FoamFile
{
    version     2.0;
    format      ascii;
    class       volScalarField;
    location    "98.8";
    object      T;
}
// * * * * * * * * * * * * * * * * * * * * * * * * * * * * * * * * * * * * * //

dimensions      [0 0 0 1 0 0 0];


internalField   nonuniform List<scalar> 
2528
(
371.439
371.894
371.407
371.318
368.25
369.672
368.208
367.953
364.943
367.42
364.97
364.573
361.618
365.148
361.736
361.231
358.463
362.898
358.664
358.048
355.742
360.769
356.022
355.223
353.641
358.9
353.993
352.93
352.149
357.385
352.538
351.203
351.123
356.224
351.505
349.948
350.409
355.35
350.752
349.034
349.896
354.687
350.177
348.353
349.511
354.171
349.717
347.83
349.208
353.754
349.334
347.411
348.962
353.405
349.008
347.063
348.755
353.105
348.724
346.768
348.579
352.843
348.473
346.512
348.425
352.61
348.248
346.287
348.288
352.399
348.045
346.088
348.165
352.208
347.861
345.909
348.053
352.031
347.693
345.747
347.949
351.869
347.54
345.599
347.853
351.717
347.4
345.464
347.762
351.576
347.272
345.339
347.676
351.443
347.151
345.223
347.594
351.318
347.034
345.115
347.515
351.199
346.919
345.013
347.44
351.085
346.81
344.919
347.366
350.976
346.711
344.829
347.295
350.871
346.626
344.744
347.224
350.771
346.552
344.663
347.156
350.673
346.484
344.585
347.088
350.579
346.421
344.51
347.021
350.487
346.362
344.438
346.955
350.398
346.306
344.369
346.889
350.312
346.254
344.302
346.823
350.228
346.206
344.238
346.758
350.146
346.161
344.176
346.693
350.066
346.12
344.116
346.628
349.989
346.082
344.059
346.563
349.914
346.046
344.003
346.497
349.841
346.014
343.948
346.432
349.77
345.985
343.896
346.365
349.7
345.958
343.846
346.298
349.627
345.934
343.797
346.228
349.55
345.912
343.751
346.155
349.459
345.893
343.706
346.06
349.349
345.877
343.663
345.92
349.255
345.863
343.622
345.778
349.188
345.852
343.582
345.682
349.131
345.844
343.544
345.612
349.074
345.839
343.507
345.547
349.017
345.837
343.472
345.478
348.961
345.838
343.438
345.407
348.904
345.842
343.405
345.333
348.847
345.848
343.374
345.257
348.791
345.858
343.343
345.18
348.734
345.871
343.314
345.101
348.678
345.887
343.286
345.021
348.621
345.907
343.259
344.94
348.565
345.931
343.233
344.857
348.508
345.958
343.208
344.772
348.451
345.987
343.183
344.687
348.394
346.018
343.16
344.601
348.336
346.051
343.137
344.513
348.278
346.087
343.114
344.425
348.219
346.124
343.092
344.335
348.16
346.161
343.07
344.237
348.099
346.199
343.049
344.133
348.038
346.236
343.028
343.997
347.976
346.272
343.007
343.825
347.913
346.306
342.989
343.721
347.849
346.339
342.967
343.643
347.783
346.37
342.931
343.566
347.717
346.398
342.884
343.488
347.651
346.429
342.86
343.409
347.584
346.476
342.848
343.33
347.517
346.546
342.84
343.251
347.451
346.597
342.835
343.171
347.385
346.634
342.833
372.044
371.924
371.67
371.804
370.13
369.756
368.993
369.401
368.21
367.54
366.268
366.964
366.295
365.278
363.508
364.499
364.395
363.015
360.785
362.04
362.536
360.864
358.256
359.667
360.771
358.987
356.105
357.511
359.175
357.487
354.42
355.692
357.811
356.353
353.159
354.252
356.7
355.507
352.221
353.149
355.82
354.866
351.511
352.308
355.124
354.367
350.957
351.656
354.569
353.965
350.512
351.14
354.118
353.632
350.141
350.72
353.739
353.347
349.823
350.369
353.411
353.097
349.545
350.068
353.121
352.873
349.301
349.803
352.86
352.67
349.083
349.566
352.624
352.484
348.887
349.352
352.408
352.313
348.71
349.158
352.208
352.155
348.549
348.979
352.024
352.007
348.402
348.813
351.851
351.868
348.267
348.659
351.689
351.737
348.143
348.515
351.537
351.613
348.028
348.38
351.394
351.496
347.921
348.253
351.259
351.384
347.821
348.132
351.131
351.278
347.727
348.017
351.008
351.176
347.638
347.908
350.89
351.079
347.555
347.803
350.775
350.985
347.477
347.702
350.664
350.895
347.403
347.604
350.558
350.808
347.333
347.509
350.461
350.723
347.266
347.418
350.371
350.64
347.203
347.331
350.285
350.56
347.144
347.248
350.201
350.48
347.087
347.168
350.115
350.402
347.033
347.092
350.029
350.323
346.982
347.018
349.935
350.245
346.933
346.947
349.824
350.167
346.885
346.877
349.711
350.089
346.839
346.809
349.612
350.013
346.792
346.741
349.533
349.94
346.746
346.672
349.466
349.869
346.7
346.603
349.404
349.802
346.65
346.536
349.343
349.737
346.594
346.473
349.284
349.674
346.534
346.413
349.226
349.612
346.476
346.357
349.167
349.55
346.424
346.303
349.107
349.488
346.379
346.249
349.044
349.425
346.335
346.195
348.973
349.364
346.29
346.14
348.882
349.303
346.241
346.086
348.774
349.244
346.184
346.032
348.685
349.186
346.121
345.978
348.618
349.128
346.061
345.925
348.559
349.069
346.009
345.871
348.498
349.011
345.959
345.818
348.435
348.951
345.908
345.764
348.367
348.891
345.855
345.709
348.296
348.83
345.801
345.653
348.223
348.768
345.744
345.595
348.149
348.705
345.686
345.536
348.081
348.64
345.626
345.474
348.021
348.574
345.564
345.408
347.966
348.505
345.5
345.337
347.914
348.433
345.435
345.26
347.866
348.358
345.368
345.174
347.821
348.28
345.299
345.078
347.777
348.197
345.228
344.972
347.73
348.109
345.154
344.857
347.679
348.014
345.078
344.738
347.626
347.911
345
344.621
347.57
347.802
344.918
344.512
347.513
347.691
344.833
344.413
347.454
347.578
344.745
344.323
347.394
347.464
344.653
344.24
347.332
347.347
344.559
344.161
371.662
372.033
371.593
371.54
368.964
370.085
368.772
368.614
366.198
368.094
365.926
365.653
363.369
366.057
363.076
362.674
360.558
363.993
360.284
359.737
357.956
361.966
357.68
356.98
355.777
360.087
355.427
354.581
354.099
358.467
353.623
352.653
352.851
357.151
352.251
351.18
351.917
356.118
351.227
350.074
351.199
355.311
350.457
349.234
350.625
354.672
349.865
348.582
350.149
354.154
349.395
348.059
349.741
353.722
349.01
347.624
349.384
353.35
348.688
347.253
349.068
353.025
348.415
346.931
348.784
352.738
348.182
346.648
348.528
352.481
347.979
346.399
348.295
352.251
347.803
346.176
348.082
352.042
347.649
345.975
347.885
351.851
347.513
345.793
347.701
351.676
347.394
345.627
347.529
351.515
347.288
345.474
347.366
351.364
347.194
345.333
347.216
351.223
347.106
345.202
347.078
351.091
347.023
345.083
346.952
350.97
346.945
344.977
346.834
350.861
346.873
344.881
346.724
350.761
346.811
344.793
346.618
350.667
346.757
344.709
346.518
350.58
346.71
344.621
346.422
350.498
346.667
344.528
346.329
350.42
346.627
344.432
346.24
350.345
346.591
344.347
346.154
350.274
346.558
344.276
346.068
350.206
346.528
344.214
345.973
350.142
346.5
344.156
345.855
350.08
346.475
344.101
345.718
350.016
346.453
344.05
345.603
349.936
346.433
344.002
345.514
349.828
346.415
343.957
345.437
349.707
346.4
343.913
345.364
349.621
346.386
343.861
345.292
349.556
346.374
343.788
345.223
349.495
346.363
343.702
345.155
349.436
346.352
343.646
345.088
349.378
346.34
343.607
345.023
349.321
346.331
343.57
344.958
349.264
346.327
343.536
344.896
349.208
346.325
343.503
344.834
349.152
346.324
343.472
344.774
349.096
346.325
343.443
344.716
349.041
346.327
343.414
344.658
348.986
346.331
343.387
344.602
348.93
346.336
343.362
344.547
348.875
346.346
343.338
344.492
348.82
346.361
343.315
344.439
348.766
346.373
343.293
344.383
348.711
346.383
343.273
344.308
348.656
346.393
343.253
344.178
348.602
346.404
343.236
344.002
348.547
346.416
343.219
343.905
348.493
346.429
343.204
343.841
348.439
346.443
343.191
343.78
348.386
346.458
343.178
343.72
348.333
346.473
343.168
343.661
348.281
346.49
343.158
343.602
348.229
346.508
343.15
343.543
348.177
346.526
343.144
343.484
348.126
346.545
343.138
343.427
348.076
346.566
343.134
343.37
348.026
346.587
343.13
343.313
347.961
346.609
343.127
343.257
347.837
346.632
343.124
343.203
347.637
346.656
343.121
343.149
347.525
346.681
343.117
343.097
347.454
346.706
343.113
343.045
347.389
346.732
343.107
342.994
347.326
346.758
343.1
371.869
371.865
371.542
371.704
369.597
369.585
368.612
369.099
367.298
367.277
365.645
366.462
364.991
364.953
362.677
363.812
362.714
362.658
359.812
361.201
360.537
360.491
357.24
358.734
358.55
358.587
355.148
356.545
356.837
357.041
353.588
354.739
355.435
355.856
352.472
353.331
354.329
354.969
351.672
352.264
353.472
354.302
351.085
351.457
352.806
353.79
350.638
350.837
352.283
353.388
350.284
350.349
351.867
353.062
349.995
349.956
351.528
352.788
349.75
349.629
351.248
352.554
349.538
349.35
351.012
352.35
349.352
349.107
350.81
352.17
349.185
348.894
350.637
352.01
349.033
348.704
350.486
351.866
348.895
348.534
350.353
351.735
348.767
348.38
350.236
351.615
348.647
348.239
350.131
351.504
348.535
348.11
350.036
351.401
348.428
347.991
349.95
351.304
348.325
347.88
349.871
351.213
348.228
347.776
349.798
351.126
348.133
347.679
349.73
351.043
348.042
347.588
349.667
350.963
347.954
347.503
349.608
350.886
347.868
347.421
349.552
350.811
347.785
347.344
349.5
350.737
347.703
347.269
349.45
350.665
347.623
347.197
349.403
350.595
347.544
347.128
349.359
350.526
347.467
347.06
349.317
350.458
347.391
346.994
349.277
350.392
347.316
346.93
349.24
350.326
347.242
346.867
349.204
350.261
347.168
346.806
349.168
350.198
347.096
346.746
349.132
350.135
347.024
346.687
349.095
350.073
346.952
346.63
349.057
350.011
346.881
346.574
349.019
349.948
346.81
346.52
348.979
349.886
346.74
346.466
348.938
349.823
346.67
346.414
348.895
349.76
346.601
346.361
348.85
349.697
346.532
346.309
348.804
349.634
346.463
346.257
348.76
349.572
346.394
346.205
348.718
349.51
346.326
346.154
348.677
349.448
346.259
346.103
348.637
349.385
346.192
346.052
348.598
349.323
346.125
346.001
348.559
349.26
346.059
345.949
348.52
349.197
345.993
345.898
348.483
349.133
345.928
345.846
348.446
349.069
345.863
345.794
348.411
349.004
345.799
345.741
348.38
348.939
345.735
345.688
348.352
348.873
345.673
345.633
348.325
348.805
345.61
345.578
348.292
348.737
345.549
345.52
348.253
348.667
345.487
345.462
348.206
348.596
345.426
345.401
348.153
348.523
345.364
345.339
348.093
348.448
345.302
345.274
348.028
348.371
345.24
345.207
347.957
348.291
345.177
345.138
347.882
348.209
345.112
345.067
347.806
348.124
345.046
344.993
347.732
348.035
344.978
344.918
347.661
347.944
344.908
344.84
347.592
347.85
344.836
344.76
347.524
347.752
344.761
344.678
347.456
347.648
344.684
344.594
347.387
347.537
344.604
344.509
347.317
347.42
344.521
344.422
347.245
347.298
344.436
344.333
343.092
347.32
346.668
342.834
343.014
347.258
346.701
342.837
342.938
347.199
346.734
342.842
342.864
347.142
346.767
342.849
342.793
347.088
346.799
342.856
342.724
347.037
346.833
342.865
342.656
346.987
346.866
342.874
342.59
346.94
346.901
342.884
342.526
346.895
346.935
342.895
342.463
346.851
346.971
342.906
342.401
346.809
347.007
342.918
342.342
346.768
347.043
342.93
342.284
346.729
347.08
342.942
342.227
346.692
347.117
342.955
342.171
346.655
347.154
342.967
342.117
346.62
347.191
342.981
342.064
346.586
347.227
342.994
342.013
346.552
347.264
343.007
341.963
346.52
347.3
343.021
341.914
346.489
347.336
343.034
341.867
346.458
347.371
343.048
341.821
346.429
347.406
343.061
341.777
346.401
347.441
343.075
341.733
346.373
347.475
343.088
341.691
346.347
347.508
343.101
341.65
346.322
347.541
343.114
341.61
346.299
347.574
343.126
341.572
346.277
347.606
343.139
341.534
346.252
347.638
343.159
341.498
346.212
347.669
343.187
341.459
346.159
347.699
343.21
341.411
346.122
347.727
343.221
341.359
346.095
347.754
343.227
341.315
346.068
347.778
343.228
341.275
346.041
347.801
343.227
341.234
346.013
347.822
343.223
341.192
345.985
347.841
343.215
341.149
345.956
347.858
343.205
341.104
345.925
347.873
343.191
341.057
345.893
347.885
343.174
341.008
345.86
347.896
343.153
340.956
345.826
347.904
343.129
340.901
345.789
347.911
343.1
340.841
345.751
347.915
343.066
340.774
345.71
347.915
343.027
340.7
345.668
347.913
342.983
340.62
345.623
347.907
342.933
340.535
345.574
347.898
342.874
340.445
345.522
347.887
342.803
340.349
345.466
347.871
342.717
340.245
345.403
347.851
342.618
340.131
345.331
347.824
342.507
340.006
345.252
347.791
342.387
339.865
345.165
347.752
342.252
339.709
345.071
347.706
342.101
339.534
344.969
347.652
341.929
339.339
344.855
347.588
341.734
339.12
344.728
347.512
341.51
338.873
344.585
347.423
341.255
338.593
344.423
347.318
340.963
338.273
344.237
347.193
340.626
337.905
344.022
347.044
340.236
337.477
343.771
346.866
339.78
336.966
343.474
346.651
339.236
336.341
343.117
346.387
338.565
335.565
342.673
346.06
337.721
334.598
342.1
345.641
336.647
333.402
341.327
345.081
335.293
331.959
340.263
344.289
333.629
330.292
338.794
343.133
331.686
328.467
336.835
341.442
329.556
326.567
334.401
339.071
327.359
324.659
331.628
336.048
325.188
322.778
328.696
332.593
323.093
320.934
325.733
328.955
321.089
319.125
322.802
325.295
319.175
317.345
319.927
321.686
317.338
315.59
317.112
318.152
315.565
313.858
314.358
314.7
313.846
347.268
347.23
344.462
344.087
347.204
347.113
344.367
344.016
347.139
346.999
344.273
343.95
347.073
346.888
344.181
343.887
347.007
346.781
344.091
343.826
346.94
346.677
344.003
343.767
346.873
346.577
343.918
343.711
346.806
346.48
343.835
343.657
346.738
346.386
343.755
343.604
346.67
346.296
343.677
343.553
346.603
346.208
343.602
343.503
346.536
346.123
343.529
343.454
346.47
346.041
343.458
343.406
346.403
345.961
343.39
343.359
346.338
345.882
343.324
343.313
346.272
345.806
343.259
343.268
346.206
345.731
343.197
343.223
346.142
345.658
343.136
343.178
346.078
345.586
343.078
343.134
346.016
345.515
343.02
343.09
345.956
345.445
342.964
343.047
345.896
345.375
342.909
343.004
345.837
345.306
342.856
342.961
345.779
345.238
342.803
342.919
345.72
345.17
342.75
342.877
345.662
345.102
342.699
342.835
345.604
345.034
342.647
342.793
345.546
344.966
342.596
342.752
345.487
344.899
342.546
342.71
345.429
344.832
342.495
342.669
345.371
344.765
342.444
342.628
345.313
344.699
342.394
342.587
345.255
344.633
342.343
342.547
345.197
344.568
342.292
342.507
345.14
344.503
342.241
342.467
345.082
344.439
342.189
342.427
345.025
344.376
342.137
342.388
344.968
344.312
342.084
342.348
344.911
344.249
342.031
342.309
344.855
344.186
341.977
342.269
344.798
344.123
341.921
342.229
344.742
344.06
341.865
342.189
344.686
343.996
341.807
342.148
344.63
343.931
341.748
342.107
344.574
343.866
341.688
342.065
344.518
343.799
341.624
342.022
344.461
343.731
341.558
341.978
344.403
343.661
341.488
341.932
344.344
343.589
341.415
341.885
344.284
343.513
341.337
341.836
344.221
343.434
341.255
341.784
344.155
343.35
341.168
341.729
344.085
343.262
341.076
341.67
344.01
343.168
340.976
341.605
343.929
343.067
340.869
341.533
343.84
342.958
340.753
341.452
343.741
342.838
340.627
341.359
343.627
342.706
340.487
341.251
343.495
342.56
340.333
341.126
343.34
342.396
340.161
340.978
343.154
342.209
339.966
340.803
342.929
341.996
339.745
340.591
342.649
341.747
339.49
340.331
342.291
341.453
339.191
340.005
341.825
341.098
338.836
339.584
341.207
340.653
338.397
339.028
340.381
340.072
337.834
338.286
339.28
339.296
337.091
337.292
337.85
338.242
336.094
335.984
336.068
336.82
334.759
334.329
333.973
334.972
333.031
332.358
331.643
332.727
330.938
330.158
329.173
330.202
328.594
327.834
326.638
327.534
326.133
325.468
324.089
324.823
323.653
323.111
321.557
322.123
321.201
320.787
319.058
319.459
318.797
318.506
316.601
316.839
316.443
316.271
314.19
314.269
314.138
314.081
342.943
347.264
346.785
343.09
342.892
347.205
346.812
343.07
342.843
347.147
346.837
343.055
342.795
347.091
346.861
343.047
342.747
347.038
346.885
343.041
342.7
346.986
346.908
343.036
342.654
346.936
346.93
343.031
342.608
346.887
346.952
343.027
342.563
346.84
346.973
343.023
342.518
346.795
346.994
343.02
342.474
346.75
347.015
343.018
342.43
346.707
347.036
343.016
342.386
346.665
347.059
343.016
342.341
346.624
347.094
343.015
342.293
346.584
347.164
343.016
342.227
346.545
347.221
343.017
342.12
346.507
347.253
343.019
342.025
346.469
347.276
343.022
341.965
346.433
347.298
343.026
341.924
346.398
347.321
343.032
341.89
346.364
347.344
343.041
341.856
346.332
347.367
343.047
341.821
346.3
347.39
343.05
341.785
346.27
347.413
343.053
341.748
346.241
347.436
343.054
341.709
346.212
347.459
343.055
341.668
346.185
347.483
343.055
341.624
346.157
347.506
343.053
341.571
346.13
347.529
343.051
341.499
346.095
347.552
343.048
341.419
346.041
347.575
343.042
341.352
345.982
347.598
343.034
341.297
345.937
347.62
343.026
341.247
345.906
347.641
343.017
341.195
345.88
347.663
343.008
341.141
345.855
347.683
342.997
341.084
345.83
347.703
342.984
341.023
345.804
347.723
342.97
340.955
345.777
347.741
342.953
340.876
345.75
347.759
342.935
340.791
345.722
347.775
342.914
340.71
345.692
347.791
342.889
340.635
345.662
347.805
342.862
340.561
345.63
347.818
342.832
340.486
345.597
347.83
342.8
340.407
345.563
347.839
342.766
340.326
345.527
347.848
342.728
340.241
345.49
347.854
342.686
340.153
345.45
347.858
342.641
340.062
345.407
347.859
342.591
339.966
345.363
347.858
342.537
339.867
345.314
347.854
342.477
339.762
345.263
347.846
342.411
339.653
345.207
347.834
342.338
339.537
345.146
347.817
342.257
339.413
345.08
347.795
342.166
339.282
345.006
347.766
342.064
339.14
344.925
347.729
341.949
338.987
344.833
347.683
341.816
338.818
344.729
347.625
341.663
338.631
344.609
347.551
341.484
338.419
344.469
347.459
341.27
338.175
344.303
347.344
341.011
337.886
344.103
347.198
340.688
337.533
343.855
347.012
340.276
337.091
343.538
346.771
339.739
336.52
343.118
346.449
339.022
335.766
342.538
346.002
338.058
334.764
341.712
345.351
336.771
333.455
340.516
344.37
335.11
331.819
338.815
342.867
333.09
329.903
336.54
340.642
330.796
327.79
333.768
337.636
328.348
325.563
330.677
334.037
325.853
323.281
327.438
330.148
323.376
320.978
324.162
326.197
320.955
318.674
320.906
322.302
318.601
316.385
317.698
318.506
316.316
314.121
314.552
314.814
314.094
347.17
347.171
344.349
344.244
347.094
347.044
344.262
344.157
347.015
346.918
344.177
344.074
346.934
346.795
344.092
343.997
346.845
346.675
344.009
343.925
346.748
346.558
343.928
343.86
346.651
346.445
343.848
343.799
346.561
346.335
343.769
343.743
346.475
346.229
343.692
343.69
346.392
346.127
343.616
343.639
346.312
346.028
343.541
343.591
346.235
345.932
343.467
343.545
346.164
345.84
343.395
343.5
346.102
345.75
343.324
343.456
346.049
345.663
343.255
343.413
345.995
345.578
343.187
343.37
345.939
345.495
343.121
343.328
345.891
345.415
343.056
343.286
345.85
345.336
342.992
343.244
345.813
345.26
342.93
343.202
345.776
345.185
342.869
343.161
345.741
345.112
342.809
343.12
345.705
345.04
342.75
343.079
345.67
344.97
342.691
343.038
345.635
344.901
342.634
342.997
345.6
344.834
342.576
342.956
345.564
344.767
342.52
342.915
345.529
344.702
342.463
342.873
345.492
344.637
342.407
342.827
345.455
344.572
342.351
342.771
345.417
344.506
342.294
342.706
345.376
344.439
342.237
342.639
345.334
344.368
342.179
342.576
345.289
344.297
342.12
342.519
345.242
344.229
342.059
342.468
345.194
344.163
341.996
342.418
345.143
344.1
341.932
342.368
345.09
344.038
341.866
342.316
345.035
343.975
341.798
342.261
344.977
343.911
341.729
342.203
344.916
343.846
341.658
342.14
344.853
343.778
341.585
342.073
344.785
343.707
341.509
342.001
344.713
343.634
341.432
341.925
344.637
343.558
341.352
341.845
344.556
343.48
341.27
341.761
344.47
343.399
341.186
341.671
344.38
343.314
341.1
341.577
344.284
343.226
341.012
341.477
344.182
343.133
340.92
341.371
344.073
343.036
340.825
341.259
343.958
342.934
340.726
341.14
343.834
342.826
340.623
341.013
343.701
342.712
340.514
340.876
343.556
342.591
340.399
340.73
343.398
342.461
340.278
340.573
343.228
342.322
340.149
340.403
343.041
342.171
340.011
340.22
342.837
342.007
339.861
340.021
342.612
341.827
339.699
339.802
342.362
341.628
339.521
339.561
342.082
341.405
339.323
339.291
341.76
341.154
339.101
338.979
341.375
340.866
338.847
338.609
340.903
340.523
338.547
338.156
340.307
340.101
338.18
337.586
339.536
339.56
337.713
336.855
338.523
338.844
337.097
335.904
337.196
337.87
336.257
334.674
335.514
336.536
335.098
333.135
333.497
334.761
333.525
331.311
331.232
332.551
331.519
329.274
328.825
330.025
329.174
327.115
326.358
327.344
326.648
324.905
323.878
324.631
324.072
322.685
321.409
321.948
321.519
320.48
318.963
319.32
319.016
318.3
316.549
316.751
316.57
316.153
314.174
314.239
314.18
314.043
)
;

boundaryField
{
    leftWall
    {
        type            fixedValue;
        value           uniform 373;
    }
    rightWall
    {
        type            fixedValue;
        value           uniform 313;
    }
    leftSides_periodic0
    {
        type            cyclic;
    }
    leftSides_periodic1
    {
        type            cyclic;
    }
    rightSides_periodic0
    {
        type            cyclic;
    }
    rightSides_periodic1
    {
        type            cyclic;
    }
    leftInOut_periodic0
    {
        type            cyclic;
    }
    leftInOut_periodic1
    {
        type            cyclic;
    }
    rightInOut_periodic0
    {
        type            cyclic;
    }
    rightInOut_periodic1
    {
        type            cyclic;
    }
}


// ************************************************************************* //
