/*--------------------------------*- C++ -*----------------------------------*\
| =========                 |                                                 |
| \\      /  F ield         | OpenFOAM: The Open Source CFD Toolbox           |
|  \\    /   O peration     | Version:  v1912                                 |
|   \\  /    A nd           | Website:  www.openfoam.com                      |
|    \\/     M anipulation  |                                                 |
\*---------------------------------------------------------------------------*/
FoamFile
{
    version     2.0;
    format      ascii;
    class       volScalarField;
    location    "98.8";
    object      turbulenceProperties:L;
}
// * * * * * * * * * * * * * * * * * * * * * * * * * * * * * * * * * * * * * //

dimensions      [0 1 0 0 0 0 0];


internalField   nonuniform List<scalar> 
2528
(
1.74118e-08
1.87101e-08
1.89375e-08
2.23831e-08
5.25921e-08
5.52336e-08
6.38415e-08
6.66744e-08
2.82253e-07
2.55834e-07
3.73114e-07
3.12798e-07
1.06789e-06
9.57761e-07
1.41652e-06
1.14951e-06
2.8451e-06
2.5659e-06
3.74007e-06
2.9983e-06
6.01211e-06
5.47393e-06
7.77875e-06
6.19928e-06
1.0812e-05
9.95572e-06
1.36975e-05
1.09112e-05
1.72954e-05
1.60992e-05
2.13768e-05
1.71028e-05
2.53532e-05
2.38134e-05
3.0513e-05
2.46095e-05
3.47795e-05
3.28833e-05
4.07397e-05
3.32077e-05
4.53332e-05
4.30471e-05
5.17266e-05
4.26718e-05
5.67869e-05
5.40522e-05
6.32671e-05
5.28029e-05
6.8995e-05
6.571e-05
7.52718e-05
6.34638e-05
8.1905e-05
7.79421e-05
8.76641e-05
7.46123e-05
9.54553e-05
9.07133e-05
0.000100403
8.62158e-05
0.000109599
0.00010398
0.000113468
9.82544e-05
0.000124283
0.000117716
0.000126852
0.000110712
0.000139453
0.000131907
0.000140555
0.000123571
0.000155087
0.000146538
0.000154574
0.000136808
0.000171124
0.000161585
0.00016887
0.000150396
0.000187494
0.000176992
0.000183334
0.000164304
0.000204118
0.000192692
0.000197788
0.000178499
0.000220909
0.000208612
0.000212092
0.000192946
0.000237824
0.000224687
0.000226303
0.00020761
0.00025489
0.000240865
0.000240775
0.000222446
0.000272079
0.000257103
0.000256067
0.000237405
0.000289372
0.000273353
0.000272519
0.000252448
0.000306742
0.000289573
0.00028975
0.000267576
0.000324187
0.00030582
0.000306927
0.000282791
0.000341722
0.000322072
0.000323531
0.000298116
0.000359345
0.000338319
0.00033963
0.000313555
0.000377035
0.000354555
0.000355456
0.000329116
0.000394756
0.000370769
0.000371032
0.000344812
0.000412447
0.000386948
0.00038632
0.000360657
0.000430039
0.00040308
0.000401255
0.000376676
0.000447452
0.000419146
0.000415778
0.000392889
0.000464608
0.000435117
0.000429829
0.000409323
0.000481424
0.000450936
0.000443353
0.000426024
0.000497827
0.000466511
0.000456302
0.000443038
0.000513745
0.000481704
0.000468646
0.000460429
0.000529072
0.000496111
0.000480367
0.000478269
0.000543601
0.000509499
0.000491473
0.000496627
0.000556891
0.000521708
0.000502
0.000515552
0.000568166
0.000532939
0.000512029
0.000535076
0.000576032
0.000543701
0.000521699
0.000555214
0.000579961
0.000557666
0.000530765
0.000575975
0.000581212
0.000583092
0.000539109
0.000597376
0.000596001
0.000612378
0.000546663
0.000619444
0.000634919
0.000637765
0.000553216
0.000642203
0.000670162
0.000660553
0.000558565
0.000665562
0.000699443
0.000682931
0.000563105
0.000689376
0.000728657
0.000705043
0.000567032
0.000713538
0.000758617
0.000726876
0.000570435
0.000738251
0.000787726
0.00074842
0.000573497
0.000763316
0.000816272
0.000769646
0.000576419
0.0007885
0.000844358
0.000790523
0.000579411
0.000813573
0.000871871
0.000811
0.00058196
0.000838257
0.000898784
0.000831113
0.000584048
0.000862163
0.000924385
0.000850767
0.000586264
0.000884853
0.000948624
0.000869853
0.000588986
0.000905747
0.00097153
0.000888333
0.000592539
0.000924155
0.000993203
0.000906137
0.000597279
0.000939031
0.00101376
0.000923206
0.000603576
0.000950577
0.00103331
0.000939491
0.000612031
0.00095742
0.00105189
0.00095498
0.000623802
0.000959234
0.00106945
0.000969705
0.000638804
0.000954811
0.00108572
0.000983791
0.000655492
0.000946417
0.00110098
0.000996518
0.000673116
0.000936035
0.00111415
0.00100804
0.000691001
0.000922752
0.00113294
0.00101851
0.000708361
0.000906459
0.00118245
0.00102813
0.000724755
0.000887791
0.00122383
0.00103709
0.000737765
0.000863799
0.0012578
0.00104563
0.000747193
0.000831576
0.00128678
0.00105402
0.000753347
0.00083771
0.00131054
0.00106245
0.00075623
0.000898567
0.0013277
0.00107095
0.000753942
0.000937871
0.00133745
0.00107934
0.000769185
0.000973233
0.00133981
0.0010874
0.000809119
0.00100348
0.00133443
0.00109473
0.000838645
0.00102901
3.32387e-09
8.96037e-09
1.17024e-08
8.30383e-09
1.8138e-08
3.62937e-08
4.17809e-08
2.9948e-08
1.30159e-07
2.35751e-07
2.54411e-07
1.83271e-07
5.16482e-07
9.2117e-07
9.81174e-07
7.12309e-07
1.43171e-06
2.51245e-06
2.63892e-06
1.94246e-06
3.17262e-06
5.44117e-06
5.61703e-06
4.21911e-06
6.02108e-06
1.00263e-05
1.01512e-05
7.82039e-06
1.01757e-05
1.63872e-05
1.62658e-05
1.28887e-05
1.56986e-05
2.4436e-05
2.38047e-05
1.94109e-05
2.25033e-05
3.39382e-05
3.25125e-05
2.72464e-05
3.03871e-05
4.45989e-05
4.21147e-05
3.61806e-05
3.90868e-05
5.61293e-05
5.23676e-05
4.59784e-05
4.83339e-05
6.82791e-05
6.30788e-05
5.64212e-05
5.78898e-05
8.08541e-05
7.41357e-05
6.73226e-05
6.75824e-05
9.37124e-05
8.55055e-05
7.85295e-05
7.73467e-05
0.000106788
9.71708e-05
8.99419e-05
8.71556e-05
0.000120049
0.000109128
0.000101529
9.70029e-05
0.000133461
0.000121383
0.000113263
0.000106896
0.000146998
0.000133943
0.000125128
0.000116863
0.000160641
0.000146818
0.000137112
0.000126943
0.000174399
0.000160019
0.000149211
0.000137182
0.000188275
0.000173555
0.000161424
0.000147634
0.000202277
0.00018743
0.000173753
0.000158318
0.000216419
0.000201648
0.0001862
0.000169186
0.000230711
0.000216217
0.000198764
0.000180239
0.000245163
0.00023116
0.000211433
0.000191456
0.000259772
0.00024651
0.000224188
0.000202815
0.000274516
0.000262305
0.000237039
0.000214325
0.000289289
0.00027855
0.000249999
0.000226103
0.000304063
0.000295214
0.000263118
0.000238374
0.000318813
0.00031223
0.000276481
0.000251298
0.000333502
0.000329522
0.000290196
0.000264696
0.0003481
0.000347051
0.000304364
0.000278024
0.000362577
0.000364778
0.000319034
0.00029074
0.000376909
0.000382635
0.000334171
0.000302578
0.000391077
0.000400508
0.000349699
0.000313417
0.000405088
0.000418212
0.000365532
0.000323083
0.000418974
0.000435534
0.00038158
0.000331504
0.000432826
0.000452285
0.00039774
0.000339373
0.000446808
0.000468346
0.000413916
0.00034946
0.000461416
0.000483625
0.000430061
0.000364339
0.000476999
0.000497963
0.00044625
0.000382518
0.000493603
0.000511172
0.000462779
0.000400669
0.000511057
0.000523077
0.000480169
0.000417784
0.000529137
0.000533715
0.000498973
0.000434125
0.000547537
0.000544149
0.000518906
0.000449593
0.000565998
0.000556505
0.000539079
0.00046369
0.000584493
0.000572971
0.000558949
0.000475979
0.000603151
0.000593432
0.000578204
0.000486203
0.000622138
0.000615238
0.000596721
0.00049406
0.000641557
0.000635862
0.000614458
0.000499425
0.000661098
0.000655264
0.000631154
0.000502654
0.000680548
0.000674271
0.000646292
0.000505828
0.00069963
0.000693556
0.000659733
0.000516413
0.000718028
0.000715246
0.000671422
0.000530969
0.000735553
0.000740973
0.0006813
0.000542302
0.000752198
0.000768829
0.000688918
0.000549996
0.000767848
0.000795746
0.000694109
0.00055537
0.000782354
0.000821575
0.00069669
0.000558796
0.000795531
0.000847704
0.000696458
0.000560783
0.000807182
0.000874166
0.000693203
0.000562356
0.000817066
0.000900484
0.000686633
0.000563651
0.000824897
0.000926036
0.000676267
0.00056446
0.00083059
0.0009504
0.000661457
0.000564786
0.000833851
0.00097327
0.00064126
0.000564368
0.000834347
0.000994352
0.000616127
0.000562924
0.000831721
0.00101376
0.000586255
0.000560533
0.000826615
0.00103135
0.000552333
0.000557695
0.000819206
0.00104663
0.000515779
0.000555376
0.000809851
0.00105914
0.000479128
0.00055442
0.000799143
0.00106832
0.000446567
0.000555134
0.000787811
0.00107405
0.000423486
0.000557513
0.000776826
0.00107654
0.000414991
0.000561183
0.000767854
0.00107606
0.00042405
0.000565711
0.000764168
0.001073
0.000447394
0.000570672
0.000766556
0.00106786
0.000478028
0.000575611
0.000772699
0.00106142
0.000510052
0.000580174
0.000781735
0.00105426
0.000540396
0.00058398
0.000793264
0.00104651
0.000567869
1.25507e-08
1.00383e-08
1.17825e-08
1.27387e-08
4.85298e-08
3.64972e-08
4.32456e-08
4.3387e-08
3.04436e-07
2.07406e-07
2.52306e-07
2.51677e-07
1.16999e-06
7.83354e-07
9.46099e-07
9.61504e-07
3.13161e-06
2.08454e-06
2.48164e-06
2.56929e-06
6.62089e-06
4.43826e-06
5.18071e-06
5.43668e-06
1.18551e-05
8.09245e-06
9.2307e-06
9.7714e-06
1.87884e-05
1.31358e-05
1.46356e-05
1.55772e-05
2.71813e-05
1.94813e-05
2.12439e-05
2.26882e-05
3.67172e-05
2.69167e-05
2.88216e-05
3.08465e-05
4.7097e-05
3.51805e-05
3.71235e-05
3.9778e-05
5.80885e-05
4.40267e-05
4.59389e-05
4.92414e-05
6.95439e-05
5.32595e-05
5.51152e-05
5.90501e-05
8.14105e-05
6.27403e-05
6.45828e-05
6.9096e-05
9.36976e-05
7.24202e-05
7.43416e-05
7.93691e-05
0.000106412
8.23027e-05
8.43906e-05
8.98555e-05
0.00011957
9.23954e-05
9.47404e-05
0.000100555
0.000133197
0.000102722
0.000105411
0.000111477
0.000147313
0.000113305
0.000116422
0.000122634
0.000161939
0.000124166
0.000127789
0.00013404
0.000177106
0.000135327
0.000139504
0.000145714
0.000192884
0.000146822
0.000151505
0.000157688
0.000209384
0.0001587
0.000163691
0.000170018
0.000226718
0.000171043
0.000175994
0.000182774
0.000244895
0.000183972
0.000188489
0.000196007
0.000263683
0.000197603
0.000201437
0.000209634
0.000282798
0.000211932
0.000215247
0.000223371
0.000302134
0.000226757
0.000230221
0.000236874
0.000321608
0.000241878
0.00024614
0.000249913
0.000341065
0.00025723
0.00026247
0.000262503
0.000360357
0.000272697
0.000279028
0.000275086
0.000379316
0.000288157
0.000295808
0.000288519
0.000397761
0.000303459
0.000312718
0.000304029
0.000415465
0.000318382
0.000329733
0.000321702
0.000432096
0.000332638
0.000346797
0.000339952
0.000447492
0.000345869
0.000363787
0.000358023
0.000462343
0.000357621
0.000380567
0.000375874
0.000478305
0.000367259
0.000396964
0.000393271
0.000499199
0.000374623
0.000412728
0.000409941
0.000525998
0.000380412
0.000427562
0.000425439
0.0005525
0.000387297
0.000441104
0.000439017
0.000577414
0.000406351
0.000452931
0.00045031
0.000601398
0.000432447
0.000462539
0.000459947
0.000624532
0.000456837
0.000469238
0.000469972
0.000647048
0.000482499
0.000472679
0.000492308
0.000669078
0.000507589
0.00047308
0.000519203
0.000690702
0.000532184
0.00047166
0.000543531
0.000711946
0.000556346
0.000485242
0.000570351
0.000732768
0.000580051
0.000509806
0.000599162
0.000753021
0.000603397
0.000532173
0.000629282
0.000772449
0.000626467
0.000556361
0.000661482
0.000790661
0.000649601
0.00057976
0.000695685
0.000807098
0.000672817
0.000601678
0.000730197
0.000821046
0.000696068
0.000620765
0.000763967
0.000831717
0.000719298
0.000638321
0.000796919
0.000838458
0.00074244
0.000656364
0.000829034
0.000840736
0.000765414
0.000682505
0.000860629
0.000838108
0.000788118
0.000712835
0.000891491
0.000829956
0.000810454
0.000741189
0.000921574
0.00081455
0.00083227
0.000771437
0.000950705
0.000787514
0.000853535
0.000800237
0.000978617
0.000802489
0.000873949
0.000827722
0.00100471
0.000846269
0.000893034
0.000854096
0.00102855
0.000881175
0.000909904
0.000879417
0.00104967
0.000917003
0.000923805
0.000903656
0.00106763
0.000953527
0.000933581
0.000926703
0.00108193
0.000990278
0.000937972
0.000948459
0.00109249
0.0010284
0.000935545
0.000968826
0.00109904
0.00106853
0.000925204
0.000987766
0.00110146
0.00110804
0.000909157
0.00100532
0.00109962
0.00114417
0.000890166
0.00102152
0.00109342
0.00117641
0.000866731
0.00103647
0.00108287
0.00120426
0.000833923
0.0010504
0.001068
0.00122699
0.00078302
0.00106307
0.00105027
0.0012437
0.000792195
0.00107439
0.0010313
0.00125337
0.0008579
0.00108457
0.00101025
0.00125543
0.000905385
0.00109343
0.000986239
0.00124855
0.000948284
0.00110074
0.000958232
0.00123258
0.000987278
0.00110621
0.000925161
1.18842e-08
1.51404e-08
1.62482e-08
1.40849e-08
3.45755e-08
4.18538e-08
5.16161e-08
4.23677e-08
1.51048e-07
2.08597e-07
2.84738e-07
2.05312e-07
5.57689e-07
8.07529e-07
1.08192e-06
7.69508e-07
1.49391e-06
2.22171e-06
2.88619e-06
2.06126e-06
3.20526e-06
4.83102e-06
6.09988e-06
4.40328e-06
5.88221e-06
8.88373e-06
1.09585e-05
8.0235e-06
9.61821e-06
1.44402e-05
1.74874e-05
1.30012e-05
1.44048e-05
2.13992e-05
2.55447e-05
1.92718e-05
2.01578e-05
2.95719e-05
3.49044e-05
2.66735e-05
2.67545e-05
3.87477e-05
4.53322e-05
3.50053e-05
3.4067e-05
4.87386e-05
5.66303e-05
4.40716e-05
4.1983e-05
5.93951e-05
6.86524e-05
5.37068e-05
5.04152e-05
7.06187e-05
8.13025e-05
6.37807e-05
5.93031e-05
8.23787e-05
9.45277e-05
7.42128e-05
6.86142e-05
9.46822e-05
0.000108308
8.49914e-05
7.83387e-05
0.000107529
0.000122639
9.61174e-05
8.84782e-05
0.000120919
0.000137499
0.000107596
9.90051e-05
0.000134853
0.000152863
0.000119434
0.000109907
0.000149332
0.000168693
0.000131638
0.000121163
0.000164358
0.000184963
0.000144221
0.000132746
0.000179911
0.000201663
0.000157189
0.000144622
0.000195971
0.000218782
0.000170552
0.000156758
0.000212513
0.000236319
0.000184318
0.000169119
0.000229501
0.000254281
0.000198492
0.000181671
0.000246882
0.000272689
0.000213076
0.000194371
0.000264599
0.000291558
0.000228056
0.000207181
0.000282635
0.000310896
0.000243342
0.000220057
0.000300989
0.00033069
0.000258896
0.000232955
0.000319637
0.000350941
0.000274721
0.000245836
0.000338553
0.000371565
0.000290838
0.000258658
0.000357716
0.000392455
0.000307241
0.000271377
0.000377092
0.000413574
0.000323936
0.000283951
0.000396662
0.000434876
0.000340922
0.000296333
0.000416393
0.00045632
0.000358201
0.000308484
0.000436256
0.000477868
0.000375768
0.000320362
0.000456214
0.000499484
0.000393623
0.00033193
0.000476226
0.000521133
0.000411772
0.000343149
0.00049624
0.000542778
0.000430222
0.000353966
0.000516191
0.000564387
0.000448992
0.000364281
0.000536005
0.000585928
0.000468094
0.000373947
0.000555584
0.00060737
0.000487552
0.000382801
0.000574804
0.000628691
0.000507384
0.000390681
0.000593668
0.000649872
0.000527605
0.000398395
0.000612796
0.000670894
0.000548209
0.000405962
0.00063234
0.000691741
0.000569155
0.000413536
0.00065241
0.000712398
0.000590367
0.000421453
0.000672858
0.000732854
0.000611743
0.000429765
0.000693421
0.00075308
0.000633154
0.000438003
0.000713854
0.000773053
0.000654459
0.000445834
0.000733983
0.00079275
0.000675498
0.000453081
0.000753694
0.000812161
0.000696081
0.000459621
0.000772972
0.000831295
0.000715994
0.000464533
0.000791791
0.000850177
0.000734989
0.000467653
0.000810128
0.000868849
0.000752781
0.000468912
0.00082795
0.000887353
0.000769111
0.000468548
0.000845201
0.000905734
0.000783763
0.00046698
0.000861791
0.000924029
0.000796522
0.000464886
0.000877623
0.000942295
0.00080686
0.000462937
0.000892602
0.000960575
0.000814417
0.000462255
0.000906379
0.000978659
0.000818973
0.000464638
0.000918813
0.000996527
0.00082065
0.000470651
0.000929748
0.001014
0.000819423
0.000479272
0.000939009
0.0010307
0.000815346
0.000489416
0.000946257
0.00104617
0.000808541
0.000499947
0.000951367
0.00105989
0.000799277
0.00050992
0.000954356
0.00107128
0.000787901
0.000518768
0.000955091
0.00107981
0.000774819
0.000527145
0.000953501
0.00108506
0.000760418
0.000534093
0.000949519
0.00108671
0.000745112
0.000539035
0.000943237
0.00108465
0.000729342
0.000541026
0.000935131
0.0010798
0.000713626
0.000539397
0.000925959
0.00107209
0.000698737
0.000533621
0.000916613
0.00106217
0.000686105
0.000523105
0.000908584
0.00105149
0.000675464
0.000507217
0.000902939
0.00104161
0.000664795
0.000485298
0.000899566
0.00103472
0.000653444
0.000456646
0.000897959
0.00103182
0.000641394
0.000420486
0.000897651
0.00103147
0.000629437
0.00132212
0.0011019
0.000863052
0.00104943
0.00130437
0.00110862
0.000882391
0.00106382
0.00128155
0.00111313
0.000896859
0.00107283
0.00125513
0.0011151
0.000906838
0.00107759
0.00122629
0.00111391
0.000912845
0.00107912
0.00119606
0.00110944
0.000915897
0.00107767
0.00116535
0.00110141
0.000915996
0.00107323
0.00113581
0.00108988
0.000914298
0.00106606
0.00110841
0.00107493
0.000911108
0.00105635
0.00108287
0.00105694
0.000906688
0.0010443
0.00105892
0.00103617
0.00090126
0.00103012
0.00103624
0.00101292
0.000894984
0.001014
0.0010145
0.000987442
0.000887995
0.000996128
0.00099342
0.000959881
0.000880384
0.000976652
0.000972765
0.000930355
0.000872243
0.000955688
0.000952349
0.000898971
0.00086356
0.000933315
0.000931972
0.000865854
0.00085424
0.000909584
0.000911382
0.000832217
0.000844145
0.000884531
0.000890419
0.000799825
0.00083313
0.000858129
0.000869032
0.000768444
0.000821041
0.000830447
0.000847221
0.000738009
0.000807792
0.000801531
0.000825031
0.000708446
0.000794131
0.000771423
0.00080252
0.000679689
0.000779894
0.00074022
0.000779747
0.000651723
0.000764978
0.000708063
0.000756711
0.000624594
0.00074935
0.000675184
0.000733459
0.000598451
0.000733043
0.000645038
0.000710077
0.000573633
0.000716125
0.000618705
0.000686656
0.000549697
0.000698695
0.00059136
0.000663325
0.000523349
0.000680827
0.000556447
0.000640103
0.000491115
0.000662591
0.000523695
0.000615453
0.000478947
0.000644077
0.000520029
0.000588582
0.000491244
0.000625344
0.000529161
0.000563832
0.000498635
0.000606408
0.000533759
0.000544355
0.000501592
0.000587281
0.000533063
0.000526363
0.000499778
0.000567916
0.000527031
0.00050765
0.000494416
0.000548275
0.000516878
0.000488206
0.000485839
0.000528401
0.000503064
0.000468157
0.000474442
0.000508362
0.000486328
0.000447578
0.000460675
0.000488148
0.000467388
0.000426644
0.000445109
0.000467638
0.000446869
0.000405609
0.000428313
0.000446951
0.000425303
0.000384682
0.000410654
0.000425595
0.000403151
0.000363908
0.000392416
0.000402905
0.000380768
0.000343188
0.000373791
0.000379763
0.000358458
0.000322564
0.000354895
0.000359022
0.000336453
0.000302451
0.000335863
0.000341861
0.000314908
0.000283416
0.000316851
0.000326541
0.000293783
0.00026566
0.000297965
0.000311361
0.000272993
0.00024892
0.000279227
0.000295759
0.000252715
0.000232861
0.000260763
0.000279562
0.000233498
0.000217289
0.000242678
0.00026283
0.000215967
0.000202151
0.000225244
0.000246067
0.000200181
0.000187445
0.000208837
0.000229769
0.0001857
0.000173206
0.000193601
0.000214145
0.000172014
0.000159487
0.000179328
0.000199137
0.00015884
0.000146295
0.000165704
0.000184633
0.000146094
0.000133599
0.000152553
0.000170536
0.000133767
0.00012135
0.000139806
0.000156802
0.000121833
0.000109499
0.000127441
0.000143434
0.000110235
9.80027e-05
0.000115435
0.000130444
9.89176e-05
8.68279e-05
0.000103748
0.000117825
8.78302e-05
7.59506e-05
9.23391e-05
0.000105557
7.6945e-05
6.53665e-05
8.11713e-05
9.36123e-05
6.62616e-05
5.50846e-05
7.02247e-05
8.19606e-05
5.58082e-05
4.52258e-05
5.9506e-05
7.0581e-05
4.57027e-05
3.59847e-05
4.90587e-05
5.94661e-05
3.61828e-05
2.75852e-05
3.90154e-05
4.86514e-05
2.75339e-05
2.0252e-05
2.96617e-05
3.82196e-05
2.00255e-05
1.41582e-05
2.13496e-05
2.84732e-05
1.38501e-05
9.37375e-06
1.44061e-05
1.98446e-05
9.06788e-06
5.84125e-06
9.03215e-06
1.27566e-05
5.59156e-06
3.39631e-06
5.21677e-06
7.46848e-06
3.22186e-06
1.81687e-06
2.74517e-06
3.9345e-06
1.71169e-06
8.73535e-07
1.29084e-06
1.83337e-06
8.19457e-07
3.6269e-07
5.23076e-07
7.31035e-07
3.39803e-07
1.21153e-07
1.70605e-07
2.3348e-07
1.13725e-07
2.86103e-08
3.93874e-08
5.23963e-08
2.70181e-08
4.45411e-09
6.00662e-09
7.09192e-09
4.34452e-09
1.27698e-09
1.71997e-09
1.68032e-09
1.29271e-09
0.000586855
0.000806227
0.00103799
0.000592328
0.000588717
0.000820086
0.00102873
0.000614943
0.000589923
0.000834408
0.00101839
0.000636715
0.000590488
0.000848251
0.00100682
0.000655903
0.000590514
0.000860651
0.000993906
0.000671951
0.000590076
0.000870797
0.000980084
0.00068459
0.000589197
0.000878129
0.000965105
0.00069373
0.000588184
0.00088221
0.000949938
0.000699468
0.000587122
0.000882875
0.000935508
0.000702125
0.000586062
0.000880077
0.000921721
0.000702043
0.000585039
0.000874426
0.000908488
0.000699629
0.000584059
0.000867095
0.00089578
0.000695305
0.000583113
0.00085861
0.000883452
0.000689495
0.000582167
0.000848981
0.000872498
0.000682624
0.000581144
0.000838314
0.00086534
0.000675082
0.000580464
0.000826719
0.000862483
0.000667194
0.000580974
0.000814249
0.000861624
0.000659233
0.00058283
0.00080109
0.000861167
0.000651493
0.000584949
0.000787115
0.00086
0.000644341
0.000586421
0.000772323
0.000857389
0.000638338
0.000586744
0.000756644
0.000852917
0.000634005
0.00058562
0.000740085
0.000845818
0.00063081
0.000582891
0.000722663
0.0008364
0.000627806
0.0005785
0.000704347
0.000824615
0.000624304
0.000572563
0.000685611
0.000810729
0.000620154
0.000565229
0.000667185
0.000795009
0.000615258
0.000556671
0.000649284
0.000777721
0.000609633
0.000547096
0.000632026
0.000759111
0.000603398
0.000536737
0.000615559
0.00073941
0.000596258
0.000525877
0.000600065
0.000718826
0.000587713
0.000514741
0.000585818
0.000697543
0.000577922
0.000503241
0.000572897
0.000675726
0.000566978
0.000491251
0.000560815
0.000653531
0.000554951
0.000478786
0.000548976
0.000631075
0.000541897
0.000465891
0.000536971
0.000608432
0.00052791
0.000452639
0.000524532
0.00058567
0.000513089
0.000439119
0.00051145
0.000562885
0.000497522
0.000425423
0.000497643
0.000540152
0.000481295
0.000411638
0.000483159
0.000517572
0.000464487
0.000397845
0.000467936
0.000495173
0.000447178
0.000384102
0.000451934
0.000472971
0.000429448
0.000370407
0.000435274
0.000450981
0.000411378
0.000356323
0.000418062
0.000429213
0.000393044
0.000341425
0.000400427
0.000407671
0.000374523
0.000325859
0.00038246
0.000386345
0.000355887
0.000309765
0.000364251
0.00036521
0.000337208
0.000293271
0.000345871
0.000344279
0.000318558
0.000276512
0.000327377
0.000323665
0.000300012
0.000259613
0.000308859
0.000303492
0.00028164
0.000242692
0.000290306
0.000283844
0.000263518
0.00022586
0.000271799
0.000264754
0.000245713
0.000209224
0.000253427
0.000246228
0.000228235
0.000192874
0.00023527
0.00022826
0.000210924
0.000176895
0.000217411
0.000210853
0.000193784
0.000161357
0.000199932
0.000194008
0.000176941
0.000146314
0.00018292
0.000177741
0.000160544
0.0001318
0.00016645
0.000162067
0.00014473
0.000117862
0.000150576
0.000146995
0.00012961
0.000104551
0.000135335
0.000132525
0.000115231
9.19025e-05
0.000120746
0.000118649
0.000101605
7.99318e-05
0.000106811
0.000105356
8.87181e-05
6.86381e-05
9.35239e-05
9.26293e-05
7.65469e-05
5.80061e-05
8.087e-05
8.0454e-05
6.50695e-05
4.80635e-05
6.88371e-05
6.88192e-05
5.42628e-05
3.88751e-05
5.74185e-05
5.77276e-05
4.41877e-05
3.05344e-05
4.66391e-05
4.71957e-05
3.49562e-05
2.31513e-05
3.66366e-05
3.73588e-05
2.67019e-05
1.68363e-05
2.76141e-05
2.84287e-05
1.95651e-05
1.16671e-05
1.97936e-05
2.06375e-05
1.36585e-05
7.65431e-06
1.33695e-05
1.4189e-05
9.02406e-06
4.72071e-06
8.4344e-06
9.18245e-06
5.60309e-06
2.71277e-06
4.92425e-06
5.55912e-06
3.24058e-06
1.43299e-06
2.62785e-06
3.11613e-06
1.72239e-06
6.80509e-07
1.25554e-06
1.58183e-06
8.22775e-07
2.79747e-07
5.17399e-07
6.94637e-07
3.40056e-07
9.32842e-08
1.7185e-07
2.4219e-07
1.13822e-07
2.31122e-08
4.10047e-08
5.8308e-08
2.79549e-08
5.63898e-09
7.67916e-09
9.99696e-09
6.25902e-09
2.06415e-09
2.45937e-09
2.74723e-09
2.2188e-09
0.00120952
0.0010217
0.00110992
0.000872955
0.0011833
0.00105275
0.00111169
0.000861166
0.00115488
0.00108089
0.00111016
0.000911462
0.00112416
0.0011039
0.00110486
0.000939727
0.00109161
0.00111948
0.00109525
0.00095957
0.00105765
0.00112753
0.00107998
0.000973546
0.00102269
0.00112803
0.00105828
0.000979322
0.000986962
0.00112218
0.00102934
0.000976241
0.000950865
0.0011103
0.00099622
0.000964941
0.000914787
0.00109286
0.000962414
0.000946087
0.000879056
0.0010704
0.000926955
0.000920834
0.000843892
0.00104354
0.000888828
0.000890406
0.00080931
0.00101296
0.000847021
0.000856079
0.000775195
0.00097947
0.000790196
0.000819877
0.000741961
0.000943911
0.000761047
0.000784721
0.000704108
0.000908306
0.000792978
0.000751235
0.000682247
0.000875094
0.000816112
0.00071855
0.000702412
0.000844335
0.000833135
0.000686359
0.000726394
0.000815164
0.000845548
0.000651019
0.000740864
0.000787196
0.000852072
0.000618497
0.000748337
0.000760265
0.000853122
0.000618438
0.000750419
0.000734082
0.000849604
0.000634345
0.000747627
0.000708706
0.000841664
0.000644423
0.000740263
0.00068414
0.000830266
0.000649851
0.000728889
0.000660288
0.00081614
0.000651624
0.000713951
0.000636977
0.00079991
0.000649837
0.000695807
0.000613918
0.000782083
0.000644382
0.000674979
0.000591308
0.000763064
0.000635529
0.000650811
0.000569685
0.00074317
0.000624071
0.000627197
0.000546244
0.000722651
0.000610492
0.000611673
0.000527034
0.000701698
0.000596859
0.000600626
0.000524399
0.000680464
0.000585139
0.00058965
0.000527374
0.00065905
0.000574225
0.000577331
0.000527461
0.000637537
0.000562869
0.000563329
0.000524529
0.000616002
0.000550465
0.000547821
0.000518791
0.000594491
0.000536996
0.000531065
0.000510742
0.000573044
0.000522677
0.000513333
0.0005007
0.000551713
0.000507554
0.000494411
0.000488923
0.000530557
0.000491683
0.000474906
0.000475774
0.000509618
0.000475221
0.000456669
0.000461526
0.000488932
0.000458237
0.000440066
0.000446389
0.00046852
0.000440854
0.000424364
0.000430681
0.000448398
0.00042355
0.000408862
0.000414596
0.000428574
0.000406617
0.000393123
0.000398182
0.000409046
0.000389855
0.00037715
0.000381478
0.000389807
0.000372957
0.000361042
0.000364541
0.000370846
0.000355857
0.000344785
0.000347429
0.000352143
0.000338619
0.000328293
0.000330195
0.000333686
0.000321269
0.000311574
0.000312865
0.000315465
0.000303811
0.000294632
0.000295488
0.000297476
0.000286251
0.000277485
0.000278098
0.000279714
0.000268575
0.000260159
0.000260737
0.000262191
0.000250706
0.00024269
0.000243437
0.000244859
0.000232596
0.000225115
0.000226226
0.000227614
0.000214362
0.000207488
0.0002091
0.000210496
0.00019613
0.000189869
0.000192048
0.000193588
0.000178028
0.000172331
0.000175129
0.000176973
0.00016018
0.000154955
0.000158445
0.000160705
0.000142707
0.000137831
0.000142089
0.000144868
0.000125729
0.000121059
0.000126144
0.000129558
0.000109357
0.000104748
0.000110688
0.00011483
9.36951e-05
8.90272e-05
9.57855e-05
0.000100705
7.88588e-05
7.40595e-05
8.15001e-05
8.71866e-05
6.49788e-05
6.00382e-05
6.7899e-05
7.4274e-05
5.22031e-05
4.71767e-05
5.5072e-05
6.19633e-05
4.06899e-05
3.57032e-05
4.31646e-05
5.02715e-05
3.05983e-05
2.58321e-05
3.23863e-05
3.93044e-05
2.20645e-05
1.77231e-05
2.29935e-05
2.92725e-05
1.51643e-05
1.14288e-05
1.52446e-05
2.0476e-05
9.87393e-06
6.86107e-06
9.30885e-06
1.32421e-05
6.05241e-06
3.79254e-06
5.16727e-06
7.79625e-06
3.46336e-06
1.90419e-06
2.57462e-06
4.11919e-06
1.8258e-06
8.52416e-07
1.13395e-06
1.91877e-06
8.67211e-07
3.30431e-07
4.30509e-07
7.63095e-07
3.57203e-07
1.05198e-07
1.34078e-07
2.43014e-07
1.19338e-07
2.50235e-08
3.11677e-08
5.49181e-08
2.91257e-08
5.26477e-09
6.30149e-09
8.98505e-09
6.20564e-09
2.16318e-09
2.5556e-09
2.86553e-09
2.15492e-09
0.000376362
0.000898213
0.00103382
0.000619899
0.000324548
0.000900126
0.00103809
0.000615872
0.000265444
0.000902835
0.00104224
0.00061862
0.000199844
0.000905031
0.00104569
0.000625528
0.000131515
0.000906247
0.00104798
0.000633476
7.46694e-05
0.000906035
0.00104905
0.000640978
8.55667e-05
0.000904011
0.00104892
0.000647064
4.6251e-05
0.000899832
0.00104722
0.000651212
6.90815e-05
0.000893215
0.00104401
0.000653218
6.05545e-05
0.000883995
0.00103936
0.00065308
4.94649e-05
0.00087209
0.00103337
0.000650913
3.49809e-05
0.000857531
0.00102612
0.000646899
4.33172e-06
0.000840465
0.00101776
0.000641274
7.5185e-05
0.000821772
0.00100836
0.000634323
7.25028e-05
0.000802527
0.000998041
0.000626313
7.8536e-05
0.000782905
0.000987317
0.000617507
6.8622e-05
0.000762997
0.000976678
0.00060817
0.000156372
0.000742934
0.000965872
0.000598786
0.000216179
0.000722805
0.000954486
0.000589541
0.000259866
0.000703114
0.000942279
0.000580394
0.000292807
0.000683888
0.000928908
0.000571292
0.000318057
0.000665172
0.000914018
0.000562005
0.000337506
0.000646995
0.000897838
0.000552257
0.000352423
0.000629363
0.000880418
0.000541933
0.000363681
0.00061227
0.000861786
0.000531106
0.000371917
0.000595697
0.000842031
0.000519956
0.000377623
0.000579607
0.000821296
0.000508647
0.000381201
0.000563926
0.000799736
0.000497087
0.000382972
0.000548617
0.000777473
0.000485073
0.000383163
0.000534243
0.000754611
0.00047286
0.000381885
0.000521542
0.000731226
0.000462957
0.000379214
0.00051037
0.000707313
0.000456782
0.000375305
0.000500182
0.000682833
0.000452217
0.000370412
0.000490582
0.000657842
0.000447371
0.000364579
0.000481032
0.000632492
0.000441176
0.000357826
0.000470971
0.000606985
0.000433247
0.000350303
0.000459827
0.000581504
0.00042353
0.000342129
0.000447613
0.000556189
0.000412174
0.000333391
0.000434449
0.000531166
0.000399398
0.000324145
0.000420403
0.000506652
0.000385447
0.000314451
0.000405499
0.000482707
0.000370661
0.000304376
0.000389935
0.000459385
0.000355431
0.000293985
0.000373948
0.000436724
0.000340089
0.000283363
0.000357772
0.000414773
0.000324848
0.000272596
0.000341638
0.000393559
0.000309822
0.000261755
0.000325674
0.000373064
0.000295038
0.000250875
0.00030991
0.000353218
0.000280498
0.000239983
0.000294354
0.00033392
0.000266189
0.000229174
0.000279018
0.000315092
0.000252104
0.000218434
0.000263907
0.000296676
0.000238236
0.000207747
0.000249019
0.000278646
0.000224574
0.000197074
0.00023436
0.000260989
0.000211098
0.000186374
0.000219924
0.000243698
0.000197865
0.000175627
0.000205705
0.000226791
0.000184933
0.000164843
0.000191685
0.000210365
0.000172253
0.00015403
0.000177891
0.000194397
0.000159766
0.000143171
0.000164362
0.000178846
0.000147414
0.000132238
0.000151088
0.000163681
0.00013515
0.0001212
0.000138032
0.000148878
0.000122933
0.00011003
0.000125165
0.000134419
0.000110738
9.87127e-05
0.000112468
0.000120292
9.85611e-05
8.72578e-05
9.99305e-05
0.000106495
8.64061e-05
7.56764e-05
8.75629e-05