/*--------------------------------*- C++ -*----------------------------------*\
| =========                 |                                                 |
| \\      /  F ield         | OpenFOAM: The Open Source CFD Toolbox           |
|  \\    /   O peration     | Version:  v1912                                 |
|   \\  /    A nd           | Website:  www.openfoam.com                      |
|    \\/     M anipulation  |                                                 |
\*---------------------------------------------------------------------------*/
FoamFile
{
    version     2.0;
    format      ascii;
    class       volScalarField;
    location    "198";
    object      T;
}
// * * * * * * * * * * * * * * * * * * * * * * * * * * * * * * * * * * * * * //

dimensions      [0 0 0 1 0 0 0];


internalField   nonuniform List<scalar> 
10147
(
371.77
371.449
371.364
371.414
371.428
371.42
371.422
371.42
371.421
371.42
371.422
371.42
371.428
371.414
371.363
371.448
369.297
368.336
368.084
368.234
368.275
368.25
368.255
368.251
368.253
368.25
368.255
368.25
368.275
368.233
368.082
368.333
366.781
365.195
364.781
365.025
365.094
365.052
365.06
365.053
365.057
365.052
365.059
365.051
365.093
365.024
364.779
365.189
364.225
362.066
361.514
361.838
361.93
361.873
361.884
361.873
361.879
361.872
361.883
361.871
361.929
361.836
361.511
362.058
361.668
359.058
358.417
358.801
358.906
358.837
358.849
358.836
358.843
358.834
358.847
358.835
358.905
358.799
358.414
359.049
359.224
356.359
355.706
356.128
356.231
356.154
356.165
356.149
356.157
356.148
356.164
356.152
356.23
356.126
355.702
356.349
357.059
354.162
353.566
354.012
354.099
354.018
354.026
354.008
354.015
354.007
354.025
354.016
354.097
354.01
353.563
354.152
355.303
352.533
352.025
352.483
352.548
352.467
352.471
352.452
352.458
352.45
352.47
352.465
352.546
352.482
352.022
352.524
353.97
351.395
350.968
351.43
351.473
351.395
351.396
351.375
351.381
351.374
351.394
351.392
351.472
351.429
350.966
351.386
352.991
350.614
350.248
350.708
350.735
350.659
350.658
350.637
350.642
350.635
350.656
350.657
350.734
350.707
350.247
350.606
352.275
350.075
349.75
350.202
350.218
350.145
350.142
350.122
350.126
350.12
350.141
350.143
350.217
350.201
349.749
350.067
351.744
349.695
349.395
349.838
349.845
349.777
349.773
349.753
349.757
349.751
349.771
349.775
349.844
349.837
349.394
349.687
351.344
349.42
349.133
349.567
349.568
349.504
349.5
349.48
349.484
349.479
349.498
349.502
349.567
349.566
349.132
349.412
351.037
349.216
348.931
349.359
349.357
349.297
349.292
349.274
349.277
349.273
349.291
349.294
349.355
349.357
348.93
349.209
350.796
349.062
348.773
349.193
349.189
349.135
349.13
349.113
349.116
349.112
349.128
349.132
349.187
349.192
348.772
349.055
350.603
348.943
348.648
349.059
349.054
349.004
349.001
348.985
348.988
348.984
348.999
349.001
349.052
349.058
348.647
348.936
350.447
348.849
348.547
348.95
348.944
348.899
348.896
348.882
348.884
348.88
348.894
348.896
348.941
348.948
348.545
348.842
350.318
348.775
348.465
348.859
348.852
348.813
348.81
348.797
348.8
348.796
348.808
348.809
348.85
348.857
348.464
348.768
350.21
348.717
348.398
348.782
348.776
348.741
348.74
348.728
348.73
348.726
348.737
348.738
348.773
348.78
348.396
348.709
350.119
348.669
348.343
348.717
348.712
348.681
348.681
348.67
348.672
348.669
348.678
348.678
348.708
348.715
348.341
348.662
350.039
348.631
348.297
348.662
348.656
348.63
348.63
348.621
348.623
348.62
348.627
348.626
348.653
348.659
348.295
348.624
349.97
348.6
348.259
348.613
348.608
348.586
348.587
348.579
348.581
348.577
348.584
348.582
348.605
348.61
348.256
348.593
349.909
348.574
348.226
348.57
348.566
348.547
348.549
348.542
348.544
348.54
348.545
348.543
348.562
348.567
348.223
348.567
349.853
348.552
348.198
348.531
348.527
348.513
348.515
348.509
348.511
348.507
348.511
348.508
348.523
348.528
348.195
348.545
349.802
348.533
348.173
348.495
348.492
348.481
348.484
348.479
348.481
348.477
348.48
348.476
348.488
348.492
348.17
348.525
349.754
348.516
348.151
348.462
348.46
348.452
348.455
348.452
348.453
348.45
348.451
348.447
348.455
348.458
348.148
348.508
349.709
348.5
348.131
348.431
348.429
348.424
348.429
348.426
348.428
348.424
348.425
348.419
348.424
348.427
348.127
348.493
349.666
348.485
348.112
348.401
348.399
348.398
348.403
348.402
348.403
348.4
348.399
348.393
348.394
348.396
348.108
348.478
349.625
348.471
348.094
348.372
348.371
348.373
348.379
348.379
348.38
348.376
348.374
348.367
348.366
348.367
348.09
348.464
349.584
348.457
348.076
348.343
348.343
348.348
348.355
348.356
348.357
348.353
348.35
348.342
348.338
348.339
348.072
348.45
349.543
348.443
348.059
348.315
348.316
348.323
348.331
348.333
348.334
348.331
348.326
348.317
348.31
348.31
348.055
348.436
349.503
348.429
348.042
348.287
348.289
348.299
348.307
348.31
348.311
348.308
348.302
348.293
348.283
348.282
348.038
348.422
349.463
348.414
348.025
348.26
348.261
348.274
348.283
348.287
348.288
348.285
348.278
348.268
348.255
348.254
348.021
348.407
349.423
348.399
348.008
348.231
348.233
348.248
348.258
348.263
348.264
348.261
348.253
348.242
348.227
348.226
348.003
348.392
349.382
348.383
347.991
348.203
348.205
348.222
348.233
348.239
348.24
348.236
348.228
348.216
348.199
348.197
347.986
348.376
349.34
348.365
347.973
348.174
348.177
348.196
348.207
348.214
348.215
348.211
348.202
348.189
348.17
348.168
347.968
348.358
349.298
348.347
347.954
348.144
348.147
348.168
348.18
348.188
348.189
348.185
348.175
348.162
348.14
348.138
347.949
348.34
349.256
348.328
347.935
348.114
348.117
348.14
348.153
348.161
348.162
348.158
348.148
348.133
348.11
348.108
347.93
348.322
349.212
348.308
347.915
348.083
348.087
348.111
348.124
348.133
348.134
348.131
348.119
348.104
348.079
348.077
347.91
348.302
349.168
348.287
347.895
348.051
348.055
348.081
348.095
348.105
348.106
348.102
348.089
348.074
348.048
348.045
347.889
348.281
349.124
348.265
347.874
348.019
348.023
348.05
348.064
348.075
348.076
348.072
348.059
348.043
348.015
348.013
347.868
348.259
349.078
348.242
347.852
347.986
347.99
348.018
348.033
348.044
348.045
348.041
348.027
348.011
347.982
347.98
347.846
348.236
349.032
348.218
347.83
347.953
347.956
347.985
348.001
348.012
348.013
348.009
347.995
347.978
347.949
347.946
347.824
348.211
348.985
348.193
347.806
347.919
347.922
347.951
347.967
347.979
347.981
347.976
347.962
347.944
347.914
347.912
347.801
348.187
348.937
348.167
347.783
347.884
347.887
347.917
347.933
347.946
347.947
347.943
347.928
347.91
347.879
347.877
347.777
348.161
348.889
348.14
347.758
347.849
347.851
347.882
347.898
347.911
347.912
347.908
347.893
347.874
347.844
347.842
347.753
348.134
348.84
348.112
347.734
347.813
347.815
347.846
347.863
347.876
347.877
347.873
347.857
347.839
347.807
347.806
347.728
348.106
348.79
348.084
347.708
347.777
347.779
347.81
347.827
347.84
347.841
347.837
347.821
347.802
347.771
347.77
347.702
348.078
348.74
348.054
347.682
347.741
347.742
347.773
347.79
347.803
347.805
347.8
347.784
347.765
347.734
347.734
347.676
348.049
348.688
348.024
347.655
347.705
347.705
347.735
347.753
347.766
347.768
347.763
347.747
347.728
347.697
347.697
347.649
348.019
348.635
347.993
347.628
347.668
347.668
347.698
347.715
347.728
347.73
347.725
347.709
347.69
347.66
347.661
347.622
347.988
348.58
347.962
347.601
347.631
347.63
347.659
347.676
347.69
347.692
347.687
347.671
347.652
347.622
347.624
347.595
347.956
348.525
347.93
347.573
347.595
347.592
347.621
347.638
347.651
347.653
347.648
347.632
347.613
347.584
347.587
347.566
347.924
348.467
347.897
347.544
347.558
347.554
347.582
347.598
347.612
347.613
347.609
347.593
347.574
347.546
347.55
347.538
347.892
348.409
347.863
347.515
347.52
347.516
347.542
347.559
347.572
347.574
347.569
347.553
347.535
347.508
347.513
347.509
347.858
348.35
347.829
347.486
347.483
347.477
347.502
347.518
347.532
347.533
347.528
347.513
347.495
347.47
347.476
347.48
347.824
348.29
347.795
347.456
347.445
347.439
347.462
347.478
347.491
347.492
347.488
347.472
347.455
347.431
347.438
347.45
347.79
348.229
347.76
347.426
347.408
347.399
347.421
347.437
347.449
347.451
347.446
347.431
347.414
347.392
347.4
347.42
347.755
348.167
347.725
347.396
347.369
347.36
347.38
347.395
347.408
347.409
347.405
347.39
347.373
347.352
347.362
347.39
347.72
348.105
347.689
347.365
347.331
347.32
347.338
347.353
347.365
347.367
347.362
347.348
347.331
347.312
347.324
347.359
347.685
348.043
347.653
347.334
347.292
347.279
347.297
347.311
347.323
347.325
347.32
347.305
347.29
347.272
347.285
347.328
347.649
347.981
347.617
347.302
347.253
347.239
347.254
347.268
347.28
347.282
347.277
347.263
347.247
347.231
347.246
347.296
347.612
347.922
347.58
347.269
347.214
347.197
347.212
347.225
347.236
347.238
347.234
347.22
347.205
347.19
347.207
347.264
347.575
347.864
347.542
347.236
347.174
347.156
347.169
347.182
347.193
347.195
347.19
347.176
347.162
347.149
347.167
347.231
347.538
347.81
347.505
347.203
347.134
347.114
347.126
347.138
347.149
347.151
347.146
347.133
347.119
347.107
347.127
347.197
347.5
347.758
347.466
347.169
347.094
347.072
347.082
347.094
347.105
347.107
347.102
347.089
347.076
347.065
347.087
347.163
347.462
347.706
347.428
347.135
347.054
347.03
347.038
347.05
347.06
347.062
347.058
347.045
347.032
347.023
347.047
347.129
347.424
347.655
347.389
347.1
347.013
346.988
346.995
347.006
347.016
347.018
347.013
347.001
346.988
346.981
347.007
347.094
347.385
347.604
347.349
347.064
346.973
346.945
346.951
346.962
346.971
346.973
346.969
346.957
346.944
346.939
346.966
347.058
347.345
347.552
347.309
347.028
346.932
346.903
346.907
346.917
346.927
346.929
346.924
346.912
346.901
346.896
346.926
347.022
347.305
347.501
347.269
346.991
346.891
346.86
346.863
346.873
346.882
346.884
346.879
346.868
346.856
346.853
346.885
346.985
347.265
347.45
347.227
346.953
346.849
346.816
346.818
346.828
346.837
346.839
346.835
346.823
346.812
346.81
346.843
346.948
347.224
347.399
347.186
346.915
346.807
346.773
346.773
346.783
346.792
346.794
346.789
346.778
346.768
346.766
346.801
346.91
347.182
347.348
347.143
346.876
346.765
346.728
346.728
346.737
346.746
346.748
346.744
346.733
346.723
346.722
346.759
346.871
347.139
347.297
347.1
346.836
346.722
346.684
346.683
346.692
346.7
346.702
346.698
346.687
346.677
346.678
346.717
346.831
347.096
347.245
347.055
346.795
346.679
346.639
346.637
346.645
346.654
346.656
346.651
346.641
346.631
346.633
346.673
346.79
347.052
347.194
347.01
346.753
346.635
346.593
346.59
346.598
346.607
346.608
346.604
346.594
346.585
346.587
346.63
346.748
347.006
347.142
346.964
346.71
346.591
346.547
346.543
346.55
346.559
346.56
346.556
346.546
346.538
346.541
346.585
346.705
346.96
347.089
346.916
346.666
346.545
346.5
346.495
346.502
346.51
346.512
346.508
346.498
346.49
346.494
346.54
346.661
346.912
371.354
371.659
371.838
371.743
371.732
371.723
371.72
371.717
371.717
371.717
371.719
371.721
371.731
371.742
371.837
371.659
368.06
368.967
369.501
369.219
369.186
369.157
369.148
369.14
369.141
369.139
369.145
369.153
369.182
369.215
369.499
368.967
364.762
366.243
367.124
366.66
366.604
366.556
366.541
366.529
366.53
366.527
366.536
366.55
366.598
366.654
367.121
366.242
361.551
363.519
364.715
364.09
364.012
363.948
363.927
363.911
363.911
363.908
363.92
363.94
364.004
364.081
364.71
363.518
358.63
360.9
362.335
361.595
361.5
361.425
361.399
361.381
361.381
361.377
361.391
361.415
361.489
361.585
362.329
360.898
356.269
358.577
360.128
359.348
359.245
359.17
359.142
359.125
359.124
359.121
359.133
359.158
359.232
359.336
360.121
358.574
354.59
356.721
358.263
357.519
357.418
357.353
357.327
357.314
357.312
357.309
357.317
357.34
357.405
357.506
358.256
356.718
353.481
355.354
356.814
356.148
356.055
356.004
355.982
355.973
355.97
355.968
355.971
355.991
356.041
356.135
356.807
355.35
352.749
354.373
355.734
355.153
355.069
355.031
355.012
355.008
355.004
355.002
355.002
355.018
355.055
355.14
355.727
354.369
352.243
353.658
354.928
354.423
354.348
354.32
354.304
354.302
354.298
354.297
354.294
354.307
354.334
354.41
354.921
353.655
351.87
353.119
354.313
353.87
353.801
353.781
353.767
353.768
353.764
353.763
353.757
353.768
353.787
353.857
354.305
353.115
351.577
352.695
353.826
353.435
353.371
353.357
353.345
353.347
353.342
353.341
353.334
353.344
353.357
353.422
353.819
352.692
351.334
352.35
353.428
353.079
353.02
353.01
352.999
353.002
352.997
352.996
352.988
352.997
353.006
353.067
353.421
352.346
351.123
352.058
353.094
352.78
352.724
352.717
352.706
352.71
352.706
352.705
352.696
352.703
352.71
352.767
353.087
352.055
350.934
351.805
352.806
352.521
352.467
352.462
352.453
352.457
352.453
352.452
352.443
352.449
352.453
352.508
352.799
351.801
350.76
351.58
352.552
352.291
352.24
352.236
352.228
352.232
352.228
352.227
352.217
352.223
352.226
352.279
352.545
351.576
350.6
351.377
352.325
352.083
352.034
352.032
352.023
352.028
352.024
352.023
352.013
352.018
352.02
352.071
352.318
351.373
350.45
351.192
352.117
351.892
351.846
351.844
351.836
351.841
351.836
351.835
351.826
351.831
351.832
351.881
352.11
351.188
350.308
351.022
351.926
351.717
351.672
351.67
351.662
351.667
351.663
351.662
351.652
351.657
351.658
351.705
351.919
351.018
350.174
350.865
351.748
351.553
351.509
351.508
351.501
351.505
351.501
351.5
351.49
351.495
351.496
351.541
351.741
350.861
350.047
350.718
351.582
351.4
351.358
351.356
351.349
351.353
351.349
351.348
351.339
351.343
351.344
351.388
351.575
350.714
349.926
350.581
351.426
351.255
351.214
351.212
351.205
351.209
351.205
351.204
351.195
351.199
351.201
351.243
351.42
350.578
349.811
350.453
351.279
351.118
351.079
351.076
351.069
351.073
351.068
351.067
351.059
351.063
351.065
351.107
351.272
350.449
349.7
350.331
351.14
350.988
350.95
350.946
350.939
350.942
350.938
350.937
350.929
350.933
350.936
350.976
351.133
350.328
349.595
350.216
351.007
350.863
350.826
350.821
350.814
350.817
350.813
350.811
350.804
350.808
350.813
350.852
351
350.213
349.494
350.107
350.88
350.744
350.708
350.701
350.694
350.696
350.692
350.691
350.684
350.688
350.695
350.733
350.873
350.103
349.398
350.002
350.758
350.629
350.594
350.586
350.578
350.58
350.576
350.575
350.568
350.573
350.581
350.618
350.751
349.999
349.307
349.902
350.641
350.518
350.484
350.474
350.467
350.468
350.464
350.462
350.457
350.462
350.471
350.507
350.634
349.899
349.22
349.807
350.527
350.411
350.377
350.366
350.358
350.359
350.355
350.353
350.348
350.353
350.364
350.4
350.521
349.803
349.136
349.715
350.418
350.306
350.274
350.261
350.253
350.253
350.249
350.247
350.243
350.249
350.261
350.296
350.411
349.711
349.057
349.626
350.312
350.205
350.173
350.159
350.151
350.15
350.146
350.145
350.141
350.147
350.161
350.195
350.305
349.622
348.98
349.54
350.208
350.107
350.076
350.06
350.051
350.05
350.046
350.044
350.041
350.047
350.063
350.096
350.202
349.537
348.907
349.458
350.108
350.011
349.98
349.963
349.954
349.952
349.948
349.947
349.944
349.951
349.968
350
350.101
349.454
348.837
349.378
350.009
349.917
349.887
349.869
349.859
349.857
349.853
349.852
349.85
349.857
349.875
349.907
350.003
349.374
348.771
349.3
349.914
349.826
349.797
349.777
349.767
349.764
349.76
349.759
349.758
349.765
349.785
349.816
349.907
349.297
348.707
349.225
349.82
349.737
349.708
349.687
349.677
349.673
349.67
349.668
349.668
349.675
349.696
349.727
349.813
349.222
348.645
349.153
349.728
349.65
349.622
349.599
349.589
349.585
349.581
349.58
349.58
349.587
349.609
349.64
349.721
349.149
348.586
349.082
349.638
349.565
349.537
349.514
349.503
349.498
349.495
349.493
349.494
349.502
349.525
349.555
349.631
349.078
348.53
349.014
349.55
349.481
349.454
349.43
349.419
349.414
349.411
349.409
349.41
349.418
349.442
349.471
349.543
349.01
348.476
348.947
349.463
349.399
349.373
349.349
349.338
349.332
349.329
349.327
349.328
349.337
349.361
349.39
349.456
348.944
348.423
348.883
349.378
349.319
349.293
349.269
349.258
349.252
349.248
349.247
349.249
349.257
349.282
349.31
349.371
348.879
348.373
348.82
349.294
349.241
349.216
349.191
349.18
349.174
349.17
349.169
349.171
349.18
349.204
349.231
349.288
348.816
348.324
348.758
349.212
349.164
349.14
349.115
349.104
349.097
349.094
349.092
349.095
349.104
349.128
349.155
349.206
348.755
348.276
348.698
349.132
349.089
349.066
349.041
349.03
349.023
349.02
349.018
349.021
349.03
349.054
349.08
349.125
348.694
348.23
348.638
349.052
349.016
348.993
348.97
348.958
348.951
348.948
348.946
348.949
348.958
348.982
349.006
349.046
348.634
348.185
348.579
348.975
348.944
348.923
348.899
348.888
348.88
348.877
348.876
348.879
348.888
348.911
348.935
348.968
348.575
348.141
348.52
348.898
348.875
348.854
348.83
348.818
348.811
348.807
348.806
348.81
348.819
348.842
348.865
348.892
348.517
348.097
348.463
348.823
348.806
348.786
348.762
348.75
348.742
348.738
348.737
348.741
348.751
348.774
348.797
348.817
348.459
348.054
348.406
348.749
348.739
348.719
348.695
348.682
348.673
348.67
348.669
348.673
348.684
348.707
348.73
348.743
348.402
348.012
348.349
348.677
348.672
348.652
348.628
348.615
348.606
348.602
348.601
348.606
348.617
348.641
348.663
348.671
348.345
347.969
348.292
348.606
348.606
348.587
348.562
348.548
348.539
348.535
348.534
348.54
348.551
348.576
348.597
348.6
348.289
347.926
348.236
348.537
348.541
348.522
348.496
348.482
348.472
348.469
348.468
348.474
348.486
348.511
348.532
348.531
348.233
347.883
348.18
348.471
348.477
348.457
348.431
348.416
348.406
348.402
348.402
348.408
348.421
348.447
348.468
348.465
348.177
347.839
348.124
348.407
348.413
348.394
348.367
348.351
348.341
348.337
348.336
348.343
348.357
348.383
348.405
348.401
348.121
347.794
348.069
348.344
348.351
348.331
348.303
348.286
348.275
348.271
348.271
348.278
348.293
348.32
348.342
348.339
348.066
347.749
348.013
348.283
348.288
348.268
348.239
348.222
348.21
348.206
348.206
348.214
348.229
348.258
348.28
348.277
348.01
347.702
347.958
348.222
348.226
348.206
348.176
348.158
348.146
348.142
348.142
348.15
348.166
348.196
348.218
348.216
347.955
347.655
347.902
348.161
348.165
348.144
348.113
348.094
348.082
348.077
348.077
348.087
348.104
348.135
348.157
348.156
347.899
347.607
347.847
348.101
348.104
348.083
348.051
348.031
348.018
348.013
348.013
348.024
348.041
348.074
348.096
348.095
347.844
347.558
347.791
348.041
348.044
348.022
347.988
347.968
347.954
347.949
347.95
347.96
347.979
348.013
348.036
348.035
347.788
347.508
347.736
347.981
347.984
347.962
347.926
347.905
347.89
347.885
347.886
347.897
347.917
347.952
347.976
347.976
347.733
347.458
347.68
347.921
347.924
347.901
347.864
347.842
347.826
347.822
347.822
347.835
347.856
347.892
347.916
347.916
347.678
347.407
347.625
347.862
347.864
347.841
347.803
347.779
347.763
347.758
347.759
347.772
347.794
347.832
347.857
347.856
347.622
347.356
347.569
347.802
347.805
347.781
347.741
347.717
347.7
347.695
347.696
347.71
347.733
347.772
347.798
347.797
347.567
347.304
347.514
347.743
347.746
347.721
347.68
347.654
347.637
347.632
347.633
347.648
347.672
347.713
347.739
347.738
347.511
347.253
347.458
347.684
347.687
347.662
347.619
347.592
347.574
347.569
347.57
347.586
347.611
347.654
347.68
347.679
347.455
347.201
347.402
347.624
347.629
347.603
347.559
347.531
347.512
347.506
347.508
347.524
347.551
347.595
347.622
347.62
347.4
347.15
347.347
347.565
347.57
347.544
347.498
347.469
347.45
347.444
347.446
347.463
347.491
347.536
347.564
347.56
347.344
347.099
347.291
347.506
347.512
347.485
347.438
347.409
347.388
347.383
347.385
347.402
347.431
347.477
347.506
347.501
347.289
347.048
347.236
347.446
347.454
347.426
347.379
347.348
347.327
347.321
347.324
347.342
347.371
347.419
347.447
347.442
347.234
346.997
347.181
347.387
347.395
347.367
347.319
347.288
347.267
347.261
347.263
347.282
347.312
347.36
347.389
347.383
347.179
346.947
347.126
347.327
347.337
347.309
347.26
347.228
347.206
347.2
347.203
347.222
347.253
347.301
347.331
347.323
347.123
346.897
347.071
347.268
347.278
347.25
347.201
347.168
347.146
347.14
347.143
347.163
347.194
347.243
347.272
347.264
347.069
346.847
347.016
347.208
347.219
347.191
347.141
347.108
347.086
347.08
347.083
347.103
347.135
347.184
347.214
347.204
347.014
346.798
346.961
347.148
347.16
347.131
347.082
347.049
347.026
347.02
347.024
347.044
347.075
347.125
347.155
347.144
346.959
346.749
346.906
347.087
347.101
347.072
347.022
346.989
346.967
346.96
346.964
346.984
347.016
347.065
347.095
347.083
346.904
346.701
346.851
347.026
347.04
347.012
346.963
346.929
346.907
346.9
346.904
346.924
346.956
347.005
347.035
347.023
346.85
346.652
346.797
346.965
346.98
346.951
346.902
346.869
346.847
346.84
346.844
346.864
346.896
346.945
346.974
346.961
346.795
346.604
346.742
346.903
346.918
346.89
346.841
346.808
346.786
346.78
346.783
346.803
346.835
346.883
346.913
346.9
346.74
371.782
371.43
371.355
371.415
371.424
371.415
371.416
371.414
371.415
371.414
371.415
371.414
371.423
371.414
371.354
371.429
369.332
368.281
368.056
368.234
368.261
368.235
368.237
368.233
368.234
368.232
368.236
368.233
368.26
368.233
368.055
368.278
366.844
365.103
364.732
365.021
365.067
365.023
365.026
365.019
365.022
365.018
365.025
365.021
365.065
365.02
364.729
365.098
364.323
361.938
361.438
361.823
361.885
361.824
361.829
361.818
361.822
361.816
361.826
361.821
361.883
361.821
361.434
361.931
361.805
358.894
358.309
358.761
358.835
358.758
358.763
358.749
358.754
358.746
358.76
358.754
358.832
358.759
358.305
358.885
359.376
356.158
355.564
356.051
356.123
356.035
356.039
356.021
356.027
356.018
356.036
356.031
356.121
356.049
355.56
356.148
357.173
353.922
353.398
353.89
353.95
353.855
353.856
353.835
353.841
353.832
353.854
353.851
353.948
353.888
353.395
353.913
355.318
352.26
351.838
352.32
352.361
352.264
352.262
352.237
352.243
352.235
352.26
352.26
352.359
352.319
351.836
352.251
353.857
351.098
350.77
351.235
351.258
351.161
351.156
351.13
351.135
351.128
351.154
351.158
351.257
351.234
350.768
351.09
352.755
350.305
350.044
350.491
350.501
350.406
350.399
350.371
350.376
350.37
350.397
350.403
350.5
350.49
350.043
350.298
351.94
349.764
349.543
349.974
349.974
349.882
349.873
349.845
349.85
349.844
349.872
349.879
349.973
349.974
349.543
349.757
351.341
349.388
349.189
349.606
349.598
349.51
349.5
349.473
349.477
349.471
349.499
349.507
349.598
349.605
349.189
349.381
350.899
349.123
348.93
349.336
349.324
349.239
349.23
349.203
349.207
349.201
349.228
349.237
349.323
349.335
348.929
349.117
350.571
348.933
348.734
349.133
349.118
349.038
349.029
349.003
349.007
349.002
349.027
349.036
349.117
349.132
348.733
348.927
350.327
348.794
348.583
348.976
348.959
348.886
348.877
348.852
348.856
348.851
348.875
348.883
348.958
348.975
348.583
348.787
350.145
348.691
348.467
348.853
348.836
348.768
348.76
348.737
348.74
348.736
348.758
348.765
348.834
348.852
348.466
348.684
350.01
348.614
348.376
348.757
348.738
348.677
348.669
348.648
348.651
348.647
348.667
348.674
348.737
348.755
348.375
348.608
349.91
348.558
348.305
348.679
348.661
348.606
348.599
348.58
348.583
348.578
348.597
348.603
348.659
348.678
348.304
348.552
349.835
348.517
348.249
348.617
348.6
348.55
348.544
348.526
348.529
348.524
348.541
348.547
348.597
348.616
348.247
348.511
349.78
348.487
348.205
348.567
348.55
348.505
348.5
348.484
348.486
348.482
348.497
348.502
348.547
348.565
348.203
348.481
349.74
348.466
348.169
348.525
348.508
348.469
348.465
348.45
348.452
348.448
348.462
348.465
348.505
348.522
348.167
348.459
349.71
348.45
348.141
348.489
348.473
348.439
348.436
348.423
348.425
348.421
348.433
348.435
348.47
348.486
348.139
348.444
349.687
348.439
348.118
348.458
348.443
348.414
348.412
348.4
348.402
348.399
348.409
348.41
348.44
348.455
348.116
348.432
349.668
348.431
348.099
348.431
348.417
348.392
348.391
348.382
348.383
348.38
348.388
348.388
348.413
348.428
348.096
348.424
349.652
348.424
348.082
348.406
348.393
348.373
348.373
348.365
348.367
348.364
348.37
348.369
348.389
348.403
348.08
348.418
349.637
348.419
348.068
348.383
348.371
348.356
348.357
348.351
348.352
348.349
348.354
348.352
348.367
348.38
348.065
348.412
349.622
348.414
348.055
348.362
348.351
348.34
348.342
348.337
348.339
348.335
348.339
348.336
348.346
348.358
348.052
348.407
349.605
348.41
348.043
348.341
348.331
348.325
348.328
348.324
348.326
348.322
348.324
348.32
348.326
348.336
348.039
348.403
349.587
348.405
348.031
348.32
348.311
348.309
348.313
348.311
348.312
348.309
348.309
348.304
348.306
348.315
348.027
348.398
349.566
348.399
348.02
348.299
348.291
348.293
348.298
348.298
348.299
348.295
348.294
348.288
348.286
348.294
348.016
348.392
349.543
348.392
348.008
348.278
348.271
348.276
348.283
348.283
348.284
348.281
348.278
348.271
348.265
348.273
348.004
348.385
349.516
348.384
347.996
348.256
348.25
348.259
348.266
348.268
348.269
348.266
348.262
348.253
348.244
348.251
347.992
348.377
349.487
348.375
347.984
348.233
348.228
348.24
348.248
348.252
348.253
348.249
348.244
348.234
348.222
348.228
347.979
348.368
349.455
348.364
347.971
348.21
348.206
348.221
348.23
348.234
348.235
348.232
348.225
348.215
348.199
348.204
347.966
348.357
349.42
348.352
347.957
348.185
348.182
348.199
348.209
348.215
348.216
348.212
348.204
348.193
348.176
348.179
347.952
348.345
349.383
348.338
347.942
348.159
348.157
348.177
348.188
348.194
348.195
348.192
348.183
348.171
348.15
348.154
347.937
348.332
349.343
348.323
347.927
348.133
348.131
348.153
348.165
348.172
348.173
348.169
348.159
348.147
348.124
348.127
347.922
348.317
349.301
348.307
347.91
348.105
348.104
348.128
348.14
348.148
348.149
348.146
348.135
348.121
348.097
348.099
347.905
348.3
349.257
348.289
347.892
348.076
348.075
348.101
348.114
348.123
348.124
348.12
348.109
348.094
348.068
348.07
347.887
348.282
349.211
348.27
347.874
348.046
348.046
348.073
348.087
348.097
348.097
348.094
348.081
348.066
348.039
348.04
347.869
348.263
349.164
348.249
347.855
348.015
348.016
348.044
348.058
348.069
348.069
348.066
348.052
348.037
348.008
348.009
347.849
348.242
349.115
348.227
347.834
347.984
347.984
348.014
348.028
348.039
348.04
348.036
348.023
348.006
347.977
347.977
347.829
348.221
349.065
348.204
347.813
347.951
347.952
347.982
347.997
348.009
348.01
348.006
347.992
347.975
347.944
347.944
347.807
348.198
349.015
348.18
347.791
347.918
347.919
347.95
347.965
347.977
347.979
347.974
347.96
347.943
347.911
347.911
347.785
348.173
348.963
348.154
347.768
347.884
347.885
347.917
347.932
347.945
347.946
347.942
347.927
347.909
347.877
347.877
347.762
348.148
348.911
348.128
347.744
347.85
347.851
347.883
347.899
347.912
347.913
347.908
347.893
347.875
347.843
347.843
347.738
348.122
348.857
348.1
347.72
347.815
347.816
347.848
347.864
347.877
347.878
347.874
347.858
347.84
347.808
347.808
347.714
348.094
348.802
348.072
347.695
347.78
347.78
347.812
347.829
347.842
347.843
347.839
347.823
347.804
347.772
347.773
347.689
348.066
348.745
348.043
347.669
347.744
347.744
347.776
347.792
347.806
347.807
347.803
347.786
347.768
347.736
347.737
347.663
348.037
348.686
348.013
347.642
347.708
347.707
347.738
347.755
347.769
347.77
347.766
347.749
347.731
347.699
347.701
347.636
348.007
348.626
347.982
347.615
347.672
347.67
347.701
347.717
347.731
347.732
347.728
347.711
347.693
347.662
347.664
347.61
347.977
348.566
347.951
347.588
347.635
347.632
347.662
347.679
347.693
347.694
347.689
347.673
347.655
347.624
347.627
347.582
347.945
348.505
347.918
347.56
347.597
347.594
347.623
347.64
347.654
347.655
347.65
347.634
347.616
347.586
347.59
347.554
347.913
348.444
347.886
347.532
347.56
347.556
347.584
347.6
347.614
347.615
347.611
347.594
347.576
347.548
347.552
347.526
347.88
348.382
347.852
347.503
347.522
347.517
347.544
347.56
347.574
347.575
347.571
347.554
347.536
347.509
347.515
347.497
347.847
348.32
347.818
347.474
347.484
347.477
347.503
347.519
347.533
347.535
347.53
347.514
347.496
347.47
347.476
347.468
347.813
348.259
347.784
347.444
347.445
347.438
347.462
347.478
347.492
347.493
347.489
347.473
347.455
347.43
347.438
347.438
347.779
348.197
347.749
347.414
347.406
347.398
347.421
347.437
347.45
347.452
347.447
347.431
347.414
347.39
347.399
347.408
347.744
348.135
347.714
347.384
347.367
347.357
347.379
347.395
347.408
347.409
347.405
347.389
347.372
347.349
347.36
347.378
347.709
348.074
347.678
347.353
347.328
347.316
347.337
347.352
347.365
347.367
347.362
347.347
347.33
347.309
347.321
347.347
347.674
348.014
347.642
347.322
347.288
347.275
347.295
347.309
347.322
347.323
347.319
347.304
347.287
347.268
347.281
347.316
347.637
347.955
347.605
347.29
347.248
347.233
347.252
347.266
347.278
347.28
347.275
347.26
347.245
347.226
347.241
347.284
347.601
347.899
347.569
347.257
347.208
347.192
347.208
347.222
347.234
347.236
347.231
347.217
347.201
347.184
347.201
347.251
347.564
347.845
347.531
347.224
347.168
347.149
347.164
347.178
347.19
347.191
347.187
347.172
347.158
347.142
347.161
347.219
347.527
347.794
347.494
347.191
347.127
347.107
347.12
347.133
347.145
347.147
347.142
347.128
347.114
347.1
347.12
347.185
347.489
347.744
347.456
347.157
347.086
347.064
347.076
347.089
347.1
347.102
347.097
347.083
347.069
347.057
347.08
347.151
347.451
347.693
347.417
347.123
347.046
347.021
347.032
347.044
347.055
347.056
347.052
347.038
347.025
347.014
347.039
347.117
347.413
347.643
347.378
347.088
347.005
346.978
346.987
346.998
347.009
347.011
347.006
346.993
346.98
346.971
346.998
347.082
347.374
347.593
347.338
347.052
346.963
346.935
346.942
346.953
346.964
346.965
346.961
346.948
346.936
346.928
346.957
347.047
347.335
347.543
347.299
347.016
346.922
346.892
346.897
346.908
346.918
346.92
346.915
346.903
346.891
346.885
346.916
347.01
347.295
347.493
347.258
346.979
346.881
346.848
346.852
346.862
346.872
346.874
346.87
346.858
346.846
346.842
346.875
346.974
347.254
347.443
347.217
346.942
346.839
346.805
346.807
346.817
346.827
346.828
346.824
346.812
346.801
346.798
346.833
346.936
347.213
347.392
347.175
346.904
346.797
346.761
346.762
346.771
346.781
346.782
346.778
346.767
346.756
346.755
346.791