/*--------------------------------*- C++ -*----------------------------------*\
| =========                 |                                                 |
| \\      /  F ield         | OpenFOAM: The Open Source CFD Toolbox           |
|  \\    /   O peration     | Version:  v1912                                 |
|   \\  /    A nd           | Website:  www.openfoam.com                      |
|    \\/     M anipulation  |                                                 |
\*---------------------------------------------------------------------------*/
FoamFile
{
    version     2.0;
    format      ascii;
    class       volVectorField;
    location    "198";
    object      wallShearStress;
}
// * * * * * * * * * * * * * * * * * * * * * * * * * * * * * * * * * * * * * //

dimensions      [1 -1 -2 0 0 0 0];


internalField   uniform (0 0 0);

boundaryField
{
    leftWall
    {
        type            calculated;
        value           nonuniform List<vector> 
128
(
(-3.60893e-05 -8.43e-05 -0.279174)
(-3.08222e-05 9.46371e-05 -0.376137)
(-2.21395e-05 -0.000127146 -0.284633)
(-3.04836e-05 0.000147959 -0.366314)
(-3.30525e-06 -0.000201064 -0.307753)
(-3.93837e-05 0.000152511 -0.294632)
(3.94943e-05 -0.000425629 -0.33237)
(7.1925e-05 -0.00121353 0.210303)
(0.0101294 -1.62516e-05 -0.320521)
(-0.00941184 1.5761e-05 -0.334246)
(0.0123758 -2.6386e-05 -0.327672)
(-0.0123785 1.76783e-05 -0.327)
(0.0129449 -7.2404e-05 -0.337307)
(-0.016267 -1.96963e-05 -0.296431)
(-0.00288796 -0.000473547 -0.341668)
(-0.0380968 -0.0011916 -0.0584821)
(0.00358111 2.80188e-05 -0.350861)
(-0.00232682 -2.64517e-05 -0.304455)
(0.00388514 3.10454e-05 -0.360426)
(-0.00283283 -4.27538e-05 -0.292619)
(0.00418904 1.46153e-05 -0.36755)
(-0.00273137 -8.72205e-05 -0.264517)
(0.00625597 -0.000317222 -0.360716)
(0.00546329 -0.00123296 -0.0373185)
(0.00127365 5.87899e-06 -0.342189)
(-0.000827925 3.1113e-06 -0.317298)
(0.00151712 -6.84384e-06 -0.350691)
(-0.00113064 6.239e-07 -0.304738)
(0.00156098 -4.36222e-05 -0.359437)
(-0.00160699 -3.67354e-05 -0.26962)
(0.00108266 -0.000358022 -0.354067)
(0.0012153 -0.00116506 -0.00645793)
(0.000581544 -2.9684e-06 -0.338145)
(-0.000368383 6.94605e-06 -0.319758)
(0.000881498 -1.35556e-05 -0.347259)
(-0.000713783 5.61527e-06 -0.306651)
(0.0015921 -4.43088e-05 -0.356817)
(-0.000933768 -2.8162e-05 -0.270108)
(0.0038617 -0.000355709 -0.352034)
(0.00228257 -0.00116318 -0.0112111)
(0.000280248 -7.75847e-06 -0.338211)
(-8.50978e-05 1.1773e-05 -0.321061)
(0.000432257 -2.12959e-05 -0.348168)
(-0.000274095 9.49855e-06 -0.305388)
(0.00071265 -5.43583e-05 -0.358709)
(-0.00052228 -3.42004e-05 -0.266045)
(0.00187443 -0.000357553 -0.35151)
(0.00184176 -0.00118245 -0.00483808)
(6.93282e-05 -9.83365e-06 -0.337353)
(-4.6122e-05 1.11345e-05 -0.321477)
(0.000210621 -2.19319e-05 -0.347437)
(-0.000183528 9.52609e-06 -0.305128)
(0.000583533 -5.14043e-05 -0.357801)
(-0.000224761 -3.08591e-05 -0.265147)
(0.00177479 -0.000347996 -0.349882)
(0.00124119 -0.00117856 -0.00518136)
(3.95327e-05 -1.13357e-05 -0.337109)
(3.35654e-06 1.31025e-05 -0.321753)
(8.34416e-05 -2.51384e-05 -0.347465)
(-4.83311e-05 1.08216e-05 -0.304816)
(0.000198676 -5.61791e-05 -0.358125)
(-0.000111803 -3.46425e-05 -0.264133)
(0.000654932 -0.000351155 -0.34947)
(0.000540374 -0.00118884 -0.00386854)
(1.2558e-05 -1.11729e-05 -0.336919)
(1.14534e-05 1.17264e-05 -0.321696)
(5.82707e-06 -2.37884e-05 -0.347212)
(9.77821e-06 1.0173e-05 -0.30475)
(1.57349e-06 -5.27335e-05 -0.357672)
(9.61214e-06 -3.17562e-05 -0.26413)
(-2.41842e-05 -0.000347278 -0.349048)
(-5.71034e-05 -0.00118298 -0.00437427)
(-1.62829e-05 -1.11814e-05 -0.337182)
(1.84778e-05 1.31778e-05 -0.321847)
(-7.33052e-05 -2.51302e-05 -0.347545)
(6.63536e-05 1.08794e-05 -0.304925)
(-0.000197491 -5.61744e-05 -0.358215)
(0.00012936 -3.44756e-05 -0.264257)
(-0.000702462 -0.000351372 -0.349598)
(-0.000654402 -0.00118884 -0.0039418)
(-5.56457e-05 -9.51664e-06 -0.337458)
(6.24633e-05 1.11136e-05 -0.321683)
(-0.000208497 -2.17897e-05 -0.347538)
(0.000195362 9.51711e-06 -0.305391)
(-0.000590801 -5.13665e-05 -0.35792)
(0.00023618 -3.05423e-05 -0.265435)
(-0.00181702 -0.00034841 -0.350143)
(-0.00134169 -0.00117856 -0.00533027)
(-0.000274689 -7.42153e-06 -0.338353)
(9.17945e-05 1.17379e-05 -0.321323)
(-0.000438477 -2.11422e-05 -0.348302)
(0.000273424 9.45336e-06 -0.30572)
(-0.000728857 -5.42889e-05 -0.358862)
(0.000531688 -3.38507e-05 -0.266417)
(-0.00190252 -0.000357975 -0.351842)
(-0.00187886 -0.00118241 -0.00506025)
(-0.000589277 -2.63022e-06 -0.33827)
(0.00036514 7.18401e-06 -0.320017)
(-0.000899464 -1.34777e-05 -0.347364)
(0.000703466 5.52361e-06 -0.307013)
(-0.00162179 -4.43459e-05 -0.356914)
(0.000932931 -2.76645e-05 -0.270569)
(-0.00387677 -0.000356075 -0.352314)
(-0.00229169 -0.00116271 -0.0115132)
(-0.00129123 6.05352e-06 -0.342319)
(0.000810691 3.62647e-06 -0.317549)
(-0.00153572 -6.92032e-06 -0.350793)
(0.00111075 6.80093e-07 -0.305072)
(-0.00158197 -4.42318e-05 -0.359528)
(0.00159251 -3.60831e-05 -0.270034)
(-0.00106272 -0.000358256 -0.354333)
(-0.00114022 -0.00116476 -0.00672001)
(-0.00361385 2.82869e-05 -0.351073)
(0.00229532 -2.59827e-05 -0.304632)
(-0.00390448 3.10251e-05 -0.360631)
(0.00281287 -4.26087e-05 -0.292815)
(-0.00419979 1.40093e-05 -0.367746)
(0.00270903 -8.70437e-05 -0.264747)
(-0.00625059 -0.000316261 -0.36098)
(-0.00539992 -0.00123272 -0.0375132)
(-0.0101783 -1.59806e-05 -0.320789)
(0.00937264 1.60447e-05 -0.334355)
(-0.0124066 -2.66064e-05 -0.327912)
(0.012352 1.78237e-05 -0.327169)
(-0.0129643 -7.2437e-05 -0.337484)
(0.0162351 -1.93905e-05 -0.2967)
(0.00286802 -0.000473714 -0.341869)
(0.0382185 -0.00119117 -0.0588243)
)
;
    }
    rightWall
    {
        type            calculated;
        value           nonuniform 0();
    }
    leftSides_periodic0
    {
        type            cyclic;
    }
    leftSides_periodic1
    {
        type            cyclic;
    }
    rightSides_periodic0
    {
        type            cyclic;
    }
    rightSides_periodic1
    {
        type            cyclic;
    }
    leftInOut_periodic0
    {
        type            cyclic;
    }
    leftInOut_periodic1
    {
        type            cyclic;
    }
    rightInOut_periodic0
    {
        type            cyclic;
    }
    rightInOut_periodic1
    {
        type            cyclic;
    }
    procBoundary2to0
    {
        type            processor;
        value           uniform (0 0 0);
    }
    procBoundary2to0throughleftSides_periodic1
    {
        type            processorCyclic;
        value           uniform (0 0 0);
    }
    procBoundary2to1throughleftSides_periodic1
    {
        type            processorCyclic;
        value           uniform (0 0 0);
    }
    procBoundary2to1throughrightSides_periodic1
    {
        type            processorCyclic;
        value           uniform (0 0 0);
    }
    procBoundary2to3
    {
        type            processor;
        value           uniform (0 0 0);
    }
    procBoundary2to3throughrightInOut_periodic1
    {
        type            processorCyclic;
        value           uniform (0 0 0);
    }
}


// ************************************************************************* //
