/*--------------------------------*- C++ -*----------------------------------*\
| =========                 |                                                 |
| \\      /  F ield         | OpenFOAM: The Open Source CFD Toolbox           |
|  \\    /   O peration     | Version:  v1906                                 |
|   \\  /    A nd           | Web:      www.OpenFOAM.com                      |
|    \\/     M anipulation  |                                                 |
\*---------------------------------------------------------------------------*/
FoamFile
{
    version     2.0;
    format      ascii;
    class       volScalarField;
    location    "97.2";
    object      omega;
}
// * * * * * * * * * * * * * * * * * * * * * * * * * * * * * * * * * * * * * //

dimensions      [0 0 -1 0 0 0 0];


internalField   nonuniform List<scalar> 
634
(
20.2927
46.9258
34.5906
39.6356
20.4219
46.1632
36.3965
36.5234
20.6275
41.3749
33.5697
34.2511
20.9014
38.2651
31.6706
32.3922
21.2401
36.0486
30.4217
30.8486
21.6428
34.6556
29.9029
29.5822
22.1086
33.8829
29.7078
28.5295
22.6382
33.6107
29.7988
27.6421
23.2352
33.684
30.1526
26.9232
23.8998
34.0244
30.7074
26.4349
24.6304
34.5653
31.4128
26.1707
25.423
35.2589
32.235
26.1007
26.2741
36.0708
33.1505
26.1946
27.1836
36.9752
34.1407
26.4404
28.1554
37.9514
35.1906
26.8129
29.1885
38.9892
36.2894
27.2925
30.2829
40.0821
37.4318
27.859
31.4397
41.2268
38.6168
28.4837
32.6606
42.4226
39.8455
29.1068
33.9482
43.6702
41.1197
29.6483
35.3065
44.972
42.4448
30.1153
36.7407
46.335
43.8286
30.5726
38.2552
47.7656
45.2787
31.0745
39.8512
49.2657
46.803
31.664
41.5276
50.835
48.4105
32.3749
43.2851
52.4744
50.1101
33.2381
45.1382
54.1874
51.91
34.2857
47.1062
55.9797
53.8259
35.5526
49.2133
57.859
55.8671
37.0783
51.4881
59.8351
58.0444
38.9075
53.9611
61.9201
60.3696
41.0872
56.6594
64.1533
62.8558
43.6342
59.5933
66.5716
65.517
46.4222
62.7796
69.1894
68.3687
49.339
66.2325
72.0221
71.4275
52.4164
69.9601
75.0798
74.7109
55.6967
73.9688
78.3659
78.2438
59.1938
78.2834
81.8815
82.0597
62.9123
83.1198
85.6313
86.1945
66.9226
88.7999
89.6321
90.6782
71.3079
95.2223
93.9291
95.5689
76.1286
101.74
98.5767
100.977
81.4374
107.893
103.582
107.044
87.2834
113.873
108.882
113.84
93.6971
120.188
114.425
121.232
100.696
127.198
120.273
128.96
108.346
135.086
126.568
136.916
117.091
143.841
133.434
145.228
127.456
153.286
140.951
154.131
139.402
163.282
149.213
163.819
152.513
173.818
158.298
174.395
166.165
184.975
168.209
185.907
180.192
196.865
178.855
198.403
195.099
209.601
190.135
211.973
211.473
223.302
202.054
226.757
229.668
238.098
214.731
242.916
249.74
254.152
228.343
260.618
271.615
271.676
243.085
280.06
295.315
290.879
259.126
301.5
320.988
311.945
276.775
325.289
348.888
335.148
296.493
351.906
379.385
360.897
318.948
382.019
412.99
389.789
345.118
416.587
450.428
422.702
376.375
457.031
492.769
460.944
414.614
505.535
541.663
506.422
462.585
565.553
599.795
562.274
524.384
642.321
671.67
633.483
606.131
743.882
764.606
727.85
717.077
883.284
890.53
858.025
871.471
1081.94
1069.44
1045.16
1092.01
1375.59
1336.18
1324.9
1416.64
1826.33
1753.01
1759.25
1912.29
2550.69
2436.5
2464.02
2705.65
3789.86
3626.33
3678.46
4058.28
6109.25
5883.32
5964.37
6576.19
11074.8
10763.8
10881.3
11909
24199.4
23766.3
23932.8
25749.5
73774.5
73202.8
73423.1
76656.9
439448
439448
439448
439448
22.4223
23.8489
20.7912
28.8562
22.9366
23.5252
21.003
28.8858
23.6167
23.382
21.3073
29.0361
24.409
23.4064
21.6963
29.2973
25.2641
23.5891
22.1623
29.6597
26.1731
23.9336
22.698
30.1143
27.1223
24.4213
23.2964
30.6521
28.097
25.0179
23.9515
31.2651
29.0863
25.7622
24.6587
31.946
30.0789
26.6396
25.4149
32.6886
31.0691
27.6457
26.2186
33.4876
32.0683
28.7918
27.0695
34.3387
33.1044
30.0872
27.9681
35.2381
34.1706
31.535
28.9152
36.1832
35.2607
33.1319
29.9123
37.1714
36.3878
34.8715
30.961
38.2012
37.5643
37.0645
32.0632
39.2712
38.795
40.3652
33.2208
40.3809
40.0836
44.2892
34.4356
41.5299
41.4335
44.7684
35.7101
42.7187
42.8492
42.8102
37.0484
43.9481
44.3354
41.3018
38.4544
45.2196
45.896
40.4195
39.9321
46.5353
47.5356
40.0985
41.4861
47.8975
49.2563
40.199
43.1214
49.3087
51.0607
40.6212
44.8428
50.7715
52.9542
41.3063
46.6559
52.2882
54.9277
42.2205
48.5669
53.8612
56.99
43.3422
50.5825
55.4933
59.1492
44.6575
52.7099
57.1881
61.4093
46.1576
54.9574
58.9502
63.7745
47.8389
57.3344
60.7887
66.2531
49.7018
59.8513
62.7138
68.8615
51.7505
62.52
64.7852
71.6357
53.9928
65.3565
67.02
74.6055
56.4211
68.3801
69.4239
77.7828
59.0541
71.6084
72.0065
81.1787
61.9123
75.0602
74.7811
84.8062
65.0143
78.7565
77.7638
88.6805
68.3821
82.7212
80.9746
92.8206
72.0411
86.9792
84.437
97.2516
76.0207
91.5555
88.1782
102.007
80.355
96.4961
92.2294
107.127
85.0835
101.872
96.626
112.659
90.2526
107.766
101.408
118.649
95.9167
114.252
106.621
125.141
102.141
121.426
112.318
132.177
109.006
129.386
118.559
139.804
116.61
138.216
125.422
148.072
125.061
147.989
133.002
157.04
134.481
158.785
141.409
166.781
145.013
170.694
150.76
177.363
156.833
183.822
161.191
188.854
170.15
198.292
172.851
201.339
185.201
214.247
185.911
214.931
202.351
231.844
200.555
229.776
221.936
251.26
216.972
246.068
244.121
272.706
235.421
264.069
268.918
296.437
256.13
284.144
296.319
322.776
279.363
306.801
326.523
352.155
305.559
332.763
360.052
385.166
335.404
363.112
397.776
422.647
369.94
399.391
441.01
465.825
410.761
443.823
491.734
516.609
460.212
499.829
553.158
577.954
521.717
572.667
630.143
654.19
600.511
670.363
730.401
751.788
704.785
805.158
866.384
880.9
847.377
995.984
1058.7
1057.27
1049
1273.32
1342.01
1305.41
1343.96
1689.87
1777.47
1665.71
1792.31
2344.92
2479.67
2213.32
2507.42
3447.34
3684.99
3112.76
3724.27
5498.14
5944.93
4788
5992.47
9917.4
10777
8534.93
10825.7
21804.5
23476.4
19296.6
23504.9
67628.7
70820.3
63707.7
70721.6
439448
439448
439448
439448
)
;

boundaryField
{
    leftWall
    {
        Cmu             0.09;
        kappa           0.41;
        E               9.8;
        beta1           0.075;
        blended         true;
        type            omegaWallFunction;
        value           nonuniform 0();
    }
    rightWall
    {
        Cmu             0.09;
        kappa           0.41;
        E               9.8;
        beta1           0.075;
        blended         true;
        type            omegaWallFunction;
        value           nonuniform List<scalar> 8(439448 439448 439448 439448 439448 439448 439448 439448);
    }
    leftSides_periodic0
    {
        type            cyclic;
    }
    leftSides_periodic1
    {
        type            cyclic;
    }
    rightSides_periodic0
    {
        type            cyclic;
    }
    rightSides_periodic1
    {
        type            cyclic;
    }
    leftInOut_periodic0
    {
        type            cyclic;
    }
    leftInOut_periodic1
    {
        type            cyclic;
    }
    rightInOut_periodic0
    {
        type            cyclic;
    }
    rightInOut_periodic1
    {
        type            cyclic;
    }
    procBoundary1to0
    {
        type            processor;
        value           nonuniform List<scalar> 
11
(
20.235
42.0249
30.9069
44.965
44.965
20.6809
28.9666
22.0781
24.3622
20.6809
28.9666
)
;
    }
    procBoundary1to0throughleftInOut_periodic0
    {
        type            processorCyclic;
        value           uniform 30.9069;
    }
    procBoundary1to2throughleftSides_periodic0
    {
        type            processorCyclic;
        value           nonuniform List<scalar> 2(21.1241 29.6521);
    }
    procBoundary1to2throughrightSides_periodic0
    {
        type            processorCyclic;
        value           nonuniform List<scalar> 2(23.8925 27.8623);
    }
    procBoundary1to3
    {
        type            processor;
        value           nonuniform List<scalar> 
316
(
23.2822
26.2266
21.5696
33.491
23.8054
25.8989
21.9554
32.5048
24.4389
25.5855
22.4087
31.9094
25.215
25.296
22.9225
31.6402
26.1343
25.0427
23.4901
31.6341
27.1849
24.8372
24.1029
31.8472
28.3774
24.6919
24.7512
32.2441
29.7021
24.6215
25.4238
32.7947
31.3205
24.6334
26.1109
33.4718
32.9307
24.7404
26.8136
34.2562
34.0365
24.9185
27.5482
35.1331
34.6506
25.1661
28.33
36.0875
35.3692
25.4806
29.1717
37.1094
35.5059
25.8582
30.0814
38.1917
35.8521
26.2924
31.0639
39.3274
36.4928
26.7671
32.1227
40.5154
37.3445
27.2693
33.2604
41.7576
38.3798
27.8098
34.4787
43.056
39.5754
28.4022
35.7776
44.4111
40.9174
29.062
37.1561
45.8213
42.3971
29.8055
38.6129
47.2784
44.0087
30.6471
40.145
48.7846
45.7476
31.5987
41.7503
50.3468
47.6098
32.6696
43.4303
51.9741
49.5926
33.868
45.1904
53.6743
51.6947
35.2003
47.0389
55.4539
53.9148
36.6691
48.9836
57.3231
56.256
38.2718
51.0294
59.2868
58.7199
40.0019
53.1781
61.3517
61.3095
41.8418
55.4296
63.5249
64.0248
43.7811
57.7846
65.8119
66.8708
45.8425
60.2458
68.2157
69.8561
48.0517
62.8181
70.7406
72.9899
50.4343
65.508
73.3383
76.2835
53.0135
68.3237
76.0136
79.7499
55.8173
71.2748
78.8053
83.4054
58.8631
74.3757
81.7527
87.2695
62.1667
77.6483
84.8701
91.365
65.7403
81.1106
88.1657
95.7316
69.5944
84.7759
91.6478
100.391
73.7365
88.6615
95.3297
105.331
78.1682
92.7892
99.2247
110.554
82.8867
97.1925
103.351
116.097
87.8903
101.899
107.73
122.029
93.1978
106.94
112.39
128.426
98.8566
112.357
117.368
135.352
104.934
118.197
122.708
142.861
111.511
124.519
128.457
151.003
118.68
131.397
134.667
159.843
126.537
138.998
141.431
169.464
135.189
147.503
148.853
179.971
144.755
157.03
157.028
191.484
155.368
167.726
166.065
204.141
167.18
179.772
176.085
218.098
180.37
193.383
187.218
233.528
195.352
208.816
199.615
250.674
212.428
226.354
213.408
269.782
231.931
246.285
228.786
291.17
254.234
268.938
246.008
315.257
279.751
294.719
265.434
342.567
309.022
324.104
287.594
373.844
342.678
357.747
313.293
410.142
381.493
396.529
343.738
453.001
426.514
441.712
380.679
504.646
479.247
495.175
426.634
568.508
541.795
559.85
485.314
650.105
617.52
640.47
562.276
758.627
711.929
745.024
665.916
909.546
834.623
887.862
809.144
1128.88
1002.86
1095.49
1012.52
1461.71
1248.73
1416.89
1309.42
1986.97
1632.25
1942.37
1759.06
2851.71
2268.84
2841.25
2473.88
4350.71
3396.54
4446.34
3687.99
7142.39
5571.05
7472.55
5950.36
12951.1
10338.6
13707.3
10775
27541.6
23187.7
28913.1
23446.9
79306
72483.7
81129.9
70674.9
439448
439448
439448
439448
)
;
    }
    procBoundary1to3throughrightSides_periodic0
    {
        type            processorCyclic;
        value           nonuniform List<scalar> 
314
(
24.1703
24.3277
24.4541
24.6259
24.8864
25.2521
25.7299
26.3189
27.0136
27.8071
28.6897
29.6467
30.6524
31.6951
32.784
33.9224
35.1138
36.365
37.6866
39.0856
40.568
42.1442
43.8229
45.6029
47.4833
49.4698
51.5688
53.7881
56.1377
58.6318
61.2899
64.1285
67.1522
70.3664
73.7775
77.3881
81.2114
85.2621
89.5538
94.1033
98.9272
104.041
109.459
115.192
121.256
127.679
134.501
141.774
149.562
157.939
166.991
176.82
187.548
199.308
212.249
226.556
242.462
260.271
280.384
303.339
329.884
361.09
398.526
444.474
502.3
577.22
677.495
816.295
1014.82
1308.08
1757.32
2477.64
3708.51
6013.14
10953.9
24039.2
73569.2
439448
27.2492
26.7486
26.3573
26.1043
26.0043
26.0553
26.2633
26.6345
27.1769
27.9281
28.8916
30.0773
31.476
33.1848
34.4605
34.5636
34.777
35.1967
35.8861
36.9187
38.2627
39.9141
41.8519
44.1046
46.7914
49.8168
52.9738
56.5728
59.6113
60.7913
62.1755
63.9564
66.2752
69.2248
72.7246
76.7827
81.4548
86.7777
92.8402
99.7284
107.325
115.241
122.243
127.904
133.419
139.599
146.811
155.224
164.834
175.584
187.442
200.26
213.855
228.301
243.575
259.907
277.549
296.777
317.943
341.547
368.292
399.177
435.668
479.98
535.469
607.531
704.789
840.974
1038
1331.63
1783.44
2509.13
3748.53
6065.03
11020.6
24120.9
73658
439448
21.5672
22.1541
22.869
23.6747
24.5892
25.6105
26.6882
27.8877
28.783
29.3179
29.9235
30.6426
31.5605
32.6605
33.8978
35.2567
36.7674
38.4569
40.2366
42.052
44.0015
46.0652
48.1652
50.2597
52.326
54.5118
56.9252
59.6262
62.5989
65.7464
68.9937
72.3307
75.7746
79.35
83.0785
86.9771
91.0598
95.34
99.8287
104.533
109.459
114.641
120.124
125.934
132.101
138.661
145.656
153.134
161.15
169.689
178.746
188.412
198.794
210.019
222.241
235.648
250.467
266.969
285.497
306.49
330.531
358.403
391.203
430.506
478.563
538.516
615.252
716.643
855.532
1052.97
1344.31
1791.29
2509.77
3739.94
6045.68
10990.4
24084.1
73625.9
439448
29.9277
29.9919
30.0105
30.0817
30.2499
30.5329
30.9342
31.4486
32.0692
32.7893
33.6023
34.5027
35.4873
36.5546
37.7093
38.9627
40.3339
41.8651
43.5619
45.3591
47.0972
48.504
49.7515
51.0645
52.5485
54.2502
56.1559
58.2742
60.6296
63.2746
66.2574
69.5639
73.0637
76.2398
78.8876
81.4698
84.3038
87.5389
91.2421
95.4368
100.115
105.282
110.837
116.547
122.349
128.386
134.858
141.929
149.699
158.167
167.303
177.127
187.7
199.121
211.508
224.993
239.742
255.976
273.988
294.182
317.11
343.515
374.467
411.495
456.839
514.008
588.547
689.205
829.839
1032.34
1332.39
1791.62
2525.74
3775.08
6104.11
11077
24203.4
73771.8
439448
)
;
    }
}


// ************************************************************************* //
