/*--------------------------------*- C++ -*----------------------------------*\
| =========                 |                                                 |
| \\      /  F ield         | OpenFOAM: The Open Source CFD Toolbox           |
|  \\    /   O peration     | Version:  v1906                                 |
|   \\  /    A nd           | Web:      www.OpenFOAM.com                      |
|    \\/     M anipulation  |                                                 |
\*---------------------------------------------------------------------------*/
FoamFile
{
    version     2.0;
    format      ascii;
    class       volScalarField;
    location    "97.2";
    object      T;
}
// * * * * * * * * * * * * * * * * * * * * * * * * * * * * * * * * * * * * * //

dimensions      [0 0 0 1 0 0 0];


internalField   nonuniform List<scalar> 
634
(
347.113
343.058
343.577
347.836
347.131
343.013
343.485
347.775
347.149
342.993
343.442
347.731
347.167
342.978
343.409
347.691
347.185
342.963
343.376
347.65
347.202
342.948
343.352
347.61
347.22
342.932
343.329
347.571
347.238
342.915
343.305
347.533
347.256
342.896
343.28
347.496
347.274
342.876
343.255
347.46
347.292
342.855
343.229
347.425
347.307
342.833
343.202
347.39
347.322
342.809
343.175
347.357
347.335
342.784
343.147
347.324
347.348
342.758
343.12
347.291
347.359
342.731
343.091
347.259
347.369
342.703
343.063
347.226
347.379
342.674
343.034
347.191
347.387
342.643
343.005
347.155
347.395
342.612
342.975
347.119
347.401
342.58
342.946
347.082
347.407
342.547
342.916
347.047
347.412
342.512
342.886
347.012
347.416
342.477
342.855
346.979
347.418
342.44
342.824
346.946
347.419
342.401
342.793
346.915
347.418
342.361
342.762
346.884
347.416
342.32
342.73
346.854
347.413
342.277
342.698
346.825
347.408
342.233
342.665
346.797
347.402
342.187
342.631
346.769
347.394
342.14
342.597
346.739
347.385
342.091
342.562
346.709
347.374
342.04
342.527
346.678
347.361
341.987
342.49
346.647
347.346
341.932
342.452
346.614
347.329
341.874
342.413
346.581
347.31
341.814
342.373
346.548
347.288
341.75
342.332
346.513
347.261
341.684
342.288
346.478
347.228
341.614
342.243
346.442
347.19
341.54
342.196
346.405
347.152
341.46
342.144
346.367
347.113
341.377
342.086
346.328
347.071
341.29
342.024
346.287
347.026
341.199
341.957
346.244
346.976
341.103
341.888
346.196
346.919
341.001
341.816
346.139
346.856
340.891
341.74
346.073
346.786
340.773
341.659
346.001
346.71
340.644
341.571
345.925
346.627
340.502
341.477
345.846
346.537
340.346
341.375
345.763
346.438
340.176
341.264
345.673
346.33
339.991
341.144
345.574
346.212
339.789
341.012
345.464
346.081
339.568
340.867
345.341
345.936
339.323
340.706
345.204
345.773
339.052
340.527
345.051
345.591
338.749
340.328
344.878
345.387
338.408
340.102
344.683
345.154
338.022
339.846
344.461
344.89
337.575
339.551
344.206
344.585
337.045
339.208
343.911
344.23
336.409
338.799
343.565
343.809
335.636
338.297
343.151
343.296
334.697
337.652
342.644
342.643
333.565
336.803
341.992
341.78
332.23
335.672
341.111
340.612
330.711
334.176
339.889
339.021
329.053
332.28
338.196
336.922
327.317
330.048
335.949
334.343
325.553
327.628
333.207
331.453
323.796
325.172
330.154
328.452
322.062
322.77
326.977
325.474
320.355
320.458
323.788
322.57
318.676
318.238
320.637
319.749
317.023
316.098
317.539
317.003
315.395
314.022
314.5
314.322
313.793
347.307
346.912
344.119
344.468
347.23
346.783
344.036
344.407
347.154
346.66
343.954
344.349
347.08
346.543
343.874
344.293
347.007
346.432
343.796
344.239
346.936
346.329
343.719
344.187
346.867
346.232
343.644
344.136
346.799
346.14
343.571
344.086
346.733
346.054
343.5
344.037
346.668
345.972
343.43
343.989
346.605
345.895
343.363
343.942
346.543
345.821
343.296
343.895
346.482
345.751
343.232
343.849
346.423
345.684
343.169
343.803
346.365
345.62
343.107
343.757
346.308
345.56
343.047
343.712
346.252
345.493
342.988
343.666
346.197
345.388
342.931
343.621
346.143
345.229
342.874
343.576
346.089
345.075
342.82
343.53
346.037
344.99
342.766
343.485
345.985
344.931
342.713
343.439
345.934
344.877
342.662
343.394
345.883
344.828
342.612
343.348
345.833
344.78
342.562
343.302
345.783
344.734
342.514
343.256
345.733
344.689
342.466
343.21
345.683
344.644
342.42
343.164
345.634
344.599
342.374
343.118
345.584
344.555
342.329
343.071
345.535
344.51
342.285
343.025
345.485
344.466
342.242
342.978
345.435
344.422
342.199
342.93
345.386
344.377
342.157
342.883
345.336
344.333
342.116
342.835
345.285
344.288
342.076
342.787
345.235
344.243
342.036
342.738
345.184
344.198
341.997
342.689
345.132
344.153
341.958
342.639
345.08
344.107
341.92
342.588
345.027
344.061
341.882
342.536
344.973
344.014
341.844
342.484
344.918
343.966
341.807
342.43
344.862
343.918
341.768
342.375
344.805
343.868
341.73
342.318
344.745
343.818
341.691
342.26
344.683
343.766
341.651
342.2
344.619
343.713
341.609
342.138
344.551
343.658
341.566
342.073
344.48
343.601
341.519
342.004
344.404
343.541
341.47
341.932
344.324
343.477
341.418
341.856
344.237
343.408
341.361
341.774
344.143
343.334
341.299
341.685
344.041
343.253
341.23
341.589
343.929
343.162
341.154
341.482
343.805
343.061
341.07
341.363
343.666
342.944
340.974
341.229
343.51
342.81
340.864
341.075
343.331
342.654
340.738
340.899
343.125
342.473
340.591
340.695
342.884
342.261
340.418
340.454
342.596
342.009
340.213
340.167
342.238
341.705
339.965
339.814
341.783
341.334
339.662
339.368
341.192
340.863
339.278
338.789
340.41
340.245
338.772
338.027
339.373
339.416
338.087
337.02
338.019
338.296
337.14
335.708
336.319
336.806
335.831
334.065
334.296
334.905
334.082
332.119
332.023
332.63
331.9
329.955
329.587
330.088
329.408
327.671
327.057
327.405
326.773
325.343
324.483
324.681
324.122
323.019
321.896
321.979
321.522
320.722
319.318
319.332
318.998
318.463
316.764
316.752
316.55
316.247
314.245
314.238
314.171
314.073
)
;

boundaryField
{
    leftWall
    {
        type            fixedValue;
        value           nonuniform 0();
    }
    rightWall
    {
        type            fixedValue;
        value           uniform 313;
    }
    leftSides_periodic0
    {
        type            cyclic;
    }
    leftSides_periodic1
    {
        type            cyclic;
    }
    rightSides_periodic0
    {
        type            cyclic;
    }
    rightSides_periodic1
    {
        type            cyclic;
    }
    leftInOut_periodic0
    {
        type            cyclic;
    }
    leftInOut_periodic1
    {
        type            cyclic;
    }
    rightInOut_periodic0
    {
        type            cyclic;
    }
    rightInOut_periodic1
    {
        type            cyclic;
    }
    procBoundary1to0
    {
        type            processor;
        value           nonuniform List<scalar> 
11
(
347.094
343.091
343.643
347.938
347.938
344.204
344.53
347.384
347.043
344.204
344.53
)
;
    }
    procBoundary1to0throughleftInOut_periodic0
    {
        type            processorCyclic;
        value           uniform 343.643;
    }
    procBoundary1to2throughleftSides_periodic0
    {
        type            processorCyclic;
        value           nonuniform List<scalar> 2(344.344 344.268);
    }
    procBoundary1to2throughrightSides_periodic0
    {
        type            processorCyclic;
        value           nonuniform List<scalar> 2(347.441 347.305);
    }
    procBoundary1to3
    {
        type            processor;
        value           nonuniform List<scalar> 
316
(
343.418
347.795
346.878
342.768
343.399
347.751
346.913
342.767
343.381
347.71
346.947
342.765
343.363
347.669
346.978
342.762
343.345
347.63
347.007
342.759
343.327
347.592
347.033
342.754
343.309
347.554
347.057
342.749
343.291
347.517
347.078
342.742
343.268
347.48
347.097
342.735
343.237
347.444
347.114
342.726
343.195
347.407
347.129
342.716
343.143
347.37
347.143
342.704
343.104
347.332
347.155
342.691
343.075
347.294
347.166
342.677
343.047
347.254
347.174
342.661
343.018
347.214
347.181
342.644
342.988
347.173
347.186
342.625
342.957
347.133
347.188
342.604
342.924
347.093
347.189
342.582
342.89
347.053
347.187
342.559
342.855
347.011
347.184
342.533
342.818
346.968
347.178
342.506
342.781
346.923
347.171
342.478
342.742
346.877
347.162
342.448
342.702
346.83
347.151
342.417
342.66
346.781
347.138
342.384
342.618
346.731
347.124
342.35
342.574
346.679
347.108
342.314
342.528
346.625
347.09
342.276
342.481
346.571
347.07
342.236
342.433
346.515
347.049
342.194
342.383
346.46
347.027
342.15
342.331
346.403
347.003
342.104
342.278
346.347
346.977
342.056
342.223
346.29
346.95
342.006
342.167
346.233
346.922
341.955
342.109
346.176
346.892
341.901
342.049
346.118
346.861
341.845
341.988
346.06
346.828
341.787
341.925
346.002
346.795
341.727
341.86
345.943
346.76
341.664
341.791
345.883
346.724
341.599
341.72
345.824
346.687
341.53
341.648
345.763
346.649
341.459
341.574
345.703
346.609
341.384
341.499
345.642
346.569
341.306
341.42
345.582
346.527
341.224
341.339
345.521
346.484
341.138
341.254
345.46
346.44
341.047
341.165
345.399
346.394
340.952
341.072
345.337
346.347
340.85
340.975
345.275
346.298
340.743
340.874
345.212
346.247
340.628
340.766
345.147
346.194
340.505
340.653
345.082
346.139
340.372
340.532
345.015
346.079
340.227
340.402
344.946
346.015
340.069
340.262
344.875
345.946
339.894
340.11
344.8
345.869
339.7
339.943
344.721
345.783
339.481
339.759
344.636
345.685
339.23
339.553
344.543
345.573
338.94
339.319
344.439
345.442
338.596
339.047
344.321
345.285
338.177
338.719
344.182
345.092
337.656
338.313
344.013
344.847
336.996
337.79
343.798
344.521
336.152
337.098
343.51
344.065
335.078
336.161
343.098
343.399
333.741
334.894
342.473
342.392
332.142
333.236
341.479
340.873
330.325
331.204
339.9
338.691
328.359
328.9
337.545
335.846
326.31
326.451
334.427
332.515
324.227
323.953
330.779
328.933
322.139
321.459
326.862
325.28
320.064
318.992
322.858
321.662
318.009
316.562
318.868
318.127
315.982
314.178
314.939
314.689
313.987
)
;
    }
    procBoundary1to3throughrightSides_periodic0
    {
        type            processorCyclic;
        value           nonuniform List<scalar> 
314
(
347.384
347.328
347.272
347.216
347.162
347.108
347.055
347.003
346.952
346.902
346.853
346.804
346.757
346.71
346.664
346.618
346.573
346.529
346.485
346.441
346.398
346.354
346.311
346.267
346.223
346.178
346.133
346.088
346.041
345.993
345.944
345.893
345.84
345.786
345.73
345.673
345.613
345.552
345.489
345.424
345.356
345.286
345.212
345.136
345.055
344.972
344.884
344.792
344.695
344.593
344.485
344.37
344.247
344.114
343.971
343.815
343.645
343.457
343.249
343.016
342.751
342.444
342.081
341.636
341.072
340.341
339.37
338.073
336.38
334.285
331.877
329.297
326.667
324.058
321.501
319.004
316.564
314.177
347.197
347.095
347
346.912
346.828
346.751
346.677
346.608
346.543
346.48
346.42
346.362
346.303
346.225
346.104
345.984
345.901
345.844
345.794
345.742
345.691
345.639
345.587
345.534
345.48
345.425
345.366
345.285
345.159
345.046
344.966
344.903
344.844
344.783
344.72
344.654
344.586
344.514
344.44
344.361
344.273
344.167
344.039
343.911
343.796
343.69
343.586
343.478
343.363
343.24
343.106
342.96
342.801
342.632
342.453
342.263
342.058
341.837
341.597
341.333
341.041
340.714
340.339
339.895
339.352
338.666
337.773
336.595
335.061
333.151
330.938
328.554
326.114
323.677
321.261
318.867
316.498
314.159
344.282
344.221
344.161
344.102
344.044
343.985
343.925
343.843
343.728
343.641
343.584
343.536
343.489
343.441
343.393
343.344
343.296
343.246
343.196
343.141
343.075
342.998
342.922
342.857
342.8
342.747
342.693
342.635
342.571
342.504
342.434
342.363
342.292
342.219
342.144
342.067
341.988
341.907
341.823
341.737
341.648
341.557
341.462
341.365
341.265
341.162
341.055
340.945
340.83
340.71
340.586
340.457
340.321
340.18
340.031
339.874
339.708
339.531
339.341
339.136
338.914
338.669
338.397
338.087
337.721
337.278
336.722
336.003
335.052
333.792
332.169
330.209
328.016
325.708
323.365
321.024
318.699
316.397
314.125
344.205
344.147
344.092
344.039
343.99
343.942
343.896
343.852
343.809
343.767
343.725
343.685
343.645
343.606
343.568
343.53
343.492
343.455
343.418
343.376
343.323
343.268
343.22
343.179
343.141
343.102
343.063
343.023
342.982
342.941
342.898
342.852
342.797
342.731
342.666
342.607
342.553
342.501
342.448
342.392
342.334
342.27
342.2
342.123
342.043
341.962
341.88
341.795
341.706
341.61
341.508
341.4
341.284
341.16
341.028
340.885
340.731
340.563
340.381
340.18
339.957
339.708
339.424
339.091
338.687
338.181
337.528
336.665
335.514
334.007
332.135
329.972
327.647
325.273
322.92
320.618
318.375
316.188
314.053
)
;
    }
}


// ************************************************************************* //
