/*--------------------------------*- C++ -*----------------------------------*\
| =========                 |                                                 |
| \\      /  F ield         | OpenFOAM: The Open Source CFD Toolbox           |
|  \\    /   O peration     | Version:  v1912                                 |
|   \\  /    A nd           | Website:  www.openfoam.com                      |
|    \\/     M anipulation  |                                                 |
\*---------------------------------------------------------------------------*/
FoamFile
{
    version     2.0;
    format      ascii;
    class       volScalarField;
    location    "100";
    object      nut;
}
// * * * * * * * * * * * * * * * * * * * * * * * * * * * * * * * * * * * * * //

dimensions      [0 2 -1 0 0 0 0];


internalField   nonuniform List<scalar> 
10077
(
9.59396e-12
9.58122e-12
9.59545e-12
9.63501e-12
1.20124e-11
1.22885e-11
1.24151e-11
1.2395e-11
1.12476e-11
1.12104e-11
1.10668e-11
1.08136e-11
7.79778e-12
7.68934e-12
7.6387e-12
7.64861e-12
6.31274e-11
6.28745e-11
6.19766e-11
6.04165e-11
6.94693e-11
7.09208e-11
7.10096e-11
6.97396e-11
5.57796e-11
5.65395e-11
5.6276e-11
5.49778e-11
3.14387e-11
3.19585e-11
3.22641e-11
3.23622e-11
5.01791e-10
5.00919e-10
4.9589e-10
4.86644e-10
5.33515e-10
5.41937e-10
5.41946e-10
5.33543e-10
4.22985e-10
4.25803e-10
4.22485e-10
4.12886e-10
2.49085e-10
2.50753e-10
2.51643e-10
2.51764e-10
2.49333e-09
2.49416e-09
2.48116e-09
2.45439e-09
2.63403e-09
2.66266e-09
2.6613e-09
2.62988e-09
2.10175e-09
2.09982e-09
2.07702e-09
2.03235e-09
1.30932e-09
1.30383e-09
1.30012e-09
1.29803e-09
8.75419e-09
8.76777e-09
8.74795e-09
8.69561e-09
9.14349e-09
9.20876e-09
9.19818e-09
9.1113e-09
7.32842e-09
7.28661e-09
7.19484e-09
7.04915e-09
4.78608e-09
4.73756e-09
4.70754e-09
4.6952e-09
2.38785e-08
2.39295e-08
2.39111e-08
2.38267e-08
2.45123e-08
2.46146e-08
2.45667e-08
2.43664e-08
1.9687e-08
1.95208e-08
1.92611e-08
1.88964e-08
1.33995e-08
1.32275e-08
1.31233e-08
1.30844e-08
5.3783e-08
5.39064e-08
5.38944e-08
5.37552e-08
5.40641e-08
5.41547e-08
5.39995e-08
5.35918e-08
4.3443e-08
4.30159e-08
4.24429e-08
4.16994e-08
3.07181e-08
3.02997e-08
3.00497e-08
2.9962e-08
1.0428e-07
1.04509e-07
1.04484e-07
1.0422e-07
1.02477e-07
1.02428e-07
1.02036e-07
1.01285e-07
8.23313e-08
8.14771e-08
8.04276e-08
7.91375e-08
6.03593e-08
5.95572e-08
5.90831e-08
5.89263e-08
1.79418e-07
1.7977e-07
1.79668e-07
1.79138e-07
1.72346e-07
1.71944e-07
1.71127e-07
1.69858e-07
1.38429e-07
1.36988e-07
1.35319e-07
1.33351e-07
1.05036e-07
1.03739e-07
1.02981e-07
1.02747e-07
2.80463e-07
2.80926e-07
2.80639e-07
2.79631e-07
2.63572e-07
2.62545e-07
2.61073e-07
2.59093e-07
2.11667e-07
2.09516e-07
2.07136e-07
2.04422e-07
1.65889e-07
1.64044e-07
1.62982e-07
1.62682e-07
4.05974e-07
4.0651e-07
4.0589e-07
4.04149e-07
3.72924e-07
3.70951e-07
3.68582e-07
3.65715e-07
2.99812e-07
2.96865e-07
2.93736e-07
2.90291e-07
2.42354e-07
2.3998e-07
2.38639e-07
2.38307e-07
5.52006e-07
5.52515e-07
5.51324e-07
5.48467e-07
4.93746e-07
4.90419e-07
4.86888e-07
4.83001e-07
3.95793e-07
3.92024e-07
3.88237e-07
3.84268e-07
3.32244e-07
3.29465e-07
3.27937e-07
3.27639e-07
7.12981e-07
7.1326e-07
7.11087e-07
7.06479e-07
6.20192e-07
6.14952e-07
6.09745e-07
6.04347e-07
4.94256e-07
4.89911e-07
4.85765e-07
4.81638e-07
4.28762e-07
4.26091e-07
4.24729e-07
4.24669e-07
8.86858e-07
8.86824e-07
8.83517e-07
8.76933e-07
7.51938e-07
7.44471e-07
7.37376e-07
7.30348e-07
5.94524e-07
5.89463e-07
5.84929e-07
5.80725e-07
5.30189e-07
5.27667e-07
5.26515e-07
5.2675e-07
1.06569e-06
1.06532e-06
1.0609e-06
1.0524e-06
8.89068e-07
8.7925e-07
8.70136e-07
8.61332e-07
6.97649e-07
6.91706e-07
6.86626e-07
6.82191e-07
6.34581e-07
6.32186e-07
6.31255e-07
6.31825e-07
1.24622e-06
1.2455e-06
1.24005e-06
1.2298e-06
1.02758e-06
1.01582e-06
1.00495e-06
9.94475e-07
8.03823e-07
7.96925e-07
7.91291e-07
7.86677e-07
7.41278e-07
7.39033e-07
7.38342e-07
7.39266e-07
1.42668e-06
1.42561e-06
1.41922e-06
1.40742e-06
1.16962e-06
1.15593e-06
1.14325e-06
1.13104e-06
9.12093e-07
9.04178e-07
8.97994e-07
8.93275e-07
8.51861e-07
8.49882e-07
8.49512e-07
8.50841e-07
1.61056e-06
1.60913e-06
1.6018e-06
1.58848e-06
1.31476e-06
1.2991e-06
1.28455e-06
1.27049e-06
1.02162e-06
1.01264e-06
1.00592e-06
1.00119e-06
9.66291e-07
9.64712e-07
9.64766e-07
9.6657e-07
1.79748e-06
1.79564e-06
1.78738e-06
1.77256e-06
1.46225e-06
1.44457e-06
1.42808e-06
1.41207e-06
1.13201e-06
1.12189e-06
1.11468e-06
1.11005e-06
1.08422e-06
1.08319e-06
1.08378e-06
1.08613e-06
1.98651e-06
1.98425e-06
1.97505e-06
1.95876e-06
1.6114e-06
1.59168e-06
1.57318e-06
1.55512e-06
1.24268e-06
1.23138e-06
1.2237e-06
1.2193e-06
1.20523e-06
1.20492e-06
1.20616e-06
1.20914e-06
2.17671e-06
2.17401e-06
2.1639e-06
2.14618e-06
1.76164e-06
1.73985e-06
1.7193e-06
1.69909e-06
1.35316e-06
1.34063e-06
1.33252e-06
1.32848e-06
1.32888e-06
1.32946e-06
1.33147e-06
1.33514e-06
2.36706e-06
2.36392e-06
2.35291e-06
2.33382e-06
1.91247e-06
1.88861e-06
1.86596e-06
1.84353e-06
1.46308e-06
1.44928e-06
1.44078e-06
1.43723e-06
1.45468e-06
1.45631e-06
1.4592e-06
1.46362e-06
2.55676e-06
2.55318e-06
2.54131e-06
2.52092e-06
2.0634e-06
2.0375e-06
2.01272e-06
1.988e-06
1.57212e-06
1.55699e-06
1.54815e-06
1.54521e-06
1.58197e-06
1.58484e-06
1.58871e-06
1.59392e-06
2.74543e-06
2.7414e-06
2.72872e-06
2.7071e-06
2.21424e-06
2.18631e-06
2.15939e-06
2.13231e-06
1.67981e-06
1.66331e-06
1.65416e-06
1.65196e-06
1.70999e-06
1.71426e-06
1.71921e-06
1.72523e-06
2.93338e-06
2.92892e-06
2.91545e-06
2.89267e-06
2.36495e-06
2.33499e-06
2.30588e-06
2.27634e-06
1.78559e-06
1.76766e-06
1.75821e-06
1.75685e-06
1.83863e-06
1.84446e-06
1.85059e-06
1.85747e-06
3.1213e-06
3.11642e-06
3.10218e-06
3.07823e-06
2.51548e-06
2.48345e-06
2.45206e-06
2.41996e-06
1.88917e-06
1.86973e-06
1.86002e-06
1.8596e-06
1.96742e-06
1.97497e-06
1.98239e-06
1.99018e-06
3.30985e-06
3.30454e-06
3.2895e-06
3.26436e-06
2.66626e-06
2.63205e-06
2.59826e-06
2.56345e-06
1.98989e-06
1.96888e-06
1.95892e-06
1.95957e-06
2.09547e-06
2.1049e-06
2.1137e-06
2.12245e-06
3.49937e-06
3.49365e-06
3.47783e-06
3.45152e-06
2.8181e-06
2.78162e-06
2.74531e-06
2.70758e-06
2.08747e-06
2.06473e-06
2.05447e-06
2.05623e-06
2.22195e-06
2.2334e-06
2.24369e-06
2.25346e-06
3.68909e-06
3.683e-06
3.66649e-06
3.63915e-06
2.97234e-06
2.93358e-06
2.89461e-06
2.85376e-06
2.18238e-06
2.15769e-06
2.14702e-06
2.14991e-06
2.34751e-06
2.36118e-06
2.37308e-06
2.38392e-06
3.87733e-06
3.87096e-06
3.85395e-06
3.82586e-06
3.13e-06
3.0891e-06
3.04746e-06
3.00329e-06
2.27641e-06
2.24956e-06
2.23843e-06
2.24253e-06
2.47418e-06
2.49028e-06
2.50392e-06
2.5159e-06
4.06227e-06
4.05574e-06
4.03851e-06
4.01013e-06
3.29086e-06
3.24812e-06
3.20388e-06
3.15622e-06
2.3714e-06
2.34217e-06
2.33051e-06
2.33592e-06
2.60421e-06
2.62298e-06
2.6385e-06
2.65167e-06
4.2422e-06
4.23568e-06
4.21858e-06
4.19047e-06
3.4524e-06
3.40832e-06
3.36163e-06
3.31032e-06
2.46887e-06
2.43702e-06
2.42474e-06
2.43151e-06
2.73828e-06
2.75992e-06
2.77744e-06
2.79183e-06
4.41527e-06
4.40888e-06
4.39225e-06
4.36494e-06
3.59793e-06
3.55283e-06
3.50393e-06
3.44911e-06
2.56949e-06
2.5349e-06
2.52195e-06
2.53007e-06
2.87642e-06
2.90103e-06
2.92062e-06
2.93623e-06
4.57083e-06
4.56415e-06
4.54722e-06
4.5196e-06
3.7132e-06
3.6674e-06
3.6166e-06
3.55859e-06
2.66131e-06
2.6255e-06
2.61294e-06
2.62311e-06
3.01896e-06
3.04656e-06
3.06821e-06
3.08503e-06
4.71227e-06
4.70505e-06
4.68743e-06
4.65891e-06
3.79751e-06
3.75114e-06
3.6987e-06
3.63793e-06
2.72854e-06
2.69289e-06
2.68145e-06
2.69373e-06
3.16544e-06
3.19614e-06
3.2199e-06
3.23793e-06
4.84643e-06
4.83865e-06
4.82034e-06
4.79096e-06
3.87558e-06
3.82832e-06
3.77421e-06
3.71091e-06
2.76157e-06
2.7263e-06
2.71622e-06
2.7309e-06
3.31293e-06
3.34722e-06
3.3734e-06
3.39276e-06
4.97954e-06
4.97113e-06
4.95199e-06
4.92156e-06
3.96013e-06
3.91037e-06
3.85315e-06
3.786e-06
2.77529e-06
2.74003e-06
2.73152e-06
2.74942e-06
3.44134e-06
3.48129e-06
3.51125e-06
3.53264e-06
5.11858e-06
5.10944e-06
5.08919e-06
5.05724e-06
4.06805e-06
4.01445e-06
3.95365e-06
3.88301e-06
2.79429e-06
2.75763e-06
2.75048e-06
2.77252e-06
3.55653e-06
3.60212e-06
3.63586e-06
3.65933e-06
5.26622e-06
5.25621e-06
5.23451e-06
5.20045e-06
4.1939e-06
4.13525e-06
4.07036e-06
3.99645e-06
2.84439e-06
2.80489e-06
2.79871e-06
2.82559e-06
3.65759e-06
3.70858e-06
3.74597e-06
3.77148e-06
5.41842e-06
5.40746e-06
5.38408e-06
5.34755e-06
4.28409e-06
4.22086e-06
4.15159e-06
4.07331e-06
2.89969e-06
2.85704e-06
2.85188e-06
2.88398e-06
3.74873e-06
3.805e-06
3.84597e-06
3.87349e-06
5.56662e-06
5.55469e-06
5.52962e-06
5.49061e-06
4.35717e-06
4.28972e-06
4.21608e-06
4.13307e-06
2.90186e-06
2.85742e-06
2.85331e-06
2.88934e-06
3.83591e-06
3.89751e-06
3.94207e-06
3.97159e-06
5.70236e-06
5.68955e-06
5.663e-06
5.62183e-06
4.42329e-06
4.35198e-06
4.2742e-06
4.18659e-06
2.90039e-06
2.85417e-06
2.85111e-06
2.89107e-06
3.91925e-06
3.9862e-06
4.03435e-06
4.06582e-06
5.81952e-06
5.80595e-06
5.77827e-06
5.73557e-06
4.48171e-06
4.40715e-06
4.32564e-06
4.23364e-06
2.8964e-06
2.84835e-06
2.84631e-06
2.89019e-06
3.99854e-06
4.07082e-06
4.12253e-06
4.15591e-06
5.91505e-06
5.90088e-06
5.8725e-06
5.82896e-06
4.53535e-06
4.45817e-06
4.37343e-06
4.27746e-06
2.88994e-06
2.84004e-06
2.83899e-06
2.88675e-06
4.07332e-06
4.1509e-06
4.20612e-06
4.24136e-06
5.99204e-06
5.97737e-06
5.94861e-06
5.90474e-06
4.58091e-06
4.50176e-06
4.41428e-06
4.31468e-06
2.88073e-06
2.829e-06
2.82892e-06
2.88049e-06
4.14277e-06
4.22555e-06
4.28421e-06
4.32121e-06
6.06461e-06
6.04947e-06
6.0203e-06
5.97607e-06
4.62096e-06
4.54004e-06
4.44999e-06
4.34692e-06
2.8688e-06
2.81529e-06
2.81615e-06
2.87142e-06
4.12429e-06
4.21327e-06
4.27342e-06
4.30699e-06
6.16069e-06
6.14495e-06
6.11476e-06
6.06907e-06
4.66276e-06
4.57931e-06
4.48619e-06
4.37937e-06
2.85478e-06
2.79954e-06
2.80128e-06
2.8601e-06
4.08756e-06
4.18279e-06
4.24402e-06
4.27323e-06
6.29006e-06
6.27506e-06
6.24301e-06
6.19291e-06
4.71712e-06
4.62893e-06
4.53119e-06
4.41967e-06
2.84027e-06
2.78339e-06
2.78604e-06
2.84833e-06
4.10294e-06
4.20354e-06
4.26697e-06
4.29514e-06
6.43268e-06
6.42217e-06
6.38785e-06
6.32899e-06
4.79719e-06
4.70047e-06
4.59546e-06
4.47763e-06
2.82732e-06
2.76899e-06
2.77261e-06
2.83836e-06
4.21286e-06
4.31745e-06
4.3851e-06
4.41801e-06
6.63985e-06
6.6328e-06
6.59477e-06
6.52526e-06
4.90431e-06
4.79582e-06
4.68141e-06
4.55614e-06
2.81793e-06
2.75836e-06
2.76304e-06
2.83218e-06
4.44269e-06
4.54952e-06
4.62388e-06
4.6688e-06
6.84885e-06
6.84162e-06
6.79991e-06
6.7232e-06
5.01325e-06
4.89426e-06
4.77171e-06
4.64029e-06
2.81469e-06
2.75413e-06
2.75991e-06
2.83227e-06
4.53269e-06
4.64349e-06
4.72121e-06
4.76905e-06
7.04873e-06
7.03613e-06
6.99104e-06
6.9126e-06
5.05543e-06
4.93514e-06
4.81106e-06
4.67782e-06
2.78312e-06
2.723e-06
2.72991e-06
2.80415e-06
4.60887e-06
4.72346e-06
4.80383e-06
4.85329e-06
7.23374e-06
7.21128e-06
7.16323e-06
7.08806e-06
5.08941e-06
4.96935e-06
4.84506e-06
4.71119e-06
2.67444e-06
2.61775e-06
2.62583e-06
2.69902e-06
4.69094e-06
4.80864e-06
4.8912e-06
4.94204e-06
7.22774e-06
7.20521e-06
7.15813e-06
7.08496e-06
5.12211e-06
5.00329e-06
4.87995e-06
4.74675e-06
2.64461e-06
2.59033e-06
2.59963e-06
2.67289e-06
4.7798e-06
4.89967e-06
4.9838e-06
5.03566e-06
7.19831e-06
7.17585e-06
7.13009e-06
7.05952e-06
5.15244e-06
5.03595e-06
4.91484e-06
4.78387e-06
2.75255e-06
2.69829e-06
2.7089e-06
2.78484e-06
4.87561e-06
4.99647e-06
5.08138e-06
5.13385e-06
7.14421e-06
7.12189e-06
7.0778e-06
7.01042e-06
5.17827e-06
5.06519e-06
4.94764e-06
4.82054e-06
3.03702e-06
2.97931e-06
2.99135e-06
3.07364e-06
4.97716e-06
5.09778e-06
5.18265e-06
5.23531e-06
7.06331e-06
7.04121e-06
6.99911e-06
6.93551e-06
5.19673e-06
5.0881e-06
4.97538e-06
4.8537e-06
3.1445e-06
3.08952e-06
3.1031e-06
3.18581e-06
5.08171e-06
5.20096e-06
5.28505e-06
5.33752e-06
6.95704e-06
6.93521e-06
6.89532e-06
6.8359e-06
5.204e-06
5.10073e-06
4.99397e-06
4.87911e-06
3.26345e-06
3.21199e-06
3.22724e-06
3.30988e-06
5.18601e-06
5.30294e-06
5.38564e-06
5.43759e-06
6.83028e-06
6.80869e-06
6.771e-06
6.71577e-06
5.19824e-06
5.10077e-06
5.00075e-06
4.89385e-06
3.38889e-06
3.34169e-06
3.35884e-06
3.44107e-06
5.28872e-06
5.40259e-06
5.4834e-06
5.5346e-06
6.69064e-06
6.6692e-06
6.63344e-06
6.58191e-06
5.17881e-06
5.08706e-06
4.99416e-06
4.89609e-06
3.51671e-06
3.47464e-06
3.49407e-06
3.57583e-06
5.38933e-06
5.49957e-06
5.57814e-06
5.6284e-06
6.44489e-06
6.42936e-06
6.39715e-06
6.34722e-06
5.14507e-06
5.05868e-06
4.97304e-06
4.88445e-06
3.64376e-06
3.60764e-06
3.62976e-06
3.71107e-06
5.48833e-06
5.59456e-06
5.67063e-06
5.71985e-06
6.14857e-06
6.14179e-06
6.1136e-06
6.06351e-06
5.09751e-06
5.01586e-06
4.93741e-06
4.85877e-06
3.76795e-06
3.73858e-06
3.76382e-06
3.84474e-06
5.58519e-06
5.68712e-06
5.76052e-06
5.8086e-06
5.94411e-06
5.94101e-06
5.91432e-06
5.86384e-06
5.03782e-06
4.96001e-06
4.88845e-06
4.82003e-06
3.88788e-06
3.866e-06
3.89476e-06
3.97541e-06
5.67948e-06
5.77685e-06
5.8474e-06
5.89431e-06
5.87013e-06
5.86367e-06
5.83522e-06
5.78435e-06
4.96771e-06
4.89263e-06
4.82747e-06
4.7694e-06
3.94423e-06
3.92902e-06
3.96166e-06
4.04357e-06
5.7701e-06
5.86263e-06
5.9302e-06
5.97589e-06
5.98426e-06
5.96418e-06
5.92954e-06
5.87898e-06
4.85155e-06
4.77464e-06
4.70999e-06
4.65482e-06
3.89743e-06
3.88696e-06
3.92377e-06
4.00947e-06
5.79506e-06
5.89032e-06
5.95991e-06
6.007e-06
5.93472e-06
5.9113e-06
5.87337e-06
5.81934e-06
4.70222e-06
4.62013e-06
4.55191e-06
4.49464e-06
3.75789e-06
3.75044e-06
3.79167e-06
3.88336e-06
5.77376e-06
5.87669e-06
5.95159e-06
6.00184e-06
5.86598e-06
5.84102e-06
5.79976e-06
5.74051e-06
4.55196e-06
4.46431e-06
4.39301e-06
4.33497e-06
3.42853e-06
3.42998e-06
3.4758e-06
3.56797e-06
5.75717e-06
5.86608e-06
5.9452e-06
5.9981e-06
5.812e-06
5.78523e-06
5.73994e-06
5.67434e-06
4.41721e-06
4.3252e-06
4.25357e-06
4.19924e-06
3.28609e-06
3.2966e-06
3.34714e-06
3.4399e-06
5.77042e-06
5.88028e-06
5.96035e-06
6.01428e-06
5.77051e-06
5.7417e-06
5.69179e-06
5.61885e-06
4.30812e-06
4.21394e-06
4.14621e-06
4.102e-06
3.4242e-06
3.44368e-06
3.49901e-06
3.59259e-06
5.82869e-06
5.93241e-06
6.00883e-06
6.06148e-06
5.73936e-06
5.70828e-06
5.65325e-06
5.57216e-06
4.22859e-06
4.13488e-06
4.0758e-06
4.04879e-06
3.88637e-06
3.91409e-06
3.97423e-06
4.06938e-06
5.93732e-06
6.02713e-06
6.09482e-06
6.14366e-06
5.7163e-06
5.68277e-06
5.62221e-06
5.53238e-06
4.17416e-06
4.08322e-06
4.03683e-06
4.03301e-06
4.25521e-06
4.30102e-06
4.36595e-06
4.4528e-06
6.08725e-06
6.15653e-06
6.21118e-06
6.25406e-06
5.69896e-06
5.6628e-06
5.59646e-06
5.49752e-06
4.13775e-06
4.05125e-06
4.02045e-06
4.04403e-06
4.71205e-06
4.7783e-06
4.84794e-06
4.92399e-06
6.26442e-06
6.30844e-06
6.34694e-06
6.38229e-06
5.6849e-06
5.64599e-06
5.57379e-06
5.46568e-06
4.1073e-06
4.0258e-06
4.01146e-06
4.06367e-06
5.18917e-06
5.2763e-06
5.3505e-06
5.41496e-06
6.44504e-06
6.46219e-06
6.4835e-06
6.51079e-06
5.6717e-06
5.62999e-06
5.55206e-06
5.43511e-06
4.06663e-06
3.98909e-06
3.98928e-06
4.06722e-06
5.56609e-06
5.67122e-06
5.74967e-06
5.80484e-06
6.59625e-06
6.58922e-06
6.59511e-06
6.61526e-06
5.65698e-06
5.61255e-06
5.52932e-06
5.40432e-06
3.97938e-06
3.90118e-06
3.90796e-06
4.00003e-06
5.80848e-06
5.92749e-06
6.00972e-06
6.0587e-06
6.64959e-06
6.63013e-06
6.62832e-06
6.64528e-06
5.63868e-06
5.59176e-06
5.50405e-06
5.3724e-06
3.89288e-06
3.81347e-06
3.82471e-06
3.92709e-06
5.93504e-06
6.06386e-06
6.14917e-06
6.19465e-06
6.67373e-06
6.64543e-06
6.63823e-06
6.65313e-06
5.61564e-06
5.56666e-06
5.47576e-06
5.33963e-06
3.83136e-06
3.75184e-06
3.76731e-06
3.87846e-06
6.03276e-06
6.16899e-06
6.25655e-06
6.2992e-06
6.5997e-06
6.56505e-06
6.55106e-06
6.55818e-06
5.58712e-06
5.53684e-06
5.44462e-06
5.30709e-06
3.81081e-06
3.7328e-06
3.75236e-06
3.87033e-06
6.1269e-06
6.26805e-06
6.35666e-06
6.39656e-06
6.46701e-06
6.4284e-06
6.40715e-06
6.40297e-06
9.35672e-12
9.26296e-12
9.28766e-12
9.44409e-12
1.26343e-11
1.36666e-11
1.38111e-11
1.32119e-11
1.1887e-11
1.22361e-11
1.20722e-11
1.12319e-11
7.41002e-12
7.02243e-12
6.94811e-12
7.13548e-12
6.79399e-11
6.93327e-11
6.82968e-11
6.37586e-11
7.6788e-11
8.37111e-11
8.3806e-11
7.7181e-11
6.15706e-11
6.62509e-11
6.59694e-11
6.04049e-11
3.24776e-11
3.39707e-11
3.43202e-11
3.38921e-11
5.33659e-10
5.43545e-10
5.37602e-10
5.09842e-10
5.79941e-10
6.21822e-10
6.21832e-10
5.79982e-10
4.60024e-10
4.85343e-10
4.81797e-10
4.45341e-10
2.53462e-10
2.58518e-10
2.59578e-10
2.57703e-10
2.60346e-09
2.64079e-09
2.62463e-09
2.53965e-09
2.803e-09
2.95013e-09
2.94868e-09
2.79697e-09
2.24048e-09
2.30847e-09
2.2841e-09
2.13959e-09
1.30406e-09
1.28976e-09
1.28574e-09
1.28752e-09
9.03348e-09
9.13765e-09
9.10979e-09
8.92713e-09
9.58376e-09
9.94438e-09
9.93308e-09
9.53695e-09
7.70146e-09
7.80554e-09
7.70748e-09
7.29542e-09
4.70632e-09
4.5713e-09
4.53769e-09
4.56939e-09
2.4484e-08
2.47275e-08
2.46917e-08
2.43571e-08
2.54253e-08
2.60969e-08
2.60456e-08
2.52132e-08
2.04837e-08
2.05406e-08
2.0263e-08
1.93344e-08
1.30905e-08
1.26051e-08
1.24875e-08
1.26125e-08
5.49918e-08
5.54961e-08
5.54492e-08
5.48431e-08
5.56615e-08
5.66389e-08
5.64731e-08
5.49748e-08
4.48727e-08
4.4696e-08
4.40838e-08
4.23377e-08
2.99293e-08
2.87396e-08
2.84557e-08
2.87776e-08
1.06547e-07
1.07491e-07
1.07401e-07
1.06258e-07
1.04926e-07
1.06013e-07
1.05594e-07
1.03193e-07
8.4564e-08
8.38821e-08
8.27607e-08
7.99205e-08
5.87855e-08
5.64888e-08
5.59479e-08
5.65947e-08
1.8339e-07
1.85003e-07
1.84787e-07
1.82641e-07
1.75729e-07
1.76509e-07
1.75636e-07
1.72113e-07
1.41536e-07
1.40041e-07
1.38258e-07
1.34153e-07
1.02385e-07
9.8643e-08
9.77741e-08
9.88713e-08
2.86916e-07
2.89447e-07
2.88973e-07
2.85179e-07
2.67882e-07
2.67773e-07
2.662e-07
2.6137e-07
2.15586e-07
2.12979e-07
2.10435e-07
2.05053e-07
1.61938e-07
1.56571e-07
1.55346e-07
1.56992e-07
4.15713e-07
4.19398e-07
4.18498e-07
4.12305e-07
3.77965e-07
3.76197e-07
3.73666e-07
3.67484e-07
3.04297e-07
3.00267e-07
2.96924e-07
2.90454e-07
2.36982e-07
2.30003e-07
2.28444e-07
2.30702e-07
5.66014e-07
5.71097e-07
5.69503e-07
5.59849e-07
4.98953e-07
4.944e-07
4.90627e-07
4.83332e-07
4.00104e-07
3.94227e-07
3.90181e-07
3.83348e-07
3.25464e-07
3.17169e-07
3.15371e-07
3.1825e-07
7.32674e-07
7.3946e-07
7.36721e-07
7.21901e-07
6.25641e-07
6.17272e-07
6.11709e-07
6.02604e-07
4.97733e-07
4.90213e-07
4.85783e-07
4.79389e-07
4.21022e-07
4.12739e-07
4.11082e-07
4.14438e-07
9.1269e-07
9.21261e-07
9.17212e-07
8.96631e-07
7.57216e-07
7.44193e-07
7.36612e-07
7.25826e-07
5.96497e-07
5.86734e-07
5.8189e-07
5.76436e-07
5.21299e-07
5.13072e-07
5.11598e-07
5.15528e-07
1.09726e-06
1.10746e-06
1.10213e-06
1.07604e-06
8.94448e-07
8.76602e-07
8.66863e-07
8.54122e-07
6.98092e-07
6.85797e-07
6.8037e-07
6.75618e-07
6.24268e-07
6.15982e-07
6.14691e-07
6.19323e-07
1.28286e-06
1.29446e-06
1.28795e-06
1.25685e-06
1.0336e-06
1.01211e-06
1.00049e-06
9.85469e-07
8.02348e-07
7.87195e-07
7.81175e-07
7.77418e-07
7.295e-07
7.21193e-07
7.20104e-07
7.25462e-07
1.46761e-06
1.48036e-06
1.47279e-06
1.43729e-06
1.17648e-06
1.15151e-06
1.13797e-06
1.12039e-06
9.08299e-07
8.89956e-07
8.83348e-07
8.80938e-07
8.38697e-07
8.30664e-07
8.29865e-07
8.35926e-07
1.65551e-06
1.66929e-06
1.66067e-06
1.62093e-06
1.32264e-06
1.29421e-06
1.27867e-06
1.25828e-06
1.01509e-06
9.93219e-07
9.86045e-07
9.85381e-07
9.51765e-07
9.44334e-07
9.4393e-07
9.50702e-07
1.84623e-06
1.86094e-06
1.85127e-06
1.80738e-06
1.47133e-06
1.43948e-06
1.42186e-06
1.39837e-06
1.12219e-06
1.09642e-06
1.08871e-06
1.09026e-06
1.06839e-06
1.06193e-06
1.06204e-06
1.06952e-06
2.03881e-06
2.05436e-06
2.04366e-06
1.99574e-06
1.62186e-06
1.58666e-06
1.5669e-06
1.54004e-06
1.22901e-06
1.19896e-06
1.19075e-06
1.19502e-06
1.18819e-06
1.18312e-06
1.18387e-06
1.19202e-06
2.23233e-06
2.24861e-06
2.2369e-06
2.1851e-06
1.77368e-06
1.73521e-06
1.71325e-06
1.68274e-06
1.33508e-06
1.30037e-06
1.2917e-06
1.2992e-06
1.31078e-06
1.30754e-06
1.30904e-06
1.31783e-06
2.42571e-06
2.44264e-06
2.42995e-06
2.37447e-06
1.92627e-06
1.88467e-06
1.86047e-06
1.82604e-06
1.44002e-06
1.40028e-06
1.3912e-06
1.40243e-06
1.43571e-06
1.43476e-06
1.43714e-06
1.44649e-06
2.61816e-06
2.63563e-06
2.622e-06
2.56308e-06
2.07917e-06
2.03462e-06
2.00815e-06
1.96954e-06
1.54352e-06
1.49837e-06
1.48892e-06
1.50439e-06
1.56245e-06
1.56427e-06
1.56766e-06
1.57744e-06
2.80931e-06
2.82724e-06
2.81273e-06
2.75057e-06
2.23216e-06
2.18486e-06
2.15609e-06
2.11303e-06
1.64516e-06
1.59424e-06
1.58446e-06
1.60465e-06
1.69031e-06
1.6954e-06
1.6999e-06
1.70996e-06
2.99959e-06
3.01795e-06
3.00258e-06
2.93735e-06
2.3852e-06
2.33527e-06
2.30416e-06
2.25638e-06
1.74442e-06
1.68738e-06
1.67729e-06
1.70264e-06
1.81902e-06
1.82781e-06
1.83354e-06
1.84378e-06
3.18985e-06
3.20863e-06
3.19242e-06
3.12413e-06
2.53823e-06
2.48568e-06
2.45214e-06
2.39935e-06
1.84095e-06
1.77736e-06
1.76698e-06
1.79796e-06
1.94808e-06
1.96101e-06
1.96808e-06
1.97842e-06
3.38084e-06
3.40009e-06
3.38301e-06
3.31157e-06
2.69168e-06
2.63647e-06
2.60037e-06
2.5422e-06
1.93405e-06
1.86349e-06
1.85284e-06
1.88997e-06
2.07659e-06
2.09406e-06
2.10258e-06
2.11297e-06
3.57278e-06
3.5925e-06
3.57457e-06
3.50003e-06
2.84649e-06
2.78865e-06
2.74984e-06
2.6858e-06
2.02346e-06
1.94534e-06
1.93437e-06
1.97805e-06
2.20369e-06
2.22611e-06
2.23619e-06
2.24656e-06
3.76462e-06
3.78473e-06
3.76606e-06
3.68879e-06
3.00418e-06
2.94402e-06
2.90239e-06
2.83178e-06
2.10963e-06
2.0232e-06
2.0118e-06
2.06242e-06
2.33012e-06
2.35799e-06
2.36976e-06
2.38001e-06
3.95429e-06
3.97465e-06
3.95543e-06
3.87622e-06
3.16611e-06
3.10439e-06
3.05989e-06
2.98187e-06
2.19416e-06
2.09855e-06
2.08666e-06
2.14491e-06
2.45799e-06
2.49191e-06
2.50553e-06
2.51554e-06
4.13955e-06
4.15989e-06
4.14045e-06
4.06053e-06
3.33265e-06
3.2707e-06
3.22342e-06
3.1369e-06
2.27892e-06
2.17322e-06
2.16076e-06
2.22733e-06
2.58966e-06
2.63031e-06
2.64593e-06
2.65552e-06
4.31842e-06
4.33841e-06
4.31913e-06
4.24006e-06
3.50217e-06
3.44186e-06
3.39197e-06
3.2956e-06
2.36558e-06
2.24897e-06
2.23585e-06
2.31126e-06
2.72577e-06
2.77371e-06
2.79147e-06
2.80047e-06
4.48904e-06
4.50832e-06
4.48957e-06
4.41283e-06
3.65742e-06
3.59957e-06
3.54731e-06
3.44105e-06
2.45519e-06
2.32726e-06
2.31342e-06
2.39788e-06
2.86625e-06
2.92181e-06
2.94179e-06
2.95007e-06
4.64429e-06
4.66322e-06
4.64419e-06
4.56686e-06
3.7846e-06
3.72967e-06
3.67538e-06
3.55981e-06
2.53747e-06
2.40208e-06
2.38867e-06
2.48192e-06
3.01131e-06
3.07459e-06
3.09678e-06
3.10426e-06
4.78637e-06
4.80507e-06
4.78532e-06
4.70595e-06
3.88169e-06
3.82938e-06
3.77335e-06
3.64967e-06
2.60163e-06
2.46322e-06
2.45099e-06
2.55101e-06
3.16062e-06
3.23196e-06
3.25643e-06
3.26297e-06
4.92093e-06
4.93929e-06
4.91884e-06
4.83755e-06
3.96957e-06
3.91846e-06
3.86064e-06
3.73016e-06
2.63426e-06
2.49301e-06
2.48224e-06
2.58966e-06
3.31172e-06
3.39246e-06
3.41954e-06
3.42485e-06
5.05486e-06
5.07299e-06
5.05169e-06
4.96796e-06
4.05957e-06
4.00664e-06
3.9455e-06
3.80639e-06
2.64357e-06
2.49685e-06
2.48777e-06
2.60595e-06
3.44623e-06
3.5419e-06
3.57309e-06
3.57624e-06
5.19599e-06
5.2142e-06
5.19174e-06
5.10424e-06
4.1632e-06
4.10348e-06
4.03851e-06
3.89416e-06
2.64598e-06
2.48772e-06
2.48008e-06
2.61433e-06
3.56724e-06
3.67772e-06
3.71301e-06
3.71414e-06
5.34729e-06
5.366e-06
5.34198e-06
5.24909e-06
4.27731e-06
4.20644e-06
4.13711e-06
3.99023e-06
2.66551e-06
2.48994e-06
2.48333e-06
2.63817e-06
3.67357e-06
3.79815e-06
3.83739e-06
3.83673e-06
5.50416e-06
5.52364e-06
5.49781e-06
5.3985e-06
4.36677e-06
4.28811e-06
4.21409e-06
4.0603e-06
2.68618e-06
2.4917e-06
2.48618e-06
2.66333e-06
3.76974e-06
3.90807e-06
3.95118e-06
3.94883e-06
5.65707e-06
5.67732e-06
5.64967e-06
5.54389e-06
4.4435e-06
4.35875e-06
4.28006e-06
4.11767e-06
2.67043e-06
2.4635e-06
2.45911e-06
2.65222e-06
3.86221e-06
4.01448e-06
4.06148e-06
4.05732e-06
5.79657e-06
5.81735e-06
5.7881e-06
5.67681e-06
4.51399e-06
4.42419e-06
4.34108e-06
4.16984e-06
2.65105e-06
2.43168e-06
2.42841e-06
2.63751e-06
3.95111e-06
4.11743e-06
4.16833e-06
4.16223e-06
5.91578e-06
5.93663e-06
5.90619e-06
5.79112e-06
4.57762e-06
4.48439e-06
4.39729e-06
4.21694e-06
2.62907e-06
2.39714e-06
2.39496e-06
2.62005e-06
4.03619e-06
4.2166e-06
4.27136e-06
4.26321e-06
6.01139e-06
6.03175e-06
6.00061e-06
5.88375e-06
4.63595e-06
4.54068e-06
4.45013e-06
4.261e-06
2.60466e-06
2.36017e-06
2.35905e-06
2.60002e-06
4.11693e-06
4.31137e-06
4.36997e-06
4.35968e-06
6.08701e-06
6.10652e-06
6.07503e-06
5.95785e-06
4.68659e-06
4.59087e-06
4.49739e-06
4.29951e-06
2.57773e-06
2.32087e-06
2.32078e-06
2.57738e-06
4.1925e-06
4.40081e-06
4.46315e-06
4.45063e-06
6.15852e-06
6.17729e-06
6.14543e-06
6.02774e-06
4.73177e-06
4.63601e-06
4.53978e-06
4.33333e-06
2.54852e-06
2.27961e-06
2.28053e-06
2.55233e-06
4.21136e-06
4.44385e-06
4.50892e-06
4.47929e-06
6.25716e-06
6.27627e-06
6.24332e-06
6.12187e-06
4.77801e-06
4.68012e-06
4.58061e-06
4.36596e-06
2.51782e-06
2.23728e-06
2.23915e-06
2.52555e-06
4.21707e-06
4.47511e-06
4.54265e-06
4.49346e-06
6.40785e-06
6.43466e-06
6.39924e-06
6.263e-06
4.83516e-06
4.72941e-06
4.62497e-06
4.40268e-06
2.48721e-06
2.19552e-06
2.19834e-06
2.49892e-06
4.25429e-06
4.5306e-06
4.60111e-06
4.54215e-06
6.60912e-06
6.65917e-06
6.61978e-06
6.44987e-06
4.91485e-06
4.79139e-06
4.67918e-06
4.45022e-06
2.45878e-06
2.15653e-06
2.16041e-06
2.47483e-06
4.35056e-06
4.63282e-06
4.70727e-06
4.65543e-06
6.87687e-06
6.94994e-06
6.9051e-06
6.69705e-06
5.01717e-06
4.86715e-06
4.74489e-06
4.51094e-06
2.43486e-06
2.12286e-06
2.12787e-06
2.45557e-06
4.52225e-06
4.79498e-06
4.87455e-06
4.851e-06
7.11327e-06
7.19531e-06
7.146e-06
6.91568e-06
5.11795e-06
4.9435e-06
4.81253e-06
4.57568e-06
2.4185e-06
2.09791e-06
2.10409e-06
2.44407e-06
4.60838e-06
4.88952e-06
4.97243e-06
4.95129e-06
7.29128e-06
7.3616e-06
7.30955e-06
7.08121e-06
5.16001e-06
4.98428e-06
4.85168e-06
4.61097e-06
2.38904e-06
2.06661e-06
2.07399e-06
2.41962e-06
4.68726e-06
4.97804e-06
5.06378e-06
5.04186e-06
7.4108e-06
7.45118e-06
7.39805e-06
7.19353e-06
5.19425e-06
5.0204e-06
4.88759e-06
4.64434e-06
2.31689e-06
2.00716e-06
2.01579e-06
2.35263e-06
4.77129e-06
5.06993e-06
5.15801e-06
5.13558e-06
7.39653e-06
7.43412e-06
7.3822e-06
7.18403e-06
5.22539e-06
5.05457e-06
4.92276e-06
4.67963e-06
2.3062e-06
2.00412e-06
2.01406e-06
2.34733e-06
4.86111e-06
5.16511e-06
5.25485e-06
5.23225e-06
7.35718e-06
7.39151e-06
7.3412e-06
7.15108e-06
5.25176e-06
5.08496e-06
4.95553e-06
4.71585e-06
2.39685e-06
2.0905e-06
2.10184e-06
2.44381e-06
4.9566e-06
5.26286e-06
5.3534e-06
5.33109e-06
7.2912e-06
7.32168e-06
7.27338e-06
7.09309e-06
5.27092e-06
5.10904e-06
4.98342e-06
4.75079e-06
2.61413e-06
2.28646e-06
2.29932e-06
2.66738e-06
5.05643e-06
5.36167e-06
5.45211e-06
5.4306e-06
7.19656e-06
7.22266e-06
7.17674e-06
7.00798e-06
5.28012e-06
5.12399e-06
5.00352e-06
4.78135e-06
2.72554e-06
2.40625e-06
2.42076e-06
2.7856e-06
5.15792e-06
5.45917e-06
5.54871e-06
5.52848e-06
7.07517e-06
7.09645e-06
7.05318e-06
6.89716e-06
5.27561e-06
5.12588e-06
5.01179e-06
4.80322e-06
2.85188e-06
2.54435e-06
2.56065e-06
2.91939e-06
5.25799e-06
5.55267e-06
5.64064e-06
5.62212e-06
6.9332e-06
6.94962e-06
6.90898e-06
6.76572e-06
5.25536e-06
5.11161e-06
5.00472e-06
4.81277e-06
2.9875e-06
2.6948e-06
2.71313e-06
3.06337e-06
5.35552e-06
5.64164e-06
5.72749e-06
5.71104e-06
6.77972e-06
6.79167e-06
6.75336e-06
6.62151e-06
5.21846e-06
5.07903e-06
4.97974e-06
4.80738e-06
3.12773e-06
2.85283e-06
2.87359e-06
3.21369e-06
5.45022e-06
5.72627e-06
5.8096e-06
5.7955e-06
6.5592e-06
6.58441e-06
6.54893e-06
6.41393e-06
5.16429e-06
5.02685e-06
4.93533e-06
4.78534e-06
3.26912e-06
3.01471e-06
3.03835e-06
3.36699e-06
5.5428e-06
5.80774e-06
5.88829e-06
5.87673e-06
6.31026e-06
6.35847e-06
6.32563e-06
6.17808e-06
5.09343e-06
4.95517e-06
4.87132e-06
4.74629e-06
3.40934e-06
3.17791e-06
3.20488e-06
3.521e-06
5.6328e-06
5.88581e-06
5.96337e-06
5.95452e-06
6.12697e-06
6.18527e-06
6.15333e-06
5.99947e-06
5.00761e-06
4.86507e-06
4.78859e-06
4.69093e-06
3.54688e-06
3.34074e-06
3.37148e-06
3.67415e-06
5.71966e-06
5.95999e-06
6.03438e-06
6.02847e-06
6.03653e-06
6.08657e-06
6.05334e-06
5.90293e-06
4.90865e-06
4.758e-06
4.68836e-06
4.6203e-06
3.61414e-06
3.42795e-06
3.46284e-06
3.75858e-06
5.80226e-06
6.02912e-06
6.10016e-06
6.09744e-06
6.07675e-06
6.09095e-06
6.05366e-06
5.92297e-06
4.77426e-06
4.6128e-06
4.54371e-06
4.48821e-06
3.56603e-06
3.38926e-06
3.4286e-06
3.72893e-06
5.82785e-06
6.06132e-06
6.13447e-06
6.13183e-06
6.02311e-06
6.03319e-06
5.99272e-06
5.85577e-06
4.61327e-06
4.43821e-06
4.36531e-06
4.31143e-06
3.41434e-06
3.23759e-06
3.28166e-06
3.59677e-06
5.81269e-06
6.06587e-06
6.14472e-06
6.14018e-06
5.96675e-06
5.97967e-06
5.93552e-06
5.78434e-06
4.44696e-06
4.25491e-06
4.1787e-06
4.13144e-06
3.14121e-06
2.99246e-06
3.04143e-06
3.34396e-06
5.7998e-06
6.06804e-06
6.15139e-06
6.14589e-06
5.9282e-06
5.94476e-06
5.89615e-06
5.72756e-06
4.28647e-06
4.07386e-06
3.9973e-06
3.96953e-06
3.03629e-06
2.91625e-06
2.97027e-06
3.25993e-06
5.81033e-06
6.08011e-06
6.16435e-06
6.1603e-06
5.90479e-06
5.92568e-06
5.87193e-06
5.68317e-06
4.13882e-06
3.9022e-06
3.82981e-06
3.8391e-06
3.18269e-06
3.09118e-06
3.15032e-06
3.42754e-06
5.85696e-06
6.10927e-06
6.18936e-06
6.19006e-06
5.89375e-06
5.91946e-06
5.86e-06
5.64884e-06
4.00706e-06
3.74334e-06
3.68019e-06
3.74561e-06
3.61461e-06
3.54854e-06
3.61282e-06
3.88072e-06
5.94418e-06
6.15816e-06
6.22852e-06
6.2376e-06
5.89212e-06
5.92294e-06
5.85734e-06
5.62217e-06
3.88902e-06
3.5958e-06
3.54622e-06
3.68377e-06
4.05113e-06
4.0588e-06
4.12819e-06
4.33844e-06
6.06443e-06
6.22236e-06
6.27826e-06
6.29879e-06
5.89673e-06
5.93267e-06
5.86067e-06
5.60058e-06
3.78118e-06
3.45696e-06
3.42404e-06
3.64491e-06
4.58876e-06
4.68209e-06
4.75653e-06
4.89694e-06
6.20608e-06
6.29526e-06
6.33332e-06
6.36745e-06
5.9042e-06
5.94503e-06
5.86654e-06
5.58153e-06
3.67731e-06
3.32185e-06
3.30653e-06
3.61387e-06
5.15002e-06
5.3318e-06
5.41111e-06
5.47835e-06
6.34917e-06
6.36529e-06
6.38434e-06
6.43282e-06
5.91099e-06
5.95617e-06
5.87138e-06
5.56253e-06
3.56923e-06
3.18397e-06
3.18417e-06
3.57008e-06
5.59713e-06
5.85401e-06
5.93787e-06
5.9443e-06
6.46604e-06
6.41626e-06
6.41825e-06
6.47992e-06
5.9135e-06
5.96215e-06
5.87157e-06
5.54128e-06
3.43675e-06
3.02575e-06
3.033e-06
3.46679e-06
5.89025e-06
6.2034e-06
6.29128e-06
6.25409e-06
6.49912e-06
6.41482e-06
6.40818e-06
6.47788e-06
5.90815e-06
5.95906e-06
5.86361e-06