/*--------------------------------*- C++ -*----------------------------------*\
| =========                 |                                                 |
| \\      /  F ield         | OpenFOAM: The Open Source CFD Toolbox           |
|  \\    /   O peration     | Version:  v1912                                 |
|   \\  /    A nd           | Website:  www.openfoam.com                      |
|    \\/     M anipulation  |                                                 |
\*---------------------------------------------------------------------------*/
FoamFile
{
    version     2.0;
    format      ascii;
    class       volSymmTensorField;
    location    "100";
    object      UPrime2Mean;
}
// * * * * * * * * * * * * * * * * * * * * * * * * * * * * * * * * * * * * * //

dimensions      [0 2 -2 0 0 0 0];


internalField   nonuniform List<symmTensor> 
10077
(
(1.02936e-05 1.1499e-08 -5.48553e-07 5.2697e-07 2.02556e-07 8.00391e-06)
(1.04159e-05 1.2339e-08 -5.53912e-07 5.22276e-07 2.00903e-07 7.92401e-06)
(1.05939e-05 1.40573e-08 -5.52585e-07 5.07011e-07 1.94913e-07 7.76482e-06)
(1.08314e-05 1.66631e-08 -5.45087e-07 4.81332e-07 1.84666e-07 7.52532e-06)
(1.891e-05 8.9918e-08 -2.11609e-07 3.50509e-07 1.41712e-07 5.97189e-06)
(1.94089e-05 9.31991e-08 -2.1527e-07 3.03669e-07 1.21745e-07 6.06574e-06)
(1.94076e-05 9.34981e-08 -2.11482e-07 2.68495e-07 1.06997e-07 6.06113e-06)
(1.89061e-05 9.0822e-08 -2.00162e-07 2.44186e-07 9.71327e-08 5.95797e-06)
(1.16274e-05 1.13717e-08 -1.32367e-07 2.85426e-09 -1.75783e-09 6.41338e-06)
(1.15212e-05 8.18919e-09 -1.10036e-07 2.90021e-09 -1.64422e-09 6.54426e-06)
(1.152e-05 4.87258e-09 -8.7676e-08 2.89736e-09 -1.63405e-09 6.56104e-06)
(1.16238e-05 1.3465e-09 -6.47805e-08 2.84565e-09 -1.72708e-09 6.4641e-06)
(2.18356e-05 -1.03194e-07 1.02331e-07 3.78531e-09 -4.9378e-09 8.29117e-06)
(2.28121e-05 -1.08796e-07 1.14164e-07 3.93091e-09 -5.42152e-09 8.58659e-06)
(2.33915e-05 -1.12188e-07 1.18543e-07 4.01868e-09 -5.65981e-09 8.76807e-06)
(2.35674e-05 -1.13347e-07 1.14999e-07 4.04789e-09 -5.64231e-09 8.83466e-06)
(1.89274e-05 3.76537e-08 -1.09683e-06 5.60943e-07 2.22447e-07 1.85966e-05)
(1.92663e-05 4.01216e-08 -1.1003e-06 5.57274e-07 2.21163e-07 1.8546e-05)
(1.99279e-05 4.53025e-08 -1.08461e-06 5.45211e-07 2.15805e-07 1.84634e-05)
(2.09352e-05 5.33633e-08 -1.04996e-06 5.24503e-07 2.06285e-07 1.83453e-05)
(3.01359e-05 1.40795e-07 -9.26236e-08 2.4048e-08 -1.67279e-08 1.68175e-05)
(3.05312e-05 1.44606e-07 -6.22772e-08 2.25082e-08 -1.69337e-08 1.68273e-05)
(3.05229e-05 1.45066e-07 -4.12896e-08 2.13199e-08 -1.66952e-08 1.68281e-05)
(3.01105e-05 1.42196e-07 -2.87543e-08 2.04319e-08 -1.60023e-08 1.68201e-05)
(2.42913e-05 2.69476e-08 -1.78829e-07 1.05583e-08 -2.21461e-08 1.81235e-05)
(2.37603e-05 1.68037e-08 -1.66167e-07 1.05772e-08 -2.20816e-08 1.82639e-05)
(2.37573e-05 6.68042e-09 -1.54753e-07 1.05661e-08 -2.20606e-08 1.8355e-05)
(2.42822e-05 -3.85938e-09 -1.44094e-07 1.05246e-08 -2.20821e-08 1.84008e-05)
(3.23689e-05 -1.44871e-07 -1.87433e-07 1.2358e-08 -1.65681e-08 2.08157e-05)
(3.30952e-05 -1.51134e-07 -1.84011e-07 1.2554e-08 -1.74005e-08 2.09952e-05)
(3.35126e-05 -1.54972e-07 -1.84587e-07 1.26699e-08 -1.78074e-08 2.10941e-05)
(3.3629e-05 -1.56487e-07 -1.89484e-07 1.27082e-08 -1.77876e-08 2.11138e-05)
(2.57935e-05 4.1548e-08 -2.22201e-06 2.31205e-07 3.00625e-09 3.91124e-05)
(2.61156e-05 4.42591e-08 -2.20271e-06 2.29899e-07 2.67527e-09 3.90836e-05)
(2.67178e-05 5.01812e-08 -2.12787e-06 2.25583e-07 1.31595e-09 3.89683e-05)
(2.76217e-05 5.94976e-08 -1.99617e-06 2.1817e-07 -1.09454e-09 3.87646e-05)
(4.13745e-05 1.74252e-07 2.40854e-07 1.5375e-07 5.45469e-09 3.66848e-05)
(4.19201e-05 1.79536e-07 3.37504e-07 1.37411e-07 -4.69729e-09 3.66878e-05)
(4.18984e-05 1.80512e-07 3.93055e-07 1.25557e-07 -1.18474e-08 3.67127e-05)
(4.13084e-05 1.77223e-07 4.09907e-07 1.17676e-07 -1.63045e-08 3.67605e-05)
(3.03046e-05 3.67746e-08 -2.26081e-08 3.19435e-08 -7.34139e-08 3.97756e-05)
(2.98236e-05 2.55967e-08 -6.56364e-08 3.18959e-08 -7.39352e-08 4.00731e-05)
(2.98271e-05 1.44443e-08 -1.04806e-07 3.18559e-08 -7.3903e-08 4.02925e-05)
(3.03152e-05 2.83577e-09 -1.41808e-07 3.18217e-08 -7.33157e-08 4.04431e-05)
(4.46389e-05 -1.73366e-07 -5.78979e-07 3.598e-08 -6.64688e-08 4.52066e-05)
(4.56736e-05 -1.80923e-07 -5.94701e-07 3.63822e-08 -6.66102e-08 4.54921e-05)
(4.62653e-05 -1.85627e-07 -6.04347e-07 3.66274e-08 -6.66421e-08 4.56306e-05)
(4.6425e-05 -1.87611e-07 -6.08174e-07 3.67222e-08 -6.65592e-08 4.56216e-05)
(3.27508e-05 2.38138e-08 -3.83883e-06 3.03954e-07 -9.52766e-08 6.74829e-05)
(3.3101e-05 2.5793e-08 -3.7955e-06 3.02504e-07 -9.60048e-08 6.74615e-05)
(3.37367e-05 3.05037e-08 -3.65021e-06 2.97656e-07 -9.67091e-08 6.73075e-05)
(3.46815e-05 3.80801e-08 -3.40002e-06 2.89311e-07 -9.74381e-08 6.70195e-05)
(4.89873e-05 1.51761e-07 8.84308e-07 9.4224e-08 -1.71159e-07 6.41211e-05)
(4.95694e-05 1.56619e-07 1.07637e-06 9.22263e-08 -1.69517e-07 6.40911e-05)
(4.95296e-05 1.57716e-07 1.18252e-06 9.05345e-08 -1.68934e-07 6.41429e-05)
(4.88661e-05 1.55099e-07 1.20733e-06 8.90756e-08 -1.69383e-07 6.42789e-05)
(3.71123e-05 3.63276e-08 2.43009e-07 7.03526e-08 -1.76783e-07 6.95857e-05)
(3.66063e-05 2.83004e-08 1.51453e-07 7.00631e-08 -1.78639e-07 7.0081e-05)
(3.66237e-05 2.03402e-08 7.02724e-08 6.99675e-08 -1.78674e-07 7.04767e-05)
(3.71652e-05 1.21033e-08 -4.03887e-09 7.00617e-08 -1.76891e-07 7.07899e-05)
(5.28291e-05 -1.31583e-07 -1.09971e-06 7.64142e-08 -1.64948e-07 7.86833e-05)
(5.39885e-05 -1.37526e-07 -1.14006e-06 7.69284e-08 -1.63582e-07 7.90908e-05)
(5.46472e-05 -1.41326e-07 -1.16409e-06 7.72485e-08 -1.62806e-07 7.9278e-05)
(5.48168e-05 -1.43103e-07 -1.17235e-06 7.73839e-08 -1.62605e-07 7.92426e-05)
(4.18836e-05 1.36861e-08 -5.82678e-06 2.56571e-07 -3.80071e-07 0.000102196)
(4.22988e-05 1.49249e-08 -5.75509e-06 2.55857e-07 -3.80271e-07 0.000102188)
(4.30444e-05 1.83407e-08 -5.52374e-06 2.53343e-07 -3.77421e-07 0.000101994)
(4.41484e-05 2.40179e-08 -5.12782e-06 2.48982e-07 -3.71532e-07 0.000101613)
(5.95448e-05 1.08426e-07 1.58903e-06 1.71868e-07 -3.14996e-07 9.7771e-05)
(6.01714e-05 1.1238e-07 1.89696e-06 1.67123e-07 -3.13596e-07 9.77026e-05)
(6.01096e-05 1.13521e-07 2.06643e-06 1.63299e-07 -3.14146e-07 9.77843e-05)
(5.93568e-05 1.11897e-07 2.10477e-06 1.60231e-07 -3.1667e-07 9.80194e-05)
(4.66462e-05 3.3108e-08 6.21698e-07 1.22155e-07 -3.46628e-07 0.000105995)
(4.60513e-05 2.80573e-08 4.74732e-07 1.21692e-07 -3.50273e-07 0.000106723)
(4.60847e-05 2.32597e-08 3.45879e-07 1.2153e-07 -3.50547e-07 0.000107332)
(4.67476e-05 1.85081e-08 2.29573e-07 1.2166e-07 -3.47463e-07 0.000107848)
(6.41326e-05 -6.81388e-08 -1.50226e-06 1.31955e-07 -3.21409e-07 0.000119618)
(6.54457e-05 -7.12566e-08 -1.56408e-06 1.32785e-07 -3.17956e-07 0.000120184)
(6.61872e-05 -7.34418e-08 -1.60125e-06 1.33299e-07 -3.15932e-07 0.000120435)
(6.63696e-05 -7.47847e-08 -1.61468e-06 1.33511e-07 -3.15294e-07 0.000120368)
(5.19662e-05 1.09292e-08 -8.09256e-06 3.81736e-07 -6.4377e-07 0.000141227)
(5.24343e-05 1.1534e-08 -7.98737e-06 3.80748e-07 -6.43965e-07 0.000141243)
(5.32617e-05 1.38311e-08 -7.65568e-06 3.77217e-07 -6.39248e-07 0.000141009)
(5.44798e-05 1.78623e-08 -7.0903e-06 3.71075e-07 -6.29629e-07 0.000140525)
(7.11387e-05 6.92936e-08 2.41589e-06 2.5176e-07 -5.44628e-07 0.000135777)
(7.18117e-05 7.18822e-08 2.85768e-06 2.46239e-07 -5.39884e-07 0.000135674)
(7.17248e-05 7.26669e-08 3.10066e-06 2.41696e-07 -5.39193e-07 0.000135787)
(7.08745e-05 7.16817e-08 3.15532e-06 2.37933e-07 -5.42525e-07 0.000136123)
(5.68027e-05 2.69483e-08 1.12311e-06 1.8973e-07 -5.86705e-07 0.000146958)
(5.61413e-05 2.41949e-08 9.11967e-07 1.89006e-07 -5.92671e-07 0.000147944)
(5.61924e-05 2.20052e-08 7.28016e-07 1.88753e-07 -5.93377e-07 0.00014879)
(5.69581e-05 2.02847e-08 5.6331e-07 1.8896e-07 -5.88855e-07 0.000149531)
(7.65364e-05 -6.93737e-09 -1.85828e-06 2.03088e-07 -5.45152e-07 0.000165799)
(7.8017e-05 -7.12983e-09 -1.94301e-06 2.04187e-07 -5.39362e-07 0.000166559)
(7.88487e-05 -7.64596e-09 -1.99435e-06 2.04866e-07 -5.35854e-07 0.00016689)
(7.90452e-05 -8.54563e-09 -2.01361e-06 2.05146e-07 -5.34539e-07 0.000166788)
(6.19576e-05 1.49246e-08 -1.05615e-05 5.20857e-07 -1.01147e-06 0.000182782)
(6.24601e-05 1.47349e-08 -1.04194e-05 5.19634e-07 -1.01143e-06 0.000182827)
(6.33305e-05 1.5502e-08 -9.97799e-06 5.15178e-07 -1.0039e-06 0.000182555)
(6.46026e-05 1.72137e-08 -9.22767e-06 5.07404e-07 -9.88868e-07 0.000181967)
(8.1845e-05 2.38036e-08 3.33586e-06 3.56786e-07 -8.35681e-07 0.000176393)
(8.25361e-05 2.46006e-08 3.92468e-06 3.49462e-07 -8.2799e-07 0.000176257)
(8.24219e-05 2.47901e-08 4.24911e-06 3.43435e-07 -8.26567e-07 0.000176404)
(8.14973e-05 2.43802e-08 4.32316e-06 3.38444e-07 -8.31351e-07 0.000176842)
(6.64696e-05 1.60994e-08 1.74403e-06 2.73925e-07 -9.00183e-07 0.000190618)
(6.5772e-05 1.59717e-08 1.46539e-06 2.72906e-07 -9.08987e-07 0.000191874)
(6.58423e-05 1.67735e-08 1.22376e-06 2.72541e-07 -9.10353e-07 0.000192971)
(6.66838e-05 1.85396e-08 1.00872e-06 2.72812e-07 -9.0434e-07 0.000193956)
(8.79299e-05 5.81519e-08 -2.12761e-06 2.91228e-07 -8.41006e-07 0.000215108)
(8.95356e-05 6.12641e-08 -2.23541e-06 2.92632e-07 -8.32588e-07 0.000216084)
(9.04327e-05 6.26483e-08 -2.30131e-06 2.93497e-07 -8.2735e-07 0.000216508)
(9.06353e-05 6.22814e-08 -2.32707e-06 2.93848e-07 -8.25144e-07 0.000216371)
(7.13718e-05 2.09424e-08 -1.31638e-05 6.9566e-07 -1.45128e-06 0.000225223)
(7.18901e-05 1.95888e-08 -1.29833e-05 6.94098e-07 -1.45107e-06 0.0002253)
(7.27662e-05 1.79862e-08 -1.24278e-05 6.88332e-07 -1.4405e-06 0.000224992)
(7.40349e-05 1.60439e-08 -1.14851e-05 6.78255e-07 -1.41957e-06 0.000224301)
(9.11113e-05 -4.2375e-08 4.28321e-06 4.83782e-07 -1.19762e-06 0.000217967)
(9.17898e-05 -4.43152e-08 5.02668e-06 4.74061e-07 -1.18629e-06 0.000217799)
(9.16464e-05 -4.50624e-08 5.43828e-06 4.661e-07 -1.18387e-06 0.00021798)
(9.06748e-05 -4.46489e-08 5.53578e-06 4.59554e-07 -1.19025e-06 0.000218517)
(7.51904e-05 -1.7644e-09 2.47361e-06 3.74789e-07 -1.2877e-06 0.00023525)
(7.44854e-05 1.93379e-09 2.12977e-06 3.73446e-07 -1.29986e-06 0.000236779)
(7.4576e-05 6.93948e-09 1.83317e-06 3.72945e-07 -1.30213e-06 0.000238133)
(7.54659e-05 1.34689e-08 1.57099e-06 3.73267e-07 -1.29461e-06 0.00023937)
(9.77232e-05 1.413e-07 -2.22928e-06 3.96333e-07 -1.21112e-06 0.000265581)
(9.94045e-05 1.48663e-07 -2.35707e-06 3.9807e-07 -1.19983e-06 0.000266786)
(0.000100338 1.5252e-07 -2.43615e-06 3.99136e-07 -1.19266e-06 0.000267308)
(0.000100538 1.52901e-07 -2.46874e-06 3.99559e-07 -1.18938e-06 0.000267137)
(7.99592e-05 2.78818e-08 -1.58269e-05 8.99822e-07 -1.96519e-06 0.00026702)
(8.04783e-05 2.47974e-08 -1.56082e-05 8.97862e-07 -1.96486e-06 0.000267129)
(8.13293e-05 1.9558e-08 -1.49387e-05 8.90558e-07 -1.95096e-06 0.000266783)
(8.25473e-05 1.19556e-08 -1.38034e-05 8.77775e-07 -1.92345e-06 0.000265989)
(9.88321e-05 -1.40922e-07 5.20159e-06 6.30615e-07 -1.62628e-06 0.000258914)
(9.94721e-05 -1.46924e-07 6.10176e-06 6.18257e-07 -1.61097e-06 0.000258715)
(9.92985e-05 -1.48998e-07 6.60365e-06 6.0817e-07 -1.6075e-06 0.000258929)
(9.83036e-05 -1.47234e-07 6.72893e-06 5.99918e-07 -1.61574e-06 0.000259564)
(8.27908e-05 -2.81871e-08 3.29287e-06 4.92879e-07 -1.74587e-06 0.000279223)
(8.21022e-05 -1.87082e-08 2.89088e-06 4.91175e-07 -1.76188e-06 0.000281022)
(8.22127e-05 -7.57745e-09 2.54677e-06 4.90519e-07 -1.76529e-06 0.000282631)
(8.31271e-05 5.686e-09 2.24566e-06 4.90884e-07 -1.75625e-06 0.000284118)
(0.000105804 2.53867e-07 -2.09005e-06 5.18899e-07 -1.65368e-06 0.000315362)
(0.000107517 2.66856e-07 -2.23129e-06 5.20983e-07 -1.63933e-06 0.000316798)
(0.000108462 2.7402e-07 -2.3202e-06 5.22257e-07 -1.63007e-06 0.00031742)
(0.000108652 2.75459e-07 -2.35944e-06 5.22753e-07 -1.62558e-06 0.000317217)
(8.76248e-05 3.44982e-08 -1.84743e-05 1.13027e-06 -2.54266e-06 0.000306922)
(8.8134e-05 2.89936e-08 -1.82192e-05 1.12788e-06 -2.54237e-06 0.000307058)
(8.89389e-05 1.85873e-08 -1.74395e-05 1.11887e-06 -2.52498e-06 0.00030667)
(9.00737e-05 2.90809e-09 -1.61177e-05 1.10309e-06 -2.49044e-06 0.000305768)
(0.000105135 -2.79128e-07 6.05377e-06 7.98156e-07 -2.11628e-06 0.000297914)
(0.000105719 -2.90747e-07 7.10746e-06 7.82823e-07 -2.09682e-06 0.000297684)
(0.000105516 -2.94559e-07 7.69962e-06 7.70351e-07 -2.09237e-06 0.000297928)
(0.000104515 -2.90726e-07 7.85585e-06 7.60201e-07 -2.10274e-06 0.000298656)
(8.92799e-05 -6.39425e-08 4.17096e-06 6.28426e-07 -2.26877e-06 0.000321182)
(8.86234e-05 -4.62471e-08 3.72077e-06 6.26335e-07 -2.28908e-06 0.000323245)
(8.87522e-05 -2.66344e-08 3.33995e-06 6.2551e-07 -2.29385e-06 0.000325099)
(8.96719e-05 -4.2574e-09 3.01205e-06 6.25915e-07 -2.28329e-06 0.000326826)
(0.000112304 4.02725e-07 -1.66586e-06 6.59231e-07 -2.16423e-06 0.000362913)
(0.000114015 4.22949e-07 -1.81073e-06 6.61679e-07 -2.14676e-06 0.000364576)
(0.000114952 4.34395e-07 -1.90414e-06 6.63169e-07 -2.13533e-06 0.000365299)
(0.000115128 4.37261e-07 -1.94912e-06 6.6374e-07 -2.12955e-06 0.000365067)
(9.43811e-05 3.99438e-08 -2.10321e-05 1.38547e-06 -3.17736e-06 0.000344157)
(9.48748e-05 3.13068e-08 -2.07431e-05 1.38261e-06 -3.1773e-06 0.000344313)
(9.56229e-05 1.41633e-08 -1.98595e-05 1.37177e-06 -3.15629e-06 0.000343878)
(9.66586e-05 -1.20701e-08 -1.83616e-05 1.35275e-06 -3.11431e-06 0.00034286)
(0.000110274 -4.58554e-07 6.82386e-06 9.8555e-07 -2.66282e-06 0.000334131)
(0.000110793 -4.77358e-07 8.02324e-06 9.66974e-07 -2.63904e-06 0.000333869)
(0.000110561 -4.83285e-07 8.70232e-06 9.51912e-07 -2.63362e-06 0.00033414)
(0.000109566 -4.76592e-07 8.89041e-06 9.39713e-07 -2.64632e-06 0.000334957)
(9.47808e-05 -1.08866e-07 5.06435e-06 7.81164e-07 -2.84958e-06 0.000360302)
(9.41639e-05 -8.04244e-08 4.57638e-06 7.78663e-07 -2.87457e-06 0.000362619)
(9.43081e-05 -4.9915e-08 4.17092e-06 7.77656e-07 -2.88092e-06 0.000364707)
(9.52196e-05 -1.60204e-08 3.83043e-06 7.78101e-07 -2.8689e-06 0.000366658)
(0.000117487 5.88635e-07 -9.46836e-07 8.17049e-07 -2.73766e-06 0.00040729)
(0.000119174 6.17681e-07 -1.08291e-06 8.19871e-07 -2.71707e-06 0.000409171)
(0.000120091 6.34377e-07 -1.1738e-06 8.21583e-07 -2.70347e-06 0.000409991)
(0.000120249 6.39042e-07 -1.22283e-06 8.22228e-07 -2.69637e-06 0.000409735)
(0.000100304 4.41902e-08 -2.34421e-05 1.66029e-06 -3.8595e-06 0.000378515)
(0.000100781 3.17937e-08 -2.31221e-05 1.65696e-06 -3.85989e-06 0.000378685)
(0.00010147 6.52925e-09 -2.21424e-05 1.64423e-06 -3.83528e-06 0.000378194)
(0.000102404 -3.24407e-08 -2.04813e-05 1.62188e-06 -3.7857e-06 0.000377053)
(0.000114531 -6.74493e-07 7.50958e-06 1.19071e-06 -3.26208e-06 0.000367304)
(0.000114984 -7.01826e-07 8.84343e-06 1.16877e-06 -3.23371e-06 0.000367007)
(0.000114725 -7.10169e-07 9.60292e-06 1.15102e-06 -3.22718e-06 0.000367303)
(0.000113742 -6.99883e-07 9.82087e-06 1.13669e-06 -3.24221e-06 0.000368205)
(9.94594e-05 -1.61753e-07 5.92945e-06 9.5019e-07 -3.48138e-06 0.000396374)
(9.88827e-05 -1.20347e-07 5.41317e-06 9.47253e-07 -3.51134e-06 0.000398937)
(9.90385e-05 -7.68525e-08 4.99506e-06 9.4605e-07 -3.51946e-06 0.000401248)
(9.99335e-05 -2.9392e-08 4.65705e-06 9.46531e-07 -3.50609e-06 0.000403407)
(0.000121653 8.05953e-07 5.13177e-08 9.91326e-07 -3.36838e-06 0.000448234)
(0.000123303 8.45134e-07 -6.13575e-08 9.94531e-07 -3.34481e-06 0.000450319)
(0.000124193 8.67884e-07 -1.41255e-07 9.96468e-07 -3.32909e-06 0.000451231)
(0.000124332 8.74669e-07 -1.91772e-07 9.97186e-07 -3.32066e-06 0.000450952)
(0.000105497 4.85042e-08 -2.56727e-05 1.94816e-06 -4.57392e-06 0.000410204)
(0.000105959 3.18997e-08 -2.53246e-05 1.94439e-06 -4.57504e-06 0.000410381)
(0.000106593 -2.49528e-09 -2.42571e-05 1.92984e-06 -4.54714e-06 0.000409827)
(0.000107431 -5.58029e-08 -2.24464e-05 1.90425e-06 -4.49028e-06 0.000408555)
(0.000118155 -9.17214e-07 8.11382e-06 1.41052e-06 -3.90497e-06 0.00039763)
(0.000118547 -9.54092e-07 9.56946e-06 1.3853e-06 -3.87232e-06 0.000397294)
(0.000118263 -9.65081e-07 1.04012e-05 1.36491e-06 -3.86491e-06 0.000397614)
(0.000117291 -9.50656e-07 1.06449e-05 1.34846e-06 -3.88239e-06 0.000398605)
(0.000103476 -2.20582e-07 6.73934e-06 1.13402e-06 -4.15738e-06 0.000429614)
(0.000102936 -1.64664e-07 6.20295e-06 1.13064e-06 -4.19246e-06 0.00043242)
(0.000103099 -1.06759e-07 5.78366e-06 1.12923e-06 -4.20251e-06 0.000434945)
(0.000103973 -4.43683e-08 5.46334e-06 1.12974e-06 -4.18797e-06 0.000437299)
(0.00012507 1.04468e-06 1.30361e-06 1.18057e-06 -4.0501e-06 0.000485964)
(0.000126679 1.09486e-06 1.22974e-06 1.18417e-06 -4.02382e-06 0.000488234)
(0.000127539 1.12421e-06 1.17003e-06 1.18634e-06 -4.00613e-06 0.000489227)
(0.00012766 1.13334e-06 1.12119e-06 1.18713e-06 -3.99638e-06 0.000488923)
(0.000110064 5.4872e-08 -2.77172e-05 2.24402e-06 -5.30479e-06 0.000439555)
(0.000110513 3.38108e-08 -2.7344e-05 2.23987e-06 -5.307e-06 0.000439734)
(0.000111099 -1.03135e-08 -2.61966e-05 2.22361e-06 -5.27641e-06 0.000439112)
(0.000111853 -7.89247e-08 -2.42496e-05 2.19497e-06 -5.21314e-06 0.0004377)
(0.000121332 -1.17588e-06 8.63978e-06 1.64237e-06 -4.58265e-06 0.000425435)
(0.000121668 -1.22298e-06 1.02049e-05 1.61414e-06 -4.54673e-06 0.000425049)
(0.000121362 -1.23679e-06 1.11008e-05 1.59129e-06 -4.53903e-06 0.00042539)
(0.0001204 -1.21791e-06 1.13661e-05 1.57282e-06 -4.55922e-06 0.000426471)
(0.000106963 -2.82974e-07 7.48447e-06 1.33142e-06 -4.87192e-06 0.00046031)
(0.000106452 -2.11736e-07 6.93505e-06 1.32759e-06 -4.91214e-06 0.000463353)
(0.000106619 -1.38716e-07 6.52489e-06 1.32597e-06 -4.92422e-06 0.000466083)
(0.00010747 -6.07606e-08 6.23629e-06 1.3265e-06 -4.9087e-06 0.000468621)
(0.000127951 1.29453e-06 2.78382e-06 1.38368e-06 -4.77727e-06 0.000520761)
(0.00012952 1.35614e-06 2.7629e-06 1.38771e-06 -4.74871e-06 0.000523194)
(0.000130352 1.39236e-06 2.73188e-06 1.39012e-06 -4.72928e-06 0.000524255)
(0.000130455 1.40398e-06 2.68782e-06 1.39097e-06 -4.71823e-06 0.000523924)
(0.000114087 6.42951e-08 -2.9581e-05 2.54659e-06 -6.04781e-06 0.000466757)
(0.000114527 3.86595e-08 -2.91853e-05 2.5421e-06 -6.05146e-06 0.000466936)
(0.000115074 -1.55195e-08 -2.79661e-05 2.52429e-06 -6.01883e-06 0.000466242)
(0.000115755 -9.99751e-08 -2.58961e-05 2.49284e-06 -5.95012e-06 0.000464684)
(0.00012418 -1.44257e-06 9.08812e-06 1.88588e-06 -5.2917e-06 0.00045088)
(0.000124468 -1.50031e-06 1.0751e-05 1.85491e-06 -5.2535e-06 0.000450436)
(0.000124142 -1.51707e-06 1.17036e-05 1.82978e-06 -5.24612e-06 0.000450791)
(0.000123186 -1.49357e-06 1.1987e-05 1.8094e-06 -5.26924e-06 0.000451959)
(0.000110015 -3.46994e-07 8.16212e-06 1.54218e-06 -5.6208e-06 0.000488548)
(0.000109527 -2.60086e-07 7.60619e-06 1.53794e-06 -5.6661e-06 0.000491815)
(0.000109695 -1.71681e-07 7.21434e-06 1.53612e-06 -5.68031e-06 0.00049474)
(0.000110524 -7.7962e-08 6.96966e-06 1.53667e-06 -5.66404e-06 0.000497447)
(0.000130447 1.54886e-06 4.45995e-06 1.60063e-06 -5.54593e-06 0.000552711)
(0.00013198 1.62201e-06 4.50408e-06 1.60509e-06 -5.51553e-06 0.000555287)
(0.000132786 1.66518e-06 4.50909e-06 1.60775e-06 -5.49458e-06 0.000556406)
(0.000132873 1.67935e-06 4.47256e-06 1.60868e-06 -5.48227e-06 0.000556046)
(0.000117628 7.65556e-08 -3.12661e-05 2.85771e-06 -6.80792e-06 0.000491819)
(0.000118064 4.62673e-08 -3.0851e-05 2.85294e-06 -6.81332e-06 0.000491993)
(0.000118578 -1.81947e-08 -2.95679e-05 2.83369e-06 -6.7791e-06 0.000491221)
(0.0001192 -1.18878e-07 -2.73885e-05 2.79964e-06 -6.70559e-06 0.000489513)
(0.000126761 -1.71358e-06 9.45972e-06 2.14222e-06 -6.03239e-06 0.000473968)
(0.00012701 -1.78223e-06 1.12086e-05 2.1087e-06 -5.99235e-06 0.000473457)
(0.000126665 -1.80201e-06 1.22105e-05 2.08142e-06 -5.98548e-06 0.000473816)
(0.000125712 -1.77379e-06 1.25089e-05 2.05922e-06 -6.01149e-06 0.000475061)
(0.000112696 -4.11638e-07 8.77098e-06 1.76698e-06 -6.39983e-06 0.000514237)
(0.000112225 -3.08831e-07 8.21492e-06 1.76233e-06 -6.45015e-06 0.000517716)
(0.000112391 -2.04889e-07 7.84981e-06 1.76033e-06 -6.46657e-06 0.000520819)
(0.0001132 -9.53209e-08 7.65988e-06 1.76091e-06 -6.44981e-06 0.000523682)
(0.000132651 1.80483e-06 6.29816e-06 1.83205e-06 -6.35224e-06 0.000581753)
(0.000134154 1.8895e-06 6.4177e-06 1.83698e-06 -6.32042e-06 0.000584458)
(0.00013494 1.93964e-06 6.46503e-06 1.8399e-06 -6.2982e-06 0.000585629)
(0.000135013 1.9564e-06 6.43842e-06 1.84088e-06 -6.28466e-06 0.000585241)
(0.000120732 9.12006e-08 -3.27691e-05 3.17935e-06 -7.58629e-06 0.000514688)
(0.000121165 5.61877e-08 -3.23373e-05 3.17436e-06 -7.59367e-06 0.000514853)
(0.000121655 -1.8756e-08 -3.09985e-05 3.15379e-06 -7.55819e-06 0.000513999)
(0.00012223 -1.35998e-07 -2.87231e-05 3.11729e-06 -7.48029e-06 0.000512136)
(0.000129106 -1.9875e-06 9.75897e-06 2.41257e-06 -6.80245e-06 0.000494662)
(0.000129322 -2.06725e-06 1.1582e-05 2.37661e-06 -6.76065e-06 0.000494075)
(0.000128961 -2.09012e-06 1.2626e-05 2.34727e-06 -6.75421e-06 0.000494429)
(0.000128007 -2.05709e-06 1.29362e-05 2.32328e-06 -6.78286e-06 0.00049574)
(0.000115044 -4.7658e-07 9.31032e-06 2.00643e-06 -7.20378e-06 0.000537286)
(0.000114585 -3.57674e-07 8.76006e-06 2.00137e-06 -7.25904e-06 0.00054096)
(0.000114748 -2.38073e-07 8.42928e-06 1.99919e-06 -7.27777e-06 0.000544229)
(0.000115539 -1.12611e-07 8.30371e-06 1.9998e-06 -7.26075e-06 0.000547234)
(0.00013461 2.0611e-06 8.26805e-06 2.07856e-06 -7.19096e-06 0.000607833)
(0.000136089 2.1572e-06 8.47192e-06 2.08397e-06 -7.15816e-06 0.000610656)
(0.000136858 2.21427e-06 8.56702e-06 2.08716e-06 -7.1349e-06 0.000611873)
(0.00013692 2.23363e-06 8.55243e-06 2.08819e-06 -7.12019e-06 0.000611458)
(0.000123432 1.08238e-07 -3.40875e-05 3.5121e-06 -8.37703e-06 0.000535345)
(0.000123865 6.84446e-08 -3.36419e-05 3.50693e-06 -8.38663e-06 0.000535493)
(0.000124336 -1.7134e-08 -3.22552e-05 3.48513e-06 -8.35021e-06 0.000534553)
(0.000124874 -1.5119e-07 -2.9897e-05 3.44634e-06 -8.26839e-06 0.000532533)
(0.000131223 -2.26308e-06 9.99318e-06 2.69721e-06 -7.59429e-06 0.000512958)
(0.000131413 -2.35409e-06 1.18787e-05 2.65895e-06 -7.55113e-06 0.000512286)
(0.000131037 -2.38009e-06 1.29576e-05 2.62762e-06 -7.54527e-06 0.000512626)
(0.00013008 -2.34218e-06 1.32763e-05 2.60187e-06 -7.57648e-06 0.000513992)
(0.000117082 -5.41646e-07 9.7796e-06 2.26072e-06 -8.02723e-06 0.000557673)
(0.00011663 -4.06524e-07 9.24032e-06 2.25525e-06 -8.08735e-06 0.000561526)
(0.000116788 -2.71236e-07 8.95043e-06 2.25289e-06 -8.10843e-06 0.000564946)
(0.000117563 -1.29938e-07 8.89742e-06 2.25356e-06 -8.09137e-06 0.000568081)
(0.000136334 2.31612e-06 1.0338e-05 2.34041e-06 -8.05625e-06 0.000630957)
(0.000137795 2.42351e-06 1.06337e-05 2.34632e-06 -8.02291e-06 0.000633887)
(0.000138549 2.48744e-06 1.07812e-05 2.34978e-06 -7.99885e-06 0.000635147)
(0.000138602 2.50941e-06 1.07805e-05 2.35086e-06 -7.98301e-06 0.000634707)
(0.000125757 1.27978e-07 -3.5223e-05 3.85553e-06 -9.17244e-06 0.000553801)
(0.000126193 8.3372e-08 -3.47661e-05 3.85025e-06 -9.18446e-06 0.000553928)
(0.000126651 -1.29397e-08 -3.3339e-05 3.82733e-06 -9.14752e-06 0.000552898)
(0.00012716 -1.63974e-07 -3.09106e-05 3.7864e-06 -9.06239e-06 0.000550719)
(0.000133115 -2.53875e-06 1.01703e-05 2.99602e-06 -8.40172e-06 0.000528896)
(0.000133285 -2.64114e-06 1.21072e-05 2.95562e-06 -8.35777e-06 0.000528132)
(0.000132896 -2.6703e-06 1.32139e-05 2.9224e-06 -8.35276e-06 0.000528449)
(0.000131933 -2.62747e-06 1.3538e-05 2.89494e-06 -8.38647e-06 0.00052986)
(0.000118824 -6.06466e-07 1.01792e-05 2.52993e-06 -8.86524e-06 0.000575432)
(0.000118375 -4.55111e-07 9.65521e-06 2.52405e-06 -8.93008e-06 0.000579447)
(0.000118527 -3.04208e-07 9.41149e-06 2.52153e-06 -8.95355e-06 0.000583004)
(0.000119288 -1.47239e-07 9.43753e-06 2.52225e-06 -8.93667e-06 0.000586258)
(0.000137822 2.56828e-06 1.24733e-05 2.61771e-06 -8.9428e-06 0.000651184)
(0.000139267 2.68673e-06 1.28667e-05 2.62418e-06 -8.90934e-06 0.00065421)
(0.000140011 2.7574e-06 1.30702e-05 2.62792e-06 -8.88473e-06 0.000655508)
(0.000140056 2.78196e-06 1.30848e-05 2.62903e-06 -8.86783e-06 0.000655048)
(0.000127736 1.50811e-07 -3.61805e-05 4.2093e-06 -9.96899e-06 0.000570097)
(0.000128175 1.01382e-07 -3.57149e-05 4.20397e-06 -9.9836e-06 0.000570197)
(0.000128624 -5.71216e-09 -3.42547e-05 4.18005e-06 -9.9465e-06 0.000569075)
(0.000129113 -1.73815e-07 -3.1768e-05 4.13718e-06 -9.85863e-06 0.000566737)
(0.000134784 -2.81289e-06 1.02975e-05 3.30911e-06 -9.22087e-06 0.000542544)
(0.000134938 -2.92672e-06 1.22753e-05 3.26674e-06 -9.17654e-06 0.000541681)
(0.000134537 -2.95906e-06 1.34032e-05 3.23175e-06 -9.17253e-06 0.000541967)
(0.000133567 -2.9113e-06 1.37298e-05 3.20263e-06 -9.20867e-06 0.000543413)
(0.000120288 -6.70624e-07 1.05107e-05 2.81426e-06 -9.71312e-06 0.000590632)
(0.000119838 -5.03106e-07 1.00054e-05 2.80797e-06 -9.78258e-06 0.000594793)
(0.000119983 -3.36738e-07 9.8118e-06 2.80528e-06 -9.80851e-06 0.000598474)
(0.000120729 -1.64335e-07 9.92156e-06 2.80607e-06 -9.79202e-06 0.000601836)
(0.00013907 2.81622e-06 1.46386e-05 2.91072e-06 -9.84585e-06 0.000668597)
(0.000140503 2.94546e-06 1.51338e-05 2.91777e-06 -9.81267e-06 0.000671709)
(0.000141238 3.0227e-06 1.53958e-05 2.92182e-06 -9.78774e-06 0.000673042)
(0.000141277 3.0498e-06 1.54269e-05 2.92295e-06 -9.76984e-06 0.000672565)
(0.000129396 1.77038e-07 -3.69676e-05 4.57359e-06 -1.07653e-05 0.000584279)
(0.000129839 1.22795e-07 -3.64956e-05 4.56828e-06 -1.07826e-05 0.000584346)
(0.000130283 4.91127e-09 -3.50088e-05 4.5435e-06 -1.07456e-05 0.000583131)
(0.000130756 -1.80282e-07 -3.2475e-05 4.49886e-06 -1.06554e-05 0.000580636)
(0.000136233 -3.08406e-06 1.03811e-05 3.63681e-06 -1.00476e-05 0.000553983)
(0.000136374 -3.20936e-06 1.23899e-05 3.59266e-06 -1.00032e-05 0.000553017)
(0.000135963 -3.24491e-06 1.35329e-05 3.55601e-06 -1.00002e-05 0.000553264)
(0.000134984 -3.19226e-06 1.38594e-05 3.52528e-06 -1.00387e-05 0.000554735)
(0.000121487 -7.33836e-07 1.07772e-05 3.11403e-06 -1.05668e-05 0.000603358)
(0.000121033 -5.503e-07 1.02933e-05 3.10733e-06 -1.06408e-05 0.000607649)
(0.000121169 -3.68689e-07 1.01525e-05 3.10448e-06 -1.06692e-05 0.000611442)
(0.000121901 -1.81161e-07 1.03489e-05 3.10536e-06 -1.06534e-05 0.0006149)
(0.00014008 3.05874e-06 1.68018e-05 3.21978e-06 -1.07608e-05 0.000683296)
(0.000141503 3.19845e-06 1.74007e-05 3.22746e-06 -1.07284e-05 0.000686485)
(0.00014223 3.2821e-06 1.77227e-05 3.23183e-06 -1.07034e-05 0.00068785)
(0.000142263 3.31169e-06 1.77712e-05 3.23297e-06 -1.06845e-05 0.00068736)
(0.00013076 2.06726e-07 -3.75923e-05 4.94873e-06 -1.1559e-05 0.000596391)
(0.000131208 1.47691e-07 -3.71159e-05 4.94351e-06 -1.15792e-05 0.000596421)
(0.000131648 1.90454e-08 -3.56088e-05 4.91799e-06 -1.15425e-05 0.000595112)
(0.000132111 -1.83203e-07 -3.30385e-05 4.87179e-06 -1.14505e-05 0.000592463)
(0.000137463 -3.3513e-06 1.0427e-05 3.97957e-06 -1.08776e-05 0.000563304)
(0.000137595 -3.48806e-06 1.2458e-05 3.93383e-06 -1.08334e-05 0.00056223)
(0.000137175 -3.52684e-06 1.36105e-05 3.89564e-06 -1.08316e-05 0.000562433)
(0.000136186 -3.46933e-06 1.39343e-05 3.86334e-06 -1.08722e-05 0.00056392)
(0.000122434 -7.95933e-07 1.09831e-05 3.42965e-06 -1.14228e-05 0.000613711)
(0.000121974 -5.96588e-07 1.05226e-05 3.42255e-06 -1.15012e-05 0.000618115)
(0.0001221 -4.00017e-07 1.04365e-05 3.41955e-06 -1.15322e-05 0.000622006)
(0.000122818 -1.97731e-07 1.07209e-05 3.42052e-06 -1.15172e-05 0.000625552)
(0.000140854 3.29481e-06 1.89353e-05 3.54535e-06 -1.16835e-05 0.000695384)
(0.000142268 3.44463e-06 1.96386e-05 3.5537e-06 -1.16521e-05 0.00069864)
(0.000142988 3.53446e-06 2.0021e-05 3.5584e-06 -1.16272e-05 0.000700035)
(0.000143017 3.56648e-06 2.00873e-05 3.55954e-06 -1.16075e-05 0.000699536)
(0.00013185 2.39521e-07 -3.80624e-05 5.33506e-06 -1.23475e-05 0.000606468)
(0.000132304 1.75729e-07 -3.75835e-05 5.33e-06 -1.23705e-05 0.000606459)
(0.000132743 3.63826e-08 -3.60619e-05 5.30388e-06 -1.23344e-05 0.000605057)
(0.0001332 -1.82833e-07 -3.34648e-05 5.25632e-06 -1.22407e-05 0.000602261)
(0.00013848 -3.61386e-06 1.04421e-05 4.33779e-06 -1.17072e-05 0.0005706)
(0.000138605 -3.76202e-06 1.24868e-05 4.29064e-06 -1.16634e-05 0.000569418)
(0.000138177 -3.80404e-06 1.36437e-05 4.25101e-06 -1.16629e-05 0.000569571)
(0.000137178 -3.74173e-06 1.39628e-05 4.2172e-06 -1.17055e-05 0.000571066)
(0.000123142 -8.56871e-07 1.11335e-05 3.76157e-06 -1.22768e-05 0.0006218)
(0.000122674 -6.41969e-07 1.0698e-05 3.75406e-06 -1.23595e-05 0.0006263)
(0.00012279 -4.30759e-07 1.06672e-05 3.75092e-06 -1.23932e-05 0.000630276)
(0.000123493 -2.1412e-07 1.10399e-05 3.75199e-06 -1.23793e-05 0.000633898)
(0.000141395 3.52371e-06 2.10165e-05 3.88795e-06 -1.26095e-05 0.000704963)
(0.0001428 3.68325e-06 2.18233e-05 3.89702e-06 -1.25796e-05 0.000708278)
(0.000143514 3.77903e-06 2.22659e-05 3.90208e-06 -1.2555e-05 0.000709699)
(0.000143541 3.8134e-06 2.23502e-05 3.90319e-06 -1.25345e-05 0.000709195)
(0.000132687 2.75103e-07 -3.83871e-05 5.73259e-06 -1.3127e-05 0.000614554)
(0.000133146 2.06603e-07 -3.79074e-05 5.72777e-06 -1.31529e-05 0.000614504)
(0.000133586 5.66498e-08 -3.63765e-05 5.70119e-06 -1.31176e-05 0.000613013)
(0.000134038 -1.79391e-07 -3.37614e-05 5.65249e-06 -1.30227e-05 0.000610076)
(0.000139287 -3.87123e-06 1.04324e-05 4.71181e-06 -1.25325e-05 0.000575975)
(0.000139407 -4.03071e-06 1.24834e-05 4.66346e-06 -1.24893e-05 0.000574684)
(0.000138972 -4.07596e-06 1.36401e-05 4.62253e-06 -1.24899e-05 0.000574784)
(0.000137962 -4.00893e-06 1.39523e-05 4.58725e-06 -1.25345e-05 0.00057628)
(0.000123623 -9.16649e-07 1.12321e-05 4.11019e-06 -1.31244e-05 0.000627742)
(0.000123145 -6.86481e-07 1.08223e-05 4.10227e-06 -1.32113e-05 0.000632322)
(0.000123249 -4.60984e-07 1.08468e-05 4.09899e-06 -1.32477e-05 0.000636369)
(0.000123938 -2.30418e-07 1.13067e-05 4.1002e-06 -1.3235e-05 0.000640057)
(0.000141706 3.74496e-06 2.3025e-05 4.24807e-06 -1.35338e-05 0.000712135)
(0.000143102 3.91383e-06 2.39333e-05 4.25791e-06 -1.35055e-05 0.000715498)
(0.000143811 4.01534e-06 2.44351e-05 4.26334e-06 -1.34815e-05 0.000716943)
(0.000143835 4.05199e-06 2.45374e-05 4.26442e-06 -1.34602e-05 0.000716436)
(0.000133288 3.13907e-07 -3.85778e-05 6.14134e-06 -1.3894e-05 0.000620714)
(0.000133751 2.40753e-07 -3.80989e-05 6.13685e-06 -1.39228e-05 0.000620623)
(0.000134193 8.03023e-08 -3.65633e-05 6.10996e-06 -1.38883e-05 0.000619047)