-0.0075 	0 	0 	0
-0.0075 	-1.05725e-34 	1.70597e-36 	-7.12155e-33
-0.00745622 	-0.000138954 	2.24216e-06 	-0.00935986
-0.00745622 	-0.000138954 	2.24216e-06 	-0.00935986
-0.00741165 	-0.000311689 	5.1439e-06 	-0.0189843
-0.00741165 	-0.000311689 	5.1439e-06 	-0.0189843
-0.00736628 	-0.000488421 	8.72962e-06 	-0.0288082
-0.00736628 	-0.000488421 	8.72962e-06 	-0.0288082
-0.0073201 	-0.000647328 	1.21688e-05 	-0.0387504
-0.0073201 	-0.000647328 	1.21688e-05 	-0.0387504
-0.00727309 	-0.000786036 	1.64515e-05 	-0.0487215
-0.00727309 	-0.000786036 	1.64515e-05 	-0.0487215
-0.00722524 	-0.00090632 	2.1073e-05 	-0.0586326
-0.00722524 	-0.00090632 	2.1073e-05 	-0.0586326
-0.00717653 	-0.00100807 	2.60282e-05 	-0.0683937
-0.00717653 	-0.00100807 	2.60282e-05 	-0.0683937
-0.00712695 	-0.00109125 	3.12085e-05 	-0.0779151
-0.00712695 	-0.00109125 	3.12085e-05 	-0.0779151
-0.00707647 	-0.00115646 	3.65113e-05 	-0.087114
-0.00707647 	-0.00115646 	3.65113e-05 	-0.087114
-0.0070251 	-0.00120503 	4.19271e-05 	-0.0959238
-0.0070251 	-0.00120503 	4.19271e-05 	-0.0959238
-0.0069728 	-0.00123889 	4.74767e-05 	-0.104303
-0.0069728 	-0.00123889 	4.74767e-05 	-0.104303
-0.00691956 	-0.00126004 	5.31702e-05 	-0.11224
-0.00691956 	-0.00126004 	5.31702e-05 	-0.11224
-0.00686537 	-0.0012702 	5.90657e-05 	-0.119751
-0.00686537 	-0.0012702 	5.90657e-05 	-0.119751
-0.00681021 	-0.00127093 	6.51909e-05 	-0.126863
-0.00681021 	-0.00127093 	6.51909e-05 	-0.126863
-0.00675406 	-0.00126384 	7.16018e-05 	-0.133605
-0.00675406 	-0.00126384 	7.16018e-05 	-0.133605
-0.0066969 	-0.00125046 	7.83723e-05 	-0.14
-0.0066969 	-0.00125046 	7.83723e-05 	-0.14
-0.00663871 	-0.00123208 	8.54616e-05 	-0.146067
-0.00663871 	-0.00123208 	8.54616e-05 	-0.146067
-0.00657949 	-0.00120969 	9.28185e-05 	-0.151826
-0.00657949 	-0.00120969 	9.28185e-05 	-0.151826
-0.0065192 	-0.00118406 	0.000100437 	-0.157296
-0.0065192 	-0.00118406 	0.000100437 	-0.157296
-0.00645783 	-0.00115587 	0.000108324 	-0.162497
-0.00645783 	-0.00115587 	0.000108324 	-0.162497
-0.00639535 	-0.00112568 	0.000116543 	-0.167444
-0.00639535 	-0.00112568 	0.000116543 	-0.167444
-0.00633176 	-0.00109379 	0.000125106 	-0.172145
-0.00633176 	-0.00109379 	0.000125106 	-0.172145
-0.00626703 	-0.00106031 	0.000133885 	-0.176608
-0.00626703 	-0.00106031 	0.000133885 	-0.176608
-0.00620114 	-0.00102532 	0.000142783 	-0.180851
-0.00620114 	-0.00102532 	0.000142783 	-0.180851
-0.00613406 	-0.000989108 	0.00015195 	-0.184897
-0.00613406 	-0.000989108 	0.00015195 	-0.184897
-0.00606579 	-0.000951884 	0.000161686 	-0.18876
-0.00606579 	-0.000951884 	0.000161686 	-0.18876
-0.00599629 	-0.00091342 	0.000171913 	-0.192445
-0.00599629 	-0.00091342 	0.000171913 	-0.192445
-0.00592554 	-0.00087331 	0.000181914 	-0.195948
-0.00592554 	-0.00087331 	0.000181914 	-0.195948
-0.00585352 	-0.000832073 	0.00019083 	-0.199292
-0.00585352 	-0.000832073 	0.00019083 	-0.199292
-0.00578022 	-0.000791846 	0.000199341 	-0.202527
-0.00578022 	-0.000791846 	0.000199341 	-0.202527
-0.00570559 	-0.000754674 	0.000208894 	-0.205688
-0.00570559 	-0.000754674 	0.000208894 	-0.205688
-0.00562963 	-0.000719697 	0.000219174 	-0.208741
-0.00562963 	-0.000719697 	0.000219174 	-0.208741
-0.00555231 	-0.000684022 	0.000229293 	-0.211649
-0.00555231 	-0.000684022 	0.000229293 	-0.211649
-0.0054736 	-0.000645901 	0.000238699 	-0.214453
-0.0054736 	-0.000645901 	0.000238699 	-0.214453
-0.00539348 	-0.000605855 	0.00024821 	-0.217204
-0.00539348 	-0.000605855 	0.00024821 	-0.217204
-0.00531193 	-0.000565037 	0.000258531 	-0.219867
-0.00531193 	-0.000565037 	0.000258531 	-0.219867
-0.00522891 	-0.000523213 	0.000267662 	-0.222352
-0.00522891 	-0.000523213 	0.000267662 	-0.222352
-0.0051444 	-0.000479825 	0.000274338 	-0.224656
-0.0051444 	-0.000479825 	0.000274338 	-0.224656
-0.00505838 	-0.000436677 	0.000280686 	-0.226899
-0.00505838 	-0.000436677 	0.000280686 	-0.226899
-0.00497081 	-0.000397427 	0.000289371 	-0.229191
-0.00497081 	-0.000397427 	0.000289371 	-0.229191
-0.00488168 	-0.000362265 	0.00029885 	-0.231466
-0.00488168 	-0.000362265 	0.00029885 	-0.231466
-0.00479094 	-0.00032654 	0.000306598 	-0.233594
-0.00479094 	-0.00032654 	0.000306598 	-0.233594
-0.00469858 	-0.000285705 	0.000312673 	-0.235564
-0.00469858 	-0.000285705 	0.000312673 	-0.235564
-0.00460456 	-0.000239166 	0.000319516 	-0.237443
-0.00460456 	-0.000239166 	0.000319516 	-0.237443
-0.00450886 	-0.000189873 	0.000329095 	-0.239315
-0.00450886 	-0.000189873 	0.000329095 	-0.239315
-0.00441144 	-0.00014235 	0.000338089 	-0.241253
-0.00441144 	-0.00014235 	0.000338089 	-0.241253
-0.00431227 	-0.000100174 	0.000343003 	-0.243279
-0.00431227 	-0.000100174 	0.000343003 	-0.243279
-0.00421133 	-6.17219e-05 	0.000346227 	-0.245348
-0.00421133 	-6.17219e-05 	0.000346227 	-0.245348
-0.00410857 	-2.20114e-05 	0.00035124 	-0.247396
-0.00410857 	-2.20114e-05 	0.00035124 	-0.247396
-0.00400397 	1.97272e-05 	0.000355219 	-0.24937
-0.00400397 	1.97272e-05 	0.000355219 	-0.24937
-0.0038975 	5.38393e-05 	0.000358028 	-0.251381
-0.0038975 	5.38393e-05 	0.000358028 	-0.251381
-0.00378912 	6.67104e-05 	0.0003638 	-0.253568
-0.00378912 	6.67104e-05 	0.0003638 	-0.253568
-0.00367879 	6.1776e-05 	0.000371094 	-0.255773
-0.00367879 	6.1776e-05 	0.000371094 	-0.255773
-0.00356649 	6.1621e-05 	0.000377524 	-0.25771
-0.00356649 	6.1621e-05 	0.000377524 	-0.25771
-0.00345217 	7.94663e-05 	0.000383092 	-0.259302
-0.00345217 	7.94663e-05 	0.000383092 	-0.259302
-0.0033358 	0.000106102 	0.000389029 	-0.260688
-0.0033358 	0.000106102 	0.000389029 	-0.260688
-0.00321735 	0.000126307 	0.00039647 	-0.262029
-0.00321735 	0.000126307 	0.00039647 	-0.262029
-0.00309677 	0.000130419 	0.000405347 	-0.263453
-0.00309677 	0.000130419 	0.000405347 	-0.263453
-0.00297403 	0.000110826 	0.000414869 	-0.265078
-0.00297403 	0.000110826 	0.000414869 	-0.265078
-0.00284909 	7.11539e-05 	0.000425388 	-0.266876
-0.00284909 	7.11539e-05 	0.000425388 	-0.266876
-0.0027219 	3.72771e-05 	0.000438386 	-0.268561
-0.0027219 	3.72771e-05 	0.000438386 	-0.268561
-0.00259244 	2.93593e-05 	0.00045371 	-0.269923
-0.00259244 	2.93593e-05 	0.00045371 	-0.269923
-0.00246065 	4.14823e-05 	0.000470326 	-0.271037
-0.00246065 	4.14823e-05 	0.000470326 	-0.271037
-0.00232651 	5.78895e-05 	0.000487769 	-0.272045
-0.00232651 	5.78895e-05 	0.000487769 	-0.272045
-0.00218995 	6.66575e-05 	0.000505786 	-0.273059
-0.00218995 	6.66575e-05 	0.000505786 	-0.273059
-0.00205095 	5.65883e-05 	0.0005231 	-0.274237
-0.00205095 	5.65883e-05 	0.0005231 	-0.274237
-0.00190946 	1.87379e-05 	0.000541176 	-0.275767
-0.00190946 	1.87379e-05 	0.000541176 	-0.275767
-0.00176543 	-3.17753e-05 	0.000567486 	-0.277714
-0.00176543 	-3.17753e-05 	0.000567486 	-0.277714
-0.00161881 	-6.75369e-05 	0.000606725 	-0.280048
-0.00161881 	-6.75369e-05 	0.000606725 	-0.280048
-0.00146957 	-8.15448e-05 	0.000645146 	-0.282347
-0.00146957 	-8.15448e-05 	0.000645146 	-0.282347
-0.00131765 	-9.45418e-05 	0.000671868 	-0.284102
-0.00131765 	-9.45418e-05 	0.000671868 	-0.284102
-0.001163 	-0.000124222 	0.000700229 	-0.285281
-0.001163 	-0.000124222 	0.000700229 	-0.285281
-0.00100559 	-0.000161987 	0.000738495 	-0.286076
-0.00100559 	-0.000161987 	0.000738495 	-0.286076
-0.000845345 	-0.000195583 	0.000778147 	-0.286653
-0.000845345 	-0.000195583 	0.000778147 	-0.286653
-0.000682232 	-0.00022283 	0.000816866 	-0.287078
-0.000682232 	-0.00022283 	0.000816866 	-0.287078
-0.000516194 	-0.00024522 	0.000858302 	-0.287384
-0.000516194 	-0.00024522 	0.000858302 	-0.287384
-0.000347178 	-0.000262514 	0.000900934 	-0.287581
-0.000347178 	-0.000262514 	0.000900934 	-0.287581
-0.000175132 	-0.000274323 	0.000949636 	-0.287664
-0.000175132 	-0.000274323 	0.000949636 	-0.287664
0 	-0.000280657 	0.00100092 	-0.287628
0 	-0.000280657 	0.00100092 	-0.287628
0 	-0.000280657 	0.00100092 	-0.287628
0 	-0.000280657 	0.00100092 	-0.287628
0.000175132 	-0.000281317 	0.00104885 	-0.287466
0.000175132 	-0.0103053 	-0.000548238 	-0.316521
0.000347178 	-0.000276172 	0.00109804 	-0.287174
0.000347178 	-0.0108964 	-0.000516041 	-0.314985
0.000516194 	-0.000264787 	0.00114398 	-0.286722
0.000516194 	-0.0114259 	-0.000478947 	-0.313216
0.000682232 	-0.000248416 	0.00118561 	-0.285926
0.000682232 	-0.0118891 	-0.00044538 	-0.310897
0.000845345 	-0.000229595 	0.0012247 	-0.284399
0.000845345 	-0.012278 	-0.000409686 	-0.307025
0.00100559 	-0.000196223 	0.00126078 	-0.282238
0.00100559 	-0.0125518 	-0.000364725 	-0.300421
0.001163 	-0.000138478 	0.00129476 	-0.27998
0.001163 	-0.0126718 	-0.000314223 	-0.291625
0.00131765 	-7.30267e-05 	0.00132512 	-0.278026
0.00131765 	-0.0126883 	-0.000255153 	-0.283274
0.00146957 	-1.81896e-05 	0.00135156 	-0.276575
0.00146957 	-0.0126884 	-0.000193735 	-0.277541
0.00161881 	2.05407e-05 	0.00137531 	-0.275454
0.00161881 	-0.0127101 	-0.000143141 	-0.274351
0.00176543 	4.23426e-05 	0.00139737 	-0.274236
0.00176543 	-0.012748 	-9.33086e-05 	-0.27258
0.00190946 	5.42643e-05 	0.00141703 	-0.272502
0.00190946 	-0.0127736 	-3.28525e-05 	-0.27144
0.00205095 	7.51266e-05 	0.00143606 	-0.270437
0.00205095 	-0.0127565 	3.56556e-05 	-0.270506
0.00218995 	0.000110138 	0.00145579 	-0.268432
0.00218995 	-0.0126885 	0.000112634 	-0.269596
0.00232651 	0.000139818 	0.00147353 	-0.266684
0.00232651 	-0.0125727 	0.00019341 	-0.268598
0.00246065 	0.000159878 	0.00148836 	-0.265275
0.00246065 	-0.0123859 	0.000268459 	-0.267089
0.00259244 	0.000191682 	0.00150315 	-0.263826
0.00259244 	-0.0120488 	0.000358878 	-0.263928
0.0027219 	0.000251099 	0.00151843 	-0.261799
0.0027219 	-0.0114752 	0.000477882 	-0.258181
0.00284909 	0.000326801 	0.00153051 	-0.259141
0.00284909 	-0.0107505 	0.000578658 	-0.251465
0.00297403 	0.000394555 	0.00153607 	-0.256499
0.00297403 	-0.0101009 	0.000638726 	-0.246549
0.00309677 	0.00044639 	0.00153454 	-0.254413
0.00309677 	-0.00960166 	0.000683951 	-0.243954
0.00321735 	0.000485243 	0.00152983 	-0.252786
0.00321735 	-0.00917599 	0.000736699 	-0.24252
0.0033358 	0.000513956 	0.00152446 	-0.251337
0.0033358 	-0.00876488 	0.000787996 	-0.241204
0.00345217 	0.00053683 	0.00151721 	-0.249882
0.00345217 	-0.00834061 	0.000815761 	-0.239679
0.00356649 	0.000557437 	0.00150927 	-0.248323
0.00356649 	-0.00788559 	0.000840811 	-0.238068
0.00367879 	0.000572689 	0.00150121 	-0.246566
0.00367879 	-0.00737148 	0.000893097 	-0.236335
0.00378912 	-0.00677105 	0.000964856 	-0.234188
0.00378912 	0.00057784 	0.00149052 	-0.24458
0.0038975 	0.000584064 	0.00147747 	-0.242553
0.0038975 	-0.00611338 	0.00102035 	-0.231607
0.00400397 	0.000601005 	0.00146321 	-0.240675
0.00400397 	-0.00549141 	0.00104907 	-0.228954
0.00410857 	0.000622593 	0.00144665 	-0.238921
0.00410857 	-0.00496122 	0.00106643 	-0.226549
0.00421133 	0.000644857 	0.00142764 	-0.237207
0.00421133 	-0.00450027 	0.00108579 	-0.224417
0.00431227 	0.000667976 	0.00140687 	-0.235491
0.00431227 	-0.00407516 	0.00110978 	-0.222398
0.00441144 	0.000692476 	0.0013846 	-0.233754
0.00441144 	-0.00366666 	0.00113655 	-0.220387
0.00450886 	0.000718329 	0.00136074 	-0.231983
0.00450886 	-0.00326543 	0.00116862 	-0.218433
0.00460456 	0.000744878 	0.00133512 	-0.230173
0.00460456 	-0.0028731 	0.00119004 	-0.216631
0.00469858 	0.000771342 	0.00130752 	-0.228321
0.00469858 	-0.00249744 	0.00119059 	-0.214892
0.00479094 	0.000797123 	0.00127788 	-0.226427
0.00479094 	-0.00214053 	0.00118403 	-0.213041
0.00488168 	0.000821713 	0.00124645 	-0.224486
0.00488168 	-0.0017955 	0.00118177 	-0.211046
0.00497081 	0.000844543 	0.00121354 	-0.222494
0.00497081 	-0.00145659 	0.00118082 	-0.208948
0.00505838 	0.000864962 	0.00117947 	-0.220446
0.00505838 	-0.00112339 	0.0011764 	-0.20676
0.0051444 	0.000882325 	0.00114452 	-0.218333
0.0051444 	-0.000797399 	0.00117228 	-0.204498
0.00522891 	0.000896215 	0.00110877 	-0.216142
0.00522891 	-0.000479779 	0.00116933 	-0.202226
0.00531193 	-0.00017219 	0.00115914 	-0.200004
0.00531193 	0.00090656 	0.0010721 	-0.213858
0.00539348 	0.00091346 	0.00103427 	-0.211471
0.00539348 	0.00012409 	0.00113744 	-0.197771
0.0054736 	0.00091682 	0.000995183 	-0.208984
0.0054736 	0.00041062 	0.00111055 	-0.195416
0.00555231 	0.000916189 	0.000955078 	-0.206404
0.00555231 	0.00069102 	0.00108432 	-0.192893
0.00562963 	0.000911001 	0.00091432 	-0.203735
0.00562963 	0.000967731 	0.00105914 	-0.190218
0.00570559 	0.000900944 	0.000873133 	-0.20097
0.00570559 	0.00124041 	0.00103232 	-0.187416
0.00578022 	0.000886083 	0.000831603 	-0.198095
0.00578022 	0.00150734 	0.00100245 	-0.184513
0.00585352 	0.000866715 	0.00078978 	-0.195089
0.00585352 	0.00176711 	0.000969571 	-0.181509
0.00592554 	0.000843139 	0.000747743 	-0.191936
0.00592554 	0.00201895 	0.000933535 	-0.178369
0.00599629 	0.000815534 	0.000705619 	-0.188618
0.00599629 	0.00226257 	0.000895728 	-0.175056
0.00606579 	0.00249739 	0.000857472 	-0.171551
0.00606579 	0.000783972 	0.00066356 	-0.185118
0.00613406 	0.000748477 	0.000621705 	-0.181415
0.00613406 	0.00272195 	0.000818495 	-0.167862
0.00620114 	0.000709082 	0.000580149 	-0.177486
0.00620114 	0.00293417 	0.000778054 	-0.163994
0.00626703 	0.000665812 	0.000538953 	-0.173305
0.00626703 	0.00313178 	0.000735881 	-0.159938
0.00633176 	0.000618572 	0.00049818 	-0.168841
0.00633176 	0.00331259 	0.00069226 	-0.155671
0.00639535 	0.00056711 	0.000457958 	-0.164057
0.00639535 	0.00347429 	0.000647571 	-0.151162
0.00645783 	0.000511207 	0.000418492 	-0.158917
0.00645783 	0.00361419 	0.000602153 	-0.146382
0.0065192 	0.00045075 	0.000379974 	-0.153386
0.0065192 	0.00372892 	0.00055629 	-0.141306
0.00657949 	0.00038579 	0.000342539 	-0.147431
0.00657949 	0.00381428 	0.000510291 	-0.135908
0.00663871 	0.000316892 	0.000306337 	-0.141022
0.00663871 	0.00386568 	0.000464389 	-0.130157
0.0066969 	0.000245356 	0.000271551 	-0.134135
0.0066969 	0.00387909 	0.000418842 	-0.124013
0.00675406 	0.000173024 	0.000238374 	-0.12675
0.00675406 	0.00385149 	0.000374285 	-0.117449
0.00681021 	0.000101983 	0.000206958 	-0.11885
0.00681021 	0.00378112 	0.000331261 	-0.110462
0.00686537 	3.45278e-05 	0.000177448 	-0.110436
0.00686537 	0.00366747 	0.000289956 	-0.103072
0.00691956 	-2.67047e-05 	0.000150002 	-0.101546
0.00691956 	0.00351174 	0.000250576 	-0.095318
0.0069728 	-7.88744e-05 	0.000124758 	-0.0922668
0.0069728 	0.00331748 	0.000213392 	-0.087262
0.0070251 	-0.000119485 	0.000101823 	-0.0827318
0.0070251 	0.00309041 	0.000178637 	-0.0789862
0.00707647 	-0.000147098 	8.12595e-05 	-0.0731135
0.00707647 	0.00283764 	0.000146536 	-0.0705834
0.00712695 	-0.00016177 	6.31196e-05 	-0.0635941
0.00712695 	0.00256653 	0.000117299 	-0.0621455
0.00717653 	-0.000164896 	4.74186e-05 	-0.0543291
0.00717653 	0.00228337 	9.10541e-05 	-0.0537507
0.00722524 	-0.000158577 	3.40668e-05 	-0.04542
0.00722524 	0.00199213 	6.77284e-05 	-0.0454587
0.00727309 	-0.000144932 	2.29578e-05 	-0.0369108
0.00727309 	0.00169319 	4.7306e-05 	-0.0373168
0.0073201 	-0.000125675 	1.4095e-05 	-0.0288034
0.0073201 	0.00138127 	3.01083e-05 	-0.0293786
0.00736628 	-0.000101851 	6.98066e-06 	-0.0210827
0.00736628 	0.00104169 	1.51649e-05 	-0.0217358
0.00741165 	-7.25904e-05 	2.69332e-06 	-0.0137285
0.00741165 	0.000669453 	6.11382e-06 	-0.0144303
0.00745622 	-3.71573e-05 	5.42968e-07 	-0.00671536
0.00745622 	0.000303728 	1.25336e-06 	-0.00727102
0.0075 	0 	0 	0
0.0075 	0 	0 	0
