-0.0075 	0 	0 	0
-0.0075 	-6.70761e-35 	2.38802e-36 	-7.8289e-33
-0.00745622 	-8.81581e-05 	3.13858e-06 	-0.0102895
-0.00745622 	-8.81581e-05 	3.13858e-06 	-0.0102895
-0.00741165 	-0.000181199 	6.91808e-06 	-0.0202127
-0.00741165 	-0.000181199 	6.91808e-06 	-0.0202127
-0.00736628 	-0.000241027 	1.17333e-05 	-0.0301416
-0.00736628 	-0.000241027 	1.17333e-05 	-0.0301416
-0.0073201 	-0.000275226 	1.68062e-05 	-0.0401931
-0.0073201 	-0.000275226 	1.68062e-05 	-0.0401931
-0.00727309 	-0.000297381 	2.28124e-05 	-0.0503
-0.00727309 	-0.000297381 	2.28124e-05 	-0.0503
-0.00722524 	-0.000311071 	2.96821e-05 	-0.0603404
-0.00722524 	-0.000311071 	2.96821e-05 	-0.0603404
-0.00717653 	-0.000316581 	3.7585e-05 	-0.0702097
-0.00717653 	-0.000316581 	3.7585e-05 	-0.0702097
-0.00712695 	-0.000313902 	4.65727e-05 	-0.0798196
-0.00712695 	-0.000313902 	4.65727e-05 	-0.0798196
-0.00707647 	-0.000303407 	5.6677e-05 	-0.0890937
-0.00707647 	-0.000303407 	5.6677e-05 	-0.0890937
-0.0070251 	-0.000285833 	6.78026e-05 	-0.0979729
-0.0070251 	-0.000285833 	6.78026e-05 	-0.0979729
-0.0069728 	-0.000262214 	7.9553e-05 	-0.106425
-0.0069728 	-0.000262214 	7.9553e-05 	-0.106425
-0.00691956 	-0.000233943 	9.2067e-05 	-0.114448
-0.00691956 	-0.000233943 	9.2067e-05 	-0.114448
-0.00686537 	-0.000202809 	0.000105535 	-0.122054
-0.00686537 	-0.000202809 	0.000105535 	-0.122054
-0.00681021 	-0.000170711 	0.00011979 	-0.129259
-0.00681021 	-0.000170711 	0.00011979 	-0.129259
-0.00675406 	-0.000139316 	0.000134666 	-0.136078
-0.00675406 	-0.000139316 	0.000134666 	-0.136078
-0.0066969 	-0.00011004 	0.000150097 	-0.142524
-0.0066969 	-0.00011004 	0.000150097 	-0.142524
-0.00663871 	-8.40343e-05 	0.000166269 	-0.1486
-0.00663871 	-8.40343e-05 	0.000166269 	-0.1486
-0.00657949 	-6.19366e-05 	0.000183191 	-0.154313
-0.00657949 	-6.19366e-05 	0.000183191 	-0.154313
-0.0065192 	-4.36285e-05 	0.000200598 	-0.159677
-0.0065192 	-4.36285e-05 	0.000200598 	-0.159677
-0.00645783 	-2.8237e-05 	0.000217906 	-0.164718
-0.00645783 	-2.8237e-05 	0.000217906 	-0.164718
-0.00639535 	-1.44299e-05 	0.000234602 	-0.169469
-0.00639535 	-1.44299e-05 	0.000234602 	-0.169469
-0.00633176 	-7.381e-07 	0.000249432 	-0.173966
-0.00633176 	-7.381e-07 	0.000249432 	-0.173966
-0.00626703 	1.4389e-05 	0.000260979 	-0.178252
-0.00626703 	1.4389e-05 	0.000260979 	-0.178252
-0.00620114 	3.27505e-05 	0.00027348 	-0.18238
-0.00620114 	3.27505e-05 	0.00027348 	-0.18238
-0.00613406 	5.62329e-05 	0.000294725 	-0.186409
-0.00613406 	5.62329e-05 	0.000294725 	-0.186409
-0.00606579 	8.53803e-05 	0.000325825 	-0.190366
-0.00606579 	8.53803e-05 	0.000325825 	-0.190366
-0.00599629 	0.00011767 	0.000349833 	-0.194206
-0.00599629 	0.00011767 	0.000349833 	-0.194206
-0.00592554 	0.000149014 	0.000354206 	-0.19784
-0.00592554 	0.000149014 	0.000354206 	-0.19784
-0.00585352 	0.000178972 	0.000360978 	-0.201241
-0.00585352 	0.000178972 	0.000360978 	-0.201241
-0.00578022 	0.000212862 	0.000383227 	-0.204498
-0.00578022 	0.000212862 	0.000383227 	-0.204498
-0.00570559 	0.000257296 	0.000397223 	-0.207757
-0.00570559 	0.000257296 	0.000397223 	-0.207757
-0.00562963 	0.00031499 	0.000379032 	-0.211125
-0.00562963 	0.00031499 	0.000379032 	-0.211125
-0.00555231 	0.000379265 	0.000358858 	-0.214554
-0.00555231 	0.000379265 	0.000358858 	-0.214554
-0.0054736 	0.000435521 	0.000392596 	-0.21781
-0.0054736 	0.000435521 	0.000392596 	-0.21781
-0.00539348 	0.000479075 	0.000453253 	-0.220732
-0.00539348 	0.000479075 	0.000453253 	-0.220732
-0.00531193 	0.000519214 	0.000484139 	-0.223375
-0.00531193 	0.000519214 	0.000484139 	-0.223375
-0.00522891 	0.000563443 	0.000479265 	-0.225842
-0.00522891 	0.000563443 	0.000479265 	-0.225842
-0.0051444 	0.000611074 	0.000467573 	-0.228182
-0.0051444 	0.000611074 	0.000467573 	-0.228182
-0.00505838 	0.000659009 	0.000474601 	-0.230422
-0.00505838 	0.000659009 	0.000474601 	-0.230422
-0.00497081 	0.000707063 	0.000487876 	-0.232578
-0.00497081 	0.000707063 	0.000487876 	-0.232578
-0.00488168 	0.000756449 	0.000497181 	-0.234642
-0.00488168 	0.000756449 	0.000497181 	-0.234642
-0.00479094 	0.000807636 	0.000505878 	-0.236601
-0.00479094 	0.000807636 	0.000505878 	-0.236601
-0.00469858 	0.000860057 	0.000513745 	-0.238477
-0.00469858 	0.000860057 	0.000513745 	-0.238477
-0.00460456 	0.000912213 	0.000521123 	-0.240337
-0.00460456 	0.000912213 	0.000521123 	-0.240337
-0.00450886 	0.000962407 	0.000528891 	-0.242259
-0.00450886 	0.000962407 	0.000528891 	-0.242259
-0.00441144 	0.00101066 	0.000536679 	-0.244236
-0.00441144 	0.00101066 	0.000536679 	-0.244236
-0.00431227 	0.00105916 	0.000542276 	-0.246137
-0.00431227 	0.00105916 	0.000542276 	-0.246137
-0.00421133 	0.00110901 	0.000546208 	-0.24786
-0.00421133 	0.00110901 	0.000546208 	-0.24786
-0.00410857 	0.00115924 	0.000559836 	-0.249425
-0.00410857 	0.00115924 	0.000559836 	-0.249425
-0.00400397 	0.00120829 	0.000566821 	-0.250901
-0.00400397 	0.00120829 	0.000566821 	-0.250901
-0.0038975 	0.00126026 	0.000535 	-0.25239
-0.0038975 	0.00126026 	0.000535 	-0.25239
-0.00378912 	0.00132846 	0.000513948 	-0.254063
-0.00378912 	0.00132846 	0.000513948 	-0.254063
-0.00367879 	0.00141406 	0.000583053 	-0.256101
-0.00367879 	0.00141406 	0.000583053 	-0.256101
-0.00356649 	0.00149934 	0.000703649 	-0.258488
-0.00356649 	0.00149934 	0.000703649 	-0.258488
-0.00345217 	0.0015522 	0.000712598 	-0.260709
-0.00345217 	0.0015522 	0.000712598 	-0.260709
-0.0033358 	0.00156989 	0.000635209 	-0.262426
-0.0033358 	0.00156989 	0.000635209 	-0.262426
-0.00321735 	0.00159153 	0.000588729 	-0.263949
-0.00321735 	0.00159153 	0.000588729 	-0.263949
-0.00309677 	0.00164094 	0.000565526 	-0.265574
-0.00309677 	0.00164094 	0.000565526 	-0.265574
-0.00297403 	0.00170113 	0.000585405 	-0.267235
-0.00297403 	0.00170113 	0.000585405 	-0.267235
-0.00284909 	0.00172681 	0.000661822 	-0.268731
-0.00284909 	0.00172681 	0.000661822 	-0.268731
-0.0027219 	0.00171041 	0.000724278 	-0.270105
-0.0027219 	0.00171041 	0.000724278 	-0.270105
-0.00259244 	0.00168677 	0.00071682 	-0.271569
-0.00259244 	0.00168677 	0.00071682 	-0.271569
-0.00246065 	0.00166093 	0.000744269 	-0.273247
-0.00246065 	0.00166093 	0.000744269 	-0.273247
-0.00232651 	0.00161019 	0.000830147 	-0.275074
-0.00232651 	0.00161019 	0.000830147 	-0.275074
-0.00218995 	0.00153022 	0.000830307 	-0.276725
-0.00218995 	0.00153022 	0.000830307 	-0.276725
-0.00205095 	0.0014324 	0.000779195 	-0.278017
-0.00205095 	0.0014324 	0.000779195 	-0.278017
-0.00190946 	0.00132715 	0.000798303 	-0.279104
-0.00190946 	0.00132715 	0.000798303 	-0.279104
-0.00176543 	0.00122069 	0.000847314 	-0.280109
-0.00176543 	0.00122069 	0.000847314 	-0.280109
-0.00161881 	0.00111329 	0.000875409 	-0.281044
-0.00161881 	0.00111329 	0.000875409 	-0.281044
-0.00146957 	0.00100974 	0.000925291 	-0.28194
-0.00146957 	0.00100974 	0.000925291 	-0.28194
-0.00131765 	0.000924401 	0.00101017 	-0.282918
-0.00131765 	0.000924401 	0.00101017 	-0.282918
-0.001163 	0.000869801 	0.00100696 	-0.284188
-0.001163 	0.000869801 	0.00100696 	-0.284188
-0.00100559 	0.000848763 	0.000856006 	-0.285913
-0.00100559 	0.000848763 	0.000856006 	-0.285913
-0.000845345 	0.000823974 	0.000858745 	-0.287466
-0.000845345 	0.000823974 	0.000858745 	-0.287466
-0.000682232 	0.000768652 	0.00105254 	-0.288241
-0.000682232 	0.000768652 	0.00105254 	-0.288241
-0.000516194 	0.000705469 	0.0011182 	-0.288561
-0.000516194 	0.000705469 	0.0011182 	-0.288561
-0.000347178 	0.000648197 	0.00108027 	-0.288748
-0.000347178 	0.000648197 	0.00108027 	-0.288748
-0.000175132 	0.000583636 	0.00115748 	-0.288743
-0.000175132 	0.000583636 	0.00115748 	-0.288743
0 	0.000485226 	0.00124155 	-0.288249
0 	0.000485226 	0.00124155 	-0.288249
0 	0.000485226 	0.00124155 	-0.288249
0 	0.000485226 	0.00124155 	-0.288249
0.000175132 	0.000364338 	0.00116989 	-0.287361
0.000175132 	0.0093094 	0.013535 	-0.311452
0.000347178 	0.000255456 	0.00113619 	-0.286494
0.000347178 	0.00884658 	0.0136593 	-0.312116
0.000516194 	0.000165016 	0.00116836 	-0.28576
0.000516194 	0.008358 	0.0137392 	-0.312494
0.000682232 	8.71799e-05 	0.00117655 	-0.285063
0.000682232 	0.00784783 	0.013821 	-0.312662
0.000845345 	1.45024e-05 	0.00125462 	-0.284236
0.000845345 	0.00733619 	0.0138006 	-0.312767
0.00100559 	-6.21152e-05 	0.00130237 	-0.283089
0.00100559 	0.00685987 	0.0136606 	-0.313306
0.001163 	-0.000136637 	0.00122086 	-0.281789
0.001163 	0.00642513 	0.0136597 	-0.314727
0.00131765 	-0.000198777 	0.00117844 	-0.280673
0.00131765 	0.00597527 	0.013793 	-0.316354
0.00146957 	-0.000251456 	0.0012069 	-0.279791
0.00146957 	0.00548175 	0.0137937 	-0.317452
0.00161881 	-0.000299254 	0.00121509 	-0.279048
0.00161881 	0.00497374 	0.0136883 	-0.318162
0.00176543 	-0.000344182 	0.00120269 	-0.278358
0.00176543 	0.00446483 	0.0135961 	-0.318659
0.00190946 	-0.000388177 	0.00119249 	-0.277692
0.00190946 	0.00394673 	0.0135228 	-0.319024
0.00205095 	-0.000433679 	0.00118328 	-0.277043
0.00205095 	0.00340594 	0.0134312 	-0.31927
0.00218995 	-0.000482463 	0.00117222 	-0.276404
0.00218995 	0.00282975 	0.0133207 	-0.319384
0.00232651 	-0.000534684 	0.0011615 	-0.275752
0.00232651 	0.00220997 	0.0132062 	-0.319352
0.00246065 	-0.000589019 	0.00115128 	-0.275048
0.00246065 	0.00154452 	0.013089 	-0.319164
0.00259244 	-0.000643319 	0.00113972 	-0.274247
0.00259244 	0.000837226 	0.0129625 	-0.318812
0.0027219 	-0.000694992 	0.00112754 	-0.273315
0.0027219 	9.6432e-05 	0.0128284 	-0.318277
0.00284909 	-0.000741865 	0.00111302 	-0.272235
0.00284909 	-0.000664481 	0.0126655 	-0.31755
0.00297403 	-0.000784016 	0.00110616 	-0.270999
0.00297403 	-0.00142399 	0.0125508 	-0.316689
0.00309677 	-0.000827287 	0.0011249 	-0.269629
0.00309677 	-0.00217254 	0.0126143 	-0.315845
0.00321735 	-0.00087898 	0.00112232 	-0.268192
0.00321735 	-0.00292499 	0.0125204 	-0.315089
0.0033358 	-0.000939716 	0.00105006 	-0.266688
0.0033358 	-0.003703 	0.01194 	-0.313949
0.00345217 	-0.00100897 	0.000978126 	-0.264992
0.00345217 	-0.0045425 	0.0113803 	-0.311478
0.00356649 	-0.00107315 	0.000991403 	-0.2631
0.00356649 	-0.00537365 	0.0114247 	-0.30779
0.00367879 	-0.00111252 	0.00104064 	-0.261216
0.00367879 	-0.00606299 	0.0116995 	-0.304331
0.00378912 	-0.00664425 	0.0115865 	-0.30188
0.00378912 	-0.00113429 	0.00103485 	-0.259457
0.0038975 	-0.00115449 	0.000985597 	-0.25778
0.0038975 	-0.00721248 	0.0111969 	-0.300147
0.00400397 	-0.00117411 	0.000948562 	-0.256121
0.00400397 	-0.00777337 	0.0109197 	-0.298658
0.00410857 	-0.00119023 	0.000929017 	-0.254446
0.00410857 	-0.00830542 	0.0107635 	-0.297129
0.00421133 	-0.00120416 	0.000906997 	-0.252738
0.00421133 	-0.00880416 	0.0105624 	-0.295527
0.00431227 	-0.00121815 	0.000881476 	-0.250988
0.00431227 	-0.00926583 	0.0103346 	-0.29396
0.00441144 	-0.00123304 	0.000856348 	-0.249191
0.00441144 	-0.00968592 	0.0101195 	-0.29252
0.00450886 	-0.00124788 	0.000831161 	-0.247338
0.00450886 	-0.0100704 	0.00990083 	-0.291121
0.00460456 	-0.00126059 	0.000805457 	-0.245425
0.00460456 	-0.0104297 	0.00969163 	-0.289577
0.00469858 	-0.00126937 	0.000779404 	-0.243449
0.00469858 	-0.0107645 	0.00948961 	-0.287821
0.00479094 	-0.00127333 	0.000752416 	-0.241404
0.00479094 	-0.011066 	0.00925248 	-0.285917
0.00488168 	-0.00127232 	0.000727526 	-0.239287
0.00488168 	-0.0113274 	0.00898038 	-0.283992
0.00497081 	-0.0012669 	0.00069788 	-0.237092
0.00497081 	-0.0115524 	0.00873123 	-0.282143
0.00505838 	-0.00125791 	0.000649842 	-0.234812
0.00505838 	-0.0117548 	0.00852516 	-0.280286
0.0051444 	-0.00124564 	0.000602325 	-0.232452
0.0051444 	-0.0119461 	0.00832324 	-0.278277
0.00522891 	-0.00122793 	0.000590851 	-0.229988
0.00522891 	-0.0121281 	0.00809986 	-0.276114
0.00531193 	-0.0122965 	0.00784934 	-0.273864
0.00531193 	-0.00119998 	0.000610197 	-0.227324
0.00539348 	-0.00116109 	0.000604265 	-0.224373
0.00539348 	-0.0124443 	0.0075755 	-0.271549
0.0054736 	-0.00111994 	0.000545166 	-0.221217
0.0054736 	-0.0125643 	0.00731361 	-0.269093
0.00555231 	-0.00108456 	0.000473618 	-0.218042
0.00555231 	-0.0126532 	0.00706341 	-0.266445
0.00562963 	-0.00105356 	0.000436816 	-0.214922
0.00562963 	-0.0127125 	0.00683361 	-0.263682
0.00570559 	-0.00102344 	0.000428787 	-0.211799
0.00570559 	-0.0127488 	0.00661741 	-0.260866
0.00578022 	-0.000993941 	0.000411236 	-0.208599
0.00578022 	-0.0127678 	0.00636581 	-0.257992
0.00585352 	-0.000965445 	0.000380509 	-0.205275
0.00585352 	-0.0127688 	0.00610959 	-0.255049
0.00592554 	-0.000937718 	0.000352267 	-0.201796
0.00592554 	-0.0127492 	0.00586671 	-0.252022
0.00599629 	-0.000910553 	0.000326408 	-0.19814
0.00599629 	-0.012708 	0.00561887 	-0.248888
0.00606579 	-0.0126442 	0.00537269 	-0.245618
0.00606579 	-0.000883783 	0.000300364 	-0.19429
0.00613406 	-0.000857177 	0.000274644 	-0.190229
0.00613406 	-0.0125572 	0.00512858 	-0.242181
0.00620114 	-0.000830404 	0.000249808 	-0.185938
0.00620114 	-0.0124461 	0.00488298 	-0.238537
0.00626703 	-0.000803059 	0.000226228 	-0.181391
0.00626703 	-0.0123092 	0.00463455 	-0.234626
0.00633176 	-0.000774713 	0.000204158 	-0.176556
0.00633176 	-0.012144 	0.00438448 	-0.230378
0.00639535 	-0.000744995 	0.000183474 	-0.171397
0.00639535 	-0.0119469 	0.00413478 	-0.225714
0.00645783 	-0.000713562 	0.000163647 	-0.165877
0.00645783 	-0.0117137 	0.00388474 	-0.220541
0.0065192 	-0.000680031 	0.000144937 	-0.159959
0.0065192 	-0.0114396 	0.00363409 	-0.214762
0.00657949 	-0.000644045 	0.000127721 	-0.153608
0.00657949 	-0.0111199 	0.00338467 	-0.208283
0.00663871 	-0.000605356 	0.000112014 	-0.146799
0.00663871 	-0.010751 	0.00313749 	-0.201037
0.0066969 	-0.000563909 	9.7709e-05 	-0.139512
0.0066969 	-0.0103303 	0.00289311 	-0.192987
0.00675406 	-0.000519851 	8.45011e-05 	-0.131734
0.00675406 	-0.0098563 	0.00265112 	-0.184118
0.00681021 	-0.000473392 	7.23898e-05 	-0.123464
0.00681021 	-0.0093272 	0.00240971 	-0.174399
0.00686537 	-0.000424743 	6.1501e-05 	-0.114714
0.00686537 	-0.00873994 	0.00216739 	-0.163751
0.00691956 	-0.000374288 	5.1892e-05 	-0.105508
0.00691956 	-0.00809152 	0.0019257 	-0.152076
0.0069728 	-0.000322977 	4.34862e-05 	-0.0959087
0.0069728 	-0.00738342 	0.00168986 	-0.139357
0.0070251 	-0.000272392 	3.59625e-05 	-0.0860295
0.0070251 	-0.00662416 	0.00146362 	-0.125708
0.00707647 	-0.000224378 	2.92429e-05 	-0.0760235
0.00707647 	-0.00582954 	0.00124874 	-0.11138
0.00712695 	-0.00018066 	2.33291e-05 	-0.0660672
0.00712695 	-0.00502135 	0.00104779 	-0.0967333
0.00717653 	-0.000142386 	1.80771e-05 	-0.0563292
0.00717653 	-0.00422318 	0.000862722 	-0.082171
0.00722524 	-0.000109551 	1.33817e-05 	-0.0469421
0.00722524 	-0.00345515 	0.000691869 	-0.0680401
0.00727309 	-8.05955e-05 	9.23514e-06 	-0.0379913
0.00727309 	-0.00273077 	0.000536816 	-0.0545843
0.0073201 	-5.20765e-05 	5.71674e-06 	-0.0295306
0.0073201 	-0.00205806 	0.000407779 	-0.0419726
0.00736628 	-1.80725e-05 	2.63064e-06 	-0.0215988
0.00736628 	-0.00144399 	0.000249693 	-0.0303671
0.00741165 	1.65457e-05 	8.09424e-07 	-0.0141599
0.00741165 	-0.000900059 	0.00015549 	-0.0197908
0.00745622 	2.74325e-05 	2.64675e-08 	-0.00703984
0.00745622 	-0.00042756 	7.42605e-05 	-0.0098544
0.0075 	0 	0 	0
0.0075 	0 	0 	0
