/*--------------------------------*- C++ -*----------------------------------*\
| =========                 |                                                 |
| \\      /  F ield         | OpenFOAM: The Open Source CFD Toolbox           |
|  \\    /   O peration     | Version:  v1912                                 |
|   \\  /    A nd           | Website:  www.openfoam.com                      |
|    \\/     M anipulation  |                                                 |
\*---------------------------------------------------------------------------*/
FoamFile
{
    version     2.0;
    format      ascii;
    class       volScalarField;
    location    "198.4";
    object      heatTransferCoeff(T);
}
// * * * * * * * * * * * * * * * * * * * * * * * * * * * * * * * * * * * * * //

dimensions      [1 0 -3 -1 0 0 0];


internalField   uniform 0;

boundaryField
{
    leftWall
    {
        type            calculated;
        value           nonuniform List<scalar> 
128
(
-236.737
-316.68
-233.394
-305.907
-239.742
-271.573
-228.946
-54.4621
-296.82
-257.315
-300.511
-243.584
-307.001
-220.236
-298.479
-122.73
-312.879
-222.116
-315.063
-210.324
-314.455
-198.38
-290.968
-123.066
-303.489
-240.547
-303.349
-227.545
-301.31
-211.393
-275.994
-124.98
-300.864
-242.743
-301.865
-229.145
-301.158
-211.925
-277.36
-124.374
-302.478
-244.634
-303.495
-229.033
-302.226
-210.573
-275.927
-123.434
-302.175
-245.248
-303.407
-229.228
-302.164
-210.539
-275.609
-123.258
-302.485
-245.72
-303.658
-229.204
-302.17
-210.089
-275.048
-122.645
-302.318
-245.701
-303.577
-229.253
-302.188
-210.225
-275.217
-122.813
-302.519
-245.807
-303.715
-229.304
-302.257
-210.193
-275.152
-122.706
-302.209
-245.427
-303.478
-229.46
-302.29
-210.769
-275.811
-123.359
-302.53
-244.863
-303.596
-229.32
-302.404
-210.856
-276.2
-123.572
-300.892
-242.979
-301.926
-229.46
-301.292
-212.27
-277.614
-124.531
-303.54
-240.776
-303.41
-227.828
-301.432
-211.699
-276.214
-125.117
-312.971
-222.249
-315.164
-210.475
-314.589
-198.555
-291.138
-123.196
-297.028
-257.364
-300.717
-243.707
-307.187
-220.412
-298.676
-122.769
)
;
    }
    rightWall
    {
        type            calculated;
        value           nonuniform 0();
    }
    leftSides_periodic0
    {
        type            cyclic;
    }
    leftSides_periodic1
    {
        type            cyclic;
    }
    rightSides_periodic0
    {
        type            cyclic;
    }
    rightSides_periodic1
    {
        type            cyclic;
    }
    leftInOut_periodic0
    {
        type            cyclic;
    }
    leftInOut_periodic1
    {
        type            cyclic;
    }
    rightInOut_periodic0
    {
        type            cyclic;
    }
    rightInOut_periodic1
    {
        type            cyclic;
    }
    procBoundary2to0
    {
        type            processor;
        value           uniform 0;
    }
    procBoundary2to0throughleftSides_periodic1
    {
        type            processorCyclic;
        value           uniform 0;
    }
    procBoundary2to1throughleftSides_periodic1
    {
        type            processorCyclic;
        value           uniform 0;
    }
    procBoundary2to1throughrightSides_periodic1
    {
        type            processorCyclic;
        value           uniform 0;
    }
    procBoundary2to3
    {
        type            processor;
        value           uniform 0;
    }
    procBoundary2to3throughrightInOut_periodic1
    {
        type            processorCyclic;
        value           uniform 0;
    }
}


// ************************************************************************* //
