0 	373
5.01672e-05 	369.475
0.000100334 	365.988
0.000150502 	362.571
0.000200669 	359.34
0.000250836 	356.484
0.000301003 	354.161
0.000351171 	352.408
0.000401338 	351.139
0.000451505 	350.226
0.000501672 	349.556
0.000551839 	349.049
0.000602007 	348.651
0.000652174 	348.328
0.000702341 	348.058
0.000752508 	347.829
0.000802676 	347.629
0.000852843 	347.457
0.00090301 	347.303
0.000953177 	347.163
0.00100334 	347.036
0.00105351 	346.919
0.00110368 	346.811
0.00115385 	346.713
0.00120401 	346.62
0.00125418 	346.533
0.00130435 	346.45
0.00135452 	346.373
0.00140468 	346.299
0.00145485 	346.228
0.00150502 	346.16
0.00155518 	346.096
0.00160535 	346.033
0.00165552 	345.973
0.00170569 	345.915
0.00175585 	345.858
0.00180602 	345.804
0.00185619 	345.751
0.00190635 	345.699
0.00195652 	345.649
0.00200669 	345.601
0.00205686 	345.553
0.00210702 	345.507
0.00215719 	345.462
0.00220736 	345.418
0.00225753 	345.375
0.00230769 	345.332
0.00235786 	345.29
0.00240803 	345.249
0.00245819 	345.208
0.00250836 	345.167
0.00255853 	345.127
0.0026087 	345.088
0.00265886 	345.05
0.00270903 	345.012
0.0027592 	344.976
0.00280936 	344.94
0.00285953 	344.906
0.0029097 	344.872
0.00295987 	344.839
0.00301003 	344.807
0.0030602 	344.775
0.00311037 	344.744
0.00316054 	344.713
0.0032107 	344.682
0.00326087 	344.652
0.00331104 	344.622
0.0033612 	344.593
0.00341137 	344.564
0.00346154 	344.536
0.00351171 	344.508
0.00356187 	344.481
0.00361204 	344.454
0.00366221 	344.427
0.00371237 	344.401
0.00376254 	344.376
0.00381271 	344.35
0.00386288 	344.325
0.00391304 	344.301
0.00396321 	344.276
0.00401338 	344.252
0.00406355 	344.228
0.00411371 	344.204
0.00416388 	344.18
0.00421405 	344.157
0.00426421 	344.134
0.00431438 	344.111
0.00436455 	344.088
0.00441472 	344.066
0.00446488 	344.043
0.00451505 	344.021
0.00456522 	344
0.00461538 	343.978
0.00466555 	343.957
0.00471572 	343.936
0.00476589 	343.916
0.00481605 	343.896
0.00486622 	343.876
0.00491639 	343.856
0.00496656 	343.837
0.00501672 	343.817
0.00506689 	343.799
0.00511706 	343.78
0.00516722 	343.761
0.00521739 	343.743
0.00526756 	343.725
0.00531773 	343.707
0.00536789 	343.689
0.00541806 	343.672
0.00546823 	343.654
0.00551839 	343.637
0.00556856 	343.619
0.00561873 	343.602
0.0056689 	343.585
0.00571906 	343.568
0.00576923 	343.551
0.0058194 	343.534
0.00586957 	343.517
0.00591973 	343.5
0.0059699 	343.483
0.00602007 	343.466
0.00607023 	343.45
0.0061204 	343.433
0.00617057 	343.417
0.00622074 	343.4
0.0062709 	343.384
0.00632107 	343.367
0.00637124 	343.351
0.0064214 	343.335
0.00647157 	343.318
0.00652174 	343.302
0.00657191 	343.286
0.00662207 	343.269
0.00667224 	343.253
0.00672241 	343.237
0.00677258 	343.221
0.00682274 	343.205
0.00687291 	343.189
0.00692308 	343.173
0.00697324 	343.156
0.00702341 	343.14
0.00707358 	343.124
0.00712375 	343.108
0.00717391 	343.092
0.00722408 	343.076
0.00727425 	343.06
0.00732441 	343.044
0.00737458 	343.028
0.00742475 	343.012
0.00747492 	342.996
0.00752508 	342.98
0.00757525 	342.964
0.00762542 	342.948
0.00767559 	342.932
0.00772575 	342.916
0.00777592 	342.9
0.00782609 	342.884
0.00787625 	342.868
0.00792642 	342.852
0.00797659 	342.836
0.00802676 	342.82
0.00807692 	342.803
0.00812709 	342.787
0.00817726 	342.771
0.00822742 	342.755
0.00827759 	342.739
0.00832776 	342.722
0.00837793 	342.706
0.00842809 	342.69
0.00847826 	342.674
0.00852843 	342.657
0.0085786 	342.641
0.00862876 	342.624
0.00867893 	342.608
0.0087291 	342.591
0.00877926 	342.575
0.00882943 	342.558
0.0088796 	342.542
0.00892977 	342.525
0.00897993 	342.509
0.0090301 	342.492
0.00908027 	342.475
0.00913043 	342.458
0.0091806 	342.441
0.00923077 	342.425
0.00928094 	342.408
0.0093311 	342.391
0.00938127 	342.374
0.00943144 	342.356
0.00948161 	342.339
0.00953177 	342.322
0.00958194 	342.305
0.00963211 	342.288
0.00968227 	342.27
0.00973244 	342.253
0.00978261 	342.235
0.00983278 	342.218
0.00988294 	342.2
0.00993311 	342.183
0.00998328 	342.165
0.0100334 	342.147
0.0100836 	342.13
0.0101338 	342.112
0.0101839 	342.094
0.0102341 	342.076
0.0102843 	342.058
0.0103344 	342.04
0.0103846 	342.021
0.0104348 	342.003
0.0104849 	341.984
0.0105351 	341.965
0.0105853 	341.947
0.0106355 	341.927
0.0106856 	341.908
0.0107358 	341.889
0.010786 	341.87
0.0108361 	341.85
0.0108863 	341.83
0.0109365 	341.81
0.0109866 	341.79
0.0110368 	341.77
0.011087 	341.75
0.0111371 	341.729
0.0111873 	341.708
0.0112375 	341.687
0.0112876 	341.666
0.0113378 	341.644
0.011388 	341.622
0.0114381 	341.6
0.0114883 	341.577
0.0115385 	341.554
0.0115886 	341.53
0.0116388 	341.506
0.011689 	341.482
0.0117391 	341.457
0.0117893 	341.432
0.0118395 	341.406
0.0118896 	341.38
0.0119398 	341.353
0.01199 	341.326
0.0120401 	341.298
0.0120903 	341.27
0.0121405 	341.24
0.0121906 	341.21
0.0122408 	341.178
0.012291 	341.145
0.0123411 	341.109
0.0123913 	341.073
0.0124415 	341.036
0.0124916 	340.998
0.0125418 	340.96
0.012592 	340.922
0.0126421 	340.883
0.0126923 	340.845
0.0127425 	340.805
0.0127926 	340.765
0.0128428 	340.723
0.012893 	340.681
0.0129431 	340.636
0.0129933 	340.59
0.0130435 	340.542
0.0130936 	340.491
0.0131438 	340.438
0.013194 	340.383
0.0132441 	340.325
0.0132943 	340.265
0.0133445 	340.202
0.0133946 	340.136
0.0134448 	340.067
0.013495 	339.994
0.0135452 	339.916
0.0135953 	339.834
0.0136455 	339.747
0.0136957 	339.654
0.0137458 	339.552
0.013796 	339.443
0.0138462 	339.326
0.0138963 	339.199
0.0139465 	339.058
0.0139967 	338.902
0.0140468 	338.73
0.014097 	338.537
0.0141472 	338.32
0.0141973 	338.07
0.0142475 	337.766
0.0142977 	337.393
0.0143478 	336.927
0.014398 	336.328
0.0144482 	335.549
0.0144983 	334.53
0.0145485 	333.219
0.0145987 	331.591
0.0146488 	329.667
0.014699 	327.513
0.0147492 	325.211
0.0147993 	322.825
0.0148495 	320.394
0.0148997 	317.94
0.0149498 	315.475
0.015 	313
