/*--------------------------------*- C++ -*----------------------------------*\
| =========                 |                                                 |
| \\      /  F ield         | OpenFOAM: The Open Source CFD Toolbox           |
|  \\    /   O peration     | Version:  v1912                                 |
|   \\  /    A nd           | Website:  www.openfoam.com                      |
|    \\/     M anipulation  |                                                 |
\*---------------------------------------------------------------------------*/
FoamFile
{
    version     2.0;
    format      ascii;
    class       volScalarField;
    location    "198.8";
    object      T;
}
// * * * * * * * * * * * * * * * * * * * * * * * * * * * * * * * * * * * * * //

dimensions      [0 0 0 1 0 0 0];


internalField   nonuniform List<scalar> 
10147
(
371.756
371.45
371.369
371.416
371.429
371.421
371.422
371.421
371.421
371.42
371.422
371.42
371.429
371.416
371.369
371.449
369.256
368.339
368.099
368.239
368.279
368.253
368.257
368.252
368.254
368.251
368.256
368.252
368.278
368.238
368.098
368.336
366.715
365.199
364.805
365.034
365.099
365.055
365.062
365.054
365.058
365.053
365.062
365.054
365.098
365.033
364.803
365.193
364.139
362.071
361.545
361.85
361.936
361.877
361.886
361.875
361.88
361.874
361.885
361.875
361.935
361.848
361.542
362.064
361.572
359.064
358.451
358.814
358.913
358.841
358.852
358.837
358.844
358.836
358.85
358.839
358.912
358.812
358.447
359.055
359.127
356.367
355.738
356.141
356.238
356.159
356.168
356.151
356.158
356.149
356.166
356.156
356.237
356.139
355.734
356.357
356.972
354.171
353.593
354.024
354.105
354.023
354.03
354.01
354.017
354.009
354.028
354.02
354.104
354.022
353.59
354.161
355.233
352.544
352.046
352.494
352.554
352.472
352.475
352.454
352.461
352.453
352.474
352.469
352.553
352.493
352.044
352.535
353.919
351.407
350.984
351.439
351.479
351.399
351.4
351.378
351.384
351.377
351.398
351.397
351.478
351.438
350.982
351.398
352.957
350.627
350.26
350.716
350.739
350.663
350.662
350.64
350.645
350.639
350.66
350.661
350.739
350.715
350.259
350.618
352.255
350.087
349.758
350.209
350.222
350.15
350.146
350.125
350.13
350.124
350.145
350.147
350.221
350.209
349.757
350.079
351.737
349.706
349.401
349.845
349.848
349.781
349.777
349.756
349.76
349.755
349.775
349.778
349.847
349.844
349.4
349.699
351.347
349.431
349.137
349.573
349.571
349.508
349.503
349.484
349.488
349.483
349.501
349.505
349.57
349.572
349.136
349.423
351.046
349.227
348.935
349.364
349.359
349.3
349.296
349.277
349.281
349.276
349.294
349.297
349.357
349.363
348.934
349.22
350.811
349.073
348.777
349.199
349.191
349.137
349.133
349.116
349.119
349.115
349.131
349.134
349.189
349.197
348.776
349.065
350.622
348.953
348.651
349.065
349.056
349.007
349.003
348.988
348.991
348.986
349.001
349.004
349.053
349.063
348.649
348.945
350.469
348.859
348.55
348.955
348.945
348.901
348.898
348.884
348.887
348.883
348.896
348.898
348.943
348.953
348.548
348.851
350.342
348.784
348.468
348.864
348.853
348.815
348.812
348.8
348.802
348.798
348.81
348.811
348.851
348.862
348.466
348.777
350.235
348.725
348.401
348.787
348.777
348.743
348.742
348.73
348.733
348.729
348.739
348.739
348.774
348.785
348.399
348.717
350.144
348.677
348.346
348.722
348.712
348.683
348.682
348.672
348.675
348.671
348.679
348.679
348.709
348.72
348.344
348.67
350.064
348.639
348.3
348.667
348.657
348.632
348.632
348.623
348.625
348.622
348.629
348.628
348.653
348.664
348.298
348.631
349.994
348.607
348.262
348.618
348.609
348.588
348.588
348.581
348.583
348.579
348.585
348.583
348.605
348.615
348.259
348.6
349.932
348.581
348.229
348.575
348.566
348.549
348.55
348.544
348.546
348.542
348.547
348.544
348.562
348.572
348.226
348.573
349.875
348.558
348.201
348.536
348.528
348.514
348.516
348.511
348.512
348.509
348.512
348.509
348.524
348.532
348.198
348.551
349.823
348.539
348.176
348.5
348.493
348.482
348.485
348.481
348.482
348.479
348.481
348.477
348.488
348.496
348.173
348.531
349.774
348.522
348.154
348.467
348.46
348.453
348.456
348.453
348.455
348.451
348.453
348.448
348.455
348.463
348.151
348.514
349.727
348.506
348.134
348.435
348.429
348.425
348.43
348.428
348.429
348.426
348.426
348.42
348.424
348.431
348.13
348.498
349.683
348.491
348.115
348.405
348.4
348.399
348.404
348.404
348.405
348.401
348.4
348.394
348.395
348.401
348.111
348.483
349.64
348.476
348.097
348.376
348.371
348.373
348.38
348.38
348.381
348.378
348.376
348.368
348.366
348.371
348.093
348.469
349.598
348.462
348.08
348.348
348.344
348.349
348.356
348.357
348.358
348.355
348.351
348.343
348.338
348.343
348.076
348.455
349.556
348.448
348.063
348.319
348.316
348.324
348.332
348.334
348.336
348.332
348.327
348.318
348.311
348.315
348.058
348.441
349.515
348.434
348.046
348.292
348.289
348.299
348.308
348.312
348.313
348.309
348.303
348.293
348.283
348.286
348.041
348.427
349.473
348.419
348.029
348.264
348.262
348.274
348.284
348.288
348.29
348.286
348.279
348.268
348.255
348.258
348.024
348.412
349.432
348.403
348.012
348.235
348.234
348.249
348.259
348.265
348.266
348.262
348.255
348.243
348.228
348.23
348.007
348.396
349.39
348.387
347.994
348.207
348.206
348.223
348.234
348.24
348.242
348.238
348.229
348.217
348.199
348.201
347.99
348.38
349.348
348.37
347.976
348.177
348.177
348.196
348.208
348.215
348.217
348.213
348.203
348.19
348.17
348.172
347.971
348.363
349.305
348.352
347.958
348.148
348.148
348.169
348.182
348.189
348.191
348.187
348.176
348.162
348.141
348.142
347.953
348.345
349.262
348.333
347.939
348.117
348.118
348.141
348.154
348.163
348.164
348.16
348.149
348.134
348.111
348.111
347.934
348.326
349.218
348.313
347.919
348.087
348.087
348.111
348.125
348.135
348.136
348.132
348.12
348.105
348.08
348.08
347.914
348.306
349.173
348.292
347.899
348.055
348.056
348.081
348.096
348.106
348.107
348.103
348.091
348.075
348.048
348.048
347.893
348.286
349.128
348.27
347.878
348.023
348.023
348.05
348.066
348.076
348.078
348.073
348.06
348.043
348.016
348.016
347.872
348.264
349.082
348.247
347.856
347.99
347.99
348.019
348.034
348.045
348.047
348.042
348.029
348.011
347.983
347.983
347.85
348.241
349.035
348.223
347.833
347.956
347.957
347.986
348.002
348.013
348.015
348.01
347.996
347.979
347.949
347.949
347.828
348.217
348.988
348.199
347.81
347.922
347.922
347.952
347.969
347.981
347.982
347.978
347.963
347.945
347.915
347.915
347.804
348.192
348.94
348.173
347.786
347.887
347.887
347.918
347.935
347.947
347.949
347.944
347.929
347.91
347.88
347.88
347.781
348.167
348.891
348.146
347.762
347.852
347.852
347.883
347.9
347.913
347.914
347.909
347.894
347.875
347.844
347.845
347.756
348.14
348.842
348.118
347.737
347.816
347.816
347.847
347.864
347.877
347.879
347.874
347.858
347.839
347.808
347.809
347.731
348.113
348.793
348.09
347.712
347.78
347.779
347.81
347.828
347.841
347.843
347.838
347.822
347.803
347.771
347.773
347.706
348.084
348.742
348.061
347.685
347.744
347.743
347.773
347.791
347.805
347.807
347.802
347.785
347.766
347.735
347.737
347.679
348.055
348.69
348.031
347.659
347.707
347.705
347.736
347.754
347.768
347.769
347.765
347.748
347.729
347.698
347.7
347.653
348.025
348.637
348
347.631
347.671
347.668
347.698
347.716
347.73
347.732
347.727
347.71
347.691
347.66
347.663
347.625
347.995
348.583
347.969
347.604
347.634
347.631
347.66
347.678
347.692
347.694
347.689
347.672
347.653
347.623
347.627
347.598
347.963
348.527
347.937
347.576
347.597
347.593
347.622
347.639
347.653
347.655
347.65
347.633
347.614
347.585
347.59
347.57
347.931
348.47
347.904
347.547
347.56
347.555
347.582
347.6
347.614
347.615
347.61
347.594
347.575
347.547
347.553
347.541
347.899
348.412
347.871
347.518
347.523
347.517
347.543
347.56
347.574
347.576
347.571
347.554
347.536
347.509
347.516
347.512
347.866
348.354
347.837
347.489
347.485
347.478
347.503
347.52
347.533
347.535
347.53
347.514
347.496
347.47
347.478
347.483
347.832
348.294
347.803
347.459
347.448
347.439
347.463
347.479
347.492
347.494
347.489
347.474
347.456
347.431
347.44
347.453
347.798
348.233
347.768
347.429
347.41
347.4
347.422
347.438
347.451
347.453
347.448
347.433
347.415
347.392
347.403
347.423
347.764
348.172
347.733
347.399
347.371
347.36
347.381
347.397
347.409
347.411
347.406
347.391
347.374
347.353
347.364
347.393
347.728
348.111
347.698
347.368
347.333
347.32
347.339
347.355
347.367
347.369
347.364
347.349
347.332
347.313
347.326
347.362
347.693
348.05
347.662
347.337
347.294
347.28
347.297
347.313
347.325
347.327
347.322
347.307
347.29
347.272
347.287
347.331
347.657
347.99
347.625
347.305
347.255
347.239
347.255
347.27
347.282
347.284
347.279
347.264
347.248
347.232
347.248
347.299
347.621
347.932
347.588
347.273
347.215
347.198
347.213
347.227
347.238
347.241
347.235
347.221
347.206
347.191
347.208
347.267
347.584
347.876
347.551
347.24
347.176
347.157
347.17
347.183
347.195
347.197
347.192
347.178
347.163
347.149
347.169
347.234
347.547
347.823
347.514
347.206
347.136
347.115
347.126
347.14
347.151
347.153
347.148
347.135
347.12
347.108
347.129
347.201
347.509
347.771
347.475
347.173
347.096
347.073
347.083
347.096
347.107
347.109
347.104
347.091
347.076
347.066
347.089
347.167
347.471
347.72
347.437
347.138
347.055
347.031
347.039
347.052
347.062
347.065
347.06
347.047
347.033
347.024
347.049
347.132
347.433
347.668
347.398
347.103
347.015
346.988
346.996
347.008
347.018
347.02
347.015
347.003
346.989
346.982
347.008
347.098
347.394
347.617
347.358
347.068
346.974
346.946
346.952
346.963
346.973
346.976
346.971
346.958
346.945
346.939
346.968
347.062
347.354
347.566
347.318
347.031
346.933
346.903
346.908
346.919
346.929
346.931
346.926
346.914
346.902
346.897
346.927
347.026
347.314
347.514
347.278
346.995
346.892
346.86
346.864
346.874
346.884
346.886
346.881
346.87
346.857
346.854
346.886
346.989
347.274
347.463
347.236
346.957
346.851
346.817
346.819
346.83
346.839
346.841
346.837
346.825
346.813
346.81
346.845
346.952
347.232
347.412
347.194
346.919
346.809
346.773
346.774
346.785
346.794
346.796
346.791
346.78
346.769
346.767
346.803
346.913
347.191
347.36
347.152
346.88
346.767
346.729
346.729
346.739
346.748
346.751
346.746
346.735
346.724
346.723
346.761
346.874
347.148
347.309
347.108
346.84
346.724
346.685
346.684
346.693
346.702
346.704
346.7
346.689
346.678
346.679
346.718
346.834
347.104
347.257
347.064
346.799
346.681
346.64
346.638
346.647
346.656
346.658
346.653
346.643
346.632
346.634
346.675
346.794
347.06
347.205
347.018
346.757
346.637
346.594
346.591
346.6
346.609
346.611
346.606
346.596
346.586
346.588
346.631
346.752
347.015
347.153
346.972
346.714
346.592
346.548
346.544
346.552
346.561
346.563
346.558
346.548
346.539
346.542
346.587
346.709
346.968
347.1
346.924
346.67
346.547
346.501
346.496
346.504
346.512
346.514
346.51
346.499
346.491
346.495
346.541
346.665
346.92
371.339
371.655
371.844
371.745
371.732
371.723
371.719
371.717
371.717
371.717
371.718
371.722
371.731
371.744
371.843
371.654
368.007
368.953
369.52
369.225
369.186
369.157
369.147
369.14
369.14
369.139
369.144
369.154
369.182
369.221
369.518
368.952
364.655
366.217
367.161
366.67
366.605
366.557
366.54
366.529
366.529
366.527
366.535
366.551
366.599
366.664
367.157
366.215
361.379
363.48
364.775
364.104
364.015
363.949
363.925
363.91
363.91
363.907
363.919
363.941
364.007
364.096
364.77
363.478
358.396
360.851
362.42
361.613
361.505
361.427
361.398
361.38
361.379
361.376
361.39
361.416
361.495
361.602
362.414
360.849
355.992
358.525
360.234
359.366
359.253
359.172
359.141
359.124
359.122
359.12
359.132
359.16
359.241
359.355
360.227
358.523
354.292
356.675
358.382
357.537
357.429
357.356
357.327
357.314
357.311
357.309
357.318
357.343
357.415
357.525
358.374
356.672
353.175
355.315
356.939
356.165
356.067
356.008
355.984
355.974
355.97
355.968
355.974
355.995
356.054
356.152
356.932
355.312
352.443
354.341
355.861
355.169
355.083
355.036
355.016
355.009
355.006
355.004
355.006
355.023
355.069
355.156
355.853
354.338
351.941
353.633
355.053
354.438
354.362
354.325
354.308
354.305
354.301
354.299
354.298
354.313
354.348
354.425
355.046
353.63
351.574
353.099
354.434
353.884
353.816
353.787
353.772
353.771
353.767
353.766
353.762
353.774
353.802
353.872
354.427
353.096
351.29
352.679
353.943
353.448
353.386
353.363
353.35
353.35
353.346
353.345
353.34
353.35
353.372
353.436
353.936
352.676
351.057
352.336
353.54
353.092
353.035
353.016
353.004
353.005
353.001
353
352.994
353.003
353.021
353.079
353.533
352.333
350.857
352.047
353.201
352.791
352.738
352.722
352.712
352.714
352.71
352.709
352.702
352.71
352.725
352.779
353.194
352.044
350.679
351.796
352.908
352.532
352.482
352.468
352.459
352.461
352.457
352.456
352.449
352.455
352.468
352.52
352.901
351.792
350.517
351.572
352.649
352.302
352.254
352.242
352.234
352.236
352.232
352.231
352.223
352.229
352.24
352.289
352.642
351.568
350.369
351.37
352.416
352.093
352.048
352.037
352.029
352.032
352.028
352.027
352.019
352.024
352.034
352.081
352.409
351.366
350.231
351.186
352.203
351.902
351.859
351.849
351.842
351.845
351.84
351.839
351.832
351.836
351.845
351.89
352.196
351.183
350.101
351.017
352.007
351.726
351.684
351.675
351.668
351.671
351.667
351.665
351.658
351.662
351.671
351.714
352
351.014
349.98
350.861
351.824
351.562
351.522
351.513
351.506
351.509
351.505
351.503
351.496
351.5
351.508
351.55
351.817
350.857
349.864
350.715
351.654
351.408
351.369
351.36
351.354
351.357
351.353
351.351
351.344
351.347
351.356
351.396
351.647
350.712
349.755
350.579
351.493
351.263
351.226
351.217
351.21
351.213
351.209
351.207
351.2
351.204
351.212
351.252
351.486
350.575
349.651
350.451
351.342
351.126
351.09
351.08
351.074
351.076
351.072
351.07
351.064
351.067
351.076
351.114
351.335
350.447
349.552
350.33
351.198
350.995
350.96
350.95
350.943
350.945
350.941
350.94
350.933
350.937
350.947
350.984
351.191
350.326
349.457
350.216
351.061
350.87
350.836
350.825
350.818
350.82
350.816
350.814
350.808
350.812
350.823
350.859
351.054
350.212
349.366
350.106
350.93
350.751
350.717
350.705
350.698
350.699
350.696
350.694
350.688
350.692
350.704
350.739
350.923
350.103
349.279
350.002
350.804
350.635
350.603
350.589
350.582
350.583
350.579
350.577
350.573
350.576
350.59
350.624
350.797
349.999
349.195
349.903
350.684
350.524
350.492
350.477
350.47
350.47
350.467
350.465
350.461
350.465
350.479
350.513
350.677
349.899
349.116
349.808
350.567
350.416
350.385
350.369
350.362
350.361
350.358
350.356
350.352
350.356
350.372
350.405
350.56
349.804
349.04
349.716
350.454
350.312
350.281
350.264
350.256
350.255
350.252
350.25
350.247
350.251
350.269
350.301
350.447
349.712
348.967
349.627
350.345
350.21
350.18
350.161
350.154
350.152
350.149
350.147
350.144
350.149
350.168
350.199
350.338
349.624
348.898
349.542
350.239
350.111
350.082
350.062
350.054
350.052
350.049
350.047
350.045
350.05
350.07
350.101
350.232
349.538
348.831
349.46
350.135
350.015
349.987
349.965
349.957
349.954
349.951
349.949
349.948
349.953
349.974
350.005
350.128
349.456
348.768
349.38
350.035
349.922
349.893
349.871
349.862
349.859
349.856
349.854
349.853
349.859
349.881
349.911
350.028
349.377
348.707
349.303
349.936
349.83
349.802
349.779
349.77
349.766
349.763
349.761
349.76
349.767
349.79
349.82
349.929
349.3
348.649
349.229
349.84
349.741
349.713
349.689
349.68
349.675
349.672
349.67
349.67
349.677
349.701
349.73
349.833
349.225
348.594
349.157
349.746
349.653
349.626
349.601
349.592
349.587
349.584
349.582
349.582
349.589
349.614
349.643
349.739
349.153
348.541
349.087
349.654
349.568
349.541
349.515
349.506
349.5
349.498
349.495
349.497
349.504
349.529
349.558
349.647
349.083
348.49
349.019
349.564
349.484
349.458
349.432
349.422
349.416
349.413
349.411
349.413
349.42
349.446
349.474
349.557
349.015
348.441
348.953
349.476
349.402
349.377
349.35
349.34
349.334
349.331
349.329
349.331
349.338
349.365
349.392
349.469
348.949
348.393
348.889
349.389
349.322
349.297
349.27
349.26
349.254
349.251
349.249
349.251
349.259
349.286
349.312
349.382
348.885
348.348
348.826
349.304
349.243
349.219
349.192
349.182
349.175
349.173
349.171
349.173
349.181
349.208
349.234
349.297
348.823
348.303
348.765
349.221
349.167
349.143
349.117
349.106
349.099
349.097
349.095
349.097
349.105
349.132
349.157
349.214
348.761
348.26
348.705
349.139
349.091
349.069
349.043
349.033
349.025
349.023
349.021
349.024
349.032
349.057
349.082
349.133
348.701
348.218
348.645
349.059
349.018
348.996
348.971
348.961
348.953
348.951
348.948
348.952
348.96
348.985
349.008
349.052
348.641
348.177
348.586
348.98
348.946
348.925
348.901
348.89
348.883
348.88
348.878
348.881
348.89
348.914
348.937
348.974
348.583
348.136
348.528
348.903
348.876
348.856
348.832
348.821
348.813
348.81
348.808
348.812
348.821
348.845
348.867
348.897
348.525
348.096
348.471
348.827
348.808
348.788
348.763
348.752
348.744
348.741
348.739
348.744
348.753
348.777
348.799
348.821
348.467
348.056
348.414
348.753
348.741
348.721
348.696
348.684
348.676
348.673
348.671
348.676
348.685
348.71
348.731
348.747
348.41
348.016
348.358
348.68
348.674
348.654
348.629
348.617
348.608
348.605
348.603
348.608
348.618
348.643
348.665
348.674
348.354
347.976
348.302
348.609
348.608
348.589
348.563
348.55
348.541
348.538
348.536
348.542
348.552
348.578
348.599
348.603
348.298
347.935
348.246
348.54
348.543
348.523
348.497
348.484
348.474
348.471
348.47
348.476
348.487
348.513
348.534
348.534
348.242
347.893
348.19
348.473
348.478
348.459
348.432
348.418
348.408
348.405
348.404
348.41
348.422
348.449
348.47
348.467
348.187
347.851
348.135
348.409
348.415
348.395
348.368
348.353
348.343
348.339
348.338
348.345
348.358
348.385
348.406
348.403
348.131
347.808
348.079
348.346
348.352
348.332
348.304
348.288
348.277
348.274
348.273
348.281
348.294
348.322
348.343
348.34
348.076
347.763
348.024
348.285
348.289
348.269
348.24
348.224
348.212
348.209
348.208
348.216
348.23
348.259
348.281
348.279
348.021
347.718
347.969
348.224
348.227
348.207
348.177
348.16
348.148
348.144
348.144
348.152
348.167
348.197
348.219
348.218
347.966
347.672
347.914
348.163
348.166
348.145
348.114
348.096
348.083
348.08
348.079
348.089
348.105
348.136
348.158
348.157
347.91
347.624
347.858
348.102
348.105
348.084
348.051
348.033
348.019
348.016
348.015
348.025
348.042
348.075
348.097
348.097
347.855
347.576
347.803
348.042
348.044
348.023
347.989
347.97
347.956
347.952
347.952
347.962
347.98
348.014
348.037
348.037
347.8
347.527
347.748
347.982
347.984
347.962
347.927
347.907
347.892
347.888
347.888
347.899
347.918
347.953
347.977
347.977
347.745
347.477
347.693
347.923
347.924
347.902
347.865
347.844
347.828
347.824
347.824
347.837
347.856
347.893
347.917
347.917
347.69
347.426
347.637
347.863
347.865
347.842
347.804
347.781
347.765
347.76
347.761
347.774
347.795
347.833
347.858
347.858
347.635
347.375
347.582
347.804
347.806
347.782
347.742
347.718
347.702
347.697
347.698
347.712
347.734
347.773
347.798
347.798
347.579
347.324
347.527
347.744
347.747
347.722
347.681
347.656
347.639
347.634
347.635
347.65
347.673
347.714
347.74
347.739
347.524
347.273
347.471
347.685
347.688
347.663
347.62
347.594
347.576
347.571
347.573
347.588
347.612
347.654
347.681
347.68
347.469
347.222
347.416
347.626
347.629
347.603
347.559
347.533
347.514
347.509
347.51
347.526
347.552
347.595
347.623
347.621
347.413
347.171
347.361
347.567
347.571
347.544
347.499
347.471
347.452
347.447
347.449
347.465
347.491
347.536
347.564
347.562
347.358
347.121
347.305
347.508
347.513
347.485
347.439
347.411
347.39
347.385
347.387
347.404
347.432
347.478
347.506
347.503
347.303
347.07
347.25
347.449
347.454
347.427
347.38
347.35
347.329
347.324
347.326
347.344
347.372
347.419
347.448
347.444
347.248
347.02
347.195
347.389
347.396
347.368
347.32
347.29
347.269
347.263
347.266
347.284
347.313
347.361
347.39
347.385
347.193
346.97
347.14
347.33
347.338
347.309
347.261
347.23
347.208
347.203
347.205
347.224
347.254
347.302
347.332
347.326
347.138
346.92
347.085
347.271
347.279
347.25
347.202
347.17
347.148
347.143
347.145
347.165
347.195
347.243
347.273
347.266
347.083
346.87
347.03
347.211
347.22
347.191
347.142
347.111
347.089
347.083
347.086
347.105
347.136
347.184
347.215
347.207
347.028
346.821
346.976
347.151
347.161
347.132
347.083
347.051
347.029
347.023
347.026
347.046
347.077
347.125
347.156
347.147
346.974
346.772
346.921
347.091
347.102
347.072
347.024
346.991
346.969
346.963
346.966
346.986
347.017
347.066
347.096
347.087
346.919
346.724
346.866
347.03
347.041
347.012
346.964
346.931
346.909
346.903
346.907
346.926
346.958
347.006
347.036
347.026
346.864
346.675
346.811
346.969
346.981
346.952
346.904
346.871
346.849
346.843
346.846
346.866
346.897
346.945
346.976
346.965
346.81
346.626
346.757
346.907
346.919
346.89
346.843
346.811
346.789
346.783
346.786
346.806
346.837
346.884
346.914
346.904
346.755
371.786
371.431
371.352
371.416
371.424
371.416
371.416
371.415
371.415
371.415
371.416
371.415
371.424
371.416
371.351
371.43
369.345
368.283
368.048
368.238
368.262
368.236
368.238
368.234
368.236
368.233
368.237
368.235
368.261
368.237
368.046
368.28
366.864
365.104
364.718
365.03
365.068
365.026
365.028
365.021
365.024
365.02
365.027
365.023
365.067
365.028
364.715
365.099
364.349
361.934
361.419
361.837
361.886
361.827
361.83
361.82
361.823
361.818
361.828
361.824
361.884
361.834
361.415
361.927
361.832
358.883
358.286
358.78
358.835
358.761
358.763
358.75
358.754
358.748
358.761
358.757
358.832
358.777
358.281
358.874
359.402
356.139
355.537
356.072
356.122
356.038
356.038
356.021
356.026
356.019
356.035
356.033
356.119
356.07
355.533
356.13
357.201
353.9
353.364
353.911
353.947
353.857
353.855
353.835
353.839
353.832
353.852
353.853
353.945
353.909
353.361
353.89
355.354
352.236
351.8
352.339
352.357
352.266
352.26
352.237
352.242
352.236
352.258
352.262
352.355
352.337
351.797
352.227
353.903
351.074
350.73
351.251
351.253
351.163
351.155
351.13
351.135
351.129
351.153
351.16
351.252
351.25
350.728
351.066
352.809
350.283
350.006
350.506
350.496
350.407
350.398
350.372
350.376
350.371
350.396
350.405
350.495
350.505
350.005
350.276
351.998
349.743
349.51
349.987
349.969
349.883
349.872
349.846
349.85
349.845
349.871
349.881
349.968
349.987
349.51
349.736
351.399
349.369
349.162
349.618
349.594
349.511
349.5
349.474
349.478
349.473
349.498
349.509
349.593
349.618
349.162
349.363
350.954
349.106
348.91
349.348
349.32
349.241
349.229
349.204
349.208
349.203
349.228
349.239
349.319
349.347
348.909
349.1
350.621
348.918
348.721
349.144
349.114
349.04
349.029
349.004
349.008
349.003
349.027
349.038
349.113
349.144
348.721
348.912
350.371
348.781
348.577
348.987
348.957
348.887
348.877
348.853
348.857
348.853
348.875
348.885
348.955
348.986
348.577
348.775
350.183
348.68
348.467
348.864
348.834
348.77
348.76
348.738
348.741
348.737
348.758
348.767
348.832
348.863
348.466
348.674
350.04
348.606
348.382
348.767
348.737
348.679
348.67
348.65
348.652
348.649
348.668
348.676
348.735
348.766
348.381
348.6
349.932
348.552
348.316
348.69
348.661
348.608
348.6
348.581
348.584
348.58
348.597
348.605
348.659
348.689
348.315
348.546
349.851
348.512
348.265
348.628
348.6
348.552
348.545
348.527
348.53
348.526
348.542
348.549
348.597
348.626
348.263
348.506
349.789
348.484
348.224
348.577
348.55
348.507
348.501
348.485
348.487
348.484
348.498
348.504
348.548
348.575
348.223
348.478
349.742
348.464
348.193
348.535
348.509
348.471
348.465
348.451
348.453
348.45
348.463
348.467
348.506
348.533
348.191
348.458
349.706
348.45
348.167
348.499
348.475
348.441
348.437
348.424
348.426
348.423
348.434
348.437
348.472
348.497
348.165
348.444
349.677
348.44
348.147
348.468
348.445
348.416
348.413
348.402
348.403
348.4
348.41
348.412
348.442
348.466
348.144
348.433
349.654
348.432
348.129
348.441
348.419
348.395
348.392
348.383
348.385
348.381
348.389
348.391
348.416
348.438
348.127
348.426
349.633
348.427
348.115
348.416
348.396
348.376
348.375
348.367
348.368
348.365
348.371
348.372
348.392
348.413
348.112
348.42
349.613
348.422
348.101
348.393
348.374
348.359
348.359
348.352
348.354
348.351
348.355
348.354
348.37
348.39
348.098
348.416
349.593
348.418
348.089
348.371
348.354
348.343
348.344
348.339
348.34
348.337
348.34
348.338
348.35
348.368
348.086
348.412
349.573
348.414
348.078
348.35
348.335
348.327
348.329
348.326
348.327
348.324
348.326
348.322
348.33
348.346
348.074
348.407
349.551
348.409
348.067
348.329
348.315
348.312
348.315
348.313
348.314
348.311
348.311
348.307
348.31
348.325
348.063
348.403
349.527
348.404
348.056
348.308
348.295
348.296
348.3
348.299
348.3
348.297
348.296
348.29
348.29
348.304
348.052
348.397
349.501
348.397
348.044
348.287
348.275
348.279
348.284
348.285
348.286
348.283
348.28
348.274
348.27
348.282
348.04
348.39
349.473
348.389
348.032
348.265
348.255
348.262
348.268
348.27
348.271
348.268
348.264
348.256
348.249
348.26
348.028
348.383
349.442
348.38
348.019
348.242
348.233
348.243
348.25
348.253
348.254
348.251
348.246
348.237
348.227
348.237
348.015
348.373
349.408
348.369
348.006
348.219
348.211
348.223
348.232
348.236
348.237
348.233
348.227
348.217
348.204
348.213
348.001
348.363
349.372
348.357
347.991
348.194
348.187
348.202
348.211
348.217
348.217
348.214
348.207
348.196
348.181
348.188
347.986
348.35
349.333
348.343
347.976
348.168
348.162
348.18
348.19
348.196
348.197
348.193
348.185
348.173
348.156
348.162
347.971
348.337
349.293
348.328
347.959
348.141
348.136
348.156
348.167
348.174
348.175
348.171
348.162
348.149
348.13
348.135
347.954
348.322
349.25
348.312
347.942
348.113
348.109
348.131
348.142
348.15
348.151
348.147
348.137
348.124
348.102
348.107
347.937
348.305
349.206
348.293
347.924
348.084
348.081
348.104
348.116
348.125
348.126
348.122
348.111
348.097
348.074
348.078
347.918
348.287
349.16
348.274
347.904
348.054
348.051
348.076
348.089
348.098
348.099
348.096
348.084
348.069
348.044
348.048
347.899
348.268
349.113
348.253
347.884
348.023
348.021
348.047
348.06
348.07
348.071
348.068
348.055
348.04
348.014
348.017
347.878
348.247
349.065
348.231
347.862
347.991
347.99
348.016
348.031
348.041
348.042
348.038
348.025
348.009
347.982
347.985
347.857
348.225
349.015
348.208
347.84
347.959
347.957
347.985
348
348.011
348.012
348.008
347.994
347.978
347.95
347.952
347.834
348.201
348.965
348.183
347.817
347.926
347.924
347.953
347.968
347.979
347.981
347.976
347.962
347.946
347.917
347.919
347.811
348.177
348.914
348.158
347.793
347.892
347.891
347.92
347.935
347.947
347.948
347.944
347.929
347.912
347.883
347.885
347.787
348.152
348.863
348.131
347.768
347.857
347.856
347.885
347.901
347.914
347.915
347.911
347.896
347.878
347.849
347.85
347.762
348.125
348.81
348.103
347.743
347.822
347.821
347.851
347.867
347.879
347.881
347.876
347.861
347.843
347.813
347.815
347.737
348.097
348.755
348.075
347.717
347.787
347.786
347.815
347.831
347.844
347.845
347.841
347.825
347.807
347.778
347.78
347.711
348.069
348.699
348.045
347.69
347.751
347.749
347.778
347.795
347.808
347.809
347.805
347.789
347.771
347.742
347.744
347.684
348.04
348.642
348.015
347.663
347.715
347.713
347.741
347.758
347.771
347.772
347.768
347.752
347.734
347.705
347.708
347.657
348.01
348.584
347.984
347.635
347.678
347.675
347.703
347.72
347.733
347.735
347.73
347.714
347.696
347.667
347.671
347.629
347.979
348.525
347.953
347.607
347.641
347.638
347.665
347.682
347.695
347.696
347.692
347.676
347.658
347.63
347.634
347.601
347.948
348.466
347.921
347.578
347.604
347.599
347.626
347.643
347.656
347.657
347.653
347.637
347.619
347.592
347.596
347.572
347.915
348.406
347.888
347.549
347.566
347.561
347.587
347.603
347.616
347.618
347.613
347.597
347.579
347.553
347.559
347.543
347.883
348.346
347.855
347.519
347.528
347.522
347.547
347.563
347.576
347.578
347.573
347.557
347.539
347.514
347.521
347.513
347.85
348.287
347.821
347.489
347.49
347.482
347.506
347.522
347.535
347.537
347.532
347.516
347.499
347.474
347.483
347.483
347.816
348.227
347.787
347.459
347.451
347.443
347.465
347.481
347.494
347.496
347.491
347.475
347.458
347.435
347.444
347.453
347.782
348.167
347.752
347.428
347.412
347.402
347.424
347.439
347.452
347.454
347.449
347.434
347.417
347.395
347.405
347.422
347.747
348.108
347.717
347.397
347.373
347.362
347.382
347.397
347.41
347.412
347.407
347.392
347.375
347.354
347.366
347.391
347.712
348.049
347.681
347.366
347.334
347.321
347.34
347.355
347.367
347.369
347.364
347.349
347.333
347.313
347.326
347.36
347.677
347.992
347.645
347.334
347.294
347.28
347.297
347.312
347.324
347.326
347.321
347.306
347.29
347.272
347.287
347.328
347.641
347.937
347.609
347.301
347.254
347.238
347.254
347.268
347.28
347.282
347.277
347.263
347.247
347.231
347.247
347.296
347.604
347.884
347.572
347.269
347.213
347.196
347.211
347.225
347.236
347.238
347.233
347.219
347.204
347.189
347.207
347.263
347.568
347.834
347.535
347.235
347.173
347.154
347.167
347.18
347.192
347.194
347.189
347.175
347.16
347.147
347.166
347.229
347.531
347.785
347.498
347.201
347.132
347.111
347.123
347.136
347.147
347.149
347.144
347.131
347.116
347.104
347.126
347.196
347.493
347.736
347.46
347.167
347.092
347.068
347.079
347.091
347.102
347.104
347.099
347.086
347.072
347.061
347.085
347.161
347.456
347.686
347.421
347.132
347.051
347.026
347.034
347.046
347.057
347.059
347.054
347.041
347.028
347.019
347.044
347.127
347.417
347.637
347.382
347.097
347.009
346.982
346.99
347.001
347.011
347.013
347.009
346.996
346.983
346.976
347.003
347.091
347.378
347.588
347.343
347.061
346.968
346.939
346.945
346.956
346.966
346.968
346.963
346.951
346.939
346.933
346.962
347.056
347.339
347.538
347.303
347.025
346.927
346.896
346.9
346.91
346.92
346.922
346.918
346.906
346.894
346.889
346.921
347.019
347.299
347.489
347.263
346.988
346.885
346.852
346.855
346.865
346.875
346.877
346.872
346.86
346.849
346.846
346.879
346.982
347.259
347.439
347.222
346.95
346.844
346.809
346.81
346.82
346.829
346.831
346.826
346.815
346.804
346.802
346.838
346.944
347.218
347.39
347.18
346.912
346.802
346.765
346.765
346.774
346.783
346.785
346.781
346.77
346.759
346.759