-0.0075 	0 	0 	0
-0.0075 	1.14572e-35 	2.19057e-36 	-8.15637e-33
-0.00745622 	1.50582e-05 	2.87906e-06 	-0.0107199
-0.00745622 	1.50582e-05 	2.87906e-06 	-0.0107199
-0.00741165 	4.63332e-05 	5.41799e-06 	-0.0209153
-0.00741165 	4.63332e-05 	5.41799e-06 	-0.0209153
-0.00736628 	8.62488e-05 	7.63763e-06 	-0.0310557
-0.00736628 	8.62488e-05 	7.63763e-06 	-0.0310557
-0.0073201 	0.000123102 	9.18333e-06 	-0.0414063
-0.0073201 	0.000123102 	9.18333e-06 	-0.0414063
-0.00727309 	0.000154164 	1.13723e-05 	-0.0518738
-0.00727309 	0.000154164 	1.13723e-05 	-0.0518738
-0.00722524 	0.000180757 	1.40076e-05 	-0.0622868
-0.00722524 	0.000180757 	1.40076e-05 	-0.0622868
-0.00717653 	0.000203608 	1.72718e-05 	-0.072519
-0.00717653 	0.000203608 	1.72718e-05 	-0.072519
-0.00712695 	0.000223275 	2.12079e-05 	-0.0824656
-0.00712695 	0.000223275 	2.12079e-05 	-0.0824656
-0.00707647 	0.000240271 	2.57684e-05 	-0.0920404
-0.00707647 	0.000240271 	2.57684e-05 	-0.0920404
-0.0070251 	0.000255006 	3.08554e-05 	-0.101182
-0.0070251 	0.000255006 	3.08554e-05 	-0.101182
-0.0069728 	0.000267622 	3.63143e-05 	-0.109866
-0.0069728 	0.000267622 	3.63143e-05 	-0.109866
-0.00691956 	0.000278283 	4.22113e-05 	-0.1181
-0.00691956 	0.000278283 	4.22113e-05 	-0.1181
-0.00686537 	0.0002875 	4.8689e-05 	-0.125909
-0.00686537 	0.0002875 	4.8689e-05 	-0.125909
-0.00681021 	0.000295819 	5.5707e-05 	-0.133318
-0.00681021 	0.000295819 	5.5707e-05 	-0.133318
-0.00675406 	0.000303576 	6.31225e-05 	-0.14035
-0.00675406 	0.000303576 	6.31225e-05 	-0.14035
-0.0066969 	0.000310962 	7.08345e-05 	-0.147029
-0.0066969 	0.000310962 	7.08345e-05 	-0.147029
-0.00663871 	0.000318111 	7.88222e-05 	-0.153378
-0.00663871 	0.000318111 	7.88222e-05 	-0.153378
-0.00657949 	0.000325133 	8.70598e-05 	-0.159414
-0.00657949 	0.000325133 	8.70598e-05 	-0.159414
-0.0065192 	0.000332105 	9.54786e-05 	-0.165158
-0.0065192 	0.000332105 	9.54786e-05 	-0.165158
-0.00645783 	0.000339078 	0.000103988 	-0.170625
-0.00645783 	0.000339078 	0.000103988 	-0.170625
-0.00639535 	0.000346074 	0.000112501 	-0.175831
-0.00639535 	0.000346074 	0.000112501 	-0.175831
-0.00633176 	0.000353089 	0.000120907 	-0.180793
-0.00633176 	0.000353089 	0.000120907 	-0.180793
-0.00626703 	0.000360089 	0.000129089 	-0.185525
-0.00626703 	0.000360089 	0.000129089 	-0.185525
-0.00620114 	0.000367014 	0.000136994 	-0.19004
-0.00620114 	0.000367014 	0.000136994 	-0.19004
-0.00613406 	0.000373764 	0.000144661 	-0.194351
-0.00613406 	0.000373764 	0.000144661 	-0.194351
-0.00606579 	0.000380218 	0.000152185 	-0.198464
-0.00606579 	0.000380218 	0.000152185 	-0.198464
-0.00599629 	0.000386311 	0.000159558 	-0.202381
-0.00599629 	0.000386311 	0.000159558 	-0.202381
-0.00592554 	0.00039212 	0.000166587 	-0.206099
-0.00592554 	0.00039212 	0.000166587 	-0.206099
-0.00585352 	0.000397812 	0.000173024 	-0.209613
-0.00585352 	0.000397812 	0.000173024 	-0.209613
-0.00578022 	0.000403423 	0.000178613 	-0.212923
-0.00578022 	0.000403423 	0.000178613 	-0.212923
-0.00570559 	0.000408751 	0.000183258 	-0.216048
-0.00570559 	0.000408751 	0.000183258 	-0.216048
-0.00562963 	0.000413709 	0.000187082 	-0.219037
-0.00562963 	0.000413709 	0.000187082 	-0.219037
-0.00555231 	0.000418514 	0.000190229 	-0.221956
-0.00555231 	0.000418514 	0.000190229 	-0.221956
-0.0054736 	0.000423096 	0.000193514 	-0.224836
-0.0054736 	0.000423096 	0.000193514 	-0.224836
-0.00539348 	0.000426501 	0.000197221 	-0.227638
-0.00539348 	0.000426501 	0.000197221 	-0.227638
-0.00531193 	0.000427368 	0.000199997 	-0.230288
-0.00531193 	0.000427368 	0.000199997 	-0.230288
-0.00522891 	0.000425366 	0.000200947 	-0.232758
-0.00522891 	0.000425366 	0.000200947 	-0.232758
-0.0051444 	0.000421306 	0.000200123 	-0.235074
-0.0051444 	0.000421306 	0.000200123 	-0.235074
-0.00505838 	0.000415824 	0.000198542 	-0.237277
-0.00505838 	0.000415824 	0.000198542 	-0.237277
-0.00497081 	0.000409016 	0.000197036 	-0.239395
-0.00497081 	0.000409016 	0.000197036 	-0.239395
-0.00488168 	0.000400673 	0.000195209 	-0.241439
-0.00488168 	0.000400673 	0.000195209 	-0.241439
-0.00479094 	0.000390483 	0.000193226 	-0.243414
-0.00479094 	0.000390483 	0.000193226 	-0.243414
-0.00469858 	0.000378174 	0.000191381 	-0.245319
-0.00469858 	0.000378174 	0.000191381 	-0.245319
-0.00460456 	0.000363397 	0.000189457 	-0.247154
-0.00460456 	0.000363397 	0.000189457 	-0.247154
-0.00450886 	0.0003458 	0.000187473 	-0.248913
-0.00450886 	0.0003458 	0.000187473 	-0.248913
-0.00441144 	0.000325091 	0.000185948 	-0.25059
-0.00441144 	0.000325091 	0.000185948 	-0.25059
-0.00431227 	0.000300618 	0.00018493 	-0.252169
-0.00431227 	0.000300618 	0.00018493 	-0.252169
-0.00421133 	0.000271852 	0.000183276 	-0.253633
-0.00421133 	0.000271852 	0.000183276 	-0.253633
-0.00410857 	0.000241131 	0.00017979 	-0.255011
-0.00410857 	0.000241131 	0.00017979 	-0.255011
-0.00400397 	0.000215444 	0.00017431 	-0.256429
-0.00400397 	0.000215444 	0.00017431 	-0.256429
-0.0038975 	0.000201405 	0.000171058 	-0.258056
-0.0038975 	0.000201405 	0.000171058 	-0.258056
-0.00378912 	0.000192783 	0.000173924 	-0.259865
-0.00378912 	0.000192783 	0.000173924 	-0.259865
-0.00367879 	0.00017207 	0.000177975 	-0.261575
-0.00367879 	0.00017207 	0.000177975 	-0.261575
-0.00356649 	0.000133264 	0.00017832 	-0.263013
-0.00356649 	0.000133264 	0.00017832 	-0.263013
-0.00345217 	8.38251e-05 	0.000176836 	-0.264235
-0.00345217 	8.38251e-05 	0.000176836 	-0.264235
-0.0033358 	2.94048e-05 	0.000176961 	-0.26534
-0.0033358 	2.94048e-05 	0.000176961 	-0.26534
-0.00321735 	-2.77664e-05 	0.00017902 	-0.266385
-0.00321735 	-2.77664e-05 	0.00017902 	-0.266385
-0.00309677 	-8.67285e-05 	0.000181426 	-0.267385
-0.00309677 	-8.67285e-05 	0.000181426 	-0.267385
-0.00297403 	-0.000146862 	0.000184401 	-0.268344
-0.00297403 	-0.000146862 	0.000184401 	-0.268344
-0.00284909 	-0.000207301 	0.000188735 	-0.269264
-0.00284909 	-0.000207301 	0.000188735 	-0.269264
-0.0027219 	-0.00026725 	0.00019513 	-0.270152
-0.0027219 	-0.00026725 	0.00019513 	-0.270152
-0.00259244 	-0.000326175 	0.000203807 	-0.271012
-0.00259244 	-0.000326175 	0.000203807 	-0.271012
-0.00246065 	-0.000383653 	0.000214784 	-0.271841
-0.00246065 	-0.000383653 	0.000214784 	-0.271841
-0.00232651 	-0.000439159 	0.000228272 	-0.272632
-0.00232651 	-0.000439159 	0.000228272 	-0.272632
-0.00218995 	-0.000492129 	0.000243328 	-0.27338
-0.00218995 	-0.000492129 	0.000243328 	-0.27338
-0.00205095 	-0.000542087 	0.000259284 	-0.274082
-0.00205095 	-0.000542087 	0.000259284 	-0.274082
-0.00190946 	-0.00058881 	0.000277483 	-0.27474
-0.00190946 	-0.00058881 	0.000277483 	-0.27474
-0.00176543 	-0.00063247 	0.000298919 	-0.275366
-0.00176543 	-0.00063247 	0.000298919 	-0.275366
-0.00161881 	-0.00067338 	0.000321394 	-0.275976
-0.00161881 	-0.00067338 	0.000321394 	-0.275976
-0.00146957 	-0.000711483 	0.000342885 	-0.276576
-0.00146957 	-0.000711483 	0.000342885 	-0.276576
-0.00131765 	-0.000746016 	0.000364576 	-0.277149
-0.00131765 	-0.000746016 	0.000364576 	-0.277149
-0.001163 	-0.000775738 	0.000387286 	-0.277673
-0.001163 	-0.000775738 	0.000387286 	-0.277673
-0.00100559 	-0.000799449 	0.000410796 	-0.278134
-0.00100559 	-0.000799449 	0.000410796 	-0.278134
-0.000845345 	-0.000816131 	0.000433277 	-0.278527
-0.000845345 	-0.000816131 	0.000433277 	-0.278527
-0.000682232 	-0.000824686 	0.000456835 	-0.278851
-0.000682232 	-0.000824686 	0.000456835 	-0.278851
-0.000516194 	-0.000823773 	0.000483288 	-0.279109
-0.000516194 	-0.000823773 	0.000483288 	-0.279109
-0.000347178 	-0.000811905 	0.000508409 	-0.279304
-0.000347178 	-0.000811905 	0.000508409 	-0.279304
-0.000175132 	-0.000787199 	0.000540117 	-0.279426
-0.000175132 	-0.000787199 	0.000540117 	-0.279426
0 	-0.000747917 	0.000573711 	-0.279449
0 	-0.000747917 	0.000573711 	-0.279449
0 	-0.000747917 	0.000573711 	-0.279449
0 	-0.000747917 	0.000573711 	-0.279449
0.000175132 	-0.000693591 	0.00060141 	-0.279357
0.000175132 	-0.00827979 	0.00381678 	-0.306026
0.000347178 	-0.000624961 	0.000630464 	-0.279164
0.000347178 	-0.00814351 	0.00399521 	-0.305516
0.000516194 	-0.000543545 	0.000653096 	-0.278897
0.000516194 	-0.00799465 	0.0041522 	-0.305114
0.000682232 	-0.000451132 	0.000671022 	-0.278568
0.000682232 	-0.00783673 	0.00429082 	-0.304832
0.000845345 	-0.000349515 	0.000690885 	-0.278177
0.000845345 	-0.00767224 	0.00441682 	-0.30464
0.00100559 	-0.00024061 	0.000709412 	-0.277725
0.00100559 	-0.00750327 	0.00453038 	-0.30451
0.001163 	-0.000126358 	0.000726682 	-0.277212
0.001163 	-0.00733176 	0.0046311 	-0.304412
0.00131765 	-8.61378e-06 	0.000742586 	-0.276638
0.00131765 	-0.00715936 	0.0047184 	-0.304322
0.00146957 	0.000110922 	0.000756935 	-0.276002
0.00146957 	-0.00698897 	0.00479127 	-0.304208
0.00161881 	0.000230739 	0.000769737 	-0.275301
0.00161881 	-0.00682578 	0.00485322 	-0.304021
0.00176543 	0.00034951 	0.000781072 	-0.274533
0.00176543 	-0.00667253 	0.00490904 	-0.303734
0.00190946 	0.000466037 	0.000790901 	-0.273695
0.00190946 	-0.00652262 	0.0049577 	-0.303427
0.00205095 	0.000579257 	0.000798857 	-0.272785
0.00205095 	-0.0063614 	0.00499039 	-0.303251
0.00218995 	0.000688443 	0.000804355 	-0.271805
0.00218995 	-0.00618694 	0.00500103 	-0.303157
0.00232651 	0.000793237 	0.000807106 	-0.270758
0.00232651 	-0.00601677 	0.0049948 	-0.302896
0.00246065 	0.000893329 	0.000807473 	-0.269647
0.00246065 	-0.00586429 	0.00497645 	-0.302366
0.00259244 	0.000988271 	0.000806153 	-0.26847
0.00259244 	-0.00573125 	0.00494815 	-0.301625
0.0027219 	0.00107758 	0.000803589 	-0.267226
0.0027219 	-0.00561604 	0.00491415 	-0.300714
0.00284909 	0.00116092 	0.000799797 	-0.265915
0.00284909 	-0.00551602 	0.00487638 	-0.299666
0.00297403 	0.00123808 	0.000794591 	-0.264536
0.00297403 	-0.0054227 	0.0048374 	-0.298619
0.00309677 	0.00130911 	0.000788911 	-0.263093
0.00309677 	-0.00531644 	0.00478972 	-0.297792
0.00321735 	0.00137436 	0.000780233 	-0.261591
0.00321735 	-0.00518923 	0.00472121 	-0.29717
0.0033358 	0.00143392 	0.00076395 	-0.260022
0.0033358 	-0.0050618 	0.00463687 	-0.296419
0.00345217 	0.00148703 	0.000746306 	-0.258326
0.00345217 	-0.00495346 	0.00454385 	-0.295359
0.00356649 	0.00153492 	0.000736366 	-0.256411
0.00356649 	-0.00486572 	0.00444852 	-0.294088
0.00367879 	0.00158183 	0.000734585 	-0.254244
0.00367879 	-0.00479143 	0.00435526 	-0.292715
0.00378912 	-0.00472254 	0.00426162 	-0.291286
0.00378912 	0.00163029 	0.000727045 	-0.252042
0.0038975 	0.00167842 	0.00070362 	-0.250065
0.0038975 	-0.00465618 	0.00416903 	-0.289797
0.00400397 	0.00172203 	0.00067789 	-0.248281
0.00400397 	-0.00459221 	0.00407799 	-0.28823
0.00410857 	0.00175911 	0.000659769 	-0.246507
0.00410857 	-0.00453022 	0.00398587 	-0.286575
0.00421133 	0.00179067 	0.000646609 	-0.244645
0.00421133 	-0.00446904 	0.00388881 	-0.284819
0.00431227 	0.00181819 	0.000633618 	-0.242695
0.00431227 	-0.00440683 	0.00379054 	-0.282971
0.00441144 	0.0018427 	0.000617527 	-0.240692
0.00441144 	-0.00434485 	0.00369837 	-0.281102
0.00450886 	0.00186417 	0.000599563 	-0.238654
0.00450886 	-0.00428996 	0.00360478 	-0.279327
0.00460456 	0.0018825 	0.000579446 	-0.236576
0.00460456 	-0.00424716 	0.00349719 	-0.277589
0.00469858 	0.00189847 	0.000556021 	-0.234407
0.00469858 	-0.0042108 	0.00337136 	-0.275515
0.00479094 	0.00191337 	0.000533216 	-0.232094
0.00479094 	-0.00416514 	0.00325254 	-0.272776
0.00488168 	0.00192781 	0.000514802 	-0.229653
0.00488168 	-0.00409937 	0.00316374 	-0.269561
0.00497081 	0.00194092 	0.00049747 	-0.227169
0.00497081 	-0.00402228 	0.00308107 	-0.266432
0.00505838 	0.00195164 	0.000477298 	-0.224699
0.00505838 	-0.00395178 	0.00298041 	-0.26366
0.0051444 	0.00195967 	0.000453987 	-0.222226
0.0051444 	-0.00389746 	0.00285941 	-0.261089
0.00522891 	0.00196552 	0.000429988 	-0.219711
0.00522891 	-0.00385668 	0.00273455 	-0.258529
0.00531193 	-0.00382081 	0.00262164 	-0.255904
0.00531193 	0.00197007 	0.000407648 	-0.21713
0.00539348 	0.00197375 	0.000385856 	-0.214469
0.00539348 	-0.0037846 	0.00251182 	-0.253204
0.0054736 	0.00197661 	0.00036384 	-0.211724
0.0054736 	-0.00374737 	0.0024006 	-0.250432
0.00555231 	0.00197855 	0.000342092 	-0.208887
0.00555231 	-0.00370919 	0.00229156 	-0.247594
0.00562963 	0.00197943 	0.000320694 	-0.205951
0.00562963 	-0.00366949 	0.00218408 	-0.244699
0.00570559 	0.00197898 	0.000299556 	-0.202906
0.00570559 	-0.00362734 	0.00207743 	-0.241742
0.00578022 	0.00197698 	0.000278585 	-0.199738
0.00578022 	-0.00358197 	0.00197136 	-0.238695
0.00585352 	0.00197327 	0.000257812 	-0.196431
0.00585352 	-0.00353294 	0.0018664 	-0.235521
0.00592554 	0.00196772 	0.0002374 	-0.192965
0.00592554 	-0.00348 	0.00176315 	-0.232189
0.00599629 	0.00195999 	0.000217677 	-0.189319
0.00599629 	-0.00342281 	0.00166174 	-0.228681
0.00606579 	-0.00336081 	0.00156214 	-0.224983
0.00606579 	0.0019495 	0.000198867 	-0.18547
0.00613406 	0.00193565 	0.000181037 	-0.18139
0.00613406 	-0.00329321 	0.00146441 	-0.221087
0.00620114 	0.00191795 	0.000164156 	-0.177058
0.00620114 	-0.00321925 	0.00136868 	-0.216972
0.00626703 	0.00189595 	0.000148082 	-0.172456
0.00626703 	-0.0031383 	0.00127514 	-0.212613
0.00633176 	0.00186921 	0.00013282 	-0.16757
0.00633176 	-0.00304982 	0.001184 	-0.207971
0.00639535 	0.00183715 	0.000118572 	-0.162381
0.00639535 	-0.00295332 	0.00109544 	-0.203004
0.00645783 	0.00179913 	0.000105449 	-0.156865
0.00645783 	-0.00284835 	0.00100969 	-0.197667
0.0065192 	0.00175456 	9.34706e-05 	-0.151001
0.0065192 	-0.00273451 	0.000926873 	-0.191913
0.00657949 	0.00170295 	8.26458e-05 	-0.144765
0.00657949 	-0.00261151 	0.000846939 	-0.185689
0.00663871 	0.00164376 	7.29026e-05 	-0.138137
0.00663871 	-0.00247927 	0.000770085 	-0.178942
0.0066969 	0.00157634 	6.41874e-05 	-0.131094
0.0066969 	-0.00233816 	0.000696474 	-0.171615
0.00675406 	0.00150014 	5.64615e-05 	-0.12361
0.00675406 	-0.0021891 	0.000626115 	-0.163648
0.00681021 	0.00141498 	4.97244e-05 	-0.115672
0.00681021 	-0.00203337 	0.000559107 	-0.154985
0.00686537 	0.00132144 	4.38694e-05 	-0.107288
0.00686537 	-0.00187172 	0.000494926 	-0.145535
0.00691956 	0.00122087 	3.86544e-05 	-0.0984956
0.00691956 	-0.0017046 	0.000433487 	-0.135184
0.0069728 	0.00111519 	3.39825e-05 	-0.0893731
0.0069728 	-0.00153286 	0.000375472 	-0.123867
0.0070251 	0.00100668 	2.97191e-05 	-0.0800401
0.0070251 	-0.0013579 	0.000320941 	-0.111634
0.00707647 	0.000897587 	2.56787e-05 	-0.0706452
0.00707647 	-0.00118223 	0.000269827 	-0.098671
0.00712695 	0.00078964 	2.17287e-05 	-0.0613464
0.00712695 	-0.00100948 	0.000222148 	-0.0853021
0.00717653 	0.000683758 	1.77663e-05 	-0.0522847
0.00717653 	-0.000843926 	0.000177876 	-0.0719339
0.00722524 	0.000579891 	1.37567e-05 	-0.0435646
0.00722524 	-0.000690238 	0.000136916 	-0.0589667
0.00727309 	0.000476995 	9.79343e-06 	-0.0352498
0.00727309 	-0.000553599 	9.97337e-05 	-0.0467252
0.0073201 	0.000372887 	6.1167e-06 	-0.0273749
0.0073201 	-0.000440494 	6.77657e-05 	-0.0354601
0.00736628 	0.000263757 	2.53291e-06 	-0.0199703
0.00736628 	-0.000360381 	3.63969e-05 	-0.0254192
0.00741165 	0.000153901 	5.51066e-07 	-0.0130329
0.00741165 	-0.000294422 	1.77113e-05 	-0.0166192
0.00745622 	6.20675e-05 	-1.73423e-07 	-0.00644452
0.00745622 	-0.000183184 	5.97857e-06 	-0.00843066
0.0075 	0 	0 	0
0.0075 	0 	0 	0
