0 	0 	0 	0
0 	0 	0 	0
0.00752508 	-0.000740136 	0.000577678 	-0.279435
0.00752508 	-0.000740136 	0.000577678 	-0.279435
0.00757525 	-0.000724574 	0.000585612 	-0.279409
0.00762542 	-0.000709012 	0.000593547 	-0.279383
0.00762542 	-0.000709012 	0.000593547 	-0.279383
0.00767559 	-0.00069341 	0.000601486 	-0.279356
0.00772575 	-0.000673398 	0.000609958 	-0.2793
0.00777592 	-0.000653386 	0.00061843 	-0.279244
0.00782609 	-0.000633374 	0.000626902 	-0.279188
0.00782609 	-0.000633374 	0.000626902 	-0.279188
0.00787625 	-0.000610955 	0.000634357 	-0.279119
0.00792642 	-0.000586789 	0.000641075 	-0.279039
0.00797659 	-0.000562623 	0.000647793 	-0.27896
0.00802676 	-0.000537666 	0.000654236 	-0.278877
0.00802676 	-0.000537666 	0.000654236 	-0.278877
0.00807692 	-0.000509745 	0.000659653 	-0.278777
0.00812709 	-0.000481823 	0.000665069 	-0.278677
0.00812709 	-0.000481823 	0.000665069 	-0.278677
0.00817726 	-0.000453901 	0.000670485 	-0.278578
0.00822742 	-0.000422978 	0.000676526 	-0.278459
0.00822742 	-0.000422978 	0.000676526 	-0.278459
0.00827759 	-0.000391725 	0.000682635 	-0.278339
0.00832776 	-0.000360471 	0.000688744 	-0.278219
0.00832776 	-0.000360471 	0.000688744 	-0.278219
0.00837793 	-0.000327372 	0.000694652 	-0.278085
0.00842809 	-0.000293277 	0.000700452 	-0.277943
0.00842809 	-0.000293277 	0.000700452 	-0.277943
0.00847826 	-0.000259181 	0.000706252 	-0.277802
0.00847826 	-0.000259181 	0.000706252 	-0.277802
0.00852843 	-0.000224031 	0.000711918 	-0.277651
0.00852843 	-0.000224031 	0.000711918 	-0.277651
0.0085786 	-0.00018762 	0.000717421 	-0.277487
0.0085786 	-0.00018762 	0.000717421 	-0.277487
0.00862876 	-0.000151209 	0.000722925 	-0.277324
0.00867893 	-0.000114231 	0.00072832 	-0.277153
0.00867893 	-0.000114231 	0.00072832 	-0.277153
0.0087291 	-7.60346e-05 	0.000733479 	-0.276967
0.00877926 	-3.78379e-05 	0.000738638 	-0.276781
0.00877926 	-3.78379e-05 	0.000738638 	-0.276781
0.00882943 	6.58786e-07 	0.000743699 	-0.276589
0.0088796 	4.01321e-05 	0.000748437 	-0.276379
0.0088796 	4.01321e-05 	0.000748437 	-0.276379
0.00897993 	0.000119245 	0.000757824 	-0.275953
0.00897993 	0.000119245 	0.000757824 	-0.275953
0.0090301 	0.00015952 	0.000762128 	-0.275718
0.00908027 	0.000199796 	0.000766431 	-0.275482
0.00908027 	0.000199796 	0.000766431 	-0.275482
0.00913043 	0.000240156 	0.000770636 	-0.27524
0.0091806 	0.000280795 	0.000774514 	-0.274977
0.0091806 	0.000280795 	0.000774514 	-0.274977
0.00923077 	0.000321435 	0.000778393 	-0.274714
0.00928094 	0.000362059 	0.000782131 	-0.274443
0.00928094 	0.000362059 	0.000782131 	-0.274443
0.0093311 	0.000402646 	0.000785554 	-0.274151
0.00938127 	0.000443233 	0.000788978 	-0.273859
0.00938127 	0.000443233 	0.000788978 	-0.273859
0.00943144 	0.000483626 	0.000792137 	-0.273553
0.00943144 	0.000483626 	0.000792137 	-0.273553
0.00948161 	0.000523768 	0.000794958 	-0.273231
0.00948161 	0.000523768 	0.000794958 	-0.273231
0.00953177 	0.000563911 	0.000797779 	-0.272908
0.00953177 	0.000563911 	0.000797779 	-0.272908
0.00958194 	0.000603598 	0.000800083 	-0.272566
0.00958194 	0.000603598 	0.000800083 	-0.272566
0.00963211 	0.000643005 	0.000802067 	-0.272213
0.00963211 	0.000643005 	0.000802067 	-0.272213
0.00968227 	0.000682411 	0.000804052 	-0.271859
0.00968227 	0.000682411 	0.000804052 	-0.271859
0.00973244 	0.000721049 	0.000805211 	-0.271479
0.00978261 	0.000759548 	0.000806222 	-0.271095
0.00983278 	0.000797914 	0.000807124 	-0.270706
0.00988294 	0.000835346 	0.000807261 	-0.270291
0.00988294 	0.000835346 	0.000807261 	-0.270291
0.00993311 	0.000872777 	0.000807398 	-0.269875
0.00998328 	0.000909627 	0.000807246 	-0.269445
0.00998328 	0.000909627 	0.000807246 	-0.269445
0.0100334 	0.000945769 	0.000806744 	-0.268997
0.0100334 	0.000945769 	0.000806744 	-0.268997
0.0100836 	0.000981911 	0.000806242 	-0.268548
0.0101338 	0.00101679 	0.000805334 	-0.268072
0.0101338 	0.00101679 	0.000805334 	-0.268072
0.0102341 	0.00108558 	0.000803225 	-0.2671
0.0102341 	0.00108558 	0.000803225 	-0.2671
0.0102843 	0.00111846 	0.000801729 	-0.266583
0.0103344 	0.00115133 	0.000800233 	-0.266066
0.0103344 	0.00115133 	0.000800233 	-0.266066
0.0103846 	0.00118286 	0.000798317 	-0.265523
0.0103846 	0.00118286 	0.000798317 	-0.265523
0.0104348 	0.00121385 	0.000796226 	-0.264969
0.0104849 	0.00124441 	0.000794086 	-0.264408
0.0104849 	0.00124441 	0.000794086 	-0.264408
0.0105351 	0.00127344 	0.000791764 	-0.263818
0.0105853 	0.00130247 	0.000789443 	-0.263228
0.0105853 	0.00130247 	0.000789443 	-0.263228
0.0106355 	0.00133005 	0.000786127 	-0.262611
0.0106856 	0.00135719 	0.000782517 	-0.261986
0.0106856 	0.00135719 	0.000782517 	-0.261986
0.0107358 	0.00138363 	0.000777698 	-0.261347
0.0107358 	0.00138363 	0.000777698 	-0.261347
0.010786 	0.00140885 	0.000770802 	-0.260682
0.010786 	0.00140885 	0.000770802 	-0.260682
0.0108361 	0.00143406 	0.000763902 	-0.260017
0.0108361 	0.00143406 	0.000763902 	-0.260017
0.0108863 	0.00145696 	0.000756296 	-0.259286
0.0109365 	0.00147986 	0.000748689 	-0.258555
0.0109365 	0.00147986 	0.000748689 	-0.258555
0.0109866 	0.00150146 	0.000743311 	-0.257749
0.0109866 	0.00150146 	0.000743311 	-0.257749
0.0110368 	0.00152248 	0.000738948 	-0.256908
0.011087 	0.00154347 	0.000736041 	-0.256016
0.011087 	0.00154347 	0.000736041 	-0.256016
0.0111371 	0.00156443 	0.000735246 	-0.255048
0.0111873 	0.00158556 	0.000734004 	-0.254074
0.0111873 	0.00158556 	0.000734004 	-0.254074
0.0112375 	0.0016076 	0.000730576 	-0.253073
0.0112876 	0.00162963 	0.000727147 	-0.252072
0.0112876 	0.00162963 	0.000727147 	-0.252072
0.0113378 	0.00165191 	0.000716525 	-0.251154
0.011388 	0.00167419 	0.000705682 	-0.250239
0.011388 	0.00167419 	0.000705682 	-0.250239
0.0114883 	0.00171561 	0.000681679 	-0.248543
0.0114883 	0.00171561 	0.000681679 	-0.248543
0.0115385 	0.00173426 	0.000671915 	-0.247696
0.0115886 	0.00175204 	0.000663224 	-0.246845
0.0115886 	0.00175204 	0.000663224 	-0.246845
0.0116388 	0.00176839 	0.000655898 	-0.245959
0.011689 	0.0017838 	0.000649473 	-0.24505
0.011689 	0.0017838 	0.000649473 	-0.24505
0.0117391 	0.00179825 	0.000643031 	-0.244108
0.0117893 	0.00181193 	0.000636575 	-0.243139
0.0117893 	0.00181193 	0.000636575 	-0.243139
0.0118395 	0.00182491 	0.000629206 	-0.242146
0.0118896 	0.00183731 	0.000621065 	-0.241133
0.0118896 	0.00183731 	0.000621065 	-0.241133
0.0119398 	0.00184895 	0.000612297 	-0.240099
0.0119398 	0.00184895 	0.000612297 	-0.240099
0.01199 	0.00186001 	0.000603046 	-0.23905
0.01199 	0.00186001 	0.000603046 	-0.23905
0.0120401 	0.00187016 	0.000592989 	-0.237975
0.0120401 	0.00187016 	0.000592989 	-0.237975
0.0120903 	0.00187977 	0.000582444 	-0.236885
0.0120903 	0.00187977 	0.000582444 	-0.236885
0.0121405 	0.0018886 	0.0005705 	-0.235748
0.0121405 	0.0018886 	0.0005705 	-0.235748
0.0121906 	0.00189712 	0.000558 	-0.23459
0.0121906 	0.00189712 	0.000558 	-0.23459
0.0122408 	0.00190528 	0.000545595 	-0.23335
0.0122408 	0.00190528 	0.000545595 	-0.23335
0.012291 	0.00191337 	0.00053321 	-0.232094
0.012291 	0.00191337 	0.00053321 	-0.232094
0.0123411 	0.00192136 	0.000523029 	-0.230744
0.0123411 	0.00192136 	0.000523029 	-0.230744
0.0123913 	0.00192922 	0.00051293 	-0.229384
0.0123913 	0.00192922 	0.00051293 	-0.229384
0.0124415 	0.0019366 	0.000503175 	-0.227986
0.0124916 	0.00194347 	0.000492672 	-0.226581
0.0124916 	0.00194347 	0.000492672 	-0.226581
0.012592 	0.00195477 	0.000468194 	-0.223733
0.012592 	0.00195477 	0.000468194 	-0.223733
0.0126421 	0.00195945 	0.000454599 	-0.222291
0.0126923 	0.00196298 	0.000440382 	-0.2208
0.0126923 	0.00196298 	0.000440382 	-0.2208
0.0127425 	0.00196626 	0.000426337 	-0.219289
0.0127425 	0.00196626 	0.000426337 	-0.219289
0.0127926 	0.00196901 	0.000412837 	-0.217729
0.0128428 	0.00197146 	0.000399396 	-0.216122
0.0128428 	0.00197146 	0.000399396 	-0.216122
0.012893 	0.00197373 	0.000385992 	-0.214486
0.0129431 	0.00197552 	0.00037221 	-0.212768
0.0129431 	0.00197552 	0.00037221 	-0.212768
0.0129933 	0.00197709 	0.000358395 	-0.211014
0.0130435 	0.00197833 	0.000344533 	-0.209206
0.0130435 	0.00197833 	0.000344533 	-0.209206
0.0130936 	0.00197902 	0.000330654 	-0.207318
0.0131438 	0.00197934 	0.000316748 	-0.205383
0.0131438 	0.00197934 	0.000316748 	-0.205383
0.013194 	0.00197905 	0.000302788 	-0.203371
0.0132441 	0.00197795 	0.000288721 	-0.201269
0.0132441 	0.00197795 	0.000288721 	-0.201269
0.0132943 	0.00197627 	0.00027459 	-0.199102
0.0133445 	0.00197373 	0.000260374 	-0.196839
0.0133445 	0.00197373 	0.000260374 	-0.196839
0.0133946 	0.0019701 	0.000246156 	-0.194452
0.0134448 	0.00196562 	0.000232026 	-0.191972
0.0134448 	0.00196562 	0.000232026 	-0.191972
0.013495 	0.00196013 	0.00021804 	-0.189387
0.0135452 	0.00195262 	0.000204452 	-0.186613
0.0135452 	0.00195262 	0.000204452 	-0.186613
0.0136455 	0.00193264 	0.000178163 	-0.180652
0.0136455 	0.00193264 	0.000178163 	-0.180652
0.0136957 	0.0019194 	0.000165537 	-0.177412
0.0137458 	0.00190303 	0.000153256 	-0.173938
0.0137458 	0.00190303 	0.000153256 	-0.173938
0.013796 	0.00188399 	0.000141255 	-0.170271
0.0138462 	0.00186196 	0.000129596 	-0.166396
0.0138462 	0.00186196 	0.000129596 	-0.166396
0.0138963 	0.00183656 	0.000118369 	-0.162295
0.0138963 	0.00183656 	0.000118369 	-0.162295
0.0139465 	0.00180603 	0.00010783 	-0.157866
0.0139967 	0.00177093 	9.78699e-05 	-0.153155
0.0139967 	0.00177093 	9.78699e-05 	-0.153155
0.0140468 	0.00173091 	8.85102e-05 	-0.148143
0.0140468 	0.00173091 	8.85102e-05 	-0.148143
0.014097 	0.00168545 	7.97661e-05 	-0.142806
0.0141472 	0.00163397 	7.16377e-05 	-0.137115
0.0141973 	0.00157577 	6.41296e-05 	-0.131038
0.0141973 	0.00157577 	6.41296e-05 	-0.131038
0.0142475 	0.00150889 	5.73488e-05 	-0.12447
0.0142977 	0.00143401 	5.12301e-05 	-0.117446
0.0143478 	0.00135119 	4.57316e-05 	-0.109955
0.0143478 	0.00135119 	4.57316e-05 	-0.109955
0.014398 	0.0012609 	4.073e-05 	-0.101995
0.014398 	0.0012609 	4.073e-05 	-0.101995
0.0144482 	0.0011641 	3.61447e-05 	-0.093595
0.0144983 	0.00106222 	3.19014e-05 	-0.0848173
0.0144983 	0.00106222 	3.19014e-05 	-0.0848173
0.0145485 	0.000957 	2.7879e-05 	-0.0757617
0.0145987 	0.000850135 	2.39423e-05 	-0.0665576
0.0145987 	0.000850135 	2.39423e-05 	-0.0665576
0.0146488 	0.000742912 	1.998e-05 	-0.0573473
0.014699 	0.000635852 	1.5917e-05 	-0.0482628
0.014699 	0.000635852 	1.5917e-05 	-0.0482628
0.0147492 	0.000528449 	1.17753e-05 	-0.0394077
0.0147993 	0.000418886 	7.7412e-06 	-0.0308543
0.0147993 	0.000418886 	7.7412e-06 	-0.0308543
0.0148495 	0.000303419 	3.83538e-06 	-0.0226613
0.0148495 	0.000303419 	3.83538e-06 	-0.0226613
0.0148997 	0.000182919 	1.07456e-06 	-0.0148654
0.0148997 	0.000182919 	1.07456e-06 	-0.0148654
0.0149498 	7.52226e-05 	-6.96404e-08 	-0.0073883
0.0149498 	7.52226e-05 	-6.96404e-08 	-0.0073883
0.015 	0 	0 	0
