0 	0 	0 	0
5.01672e-05 	-2.20085e-05 	-4.47517e-06 	0.0203441
0.000100334 	-4.40171e-05 	-8.95035e-06 	0.0406882
0.000150502 	-6.60256e-05 	-1.34255e-05 	0.0610322
0.000200669 	-8.80342e-05 	-1.79007e-05 	0.0813763
0.000250836 	-0.000110043 	-2.23759e-05 	0.10172
0.000301003 	-0.000132051 	-2.6851e-05 	0.122064
0.000351171 	-0.000152046 	-3.20354e-05 	0.140301
0.000401338 	-0.000164424 	-3.99014e-05 	0.150565
0.000451505 	-0.000176802 	-4.77674e-05 	0.16083
0.000501672 	-0.00018918 	-5.56335e-05 	0.171095
0.000551839 	-0.000201557 	-6.34995e-05 	0.18136
0.000602007 	-0.000213935 	-7.13656e-05 	0.191625
0.000652174 	-0.000226313 	-7.92316e-05 	0.201889
0.000702341 	-0.000238691 	-8.70976e-05 	0.212154
0.000752508 	-0.000248321 	-9.51902e-05 	0.220989
0.000802676 	-0.000251138 	-0.000103844 	0.226277
0.000852843 	-0.000253956 	-0.000112499 	0.231566
0.00090301 	-0.000256773 	-0.000121153 	0.236855
0.000953177 	-0.00025959 	-0.000129807 	0.242143
0.00100334 	-0.000262407 	-0.000138461 	0.247432
0.00105351 	-0.000265224 	-0.000147115 	0.25272
0.00110368 	-0.000268041 	-0.00015577 	0.258009
0.00115385 	-0.000270858 	-0.000164424 	0.263298
0.00120401 	-0.000273477 	-0.000173036 	0.268481
0.00125418 	-0.000272029 	-0.0001808 	0.271496
0.00130435 	-0.00027058 	-0.000188563 	0.274512
0.00135452 	-0.000269132 	-0.000196326 	0.277528
0.00140468 	-0.000267683 	-0.000204089 	0.280544
0.00145485 	-0.000266235 	-0.000211852 	0.283559
0.00150502 	-0.000264786 	-0.000219615 	0.286575
0.00155518 	-0.000263338 	-0.000227379 	0.289591
0.00160535 	-0.000261889 	-0.000235142 	0.292607
0.00165552 	-0.000260441 	-0.000242905 	0.295622
0.00170569 	-0.000258992 	-0.000250668 	0.298638
0.00175585 	-0.00025729 	-0.000258029 	0.301365
0.00180602 	-0.000254891 	-0.000264284 	0.303296
0.00185619 	-0.000252491 	-0.000270539 	0.305228
0.00190635 	-0.000250092 	-0.000276794 	0.30716
0.00195652 	-0.000247692 	-0.000283049 	0.309092
0.00200669 	-0.000245292 	-0.000289304 	0.311024
0.00205686 	-0.000242893 	-0.000295559 	0.312955
0.00210702 	-0.000240493 	-0.000301814 	0.314887
0.00215719 	-0.000238094 	-0.000308069 	0.316819
0.00220736 	-0.000235694 	-0.000314324 	0.318751
0.00225753 	-0.000233294 	-0.000320579 	0.320682
0.00230769 	-0.000230895 	-0.000326834 	0.322614
0.00235786 	-0.000228495 	-0.000333089 	0.324546
0.00240803 	-0.000226334 	-0.000338185 	0.326045
0.00245819 	-0.000224279 	-0.000342765 	0.32735
0.00250836 	-0.000222225 	-0.000347344 	0.328656
0.00255853 	-0.00022017 	-0.000351924 	0.329961
0.0026087 	-0.000218115 	-0.000356503 	0.331266
0.00265886 	-0.000216061 	-0.000361083 	0.332572
0.00270903 	-0.000214006 	-0.000365663 	0.333877
0.0027592 	-0.000211951 	-0.000370242 	0.335183
0.00280936 	-0.000209897 	-0.000374822 	0.336488
0.00285953 	-0.000207842 	-0.000379401 	0.337794
0.0029097 	-0.000205787 	-0.000383981 	0.339099
0.00295987 	-0.000203733 	-0.00038856 	0.340405
0.00301003 	-0.000201678 	-0.00039314 	0.34171
0.0030602 	-0.000199623 	-0.000397719 	0.343016
0.00311037 	-0.000197583 	-0.000402268 	0.344312
0.00316054 	-0.000196145 	-0.000405507 	0.345189
0.0032107 	-0.000194707 	-0.000408745 	0.346066
0.00326087 	-0.000193269 	-0.000411983 	0.346942
0.00331104 	-0.000191831 	-0.000415221 	0.347819
0.0033612 	-0.000190393 	-0.000418459 	0.348696
0.00341137 	-0.000188955 	-0.000421697 	0.349573
0.00346154 	-0.000187517 	-0.000424936 	0.35045
0.00351171 	-0.000186079 	-0.000428174 	0.351327
0.00356187 	-0.000184641 	-0.000431412 	0.352204
0.00361204 	-0.000183203 	-0.00043465 	0.35308
0.00366221 	-0.000181765 	-0.000437888 	0.353957
0.00371237 	-0.000180327 	-0.000441126 	0.354834
0.00376254 	-0.000178889 	-0.000444365 	0.355711
0.00381271 	-0.000177451 	-0.000447603 	0.356588
0.00386288 	-0.000176013 	-0.000450841 	0.357465
0.00391304 	-0.000174575 	-0.000454079 	0.358342
0.00396321 	-0.000173137 	-0.000457317 	0.359219
0.00401338 	-0.000172101 	-0.000459712 	0.359797
0.00406355 	-0.000171104 	-0.000462024 	0.360347
0.00411371 	-0.000170108 	-0.000464336 	0.360897
0.00416388 	-0.000169112 	-0.000466648 	0.361447
0.00421405 	-0.000168115 	-0.000468961 	0.361996
0.00426421 	-0.000167119 	-0.000471273 	0.362546
0.00431438 	-0.000166122 	-0.000473585 	0.363096
0.00436455 	-0.000165126 	-0.000475897 	0.363646
0.00441472 	-0.00016413 	-0.000478209 	0.364195
0.00446488 	-0.000163133 	-0.000480521 	0.364745
0.00451505 	-0.000162137 	-0.000482833 	0.365295
0.00456522 	-0.000161141 	-0.000485145 	0.365845
0.00461538 	-0.000160144 	-0.000487458 	0.366394
0.00466555 	-0.000159148 	-0.00048977 	0.366944
0.00471572 	-0.000158151 	-0.000492082 	0.367494
0.00476589 	-0.000157155 	-0.000494394 	0.368043
0.00481605 	-0.000156159 	-0.000496706 	0.368593
0.00486622 	-0.000155162 	-0.000499018 	0.369143
0.00491639 	-0.000154166 	-0.00050133 	0.369693
0.00496656 	-0.00015317 	-0.000503642 	0.370242
0.00501672 	-0.000152379 	-0.000505236 	0.370543
0.00506689 	-0.0001516 	-0.000506791 	0.37083
0.00511706 	-0.000150821 	-0.000508347 	0.371117
0.00516722 	-0.000150041 	-0.000509902 	0.371404
0.00521739 	-0.000149262 	-0.000511457 	0.371691
0.00526756 	-0.000148483 	-0.000513012 	0.371978
0.00531773 	-0.000147704 	-0.000514567 	0.372265
0.00536789 	-0.000146924 	-0.000516123 	0.372552
0.00541806 	-0.000146145 	-0.000517678 	0.372839
0.00546823 	-0.000145366 	-0.000519233 	0.373126
0.00551839 	-0.000144587 	-0.000520788 	0.373413
0.00556856 	-0.000143807 	-0.000522343 	0.3737
0.00561873 	-0.000143028 	-0.000523899 	0.373987
0.0056689 	-0.000142249 	-0.000525454 	0.374274
0.00571906 	-0.000141469 	-0.000527009 	0.374561
0.00576923 	-0.00014069 	-0.000528564 	0.374848
0.0058194 	-0.000139911 	-0.00053012 	0.375135
0.00586957 	-0.000139132 	-0.000531675 	0.375422
0.00591973 	-0.000138352 	-0.00053323 	0.375709
0.0059699 	-0.000137573 	-0.000534785 	0.375996
0.00602007 	-0.000136794 	-0.00053634 	0.376283
0.00607023 	-0.000136015 	-0.000537896 	0.37657
0.0061204 	-0.000135235 	-0.000539451 	0.376858
0.00617057 	-0.000134553 	-0.000540491 	0.376998
0.00622074 	-0.00013392 	-0.000541269 	0.377065
0.0062709 	-0.000133288 	-0.000542047 	0.377132
0.00632107 	-0.000132655 	-0.000542826 	0.377199
0.00637124 	-0.000132022 	-0.000543604 	0.377265
0.0064214 	-0.000131389 	-0.000544382 	0.377332
0.00647157 	-0.000130756 	-0.000545161 	0.377399
0.00652174 	-0.000130124 	-0.000545939 	0.377465
0.00657191 	-0.000129491 	-0.000546717 	0.377532
0.00662207 	-0.000128858 	-0.000547496 	0.377599
0.00667224 	-0.000128225 	-0.000548274 	0.377665
0.00672241 	-0.000127592 	-0.000549053 	0.377732
0.00677258 	-0.00012696 	-0.000549831 	0.377799
0.00682274 	-0.000126327 	-0.000550609 	0.377866
0.00687291 	-0.000125694 	-0.000551388 	0.377932
0.00692308 	-0.000125061 	-0.000552166 	0.377999
0.00697324 	-0.000124428 	-0.000552944 	0.378066
0.00702341 	-0.000123796 	-0.000553723 	0.378132
0.00707358 	-0.000123163 	-0.000554501 	0.378199
0.00712375 	-0.00012253 	-0.000555279 	0.378266
0.00717391 	-0.000121897 	-0.000556058 	0.378333
0.00722408 	-0.000121265 	-0.000556836 	0.378399
0.00727425 	-0.000120632 	-0.000557614 	0.378466
0.00732441 	-0.000119999 	-0.000558393 	0.378533
0.00737458 	-0.000119366 	-0.000559171 	0.378599
0.00742475 	-0.000118733 	-0.000559949 	0.378666
0.00747492 	-0.000118101 	-0.000560728 	0.378733
0.00752508 	-0.000117525 	-0.000561121 	0.3787
0.00757525 	-0.000117007 	-0.000561129 	0.378569
0.00762542 	-0.00011649 	-0.000561136 	0.378437
0.00767559 	-0.000115972 	-0.000561144 	0.378306
0.00772575 	-0.000115454 	-0.000561152 	0.378174
0.00777592 	-0.000114936 	-0.000561159 	0.378043
0.00782609 	-0.000114418 	-0.000561167 	0.377911
0.00787625 	-0.000113901 	-0.000561175 	0.37778
0.00792642 	-0.000113383 	-0.000561182 	0.377648
0.00797659 	-0.000112865 	-0.00056119 	0.377517
0.00802676 	-0.000112347 	-0.000561198 	0.377385
0.00807692 	-0.00011183 	-0.000561206 	0.377254
0.00812709 	-0.000111312 	-0.000561213 	0.377122
0.00817726 	-0.000110794 	-0.000561221 	0.376991
0.00822742 	-0.000110276 	-0.000561229 	0.376859
0.00827759 	-0.000109758 	-0.000561236 	0.376728
0.00832776 	-0.000109241 	-0.000561244 	0.376596
0.00837793 	-0.000108723 	-0.000561252 	0.376465
0.00842809 	-0.000108205 	-0.000561259 	0.376333
0.00847826 	-0.000107687 	-0.000561267 	0.376202
0.00852843 	-0.000107169 	-0.000561275 	0.37607
0.0085786 	-0.000106652 	-0.000561282 	0.375938
0.00862876 	-0.000106134 	-0.00056129 	0.375807
0.00867893 	-0.000105616 	-0.000561298 	0.375675
0.0087291 	-0.000105098 	-0.000561306 	0.375544
0.00877926 	-0.00010458 	-0.000561313 	0.375412
0.00882943 	-0.000104063 	-0.000561321 	0.375281
0.0088796 	-0.000103599 	-0.000561011 	0.375069
0.00892977 	-0.000103241 	-0.000560077 	0.374697
0.00897993 	-0.000102883 	-0.000559142 	0.374326
0.0090301 	-0.000102525 	-0.000558207 	0.373954
0.00908027 	-0.000102167 	-0.000557272 	0.373583
0.00913043 	-0.000101809 	-0.000556337 	0.373211
0.0091806 	-0.000101451 	-0.000555402 	0.37284
0.00923077 	-0.000101093 	-0.000554467 	0.372468
0.00928094 	-0.000100735 	-0.000553533 	0.372097
0.0093311 	-0.000100377 	-0.000552598 	0.371725
0.00938127 	-0.000100019 	-0.000551663 	0.371354
0.00943144 	-9.96615e-05 	-0.000550728 	0.370982
0.00948161 	-9.93036e-05 	-0.000549793 	0.370611
0.00953177 	-9.89457e-05 	-0.000548858 	0.370239
0.00958194 	-9.85878e-05 	-0.000547923 	0.369868
0.00963211 	-9.82299e-05 	-0.000546989 	0.369496
0.00968227 	-9.7872e-05 	-0.000546054 	0.369125
0.00973244 	-9.7514e-05 	-0.000545119 	0.368753
0.00978261 	-9.71561e-05 	-0.000544184 	0.368382
0.00983278 	-9.67982e-05 	-0.000543249 	0.36801
0.00988294 	-9.64403e-05 	-0.000542314 	0.367639
0.00993311 	-9.60824e-05 	-0.000541379 	0.367267
0.00998328 	-9.57244e-05 	-0.000540444 	0.366896
0.0100334 	-9.53841e-05 	-0.000539454 	0.36651
0.0100836 	-9.53716e-05 	-0.000537417 	0.365855
0.0101338 	-9.53592e-05 	-0.00053538 	0.365199
0.0101839 	-9.53467e-05 	-0.000533343 	0.364544
0.0102341 	-9.53343e-05 	-0.000531307 	0.363889
0.0102843 	-9.53218e-05 	-0.00052927 	0.363234
0.0103344 	-9.53094e-05 	-0.000527233 	0.362579
0.0103846 	-9.52969e-05 	-0.000525196 	0.361924
0.0104348 	-9.52844e-05 	-0.00052316 	0.361268
0.0104849 	-9.5272e-05 	-0.000521123 	0.360613
0.0105351 	-9.52595e-05 	-0.000519086 	0.359958
0.0105853 	-9.52471e-05 	-0.000517049 	0.359303
0.0106355 	-9.52346e-05 	-0.000515013 	0.358648
0.0106856 	-9.52222e-05 	-0.000512976 	0.357993
0.0107358 	-9.52097e-05 	-0.000510939 	0.357337
0.010786 	-9.51973e-05 	-0.000508902 	0.356682
0.0108361 	-9.51848e-05 	-0.000506866 	0.356027
0.0108863 	-9.51723e-05 	-0.000504829 	0.355372
0.0109365 	-9.51599e-05 	-0.000502792 	0.354717
0.0109866 	-9.51474e-05 	-0.000500755 	0.354062
0.0110368 	-9.51903e-05 	-0.000498576 	0.353374
0.011087 	-9.57971e-05 	-0.000494947 	0.352351
0.0111371 	-9.6404e-05 	-0.000491318 	0.351329
0.0111873 	-9.70108e-05 	-0.000487688 	0.350306
0.0112375 	-9.76176e-05 	-0.000484059 	0.349284
0.0112876 	-9.82245e-05 	-0.00048043 	0.348261
0.0113378 	-9.88313e-05 	-0.0004768 	0.347239
0.011388 	-9.94381e-05 	-0.000473171 	0.346216
0.0114381 	-0.000100045 	-0.000469542 	0.345194
0.0114883 	-0.000100652 	-0.000465912 	0.344172
0.0115385 	-0.000101259 	-0.000462283 	0.343149
0.0115886 	-0.000101865 	-0.000458654 	0.342127
0.0116388 	-0.000102472 	-0.000455024 	0.341104
0.011689 	-0.000103079 	-0.000451395 	0.340082
0.0117391 	-0.000103686 	-0.000447766 	0.339059
0.0117893 	-0.000104293 	-0.000444136 	0.338037
0.0118395 	-0.0001049 	-0.000440507 	0.337014
0.0118896 	-0.000105507 	-0.000436878 	0.335992
0.0119398 	-0.000106989 	-0.000430762 	0.334432
0.01199 	-0.000108492 	-0.000424589 	0.33286
0.0120401 	-0.000109996 	-0.000418415 	0.331288
0.0120903 	-0.000111499 	-0.000412242 	0.329716
0.0121405 	-0.000113002 	-0.000406069 	0.328144
0.0121906 	-0.000114505 	-0.000399895 	0.326572
0.0122408 	-0.000116008 	-0.000393722 	0.325
0.012291 	-0.000117511 	-0.000387549 	0.323428
0.0123411 	-0.000119014 	-0.000381376 	0.321856
0.0123913 	-0.000120517 	-0.000375202 	0.320284
0.0124415 	-0.00012202 	-0.000369029 	0.318712
0.0124916 	-0.000123523 	-0.000362856 	0.31714
0.0125418 	-0.000125026 	-0.000356683 	0.315568
0.012592 	-0.000126529 	-0.000350509 	0.313996
0.0126421 	-0.000128284 	-0.000343374 	0.312139
0.0126923 	-0.000130604 	-0.000334082 	0.309646
0.0127425 	-0.000132924 	-0.00032479 	0.307152
0.0127926 	-0.000135243 	-0.000315497 	0.304659
0.0128428 	-0.000137563 	-0.000306205 	0.302165
0.012893 	-0.000139883 	-0.000296913 	0.299671
0.0129431 	-0.000142202 	-0.00028762 	0.297178
0.0129933 	-0.000144522 	-0.000278328 	0.294684
0.0130435 	-0.000146842 	-0.000269036 	0.292191
0.0130936 	-0.000149161 	-0.000259743 	0.289697
0.0131438 	-0.000151481 	-0.000250451 	0.287203
0.013194 	-0.0001538 	-0.000241159 	0.28471
0.0132441 	-0.00015612 	-0.000231866 	0.282216
0.0132943 	-0.000158134 	-0.000220985 	0.27851
0.0133445 	-0.000160037 	-0.000209525 	0.274362
0.0133946 	-0.000161941 	-0.000198066 	0.270214
0.0134448 	-0.000163844 	-0.000186607 	0.266067
0.013495 	-0.000165747 	-0.000175147 	0.261919
0.0135452 	-0.00016765 	-0.000163688 	0.257771
0.0135953 	-0.000169553 	-0.000152228 	0.253623
0.0136455 	-0.000171456 	-0.000140769 	0.249476
0.0136957 	-0.000173359 	-0.000129309 	0.245328
0.0137458 	-0.000175262 	-0.00011785 	0.24118
0.013796 	-0.000177166 	-0.000106391 	0.237033
0.0138462 	-0.00017515 	-9.65668e-05 	0.229594
0.0138963 	-0.000172943 	-8.68226e-05 	0.221995
0.0139465 	-0.000170737 	-7.70785e-05 	0.214397
0.0139967 	-0.000168531 	-6.73343e-05 	0.206798
0.0140468 	-0.000166324 	-5.75902e-05 	0.199199
0.014097 	-0.000164118 	-4.7846e-05 	0.1916
0.0141472 	-0.000161911 	-3.81019e-05 	0.184001
0.0141973 	-0.000159705 	-2.83577e-05 	0.176403
0.0142475 	-0.000157498 	-1.86136e-05 	0.168804
0.0142977 	-0.000150012 	-1.35235e-05 	0.158264
0.0143478 	-0.000140395 	-1.03104e-05 	0.146538
0.014398 	-0.000130779 	-7.09728e-06 	0.134813
0.0144482 	-0.000121163 	-3.88418e-06 	0.123087
0.0144983 	-0.000111547 	-6.71082e-07 	0.111361
0.0145485 	-0.000101931 	2.54202e-06 	0.0996353
0.0145987 	-9.23152e-05 	5.75512e-06 	0.0879096
0.0146488 	-8.26992e-05 	8.96822e-06 	0.0761838
0.014699 	-7.12912e-05 	8.5175e-06 	0.0651447
0.0147492 	-5.94093e-05 	7.09792e-06 	0.0542873
0.0147993 	-4.75275e-05 	5.67833e-06 	0.0434298
0.0148495 	-3.56456e-05 	4.25875e-06 	0.0325724
0.0148997 	-2.37637e-05 	2.83917e-06 	0.0217149
0.0149498 	-1.18819e-05 	1.41958e-06 	0.0108575
0.015 	0 	0 	0
