/*--------------------------------*- C++ -*----------------------------------*\
| =========                 |                                                 |
| \\      /  F ield         | OpenFOAM: The Open Source CFD Toolbox           |
|  \\    /   O peration     | Version:  v1912                                 |
|   \\  /    A nd           | Website:  www.openfoam.com                      |
|    \\/     M anipulation  |                                                 |
\*---------------------------------------------------------------------------*/
FoamFile
{
    version     2.0;
    format      ascii;
    class       volVectorField;
    location    "100";
    object      UMean;
}
// * * * * * * * * * * * * * * * * * * * * * * * * * * * * * * * * * * * * * //

dimensions      [0 1 -1 0 0 0 0];


internalField   nonuniform List<vector> 
10077
(
(-0.000967076 -0.000124276 0.27744)
(-0.000998962 -0.000126602 0.277412)
(-0.00104549 -0.000118055 0.277407)
(-0.0011086 -9.87518e-05 0.277424)
(-0.00191603 8.67172e-05 0.276512)
(-0.00195034 0.000102939 0.276497)
(-0.00193752 0.000113168 0.276459)
(-0.00187706 0.000117807 0.276396)
(-0.000747539 -7.81169e-05 0.273128)
(-0.000679185 -8.76978e-05 0.273077)
(-0.000638364 -0.000103149 0.273017)
(-0.000623465 -0.000125079 0.272946)
(-0.000462955 -0.000402074 0.275103)
(-0.000486568 -0.000422587 0.275082)
(-0.000495037 -0.000434684 0.275097)
(-0.000487971 -0.000438615 0.275152)
(-0.000983902 -0.000113002 0.277235)
(-0.00101573 -0.000115434 0.277206)
(-0.00106193 -0.000107192 0.277201)
(-0.00112445 -8.84005e-05 0.277218)
(-0.00190445 8.52531e-05 0.27622)
(-0.00193799 0.000100867 0.276204)
(-0.00192412 0.000110549 0.276162)
(-0.00186231 0.000114682 0.276093)
(-0.000718602 -8.66286e-05 0.272627)
(-0.000649091 -9.62808e-05 0.272572)
(-0.000607384 -0.000111559 0.272508)
(-0.000591837 -0.000133064 0.272433)
(-0.000443417 -0.000401642 0.274665)
(-0.000466629 -0.00042158 0.274644)
(-0.000475479 -0.000433342 0.27466)
(-0.000469647 -0.000437171 0.274715)
(-0.00100098 -0.000103224 0.276943)
(-0.00103266 -0.000105718 0.276914)
(-0.00107846 -9.77757e-05 0.276909)
(-0.00114029 -7.9526e-05 0.276925)
(-0.00189154 8.46447e-05 0.27587)
(-0.00192422 9.96072e-05 0.275851)
(-0.00190937 0.000108735 0.275806)
(-0.00184642 0.000112388 0.275731)
(-0.000690953 -9.45234e-05 0.272095)
(-0.000620531 -0.00010425 0.272036)
(-0.000578076 -0.000119325 0.271969)
(-0.000561914 -0.000140343 0.271891)
(-0.000424617 -0.000401324 0.274162)
(-0.000447405 -0.000420675 0.274141)
(-0.000456537 -0.000432081 0.274156)
(-0.000451757 -0.000435777 0.274212)
(-0.00101668 -9.31657e-05 0.276585)
(-0.00104822 -9.56987e-05 0.276557)
(-0.00109352 -8.80661e-05 0.276551)
(-0.0011545 -7.03987e-05 0.276566)
(-0.0018777 8.36192e-05 0.275455)
(-0.00190941 9.78982e-05 0.275434)
(-0.00189363 0.000106463 0.275384)
(-0.00182974 0.000109651 0.275304)
(-0.000664509 -0.000102988 0.271523)
(-0.000593433 -0.000112749 0.27146)
(-0.000550403 -0.000127598 0.27139)
(-0.000533722 -0.000148121 0.271309)
(-0.000406932 -0.000401231 0.273587)
(-0.000429312 -0.000420016 0.273566)
(-0.000438673 -0.000431088 0.273581)
(-0.000434813 -0.000434677 0.273637)
(-0.00103015 -8.24772e-05 0.276168)
(-0.0010615 -8.50599e-05 0.276139)
(-0.00110624 -7.77463e-05 0.276132)
(-0.00116626 -6.06708e-05 0.276147)
(-0.00186094 8.25031e-05 0.274975)
(-0.00189169 9.60832e-05 0.27495)
(-0.00187507 0.000104081 0.274897)
(-0.00181044 0.000106811 0.274812)
(-0.000638958 -0.000112123 0.270897)
(-0.000567476 -0.000121881 0.27083)
(-0.000524055 -0.000136493 0.270757)
(-0.000506981 -0.000156535 0.270674)
(-0.000391927 -0.000400025 0.272942)
(-0.000413928 -0.000418234 0.272921)
(-0.000423511 -0.000428961 0.272936)
(-0.000420522 -0.000432427 0.272992)
(-0.00104151 -7.36926e-05 0.275686)
(-0.00107263 -7.62882e-05 0.275657)
(-0.00111673 -6.92604e-05 0.275649)
(-0.00117568 -5.2745e-05 0.275662)
(-0.00184063 7.97907e-05 0.274428)
(-0.00187042 9.27272e-05 0.274401)
(-0.00185306 0.000100172 0.274343)
(-0.00178786 0.000102419 0.274254)
(-0.000614235 -0.000121305 0.270211)
(-0.00054256 -0.000131079 0.27014)
(-0.000498907 -0.000145454 0.270064)
(-0.000481556 -0.000164998 0.269979)
(-0.000379655 -0.000397351 0.272235)
(-0.000401305 -0.000414944 0.272214)
(-0.000411113 -0.000425276 0.272229)
(-0.000408975 -0.000428554 0.272284)
(-0.0010521 -6.46489e-05 0.275141)
(-0.00108294 -6.72789e-05 0.275111)
(-0.00112631 -6.05372e-05 0.275103)
(-0.0011841 -4.45619e-05 0.275115)
(-0.00181829 7.61309e-05 0.273811)
(-0.00184707 8.84662e-05 0.273781)
(-0.00182899 9.53721e-05 0.27372)
(-0.00176335 9.7121e-05 0.273626)
(-0.000589938 -0.000130035 0.269467)
(-0.00051823 -0.000139838 0.269394)
(-0.000474474 -0.00015398 0.269315)
(-0.000456944 -0.00017302 0.269228)
(-0.000368553 -0.00039343 0.27147)
(-0.000389886 -0.000410398 0.271449)
(-0.000399917 -0.000420308 0.271464)
(-0.000398588 -0.000423356 0.271517)
(-0.00106296 -5.41003e-05 0.27453)
(-0.00109349 -5.67915e-05 0.2745)
(-0.00113607 -5.03597e-05 0.274491)
(-0.00119253 -3.49473e-05 0.274502)
(-0.00179496 7.46305e-05 0.273126)
(-0.00182259 8.63058e-05 0.273094)
(-0.00180375 9.26665e-05 0.27303)
(-0.0017377 9.39633e-05 0.272932)
(-0.000565771 -0.00013699 0.268683)
(-0.00049415 -0.000146806 0.268607)
(-0.000450388 -0.000160701 0.268526)
(-0.000432759 -0.000179222 0.268437)
(-0.000358923 -0.00039179 0.27066)
(-0.000379983 -0.000408169 0.270639)
(-0.000390265 -0.000417738 0.270654)
(-0.000389761 -0.000420684 0.270706)
(-0.00107301 -4.37376e-05 0.273849)
(-0.00110324 -4.64501e-05 0.273818)
(-0.00114495 -4.03328e-05 0.273809)
(-0.00119998 -2.55297e-05 0.273818)
(-0.00176989 7.39777e-05 0.272371)
(-0.00179624 8.49568e-05 0.272338)
(-0.00177658 9.07718e-05 0.272271)
(-0.00171015 9.16521e-05 0.27217)
(-0.000541962 -0.000143132 0.267858)
(-0.000470536 -0.000152949 0.26778)
(-0.000426851 -0.000166599 0.267697)
(-0.000409184 -0.000184622 0.267608)
(-0.000352218 -0.000390886 0.269812)
(-0.000373041 -0.000406706 0.269792)
(-0.000383631 -0.000415975 0.269807)
(-0.000384031 -0.000418876 0.269858)
(-0.00108027 -3.5627e-05 0.273079)
(-0.00111017 -3.82866e-05 0.273049)
(-0.00115099 -3.24558e-05 0.273039)
(-0.00120451 -1.8276e-05 0.273048)
(-0.00174046 7.14835e-05 0.271556)
(-0.00176559 8.17969e-05 0.271522)
(-0.00174521 8.70727e-05 0.271453)
(-0.00167851 8.75191e-05 0.271348)
(-0.000518682 -0.000148797 0.266981)
(-0.000447609 -0.000158617 0.2669)
(-0.00040412 -0.000172027 0.266817)
(-0.000386501 -0.000189556 0.266726)
(-0.000348222 -0.000387618 0.268923)
(-0.000368825 -0.000402904 0.268904)
(-0.000379737 -0.000411828 0.268919)
(-0.000381056 -0.000414564 0.268968)
(-0.00108425 -2.61366e-05 0.272231)
(-0.00111378 -2.88339e-05 0.272202)
(-0.00115367 -2.3322e-05 0.272192)
(-0.00120568 -9.74526e-06 0.272201)
(-0.00170567 7.06379e-05 0.270689)
(-0.00172973 8.02912e-05 0.270654)
(-0.00170878 8.50563e-05 0.270583)
(-0.00164198 8.51213e-05 0.270475)
(-0.000496568 -0.000155871 0.266047)
(-0.000426033 -0.000165624 0.265966)
(-0.000382902 -0.000178777 0.265881)
(-0.000365474 -0.000195848 0.26579)
(-0.00034892 -0.00038408 0.267996)
(-0.000369349 -0.000398843 0.267979)
(-0.000380632 -0.000407423 0.267993)
(-0.000382921 -0.000409983 0.268042)
(-0.001087 -1.68799e-05 0.271322)
(-0.00111609 -1.96218e-05 0.271295)
(-0.00115501 -1.4411e-05 0.271286)
(-0.00120553 -1.39514e-06 0.271295)
(-0.00166691 6.94809e-05 0.269787)
(-0.00168997 7.85274e-05 0.269751)
(-0.00166852 8.28283e-05 0.269679)
(-0.0016017 8.25533e-05 0.269567)
(-0.000476762 -0.0001616 0.265068)
(-0.000406888 -0.000171285 0.264985)
(-0.00036426 -0.000184176 0.2649)
(-0.000347194 -0.000200782 0.264809)
(-0.000354998 -0.000380337 0.267019)
(-0.000375349 -0.000394589 0.267004)
(-0.000387085 -0.00040285 0.267019)
(-0.000390419 -0.000405277 0.267066)
(-0.00108976 -8.25842e-06 0.270376)
(-0.00111834 -1.10146e-05 0.270349)
(-0.00115628 -6.07105e-06 0.270341)
(-0.00120527 6.42321e-06 0.27035)
(-0.00162752 6.7639e-05 0.26884)
(-0.00164953 7.61308e-05 0.268803)
(-0.00162758 7.99933e-05 0.268729)
(-0.0015608 7.93787e-05 0.268615)
(-0.000458207 -0.000165369 0.264041)
(-0.000389103 -0.000175005 0.263957)
(-0.000347105 -0.000187627 0.263871)
(-0.000330555 -0.000203731 0.26378)
(-0.000365658 -0.000376057 0.26599)
(-0.000386056 -0.000389776 0.265977)
(-0.000398324 -0.000397742 0.265992)
(-0.000402742 -0.000400104 0.266038)
(-0.00109163 -1.47072e-06 0.269376)
(-0.00111971 -4.15673e-06 0.269349)
(-0.00115663 5.7193e-07 0.269341)
(-0.00120409 1.257e-05 0.26935)
(-0.00158878 6.61988e-05 0.267838)
(-0.0016097 7.41601e-05 0.2678)
(-0.00158726 7.75911e-05 0.267724)
(-0.00152059 7.6627e-05 0.267607)
(-0.000439957 -0.000167858 0.262969)
(-0.000371741 -0.00017745 0.262883)
(-0.000330497 -0.000189785 0.262796)
(-0.000314599 -0.000205351 0.262705)
(-0.000379343 -0.00037147 0.26491)
(-0.000399896 -0.000384618 0.264898)
(-0.000412742 -0.000392282 0.264914)
(-0.000418224 -0.000394612 0.264958)
(-0.00109251 3.86187e-06 0.268313)
(-0.00112006 1.3099e-06 0.268288)
(-0.00115593 5.8511e-06 0.26828)
(-0.00120179 1.73475e-05 0.268288)
(-0.0015494 6.47123e-05 0.266786)
(-0.0015692 7.21631e-05 0.266746)
(-0.0015463 7.51724e-05 0.266668)
(-0.00147982 7.38589e-05 0.266549)
(-0.000421315 -0.000170676 0.261851)
(-0.000354107 -0.000180183 0.261763)
(-0.000313727 -0.000192219 0.261675)
(-0.000298581 -0.000207261 0.261584)
(-0.000394629 -0.000365758 0.263782)
(-0.00041542 -0.000378333 0.263772)
(-0.00042886 -0.000385678 0.263787)
(-0.000435349 -0.000387938 0.26383)
(-0.00109149 1.11969e-05 0.267206)
(-0.0011185 8.69609e-06 0.267182)
(-0.0011533 1.30087e-05 0.267174)
(-0.00119752 2.39994e-05 0.267181)
(-0.00150911 6.41562e-05 0.26568)
(-0.00152777 7.10875e-05 0.265639)
(-0.00150445 7.36872e-05 0.26556)
(-0.00143823 7.20579e-05 0.265439)
(-0.000402176 -0.0001732 0.260686)
(-0.00033607 -0.0001826 0.260597)
(-0.00029665 -0.000194337 0.260508)
(-0.00028236 -0.000208873 0.260416)
(-0.00040983 -0.000358366 0.2626)
(-0.000430958 -0.000370398 0.262591)
(-0.000445005 -0.000377406 0.262606)
(-0.000452426 -0.000379528 0.262648)
(-0.00108903 1.86468e-05 0.266045)
(-0.00111547 1.61856e-05 0.266022)
(-0.00114918 2.02729e-05 0.266014)
(-0.00119174 3.07748e-05 0.266021)
(-0.00146704 6.43838e-05 0.264528)
(-0.00148454 7.07842e-05 0.264487)
(-0.00146079 7.29931e-05 0.264406)
(-0.00139485 7.10977e-05 0.264283)
(-0.000382334 -0.000173707 0.259474)
(-0.000317389 -0.000183015 0.259383)
(-0.00027903 -0.000194453 0.259294)
(-0.000265742 -0.000208474 0.259202)
(-0.00042549 -0.000350628 0.261366)
(-0.000447099 -0.000362135 0.261357)
(-0.000461813 -0.000368831 0.261372)
(-0.000470141 -0.000370846 0.261414)
(-0.00108598 2.64952e-05 0.264829)
(-0.0011118 2.40482e-05 0.264807)
(-0.00114439 2.79033e-05 0.2648)
(-0.00118531 3.79272e-05 0.264806)
(-0.00142332 6.44997e-05 0.263328)
(-0.00143965 7.04106e-05 0.263285)
(-0.00141545 7.22716e-05 0.263203)
(-0.00134975 7.0156e-05 0.263079)
(-0.00036126 -0.000173646 0.258213)
(-0.000297491 -0.000182824 0.258121)
(-0.000260287 -0.000193952 0.258031)
(-0.000248182 -0.00020747 0.257938)
(-0.000440856 -0.000342324 0.260077)
(-0.000463135 -0.000353339 0.260069)
(-0.000478588 -0.000359757 0.260084)
(-0.000487776 -0.000361702 0.260124)
(-0.00108286 3.24675e-05 0.263556)
(-0.00110797 3.00871e-05 0.263534)
(-0.00113944 3.37365e-05 0.263527)
(-0.00117875 4.32858e-05 0.263534)
(-0.00137816 6.46066e-05 0.262073)
(-0.00139328 7.00816e-05 0.26203)
(-0.00136855 7.16463e-05 0.261947)
(-0.00130299 6.93625e-05 0.261821)
(-0.000339098 -0.000173227 0.256909)
(-0.000276526 -0.000182214 0.256815)
(-0.000240566 -0.00019301 0.256723)
(-0.000229803 -0.000206039 0.256629)
(-0.000456989 -0.000334105 0.258741)
(-0.000480178 -0.000344677 0.258733)
(-0.000496509 -0.000350858 0.258748)
(-0.000506594 -0.00035277 0.258787)
(-0.00107701 3.78234e-05 0.262231)
(-0.00110144 3.55175e-05 0.26221)
(-0.00113179 3.89744e-05 0.262203)
(-0.00116953 4.80682e-05 0.262211)
(-0.00133164 6.45433e-05 0.260763)
(-0.00134558 6.96166e-05 0.260719)
(-0.00132036 7.09111e-05 0.260636)
(-0.00125498 6.84778e-05 0.260508)
(-0.000316039 -0.000171708 0.255558)
(-0.000254732 -0.000180509 0.255462)
(-0.000220094 -0.000190983 0.255369)
(-0.000210759 -0.000203544 0.255274)
(-0.000475604 -0.000326946 0.257348)
(-0.000499784 -0.000337089 0.257339)
(-0.000517049 -0.00034306 0.257353)
(-0.000528067 -0.000344979 0.257393)
(-0.00106752 4.29128e-05 0.260865)
(-0.00109132 4.06988e-05 0.260844)
(-0.00112061 4.39867e-05 0.260837)
(-0.00115679 5.26555e-05 0.260845)
(-0.00128416 6.43017e-05 0.259396)
(-0.00129706 6.89828e-05 0.259352)
(-0.0012715 6.99993e-05 0.259267)
(-0.00120647 6.73913e-05 0.259138)
(-0.000293537 -0.000169451 0.254149)
(-0.000233607 -0.000178106 0.254052)
(-0.000200356 -0.000188283 0.253957)
(-0.000192472 -0.000200383 0.253861)
(-0.00049716 -0.000319246 0.255897)
(-0.000522263 -0.000328936 0.255889)
(-0.00054041 -0.000334671 0.255903)
(-0.00055232 -0.000336571 0.255941)
(-0.00105545 4.82537e-05 0.259453)
(-0.00107866 4.61473e-05 0.259431)
(-0.00110692 4.92928e-05 0.259424)
(-0.00114164 5.7575e-05 0.259431)
(-0.0012358 6.50262e-05 0.257972)
(-0.00124777 6.93261e-05 0.257927)
(-0.00122198 7.00686e-05 0.257842)
(-0.0011574 6.72833e-05 0.257712)
(-0.000272484 -0.000166709 0.252681)
(-0.000213999 -0.00017524 0.252582)
(-0.000182165 -0.000185141 0.252486)
(-0.000175723 -0.000196801 0.25239)
(-0.00051893 -0.000309316 0.254392)
(-0.000544949 -0.000318563 0.254383)
(-0.000563925 -0.000324038 0.254396)
(-0.000576625 -0.000325857 0.254434)
(-0.00104177 5.34646e-05 0.257993)
(-0.00106439 5.14832e-05 0.25797)
(-0.00109169 5.45006e-05 0.257963)
(-0.00112502 6.24086e-05 0.25797)
(-0.00118808 6.61899e-05 0.256491)
(-0.00119921 7.01537e-05 0.256446)
(-0.00117325 7.06572e-05 0.256359)
(-0.00110918 6.77204e-05 0.256228)
(-0.000251908 -0.000163139 0.251156)
(-0.000194891 -0.000171513 0.251056)
(-0.000164476 -0.000181133 0.250959)
(-0.000159463 -0.000192379 0.250861)
(-0.000541521 -0.000299952 0.252833)
(-0.000568461 -0.000308796 0.252823)
(-0.000588258 -0.000314069 0.252837)
(-0.000601728 -0.000315885 0.252875)
(-0.00102876 5.81419e-05 0.256481)
(-0.00105074 5.62941e-05 0.256457)
(-0.00107706 5.91925e-05 0.256449)
(-0.00110903 6.67365e-05 0.256456)
(-0.00114208 6.7958e-05 0.254956)
(-0.00115234 7.16196e-05 0.25491)
(-0.00112623 7.19303e-05 0.254823)
(-0.00106272 6.89022e-05 0.25469)
(-0.00023111 -0.000158392 0.249572)
(-0.000175578 -0.000166576 0.249469)
(-0.000146586 -0.000175898 0.249371)
(-0.000142992 -0.000186727 0.249271)
(-0.000563539 -0.00028972 0.251211)
(-0.0005914 -0.000298205 0.251201)
(-0.000612004 -0.000303291 0.251214)
(-0.00062621 -0.000305094 0.251252)
(-0.00101832 6.32386e-05 0.254908)
(-0.00103955 6.14806e-05 0.254883)
(-0.00106483 6.42438e-05 0.254875)
(-0.00109543 7.14326e-05 0.254882)
(-0.00109692 6.95028e-05 0.253365)
(-0.00110628 7.28821e-05 0.253318)
(-0.00108001 7.30269e-05 0.253229)
(-0.00101706 6.99431e-05 0.253094)
(-0.000210416 -0.000153462 0.247925)
(-0.000156383 -0.000161439 0.247821)
(-0.000128833 -0.000170465 0.247721)
(-0.000126681 -0.000180896 0.24762)
(-0.000586214 -0.000280125 0.249537)
(-0.000615025 -0.000288281 0.249527)
(-0.000636446 -0.000293214 0.24954)
(-0.00065138 -0.000295041 0.249578)
(-0.00101034 6.86599e-05 0.253265)
(-0.00103076 6.69843e-05 0.25324)
(-0.00105494 6.96116e-05 0.253231)
(-0.0010841 7.64507e-05 0.253238)
(-0.00105248 7.17687e-05 0.251715)
(-0.00106089 7.4858e-05 0.251667)
(-0.00103442 7.48352e-05 0.251576)
(-0.000972019 7.16993e-05 0.25144)
(-0.000189971 -0.000147835 0.246225)
(-0.000137465 -0.000155617 0.246119)
(-0.00011141 -0.000164365 0.246017)
(-0.000110779 -0.000174425 0.245916)
(-0.000608609 -0.000269939 0.247806)
(-0.000638443 -0.000277771 0.247796)
(-0.000660689 -0.000282544 0.24781)
(-0.000676288 -0.000284374 0.247848)
(-0.00100195 7.39365e-05 0.251558)
(-0.00102158 7.23777e-05 0.251532)
(-0.00104466 7.48963e-05 0.251523)
(-0.00107239 8.14077e-05 0.251529)
(-0.00100837 7.42226e-05 0.250004)
(-0.00101578 7.70419e-05 0.249955)
(-0.000989069 7.68538e-05 0.249863)
(-0.00092718 7.36509e-05 0.249725)
(-0.000170166 -0.000141138 0.244468)
(-0.00011921 -0.000148734 0.24436)
(-9.47154e-05 -0.000157211 0.244258)
(-9.57176e-05 -0.000166904 0.244156)
(-0.00063054 -0.000258557 0.246008)
(-0.000661505 -0.000266058 0.245999)
(-0.000684601 -0.000270661 0.246012)
(-0.000700804 -0.000272479 0.24605)
(-0.000991749 7.80821e-05 0.249788)
(-0.00101064 7.66943e-05 0.249762)
(-0.00103269 7.91501e-05 0.249752)
(-0.00105903 8.53745e-05 0.249757)
(-0.000965348 7.69179e-05 0.248231)
(-0.000971803 7.95275e-05 0.24818)
(-0.000944882 7.92103e-05 0.248086)
(-0.000883521 7.59537e-05 0.247947)
(-0.000151317 -0.000133473 0.242649)
(-0.000101912 -0.00014088 0.242539)
(-7.90163e-05 -0.000149084 0.242436)
(-8.17255e-05 -0.000158411 0.242335)
(-0.000655885 -0.00024648 0.244151)
(-0.000688063 -0.00025365 0.244143)
(-0.000712081 -0.000258097 0.244156)
(-0.000728956 -0.000259935 0.244195)
(-0.000980457 8.20722e-05 0.247957)
(-0.000998622 8.08646e-05 0.247929)
(-0.00101968 8.32805e-05 0.247919)
(-0.00104473 8.92554e-05 0.247924)
(-0.00092417 8.09216e-05 0.246387)
(-0.000929726 8.33524e-05 0.246334)
(-0.000902648 8.29452e-05 0.246239)
(-0.00084187 7.96837e-05 0.246098)
(-0.000133641 -0.000125168 0.240763)
(-8.58076e-05 -0.000132371 0.240651)
(-6.45346e-05 -0.000140305 0.240547)
(-6.89824e-05 -0.000149282 0.240446)
(-0.000683167 -0.000234096 0.242241)
(-0.000716611 -0.000240967 0.242233)
(-0.000741566 -0.00024528 0.242247)
(-0.000759091 -0.000247153 0.242286)
(-0.000968885 8.63869e-05 0.246055)
(-0.000986342 8.53307e-05 0.246027)
(-0.00100644 8.76928e-05 0.246015)
(-0.00103022 9.34171e-05 0.24602)
(-0.000884548 8.54177e-05 0.244474)
(-0.000889233 8.76784e-05 0.244419)
(-0.000862045 8.71998e-05 0.244323)
(-0.00080191 8.39632e-05 0.24418)
(-0.000117253 -0.000116322 0.238806)
(-7.10286e-05 -0.000123314 0.238692)
(-5.13913e-05 -0.00013098 0.238587)
(-5.75663e-05 -0.000139624 0.238487)
(-0.00070999 -0.000222287 0.240265)
(-0.000744689 -0.000228895 0.240258)
(-0.000770531 -0.000233105 0.240273)
(-0.000788606 -0.000235036 0.240313)
(-0.000956129 9.16081e-05 0.244077)
(-0.000972937 9.0668e-05 0.244047)
(-0.000992096 9.29463e-05 0.244035)
(-0.00101461 9.83936e-05 0.24404)
(-0.000845904 8.89534e-05 0.242487)
(-0.000849743 9.10307e-05 0.242432)
(-0.000822491 9.04646e-05 0.242334)
(-0.000763073 8.72328e-05 0.24219)
(-0.000101966 -0.000107308 0.236779)
(-5.73945e-05 -0.000114086 0.236663)
(-3.93823e-05 -0.000121499 0.236557)
(-4.72186e-05 -0.000129837 0.236457)
(-0.000735861 -0.000210582 0.238222)
(-0.000771708 -0.000216942 0.238215)
(-0.000798344 -0.000221047 0.238232)
(-0.000816888 -0.000223019 0.238273)
(-0.000942428 9.65645e-05 0.242026)
(-0.000958639 9.57669e-05 0.241995)
(-0.000976872 9.7967e-05 0.241982)
(-0.000998096 0.000103123 0.241987)
(-0.000807791 9.20216e-05 0.240422)
(-0.000810825 9.39233e-05 0.240366)
(-0.000783555 9.32785e-05 0.240266)
(-0.000724904 9.00617e-05 0.24012)
(-8.7087e-05 -9.79007e-05 0.234677)
(-4.41874e-05 -0.000104457 0.234558)
(-2.77442e-05 -0.000111611 0.234451)
(-3.71087e-05 -0.000119645 0.234352)
(-0.000759461 -0.000198274 0.236104)
(-0.000796292 -0.000204391 0.236099)
(-0.000823606 -0.000208397 0.236116)
(-0.000842547 -0.000210414 0.236159)
(-0.000928423 0.000101362 0.239902)
(-0.000944069 0.000100716 0.23987)
(-0.000961398 0.000102856 0.239857)
(-0.000981343 0.000107749 0.239862)
(-0.000769688 9.57797e-05 0.238276)
(-0.00077198 9.75376e-05 0.238218)
(-0.000744724 9.68364e-05 0.238117)
(-0.000686847 9.36484e-05 0.237969)
(-7.15705e-05 -8.82154e-05 0.232496)
(-3.03105e-05 -9.45339e-05 0.232374)
(-1.53394e-05 -0.000101416 0.232266)
(-2.60666e-05 -0.000109132 0.232168)
(-0.000780965 -0.000184221 0.233914)
(-0.000818646 -0.0001901 0.23391)
(-0.00084656 -0.000193993 0.233929)
(-0.000865871 -0.000196022 0.233973)
(-0.000914928 0.000105859 0.237705)
(-0.000930022 0.000105362 0.237671)
(-0.000946481 0.000107462 0.237657)
(-0.000965207 0.000112136 0.237662)
(-0.000732795 0.000100505 0.236058)
(-0.000734375 0.000102134 0.235999)
(-0.000707145 0.000101383 0.235896)
(-0.00065003 9.82204e-05 0.235745)
(-5.49618e-05 -7.84333e-05 0.230232)
(-1.52697e-05 -8.45121e-05 0.230107)
(-1.68779e-06 -9.11244e-05 0.229998)
(-1.36803e-05 -9.8531e-05 0.229901)
(-0.000801325 -0.000170304 0.231647)
(-0.000839799 -0.000175924 0.231644)
(-0.000868285 -0.000179697 0.231665)
(-0.000887973 -0.000181748 0.231711)
(-0.000902618 0.000109942 0.235425)
(-0.000917144 0.000109589 0.235389)
(-0.000932761 0.00011167 0.235375)
(-0.000950336 0.000116168 0.23538)
(-0.00069721 0.000105186 0.233766)
(-0.000698073 0.000106723 0.233705)
(-0.000670822 0.000105941 0.2336)
(-0.000614381 0.000102808 0.233448)
(-3.68254e-05 -6.79299e-05 0.227884)
(1.39716e-06 -7.3793e-05 0.227757)
(1.36412e-05 -8.01607e-05 0.227647)
(3.89715e-07 -8.72841e-05 0.22755)
(-0.000820145 -0.000157631 0.229296)
(-0.000859458 -0.000162994 0.229295)
(-0.000888544 -0.000166673 0.229317)
(-0.000908614 -0.000168797 0.229366)
(-0.000890348 0.00011417 0.233057)
(-0.000904329 0.000113964 0.233019)
(-0.000919143 0.000116034 0.233004)
(-0.000935623 0.000120373 0.233009)
(-0.000663086 0.000110007 0.231389)
(-0.000663183 0.000111489 0.231327)
(-0.000635823 0.00011071 0.23122)
(-0.000579924 0.00010764 0.231066)
(-1.70994e-05 -5.6773e-05 0.225457)
(1.97562e-05 -6.24322e-05 0.225327)
(3.07028e-05 -6.85683e-05 0.225216)
(1.61723e-05 -7.54233e-05 0.225119)
(-0.000836085 -0.000144732 0.226864)
(-0.000876349 -0.000149886 0.226864)
(-0.000906082 -0.000153502 0.226888)
(-0.000926518 -0.000155712 0.226939)
(-0.000877615 0.000118364 0.230593)
(-0.00089108 0.000118334 0.230553)
(-0.000905127 0.000120406 0.230537)
(-0.00092056 0.000124581 0.230541)
(-0.000631384 0.000115589 0.228918)
(-0.000630696 0.000117021 0.228854)
(-0.000603194 0.000116258 0.228746)
(-0.000547794 0.000113269 0.228591)
(4.77775e-06 -4.50488e-05 0.22295)
(4.03423e-05 -5.04999e-05 0.222818)
(5.00474e-05 -5.64078e-05 0.222706)
(3.42761e-05 -6.30058e-05 0.22261)
(-0.00084919 -0.000130679 0.224348)
(-0.00089041 -0.000135637 0.224348)
(-0.00092077 -0.000139182 0.224373)
(-0.000941527 -0.000141451 0.224427)
(-0.000864449 0.000123176 0.228044)
(-0.000877434 0.000123299 0.228002)
(-0.000890744 0.000125355 0.227985)
(-0.000905152 0.000129356 0.22799)
(-0.000602356 0.000121666 0.226352)
(-0.0006009 0.000123026 0.226286)
(-0.000573286 0.000122262 0.226177)
(-0.000518426 0.000119345 0.226021)
(2.68961e-05 -3.33102e-05 0.22036)
(6.12133e-05 -3.85361e-05 0.220225)
(6.97464e-05 -4.42031e-05 0.220112)
(5.2832e-05 -5.05347e-05 0.220017)
(-0.00086077 -0.000115671 0.221743)
(-0.00090284 -0.00012042 0.221743)
(-0.000933764 -0.000123871 0.22177)
(-0.000954815 -0.000126163 0.221826)
(-0.000851412 0.00012709 0.225414)
(-0.000863952 0.000127378 0.225369)
(-0.000876544 0.000129428 0.22535)
(-0.000889935 0.00013326 0.225355)
(-0.000575715 0.000127255 0.223695)
(-0.000573515 0.000128548 0.223628)
(-0.000545829 0.000127784 0.223518)
(-0.000491568 0.000124932 0.223361)
(4.63035e-05 -2.17622e-05 0.217681)
(7.94136e-05 -2.67562e-05 0.217544)
(8.68379e-05 -3.21777e-05 0.21743)
(6.88695e-05 -3.82406e-05 0.217335)
(-0.000871689 -0.00010109 0.21905)
(-0.000914467 -0.000105622 0.21905)
(-0.000945878 -0.00010898 0.219078)
(-0.000967213 -0.000111305 0.219137)
(-0.000839018 0.000130496 0.222692)
(-0.000851135 0.000130931 0.222644)
(-0.000863028 0.000132977 0.222624)
(-0.00087542 0.000136662 0.222629)
(-0.000549661 0.000131672 0.220954)
(-0.000546745 0.000132932 0.220885)
(-0.000519009 0.000132191 0.220774)
(-0.000465358 0.000129419 0.220617)
(6.32424e-05 -1.04853e-05 0.214912)
(9.51825e-05 -1.52439e-05 0.214772)
(0.000101554 -2.04243e-05 0.214658)
(8.2609e-05 -2.62308e-05 0.214564)
(-0.000881829 -8.71788e-05 0.216268)
(-0.000925213 -9.15062e-05 0.216268)
(-0.000957051 -9.47866e-05 0.216297)
(-0.000978648 -9.71633e-05 0.21636)
(-0.000827668 0.000134167 0.219877)
(-0.000839355 0.000134722 0.219825)
(-0.000850566 0.00013675 0.219803)
(-0.000861998 0.000140287 0.219808)
(-0.000523847 0.000135873 0.218118)
(-0.000520262 0.000137118 0.218047)
(-0.000492493 0.000136416 0.217935)
(-0.000439443 0.00013374 0.217778)
(7.9415e-05 8.09327e-07 0.212048)
(0.00011022 -3.7046e-06 0.211906)
(0.000115598 -8.64349e-06 0.211791)
(9.57621e-05 -1.42022e-05 0.211698)
(-0.000890663 -7.38152e-05 0.213393)
(-0.000934588 -7.79553e-05 0.213393)
(-0.000966804 -8.11746e-05 0.213423)
(-0.000988631 -8.36201e-05 0.213489)
(-0.000817121 0.000138123 0.216965)
(-0.000828363 0.000138791 0.21691)
(-0.000838916 0.0001408 0.216886)
(-0.000849446 0.000144192 0.21689)
(-0.000498772 0.000140135 0.215178)
(-0.000494574 0.000141363 0.215105)
(-0.000466796 0.000140702 0.214992)
(-0.00041434 0.000138125 0.214835)
(9.5786e-05 1.20269e-05 0.209083)
(0.000125499 7.75249e-06 0.208939)
(0.000129954 3.04726e-06 0.208823)
(0.000109326 -2.27441e-06 0.208731)
(-0.000897401 -6.05116e-05 0.210422)
(-0.000941794 -6.44686e-05 0.210422)
(-0.000974328 -6.76261e-05 0.210454)
(-0.000996335 -7.01349e-05 0.210523)
(-0.000807126 0.000141458 0.213946)
(-0.000817924 0.000142261 0.213887)
(-0.000827848 0.000144263 0.213862)
(-0.00083754 0.000147512 0.213866)
(-0.000475353 0.000144793 0.212127)
(-0.000470588 0.000145997 0.212052)
(-0.000442822 0.00014537 0.211938)
(-0.000390959 0.00014289 0.211782)
(0.000111583 2.31963e-05 0.20601)
(0.000140267 1.91503e-05 0.205864)
(0.000143875 1.46747e-05 0.205748)
(0.000122549 9.59269e-06 0.205657)
(-0.000901207 -4.70845e-05 0.207349)
(-0.000945984 -5.08563e-05 0.207348)
(-0.000978759 -5.39406e-05 0.207382)
(-0.00100087 -5.64902e-05 0.207454)
(-0.000797437 0.000144102 0.210815)
(-0.000807807 0.000145049 0.210752)
(-0.000817136 0.000147051 0.210725)
(-0.00082604 0.000150168 0.210729)
(-0.000454427 0.000149352 0.208963)
(-0.000449115 0.000150532 0.208886)
(-0.000421373 0.000149943 0.208772)
(-0.000370104 0.00014756 0.208615)
(0.00012599 3.39683e-05 0.202828)
(0.000153715 3.01432e-05 0.202681)
(0.000156547 2.58869e-05 0.202564)
(0.000134596 2.10313e-05 0.202474)
(-0.000901647 -3.35976e-05 0.204165)
(-0.000946729 -3.71923e-05 0.204164)
(-0.000979664 -4.01962e-05 0.204199)
(-0.00100179 -4.27629e-05 0.204275)
(-0.000787508 0.000146802 0.207572)
(-0.000797488 0.000147864 0.207506)
(-0.000806253 0.000149854 0.207477)
(-0.000814395 0.000152838 0.207481)
(-0.00043614 0.000153632 0.205686)
(-0.000430284 0.000154794 0.205607)
(-0.000402566 0.000154248 0.205492)
(-0.000351893 0.000151974 0.205335)
(0.000138962 4.44147e-05 0.199536)
(0.000165787 4.08138e-05 0.199387)
(0.000167898 3.67726e-05 0.19927)
(0.000145381 3.21316e-05 0.199181)
(-0.000899525 -2.0407e-05 0.200869)
(-0.000944844 -2.38416e-05 0.200868)
(-0.000977875 -2.67694e-05 0.200905)
(-0.000999955 -2.93446e-05 0.200984)
(-0.000777097 0.000149563 0.204217)
(-0.000786732 0.000150717 0.204147)
(-0.000794965 0.000152681 0.204116)
(-0.000802368 0.000155526 0.20412)
(-0.000419734 0.000157364 0.202294)
(-0.000413343 0.000158509 0.202212)
(-0.000385655 0.00015801 0.202096)
(-0.000335578 0.000155848 0.20194)
(0.000150978 5.43533e-05 0.196132)
(0.000176951 5.09827e-05 0.195981)
(0.000178399 4.71554e-05 0.195864)
(0.00015538 4.27205e-05 0.195776)
(-0.000895859 -8.38575e-06 0.197462)
(-0.000941347 -1.16697e-05 0.19746)
(-0.00097443 -1.45363e-05 0.197498)
(-0.000996442 -1.71413e-05 0.197581)
(-0.000766313 0.000151901 0.20074)
(-0.000775638 0.000153146 0.200667)
(-0.000783372 0.000155082 0.200634)
(-0.000790068 0.000157786 0.200638)
(-0.000404301 0.000160216 0.198782)
(-0.000397401 0.000161345 0.198699)
(-0.000369756 0.000160891 0.198582)
(-0.000320275 0.000158836 0.198427)
(0.000162808 6.36367e-05 0.192611)
(0.000187978 6.04921e-05 0.192458)
(0.000188827 5.68734e-05 0.192341)
(0.000165389 5.26376e-05 0.192254)
(-0.000891078 2.65155e-06 0.193938)
(-0.000936663 -4.86664e-07 0.193937)
(-0.000969762 -3.29891e-06 0.193976)
(-0.000991704 -5.94295e-06 0.194062)
(-0.000755229 0.000153598 0.197132)
(-0.000764268 0.000154938 0.197054)
(-0.000771535 0.00015685 0.19702)
(-0.000777565 0.000159415 0.197024)
(-0.000389162 0.000162723 0.195147)
(-0.000381791 0.000163833 0.195062)
(-0.000354207 0.000163421 0.194945)
(-0.000305322 0.000161472 0.19479)
(0.00017511 7.25292e-05 0.188968)
(0.00019952 6.95999e-05 0.188814)
(0.000199837 6.61833e-05 0.188696)
(0.000176073 6.21447e-05 0.188611)
(-0.000885331 1.33674e-05 0.190293)
(-0.000930934 1.03739e-05 0.190291)
(-0.000964013 7.62472e-06 0.190332)
(-0.000985893 4.96103e-06 0.190421)
(-0.000744076 0.000155018 0.193382)
(-0.00075284 0.000156437 0.193301)
(-0.000759664 0.000158318 0.193265)
(-0.000765066 0.000160745 0.19327)
(-0.000374507 0.000164904 0.191377)
(-0.000366701 0.000165993 0.191291)
(-0.000339199 0.000165624 0.191173)
(-0.000290915 0.000163781 0.191019)
(0.000187212 8.0869e-05 0.185195)
(0.000210904 7.81496e-05 0.185038)
(0.000210752 7.49314e-05 0.184921)
(0.000186752 7.10873e-05 0.184837)
(-0.00087795 2.36878e-05 0.186518)
(-0.000923488 2.08363e-05 0.186516)
(-0.000956497 1.81567e-05 0.186558)
(-0.000978297 1.54905e-05 0.18665)
(-0.000733036 0.000156198 0.189482)
(-0.000741527 0.000157677 0.189397)
(-0.000747926 0.000159518 0.18936)
(-0.000752735 0.000161808 0.189365)
(-0.000360776 0.000166669 0.18746)
(-0.000352566 0.000167734 0.187373)
(-0.000325167 0.000167405 0.187256)
(-0.000277497 0.00016567 0.187103)
(0.000198471 8.85027e-05 0.18128)
(0.000221489 8.59906e-05 0.181122)
(0.000220929 8.29673e-05 0.181004)
(0.000196767 7.93137e-05 0.180922)
(-0.000868177 3.34253e-05 0.182602)
(-0.000913566 3.07114e-05 0.182598)
(-0.000946439 2.81046e-05 0.182642)
(-0.000968111 2.54468e-05 0.182737)
(-0.000722151 0.000156877 0.185422)
(-0.000730367 0.000158408 0.185334)
(-0.000736356 0.000160204 0.185295)
(-0.000740602 0.000162357 0.185302)
(-0.000348173 0.000167742 0.183388)
(-0.000339586 0.000168783 0.1833)
(-0.00031231 0.000168494 0.183182)
(-0.00026527 0.000166865 0.183031)
(0.000208883 9.52845e-05 0.177214)
(0.000231268 9.29754e-05 0.177055)
(0.000230354 9.01422e-05 0.176937)
(0.000206107 8.66732e-05 0.176856)
(-0.0008558 4.22543e-05 0.178533)