/*--------------------------------*- C++ -*----------------------------------*\
| =========                 |                                                 |
| \\      /  F ield         | OpenFOAM: The Open Source CFD Toolbox           |
|  \\    /   O peration     | Version:  v1912                                 |
|   \\  /    A nd           | Website:  www.openfoam.com                      |
|    \\/     M anipulation  |                                                 |
\*---------------------------------------------------------------------------*/
FoamFile
{
    version     2.0;
    format      ascii;
    class       volScalarField;
    location    "9.2";
    object      alphat;
}
// * * * * * * * * * * * * * * * * * * * * * * * * * * * * * * * * * * * * * //

dimensions      [1 -1 -1 0 0 0 0];


internalField   nonuniform List<scalar> 
34128
(
4.95165e-09
5.08628e-09
5.21697e-09
5.33331e-09
5.07341e-09
4.85529e-09
5.02176e-09
4.99832e-09
4.81874e-09
5.04689e-09
5.32113e-09
5.20811e-09
4.88721e-09
4.99951e-09
5.11243e-09
5.23855e-09
5.01112e-09
4.8078e-09
4.95929e-09
4.91859e-09
4.73591e-09
4.96647e-09
5.24436e-09
5.13182e-09
8.96556e-09
8.77933e-09
8.68065e-09
9.1199e-09
9.25445e-09
9.11306e-09
9.14629e-09
8.74199e-09
8.3063e-09
8.8211e-09
9.46302e-09
9.24117e-09
3.83576e-08
3.62118e-08
3.4755e-08
3.73305e-08
3.98026e-08
3.99944e-08
3.9269e-08
3.64427e-08
3.42684e-08
3.67257e-08
3.98736e-08
3.89095e-08
1.50339e-07
1.40556e-07
1.33854e-07
1.44567e-07
1.56215e-07
1.57763e-07
1.53876e-07
1.41904e-07
1.33294e-07
1.42871e-07
1.55274e-07
1.51691e-07
4.51384e-07
4.20434e-07
3.99259e-07
4.31821e-07
4.69242e-07
4.74782e-07
4.61355e-07
4.25138e-07
4.00004e-07
4.27716e-07
4.63766e-07
4.53907e-07
1.08745e-06
1.01076e-06
9.58319e-07
1.03663e-06
1.13075e-06
1.14529e-06
1.10934e-06
1.02338e-06
9.65655e-07
1.02895e-06
1.11124e-06
1.09013e-06
2.2066e-06
2.04888e-06
1.94096e-06
2.09825e-06
2.29486e-06
2.32563e-06
2.24599e-06
2.07683e-06
1.96688e-06
2.08709e-06
2.2425e-06
2.20555e-06
3.90977e-06
3.63097e-06
3.4396e-06
3.7138e-06
4.06761e-06
4.12147e-06
3.97086e-06
3.6845e-06
3.50366e-06
3.70097e-06
3.95338e-06
3.89862e-06
6.21728e-06
5.7821e-06
5.48275e-06
5.90994e-06
6.4726e-06
6.55191e-06
6.30209e-06
5.87331e-06
5.60871e-06
5.89682e-06
6.26035e-06
6.18958e-06
9.0659e-06
8.45281e-06
8.03152e-06
8.64032e-06
9.44796e-06
9.54635e-06
9.1746e-06
8.59434e-06
8.24136e-06
8.62439e-06
9.10024e-06
9.01883e-06
1.2218e-05
1.15361e-05
1.09944e-05
1.18028e-05
1.2751e-05
1.27921e-05
1.23705e-05
1.17398e-05
1.13023e-05
1.17743e-05
1.2297e-05
1.22099e-05
1.50911e-05
1.43054e-05
1.38067e-05
1.46975e-05
1.57669e-05
1.57722e-05
1.52554e-05
1.45638e-05
1.41119e-05
1.45935e-05
1.51767e-05
1.50876e-05
1.8098e-05
1.71904e-05
1.66396e-05
1.76938e-05
1.8924e-05
1.88801e-05
1.82613e-05
1.75034e-05
1.70047e-05
1.75339e-05
1.81796e-05
1.80929e-05
2.12006e-05
2.01728e-05
1.95758e-05
2.07976e-05
2.21825e-05
2.20749e-05
2.13479e-05
2.05413e-05
2.00046e-05
2.05696e-05
2.12648e-05
2.11845e-05
2.43655e-05
2.32216e-05
2.25852e-05
2.39778e-05
2.55098e-05
2.53211e-05
2.44804e-05
2.36456e-05
2.30805e-05
2.36675e-05
2.43978e-05
2.43277e-05
2.75683e-05
2.63132e-05
2.56439e-05
2.72121e-05
2.88826e-05
2.85921e-05
2.76333e-05
2.67928e-05
2.62082e-05
2.68024e-05
2.75554e-05
2.74987e-05
3.07958e-05
2.94334e-05
2.87363e-05
3.04878e-05
3.22887e-05
3.18728e-05
3.07927e-05
2.99686e-05
2.93725e-05
2.99594e-05
3.07265e-05
3.06857e-05
3.40482e-05
3.2579e-05
3.18555e-05
3.38018e-05
3.57277e-05
3.51618e-05
3.39584e-05
3.31701e-05
3.25685e-05
3.31356e-05
3.39135e-05
3.38895e-05
3.73393e-05
3.57582e-05
3.50055e-05
3.71624e-05
3.92125e-05
3.84731e-05
3.71448e-05
3.64069e-05
3.58035e-05
3.63412e-05
3.71316e-05
3.71251e-05
4.06959e-05
3.89918e-05
3.82027e-05
4.059e-05
4.27692e-05
4.18357e-05
4.03803e-05
3.97022e-05
3.90984e-05
3.96008e-05
4.04089e-05
4.042e-05
4.41542e-05
4.23112e-05
4.14753e-05
4.41161e-05
4.6434e-05
4.52894e-05
4.37043e-05
4.30903e-05
4.24862e-05
4.29503e-05
4.3783e-05
4.38127e-05
4.77538e-05
4.57537e-05
4.48607e-05
4.77777e-05
5.02475e-05
4.88789e-05
4.71621e-05
4.66111e-05
4.60062e-05
4.64314e-05
4.72966e-05
4.73474e-05
5.1533e-05
4.9357e-05
4.83983e-05
5.16127e-05
5.42503e-05
5.26488e-05
5.08e-05
5.03052e-05
4.96973e-05
5.00851e-05
5.09941e-05
5.10692e-05
5.55281e-05
5.31554e-05
5.21243e-05
5.56576e-05
5.84839e-05
5.66449e-05
5.46649e-05
5.42109e-05
5.35931e-05
5.39489e-05
5.49213e-05
5.50241e-05
5.97776e-05
5.71817e-05
5.60715e-05
5.995e-05
6.29969e-05
6.09218e-05
5.88104e-05
5.83663e-05
5.77224e-05
5.80586e-05
5.91305e-05
5.9265e-05
6.43302e-05
6.14727e-05
6.02732e-05
6.45371e-05
6.78573e-05
6.55551e-05
6.33078e-05
6.28185e-05
6.21157e-05
6.24569e-05
6.36905e-05
6.38639e-05
6.92553e-05
6.60798e-05
6.47742e-05
6.94884e-05
7.31648e-05
7.06553e-05
6.82602e-05
6.76362e-05
6.68181e-05
6.72071e-05
6.87009e-05
6.8929e-05
7.46536e-05
7.10813e-05
6.96455e-05
7.49108e-05
7.90646e-05
7.63824e-05
7.38167e-05
7.29248e-05
7.19052e-05
7.24095e-05
7.43071e-05
7.46231e-05
8.06714e-05
7.6597e-05
7.50033e-05
8.09664e-05
8.576e-05
8.29575e-05
8.01911e-05
7.88437e-05
7.75012e-05
7.82201e-05
8.07187e-05
8.11855e-05
8.75048e-05
8.28104e-05
8.10319e-05
8.78937e-05
9.34742e-05
9.06321e-05
8.76588e-05
8.56283e-05
8.38066e-05
8.48777e-05
8.82176e-05
8.89304e-05
9.53814e-05
8.99753e-05
8.8018e-05
9.59712e-05
0.00010248
9.97163e-05
9.65376e-05
9.35552e-05
9.10927e-05
9.26702e-05
9.71241e-05
9.8216e-05
0.000104583
9.83351e-05
9.62484e-05
0.000105531
0.00011318
0.000110652
0.000107263
0.000102944
9.9619e-05
0.000101911
0.000107864
0.000109541
0.000115579
0.000108331
0.000106201
0.000117114
0.000126203
0.000124121
0.000120516
0.000114322
0.000109814
0.000113113
0.000121114
0.000123696
0.000129078
0.000120632
0.000118586
0.000131543
0.000142497
0.000141151
0.000137328
0.000128474
0.000122316
0.000127045
0.000137909
0.000141905
0.000146147
0.000136249
0.000134467
0.000150064
0.000163495
0.000163295
0.000159269
0.000146588
0.000138068
0.000144867
0.000159831
0.000166078
0.000168426
0.00015676
0.000155482
0.000174603
0.000191419
0.000192955
0.000188789
0.000170489
0.000158498
0.000168368
0.000189342
0.000199274
0.00019701
0.000184596
0.000184272
0.000208261
0.00022968
0.00023377
0.000229648
0.00020309
0.000185813
0.000200399
0.000230419
0.000246423
0.000225032
0.000216314
0.000224981
0.000255769
0.000275378
0.000282703
0.000279417
0.000248684
0.000223529
0.000245386
0.000288632
0.000306063
0.000262313
0.000251191
0.000269387
0.000304747
0.000325426
0.000337171
0.000333938
0.000294129
0.000274986
0.000297325
0.000347341
0.000370962
0.000312272
0.000297569
0.00032354
0.00036681
0.000391451
0.000408445
0.000405174
0.000352582
0.000327084
0.000358811
0.000425044
0.000454744
0.000377186
0.000358915
0.000396041
0.000446129
0.000473686
0.000497159
0.00049332
0.000427005
0.000395976
0.000438437
0.000522499
0.000558714
0.000457772
0.000436176
0.000487864
0.000543888
0.000574586
0.000606204
0.000600801
0.000518166
0.000481859
0.000537413
0.000642945
0.000685881
0.000556054
0.000531119
0.000601503
0.00066296
0.000696945
0.000738323
0.00073021
0.000628565
0.000586343
0.000658952
0.000789383
0.000838209
0.000674313
0.000646411
0.000739946
0.000805689
0.000842517
0.000895011
0.000883349
0.000760532
0.000711884
0.00080583
0.000963292
0.00101583
0.000813914
0.000783896
0.000904902
0.00097318
0.00101145
0.00107592
0.00106062
0.000915494
0.0008601
0.000979424
0.00116379
0.00121647
0.000974786
0.00094397
0.00109603
0.00116476
0.00120189
0.00127844
0.00125998
0.00109339
0.00103124
0.00117899
0.00138707
0.00143537
0.00115506
0.00112515
0.00131035
0.00137803
0.00140984
0.00149767
0.00147693
0.00129213
0.00122378
0.00140122
0.00162649
0.00166579
0.001351
0.00132402
0.00154232
0.00161145
0.00162953
0.00172687
0.00170501
0.00150736
0.00143421
0.00164017
0.0018733
0.0019
0.00155741
0.00153559
0.00178451
0.00185607
0.00185408
0.00195836
0.0019366
0.0017328
0.00165709
0.00188763
0.00211797
0.00213042
0.00176837
0.00175422
0.00202905
0.00210036
0.00207652
0.00218451
0.00216404
0.00196108
0.00188556
0.00213369
0.00235165
0.00235014
0.00197802
0.00197344
0.00226821
0.0023362
0.0022909
0.00239877
0.00238045
0.00218478
0.00211207
0.00236877
0.00256737
0.00255232
0.00213847
0.00198984
0.00249456
0.00255805
0.00249254
0.00259623
0.00258033
0.00239746
0.00232967
0.00258523
0.00276013
0.00259806
0.00198149
0.00191932
0.0025487
0.00276131
0.00267768
0.00277383
0.0027599
0.00259391
0.00253301
0.00277772
0.00292618
0.0025261
0.00187557
0.00190955
0.00256752
0.00294148
0.00284392
0.00292981
0.00291699
0.00276985
0.0027198
0.00294323
0.00288957
0.00253002
0.00183514
0.00195425
0.00265029
0.00309436
0.00284272
0.00306319
0.00305091
0.00292254
0.00288258
0.00308063
0.0027742
0.0026024
0.00183991
0.00204139
0.00279312
0.00321926
0.00281851
0.003174
0.0031621
0.00305153
0.00301857
0.00319027
0.00270437
0.00272646
0.00187704
0.00216543
0.00298685
0.00331804
0.00285705
0.00322518
0.00325205
0.00308991
0.00302588
0.00327457
0.00267227
0.00289223
0.00193894
0.00232318
0.00323081
0.00339045
0.00295469
0.00321274
0.00332303
0.00313549
0.00304145
0.003341
0.00266477
0.00309577
0.00202016
0.00251112
0.00346875
0.00344186
0.00310343
0.00325512
0.00337775
0.00320937
0.00308787
0.00339329
0.00267403
0.00333156
0.00211603
0.00272392
0.00351536
0.00348066
0.00330366
0.00335323
0.00341909
0.0033027
0.00316145
0.00343332
0.00269632
0.00342744
0.00222215
0.00295561
0.00354959
0.00351071
0.00346062
0.00346544
0.00344942
0.00340199
0.00325844
0.00346353
0.00272856
0.00345373
0.00233443
0.00320468
0.0035746
0.0035342
0.00349032
0.0034888
0.00347097
0.00343124
0.00337157
0.00348599
0.0027693
0.00347508
0.00244957
0.00345104
0.00359157
0.00355262
0.00351322
0.00350536
0.00348566
0.00345301
0.00342965
0.00350255
0.00281969
0.00349251
0.00256629
0.0035084
0.00359978
0.00356689
0.00353086
0.00351694
0.00349505
0.00346895
0.00344902
0.00351477
0.00288193
0.00350663
0.00268518
0.00352477
0.00360331
0.00357771
0.00354437
0.0035249
0.00350048
0.00348053
0.00346454
0.00352384
0.00295858
0.00351785
0.00280707
0.00353693
0.00360463
0.0035857
0.00355455
0.00353026
0.00350392
0.0034888
0.00347712
0.00353066
0.00305186
0.00352649
0.00293185
0.00354572
0.00360516
0.00359123
0.00356193
0.00353375
0.00350656
0.00349482
0.0034874
0.00353582
0.0031636
0.00353282
0.00305857
0.00355118
0.00360493
0.00359459
0.00356684
0.00353541
0.00350803
0.00349939
0.00349566
0.00353957
0.00329555
0.00353712
0.00318774
0.00355305
0.00360395
0.00359601
0.00356952
0.00353532
0.00350832
0.00350246
0.00350263
0.00354287
0.00344877
0.0035396
0.00331973
0.00355179
0.00360212
0.00359572
0.00357006
0.00353357
0.00350751
0.00350391
0.00350838
0.00354608
0.00352471
0.00354024
0.00344942
0.00354768
0.00359939
0.00359383
0.00356857
0.00353019
0.00350569
0.00350385
0.00351298
0.00354954
0.00352802
0.00353929
0.00348127
0.00354119
0.00359565
0.00359054
0.00356509
0.00352522
0.003503
0.00350253
0.00351656
0.00355214
0.00353044
0.00353871
0.00348017
0.00353283
0.00359091
0.00358602
0.00355976
0.00351874
0.0034996
0.00350025
0.00351887
0.00355234
0.00353203
0.00353832
0.00347812
0.0035232
0.00358537
0.00358045
0.00355274
0.00351094
0.00349573
0.0034974
0.00351994
0.00354981
0.00353286
0.0035381
0.00347561
0.00351299
0.00357936
0.00357401
0.00354423
0.00350205
0.00349167
0.00349443
0.00352003
0.00354563
0.00353306
0.00353813
0.00347311
0.0035029
0.00357324
0.00356687
0.00353446
0.00349249
0.00348769
0.0034918
0.00351942
0.00354049
0.00353274
0.00353845
0.00347098
0.00349359
0.00356728
0.00355915
0.00352368
0.00348273
0.00348402
0.00348997
0.0035183
0.00353481
0.00353198
0.00353893
0.00346945
0.00348564
0.00356171
0.00355095
0.00351203
0.00347305
0.00348071
0.00348919
0.0035169
0.00352889
0.00353074
0.00353931
5.35086e-09
5.41607e-09
5.48073e-09
5.63094e-09
5.45174e-09
5.26641e-09
5.39994e-09
5.32138e-09
5.11553e-09
5.3692e-09
5.6785e-09
5.54968e-09
5.15105e-09
5.20341e-09
5.24899e-09
5.39898e-09
5.24511e-09
5.06945e-09
5.18928e-09
5.10529e-09
4.90377e-09
5.14786e-09
5.44678e-09
5.32538e-09
7.16525e-09
7.03037e-09
6.76766e-09
7.0876e-09
7.24799e-09
7.06314e-09
7.05975e-09
6.77562e-09
6.4324e-09
6.76562e-09
7.20369e-09
7.0894e-09
2.19872e-08
2.01545e-08
1.77306e-08
1.92316e-08
2.1842e-08
2.17977e-08
2.05509e-08
1.87897e-08
1.74645e-08
1.84136e-08
1.98228e-08
1.97775e-08
7.81777e-08
6.97582e-08
5.92409e-08
6.51907e-08
7.72211e-08
7.78159e-08
7.16028e-08
6.43052e-08
5.93973e-08
6.25567e-08
6.74991e-08
6.7847e-08
2.27502e-07
2.0117e-07
1.69144e-07
1.86883e-07
2.24585e-07
2.27148e-07
2.06944e-07
1.85096e-07
1.71111e-07
1.79698e-07
1.93468e-07
1.95374e-07
5.39008e-07
4.74953e-07
3.98169e-07
4.40252e-07
5.32573e-07
5.39626e-07
4.88771e-07
4.37262e-07
4.05506e-07
4.24271e-07
4.54911e-07
4.61333e-07
1.07985e-06
9.50851e-07
7.97088e-07
8.80603e-07
1.06863e-06
1.08368e-06
9.77687e-07
8.76632e-07
8.16352e-07
8.50538e-07
9.07325e-07
9.23974e-07
1.89208e-06
1.6683e-06
1.40074e-06
1.54462e-06
1.87582e-06
1.90232e-06
1.71195e-06
1.54035e-06
1.44097e-06
1.49478e-06
1.58592e-06
1.6215e-06
2.97788e-06
2.63367e-06
2.21825e-06
2.43975e-06
2.95876e-06
2.99837e-06
2.69503e-06
2.43554e-06
2.28888e-06
2.36433e-06
2.49511e-06
2.56073e-06
4.30078e-06
3.82049e-06
3.23244e-06
3.54416e-06
4.28395e-06
4.33512e-06
3.89646e-06
3.53885e-06
3.34043e-06
3.43718e-06
3.60963e-06
3.71737e-06
5.73999e-06
5.17287e-06
4.40602e-06
4.80693e-06
5.71006e-06
5.74874e-06
5.2082e-06
4.78985e-06
4.54916e-06
4.65224e-06
4.84973e-06
4.99941e-06
7.04416e-06
6.37487e-06
5.48957e-06
5.93963e-06
7.02516e-06
7.06084e-06
6.40345e-06
5.90963e-06
5.62904e-06
5.74799e-06
5.98167e-06
6.18121e-06
8.3909e-06
7.62575e-06
6.60239e-06
7.12389e-06
8.38973e-06
8.42158e-06
7.64584e-06
7.07854e-06
6.7616e-06
6.89656e-06
7.16678e-06
7.42339e-06
9.75934e-06
8.90847e-06
7.75649e-06
8.34452e-06
9.78349e-06
9.81157e-06
8.9194e-06
8.28185e-06
7.93292e-06
8.08454e-06
8.39201e-06
8.71224e-06
1.11322e-05
1.02088e-05
8.94176e-06
9.58922e-06
1.11892e-05
1.12146e-05
1.02116e-05
9.50754e-06
9.13128e-06
9.30133e-06
9.64822e-06
1.00376e-05
1.24975e-05
1.15168e-05
1.01515e-05
1.08495e-05
1.25942e-05
1.26195e-05
1.15151e-05
1.07475e-05
1.03483e-05
1.05403e-05
1.09313e-05
1.1394e-05
1.38495e-05
1.28275e-05
1.13832e-05
1.21212e-05
1.3991e-05
1.40216e-05
1.28284e-05
1.19984e-05
1.15798e-05
1.17995e-05
1.22424e-05
1.2781e-05
1.51893e-05
1.41416e-05
1.26388e-05
1.34051e-05
1.53786e-05
1.54237e-05
1.41565e-05
1.32621e-05
1.28261e-05
1.30823e-05
1.35883e-05
1.42036e-05
1.65249e-05
1.5466e-05
1.3926e-05
1.47078e-05
1.67634e-05
1.68364e-05
1.55118e-05
1.45468e-05
1.40937e-05
1.43978e-05
1.49814e-05
1.56728e-05
1.78712e-05
1.68146e-05
1.52589e-05
1.60428e-05
1.81597e-05
1.82785e-05
1.69143e-05
1.58676e-05
1.53952e-05
1.57619e-05
1.64406e-05
1.72068e-05
1.92496e-05
1.82076e-05
1.66575e-05
1.74302e-05
1.95897e-05
1.97763e-05
1.83906e-05
1.72465e-05
1.67504e-05
1.71968e-05
1.79915e-05
1.88309e-05
2.06877e-05
1.96712e-05
1.81477e-05
1.88972e-05
2.10826e-05
2.13621e-05
1.99731e-05
1.87117e-05
1.81851e-05
1.87311e-05
1.96663e-05
2.05775e-05
2.22187e-05
2.12374e-05
1.97599e-05
2.04778e-05
2.26754e-05
2.30751e-05
2.17005e-05
2.02971e-05
1.97304e-05
2.03984e-05
2.15038e-05
2.24859e-05
2.3884e-05
2.29437e-05
2.15307e-05
2.22143e-05
2.44157e-05
2.49643e-05
2.36202e-05
2.20438e-05
2.14229e-05
2.22391e-05
2.35523e-05
2.4605e-05
2.57372e-05
2.48371e-05
2.35051e-05
2.41623e-05
2.63679e-05
2.70951e-05
2.57941e-05
2.40046e-05
2.33089e-05
2.43044e-05
2.58746e-05
2.70007e-05
2.78501e-05
2.69802e-05
2.57445e-05
2.6399e-05
2.8621e-05
2.95574e-05
2.83074e-05
2.62514e-05
2.54512e-05
2.66645e-05
2.85576e-05
2.9766e-05
3.03215e-05
2.94603e-05
2.83383e-05
2.90351e-05
3.12996e-05
3.2477e-05
3.12794e-05
2.88867e-05
2.794e-05
2.94198e-05
3.17248e-05
3.30353e-05
3.32878e-05
3.24013e-05
3.14201e-05
3.2229e-05
3.45763e-05
3.60285e-05
3.48787e-05
3.20571e-05
3.09058e-05
3.27149e-05
3.55521e-05
3.70021e-05
3.69364e-05
3.59801e-05
3.51891e-05
3.62069e-05
3.86886e-05
4.04514e-05
3.934e-05
3.59713e-05
3.45376e-05
3.67574e-05
4.02883e-05
4.19407e-05
4.1525e-05
4.04481e-05
3.99384e-05
4.12892e-05
4.39612e-05
4.60718e-05
4.49883e-05
4.09239e-05
3.91048e-05
4.18414e-05
4.62816e-05
4.82368e-05
4.74055e-05
4.61611e-05
4.60926e-05
4.79276e-05
5.08337e-05
5.33309e-05
5.22712e-05
4.7327e-05
4.49873e-05
4.83793e-05
5.40178e-05
5.6432e-05
5.48598e-05
5.34056e-05
5.40593e-05
5.65817e-05
5.97508e-05
6.26741e-05
6.16376e-05
5.55658e-05
5.25103e-05
5.67499e-05
6.40097e-05
6.71352e-05
6.43757e-05
6.26944e-05
6.45403e-05
6.80192e-05
7.14427e-05
7.48281e-05
7.3822e-05
6.62861e-05
6.2233e-05
6.75898e-05
7.70957e-05
8.13435e-05
7.67213e-05
7.48471e-05
7.86625e-05
8.34673e-05
8.70636e-05
9.09292e-05
8.99739e-05
8.05017e-05
7.50277e-05
8.1895e-05
9.46002e-05
0.000100662
9.30664e-05
9.11448e-05
9.82474e-05
0.000104907
0.000108426
0.000112758
0.000111887
9.98043e-05
9.22472e-05
0.000101228
0.000118634
0.000127649
0.000113259
0.000112554
0.000126189
0.000135391
0.000136772
0.000142988
0.000141996
0.00012664
0.000116011
0.000127994
0.000152428
0.000162219
0.000136067
0.000136112
0.000157886
0.000168804
0.000168371
0.000176087
0.000174854
0.000158475
0.000147709
0.000159656
0.000189868
0.000202818
0.000165491
0.000167013
0.000199179
0.000213541
0.000210008
0.000219187
0.000218178
0.00019793
0.000184026
0.000199306
0.000239386
0.000257024
0.000203763
0.000207949
0.000255
0.000273628
0.000265093
0.000276126
0.000275596
0.000250407
0.000232431
0.000252182
0.000305367
0.000329441
0.000253848
0.000262413
0.000330458
0.000353647
0.000337448
0.000350681
0.000351171
0.00032031
0.000297039
0.000322771
0.000391379
0.000422762
0.000319038
0.000334034
0.000428229
0.000456325
0.000429045
0.00044481
0.000447119
0.000410387
0.000381675
0.000413835
0.000500347
0.000540645
0.000400637
0.000424507
0.000552443
0.000585986
0.000543156
0.000561727
0.000566939
0.00052395
0.000488999
0.00052879
0.000635961
0.000686295
0.000501327
0.000536931
0.000706857
0.000746025
0.000682427
0.000704039
0.000713418
0.000664395
0.000622939
0.000671231
0.000800523
0.00086095
0.00062357
0.000673602
0.000893268
0.000937664
0.00084797
0.00087283
0.000887492
0.000833475
0.000786236
0.000843148
0.000993911
0.0010629
0.000768763
0.000835192
0.00111047
0.00115879
0.00103871
0.00106698
0.00108748
0.00103032
0.00097935
0.00104385
0.00121287
0.00128705
0.000936616
0.00102018
0.00135356
0.00140292
0.00125103
0.00128284
0.0013089
0.00125092
0.00119965
0.00126921
0.00145098
0.00152538
0.00112469
0.00122465
0.00161385
0.00165915
0.00147899
0.00151444
0.00154505
0.0014884
0.00144125
0.00151164
0.00169936
0.00176821
0.00132826
0.00144249
0.00187997
0.00191009
0.00171498
0.00175416
0.00178805
0.00173405
0.00169534
0.00176115
0.00194796
0.00200604
0.00154052
0.00166604
0.00209279
0.0021478
0.00195053
0.00199369
0.00202976
0.00197869
0.00195072
0.00200763
0.00218705
0.00222598
0.00169716
0.0016496
0.00209
0.00223099
0.00217706
0.00222511
0.0022625
0.0022138
0.00219585
0.00224331
0.00240835
0.00213615
0.00156715
0.0015903
0.00211111
0.00224574
0.00213797
0.00244175
0.00247972
0.00243192
0.00240832
0.00246236
0.00245851
0.0020875
0.0014656
0.00158
0.00218521
0.00229592
0.00207493
0.0026387
0.00267655
0.00247468
0.00235334
0.00266016
0.00236921
0.00210911
0.00141877
0.00161937
0.00231537
0.00239646
0.00204687
0.00273038
0.00285006
0.00244783
0.00230056
0.0027812
0.00230941
0.0021935
0.00141396
0.00170034
0.0025008
0.00254755
0.0020659
0.00266863
0.0029992
0.00245494
0.00227256
0.00276327
0.00228654
0.00233188
0.00143847
0.00181634
0.00273531
0.00275191
0.00213797
0.00265089
0.00311873
0.00249942
0.00227002
0.00274791
0.00229551
0.0025182
0.00148422
0.00196213
0.003015
0.00302216
0.00226645
0.00268067
0.00316331
0.0025773
0.00229156
0.0027514
0.00232856
0.00274794
0.00154601
0.00213205
0.00333333
0.00331977
0.00245241
0.00274749
0.0032437
0.00268534
0.00233645
0.00277061
0.00237823
0.00302057
0.00162006
0.00231895
0.00348562
0.00337574
0.00269559
0.0028441
0.00334843
0.00281936
0.00240429
0.00280274
0.00243946
0.00333134
0.00170322
0.0025143
0.00351652
0.00342029
0.00299622
0.00296404
0.00341615
0.00297575
0.0024945
0.00284576
0.00250901
0.00344773
0.00179263
0.00270941
0.00354033
0.00345562
0.00333207
0.00310331
0.00345069
0.00315569
0.00260701
0.0028989
0.00258375
0.00347702
0.00188583
0.00289653
0.00355851
0.00348353
0.00345289
0.0032614
0.00347588
0.00335559
0.0027425
0.00296302
0.0026627
0.00349963
0.00198095
0.00306994
0.00357226
0.00350552
0.00347757
0.003433
0.003494
0.00345667
0.00290176
0.00304058
0.00274842
0.0035173
0.00207687
0.00322857
0.0035825
0.00352276
0.00349662
0.0035096
0.0035069
0.00347225
0.00308545
0.00313537
0.00284546
0.00353132
0.00217311
0.00337525
0.00358993
0.00353621
0.00351124
0.00351806
0.00351523
0.00348449
0.00329127
0.00325182
0.00295869
0.00354122
0.00226969
0.00350397
0.00359506
0.00354657
0.0035223
0.00352376
0.0035202
0.00349396
0.00347204
0.00339094
0.00309153
0.00354789
0.0023674
0.00355379
0.00359804
0.00355436
0.00353052
0.00352709
0.00352265
0.00350102
0.00348619
0.00354208
0.00324703
0.00355194
0.00246727
0.00355805
0.00359895
0.00355999
0.00353639
0.00352845
0.00352311
0.0035059
0.00349864
0.00355438
0.00343288
0.00355383
0.00256995
0.00355804
0.00359784
0.00356368
0.00354029
0.00352816
0.00352192
0.00350884
0.00350953
0.00356027
0.00353906
0.00355391
0.00267604
0.0035541
0.0035947
0.00356554
0.0035424
0.00352636
0.00351927
0.00351018
0.0035183
0.00356448
0.00354308
0.00355248
0.00278615
0.00354668
0.00358958
0.0035657
0.00354283
0.00352309
0.00351521
0.00350983
0.00352502
0.00356715
0.00354606
0.00354987
0.00290069
0.00353631
0.00358263
0.00356422
0.00354166
0.00351837
0.00350981
0.00350783
0.00352983
0.00356865
0.00354804
0.0035465
0.00301889
0.00352365
0.0035742
0.00356123
0.00353896
0.00351225
0.00350316
0.00350466
0.00353299
0.00356908
0.00354913
0.00354267
0.00313832
0.00350947
0.00356476
0.00355687
0.00353484
0.00350485
0.00349547
0.00350074
0.00353471
0.00356841
0.00354944
0.00353895
0.00325488
0.00349468
0.00355497
0.00355137
0.00352939
0.00349637
0.00348707
0.00349649
0.00353523
0.00356643
0.00354914
0.00353575
0.00336078
0.00348022
0.00354552
0.00354506
0.00352282
0.00348709
0.00347838
0.00349245
0.00353482
0.00356299
0.00354845
0.00353337
0.00344573
0.00346707
0.00353711
0.00353832
0.00351534
0.00347739
0.00346996
0.00348901
0.00353377
0.00355813
0.00354755
0.00353198
0.00344826
0.00345615
0.00353029
0.00353153
0.00350714
0.00346764
0.00346236
0.00348643
0.00353231
0.00355207
0.00354657
0.00353156
0.00345067
0.00344068
0.00352539
0.00352501
0.00349837
0.00345823
0.00345608
0.00348473
0.00353062
0.003545
0.00354552
0.0035319
5.8062e-09
5.78724e-09
5.79513e-09
6.00821e-09
5.94816e-09
5.7952e-09
5.877e-09
5.7397e-09
5.5002e-09
5.76119e-09
6.0964e-09
5.97615e-09
5.67718e-09
5.64243e-09
5.63978e-09
5.86347e-09
5.83657e-09
5.68963e-09
5.75006e-09
5.6056e-09
5.37149e-09
5.62795e-09
5.9574e-09
5.84702e-09
9.42798e-09
9.05618e-09
8.8551e-09
9.51021e-09
1.00661e-08
9.88302e-09
9.61417e-09
9.18115e-09
8.79821e-09
9.23746e-09
9.80955e-09
9.7674e-09
3.69447e-08
3.43208e-08
3.28283e-08
3.6411e-08
4.07867e-08
4.03267e-08
3.79072e-08
3.55131e-08
3.40705e-08
3.57999e-08
3.80982e-08
3.84798e-08
1.41188e-07
1.30049e-07
1.23782e-07
1.38281e-07
1.5702e-07
1.55645e-07
1.45061e-07
1.35365e-07
1.30124e-07
1.36537e-07
1.45139e-07
1.47262e-07
4.18764e-07
3.85083e-07
3.66461e-07
4.09421e-07
4.66145e-07
4.6276e-07
4.30315e-07
4.0171e-07
3.87184e-07
4.05333e-07
4.2974e-07
4.37013e-07
9.98584e-07
9.18859e-07
8.75611e-07
9.76064e-07
1.11066e-06
1.1039e-06
1.02604e-06
9.59783e-07
9.28042e-07
9.68805e-07
1.02347e-06
1.04257e-06
2.00666e-06
1.85043e-06
1.76743e-06
1.96323e-06
2.22832e-06
2.21664e-06
2.06165e-06
1.9345e-06
1.87707e-06
1.95346e-06
2.05516e-06
2.09631e-06
3.52414e-06
3.26074e-06
3.12511e-06
3.45626e-06
3.90649e-06
3.88734e-06
3.62151e-06
3.4116e-06
3.32189e-06
3.44626e-06
3.61005e-06
3.68584e-06
5.56358e-06
5.16999e-06
4.97549e-06
5.47648e-06
6.15519e-06
6.12374e-06
5.7196e-06
5.41216e-06
5.287e-06
5.46883e-06
5.7054e-06
5.82786e-06
8.06995e-06
7.53597e-06
7.2864e-06
7.98076e-06
8.90958e-06
8.85761e-06
8.30056e-06
7.89148e-06
7.73119e-06
7.9762e-06
8.29147e-06
8.4691e-06
1.08974e-05
1.02695e-05
9.97883e-06
1.08641e-05
1.19207e-05
1.18092e-05
1.11761e-05
1.07298e-05
1.05501e-05
1.08505e-05
1.12265e-05
1.14168e-05
1.34715e-05
1.27721e-05
1.24726e-05
1.34666e-05
1.47001e-05
1.45542e-05
1.38121e-05
1.32964e-05
1.30908e-05
1.34519e-05
1.38991e-05
1.41235e-05
1.61707e-05
1.53727e-05
1.50545e-05
1.62048e-05
1.76056e-05
1.74212e-05
1.65753e-05
1.59969e-05
1.57689e-05
1.61902e-05
1.67056e-05
1.69632e-05
1.89627e-05
1.80718e-05
1.77446e-05
1.90491e-05
2.06033e-05
2.03746e-05
1.9433e-05
1.8801e-05
1.85547e-05
1.90345e-05
1.96148e-05
1.99044e-05
2.18218e-05
2.08442e-05
2.05192e-05
2.19759e-05
2.36656e-05
2.33859e-05
2.236e-05
2.1684e-05
2.14234e-05
2.19604e-05
2.2604e-05
2.29233e-05
2.47321e-05
2.36733e-05
2.33627e-05
2.49704e-05
2.67744e-05
2.64376e-05
2.53421e-05
2.46294e-05
2.43578e-05
2.49525e-05
2.56606e-05
2.60064e-05
2.76879e-05
2.65513e-05
2.62689e-05
2.80274e-05
2.99224e-05
2.95249e-05
2.83772e-05
2.76312e-05
2.73502e-05
2.80058e-05
2.87827e-05
2.91509e-05
3.06936e-05
2.94804e-05
2.92419e-05
3.11524e-05
3.31145e-05
3.26563e-05
3.14753e-05
3.06944e-05
3.04035e-05
3.11267e-05
3.19789e-05
3.23658e-05
3.37632e-05
3.24727e-05
3.2298e-05
3.43635e-05
3.63689e-05
3.5853e-05
3.46578e-05
3.38369e-05
3.35334e-05
3.43325e-05
3.52688e-05
3.56721e-05
3.69202e-05
3.55506e-05
3.54665e-05
3.7691e-05
3.97157e-05
3.91471e-05
3.79561e-05
3.70887e-05
3.6768e-05
3.76526e-05
3.86831e-05
3.91033e-05
4.01963e-05
3.87456e-05
3.87876e-05
4.11761e-05
4.3195e-05
4.25796e-05
4.14105e-05
4.04901e-05
4.01464e-05
4.11259e-05
4.22626e-05
4.27043e-05
4.36292e-05
4.20953e-05
4.23092e-05
4.48682e-05
4.68537e-05
4.61972e-05
4.5068e-05
4.40883e-05
4.37149e-05
4.4798e-05
4.60565e-05
4.6528e-05
4.72617e-05
4.56418e-05
4.60846e-05
4.88235e-05
5.0745e-05
5.00531e-05
4.89825e-05
4.79357e-05
4.75232e-05
4.87192e-05
5.01218e-05
5.0636e-05
5.11424e-05
4.94328e-05
5.01731e-05
5.31086e-05
5.49322e-05
5.42106e-05
5.32184e-05
5.20928e-05
5.16259e-05
5.29458e-05
5.4527e-05
5.51035e-05
5.53299e-05
5.35255e-05
5.46484e-05
5.78092e-05
5.94961e-05
5.87514e-05
5.78588e-05
5.66362e-05
5.60887e-05
5.75481e-05
5.93619e-05
6.00308e-05
5.99007e-05
5.79947e-05
5.9614e-05
6.3044e-05
6.45459e-05
6.37859e-05
6.30172e-05
6.16715e-05
6.10015e-05
6.26224e-05
6.47504e-05
6.5558e-05
6.49595e-05
6.29459e-05
6.52234e-05
6.89824e-05
7.02302e-05
6.94638e-05
6.88503e-05
6.73496e-05
6.6495e-05
6.83068e-05
7.08656e-05
7.1881e-05
7.06511e-05
6.85303e-05
7.17029e-05
7.58609e-05
7.67502e-05
7.59855e-05
7.55702e-05
7.38828e-05
7.27577e-05
7.47953e-05
7.7943e-05
7.92653e-05
7.71729e-05
7.49613e-05
7.93737e-05
8.40006e-05
8.4373e-05
8.3613e-05
8.34566e-05
8.15597e-05
8.00517e-05
8.23526e-05
8.62923e-05
8.80544e-05
8.47916e-05
8.25328e-05
8.86719e-05
9.38176e-05
9.34391e-05
9.26725e-05
9.28579e-05
9.07541e-05
8.8725e-05
9.13195e-05
9.62959e-05
9.867e-05
9.38477e-05
9.16307e-05
0.000100152
0.000105838
0.000104387
0.000103579
0.000104208
0.000101923
9.9198e-05
0.000102102
0.000108432
0.000111661
0.000104765
0.000102724
0.000114577
0.000120849
0.00011787
0.000116946
0.000118154
0.000115723
0.000112032
0.00011527
0.000123431
0.000127891
0.000118247
0.000116594
0.000133186
0.000140124
0.000134919
0.000133728
0.000135711
0.000133201
0.000128125
0.000131731
0.000142445
0.000148721
0.000135393
0.000134471
0.000157975
0.000165699
0.00015715
0.000155385
0.000158434
0.000155991
0.000148874
0.00015289
0.000167248
0.00017627
0.00015789
0.000158339
0.00019224
0.000200937
0.000187171
0.000184195
0.000188757
0.000186693
0.000176476
0.000180956
0.00020065
0.000213954
0.000185953
0.000191237
0.000241264
0.0002512
0.000228952
0.000223557
0.000230277
0.000229421
0.000214538
0.000219473
0.000247056
0.000266929
0.000213868
0.000225874
0.000296513
0.000305151
0.000272044
0.000267626
0.000274827
0.000281576
0.000268619
0.000269701
0.000304161
0.000323772
0.000250306
0.000267253
0.000362772
0.000370247
0.000325837
0.000319741
0.000328455
0.000338669
0.000323798
0.000321615
0.000366962
0.000392442
0.000298398
0.000322123
0.000449585
0.000453841
0.000396224
0.000388101
0.000398306
0.000413781
0.000395016
0.000390567
0.000447781
0.000479058
0.000361319
0.000393256
0.000558613
0.000557194
0.000483723
0.00047318
0.00048461
0.000507203
0.000484607
0.000476819
0.00054764
0.000585204
0.000439967
0.000481729
0.000693331
0.000682956
0.00059095
0.000577409
0.000589786
0.000621566
0.000594746
0.000582645
0.00066942
0.000713226
0.000536663
0.000590272
0.000856115
0.000832655
0.000720258
0.000703362
0.00071624
0.000759153
0.000727992
0.000710663
0.000815178
0.000864375
0.000653927
0.000721235
0.00104728
0.00100618
0.000872833
0.00085271
0.000865567
0.000920975
0.000885648
0.000862484
0.000985459
0.00103832
0.000793374
0.000875846
0.00126471
0.00120167
0.00104814
0.00102567
0.0010381
0.00110627
0.00106715
0.00103814
0.00117876
0.00123288
0.000955122
0.00105371
0.00150391
0.00141586
0.00124354
0.00122057
0.0012325
0.00131221
0.00126978
0.00123567
0.00139128
0.00144411
0.00113731
0.0012525
0.00175784
0.00164006
0.00145436
0.00143367
0.00144544
0.00153389
0.00148894
0.00145104
0.00161721
0.00166661
0.00133598
0.00146811
0.0020163
0.00186729
0.00167453
0.00165938
0.0016716
0.00176477
0.00171924
0.00167846
0.00184933
0.00189412
0.00154551
0.00169523
0.00227041
0.00209197
0.00189785
0.00189073
0.00190393
0.00199766
0.00195504
0.00191098
0.00208001
0.00211993
0.0017591
0.00192715
0.00251027
0.00230803
0.00211812
0.00212017
0.00213449
0.00222606
0.00218255
0.00214146
0.0023022
0.00233738
0.00185502
0.00204911
0.0026663
0.00238326
0.00232856
0.00234045
0.00235552
0.00244576
0.00239314
0.00236295
0.00251008
0.0025404
0.00168423
0.00197004
0.00269527
0.00239859
0.00234937
0.00254548
0.00256037
0.0026465
0.00253306
0.00256902
0.00269867
0.00272431
0.0015695
0.00195098
0.00281973
0.00249973
0.00225877
0.00273064
0.00274411
0.00282039