/*--------------------------------*- C++ -*----------------------------------*\
| =========                 |                                                 |
| \\      /  F ield         | OpenFOAM: The Open Source CFD Toolbox           |
|  \\    /   O peration     | Version:  v1912                                 |
|   \\  /    A nd           | Website:  www.openfoam.com                      |
|    \\/     M anipulation  |                                                 |
\*---------------------------------------------------------------------------*/
FoamFile
{
    version     2.0;
    format      ascii;
    class       volVectorField;
    location    "9.2";
    object      U;
}
// * * * * * * * * * * * * * * * * * * * * * * * * * * * * * * * * * * * * * //

dimensions      [0 1 -1 0 0 0 0];


internalField   nonuniform List<vector> 
34128
(
(1.57113e-05 3.6365e-07 -0.00451607)
(1.54789e-05 3.99136e-07 -0.00457449)
(-3.99198e-06 3.12361e-07 -0.00463065)
(-1.81384e-05 2.88196e-07 -0.0046829)
(-1.71286e-05 2.88685e-07 -0.00457065)
(3.43145e-06 2.88914e-07 -0.00447305)
(2.27063e-05 3.24351e-07 -0.00454741)
(2.35255e-05 3.45488e-07 -0.00453485)
(1.18599e-05 3.45317e-07 -0.00445205)
(2.10653e-07 3.39704e-07 -0.00455679)
(3.63963e-06 2.94775e-07 -0.00467976)
(1.40042e-05 2.8166e-07 -0.00462954)
(4.54167e-05 4.41278e-06 -0.0137285)
(4.87482e-05 4.68695e-06 -0.0138935)
(-8.88805e-06 4.35277e-06 -0.0140557)
(-5.44444e-05 4.07164e-06 -0.0142123)
(-5.20515e-05 3.8643e-06 -0.0138894)
(9.41104e-06 3.78258e-06 -0.0136078)
(6.73613e-05 4.14814e-06 -0.0138235)
(7.0618e-05 4.4712e-06 -0.0137798)
(3.54812e-05 4.46779e-06 -0.0135325)
(8.32336e-07 4.23199e-06 -0.0138408)
(1.1432e-05 3.87766e-06 -0.0142079)
(4.17693e-05 3.7681e-06 -0.0140603)
(7.3675e-05 1.2494e-05 -0.0231549)
(8.33815e-05 1.32075e-05 -0.0234094)
(-1.19152e-05 1.24626e-05 -0.0236659)
(-9.1549e-05 1.15951e-05 -0.0239304)
(-8.76214e-05 1.09135e-05 -0.0234183)
(1.51298e-05 1.06578e-05 -0.0229673)
(0.000111295 1.15921e-05 -0.0233137)
(0.000117443 1.26587e-05 -0.0232272)
(5.93628e-05 1.29141e-05 -0.0228141)
(2.25907e-06 1.21056e-05 -0.023322)
(1.95416e-05 1.09072e-05 -0.0239348)
(6.84851e-05 1.069e-05 -0.0236923)
(0.000100392 2.44757e-05 -0.0327437)
(0.000118122 2.58993e-05 -0.0330631)
(-1.4177e-05 2.48385e-05 -0.0333962)
(-0.000129892 2.31059e-05 -0.0337743)
(-0.00012367 2.16066e-05 -0.0331035)
(2.08737e-05 2.10644e-05 -0.0325024)
(0.000153954 2.28486e-05 -0.0329638)
(0.000163155 2.50384e-05 -0.0328188)
(8.34218e-05 2.56197e-05 -0.0322392)
(4.88203e-06 2.39125e-05 -0.032942)
(2.76434e-05 2.15477e-05 -0.0338023)
(9.30999e-05 2.11909e-05 -0.0334678)
(0.000125559 4.01811e-05 -0.0424415)
(0.000151896 4.25471e-05 -0.0427944)
(-1.66293e-05 4.12231e-05 -0.0431804)
(-0.000169837 3.8314e-05 -0.0436797)
(-0.000160137 3.56688e-05 -0.0428889)
(2.67439e-05 3.47468e-05 -0.0421608)
(0.000194819 3.75811e-05 -0.0427168)
(0.000207009 4.13302e-05 -0.0424947)
(0.000107456 4.2495e-05 -0.0417493)
(8.85869e-06 3.95286e-05 -0.0426416)
(3.53452e-05 3.55103e-05 -0.0437491)
(0.000114684 3.50366e-05 -0.0433272)
(0.000149242 5.93408e-05 -0.0521938)
(0.000183797 6.2891e-05 -0.0525437)
(-2.00731e-05 6.14205e-05 -0.0529533)
(-0.000211611 5.70305e-05 -0.0535824)
(-0.000197007 5.29028e-05 -0.0527174)
(3.26716e-05 5.15259e-05 -0.0518883)
(0.000233381 5.55832e-05 -0.0525141)
(0.00024833 6.13067e-05 -0.0521948)
(0.000131143 6.33109e-05 -0.0512876)
(1.4126e-05 5.87362e-05 -0.0523622)
(4.22029e-05 5.26002e-05 -0.0537138)
(0.000132462 5.20412e-05 -0.0532104)
(0.000171553 8.17521e-05 -0.0619475)
(0.000213023 8.67272e-05 -0.0622547)
(-2.51773e-05 8.52324e-05 -0.0626542)
(-0.000255262 7.90334e-05 -0.0634212)
(-0.000234258 7.30848e-05 -0.0625336)
(3.84181e-05 7.12022e-05 -0.0616316)
(0.000269102 7.6617e-05 -0.0622986)
(0.000286487 8.4741e-05 -0.0618621)
(0.000154037 8.7907e-05 -0.0608)
(2.04109e-05 8.13725e-05 -0.0620482)
(4.77354e-05 7.25987e-05 -0.0636364)
(0.000145827 7.19999e-05 -0.0630595)
(0.000192639 0.000107182 -0.0716529)
(0.000238855 0.000113849 -0.0718774)
(-3.24853e-05 0.000112467 -0.07223)
(-0.000300649 0.000104091 -0.0731418)
(-0.00027183 9.59671e-05 -0.0722861)
(4.35899e-05 9.35499e-05 -0.0713407)
(0.000301409 0.000100434 -0.0720175)
(0.000320883 0.0001114 -0.0714456)
(0.000175578 0.000116095 -0.0702388)
(2.72526e-05 0.000107252 -0.0716501)
(5.14421e-05 9.5271e-05 -0.0734624)
(0.000154359 9.46777e-05 -0.0728217)
(0.000212674 0.000135377 -0.0812658)
(0.000260647 0.000144053 -0.0813702)
(-4.24264e-05 0.000142944 -0.0816387)
(-0.000347454 0.000131975 -0.0827)
(-0.000309625 0.000121288 -0.0819314)
(4.76599e-05 0.000118314 -0.0809713)
(0.000329704 0.000126768 -0.0816261)
(0.000350953 0.000141047 -0.0809035)
(0.000195115 0.00014768 -0.0795639)
(3.40306e-05 0.000136181 -0.0811263)
(5.28202e-05 0.000120361 -0.0831454)
(0.000157818 0.000119814 -0.0824519)
(0.000231859 0.000166069 -0.0907497)
(0.000277816 0.000177146 -0.0907023)
(-5.53294e-05 0.00017651 -0.0908517)
(-0.000395205 0.000162481 -0.0920649)
(-0.000347504 0.000148789 -0.0914357)
(4.9993e-05 0.000145216 -0.0904871)
(0.00035337 0.000155344 -0.0910892)
(0.000376166 0.000173456 -0.0902048)
(0.000211922 0.000182474 -0.0887451)
(4.00008e-05 0.000167971 -0.0904453)
(5.13798e-05 0.000147621 -0.09265)
(0.000156135 0.000147147 -0.0919155)
(0.000250405 0.000198991 -0.100077)
(0.000289831 0.000212958 -0.0998527)
(-7.14385e-05 0.000213048 -0.0998531)
(-0.00044331 0.000195454 -0.101219)
(-0.000385298 0.000178235 -0.100776)
(4.98755e-05 0.000173968 -0.0998605)
(0.000371784 0.000185895 -0.100382)
(0.000396012 0.000208421 -0.0993296)
(0.000225224 0.000220304 -0.0977621)
(4.43326e-05 0.000202449 -0.0995858)
(4.66552e-05 0.000176823 -0.101952)
(0.000149386 0.000176431 -0.101189)
(0.000268527 0.000233888 -0.109228)
(0.000296198 0.000251333 -0.10881)
(-9.09279e-05 0.000252468 -0.108638)
(-0.000491075 0.000230775 -0.110157)
(-0.000422815 0.000209421 -0.10994)
(4.65447e-05 0.000204283 -0.109073)
(0.000384321 0.00021816 -0.10949)
(0.000410003 0.000245754 -0.108268)
(0.000234222 0.000261015 -0.106604)
(4.61452e-05 0.000239462 -0.108536)
(3.82126e-05 0.000207779 -0.11104)
(0.000137756 0.000207457 -0.110261)
(0.000286428 0.000270541 -0.118191)
(0.000296451 0.000292145 -0.117569)
(-0.000113914 0.000294709 -0.11721)
(-0.000537724 0.000268372 -0.118884)
(-0.000459843 0.000242168 -0.118923)
(3.92202e-05 0.000235876 -0.118113)
(0.000390367 0.000251901 -0.118406)
(0.000417663 0.000285295 -0.117017)
(0.000238116 0.000304479 -0.115266)
(4.45413e-05 0.000278888 -0.117294)
(2.56549e-05 0.000240355 -0.119912)
(0.000121516 0.000240062 -0.11913)
(0.000304274 0.000308771 -0.12696)
(0.000290148 0.000335291 -0.126131)
(-0.000140456 0.000339725 -0.125577)
(-0.000582399 0.000308194 -0.127407)
(-0.000496135 0.00027632 -0.127725)
(2.71393e-05 0.000268485 -0.126973)
(0.000389324 0.0002869 -0.127128)
(0.000418532 0.000326895 -0.125578)
(0.00023613 0.000350583 -0.123751)
(3.86401e-05 0.000320629 -0.125859)
(8.63121e-06 0.000274462 -0.12857)
(0.000100996 0.00027412 -0.127798)
(0.000322171 0.000348449 -0.135529)
(0.00027687 0.000380681 -0.134495)
(-0.000170553 0.000387463 -0.133744)
(-0.000624164 0.00035019 -0.135733)
(-0.000531405 0.000311725 -0.136344)
(9.60061e-06 0.000301863 -0.135646)
(0.00038064 0.000322959 -0.135654)
(0.000412179 0.000370409 -0.133952)
(0.000227546 0.000399218 -0.132059)
(2.76165e-05 0.000364602 -0.134235)
(-1.31438e-05 0.000310041 -0.137019)
(7.65779e-05 0.000309525 -0.13627)
(0.000340147 0.000389501 -0.143894)
(0.000256246 0.000428247 -0.142661)
(-0.000204133 0.000437864 -0.141719)
(-0.00066204 0.000394299 -0.143866)
(-0.000565327 0.000348236 -0.144776)
(-1.39876e-05 0.000335797 -0.144125)
(0.000363842 0.000359904 -0.143981)
(0.000398228 0.000415701 -0.142139)
(0.00021175 0.000450278 -0.140189)
(1.07463e-05 0.000410734 -0.142423)
(-3.98686e-05 0.000347052 -0.145264)
(4.86913e-05 0.000346178 -0.14455)
(0.000358119 0.000431896 -0.152049)
(0.000227965 0.000477926 -0.150626)
(-0.000241058 0.000490843 -0.149502)
(-0.000695045 0.000440432 -0.151807)
(-0.000597544 0.000385706 -0.153014)
(-4.40521e-05 0.0003701 -0.152403)
(0.000338587 0.000397578 -0.152107)
(0.000376399 0.000462627 -0.150136)
(0.000188288 0.00050365 -0.14814)
(-1.25418e-05 0.000458949 -0.150421)
(-7.16228e-05 0.000385449 -0.153304)
(1.781e-05 0.000383968 -0.152638)
(0.000375867 0.000475631 -0.159986)
(0.000191813 0.000529654 -0.158385)
(-0.000281109 0.00054627 -0.157094)
(-0.000722254 0.000488452 -0.159551)
(-0.000627671 0.000423973 -0.161044)
(-8.07933e-05 0.000404602 -0.160468)
(0.000304708 0.00043582 -0.160024)
(0.000346551 0.00051103 -0.157936)
(0.000156921 0.000559197 -0.155907)
(-4.26073e-05 0.000509149 -0.158226)
(-0.000108332 0.000425148 -0.161136)
(-1.55491e-05 0.000422743 -0.160529)
(0.000393011 0.000520713 -0.167693)
(0.0001477 0.00058335 -0.16593)
(-0.000323991 0.000603955 -0.164492)
(-0.000742866 0.000538168 -0.167089)
(-0.000655314 0.000462865 -0.168851)
(-0.000124123 0.000439136 -0.168305)
(0.00026228 0.000474451 -0.167723)
(0.000308723 0.000560725 -0.165531)
(0.000117685 0.000616749 -0.163481)
(-7.95386e-05 0.000561192 -0.165831)
(-0.000149732 0.000466014 -0.168753)
(-5.0833e-05 0.000462299 -0.168214)
(0.000408992 0.000567144 -0.175153)
(9.56944e-05 0.000638899 -0.173249)
(-0.000369327 0.000663645 -0.171688)
(-0.000756273 0.000589328 -0.174408)
(-0.000680078 0.000502192 -0.176414)
(-0.000173609 0.00047353 -0.175897)
(0.000211672 0.000513266 -0.175187)
(0.000263185 0.000611496 -0.172907)
(7.094e-05 0.000676097 -0.170851)
(-0.0001231 0.000614882 -0.173224)
(-0.000195349 0.000507848 -0.176139)
(-8.7466e-05 0.000502369 -0.175677)
(0.000423066 0.000614915 -0.182348)
(3.60505e-05 0.000696141 -0.180328)
(-0.000416672 0.000725013 -0.178671)
(-0.00076213 0.000641616 -0.181491)
(-0.000701591 0.000541746 -0.183708)
(-0.000228442 0.000507592 -0.183221)
(0.000153586 0.000552022 -0.1824)
(0.000210467 0.000663088 -0.180046)
(1.74086e-05 0.000736978 -0.178)
(-0.000172696 0.000669961 -0.180388)
(-0.000244487 0.000550379 -0.183279)
(-0.000124867 0.00054262 -0.1829)
(0.000434321 0.000664 -0.189256)
(-3.07741e-05 0.000754866 -0.187149)
(-0.000465513 0.000787652 -0.185428)
(-0.000760403 0.000694654 -0.188321)
(-0.000719517 0.000581299 -0.190709)
(-0.000287425 0.000541116 -0.190253)
(8.90771e-05 0.000590445 -0.189339)
(0.000151388 0.000715203 -0.186932)
(-4.1816e-05 0.000799075 -0.184912)
(-0.000227358 0.000726105 -0.187307)
(-0.000296235 0.000593271 -0.190152)
(-0.000162466 0.000582658 -0.189861)
(0.000441701 0.000714353 -0.195856)
(-0.000104109 0.000814812 -0.193695)
(-0.000515285 0.000851072 -0.191945)
(-0.000751395 0.000748004 -0.194876)
(-0.000733573 0.00062061 -0.197391)
(-0.000349003 0.000573878 -0.196967)
(1.9543e-05 0.000628233 -0.195981)
(8.70499e-05 0.000767504 -0.193542)
(-0.000105286 0.000862015 -0.191566)
(-0.000285764 0.000782924 -0.193959)
(-0.000349497 0.000636128 -0.196737)
(-0.00019972 0.000622032 -0.196538)
(0.000444063 0.000765908 -0.202126)
(-0.000183078 0.000875665 -0.199947)
(-0.000565382 0.000914702 -0.198204)
(-0.000735747 0.000801173 -0.201138)
(-0.000743542 0.000659425 -0.203729)
(-0.00041134 0.000605646 -0.203339)
(-5.33221e-05 0.000665067 -0.202304)
(1.88282e-05 0.000819615 -0.199855)
(-0.000171246 0.00092537 -0.197941)
(-0.000346287 0.00083997 -0.200323)
(-0.000403025 0.000678507 -0.203014)
(-0.000236122 0.000660252 -0.202904)
(0.000440238 0.000818579 -0.208049)
(-0.000266609 0.000937055 -0.205889)
(-0.000615166 0.000977895 -0.204189)
(-0.000714408 0.000853617 -0.207085)
(-0.00074929 0.000697483 -0.209701)
(-0.000472415 0.000636194 -0.209346)
(-0.000127596 0.000700618 -0.208286)
(-5.16732e-05 0.000871128 -0.205852)
(-0.000237716 0.000988658 -0.204018)
(-0.000407076 0.000896748 -0.206378)
(-0.000455477 0.00071993 -0.208961)
(-0.000271203 0.000696799 -0.208938)
(0.000429111 0.000872258 -0.213608)
(-0.000353463 0.00099856 -0.211505)
(-0.000663978 0.00103993 -0.20988)
(-0.000688577 0.000904752 -0.212699)
(-0.000750772 0.000734517 -0.215288)
(-0.00053016 0.000665299 -0.214968)
(-0.000201222 0.000734567 -0.213906)
(-0.000122678 0.000921606 -0.211512)
(-0.000302587 0.00105135 -0.209775)
(-0.000466149 0.000952726 -0.212104)
(-0.000505475 0.000759903 -0.214559)
(-0.00030453 0.000731145 -0.214616)
(0.000409708 0.000926806 -0.218792)
(-0.000442258 0.00105971 -0.21678)
(-0.00071114 0.00110004 -0.215262)
(-0.000659624 0.000953963 -0.217964)
(-0.000748044 0.000770258 -0.220476)
(-0.000582598 0.000692756 -0.22019)
(-0.000272116 0.000766601 -0.219149)
(-0.000192311 0.000970593 -0.21682)
(-0.000363742 0.00111289 -0.215195)
(-0.000521515 0.00100735 -0.217482)
(-0.000551667 0.000797928 -0.219791)
(-0.000335697 0.000762764 -0.219919)
(0.000381274 0.000982052 -0.223594)
(-0.000531512 0.00111998 -0.221704)
(-0.000755965 0.00115739 -0.220316)
(-0.000628992 0.00100062 -0.222866)
(-0.000741264 0.000804439 -0.225256)
(-0.000627982 0.000718375 -0.225001)
(-0.000338277 0.000796432 -0.224)
(-0.000258683 0.00101762 -0.221761)
(-0.000419177 0.0011727 -0.220261)
(-0.000571279 0.00106007 -0.222497)
(-0.000592792 0.000833519 -0.224643)
(-0.00036432 0.000791156 -0.22483)
(0.00034335 0.00103778 -0.228009)
(-0.000619674 0.00117882 -0.226269)
(-0.000797758 0.00121114 -0.225029)
(-0.000598103 0.00104409 -0.227394)
(-0.000730693 0.000836787 -0.229624)
(-0.000664912 0.000741984 -0.229396)
(-0.000397894 0.000823796 -0.228452)
(-0.000319975 0.00106222 -0.226324)
(-0.000467109 0.00123018 -0.224962)
(-0.000613756 0.00111034 -0.227135)
(-0.000627738 0.000866227 -0.229105)
(-0.000390023 0.000815864 -0.229338)
(0.00029583 0.00109374 -0.232039)
(-0.00070517 0.00123562 -0.230469)
(-0.000835821 0.00126044 -0.229388)
(-0.000568255 0.00108375 -0.231541)
(-0.00071669 0.000867036 -0.23358)
(-0.000692429 0.000763431 -0.233375)
(-0.00044945 0.000848462 -0.232498)
(-0.000374528 0.00110393 -0.230503)
(-0.000506077 0.00128475 -0.229289)
(-0.000647554 0.00115765 -0.231389)
(-0.000655585 0.000895645 -0.233169)
(-0.000412434 0.00083649 -0.233433)
(0.000238994 0.0011496 -0.235687)
(-0.000786441 0.00128977 -0.234303)
(-0.000869463 0.00130445 -0.233383)
(-0.000540541 0.00111902 -0.235304)
(-0.000699701 0.000894918 -0.237133)
(-0.00071007 0.000782577 -0.236943)
(-0.000491792 0.00087023 -0.236141)
(-0.00042092 0.00114231 -0.234295)
(-0.000535005 0.00133585 -0.233235)
(-0.000671641 0.00120152 -0.235254)
(-0.000675643 0.000921433 -0.236835)
(-0.000431182 0.000852717 -0.237115)
(0.000173525 0.00120501 -0.238962)
(-0.000861986 0.00134061 -0.237771)
(-0.000898008 0.00134241 -0.237007)
(-0.000515788 0.00114938 -0.238685)
(-0.000680244 0.000920173 -0.240291)
(-0.000717878 0.000799304 -0.24011)
(-0.000524191 0.000888936 -0.239385)
(-0.000458032 0.00117694 -0.237703)
(-0.000553244 0.00138295 -0.236802)
(-0.000685381 0.00124156 -0.23873)
(-0.000687467 0.000943327 -0.240106)
(-0.000445902 0.000864321 -0.240386)
(0.000100489 0.00125952 -0.241875)
(-0.000930401 0.00138751 -0.24088)
(-0.000920814 0.0013736 -0.240259)
(-0.000494511 0.00117436 -0.241691)
(-0.000658885 0.000942547 -0.243072)
(-0.000716376 0.000813505 -0.24289)
(-0.000546364 0.000904456 -0.242241)
(-0.0004851 0.00120745 -0.240732)
(-0.000560578 0.00142562 -0.239992)
(-0.00068854 0.00127744 -0.241823)
(-0.000690865 0.000961149 -0.24299)
(-0.000456246 0.000871178 -0.243256)
(2.12947e-05 0.00131266 -0.244441)
(-0.000990419 0.00142984 -0.243636)
(-0.000937288 0.00139745 -0.243143)
(-0.000476901 0.0011936 -0.24433)
(-0.000636217 0.000961803 -0.245493)
(-0.000706503 0.000825091 -0.245304)
(-0.000558471 0.000916699 -0.244724)
(-0.000501742 0.00123352 -0.243394)
(-0.000557206 0.00146344 -0.242815)
(-0.000681268 0.00130892 -0.244542)
(-0.00068589 0.000974814 -0.245502)
(-0.000461897 0.000873275 -0.24574)
(-6.23623e-05 0.00136392 -0.246678)
(-0.00104094 0.001467 -0.246051)
(-0.000946913 0.0014135 -0.245664)
(-0.000462845 0.00120686 -0.246619)
(-0.000612835 0.000977724 -0.247577)
(-0.000689526 0.000833985 -0.247373)
(-0.000561085 0.000925609 -0.246855)
(-0.000507974 0.00125489 -0.245704)
(-0.000543692 0.00149613 -0.245282)
(-0.000664058 0.00133585 -0.246902)
(-0.000672815 0.000984326 -0.247659)
(-0.00046259 0.000870697 -0.247857)
(-0.00014857 0.00141273 -0.248605)
(-0.00108108 0.00149846 -0.248141)
(-0.000949278 0.00142146 -0.247837)
(-0.000451957 0.00121399 -0.248577)
(-0.000589309 0.000990121 -0.249347)
(-0.000666934 0.000840123 -0.249123)
(-0.000555141 0.000931161 -0.248657)
(-0.000504201 0.00127138 -0.247681)
(-0.000520913 0.00152348 -0.247412)
(-0.00063769 0.00135817 -0.248923)
(-0.000652117 0.000989773 -0.249484)
(-0.000458139 0.000863625 -0.249633)
(-0.00023528 0.00145854 -0.250243)
(-0.00111018 0.00152373 -0.249923)
(-0.000944111 0.0014212 -0.249678)
(-0.00044364 0.00121497 -0.250224)
(-0.000566163 0.000998855 -0.250829)
(-0.000640335 0.000843459 -0.250581)
(-0.000541877 0.000933355 -0.250157)
(-0.000491197 0.00128285 -0.249348)
(-0.000489985 0.00154535 -0.249224)
(-0.000603176 0.0013759 -0.250627)
(-0.000624444 0.000991315 -0.251004)
(-0.000448461 0.000852332 -0.251096)
(-0.000320411 0.0015008 -0.251615)
(-0.00112786 0.00154246 -0.251417)
(-0.000931325 0.00141279 -0.25121)
(-0.000437156 0.00120995 -0.251587)
(-0.000543863 0.00100388 -0.252052)
(-0.000611353 0.000844022 -0.251777)
(-0.000522763 0.000932272 -0.251383)
(-0.000470078 0.00128929 -0.25073)
(-0.000452209 0.00156173 -0.250744)
(-0.0005617 0.00138917 -0.25204)
(-0.000590595 0.000989215 -0.252246)
(-0.000433617 0.000837221 -0.252276)
(-0.0004021 0.00153901 -0.252746)
(-0.00113408 0.0015544 -0.252646)
(-0.000911063 0.00139656 -0.252458)
(-0.000431702 0.00119924 -0.252692)
(-0.000522787 0.00100523 -0.253042)
(-0.000581501 0.0008419 -0.25274)
(-0.00049938 0.000928057 -0.252367)
(-0.000442292 0.00129078 -0.251855)
(-0.000409018 0.00157273 -0.251995)
(-0.000514584 0.00139821 -0.253189)
(-0.000551517 0.000983835 -0.253241)
(-0.000413843 0.000818802 -0.253205)
(-0.000478603 0.00157273 -0.253663)
(-0.00112907 0.00155945 -0.253638)
(-0.000883708 0.00137302 -0.253451)
(-0.000426507 0.00118329 -0.25357)
(-0.000503215 0.00100303 -0.25383)
(-0.000552035 0.000837206 -0.253505)
(-0.000473222 0.000920852 -0.253143)
(-0.000409348 0.00128749 -0.252754)
(-0.00036195 0.00157852 -0.253007)
(-0.000463188 0.00140331 -0.254106)
(-0.000508187 0.000975552 -0.254022)
(-0.000389522 0.00079757 -0.253922)
(-0.000548244 0.00160148 -0.254388)
(-0.00111333 0.00155758 -0.254419)
(-0.000849831 0.00134277 -0.254222)
(-0.000420912 0.00116259 -0.254252)
(-0.000485347 0.00099742 -0.254445)
(-0.000523995 0.000830067 -0.2541)
(-0.00044572 0.000910818 -0.253743)
(-0.000372792 0.00127961 -0.253458)
(-0.000312403 0.0015794 -0.25381)
(-0.00040882 0.00140483 -0.254824)
(-0.000461586 0.000964752 -0.254624)
(-0.000361169 0.000774023 -0.25446)
(-0.000609677 0.00162486 -0.254945)
(-0.00108769 0.00154886 -0.255015)
(-0.000810264 0.00130655 -0.254802)
(-0.000414384 0.00113773 -0.254768)
(-0.0004693 0.000988604 -0.254911)
(-0.000498198 0.000820615 -0.254552)
(-0.00041821 0.000898114 -0.254196)
(-0.00033433 0.0012674 -0.253998)
(-0.000261694 0.00157568 -0.254435)
(-0.000352785 0.00140309 -0.255371)
(-0.000412771 0.00095182 -0.255075)
(-0.000329478 0.00074868 -0.25485)
(-0.000661991 0.00164262 -0.255358)
(-0.0010533 0.00153352 -0.255451)
(-0.000766071 0.00126523 -0.255222)
(-0.000406569 0.00110937 -0.255144)
(-0.000455102 0.000976824 -0.255255)
(-0.000475172 0.000808988 -0.254888)
(-0.000391764 0.000882902 -0.25453)
(-0.00029555 0.00125113 -0.2544)
(-0.000211173 0.00156768 -0.25491)
(-0.000296328 0.00139846 -0.255777)
(-0.000362751 0.000937114 -0.255404)
(-0.00029523 0.000722018 -0.255121)
(-0.000704723 0.00165458 -0.255651)
(-0.0010115 0.0015119 -0.255753)
(-0.00071844 0.00121968 -0.255511)
(-0.000397311 0.00107815 -0.255408)
(-0.000442709 0.000962375 -0.255498)
(-0.000455177 0.000795355 -0.255129)
(-0.000367173 0.000865369 -0.254769)
(-0.000257826 0.00123111 -0.254691)
(-0.00016199 0.00155578 -0.255261)
(-0.00024055 0.00139127 -0.256069)
(-0.000312457 0.000920978 -0.255635)
(-0.000259253 0.000694481 -0.255298)
(-0.000737817 0.00166065 -0.255844)
(-0.000963765 0.00148441 -0.255947)
(-0.000668603 0.00117081 -0.255696)
(-0.000386628 0.00104473 -0.255582)
(-0.000432016 0.000945574 -0.25566)
(-0.00043824 0.000779903 -0.255296)
(-0.000344949 0.000845707 -0.254933)
(-0.000222276 0.00120767 -0.254893)
(-0.000115091 0.00154035 -0.255511)
(-0.000186388 0.00138187 -0.25627)
(-0.000262702 0.00090371 -0.25579)
(-0.000222348 0.000666461 -0.255404)
(-0.000761583 0.00166084 -0.255958)
(-0.000911588 0.00145156 -0.256054)
(-0.000617754 0.00111948 -0.2558)
(-0.000374685 0.00100972 -0.255686)
(-0.000422879 0.000926746 -0.255759)
(-0.000424209 0.000762822 -0.255406)
(-0.000325342 0.000824109 -0.255042)
(-0.000189716 0.00118113 -0.255028)
(-7.12049e-05 0.00152172 -0.255684)
(-0.000134581 0.00137055 -0.2564)
(-0.000214153 0.000885561 -0.255887)
(-0.000185232 0.00063829 -0.255455)
(-0.000776619 0.00165521 -0.256007)
(-0.000856364 0.00141386 -0.256094)
(-0.00056695 0.00106646 -0.255845)
(-0.000361742 0.000973651 -0.255737)
(-0.000415139 0.000906199 -0.255809)
(-0.000412811 0.000744296 -0.25547)
(-0.00030838 0.000800761 -0.255108)
(-0.000160647 0.00115177 -0.25511)
(-3.08318e-05 0.00150022 -0.255795)
(-8.56674e-05 0.00135753 -0.256477)
(-0.000167318 0.000866725 -0.25594)
(-0.0001485 0.000610234 -0.255465)
(-0.000783716 0.00164389 -0.256007)
(-0.000799304 0.00137185 -0.256082)
(-0.000517049 0.00101245 -0.255844)
(-0.000348109 0.00093697 -0.255748)
(-0.000408636 0.000884212 -0.255821)
(-0.000403717 0.00072449 -0.255502)
(-0.000293915 0.000775834 -0.255142)
(-0.000135262 0.00111988 -0.255154)
(5.74325e-06 0.0014761 -0.25586)
(-3.99981e-05 0.00134303 -0.256514)
(-0.000122569 0.000847337 -0.255959)
(-0.000112623 0.000582495 -0.255444)
(-0.000783745 0.00162702 -0.255969)
(-0.000741382 0.00132602 -0.256031)
(-0.000468678 0.000958004 -0.255812)
(-0.000334106 0.000900042 -0.255729)
(-0.000403234 0.000861023 -0.255804)
(-0.000396583 0.000703547 -0.255507)
(-0.000281682 0.00074948 -0.255153)
(-0.000113494 0.00108566 -0.255168)
(3.84154e-05 0.00144958 -0.25589)
(2.22353e-06 0.00132715 -0.256521)
(-8.01851e-05 0.000827482 -0.255955)
(-7.79623e-05 0.000555222 -0.255399)
(-0.000777563 0.00160478 -0.255901)
(-0.000683318 0.00127684 -0.255951)
(-0.000422239 0.000903633 -0.255756)
(-0.000320043 0.000863192 -0.255688)
(-0.00039883 0.00083684 -0.255765)
(-0.000391088 0.000681585 -0.255493)
(-0.00027135 0.000721824 -0.255147)
(-9.50663e-05 0.00104932 -0.255161)
(6.72154e-05 0.00142081 -0.255893)
(4.08927e-05 0.00131 -0.256507)
(-4.03939e-05 0.000807203 -0.255931)
(-4.48075e-05 0.000528462 -0.255334)
(-0.000765931 0.00157725 -0.255809)
(-0.000625617 0.00122452 -0.25585)
(-0.000377973 0.000849565 -0.255682)
(-0.000306196 0.000826655 -0.255631)
(-0.000395354 0.000811873 -0.255708)
(-0.00038695 0.000658697 -0.255463)
(-0.000262557 0.000692968 -0.255127)
(-7.95623e-05 0.00101101 -0.255138)
(9.22682e-05 0.00138994 -0.255877)
(7.5956e-05 0.0012916 -0.256477)
(-3.42867e-06 0.000786521 -0.255892)
(-1.34615e-05 0.000502106 -0.255255)
(-0.000749476 0.00154441 -0.2557)
(-0.000568747 0.00117011 -0.255732)
(-0.000336094 0.000795982 -0.255596)
(-0.000292811 0.000790561 -0.255561)
(-0.000392774 0.00078621 -0.255638)
(-0.000383939 0.000634956 -0.25542)
(-0.000254941 0.000662989 -0.255097)
(-6.64811e-05 0.000970875 -0.255103)
(0.000113763 0.00135708 -0.255846)
(0.000107367 0.00127197 -0.256435)
(3.04237e-05 0.000765363 -0.25584)
(1.5652e-05 0.0004765 -0.255164)
(-0.000728699 0.00150704 -0.255576)
(-0.000512648 0.00111361 -0.255601)
(-0.000296917 0.000743644 -0.2555)
(-0.000280116 0.000755009 -0.255481)
(-0.000391062 0.000759867 -0.255555)
(-0.000381868 0.000610423 -0.255366)
(-0.000248149 0.000631938 -0.255059)
(-5.52886e-05 0.000929006 -0.255059)
(0.000131937 0.00132231 -0.255804)
(0.000135043 0.00125112 -0.256384)
(6.08654e-05 0.000743601 -0.255778)
(4.20367e-05 0.000451408 -0.255063)
(-0.000703634 0.00146449 -0.255438)
(-0.000457287 0.00105428 -0.255457)
(-0.000260547 0.000692372 -0.255398)
(-0.000268379 0.000720097 -0.255395)
(-0.000390128 0.000732782 -0.255462)
(-0.000380567 0.000585083 -0.255302)
(-0.000241857 0.000599843 -0.255014)
(-4.55413e-05 0.000885414 -0.255007)
(0.000146935 0.00128567 -0.255752)
(0.000158818 0.00122904 -0.256327)
(8.76447e-05 0.000721401 -0.255708)
(6.49415e-05 0.000426487 -0.254954)
(-0.000674033 0.00141613 -0.255285)
(-0.000403646 0.00099331 -0.255305)
(-0.000227331 0.000641808 -0.25529)
(-0.000257957 0.00068589 -0.255304)
(-0.000389788 0.000705182 -0.255362)
(-0.000379829 0.000558882 -0.255231)
(-0.000235795 0.000566715 -0.254965)
(-3.69869e-05 0.000840184 -0.25495)
(0.000158782 0.00124719 -0.255692)
(0.000178461 0.00120575 -0.256264)
(0.000110228 0.000698607 -0.255631)
(8.33719e-05 0.000402231 -0.254841)
(-0.000640331 0.00136322 -0.255123)
(-0.000352908 0.000931798 -0.255153)
(-0.000198159 0.000592786 -0.255181)
(-0.000249177 0.000652584 -0.255212)
(-0.000389979 0.000676974 -0.255256)
(-0.0003794 0.000531792 -0.255153)
(-0.000229758 0.000532543 -0.254912)
(-2.94165e-05 0.000793484 -0.25489)
(0.000167415 0.00120691 -0.255627)
(0.000193701 0.00118125 -0.256196)
(0.000127648 0.000674943 -0.255546)
(9.66097e-05 0.000378893 -0.254728)
(-0.000603248 0.00130619 -0.254959)
(-0.000305937 0.000870152 -0.255006)
(-0.000173753 0.000545824 -0.255075)
(-0.000242202 0.000620141 -0.255121)
(-0.0003907 0.000647965 -0.255147)
(-0.00037903 0.000503902 -0.25507)
(-0.000223567 0.00049733 -0.254856)
(-2.2457e-05 0.000745542 -0.254829)
(0.000172711 0.00116508 -0.255558)
(0.000204274 0.00115558 -0.256125)
(0.000139174 0.000650698 -0.255457)
(0.000104325 0.00035639 -0.25462)
(-0.000563613 0.00124536 -0.254798)
(-0.000263294 0.000808807 -0.254867)
(-0.000154429 0.000500992 -0.254975)
(-0.000237161 0.000588626 -0.255032)
(-0.000391753 0.000618557 -0.255035)
(-0.000378552 0.000475147 -0.254984)
(-0.000217038 0.00046107 -0.254799)
(-1.55256e-05 0.000696233 -0.254767)
(0.000174668 0.0011218 -0.255486)
(0.000209934 0.00112879 -0.256052)
(0.000144424 0.000626082 -0.255365)
(0.00010653 0.000334602 -0.254519)
(-0.000522268 0.0011812 -0.254644)
(-0.000225291 0.000748239 -0.254739)
(-0.000140175 0.000458284 -0.254883)
(-0.000234156 0.000558299 -0.254947)
(-0.000392875 0.00058904 -0.254925)
(-0.000377801 0.000445358 -0.254895)
(-0.000210007 0.000423756 -0.254742)
(-8.43481e-06 0.000645772 -0.254707)
(0.000173293 0.00107709 -0.255414)
(0.000210455 0.00110099 -0.255977)
(0.000143161 0.000601115 -0.255274)
(0.000103535 0.00031335 -0.254426)
(-0.000479985 0.00111416 -0.254499)
(-0.000192038 0.000688867 -0.254624)
(-0.000130743 0.00041799 -0.2548)
(-0.000233139 0.000529091 -0.254867)
(-0.00039385 0.000559478 -0.254819)
(-0.000376461 0.000414645 -0.254805)
(-0.000202386 0.000385397 -0.254685)
(-1.43446e-06 0.000594681 -0.254649)
(0.000168487 0.00103136 -0.255342)
(0.000205693 0.00107227 -0.255902)
(0.000135279 0.000575788 -0.255184)
(9.59269e-05 0.000292452 -0.254342)
(-0.000437413 0.00104473 -0.254366)
(-0.000163453 0.000631003 -0.254522)
(-0.000125712 0.000379999 -0.254727)
(-0.000233974 0.000500857 -0.254793)
(-0.000394507 0.000529883 -0.254719)
(-0.00037416 0.000383093 -0.254716)
(-0.000194127 0.000346036 -0.254629)
(5.2959e-06 0.000543062 -0.254595)
(0.000160225 0.000984969 -0.255272)
(0.000195637 0.00104278 -0.255828)
(0.000120858 0.000550071 -0.255098)
(8.43513e-05 0.000271766 -0.254268)
(-0.000395042 0.00097334 -0.254244)
(-0.000139251 0.00057481 -0.254433)
(-0.000124725 0.000343838 -0.254661)
(-0.000236536 0.000473482 -0.254724)
(-0.000394664 0.000500468 -0.254627)
(-0.000370595 0.000350848 -0.254631)
(-0.000185206 0.000305742 -0.254575)
(1.14775e-05 0.000491206 -0.254546)
(0.000148623 0.00093819 -0.255206)
(0.000180427 0.00101262 -0.255754)
(0.000100202 0.000523917 -0.255016)
(6.89252e-05 0.00025084 -0.254203)
(-0.000353207 0.000900418 -0.254136)
(-0.000118968 0.00052045 -0.254356)
(-0.00012749 0.000309453 -0.254602)
(-0.000240733 0.00044682 -0.25466)
(-0.000394275 0.000471132 -0.254541)
(-0.000365677 0.000317743 -0.25455)
(-0.000175656 0.000264606 -0.254523)
(1.68186e-05 0.00043946 -0.254501)
(0.000133902 0.000891466 -0.255145)
(0.00016037 0.00098191 -0.255682)
(7.38568e-05 0.00049725 -0.254938)
(4.95939e-05 0.000229228 -0.254145)
(-0.0003121 0.000826364 -0.25404)
(-0.000102056 0.000468551 -0.254291)
(-0.000133702 0.000276776 -0.25455)
(-0.000246534 0.000420704 -0.254603)
(-0.0003934 0.00044156 -0.254463)
(-0.000359387 0.000283639 -0.254473)
(-0.000165612 0.000222738 -0.254474)
(2.1194e-05 0.000387928 -0.254462)
(0.000116403 0.000844967 -0.255089)
(0.000135922 0.000950767 -0.255613)
(4.26048e-05 0.000470009 -0.254866)
(2.67559e-05 0.00020675 -0.254095)
(-0.000271725 0.000751586 -0.253957)
(-8.82225e-05 0.000418742 -0.254237)
(-0.000143115 0.000245681 -0.254505)
(-0.000253952 0.000394941 -0.254551)
(-0.000392111 0.000411712 -0.25439)
(-0.000351703 0.00024868 -0.2544)
(-0.000155281 0.000180262 -0.254427)
(2.44477e-05 0.000336795 -0.254428)
(9.64199e-05 0.000798773 -0.255038)
(0.000107638 0.000919291 -0.255547)
(7.45861e-06 0.000442134 -0.254801)
(9.82114e-07 0.000183162 -0.254052)
(-0.000231833 0.000676478 -0.253886)
(-7.74534e-05 0.000370787 -0.25419)
(-0.000155583 0.000216068 -0.254466)
(-0.000263021 0.000369335 -0.254505)
(-0.000390526 0.000381449 -0.254324)
(-0.000342708 0.000212853 -0.254332)
(-0.000144963 0.000137312 -0.254382)
(2.62158e-05 0.000286342 -0.254398)
(7.41482e-05 0.000753271 -0.254992)
(7.61594e-05 0.000887562 -0.255485)
(-3.03584e-05 0.000413576 -0.254742)
(-2.70333e-05 0.000158265 -0.254017)
(-0.000192143 0.000601485 -0.253828)
(-6.95476e-05 0.000325356 -0.254151)
(-0.000171012 0.000187856 -0.254434)
(-0.000273765 0.000343687 -0.254465)
(-0.00038884 0.000350585 -0.254265)
(-0.000332597 0.000176132 -0.254268)
(-0.000135057 9.40474e-05 -0.254342)
(2.59908e-05 0.000236784 -0.254373)
(4.97755e-05 0.00070864 -0.254952)
(4.2189e-05 0.000855609 -0.255427)
(-6.94612e-05 0.000384291 -0.25469)
(-5.64923e-05 0.000131909 -0.253991)