/*--------------------------------*- C++ -*----------------------------------*\
| =========                 |                                                 |
| \\      /  F ield         | OpenFOAM: The Open Source CFD Toolbox           |
|  \\    /   O peration     | Version:  v1912                                 |
|   \\  /    A nd           | Website:  www.openfoam.com                      |
|    \\/     M anipulation  |                                                 |
\*---------------------------------------------------------------------------*/
FoamFile
{
    version     2.0;
    format      ascii;
    class       volVectorField;
    location    "9.2";
    object      wallShearStress;
}
// * * * * * * * * * * * * * * * * * * * * * * * * * * * * * * * * * * * * * //

dimensions      [1 -1 -2 0 0 0 0];


internalField   uniform (0 0 0);

boundaryField
{
    leftWall
    {
        type            calculated;
        value           nonuniform List<vector> 
216
(
(-0.000669142 -5.09866e-05 0.192332)
(-0.000659308 -5.82146e-05 0.199943)
(-0.000685076 -6.31401e-05 0.208214)
(-0.000748667 -6.74582e-05 0.215965)
(-0.000889304 -7.02881e-05 0.22434)
(-0.00102988 -7.49339e-05 0.23213)
(-0.00116336 -8.14938e-05 0.241714)
(-0.00119419 -9.36254e-05 0.252005)
(-0.00125333 -0.000111306 0.266116)
(-0.00128826 -0.000133929 0.281892)
(-0.00128219 -0.000157156 0.301853)
(-0.00106795 -0.000186541 0.322043)
(-0.00106839 -0.00023029 0.348091)
(-0.00140848 -0.000314913 0.377678)
(-0.00171451 -0.000454085 0.433721)
(-0.00273372 -0.0009556 0.497669)
(-0.00739117 -0.0058145 0.722576)
(0.00467127 -0.118272 1.88249)
(-0.000659204 -5.42217e-05 0.19482)
(-0.000401659 -5.91352e-05 0.201051)
(-9.9493e-05 -6.35536e-05 0.207789)
(0.00018205 -6.82877e-05 0.214489)
(0.000358306 -7.30675e-05 0.222018)
(0.000335204 -8.02079e-05 0.229591)
(5.60412e-05 -8.96831e-05 0.239171)
(-0.000401208 -0.000102903 0.249903)
(-0.000833518 -0.000116868 0.264324)
(-0.000828687 -0.000131592 0.280127)
(-0.000184657 -0.000146885 0.299536)
(0.000812268 -0.000175459 0.319703)
(0.00113311 -0.000227334 0.347016)
(0.000466267 -0.000327648 0.377395)
(-0.000438948 -0.000489314 0.430346)
(-0.00160626 -0.00101144 0.490081)
(-0.00433778 -0.00589395 0.720601)
(0.00105007 -0.112377 1.87965)
(0.000170053 -4.76264e-05 0.197212)
(0.000404011 -4.94572e-05 0.202159)
(0.000629273 -5.16097e-05 0.207882)
(0.000778047 -5.69037e-05 0.214145)
(0.000819118 -6.3372e-05 0.222212)
(0.000635387 -7.26108e-05 0.23128)
(0.000238072 -8.24244e-05 0.24296)
(-0.000324874 -9.32875e-05 0.255555)
(-0.000799305 -0.000103161 0.270884)
(-0.000890548 -0.000113537 0.286431)
(-0.000523694 -0.000129099 0.305079)
(1.5237e-05 -0.000161843 0.324934)
(0.000407116 -0.000215357 0.352312)
(0.00091454 -0.000306328 0.382604)
(0.00101556 -0.000459104 0.434859)
(-0.00101858 -0.0009892 0.493547)
(-0.00277212 -0.0059107 0.720846)
(-0.0136565 -0.114942 1.88747)
(0.000772495 -4.38149e-05 0.199437)
(0.000878248 -4.55605e-05 0.204964)
(0.000888735 -4.89596e-05 0.211726)
(0.000758644 -5.62511e-05 0.21872)
(0.000478377 -6.48955e-05 0.227457)
(-1.74268e-05 -7.59574e-05 0.236307)
(-0.000644815 -8.62734e-05 0.247166)
(-0.00128261 -9.70973e-05 0.257924)
(-0.00159 -0.000108637 0.271028)
(-0.0013631 -0.000123638 0.284365)
(-0.000573983 -0.000143037 0.301768)
(0.000191653 -0.000170345 0.321316)
(0.000503147 -0.000209186 0.348534)
(0.000581224 -0.000292745 0.378913)
(0.00056543 -0.000462389 0.432617)
(-0.000672151 -0.000997426 0.491424)
(-0.0015711 -0.00587526 0.712285)
(-0.00539395 -0.12249 1.89639)
(0.000729477 -4.24519e-05 0.194657)
(0.000660181 -4.67934e-05 0.201836)
(0.000592787 -5.14468e-05 0.210799)
(0.000608931 -5.9378e-05 0.219134)
(0.000726029 -6.85639e-05 0.228896)
(0.000812366 -8.1285e-05 0.237241)
(0.000764191 -9.35479e-05 0.247092)
(0.000480172 -0.00010539 0.255713)
(0.00017288 -0.000115657 0.266898)
(-3.13497e-05 -0.000128675 0.278472)
(1.81262e-05 -0.000144156 0.295856)
(8.4165e-05 -0.000166231 0.316906)
(1.24811e-05 -0.000198704 0.346948)
(0.000149095 -0.000278279 0.379004)
(0.00116629 -0.000435205 0.43321)
(0.00177929 -0.00095468 0.492708)
(-0.00158317 -0.00592502 0.715809)
(-0.00372651 -0.116279 1.90042)
(-0.000146153 -4.21106e-05 0.1905)
(-0.000257585 -4.92533e-05 0.198432)
(-0.000219785 -5.43753e-05 0.208106)
(8.4007e-05 -5.92848e-05 0.21664)
(0.000645649 -6.24178e-05 0.226851)
(0.00129893 -6.84129e-05 0.235548)
(0.00181248 -7.67669e-05 0.246416)
(0.00188414 -9.00467e-05 0.256256)
(0.00150678 -0.000105275 0.26943)
(0.000678453 -0.000124305 0.282697)
(-0.000342434 -0.000146815 0.30098)
(-0.00120299 -0.00017839 0.320732)
(-0.00155838 -0.000218623 0.348465)
(-0.00147522 -0.000288141 0.378703)
(-0.00171376 -0.000414607 0.433036)
(-0.00239439 -0.000923961 0.49345)
(-0.00276661 -0.00600166 0.7148)
(-0.0104187 -0.110787 1.89992)
(-0.000967048 -4.63051e-05 0.193667)
(-0.000846729 -5.21083e-05 0.200843)
(-0.000593936 -5.55136e-05 0.209489)
(-0.000188881 -5.82924e-05 0.21719)
(0.000335151 -5.90045e-05 0.226791)
(0.000872513 -6.23497e-05 0.235523)
(0.00124805 -6.86829e-05 0.246871)
(0.0012338 -8.22751e-05 0.257916)
(0.000882889 -0.000100098 0.272608)
(0.000407109 -0.000122888 0.287385)
(0.000188324 -0.000149005 0.305851)
(0.000271884 -0.000185474 0.323879)
(0.000228479 -0.000235054 0.348629)
(-0.000607987 -0.000314701 0.377034)
(-0.00234717 -0.000450829 0.431121)
(-0.00288669 -0.000957937 0.4912)
(-0.000750944 -0.00587577 0.708862)
(-0.00822881 -0.118244 1.88547)
(-0.00100192 -4.99344e-05 0.193132)
(-0.000830034 -5.29079e-05 0.199311)
(-0.000587325 -5.5385e-05 0.206987)
(-0.000239915 -5.99301e-05 0.214328)
(0.00016031 -6.39848e-05 0.223616)
(0.000559018 -7.0238e-05 0.232711)
(0.00078342 -7.69945e-05 0.244374)
(0.000728805 -8.90275e-05 0.256041)
(0.000495695 -0.000104607 0.270616)
(0.000463159 -0.000127019 0.28501)
(0.000871188 -0.000153423 0.302722)
(0.00143979 -0.000188554 0.321066)
(0.0012622 -0.000232623 0.347008)
(-0.000211164 -0.000307985 0.376949)
(-0.00205122 -0.000449167 0.431693)
(-0.0010843 -0.000968945 0.49279)
(0.00248365 -0.0059448 0.71058)
(0.0122564 -0.118527 1.89604)
(-0.000505091 -5.03271e-05 0.189606)
(-0.000548494 -5.27438e-05 0.195406)
(-0.000510505 -5.55001e-05 0.202624)
(-0.000296171 -6.07847e-05 0.210044)
(-1.82949e-05 -6.65907e-05 0.219318)
(0.000288395 -7.45326e-05 0.228788)
(0.00048565 -8.34847e-05 0.240527)
(0.000642873 -9.57587e-05 0.252293)
(0.000839308 -0.000108883 0.266474)
(0.0013384 -0.000125191 0.280628)
(0.00213049 -0.000146292 0.298415)
(0.00273826 -0.000179412 0.317775)
(0.00229471 -0.00022616 0.344985)
(7.50354e-05 -0.000308363 0.37538)
(-0.0031138 -0.000458955 0.429012)
(-0.00237166 -0.000980466 0.490029)
(0.00421645 -0.00591222 0.715041)
(0.0352949 -0.116878 1.89708)
(-8.95251e-06 -4.80876e-05 0.194066)
(-0.000165731 -5.2982e-05 0.200195)
(-0.000237104 -5.75571e-05 0.20736)
(-0.000121253 -6.32665e-05 0.21458)
(9.35477e-05 -6.86562e-05 0.223414)
(0.000392004 -7.59653e-05 0.232312)
(0.000678027 -8.33424e-05 0.243249)
(0.000963519 -9.21384e-05 0.254156)
(0.00117804 -0.000100177 0.267655)
(0.00143494 -0.000110935 0.281745)
(0.00177485 -0.00012455 0.300428)
(0.0020437 -0.000152386 0.321416)
(0.0017822 -0.000199503 0.350343)
(0.000553479 -0.000299266 0.381237)
(-0.00132615 -0.000480086 0.432992)
(-0.000895963 -0.00101211 0.488962)
(0.00198005 -0.00586411 0.717201)
(0.0294266 -0.114745 1.89864)
(-0.000154984 -4.29667e-05 0.199303)
(-0.000114415 -4.81213e-05 0.205893)
(-1.81625e-05 -5.23164e-05 0.213299)
(0.000175472 -5.74015e-05 0.220391)
(0.000417691 -6.27128e-05 0.229071)
(0.00070435 -7.0673e-05 0.237739)
(0.000967524 -7.84831e-05 0.248729)
(0.00113799 -8.65686e-05 0.259849)
(0.00111162 -9.43162e-05 0.273864)
(0.000899486 -0.000105594 0.288362)
(0.000557209 -0.000122703 0.307145)
(0.000269793 -0.000153878 0.327471)
(-1.90983e-06 -0.000200693 0.355009)
(-0.00019819 -0.000291478 0.384059)
(-0.000106975 -0.000464273 0.43456)
(0.000954061 -0.00101388 0.491223)
(-0.00137488 -0.00582341 0.725174)
(-0.00472131 -0.115891 1.89842)
(-0.000596413 -4.15118e-05 0.197165)
(-0.000376833 -4.54739e-05 0.203561)
(-0.000174331 -4.90717e-05 0.211227)
(-3.92952e-07 -5.45146e-05 0.218847)
(0.000120333 -6.01614e-05 0.228385)
(0.000215293 -6.76153e-05 0.237904)
(0.000249454 -7.38989e-05 0.249777)
(0.000201671 -8.17095e-05 0.26152)
(7.25307e-05 -9.1836e-05 0.276102)
(-7.42506e-05 -0.000110125 0.290741)
(-0.000122362 -0.00013713 0.309089)
(4.05702e-05 -0.00017481 0.327805)
(0.000390034 -0.00022086 0.353037)
(0.000854618 -0.00029859 0.380167)
(0.00114672 -0.000452715 0.431178)
(0.000375192 -0.000994388 0.490888)
(-0.0038517 -0.00589937 0.724297)
(-0.0173588 -0.117961 1.89563)
)
;
    }
    rightWall
    {
        type            calculated;
        value           nonuniform List<vector> 
216
(
(-0.0013627 2.59773e-05 0.378404)
(-0.00115081 3.07358e-05 0.380604)
(-0.00090912 3.3413e-05 0.386626)
(-0.000580772 3.62854e-05 0.390309)
(-0.000252673 3.80279e-05 0.397686)
(2.79344e-05 4.21243e-05 0.402478)
(0.000116159 4.58078e-05 0.411111)
(-7.77416e-05 4.95216e-05 0.417936)
(-0.000561976 5.07556e-05 0.429564)
(-0.000969473 5.84551e-05 0.440606)
(-0.000788292 7.4455e-05 0.458076)
(0.000297058 0.000105681 0.476269)
(0.00187992 0.000132866 0.504221)
(0.00221997 0.000207875 0.527989)
(0.000544046 0.000294484 0.584864)
(-0.00107111 0.000847708 0.619575)
(-0.00360081 0.0072103 0.926054)
(-0.0180068 0.287131 2.36873)
(-0.000304181 3.00448e-05 0.379837)
(-0.000216418 3.23067e-05 0.381327)
(-0.000229414 3.30246e-05 0.386499)
(-0.000170308 3.48883e-05 0.389428)
(-0.0001296 3.70942e-05 0.396394)
(2.16544e-05 4.4017e-05 0.40114)
(5.88793e-05 5.36133e-05 0.410178)
(-9.79526e-05 6.5395e-05 0.417138)
(-0.000690581 7.52132e-05 0.428497)
(-0.00143793 8.41689e-05 0.43773)
(-0.00219439 9.16087e-05 0.452699)
(-0.00235308 0.000112427 0.467964)
(-0.00224586 0.000138172 0.496639)
(-0.00205468 0.000227343 0.523989)
(-0.00190393 0.000342868 0.585049)
(0.00144372 0.000922376 0.619808)
(0.00612068 0.00719092 0.927152)
(-0.00712474 0.286243 2.36632)
(0.000109293 3.09605e-05 0.380621)
(0.000151394 3.42847e-05 0.382943)
(7.81849e-06 3.58503e-05 0.388163)
(-1.25433e-05 3.85472e-05 0.391368)
(-4.9781e-05 4.086e-05 0.397869)
(0.000226829 4.67484e-05 0.402452)
(0.00050575 5.35303e-05 0.411099)
(0.000698514 6.1601e-05 0.418281)
(0.000426026 6.88787e-05 0.42982)
(-0.000204461 7.91209e-05 0.43958)
(-0.00128249 9.06815e-05 0.454289)
(-0.00247685 0.000111263 0.4683)
(-0.00360532 0.000136615 0.493864)
(-0.00299957 0.000227407 0.516945)
(-0.000907511 0.000339734 0.57379)
(0.00426901 0.00089349 0.606255)
(0.0096299 0.00712917 0.923708)
(0.000117937 0.28651 2.36661)
(0.000801372 3.03113e-05 0.37428)
(0.000894946 3.45163e-05 0.377801)
(0.000822948 3.87261e-05 0.383202)
(0.000792514 4.19701e-05 0.387882)
(0.00062019 4.29352e-05 0.395095)
(0.000596144 4.33643e-05 0.401384)
(0.000414333 4.3283e-05 0.41104)
(0.000180549 4.86252e-05 0.419763)
(-0.000365136 5.99153e-05 0.432201)
(-0.000947091 8.21417e-05 0.443493)
(-0.0018846 0.000108989 0.458995)
(-0.00316532 0.000140659 0.47267)
(-0.00421784 0.000164793 0.493567)
(-0.00234827 0.000234934 0.510893)
(0.00244483 0.000336767 0.566019)
(0.0058225 0.000910184 0.603111)
(0.00411934 0.00711424 0.92417)
(0.00769536 0.286296 2.36481)
(0.00101172 2.27502e-05 0.373532)
(0.000928933 2.37232e-05 0.378073)
(0.000827971 2.50512e-05 0.384067)
(0.00057085 2.65447e-05 0.38974)
(0.000155857 2.91358e-05 0.397489)
(-0.000333083 3.28978e-05 0.404614)
(-0.000939089 3.79274e-05 0.414385)
(-0.00139087 4.67833e-05 0.422982)
(-0.00171945 6.13241e-05 0.43421)
(-0.00134799 8.53341e-05 0.444198)
(-0.000422836 0.000115311 0.457803)
(0.000834096 0.000150213 0.470357)
(0.0013213 0.000170552 0.489702)
(0.000974301 0.00022691 0.507452)
(0.00106038 0.000313291 0.566212)
(0.00264104 0.00087543 0.613173)
(0.00234048 0.00706914 0.931435)
(0.000389703 0.286288 2.35899)
(0.000560567 2.1792e-05 0.379068)
(0.000204729 2.1552e-05 0.382918)
(-0.000131447 2.08969e-05 0.388545)
(-0.000672102 2.23593e-05 0.393331)
(-0.00122622 2.71968e-05 0.400303)
(-0.00179808 3.49992e-05 0.406847)
(-0.00230162 4.32244e-05 0.416112)
(-0.00246776 5.23209e-05 0.424909)
(-0.00229677 6.16666e-05 0.436168)
(-0.00124881 7.25034e-05 0.446526)
(0.000462971 8.30382e-05 0.460053)
(0.00256276 0.000102692 0.47432)
(0.00360084 0.000133354 0.498026)
(0.00224894 0.000223897 0.52109)
(-0.000340638 0.000334264 0.57762)
(-0.00125694 0.000882248 0.6156)
(-0.00155876 0.00707999 0.93037)
(0.0188792 0.286622 2.35799)
(0.000546173 2.5061e-05 0.382962)
(0.000145547 2.68498e-05 0.386118)
(-0.000358146 2.84929e-05 0.391245)
(-0.00102242 3.24056e-05 0.395092)
(-0.00171707 3.7847e-05 0.400831)
(-0.00235709 4.57626e-05 0.406018)
(-0.00295655 5.43013e-05 0.413596)
(-0.0031323 6.47593e-05 0.421583)
(-0.00287029 7.44581e-05 0.432674)
(-0.00190044 8.0067e-05 0.444007)
(-0.00102219 7.98746e-05 0.458274)
(-0.000695063 9.16506e-05 0.472615)
(-0.000899905 0.000120635 0.496678)
(-0.000339043 0.000218791 0.52146)
(0.00157063 0.000325243 0.580927)
(0.000675354 0.000890927 0.619119)
(-0.00141415 0.00719671 0.941868)
(0.00833729 0.285282 2.37203)
(0.000542247 2.4563e-05 0.384282)
(0.000240283 2.84138e-05 0.387707)
(-0.000142261 3.34848e-05 0.392929)
(-0.000488027 4.09414e-05 0.396691)
(-0.000883593 4.89321e-05 0.401967)
(-0.00126554 5.63773e-05 0.406014)
(-0.0018008 6.28551e-05 0.411717)
(-0.00207696 7.00836e-05 0.417083)
(-0.00188233 7.77021e-05 0.425759)
(-0.00100481 8.70324e-05 0.435449)
(-8.05629e-05 9.86197e-05 0.450353)
(6.09497e-05 0.000125964 0.465851)
(-0.000827072 0.000158764 0.490453)
(-0.00145458 0.000242299 0.51307)
(-0.00100718 0.000337381 0.573787)
(-0.00264636 0.000904139 0.616062)
(-0.00178635 0.00723767 0.935281)
(-0.0465007 0.283891 2.39055)
(0.000198352 1.60683e-05 0.385895)
(7.71163e-05 2.19655e-05 0.389558)
(-1.88759e-05 2.89001e-05 0.394942)
(5.77266e-05 3.72894e-05 0.399346)
(0.000201347 4.50376e-05 0.405392)
(0.000330451 5.19082e-05 0.409871)
(0.000218796 5.81342e-05 0.415317)
(-5.27332e-05 6.43741e-05 0.418955)
(-0.000256372 7.0665e-05 0.42541)
(-0.000280658 8.05915e-05 0.432775)
(-0.000166392 9.38602e-05 0.447805)
(-0.000223229 0.000120518 0.465193)
(-0.000414307 0.000150625 0.49317)
(-0.000542543 0.000232877 0.516678)
(-0.000323649 0.000335897 0.576581)
(-0.00145484 0.000899642 0.616567)
(0.000754415 0.00714962 0.927653)
(-0.0614166 0.288127 2.38034)
(-0.000897311 1.37705e-05 0.384791)
(-0.000896054 2.07805e-05 0.388995)
(-0.00079986 2.76976e-05 0.394811)
(-0.000462747 3.51728e-05 0.399929)
(0.000126557 4.07299e-05 0.406483)
(0.00089724 4.70214e-05 0.411552)
(0.00173206 5.58995e-05 0.417426)
(0.0021719 6.85326e-05 0.421456)
(0.0021668 8.28463e-05 0.427963)
(0.00134226 9.69114e-05 0.434642)
(0.000175225 0.00010616 0.447594)
(-0.00136576 0.000120075 0.461809)
(-0.00284201 0.000135187 0.487644)
(-0.00388364 0.000215532 0.512587)
(-0.0031503 0.000332732 0.577274)
(-0.00215547 0.000860264 0.621488)
(-0.000969605 0.00695589 0.921545)
(-0.0273367 0.291759 2.35666)
(-0.00158374 2.84215e-05 0.380488)
(-0.00140712 3.49623e-05 0.384387)
(-0.00110984 3.94757e-05 0.389711)
(-0.000515534 4.29482e-05 0.394133)
(0.0003527 4.29655e-05 0.399902)
(0.00147113 4.41341e-05 0.404594)
(0.00289034 4.88193e-05 0.411343)
(0.00397744 6.117e-05 0.418003)
(0.00476222 7.81005e-05 0.428578)
(0.00441731 9.66632e-05 0.439418)
(0.00343224 0.000113904 0.454345)
(0.00115769 0.000138931 0.467374)
(-0.00198674 0.000168447 0.488578)
(-0.00532916 0.000249529 0.507599)
(-0.00599942 0.000353732 0.567436)
(-0.00401131 0.000898756 0.61314)
(-0.00312423 0.00708721 0.917045)
(-0.0156845 0.286145 2.3536)
(-0.000796537 3.13125e-05 0.379916)
(-0.000353356 3.58004e-05 0.382208)
(0.000173893 3.94293e-05 0.386141)
(0.000849551 4.17107e-05 0.389385)
(0.00147377 3.98618e-05 0.395077)
(0.00196722 3.72752e-05 0.400305)
(0.00249511 3.42695e-05 0.40923)
(0.00275531 3.76235e-05 0.418346)
(0.00311419 4.57243e-05 0.432258)
(0.00297949 6.39575e-05 0.445637)
(0.00321146 9.24758e-05 0.46317)
(0.0028333 0.000135921 0.477153)
(0.00188051 0.000178761 0.496998)
(-0.000459014 0.000254799 0.511142)
(-0.00303557 0.000345264 0.56322)
(-0.00309453 0.000864723 0.60425)
(-0.00107408 0.00687056 0.897814)
(-0.00714243 0.289563 2.30176)
)
;
    }
    leftSides_periodic0
    {
        type            cyclic;
    }
    leftSides_periodic1
    {
        type            cyclic;
    }
    rightSides_periodic0
    {
        type            cyclic;
    }
    rightSides_periodic1
    {
        type            cyclic;
    }
    leftInOut_periodic0
    {
        type            calculated;
        value           nonuniform 0();
    }
    leftInOut_periodic1
    {
        type            calculated;
        value           uniform (0 0 0);
    }
    rightInOut_periodic0
    {
        type            calculated;
        value           nonuniform 0();
    }
    rightInOut_periodic1
    {
        type            calculated;
        value           uniform (0 0 0);
    }
    procBoundary3to0
    {
        type            processor;
        value           uniform (0 0 0);
    }
    procBoundary3to4
    {
        type            processor;
        value           uniform (0 0 0);
    }
    procBoundary3to5throughleftSides_periodic1
    {
        type            processorCyclic;
        value           uniform (0 0 0);
    }
    procBoundary3to5throughrightSides_periodic1
    {
        type            processorCyclic;
        value           uniform (0 0 0);
    }
}


// ************************************************************************* //
