/*--------------------------------*- C++ -*----------------------------------*\
| =========                 |                                                 |
| \\      /  F ield         | OpenFOAM: The Open Source CFD Toolbox           |
|  \\    /   O peration     | Version:  v1912                                 |
|   \\  /    A nd           | Website:  www.openfoam.com                      |
|    \\/     M anipulation  |                                                 |
\*---------------------------------------------------------------------------*/
FoamFile
{
    version     2.0;
    format      ascii;
    class       volSymmTensorField;
    location    "98.8";
    object      UPrime2Mean;
}
// * * * * * * * * * * * * * * * * * * * * * * * * * * * * * * * * * * * * * //

dimensions      [0 2 -2 0 0 0 0];


internalField   nonuniform List<symmTensor> 
5320
(
(2.04683e-07 7.25904e-09 -2.18646e-09 1.03155e-05 1.46423e-05 9.72761e-05)
(0.000923386 -9.2611e-06 -0.000126822 3.7106e-06 1.25587e-05 0.000161403)
(0.000495172 3.89166e-06 3.2906e-05 4.54489e-07 3.2979e-06 0.000105238)
(0.00013536 2.19184e-05 3.27613e-05 5.36632e-06 3.10787e-07 5.65705e-05)
(3.90173e-05 8.84518e-06 3.08266e-05 2.66663e-06 9.24536e-06 5.80257e-05)
(3.22975e-05 6.06666e-06 3.38535e-05 1.66749e-06 9.60123e-06 8.42826e-05)
(9.62502e-06 2.44043e-06 1.58063e-05 1.07284e-06 7.36766e-06 7.34976e-05)
(6.36688e-07 7.54466e-08 4.12188e-07 8.61385e-07 5.91006e-06 6.0006e-05)
(8.98764e-06 -2.28344e-06 -1.5381e-05 1.04443e-06 7.39092e-06 7.49696e-05)
(3.11913e-05 -5.79732e-06 -3.3459e-05 1.60243e-06 9.53312e-06 8.59163e-05)
(3.56369e-05 -7.75293e-06 -2.59215e-05 2.31012e-06 7.60329e-06 5.09885e-05)
(0.000132301 -2.1105e-05 -3.03764e-05 5.14183e-06 -4.82932e-07 5.90225e-05)
(0.000499923 -3.14239e-06 -3.26781e-05 4.55868e-07 3.40637e-06 0.000105118)
(0.000926549 9.76962e-06 0.000128951 3.76308e-06 1.28608e-05 0.000163157)
(2.45359e-07 4.81291e-08 1.19096e-08 0.00127299 0.000265082 0.00014626)
(0.000389021 0.000107364 -1.87381e-05 3.23841e-05 6.49575e-06 8.4375e-05)
(5.12134e-05 1.4973e-05 -3.96071e-06 6.00176e-06 -1.61025e-06 4.70447e-05)
(1.09143e-05 4.78164e-06 5.78805e-06 1.16408e-05 -1.01901e-05 6.63178e-05)
(1.58898e-05 8.14268e-06 8.31161e-06 9.98552e-06 7.62757e-06 2.49957e-05)
(2.00947e-05 7.97396e-06 2.37474e-05 7.32868e-06 1.54862e-05 5.4758e-05)
(7.21888e-06 2.79446e-06 1.24309e-05 4.80769e-06 1.35462e-05 5.21145e-05)
(1.82089e-06 9.86889e-08 2.27861e-07 4.13835e-06 1.07855e-05 3.78888e-05)
(6.89315e-06 -2.58508e-06 -1.23155e-05 4.70246e-06 1.3729e-05 5.41088e-05)
(1.98388e-05 -7.79928e-06 -2.41199e-05 7.20139e-06 1.56907e-05 5.68015e-05)
(1.4994e-05 -7.2824e-06 -6.84129e-06 9.19049e-06 6.09443e-06 2.33784e-05)
(1.08226e-05 -3.86392e-06 -7.51813e-06 1.04357e-05 -1.07271e-05 7.35349e-05)
(5.07021e-05 -1.452e-05 4.02623e-06 5.80701e-06 -1.39587e-06 4.75239e-05)
(0.000391461 -0.000107201 1.99408e-05 3.2123e-05 6.26133e-06 8.44853e-05)
(3.39949e-08 -1.20236e-07 4.85013e-08 0.0013274 0.000408984 0.000206729)
(0.000192296 4.48813e-05 7.09919e-05 1.53063e-05 2.75626e-05 0.000135304)
(2.67746e-05 1.14606e-05 2.31495e-05 8.2257e-06 9.06405e-06 4.06803e-05)
(1.31798e-05 -2.39896e-06 2.7024e-06 8.07739e-06 -5.8782e-07 5.20537e-05)
(1.29858e-05 6.60986e-06 1.13701e-06 1.68004e-05 8.73592e-06 1.8424e-05)
(1.42195e-05 4.43198e-06 2.17127e-05 9.88668e-06 1.9543e-05 6.85647e-05)
(8.83e-06 8.8018e-07 1.1653e-05 6.29681e-06 1.66143e-05 5.7997e-05)
(4.73329e-06 5.68418e-08 1.5491e-07 5.47346e-06 1.41953e-05 4.24242e-05)
(8.6791e-06 -7.48374e-07 -1.15794e-05 6.18701e-06 1.67639e-05 6.02219e-05)
(1.4193e-05 -4.32146e-06 -2.21237e-05 9.7052e-06 1.96184e-05 7.12192e-05)
(1.28429e-05 -6.29203e-06 -6.1362e-07 1.61158e-05 7.59769e-06 1.76525e-05)
(1.33743e-05 2.37791e-06 -3.51431e-06 7.2798e-06 -3.14888e-07 5.64136e-05)
(2.68228e-05 -1.1579e-05 -2.33088e-05 8.2155e-06 9.10841e-06 4.1137e-05)
(0.000192942 -4.51058e-05 -6.93112e-05 1.53564e-05 2.75473e-05 0.000134564)
(4.76988e-06 -3.45768e-07 3.28696e-08 0.00108183 0.000237851 0.000131245)
(0.000100691 3.91535e-05 5.94471e-05 1.86608e-05 2.85812e-05 0.00012794)
(1.68103e-05 1.0736e-05 3.32491e-05 1.4996e-05 1.83065e-05 0.000108923)
(2.74816e-05 -7.09504e-08 -1.05975e-05 1.10971e-05 1.66379e-05 4.3837e-05)
(1.42327e-05 2.78288e-06 -2.83805e-06 1.24107e-05 9.28449e-06 1.75548e-05)
(1.4571e-05 1.49053e-06 1.51866e-05 8.21152e-06 1.28022e-05 4.73207e-05)
(1.30795e-05 -3.67566e-07 9.89847e-06 5.58069e-06 1.23312e-05 3.86253e-05)
(9.38252e-06 1.60544e-08 4.03631e-08 4.78447e-06 1.15314e-05 3.06357e-05)
(1.30136e-05 4.1433e-07 -9.90563e-06 5.53815e-06 1.23837e-05 3.96879e-05)
(1.45658e-05 -1.4255e-06 -1.53884e-05 8.13466e-06 1.27113e-05 4.93338e-05)
(1.42382e-05 -2.71264e-06 2.92486e-06 1.21558e-05 9.04605e-06 1.73997e-05)
(2.74933e-05 7.6463e-08 1.06236e-05 1.11005e-05 1.68612e-05 4.46343e-05)
(1.68047e-05 -1.08946e-05 -3.34523e-05 1.49751e-05 1.82909e-05 0.000109157)
(0.000100998 -3.91801e-05 -5.863e-05 1.86325e-05 2.83223e-05 0.000128023)
(1.49251e-05 -4.59678e-07 7.86145e-09 0.000890096 0.000254059 0.000114642)
(7.3183e-05 3.00009e-05 5.31297e-05 2.67332e-05 2.98502e-05 0.000104746)
(1.52936e-05 8.16584e-06 -1.01286e-05 2.71766e-05 3.52681e-05 0.000152601)
(3.22541e-05 -1.50944e-05 -1.5053e-05 2.18407e-05 1.59655e-05 3.28868e-05)
(1.5443e-05 -2.8045e-06 -4.79173e-06 1.29058e-05 -7.31476e-06 2.08752e-05)
(1.39281e-05 5.79911e-07 8.75541e-06 7.32122e-06 -6.71644e-07 2.56757e-05)
(1.34711e-05 -3.05129e-07 8.53921e-06 4.97207e-06 3.70936e-06 2.04259e-05)
(9.78833e-06 -6.86402e-10 -1.38445e-08 3.97585e-06 4.59986e-06 1.65366e-05)
(1.34378e-05 3.18216e-07 -8.60564e-06 5.00026e-06 3.66029e-06 2.06209e-05)
(1.39421e-05 -5.2419e-07 -8.86786e-06 7.44968e-06 -9.01957e-07 2.61316e-05)
(1.54367e-05 2.88699e-06 4.80852e-06 1.30419e-05 -7.28293e-06 2.07976e-05)
(3.22784e-05 1.51542e-05 1.51107e-05 2.20848e-05 1.60349e-05 3.32289e-05)
(1.53237e-05 -8.22005e-06 1.01197e-05 2.71922e-05 3.53375e-05 0.000152709)
(7.34849e-05 -3.00281e-05 -5.27936e-05 2.6682e-05 2.9679e-05 0.000104831)
(2.80085e-05 -5.48767e-09 -1.77469e-06 3.64266e-06 1.03193e-06 0.00130895)
(0.00016064 -2.63572e-06 4.64831e-05 3.68965e-06 -5.6859e-07 5.5519e-05)
(0.000195982 3.42518e-05 -2.86713e-05 6.95389e-06 -6.43175e-06 4.79261e-05)
(1.71048e-05 -1.06816e-06 1.54664e-07 3.63833e-06 2.65688e-05 0.000271901)
(4.43037e-06 1.43414e-07 -4.48392e-06 1.33973e-07 -1.19077e-06 6.73233e-05)
(1.40978e-06 1.9827e-08 2.02715e-06 5.48402e-08 -4.23675e-07 2.81194e-05)
(6.07834e-07 -4.4652e-08 1.53883e-06 2.46566e-08 -1.78454e-09 1.96648e-05)
(2.1157e-07 -7.12141e-10 -8.35049e-09 1.87465e-08 2.57817e-08 1.99325e-05)
(6.03727e-07 4.18818e-08 -1.58626e-06 2.42017e-08 -2.03822e-08 1.94688e-05)
(1.4406e-06 -2.86562e-08 -2.02845e-06 5.27282e-08 -4.2692e-07 2.8245e-05)
(4.64851e-06 -1.56386e-07 5.26103e-06 1.34244e-07 -1.26763e-06 6.86608e-05)
(1.7138e-05 1.39486e-06 2.82212e-06 3.63379e-06 2.63135e-05 0.00026731)
(0.000191769 -3.27916e-05 2.64978e-05 6.56216e-06 -6.06343e-06 4.80015e-05)
(0.000157672 2.38663e-06 -4.49659e-05 3.8236e-06 -7.20475e-07 5.57751e-05)
(3.58703e-05 2.73463e-07 -7.83167e-07 0.000153351 -1.45858e-06 0.000155848)
(0.000120161 -4.50956e-05 6.52821e-05 2.15766e-05 -2.47749e-05 5.96105e-05)
(2.07294e-05 3.04216e-06 5.7854e-06 4.04707e-06 3.6316e-06 1.97729e-05)
(6.64999e-06 -4.4039e-07 -3.11462e-06 4.91071e-06 2.31115e-05 0.000203799)
(5.05994e-06 -3.72865e-07 -9.99835e-06 2.91391e-07 1.91632e-06 9.28431e-05)
(1.87707e-06 -1.66743e-07 3.38648e-06 1.93583e-07 -7.45653e-07 3.82794e-05)
(1.67476e-06 -5.29938e-08 2.91328e-06 1.37357e-07 1.93121e-07 2.01092e-05)
(1.04473e-06 -2.08001e-09 -6.44132e-09 1.20109e-07 5.1447e-07 1.88484e-05)
(1.67189e-06 4.49553e-08 -2.94298e-06 1.29593e-07 8.63593e-08 2.03137e-05)
(1.91335e-06 1.71813e-07 -3.43858e-06 1.84928e-07 -8.31615e-07 4.0166e-05)
(5.40855e-06 3.81926e-07 1.13402e-05 2.70493e-07 1.91437e-06 9.80414e-05)
(6.70826e-06 7.30783e-07 5.11979e-06 4.50947e-06 2.20569e-05 0.000206322)
(2.00097e-05 -2.65278e-06 -5.10014e-06 3.92148e-06 3.20978e-06 1.91162e-05)
(0.000122626 4.62936e-05 -6.79722e-05 2.20839e-05 -2.59814e-05 6.19983e-05)
(5.54662e-05 2.47381e-07 -4.25603e-07 0.000198693 -9.27566e-05 0.000147304)
(7.17998e-05 -1.42353e-05 4.01202e-05 5.39263e-06 -3.193e-06 6.91337e-05)
(1.8496e-05 5.71004e-06 1.78197e-05 3.98591e-06 2.2484e-06 3.98847e-05)
(1.27667e-05 -1.41724e-06 -7.31634e-06 2.31685e-06 1.18441e-05 0.000131212)
(6.80151e-06 -5.20499e-07 -2.7617e-06 7.86896e-07 1.90423e-06 3.5227e-05)
(4.72093e-06 3.28258e-07 6.64436e-06 2.61666e-07 -3.40715e-07 4.64783e-05)
(4.69614e-06 3.38248e-07 5.13273e-06 1.23093e-07 3.13839e-07 1.85343e-05)
(3.53545e-06 2.03803e-10 -6.61942e-09 1.00108e-07 3.00138e-07 1.13297e-05)
(4.69066e-06 -3.38815e-07 -5.13177e-06 1.13756e-07 2.67585e-07 1.97705e-05)
(4.73893e-06 -3.21788e-07 -6.57174e-06 2.56685e-07 -4.59586e-07 5.20174e-05)
(6.92955e-06 5.68169e-07 2.96737e-06 7.60286e-07 1.99351e-06 3.62467e-05)
(1.27898e-05 1.3957e-06 7.61286e-06 2.1159e-06 1.14079e-05 0.000134596)
(1.84786e-05 -5.64354e-06 -1.76648e-05 4.03052e-06 2.09732e-06 3.99024e-05)
(7.17839e-05 1.43087e-05 -4.04926e-05 5.4341e-06 -3.22133e-06 6.94096e-05)
(0.000111448 2.94207e-07 -1.89072e-07 0.000256072 -5.51728e-05 0.000162405)
(5.00031e-05 -2.92354e-06 4.92862e-05 5.19115e-06 -4.87679e-06 6.35246e-05)
(1.48433e-05 6.78231e-06 2.9418e-05 7.94933e-06 1.44085e-05 0.000110445)
(2.54569e-05 9.50158e-07 -9.77312e-06 4.16759e-06 1.0448e-05 4.20038e-05)
(1.16176e-05 6.1282e-08 -3.74163e-06 5.69351e-07 -6.47539e-07 1.95264e-05)
(1.14401e-05 1.14012e-06 1.15148e-05 2.63471e-07 1.85327e-06 3.60388e-05)
(9.11789e-06 8.85527e-07 8.11363e-06 2.39162e-07 1.694e-06 1.69216e-05)
(7.52265e-06 1.89006e-10 -1.71095e-08 1.21429e-07 8.47966e-07 8.86534e-06)
(9.10973e-06 -8.81771e-07 -8.11261e-06 2.4108e-07 1.73417e-06 1.77459e-05)
(1.1469e-05 -1.13402e-06 -1.13664e-05 2.65162e-07 1.93227e-06 4.03496e-05)
(1.16581e-05 -5.98044e-08 3.79929e-06 5.72649e-07 -6.99073e-07 2.14622e-05)
(2.5436e-05 -9.48623e-07 9.88745e-06 4.12978e-06 1.04516e-05 4.24064e-05)
(1.48542e-05 -6.72293e-06 -2.9427e-05 8.06391e-06 1.44334e-05 0.000110789)
(4.99498e-05 2.93064e-06 -4.93095e-05 5.23873e-06 -4.96629e-06 6.38875e-05)
(7.79981e-05 1.43647e-07 -4.74771e-08 0.000132036 -4.7695e-05 6.01837e-05)
(4.51054e-05 -2.60272e-06 3.37059e-05 6.39587e-06 1.34247e-06 6.80567e-05)
(1.64942e-05 4.25368e-06 -1.13103e-05 1.9878e-05 4.20857e-05 0.000161688)
(2.85315e-05 -9.07604e-06 -1.54179e-05 1.58918e-05 1.26059e-05 3.11374e-05)
(1.13032e-05 -1.53785e-06 -4.58152e-06 3.90431e-06 -3.17991e-06 1.80102e-05)
(1.36946e-05 1.28542e-06 1.02537e-05 7.9664e-07 1.97724e-07 2.57354e-05)
(1.03865e-05 6.89932e-07 8.65026e-06 5.95209e-07 1.54346e-06 1.83691e-05)
(8.34858e-06 -5.2456e-10 -1.8688e-08 3.30807e-07 1.07884e-06 1.2759e-05)
(1.03777e-05 -6.90247e-07 -8.64015e-06 5.96798e-07 1.54395e-06 1.86409e-05)
(1.37234e-05 -1.28971e-06 -1.01325e-05 7.95244e-07 2.09712e-07 2.69005e-05)
(1.13186e-05 1.52715e-06 4.75327e-06 3.89721e-06 -3.17552e-06 1.89974e-05)
(2.84772e-05 9.05148e-06 1.55395e-05 1.59049e-05 1.26629e-05 3.15787e-05)
(1.65234e-05 -4.27743e-06 1.1205e-05 1.98655e-05 4.20998e-05 0.000161557)
(4.49887e-05 2.59745e-06 -3.37573e-05 6.37574e-06 1.30747e-06 6.8109e-05)
(1.96749e-05 -8.03785e-07 -2.83507e-06 1.73864e-05 2.31922e-05 0.00242794)
(7.02144e-05 -4.27881e-06 8.73246e-05 5.03675e-06 -4.75094e-05 0.000627447)
(4.34896e-05 3.55816e-07 2.81898e-05 2.47034e-07 -1.23075e-06 7.75095e-05)
(2.58596e-05 2.24925e-06 1.05978e-05 3.90109e-07 2.37413e-07 3.39147e-05)
(1.51253e-05 1.49823e-06 1.49431e-05 2.05379e-07 1.77183e-06 3.43089e-05)
(9.49148e-06 6.85977e-07 1.99566e-05 8.61659e-08 1.8929e-06 6.88832e-05)
(3.94185e-06 3.7113e-07 1.0947e-05 6.93894e-08 1.79589e-06 6.7141e-05)
(6.39085e-07 1.26137e-08 2.963e-07 7.18214e-08 1.66775e-06 5.51217e-05)
(3.69681e-06 -3.4431e-07 -1.0611e-05 6.70321e-08 1.79588e-06 6.92791e-05)
(9.27048e-06 -6.26652e-07 -1.97968e-05 7.82913e-08 1.7597e-06 7.00184e-05)
(1.44195e-05 -1.46071e-06 -1.304e-05 2.06001e-07 1.62026e-06 3.21367e-05)
(2.527e-05 -2.23155e-06 -9.92955e-06 3.99475e-07 1.00524e-07 3.47446e-05)
(4.41102e-05 -1.49931e-07 -2.8296e-05 2.63695e-07 -1.54218e-06 7.63526e-05)
(6.86738e-05 3.70472e-06 -7.86343e-05 5.46068e-06 -5.05001e-05 0.000646894)
(2.00583e-06 -6.10354e-09 -1.41122e-06 0.000100487 -0.000401002 0.00201652)
(6.28671e-05 1.26593e-05 3.96963e-05 5.89043e-06 -2.09791e-07 0.000129605)
(1.97753e-05 5.0289e-06 1.46484e-05 2.5908e-06 1.34156e-06 3.51715e-05)
(9.75624e-06 2.73157e-06 -2.0082e-06 1.30242e-06 -3.86033e-06 7.64103e-05)
(1.18216e-05 2.75673e-06 4.14892e-06 1.20987e-06 1.31171e-06 2.28577e-05)
(8.14954e-06 1.84947e-06 1.90567e-05 1.03089e-06 6.07223e-06 6.60076e-05)
(4.49145e-06 7.53515e-07 1.04656e-05 7.98838e-07 5.74113e-06 6.10137e-05)
(1.7992e-06 2.57744e-08 2.05554e-07 7.46195e-07 4.7263e-06 4.58531e-05)
(4.34748e-06 -6.97895e-07 -1.03241e-05 7.82473e-07 5.82375e-06 6.40556e-05)
(8.09785e-06 -1.77417e-06 -1.93939e-05 9.84937e-07 5.98758e-06 6.9353e-05)
(1.15849e-05 -2.62115e-06 -2.99321e-06 1.15004e-06 9.26393e-07 2.29316e-05)
(9.33759e-06 -2.54201e-06 1.12912e-06 1.24902e-06 -4.00487e-06 8.2819e-05)
(1.98645e-05 -4.94802e-06 -1.44851e-05 2.54099e-06 1.14521e-06 3.48811e-05)
(6.2882e-05 -1.27743e-05 -3.95309e-05 5.8914e-06 6.72143e-08 0.000128991)
(3.12492e-06 3.62347e-08 3.18817e-07 2.33448e-05 1.55898e-05 0.000176899)
(6.45189e-05 1.10186e-05 7.39048e-05 4.9158e-06 1.43603e-05 0.000126883)
(2.81568e-05 7.25548e-06 2.60486e-05 3.29763e-06 6.1905e-06 4.15375e-05)
(1.3457e-05 2.1025e-06 3.11293e-06 1.96493e-06 2.72386e-06 6.48863e-05)
(1.12588e-05 3.6272e-06 5.26032e-06 3.64819e-06 4.94761e-06 1.85189e-05)
(8.40263e-06 2.30555e-06 1.9954e-05 2.78028e-06 1.2126e-05 9.45485e-05)
(7.10518e-06 5.05697e-07 1.0455e-05 1.85101e-06 9.92656e-06 7.35175e-05)
(4.38876e-06 1.66922e-08 1.35493e-07 1.57779e-06 8.04084e-06 5.48422e-05)
(7.04106e-06 -4.65947e-07 -1.03655e-05 1.82499e-06 9.98342e-06 7.67704e-05)
(8.41767e-06 -2.26248e-06 -2.0329e-05 2.71831e-06 1.19927e-05 9.95088e-05)
(1.12987e-05 -3.53038e-06 -4.80726e-06 3.46519e-06 4.42258e-06 1.75875e-05)
(1.34392e-05 -2.04865e-06 -3.40688e-06 1.88708e-06 2.83934e-06 6.92446e-05)
(2.83059e-05 -7.28338e-06 -2.60374e-05 3.2661e-06 6.13893e-06 4.16791e-05)
(6.48508e-05 -1.12329e-05 -7.33022e-05 4.97017e-06 1.44813e-05 0.000125892)
(9.37418e-06 4.71738e-08 7.44012e-08 4.19013e-05 5.43979e-05 9.15362e-05)
(4.59661e-05 1.4473e-05 6.27924e-05 1.31662e-05 2.14004e-05 0.000141509)
(2.08306e-05 1.15521e-05 4.02409e-05 9.60096e-06 2.0924e-05 0.000117357)
(2.61104e-05 2.52004e-06 -5.06356e-06 8.19861e-06 1.52424e-05 4.51857e-05)
(1.21512e-05 2.12111e-06 8.67109e-07 4.36787e-06 5.62792e-06 1.95329e-05)
(1.22718e-05 2.21261e-06 1.57277e-05 2.7972e-06 8.16028e-06 6.13711e-05)
(1.07881e-05 4.08808e-07 9.21673e-06 1.72805e-06 7.26631e-06 4.71279e-05)
(7.90985e-06 7.76302e-10 3.38561e-08 1.26059e-06 5.8153e-06 3.75201e-05)
(1.07569e-05 -4.0143e-07 -9.2125e-06 1.7288e-06 7.22847e-06 4.86886e-05)
(1.22915e-05 -2.19715e-06 -1.58825e-05 2.80997e-06 7.90999e-06 6.4638e-05)
(1.21826e-05 -2.10567e-06 -8.42852e-07 4.36528e-06 5.38843e-06 1.93792e-05)
(2.60767e-05 -2.50823e-06 5.14451e-06 8.25967e-06 1.54032e-05 4.56519e-05)
(2.08887e-05 -1.16301e-05 -4.03253e-05 9.59687e-06 2.09025e-05 0.000117459)
(4.59925e-05 -1.46216e-05 -6.24807e-05 1.33565e-05 2.12229e-05 0.000141077)
(1.76608e-05 -2.0479e-08 7.43846e-08 8.55698e-05 3.57654e-05 4.7032e-05)
(3.6782e-05 1.61402e-05 4.91404e-05 3.06392e-05 2.9391e-05 0.000112702)
(2.06989e-05 6.82696e-06 -6.59535e-06 2.76369e-05 4.73126e-05 0.000169775)
(3.10178e-05 -1.50846e-05 -1.27889e-05 2.09028e-05 1.61411e-05 3.86534e-05)
(1.28724e-05 -2.92543e-06 -2.27413e-06 7.21647e-06 -5.1001e-06 1.59306e-05)
(1.30214e-05 1.1057e-06 1.01766e-05 2.98458e-06 -2.10723e-07 2.40489e-05)
(1.07675e-05 3.0234e-07 8.00985e-06 1.91112e-06 2.52192e-06 2.04688e-05)
(7.83858e-06 -1.50369e-09 -9.92142e-09 1.23257e-06 2.46617e-06 1.7105e-05)
(1.07495e-05 -2.99353e-07 -8.05831e-06 1.93508e-06 2.42962e-06 2.09625e-05)
(1.30446e-05 -1.0842e-06 -1.02593e-05 3.07458e-06 -4.97783e-07 2.50265e-05)
(1.28693e-05 2.95373e-06 2.28706e-06 7.32955e-06 -5.17642e-06 1.59735e-05)
(3.10002e-05 1.51076e-05 1.28303e-05 2.10087e-05 1.62087e-05 3.89827e-05)
(2.07752e-05 -6.8911e-06 6.51178e-06 2.76277e-05 4.7347e-05 0.000169821)
(3.69208e-05 -1.62419e-05 -4.91789e-05 3.07025e-05 2.92006e-05 0.000112729)
(1.14569e-05 1.16872e-07 -2.65792e-06 4.0692e-06 -2.31115e-05 0.00255304)
(9.93964e-05 1.27254e-05 6.59764e-05 3.07431e-06 1.05167e-05 0.000114455)
(3.26202e-05 3.07548e-06 -5.81593e-06 7.76511e-07 -2.62328e-06 4.65062e-05)
(7.26136e-06 -4.87466e-07 -4.51877e-06 1.12687e-06 1.50421e-05 0.00029067)
(4.36637e-06 -1.12081e-07 -9.46018e-06 3.46909e-08 -3.27327e-08 0.000105425)
(8.7364e-07 5.15256e-08 -1.2546e-07 1.37942e-08 -4.27889e-07 4.44705e-05)
(1.93918e-07 1.49204e-08 7.18836e-07 9.11124e-09 -1.77979e-07 3.14015e-05)
(7.19585e-08 3.78056e-10 3.73904e-09 1.00383e-08 -1.92384e-07 3.36171e-05)
(1.91663e-07 -1.419e-08 -6.63231e-07 8.91716e-09 -1.93066e-07 3.12417e-05)
(8.74491e-07 -4.94365e-08 1.79389e-07 1.33344e-08 -4.27173e-07 4.50649e-05)
(4.7444e-06 1.34026e-07 1.07182e-05 3.60779e-08 2.44093e-08 0.000107626)
(7.38468e-06 5.77929e-07 5.97247e-06 1.11142e-06 1.47731e-05 0.000286004)
(3.10464e-05 -2.9245e-06 6.77811e-06 7.82708e-07 -2.84796e-06 4.69007e-05)
(0.000104045 -1.37616e-05 -7.63145e-05 3.26389e-06 1.24833e-05 0.000133345)
(1.07199e-06 2.44548e-08 -6.12017e-07 2.0337e-05 7.88033e-06 0.00189426)
(0.000111352 1.8133e-05 3.50251e-05 8.02225e-06 1.58484e-06 8.19707e-05)
(1.7787e-05 1.86244e-06 5.31159e-07 4.22856e-07 8.39926e-07 1.91717e-05)
(7.05644e-06 -5.18384e-07 -4.85407e-06 1.92447e-06 1.64991e-05 0.000252857)
(4.67257e-06 -1.75365e-07 -1.21159e-05 1.19365e-07 1.64437e-06 0.000132361)
(1.66557e-06 1.28965e-07 -1.18709e-07 8.75784e-08 -7.32407e-07 5.78456e-05)
(8.29993e-07 9.70608e-10 1.53462e-06 1.08515e-07 -1.00389e-07 3.15295e-05)
(4.91193e-07 1.4661e-09 -6.62719e-10 1.19561e-07 2.02906e-07 3.18837e-05)
(8.27591e-07 2.58427e-09 -1.45834e-06 1.03007e-07 -2.14175e-07 3.20343e-05)
(1.65949e-06 -1.14158e-07 1.40564e-07 7.87036e-08 -7.40571e-07 6.15619e-05)
(5.14218e-06 1.89172e-07 1.37834e-05 1.12369e-07 1.61901e-06 0.000137851)
(7.20667e-06 6.34038e-07 6.87049e-06 1.74946e-06 1.54733e-05 0.000254186)
(1.82025e-05 -1.93045e-06 -3.27935e-07 4.35192e-07 7.7386e-07 1.88253e-05)
(0.000112778 -1.96554e-05 -3.59356e-05 8.90344e-06 2.39711e-06 8.24377e-05)
(3.15784e-05 2.28951e-07 -4.85531e-07 5.17067e-05 -4.65736e-05 0.000151849)
(8.09129e-05 8.93889e-06 3.37406e-05 6.87686e-06 -3.62083e-06 7.08595e-05)
(2.25248e-05 7.11897e-06 1.69493e-05 3.91173e-06 2.14678e-06 3.65959e-05)
(1.32728e-05 -1.93496e-06 -8.2213e-06 2.28426e-06 1.51176e-05 0.000148731)
(7.47636e-06 -5.87013e-07 -3.27661e-06 7.08103e-07 2.254e-06 4.59617e-05)
(4.99691e-06 3.72001e-08 3.35233e-06 3.2145e-07 -2.11479e-06 6.27636e-05)
(3.97461e-06 -3.21085e-09 3.76698e-06 2.82998e-07 -7.813e-07 2.48338e-05)
(2.794e-06 3.16279e-09 -1.69244e-08 3.23208e-07 -2.90848e-07 1.80341e-05)
(3.96476e-06 1.22641e-08 -3.70986e-06 2.66525e-07 -9.13797e-07 2.66762e-05)
(4.98939e-06 -1.24376e-08 -3.16755e-06 2.98969e-07 -2.2011e-06 7.0988e-05)
(7.61144e-06 6.35999e-07 3.42197e-06 6.70882e-07 2.31895e-06 4.72703e-05)
(1.32748e-05 1.89895e-06 8.51521e-06 2.11736e-06 1.46021e-05 0.00015141)
(2.26215e-05 -7.19778e-06 -1.68303e-05 4.04798e-06 2.09981e-06 3.6642e-05)
(8.09261e-05 -9.37627e-06 -3.38741e-05 7.45636e-06 -3.66377e-06 7.12452e-05)
(0.000117863 6.55472e-08 -3.26563e-08 3.58466e-05 -1.2894e-05 0.000113896)
(5.23877e-05 3.52425e-06 5.58929e-05 2.83434e-06 4.20774e-06 7.8205e-05)
(1.32271e-05 5.60847e-06 2.87733e-05 5.94453e-06 1.08255e-05 0.000114131)
(2.63967e-05 -3.51011e-07 -1.0446e-05 6.0159e-06 1.36422e-05 4.28327e-05)
(1.24403e-05 3.18345e-07 -3.70006e-06 7.42408e-07 -1.34499e-06 2.38489e-05)
(1.19951e-05 5.8573e-07 1.00834e-05 2.6142e-07 -1.0067e-06 4.56235e-05)
(9.6575e-06 2.27187e-07 7.55969e-06 1.37692e-07 -3.65822e-07 2.03e-05)
(7.64401e-06 2.23394e-09 -2.72936e-08 1.60974e-07 -5.15871e-07 1.22182e-05)
(9.64205e-06 -2.17803e-07 -7.53219e-06 1.28648e-07 -3.94426e-07 2.15997e-05)
(1.20112e-05 -5.68759e-07 -9.82816e-06 2.52953e-07 -9.6944e-07 5.1524e-05)
(1.24621e-05 -3.0663e-07 3.72679e-06 7.40482e-07 -1.33463e-06 2.63113e-05)
(2.63583e-05 3.48709e-07 1.05503e-05 5.95595e-06 1.36467e-05 4.31507e-05)
(1.3268e-05 -5.5821e-06 -2.87619e-05 6.06863e-06 1.09338e-05 0.000114628)
(5.24237e-05 -3.49291e-06 -5.58541e-05 2.88888e-06 4.37619e-06 7.87296e-05)
(0.000102496 1.56758e-07 3.3618e-09 4.6953e-05 -1.66221e-05 4.74513e-05)
(5.10809e-05 2.32236e-06 4.03841e-05 6.98947e-06 2.67961e-06 8.13297e-05)
(1.41873e-05 3.91078e-06 -1.26102e-05 1.77607e-05 3.50604e-05 0.000171232)
(3.14187e-05 -8.9871e-06 -1.50056e-05 1.32393e-05 1.06217e-05 3.26727e-05)
(1.32305e-05 -8.95867e-07 -5.11691e-06 2.34556e-06 -2.23143e-06 1.9129e-05)
(1.43326e-05 1.8643e-06 1.0416e-05 5.73198e-07 5.12903e-07 2.71751e-05)
(1.22103e-05 6.89744e-07 9.25427e-06 2.5294e-07 5.64149e-07 1.90806e-05)
(9.73392e-06 7.67572e-10 -2.48601e-08 5.00712e-08 -7.75269e-08 1.35204e-05)
(1.21936e-05 -6.84773e-07 -9.23244e-06 2.5059e-07 5.6697e-07 1.96133e-05)
(1.43586e-05 -1.8568e-06 -1.0227e-05 5.73839e-07 5.71322e-07 2.88621e-05)
(1.32527e-05 8.97759e-07 5.34372e-06 2.35035e-06 -2.17795e-06 2.05203e-05)
(3.13441e-05 8.98483e-06 1.51428e-05 1.32394e-05 1.07134e-05 3.32372e-05)
(1.42377e-05 -3.92938e-06 1.25166e-05 1.77836e-05 3.51547e-05 0.000171133)
(5.10956e-05 -2.26782e-06 -4.03869e-05 6.96715e-06 2.66829e-06 8.14635e-05)
(2.30715e-06 7.75521e-08 -5.85827e-07 1.74354e-05 1.41322e-06 0.00182157)
(3.26001e-05 -9.69823e-07 3.41276e-05 7.42975e-07 -5.20951e-06 0.000197319)
(3.43005e-05 -5.53901e-07 4.28008e-05 1.72138e-07 -2.16161e-06 0.000113034)
(1.55103e-05 1.67189e-06 1.11614e-05 2.34698e-07 7.28968e-07 2.99062e-05)
(1.16732e-05 7.87358e-07 1.10189e-05 7.63842e-08 9.01275e-07 3.20727e-05)
(4.61244e-06 2.34721e-07 1.53578e-05 2.80119e-08 9.29063e-07 7.34019e-05)
(1.68257e-06 8.09554e-08 7.96791e-06 1.44418e-08 7.94388e-07 7.29433e-05)
(2.1597e-07 3.37293e-09 2.27925e-07 1.33748e-08 7.50161e-07 6.13215e-05)
(1.5597e-06 -7.39844e-08 -7.66177e-06 1.41693e-08 7.96409e-07 7.55682e-05)
(4.55604e-06 -2.09122e-07 -1.53612e-05 2.5474e-08 8.343e-07 7.47219e-05)
(1.12015e-05 -7.96678e-07 -9.44604e-06 7.98416e-08 8.12016e-07 3.06038e-05)
(1.50658e-05 -1.63848e-06 -1.00023e-05 2.34851e-07 5.77448e-07 2.94234e-05)
(3.45391e-05 6.79984e-07 -4.17064e-05 1.81858e-07 -2.32815e-06 0.000108581)
(3.12765e-05 7.26599e-07 -2.92014e-05 7.65509e-07 -4.51299e-06 0.000179266)
(3.25178e-07 2.68364e-07 -2.12513e-06 2.42713e-05 -0.00017881 0.00337545)
(2.50568e-05 -1.29663e-06 2.08085e-05 1.41446e-06 -1.91996e-06 7.19516e-05)
(9.7869e-06 1.34001e-06 1.30271e-05 7.01853e-07 8.9305e-07 3.8755e-05)
(7.54697e-06 1.21281e-06 -1.59887e-06 6.43132e-07 -3.05589e-06 7.77108e-05)
(1.00077e-05 1.45892e-06 4.08045e-06 4.13581e-07 7.48717e-07 2.68914e-05)
(4.70595e-06 6.90619e-07 1.70729e-05 2.9996e-07 3.3315e-06 8.5607e-05)
(2.8565e-06 2.66533e-07 8.61362e-06 2.5098e-07 3.44238e-06 7.37995e-05)
(1.18316e-06 1.13496e-08 1.85336e-07 2.2517e-07 2.87271e-06 5.707e-05)
(2.7715e-06 -2.4272e-07 -8.44904e-06 2.47162e-07 3.50262e-06 7.76268e-05)
(4.70979e-06 -6.40579e-07 -1.74518e-05 2.7785e-07 3.15717e-06 9.01131e-05)
(9.79429e-06 -1.38799e-06 -2.86991e-06 3.94884e-07 5.10021e-07 2.70619e-05)
(7.12852e-06 -1.06849e-06 1.05445e-06 6.0524e-07 -3.15124e-06 8.42008e-05)
(9.81037e-06 -1.30561e-06 -1.28196e-05 6.92695e-07 7.20471e-07 3.8052e-05)
(2.4993e-05 1.40578e-06 -2.049e-05 1.4112e-06 -2.17867e-06 7.19652e-05)
(1.64258e-06 5.92186e-08 2.88667e-08 1.62206e-05 2.44432e-05 0.00018446)
(2.99583e-05 1.66332e-06 3.45128e-05 1.79767e-06 6.69223e-06 0.000138314)
(2.23555e-05 4.72542e-06 2.35081e-05 3.08576e-06 4.10337e-06 4.09894e-05)
(1.40888e-05 1.5009e-06 4.41501e-06 7.90135e-07 1.62075e-06 6.37288e-05)
(1.03547e-05 2.19446e-06 6.79936e-06 1.68618e-06 4.17458e-06 2.26402e-05)
(6.41252e-06 1.48965e-06 1.85332e-05 1.20444e-06 9.1678e-06 0.000119312)
(6.01486e-06 5.14984e-07 9.2261e-06 9.13856e-07 7.65102e-06 8.47202e-05)
(3.86416e-06 9.60368e-09 1.11514e-07 7.37902e-07 5.95003e-06 6.40076e-05)
(5.97736e-06 -4.93688e-07 -9.1496e-06 9.02998e-07 7.71866e-06 8.8561e-05)
(6.43752e-06 -1.46046e-06 -1.89191e-05 1.16536e-06 8.96559e-06 0.000126155)
(1.03877e-05 -2.11898e-06 -6.37929e-06 1.59338e-06 3.76572e-06 2.13209e-05)
(1.40271e-05 -1.44446e-06 -4.66757e-06 7.48936e-07 1.7784e-06 6.82365e-05)
(2.245e-05 -4.7503e-06 -2.35122e-05 3.07367e-06 4.0333e-06 4.11003e-05)
(2.9932e-05 -1.6351e-06 -3.41222e-05 1.79427e-06 6.49393e-06 0.000136781)
(1.68323e-05 4.18384e-08 1.16611e-07 3.61014e-05 2.48253e-05 7.43596e-05)
(3.83654e-05 5.14507e-06 4.59597e-05 1.02812e-05 1.47413e-05 0.000157865)
(2.0687e-05 8.73807e-06 4.39935e-05 6.42124e-06 1.71995e-05 0.000125276)
(2.62949e-05 3.65196e-06 -3.0575e-06 6.67735e-06 1.11802e-05 3.78648e-05)
(1.18733e-05 1.38815e-06 1.79942e-06 2.70965e-06 4.34214e-06 2.41828e-05)
(1.20101e-05 2.04194e-06 1.62827e-05 1.4388e-06 6.51814e-06 7.31593e-05)
(9.99828e-06 8.76904e-07 9.15508e-06 9.05978e-07 5.58465e-06 5.21733e-05)
(7.49697e-06 4.62266e-10 2.36089e-08 5.7725e-07 3.98236e-06 4.13796e-05)
(9.97932e-06 -8.72698e-07 -9.15752e-06 9.07361e-07 5.55419e-06 5.39328e-05)
(1.20368e-05 -2.03266e-06 -1.64059e-05 1.44918e-06 6.28886e-06 7.71615e-05)
(1.19014e-05 -1.3835e-06 -1.77514e-06 2.71289e-06 4.08695e-06 2.41495e-05)
(2.6234e-05 -3.63633e-06 3.14398e-06 6.73377e-06 1.13e-05 3.81668e-05)
(2.07458e-05 -8.78503e-06 -4.40676e-05 6.4065e-06 1.71764e-05 0.000125345)
(3.83857e-05 -5.13507e-06 -4.58405e-05 1.03182e-05 1.44578e-05 0.000157207)
(2.46218e-05 -2.59484e-09 -6.7167e-09 4.68146e-05 1.21694e-05 5.21362e-05)
(3.33262e-05 5.27595e-06 4.08601e-05 2.48238e-05 1.60773e-05 0.00011388)
(2.03768e-05 6.33907e-06 -1.2967e-06 2.45416e-05 4.84405e-05 0.000182531)
(2.81549e-05 -1.20031e-05 -9.84045e-06 2.01123e-05 1.26688e-05 3.70899e-05)
(1.11989e-05 -2.38764e-06 -6.09903e-07 5.61929e-06 -5.61331e-06 1.66429e-05)
(1.3284e-05 1.23561e-06 1.16728e-05 1.72222e-06 -5.85059e-07 2.76342e-05)
(1.03182e-05 5.78613e-07 8.59922e-06 9.92106e-07 1.6823e-06 2.19082e-05)
(7.6965e-06 -3.28957e-10 -1.34874e-08 5.11442e-07 1.33927e-06 1.75365e-05)
(1.03069e-05 -5.75947e-07 -8.64459e-06 1.0048e-06 1.60385e-06 2.25199e-05)
(1.33096e-05 -1.22357e-06 -1.17273e-05 1.77433e-06 -8.27488e-07 2.88211e-05)
(1.11902e-05 2.39431e-06 6.28224e-07 5.68716e-06 -5.69454e-06 1.67627e-05)
(2.81014e-05 1.20118e-05 9.877e-06 2.02111e-05 1.27029e-05 3.74485e-05)
(2.04665e-05 -6.39813e-06 1.17572e-06 2.45434e-05 4.84679e-05 0.00018258)
(3.34369e-05 -5.34981e-06 -4.09387e-05 2.48312e-05 1.58674e-05 0.000113888)
(1.87788e-06 1.30806e-07 1.26573e-07 2.06864e-05 -4.5031e-05 0.00256664)
(5.55589e-05 6.83102e-06 2.84617e-05 1.36276e-06 6.6794e-07 9.64774e-05)
(9.95731e-06 -1.5196e-07 -1.88247e-06 2.68602e-07 -1.40256e-06 3.30133e-05)
(4.05817e-06 1.88328e-07 6.93577e-06 3.00414e-07 7.99269e-06 0.00031078)
(2.14752e-06 -7.73155e-08 -5.01121e-06 1.45197e-08 4.23526e-07 0.000119803)
(5.34312e-07 -1.05616e-08 -6.35576e-07 2.9671e-09 -1.71174e-07 5.78245e-05)
(5.05625e-07 2.80643e-09 4.51663e-07 3.26746e-09 -1.18135e-07 3.93109e-05)
(2.77555e-07 3.65273e-10 -1.1536e-09 4.49311e-09 -1.31385e-07 4.24664e-05)
(4.99422e-07 -1.90337e-09 -3.60966e-07 3.16003e-09 -1.32773e-07 3.95618e-05)
(5.10527e-07 1.23153e-08 7.08656e-07 2.9272e-09 -1.63747e-07 5.9908e-05)
(2.38884e-06 9.51188e-08 6.00532e-06 1.5694e-08 4.82942e-07 0.000122662)
(4.04795e-06 -1.59744e-07 -5.98813e-06 3.02284e-07 8.01177e-06 0.000309881)
(9.65941e-06 1.30979e-07 2.33264e-06 2.794e-07 -1.35856e-06 3.22815e-05)
(5.75077e-05 -6.69131e-06 -3.101e-05 1.2777e-06 7.15693e-07 9.94878e-05)
(2.12159e-06 5.44604e-08 -5.96928e-08 4.35408e-05 5.88653e-05 0.00194922)
(6.51779e-05 1.10327e-05 2.85658e-05 3.27858e-06 1.6484e-06 6.99708e-05)
(2.10992e-05 2.38479e-06 5.01246e-06 9.08729e-07 1.51886e-06 3.07059e-05)
(6.28116e-06 3.43583e-07 4.38967e-06 9.95806e-07 1.42715e-05 0.000309142)
(4.61255e-06 1.94613e-07 -7.54505e-06 5.71485e-08 8.07079e-07 0.00015241)
(2.15791e-06 9.0406e-08 -9.76849e-07 4.19953e-08 -2.14552e-07 7.63428e-05)
(1.62451e-06 1.63591e-08 1.25628e-06 6.23147e-08 -1.55931e-07 3.96568e-05)
(9.96763e-07 2.04508e-09 -4.76774e-09 7.74786e-08 3.56315e-08 4.04526e-05)
(1.61295e-06 -1.09305e-08 -1.1331e-06 5.98353e-08 -2.46076e-07 4.05117e-05)
(2.12258e-06 -7.997e-08 1.06092e-06 4.02037e-08 -1.56473e-07 8.2573e-05)
(4.98879e-06 -2.0088e-07 9.03952e-06 5.70505e-08 7.60333e-07 0.000157732)
(6.30279e-06 -2.60413e-07 -2.54441e-06 9.37886e-07 1.37386e-05 0.000311861)
(2.11406e-05 -2.50275e-06 -4.87385e-06 9.65546e-07 1.66712e-06 3.05814e-05)
(6.58473e-05 -1.09982e-05 -2.85202e-05 3.20095e-06 1.5466e-06 6.99492e-05)
(9.9912e-06 9.60598e-09 -5.7095e-08 6.06906e-05 -2.11694e-05 0.000116191)
(6.70122e-05 8.09818e-06 3.04506e-05 3.23117e-06 -3.09984e-06 6.57722e-05)
(3.4473e-05 7.71216e-06 2.68015e-05 4.26333e-06 3.56922e-06 4.4135e-05)
(1.18252e-05 -1.46268e-07 -1.47139e-06 2.6616e-06 1.91386e-05 0.000169857)
(8.28557e-06 4.33937e-07 -1.07837e-06 4.53921e-07 2.40437e-06 5.34199e-05)
(5.82777e-06 3.83949e-07 3.13984e-06 3.54006e-07 -1.17885e-06 7.88193e-05)
(5.01485e-06 -2.93183e-08 3.53199e-06 2.74878e-07 -6.40509e-07 2.89684e-05)
(3.37427e-06 3.98209e-09 -2.38639e-08 3.10461e-07 -3.55393e-07 2.19054e-05)
(4.99702e-06 4.10593e-08 -3.46485e-06 2.63546e-07 -7.63035e-07 3.11236e-05)
(5.80929e-06 -3.58494e-07 -2.88971e-06 3.37376e-07 -1.16946e-06 8.96712e-05)
(8.37582e-06 -4.13198e-07 1.11067e-06 4.38333e-07 2.4654e-06 5.49894e-05)
(1.18154e-05 1.4701e-07 1.72133e-06 2.5677e-06 1.88647e-05 0.000172664)
(3.45651e-05 -7.75081e-06 -2.67071e-05 4.38091e-06 3.61095e-06 4.42335e-05)