/*--------------------------------*- C++ -*----------------------------------*\
| =========                 |                                                 |
| \\      /  F ield         | OpenFOAM: The Open Source CFD Toolbox           |
|  \\    /   O peration     | Version:  v1906                                 |
|   \\  /    A nd           | Web:      www.OpenFOAM.com                      |
|    \\/     M anipulation  |                                                 |
\*---------------------------------------------------------------------------*/
FoamFile
{
    version     2.0;
    format      ascii;
    class       volScalarField;
    location    "38";
    object      alphat;
}
// * * * * * * * * * * * * * * * * * * * * * * * * * * * * * * * * * * * * * //

dimensions      [1 -1 -1 0 0 0 0];


internalField   nonuniform List<scalar> 
2000
(
3.35787e-06
2.10772e-05
4.8573e-05
6.36071e-05
6.57e-05
6.65248e-05
6.56995e-05
6.36117e-05
4.85878e-05
2.10999e-05
1.11887e-05
0.000434359
0.000684899
0.000790931
0.000809309
0.00081577
0.000809293
0.000790934
0.000684962
0.000434535
8.1848e-05
0.00188571
0.00208717
0.00222126
0.0022515
0.00226521
0.00225146
0.00222123
0.00208723
0.00188587
0.000681302
0.00333569
0.00363435
0.00384965
0.00390002
0.00392249
0.00389996
0.00384957
0.00363452
0.00333591
0.00242953
0.00504394
0.00541916
0.00564982
0.0057199
0.00575211
0.00571981
0.0056497
0.00541943
0.00504432
0.00477775
0.00724457
0.00762608
0.00768667
0.00776721
0.00780674
0.00776704
0.00768644
0.00762623
0.00724494
0.00778458
0.010426
0.00945948
0.00944964
0.00956382
0.00961762
0.00956353
0.00944913
0.00945924
0.0104261
0.0115134
0.0139834
0.0113694
0.0110395
0.0111337
0.0111892
0.0111333
0.0110388
0.0113687
0.0139825
0.0161935
0.0167346
0.0136
0.0131337
0.013253
0.0133026
0.0132527
0.0131333
0.0135993
0.0167336
0.0210327
0.0188334
0.0165544
0.016553
0.0167575
0.0167962
0.0167577
0.0165534
0.0165547
0.0188325
1.3883e-05
6.60329e-05
9.7577e-05
0.000111261
0.000118672
0.000121116
0.000118677
0.000111272
9.76043e-05
6.60616e-05
5.718e-05
0.00082417
0.0009848
0.00106221
0.00111534
0.00113024
0.00111536
0.00106227
0.000984939
0.00082434
0.000600304
0.00302371
0.00306628
0.00315235
0.0032421
0.00326948
0.00324216
0.00315244
0.0030664
0.00302377
0.00243546
0.00505425
0.00532911
0.00552813
0.00565518
0.00570044
0.00565529
0.00552832
0.00532934
0.00505448
0.00437958
0.00687397
0.00772984
0.00804987
0.00821528
0.00827881
0.00821546
0.00805017
0.0077303
0.00687452
0.00635602
0.00888685
0.0105056
0.0108639
0.0110582
0.0111343
0.0110584
0.0108643
0.0105063
0.00888769
0.00826529
0.011406
0.0137076
0.0141011
0.0143304
0.0144112
0.0143307
0.0141016
0.0137085
0.0114071
0.0101964
0.0143708
0.0172946
0.0176391
0.0179222
0.0179881
0.0179227
0.0176401
0.0172958
0.014372
0.012703
0.016239
0.0194822
0.0200476
0.020323
0.0203799
0.0203236
0.0200486
0.019483
0.0162398
0.0130359
0.0166796
0.0193048
0.0197105
0.0198971
0.0199394
0.0198976
0.0197113
0.0193051
0.0166802
1.07456e-05
7.44277e-05
9.46825e-05
0.000100171
0.000103598
0.00010425
0.0001036
0.000100176
9.46962e-05
7.44618e-05
0.000254201
0.000777582
0.000835993
0.000844212
0.000855463
0.000856847
0.000855456
0.000844212
0.000836043
0.000777746
0.00227888
0.00282849
0.00255859
0.00255125
0.00257491
0.00258109
0.00257489
0.00255122
0.0025586
0.00282844
0.00513242
0.00506323
0.00444629
0.00444216
0.0044874
0.00450269
0.00448737
0.00444209
0.00444625
0.00506309
0.0074702
0.00690254
0.00620805
0.00621639
0.00628675
0.00631445
0.00628669
0.00621625
0.006208
0.00690251
0.00952311
0.00875832
0.00802454
0.00797651
0.00806055
0.00810148
0.00806041
0.00797623
0.00802443
0.0087584
0.011597
0.0112089
0.00977765
0.00966673
0.00973663
0.0097871
0.00973631
0.00966613
0.00977715
0.011209
0.0140205
0.0145541
0.0114868
0.0110428
0.01112
0.0111774
0.0111196
0.0110421
0.0114859
0.0145543
0.0173351
0.0171026
0.013637
0.0130596
0.0131562
0.0132123
0.0131559
0.0130591
0.0136362
0.0171015
0.021017
0.0188504
0.0164083
0.0163058
0.0165187
0.0165726
0.0165189
0.0163061
0.0164084
0.0188497
5.51865e-05
9.00208e-05
0.000104474
0.00011506
0.000122935
0.000125395
0.000122938
0.000115069
0.000104493
9.00514e-05
0.000702332
0.000920398
0.000985722
0.00104605
0.00109426
0.00110863
0.00109426
0.00104609
0.000985816
0.000920567
0.00330969
0.00336367
0.00316142
0.0031999
0.00328442
0.00330847
0.00328446
0.00319999
0.00316145
0.00336375
0.00650903
0.00624443
0.00586729
0.00588758
0.00601006
0.00604939
0.00601016
0.00588776
0.00586728
0.00624438
0.00923344
0.00879524
0.00851054
0.00858535
0.0087479
0.00880667
0.00874809
0.00858565
0.00851063
0.00879532
0.0108856
0.0106401
0.0110986
0.0112935
0.0114993
0.0115756
0.0114996
0.0112939
0.011099
0.0106406
0.0119081
0.012491
0.0139819
0.0143945
0.0146488
0.0147391
0.0146491
0.014395
0.0139825
0.012492
0.0126773
0.0148109
0.0174692
0.0180567
0.0182598
0.0183251
0.0182603
0.0180575
0.0174703
0.0148124
0.0130337
0.0166157
0.0197715
0.020344
0.0205493
0.0206033
0.02055
0.020345
0.0197723
0.016617
0.0122383
0.0167287
0.01934
0.0197894
0.0199358
0.0199682
0.0199364
0.0197902
0.0193403
0.0167295
3.06582e-05
8.4017e-05
9.90932e-05
0.000101074
0.000102925
0.000102853
0.000102923
0.000101075
9.90999e-05
8.4048e-05
0.000413024
0.000731188
0.000825802
0.000829266
0.00083733
0.000836706
0.000837307
0.000829251
0.000825825
0.000731364
0.00270158
0.00254733
0.00248996
0.00247944
0.00249258
0.00249298
0.00249253
0.0024794
0.00248997
0.00254745
0.00620513
0.00501443
0.00456536
0.00448818
0.0045068
0.00450836
0.00450671
0.00448806
0.00456524
0.00501438
0.00982751
0.00763341
0.00668993
0.00652287
0.00655077
0.0065595
0.00655065
0.00652265
0.00668965
0.00763308
0.0126262
0.0102749
0.00851626
0.00839184
0.00842522
0.00845466
0.00842501
0.00839144
0.00851593
0.0102744
0.0147129
0.0128578
0.0101959
0.00989456
0.00992386
0.0099618
0.00992354
0.00989392
0.0101952
0.0128571
0.0168495
0.0155033
0.0118188
0.0112075
0.01123
0.0112718
0.0112296
0.0112067
0.0118177
0.0155024
0.0196627
0.0176945
0.0137519
0.0130209
0.013072
0.0131141
0.0130717
0.0130203
0.0137511
0.0176934
0.021723
0.0190615
0.0163192
0.0161556
0.0163597
0.0164038
0.0163599
0.0161559
0.0163194
0.0190608
0.000100227
9.53704e-05
0.000105169
0.000113862
0.000120734
0.000123
0.000120736
0.000113868
0.000105183
9.53932e-05
0.0010612
0.000922445
0.000974084
0.00103478
0.00108425
0.00110042
0.00108426
0.00103481
0.000974157
0.000922543
0.00397982
0.00323262
0.00310166
0.00316526
0.0032503
0.0032788
0.00325033
0.00316533
0.00310168
0.0032325
0.00762653
0.0063333
0.00583519
0.0058459
0.00596041
0.00599802
0.00596049
0.00584604
0.00583509
0.00633298
0.0106514
0.00933548
0.00869527
0.00865873
0.00879921
0.00884553
0.00879936
0.00865896
0.00869515
0.00933531
0.0126161
0.0117544
0.0114891
0.0115167
0.0116885
0.0117476
0.0116887
0.011517
0.0114891
0.0117546
0.013482
0.0138238
0.014487
0.0147046
0.0149119
0.0149835
0.0149122
0.014705
0.0144874
0.0138246
0.0133324
0.0155979
0.0179303
0.0182698
0.0184609
0.0185237
0.0184614
0.0182707
0.0179309
0.015599
0.0126985
0.0167454
0.0199995
0.0205415
0.0207268
0.0207802
0.0207275
0.0205425
0.0200003
0.0167467
0.0117029
0.0168025
0.0194883
0.0199405
0.0200519
0.0200843
0.0200525
0.0199412
0.0194887
0.0168033
3.36477e-05
9.16721e-05
0.000106574
0.000107321
0.00010833
0.000108118
0.000108328
0.000107319
0.000106575
9.16914e-05
0.000180432
0.000723963
0.000840136
0.000837163
0.000839264
0.000837064
0.000839237
0.000837131
0.000840135
0.000724085
0.00137629
0.00237741
0.00249321
0.00249665
0.00250352
0.00250274
0.00250347
0.00249658
0.00249321
0.0023775
0.00415271
0.0046866
0.00466451
0.00461955
0.00462784
0.00462736
0.00462775
0.00461939
0.00466452
0.00468662
0.00836064
0.00751412
0.00679175
0.00670491
0.00673114
0.0067433
0.00673102
0.00670467
0.00679159
0.00751371
0.0127851
0.0106534
0.00878794
0.00856617
0.00858805
0.0086097
0.00858785
0.00856574
0.0087875
0.0106526
0.0157759
0.0135657
0.0105167
0.010084
0.0100898
0.0101199
0.0100895
0.0100834
0.0105158
0.0135648
0.0181605
0.0160749
0.0120139
0.0112911
0.0112801
0.0113141
0.0112797
0.0112903
0.0120127
0.0160738
0.0210695
0.018031
0.0137168
0.0129204
0.0129531
0.0129893
0.0129528
0.0129198
0.0137159
0.01803
0.0228341
0.0191328
0.0161359
0.015984
0.0161908
0.0162349
0.016191
0.0159842
0.0161361
0.0191321
0.00011799
8.85775e-05
9.8069e-05
0.000106039
0.000112548
0.000114769
0.000112549
0.000106043
9.80821e-05
8.8599e-05
0.00132433
0.00089252
0.000939336
0.000993859
0.00104227
0.00105879
0.00104228
0.000993886
0.00093942
0.000892644
0.00434985
0.00293325
0.00289598
0.00298319
0.00307157
0.00310385
0.00307161
0.00298327
0.00289608
0.00293327
0.00819104
0.00558692
0.00541423
0.00550623
0.00562964
0.0056741
0.00562972
0.00550637
0.0054143
0.00558688
0.0115281
0.00862333
0.00828668
0.00833316
0.00848764
0.00853973
0.00848778
0.00833337
0.00828669
0.00862339
0.0130213
0.011409
0.0114198
0.0114125
0.0115905
0.0116469
0.0115907
0.0114128
0.0114198
0.0114092
0.0128976
0.0136168
0.0148158
0.0148636
0.0150578
0.0151165
0.0150581
0.014864
0.0148159
0.0136174
0.0119611
0.015486
0.0179638
0.0182902
0.0185006
0.0185577
0.0185012
0.0182911
0.0179643
0.0154869
0.0115756
0.0168248
0.020128
0.0206497
0.0208442
0.020892
0.0208449
0.0206508
0.0201287
0.0168258
0.0112801
0.0170063
0.0197261
0.0201519
0.0202475
0.0202761
0.0202481
0.0201527
0.0197264
0.0170072
4.21178e-05
9.68109e-05
0.000114124
0.000116425
0.000118499
0.000118893
0.000118497
0.000116424
0.000114127
9.68278e-05
0.000164543
0.000737708
0.000880909
0.000883477
0.000884161
0.000882989
0.000884133
0.000883447
0.000880908
0.000737827
0.000650015
0.00238828
0.00268061
0.00270138
0.00271913
0.0027228
0.00271908
0.00270132
0.00268066
0.00238849
0.00209985
0.00469855
0.00478995
0.00480546
0.00484006
0.00484728
0.00483999
0.00480535
0.00478996
0.00469853
0.00606425
0.0075952
0.00695048
0.00688088
0.00691942
0.0069342
0.00691931
0.00688067
0.00695033
0.00759463
0.0105121
0.010706
0.00887778
0.00867036
0.00869797
0.00872154
0.00869779
0.00866997
0.00887735
0.0107049
0.013548
0.0135252
0.0104444
0.0100478
0.0100577
0.0100906
0.0100574
0.0100472
0.0104437
0.0135242
0.0164537
0.0160105
0.0117978
0.0111498
0.0111465
0.0111851
0.0111462
0.011149
0.0117967
0.016009
0.0201279
0.0177995
0.0134616
0.0127662
0.0128166
0.0128578
0.0128163
0.0127656
0.0134608
0.0177983
0.0242162
0.018953
0.015988
0.0158938
0.0161118
0.0161611
0.0161119
0.0158941
0.0159882
0.0189524
5.5868e-05
4.20891e-05
5.78605e-05
7.00731e-05
7.6695e-05
7.8745e-05
7.66954e-05
7.0077e-05
5.78763e-05
4.21167e-05
0.00124387
0.000588027
0.000622536
0.000685892
0.00073708
0.000753563
0.000737083
0.00068591
0.000622612
0.000588172
0.00340102
0.00202906
0.00219244
0.00235263
0.00244896
0.00248054
0.00244899
0.00235271
0.00219264
0.00202941
0.0056313
0.00412928
0.00451617
0.00476546
0.00493422
0.0049862
0.00493429
0.00476565
0.00451651
0.00413
0.00930676
0.00739735
0.00762391
0.00774787
0.00795867
0.00802174
0.00795878
0.00774808
0.00762404
0.00739821
0.0123599
0.0105495
0.0108792
0.0109182
0.0111638
0.0112338
0.011164
0.0109186
0.0108792
0.0105503
0.0110501
0.0131861
0.0141521
0.0142409
0.0144994
0.0145707
0.0144998
0.0142415
0.0141522
0.013187
0.0100626
0.0154488
0.0171526
0.0174616
0.0177301
0.0177967
0.0177306
0.0174624
0.0171531
0.0154498
0.0102798
0.0168933
0.0194035
0.0199666
0.0202218
0.0202768
0.0202225
0.0199677
0.0194043
0.0168941
0.0108084
0.0170556
0.0194977
0.0199801
0.0201103
0.0201412
0.0201109
0.019981
0.0194982
0.0170562
0.0211574
0.0191798
0.0188308
0.0194445
0.0197202
0.019744
0.0197208
0.0194455
0.0188319
0.0191793
0.0178923
0.0175591
0.018502
0.0190469
0.0192067
0.0191948
0.0192072
0.0190478
0.0185031
0.0175592
0.0145606
0.0148364
0.015988
0.0164927
0.0165971
0.0165766
0.0165972
0.016493
0.0159888
0.0148369
0.0117478
0.0124084
0.0132132
0.0136128
0.0136884
0.0136757
0.0136884
0.0136129
0.0132137
0.0124089
0.00950618
0.00990832
0.0103291
0.01057
0.010587
0.0105713
0.0105868
0.0105699
0.0103294
0.00990866
0.00708884
0.00715507
0.00728289
0.00739929
0.00738678
0.00737462
0.00738667
0.0073992
0.00728298
0.00715524
0.00437984
0.004239
0.00421078
0.00424505
0.00422015
0.00421157
0.00422007
0.00424495
0.00421068
0.00423903
0.00183744
0.0016928
0.00161991
0.0016251
0.00160866
0.00160412
0.00160861
0.00162503
0.00161982
0.00169278
0.000117851
0.00010269
9.5645e-05
9.76677e-05
9.72921e-05
9.71781e-05
9.72893e-05
9.76637e-05
9.56401e-05
0.000102687
8.91247e-06
8.53029e-06
8.35982e-06
8.62641e-06
8.73884e-06
8.77204e-06
8.73895e-06
8.62669e-06
8.36014e-06
8.53057e-06
0.0133445
0.0155163
0.0163659
0.0164142
0.0164502
0.0164692
0.0164502
0.0164141
0.0163656
0.0155166
0.0136315
0.0140757
0.0136646
0.013552
0.0135283
0.0135496
0.0135279
0.0135515
0.0136641
0.0140757
0.0132736
0.0124294
0.0119643
0.0119717
0.0119827
0.0120208
0.0119822
0.0119713
0.011964
0.0124298
0.0116932
0.0108129
0.0105343
0.0106197
0.0106623
0.0107141
0.010662
0.0106195
0.0105341
0.0108132
0.00948142
0.00878433
0.00870778
0.00883087
0.00887915
0.00892962
0.00887908
0.00883084
0.00870764
0.00878462
0.00675257
0.00641353
0.00647072
0.00660591
0.00666211
0.00671219
0.00666216
0.006606
0.00647066
0.00641374
0.00388368
0.00366805
0.00379995
0.0039178
0.00396454
0.00400343
0.00396466
0.00391795
0.00379995
0.00366818
0.00163102
0.00158678
0.00167971
0.00173726
0.00176588
0.00178158
0.00176592
0.00173732
0.00167973
0.00158682
0.000101135
9.48052e-05
0.000113641
0.000124825
0.000131606
0.000135078
0.00013162
0.000124844
0.000113646
9.4809e-05
4.78187e-06
4.5847e-06
5.14576e-06
5.61237e-06
5.90109e-06
6.02705e-06
5.90167e-06
5.61319e-06
5.14633e-06
4.585e-06
0.0212159
0.0190607
0.0187742
0.0192934
0.0195679
0.0196046
0.0195685
0.0192944
0.0187752
0.0190605
0.0182452
0.0173078
0.0183152
0.0189024
0.0191055
0.0191116
0.019106
0.0189032
0.0183162
0.0173083
0.0145672
0.0146795
0.0158902
0.0164258
0.0165742
0.0165722
0.0165745
0.0164262
0.0158911
0.0146798
0.0114872
0.0120213
0.0129482
0.0133646
0.0134797
0.0134797
0.0134798
0.0133648
0.0129488
0.0120217
0.00881963
0.00919351
0.009821
0.0100971
0.0101699
0.0101789
0.0101699
0.0100972
0.00982141
0.00919388
0.00617922
0.00621983
0.0067281
0.00690188
0.0069335
0.00692885
0.00693339
0.00690182
0.00672817
0.00621991
0.00338307
0.00337767
0.00364268
0.00372122
0.00375595
0.00376426
0.0037559
0.00372121
0.00364264
0.00337765
0.00155507
0.00150749
0.00153623
0.00153834
0.0015423
0.0015417
0.00154223
0.00153827
0.00153616
0.00150743
9.14607e-05
8.51639e-05
9.22318e-05
9.28001e-05
9.45928e-05
9.52046e-05
9.45884e-05
9.27971e-05
9.22237e-05
8.51578e-05
3.08197e-06
2.83293e-06
3.20185e-06
3.36908e-06
3.50192e-06
3.56385e-06
3.50197e-06
3.36919e-06
3.2017e-06
2.8328e-06
0.0125359
0.0152604
0.0162745
0.0163054
0.0163098
0.0163207
0.0163098
0.0163053
0.0162741
0.0152607
0.0131806
0.0134332
0.013326
0.0132547
0.0132504
0.0132755
0.01325
0.0132542
0.0133256
0.0134331
0.0124515
0.0117318
0.0114194
0.0114526
0.01151
0.0115574
0.0115096
0.0114522
0.0114191
0.0117321
0.0105456
0.0098566
0.0097441
0.00984351
0.00994363
0.0100023
0.00994337
0.00984333
0.0097439
0.009857
0.00810973
0.0077716
0.0079469
0.00809694
0.00822007
0.00827208
0.00821997
0.00809697
0.00794687
0.00777185
0.00548126
0.00531934
0.00553758
0.00566266
0.00576968
0.00580774
0.00576968
0.00566281
0.00553766
0.00531957
0.00341673
0.00338097
0.0035035
0.00357912
0.00364953
0.00367217
0.00364955
0.00357921
0.00350358
0.00338109
0.00175762
0.00176474
0.00180435
0.00184194
0.00187303
0.00188172
0.00187304
0.00184198
0.00180441
0.00176479
0.000116987
0.000120476
0.000133868
0.000142395
0.000150966
0.000153055
0.000150972
0.00014241
0.000133884
0.000120484
3.18504e-06
3.23856e-06
3.7643e-06
4.09089e-06
4.39592e-06
4.48887e-06
4.39625e-06
4.09152e-06
3.76482e-06
3.23877e-06
0.0212774
0.0189864
0.01862
0.0191177
0.0194209
0.0194587
0.0194214
0.0191186
0.0186211
0.0189862
0.0180452
0.0170725
0.0180392
0.0186663
0.0189255
0.0189401
0.018926
0.0186671
0.0180402
0.017073
0.0140119
0.0142963
0.0155918
0.0161619
0.016363
0.0163705
0.0163633
0.0161624
0.0155926
0.0142966
0.0109735
0.0115368
0.0122956
0.0126268
0.0127495
0.0127673
0.0127496
0.012627
0.0122959
0.0115371
0.00830979
0.00845219
0.00913532
0.00938648
0.00948573
0.00950136
0.00948574
0.00938661
0.00913556
0.00845237
0.00566413
0.00592075
0.00635085
0.00648674
0.00655219
0.00656079
0.00655214
0.00648673
0.00635097
0.00592084
0.00361748
0.00377552
0.00391947
0.00397202
0.00399891
0.00399843
0.00399881
0.00397191
0.00391949
0.00377553
0.00179777
0.00183543
0.00184086
0.00185198
0.00185476
0.0018516
0.00185468
0.00185186
0.00184082
0.00183539
0.000115337
0.00011494
0.000115909
0.000116793
0.000118092
0.000118006
0.000118084
0.000116782
0.000115903
0.000114934
2.81333e-06
2.71036e-06
2.87381e-06
2.93197e-06
3.01537e-06
3.03748e-06
3.01528e-06
2.9319e-06
2.87374e-06
2.71026e-06
0.0120051
0.015221
0.0162442
0.0162771
0.0162533
0.0162644
0.0162534
0.0162771
0.0162439
0.0152213
0.0126467
0.0131721
0.0131456
0.0131109
0.0131043
0.0131326
0.013104
0.0131104
0.0131452
0.0131723
0.0119131
0.0114758
0.0112801
0.0113562
0.0114291
0.0114803
0.0114287
0.0113558
0.01128
0.0114761
0.0101565
0.0097945
0.00968995
0.00980967
0.00992573
0.00998526
0.00992543
0.00980944
0.00968987
0.00979483
0.0077442
0.00761405
0.00775849
0.00790259
0.00803524
0.00807925
0.00803514
0.00790262
0.00775859
0.00761439
0.00553896
0.00553791
0.00562516
0.00576448
0.00587227
0.00589961
0.00587223
0.00576453
0.00562531
0.00553817
0.00361757
0.00366294
0.00369607
0.00380285
0.00387197
0.00388822
0.00387196
0.00380287
0.00369618
0.00366309
0.00181223
0.00183866
0.00186622
0.0019226
0.00195675
0.001966
0.00195676
0.00192263
0.00186628
0.00183871
0.00012176
0.000129032
0.00013886
0.000151321
0.000159895
0.000161894
0.000159901
0.000151331
0.000138877
0.000129039
3.29111e-06
3.47827e-06
3.84602e-06
4.19836e-06
4.48027e-06
4.54756e-06
4.48051e-06
4.19881e-06
3.84657e-06
3.47847e-06
0.0216612
0.0188878
0.0184193
0.0189675
0.0193014
0.0193455
0.0193019
0.0189684
0.0184204
0.0188876
0.017929
0.0169529
0.0178416
0.018534
0.0188305
0.0188541
0.018831
0.0185349
0.0178427
0.0169531
0.0137823
0.0142184
0.0151492
0.0154777
0.0156638
0.0156862
0.0156639
0.015478
0.0151496
0.0142188
0.0107893
0.0109938
0.0115781
0.0119229
0.0120589
0.0120693
0.012059
0.0119231
0.0115785
0.010994
0.00789255
0.00820923
0.00875119
0.0090093
0.00909607
0.00909865
0.00909603
0.00900933
0.00875147
0.00820944
0.00575994
0.00609113
0.00640654
0.00655973
0.00660365
0.00660385
0.00660356
0.00655963
0.00640665
0.00609124
0.00387343
0.00405948
0.00418586
0.00426266
0.00427896
0.0042796
0.00427886
0.0042625
0.00418587
0.00405949
0.00190242
0.00195452
0.00198972
0.00201956
0.00202358
0.00202434
0.00202352
0.00201944
0.00198971
0.0019545
0.000120896
0.000121695
0.000123303
0.000125795
0.000126619
0.000126706
0.000126611
0.000125781
0.000123297
0.000121689
2.74665e-06
2.68697e-06
2.76394e-06
2.84868e-06
2.90723e-06
2.91762e-06
2.90709e-06
2.84846e-06
2.76382e-06
2.68685e-06
0.0116208
0.0153484
0.0163806
0.0163928
0.0163382
0.0163436
0.0163383
0.0163928
0.0163802
0.0153487
0.0121938
0.0131673
0.0131535
0.0130697
0.0130238
0.0130473
0.0130234
0.0130692
0.0131531
0.0131676
0.0116152
0.0114554
0.0113878
0.0114465
0.0114885
0.0115433
0.0114881
0.0114461
0.0113876
0.0114559
0.0102424
0.0101049
0.0100903
0.0102711
0.0103869
0.010444
0.0103866
0.0102709
0.0100903
0.0101051
0.0081168
0.00812951
0.00823651
0.00840332
0.00852943
0.00857033
0.00852934
0.00840327
0.00823666
0.00812984
0.00613281
0.00623422
0.00628487
0.00644785
0.00655554
0.00658606
0.00655549
0.00644783
0.00628505
0.00623448
0.00395936
0.00404735
0.00406315
0.00419369
0.0042706
0.00429232
0.0042706
0.00419371
0.00406329
0.00404752
0.00183058
0.00186198
0.00188593
0.00195132
0.00199024
0.00200235
0.00199026
0.00195136
0.001886
0.00186204
0.00012429
0.000132801
0.000141351
0.000154575
0.000163259
0.000165547
0.000163266
0.000154585
0.000141368
0.000132809
3.56219e-06
3.83751e-06
4.1857e-06
4.60298e-06
4.9068e-06
4.98749e-06
4.90705e-06
4.60338e-06
4.18626e-06
3.83771e-06
0.0222775
0.0188599
0.0183243
0.0189244
0.0192677
0.0193176
0.0192683
0.0189253
0.0183255
0.0188598
0.0180609
0.0169971
0.0178492
0.0185752
0.0188709
0.0188979
0.0188715
0.0185761
0.0178504
0.0169974
0.0138091
0.0143514
0.015163
0.0155212
0.0157037
0.0157245
0.0157038
0.0155215
0.0151635
0.0143519
0.0108773
0.0113234
0.0117861
0.0121541
0.0122813
0.0122841
0.0122813
0.0121542
0.0117865
0.0113235
0.00811037
0.00844898
0.00886952
0.00914539
0.00921655
0.00921076
0.00921649
0.00914537
0.00886982
0.00844921
0.00573157
0.00602156
0.00627579
0.00645346
0.00648557
0.00648484
0.00648548
0.00645336
0.0062759
0.00602172
0.00371423
0.00384732
0.00397555
0.00406537
0.00407309
0.00407639
0.004073
0.00406527
0.00397554
0.00384737
0.00183187
0.00186581
0.00191419
0.00193844
0.00193602
0.00193647
0.00193595
0.00193838
0.00191416
0.0018658
0.000115015
0.000113802
0.000115735
0.000117231
0.000116698
0.000116753
0.000116689
0.000117221
0.000115726
0.000113798
2.41989e-06
2.34846e-06
2.40419e-06
2.52964e-06
2.58393e-06
2.59882e-06
2.58377e-06
2.52948e-06
2.40404e-06
2.34842e-06
0.0112481
0.0154225
0.0165726
0.016641
0.0165963
0.0165954
0.0165964
0.016641
0.0165723
0.0154228
0.0123518
0.0140828
0.0139908
0.0137067
0.0135807
0.0135817
0.0135803
0.0137062
0.0139902
0.0140831
0.0119156
0.0123209
0.012138
0.0120261
0.0119834
0.012007
0.0119829
0.0120255
0.0121377
0.0123214
0.0106414
0.0105447
0.0105022
0.0105961
0.0106849
0.0107334
0.0106848
0.010596
0.0105022
0.0105448
0.00873304
0.00875425
0.00888469
0.00908268
0.00920749
0.00926373
0.00920746
0.00908266
0.00888482
0.00875455
0.00716635
0.00735926
0.00751603
0.0076788
0.0077772
0.0078227
0.00777719
0.00767879
0.00751621
0.00735953
0.00538404
0.00559426
0.00564166
0.00567908
0.00571629
0.00573422
0.00571626
0.00567902
0.00564178
0.0055944
0.00281865
0.00286801
0.00282815
0.00285459
0.00288227
0.00289362
0.00288229
0.00285461
0.00282823
0.00286804
0.000289499
0.000300028
0.000296831
0.00030437
0.000312123
0.000314637
0.000312126
0.000304375
0.000296852
0.000300026
1.19434e-05
1.29041e-05
1.37493e-05
1.4339e-05
1.48318e-05
1.5e-05
1.48322e-05
1.43397e-05
1.37504e-05
1.29045e-05
)
;

boundaryField
{
    leftWall
    {
        type            compressible::alphatWallFunction;
        Prt             0.85;
        value           uniform 0;
    }
    rightWall
    {
        type            compressible::alphatWallFunction;
        Prt             0.85;
        value           uniform 0;
    }
    leftSides_periodic0
    {
        type            cyclic;
    }
    leftSides_periodic1
    {
        type            cyclic;
    }
    rightSides_periodic0
    {
        type            cyclic;
    }
    rightSides_periodic1
    {
        type            cyclic;
    }
    leftInOut_periodic0
    {
        type            cyclic;
    }
    leftInOut_periodic1
    {
        type            cyclic;
    }
    rightInOut_periodic0
    {
        type            cyclic;
    }
    rightInOut_periodic1
    {
        type            cyclic;
    }
}


// ************************************************************************* //
