/*--------------------------------*- C++ -*----------------------------------*\
| =========                 |                                                 |
| \\      /  F ield         | OpenFOAM: The Open Source CFD Toolbox           |
|  \\    /   O peration     | Version:  v1906                                 |
|   \\  /    A nd           | Web:      www.OpenFOAM.com                      |
|    \\/     M anipulation  |                                                 |
\*---------------------------------------------------------------------------*/
FoamFile
{
    version     2.0;
    format      ascii;
    class       volScalarField;
    location    "38";
    object      omega;
}
// * * * * * * * * * * * * * * * * * * * * * * * * * * * * * * * * * * * * * //

dimensions      [0 0 -1 0 0 0 0];


internalField   nonuniform List<scalar> 
2000
(
2586.13
2592.21
2601.6
2606.73
2607.44
2607.72
2607.44
2606.73
2601.61
2592.22
1087.39
656.319
694.078
697.657
703.822
704.464
703.82
697.658
694.095
656.374
478.365
384.376
372.494
360.328
362.034
362.049
362.034
360.327
372.49
384.371
295.908
241.578
218.565
209.204
209.358
209.509
209.359
209.205
218.556
241.561
233.198
156.766
135.482
131.23
131.412
131.621
131.413
131.231
135.476
156.747
183.079
104.672
88.5445
87.3915
87.2834
87.4533
87.2846
87.3928
88.5418
104.66
131.907
71.6273
60.4994
60.0138
59.9215
60.0571
59.9225
60.0148
60.4975
71.6195
88.4683
51.5133
42.5147
41.7861
41.6501
41.7406
41.6509
41.7866
42.5128
51.5073
58.5065
37.9513
30.8927
29.9637
29.7994
29.841
29.7999
29.964
30.891
37.9465
40.8834
28.8319
24.6768
24.1777
24.1627
24.1817
24.1632
24.1782
24.6761
28.8292
2589.74
2607.64
2618.46
2623.16
2625.7
2626.54
2625.7
2623.16
2618.47
2607.65
571.889
612.598
659.377
681.238
687.433
689.648
687.433
681.244
659.402
612.656
280.079
319.597
324.15
327.671
331.173
332.141
331.173
327.672
324.152
319.616
211.317
215.546
201.342
197.123
198.557
198.837
198.557
197.122
201.337
215.538
185.787
151.095
132.169
128.382
128.719
128.868
128.72
128.383
132.163
151.08
159.992
104.068
88.2916
86.72
86.9183
87.0824
86.9197
86.7218
88.2891
104.056
123.846
71.4908
60.4526
59.8529
59.823
59.9612
59.824
59.8542
60.4508
71.4833
86.2052
51.231
42.5767
41.7746
41.7218
41.8226
41.7228
41.7753
42.5749
51.2258
58.4069
37.6767
31.0932
30.1751
30.1044
30.1591
30.1051
30.1757
31.0916
37.6727
40.6977
28.4877
24.8603
24.4053
24.387
24.4066
24.3875
24.4059
24.8598
28.4855
2588.67
2610.52
2617.44
2619.3
2620.47
2620.69
2620.47
2619.3
2617.44
2610.54
491.474
630.258
676.426
689.516
692.15
693.185
692.15
689.518
676.443
630.313
235.29
294.771
320.5
328.048
330.316
330.952
330.314
328.049
320.507
294.792
178.786
186.748
189.725
192.474
193.894
194.25
193.893
192.474
189.726
186.746
160.923
133.421
123.832
124.314
125.218
125.449
125.218
124.315
123.83
133.407
144.334
96.3726
84.1849
83.7576
84.4188
84.5966
84.4197
83.7587
84.1817
96.3579
118.623
68.6184
58.3447
57.7552
58.1826
58.3329
58.1837
57.7564
58.3423
68.6076
85.6247
49.1397
41.1668
40.4442
40.5861
40.6937
40.5869
40.445
41.1649
49.1326
58.3443
36.2443
30.039
29.1684
29.1831
29.2469
29.1837
29.1688
30.0373
36.2395
41.1799
27.9681
24.5035
24.0573
24.0574
24.0809
24.0579
24.0578
24.503
27.9655
2603.91
2615.87
2620.83
2624.47
2627.18
2628.02
2627.18
2624.47
2620.84
2615.88
574.902
645.149
681.421
696.329
702.343
704.83
702.346
696.335
681.442
645.189
253.581
291.858
315.835
325.243
327.761
328.947
327.761
325.245
315.845
291.875
167.009
178.43
184.998
188.876
190.504
190.988
190.504
188.877
185
178.431
135.967
128.039
122.741
123.566
124.614
124.818
124.615
123.567
122.739
128.03
118.182
95.3684
84.1493
83.9494
84.6475
84.7953
84.6486
83.9507
84.1468
95.3567
98.792
68.5371
58.5873
58.0521
58.5071
58.629
58.5083
58.0535
58.5852
68.527
76.2946
49.1277
41.4685
40.7898
40.9986
41.0868
40.9995
40.7909
41.4668
49.1206
55.7006
36.2028
30.3862
29.6493
29.7094
29.7584
29.7101
29.65
30.3848
36.198
39.7995
27.6479
24.682
24.2606
24.2555
24.2737
24.256
24.2611
24.6816
27.6458
2595.53
2613.82
2618.96
2619.61
2620.23
2620.21
2620.23
2619.61
2618.96
2613.83
545.9
660.445
692.748
700.703
703.788
705.076
703.788
700.707
692.76
660.487
243.752
294.289
321.091
330.207
332.433
333.636
332.435
330.21
321.102
294.308
155.031
169.535
181.942
188.54
190.044
190.798
190.045
188.542
181.948
169.539
123.159
116.257
117.226
120.806
121.841
122.238
121.842
120.807
117.228
116.252
107.961
86.6187
81.1684
82.4063
83.1288
83.3339
83.1298
82.4075
81.1674
86.6097
94.0545
65.5309
56.9954
57.0889
57.5648
57.701
57.5658
57.09
56.9935
65.5211
75.3735
48.3316
40.3455
39.866
40.1086
40.202
40.1093
39.8666
40.3437
48.3241
55.262
35.7064
29.5281
28.8309
28.9128
28.9637
28.9134
28.8312
29.5265
35.7014
39.867
27.5679
24.3305
23.9343
23.9482
23.9694
23.9487
23.9348
24.3301
27.5653
2619.43
2617.71
2621.07
2624.06
2626.42
2627.2
2626.42
2624.06
2621.08
2617.72
625.724
665.278
688.322
697.52
702.984
704.745
702.986
697.526
688.338
665.315
266.005
300.611
320.201
327.737
330.598
331.718
330.599
327.741
320.212
300.63
157.51
172.278
183.163
188.885
190.608
191.34
190.609
188.887
183.169
172.282
115.987
116.217
118.187
121.675
122.774
123.206
122.775
121.677
118.189
116.213
94.2764
86.1462
81.3486
82.8511
83.574
83.816
83.5752
82.8528
81.3482
86.1379
78.7514
65.0783
57.2092
57.5038
57.972
58.1225
57.9732
57.5052
57.2079
65.0702
64.4719
48.2021
40.7359
40.4089
40.6628
40.759
40.6638
40.4099
40.7344
48.1949
49.6929
35.6541
29.9612
29.4235
29.5201
29.5709
29.5208
29.4241
29.96
35.6491
37.5208
27.3829
24.483
24.1269
24.1406
24.1589
24.1411
24.1274
24.4827
27.3807
2596.55
2616.46
2621.54
2621.76
2622.09
2622.02
2622.09
2621.76
2621.54
2616.47
593.488
676.332
699.464
705.517
708.149
709.025
708.149
705.52
699.475
676.367
260.823
300.047
320.716
328.325
330.934
332.001
330.936
328.329
320.728
300.07
149.535
166.88
179.906
186.288
187.983
188.758
187.984
186.291
179.913
166.888
107.14
110.335
114.995
119.246
120.368
120.863
120.369
119.248
114.999
110.335
89.2983
80.3818
78.9916
81.2381
81.9882
82.2869
81.9892
81.2396
78.9921
80.3771
77.7328
61.414
55.7246
56.4621
56.9351
57.1174
56.936
56.4632
55.7235
61.4064
64.0373
46.735
39.6882
39.5176
39.7732
39.8873
39.7739
39.5182
39.6866
46.728
49.4488
35.0181
29.1549
28.6292
28.7229
28.7828
28.7234
28.6295
29.1536
35.013
37.3995
27.1458
24.1511
23.8272
23.8576
23.8789
23.8581
23.8277
24.1508
27.1434
2625.57
2615.37
2618.63
2621.37
2623.61
2624.37
2623.61
2621.37
2618.63
2615.37
660.028
683.573
696.227
702.64
707.558
708.889
707.559
702.643
696.237
683.599
291.193
317.666
330.281
335.515
337.818
338.606
337.819
335.519
330.289
317.68
164.597
177.867
186.877
191.87
193.465
194.133
193.467
191.873
186.883
177.872
110.287
113.905
118.169
122.097
123.181
123.67
123.182
122.1
118.173
113.904
83.0523
80.5029
80.1235
82.513
83.2462
83.5716
83.2474
82.5152
80.1245
80.4992
67.1495
60.3317
56.3409
57.3172
57.7808
57.9875
57.7819
57.3187
56.3404
60.3265
55.9518
45.9392
40.3518
40.3877
40.6386
40.7644
40.6395
40.3887
40.3506
45.934
44.6535
34.8801
29.8076
29.4371
29.5342
29.5987
29.5349
29.4377
29.8065
34.876
34.8152
27.122
24.3421
24.0696
24.0959
24.1172
24.0964
24.0702
24.3418
27.1196
2599.45
2618.24
2624.14
2624.9
2625.6
2625.73
2625.6
2624.89
2624.14
2618.24
628.095
680.42
699.648
704.367
706.267
706.522
706.266
704.369
699.656
680.443
260.216
302.54
321.046
326.574
327.986
328.41
327.986
326.577
321.055
302.56
143.919
169.542
181.901
186.758
188.047
188.559
188.048
186.761
181.908
169.552
102.428
110.683
116.12
119.845
120.841
121.287
120.842
119.847
116.124
110.684
83.0655
79.2655
79.0191
81.3821
82.0721
82.4021
82.0732
81.3838
79.0202
79.2625
70.0411
59.3164
55.4686
56.4713
56.8904
57.1114
56.8913
56.4724
55.468
59.3113
57.8971
45.0663
39.5548
39.5651
39.7789
39.9196
39.7796
39.5656
39.5534
45.061
45.1073
34.2392
29.1202
28.6667
28.7334
28.8072
28.7339
28.667
29.1189
34.2348
34.4647
26.8631
24.0454
23.7783
23.8182
23.8427
23.8187
23.7789
24.0451
26.8609
2604.12
2599.39
2604.8
2608.99
2611.26
2611.96
2611.26
2608.99
2604.8
2599.4
686.721
763.746
767.605
763.522
767.792
769.222
767.794
763.525
767.61
763.761
348.871
385.989
376.205
371.621
372.014
372.306
372.016
371.623
376.203
385.981
212.463
208.718
207.558
209.377
209.557
209.766
209.558
209.38
207.561
208.713
124
122.381
127.157
131.219
131.584
131.824
131.585
131.222
127.161
122.38
86.4953
81.3182
84.7754
87.8892
88.2551
88.4733
88.2565
87.8918
84.7782
81.3151
69.7151
60.0898
59.3939
60.749
60.997
61.1599
60.9981
60.7507
59.3946
60.0849
56.5952
45.5936
42.5275
42.5825
42.6722
42.7753
42.6731
42.5835
42.5265
45.5884
44.8314
34.8992
31.1412
30.6678
30.6568
30.7077
30.6575
30.6685
31.1401
34.8951
34.514
27.2591
24.8243
24.4733
24.4604
24.4746
24.461
24.4739
24.8238
27.2568
30.3321
25.3308
24.7594
24.9942
25.1547
25.1913
25.1552
24.9949
24.7601
25.3307
29.2796
28.897
31.0191
32.171
32.6566
32.7782
32.657
32.172
31.021
28.8992
35.9926
40.2829
44.0535
45.6973
46.4754
46.7031
46.4761
45.6988
44.0562
40.2863
52.5544
58.6963
63.5092
65.4514
66.4521
66.7733
66.4531
65.4533
63.5126
58.7002
78.7774
85.6555
90.9403
93.218
94.5982
95.0759
94.5995
93.2201
90.9436
85.6591
119.031
126.143
131.898
134.54
136.325
136.961
136.326
134.541
131.901
126.146
193.269
201.691
208.602
211.892
214.425
215.334
214.426
211.892
208.605
201.692
384.612
395.751
404.891
408.181
411.665
412.934
411.664
408.179
404.891
395.75
1118.31
1131.76
1136.69
1138.83
1142.77
1144.08
1142.77
1138.83
1136.69
1131.76
7261.13
7261
7260.94
7261.03
7261.06
7261.07
7261.06
7261.03
7260.94
7261
29.8559
25.1934
24.5727
24.7777
24.9063
24.9376
24.9067
24.7783
24.5733
25.1933
29.1906
29.0005
30.9108
31.9298
32.3322
32.4414
32.3324
31.9306
30.9126
29.0032
37.1958
40.8878
43.9972
45.4939
46.158
46.3668
46.1585
45.4951
43.9996
40.8911
54.2465
59.8137
63.3229
65.069
65.9162
66.1954
65.9169
65.0705
63.3257
59.8174
81.5
88.2183
91.4322
93.2512
94.3682
94.7555
94.3689
93.2525
91.4351
88.2217
126.548
134.333
136.926
138.772
140.281
140.705
140.281
138.773
136.929
134.336
219.104
229.997
230.462
232.335
234.604
234.958
234.603
232.335
230.466
230.001
462.034
475.852
470.24
473.693
477.079
477.292
477.076
473.693
470.253
475.859
1163.02
1169.48
1161.47
1168.92
1173.92
1174.69
1173.92
1168.93
1161.49
1169.5
7259.75
7259.68
7259.87
7260.02
7260.12
7260.16
7260.12
7260.02
7259.87
7259.68
30.2576
25.3512
24.8408
25.1453
25.2787
25.3069
25.2791
25.146
24.8415
25.3513
29.243
30.0474
31.6866
32.7226
33.0638
33.1456
33.0643
32.7236
31.6885
30.0493
37.266
41.8531
44.6235
46.0479
46.5751
46.7244
46.5757
46.0493
44.626
41.8569
54.3291
60.4001
63.6679
65.2925
65.9639
66.1813
65.9646
65.2939
63.6708
60.4041
81.8918
88.7104
91.5413
93.295
94.1745
94.3795
94.1749
93.2962
91.5437
88.713
129.79
137.908
137.774
139.491
140.712
141.034
140.712
139.491
137.777
137.912
234.359
241.377
234.851
236.268
236.729
236.906
236.727
236.264
234.857
241.381
475.477
476.529
467.815
470.849
471.137
471.112
471.133
470.843
467.821
476.532
1135.81
1132.22
1128.67
1136.15
1137.39
1138.15
1137.39
1136.15
1128.68
1132.23
7259.18
7259.1
7259.22
7259.28
7259.32
7259.34
7259.32
7259.28
7259.22
7259.1
29.687
25.1868
24.6574
24.8811
24.9641
24.9879
24.9644
24.8817
24.658
25.187
29.6546
30.0528
31.3732
32.2529
32.5029
32.5828
32.5031
32.2536
31.3748
30.0559
38.9674
42.009
44.3295
45.5948
45.9924
46.1369
45.9927
45.5958
44.3317
42.0123
57.44
61.6986
63.6938
65.1237
65.5678
65.7293
65.5682
65.1245
63.6965
61.7021
89.5259
93.9313
93.3916
94.571
94.8499
95.0284
94.8498
94.5707
93.3938
93.9353
147.721
151.422
148.113
149.341
149.144
149.184
149.143
149.339
148.116
151.424
255.939
258.825
255.255
258.097
258.413
258.595
258.412
258.095
255.258
258.827
484.544
485.389
486.584
493.55
496.021
497.226
496.023
493.551
486.59
485.393
1127.04
1126.04
1135.13
1146.41
1152.3
1154.93
1152.3
1146.42
1135.14
1126.05
7259.22
7259.23
7259.41
7259.52
7259.62
7259.65
7259.62
7259.52
7259.41
7259.23
30.0355
25.2976
24.9446
25.2501
25.3459
25.3719
25.3463
25.2508
24.9454
25.2978
29.6889
30.4062
32.0641
32.973
33.1947
33.2642
33.1951
32.9739
32.0659
30.4081
38.8971
42.7785
45.1292
46.3402
46.6576
46.7738
46.6581
46.3414
45.1315
42.7823
57.5645
63.3286
65.2828
66.6012
66.936
67.0683
66.9365
66.6021
65.285
63.3328
90.043
96.6975
97.5838
99.0553
99.2862
99.4118
99.2863
99.0555
97.5866
96.7019
147.74
152.075
151.123
153.183
153.385
153.516
153.384
153.182
151.127
152.078
247.468
248.994
248.39
251.777
252.569
253.054
252.569
251.777
248.393
248.998
455.164
451.239
455.036
460.287
462.439
463.685
462.44
460.289
455.038
451.241
1089.54
1085.83
1095.58
1102.62
1106.01
1107.93
1106.01
1102.62
1095.59
1085.83
7259.09
7259.06
7259.11
7259.13
7259.16
7259.17
7259.16
7259.13
7259.11
7259.06
29.1945
25.0948
24.6986
24.9042
24.9675
24.9889
24.9679
24.9048
24.6992
25.0951
30.1582
30.3381
31.6537
32.3822
32.5695
32.6405
32.5697
32.3829
31.6552
30.3405
40.5777
42.856
44.9293
45.9542
46.2486
46.3734
46.2489
45.955
44.9312
42.8598
60.703
63.5417
65.3871
66.6414
66.958
67.0927
66.9584
66.6423
65.3893
63.5459
95.3111
97.551
97.9245
99.2969
99.5189
99.6696
99.519
99.2971
97.9269
97.5546
151.815
153.263
152.67
154.149
154.423
154.83
154.423
154.148
152.67
153.266
251.059
250.833
252.61
255.121
256.25
257.121
256.252
255.123
252.612
250.835
464.315
463.525
471.987
477.107
480.738
482.537
480.743
477.114
471.992
463.527
1109.26
1109.68
1121.76
1129.62
1136.31
1138.76
1136.32
1129.63
1121.77
1109.69
7259.25
7259.31
7259.44
7259.55
7259.65
7259.67
7259.65
7259.55
7259.44
7259.31
29.2871
25.2171
25.0314
25.3103
25.3963
25.4168
25.3967
25.3111
25.0322
25.2175
30.1694
30.7391
32.4513
33.188
33.3671
33.4206
33.3674
33.1888
32.4529
30.7416
40.4804
43.6717
46.0521
46.9956
47.246
47.3338
47.2464
46.9967
46.0541
43.6754
60.8487
65.7518
67.8719
68.838
69.0743
69.2035
69.0747
68.839
67.8739
65.7559
96.3259
100.961
102.541
103.575
103.871
104.129
103.872
103.575
102.542
100.965
152.074
155.227
156.975
158.631
159.308
159.781
159.309
158.633
156.977
155.23
245.194
246.169
249.305
252.092
253.61
254.439
253.611
252.095
249.309
246.172
441.085
438.478
444.137
448.04
450.817
452.047
450.818
448.045
444.141
438.48
1077.88
1076.57
1084.74
1090.72
1094.46
1096.09
1094.46
1090.72
1084.75
1076.57
7259.07
7259.05
7259.08
7259.1
7259.12
7259.13
7259.12
7259.1
7259.08
7259.05
28.3631
25.0071
24.7087
24.8808
24.9447
24.9623
24.945
24.8813
24.7093
25.0074
30.5639
30.6152
31.9585
32.5856
32.78
32.844
32.7802
32.5862
31.9599
30.6176
42.3513
44.2572
46.0045
46.9033
47.2434
47.3464
47.2437
46.9042
46.0063
44.2604
62.956
65.6895
67.6067
68.5097
68.821
68.9834
68.8213
68.5105
67.6085
65.6933
96.9012
99.4325
101.049
102.084
102.503
102.806
102.504
102.085
101.05
99.4363
149.256
149.977
151.755
153.279
154.108
154.655
154.109
153.28
151.757
149.98
238.884
237.691
241.318
243.535
245.198
246.125
245.201
243.539
241.32
237.693
447.003
446.474
454.608
458.889
462.527
464.063
462.532
458.896
454.613
446.476
1103.15
1105.58
1116.55
1124.85
1131.61
1133.89
1131.61
1124.86
1116.56
1105.59
7259.34
7259.44
7259.55
7259.69
7259.79
7259.82
7259.79
7259.69
7259.55
7259.44
28.3836
25.1187
25.0344
25.3084
25.4131
25.4323
25.4135
25.309
25.0352
25.1191
30.5259
30.9593
32.7369
33.451
33.6757
33.7314
33.676
33.4517
32.7385
30.9617
41.9872
44.512
46.7303
47.6402
47.988
48.1059
47.9886
47.6413
46.7323
44.5153
62.7627
65.9695
68.5343
69.5525
69.9557
70.1149
69.9564
69.5537
68.5366
65.9733
96.4901
99.3755
101.935
103.09
103.681
103.996
103.682
103.091
101.937
99.3792
148.88
151.07
154.342
155.861
156.887
157.443
156.889
155.863
154.345
151.072
241.116
243.006
247.836
250.002
251.858
252.701
251.86
250.006
247.84
243.007
445.748
445.924
452.408
456.08
459.262
460.47
459.265
456.085
452.412
445.923
1077.97
1080.16
1087.85
1094.22
1098.09
1099.17
1098.09
1094.23
1087.86
1080.16
7258.96
7258.94
7258.95
7259
7259.01
7259.02
7259.01
7259
7258.95
7258.94
28.1404
25.0174
24.6611
24.7177
24.7714
24.7898
24.7718
24.7183
24.6617
25.0175
29.285
28.9313
30.4173
31.3172
31.6537
31.7519
31.6539
31.3179
30.4188
28.9333
40.7234
41.597
43.6937
45.0584
45.674
45.8932
45.6745
45.0597
43.6958
41.6002
59.0762
60.8878
63.6171
65.2358
65.9616
66.2392
65.9623
65.2376
63.6193
60.8917
88.4461
90.8835
94.2991
96.2245
97.0816
97.48
97.0824
96.2267
94.3016
90.8882
133.555
135.098
138.877
141.471
142.894
143.494
142.896
141.474
138.88
135.102
203.504
203.271
208.492
213.075
215.811
216.727
215.814
213.081
208.496
203.274
358.534
360.063
369.347
378.425
383.758
385.212
383.762
378.433
369.355
360.067
993.441
1002.95
1023.16
1040.21
1050.74
1054.04
1050.75
1040.23
1023.18
1002.96
7262.16
7262.48
7262.76
7262.96
7263.12
7263.17
7263.12
7262.96
7262.76
7262.48
)
;

boundaryField
{
    leftWall
    {
        Cmu             0.09;
        kappa           0.41;
        E               9.8;
        beta1           0.075;
        blended         true;
        type            omegaWallFunction;
        value           nonuniform List<scalar> 
100
(
2586.13
2589.74
2588.67
2603.91
2595.53
2619.43
2596.55
2625.57
2599.45
2604.12
2592.21
2607.64
2610.52
2615.87
2613.82
2617.71
2616.46
2615.37
2618.24
2599.39
2601.6
2618.46
2617.44
2620.83
2618.96
2621.07
2621.54
2618.63
2624.14
2604.8
2606.73
2623.16
2619.3
2624.47
2619.61
2624.06
2621.76
2621.37
2624.9
2608.99
2607.44
2625.7
2620.47
2627.18
2620.23
2626.42
2622.09
2623.61
2625.6
2611.26
2607.72
2626.54
2620.69
2628.02
2620.21
2627.2
2622.02
2624.37
2625.73
2611.96
2607.44
2625.7
2620.47
2627.18
2620.23
2626.42
2622.09
2623.61
2625.6
2611.26
2606.73
2623.16
2619.3
2624.47
2619.61
2624.06
2621.76
2621.37
2624.89
2608.99
2601.61
2618.47
2617.44
2620.84
2618.96
2621.08
2621.54
2618.63
2624.14
2604.8
2592.22
2607.65
2610.54
2615.88
2613.83
2617.72
2616.47
2615.37
2618.24
2599.4
)
;
    }
    rightWall
    {
        Cmu             0.09;
        kappa           0.41;
        E               9.8;
        beta1           0.075;
        blended         true;
        type            omegaWallFunction;
        value           nonuniform List<scalar> 
100
(
7261.13
7259.75
7259.18
7259.22
7259.09
7259.25
7259.07
7259.34
7258.96
7262.16
7261
7259.68
7259.1
7259.23
7259.06
7259.31
7259.05
7259.44
7258.94
7262.48
7260.94
7259.87
7259.22
7259.41
7259.11
7259.44
7259.08
7259.55
7258.95
7262.76
7261.03
7260.02
7259.28
7259.52
7259.13
7259.55
7259.1
7259.69
7259
7262.96
7261.06
7260.12
7259.32
7259.62
7259.16
7259.65
7259.12
7259.79
7259.01
7263.12
7261.07
7260.16
7259.34
7259.65
7259.17
7259.67
7259.13
7259.82
7259.02
7263.17
7261.06
7260.12
7259.32
7259.62
7259.16
7259.65
7259.12
7259.79
7259.01
7263.12
7261.03
7260.02
7259.28
7259.52
7259.13
7259.55
7259.1
7259.69
7259
7262.96
7260.94
7259.87
7259.22
7259.41
7259.11
7259.44
7259.08
7259.55
7258.95
7262.76
7261
7259.68
7259.1
7259.23
7259.06
7259.31
7259.05
7259.44
7258.94
7262.48
)
;
    }
    leftSides_periodic0
    {
        type            cyclic;
    }
    leftSides_periodic1
    {
        type            cyclic;
    }
    rightSides_periodic0
    {
        type            cyclic;
    }
    rightSides_periodic1
    {
        type            cyclic;
    }
    leftInOut_periodic0
    {
        type            cyclic;
    }
    leftInOut_periodic1
    {
        type            cyclic;
    }
    rightInOut_periodic0
    {
        type            cyclic;
    }
    rightInOut_periodic1
    {
        type            cyclic;
    }
}


// ************************************************************************* //
