/*--------------------------------*- C++ -*----------------------------------*\
| =========                 |                                                 |
| \\      /  F ield         | OpenFOAM: The Open Source CFD Toolbox           |
|  \\    /   O peration     | Version:  v1906                                 |
|   \\  /    A nd           | Web:      www.OpenFOAM.com                      |
|    \\/     M anipulation  |                                                 |
\*---------------------------------------------------------------------------*/
FoamFile
{
    version     2.0;
    format      ascii;
    class       volScalarField;
    location    "38";
    object      T;
}
// * * * * * * * * * * * * * * * * * * * * * * * * * * * * * * * * * * * * * //

dimensions      [0 0 0 1 0 0 0];


internalField   nonuniform List<scalar> 
2000
(
373.289
369.699
364.379
362.105
361.56
361.388
361.559
362.104
364.375
369.693
373.209
365.664
360.714
358.802
358.112
357.918
358.111
358.8
360.71
365.658
373.25
363.525
359.297
357.611
356.902
356.702
356.902
357.61
359.294
363.519
372.108
362.159
358.556
356.983
356.266
356.061
356.265
356.981
358.552
362.154
370.156
361.391
358.092
356.552
355.825
355.615
355.824
356.55
358.089
361.387
367.617
360.75
357.74
356.205
355.465
355.25
355.464
356.203
357.738
360.746
365.141
360.173
357.413
355.879
355.129
354.908
355.128
355.877
357.411
360.17
363.141
359.623
357.058
355.535
354.777
354.552
354.776
355.533
357.055
359.62
361.61
359.044
356.65
355.157
354.397
354.169
354.396
355.155
356.647
359.042
360.396
358.404
356.186
354.75
353.997
353.767
353.996
354.748
356.184
358.402
370.238
366.488
363.603
362.443
361.923
361.721
361.922
362.442
363.601
366.485
366.889
363.813
361.149
360.052
359.494
359.288
359.493
360.051
361.147
363.81
365.797
362.313
360.079
359.095
358.536
358.332
358.535
359.094
360.077
362.31
365.322
361.282
359.416
358.518
357.967
357.769
357.967
358.516
359.414
361.28
364.553
360.516
358.927
358.08
357.539
357.345
357.539
358.079
358.925
360.514
363.325
359.896
358.535
357.714
357.181
356.991
357.18
357.713
358.533
359.894
361.915
359.382
358.194
357.388
356.861
356.675
356.86
357.386
358.192
359.381
360.651
358.941
357.874
357.082
356.562
356.378
356.561
357.081
357.873
358.94
359.673
358.52
357.549
356.776
356.263
356.081
356.262
356.775
357.548
358.518
358.868
358.063
357.185
356.436
355.929
355.748
355.929
356.435
357.183
358.061
373.971
365.75
362.778
361.54
361.055
360.932
361.055
361.538
362.775
365.744
372.261
363.576
360.022
358.482
357.866
357.694
357.865
358.48
360.019
363.571
370.77
362.671
359.054
357.462
356.786
356.594
356.785
357.46
359.051
362.665
369.566
362.008
358.502
356.911
356.205
356.002
356.204
356.909
358.499
362.003
368.237
361.384
358.084
356.507
355.783
355.574
355.782
356.506
358.081
361.38
366.643
360.765
357.725
356.165
355.428
355.213
355.427
356.163
357.722
360.762
364.878
360.166
357.385
355.841
355.094
354.874
355.093
355.839
357.382
360.162
363.15
359.587
357.026
355.5
354.746
354.521
354.745
355.498
357.023
359.584
361.645
358.993
356.62
355.124
354.368
354.14
354.367
355.122
356.618
358.99
360.397
358.343
356.156
354.715
353.964
353.735
353.963
354.713
356.154
358.34
366.789
364.278
363.172
362.49
361.996
361.816
361.996
362.489
363.171
364.275
364.598
361.956
360.651
359.929
359.434
359.244
359.433
359.928
360.649
361.953
363.753
361.125
359.758
359.003
358.496
358.304
358.495
359.002
359.756
361.123
363.154
360.589
359.232
358.46
357.947
357.756
357.946
358.459
359.23
360.587
362.539
360.116
358.819
358.042
357.528
357.339
357.528
358.041
358.817
360.114
361.814
359.652
358.454
357.68
357.169
356.982
357.168
357.678
358.452
359.65
360.976
359.202
358.119
357.352
356.846
356.663
356.846
357.351
358.117
359.2
360.117
358.784
357.804
357.049
356.548
356.368
356.548
357.048
357.803
358.783
359.338
358.384
357.49
356.749
356.253
356.074
356.252
356.748
357.489
358.383
358.629
357.952
357.138
356.414
355.922
355.745
355.922
356.413
357.137
357.95
372.133
365.245
362.659
361.519
361.045
360.942
361.045
361.517
362.657
365.24
370.005
362.905
359.803
358.366
357.77
357.612
357.769
358.365
359.8
362.899
368.789
362.13
358.869
357.358
356.707
356.526
356.706
357.357
358.866
362.125
367.803
361.638
358.373
356.835
356.151
355.956
356.15
356.833
358.37
361.633
366.799
361.175
358.005
356.458
355.751
355.546
355.75
356.456
358.002
361.171
365.666
360.675
357.673
356.129
355.405
355.194
355.404
356.127
357.67
360.672
364.353
360.127
357.337
355.807
355.071
354.854
355.07
355.805
357.334
360.124
362.919
359.546
356.977
355.466
354.722
354.5
354.721
355.464
356.974
359.543
361.524
358.934
356.572
355.09
354.343
354.117
354.342
355.089
356.569
358.932
360.284
358.274
356.107
354.677
353.935
353.707
353.934
354.676
356.105
358.272
365.535
364.017
363.251
362.702
362.22
362.042
362.22
362.701
363.249
364.014
363.255
361.429
360.559
359.992
359.517
359.335
359.516
359.991
360.557
361.427
362.287
360.589
359.619
358.998
358.517
358.333
358.516
358.997
359.617
360.586
361.689
360.131
359.1
358.433
357.945
357.761
357.944
358.431
359.098
360.129
361.195
359.772
358.715
358.014
357.522
357.338
357.521
358.012
358.713
359.77
360.706
359.429
358.379
357.658
357.166
356.984
357.165
357.657
358.377
359.427
360.187
359.075
358.064
357.336
356.846
356.666
356.845
357.335
358.062
359.073
359.639
358.708
357.759
357.035
356.547
356.369
356.547
357.034
357.757
358.707
359.077
358.325
357.45
356.735
356.251
356.075
356.25
356.734
357.449
358.324
358.473
357.9
357.103
356.401
355.92
355.744
355.919
356.399
357.101
357.899
371.132
365.054
362.496
361.346
360.888
360.787
360.887
361.345
362.493
365.05
368.91
362.72
359.708
358.276
357.688
357.535
357.687
358.274
359.705
362.715
367.902
361.943
358.791
357.3
356.659
356.484
356.658
357.298
358.789
361.938
367.061
361.464
358.305
356.793
356.119
355.93
356.118
356.791
358.302
361.459
366.18
361.035
357.946
356.424
355.727
355.528
355.726
356.423
357.943
361.03
365.204
360.581
357.623
356.1
355.385
355.178
355.384
356.098
357.62
360.577
364.072
360.075
357.296
355.781
355.052
354.838
355.052
355.779
357.294
360.071
362.769
359.512
356.941
355.442
354.703
354.484
354.703
355.44
356.938
359.509
361.428
358.898
356.536
355.066
354.323
354.1
354.322
355.064
356.533
358.896
360.198
358.231
356.069
354.651
353.913
353.688
353.912
354.649
356.067
358.229
365.091
364.064
363.479
363.073
362.607
362.43
362.607
363.072
363.478
364.062
362.676
361.167
360.549
360.103
359.645
359.467
359.644
360.102
360.548
361.165
361.48
360.237
359.531
359.011
358.549
358.371
358.548
359.009
359.529
360.235
360.718
359.788
359
358.414
357.945
357.768
357.945
358.412
358.998
359.786
360.19
359.482
358.627
357.99
357.517
357.34
357.516
357.989
358.625
359.48
359.793
359.217
358.312
357.64
357.164
356.987
357.163
357.638
358.31
359.215
359.477
358.944
358.016
357.324
356.847
356.672
356.847
357.323
358.014
358.943
359.194
358.639
357.723
357.026
356.55
356.376
356.549
357.024
357.721
358.637
358.859
358.286
357.418
356.725
356.252
356.079
356.252
356.724
357.416
358.285
358.377
357.87
357.073
356.391
355.921
355.749
355.921
356.39
357.071
357.868
369.746
364.976
362.303
361.065
360.603
360.491
360.602
361.063
362.301
364.972
367.827
362.786
359.702
358.232
357.645
357.492
357.644
358.231
359.699
362.782
367.354
362.003
358.813
357.308
356.666
356.492
356.665
357.306
358.811
361.998
366.964
361.461
358.302
356.795
356.122
355.935
356.122
356.793
358.299
361.456
366.239
360.995
357.922
356.415
355.72
355.523
355.72
356.413
357.919
360.991
365.272
360.527
357.594
356.087
355.375
355.17
355.374
356.085
357.591
360.524
364.077
360.023
357.273
355.769
355.044
354.832
355.043
355.768
357.27
360.019
362.706
359.473
356.924
355.434
354.698
354.48
354.697
355.432
356.921
359.47
361.343
358.874
356.523
355.06
354.32
354.098
354.319
355.058
356.52
358.871
360.138
358.218
356.059
354.648
353.912
353.689
353.911
354.647
356.056
358.216
365.392
365.225
364.518
364.029
363.481
363.282
363.48
364.028
364.516
365.222
362.982
361.307
360.675
360.272
359.793
359.605
359.792
360.271
360.673
361.305
361.614
360.093
359.513
359.047
358.586
358.406
358.585
359.046
359.512
360.091
360.518
359.623
358.982
358.43
357.966
357.789
357.966
358.429
358.98
359.621
359.7
359.337
358.621
358.005
357.536
357.36
357.536
358.004
358.62
359.335
359.233
359.118
358.313
357.654
357.182
357.007
357.181
357.653
358.312
359.116
359.023
358.894
358.019
357.336
356.862
356.688
356.861
357.334
358.017
358.893
358.921
358.624
357.725
357.033
356.561
356.388
356.56
357.032
357.723
358.623
358.731
358.29
357.417
356.731
356.261
356.089
356.26
356.73
357.416
358.289
358.342
357.88
357.073
356.399
355.932
355.762
355.932
356.398
357.071
357.879
359.4
357.732
355.7
354.336
353.595
353.365
353.594
354.334
355.698
357.73
358.566
357.099
355.227
353.92
353.19
352.96
353.189
353.918
355.225
357.097
357.837
356.505
354.753
353.484
352.762
352.533
352.761
353.482
354.751
356.503
357.149
355.909
354.243
353
352.287
352.059
352.286
352.998
354.241
355.907
356.467
355.288
353.683
352.461
351.757
351.53
351.756
352.459
353.681
355.286
355.763
354.622
353.066
351.86
351.164
350.937
351.163
351.859
353.063
354.62
354.988
353.874
352.356
351.165
350.476
350.248
350.475
351.163
352.354
353.873
353.966
352.875
351.363
350.191
349.509
349.278
349.508
350.19
351.361
352.873
351.517
350.292
348.642
347.562
346.897
346.657
346.896
347.56
348.64
350.29
334.16
333.079
331.729
331.259
330.883
330.729
330.883
331.258
331.728
333.078
358.129
357.551
356.759
356.033
355.532
355.351
355.532
356.032
356.757
357.55
357.47
357.019
356.286
355.577
355.08
354.899
355.079
355.576
356.284
357.018
356.892
356.494
355.801
355.108
354.616
354.435
354.615
355.107
355.799
356.493
356.342
355.965
355.312
354.639
354.155
353.975
354.155
354.638
355.311
355.964
355.782
355.421
354.814
354.164
353.691
353.512
353.69
354.163
354.812
355.42
355.176
354.835
354.276
353.653
353.191
353.014
353.191
353.652
354.275
354.834
354.45
354.124
353.612
353.022
352.575
352.399
352.574
353.021
353.611
354.123
353.332
352.973
352.536
352.005
351.577
351.406
351.576
352.004
352.534
352.972
349.951
349.34
349.287
348.964
348.609
348.476
348.608
348.964
349.286
349.339
328.994
328.116
329.393
329.784
329.87
329.963
329.871
329.785
329.393
328.116
359.379
357.665
355.664
354.293
353.553
353.323
353.552
354.291
355.662
357.663
358.536
357.022
355.18
353.867
353.137
352.909
353.137
353.865
355.177
357.021
357.799
356.417
354.696
353.424
352.704
352.476
352.703
353.422
354.694
356.416
357.107
355.818
354.185
352.942
352.23
352.004
352.23
352.941
354.183
355.816
356.436
355.205
353.632
352.412
351.707
351.481
351.706
352.41
353.63
355.203
355.748
354.537
353.014
351.812
351.114
350.89
351.113
351.81
353.012
354.536
354.913
353.683
352.226
351.048
350.36
350.139
350.359
351.046
352.223
353.682
353.537
352.212
350.906
349.773
349.112
348.905
349.111
349.772
350.903
352.21
349.503
347.894
347.158
346.132
345.587
345.435
345.586
346.131
347.156
347.892
326.866
325.651
326.51
326.088
326.052
326.101
326.052
326.088
326.508
325.65
357.951
357.46
356.719
356.012
355.523
355.345
355.522
356.01
356.718
357.458
357.334
356.935
356.246
355.55
355.063
354.884
355.062
355.549
356.244
356.934
356.781
356.413
355.76
355.078
354.596
354.417
354.595
355.077
355.758
356.411
356.251
355.894
355.28
354.618
354.143
353.966
354.142
354.616
355.278
355.893
355.707
355.365
354.8
354.161
353.697
353.522
353.697
354.159
354.798
355.364
355.085
354.753
354.259
353.65
353.203
353.031
353.202
353.649
354.257
354.752
354.223
353.886
353.513
352.95
352.533
352.368
352.532
352.949
353.512
353.885
352.736
352.384
352.237
351.746
351.387
351.239
351.386
351.745
352.236
352.383
348.694
348.374
348.753
348.393
348.196
348.09
348.196
348.393
348.752
348.373
327.098
327.212
328.437
328.543
328.888
328.929
328.888
328.544
328.437
327.212
359.259
357.592
355.611
354.248
353.516
353.289
353.515
354.246
355.609
357.59
358.428
356.948
355.123
353.816
353.096
352.869
353.095
353.815
355.121
356.947
357.707
356.348
354.641
353.374
352.663
352.438
352.663
353.373
354.638
356.346
357.027
355.754
354.131
352.893
352.191
351.967
352.19
352.892
354.129
355.752
356.35
355.119
353.561
352.346
351.654
351.431
351.653
352.344
353.559
355.118
355.587
354.362
352.876
351.681
351.002
350.783
351.001
351.679
352.874
354.361
354.588
353.35
351.955
350.777
350.12
349.908
350.119
350.776
351.953
353.348
353.058
351.781
350.511
349.341
348.719
348.517
348.718
349.339
350.509
351.779
349.395
348.095
347.02
345.834
345.297
345.109
345.296
345.833
347.018
348.093
328.246
327.573
327.188
326.45
326.306
326.206
326.306
326.45
327.187
327.572
357.835
357.418
356.69
355.999
355.52
355.344
355.52
355.998
356.688
357.417
357.244
356.903
356.221
355.539
355.061
354.884
355.06
355.538
356.219
356.902
356.711
356.386
355.739
355.071
354.598
354.421
354.597
355.069
355.737
356.385
356.19
355.869
355.26
354.612
354.147
353.973
354.147
354.61
355.259
355.868
355.634
355.318
354.764
354.138
353.688
353.516
353.687
354.137
354.762
355.317
354.968
354.658
354.187
353.592
353.164
352.997
353.163
353.591
354.186
354.656
354.07
353.779
353.425
352.871
352.476
352.317
352.475
352.87
353.423
353.778
352.661
352.423
352.225
351.73
351.388
351.239
351.388
351.729
352.224
352.422
349.117
349.082
349.13
348.783
348.566
348.432
348.566
348.782
349.129
349.081
328.442
328.997
329.48
329.813
330.075
330.048
330.075
329.813
329.481
328.997
359.175
357.546
355.571
354.218
353.491
353.266
353.49
354.217
355.568
357.544
358.35
356.902
355.081
353.785
353.07
352.845
353.069
353.784
355.078
356.9
357.635
356.303
354.598
353.343
352.637
352.414
352.637
353.341
354.595
356.301
356.956
355.701
354.079
352.853
352.158
351.937
352.157
352.851
354.077
355.699
356.252
355.034
353.482
352.28
351.598
351.379
351.597
352.278
353.48
355.033
355.433
354.234
352.75
351.569
350.903
350.687
350.902
351.567
352.748
354.232
354.395
353.204
351.78
350.614
349.97
349.757
349.969
350.612
351.778
353.203
352.879
351.688
350.307
349.154
348.537
348.327
348.536
349.152
350.305
351.687
349.388
348.216
346.838
345.713
345.144
344.934
345.143
345.711
346.835
348.214
328.225
327.585
326.751
326.198
325.953
325.816
325.952
326.197
326.749
327.584
357.771
357.391
356.665
355.994
355.526
355.353
355.525
355.993
356.663
357.389
357.19
356.882
356.204
355.541
355.074
354.9
355.073
355.54
356.203
356.881
356.662
356.371
355.726
355.074
354.611
354.438
354.61
355.073
355.724
356.37
356.137
355.842
355.234
354.601
354.148
353.978
354.148
354.6
355.233
355.841
355.557
355.26
354.705
354.097
353.661
353.494
353.66
354.096
354.703
355.259
354.873
354.588
354.104
353.527
353.113
352.951
353.113
353.526
354.103
354.586
354.027
353.776
353.377
352.837
352.451
352.294
352.451
352.836
353.376
353.775
352.79
352.611
352.318
351.831
351.484
351.332
351.484
351.83
352.317
352.61
349.721
349.774
349.657
349.322
349.066
348.923
349.066
349.321
349.657
349.773
330.334
331.042
331.357
331.715
331.904
331.87
331.904
331.715
331.357
331.042
359.141
357.538
355.562
354.219
353.494
353.27
353.493
354.217
355.56
357.536
358.318
356.893
355.07
353.785
353.071
352.848
353.07
353.783
355.068
356.891
357.595
356.282
354.576
353.331
352.629
352.407
352.628
353.329
354.574
356.28
356.9
355.665
354.045
352.83
352.139
351.919
352.138
352.828
354.043
355.663
356.189
354.999
353.447
352.256
351.578
351.36
351.577
352.254
353.445
354.997
355.391
354.231
352.734
351.562
350.898
350.682
350.897
351.561
352.732
354.229
354.393
353.255
351.79
350.638
349.992
349.777
349.991
350.637
351.788
353.253
352.902
351.771
350.303
349.176
348.551
348.338
348.55
349.174
350.301
351.77
349.377
348.197
346.604
345.511
344.913
344.699
344.912
345.51
346.602
348.196
326.072
325.163
324.101
323.718
323.466
323.366
323.465
323.717
324.099
325.163
357.783
357.399
356.669
356.008
355.544
355.372
355.543
356.007
356.668
357.398
357.204
356.892
356.217
355.564
355.101
354.929
355.1
355.563
356.216
356.891
356.674
356.392
355.751
355.107
354.647
354.476
354.646
355.105
355.749
356.391
356.157
355.878
355.267
354.638
354.188
354.019
354.188
354.637
355.265
355.876
355.598
355.311
354.74
354.136
353.702
353.536
353.701
354.135
354.738
355.31
354.944
354.663
354.145
353.574
353.16
352.998
353.16
353.573
354.144
354.662
354.17
353.916
353.459
352.921
352.527
352.368
352.526
352.92
353.458
353.915
353.15
352.943
352.559
352.051
351.675
351.521
351.674
352.05
352.558
352.942
351.602
351.461
351.163
350.636
350.252
350.096
350.251
350.635
351.162
351.461
340.176
340.245
339.819
339.125
338.762
338.642
338.761
339.124
339.818
340.244
)
;

boundaryField
{
    leftWall
    {
        type            fixedValue;
        value           uniform 373;
    }
    rightWall
    {
        type            fixedValue;
        value           uniform 313;
    }
    leftSides_periodic0
    {
        type            cyclic;
    }
    leftSides_periodic1
    {
        type            cyclic;
    }
    rightSides_periodic0
    {
        type            cyclic;
    }
    rightSides_periodic1
    {
        type            cyclic;
    }
    leftInOut_periodic0
    {
        type            cyclic;
    }
    leftInOut_periodic1
    {
        type            cyclic;
    }
    rightInOut_periodic0
    {
        type            cyclic;
    }
    rightInOut_periodic1
    {
        type            cyclic;
    }
}


// ************************************************************************* //
