/*--------------------------------*- C++ -*----------------------------------*\
| =========                 |                                                 |
| \\      /  F ield         | OpenFOAM: The Open Source CFD Toolbox           |
|  \\    /   O peration     | Version:  v1906                                 |
|   \\  /    A nd           | Web:      www.OpenFOAM.com                      |
|    \\/     M anipulation  |                                                 |
\*---------------------------------------------------------------------------*/
FoamFile
{
    version     2.0;
    format      ascii;
    class       volVectorField;
    location    "38";
    object      U;
}
// * * * * * * * * * * * * * * * * * * * * * * * * * * * * * * * * * * * * * //

dimensions      [0 1 -1 0 0 0 0];


internalField   nonuniform List<vector> 
2000
(
(2.86606e-06 0.0229509 -0.00120029)
(0.00986523 0.00145905 0.0324219)
(-0.000651725 -0.000427825 0.053577)
(0.000573266 -0.000496275 0.0620812)
(0.000179233 -0.0004654 0.0630886)
(-8.97454e-07 -0.000467791 0.0635071)
(-0.000180302 -0.000465409 0.0630886)
(-0.00057404 -0.000496337 0.0620842)
(0.000652887 -0.000427926 0.053587)
(-0.00986304 0.00145818 0.0324455)
(2.35668e-06 0.035373 -0.00352353)
(0.0219471 -0.00200137 0.105908)
(0.00592916 -0.000522879 0.146737)
(0.00413946 -0.000905447 0.159782)
(0.00199121 -0.000864913 0.161901)
(4.15783e-07 -0.000873498 0.1625)
(-0.00198961 -0.000864979 0.161901)
(-0.00413892 -0.000905643 0.159787)
(-0.005928 -0.000523123 0.146753)
(-0.0219442 -0.00200085 0.105953)
(2.25562e-06 -0.0222215 0.0100088)
(0.0201803 0.00209938 0.173061)
(0.0076651 -7.59488e-05 0.21537)
(0.00506 -0.000839386 0.226494)
(0.00247868 -0.000874415 0.229226)
(1.12892e-06 -0.00088919 0.229818)
(-0.00247576 -0.000874436 0.229226)
(-0.00505868 -0.000839616 0.226498)
(-0.00766417 -7.64933e-05 0.215386)
(-0.0201784 0.00209786 0.173109)
(1.76889e-06 0.0437055 0.0454704)
(0.0149613 0.000547866 0.226311)
(0.00718322 0.000149978 0.262795)
(0.00467139 -0.000643961 0.27124)
(0.00230616 -0.000773499 0.274107)
(1.28767e-06 -0.000794776 0.274672)
(-0.00230296 -0.000773472 0.274107)
(-0.00466987 -0.00064419 0.271244)
(-0.00718235 0.00014923 0.262809)
(-0.0149604 0.000546687 0.226354)
(9.96321e-07 0.00838165 0.100184)
(0.0142448 0.00158269 0.263349)
(0.00616521 0.000647933 0.29581)
(0.00402291 -0.000397576 0.30286)
(0.00200882 -0.000630824 0.305711)
(1.19526e-06 -0.000657919 0.306278)
(-0.00200582 -0.000630747 0.305711)
(-0.00402141 -0.000397787 0.302864)
(-0.00616433 0.00064697 0.295822)
(-0.0142443 0.00158105 0.263385)
(2.78926e-07 0.0145795 0.165026)
(0.0121162 0.0024359 0.290304)
(0.0052499 0.000983302 0.318847)
(0.00349177 -0.000167808 0.325898)
(0.00176907 -0.000501793 0.328782)
(1.00682e-06 -0.000533611 0.329389)
(-0.00176645 -0.000501681 0.328782)
(-0.00349033 -0.000168002 0.325901)
(-0.00524897 0.000982238 0.318858)
(-0.0121159 0.00243381 0.290334)
(-1.84484e-07 0.0177905 0.224312)
(0.0100744 0.00294363 0.309811)
(0.00460212 0.00120209 0.335686)
(0.00312429 2.01128e-05 0.343247)
(0.0016115 -0.000405215 0.346199)
(7.72051e-07 -0.000440858 0.346862)
(-0.00160935 -0.000405105 0.346199)
(-0.0031229 1.99033e-05 0.34325)
(-0.00460107 0.00120102 0.335697)
(-0.0100743 0.00294141 0.309836)
(-3.69361e-07 0.0171536 0.269107)
(0.00847523 0.00311523 0.324255)
(0.00418799 0.00131307 0.348207)
(0.0028719 0.000167433 0.356147)
(0.00151277 -0.000343201 0.359154)
(5.33213e-07 -0.000384176 0.359878)
(-0.00151113 -0.000343149 0.359155)
(-0.00287051 0.000167161 0.356151)
(-0.00418676 0.00131202 0.348218)
(-0.00847513 0.00311313 0.324276)
(-3.94529e-07 0.0147044 0.29956)
(0.00718562 0.00311504 0.335272)
(0.00392586 0.00125544 0.356367)
(0.00268658 0.000218747 0.364097)
(0.00144474 -0.0003572 0.367067)
(3.66931e-07 -0.000407656 0.367851)
(-0.00144348 -0.000357273 0.367068)
(-0.00268518 0.00021835 0.3641)
(-0.00392447 0.00125439 0.356376)
(-0.00718543 0.00311326 0.33529)
(-3.97731e-07 0.0119889 0.319191)
(0.00603019 0.00293117 0.342915)
(0.00374629 0.000970864 0.359408)
(0.00254587 8.0412e-05 0.366127)
(0.00138904 -0.000509553 0.368938)
(3.51503e-07 -0.000573194 0.369768)
(-0.0013879 -0.00050981 0.368938)
(-0.00254447 7.98768e-05 0.366128)
(-0.00374483 0.000969804 0.359414)
(-0.00602993 0.00292958 0.342928)
(1.57628e-06 0.00221603 0.0315752)
(-0.00915118 -0.000225537 0.064225)
(-0.00662003 -0.000209167 0.0801987)
(-0.0031903 -0.000120926 0.0862068)
(-0.00180866 -0.000146114 0.0891433)
(-8.40709e-07 -0.000140106 0.0901247)
(0.00180773 -0.000146151 0.0891454)
(0.0031896 -0.000120958 0.0862115)
(0.00662124 -0.000209219 0.0802109)
(0.00915195 -0.000225438 0.0642403)
(3.21487e-06 -0.00108315 0.0742)
(-0.00482322 -0.000803155 0.144274)
(-0.00553272 -0.000876291 0.173397)
(-0.00193678 -0.000655054 0.184298)
(-0.00119662 -0.000653465 0.18853)
(1.77896e-07 -0.000645348 0.189965)
(0.00119764 -0.000653547 0.188532)
(0.00193678 -0.000655096 0.184305)
(0.00553333 -0.000876355 0.173416)
(0.00482263 -0.00080309 0.144304)
(3.0167e-06 0.00233307 0.108029)
(-0.00125091 -0.00153902 0.196056)
(-0.00261498 -0.00121614 0.229705)
(-0.000250439 -0.000981704 0.242428)
(-0.000302691 -0.000932847 0.247287)
(1.13967e-06 -0.000924253 0.248905)
(0.000305365 -0.000932899 0.247289)
(0.000251387 -0.000981585 0.242435)
(0.00261521 -0.00121609 0.229726)
(0.00124998 -0.00153913 0.196092)
(1.89664e-06 -0.000582824 0.141349)
(0.000639355 -0.0021785 0.236001)
(-0.00105447 -0.0014418 0.26859)
(0.000530613 -0.00119515 0.28113)
(0.000128065 -0.00109488 0.286373)
(1.62748e-06 -0.00108803 0.288071)
(-0.00012458 -0.00109485 0.286375)
(-0.000529086 -0.0011949 0.281136)
(0.00105461 -0.00144153 0.268611)
(-0.000640249 -0.00217868 0.236037)
(8.23221e-07 -0.0024632 0.180899)
(0.00155938 -0.00245378 0.269868)
(-0.000474561 -0.00149273 0.298512)
(0.000750868 -0.0013409 0.310209)
(0.000267877 -0.00119425 0.315654)
(1.78153e-06 -0.001186 0.317378)
(-0.000264148 -0.00119408 0.315656)
(-0.000749041 -0.00134049 0.310215)
(0.000474802 -0.00149224 0.298531)
(-0.0015601 -0.00245392 0.2699)
(-7.27529e-10 -0.00250201 0.225472)
(0.00143873 -0.00261968 0.298239)
(-0.0003704 -0.00149131 0.321907)
(0.000732716 -0.00144727 0.332975)
(0.000282804 -0.00126681 0.338544)
(1.73721e-06 -0.00125164 0.34029)
(-0.000279153 -0.00126649 0.338546)
(-0.00073074 -0.00144663 0.332981)
(0.000370845 -0.00149068 0.321924)
(-0.00143925 -0.00261968 0.298266)
(-5.36367e-07 -0.00208686 0.269877)
(0.00103821 -0.00279064 0.320923)
(-0.000381043 -0.00149287 0.340332)
(0.000655876 -0.00153721 0.351029)
(0.000267673 -0.00133249 0.356679)
(1.5768e-06 -0.00130569 0.358456)
(-0.000264284 -0.00133202 0.356681)
(-0.000653814 -0.00153637 0.351036)
(0.0003818 -0.00149204 0.340348)
(-0.00103856 -0.00279027 0.320945)
(-8.26719e-07 -0.00185859 0.307328)
(0.000883522 -0.00292622 0.338586)
(-0.000351978 -0.00151432 0.354849)
(0.000588609 -0.00160559 0.365255)
(0.000259024 -0.0013882 0.370949)
(1.34272e-06 -0.00134665 0.372768)
(-0.000256012 -0.00138763 0.370952)
(-0.000586481 -0.00160464 0.365262)
(0.000353189 -0.0015132 0.354864)
(-0.00088363 -0.00292526 0.338605)
(-1.00194e-06 -0.00148657 0.334209)
(0.000945379 -0.00296033 0.352409)
(-0.000256171 -0.00152905 0.366242)
(0.000546036 -0.00163078 0.376288)
(0.000263656 -0.0014193 0.382)
(1.04818e-06 -0.00136419 0.383862)
(-0.000261108 -0.00141872 0.382003)
(-0.000543836 -0.00162983 0.376296)
(0.000258004 -0.00152762 0.366257)
(-0.000945154 -0.00295827 0.352426)
(-1.32483e-06 -0.00106298 0.351973)
(0.00107336 -0.00285933 0.362797)
(-9.81024e-05 -0.00151718 0.374701)
(0.000531073 -0.00161146 0.384355)
(0.000282172 -0.00142304 0.39008)
(7.16449e-07 -0.00136224 0.391974)
(-0.000280135 -0.00142257 0.390084)
(-0.000528802 -0.00161067 0.384364)
(0.000100788 -0.00151594 0.374715)
(-0.00107286 -0.00285524 0.362811)
(2.01017e-06 7.85721e-05 0.0252256)
(-0.00592562 -9.28944e-05 0.0702593)
(-0.00281907 -4.36975e-06 0.0803651)
(-0.00192906 1.20224e-05 0.0829548)
(-0.00115806 3.84257e-06 0.0845444)
(-7.9765e-07 1.27611e-05 0.0848539)
(0.00115722 3.84027e-06 0.0845451)
(0.00192829 1.19946e-05 0.082957)
(0.00282006 -4.39263e-06 0.0803711)
(0.00592717 -9.29478e-05 0.0702763)
(3.93923e-06 -2.27792e-05 0.067878)
(-0.00927213 -0.000447065 0.15984)
(-0.00503403 -0.000336298 0.17771)
(-0.00285639 -0.000178336 0.181939)
(-0.00173345 -0.00018226 0.183919)
(-6.96891e-07 -0.000170473 0.184331)
(0.00173336 -0.000182284 0.18392)
(0.00285558 -0.000178423 0.181942)
(0.00503522 -0.000336324 0.177719)
(0.00927291 -0.000447295 0.15987)
(3.71153e-06 -1.27837e-05 0.101415)
(-0.0078037 -0.000982303 0.210173)
(-0.00455585 -0.00072447 0.235493)
(-0.00235838 -0.000425534 0.241324)
(-0.00147744 -0.000389547 0.243493)
(-2.52466e-07 -0.000378806 0.244011)
(0.00147831 -0.000389573 0.243493)
(0.00235799 -0.000425611 0.241327)
(0.00455692 -0.000724416 0.235503)
(0.00780412 -0.000982752 0.210209)
(2.91731e-06 -0.00123521 0.131292)
(-0.00587071 -0.0013307 0.243432)
(-0.00368644 -0.0010359 0.273128)
(-0.00179846 -0.000635168 0.279873)
(-0.00117008 -0.000550927 0.282233)
(5.9715e-08 -0.000544046 0.282829)
(0.00117153 -0.00055094 0.282233)
(0.00179844 -0.000635204 0.279875)
(0.00368743 -0.00103578 0.27314)
(0.00587117 -0.00133136 0.24347)
(2.11353e-06 -0.00171549 0.163654)
(-0.00438741 -0.00160194 0.270845)
(-0.00304831 -0.00125967 0.30126)
(-0.00144052 -0.000817726 0.308399)
(-0.000969051 -0.000681792 0.310919)
(1.82064e-07 -0.000678622 0.311567)
(0.000970679 -0.000681781 0.310919)
(0.00144074 -0.000817703 0.308402)
(0.00304932 -0.00125952 0.301272)
(0.00438814 -0.00160277 0.270879)
(1.39449e-06 -0.00233526 0.20042)
(-0.00346458 -0.0017864 0.294383)
(-0.00268009 -0.0014066 0.32295)
(-0.00124884 -0.000979564 0.330385)
(-0.000859398 -0.000792024 0.33305)
(1.52022e-07 -0.00078967 0.33374)
(0.000860916 -0.000791991 0.333051)
(0.00124919 -0.000979476 0.330388)
(0.00268119 -0.00140647 0.322961)
(0.00346562 -0.0017874 0.294412)
(8.31574e-07 -0.00259491 0.239051)
(-0.00288398 -0.00191754 0.313392)
(-0.00244473 -0.00150782 0.339456)
(-0.00112565 -0.00113143 0.347209)
(-0.00078935 -0.000894173 0.350018)
(2.55153e-08 -0.000887097 0.350752)
(0.000790586 -0.000894133 0.350019)
(0.00112608 -0.00113131 0.347212)
(0.00244594 -0.00150773 0.339466)
(0.00288522 -0.00191865 0.313417)
(4.56582e-07 -0.00250138 0.274671)
(-0.00234291 -0.00202634 0.327829)
(-0.00220926 -0.00158166 0.351595)
(-0.000994921 -0.00127047 0.359606)
(-0.000717048 -0.00098867 0.362505)
(-1.37235e-07 -0.000969538 0.363284)
(0.000717938 -0.000988652 0.362505)
(0.000995408 -0.00127037 0.359609)
(0.00221061 -0.00158164 0.351604)
(0.00234428 -0.00202743 0.327848)
(2.31537e-07 -0.00217915 0.302849)
(-0.00174168 -0.00211131 0.338651)
(-0.00191301 -0.00160853 0.359371)
(-0.000829744 -0.00136612 0.367144)
(-0.000624819 -0.00105388 0.370029)
(-2.60387e-07 -0.00101492 0.370852)
(0.000625429 -0.00105393 0.370029)
(0.000830291 -0.00136615 0.367147)
(0.00191449 -0.00160857 0.359379)
(0.00174315 -0.00211238 0.338666)
(9.97431e-08 -0.00180059 0.322499)
(-0.00110724 -0.00214526 0.345977)
(-0.00155466 -0.00157061 0.362167)
(-0.000641569 -0.00137753 0.368916)
(-0.000515815 -0.00106315 0.371664)
(-2.58074e-07 -0.00100121 0.372521)
(0.000516354 -0.00106332 0.371664)
(0.00064219 -0.00137776 0.368917)
(0.00155618 -0.00157071 0.362173)
(0.00110875 -0.00214609 0.345987)
(1.66818e-06 1.84568e-05 0.0598464)
(-0.00209365 -2.16511e-05 0.0773729)
(-0.000601868 5.30074e-06 0.08368)
(-0.000794304 -3.65448e-06 0.0879811)
(-0.000471147 -9.91978e-06 0.0910848)
(-2.83371e-07 -4.26396e-06 0.0920327)
(0.000470779 -9.91365e-06 0.0910861)
(0.000793754 -3.66394e-06 0.0879847)
(0.000602211 5.27257e-06 0.0836879)
(0.00209512 -2.17255e-05 0.0773867)
(2.45386e-06 -0.000154624 0.13675)
(-0.00432289 -0.000219592 0.170515)
(-0.00190775 -0.000150826 0.182979)
(-0.00145327 -0.000102208 0.190091)
(-0.000917247 -0.000116022 0.194601)
(2.31133e-08 -0.000107446 0.196039)
(0.000917607 -0.000115986 0.194602)
(0.00145293 -0.000102224 0.190096)
(0.00190841 -0.000150876 0.182992)
(0.00432422 -0.000219807 0.170539)
(2.05825e-06 -0.000598335 0.178637)
(-0.00399431 -0.000512057 0.220562)
(-0.0019532 -0.000400033 0.239181)
(-0.00122772 -0.000277733 0.248138)
(-0.000821782 -0.000278696 0.253104)
(5.22825e-07 -0.000274952 0.254779)
(0.000823077 -0.000278609 0.253106)
(0.00122793 -0.000277709 0.248143)
(0.00195386 -0.000400029 0.239195)
(0.00399502 -0.000512336 0.22059)
(1.52607e-06 -0.00121695 0.206884)
(-0.00310525 -0.000782267 0.252401)
(-0.00153628 -0.000626586 0.274714)
(-0.000829432 -0.000440078 0.284833)
(-0.000600684 -0.000417927 0.290088)
(9.0405e-07 -0.000421826 0.291887)
(0.000602644 -0.000417772 0.29009)
(0.000830127 -0.000439974 0.284838)
(0.0015369 -0.000626491 0.27473)
(0.00310559 -0.000782565 0.252431)
(1.05858e-06 -0.00181939 0.232642)
(-0.00230724 -0.00103465 0.278331)
(-0.00112642 -0.000817152 0.301642)
(-0.000519799 -0.000580033 0.312258)
(-0.000418265 -0.000527755 0.317711)
(1.11625e-06 -0.000539957 0.319563)
(0.000420577 -0.00052752 0.317712)
(0.000520817 -0.000579814 0.312263)
(0.00112707 -0.000816943 0.301658)
(0.00230751 -0.00103495 0.27836)
(6.89344e-07 -0.00239815 0.259667)
(-0.00174819 -0.0012266 0.301816)
(-0.000868288 -0.000961452 0.323692)
(-0.000348469 -0.000694327 0.334393)
(-0.000310664 -0.000606837 0.339988)
(1.16588e-06 -0.000626605 0.341866)
(0.000313045 -0.000606516 0.339989)
(0.000349665 -0.00069397 0.334398)
(0.000869046 -0.000961124 0.323708)
(0.00174864 -0.00122689 0.301842)
(4.57461e-07 -0.00273554 0.28812)
(-0.00141779 -0.00135276 0.322731)
(-0.000756462 -0.0010682 0.341708)
(-0.000284447 -0.000794913 0.352244)
(-0.000264797 -0.000669403 0.357942)
(1.07894e-06 -0.00069457 0.35984)
(0.000267016 -0.000669006 0.357944)
(0.000285709 -0.000794417 0.35225)
(0.000757417 -0.00106777 0.341723)
(0.00141855 -0.00135305 0.322753)
(3.93805e-07 -0.00275143 0.315188)
(-0.00119698 -0.00144977 0.339847)
(-0.000717201 -0.00115871 0.355892)
(-0.000269276 -0.000894659 0.366156)
(-0.000249735 -0.000732708 0.371951)
(8.94597e-07 -0.000759444 0.373881)
(0.000251638 -0.000732262 0.371954)
(0.000270529 -0.000894058 0.366162)
(0.000718413 -0.0011582 0.355906)
(0.00119812 -0.00145007 0.339865)
(4.74265e-07 -0.00255869 0.337452)
(-0.000971863 -0.00154806 0.353068)
(-0.000682781 -0.00123735 0.366805)
(-0.00025889 -0.000999194 0.376795)
(-0.000240981 -0.000806789 0.382674)
(6.49544e-07 -0.000830173 0.384641)
(0.000242477 -0.000806335 0.382677)
(0.000260084 -0.000998554 0.376802)
(0.000684278 -0.00123679 0.366819)
(0.000973414 -0.00154834 0.353084)
(5.9374e-07 -0.00233131 0.353231)
(-0.000710267 -0.00165238 0.362679)
(-0.000622959 -0.00129774 0.374802)
(-0.000234994 -0.00109863 0.384528)
(-0.000228014 -0.000888009 0.39047)
(3.84041e-07 -0.000903908 0.392468)
(0.000229079 -0.000887603 0.390473)
(0.000236099 -0.00109804 0.384536)
(0.000624726 -0.0012972 0.374815)
(0.000712182 -0.00165268 0.362692)
(1.40633e-06 -3.03059e-05 0.0456669)
(-0.00194746 -1.88492e-05 0.0762637)
(-0.000264779 1.58434e-06 0.0826785)
(-0.000542993 5.0445e-07 0.0834592)
(-0.000204372 4.03148e-06 0.084225)
(-2.06775e-07 9.17652e-06 0.0841701)
(0.000204357 4.03412e-06 0.0842244)
(0.000542706 5.12645e-07 0.0834598)
(0.000265004 1.59705e-06 0.0826813)
(0.00194828 -1.88659e-05 0.076278)
(2.93797e-06 -0.00018896 0.113083)
(-0.00485445 -0.000102392 0.172664)
(-0.00145259 -8.99495e-05 0.183407)
(-0.00146088 -9.60982e-06 0.184589)
(-0.000736493 -6.91321e-06 0.18575)
(-3.94904e-07 9.37512e-06 0.185749)
(0.000736644 -6.89586e-06 0.185749)
(0.00146033 -9.59266e-06 0.184589)
(0.0014534 -8.99204e-05 0.183411)
(0.0048558 -0.000102547 0.172687)
(3.10184e-06 -0.000357946 0.153523)
(-0.00561838 -0.000222718 0.225957)
(-0.00220549 -0.000274684 0.242578)
(-0.00184761 -7.17754e-05 0.245148)
(-0.00100009 -6.7108e-05 0.24668)
(-3.93624e-07 -4.66312e-05 0.246894)
(0.0010005 -6.70757e-05 0.246679)
(0.00184708 -7.17626e-05 0.245149)
(0.00220663 -0.000274636 0.242583)
(0.00561998 -0.000223047 0.225984)
(2.79474e-06 -0.000548716 0.180281)
(-0.00520015 -0.000355039 0.257098)
(-0.00238736 -0.000493812 0.278829)
(-0.0018492 -0.000170602 0.282929)
(-0.00103244 -0.000159058 0.284766)
(-3.19306e-07 -0.000139486 0.285171)
(0.00103307 -0.000159015 0.284765)
(0.00184881 -0.000170597 0.282931)
(0.00238866 -0.000493757 0.278836)
(0.00520188 -0.000355538 0.257127)
(2.35609e-06 -0.000800968 0.203716)
(-0.00437605 -0.000497457 0.279666)
(-0.00225844 -0.000710725 0.304408)
(-0.00168359 -0.000289569 0.309804)
(-0.000959823 -0.00026497 0.311875)
(-2.53031e-07 -0.000249476 0.312411)
(0.00096056 -0.00026492 0.311874)
(0.00168338 -0.000289575 0.309806)
(0.00225983 -0.000710678 0.304417)
(0.00437785 -0.000498104 0.279695)
(1.87332e-06 -0.00106742 0.227903)
(-0.00349855 -0.000609638 0.298562)
(-0.00201081 -0.000894966 0.324277)
(-0.00147425 -0.00041281 0.330527)
(-0.000858326 -0.000368226 0.332787)
(-2.3575e-07 -0.000358795 0.333397)
(0.000859043 -0.00036818 0.332787)
(0.00147421 -0.000412838 0.33053)
(0.00201228 -0.000894941 0.324286)
(0.00350043 -0.000610419 0.298588)
(1.40136e-06 -0.00126233 0.254228)
(-0.00273205 -0.00067158 0.315072)
(-0.00175293 -0.00102507 0.340033)
(-0.00127692 -0.000530711 0.346831)
(-0.000763919 -0.00045937 0.349252)
(-2.77771e-07 -0.00045677 0.349912)
(0.000764493 -0.000459349 0.349252)
(0.001277 -0.000530784 0.346834)
(0.00175449 -0.00102508 0.340042)
(0.002734 -0.000672472 0.315095)
(1.00473e-06 -0.00128421 0.281254)
(-0.00210585 -0.000692575 0.328864)
(-0.00152014 -0.00110217 0.351784)
(-0.00109739 -0.000643316 0.358918)
(-0.000683082 -0.000539157 0.361464)
(-3.54071e-07 -0.000542344 0.362172)
(0.000683442 -0.000539196 0.361464)
(0.00109757 -0.000643469 0.35892)
(0.00152178 -0.00110224 0.351792)
(0.00210785 -0.000693547 0.328882)
(7.23509e-07 -0.00111719 0.305284)
(-0.0015646 -0.000692666 0.339383)
(-0.00129925 -0.00112967 0.359075)
(-0.000919839 -0.000743849 0.366039)
(-0.000607614 -0.000605487 0.36862)
(-4.01564e-07 -0.000611341 0.369374)
(0.000607802 -0.000605625 0.36862)
(0.000920095 -0.000744125 0.366041)
(0.00130091 -0.0011298 0.359082)
(0.0015666 -0.000693663 0.339397)
(5.27615e-07 -0.000854476 0.323367)
(-0.00105554 -0.000686942 0.346056)
(-0.00107203 -0.00110222 0.361226)
(-0.000738642 -0.000807874 0.367271)
(-0.000531223 -0.00064299 0.369749)
(-3.42785e-07 -0.000645413 0.370535)
(0.000531416 -0.000643243 0.369748)
(0.000738965 -0.00080829 0.367272)
(0.00107363 -0.00110239 0.361231)
(0.00105747 -0.00068791 0.346066)
(1.07183e-06 4.28434e-05 0.0816472)
(-0.000475478 1.35541e-05 0.080052)
(-0.000252277 2.17484e-07 0.0841554)
(-0.000416604 -1.69877e-05 0.0875897)
(-0.000153251 -1.85664e-05 0.090217)
(4.73136e-08 -2.1272e-05 0.0910653)
(0.000153405 -1.85721e-05 0.0902178)
(0.000416554 -1.69849e-05 0.0875919)
(0.000252194 2.06302e-07 0.0841611)
(0.000476221 1.3552e-05 0.0800622)
(1.80133e-06 -8.78554e-05 0.173856)
(-0.00123024 -5.92294e-05 0.176268)
(-0.000327509 -9.17762e-05 0.183982)
(-0.000585258 -0.000106858 0.189239)
(-0.000222382 -0.000115175 0.19308)
(3.44408e-07 -0.000117976 0.194283)
(0.000223096 -0.00011517 0.193081)
(0.000585436 -0.000106815 0.189242)
(0.000327518 -9.17932e-05 0.183991)
(0.00123131 -5.92453e-05 0.176286)
(1.63177e-06 -0.000375142 0.218996)
(-0.0014599 -0.000197731 0.22991)
(-0.000282502 -0.000231216 0.241583)
(-0.000493626 -0.000203539 0.247972)
(-0.000192449 -0.000216387 0.252308)
(6.69321e-07 -0.000218025 0.253684)
(0.000193767 -0.000216349 0.252309)
(0.00049419 -0.000203427 0.247975)
(0.000282665 -0.000231209 0.241594)
(0.00146072 -0.000197757 0.229933)
(1.35749e-06 -0.000704119 0.24618)
(-0.00143974 -0.000346903 0.262699)
(-0.000242136 -0.000371686 0.277778)
(-0.000374291 -0.000284366 0.285291)
(-0.000143127 -0.000297682 0.289984)
(9.05163e-07 -0.000298145 0.291506)
(0.000144888 -0.000297595 0.289985)
(0.000375184 -0.000284162 0.285295)
(0.000242431 -0.000371621 0.277791)
(0.00144032 -0.000346935 0.262724)
(1.11531e-06 -0.00103992 0.267844)
(-0.00132554 -0.000495625 0.287147)
(-0.000207747 -0.000510901 0.304253)
(-0.000275344 -0.000352741 0.312725)
(-9.58876e-05 -0.000361034 0.317681)
(1.0453e-06 -0.000359928 0.319314)
(9.79186e-05 -0.000360882 0.317682)
(0.000276475 -0.000352422 0.31273)
(0.000208169 -0.000510757 0.304267)
(0.00132602 -0.000495671 0.287171)
(9.15094e-07 -0.00135277 0.287983)
(-0.0011538 -0.000622809 0.307835)
(-0.000174432 -0.000635347 0.325383)
(-0.000204441 -0.000406386 0.334471)
(-5.90066e-05 -0.000404657 0.339621)
(1.09155e-06 -0.000401612 0.341327)
(6.11388e-05 -0.000404422 0.339622)
(0.000205722 -0.000405942 0.334476)
(0.000175006 -0.000635108 0.325396)
(0.00115434 -0.000622871 0.307858)
(7.7202e-07 -0.00158285 0.307697)
(-0.000954375 -0.0007121 0.32604)
(-0.000147601 -0.000740561 0.342636)
(-0.000160837 -0.00044782 0.351964)
(-3.69102e-05 -0.00043166 0.357258)
(1.04764e-06 -0.000426565 0.359013)
(3.89847e-05 -0.000431324 0.35726)
(0.000162187 -0.000447258 0.351969)
(0.00014837 -0.000740224 0.34265)
(0.000955113 -0.000712177 0.32606)
(7.06596e-07 -0.00168937 0.326564)
(-0.000762805 -0.000766249 0.341619)
(-0.000132756 -0.000819393 0.356327)
(-0.00013713 -0.000482544 0.365676)
(-2.86649e-05 -0.000449294 0.371105)
(9.26471e-07 -0.000442898 0.372903)
(3.05464e-05 -0.000448861 0.371107)
(0.000138479 -0.000481898 0.365682)
(0.000133754 -0.000818981 0.35634)
(0.000763843 -0.000766347 0.341637)
(7.15104e-07 -0.00168109 0.343165)
(-0.000589711 -0.000799582 0.354179)
(-0.000123588 -0.000872384 0.366873)
(-0.000120479 -0.00051517 0.376133)
(-2.84969e-05 -0.000464317 0.381689)
(7.47379e-07 -0.000458081 0.383531)
(3.00845e-05 -0.00046382 0.381692)
(0.000121777 -0.000514501 0.376139)
(0.000124836 -0.000871935 0.366886)
(0.000591081 -0.000799701 0.354194)
(7.37216e-07 -0.00160215 0.355765)
(-0.000423786 -0.000819654 0.363255)
(-0.000106234 -0.000898534 0.374473)
(-9.8927e-05 -0.000550577 0.383605)
(-3.05722e-05 -0.000485907 0.389281)
(5.34699e-07 -0.000481691 0.39116)
(3.18074e-05 -0.000485412 0.389284)
(0.000100141 -0.000549978 0.383613)
(0.000107729 -0.000898099 0.374486)
(0.000425444 -0.000819805 0.363267)
(4.59472e-07 -5.62995e-05 0.0506068)
(-0.00120536 -1.54548e-05 0.0802805)
(-4.00176e-05 8.45759e-06 0.0862074)
(-0.000242543 2.23067e-05 0.0864482)
(-5.38488e-05 2.89012e-05 0.0868534)
(2.71723e-08 3.3263e-05 0.086754)
(5.4303e-05 2.89127e-05 0.0868524)
(0.000242676 2.23246e-05 0.0864473)
(4.02787e-05 8.48409e-06 0.0862076)
(0.00120549 -1.54512e-05 0.0802887)
(1.97919e-06 6.92447e-05 0.129356)
(-0.00349713 2.53111e-06 0.180684)
(-0.00121976 -2.49098e-07 0.189281)
(-0.00123843 6.75918e-05 0.189345)
(-0.000567482 7.49626e-05 0.189882)
(-2.94068e-07 8.7852e-05 0.18975)
(0.000567882 7.49882e-05 0.189881)
(0.00123822 6.76433e-05 0.189344)
(0.00122048 -1.78529e-07 0.189282)
(0.00349819 2.5373e-06 0.180697)
(2.87936e-06 0.000188663 0.177428)
(-0.00448023 -5.59123e-06 0.235322)
(-0.00204847 -0.000104152 0.248238)
(-0.00180432 3.89784e-05 0.249401)
(-0.000890058 4.27409e-05 0.250298)
(-4.99625e-07 5.96609e-05 0.250314)
(0.000890327 4.27641e-05 0.250297)
(0.00180386 3.9041e-05 0.2494)
(0.00204949 -0.000104088 0.24824)
(0.00448212 -5.76138e-06 0.23534)
(2.91669e-06 0.000277652 0.204184)
(-0.0043993 -6.9155e-05 0.265798)
(-0.00231434 -0.000268859 0.283186)
(-0.00193155 -4.68078e-05 0.285825)
(-0.000983861 -4.82171e-05 0.287099)
(-5.54314e-07 -2.74093e-05 0.287288)
(0.000984105 -4.81963e-05 0.287098)
(0.00193106 -4.67526e-05 0.285825)
(0.00231557 -0.000268838 0.283191)
(0.00440164 -6.95148e-05 0.26582)
(2.61213e-06 0.00013093 0.224357)
(-0.00382934 -0.000167908 0.286569)
(-0.00226629 -0.000460662 0.307455)
(-0.00184035 -0.000170105 0.311432)
(-0.000957564 -0.000174405 0.313015)
(-5.47772e-07 -0.000150248 0.313345)
(0.000957816 -0.000174389 0.313014)
(0.00183996 -0.000170073 0.311433)
(0.00226766 -0.0004607 0.307461)
(0.00383183 -0.000168409 0.286592)
(2.21145e-06 -4.80887e-05 0.243743)
(-0.00314885 -0.000275222 0.303298)
(-0.00207906 -0.000643273 0.326283)
(-0.00166393 -0.000303715 0.331316)
(-0.000881859 -0.00030594 0.333144)
(-5.41296e-07 -0.00028205 0.333576)
(0.000882081 -0.000305946 0.333143)
(0.00166368 -0.000303728 0.331317)
(0.00208054 -0.000643382 0.326291)
(0.00315134 -0.000275851 0.303321)
(1.78877e-06 -0.000253828 0.264781)
(-0.00251964 -0.000358792 0.317971)
(-0.00185129 -0.000792133 0.341306)
(-0.00147166 -0.000433696 0.347106)
(-0.000795325 -0.000428376 0.349132)
(-5.62398e-07 -0.000406109 0.34964)
(0.000795449 -0.000428419 0.349132)
(0.00147154 -0.000433782 0.347107)
(0.00185285 -0.000792324 0.341314)
(0.00252209 -0.000359528 0.317992)
(1.38463e-06 -0.000395082 0.287622)
(-0.00197544 -0.000404715 0.33076)
(-0.0016269 -0.000903636 0.352596)
(-0.00129005 -0.000557558 0.358844)
(-0.0007144 -0.000538732 0.361013)
(-5.98373e-07 -0.000517558 0.361581)
(0.000714385 -0.000538832 0.361013)
(0.00129003 -0.000557755 0.358846)
(0.0016285 -0.000903907 0.352603)
(0.00197782 -0.000405522 0.330777)
(1.05144e-06 -0.000401825 0.309245)
(-0.00150008 -0.000426885 0.340897)
(-0.00141198 -0.000969642 0.359526)
(-0.00111906 -0.000659466 0.36567)
(-0.000640862 -0.000622318 0.367875)
(-5.9072e-07 -0.000599615 0.368495)
(0.000640769 -0.000622499 0.367874)
(0.00111913 -0.000659807 0.36567)
(0.00141356 -0.000969972 0.359531)
(0.0015024 -0.00042771 0.34091)
(8.00814e-07 -0.000314686 0.325919)
(-0.00107054 -0.000448424 0.347194)
(-0.00120348 -0.000982759 0.36125)
(-0.000955841 -0.000706993 0.366542)
(-0.000573013 -0.000648507 0.368648)
(-4.7084e-07 -0.000619599 0.369303)
(0.000573022 -0.000648773 0.368647)
(0.000955983 -0.000707467 0.366542)
(0.00120494 -0.000983086 0.361254)
(0.00107274 -0.000449213 0.347203)
(7.44152e-07 3.55018e-05 0.0868321)
(0.00047315 4.36147e-05 0.0764157)
(0.000455385 4.74244e-06 0.0807787)
(0.000377409 -1.11344e-05 0.0841374)
(0.000308507 -1.49451e-05 0.0867214)
(3.41303e-07 -2.10195e-05 0.0875872)
(-0.000308091 -1.49475e-05 0.0867218)
(-0.000377364 -1.11545e-05 0.0841389)
(-0.000455671 4.71065e-06 0.0807843)
(-0.000472675 4.35481e-05 0.0764255)
(6.14296e-07 -0.000249035 0.183916)
(0.000900999 7.51681e-05 0.173297)
(0.00135927 2.66846e-06 0.180421)
(0.000821094 -2.14699e-05 0.18533)
(0.000604615 -3.20139e-05 0.189031)
(9.55321e-07 -4.06832e-05 0.190198)
(-0.000603125 -3.20001e-05 0.189031)
(-0.00082024 -2.14717e-05 0.185332)
(-0.00135944 2.57154e-06 0.180429)
(-0.000900899 7.50116e-05 0.173313)
(3.02951e-07 -0.000424297 0.2365)
(0.000762123 0.000104089 0.232048)
(0.00154517 3.45366e-05 0.24103)
(0.000866236 3.9672e-05 0.246441)
(0.000625018 1.52172e-05 0.25054)
(1.26297e-06 7.63874e-06 0.251806)
(-0.000622916 1.52687e-05 0.250541)
(-0.000864871 3.97322e-05 0.246443)
(-0.00154517 3.44523e-05 0.241039)
(-0.000762416 0.000103914 0.232067)
(1.35977e-07 -0.000699161 0.26909)
(0.000391335 0.000157573 0.268744)
(0.00132763 6.8465e-05 0.279403)
(0.000735632 0.00011878 0.285509)
(0.000545423 8.09281e-05 0.289917)
(1.38571e-06 7.79551e-05 0.291291)
(-0.000543048 8.10325e-05 0.289917)
(-0.000734039 0.00011893 0.285511)
(-0.00132747 6.84613e-05 0.279413)
(-0.00039177 0.000157405 0.268764)
(9.71642e-08 -0.000541613 0.292178)
(3.47997e-05 0.000195353 0.294247)
(0.00106447 9.27735e-05 0.306516)
(0.00060374 0.000206321 0.313491)
(0.000467271 0.000159577 0.318143)
(1.42181e-06 0.000163924 0.319622)
(-0.000464792 0.000159741 0.318144)
(-0.000602048 0.000206587 0.313494)
(-0.00106416 9.28793e-05 0.306527)
(-3.51883e-05 0.000195226 0.294267)
(1.33142e-07 -0.000457066 0.310079)
(-0.000125413 0.000231715 0.313657)
(0.000887586 9.99204e-05 0.327213)
(0.000525104 0.000291708 0.335036)
(0.000418064 0.000239606 0.339893)
(1.40784e-06 0.000251345 0.341462)
(-0.000415578 0.000239838 0.339894)
(-0.000523369 0.000292105 0.33504)
(-0.000887099 0.000100149 0.327224)
(0.00012519 0.000231634 0.313676)
(2.19959e-07 -0.000337895 0.324753)
(-0.00010547 0.000274516 0.329719)
(0.000802172 0.000108168 0.343664)
(0.000495086 0.000376619 0.352115)
(0.00039323 0.000323802 0.357155)
(1.34816e-06 0.000341067 0.3588)
(-0.000390819 0.0003241 0.357157)
(-0.000493344 0.000377145 0.35212)
(-0.000801486 0.000108516 0.343675)
(0.000105506 0.000274462 0.329737)
(3.36531e-07 -0.000228182 0.337256)
(1.73108e-06 0.000336642 0.343532)
(0.000768875 0.000135934 0.35685)
(0.000490794 0.00046315 0.365602)
(0.000379141 0.000413682 0.370805)
(1.23407e-06 0.000432848 0.372513)
(-0.000376898 0.000414039 0.370807)
(-0.000489078 0.000463778 0.365607)
(-0.000767971 0.000136371 0.356862)
(-1.36585e-06 0.000336546 0.343548)
(4.54688e-07 -0.000167076 0.34831)
(0.000116836 0.000423972 0.355096)
(0.000755875 0.000186149 0.367156)
(0.00049659 0.000537521 0.375962)
(0.000366641 0.000494379 0.38131)
(1.05504e-06 0.000510258 0.383073)
(-0.000364671 0.000494776 0.381312)
(-0.000494934 0.000538195 0.375967)
(-0.000754742 0.000186613 0.367168)
(-0.000116125 0.000423779 0.35511)
(5.26729e-07 -0.000101 0.357682)
(0.000212914 0.000529563 0.363732)
(0.000750434 0.000239203 0.374506)
(0.000507319 0.000567739 0.383282)
(0.00035282 0.000530419 0.388771)
(8.13109e-07 0.000537804 0.39058)
(-0.000351225 0.000530819 0.388774)
(-0.000505748 0.000568355 0.383288)
(-0.000749067 0.000239608 0.374517)
(-0.000211898 0.00052926 0.363744)
(-1.13737e-07 -0.00010475 0.0557933)
(0.000415112 6.8543e-05 0.0824749)
(0.00158345 0.000125874 0.0891924)
(0.000987605 0.000122809 0.0901456)
(0.000466506 0.000115786 0.0910693)
(1.86741e-07 0.000116589 0.0912566)
(-0.000465781 0.000115795 0.0910686)
(-0.000987316 0.00012282 0.0901454)
(-0.00158324 0.000125919 0.0891933)
(-0.00041531 6.85531e-05 0.0824819)
(1.67249e-06 0.00110001 0.144428)
(-0.00245267 0.000199649 0.183574)
(-0.000721409 0.0001948 0.192383)
(-0.000481198 0.000194424 0.192994)
(-0.000233828 0.000174203 0.193904)
(-2.57828e-07 0.000176256 0.194035)
(0.000234133 0.000174233 0.193903)
(0.000480651 0.000194439 0.192993)
(0.00072192 0.00019484 0.192383)
(0.00245394 0.000199513 0.183583)
(2.94007e-06 0.000122135 0.187858)
(-0.00353592 0.000313497 0.235979)
(-0.00169681 0.000128223 0.248636)
(-0.00114065 0.00013608 0.250254)
(-0.00055156 0.00010732 0.251312)