/*--------------------------------*- C++ -*----------------------------------*\
| =========                 |                                                 |
| \\      /  F ield         | OpenFOAM: The Open Source CFD Toolbox           |
|  \\    /   O peration     | Version:  v1906                                 |
|   \\  /    A nd           | Web:      www.OpenFOAM.com                      |
|    \\/     M anipulation  |                                                 |
\*---------------------------------------------------------------------------*/
FoamFile
{
    version     2.0;
    format      ascii;
    class       volVectorField;
    location    "38";
    object      wallShearStress;
}
// * * * * * * * * * * * * * * * * * * * * * * * * * * * * * * * * * * * * * //

dimensions      [1 -1 -2 0 0 0 0];


internalField   uniform (0 0 0);

boundaryField
{
    leftWall
    {
        type            calculated;
        value           nonuniform List<vector> 
100
(
(-1.57762e-05 -0.166555 0.00640676)
(-8.61712e-06 -0.0167517 -0.171933)
(-1.10079e-05 -0.000659802 -0.137982)
(-9.1382e-06 0.000105412 -0.327554)
(-7.69903e-06 0.000516716 -0.249951)
(-5.86672e-06 -0.000250454 -0.44688)
(-2.51446e-06 0.000378643 -0.276987)
(-4.07988e-06 -5.94443e-05 -0.475258)
(6.23569e-07 -0.000181537 -0.305297)
(1.72329e-05 0.0147144 -0.264109)
(-0.0515737 -0.0102538 -0.177422)
(0.0503386 0.00216853 -0.351463)
(0.0324414 0.000823597 -0.384559)
(0.0114606 0.000271825 -0.423489)
(0.0106558 0.000188556 -0.417417)
(0.00260686 -1.23847e-05 -0.43815)
(0.0065906 1.58186e-05 -0.439402)
(-0.00258651 -0.000230061 -0.418251)
(-0.00229593 -0.0011457 -0.451435)
(-0.0705888 -0.00537113 -0.258769)
(0.00376965 0.00302003 -0.293218)
(0.0362227 0.00263187 -0.438969)
(0.0154188 0.000398055 -0.439872)
(0.00329235 0.000110961 -0.458008)
(0.00144721 9.77424e-05 -0.452525)
(0.00138396 9.38692e-05 -0.460609)
(0.000215117 -8.26762e-05 -0.471841)
(-0.0024868 3.60861e-05 -0.442132)
(-0.00867237 -0.00143366 -0.488197)
(-0.051983 -0.004774 -0.324896)
(-0.00313378 0.00417927 -0.339771)
(0.017455 0.00175535 -0.471857)
(0.0105575 7.29242e-05 -0.454043)
(0.00434906 4.87613e-05 -0.481548)
(0.00297172 -9.64639e-06 -0.456799)
(0.00228215 0.000208219 -0.479407)
(0.0013254 -0.000253152 -0.473159)
(-0.00206364 0.000166867 -0.460515)
(-0.00540443 -0.00141997 -0.493411)
(-0.0322856 -0.00394696 -0.366101)
(-0.000983948 0.00384549 -0.345283)
(0.00990138 0.00184223 -0.487928)
(0.00633837 0.000155404 -0.462744)
(0.0025788 0.000118956 -0.498536)
(0.00111769 -1.44096e-05 -0.46099)
(0.000839234 0.000232335 -0.493787)
(0.000293597 -0.000284691 -0.475376)
(-0.00168753 0.00019221 -0.474657)
(-0.00255269 -0.00133921 -0.498467)
(-0.0164028 -0.00397813 -0.384591)
(4.91298e-06 0.00387711 -0.347574)
(4.60533e-06 0.00182505 -0.4933)
(4.36603e-06 0.00011618 -0.464438)
(1.55035e-06 7.84581e-05 -0.503724)
(1.13147e-06 -6.37933e-05 -0.460689)
(-2.58366e-07 0.000243335 -0.49843)
(-1.49913e-07 -0.000325352 -0.474833)
(-1.86781e-06 0.00022742 -0.479396)
(-1.02306e-06 -0.00133763 -0.499493)
(-9.48512e-06 -0.00396506 -0.390098)
(0.000989807 0.00384567 -0.345283)
(-0.00989624 0.00184259 -0.487939)
(-0.00633377 0.000155459 -0.462748)
(-0.00257679 0.000118878 -0.498543)
(-0.00111761 -1.44332e-05 -0.460987)
(-0.00084008 0.000232358 -0.493792)
(-0.000296085 -0.000284779 -0.475371)
(0.00168526 0.000192188 -0.474659)
(0.00254872 -0.00133929 -0.498463)
(0.0163855 -0.00397819 -0.384592)
(0.00313802 0.00417994 -0.339787)
(-0.0174512 0.00175571 -0.471883)
(-0.0105533 7.32235e-05 -0.454055)
(-0.00434604 4.88366e-05 -0.481568)
(-0.00297015 -9.72516e-06 -0.456802)
(-0.00228188 0.000208144 -0.479419)
(-0.00132612 -0.000253313 -0.473154)
(0.0020634 0.000166985 -0.460523)
(0.00540285 -0.00142006 -0.49341)
(0.0322706 -0.00394707 -0.366115)
(-0.00377593 0.00302103 -0.293272)
(-0.0362294 0.00263225 -0.439036)
(-0.0154242 0.000398271 -0.439905)
(-0.00329422 0.000111224 -0.458051)
(-0.00144845 9.767e-05 -0.452541)
(-0.0013835 9.39391e-05 -0.460641)
(-0.000216545 -8.28737e-05 -0.471842)
(0.00248836 3.63626e-05 -0.442163)
(0.00867118 -0.00143392 -0.488201)
(0.051981 -0.00477382 -0.324949)
(0.0515617 -0.0102474 -0.177551)
(-0.0503428 0.00216776 -0.351547)
(-0.0324499 0.000824159 -0.384652)
(-0.0114686 0.000272505 -0.423565)
(-0.0106603 0.000188763 -0.417495)
(-0.00261093 -1.23716e-05 -0.438206)
(-0.00659132 1.58268e-05 -0.439447)
(0.00258391 -0.000229486 -0.418304)
(0.00229702 -0.00114554 -0.451473)
(0.0706043 -0.00537171 -0.258877)
)
;
    }
    rightWall
    {
        type            calculated;
        value           nonuniform List<vector> 
100
(
(-1.35326e-06 0.00767971 -0.67622)
(7.87735e-06 0.0018633 -0.479632)
(9.02852e-07 0.000326277 -0.374168)
(-4.28722e-06 -0.000340935 -0.371264)
(-1.60346e-07 -0.000141157 -0.346103)
(-2.37369e-06 -1.21845e-05 -0.378782)
(2.85548e-06 -0.000132375 -0.33887)
(-1.61268e-06 9.46219e-05 -0.398423)
(3.5088e-06 -0.00366646 -0.314042)
(1.25566e-05 -0.00590481 -0.763895)
(-0.00644963 0.00810121 -0.662708)
(0.0136405 0.0018531 -0.469564)
(0.0068126 0.000189527 -0.35742)
(0.00517901 -0.000302215 -0.373665)
(-0.00115773 -0.000201456 -0.337485)
(0.00391665 -8.9252e-05 -0.389455)
(-0.00355627 -0.000128592 -0.333037)
(0.00143587 -9.50764e-05 -0.414133)
(-0.0115544 -0.00346059 -0.307491)
(-0.0324859 -0.00530137 -0.795088)
(0.00210776 0.00745328 -0.656277)
(0.0227145 0.000649807 -0.495539)
(0.0106528 8.17039e-05 -0.381925)
(0.00627266 -0.000229316 -0.405579)
(-0.00105703 -9.22589e-05 -0.349118)
(0.00414148 -8.42549e-05 -0.410621)
(-0.00358746 3.68082e-05 -0.337311)
(-0.000314152 -0.000139634 -0.43334)
(-0.013478 -0.00303038 -0.310096)
(-0.0438573 -0.00472838 -0.82318)
(0.00380854 0.00695702 -0.666547)
(0.0155984 0.000606872 -0.517442)
(0.0065586 0.000347758 -0.392967)
(0.004527 -0.000195513 -0.423384)
(-0.00103238 -3.28814e-05 -0.352179)
(0.00395387 -0.00013005 -0.428722)
(-0.00280075 0.000120166 -0.34203)
(0.000179161 -0.000206645 -0.454336)
(-0.0112986 -0.00263943 -0.319553)
(-0.0344702 -0.00468151 -0.840705)
(0.00158447 0.00685809 -0.670934)
(0.00872133 0.000469792 -0.530442)
(0.00506516 0.000244936 -0.401224)
(0.0033356 -0.000188034 -0.439439)
(0.000133364 -4.88134e-05 -0.357613)
(0.00207881 -0.000186467 -0.443146)
(-0.00133513 0.000139917 -0.345786)
(-0.000529498 -0.000230665 -0.469239)
(-0.00623371 -0.00246774 -0.324142)
(-0.018831 -0.0046379 -0.855136)
(5.95837e-06 0.00680405 -0.6722)
(6.03003e-06 0.000351124 -0.535921)
(3.87968e-06 0.000254 -0.40518)
(4.21623e-06 -0.000178692 -0.444334)
(-2.96294e-07 -1.69411e-05 -0.359137)
(1.14351e-06 -0.000159267 -0.446423)
(-2.48473e-06 0.000172812 -0.346341)
(-4.44817e-07 -0.000225906 -0.47303)
(-3.64292e-06 -0.00244059 -0.325276)
(-1.40262e-05 -0.00459968 -0.860074)
(-0.00157946 0.00685756 -0.67094)
(-0.00872003 0.00046924 -0.530468)
(-0.00506104 0.000244958 -0.401229)
(-0.00332869 -0.00018802 -0.439457)
(-0.000134021 -4.89595e-05 -0.357608)
(-0.00207677 -0.000186512 -0.443159)
(0.00132959 0.000139965 -0.345777)
(0.000529399 -0.000230689 -0.469251)
(0.00622586 -0.00246751 -0.324132)
(0.0188099 -0.00463763 -0.855151)
(-0.0038074 0.00695683 -0.666562)
(-0.0156116 0.000606524 -0.51748)
(-0.00656259 0.000347449 -0.392973)
(-0.00452537 -0.000195566 -0.423419)
(0.00103167 -3.27515e-05 -0.352178)
(-0.00395269 -0.000130084 -0.428746)
(0.00279835 0.000120268 -0.342018)
(-0.000178682 -0.000206715 -0.454355)
(0.0112958 -0.00263904 -0.319543)
(0.0344595 -0.00468126 -0.840728)
(-0.00211367 0.00745266 -0.656294)
(-0.0227266 0.000651736 -0.495568)
(-0.0106604 8.17899e-05 -0.381913)
(-0.00627874 -0.000229284 -0.405607)
(0.00105542 -9.2095e-05 -0.349113)
(-0.00414453 -8.43369e-05 -0.410651)
(0.00358794 3.70646e-05 -0.337303)
(0.000312457 -0.000139857 -0.433368)
(0.0134804 -0.0030299 -0.310087)
(0.0438623 -0.00472819 -0.823213)
(0.00644051 0.00810143 -0.662723)
(-0.0136363 0.00185514 -0.46958)
(-0.00681476 0.000189775 -0.357409)
(-0.00518845 -0.000302242 -0.373677)
(0.00115656 -0.00020153 -0.337478)
(-0.00392252 -8.9238e-05 -0.389465)
(0.00355924 -0.00012852 -0.333029)
(-0.0014395 -9.52286e-05 -0.414143)
(0.0115592 -0.00346051 -0.307488)
(0.0325068 -0.00530119 -0.795098)
)
;
    }
    leftSides_periodic0
    {
        type            cyclic;
    }
    leftSides_periodic1
    {
        type            cyclic;
    }
    rightSides_periodic0
    {
        type            cyclic;
    }
    rightSides_periodic1
    {
        type            cyclic;
    }
    leftInOut_periodic0
    {
        type            cyclic;
    }
    leftInOut_periodic1
    {
        type            cyclic;
    }
    rightInOut_periodic0
    {
        type            cyclic;
    }
    rightInOut_periodic1
    {
        type            cyclic;
    }
}


// ************************************************************************* //
