/*--------------------------------*- C++ -*----------------------------------*\
| =========                 |                                                 |
| \\      /  F ield         | OpenFOAM: The Open Source CFD Toolbox           |
|  \\    /   O peration     | Version:  v1912                                 |
|   \\  /    A nd           | Website:  www.openfoam.com                      |
|    \\/     M anipulation  |                                                 |
\*---------------------------------------------------------------------------*/
FoamFile
{
    version     2.0;
    format      ascii;
    class       volScalarField;
    location    "199.2";
    object      nut;
}
// * * * * * * * * * * * * * * * * * * * * * * * * * * * * * * * * * * * * * //

dimensions      [0 2 -1 0 0 0 0];


internalField   nonuniform List<scalar> 
40448
(
9.93582e-12
5.20578e-12
1.66101e-12
4.51841e-12
4.40874e-12
5.20983e-12
5.36168e-12
5.57189e-12
5.55159e-12
5.56215e-12
5.33769e-12
5.17575e-12
4.3702e-12
4.48501e-12
1.6484e-12
5.17472e-12
1.68004e-11
1.17772e-11
1.46132e-11
1.67525e-11
1.64454e-11
1.71833e-11
1.74012e-11
1.78e-11
1.77384e-11
1.77753e-11
1.73708e-11
1.71593e-11
1.64188e-11
1.67307e-11
1.46358e-11
1.17664e-11
2.00938e-10
1.47523e-10
2.6398e-10
2.61231e-10
2.56628e-10
2.58135e-10
2.59937e-10
2.64407e-10
2.63495e-10
2.64081e-10
2.59738e-10
2.58234e-10
2.56748e-10
2.61362e-10
2.64644e-10
1.47822e-10
1.59511e-09
1.0288e-09
1.90942e-09
1.89332e-09
1.85833e-09
1.86632e-09
1.87855e-09
1.91011e-09
1.90343e-09
1.90783e-09
1.87729e-09
1.86729e-09
1.85946e-09
1.8945e-09
1.91432e-09
1.03104e-09
7.65404e-09
4.32531e-09
8.12194e-09
8.16389e-09
8.00588e-09
8.04994e-09
8.10272e-09
8.23945e-09
8.21021e-09
8.22982e-09
8.09747e-09
8.0542e-09
8.0107e-09
8.16892e-09
8.14246e-09
4.33448e-09
2.66015e-08
1.32178e-08
2.47047e-08
2.54163e-08
2.49016e-08
2.51227e-08
2.5297e-08
2.57379e-08
2.56447e-08
2.57078e-08
2.52795e-08
2.51338e-08
2.49132e-08
2.54289e-08
2.4764e-08
1.32434e-08
7.36968e-08
3.22687e-08
5.88863e-08
6.27244e-08
6.13874e-08
6.23129e-08
6.27993e-08
6.39687e-08
6.37303e-08
6.38915e-08
6.27468e-08
6.23264e-08
6.13984e-08
6.27397e-08
5.90155e-08
3.23215e-08
1.70358e-07
6.60193e-08
1.15493e-07
1.28572e-07
1.25655e-07
1.28664e-07
1.29837e-07
1.32487e-07
1.31975e-07
1.32318e-07
1.29698e-07
1.28647e-07
1.25624e-07
1.28555e-07
1.15717e-07
6.61008e-08
3.3605e-07
1.16561e-07
1.93065e-07
2.25427e-07
2.19932e-07
2.27469e-07
2.29892e-07
2.35071e-07
2.34127e-07
2.34751e-07
2.2958e-07
2.27345e-07
2.19772e-07
2.253e-07
1.9339e-07
1.16655e-07
5.76176e-07
1.82113e-07
2.84095e-07
3.47208e-07
3.38088e-07
3.53147e-07
3.57444e-07
3.66265e-07
3.64736e-07
3.65734e-07
3.56855e-07
3.5281e-07
3.37691e-07
3.46867e-07
2.84514e-07
1.82186e-07
8.78556e-07
2.57113e-07
3.58141e-07
4.82667e-07
4.69005e-07
4.94308e-07
5.01001e-07
5.14382e-07
5.1215e-07
5.13593e-07
5.00038e-07
4.93657e-07
4.68276e-07
4.82018e-07
3.58542e-07
2.56963e-07
1.22237e-06
3.14228e-07
4.197e-07
5.98082e-07
5.76471e-07
6.25817e-07
6.37349e-07
6.59808e-07
6.56314e-07
6.58525e-07
6.35549e-07
6.24281e-07
5.74936e-07
5.96668e-07
4.20174e-07
3.14061e-07
1.5881e-06
3.73652e-07
4.78582e-07
6.86036e-07
6.60604e-07
7.17872e-07
7.30993e-07
7.56742e-07
7.52714e-07
7.55294e-07
7.28929e-07
7.16114e-07
6.58861e-07
6.84422e-07
4.79135e-07
3.7348e-07
1.96195e-06
4.36512e-07
5.35067e-07
7.69446e-07
7.40679e-07
8.04317e-07
8.18675e-07
8.47022e-07
8.42553e-07
8.4546e-07
8.16411e-07
8.02409e-07
7.38795e-07
7.67697e-07
5.357e-07
4.36342e-07
2.23116e-06
5.0327e-07
5.892e-07
8.50361e-07
8.18338e-07
8.88441e-07
9.04034e-07
9.34952e-07
9.30041e-07
9.33288e-07
9.01578e-07
8.86388e-07
8.16323e-07
8.48488e-07
5.89914e-07
5.03107e-07
2.48337e-06
5.7463e-07
6.41383e-07
9.29435e-07
8.94161e-07
9.70961e-07
9.87784e-07
1.02128e-06
1.01592e-06
1.01953e-06
9.85146e-07
9.68769e-07
8.92026e-07
9.27446e-07
6.42178e-07
5.74484e-07
2.74624e-06
6.51616e-07
6.92397e-07
1.00859e-06
9.69883e-07
1.05379e-06
1.07175e-06
1.10782e-06
1.10197e-06
1.106e-06
1.06896e-06
1.05147e-06
9.67629e-07
1.00648e-06
6.93276e-07
6.51494e-07
3.03872e-06
7.35625e-07
7.43379e-07
1.09168e-06
1.04893e-06
1.14111e-06
1.15999e-06
1.19872e-06
1.19229e-06
1.19684e-06
1.15707e-06
1.13866e-06
1.04653e-06
1.08945e-06
7.44342e-07
7.35532e-07
3.37376e-06
8.28378e-07
7.9571e-07
1.18407e-06
1.136e-06
1.23913e-06
1.25855e-06
1.30029e-06
1.29309e-06
1.29834e-06
1.25558e-06
1.23652e-06
1.13339e-06
1.18165e-06
7.96758e-07
8.28314e-07
3.76302e-06
9.31811e-07
8.50876e-07
1.29125e-06
1.23612e-06
1.35438e-06
1.37362e-06
1.41811e-06
1.41002e-06
1.41608e-06
1.37068e-06
1.35155e-06
1.23319e-06
1.28852e-06
8.52013e-07
9.31764e-07
4.2003e-06
1.04786e-06
9.1036e-07
1.41531e-06
1.35334e-06
1.48758e-06
1.50369e-06
1.54382e-06
1.53608e-06
1.54197e-06
1.50134e-06
1.48452e-06
1.35004e-06
1.41226e-06
9.11585e-07
1.04781e-06
4.65315e-06
1.17831e-06
9.75596e-07
1.53605e-06
1.48377e-06
1.60124e-06
1.61627e-06
1.65954e-06
1.65087e-06
1.65753e-06
1.61393e-06
1.59869e-06
1.48104e-06
1.53354e-06
9.7691e-07
1.17823e-06
5.09535e-06
1.32475e-06
1.04798e-06
1.64236e-06
1.58891e-06
1.71319e-06
1.7286e-06
1.7763e-06
1.76648e-06
1.77403e-06
1.72622e-06
1.71064e-06
1.58607e-06
1.63982e-06
1.04939e-06
1.3246e-06
5.51356e-06
1.48729e-06
1.12888e-06
1.7447e-06
1.6911e-06
1.82073e-06
1.83606e-06
1.88731e-06
1.87654e-06
1.88477e-06
1.83378e-06
1.81827e-06
1.68826e-06
1.74227e-06
1.13037e-06
1.48712e-06
5.904e-06
1.65651e-06
1.21957e-06
1.84051e-06
1.79057e-06
1.91756e-06
1.93166e-06
1.98458e-06
1.97316e-06
1.98179e-06
1.92971e-06
1.91543e-06
1.78806e-06
1.8385e-06
1.22116e-06
1.65675e-06
6.26966e-06
1.81393e-06
1.32128e-06
1.92674e-06
1.88475e-06
1.99972e-06
2.01127e-06
2.06361e-06
2.05186e-06
2.06063e-06
2.00989e-06
1.99822e-06
1.88295e-06
1.92549e-06
1.32296e-06
1.81441e-06
6.61543e-06
1.98204e-06
1.43515e-06
2.00204e-06
1.9722e-06
2.06623e-06
2.07393e-06
2.12341e-06
2.11168e-06
2.12037e-06
2.07336e-06
2.06563e-06
1.97151e-06
2.00187e-06
1.43691e-06
1.98273e-06
6.94562e-06
2.16661e-06
1.56198e-06
2.06686e-06
2.05313e-06
2.11838e-06
2.12118e-06
2.16566e-06
2.15432e-06
2.16274e-06
2.12162e-06
2.11894e-06
2.0539e-06
2.06806e-06
1.56382e-06
2.16753e-06
7.26233e-06
2.36978e-06
1.70036e-06
2.1248e-06
2.12921e-06
2.15953e-06
2.15668e-06
2.19428e-06
2.1837e-06
2.19165e-06
2.15828e-06
2.16142e-06
2.13175e-06
2.12752e-06
1.70226e-06
2.37093e-06
7.56585e-06
2.59285e-06
1.83638e-06
2.18277e-06
2.20464e-06
2.19689e-06
2.18792e-06
2.21663e-06
2.20719e-06
2.21447e-06
2.19075e-06
2.20025e-06
2.20903e-06
2.18701e-06
1.83827e-06
2.59424e-06
7.85609e-06
2.83673e-06
1.9816e-06
2.24595e-06
2.28532e-06
2.24018e-06
2.2251e-06
2.24346e-06
2.23547e-06
2.2419e-06
2.22915e-06
2.24503e-06
2.29147e-06
2.25167e-06
1.98358e-06
2.83835e-06
8.13948e-06
3.10173e-06
2.14171e-06
2.31602e-06
2.37516e-06
2.29576e-06
2.27534e-06
2.28324e-06
2.27683e-06
2.28235e-06
2.28057e-06
2.30208e-06
2.38294e-06
2.32316e-06
2.1438e-06
3.10356e-06
8.44541e-06
3.38766e-06
2.31858e-06
2.39403e-06
2.47587e-06
2.36674e-06
2.34232e-06
2.34033e-06
2.33564e-06
2.34017e-06
2.34866e-06
2.37446e-06
2.48515e-06
2.40252e-06
2.32075e-06
3.38964e-06
8.82403e-06
3.69362e-06
2.51324e-06
2.4818e-06
2.58913e-06
2.45515e-06
2.42835e-06
2.41744e-06
2.41455e-06
2.41801e-06
2.43571e-06
2.46419e-06
2.59976e-06
2.49156e-06
2.51544e-06
3.69567e-06
9.32377e-06
4.01813e-06
2.72676e-06
2.58231e-06
2.71747e-06
2.56349e-06
2.53578e-06
2.51678e-06
2.51583e-06
2.5181e-06
2.54409e-06
2.57376e-06
2.72926e-06
2.59329e-06
2.72895e-06
4.02013e-06
9.95925e-06
4.35857e-06
2.96012e-06
2.69936e-06
2.86416e-06
2.6956e-06
2.66849e-06
2.64206e-06
2.64323e-06
2.6441e-06
2.67771e-06
2.70702e-06
2.87691e-06
2.71142e-06
2.96224e-06
4.36036e-06
1.06542e-05
4.71105e-06
3.2117e-06
2.83735e-06
3.03326e-06
2.85645e-06
2.83185e-06
2.79886e-06
2.80237e-06
2.8016e-06
2.84186e-06
2.86886e-06
3.04677e-06
2.85035e-06
3.21367e-06
4.71242e-06
1.09152e-05
5.07087e-06
3.46729e-06
3.0019e-06
3.23048e-06
3.05179e-06
3.03223e-06
2.99434e-06
3.00032e-06
2.99774e-06
3.04283e-06
3.06495e-06
3.2446e-06
3.01564e-06
3.46897e-06
5.07161e-06
1.0988e-05
5.42695e-06
3.66652e-06
3.19974e-06
3.4642e-06
3.28824e-06
3.27661e-06
3.23612e-06
3.24463e-06
3.24009e-06
3.28755e-06
3.30188e-06
3.479e-06
3.21405e-06
3.66739e-06
5.42695e-06
1.10335e-05
5.76891e-06
3.86789e-06
3.43793e-06
3.74447e-06
3.5713e-06
3.57062e-06
3.53014e-06
3.5412e-06
3.53453e-06
3.58164e-06
3.58517e-06
3.75993e-06
3.45276e-06
3.86847e-06
5.7682e-06
1.10577e-05
6.10413e-06
4.07447e-06
3.71623e-06
4.06562e-06
3.89746e-06
3.91073e-06
3.87384e-06
3.8876e-06
3.87853e-06
3.92136e-06
3.91113e-06
4.08172e-06
3.73161e-06
4.07475e-06
6.10281e-06
1.10666e-05
6.42681e-06
4.28626e-06
3.98524e-06
4.3639e-06
4.20661e-06
4.23373e-06
4.21589e-06
4.22984e-06
4.22037e-06
4.24265e-06
4.21863e-06
4.38196e-06
4.00152e-06
4.2862e-06
6.42519e-06
1.10664e-05
6.74457e-06
4.50329e-06
4.21501e-06
4.61436e-06
4.46746e-06
4.50344e-06
4.48692e-06
4.50273e-06
4.49134e-06
4.51209e-06
4.47907e-06
4.63179e-06
4.23099e-06
4.50286e-06
6.74237e-06
1.10633e-05
7.0675e-06
4.72561e-06
4.46273e-06
4.87896e-06
4.74766e-06
4.79254e-06
4.77617e-06
4.79429e-06
4.78054e-06
4.80089e-06
4.75886e-06
4.89547e-06
4.47817e-06
4.72481e-06
7.06461e-06
1.10636e-05
7.39541e-06
4.95324e-06
4.72493e-06
5.15418e-06
5.04314e-06
5.09701e-06
5.08285e-06
5.1028e-06
5.08708e-06
5.10494e-06
5.0538e-06
5.16955e-06
4.7397e-06
4.95206e-06
7.39173e-06
1.10738e-05
7.72822e-06
5.18613e-06
4.99822e-06
5.43649e-06
5.34889e-06
5.41142e-06
5.40094e-06
5.42228e-06
5.40497e-06
5.41886e-06
5.35895e-06
5.45057e-06
5.01207e-06
5.18457e-06
7.72356e-06
1.10996e-05
8.06377e-06
5.4241e-06
5.2789e-06
5.72248e-06
5.66075e-06
5.73127e-06
5.72521e-06
5.74758e-06
5.72903e-06
5.73823e-06
5.67027e-06
5.7352e-06
5.29168e-06
5.42217e-06
8.05849e-06
1.11461e-05
8.3999e-06
5.66677e-06
5.56344e-06
6.00916e-06
5.97599e-06
6.05439e-06
6.05308e-06
6.07634e-06
6.05672e-06
6.06091e-06
5.98488e-06
6.02056e-06
5.57507e-06
5.66448e-06
8.39423e-06
1.12192e-05
8.73545e-06
5.91357e-06
5.84851e-06
6.29558e-06
6.29275e-06
6.37945e-06
6.38433e-06
6.40826e-06
6.38776e-06
6.38552e-06
6.30097e-06
6.30577e-06
5.85895e-06
5.91095e-06
8.72951e-06
1.13229e-05
9.06972e-06
6.16464e-06
6.13258e-06
6.58126e-06
6.60968e-06
6.70445e-06
6.71645e-06
6.74077e-06
6.71963e-06
6.71005e-06
6.61719e-06
6.59028e-06
6.14188e-06
6.16168e-06
9.06359e-06
1.14594e-05
9.40221e-06
6.42085e-06
6.41517e-06
6.86415e-06
6.92423e-06
7.02666e-06
7.04641e-06
7.07088e-06
7.04932e-06
7.03179e-06
6.93104e-06
6.87208e-06
6.4234e-06
6.41756e-06
9.39597e-06
1.16299e-05
9.73256e-06
6.68228e-06
6.6946e-06
7.14232e-06
7.23432e-06
7.34385e-06
7.37176e-06
7.39614e-06
7.37439e-06
7.34855e-06
7.24044e-06
7.14925e-06
6.70182e-06
6.67868e-06
9.72624e-06
1.1834e-05
1.00605e-05
6.94819e-06
6.96887e-06
7.41398e-06
7.53822e-06
7.65413e-06
7.69051e-06
7.71458e-06
7.69287e-06
7.65845e-06
7.5437e-06
7.42004e-06
6.97515e-06
6.94432e-06
1.00542e-05
1.20709e-05
1.03864e-05
7.21782e-06
7.23609e-06
7.67745e-06
7.83435e-06
7.95578e-06
8.00101e-06
8.02446e-06
8.00311e-06
7.95979e-06
7.83926e-06
7.68277e-06
7.24155e-06
7.21371e-06
1.038e-05
1.23395e-05
1.07103e-05
7.4904e-06
7.49819e-06
7.93491e-06
8.12133e-06
8.24723e-06
8.30174e-06
8.32423e-06
8.3036e-06
8.25102e-06
8.12577e-06
7.93954e-06
7.50285e-06
7.48609e-06
1.0704e-05
1.26371e-05
1.10321e-05
7.7652e-06
7.75622e-06
8.18743e-06
8.398e-06
8.52896e-06
8.59138e-06
8.61306e-06
8.59304e-06
8.53245e-06
8.40207e-06
8.19146e-06
7.76014e-06
7.76073e-06
1.10257e-05
1.29574e-05
1.13507e-05
8.0415e-06
8.01056e-06
8.43542e-06
8.666e-06
8.80241e-06
8.87127e-06
8.89275e-06
8.87274e-06
8.80556e-06
8.66969e-06
8.43891e-06
8.0138e-06
8.03691e-06
1.13443e-05
1.31987e-05
1.1665e-05
8.31861e-06
8.26124e-06
8.67894e-06
8.92638e-06
9.06806e-06
9.14241e-06
9.16397e-06
9.14371e-06
9.0709e-06
8.92972e-06
8.68199e-06
8.26389e-06
8.31396e-06
1.16586e-05
1.35696e-05
1.1974e-05
8.59586e-06
8.50814e-06
8.91791e-06
9.17952e-06
9.32601e-06
9.40507e-06
9.42682e-06
9.40622e-06
9.32857e-06
9.18254e-06
8.92059e-06
8.51026e-06
8.59119e-06
1.19677e-05
1.40074e-05
1.22765e-05
8.8726e-06
8.75089e-06
9.15202e-06
9.42543e-06
9.57609e-06
9.65919e-06
9.68116e-06
9.66021e-06
9.57839e-06
9.42817e-06
9.1544e-06
8.75257e-06
8.86797e-06
1.22702e-05
1.43661e-05
1.25713e-05
9.14818e-06
8.98908e-06
9.38076e-06
9.66368e-06
9.81783e-06
9.90436e-06
9.92655e-06
9.90526e-06
9.81991e-06
9.66617e-06
9.38288e-06
8.9904e-06
9.14366e-06
1.25651e-05
1.47197e-05
1.28569e-05
9.42196e-06
9.22241e-06
9.60356e-06
9.89357e-06
1.00504e-05
1.01397e-05
1.01622e-05
1.01405e-05
1.00523e-05
9.89585e-06
9.60551e-06
9.22346e-06
9.41763e-06
1.28508e-05
1.50615e-05
1.31319e-05
9.6933e-06
9.45091e-06
9.82015e-06
1.01146e-05
1.02732e-05
1.03642e-05
1.0387e-05
1.03648e-05
1.02748e-05
1.01167e-05
9.82199e-06
9.4518e-06
9.68924e-06
1.31259e-05
1.53856e-05
1.33948e-05
9.96156e-06
9.67501e-06
1.00307e-05
1.03264e-05
1.04855e-05
1.05766e-05
1.06e-05
1.05771e-05
1.04871e-05
1.03284e-05
1.00325e-05
9.67587e-06
9.95785e-06
1.33889e-05
1.56872e-05
1.36436e-05
1.0226e-05
9.8955e-06
1.02357e-05
1.05293e-05
1.06874e-05
1.07771e-05
1.08008e-05
1.07775e-05
1.06889e-05
1.05313e-05
1.02376e-05
9.89648e-06
1.02228e-05
1.36379e-05
1.5962e-05
1.38767e-05
1.0486e-05
1.01133e-05
1.04361e-05
1.07236e-05
1.08789e-05
1.0966e-05
1.09898e-05
1.09664e-05
1.08802e-05
1.07256e-05
1.04383e-05
1.01146e-05
1.04833e-05
1.38712e-05
1.62066e-05
1.40919e-05
1.07405e-05
1.03293e-05
1.06327e-05
1.09093e-05
1.106e-05
1.11438e-05
1.11674e-05
1.11441e-05
1.10614e-05
1.09114e-05
1.06353e-05
1.03309e-05
1.07384e-05
1.40865e-05
1.64183e-05
1.42869e-05
1.09886e-05
1.05436e-05
1.08261e-05
1.10869e-05
1.12313e-05
1.13108e-05
1.13338e-05
1.13112e-05
1.12327e-05
1.10892e-05
1.08292e-05
1.05458e-05
1.09872e-05
1.42817e-05
1.6595e-05
1.44593e-05
1.12291e-05
1.07555e-05
1.10157e-05
1.12568e-05
1.1393e-05
1.14673e-05
1.14894e-05
1.14677e-05
1.13946e-05
1.12594e-05
1.10192e-05
1.07583e-05
1.12283e-05
1.44544e-05
1.67349e-05
1.46068e-05
1.14607e-05
1.09629e-05
1.11993e-05
1.14192e-05
1.15453e-05
1.16133e-05
1.16342e-05
1.16138e-05
1.15472e-05
1.14222e-05
1.12033e-05
1.09664e-05
1.14606e-05
1.46022e-05
1.68365e-05
1.4727e-05
1.16809e-05
1.11648e-05
1.1377e-05
1.1574e-05
1.16882e-05
1.17488e-05
1.17682e-05
1.17494e-05
1.16904e-05
1.15774e-05
1.13816e-05
1.11691e-05
1.16818e-05
1.47227e-05
1.68986e-05
1.48177e-05
1.18868e-05
1.13606e-05
1.15484e-05
1.1721e-05
1.18216e-05
1.18737e-05
1.18913e-05
1.18744e-05
1.1824e-05
1.17248e-05
1.15537e-05
1.13658e-05
1.18888e-05
1.48138e-05
1.69198e-05
1.48767e-05
1.20771e-05
1.15493e-05
1.17129e-05
1.18598e-05
1.19452e-05
1.19878e-05
1.20032e-05
1.19887e-05
1.19479e-05
1.18642e-05
1.17189e-05
1.15554e-05
1.20801e-05
1.48733e-05
1.68978e-05
1.49025e-05
1.22502e-05
1.17297e-05
1.18697e-05
1.19899e-05
1.20586e-05
1.20908e-05
1.21038e-05
1.20919e-05
1.20617e-05
1.19948e-05
1.18764e-05
1.17368e-05
1.22543e-05
1.48995e-05
1.68298e-05
1.48937e-05
1.24047e-05
1.19002e-05
1.20178e-05
1.21105e-05
1.21614e-05
1.21824e-05
1.21927e-05
1.21837e-05
1.21648e-05
1.2116e-05
1.20252e-05
1.19084e-05
1.241e-05
1.48913e-05
1.67129e-05
1.48495e-05
1.25392e-05
1.20592e-05
1.21557e-05
1.22207e-05
1.22529e-05
1.22621e-05
1.22695e-05
1.22636e-05
1.22567e-05
1.22268e-05
1.21639e-05
1.20684e-05
1.25458e-05
1.48477e-05
1.65466e-05
1.47691e-05
1.26527e-05
1.22049e-05
1.2282e-05
1.23195e-05
1.23324e-05
1.23295e-05
1.23338e-05
1.23312e-05
1.23366e-05
1.23262e-05
1.2291e-05
1.22151e-05
1.26605e-05
1.4768e-05
1.63321e-05
1.46516e-05
1.27443e-05
1.23353e-05
1.23953e-05
1.24058e-05
1.23992e-05
1.2384e-05
1.23853e-05
1.2386e-05
1.24038e-05
1.2413e-05
1.24051e-05
1.23465e-05
1.27532e-05
1.46512e-05
1.60728e-05
1.45014e-05
1.28122e-05
1.24481e-05
1.24939e-05
1.24788e-05
1.24529e-05
1.24256e-05
1.24236e-05
1.24277e-05
1.24578e-05
1.24865e-05
1.25044e-05
1.24604e-05
1.28224e-05
1.45019e-05
8.42879e-12
6.08289e-12
4.59986e-12
4.2673e-12
4.46059e-12
4.53315e-12
4.57923e-12
4.60799e-12
4.61429e-12
4.61304e-12
4.59086e-12
4.55059e-12
4.47928e-12
4.28358e-12
4.61525e-12
6.0973e-12
6.36785e-11
1.90721e-11
1.87698e-11
2.22446e-11
2.23929e-11
2.40316e-11
2.45701e-11
2.5195e-11
2.51576e-11
2.51861e-11
2.45551e-11
2.40363e-11
2.23835e-11
2.22381e-11
1.88102e-11
1.90809e-11
1.08914e-09
2.74329e-10
2.9886e-10
3.72476e-10
3.71262e-10
4.01993e-10
4.11558e-10
4.23202e-10
4.22318e-10
4.22938e-10
4.11061e-10
4.01786e-10
3.70759e-10
3.72069e-10
2.99409e-10
2.74271e-10
7.53804e-09
1.92374e-09
2.14762e-09
2.67562e-09
2.65833e-09
2.87527e-09
2.94126e-09
3.02298e-09
3.01628e-09
3.02102e-09
2.93754e-09
2.87355e-09
2.65448e-09
2.67248e-09
2.15145e-09
1.92327e-09
3.07328e-08
8.02144e-09
9.10957e-09
1.13428e-08
1.12383e-08
1.21409e-08
1.24093e-08
1.2747e-08
1.27175e-08
1.27384e-08
1.23929e-08
1.21327e-08
1.12211e-08
1.13287e-08
9.12522e-09
8.01934e-09
9.02722e-08
2.41635e-08
2.77571e-08
3.46532e-08
3.42467e-08
3.69738e-08
3.77646e-08
3.87759e-08
3.86833e-08
3.87488e-08
3.77121e-08
3.69444e-08
3.41902e-08
3.46065e-08
2.7802e-08
2.41561e-08
2.10411e-07
5.81106e-08
6.71105e-08
8.42767e-08
8.30907e-08
8.97055e-08
9.15714e-08
9.39937e-08
9.37631e-08
9.39243e-08
9.14352e-08
8.962e-08
8.294e-08
8.41515e-08
6.72098e-08
5.80878e-08
4.10583e-07
1.17695e-07
1.35873e-07
1.72088e-07
1.69271e-07
1.82763e-07
1.86467e-07
1.9135e-07
1.90872e-07
1.912e-07
1.86167e-07
1.82553e-07
1.68931e-07
1.71804e-07
1.36052e-07
1.17636e-07
6.96764e-07
2.07424e-07
2.38291e-07
3.04822e-07
2.99146e-07
3.23148e-07
3.29561e-07
3.38134e-07
3.37276e-07
3.37852e-07
3.28986e-07
3.22708e-07
2.98483e-07
3.04266e-07
2.38562e-07
2.07291e-07
1.06046e-06
3.26031e-07
3.71602e-07
4.80291e-07
4.7032e-07
5.08551e-07
5.18524e-07
5.32007e-07
5.30639e-07
5.31535e-07
5.17543e-07
5.07747e-07
4.6918e-07
4.79334e-07
3.71964e-07
3.25778e-07
1.48363e-06
4.66878e-07
5.27546e-07
6.88172e-07
6.72507e-07
7.28247e-07
7.42525e-07
7.61982e-07
7.59997e-07
7.61263e-07
7.41009e-07
7.26941e-07
6.70743e-07
6.86691e-07
5.27989e-07
4.66461e-07
1.94466e-06
6.21419e-07
6.96132e-07
9.14054e-07
8.91513e-07
9.67264e-07
9.86432e-07
1.01268e-06
1.01001e-06
1.01167e-06
9.84269e-07
9.65334e-07
8.8901e-07
9.11953e-07
6.96647e-07
6.20828e-07
2.42268e-06
7.81543e-07
8.68175e-07
1.14353e-06
1.11331e-06
1.21057e-06
1.23502e-06
1.26861e-06
1.2652e-06
1.26727e-06
1.23213e-06
1.20792e-06
1.11003e-06
1.14076e-06
8.68755e-07
7.80776e-07
2.90014e-06
9.41045e-07
1.03706e-06
1.36823e-06
1.32977e-06
1.44739e-06
1.47692e-06
1.51749e-06
1.51341e-06
1.51583e-06
1.47329e-06
1.44406e-06
1.32571e-06
1.36476e-06
1.03771e-06
9.40116e-07
3.36422e-06
1.08268e-06
1.17971e-06
1.58229e-06
1.53524e-06
1.67259e-06
1.70709e-06
1.75448e-06
1.74976e-06
1.7525e-06
1.70271e-06
1.66856e-06
1.53042e-06
1.57815e-06
1.18033e-06
1.08112e-06
3.80631e-06
1.2054e-06
1.29799e-06
1.78309e-06
1.72718e-06
1.8832e-06
1.92244e-06
1.97632e-06
1.97102e-06
1.97404e-06
1.91735e-06
1.87851e-06
1.72163e-06
1.7783e-06
1.29869e-06
1.20374e-06
4.22134e-06
1.32219e-06
1.4082e-06
1.97021e-06
1.90521e-06
2.07869e-06
2.12237e-06
2.18233e-06
2.17648e-06
2.17977e-06
2.11659e-06
2.07339e-06
1.89897e-06
1.96483e-06
1.409e-06
1.32058e-06
4.60681e-06
1.43677e-06
1.51492e-06
2.14156e-06
2.04929e-06
2.26003e-06
2.30775e-06
2.37333e-06
2.36698e-06
2.37053e-06
2.30134e-06
2.25415e-06
2.04059e-06
2.1339e-06
1.51583e-06
1.43528e-06
4.96194e-06
1.55132e-06
1.62068e-06
2.25613e-06
2.1552e-06
2.40614e-06
2.46523e-06
2.55098e-06
2.54385e-06
2.54796e-06
2.45663e-06
2.39769e-06
2.14602e-06
2.24804e-06
1.62171e-06
1.54999e-06
5.28678e-06
1.66801e-06
1.7279e-06
2.35875e-06
2.25387e-06
2.5109e-06
2.57116e-06
2.66238e-06
2.65307e-06
2.65798e-06
2.56227e-06
2.50208e-06
2.24473e-06
2.35077e-06
1.72906e-06
1.66689e-06
5.58166e-06
1.78919e-06
1.83905e-06
2.45995e-06
2.35219e-06
2.60686e-06
2.66552e-06
2.75628e-06
2.74639e-06
2.75164e-06
2.65683e-06
2.5982e-06
2.34326e-06
2.45213e-06
1.84035e-06
1.7883e-06
5.84685e-06
1.91685e-06
1.95607e-06
2.56417e-06
2.45236e-06
2.7043e-06
2.76082e-06
2.84999e-06
2.83991e-06
2.84542e-06
2.75241e-06
2.69592e-06
2.44353e-06
2.55648e-06
1.95751e-06
1.91621e-06
6.09567e-06
2.05043e-06
2.07775e-06
2.67254e-06
2.55567e-06
2.806e-06
2.8604e-06
2.94821e-06
2.93796e-06
2.94373e-06
2.85225e-06
2.79783e-06
2.54688e-06
2.66492e-06
2.07933e-06
2.05012e-06
6.34443e-06
2.18304e-06
2.20467e-06
2.78561e-06
2.6628e-06
2.91271e-06
2.96516e-06
3.05205e-06
3.04155e-06
3.04763e-06
2.95721e-06
2.90471e-06
2.65399e-06
2.77804e-06
2.20642e-06
2.18311e-06
6.59323e-06
2.31979e-06
2.34035e-06
2.90433e-06
2.77466e-06
3.02519e-06
3.07576e-06
3.16208e-06
3.15127e-06
3.15769e-06
3.06797e-06
3.01727e-06
2.7658e-06
2.89675e-06
2.3423e-06
2.32028e-06
6.84226e-06
2.46233e-06
2.48677e-06
3.03037e-06
2.89276e-06
3.14493e-06
3.19366e-06
3.27958e-06
3.2684e-06
3.27519e-06
3.18599e-06
3.13706e-06
2.88379e-06
3.02275e-06
2.48893e-06
2.46329e-06
7.09172e-06
2.61168e-06
2.64517e-06
3.16609e-06
3.01918e-06
3.27406e-06
3.32084e-06
3.40633e-06
3.39477e-06
3.40193e-06
3.31327e-06
3.26619e-06
3.01003e-06
3.15838e-06
2.64757e-06
2.61316e-06
7.3418e-06
2.7688e-06
2.81627e-06
3.31306e-06
3.15567e-06
3.41283e-06
3.45717e-06
3.54173e-06
3.52983e-06
3.53732e-06
3.44974e-06
3.40499e-06
3.1463e-06
3.30522e-06
2.81892e-06
2.77085e-06
7.59259e-06
2.93459e-06
3.00027e-06
3.46946e-06
3.30161e-06
3.5561e-06
3.59653e-06
3.6785e-06
3.66642e-06
3.67411e-06
3.58943e-06
3.54851e-06
3.2921e-06
3.46162e-06
3.00318e-06
2.93723e-06
7.84393e-06
3.10978e-06
3.19698e-06
3.63033e-06
3.45351e-06
3.69505e-06
3.72908e-06
3.8054e-06
3.79345e-06
3.80113e-06
3.72268e-06
3.68813e-06
3.44412e-06
3.62276e-06
3.20017e-06
3.11302e-06
8.09515e-06
3.29493e-06
3.40613e-06
3.79029e-06
3.60702e-06
3.82216e-06
3.84688e-06
3.91381e-06
3.90237e-06
3.90981e-06
3.84159e-06
3.81641e-06
3.59814e-06
3.7834e-06
3.40959e-06
3.29877e-06
8.34389e-06
3.49029e-06
3.62726e-06
3.94577e-06
3.75882e-06
3.93387e-06
3.94665e-06
4.00071e-06
3.99013e-06
3.99712e-06
3.94282e-06
3.92975e-06
3.75091e-06
3.93998e-06
3.63099e-06
3.4947e-06
8.58362e-06
3.69577e-06
3.85957e-06
4.09565e-06
3.9076e-06
4.03095e-06
4.02999e-06
4.06858e-06
4.05916e-06
4.06557e-06
4.02787e-06
4.02879e-06
3.9011e-06
4.09135e-06
3.86355e-06
3.70068e-06
8.8049e-06
3.91082e-06
4.10177e-06
4.24109e-06
4.05409e-06
4.11868e-06
4.10384e-06
4.12568e-06
4.11767e-06
4.12338e-06
4.10348e-06
4.11863e-06
4.04937e-06
4.23858e-06
4.10595e-06
3.91616e-06
8.99865e-06
4.13456e-06
4.352e-06
4.38547e-06
4.20117e-06
4.20727e-06
4.17982e-06
4.1852e-06
4.17875e-06
4.18368e-06
4.18109e-06
4.20925e-06
4.19839e-06
4.38489e-06
4.35633e-06
4.14021e-06
9.16086e-06
4.36582e-06
4.60786e-06
4.53504e-06
4.35413e-06
4.30712e-06
4.26858e-06
4.25886e-06
4.25391e-06
4.25812e-06
4.2713e-06
4.31091e-06
4.35325e-06
4.53628e-06
4.61226e-06
4.37164e-06
9.28796e-06
4.6033e-06
4.86644e-06
4.69676e-06
4.51892e-06
4.42503e-06
4.37688e-06
4.35365e-06
4.35007e-06
4.35363e-06
4.38082e-06
4.43035e-06
4.51978e-06
4.69958e-06
4.87083e-06
4.60913e-06
9.37047e-06
4.84561e-06
5.12485e-06
4.87557e-06
4.70011e-06
4.56573e-06
4.50937e-06
4.47435e-06
4.47199e-06
4.47499e-06
4.51432e-06
4.57229e-06
4.70249e-06
4.87972e-06
5.12916e-06
4.85136e-06
9.40115e-06
5.09122e-06
5.38138e-06
5.07458e-06
4.90069e-06
4.73217e-06
4.66905e-06
4.62409e-06
4.62275e-06
4.62531e-06
4.67476e-06
4.73966e-06
4.90438e-06
5.07979e-06
5.38554e-06
5.09685e-06
9.38115e-06
5.33759e-06
5.63649e-06
5.29458e-06
5.12153e-06
4.92537e-06
4.8571e-06
4.80441e-06
4.80385e-06
4.80612e-06
4.8633e-06
4.93345e-06
5.12628e-06
5.30058e-06
5.64049e-06
5.34324e-06
9.31497e-06
5.57513e-06
5.89217e-06
5.53362e-06
5.36087e-06
5.14421e-06
5.07273e-06
5.01499e-06
5.0149e-06
5.01706e-06
5.07912e-06
5.15251e-06
5.36645e-06
5.54017e-06
5.89601e-06
5.58128e-06
9.20811e-06
5.7916e-06
6.15047e-06
5.78749e-06
5.61518e-06
5.38613e-06
5.31362e-06
5.25381e-06
5.25386e-06
5.25613e-06
5.3199e-06
5.39428e-06
5.62139e-06
5.79439e-06
6.15419e-06
5.8002e-06
9.06648e-06
5.96726e-06
6.41222e-06
6.05171e-06
5.88144e-06
5.6487e-06
5.57743e-06
5.51845e-06
5.51826e-06
5.52092e-06
5.58335e-06
5.65636e-06
5.88808e-06
6.05873e-06
6.41585e-06
5.97622e-06
8.89606e-06
6.13915e-06
6.67632e-06
6.32329e-06
6.15883e-06
5.93068e-06
5.86268e-06
5.80655e-06
5.8058e-06
5.80909e-06
5.86806e-06
5.93758e-06
6.16571e-06
6.33022e-06
6.67986e-06
6.14833e-06
8.70278e-06
6.30766e-06
6.94013e-06
6.60141e-06
6.44765e-06
6.23134e-06
6.16757e-06
6.11283e-06
6.11166e-06
6.11545e-06
6.1723e-06
6.23738e-06
6.45439e-06
6.60806e-06
6.9436e-06
6.31703e-06
8.49241e-06
6.4737e-06
7.20066e-06
6.88769e-06
6.74801e-06
6.54847e-06
6.48648e-06
6.421e-06
6.42117e-06
6.42394e-06
6.49072e-06
6.55399e-06
6.75405e-06
6.8938e-06
7.20405e-06
6.48323e-06
8.27065e-06
6.638e-06
7.45553e-06
7.18581e-06
7.06042e-06
6.87332e-06
6.80189e-06
6.68424e-06
6.69227e-06
6.6884e-06
6.80638e-06
6.87973e-06
7.0652e-06
7.19097e-06
7.45888e-06
6.64767e-06
8.04322e-06
6.80076e-06
7.7039e-06
7.50113e-06
7.38554e-06
7.17218e-06
7.05884e-06
6.93967e-06
6.9471e-06
6.94372e-06
7.06558e-06
7.18351e-06
7.38873e-06
7.50489e-06
7.70724e-06
6.81057e-06
7.8159e-06
6.96228e-06
7.94734e-06
7.83908e-06
7.72027e-06
7.42193e-06
7.3086e-06
7.19382e-06
7.19996e-06
7.19759e-06
7.315e-06
7.43225e-06
7.72209e-06
7.84124e-06
7.95074e-06
6.9722e-06
7.59451e-06
7.12289e-06
8.19088e-06
8.19922e-06
8.04636e-06
7.66729e-06
7.55409e-06
7.44338e-06
7.44837e-06
7.44688e-06
7.56013e-06
7.67667e-06
8.04825e-06
8.20023e-06
8.19442e-06
7.1329e-06
7.38474e-06
7.28297e-06
8.44403e-06
8.56367e-06
8.30198e-06
7.90646e-06
7.79359e-06
7.6868e-06
7.69074e-06
7.69004e-06
7.79925e-06
7.91494e-06
8.30815e-06
8.56536e-06
8.44781e-06
7.29305e-06
7.1922e-06
7.44289e-06
8.72157e-06
8.87016e-06
8.51953e-06
8.13754e-06
8.02539e-06
7.92248e-06
7.92547e-06
7.92547e-06
8.03063e-06
8.14515e-06
8.52511e-06
8.87728e-06
8.72565e-06
7.45301e-06
7.02269e-06
7.60298e-06
9.04154e-06
9.09116e-06
8.73278e-06
8.35984e-06
8.24784e-06
8.14884e-06
8.15099e-06
8.15157e-06
8.25262e-06
8.36673e-06
8.73789e-06
9.09784e-06
9.04598e-06
7.61311e-06
6.88104e-06
7.76354e-06
9.41834e-06
9.30892e-06
8.94247e-06
8.5741e-06
8.46168e-06
8.36538e-06
8.3669e-06
8.36789e-06
8.46607e-06
8.58043e-06
8.94719e-06
9.31525e-06
9.42327e-06
7.77365e-06
6.77264e-06
7.92486e-06
9.84676e-06
9.52149e-06
9.1465e-06
8.78141e-06
8.66825e-06
8.57334e-06
8.5745e-06
8.57568e-06
8.67228e-06
8.78729e-06
9.15097e-06
9.52763e-06
9.85244e-06
7.93491e-06
6.7046e-06
8.08715e-06
1.02632e-05
9.72831e-06
9.3444e-06
8.98308e-06
8.86744e-06
8.77419e-06
8.77483e-06
8.77639e-06
8.87131e-06
8.98857e-06
9.34877e-06
9.73438e-06
1.027e-05
8.0971e-06
6.67703e-06
8.25052e-06
1.04945e-05
9.92921e-06
9.53608e-06
9.17769e-06
9.05833e-06
8.9669e-06
8.96652e-06
8.96898e-06
9.06213e-06
9.18297e-06
9.54044e-06
9.93528e-06
1.05032e-05
8.26034e-06
6.68924e-06
8.41517e-06
1.06874e-05
1.01244e-05
9.72181e-06
9.36485e-06
9.24117e-06
9.15124e-06
9.1497e-06
9.15325e-06
9.24498e-06
9.37006e-06
9.72625e-06
1.01305e-05
1.06964e-05
8.42482e-06
6.73967e-06
8.58136e-06
1.08752e-05
1.03143e-05
9.90209e-06
9.54501e-06
9.41677e-06
9.32787e-06
9.3252e-06
9.32984e-06
9.42063e-06
9.55024e-06
9.90669e-06
1.03206e-05
1.08844e-05
8.59082e-06
6.8264e-06
8.7495e-06
1.1057e-05
1.04994e-05
1.00775e-05
9.71899e-06
9.58614e-06
9.49782e-06
9.4941e-06
9.49978e-06
9.5901e-06
9.72431e-06
1.00824e-05
1.05058e-05
1.10664e-05
8.75876e-06
6.94839e-06
8.92013e-06
1.12323e-05
1.06802e-05
1.02489e-05
9.88792e-06
9.75051e-06
9.66237e-06
9.65769e-06
9.66435e-06
9.7546e-06
9.8934e-06
1.02541e-05
1.06869e-05
1.12419e-05
8.92918e-06
7.10683e-06
9.09396e-06
1.14009e-05
1.08573e-05
1.0417e-05
1.0053e-05
9.91124e-06
9.82304e-06
9.81746e-06
9.82509e-06
9.9155e-06
1.00588e-05
1.04225e-05
1.08643e-05
1.14107e-05
9.10277e-06
7.30743e-06
9.27172e-06
1.15629e-05
1.10308e-05
1.05823e-05
1.02154e-05
1.00696e-05
9.98147e-06
9.97496e-06
9.98362e-06
1.00741e-05
1.02214e-05
1.05882e-05
1.1038e-05
1.15728e-05
9.28028e-06
7.54891e-06
9.45415e-06
1.17185e-05
1.12006e-05
1.07451e-05
1.03758e-05
1.02265e-05
1.01392e-05
1.01315e-05
1.01414e-05
1.02312e-05
1.03821e-05
1.07513e-05
1.12082e-05
1.17284e-05
9.46243e-06
7.81262e-06
9.64208e-06
1.18681e-05
1.13666e-05
1.09052e-05
1.05345e-05
1.03825e-05
1.02964e-05
1.0288e-05
1.02988e-05
1.03874e-05
1.05411e-05
1.09118e-05
1.13744e-05
1.1878e-05
9.65007e-06
8.08765e-06
9.83647e-06
1.20124e-05
1.15283e-05
1.10627e-05
1.0692e-05
1.05382e-05
1.04536e-05
1.04446e-05
1.04561e-05
1.05434e-05
1.0699e-05
1.10696e-05
1.15363e-05
1.20222e-05
9.84413e-06
8.37579e-06
1.00382e-05
1.21522e-05
1.16854e-05
1.12172e-05
1.08489e-05
1.06941e-05
1.06112e-05
1.06017e-05
1.06138e-05
1.06997e-05
1.08562e-05
1.12244e-05
1.16937e-05
1.21615e-05
1.00455e-05
8.67823e-06
1.02482e-05
1.22875e-05
1.18378e-05
1.13687e-05
1.10052e-05
1.08506e-05
1.07696e-05
1.07599e-05
1.07723e-05
1.08564e-05
1.10128e-05
1.13763e-05
1.18463e-05
1.22964e-05
1.02551e-05
8.99572e-06
1.0467e-05
1.24182e-05
1.19857e-05
1.15178e-05
1.11611e-05
1.10078e-05
1.09292e-05
1.09194e-05
1.09321e-05
1.10139e-05
1.1169e-05
1.15259e-05
1.19944e-05
1.24266e-05
1.04735e-05
9.32854e-06
1.0695e-05
1.25436e-05
1.21301e-05
1.16658e-05
1.13166e-05
1.11658e-05
1.10903e-05
1.10806e-05
1.10933e-05
1.11722e-05
1.13248e-05
1.16742e-05
1.21391e-05
1.25517e-05
1.0701e-05
9.67644e-06
1.09321e-05
1.26643e-05
1.22707e-05
1.18117e-05
1.14715e-05
1.13248e-05
1.12529e-05
1.12436e-05
1.12561e-05
1.13314e-05
1.148e-05
1.18204e-05
1.22798e-05
1.26717e-05
1.09376e-05
1.00386e-05
1.11779e-05
1.2781e-05
1.24056e-05
1.19547e-05
1.16254e-05
1.14842e-05
1.1417e-05
1.14082e-05
1.14204e-05
1.14911e-05
1.16342e-05
1.19635e-05
1.24146e-05
1.27877e-05
1.11828e-05
1.04134e-05
1.14313e-05
1.28928e-05
1.25333e-05
1.20936e-05
1.17777e-05
1.16437e-05
1.15821e-05
1.15739e-05
1.15855e-05
1.16508e-05
1.17867e-05
1.21026e-05
1.2542e-05
1.28989e-05
1.14355e-05
1.07983e-05
1.16905e-05
1.2999e-05
1.26526e-05
1.22273e-05
1.19274e-05
1.18023e-05
1.17471e-05
1.17399e-05
1.17506e-05
1.18095e-05
1.19365e-05
1.22364e-05
1.2661e-05
1.30043e-05
1.16939e-05
1.11899e-05