/*--------------------------------*- C++ -*----------------------------------*\
| =========                 |                                                 |
| \\      /  F ield         | OpenFOAM: The Open Source CFD Toolbox           |
|  \\    /   O peration     | Version:  v1912                                 |
|   \\  /    A nd           | Website:  www.openfoam.com                      |
|    \\/     M anipulation  |                                                 |
\*---------------------------------------------------------------------------*/
FoamFile
{
    version     2.0;
    format      ascii;
    class       volScalarField;
    location    "9.6";
    object      heatTransferCoeff(T);
}
// * * * * * * * * * * * * * * * * * * * * * * * * * * * * * * * * * * * * * //

dimensions      [1 0 -3 -1 0 0 0];


internalField   uniform 0;

boundaryField
{
    leftWall
    {
        type            calculated;
        value           nonuniform List<scalar> 
216
(
-219.913
-225.388
-234.329
-241.162
-252.077
-260.817
-274.158
-285.061
-300.621
-313.375
-331.44
-348.617
-375.583
-408.509
-463.263
-549.542
-816.649
-2787.77
-217.956
-222.237
-230.173
-236.133
-246.487
-254.904
-268.209
-279.329
-295.443
-309.317
-329.225
-348.949
-378.153
-411.789
-465.199
-549.245
-813.674
-2784.22
-220.898
-224.687
-232.25
-237.239
-246.543
-253.04
-264.181
-272.544
-286.575
-299.556
-321.049
-344.087
-377.143
-413.056
-467.592
-552.108
-816.692
-2781.99
-222.938
-226.506
-233.688
-238.057
-246.789
-252.788
-263.924
-272.698
-287.676
-301.397
-322.908
-344.524
-375.385
-409.334
-463.245
-548.353
-815.082
-2783.38
-221.305
-225.528
-233.382
-238.554
-248.125
-255.129
-267.31
-277.101
-292.824
-306.639
-327.318
-346.897
-375.163
-407.225
-460.96
-547.037
-818.334
-2786.4
-220.696
-225.513
-233.75
-239.266
-248.74
-255.454
-266.78
-275.472
-289.542
-301.687
-320.997
-340.878
-371.373
-406.725
-462.026
-547.499
-817.975
-2785.17
-221.691
-226.058
-233.617
-238.526
-247.182
-253.209
-263.831
-272.321
-286.657
-299.949
-320.848
-342.657
-374.651
-410.58
-464.885
-548.644
-819.118
-2785.56
-220.283
-224.629
-232.346
-237.676
-247.007
-253.934
-265.623
-275.163
-290.373
-304.056
-324.624
-345.013
-374.662
-408.121
-461.31
-545.526
-816.896
-2788.11
-218.142
-223.006
-231.496
-237.648
-247.962
-255.762
-268.408
-278.632
-294.407
-308.054
-328.454
-348.658
-379.274
-414.746
-470.423
-553.296
-814.453
-2780.34
-222.346
-227.225
-235.746
-241.837
-252.137
-259.833
-272.439
-282.516
-298.238
-311.809
-332.415
-353.013
-384.351
-420.503
-477.013
-560.336
-818.875
-2783.75
-227.015
-231.828
-239.972
-245.608
-255.194
-262.237
-274.063
-283.559
-298.621
-311.663
-331.494
-351.2
-381.125
-415.47
-470.119
-553.826
-816.24
-2786.71
-225.095
-230.029
-238.147
-243.779
-253.115
-259.919
-271.341
-280.665
-295.605
-308.733
-328.293
-347.693
-377.751
-413.449
-468.862
-551.422
-814.474
-2788.27
)
;
    }
    rightWall
    {
        type            calculated;
        value           nonuniform List<scalar> 
216
(
-206.523
-210.361
-215.67
-220.317
-227.007
-232.794
-241.253
-248.656
-259.5
-269.503
-284.151
-298.965
-321.046
-346.26
-388.829
-458.71
-703.334
-2817.72
-206.444
-210.329
-215.548
-220.157
-226.667
-232.371
-240.678
-248.158
-259.127
-269.497
-284.418
-299.459
-321.277
-346.46
-389.455
-459.124
-701.965
-2815.71
-206.173
-210.151
-215.452
-220.135
-226.647
-232.389
-240.602
-248.097
-258.972
-269.582
-284.925
-301.158
-324.729
-352.517
-397.693
-467.268
-705.447
-2832.26
-203.984
-207.813
-213.112
-217.859
-224.54
-230.57
-239.043
-246.884
-257.838
-268.446
-283.305
-299.088
-322.021
-349.72
-394.771
-465.047
-703.341
-2827.42
-204.682
-208.539
-213.93
-218.719
-225.447
-231.445
-239.84
-247.534
-258.266
-268.602
-282.932
-297.955
-319.553
-345.866
-390.348
-462.918
-703.48
-2825.07
-207.084
-211.009
-216.518
-221.289
-228.08
-233.959
-242.313
-249.715
-260.19
-270.113
-284.375
-299.337
-321.24
-347.637
-392.067
-464.258
-703.25
-2824.05
-207.156
-211.123
-216.685
-221.437
-228.282
-234.177
-242.711
-250.295
-261.201
-271.488
-286.255
-301.33
-323.096
-348.722
-392.032
-462.808
-703.427
-2827.52
-205.751
-209.772
-215.241
-220.061
-226.841
-232.892
-241.522
-249.468
-260.689
-271.479
-286.476
-301.64
-323.05
-347.821
-389.83
-459.113
-698.907
-2827.5
-207.101
-211.224
-216.63
-221.487
-228.123
-234.12
-242.476
-250.224
-261.04
-271.51
-286.016
-301.007
-322.293
-347.106
-389.28
-459.665
-700.856
-2831.67
-207.65
-211.554
-216.745
-221.302
-227.627
-233.213
-241.162
-248.454
-258.871
-268.981
-283.326
-298.37
-320.077
-345.706
-388.887
-460.2
-703.034
-2834.71
-205.195
-208.708
-213.579
-217.829
-223.925
-229.267
-237.02
-244.076
-254.29
-264.21
-278.574
-293.946
-316.56
-343.937
-389.449
-462.264
-704.168
-2834.58
-205.182
-208.834
-213.942
-218.37
-224.715
-230.201
-238.084
-245.115
-255.25
-264.992
-279.233
-294.561
-317.393
-345.46
-392.46
-466.92
-705.908
-2821.91
)
;
    }
    leftSides_periodic0
    {
        type            cyclic;
    }
    leftSides_periodic1
    {
        type            cyclic;
    }
    rightSides_periodic0
    {
        type            cyclic;
    }
    rightSides_periodic1
    {
        type            cyclic;
    }
    leftInOut_periodic0
    {
        type            calculated;
        value           nonuniform 0();
    }
    leftInOut_periodic1
    {
        type            calculated;
        value           uniform 0;
    }
    rightInOut_periodic0
    {
        type            calculated;
        value           nonuniform 0();
    }
    rightInOut_periodic1
    {
        type            calculated;
        value           uniform 0;
    }
    procBoundary3to0
    {
        type            processor;
        value           uniform 0;
    }
    procBoundary3to4
    {
        type            processor;
        value           uniform 0;
    }
    procBoundary3to5throughleftSides_periodic1
    {
        type            processorCyclic;
        value           uniform 0;
    }
    procBoundary3to5throughrightSides_periodic1
    {
        type            processorCyclic;
        value           uniform 0;
    }
}


// ************************************************************************* //
