/*--------------------------------*- C++ -*----------------------------------*\
| =========                 |                                                 |
| \\      /  F ield         | OpenFOAM: The Open Source CFD Toolbox           |
|  \\    /   O peration     | Version:  v1912                                 |
|   \\  /    A nd           | Website:  www.openfoam.com                      |
|    \\/     M anipulation  |                                                 |
\*---------------------------------------------------------------------------*/
FoamFile
{
    version     2.0;
    format      ascii;
    class       surfaceScalarField;
    location    "9.6";
    object      phi;
}
// * * * * * * * * * * * * * * * * * * * * * * * * * * * * * * * * * * * * * //

dimensions      [1 0 -1 0 0 0 0];
oriented        oriented;


internalField   nonuniform List<scalar> 
97428
(
1.71705e-09
7.19334e-09
-2.62751e-07
2.86705e-09
8.12926e-09
-2.55363e-07
1.12869e-09
8.86908e-09
-2.43811e-07
8.39275e-10
7.90487e-09
-2.42993e-07
1.43033e-09
8.00948e-09
-2.49381e-07
-7.08097e-10
9.87759e-09
-2.49137e-07
-3.05963e-09
1.0086e-08
-2.46283e-07
-3.00472e-09
8.51226e-09
-2.48834e-07
-1.54144e-09
7.49036e-09
-2.53899e-07
3.03967e-10
6.8757e-09
-2.58151e-07
1.42706e-09
7.33034e-09
-2.59315e-07
8.28354e-09
-2.57016e-07
5.41081e-09
2.83344e-08
-8.13004e-07
8.9134e-09
3.2122e-08
-7.90811e-07
3.51044e-09
3.53739e-08
-7.5555e-07
2.13849e-09
3.18826e-08
-7.53044e-07
3.85392e-09
3.18094e-08
-7.7253e-07
-2.12282e-09
3.86753e-08
-7.71672e-07
-8.88181e-09
3.96877e-08
-7.62993e-07
-8.84976e-09
3.38841e-08
-7.70923e-07
-4.60516e-09
2.97714e-08
-7.86381e-07
5.7769e-10
2.74812e-08
-7.9893e-07
3.95141e-09
2.89013e-08
-8.0212e-07
3.2272e-08
-7.95316e-07
9.19827e-09
6.31042e-08
-1.39621e-06
1.50533e-08
7.17464e-08
-1.359e-06
5.87606e-09
7.95386e-08
-1.29876e-06
3.18728e-09
7.22131e-08
-1.29459e-06
6.04072e-09
7.1361e-08
-1.32782e-06
-3.57457e-09
8.59398e-08
-1.32598e-06
-1.45876e-08
8.84555e-08
-1.3113e-06
-1.46036e-08
7.60671e-08
-1.32517e-06
-7.68368e-09
6.68022e-08
-1.35151e-06
6.44754e-10
6.18105e-08
-1.37217e-06
6.27466e-09
6.44601e-08
-1.377e-06
7.14253e-08
-1.36579e-06
1.286e-08
1.1099e-07
-2.01028e-06
2.09868e-08
1.26575e-07
-1.95804e-06
8.07269e-09
1.41149e-07
-1.87141e-06
4.05801e-09
1.2892e-07
-1.86569e-06
8.10997e-09
1.26479e-07
-1.91336e-06
-5.04863e-09
1.5115e-07
-1.90994e-06
-2.0203e-08
1.55931e-07
-1.88913e-06
-2.02226e-08
1.34808e-07
-1.9097e-06
-1.07386e-08
1.18356e-07
-1.94736e-06
5.95174e-10
1.09614e-07
-1.97578e-06
8.45949e-09
1.13598e-07
-1.98178e-06
1.2514e-07
-1.96635e-06
1.62013e-08
1.71269e-07
-2.65268e-06
2.64559e-08
1.95956e-07
-2.58561e-06
9.98179e-09
2.1976e-07
-2.47119e-06
4.79284e-09
2.01825e-07
-2.46417e-06
1.01509e-08
1.96815e-07
-2.52693e-06
-6.51178e-09
2.33674e-07
-2.52108e-06
-2.57259e-08
2.41539e-07
-2.49415e-06
-2.56792e-08
2.09681e-07
-2.52227e-06
-1.37262e-08
1.83985e-07
-2.57161e-06
4.94214e-10
1.70422e-07
-2.6073e-06
1.05459e-08
1.75747e-07
-2.61388e-06
1.927e-07
-2.59451e-06
1.90532e-08
2.43007e-07
-3.32044e-06
3.12373e-08
2.79004e-07
-3.23905e-06
1.15014e-08
3.14728e-07
-3.09558e-06
5.43124e-09
2.90565e-07
-3.08764e-06
1.2253e-08
2.81847e-07
-3.16603e-06
-7.92338e-09
3.3278e-07
-3.15671e-06
-3.11554e-08
3.44613e-07
-3.12378e-06
-3.09558e-08
3.00094e-07
-3.1604e-06
-1.66138e-08
2.63038e-07
-3.22161e-06
3.89852e-10
2.4357e-07
-3.26393e-06
1.25747e-08
2.50187e-07
-3.27049e-06
2.73293e-07
-3.24751e-06
2.12732e-08
3.25096e-07
-4.01034e-06
3.51446e-08
3.74626e-07
-3.91544e-06
1.25526e-08
4.25252e-07
-3.74198e-06
6.01498e-09
3.94614e-07
-3.73368e-06
1.45048e-08
3.80887e-07
-3.82803e-06
-9.23634e-09
4.47664e-07
-3.81401e-06
-3.64893e-08
4.64427e-07
-3.77538e-06
-3.60443e-08
4.05321e-07
-3.82144e-06
-1.93789e-08
3.54686e-07
-3.89448e-06
3.58831e-10
3.28204e-07
-3.94268e-06
1.45901e-08
3.36108e-07
-3.94864e-06
3.6603e-07
-3.92244e-06
2.27466e-08
4.16306e-07
-4.71907e-06
3.80328e-08
4.8156e-07
-4.61173e-06
1.30838e-08
5.50432e-07
-4.40784e-06
6.59083e-09
5.1332e-07
-4.39989e-06
1.69924e-08
4.93107e-07
-4.51029e-06
-1.03994e-08
5.77483e-07
-4.4902e-06
-4.17246e-08
6.00226e-07
-4.44635e-06
-4.09461e-08
5.2453e-07
-4.50275e-06
-2.20095e-08
4.57984e-07
-4.58731e-06
4.31854e-10
4.23374e-07
-4.64059e-06
1.66412e-08
4.32613e-07
-4.64545e-06
4.69991e-07
-4.6164e-06
2.33865e-08
5.15374e-07
-5.4435e-06
3.98003e-08
5.9845e-07
-5.32497e-06
1.30724e-08
6.89333e-07
-5.09081e-06
7.21154e-09
6.45944e-07
-5.08405e-06
1.97982e-08
6.17581e-07
-5.21031e-06
-1.13598e-08
7.21401e-07
-5.18272e-06
-4.68579e-08
7.51257e-07
-5.13426e-06
-4.56722e-08
6.56833e-07
-5.20181e-06
-2.45029e-08
5.71927e-07
-5.29735e-06
6.59973e-10
5.2808e-07
-5.35491e-06
1.87816e-08
5.38787e-07
-5.35826e-06
5.84259e-07
-5.32674e-06
2.31329e-08
6.21097e-07
-6.1809e-06
4.03889e-08
7.2394e-07
-6.05253e-06
1.25245e-08
8.41046e-07
-5.78891e-06
7.93584e-09
7.917e-07
-5.78425e-06
2.29992e-08
7.53345e-07
-5.92589e-06
-1.20652e-08
8.78634e-07
-5.88937e-06
-5.18861e-08
9.16801e-07
-5.83705e-06
-5.02427e-08
8.01333e-07
-5.91642e-06
-2.68653e-08
6.95521e-07
-6.02221e-06
1.07952e-09
6.41337e-07
-6.08333e-06
2.10699e-08
6.53731e-07
-6.08486e-06
7.07952e-07
-6.05116e-06
2.19515e-08
7.32424e-07
-6.92911e-06
3.97819e-08
8.56764e-07
-6.79222e-06
1.14736e-08
1.00473e-06
-6.50061e-06
8.82759e-09
9.49792e-07
-6.49899e-06
2.66652e-08
8.99453e-07
-6.65528e-06
-1.24661e-08
1.04849e-06
-6.60845e-06
-5.68066e-08
1.09619e-06
-6.55305e-06
-5.46858e-08
9.57169e-07
-6.64479e-06
-2.91098e-08
8.27827e-07
-6.75999e-06
1.70787e-09
7.62246e-07
-6.82405e-06
2.35682e-08
7.76576e-07
-6.82356e-06
8.40248e-07
-6.78785e-06
1.98302e-08
8.48524e-07
-7.68666e-06
3.80007e-08
9.95834e-07
-7.5425e-06
9.97746e-09
1.17966e-06
-7.22488e-06
9.95463e-09
1.11945e-06
-7.22717e-06
3.08583e-08
1.05503e-06
-7.39724e-06
-1.25172e-08
1.2304e-06
-7.33876e-06
-6.16163e-08
1.28884e-06
-7.28103e-06
-5.90349e-08
1.12355e-06
-7.38562e-06
-3.12547e-08
9.68009e-07
-7.50936e-06
2.59166e-09
8.89986e-07
-7.57588e-06
2.63416e-08
9.06544e-07
-7.57319e-06
9.80408e-07
-7.53547e-06
1.67769e-08
9.68812e-07
-8.45274e-06
3.51009e-08
1.14027e-06
-8.30245e-06
8.11523e-09
1.36518e-06
-7.96122e-06
1.13874e-08
1.2999e-06
-7.96817e-06
3.56306e-08
1.21927e-06
-8.15104e-06
-1.21787e-08
1.4239e-06
-8.07965e-06
-6.63111e-08
1.4942e-06
-8.02023e-06
-6.33269e-08
1.29977e-06
-8.13809e-06
-3.33211e-08
1.11533e-06
-8.26955e-06
3.77179e-09
1.02382e-06
-8.33821e-06
2.94567e-08
1.04294e-06
-8.33317e-06
1.12778e-06
-8.2932e-06
1.28184e-08
1.09294e-06
-9.22697e-06
3.11693e-08
1.28942e-06
-9.07157e-06
5.98522e-09
1.56069e-06
-8.70943e-06
1.3197e-08
1.4904e-06
-8.72161e-06
4.10214e-08
1.39143e-06
-8.91629e-06
-1.14183e-08
1.62866e-06
-8.8308e-06
-7.08828e-08
1.71183e-06
-8.77016e-06
-6.75975e-08
1.4852e-06
-8.9017e-06
-3.53303e-08
1.26917e-06
-9.04012e-06
5.27616e-09
1.16308e-06
-9.11075e-06
3.29787e-08
1.18515e-06
-9.10317e-06
1.28182e-06
-9.06049e-06
8.00094e-09
1.22074e-06
-1.00091e-05
2.63234e-08
1.44282e-06
-9.8496e-06
3.70297e-09
1.76564e-06
-9.46937e-06
1.54522e-08
1.69019e-06
-9.48718e-06
4.70527e-08
1.57084e-06
-9.69264e-06
-1.02127e-08
1.84438e-06
-9.592e-06
-7.53161e-08
1.94132e-06
-9.53044e-06
-7.18765e-08
1.67928e-06
-9.67603e-06
-3.73003e-08
1.42896e-06
-9.82077e-06
7.13773e-09
1.30716e-06
-9.89328e-06
3.69678e-08
1.33262e-06
-9.88295e-06
1.4421e-06
-9.83685e-06
2.39109e-09
1.35216e-06
-1.07991e-05
2.07099e-08
1.60012e-06
-1.06364e-05
1.39908e-09
1.97941e-06
-1.02409e-05
1.82164e-08
1.89847e-06
-1.02646e-05
5.37259e-08
1.75678e-06
-1.04798e-05
-8.55053e-09
2.07081e-06
-1.03631e-05
-7.95873e-08
2.18229e-06
-1.03007e-05
-7.61849e-08
1.8815e-06
-1.04607e-05
-3.9244e-08
1.5942e-06
-1.06112e-05
9.38758e-09
1.45547e-06
-1.06856e-05
4.14761e-08
1.48484e-06
-1.06723e-05
1.6083e-06
-1.06219e-05
-3.92296e-09
1.48709e-06
-1.15965e-05
1.45033e-08
1.76096e-06
-1.14318e-05
-7.65858e-10
2.20127e-06
-1.10239e-05
2.1544e-08
2.11438e-06
-1.10533e-05
6.1017e-08
1.94852e-06
-1.12773e-05
-6.43483e-09
2.30763e-06
-1.11438e-05
-8.36624e-08
2.43434e-06
-1.10807e-05
-8.05296e-08
2.09128e-06
-1.12553e-05
-4.11664e-08
1.76431e-06
-1.14112e-05
1.20517e-08
1.60734e-06
-1.14874e-05
4.65423e-08
1.64128e-06
-1.14709e-05
1.78016e-06
-1.14151e-05
-1.08301e-08
1.62534e-06
-1.24008e-05
7.90277e-09
1.92487e-06
-1.22352e-05
-2.71915e-09
2.43043e-06
-1.18178e-05
2.54756e-08
2.3369e-06
-1.18528e-05
6.88734e-08
2.14519e-06
-1.20845e-05
-3.8851e-09
2.55441e-06
-1.19337e-05
-8.74946e-08
2.69701e-06
-1.18698e-05
-8.48989e-08
2.30797e-06
-1.20592e-05
-4.30618e-08
1.93858e-06
-1.22199e-05
1.51489e-08
1.76195e-06
-1.22981e-05
5.21859e-08
1.8013e-06
-1.2278e-05
1.95742e-06
-1.22159e-05
-1.81981e-08
1.76651e-06
-1.3211e-05
1.12728e-09
2.09117e-06
-1.30459e-05
-4.2457e-09
2.6658e-06
-1.26218e-05
3.00332e-08
2.56492e-06
-1.26622e-05
7.72102e-08
2.34576e-06
-1.29002e-05
-9.38223e-10
2.81055e-06
-1.27319e-05
-9.10234e-08
2.96968e-06
-1.26673e-05
-8.92575e-08
2.53073e-06
-1.28713e-05
-4.49116e-08
2.11611e-06
-1.30364e-05
1.86881e-08
1.91828e-06
-1.31166e-05
5.84013e-08
1.96412e-06
-1.30928e-05
2.13973e-06
-1.30232e-05
-2.58761e-08
1.91e-06
-1.40255e-05
-5.58945e-09
2.25891e-06
-1.38627e-05
-5.23118e-09
2.90609e-06
-1.34349e-05
3.52162e-08
2.79712e-06
-1.34801e-05
8.59097e-08
2.54904e-06
-1.37231e-05
2.34973e-09
3.07526e-06
-1.35375e-05
-9.41733e-08
3.25158e-06
-1.34723e-05
-9.35425e-08
2.75851e-06
-1.36903e-05
-4.66826e-08
2.29573e-06
-1.38593e-05
2.26641e-08
2.07507e-06
-1.39415e-05
6.51512e-08
2.12871e-06
-1.39138e-05
2.32661e-06
-1.38359e-05
-3.37011e-08
2.05499e-06
-1.48427e-05
-1.2041e-08
2.42686e-06
-1.46837e-05
-5.56052e-09
3.14968e-06
-1.42556e-05
4.09968e-08
3.03197e-06
-1.43049e-05
9.4822e-08
2.75363e-06
-1.45512e-05
5.90109e-09
3.34751e-06
-1.43491e-05
-9.6854e-08
3.54166e-06
-1.42834e-05
-9.76611e-08
2.99003e-06
-1.45145e-05
-4.83266e-08
2.47602e-06
-1.46867e-05
2.70543e-08
2.23078e-06
-1.47709e-05
7.23619e-08
2.29387e-06
-1.47392e-05
2.51741e-06
-1.46522e-05
-4.15057e-08
2.20044e-06
-1.56604e-05
-1.79935e-08
2.59352e-06
-1.5507e-05
-5.14477e-09
3.39473e-06
-1.50819e-05
4.73175e-08
3.26771e-06
-1.51346e-05
1.03769e-07
2.95794e-06
-1.53824e-05
9.63675e-09
3.62605e-06
-1.51649e-05
-9.89617e-08
3.83865e-06
-1.50991e-05
-1.0149e-07
3.22374e-06
-1.53418e-05
-4.97814e-08
2.65528e-06
-1.55164e-05
3.1815e-08
2.38362e-06
-1.56024e-05
7.99202e-08
2.45816e-06
-1.55667e-05
2.71127e-06
-1.54703e-05
-4.91287e-08
2.34515e-06
-1.64764e-05
-2.32682e-08
2.75714e-06
-1.63303e-05
-3.93049e-09
3.63909e-06
-1.59115e-05
5.40891e-08
3.50231e-06
-1.59669e-05
1.12552e-07
3.16021e-06
-1.62141e-05
1.34602e-08
3.90938e-06
-1.59829e-05
-1.00381e-07
4.14095e-06
-1.59176e-05
-1.04877e-07
3.45785e-06
-1.61698e-05
-5.09738e-08
2.83162e-06
-1.63457e-05
3.68789e-08
2.53161e-06
-1.64335e-05
8.76729e-08
2.61996e-06
-1.6394e-05
2.90715e-06
-1.62879e-05
-5.64242e-08
2.48778e-06
-1.72881e-05
-2.77224e-08
2.91575e-06
-1.71509e-05
-1.9064e-09
3.8803e-06
-1.6742e-05
6.11903e-08
3.73353e-06
-1.67991e-05
1.20955e-07
3.35855e-06
-1.70437e-05
1.72748e-08
4.19576e-06
-1.68012e-05
-1.00988e-07
4.44667e-06
-1.67368e-05
-1.07649e-07
3.69037e-06
-1.6996e-05
-5.18238e-08
3.00299e-06
-1.71719e-05
4.21533e-08
2.67263e-06
-1.72613e-05
9.5429e-08
2.77757e-06
-1.72182e-05
3.10385e-06
-1.71027e-05
-6.32714e-08
2.62687e-06
-1.80932e-05
-3.12647e-08
3.06725e-06
-1.79663e-05
9.04944e-10
4.11567e-06
-1.75706e-05
6.84692e-08
3.95891e-06
-1.76283e-05
1.28762e-07
3.55096e-06
-1.7868e-05
2.09896e-08
4.48323e-06
-1.76173e-05
-1.00655e-07
4.75363e-06
-1.75545e-05
-1.09613e-07
3.9191e-06
-1.78177e-05
-5.22507e-08
3.16727e-06
-1.79921e-05
4.75193e-08
2.80452e-06
-1.80828e-05
1.02965e-07
2.92918e-06
-1.80367e-05
3.30004e-06
-1.79125e-05
-6.95821e-08
2.76087e-06
-1.88893e-05
-3.38619e-08
3.20944e-06
-1.87738e-05
4.38095e-09
4.34234e-06
-1.83943e-05
7.57456e-08
4.17583e-06
-1.84515e-05
1.35759e-07
3.73546e-06
-1.86844e-05
2.45262e-08
4.76963e-06
-1.8429e-05
-9.92555e-08
5.05933e-06
-1.83686e-05
-1.10574e-07
4.14174e-06
-1.86321e-05
-5.21799e-08
3.3223e-06
-1.88034e-05
5.28331e-08
2.92512e-06
-1.8895e-05
1.10034e-07
3.07301e-06
-1.88467e-05
3.49425e-06
-1.87147e-05
-7.53054e-08
2.88819e-06
-1.96741e-05
-3.55418e-08
3.34006e-06
-1.95706e-05
8.40453e-09
4.55726e-06
-1.92102e-05
8.2815e-08
4.38158e-06
-1.92658e-05
1.41748e-07
3.91005e-06
-1.94899e-05
2.78258e-08
5.05259e-06
-1.92338e-05
-9.66687e-08
5.36103e-06
-1.91765e-05
-1.10338e-07
4.35591e-06
-1.94365e-05
-5.15495e-08
3.46604e-06
-1.9603e-05
5.79277e-08
3.03241e-06
-1.96951e-05
1.16373e-07
3.20729e-06
-1.96455e-05
3.68494e-06
-1.95072e-05
-8.04312e-08
3.00724e-06
-2.04455e-05
-3.63916e-08
3.45688e-06
-2.03545e-05
1.28002e-08
4.75735e-06
-2.00154e-05
8.94535e-08
4.57348e-06
-2.00683e-05
1.46553e-07
4.0729e-06
-2.02819e-05
3.08547e-08
5.32962e-06
-2.00295e-05
-9.27849e-08
5.65574e-06
-1.99761e-05
-1.08727e-07
4.55922e-06
-2.02284e-05
-5.03177e-08
3.59661e-06
-2.03883e-05
6.26173e-08
3.12456e-06
-2.04802e-05
1.21716e-07
3.33039e-06
-2.04306e-05
3.87048e-06
-2.02878e-05
-8.49895e-08
3.11643e-06
-2.12016e-05
-3.65523e-08
3.55778e-06
-2.1123e-05
1.7353e-08
4.93955e-06
-2.0807e-05
9.54225e-08
4.74893e-06
-2.08563e-05
1.50025e-07
4.22228e-06
-2.10582e-05
3.36071e-08
5.59809e-06
-2.08139e-05
-8.75105e-08
5.94031e-06
-2.07649e-05
-1.05592e-07
4.74937e-06
-2.10054e-05
-4.84674e-08
3.71239e-06
-2.11568e-05
6.67025e-08
3.20006e-06
-2.12481e-05
1.25807e-07
3.44084e-06
-2.11998e-05
4.04922e-06
-2.10546e-05
-8.90487e-08
3.21429e-06
-2.19408e-05
-3.62111e-08
3.64081e-06
-2.18743e-05
2.18132e-08
5.10097e-06
-2.15826e-05
1.00475e-07
4.9055e-06
-2.16274e-05
1.52047e-07
4.3567e-06
-2.18167e-05
3.61056e-08
5.85534e-06
-2.1585e-05
-8.07728e-08
6.21147e-06
-2.15411e-05
-1.00816e-07
4.9242e-06
-2.17656e-05
-4.60109e-08
3.8121e-06
-2.19068e-05
6.99767e-08
3.25779e-06
-2.19968e-05
1.28412e-07
3.53737e-06
-2.19511e-05
4.21948e-06
-2.18061e-05
-9.27119e-08
3.29945e-06
-2.2662e-05
-3.55907e-08
3.70429e-06
-2.26068e-05
2.59103e-08
5.23899e-06
-2.23401e-05
1.04362e-07
5.04108e-06
-2.23798e-05
1.52532e-07
4.47491e-06
-2.2556e-05
3.83987e-08
6.09865e-06
-2.2341e-05
-7.25235e-08
6.46591e-06
-2.23026e-05
-9.43287e-08
5.08178e-06
-2.25072e-05
-4.29919e-08
3.8949e-06
-2.26365e-05
7.22345e-08
3.29706e-06
-2.27246e-05
1.29329e-07
3.61899e-06
-2.26833e-05
4.3796e-06
-2.25408e-05
-9.61112e-08
3.37073e-06
-2.33643e-05
-3.49396e-08
3.74688e-06
-2.33195e-05
2.93619e-08
5.35138e-06
-2.30779e-05
1.06838e-07
5.15391e-06
-2.31119e-05
1.51425e-07
4.57595e-06
-2.32751e-05
4.05552e-08
6.32539e-06
-2.30806e-05
-6.2743e-08
6.7004e-06
-2.30478e-05
-8.61093e-08
5.22048e-06
-2.32292e-05
-3.94848e-08
3.96044e-06
-2.33451e-05
7.32793e-08
3.31776e-06
-2.34307e-05
1.28396e-07
3.68503e-06
-2.33953e-05
4.52798e-06
-2.32579e-05
-9.94024e-08
3.42716e-06
-2.40474e-05
-3.45208e-08
3.76761e-06
-2.40116e-05
3.18844e-08
5.43639e-06
-2.37947e-05
1.07671e-07
5.24266e-06
-2.38229e-05
1.48695e-07
4.65914e-06
-2.39733e-05
4.26571e-08
6.53299e-06
-2.38026e-05
-5.14425e-08
6.9118e-06
-2.37755e-05
-7.61896e-08
5.33902e-06
-2.39306e-05
-3.55933e-08
4.00888e-06
-2.40319e-05
7.29323e-08
3.32029e-06
-2.41146e-05
1.25502e-07
3.73511e-06
-2.40866e-05
4.66308e-06
-2.39566e-05
-1.02758e-07
3.46799e-06
-2.47112e-05
-3.46024e-08
3.76597e-06
-2.46831e-05
3.32006e-08
5.49287e-06
-2.44901e-05
1.06647e-07
5.30654e-06
-2.45125e-05
1.44337e-07
4.72409e-06
-2.46509e-05
4.47902e-08
6.71905e-06
-2.45065e-05
-3.86673e-08
7.09724e-06
-2.44847e-05
-6.46561e-08
5.43653e-06
-2.46113e-05
-3.14456e-08
4.04089e-06
-2.46972e-05
7.10409e-08
3.30563e-06
-2.47766e-05
1.2059e-07
3.76921e-06
-2.47575e-05
4.78351e-06
-2.4637e-05
-1.06362e-07
3.49279e-06
-2.53564e-05
-3.54488e-08
3.74192e-06
-2.53346e-05
3.30491e-08
5.52028e-06
-2.51641e-05
1.0358e-07
5.34524e-06
-2.51809e-05
1.38364e-07
4.77068e-06
-2.53084e-05
4.70342e-08
6.88136e-06
-2.51918e-05
-2.4499e-08
7.25415e-06
-2.51748e-05
-5.16493e-08
5.51254e-06
-2.52716e-05
-2.7189e-08
4.05767e-06
-2.53416e-05
6.74872e-08
3.27525e-06
-2.54174e-05
1.13659e-07
3.78762e-06
-2.54084e-05
4.88797e-06
-2.52991e-05
-1.10399e-07
3.50139e-06
-2.59838e-05
-3.73129e-08
3.69587e-06
-2.59669e-05
3.11933e-08
5.51873e-06
-2.58175e-05
9.83208e-08
5.35902e-06
-2.58289e-05
1.30808e-07
4.79903e-06
-2.59467e-05
4.94525e-08
7.01798e-06
-2.58588e-05
-9.05854e-09
7.38033e-06
-2.58459e-05
-3.73627e-08
5.56705e-06
-2.59121e-05
-2.29825e-08
4.06086e-06
-2.59662e-05
6.21968e-08
3.23109e-06
-2.60384e-05
1.04766e-07
3.79088e-06
-2.60406e-05
4.97537e-06
-2.59436e-05
-1.15049e-07
3.49395e-06
-2.65948e-05
-4.04264e-08
3.62867e-06
-2.65815e-05
2.74303e-08
5.48897e-06
-2.64514e-05
9.07688e-08
5.3486e-06
-2.64581e-05
1.21716e-07
4.80948e-06
-2.65674e-05
5.20842e-08
7.12727e-06
-2.6508e-05
7.50726e-09
7.47408e-06
-2.64982e-05
-2.20407e-08
5.60059e-06
-2.65341e-05
-1.89894e-08
4.05256e-06
-2.65728e-05
5.51487e-08
3.17553e-06
-2.66414e-05
9.40251e-08
3.77981e-06
-2.66554e-05
5.04475e-06
-2.65716e-05
-1.20471e-07
3.47113e-06
-2.71912e-05
-4.49884e-08
3.54177e-06
-2.71803e-05
2.16051e-08
5.43235e-06
-2.70676e-05
8.08824e-08
5.31523e-06
-2.70701e-05
1.1116e-07
4.80273e-06
-2.71725e-05
5.49356e-08
7.20807e-06
-2.71405e-05
2.49318e-08
7.53443e-06
-2.71328e-05
-5.97829e-09
5.61425e-06
-2.71395e-05
-1.5368e-08
4.03537e-06
-2.71635e-05
4.63862e-08
3.11141e-06
-2.72288e-05
8.16106e-08
3.75556e-06
-2.72549e-05
5.09552e-06
-2.71845e-05
-1.26796e-07
3.43393e-06
-2.77751e-05
-5.11511e-08
3.43718e-06
-2.77658e-05
1.36277e-08
5.35097e-06
-2.76684e-05
6.86993e-08
5.26071e-06
-2.76673e-05
9.92393e-08
4.7798e-06
-2.77641e-05
5.79745e-08
7.25975e-06
-2.77577e-05
4.30127e-08
7.56104e-06
-2.77508e-05
1.05181e-08
5.60954e-06
-2.77302e-05
-1.22532e-08
4.01197e-06
-2.77409e-05
3.60221e-08
3.04173e-06
-2.78033e-05
6.77613e-08
3.71962e-06
-2.78413e-05
5.12746e-06
-2.77839e-05
-1.34114e-07
3.38341e-06
-2.83489e-05
-5.90028e-08
3.31706e-06
-2.83405e-05
3.50187e-09
5.24747e-06
-2.82563e-05
5.433e-08
5.18734e-06
-2.82524e-05
8.60628e-08
4.7417e-06
-2.83448e-05
6.11412e-08
7.28197e-06
-2.83614e-05
6.1483e-08
7.55408e-06
-2.83542e-05
2.71427e-08
5.58805e-06
-2.83089e-05
-9.7575e-09
3.98493e-06
-2.83079e-05
2.42024e-08
2.96935e-06
-2.83679e-05
5.27241e-08
3.67346e-06
-2.84173e-05
5.14046e-06
-2.83722e-05
-1.42469e-07
3.32078e-06
-2.89151e-05
-6.85769e-08
3.18363e-06
-2.89073e-05
-8.82274e-09
5.12481e-06
-2.88343e-05
3.79121e-08
5.09738e-06
-2.88282e-05
7.17369e-08
4.6894e-06
-2.89172e-05
6.43453e-08
7.27467e-06
-2.89538e-05
8.00503e-08
7.51417e-06
-2.8945e-05
4.35607e-08
5.55166e-06
-2.88779e-05
-7.96812e-09
3.95674e-06
-2.8867e-05
1.10923e-08
2.89699e-06
-2.89254e-05
3.67522e-08
3.6184e-06
-2.89855e-05
5.13447e-06
-2.89515e-05
-1.5184e-07
3.24742e-06
-2.94761e-05
-7.98376e-08
3.03928e-06
-2.94688e-05
-2.31526e-08
4.98594e-06
-2.94054e-05
1.95739e-08
4.99332e-06
-2.93976e-05
5.63961e-08
4.62382e-06
-2.9484e-05
6.74572e-08
7.23823e-06
-2.9537e-05
9.83836e-08
7.44251e-06
-2.95254e-05
5.94462e-08
5.5024e-06
-2.94398e-05
-6.93026e-09
3.9297e-06
-2.94212e-05
-2.99245e-09
2.82705e-06
-2.94786e-05
2.01413e-08
3.55585e-06
-2.95485e-05
5.10967e-06
-2.9524e-05
-1.62145e-07
3.16481e-06
-3.00343e-05
-9.26675e-08
2.88639e-06
-3.00277e-05
-3.93332e-08
4.83395e-06
-2.99722e-05
-2.00987e-10
4.87738e-06
-2.99634e-05
4.01897e-08
4.54618e-06
-3.00476e-05
7.03258e-08
7.17347e-06
-3.01133e-05
1.16158e-07
7.34078e-06
-3.0098e-05
7.45163e-08
5.44234e-06
-2.99973e-05
-6.64957e-09
3.90581e-06
-2.99729e-05
-1.78443e-08
2.76168e-06
-3.00302e-05
3.17499e-09
3.48707e-06
-3.01088e-05
5.06645e-06
-3.00922e-05
-1.73245e-07
3.07443e-06
-3.05921e-05
-1.06885e-07
2.72728e-06
-3.05864e-05
-5.71267e-08
4.67189e-06
-3.05375e-05
-2.12229e-08
4.75186e-06
-3.05281e-05
2.32662e-08
4.4576e-06
-3.06105e-05
7.27944e-08
7.08153e-06
-3.06852e-05
1.33076e-07
7.21107e-06
-3.06652e-05
8.85402e-08
5.37346e-06
-3.0553e-05
-7.09453e-09
3.88669e-06
-3.05248e-05
-3.3168e-08
2.70259e-06
-3.05825e-05
-1.38836e-08
3.41324e-06
-3.06687e-05
5.00537e-06
-3.06583e-05
-1.84955e-07
2.97771e-06
-3.11517e-05
-1.22258e-07
2.5641e-06
-3.11472e-05
-7.626e-08
4.50262e-06
-3.11039e-05
-4.33013e-08
4.61896e-06
-3.10942e-05
5.79635e-09
4.35902e-06
-3.11748e-05
7.47116e-08
6.96388e-06
-3.12551e-05
1.48879e-07
7.05565e-06
-3.12297e-05
1.0135e-07
5.29757e-06
-3.11092e-05
-8.20359e-09
3.87349e-06
-3.1079e-05
-4.87062e-08
2.65107e-06
-3.11376e-05
-3.0819e-08
3.33541e-06
-3.12303e-05
4.92707e-06
-3.12245e-05
-1.97058e-07
2.87599e-06
-3.17149e-05
-1.38524e-07
2.39877e-06
-3.17119e-05
-9.64512e-08
4.32873e-06
-3.16733e-05
-6.61222e-08
4.4806e-06
-3.16636e-05
-1.22268e-08
4.25155e-06
-3.17425e-05
7.59413e-08
6.82202e-06
-3.18253e-05
1.6336e-07
6.87688e-06
-3.17938e-05
1.12842e-07
5.21623e-06
-3.1668e-05
-9.8949e-09
3.86696e-06
-3.16373e-05
-6.42394e-08
2.60798e-06
-3.16973e-05
-4.74711e-08
3.25449e-06
-3.17955e-05
4.83231e-06
-3.17928e-05
-2.09324e-07
2.77042e-06
-3.22833e-05
-1.55413e-07
2.23297e-06
-3.22822e-05
-1.17437e-07
4.15248e-06
-3.22477e-05
-8.94687e-08
4.33847e-06
-3.22382e-05
-3.06113e-08
4.13607e-06
-3.23153e-05
7.63702e-08
6.65763e-06
-3.23979e-05
1.76371e-07
6.67709e-06
-3.23598e-05
1.22971e-07
5.13067e-06
-3.22312e-05
-1.20769e-08
3.86745e-06
-3.22013e-05
-7.95938e-08
2.57383e-06
-3.2263e-05
-6.37326e-08
3.17125e-06
-3.23657e-05
4.72184e-06
-3.2365e-05
-2.21529e-07
2.66199e-06
-3.2858e-05
-1.72667e-07
2.06811e-06
-3.28593e-05
-1.38991e-07
3.97583e-06
-3.28285e-05
-1.13196e-07
4.19398e-06
-3.28194e-05
-4.93416e-08
4.01341e-06
-3.28943e-05
7.59079e-08
6.47236e-06
-3.29746e-05
1.87811e-07
6.45844e-06
-3.29296e-05
1.3173e-07
5.04184e-06
-3.28002e-05
-1.46585e-08
3.87491e-06
-3.27722e-05
-9.46406e-08
2.54881e-06
-3.28357e-05
-7.95496e-08
3.08628e-06
-3.29422e-05
4.59644e-06
-3.29425e-05
-2.33459e-07
2.55149e-06
-3.34402e-05
-1.90047e-07
1.90536e-06
-3.34442e-05
-1.60931e-07
3.8004e-06
-3.34169e-05
-1.37228e-07
4.04836e-06
-3.34081e-05
-6.843e-08
3.88426e-06
-3.34806e-05
7.4476e-08
6.2677e-06
-3.35569e-05
1.97605e-07
6.22293e-06
-3.35046e-05
1.39128e-07
4.95039e-06
-3.33763e-05
-1.75568e-08
3.889e-06
-3.33509e-05
-1.09287e-07
2.53286e-06
-3.34163e-05
-9.49051e-08
3.0001e-06
-3.35259e-05
4.45681e-06
-3.35264e-05
-2.44916e-07
2.43955e-06
-3.40305e-05
-2.07337e-07
1.7457e-06
-3.40377e-05
-1.83114e-07
3.62761e-06
-3.40137e-05
-1.61546e-07
3.90264e-06
-3.40054e-05
-8.79242e-08
3.74926e-06
-3.4075e-05
7.19913e-08
6.04498e-06
-3.41458e-05
2.0567e-07
5.9717e-06
-3.40854e-05
1.45157e-07
4.85652e-06
-3.396e-05
-2.07047e-08
3.9091e-06
-3.39382e-05
-1.23465e-07
2.52566e-06
-3.40053e-05
-1.098e-07
2.9131e-06
-3.41176e-05
4.30365e-06
-3.41177e-05
-2.55711e-07
2.32668e-06
-3.46297e-05
-2.24337e-07
1.58991e-06
-3.46402e-05
-2.05422e-07
3.45869e-06
-3.46198e-05
-1.86156e-07
3.75777e-06
-3.46119e-05
-1.07909e-07
3.60894e-06
-3.46781e-05
6.83568e-08
5.80501e-06
-3.47419e-05
2.1195e-07
5.70469e-06
-3.46722e-05
1.49776e-07
4.75977e-06
-3.45518e-05
-2.40492e-08
3.93403e-06
-3.45342e-05
-1.371e-07
2.52634e-06
-3.46029e-05
-1.24229e-07
2.82554e-06
-3.47176e-05
4.13762e-06
-3.4717e-05
-2.6566e-07
2.21308e-06
-3.5238e-05
-2.40855e-07
1.43871e-06
-3.52524e-05
-2.27744e-07
3.29472e-06
-3.52356e-05
-2.11063e-07
3.61462e-06
-3.52281e-05
-1.28515e-07
3.46384e-06
-3.52904e-05
6.34491e-08
5.54818e-06
-3.53453e-05
2.16353e-07
5.42198e-06
-3.52653e-05
1.52949e-07
4.65937e-06
-3.51519e-05
-2.74977e-08
3.96202e-06
-3.51391e-05
-1.50056e-07
2.5336e-06
-3.52091e-05
-1.38153e-07
2.7375e-06
-3.53262e-05
3.95901e-06
-3.53244e-05
-2.74559e-07
2.09852e-06
-3.58554e-05
-2.56691e-07
1.29269e-06
-3.58746e-05
-2.49951e-07
3.13675e-06
-3.58617e-05
-2.36215e-07
3.47399e-06
-3.58545e-05
-1.49859e-07
3.31444e-06
-3.59121e-05
5.69875e-08
5.27535e-06
-3.5956e-05
2.18535e-07
5.12462e-06
-3.58653e-05
1.54669e-07
4.55462e-06
-3.57613e-05
-3.08543e-08
3.99131e-06
-3.57534e-05
-1.62097e-07
2.54623e-06
-3.58245e-05
-1.51489e-07
2.64907e-06
-3.59431e-05
3.76794e-06
-3.59398e-05
-2.82159e-07
1.98265e-06
-3.64822e-05
-2.71631e-07
1.15241e-06
-3.65072e-05
-2.71885e-07
2.98574e-06
-3.64984e-05
-2.61436e-07
3.3366e-06
-3.64915e-05
-1.71787e-07
3.16132e-06
-3.65435e-05
4.85877e-08
4.98816e-06
-3.6574e-05
2.17896e-07
4.81448e-06
-3.64734e-05
1.54781e-07
4.44499e-06
-3.63807e-05
-3.4066e-08
4.0204e-06
-3.63778e-05
-1.73145e-07
2.56349e-06
-3.64495e-05
-1.64196e-07
2.56052e-06
-3.65687e-05
3.56511e-06
-3.6563e-05
-2.88158e-07
1.86526e-06
-3.71189e-05
-2.85441e-07
1.01845e-06
-3.71503e-05
-2.93334e-07
2.84266e-06
-3.71461e-05
-2.86533e-07
3.20318e-06
-3.71395e-05
-1.93999e-07
3.00522e-06
-3.71851e-05
3.8023e-08
4.68865e-06
-3.72004e-05
2.1389e-07
4.49379e-06
-3.70907e-05
1.53006e-07
4.32997e-06
-3.70109e-05
-3.70488e-08
4.04764e-06
-3.70129e-05
-1.82909e-07
2.58459e-06
-3.70846e-05
-1.76017e-07
2.4722e-06
-3.7203e-05
3.35175e-06
-3.71944e-05
-2.92299e-07
1.74643e-06
-3.77657e-05
-2.97879e-07
8.91558e-07
-3.78043e-05
-3.14038e-07
2.70846e-06
-3.78052e-05
-3.11358e-07
3.07465e-06
-3.77987e-05
-2.16396e-07
2.84702e-06
-3.78372e-05
2.51412e-08
4.37886e-06
-3.78358e-05
2.06279e-07
4.16474e-06
-3.77185e-05
1.49348e-07
4.20885e-06
-3.76528e-05
-3.94727e-08
4.07113e-06
-3.76593e-05
-1.90731e-07
2.6084e-06
-3.77305e-05
-1.8649e-07
2.38453e-06
-3.78467e-05
3.12985e-06
-3.78349e-05
-2.94281e-07
1.6264e-06
-3.8423e-05
-3.0869e-07
7.72518e-07
-3.84697e-05
-3.33705e-07
2.58412e-06
-3.8476e-05
-3.35567e-07
2.95192e-06
-3.84696e-05
-2.38807e-07
2.68768e-06
-3.85003e-05
9.82908e-09
4.06096e-06
-3.8481e-05
1.94962e-07
3.82934e-06
-3.83579e-05
1.43948e-07
4.08055e-06
-3.83071e-05
-4.09878e-08
4.08867e-06
-3.83178e-05
-1.95999e-07
2.6334e-06
-3.83878e-05
-1.95175e-07
2.29797e-06
-3.85006e-05
2.90195e-06
-3.84852e-05
-2.93735e-07
1.50544e-06
-3.90913e-05
-3.17602e-07
6.62078e-07
-3.91467e-05
-3.52028e-07
2.47043e-06
-3.91588e-05
-3.58647e-07
2.83552e-06
-3.91524e-05
-2.60871e-07
2.52813e-06
-3.91748e-05
-8.04203e-09
3.73745e-06
-3.91369e-05
1.79939e-07
3.4894e-06
-3.90098e-05
1.36985e-07
3.94369e-06
-3.89746e-05
-4.13211e-08
4.09791e-06
-3.89889e-05
-1.98291e-07
2.65779e-06
-3.9057e-05
-2.0174e-07
2.21297e-06
-3.91652e-05
2.67106e-06
-3.91461e-05
-2.90297e-07
1.38378e-06
-3.97708e-05
-3.24316e-07
5.60931e-07
-3.98356e-05
-3.68667e-07
2.36796e-06
-3.98538e-05
-3.80143e-07
2.72569e-06
-3.98475e-05
-2.82226e-07
2.36921e-06
-3.98612e-05
-2.80157e-08
3.41062e-06
-3.9804e-05
1.61313e-07
3.14696e-06
-3.9675e-05
1.28653e-07
3.79661e-06
-3.96555e-05
-4.02831e-08
4.09638e-06
-3.9673e-05
-1.9737e-07
2.67965e-06
-3.97387e-05
-2.05947e-07
2.12987e-06
-3.98413e-05
2.44044e-06
-3.98185e-05
-2.83655e-07
1.26151e-06
-4.04619e-05
-3.28519e-07
4.6967e-07
-4.05366e-05
-3.83244e-07
2.27705e-06
-4.05612e-05
-3.99624e-07
2.62244e-06
-4.0555e-05
-3.02511e-07
2.21163e-06
-4.05597e-05
-5.02464e-08
3.08323e-06
-4.04833e-05
1.39283e-07
2.80369e-06
-4.03544e-05
1.19147e-07
3.63748e-06
-4.03502e-05
-3.77664e-08
4.08166e-06
-4.03706e-05
-1.93168e-07
2.69709e-06
-4.04333e-05
-2.07648e-07
2.04895e-06
-4.05296e-05
2.21347e-06
-4.05032e-05
-2.73586e-07
1.13866e-06
-4.11649e-05
-3.29918e-07
3.88748e-07
-4.12498e-05
-3.95353e-07
2.19785e-06
-4.12813e-05
-4.16656e-07
2.52557e-06
-4.12751e-05
-3.21337e-07
2.05601e-06
-4.12708e-05
-7.42698e-08
2.7579e-06
-4.11753e-05
1.14139e-07
2.4613e-06
-4.10485e-05
1.08592e-07
3.46453e-06
-4.10587e-05
-3.3793e-08
4.05139e-06
-4.10818e-05
-1.85786e-07
2.70827e-06
-4.11412e-05
-2.0679e-07
1.97036e-06
-4.12308e-05
1.99343e-06
-4.12009e-05
-2.59906e-07
1.01509e-06
-4.18802e-05
-3.28198e-07
3.18444e-07
-4.19753e-05
-4.04584e-07
2.13039e-06
-4.20143e-05
-4.30792e-07
2.43476e-06
-4.20082e-05
-3.38275e-07
1.90281e-06
-4.19946e-05
-9.95791e-08
2.43716e-06
-4.18808e-05
8.62504e-08
2.12157e-06
-4.1758e-05
9.70363e-08
3.27619e-06
-4.17814e-05
-2.84622e-08
4.00317e-06
-4.18066e-05
-1.75446e-07
2.71149e-06
-4.18629e-05
-2.03422e-07
1.89418e-06
-4.19457e-05
1.78335e-06
-4.19125e-05
-2.42482e-07
8.90548e-07
-4.26081e-05
-3.23041e-07
2.58818e-07
-4.27133e-05
-4.10536e-07
2.0746e-06
-4.27604e-05
-4.41572e-07
2.34959e-06
-4.27544e-05
-3.52853e-07
1.75239e-06
-4.27315e-05
-1.25521e-07
2.12339e-06
-4.26008e-05
5.60816e-08
1.78635e-06
-4.24833e-05
8.45424e-08
3.07114e-06
-4.25183e-05
-2.1873e-08
3.93464e-06
-4.25452e-05
-1.62457e-07
2.70544e-06
-4.25987e-05
-1.97701e-07
1.82056e-06
-4.26748e-05
1.58578e-06
-4.26388e-05
-2.21446e-07
7.64713e-07
-4.33491e-05
-3.14295e-07
2.09627e-07
-4.34639e-05
-4.12838e-07
2.03015e-06
-4.35197e-05
-4.48537e-07
2.2696e-06
-4.35139e-05
-3.64571e-07
1.60498e-06
-4.34817e-05
-1.51308e-07
1.81878e-06
-4.33359e-05
2.4222e-08
1.45759e-06
-4.32248e-05
7.11947e-08
2.84852e-06
-4.32695e-05
-1.4105e-08
3.84364e-06
-4.32976e-05
-1.47154e-07
2.68925e-06
-4.33487e-05
-1.89873e-07
1.74986e-06
-4.3419e-05
1.40269e-06
-4.33805e-05
-1.97235e-07
6.37376e-07
-4.4104e-05
-3.02006e-07
1.70219e-07
-4.42274e-05
-4.11169e-07
1.9963e-06
-4.42924e-05
-4.51244e-07
2.19414e-06
-4.42869e-05
-3.72929e-07
1.46071e-06
-4.42458e-05
-1.76065e-07
1.52525e-06
-4.40869e-05
-8.58881e-09
1.13723e-06
-4.39829e-05
5.70872e-08
2.60813e-06
-4.40353e-05
-5.27545e-09
3.72835e-06
-4.40641e-05
-1.29848e-07
2.66215e-06
-4.41131e-05
-1.80228e-07
1.68278e-06
-4.41786e-05
1.23547e-06
-4.41385e-05
-1.70536e-07
5.08476e-07
-4.48732e-05
-2.86341e-07
1.39432e-07
-4.50042e-05
-4.05256e-07
1.97182e-06
-4.50787e-05
-4.49287e-07
2.12236e-06
-4.50736e-05
-3.77457e-07
1.31973e-06
-4.50239e-05
-1.989e-07
1.24452e-06
-4.48546e-05
-4.16545e-08
8.27319e-07
-4.47578e-05
4.23422e-08
2.35029e-06
-4.48159e-05
4.50532e-09
3.5872e-06
-4.4845e-05
-1.10715e-07
2.62322e-06
-4.4892e-05
-1.68996e-07
1.6202e-06
-4.49538e-05
1.08527e-06
-4.49131e-05
-1.42254e-07
3.78111e-07
-4.56577e-05
-2.67597e-07
1.1551e-07
-4.57946e-05
-3.9488e-07
1.95493e-06
-4.58787e-05
-4.42327e-07
2.05326e-06
-4.58742e-05
-3.77773e-07
1.18229e-06
-4.58165e-05
-2.18988e-07
9.78023e-07
-4.56395e-05
-7.40172e-08
5.29666e-07
-4.55497e-05
2.71035e-08
2.07608e-06
-4.56118e-05
1.49453e-08
3.41899e-06
-4.56406e-05
-8.99018e-08
2.57135e-06
-4.56856e-05
-1.5628e-07
1.5626e-06
-4.57446e-05
9.53042e-07