/*--------------------------------*- C++ -*----------------------------------*\
| =========                 |                                                 |
| \\      /  F ield         | OpenFOAM: The Open Source CFD Toolbox           |
|  \\    /   O peration     | Version:  v1912                                 |
|   \\  /    A nd           | Website:  www.openfoam.com                      |
|    \\/     M anipulation  |                                                 |
\*---------------------------------------------------------------------------*/
FoamFile
{
    version     2.0;
    format      ascii;
    class       volScalarField;
    location    "9.6";
    object      pPrime2Mean;
}
// * * * * * * * * * * * * * * * * * * * * * * * * * * * * * * * * * * * * * //

dimensions      [2 -2 -4 0 0 0 0];


internalField   nonuniform List<scalar> 
34128
(
3449.38
3449.16
3448.97
3448.82
3448.69
3448.57
3448.43
3448.32
3448.21
3448.15
3448.17
3448.23
3445.67
3445.45
3445.26
3445.12
3444.99
3444.87
3444.74
3444.62
3444.52
3444.47
3444.48
3444.54
3439.92
3439.71
3439.53
3439.39
3439.26
3439.15
3439.02
3438.91
3438.81
3438.75
3438.77
3438.83
3436.19
3435.99
3435.81
3435.67
3435.55
3435.44
3435.31
3435.2
3435.1
3435.05
3435.07
3435.13
3435.21
3435.01
3434.83
3434.7
3434.58
3434.47
3434.34
3434.23
3434.13
3434.08
3434.1
3434.16
3435.25
3435.05
3434.87
3434.74
3434.62
3434.51
3434.38
3434.27
3434.17
3434.12
3434.14
3434.2
3435.29
3435.08
3434.91
3434.77
3434.65
3434.54
3434.42
3434.31
3434.21
3434.16
3434.17
3434.23
3435.31
3435.11
3434.94
3434.8
3434.68
3434.57
3434.45
3434.34
3434.24
3434.19
3434.2
3434.26
3435.33
3435.13
3434.96
3434.82
3434.7
3434.59
3434.47
3434.36
3434.26
3434.21
3434.22
3434.28
3435.35
3435.15
3434.97
3434.84
3434.72
3434.61
3434.48
3434.38
3434.27
3434.23
3434.24
3434.3
3435.36
3435.16
3434.98
3434.85
3434.73
3434.62
3434.49
3434.38
3434.28
3434.24
3434.25
3434.31
3435.36
3435.16
3434.98
3434.85
3434.73
3434.62
3434.5
3434.39
3434.29
3434.24
3434.25
3434.31
3435.35
3435.15
3434.98
3434.84
3434.72
3434.62
3434.49
3434.38
3434.28
3434.24
3434.25
3434.31
3435.34
3435.14
3434.97
3434.83
3434.72
3434.61
3434.48
3434.38
3434.28
3434.23
3434.24
3434.3
3435.32
3435.13
3434.95
3434.82
3434.7
3434.59
3434.47
3434.36
3434.26
3434.21
3434.22
3434.29
3435.3
3435.1
3434.93
3434.8
3434.68
3434.57
3434.45
3434.34
3434.24
3434.19
3434.21
3434.27
3435.27
3435.08
3434.9
3434.77
3434.65
3434.55
3434.42
3434.32
3434.22
3434.17
3434.18
3434.24
3435.24
3435.04
3434.87
3434.74
3434.62
3434.51
3434.39
3434.28
3434.19
3434.14
3434.15
3434.21
3435.2
3435
3434.83
3434.7
3434.58
3434.48
3434.36
3434.25
3434.15
3434.1
3434.11
3434.17
3435.15
3434.96
3434.79
3434.66
3434.54
3434.43
3434.31
3434.21
3434.11
3434.06
3434.07
3434.13
3435.1
3434.91
3434.74
3434.61
3434.49
3434.39
3434.27
3434.16
3434.06
3434.01
3434.02
3434.09
3435.05
3434.85
3434.69
3434.56
3434.44
3434.33
3434.21
3434.11
3434.01
3433.96
3433.97
3434.03
3434.98
3434.79
3434.63
3434.5
3434.38
3434.27
3434.16
3434.05
3433.96
3433.91
3433.92
3433.98
3434.92
3434.73
3434.56
3434.43
3434.32
3434.21
3434.09
3433.99
3433.89
3433.85
3433.85
3433.92
3434.85
3434.66
3434.49
3434.36
3434.25
3434.14
3434.03
3433.92
3433.83
3433.78
3433.79
3433.85
3434.77
3434.58
3434.42
3434.29
3434.18
3434.07
3433.95
3433.85
3433.76
3433.71
3433.72
3433.78
3434.69
3434.5
3434.34
3434.21
3434.1
3433.99
3433.88
3433.77
3433.68
3433.63
3433.64
3433.7
3434.6
3434.42
3434.25
3434.13
3434.02
3433.91
3433.8
3433.69
3433.6
3433.55
3433.56
3433.62
3434.51
3434.33
3434.17
3434.04
3433.93
3433.82
3433.71
3433.61
3433.52
3433.47
3433.48
3433.54
3434.41
3434.23
3434.07
3433.95
3433.84
3433.73
3433.62
3433.52
3433.43
3433.38
3433.39
3433.45
3434.31
3434.13
3433.98
3433.85
3433.74
3433.64
3433.53
3433.42
3433.33
3433.29
3433.29
3433.35
3434.21
3434.03
3433.88
3433.75
3433.64
3433.54
3433.43
3433.33
3433.24
3433.19
3433.2
3433.26
3434.1
3433.93
3433.77
3433.65
3433.54
3433.44
3433.32
3433.22
3433.14
3433.09
3433.1
3433.16
3433.99
3433.82
3433.66
3433.54
3433.43
3433.33
3433.22
3433.12
3433.03
3432.99
3432.99
3433.05
3433.87
3433.7
3433.55
3433.43
3433.32
3433.22
3433.11
3433.01
3432.92
3432.88
3432.88
3432.94
3433.75
3433.58
3433.43
3433.31
3433.21
3433.11
3433
3432.9
3432.81
3432.77
3432.77
3432.83
3433.63
3433.46
3433.32
3433.2
3433.09
3432.99
3432.88
3432.78
3432.7
3432.65
3432.66
3432.72
3433.51
3433.34
3433.19
3433.08
3432.97
3432.87
3432.76
3432.67
3432.58
3432.54
3432.54
3432.6
3433.38
3433.21
3433.07
3432.95
3432.85
3432.75
3432.64
3432.54
3432.46
3432.42
3432.42
3432.48
3433.25
3433.09
3432.94
3432.83
3432.72
3432.62
3432.52
3432.42
3432.34
3432.3
3432.3
3432.36
3433.11
3432.95
3432.81
3432.7
3432.6
3432.5
3432.39
3432.3
3432.22
3432.17
3432.18
3432.23
3432.98
3432.82
3432.68
3432.57
3432.47
3432.37
3432.26
3432.17
3432.09
3432.05
3432.05
3432.11
3432.84
3432.68
3432.55
3432.44
3432.34
3432.24
3432.13
3432.04
3431.96
3431.92
3431.92
3431.98
3432.7
3432.55
3432.41
3432.3
3432.2
3432.11
3432
3431.91
3431.83
3431.79
3431.79
3431.85
3432.56
3432.41
3432.28
3432.17
3432.07
3431.97
3431.87
3431.78
3431.7
3431.66
3431.66
3431.72
3432.42
3432.27
3432.14
3432.03
3431.93
3431.84
3431.74
3431.64
3431.57
3431.53
3431.53
3431.59
3432.27
3432.13
3432
3431.89
3431.8
3431.7
3431.6
3431.51
3431.44
3431.39
3431.4
3431.45
3432.13
3431.99
3431.86
3431.76
3431.66
3431.56
3431.47
3431.38
3431.3
3431.26
3431.27
3431.32
3431.99
3431.85
3431.72
3431.62
3431.52
3431.43
3431.33
3431.24
3431.17
3431.13
3431.13
3431.19
3431.84
3431.7
3431.58
3431.48
3431.39
3431.29
3431.19
3431.11
3431.03
3430.99
3431
3431.05
3431.7
3431.56
3431.44
3431.34
3431.25
3431.16
3431.06
3430.97
3430.9
3430.86
3430.87
3430.92
3431.56
3431.42
3431.31
3431.21
3431.11
3431.02
3430.92
3430.84
3430.77
3430.73
3430.74
3430.79
3431.41
3431.28
3431.17
3431.07
3430.98
3430.89
3430.79
3430.7
3430.63
3430.6
3430.6
3430.66
3431.27
3431.14
3431.03
3430.93
3430.84
3430.75
3430.66
3430.57
3430.5
3430.47
3430.47
3430.53
3431.13
3431.01
3430.9
3430.8
3430.71
3430.62
3430.53
3430.44
3430.37
3430.34
3430.35
3430.4
3431
3430.87
3430.76
3430.67
3430.58
3430.49
3430.4
3430.31
3430.25
3430.21
3430.22
3430.27
3430.86
3430.74
3430.63
3430.54
3430.45
3430.36
3430.27
3430.19
3430.12
3430.09
3430.1
3430.15
3430.73
3430.61
3430.51
3430.41
3430.33
3430.24
3430.15
3430.06
3430
3429.96
3429.97
3430.03
3430.6
3430.48
3430.38
3430.29
3430.2
3430.12
3430.03
3429.94
3429.88
3429.85
3429.85
3429.91
3430.47
3430.36
3430.26
3430.17
3430.08
3430
3429.91
3429.83
3429.76
3429.73
3429.74
3429.79
3430.35
3430.24
3430.14
3430.05
3429.97
3429.88
3429.79
3429.71
3429.65
3429.62
3429.63
3429.68
3430.24
3430.13
3430.03
3429.94
3429.86
3429.77
3429.69
3429.6
3429.54
3429.51
3429.52
3429.58
3430.13
3430.02
3429.92
3429.84
3429.75
3429.67
3429.58
3429.5
3429.44
3429.41
3429.42
3429.48
3430.02
3429.91
3429.82
3429.74
3429.66
3429.57
3429.48
3429.4
3429.34
3429.31
3429.32
3429.38
3429.92
3429.82
3429.73
3429.65
3429.56
3429.48
3429.39
3429.31
3429.25
3429.22
3429.24
3429.29
3429.83
3429.73
3429.64
3429.56
3429.48
3429.4
3429.31
3429.23
3429.17
3429.14
3429.16
3429.21
3429.76
3429.66
3429.57
3429.49
3429.41
3429.32
3429.24
3429.16
3429.1
3429.07
3429.09
3429.14
3429.69
3429.59
3429.51
3429.43
3429.35
3429.26
3429.18
3429.1
3429.04
3429.01
3429.03
3429.09
3429.64
3429.54
3429.46
3429.38
3429.3
3429.21
3429.13
3429.05
3429
3428.97
3428.98
3429.04
3429.6
3429.51
3429.43
3429.35
3429.27
3429.18
3429.1
3429.02
3428.97
3428.94
3428.96
3429.01
3429.59
3429.49
3429.41
3429.33
3429.26
3429.17
3429.09
3429.01
3428.96
3428.93
3428.95
3429
3429.6
3429.5
3429.42
3429.35
3429.27
3429.18
3429.1
3429.02
3428.97
3428.94
3428.96
3429.02
3429.63
3429.54
3429.46
3429.38
3429.3
3429.22
3429.14
3429.06
3429.01
3428.98
3429
3429.05
3429.69
3429.6
3429.52
3429.44
3429.37
3429.28
3429.2
3429.12
3429.07
3429.04
3429.06
3429.12
3429.78
3429.69
3429.61
3429.53
3429.45
3429.37
3429.29
3429.21
3429.16
3429.13
3429.15
3429.2
3429.89
3429.8
3429.72
3429.64
3429.56
3429.48
3429.4
3429.32
3429.27
3429.24
3429.26
3429.31
3430.02
3429.93
3429.85
3429.77
3429.69
3429.6
3429.52
3429.44
3429.39
3429.36
3429.38
3429.43
3430.15
3430.06
3429.98
3429.9
3429.82
3429.73
3429.65
3429.57
3429.52
3429.49
3429.5
3429.55
3430.27
3430.18
3430.1
3430.02
3429.94
3429.85
3429.77
3429.69
3429.63
3429.6
3429.61
3429.67
3826.52
3826.23
3825.96
3825.73
3825.5
3825.3
3825.08
3824.89
3824.73
3824.65
3824.66
3824.74
3822.52
3822.24
3821.97
3821.75
3821.53
3821.32
3821.11
3820.93
3820.77
3820.69
3820.7
3820.78
3816.34
3816.06
3815.81
3815.59
3815.38
3815.18
3814.97
3814.8
3814.65
3814.57
3814.58
3814.66
3812.33
3812.06
3811.81
3811.6
3811.39
3811.2
3811
3810.82
3810.68
3810.6
3810.61
3810.69
3811.28
3811.01
3810.77
3810.55
3810.35
3810.16
3809.96
3809.78
3809.64
3809.56
3809.57
3809.65
3811.32
3811.06
3810.81
3810.59
3810.39
3810.2
3810
3809.83
3809.68
3809.6
3809.61
3809.69
3811.36
3811.09
3810.84
3810.63
3810.43
3810.24
3810.04
3809.86
3809.72
3809.64
3809.65
3809.73
3811.39
3811.12
3810.87
3810.66
3810.46
3810.27
3810.07
3809.9
3809.75
3809.67
3809.68
3809.76
3811.41
3811.15
3810.9
3810.69
3810.48
3810.29
3810.09
3809.92
3809.77
3809.7
3809.71
3809.78
3811.43
3811.16
3810.91
3810.7
3810.5
3810.31
3810.11
3809.94
3809.79
3809.72
3809.72
3809.8
3811.43
3811.17
3810.92
3810.71
3810.51
3810.32
3810.12
3809.95
3809.8
3809.73
3809.74
3809.81
3811.43
3811.17
3810.93
3810.71
3810.51
3810.32
3810.12
3809.95
3809.81
3809.73
3809.74
3809.81
3811.43
3811.17
3810.92
3810.71
3810.51
3810.32
3810.12
3809.95
3809.8
3809.73
3809.74
3809.81
3811.42
3811.16
3810.91
3810.7
3810.5
3810.31
3810.11
3809.94
3809.8
3809.72
3809.73
3809.8
3811.4
3811.14
3810.89
3810.68
3810.48
3810.29
3810.1
3809.93
3809.78
3809.71
3809.71
3809.79
3811.37
3811.12
3810.87
3810.66
3810.46
3810.27
3810.07
3809.9
3809.76
3809.69
3809.69
3809.77
3811.34
3811.09
3810.84
3810.63
3810.43
3810.24
3810.05
3809.88
3809.74
3809.66
3809.67
3809.74
3811.31
3811.05
3810.81
3810.6
3810.4
3810.21
3810.02
3809.85
3809.7
3809.63
3809.63
3809.71
3811.27
3811.01
3810.77
3810.56
3810.36
3810.17
3809.98
3809.81
3809.67
3809.59
3809.6
3809.67
3811.22
3810.96
3810.72
3810.51
3810.31
3810.13
3809.93
3809.76
3809.62
3809.55
3809.55
3809.63
3811.16
3810.91
3810.67
3810.46
3810.26
3810.08
3809.88
3809.72
3809.58
3809.5
3809.51
3809.58
3811.1
3810.85
3810.61
3810.41
3810.21
3810.02
3809.83
3809.66
3809.52
3809.45
3809.45
3809.52
3811.04
3810.78
3810.55
3810.34
3810.15
3809.96
3809.77
3809.6
3809.46
3809.39
3809.39
3809.47
3810.97
3810.71
3810.48
3810.28
3810.08
3809.9
3809.7
3809.54
3809.4
3809.32
3809.33
3809.4
3810.89
3810.64
3810.41
3810.2
3810.01
3809.82
3809.63
3809.47
3809.33
3809.25
3809.26
3809.33
3810.81
3810.56
3810.33
3810.12
3809.93
3809.75
3809.56
3809.39
3809.26
3809.18
3809.18
3809.26
3810.72
3810.47
3810.24
3810.04
3809.85
3809.67
3809.48
3809.31
3809.18
3809.1
3809.1
3809.18
3810.63
3810.38
3810.15
3809.95
3809.76
3809.58
3809.39
3809.23
3809.09
3809.02
3809.02
3809.09
3810.53
3810.29
3810.06
3809.86
3809.67
3809.49
3809.3
3809.14
3809.01
3808.93
3808.93
3809
3810.43
3810.19
3809.96
3809.76
3809.57
3809.39
3809.21
3809.05
3808.91
3808.84
3808.84
3808.91
3810.32
3810.08
3809.86
3809.66
3809.47
3809.29
3809.11
3808.95
3808.82
3808.74
3808.74
3808.81
3810.21
3809.97
3809.75
3809.56
3809.37
3809.19
3809.01
3808.85
3808.72
3808.64
3808.64
3808.71
3810.1
3809.86
3809.64
3809.45
3809.26
3809.08
3808.9
3808.74
3808.61
3808.54
3808.54
3808.61
3809.98
3809.74
3809.53
3809.33
3809.15
3808.97
3808.79
3808.63
3808.5
3808.43
3808.43
3808.5
3809.85
3809.62
3809.41
3809.22
3809.03
3808.86
3808.68
3808.52
3808.39
3808.32
3808.32
3808.39
3809.73
3809.5
3809.29
3809.1
3808.91
3808.74
3808.56
3808.4
3808.28
3808.2
3808.2
3808.27
3809.6
3809.37
3809.16
3808.97
3808.79
3808.62
3808.44
3808.28
3808.16
3808.09
3808.08
3808.15
3809.46
3809.24
3809.03
3808.85
3808.67
3808.49
3808.32
3808.16
3808.04
3807.96
3807.96
3808.03
3809.33
3809.11
3808.9
3808.72
3808.54
3808.37
3808.19
3808.04
3807.91
3807.84
3807.84
3807.9
3809.19
3808.97
3808.77
3808.59
3808.41
3808.24
3808.06
3807.91
3807.79
3807.72
3807.71
3807.78
3809.05
3808.83
3808.63
3808.45
3808.28
3808.11
3807.93
3807.78
3807.66
3807.59
3807.58
3807.65
3808.9
3808.69
3808.49
3808.31
3808.14
3807.97
3807.8
3807.65
3807.53
3807.46
3807.45
3807.52
3808.76
3808.55
3808.35
3808.18
3808
3807.84
3807.67
3807.52
3807.4
3807.33
3807.32
3807.39
3808.61
3808.4
3808.21
3808.04
3807.86
3807.7
3807.53
3807.38
3807.26
3807.19
3807.19
3807.25
3808.46
3808.26
3808.07
3807.89
3807.72
3807.56
3807.39
3807.24
3807.13
3807.06
3807.05
3807.12
3808.31
3808.11
3807.92
3807.75
3807.58
3807.42
3807.25
3807.11
3806.99
3806.92
3806.92
3806.98
3808.16
3807.96
3807.78
3807.61
3807.44
3807.28
3807.12
3806.97
3806.85
3806.79
3806.78
3806.84
3808.01
3807.81
3807.63
3807.46
3807.3
3807.14
3806.98
3806.83
3806.72
3806.65
3806.64
3806.71
3807.86
3807.67
3807.49
3807.32
3807.16
3807
3806.84
3806.69
3806.58
3806.51
3806.51
3806.57
3807.71
3807.52
3807.34
3807.18
3807.01
3806.86
3806.7
3806.55
3806.44
3806.38
3806.37
3806.43
3807.56
3807.37
3807.2
3807.03
3806.87
3806.72
3806.56
3806.42
3806.31
3806.24
3806.24
3806.3
3807.41
3807.22
3807.05
3806.89
3806.73
3806.58
3806.42
3806.28
3806.17
3806.11
3806.1
3806.16
3807.26
3807.08
3806.91
3806.75
3806.59
3806.44
3806.28
3806.14
3806.04
3805.97
3805.97
3806.03
3807.11
3806.93
3806.77
3806.61
3806.45
3806.3
3806.15
3806.01
3805.9
3805.84
3805.84
3805.9
3806.96
3806.79
3806.63
3806.47
3806.32
3806.17
3806.01
3805.88
3805.77
3805.71
3805.71
3805.76
3806.82
3806.65
3806.49
3806.34
3806.18
3806.03
3805.88
3805.75
3805.64
3805.58
3805.58
3805.64
3806.68
3806.51
3806.35
3806.2
3806.05
3805.9
3805.75
3805.62
3805.51
3805.45
3805.45
3805.51
3806.54
3806.37
3806.22
3806.07
3805.92
3805.77
3805.63
3805.49
3805.39
3805.33
3805.33
3805.39
3806.4
3806.24
3806.09
3805.94
3805.8
3805.65
3805.5
3805.37
3805.27
3805.21
3805.21
3805.27
3806.27
3806.11
3805.96
3805.82
3805.67
3805.53
3805.38
3805.25
3805.15
3805.09
3805.09
3805.15
3806.14
3805.99
3805.84
3805.7
3805.56
3805.41
3805.27
3805.14
3805.04
3804.98
3804.98
3805.04
3806.02
3805.87
3805.72
3805.58
3805.44
3805.3
3805.15
3805.03
3804.93
3804.87
3804.87
3804.93
3805.91
3805.75
3805.61
3805.47
3805.33
3805.19
3805.05
3804.92
3804.83
3804.77
3804.77
3804.83
3805.8
3805.65
3805.51
3805.37
3805.23
3805.09
3804.95
3804.82
3804.73
3804.67
3804.68
3804.74
3805.7
3805.55
3805.41
3805.28
3805.14
3805
3804.86
3804.73
3804.64
3804.59
3804.59
3804.65
3805.6
3805.46
3805.32
3805.19
3805.05
3804.91
3804.78
3804.65
3804.56
3804.51
3804.51
3804.57
3805.52
3805.38
3805.25
3805.11
3804.98
3804.84
3804.7
3804.58
3804.49
3804.44
3804.44
3804.5
3805.45
3805.31
3805.18
3805.05
3804.92
3804.78
3804.64
3804.52
3804.43
3804.38
3804.38
3804.44
3805.4
3805.26
3805.13
3805
3804.87
3804.73
3804.59
3804.47
3804.38
3804.33
3804.34
3804.4
3805.36
3805.23
3805.1
3804.97
3804.84
3804.7
3804.57
3804.44
3804.35
3804.31
3804.31
3804.37
3805.35
3805.21
3805.09
3804.96
3804.83
3804.69
3804.56
3804.44
3804.35
3804.3
3804.3
3804.37
3805.36
3805.22
3805.1
3804.97
3804.84
3804.7
3804.57
3804.45
3804.36
3804.32
3804.32
3804.38
3805.4
3805.26
3805.14
3805.01
3804.88
3804.74
3804.61
3804.49
3804.4
3804.36
3804.36
3804.43
3805.47
3805.33
3805.21
3805.08
3804.95
3804.81
3804.68
3804.56
3804.47
3804.43
3804.43
3804.5
3805.56
3805.43
3805.3
3805.17
3805.04
3804.91
3804.78
3804.66
3804.57
3804.52
3804.53
3804.59
3805.68
3805.55
3805.42
3805.29
3805.16
3805.03
3804.89
3804.78
3804.69
3804.64
3804.65
3804.71
3805.82
3805.68
3805.56
3805.43
3805.29
3805.16
3805.03
3804.91
3804.82
3804.77
3804.78
3804.84
3805.96
3805.82
3805.69
3805.56
3805.43
3805.29
3805.16
3805.04
3804.95
3804.9
3804.91
3804.96
3806.08
3805.94
3805.82
3805.69
3805.55
3805.41
3805.28
3805.16
3805.07
3805.02
3805.02
3805.08
4225.72
4225.49
4225.27
4225.09
4224.92
4224.76
4224.59
4224.43
4224.29
4224.22
4224.24
4224.32
4221.39
4221.16
4220.95
4220.77
4220.61
4220.45
4220.28
4220.13
4219.99
4219.92
4219.94
4220.02
4214.69
4214.47
4214.26
4214.09
4213.94
4213.79
4213.62
4213.47
4213.34
4213.28
4213.29
4213.38
4210.35
4210.13
4209.94
4209.77
4209.62
4209.47
4209.31
4209.17
4209.04
4208.98
4208.99
4209.07
4209.21
4209
4208.8
4208.64
4208.48
4208.34
4208.18
4208.04
4207.91
4207.85
4207.86
4207.94
4209.26
4209.04
4208.84
4208.68
4208.53
4208.38
4208.22
4208.08
4207.95
4207.89
4207.9
4207.98
4209.3
4209.08
4208.88
4208.72
4208.57
4208.42
4208.26
4208.12
4207.99
4207.93
4207.95
4208.02
4209.33
4209.11
4208.92
4208.75
4208.6
4208.46
4208.3
4208.15
4208.03
4207.96
4207.98
4208.06
4209.35
4209.14
4208.94
4208.78
4208.63
4208.48
4208.32
4208.18
4208.05
4207.99
4208
4208.08
4209.37
4209.15
4208.96
4208.79
4208.64
4208.5
4208.34
4208.19
4208.07
4208
4208.02
4208.1
4209.38
4209.16
4208.97
4208.8
4208.65
4208.51
4208.35
4208.2
4208.08
4208.01
4208.03
4208.11
4209.38
4209.16
4208.97
4208.8
4208.65
4208.51
4208.35
4208.21
4208.08
4208.02
4208.03
4208.11
4209.37
4209.15
4208.96
4208.8
4208.65
4208.5
4208.34
4208.2
4208.08
4208.01
4208.02
4208.1
4209.36
4209.14
4208.95
4208.79
4208.64
4208.49
4208.33
4208.19
4208.06
4208
4208.01
4208.09
4209.34
4209.12
4208.93
4208.77
4208.62
4208.47
4208.31
4208.17
4208.05
4207.98
4207.99
4208.07
4209.31
4209.09
4208.9
4208.74
4208.59
4208.45
4208.29
4208.14
4208.02
4207.96
4207.97
4208.05
4209.27
4209.06
4208.87
4208.71
4208.56
4208.41
4208.25
4208.11
4207.99
4207.92
4207.94
4208.01
4209.23
4209.02
4208.83
4208.67
4208.52
4208.37
4208.22
4208.07
4207.95
4207.89
4207.9
4207.98
4209.18
4208.97
4208.78
4208.62
4208.47
4208.33
4208.17
4208.03
4207.91
4207.84
4207.85
4207.93
4209.13
4208.92
4208.73
4208.57
4208.42
4208.28
4208.12
4207.98
4207.86
4207.79
4207.8
4207.88
4209.07
4208.86
4208.67
4208.51
4208.36
4208.22
4208.06
4207.92
4207.8
4207.73
4207.75
4207.82
4209
4208.79
4208.6
4208.45
4208.3
4208.16
4208
4207.86
4207.74
4207.67
4207.68
4207.76
4208.93
4208.72
4208.53
4208.38
4208.23
4208.09
4207.93
4207.79
4207.67
4207.6
4207.61
4207.69
4208.85
4208.64
4208.46
4208.3
4208.15
4208.01
4207.85
4207.71
4207.59
4207.53
4207.54
4207.62
4208.76
4208.56
4208.37
4208.22
4208.07
4207.93
4207.77
4207.63
4207.51
4207.45
4207.46
4207.54
4208.67
4208.47
4208.28
4208.13
4207.98
4207.84
4207.69
4207.55
4207.43
4207.36
4207.37
4207.45
4208.57
4208.37
4208.19
4208.04
4207.89
4207.75
4207.6
4207.46
4207.34
4207.27
4207.28
4207.36
4208.47
4208.27
4208.09
4207.94
4207.79
4207.65
4207.5
4207.36
4207.24
4207.18
4207.19
4207.26
4208.36
4208.17
4207.99
4207.83
4207.69
4207.55
4207.4
4207.26
4207.14
4207.08
4207.08
4207.16
4208.25
4208.06
4207.88
4207.72
4207.58
4207.44
4207.29
4207.15
4207.03
4206.97
4206.98
4207.05
4208.13
4207.94
4207.76
4207.61
4207.47
4207.33
4207.18
4207.04
4206.92
4206.86
4206.87
4206.94
4208.01
4207.82
4207.64
4207.49
4207.35
4207.21
4207.06
4206.92
4206.81
4206.74
4206.75
4206.83
4207.88
4207.69
4207.52
4207.37
4207.23
4207.09
4206.94
4206.8
4206.69
4206.63
4206.63
4206.71
4207.75
4207.56
4207.39
4207.24
4207.1
4206.96
4206.81
4206.68
4206.56
4206.5
4206.51
4206.58
4207.62
4207.43
4207.26
4207.11
4206.97
4206.83
4206.69
4206.55
4206.44
4206.37
4206.38
4206.45
4207.48
4207.29
4207.12
4206.98
4206.84
4206.7
4206.55
4206.42
4206.31
4206.24
4206.25
4206.32
4207.33
4207.15
4206.98
4206.84
4206.7
4206.56
4206.42
4206.28
4206.17
4206.11
4206.11
4206.19
4207.19
4207.01
4206.84
4206.7
4206.56
4206.42
4206.28
4206.14
4206.03
4205.97
4205.98
4206.05
4207.04
4206.86
4206.69
4206.55
4206.42
4206.28
4206.13
4206
4205.89
4205.83
4205.83
4205.91
4206.88
4206.71
4206.55
4206.4
4206.27
4206.13
4205.99
4205.86
4205.75
4205.69
4205.69
4205.76
4206.73
4206.55
4206.39
4206.25
4206.12
4205.98
4205.84
4205.71
4205.6
4205.54
4205.54
4205.62
4206.57
4206.4
4206.24
4206.1
4205.97
4205.83
4205.69
4205.56
4205.45
4205.39
4205.4
4205.47
4206.41
4206.24
4206.08
4205.95
4205.81
4205.68
4205.54
4205.41
4205.3
4205.24
4205.25
4205.32
4206.24
4206.08
4205.93
4205.79
4205.66
4205.52
4205.38
4205.26
4205.15
4205.09
4205.09
4205.16
4206.08
4205.92
4205.77
4205.63
4205.5
4205.37
4205.23
4205.1
4205
4204.94
4204.94
4205.01
4205.91
4205.75
4205.61
4205.47
4205.34
4205.21
4205.07
4204.95
4204.84
4204.78
4204.79
4204.86
4205.75
4205.59
4205.44
4205.31
4205.18
4205.05
4204.92
4204.79
4204.69
4204.63
4204.63
4204.7
4205.58
4205.43
4205.28
4205.15
4205.02
4204.89
4204.76
4204.63
4204.53
4204.47
4204.48
4204.55
4205.41
4205.26
4205.12
4204.99
4204.87
4204.74
4204.6
4204.47
4204.37
4204.32
4204.32
4204.39
4205.25
4205.1
4204.96
4204.83
4204.71
4204.58
4204.44
4204.32
4204.22
4204.16
4204.17
4204.24
4205.08
4204.93
4204.8
4204.67
4204.55
4204.42
4204.29
4204.16
4204.06
4204.01
4204.01
4204.08
4204.92
4204.77
4204.64
4204.51
4204.39
4204.26
4204.13
4204.01
4203.91
4203.85
4203.86
4203.93
4204.75
4204.61
4204.48
4204.36
4204.23
4204.11
4203.98
4203.85
4203.76
4203.7
4203.71
4203.78
4204.59
4204.45
4204.32
4204.2
4204.08
4203.95
4203.82
4203.7
4203.61
4203.55
4203.56
4203.63
4204.43
4204.29
4204.17
4204.05
4203.93
4203.8
4203.67
4203.55
4203.46
4203.4
4203.41
4203.48
4204.27
4204.14
4204.01
4203.9
4203.78
4203.65
4203.52
4203.4
4203.31
4203.26
4203.27
4203.33
4204.12
4203.99
4203.86
4203.75
4203.63
4203.51
4203.38
4203.26
4203.17
4203.12
4203.12
4203.19
4203.97
4203.84
4203.72
4203.6
4203.49
4203.36
4203.24
4203.12
4203.03
4202.98
4202.98
4203.05
4203.82
4203.69
4203.58
4203.46
4203.35
4203.22
4203.1
4202.98
4202.89
4202.84
4202.85
4202.92
4203.68
4203.55
4203.44
4203.32
4203.21
4203.09
4202.96
4202.85
4202.76
4202.71
4202.72
4202.79
4203.54
4203.41
4203.3
4203.19
4203.08
4202.96
4202.83
4202.72
4202.63
4202.58
4202.59
4202.66
4203.4
4203.28
4203.17
4203.07
4202.95
4202.83
4202.71
4202.59
4202.51
4202.46
4202.47
4202.54
4203.28
4203.16
4203.05
4202.94
4202.83
4202.71
4202.59
4202.48
4202.39
4202.34
4202.35
4202.43
4203.16
4203.04
4202.94
4202.83
4202.72
4202.6
4202.48
4202.36
4202.28
4202.23
4202.25
4202.32
4203.05
4202.93
4202.83
4202.73
4202.61
4202.5
4202.37
4202.26
4202.18
4202.13
4202.15
4202.22
4202.95
4202.84
4202.73
4202.63
4202.52
4202.4
4202.28
4202.17
4202.09
4202.04
4202.06
4202.13
4202.86
4202.75
4202.65
4202.54
4202.44
4202.32
4202.2
4202.09
4202
4201.96
4201.98
4202.05
4202.78
4202.67
4202.58
4202.47
4202.37
4202.25
4202.13
4202.02
4201.93
4201.89
4201.91
4201.98
4202.73
4202.62
4202.52
4202.42
4202.31
4202.19
4202.07
4201.96
4201.88
4201.84
4201.86
4201.93
4202.69
4202.58
4202.48
4202.38
4202.27
4202.16
4202.04
4201.93
4201.85
4201.81
4201.83
4201.9
4202.67
4202.56
4202.47
4202.37
4202.26
4202.14
4202.02
4201.91
4201.83
4201.8
4201.81
4201.89
4202.68
4202.58
4202.48
4202.38
4202.27
4202.15
4202.04
4201.93
4201.85
4201.81
4201.83
4201.91
4202.72
4202.62
4202.52
4202.42
4202.31
4202.2
4202.08
4201.97
4201.89
4201.85
4201.87
4201.95
4202.8
4202.69
4202.59
4202.49
4202.39
4202.27
4202.15
4202.04
4201.96
4201.92
4201.94
4202.02
4202.9
4202.79
4202.7
4202.6
4202.49
4202.37
4202.25
4202.14
4202.06
4202.03
4202.05
4202.12
4203.03
4202.93
4202.83
4202.73
4202.62
4202.5
4202.38
4202.27
4202.19
4202.15
4202.17
4202.25
4203.18
4203.07
4202.98
4202.87
4202.76
4202.64
4202.52
4202.41
4202.33
4202.29
4202.31
4202.39
4203.33
4203.22
4203.12
4203.02
4202.91
4202.78
4202.66
4202.55
4202.47
4202.43
4202.45
4202.52
4203.47
4203.36
4203.26
4203.15
4203.04
4202.91
4202.79
4202.68
4202.6
4202.56
4202.57
4202.65
4646.42
4646.26
4646.13
4646.04
4645.96
4645.89
4645.79
4645.69
4645.6
4645.56
4645.6
4645.69
4641.71
4641.55
4641.42
4641.33
4641.26
4641.18
4641.08
4640.99
4640.9
4640.87
4640.9
4640.99
4634.41
4634.26
4634.14
4634.05
4633.98
4633.91
4633.81
4633.72
4633.64
4633.6
4633.64
4633.73
4629.68
4629.54
4629.42
4629.34
4629.27
4629.2
4629.11
4629.02
4628.94
4628.9
4628.94
4629.02
4628.44
4628.3
4628.18
4628.1
4628.03
4627.96
4627.87
4627.78
4627.7
4627.67
4627.7
4627.79
4628.49
4628.35
4628.23
4628.15
4628.07
4628.01
4627.92
4627.83
4627.75
4627.71
4627.75
4627.83
4628.53
4628.39
4628.27
4628.19
4628.12
4628.05
4627.96
4627.87
4627.79
4627.76
4627.79
4627.88
4628.57
4628.42
4628.3
4628.22
4628.15
4628.09
4627.99
4627.91
4627.82
4627.79
4627.83
4627.91
4628.59
4628.45
4628.33
4628.25
4628.18
4628.11
4628.02
4627.93
4627.85
4627.82
4627.85
4627.93
4628.61
4628.46
4628.34
4628.26
4628.19
4628.13
4628.04
4627.95
4627.87
4627.83
4627.87
4627.95
4628.61
4628.47
4628.35
4628.27
4628.2
4628.14
4628.04
4627.96
4627.88
4627.84
4627.88
4627.96
4628.61
4628.47
4628.35
4628.27
4628.2
4628.14
4628.04
4627.96
4627.88
4627.84
4627.87
4627.96
4628.6
4628.46
4628.34
4628.26
4628.19
4628.13
4628.04
4627.95
4627.87
4627.83
4627.87
4627.95
4628.59
4628.44
4628.33
4628.25
4628.18
4628.11
4628.02
4627.94
4627.85
4627.82
4627.85
4627.93
4628.56
4628.42
4628.3
4628.22
4628.15
4628.09
4628
4627.91
4627.83
4627.8
4627.83
4627.91
4628.53
4628.39
4628.27
4628.19
4628.12
4628.06
4627.97
4627.88
4627.8
4627.76
4627.8
4627.88
4628.49
4628.35
4628.23
4628.16
4628.09
4628.02
4627.93
4627.84
4627.76
4627.73
4627.76
4627.84
4628.44
4628.3
4628.19
4628.11
4628.04
4627.98
4627.88
4627.8
4627.72
4627.68
4627.71
4627.8
4628.39
4628.25
4628.13
4628.06
4627.99
4627.92
4627.83
4627.75
4627.67
4627.63
4627.66
4627.75
4628.33
4628.19
4628.07
4628
4627.93
4627.86
4627.77
4627.69
4627.61
4627.57
4627.6
4627.69
4628.26
4628.12
4628.01
4627.93
4627.86
4627.8
4627.71
4627.62
4627.54
4627.51
4627.54
4627.62
4628.18
4628.05
4627.93
4627.86
4627.79
4627.72
4627.63
4627.55
4627.47
4627.43
4627.46
4627.55
4628.1
4627.96
4627.85
4627.78
4627.71
4627.64
4627.55
4627.47
4627.39
4627.35
4627.38
4627.47
4628.01
4627.88
4627.77
4627.69
4627.62
4627.56
4627.47
4627.38
4627.3
4627.27
4627.3
4627.38
4627.91
4627.78
4627.67
4627.6
4627.53
4627.46
4627.38
4627.29
4627.21
4627.18
4627.21
4627.29
4627.81
4627.68
4627.57
4627.5
4627.43
4627.37
4627.28
4627.19
4627.11
4627.08
4627.11
4627.19
4627.7
4627.57
4627.47
4627.39
4627.33
4627.26
4627.17
4627.09
4627.01
4626.97
4627
4627.09
4627.59
4627.46
4627.35
4627.28
4627.21
4627.15
4627.06
4626.98
4626.9
4626.86
4626.89
4626.98
4627.47
4627.34
4627.23
4627.16
4627.1
4627.03
4626.94
4626.86
4626.78
4626.75
4626.78
4626.86
4627.34
4627.22
4627.11
4627.04
4626.97
4626.91
4626.82
4626.74
4626.66
4626.63
4626.65
4626.74
4627.21
4627.08
4626.98
4626.91
4626.85
4626.78
4626.69
4626.61
4626.54
4626.5
4626.53
4626.61
4627.07
4626.95
4626.85
4626.78
4626.71
4626.65
4626.56
4626.48
4626.4
4626.37
4626.39
4626.48
4626.93
4626.81
4626.71
4626.64
4626.57
4626.51
4626.42
4626.34
4626.27
4626.23
4626.26
4626.34
4626.78
4626.66
4626.56
4626.49
4626.43
4626.37
4626.28
4626.2
4626.13
4626.09
4626.12
4626.2
4626.63
4626.51
4626.41
4626.35
4626.28
4626.22
4626.13
4626.05
4625.98
4625.94
4625.97
4626.05
4626.47
4626.36
4626.26
4626.19
4626.13
4626.07
4625.98
4625.9
4625.83
4625.79
4625.82
4625.9
4626.31
4626.2
4626.1
4626.04
4625.98
4625.91
4625.83
4625.75
4625.67
4625.64
4625.66
4625.75
4626.14
4626.03
4625.94
4625.88
4625.82
4625.75
4625.67
4625.59
4625.52
4625.48
4625.51
4625.59
4625.98
4625.87
4625.78
4625.71
4625.65
4625.59
4625.51
4625.42
4625.35
4625.32
4625.34
4625.42
4625.8
4625.7
4625.61
4625.55
4625.49
4625.42
4625.34
4625.26
4625.19
4625.16
4625.18
4625.26
4625.63
4625.53
4625.44
4625.38
4625.32
4625.25
4625.17
4625.09
4625.02
4624.99
4625.01
4625.09
4625.45
4625.35
4625.27
4625.2
4625.14
4625.08
4625
4624.92
4624.85
4624.82
4624.84
4624.92
4625.27
4625.17
4625.09
4625.03
4624.97
4624.91
4624.82
4624.75
4624.68
4624.64
4624.67
4624.75
4625.09
4624.99
4624.91
4624.85
4624.79
4624.73
4624.65
4624.57
4624.5
4624.47
4624.49
4624.57
4624.9
4624.81
4624.73
4624.67
4624.61
4624.55
4624.47
4624.39
4624.33
4624.29
4624.32
4624.4
4624.72
4624.63
4624.55
4624.49
4624.43
4624.37
4624.29
4624.21
4624.15
4624.12
4624.14
4624.22
4624.53
4624.44
4624.37
4624.31
4624.25
4624.19
4624.11
4624.03
4623.97
4623.94
4623.96
4624.04
4624.34
4624.26
4624.19
4624.13
4624.07
4624.01
4623.93
4623.85
4623.79
4623.76
4623.78
4623.86
4624.16
4624.07
4624
4623.95
4623.89
4623.83
4623.75
4623.67
4623.61
4623.58
4623.6
4623.68
4623.97
4623.89
4623.82
4623.77
4623.71
4623.65
4623.57
4623.49
4623.43
4623.4
4623.42
4623.5
4623.78
4623.7
4623.64
4623.59
4623.53
4623.47
4623.39
4623.32
4623.25
4623.22
4623.25
4623.33
4623.6
4623.52
4623.46
4623.41
4623.35
4623.29
4623.21
4623.14
4623.08
4623.05
4623.07
4623.15
4623.41
4623.34
4623.28
4623.23
4623.17
4623.11
4623.04
4622.96
4622.9
4622.87
4622.89
4622.97
4623.23
4623.16
4623.1
4623.05
4623
4622.94
4622.86
4622.78
4622.72
4622.7
4622.72
4622.8
4623.05
4622.98
4622.92
4622.88
4622.82
4622.76
4622.69
4622.61
4622.55
4622.52
4622.55
4622.63
4622.87
4622.81
4622.75
4622.7
4622.65
4622.59
4622.51
4622.44
4622.38
4622.36
4622.38
4622.46
4622.7
4622.63
4622.58
4622.53
4622.48
4622.42
4622.35
4622.27
4622.21
4622.19
4622.21
4622.29
4622.53
4622.47
4622.41
4622.37
4622.32
4622.26
4622.18
4622.11
4622.05
4622.03
4622.05
4622.13
4622.36
4622.3
4622.25
4622.21
4622.16
4622.1
4622.02
4621.95
4621.89
4621.87
4621.89
4621.97
4622.2
4622.14
4622.09
4622.05
4622
4621.94
4621.87
4621.79
4621.74
4621.71
4621.74
4621.82
4622.04
4621.99
4621.94
4621.9
4621.85
4621.79
4621.71
4621.64
4621.59
4621.56
4621.59
4621.67
4621.89
4621.84
4621.8
4621.75
4621.7
4621.64
4621.57
4621.5
4621.44
4621.42
4621.45
4621.53
4621.75
4621.7
4621.66
4621.62
4621.57
4621.51
4621.43
4621.36
4621.31
4621.29
4621.32
4621.4
4621.62
4621.57
4621.53
4621.49
4621.44
4621.38
4621.3
4621.23
4621.18
4621.16
4621.19
4621.27
4621.49
4621.44
4621.41
4621.37
4621.32
4621.26
4621.18
4621.11
4621.06
4621.04
4621.07
4621.15
4621.38
4621.33
4621.29
4621.26
4621.21
4621.15
4621.07
4621
4620.95
4620.93
4620.96
4621.05
4621.28
4621.23
4621.2
4621.16
4621.11
4621.05
4620.98
4620.9
4620.85
4620.83
4620.87
4620.95
4621.19
4621.15
4621.11
4621.08
4621.03
4620.97
4620.89
4620.82
4620.77
4620.75
4620.79
4620.87
4621.13
4621.08
4621.05
4621.01
4620.96
4620.9
4620.83
4620.76
4620.71
4620.69
4620.72
4620.81
4621.08
4621.04
4621.01
4620.97
4620.92
4620.86
4620.78
4620.71
4620.66
4620.65
4620.68
4620.77
4621.06
4621.02
4620.99
4620.95
4620.9
4620.84
4620.76
4620.69
4620.64