/*--------------------------------*- C++ -*----------------------------------*\
| =========                 |                                                 |
| \\      /  F ield         | OpenFOAM: The Open Source CFD Toolbox           |
|  \\    /   O peration     | Version:  v1912                                 |
|   \\  /    A nd           | Website:  www.openfoam.com                      |
|    \\/     M anipulation  |                                                 |
\*---------------------------------------------------------------------------*/
FoamFile
{
    version     2.0;
    format      ascii;
    class       volVectorField;
    location    "9.6";
    object      U;
}
// * * * * * * * * * * * * * * * * * * * * * * * * * * * * * * * * * * * * * //

dimensions      [0 1 -1 0 0 0 0];


internalField   nonuniform List<vector> 
34128
(
(5.96814e-07 2.62478e-07 -0.00473964)
(2.29406e-05 3.00815e-07 -0.00460521)
(1.68654e-05 3.35161e-07 -0.00440819)
(-6.92625e-07 2.91893e-07 -0.00438602)
(1.15386e-05 3.09986e-07 -0.00449719)
(7.269e-06 4.10174e-07 -0.00450506)
(-1.67496e-05 4.15731e-07 -0.00445188)
(-2.45797e-05 3.23394e-07 -0.00448973)
(-1.69339e-05 2.76419e-07 -0.00458079)
(-3.83947e-06 2.4465e-07 -0.00466074)
(7.45808e-06 2.87589e-07 -0.00468332)
(1.15113e-05 3.45637e-07 -0.00463747)
(3.45946e-06 3.68224e-06 -0.0143909)
(6.94328e-05 4.09504e-06 -0.0139943)
(5.1376e-05 4.43056e-06 -0.0134027)
(-3.02943e-06 3.94277e-06 -0.0133358)
(3.0852e-05 4.01792e-06 -0.0136693)
(1.98408e-05 4.94941e-06 -0.0136914)
(-4.81142e-05 5.02817e-06 -0.0135325)
(-7.05762e-05 4.27476e-06 -0.0136485)
(-4.91102e-05 3.80563e-06 -0.0139217)
(-1.23894e-05 3.50659e-06 -0.0141529)
(1.93646e-05 3.69663e-06 -0.0142137)
(3.29587e-05 4.1575e-06 -0.0140811)
(7.01262e-06 1.01872e-05 -0.024248)
(0.000114591 1.15864e-05 -0.0235951)
(8.51526e-05 1.28225e-05 -0.0225997)
(-6.41698e-06 1.15975e-05 -0.0224887)
(4.75404e-05 1.15071e-05 -0.0230483)
(3.10749e-05 1.39451e-05 -0.0230799)
(-7.80007e-05 1.43435e-05 -0.0228156)
(-0.000113866 1.22675e-05 -0.0230159)
(-7.96487e-05 1.07499e-05 -0.0234737)
(-2.13812e-05 9.9346e-06 -0.0238465)
(2.90969e-05 1.04284e-05 -0.0239368)
(5.2922e-05 1.1615e-05 -0.0237237)
(1.04625e-05 2.01443e-05 -0.034254)
(0.000156295 2.29246e-05 -0.0333536)
(0.000116576 2.54673e-05 -0.0319424)
(-1.08517e-05 2.31703e-05 -0.0317891)
(6.24358e-05 2.28301e-05 -0.0325792)
(4.14703e-05 2.74091e-05 -0.0326121)
(-0.000106596 2.82358e-05 -0.0322444)
(-0.000154374 2.43415e-05 -0.0325376)
(-0.000108294 2.13835e-05 -0.0331816)
(-3.03924e-05 1.97956e-05 -0.0336838)
(3.73295e-05 2.05809e-05 -0.0337937)
(7.14073e-05 2.27494e-05 -0.033508)
(1.31988e-05 3.31056e-05 -0.0443476)
(0.000192827 3.78145e-05 -0.0432126)
(0.000144333 4.2263e-05 -0.0413732)
(-1.63599e-05 3.86837e-05 -0.0411817)
(7.62511e-05 3.78487e-05 -0.0422055)
(5.1567e-05 4.50978e-05 -0.0422283)
(-0.000134023 4.65658e-05 -0.041761)
(-0.000192103 4.03392e-05 -0.0421573)
(-0.000134877 3.54131e-05 -0.0429873)
(-3.90978e-05 3.27995e-05 -0.0436047)
(4.46553e-05 3.39067e-05 -0.0437233)
(8.84704e-05 3.72754e-05 -0.0433745)
(1.4752e-05 4.8886e-05 -0.0544656)
(0.000222844 5.60259e-05 -0.0531133)
(0.000167413 6.29714e-05 -0.0508359)
(-2.29558e-05 5.79559e-05 -0.0506122)
(8.96066e-05 5.63859e-05 -0.0518711)
(6.19154e-05 6.6766e-05 -0.0518691)
(-0.000160357 6.90675e-05 -0.0513086)
(-0.000227124 6.00575e-05 -0.0518187)
(-0.000159318 5.26841e-05 -0.0528315)
(-4.72663e-05 4.87905e-05 -0.0535479)
(5.15884e-05 5.02051e-05 -0.0536648)
(0.000104212 5.4954e-05 -0.0532634)
(1.47786e-05 6.7205e-05 -0.0645452)
(0.000245359 7.73023e-05 -0.062997)
(0.000185121 8.7411e-05 -0.0602773)
(-3.05889e-05 8.08779e-05 -0.0600303)
(0.000103044 7.82815e-05 -0.061522)
(7.30454e-05 9.22087e-05 -0.0614783)
(-0.000185615 9.55636e-05 -0.0608335)
(-0.000259557 8.33247e-05 -0.0614678)
(-0.000181623 7.29927e-05 -0.0626564)
(-5.47425e-05 6.75602e-05 -0.0634547)
(5.85881e-05 6.92741e-05 -0.0635604)
(0.000118794 7.55638e-05 -0.0631175)
(1.30405e-05 8.7776e-05 -0.0745281)
(0.000259729 0.000101351 -0.0728084)
(0.000197063 0.000115364 -0.0696498)
(-3.91266e-05 0.000107293 -0.0693909)
(0.000117041 0.000103339 -0.0711092)
(8.54457e-05 0.000121216 -0.0710052)
(-0.000209768 0.000125864 -0.0702877)
(-0.00028956 0.000109942 -0.0710553)
(-0.000201876 9.6118e-05 -0.0724084)
(-6.14336e-05 8.88853e-05 -0.0732718)
(6.60689e-05 9.09029e-05 -0.073359)
(0.000132435 9.88837e-05 -0.0728855)
(9.38534e-06 0.00011029 -0.0843644)
(0.000265647 0.000127846 -0.0824986)
(0.000203138 0.000146601 -0.0789136)
(-4.83523e-05 0.000137025 -0.0786563)
(0.000132014 0.000131339 -0.0805909)
(9.95455e-05 0.000153579 -0.0804077)
(-0.000232749 0.000159781 -0.0796309)
(-0.000317327 0.000139694 -0.0805389)
(-0.000220239 0.00012182 -0.0820421)
(-6.72952e-05 0.000112528 -0.0829547)
(7.4407e-05 0.000114871 -0.0830185)
(0.000145407 0.00012469 -0.0825248)
(3.72618e-06 0.000134452 -0.0940153)
(0.000263105 0.000156461 -0.0920283)
(0.000203505 0.000180902 -0.088039)
(-5.79742e-05 0.00016989 -0.0877976)
(0.00014833 0.000162053 -0.0899345)
(0.000115701 0.0001891 -0.089654)
(-0.000254472 0.000197135 -0.0888322)
(-0.000343082 0.000172365 -0.0898858)
(-0.000236937 0.000149856 -0.0915225)
(-7.23178e-05 0.00013825 -0.0924704)
(8.3944e-05 0.000140962 -0.0925081)
(0.000158021 0.000152768 -0.0920031)
(-3.97608e-06 0.000159998 -0.103455)
(0.000252356 0.000186887 -0.101369)
(0.000198542 0.000218061 -0.0970063)
(-6.76401e-05 0.000205701 -0.096795)
(0.000166302 0.000195257 -0.0991176)
(0.000134186 0.00022761 -0.0987226)
(-0.000274834 0.000237766 -0.0978703)
(-0.000367065 0.000207746 -0.0990727)
(-0.000252241 0.00018 -0.100826)
(-7.65135e-05 0.000165833 -0.101798)
(9.49902e-05 0.000168969 -0.101808)
(0.000170616 0.000182918 -0.101298)
(-1.37268e-05 0.000186714 -0.112669)
(0.000233864 0.000218852 -0.110505)
(0.000188804 0.000257901 -0.105805)
(-7.69538e-05 0.000244278 -0.105637)
(0.000186194 0.000230748 -0.108127)
(0.000155186 0.000268968 -0.107602)
(-0.000293723 0.000281529 -0.106732)
(-0.000389514 0.000245649 -0.108086)
(-0.000266454 0.000212047 -0.109938)
(-7.99026e-05 0.000195079 -0.110926)
(0.000107824 0.000198702 -0.110909)
(0.000183542 0.000214958 -0.110398)
(-2.55068e-05 0.000214456 -0.121655)
(0.000208255 0.000252145 -0.11943)
(0.000174985 0.000300275 -0.114434)
(-8.54918e-05 0.000285455 -0.114319)
(0.000208221 0.000268341 -0.11696)
(0.00017879 0.000313072 -0.11629)
(-0.000311019 0.000328305 -0.115413)
(-0.000410652 0.000285912 -0.11692)
(-0.000279888 0.000245827 -0.118856)
(-8.25033e-05 0.000225817 -0.119853)
(0.000122693 0.00023 -0.119808)
(0.000197148 0.000248737 -0.119298)
(-3.92727e-05 0.000243135 -0.130415)
(0.000176292 0.000286606 -0.128144)
(0.000157889 0.000345052 -0.122895)
(-9.28144e-05 0.000329065 -0.122842)
(0.000232539 0.000307874 -0.125616)
(0.00020498 0.00035985 -0.124788)
(-0.000326591 0.000377999 -0.123911)
(-0.000430659 0.000328398 -0.125573)
(-0.000292842 0.000281198 -0.127581)
(-8.43205e-05 0.000257897 -0.128583)
(0.000139805 0.000262724 -0.12851)
(0.00021176 0.000284129 -0.127996)
(-5.49515e-05 0.000272704 -0.138952)
(0.00013886 0.000322122 -0.136648)
(0.000138407 0.00039211 -0.131191)
(-9.84793e-05 0.000374941 -0.131206)
(0.000259231 0.000349187 -0.134096)
(0.000233615 0.00040924 -0.133099)
(-0.000340292 0.000430521 -0.132225)
(-0.000449652 0.000372981 -0.134046)
(-0.000305581 0.000318035 -0.136113)
(-8.53391e-05 0.000291183 -0.137117)
(0.000159314 0.00029675 -0.137014)
(0.000227661 0.000321033 -0.136491)
(-7.24356e-05 0.00030315 -0.147269)
(9.69589e-05 0.000358614 -0.144946)
(0.000117497 0.000441323 -0.139323)
(-0.000102059 0.00042291 -0.139409)
(0.000288294 0.000392129 -0.142399)
(0.000264415 0.000461192 -0.141223)
(-0.000351968 0.000485795 -0.140355)
(-0.000467672 0.000419549 -0.142337)
(-0.000318322 0.000356228 -0.144452)
(-8.55201e-05 0.00032555 -0.145457)
(0.000181309 0.000331969 -0.145322)
(0.000245078 0.000359378 -0.144781)
(-9.15741e-05 0.000334458 -0.155363)
(5.16952e-05 0.000396011 -0.153037)
(9.61597e-05 0.000492547 -0.147292)
(-0.00010316 0.00047279 -0.147448)
(0.00031963 0.000436542 -0.150523)
(0.000296953 0.000515648 -0.14916)
(-0.000361456 0.000543744 -0.148298)
(-0.000484663 0.000467987 -0.150442)
(-0.000331209 0.000395662 -0.152598)
(-8.47985e-05 0.000360858 -0.153601)
(0.000205798 0.00036827 -0.153433)
(0.000264155 0.000399109 -0.152864)
(-0.000112165 0.000366596 -0.163231)
(4.27369e-06 0.000434219 -0.160918)
(7.54019e-05 0.00054561 -0.155094)
(-0.000101443 0.00052437 -0.155319)
(0.000353026 0.000482242 -0.158461)
(0.00033065 0.000572528 -0.156905)
(-0.000368594 0.000604274 -0.15605)
(-0.000500461 0.000518157 -0.158356)
(-0.000344299 0.000436191 -0.160544)
(-8.30852e-05 0.000396939 -0.161543)
(0.00023268 0.000405519 -0.161339)
(0.00028493 0.00044017 -0.160731)
(-0.000133954 0.000399493 -0.170859)
(-4.40286e-05 0.000473102 -0.16858)
(5.62011e-05 0.000600295 -0.16272)
(-9.66473e-05 0.000577406 -0.163011)
(0.000388151 0.000529014 -0.166202)
(0.00036478 0.000631713 -0.164452)
(-0.000373225 0.000667264 -0.163602)
(-0.000514787 0.000569886 -0.166068)
(-0.00035754 0.000477627 -0.168279)
(-8.0273e-05 0.00043358 -0.169272)
(0.000261734 0.000443548 -0.169031)
(0.000307312 0.000482491 -0.168372)
(-0.000156635 0.00043303 -0.178234)
(-9.19061e-05 0.000512466 -0.17601)
(3.94565e-05 0.000656322 -0.17016)
(-8.8613e-05 0.000631615 -0.17051)
(0.00042455 0.000576597 -0.173729)
(0.000398487 0.000693043 -0.171787)
(-0.000375203 0.000732554 -0.170943)
(-0.000527236 0.000622955 -0.173563)
(-0.000370758 0.000519723 -0.175788)
(-7.62469e-05 0.000470505 -0.176773)
(0.000292594 0.00048214 -0.176494)
(0.000331057 0.000525971 -0.175775)
(-0.000179858 0.000467037 -0.185337)
(-0.000138084 0.00055205 -0.18319)
(2.59382e-05 0.000713352 -0.177398)
(-7.73032e-05 0.000686663 -0.1778)
(0.000461647 0.000624683 -0.181023)
(0.000430821 0.000756301 -0.178897)
(-0.000374402 0.00079993 -0.178061)
(-0.000537293 0.000677087 -0.180822)
(-0.000383655 0.000562169 -0.183052)
(-7.08987e-05 0.000507379 -0.184027)
(0.00032475 0.000521029 -0.183709)
(0.000355764 0.000570471 -0.18292)
(-0.000203249 0.000501292 -0.192148)
(-0.000181387 0.00059153 -0.190101)
(1.62379e-05 0.000770975 -0.184413)
(-6.28207e-05 0.00074216 -0.184859)
(0.000498755 0.000672914 -0.188061)
(0.000460784 0.000821218 -0.185765)
(-0.000370721 0.000869117 -0.184938)
(-0.000544343 0.000731946 -0.187824)
(-0.00039581 0.000604595 -0.190046)
(-6.41453e-05 0.000543806 -0.191011)
(0.000357543 0.000559896 -0.190654)
(0.000380865 0.00061581 -0.189789)
(-0.000226425 0.00053553 -0.198646)
(-0.000220808 0.000630517 -0.19672)
(1.07268e-05 0.000828715 -0.191185)
(-4.54193e-05 0.000797654 -0.191663)
(0.000535099 0.000720889 -0.194818)
(0.000487388 0.000887464 -0.192371)
(-0.000364087 0.000939773 -0.191557)
(-0.000547701 0.000787134 -0.194546)
(-0.000406694 0.000646573 -0.196748)
(-5.59492e-05 0.000579337 -0.1977)
(0.000390177 0.000598381 -0.197306)
(0.000405646 0.000661762 -0.196362)
(-0.000249019 0.000569446 -0.204813)
(-0.000255565 0.000668571 -0.203026)
(9.52588e-06 0.000886027 -0.197689)
(-2.55058e-05 0.000852635 -0.198189)
(0.000569837 0.000768168 -0.201268)
(0.000509714 0.000954655 -0.198698)
(-0.00035445 0.00101149 -0.197901)
(-0.000546648 0.000842199 -0.200963)
(-0.000415698 0.000687632 -0.203132)
(-4.63388e-05 0.000613485 -0.204069)
(0.000421749 0.000636088 -0.203642)
(0.000429273 0.000708061 -0.202618)
(-0.000270701 0.000602705 -0.21063)
(-0.000285145 0.000705208 -0.208999)
(1.24938e-05 0.000942299 -0.203902)
(-3.63477e-06 0.000906543 -0.20441)
(0.000602086 0.00081429 -0.207387)
(0.000526976 0.00102235 -0.204726)
(-0.000341789 0.00108377 -0.203951)
(-0.000540473 0.00089664 -0.207053)
(-0.00042217 0.000727274 -0.209175)
(-3.54277e-05 0.000645737 -0.210094)
(0.00045127 0.000672597 -0.209639)
(0.000450832 0.000754406 -0.208538)
(-0.000291201 0.00063495 -0.216082)
(-0.000309321 0.000739914 -0.214618)
(1.9232e-05 0.00099687 -0.209797)
(1.95061e-05 0.000958772 -0.210302)
(0.000630955 0.000858779 -0.213151)
(0.000538571 0.00109006 -0.210437)
(-0.000326099 0.00115606 -0.209691)
(-0.00052852 0.000949923 -0.212795)
(-0.000425452 0.000764987 -0.214853)
(-2.34277e-05 0.00067558 -0.215753)
(0.000477711 0.000707483 -0.215277)
(0.000469377 0.000800463 -0.214107)
(-0.000310326 0.00066581 -0.221156)
(-0.000328157 0.000772159 -0.219867)
(2.91084e-05 0.00104904 -0.215354)
(4.31173e-05 0.00100869 -0.21584)
(0.000655568 0.000901164 -0.218539)
(0.000544119 0.00115724 -0.215816)
(-0.00030739 0.00122775 -0.215104)
(-0.000510236 0.00100149 -0.218168)
(-0.000424934 0.000800273 -0.220147)
(-1.06569e-05 0.000702514 -0.221026)
(0.000500042 0.000740321 -0.220539)
(0.000483986 0.000845876 -0.21931)
(-0.000327972 0.000694905 -0.225845)
(-0.00034198 0.00080141 -0.224733)
(4.12958e-05 0.00109807 -0.220549)
(6.63143e-05 0.00105565 -0.221005)
(0.000675095 0.00094099 -0.223535)
(0.00054349 0.00122333 -0.220849)
(-0.000285677 0.00129815 -0.220177)
(-0.000485205 0.00105077 -0.223159)
(-0.00042009 0.000832662 -0.225043)
(2.46138e-06 0.000726081 -0.225897)
(0.00051728 0.000770709 -0.225408)
(0.000493814 0.00089027 -0.224138)
(-0.000344132 0.00072186 -0.230141)
(-0.000351348 0.00082715 -0.229205)
(5.48215e-05 0.00114324 -0.225367)
(8.8158e-05 0.00109904 -0.225781)
(0.000688767 0.000977832 -0.228127)
(0.0005368 0.00128771 -0.225525)
(-0.000260982 0.00136654 -0.224899)
(-0.000453189 0.00109722 -0.227755)
(-0.000410522 0.000861737 -0.229528)
(1.54089e-05 0.000745881 -0.230355)
(0.000528529 0.000798276 -0.229877)
(0.000498146 0.000933257 -0.228583)
(-0.000358899 0.000746313 -0.234044)
(-0.000357004 0.000848895 -0.233276)
(6.86212e-05 0.00118384 -0.229793)
(0.000107687 0.00113824 -0.230156)
(0.000695902 0.00101131 -0.232309)
(0.000524394 0.00134976 -0.229835)
(-0.000233327 0.00143216 -0.229262)
(-0.000414147 0.0011403 -0.231949)
(-0.000395989 0.000887154 -0.233596)
(2.75908e-05 0.0007616 -0.234392)
(0.000533021 0.000822697 -0.233939)
(0.000496442 0.000974441 -0.232642)
(-0.000372456 0.000767926 -0.237557)
(-0.000359819 0.000866214 -0.236947)
(8.15933e-05 0.00121922 -0.233819)
(0.000123949 0.00117273 -0.234124)
(0.000695916 0.00104111 -0.236078)
(0.000506811 0.00140885 -0.233776)
(-0.000202745 0.00149423 -0.233261)
(-0.000368244 0.00117952 -0.23574)
(-0.000376433 0.000908661 -0.237247)
(3.83621e-05 0.000773024 -0.238009)
(0.000530154 0.000843707 -0.237595)
(0.000488365 0.00101343 -0.236318)
(-0.000385075 0.000786397 -0.240687)
(-0.000360738 0.000878748 -0.240221)
(9.26471e-05 0.00124879 -0.237442)
(0.000136038 0.00120205 -0.237684)
(0.000688341 0.00106695 -0.239439)
(0.000484732 0.00146433 -0.237348)
(-0.000169278 0.00155197 -0.236893)
(-0.00031586 0.00121447 -0.239129)
(-0.000351984 0.000926114 -0.240485)
(4.70605e-05 0.000780056 -0.241211)
(0.000519514 0.000861106 -0.240849)
(0.000473806 0.00104983 -0.239614)
(-0.0003971 0.000801469 -0.243446)
(-0.000360736 0.000886222 -0.243107)
(0.000100747 0.00127209 -0.240664)
(0.00014312 0.00122582 -0.240841)
(0.000672839 0.00108866 -0.242402)
(0.000458921 0.0015156 -0.240553)
(-0.000132998 0.00160462 -0.240161)
(-0.000257573 0.0012448 -0.242126)
(-0.000322966 0.00093949 -0.24332)
(5.30431e-05 0.000782729 -0.244008)
(0.000500894 0.000874773 -0.243712)
(0.000452882 0.00108329 -0.242541)
(-0.000408931 0.00081294 -0.245849)
(-0.000360771 0.000888464 -0.245618)
(0.000104943 0.00128877 -0.243494)
(0.000144468 0.00124379 -0.243607)
(0.000649217 0.00110609 -0.244983)
(0.000430166 0.00156206 -0.243399)
(-9.40157e-05 0.00165148 -0.243071)
(-0.000194149 0.00127026 -0.244742)
(-0.000289881 0.00094889 -0.245769)
(5.57242e-05 0.00078121 -0.246417)
(0.000474304 0.000884662 -0.2462)
(0.000425932 0.00111344 -0.245111)
(-0.000421001 0.000820672 -0.247915)
(-0.000361747 0.000885407 -0.247774)
(0.000104399 0.00129863 -0.245947)
(0.000139493 0.00125585 -0.245999)
(0.00061744 0.00111921 -0.247203)
(0.00039922 0.00160318 -0.245898)
(-5.25008e-05 0.0016919 -0.245631)
(-0.000126519 0.00129068 -0.246996)
(-0.000253394 0.000954534 -0.247852)
(5.46136e-05 0.000775787 -0.248462)
(0.000439975 0.000890805 -0.248333)
(0.000393489 0.00113998 -0.247342)
(-0.000433754 0.000824583 -0.249666)
(-0.000364486 0.000877091 -0.249598)
(9.84114e-05 0.00130162 -0.248041)
(0.000127764 0.00126197 -0.248038)
(0.000577649 0.001128 -0.249084)
(0.000366759 0.00163846 -0.248064)
(-8.70062e-06 0.00172532 -0.247855)
(-5.57606e-05 0.00130601 -0.248908)
(-0.000214311 0.000956751 -0.249595)
(4.93542e-05 0.000766861 -0.250168)
(0.00039836 0.000893299 -0.250135)
(0.000356259 0.00116261 -0.249253)
(-0.000447606 0.000824673 -0.251129)
(-0.000369698 0.000863654 -0.251114)
(8.64274e-05 0.00129784 -0.249802)
(0.000109043 0.00126228 -0.249749)
(0.000530181 0.00113251 -0.250656)
(0.000333346 0.00166747 -0.249917)
(3.70392e-05 0.00175126 -0.249758)
(1.69179e-05 0.00131631 -0.250504)
(-0.000173556 0.000955993 -0.251027)
(3.97594e-05 0.000754938 -0.251564)
(0.000350132 0.000892299 -0.251634)
(0.00031508 0.00118109 -0.250868)
(-0.000462899 0.00082105 -0.252328)
(-0.000377946 0.000845366 -0.252352)
(6.8074e-05 0.00128753 -0.251257)
(8.33131e-05 0.001257 -0.251161)
(0.000475596 0.00113288 -0.251948)
(0.000299424 0.00168989 -0.251476)
(8.42546e-05 0.00176942 -0.25136)
(9.01887e-05 0.00132177 -0.25181)
(-0.000132144 0.000952836 -0.252179)
(2.58524e-05 0.000740667 -0.252684)
(0.000296189 0.000888043 -0.252857)
(0.000270895 0.00119526 -0.25221)
(-0.000479872 0.00081391 -0.253292)
(-0.00038961 0.000822696 -0.253343)
(4.31955e-05 0.0012711 -0.252436)
(5.08189e-05 0.0012465 -0.252307)
(0.000414727 0.00112932 -0.25299)
(0.000265319 0.00170549 -0.252765)
(0.000132333 0.00177962 -0.252683)
(0.00016275 0.00132271 -0.252857)
(-9.10382e-05 0.000947891 -0.253086)
(7.84155e-06 0.000724741 -0.253564)
(0.000237677 0.000880869 -0.253837)
(0.00022473 0.00120499 -0.253305)
(-0.000498693 0.000803495 -0.254054)
(-0.000404849 0.0007961 -0.254119)
(1.19058e-05 0.00124915 -0.253372)
(1.21186e-05 0.00123129 -0.253216)
(0.000348531 0.00112205 -0.253815)
(0.000231215 0.00171416 -0.253811)
(0.000180639 0.00178187 -0.253752)
(0.000233383 0.0013195 -0.25368)
(-5.11354e-05 0.000941787 -0.253785)
(-1.39239e-05 0.000707838 -0.254239)
(0.000175737 0.000871108 -0.254605)
(0.000177531 0.00121026 -0.254182)
(-0.000519363 0.000790075 -0.254643)
(-0.000423624 0.000766071 -0.254716)
(-2.54852e-05 0.00122233 -0.254101)
(-3.2142e-05 0.00121191 -0.253926)
(0.000278008 0.00111133 -0.254457)
(0.000197177 0.00171588 -0.254642)
(0.000228482 0.00177627 -0.254597)
(0.000300824 0.00131255 -0.254309)
(-1.33204e-05 0.000935136 -0.254308)
(-3.88937e-05 0.000690632 -0.254745)
(0.000111503 0.000859092 -0.255197)
(0.00013017 0.00121107 -0.254872)
(-0.000541673 0.000773964 -0.255086)
(-0.000445678 0.000733204 -0.255163)
(-6.84623e-05 0.00119132 -0.254656)
(-8.11992e-05 0.0011889 -0.254469)
(0.000204314 0.00109737 -0.254947)
(0.000163229 0.00171067 -0.255284)
(0.000275002 0.00176302 -0.255244)
(0.000363881 0.00130233 -0.254773)
(2.16668e-05 0.000928506 -0.254687)
(-6.6357e-05 0.00067374 -0.255113)
(4.62523e-05 0.000845154 -0.25564)
(8.35141e-05 0.00120741 -0.255401)
(-0.00056526 0.000755498 -0.255408)
(-0.000470546 0.000698049 -0.255488)
(-0.000116226 0.00115687 -0.255068)
(-0.000134021 0.00116284 -0.254876)
(0.000128659 0.00108043 -0.255311)
(0.000129351 0.00169867 -0.255765)
(0.000319307 0.00174245 -0.255718)
(0.000421576 0.00128933 -0.255102)
(5.32795e-05 0.000922407 -0.25495)
(-9.55283e-05 0.000657698 -0.255369)
(-1.88025e-05 0.000829606 -0.255962)
(3.82824e-05 0.00119935 -0.255794)
(-0.000589615 0.000735027 -0.255634)
(-0.000497598 0.000661164 -0.255716)
(-0.000167811 0.0011197 -0.255367)
(-0.000189536 0.00113426 -0.255173)
(5.21938e-05 0.00106078 -0.255574)
(9.54931e-05 0.00168011 -0.256109)
(0.000360567 0.00171504 -0.256048)
(0.000473172 0.00127402 -0.255321)
(8.11791e-05 0.000917268 -0.255123)
(-0.000125605 0.000642961 -0.25554)
(-8.25797e-05 0.000812738 -0.256187)
(-4.97564e-06 0.00118701 -0.256075)
(-0.000614128 0.000712898 -0.255783)
(-0.000526093 0.000623082 -0.255868)
(-0.000222144 0.00108051 -0.255576)
(-0.000246689 0.0011037 -0.255385)
(-2.40635e-05 0.00103866 -0.255758)
(6.1599e-05 0.0016553 -0.256342)
(0.00039806 0.00168129 -0.256258)
(0.000518192 0.00125686 -0.255454)
(0.000105239 0.000913415 -0.255226)
(-0.000155833 0.000629885 -0.255645)
(-0.000144193 0.000794813 -0.256335)
(-4.58885e-05 0.00117053 -0.256267)
(-0.000638134 0.000689445 -0.255873)
(-0.000555241 0.000584288 -0.255963)
(-0.000278134 0.00103995 -0.255718)
(-0.000304533 0.00107164 -0.255532)
(-9.92954e-05 0.00101432 -0.255879)
(2.76145e-05 0.00162461 -0.256484)
(0.000431214 0.00164177 -0.256372)
(0.000556425 0.00123826 -0.25552)
(0.000125519 0.000911074 -0.255278)
(-0.000185559 0.000618719 -0.255701)
(-0.00020299 0.000776065 -0.256423)
(-8.42684e-05 0.00115008 -0.256386)
(-0.000660988 0.000664968 -0.255916)
(-0.000584261 0.000545199 -0.256014)
(-0.000334755 0.000998586 -0.255808)
(-0.000362295 0.00103851 -0.255629)
(-0.000172913 0.000988 -0.255953)
(-6.51348e-06 0.00158843 -0.256554)
(0.000459643 0.00159704 -0.256409)
(0.000587885 0.00121854 -0.255535)
(0.00014222 0.000910366 -0.255292)
(-0.000214259 0.000609619 -0.255719)
(-0.000258555 0.00075669 -0.256465)
(-0.000120097 0.00112584 -0.256449)
(-0.000682126 0.000639714 -0.255924)
(-0.00061242 0.000506184 -0.256032)
(-0.000391115 0.000956922 -0.25586)
(-0.000419411 0.00100468 -0.255689)
(-0.000244609 0.000959906 -0.255989)
(-4.08451e-05 0.00154714 -0.256567)
(0.000483135 0.00154761 -0.256386)
(0.000612736 0.00119795 -0.255512)
(0.000155624 0.000911324 -0.255278)
(-0.000241536 0.000602664 -0.255709)
(-0.000310674 0.000736849 -0.256471)
(-0.000153493 0.001098 -0.256467)
(-0.000701068 0.00061389 -0.255905)
(-0.00063906 0.000467551 -0.256026)
(-0.000446472 0.000915375 -0.255885)
(-0.000475517 0.00097045 -0.255722)
(-0.000314339 0.000930212 -0.255997)
(-7.54636e-05 0.00150106 -0.256537)
(0.000501606 0.00149394 -0.256316)
(0.000631188 0.00117672 -0.255459)
(0.000166042 0.000913911 -0.255242)
(-0.000267114 0.000597878 -0.255678)
(-0.000359266 0.000716676 -0.256448)
(-0.000184669 0.00106674 -0.256451)
(-0.000717414 0.000587665 -0.255866)
(-0.000663606 0.000429547 -0.256002)
(-0.00050023 0.0008743 -0.25589)
(-0.000530402 0.000936088 -0.255734)
(-0.000382239 0.000899073 -0.255982)
(-0.000110488 0.00145044 -0.256471)
(0.000515004 0.00143607 -0.256208)
(0.000643369 0.0011549 -0.255382)
(0.000173755 0.000918013 -0.25519)
(-0.000290822 0.00059521 -0.255629)
(-0.000404306 0.000696273 -0.256403)
(-0.000213876 0.00103217 -0.256408)
(-0.000730831 0.000561198 -0.255811)
(-0.000685555 0.000392371 -0.255963)
(-0.000551898 0.000834003 -0.255879)
(-0.000583945 0.000901822 -0.255731)
(-0.000448538 0.000866625 -0.255949)
(-0.00014611 0.00139553 -0.256377)
(0.000523367 0.00137539 -0.25607)
(0.000649354 0.00113242 -0.255287)
(0.000178967 0.000923389 -0.255124)
(-0.000312515 0.000594499 -0.255566)
(-0.000445744 0.000675677 -0.256339)
(-0.000241347 0.0009944 -0.256342)
(-0.000741016 0.000534536 -0.255741)
(-0.000704451 0.000356196 -0.255914)
(-0.00060105 0.000794752 -0.255857)
(-0.00063604 0.000867864 -0.255716)
(-0.000513464 0.000832971 -0.2559)
(-0.000182603 0.00133778 -0.25626)
(0.000526575 0.00131149 -0.255905)
(0.000649218 0.00110911 -0.255178)
(0.000181889 0.000929716 -0.255048)
(-0.000331862 0.000595502 -0.255491)
(-0.000483405 0.000654868 -0.256259)
(-0.000267234 0.00095359 -0.256257)
(-0.000747597 0.000507641 -0.255661)
(-0.000719857 0.000321182 -0.255857)
(-0.000647281 0.000756796 -0.255827)
(-0.000686524 0.00083441 -0.255692)
(-0.000576985 0.00079816 -0.255839)
(-0.000220367 0.00127597 -0.256119)
(0.000523619 0.00124284 -0.255712)
(0.000642885 0.00108519 -0.25506)
(0.000182904 0.000936535 -0.254964)
(-0.000348189 0.000597905 -0.255407)
(-0.000516954 0.000634232 -0.256166)
(-0.000291595 0.000910616 -0.256155)
(-0.000750058 0.000480413 -0.25557)
(-0.000731326 0.000287433 -0.255793)
(-0.000690175 0.000720368 -0.255792)
(-0.00073512 0.000801626 -0.255661)
(-0.000638413 0.000762492 -0.255769)
(-0.000259354 0.00120922 -0.255953)
(0.000512832 0.00117074 -0.255497)
(0.000629719 0.00106016 -0.254936)
(0.000182151 0.000943478 -0.254876)
(-0.000361412 0.000601457 -0.255315)
(-0.000546371 0.000613609 -0.256059)
(-0.000314468 0.000864553 -0.256034)
(-0.000747756 0.000453084 -0.255473)
(-0.000738397 0.000255102 -0.255725)
(-0.000729302 0.000685686 -0.255752)
(-0.000781378 0.000769686 -0.255625)
(-0.000697185 0.000726308 -0.255691)
(-0.000298797 0.00113977 -0.255766)
(0.000493007 0.00109624 -0.255268)
(0.000608859 0.00103357 -0.254806)
(0.000179542 0.000950243 -0.254783)
(-0.000371071 0.000606043 -0.255215)
(-0.000570932 0.00059264 -0.255936)
(-0.000335547 0.000814938 -0.255892)
(-0.000740303 0.000425405 -0.255369)
(-0.000740648 0.000224356 -0.255654)
(-0.000764216 0.000652993 -0.255711)
(-0.000824643 0.000738822 -0.255587)
(-0.00075337 0.000689299 -0.255605)
(-0.000338179 0.00106791 -0.255567)
(0.000463487 0.00101963 -0.255034)
(0.000580562 0.00100574 -0.254677)
(0.000175428 0.000956365 -0.254689)
(-0.000375913 0.00061142 -0.255111)
(-0.000588999 0.000571735 -0.255799)
(-0.00035444 0.000763365 -0.255732)
(-0.000727075 0.000397152 -0.255258)
(-0.000737696 0.000195363 -0.255581)
(-0.000794479 0.00062252 -0.255669)
(-0.000864162 0.000709214 -0.255546)
(-0.000806273 0.000651624 -0.255514)
(-0.000377301 0.000993904 -0.255359)
(0.000424064 0.000941295 -0.254802)
(0.000545432 0.000976435 -0.254552)
(0.00017042 0.000961334 -0.254597)
(-0.000374961 0.000617268 -0.255005)
(-0.000599104 0.000551183 -0.255652)
(-0.000370835 0.000710255 -0.255562)
(-0.000707164 0.000368705 -0.255141)
(-0.000729166 0.000168303 -0.255506)
(-0.000819625 0.000594462 -0.255627)
(-0.000899255 0.000681033 -0.255505)
(-0.000854385 0.000613974 -0.255418)
(-0.000415934 0.000918236 -0.255148)
(0.000374951 0.000861665 -0.254576)
(0.000504201 0.000945298 -0.254434)
(0.000165074 0.000964623 -0.254509)
(-0.000367678 0.000623194 -0.254899)
(-0.000600423 0.000530982 -0.2555)
(-0.000384437 0.000656078 -0.255385)
(-0.000679824 0.000340122 -0.25502)
(-0.000714709 0.000143347 -0.25543)
(-0.000839107 0.000568986 -0.255585)
(-0.000929277 0.000654383 -0.255464)
(-0.000896546 0.00057645 -0.255321)
(-0.000453709 0.000841502 -0.254938)
(0.000316765 0.000781204 -0.254362)
(0.000457649 0.000911949 -0.254324)
(0.000159896 0.00096564 -0.254426)
(-0.000353959 0.000628755 -0.254796)
(-0.000592701 0.000511181 -0.255347)
(-0.000394953 0.000601545 -0.255206)
(-0.000644572 0.000311403 -0.254896)
(-0.000694067 0.000120647 -0.255352)
(-0.000852309 0.000546201 -0.255542)
(-0.000953566 0.000629297 -0.255422)
(-0.000931861 0.000539155 -0.255224)
(-0.00049011 0.000764311 -0.254733)
(0.000250534 0.000700354 -0.254161)
(0.000406537 0.000875979 -0.254222)
(0.000155335 0.000963814 -0.25435)
(-0.000334091 0.000633496 -0.254696)
(-0.000576156 0.000491858 -0.255196)
(-0.000402091 0.000547467 -0.255028)
(-0.000601235 0.00028255 -0.254769)
(-0.000667143 0.000100399 -0.255273)
(-0.000858617 0.000526163 -0.255499)
(-0.000971441 0.000605749 -0.25538)
(-0.000959581 0.000502245 -0.255129)
(-0.000524458 0.000687295 -0.254536)
(0.000177671 0.000619514 -0.253978)
(0.00035157 0.000836963 -0.254129)
(0.000151519 0.000958656 -0.25428)
(-0.00030868 0.000636952 -0.254603)
(-0.000551443 0.000473063 -0.25505)
(-0.000405589 0.000494648 -0.254857)
(-0.000550001 0.00025355 -0.254642)
(-0.000633695 8.26387e-05 -0.255191)
(-0.000857538 0.000508907 -0.255456)
(-0.0009822 0.000583666 -0.255338)
(-0.000979042 0.000465855 -0.255035)
(-0.000555913 0.000611069 -0.25435)
(9.9969e-05 0.000539088 -0.253813)
(0.000293299 0.000794498 -0.254045)
(0.00014833 0.000949555 -0.254215)
(-0.000278426 0.000638696 -0.254515)
(-0.000519602 0.000454811 -0.254913)
(-0.000405266 0.000443848 -0.254695)
(-0.000491486 0.00022435 -0.254515)
(-0.000593353 6.73197e-05 -0.255108)
(-0.00084874 0.000494427 -0.255412)
(-0.00098513 0.000562971 -0.255296)
(-0.000989654 0.000430088 -0.254945)
(-0.000583497 0.000536211 -0.25418)
(1.95748e-05 0.000459499 -0.253669)
(0.000232212 0.000748231 -0.253967)
(0.000145734 0.000935913 -0.254154)
(-0.000244037 0.000638416 -0.254434)
(-0.000481979 0.000437114 -0.254787)
(-0.000401077 0.000395712 -0.254547)
(-0.000426831 0.000194881 -0.254389)
(-0.000546387 5.45045e-05 -0.255021)
(-0.000832072 0.000482669 -0.255368)
(-0.000979577 0.000543563 -0.255254)
(-0.000990895 0.000395 -0.254859)
(-0.00060616 0.000463266 -0.254028)
(-6.10632e-05 0.00038121 -0.253545)
(0.000168862 0.000697898 -0.253898)
(0.000143698 0.000917218 -0.254096)
(-0.00020609 0.000635868 -0.254359)
(-0.000440033 0.000420064 -0.254674)
(-0.000393194 0.000350672 -0.254414)
(-0.00035773 0.000165079 -0.254268)
(-0.000493753 4.41301e-05 -0.254933)
(-0.000807555 0.000473519 -0.255323)
(-0.000964988 0.000525305 -0.255212)
(-0.000982327 0.000360617 -0.254778)
(-0.000622885 0.000392725 -0.253895)
(-0.000139335 0.000304676 -0.253443)
(0.000103972 0.000643366 -0.253835)
(0.000142041 0.000893003 -0.254042)
(-0.000165094 0.00063082 -0.254288)
(-0.000395031 0.000403936 -0.254573)
(-0.000382088 0.00030911 -0.254299)
(-0.00028639 0.000134886 -0.254152)
(-0.000436769 3.5962e-05 -0.254843)
(-0.000775366 0.000466751 -0.255277)
(-0.00094094 0.000508024 -0.25517)
(-0.000963636 0.000327008 -0.254703)
(-0.000632803 0.000324973 -0.253782)
(-0.000212684 0.000230208 -0.253361)
(3.84582e-05 0.00058464 -0.253779)
(0.000140488 0.000862864 -0.253992)
(-0.000121699 0.000623079 -0.254222)
(-0.000347472 0.000388717 -0.254483)
(-0.000368518 0.000272091 -0.254203)
(-0.00021539 0.000104234 -0.254045)
(-0.000377062 2.96464e-05 -0.254754)
(-0.000735814 0.000462013 -0.25523)
(-0.000907151 0.000491505 -0.255128)
(-0.000934716 0.000294276 -0.254634)
(-0.000635322 0.000260298 -0.253691)
(-0.000278786 0.000158177 -0.253299)
(-2.65592e-05 0.000521888 -0.253731)
(0.00013863 0.00082647 -0.253945)
(-7.66655e-05 0.000612432 -0.254162)
(-0.000297618 0.000374466 -0.254401)
(-0.000352869 0.000239143 -0.254122)
(-0.000147455 7.33486e-05 -0.253948)