/*--------------------------------*- C++ -*----------------------------------*\
| =========                 |                                                 |
| \\      /  F ield         | OpenFOAM: The Open Source CFD Toolbox           |
|  \\    /   O peration     | Version:  v1912                                 |
|   \\  /    A nd           | Website:  www.openfoam.com                      |
|    \\/     M anipulation  |                                                 |
\*---------------------------------------------------------------------------*/
FoamFile
{
    version     2.0;
    format      ascii;
    class       volSymmTensorField;
    location    "9.6";
    object      UPrime2Mean;
}
// * * * * * * * * * * * * * * * * * * * * * * * * * * * * * * * * * * * * * //

dimensions      [0 2 -2 0 0 0 0];


internalField   nonuniform List<symmTensor> 
34128
(
(1.31347e-10 2.89674e-12 3.74409e-10 1.7078e-10 1.3556e-08 8.3051e-06)
(1.71649e-10 3.4536e-12 7.00426e-10 1.70786e-10 1.35635e-08 8.30438e-06)
(1.80931e-10 3.29177e-12 1.03679e-09 1.70816e-10 1.3576e-08 8.31855e-06)
(1.75757e-10 1.61224e-12 1.26407e-11 1.7081e-10 1.3575e-08 8.32099e-06)
(2.08999e-10 1.10918e-12 -1.20426e-10 1.70816e-10 1.35572e-08 8.30212e-06)
(1.31204e-10 1.32514e-12 2.50825e-10 1.70793e-10 1.35445e-08 8.29432e-06)
(1.62456e-10 1.60457e-12 5.54126e-10 1.70805e-10 1.35468e-08 8.29372e-06)
(1.86165e-10 2.55713e-12 1.05641e-09 1.70802e-10 1.35636e-08 8.31105e-06)
(1.48465e-10 1.57144e-12 3.55047e-10 1.70816e-10 1.35911e-08 8.33423e-06)
(1.18814e-10 8.86346e-13 -2.14964e-10 1.70815e-10 1.35784e-08 8.32366e-06)
(1.36992e-10 9.24625e-13 -3.7174e-10 1.70792e-10 1.35535e-08 8.30133e-06)
(1.52878e-10 2.15068e-12 1.24361e-10 1.70784e-10 1.35598e-08 8.29516e-06)
(1.10237e-09 -1.43284e-11 4.41018e-09 3.78829e-10 -5.65555e-08 2.92103e-05)
(1.45109e-09 -1.69e-11 6.79473e-09 3.78521e-10 -5.66219e-08 2.92009e-05)
(1.5365e-09 -9.06939e-12 9.2606e-09 3.78344e-10 -5.65442e-08 2.93072e-05)
(1.49617e-09 -5.48414e-12 1.68033e-09 3.78432e-10 -5.64785e-08 2.93283e-05)
(1.76505e-09 5.05003e-13 4.78041e-10 3.78433e-10 -5.6524e-08 2.9189e-05)
(1.1217e-09 7.39618e-13 3.1591e-09 3.78593e-10 -5.65753e-08 2.91369e-05)
(1.38518e-09 -3.822e-12 4.84871e-09 3.7852e-10 -5.65743e-08 2.91321e-05)
(1.58328e-09 -1.23333e-12 7.95531e-09 3.78493e-10 -5.6516e-08 2.92545e-05)
(1.26652e-09 1.93511e-13 3.10789e-09 3.78408e-10 -5.64617e-08 2.94212e-05)
(1.01577e-09 2.06307e-13 -2.19345e-09 3.78435e-10 -5.64913e-08 2.93467e-05)
(1.16092e-09 -1.13645e-12 -3.25558e-09 3.78629e-10 -5.65238e-08 2.91881e-05)
(1.2913e-09 -7.67338e-12 -4.10759e-10 3.78586e-10 -5.65296e-08 2.91428e-05)
(2.92178e-09 4.49803e-12 9.15465e-09 1.8779e-10 5.90136e-08 5.26795e-05)
(3.87215e-09 3.38002e-12 1.469e-08 1.87037e-10 5.88553e-08 5.26532e-05)
(4.1148e-09 2.85501e-11 2.07912e-08 1.88054e-10 5.94298e-08 5.29147e-05)
(4.01359e-09 8.37422e-12 2.30611e-09 1.88815e-10 5.9679e-08 5.29674e-05)
(4.70594e-09 2.1659e-11 -1.63144e-10 1.879e-10 5.91197e-08 5.26249e-05)
(3.01996e-09 2.45767e-11 6.96816e-09 1.87632e-10 5.87772e-08 5.25073e-05)
(3.7205e-09 1.02753e-11 1.068e-08 1.87187e-10 5.87623e-08 5.24937e-05)
(4.24311e-09 3.57437e-11 1.82274e-08 1.88023e-10 5.93161e-08 5.27789e-05)
(3.40431e-09 2.20917e-11 7.25356e-09 1.89031e-10 5.99773e-08 5.31762e-05)
(2.73708e-09 6.21572e-12 -6.59057e-09 1.88589e-10 5.96949e-08 5.30008e-05)
(3.10456e-09 -3.10187e-12 -8.90015e-09 1.88072e-10 5.91022e-08 5.26232e-05)
(3.44384e-09 -3.2997e-12 -2.63993e-09 1.87747e-10 5.89469e-08 5.25131e-05)
(5.48367e-09 -2.70564e-11 1.39723e-08 1.01209e-10 -3.81203e-08 7.46609e-05)
(7.31847e-09 -3.77038e-11 2.31481e-08 9.65968e-11 -3.86675e-08 7.46149e-05)
(7.80318e-09 3.49397e-11 3.38451e-08 9.84395e-11 -3.73744e-08 7.50742e-05)
(7.62221e-09 4.20127e-12 1.12714e-09 1.01236e-10 -3.66956e-08 7.51648e-05)
(8.88422e-09 4.68924e-11 -2.3632e-09 9.88405e-11 -3.79389e-08 7.45631e-05)
(5.75627e-09 5.15611e-11 1.08299e-08 9.89755e-11 -3.86279e-08 7.43756e-05)
(7.07356e-09 9.20647e-12 1.63613e-08 9.7394e-11 -3.86986e-08 7.43487e-05)
(8.05011e-09 6.65457e-11 2.97586e-08 9.92586e-11 -3.75229e-08 7.482e-05)
(6.47988e-09 4.62542e-11 1.2088e-08 1.01588e-10 -3.61599e-08 7.54949e-05)
(5.2243e-09 1.38121e-11 -1.28195e-08 1.0077e-10 -3.67232e-08 7.52021e-05)
(5.87987e-09 -1.02821e-11 -1.64956e-08 1.00659e-10 -3.78972e-08 7.45601e-05)
(6.5047e-09 -3.03161e-11 -5.98757e-09 9.95699e-11 -3.82779e-08 7.43698e-05)
(8.69102e-09 -2.88404e-11 1.89014e-08 6.75453e-11 4.00875e-08 9.35531e-05)
(1.16835e-08 -4.6598e-11 3.17869e-08 5.64304e-11 3.90137e-08 9.3491e-05)
(1.24969e-08 9.89985e-11 4.75293e-08 6.34609e-11 4.16523e-08 9.41742e-05)
(1.22229e-08 1.72121e-11 -2.03558e-09 7.12584e-11 4.29557e-08 9.43028e-05)
(1.41623e-08 9.75247e-11 -6.01188e-09 6.3591e-11 4.02733e-08 9.34074e-05)
(9.26509e-09 1.08338e-10 1.44276e-08 6.25178e-11 3.89427e-08 9.31581e-05)
(1.13547e-08 2.74458e-11 2.09056e-08 5.82431e-11 3.87734e-08 9.31142e-05)
(1.28964e-08 1.53278e-10 4.12003e-08 6.46308e-11 4.11707e-08 9.37687e-05)
(1.04182e-08 1.0197e-10 1.7206e-08 7.26506e-11 4.4057e-08 9.47373e-05)
(8.42478e-09 2.6645e-11 -2.03953e-08 6.97273e-11 4.29004e-08 9.4326e-05)
(9.40627e-09 -2.38174e-11 -2.54578e-08 6.72647e-11 4.03626e-08 9.34033e-05)
(1.03765e-08 -5.06208e-11 -1.0083e-08 6.40388e-11 3.9528e-08 9.31258e-05)
(1.24553e-08 -4.59184e-11 2.38094e-08 1.50407e-10 6.32958e-08 0.000108781)
(1.68693e-08 -7.78822e-11 4.01982e-08 1.25919e-10 6.14279e-08 0.000108711)
(1.80986e-08 1.78032e-10 6.10975e-08 1.41985e-10 6.58967e-08 0.000109631)
(1.77234e-08 2.78449e-11 -7.3455e-09 1.59235e-10 6.80669e-08 0.000109793)
(2.04125e-08 1.65076e-10 -1.1059e-08 1.41933e-10 6.33833e-08 0.000108586)
(1.34842e-08 1.83695e-10 1.75197e-08 1.39043e-10 6.13167e-08 0.000108292)
(1.64792e-08 4.4556e-11 2.36495e-08 1.29848e-10 6.09766e-08 0.000108228)
(1.86817e-08 2.67861e-10 5.16666e-08 1.44044e-10 6.48941e-08 0.000109045)
(1.51508e-08 1.79034e-10 2.23261e-08 1.62332e-10 6.97713e-08 0.000110301)
(1.22912e-08 4.15236e-11 -2.89091e-08 1.56033e-10 6.78772e-08 0.000109781)
(1.36106e-08 -4.69879e-11 -3.52705e-08 1.49675e-10 6.35653e-08 0.000108583)
(1.49699e-08 -9.17724e-11 -1.4604e-08 1.42313e-10 6.2102e-08 0.000108217)
(1.66976e-08 -6.32479e-11 2.85543e-08 2.95789e-10 1.02896e-07 0.000120272)
(2.27874e-08 -1.15157e-10 4.80771e-08 2.49067e-10 1.00019e-07 0.000120203)
(2.45191e-08 2.90862e-10 7.41119e-08 2.81271e-10 1.06924e-07 0.000121363)
(2.40397e-08 3.97044e-11 -1.47211e-08 3.14529e-10 1.10186e-07 0.000121551)
(2.75176e-08 2.51126e-10 -1.73e-08 2.80319e-10 1.0278e-07 0.000120029)
(1.83555e-08 2.79901e-10 2.00848e-08 2.74014e-10 9.99095e-08 0.00011971)
(2.23688e-08 6.23985e-11 2.43507e-08 2.56626e-10 9.92986e-08 0.000119625)
(2.53139e-08 4.21297e-10 6.07632e-08 2.83895e-10 1.05061e-07 0.000120575)
(2.06162e-08 2.82836e-10 2.73026e-08 3.20183e-10 1.12515e-07 0.000122096)
(1.67821e-08 5.70013e-11 -3.80166e-08 3.08376e-10 1.09715e-07 0.000121482)
(1.84273e-08 -8.31621e-11 -4.55262e-08 2.94366e-10 1.03095e-07 0.000120029)
(2.02044e-08 -1.48554e-10 -1.93812e-08 2.7965e-10 1.00778e-07 0.000119579)
(2.13502e-08 -8.05658e-11 3.29911e-08 5.21858e-10 1.50623e-07 0.000128207)
(2.93611e-08 -1.58998e-10 5.5185e-08 4.40924e-10 1.46513e-07 0.000128149)
(3.16801e-08 4.40523e-10 8.63876e-08 4.99276e-10 1.56461e-07 0.000129542)
(3.10991e-08 5.00151e-11 -2.38439e-08 5.57381e-10 1.61022e-07 0.000129748)
(3.53742e-08 3.53594e-10 -2.43817e-08 4.95959e-10 1.50121e-07 0.000127919)
(2.38271e-08 3.95e-10 2.2279e-08 4.84362e-10 1.46455e-07 0.000127596)
(2.89536e-08 7.64261e-11 2.31199e-08 4.54356e-10 1.45455e-07 0.00012749)
(3.27124e-08 6.13366e-10 6.84921e-08 5.01338e-10 1.5331e-07 0.00012854)
(2.6763e-08 4.14504e-10 3.21034e-08 5.66266e-10 1.63914e-07 0.000130297)
(2.18641e-08 7.04565e-11 -4.74123e-08 5.46395e-10 1.60058e-07 0.000129606)
(2.38005e-08 -1.35035e-10 -5.59074e-08 5.19309e-10 1.5062e-07 0.000127928)
(2.60101e-08 -2.23313e-10 -2.43804e-08 4.92596e-10 1.47224e-07 0.000127397)
(2.63592e-08 -9.57792e-11 3.69969e-08 8.51933e-10 2.06537e-07 0.000132887)
(3.65285e-08 -2.0751e-10 6.13397e-08 7.21628e-10 2.00983e-07 0.000132843)
(3.95175e-08 6.3132e-10 9.79228e-08 8.198e-10 2.1461e-07 0.000134459)
(3.88438e-08 5.56294e-11 -3.42154e-08 9.14075e-10 2.20669e-07 0.000134678)
(4.38965e-08 4.6953e-10 -3.18533e-08 8.11309e-10 2.05454e-07 0.000132556)
(2.98559e-08 5.26477e-10 2.43527e-08 7.92475e-10 2.01072e-07 0.000132247)
(3.61755e-08 8.14226e-11 2.02993e-08 7.44043e-10 1.99536e-07 0.00013212)
(4.08113e-08 8.43523e-10 7.51064e-08 8.18686e-10 2.0966e-07 0.000133241)
(3.35519e-08 5.74889e-10 3.67724e-08 9.26311e-10 2.23975e-07 0.000135201)
(2.7514e-08 7.87847e-11 -5.68172e-08 8.95422e-10 2.18932e-07 0.00013445)
(2.96856e-08 -2.04871e-10 -6.61667e-08 8.47729e-10 2.06198e-07 0.00013258)
(3.23295e-08 -3.1667e-10 -2.96498e-08 8.02654e-10 2.01486e-07 0.000131976)
(3.16859e-08 -1.07547e-10 4.04913e-08 1.30582e-09 2.67789e-07 0.000134654)
(4.42455e-08 -2.59553e-10 6.64133e-08 1.10761e-09 2.60562e-07 0.000134625)
(4.79841e-08 8.66273e-10 1.08821e-07 1.26339e-09 2.7851e-07 0.000136449)
(4.72337e-08 5.25961e-11 -4.52489e-08 1.40776e-09 2.86272e-07 0.000136678)
(5.3019e-08 5.9547e-10 -3.92405e-08 1.24507e-09 2.65906e-07 0.000134284)
(3.64103e-08 6.71327e-10 2.65604e-08 1.21752e-09 2.60956e-07 0.000134004)
(4.39905e-08 7.10324e-11 1.63232e-08 1.14323e-09 2.58704e-07 0.000133856)
(4.95618e-08 1.10964e-09 8.09536e-08 1.25435e-09 2.71214e-07 0.000135024)
(4.09591e-08 7.64265e-10 4.1388e-08 1.42232e-09 2.89771e-07 0.000137155)
(3.3722e-08 7.91483e-11 -6.59787e-08 1.37726e-09 2.8343e-07 0.000136356)
(3.60521e-08 -2.93832e-10 -7.61072e-08 1.29932e-09 2.66988e-07 0.000134329)
(3.91199e-08 -4.28705e-10 -3.5257e-08 1.22759e-09 2.6071e-07 0.000133657)
(3.73076e-08 -1.14261e-10 4.34427e-08 1.90429e-09 3.33457e-07 0.000133858)
(5.24867e-08 -3.13474e-10 7.03318e-08 1.61619e-09 3.24292e-07 0.000133836)
(5.70506e-08 1.14824e-09 1.19213e-07 1.85208e-09 3.47202e-07 0.000135852)
(5.62476e-08 3.66985e-11 -5.637e-08 2.06319e-09 3.56879e-07 0.00013609)
(6.26984e-08 7.27651e-10 -4.61182e-08 1.81675e-09 3.30522e-07 0.000133448)
(4.34719e-08 8.26548e-10 2.90889e-08 1.77999e-09 3.2521e-07 0.000133208)
(5.23703e-08 3.86624e-11 1.15947e-08 1.67048e-09 3.22031e-07 0.000133041)
(5.89339e-08 1.40943e-09 8.63446e-08 1.82745e-09 3.36993e-07 0.000134238)
(4.89773e-08 9.82943e-10 4.60289e-08 2.07731e-09 3.60297e-07 0.000136511)
(4.04932e-08 6.90317e-11 -7.46746e-08 2.01482e-09 3.52569e-07 0.000135673)
(4.28838e-08 -4.01884e-10 -8.55613e-08 1.89479e-09 3.32073e-07 0.000133521)
(4.63536e-08 -5.58321e-10 -4.12312e-08 1.78595e-09 3.2396e-07 0.000132787)
(4.32171e-08 -1.14538e-10 4.58634e-08 2.66749e-09 4.01936e-07 0.000130829)
(6.12458e-08 -3.67808e-10 7.30695e-08 2.26396e-09 3.90523e-07 0.000130806)
(6.67051e-08 1.47925e-09 1.29204e-07 2.60763e-09 4.19024e-07 0.000132997)
(6.58834e-08 3.82703e-12 -6.7105e-08 2.9049e-09 4.30847e-07 0.000133247)
(7.29127e-08 8.62324e-10 -5.21639e-08 2.54502e-09 3.97677e-07 0.000130382)
(5.10354e-08 9.89225e-10 3.20177e-08 2.50011e-09 3.92258e-07 0.000130191)
(6.13012e-08 -2.2214e-11 6.39406e-09 2.3437e-09 3.87908e-07 0.000130004)
(6.89162e-08 1.74028e-09 9.14659e-08 2.5561e-09 4.05338e-07 0.000131216)
(5.76164e-08 1.23131e-09 5.07538e-08 2.91345e-09 4.33861e-07 0.000133606)
(4.78486e-08 4.65953e-11 -8.27128e-08 2.83033e-09 4.24673e-07 0.000132736)
(5.01797e-08 -5.27494e-10 -9.43688e-08 2.65426e-09 3.99853e-07 0.000130489)
(5.40172e-08 -7.03551e-10 -4.75238e-08 2.49547e-09 3.89631e-07 0.000129697)
(4.94212e-08 -1.07286e-10 4.78011e-08 3.61614e-09 4.71669e-07 0.000125883)
(7.0534e-08 -4.21414e-10 7.46503e-08 3.06786e-09 4.57656e-07 0.000125846)
(7.69522e-08 1.86044e-09 1.38823e-07 3.55256e-09 4.92352e-07 0.000128195)
(7.61563e-08 -4.97305e-11 -7.71265e-08 3.95834e-09 5.06564e-07 0.000128463)
(8.36592e-08 9.95932e-10 -5.71873e-08 3.44887e-09 4.65798e-07 0.0001254)
(5.91087e-08 1.15645e-09 3.53131e-08 3.39895e-09 4.6057e-07 0.000125264)
(7.07835e-08 -1.17844e-10 8.45742e-10 3.18125e-09 4.54776e-07 0.000125055)
(7.95143e-08 2.09956e-09 9.63367e-08 3.45857e-09 4.74636e-07 0.00012627)
(6.6903e-08 1.50995e-09 5.55911e-08 3.95329e-09 5.08811e-07 0.000128754)
(5.58254e-08 1.08143e-11 -8.99279e-08 3.84644e-09 4.9811e-07 0.000127858)
(5.79528e-08 -6.67607e-10 -1.0236e-07 3.59842e-09 4.68772e-07 0.000125543)
(6.21105e-08 -8.61589e-10 -5.39909e-08 3.37425e-09 4.56163e-07 0.000124698)
(5.59375e-08 -9.1757e-11 4.93173e-08 4.77164e-09 5.40991e-07 0.000119321)
(8.0375e-08 -4.7344e-10 7.51349e-08 4.04523e-09 5.23982e-07 0.000119256)
(8.78064e-08 2.29185e-09 1.48017e-07 4.71016e-09 5.65441e-07 0.000121747)
(8.70932e-08 -1.27132e-10 -8.62403e-08 5.24983e-09 5.82293e-07 0.000122039)
(9.4948e-08 1.12496e-09 -6.11143e-08 4.54779e-09 5.33208e-07 0.000118803)
(6.77078e-08 1.32505e-09 3.88483e-08 4.49844e-09 5.28511e-07 0.000118729)
(8.08258e-08 -2.5413e-10 -5.05462e-09 4.2019e-09 5.20973e-07 0.000118496)
(9.0745e-08 2.48442e-09 1.00827e-07 4.55333e-09 5.43162e-07 0.000119703)
(7.68756e-08 1.81952e-09 6.05349e-08 5.21988e-09 5.8337e-07 0.000122259)
(6.44741e-08 -3.85128e-11 -9.617e-08 5.08627e-09 5.71125e-07 0.000121342)
(6.62263e-08 -8.17658e-10 -1.09338e-07 4.74853e-09 5.37157e-07 0.000118985)
(7.06412e-08 -1.02867e-09 -6.04023e-08 4.44081e-09 5.21893e-07 0.000118092)
(6.27893e-08 -6.76628e-11 5.04701e-08 6.15602e-09 6.08137e-07 0.000111445)
(9.07974e-08 -5.23351e-10 7.45969e-08 5.21372e-09 5.87714e-07 0.000111341)
(9.9285e-08 2.77209e-09 1.5665e-07 6.10428e-09 6.36447e-07 0.000113956)
(9.87251e-08 -2.30827e-10 -9.43711e-08 6.80645e-09 6.56185e-07 0.000114276)
(1.06793e-07 1.24592e-09 -6.39669e-08 5.86183e-09 5.9814e-07 0.000110894)
(7.68516e-08 1.49127e-09 4.24325e-08 5.82132e-09 5.94358e-07 0.000110888)
(9.14377e-08 -4.36576e-10 -1.1417e-08 5.42478e-09 5.84754e-07 0.000110629)
(1.02628e-07 2.89155e-09 1.04692e-07 5.85907e-09 6.091e-07 0.000111815)
(8.75789e-08 2.16069e-09 6.5547e-08 6.73673e-09 6.55651e-07 0.000114421)
(7.38529e-08 -1.00778e-10 -1.01298e-07 6.57338e-09 6.41854e-07 0.000113489)
(7.50279e-08 -9.71565e-10 -1.15074e-07 6.12642e-09 6.03231e-07 0.000111116)
(7.96191e-08 -1.20014e-09 -6.64659e-08 5.71398e-09 5.85065e-07 0.00011018)
(7.00037e-08 -3.53989e-11 5.13085e-08 7.7922e-09 6.71275e-07 0.000102555)
(1.01831e-07 -5.70982e-10 7.31128e-08 6.59151e-09 6.47013e-07 0.000102399)
(1.11402e-07 3.29835e-09 1.64505e-07 7.75959e-09 7.03456e-07 0.00010512)
(1.11082e-07 -3.62578e-10 -1.01535e-07 8.65625e-09 7.26306e-07 0.000105473)
(1.19207e-07 1.35535e-09 -6.58469e-08 7.41189e-09 6.58764e-07 0.000101973)
(8.65577e-08 1.65069e-09 4.58334e-08 7.39138e-09 6.5633e-07 0.000102042)
(1.02626e-07 -6.70384e-10 -1.8423e-08 6.86965e-09 6.4432e-07 0.000101751)
(1.15183e-07 3.31707e-09 1.07594e-07 7.39497e-09 6.70563e-07 0.000102901)
(9.9059e-08 2.53415e-09 7.05557e-08 8.52821e-09 7.23678e-07 0.000105533)
(8.4025e-08 -1.74387e-10 -1.05178e-07 8.33205e-09 7.0835e-07 0.000104595)
(8.43868e-08 -1.12168e-09 -1.19323e-07 7.75469e-09 6.65144e-07 0.000102232)
(8.90529e-08 -1.37039e-09 -7.1854e-08 7.21325e-09 6.43868e-07 0.000101262)
(7.76072e-08 3.90708e-12 5.18624e-08 9.70358e-09 7.28546e-07 9.29455e-05)
(1.13498e-07 -6.16492e-10 7.07505e-08 8.19685e-09 7.0004e-07 9.27325e-05)
(1.24164e-07 3.86631e-09 1.71301e-07 9.70113e-09 7.64531e-07 9.55361e-05)
(1.24183e-07 -5.23603e-10 -1.07776e-07 1.08278e-08 7.90681e-07 9.5924e-05)
(1.32194e-07 1.44968e-09 -6.68987e-08 9.21937e-09 7.13239e-07 9.23365e-05)
(9.68368e-08 1.79805e-09 4.87989e-08 9.23309e-09 7.12628e-07 9.24865e-05)
(1.14388e-07 -9.60707e-10 -2.62649e-08 8.55649e-09 6.97864e-07 9.21614e-05)
(1.2842e-07 3.75619e-09 1.09164e-07 9.18019e-09 7.2565e-07 9.32582e-05)
(1.11358e-07 2.94065e-09 7.54504e-08 1.06191e-08 7.85436e-07 9.58901e-05)
(9.50529e-08 -2.56776e-10 -1.07694e-07 1.03868e-08 7.68629e-07 9.49551e-05)
(9.43285e-08 -1.25885e-09 -1.21833e-07 9.65621e-09 7.2102e-07 9.26306e-05)
(9.89443e-08 -1.53291e-09 -7.62388e-08 8.95823e-09 6.96474e-07 9.16341e-05)
(8.56223e-08 4.82513e-11 5.21369e-08 1.19132e-08 7.78127e-07 8.29115e-05)
(1.25807e-07 -6.60517e-10 6.75671e-08 1.00473e-08 7.45022e-07 8.26373e-05)
(1.37555e-07 4.47017e-09 1.76716e-07 1.19536e-08 8.17772e-07 8.5497e-05)
(1.38033e-07 -7.14607e-10 -1.13126e-07 1.33496e-08 8.4735e-07 8.59186e-05)
(1.4574e-07 1.52526e-09 -6.72774e-08 1.13054e-08 7.59773e-07 8.22794e-05)
(1.07686e-07 1.92729e-09 5.10764e-08 1.13709e-08 7.61495e-07 8.25165e-05)
(1.26706e-07 -1.31285e-09 -3.50939e-08 1.05049e-08 7.43633e-07 8.21538e-05)
(1.42333e-07 4.20306e-09 1.09039e-07 1.12331e-08 7.72506e-07 8.31781e-05)
(1.24504e-07 3.38093e-09 8.00813e-08 1.30336e-08 8.38936e-07 8.57804e-05)
(1.06991e-07 -3.44245e-10 -1.08749e-07 1.27618e-08 8.20734e-07 8.48604e-05)
(1.04869e-07 -1.37235e-09 -1.2237e-07 1.18534e-08 7.69018e-07 8.26036e-05)
(1.09283e-07 -1.68036e-09 -7.93238e-08 1.09679e-08 7.41112e-07 8.15922e-05)
(9.4063e-08 9.47197e-11 5.21111e-08 1.44431e-08 8.18301e-07 7.27378e-05)
(1.38747e-07 -7.04287e-10 6.36137e-08 1.21592e-08 7.80315e-07 7.24027e-05)
(1.51537e-07 5.10262e-09 1.80418e-07 1.45407e-08 8.6138e-07 7.52876e-05)
(1.52608e-07 -9.35709e-10 -1.17568e-07 1.62488e-08 8.94435e-07 7.57387e-05)
(1.59806e-07 1.57852e-09 -6.7125e-08 1.36902e-08 7.96697e-07 7.20882e-05)
(1.19084e-07 2.03163e-09 5.24309e-08 1.38287e-08 8.0128e-07 7.24163e-05)
(1.39538e-07 -1.73242e-09 -4.49794e-08 1.27331e-08 7.79992e-07 7.2014e-05)
(1.56891e-07 4.65057e-09 1.06906e-07 1.35704e-08 8.09398e-07 7.29463e-05)
(1.38508e-07 3.85565e-09 8.42618e-08 1.57946e-08 8.82289e-07 7.5487e-05)
(1.19879e-07 -4.31812e-10 -1.08283e-07 1.54795e-08 8.62807e-07 7.45947e-05)
(1.16009e-07 -1.44987e-09 -1.20742e-07 1.43672e-08 8.07407e-07 7.24357e-05)
(1.20042e-07 -1.80468e-09 -8.08724e-08 1.32598e-08 7.76133e-07 7.14223e-05)
(1.02931e-07 1.39481e-10 5.17416e-08 1.73129e-08 8.47521e-07 6.26936e-05)
(1.52274e-07 -7.49801e-10 5.8947e-08 1.45461e-08 8.04482e-07 6.2302e-05)
(1.66036e-07 5.75489e-09 1.8209e-07 1.7484e-08 8.93735e-07 6.5177e-05)
(1.67847e-07 -1.18618e-09 -1.21032e-07 1.95505e-08 9.30215e-07 6.56508e-05)
(1.74319e-07 1.6062e-09 -6.65552e-08 1.63916e-08 8.22536e-07 6.20337e-05)
(1.30982e-07 2.10378e-09 5.26618e-08 1.66287e-08 8.30502e-07 6.24534e-05)
(1.52816e-07 -2.2254e-09 -5.58834e-08 1.52574e-08 8.05501e-07 6.20114e-05)
(1.72033e-07 5.09028e-09 1.02537e-07 1.62057e-08 8.34793e-07 6.28337e-05)
(1.53349e-07 4.36523e-09 8.77785e-08 1.89222e-08 9.13785e-07 6.52795e-05)
(1.3373e-07 -5.13101e-10 -1.06281e-07 1.85597e-08 8.93169e-07 6.44278e-05)
(1.27727e-07 -1.47749e-09 -1.16826e-07 1.7216e-08 8.34641e-07 6.23961e-05)
(1.31172e-07 -1.89717e-09 -8.07322e-08 1.58487e-08 8.00083e-07 6.1395e-05)
(1.12214e-07 1.77851e-10 5.09679e-08 2.05391e-08 8.64491e-07 5.30238e-05)
(1.6631e-07 -7.99971e-10 5.36404e-08 1.72188e-08 8.16362e-07 5.25841e-05)
(1.80939e-07 6.41681e-09 1.81463e-07 2.08017e-08 9.13463e-07 5.54111e-05)
(1.83647e-07 -1.46397e-09 -1.234e-07 2.32764e-08 9.53198e-07 5.5898e-05)
(1.89166e-07 1.6057e-09 -6.56493e-08 1.94247e-08 8.36083e-07 5.23624e-05)
(1.43304e-07 2.13614e-09 5.16191e-08 1.97907e-08 8.4792e-07 5.28706e-05)
(1.66441e-07 -2.79799e-09 -6.76499e-08 1.80909e-08 8.1898e-07 5.2391e-05)
(1.87659e-07 5.51245e-09 9.58132e-08 1.91487e-08 8.4743e-07 5.30882e-05)
(1.68969e-07 4.90955e-09 9.04066e-08 2.24324e-08 9.31976e-07 5.54062e-05)
(1.48528e-07 -5.80304e-10 -1.02784e-07 2.20182e-08 9.10402e-07 5.46073e-05)
(1.39976e-07 -1.43974e-09 -1.10588e-07 2.04145e-08 8.49434e-07 5.273e-05)
(1.42597e-07 -1.94874e-09 -7.88519e-08 1.87462e-08 8.1178e-07 5.17565e-05)
(1.21877e-07 2.04437e-10 4.97216e-08 2.41341e-08 8.68224e-07 4.39408e-05)
(1.80735e-07 -8.58666e-10 4.77942e-08 2.01835e-08 8.15132e-07 4.34644e-05)
(1.96089e-07 7.07701e-09 1.78347e-07 2.45083e-08 9.1951e-07 4.62038e-05)
(1.99852e-07 -1.76505e-09 -1.24534e-07 2.74433e-08 9.62197e-07 4.66926e-05)
(2.04188e-07 1.5756e-09 -6.44583e-08 2.28006e-08 8.36458e-07 4.3288e-05)
(1.55939e-07 2.12101e-09 4.92163e-08 2.33312e-08 8.52593e-07 4.38769e-05)
(1.80278e-07 -3.45643e-09 -8.00086e-08 2.1243e-08 8.19572e-07 4.33648e-05)
(2.03628e-07 5.9061e-09 8.67376e-08 2.24039e-08 8.46394e-07 4.39263e-05)
(1.85268e-07 5.48763e-09 9.19276e-08 2.6336e-08 9.35748e-07 4.60851e-05)
(1.64211e-07 -6.24246e-10 -9.78914e-08 2.58655e-08 9.13416e-07 4.535e-05)
(1.52679e-07 -1.31973e-09 -1.021e-07 2.39727e-08 8.50825e-07 4.36506e-05)
(1.54214e-07 -1.95007e-09 -7.52916e-08 2.19591e-08 8.10376e-07 4.27196e-05)
(1.31865e-07 2.13358e-10 4.79356e-08 2.81056e-08 8.5811e-07 3.5617e-05)
(1.95386e-07 -9.30553e-10 4.15399e-08 2.34423e-08 8.00364e-07 3.51183e-05)
(2.11281e-07 7.72316e-09 1.72655e-07 2.86131e-08 9.112e-07 3.77309e-05)
(2.16253e-07 -2.08262e-09 -1.24295e-07 3.20626e-08 9.56393e-07 3.82093e-05)
(2.19175e-07 1.516e-09 -6.30102e-08 2.65262e-08 8.23168e-07 3.49838e-05)
(1.68742e-07 2.05083e-09 4.54387e-08 2.72631e-08 8.43933e-07 3.56413e-05)
(1.94162e-07 -4.20656e-09 -9.25898e-08 2.47184e-08 8.068e-07 3.51044e-05)
(2.1975e-07 6.25921e-09 7.54479e-08 2.59701e-08 8.31174e-07 3.55251e-05)
(2.02092e-07 6.09721e-09 9.21487e-08 3.06378e-08 9.24393e-07 3.74974e-05)
(1.8067e-07 -6.34569e-10 -9.17646e-08 3.01061e-08 9.01524e-07 3.68348e-05)
(1.65722e-07 -1.0994e-09 -9.15554e-08 2.7895e-08 8.38242e-07 3.53311e-05)
(1.65889e-07 -1.89185e-09 -7.02233e-08 2.54892e-08 7.9541e-07 3.44571e-05)
(1.421e-07 1.98557e-10 4.55532e-08 3.24559e-08 8.33949e-07 2.81806e-05)
(2.10055e-07 -1.02071e-09 3.50386e-08 2.6992e-08 7.72057e-07 2.76754e-05)
(2.26268e-07 8.34237e-09 1.64416e-07 3.31197e-08 8.88277e-07 3.01246e-05)
(2.32582e-07 -2.40641e-09 -1.22568e-07 3.71391e-08 9.35385e-07 3.05802e-05)
(2.3387e-07 1.42892e-09 -6.13196e-08 3.06036e-08 7.96142e-07 2.75781e-05)
(1.81535e-07 1.91828e-09 4.03458e-08 3.1595e-08 8.21741e-07 2.8288e-05)
(2.07893e-07 -5.05328e-09 -1.04948e-07 2.85169e-08 7.806e-07 2.77366e-05)
(2.35792e-07 6.55901e-09 6.22113e-08 2.98398e-08 8.01702e-07 2.80173e-05)
(2.19233e-07 6.73437e-09 9.09178e-08 3.53354e-08 8.97653e-07 2.97813e-05)
(1.97739e-07 -6.00104e-10 -8.46231e-08 3.47374e-08 8.74482e-07 2.91976e-05)
(1.78957e-07 -7.59912e-10 -7.92663e-08 3.21801e-08 8.1154e-07 2.79009e-05)
(1.77461e-07 -1.76495e-09 -6.39222e-08 2.93328e-08 7.66849e-07 2.70963e-05)
(1.52476e-07 1.54201e-10 4.25369e-08 3.71816e-08 7.95982e-07 2.17132e-05)
(2.24494e-07 -1.13401e-09 2.84749e-08 3.08248e-08 7.30651e-07 2.12181e-05)
(2.40764e-07 8.9218e-09 1.53784e-07 3.80259e-08 8.50928e-07 2.34717e-05)
(2.48519e-07 -2.72198e-09 -1.19288e-07 4.26702e-08 8.99221e-07 2.3893e-05)
(2.47967e-07 1.31836e-09 -5.93973e-08 3.50307e-08 7.55742e-07 2.11519e-05)
(1.94111e-07 1.71635e-09 3.40677e-08 3.63309e-08 7.86231e-07 2.18952e-05)
(2.21248e-07 -5.99995e-09 -1.16593e-07 3.26332e-08 7.41334e-07 2.13415e-05)
(2.51477e-07 6.79231e-09 4.74137e-08 3.39989e-08 7.58378e-07 2.14891e-05)
(2.36426e-07 7.39309e-09 8.81359e-08 4.04196e-08 8.55754e-07 2.30296e-05)
(2.15191e-07 -5.09384e-10 -7.67382e-08 3.97495e-08 8.32521e-07 2.25283e-05)
(1.92202e-07 -2.82255e-10 -6.56613e-08 3.68202e-08 7.71022e-07 2.14426e-05)
(1.88743e-07 -1.56062e-09 -5.67488e-08 3.34805e-08 7.251e-07 2.07175e-05)
(1.62865e-07 7.51734e-11 3.88734e-08 4.22738e-08 7.44887e-07 1.62507e-05)
(2.38422e-07 -1.27421e-09 2.2046e-08 3.49281e-08 6.77019e-07 1.57817e-05)
(2.54454e-07 9.44919e-09 1.41034e-07 4.33233e-08 7.99787e-07 1.78139e-05)
(2.63696e-07 -3.01033e-09 -1.14446e-07 4.86459e-08 8.48413e-07 1.81911e-05)
(2.61124e-07 1.19017e-09 -5.72588e-08 3.9801e-08 7.02766e-07 1.57398e-05)
(2.06242e-07 1.43832e-09 2.67965e-08 4.14705e-08 7.38022e-07 1.64956e-05)
(2.33986e-07 -7.04767e-09 -1.27021e-07 3.70573e-08 6.89789e-07 1.59528e-05)
(2.66495e-07 6.94596e-09 3.15381e-08 3.84273e-08 7.02059e-07 1.59796e-05)
(2.53353e-07 8.06505e-09 8.37638e-08 4.58739e-08 7.99412e-07 1.7289e-05)
(2.32741e-07 -3.51277e-10 -6.8423e-08 4.51253e-08 7.76352e-07 1.68709e-05)
(2.05243e-07 3.51976e-10 -5.12692e-08 4.18015e-08 7.17439e-07 1.59929e-05)
(1.99533e-07 -1.27066e-09 -4.91234e-08 3.79173e-08 6.71002e-07 1.53545e-05)
(1.73117e-07 -4.23297e-11 3.4578e-08 4.77185e-08 6.81755e-07 1.17864e-05)
(2.51536e-07 -1.44294e-09 1.59497e-08 3.92851e-08 6.12431e-07 1.13579e-05)
(2.67011e-07 9.91373e-09 1.2655e-07 4.89973e-08 7.35911e-07 1.31505e-05)
(2.77716e-07 -3.24782e-09 -1.08107e-07 5.50483e-08 7.83917e-07 1.34764e-05)
(2.72971e-07 1.05155e-09 -5.49308e-08 4.49046e-08 6.38405e-07 1.13336e-05)
(2.17685e-07 1.07756e-09 1.87743e-08 4.70088e-08 6.78117e-07 1.20801e-05)
(2.45858e-07 -8.19458e-09 -1.35754e-07 4.17741e-08 6.27138e-07 1.15618e-05)
(2.80509e-07 7.00735e-09 1.51364e-08 4.3099e-08 6.34035e-07 1.14845e-05)
(2.6965e-07 8.73944e-09 7.78258e-08 5.16755e-08 7.29811e-07 1.25633e-05)
(2.50049e-07 -1.15728e-10 -6.0019e-08 5.08404e-08 7.07145e-07 1.22267e-05)
(2.17843e-07 1.15955e-09 -3.66962e-08 4.71046e-08 6.5196e-07 1.15458e-05)
(2.09614e-07 -8.87662e-10 -4.14959e-08 4.26233e-08 6.058e-07 1.09976e-05)
(1.83061e-07 -2.00148e-10 2.96951e-08 5.34966e-08 6.08045e-07 8.27682e-06)
(2.63527e-07 -1.63856e-09 1.03705e-08 4.38759e-08 5.38498e-07 7.9005e-06)
(2.78108e-07 1.03068e-08 1.10803e-07 5.50277e-08 6.60737e-07 9.44375e-06)
(2.90167e-07 -3.40643e-09 -1.00412e-07 6.1852e-08 7.07107e-07 9.71413e-06)
(2.83134e-07 9.10094e-10 -5.24545e-08 5.03291e-08 5.64198e-07 7.88714e-06)
(2.28197e-07 6.27303e-10 1.02786e-08 5.29368e-08 6.07857e-07 8.60368e-06)
(2.56622e-07 -9.43518e-09 -1.42373e-07 4.67646e-08 5.54895e-07 8.12228e-06)
(2.93172e-07 6.96502e-09 -1.20506e-09 4.79834e-08 5.55972e-07 7.96116e-06)
(2.84918e-07 9.40301e-09 7.041e-08 5.77952e-08 6.48557e-07 8.81727e-06)
(2.66729e-07 2.05438e-10 -5.188e-08 5.68644e-08 6.26481e-07 8.55836e-06)
(2.2975e-07 2.15432e-09 -2.25946e-08 5.27052e-08 5.76126e-07 8.05783e-06)
(2.18772e-07 -4.05195e-10 -3.43129e-08 4.75744e-08 5.31081e-07 7.60009e-06)
(1.92517e-07 -3.97468e-10 2.42958e-08 5.95845e-08 5.25519e-07 5.64806e-06)
(2.74094e-07 -1.85503e-09 5.46492e-09 4.86779e-08 4.57096e-07 5.33234e-06)
(2.87443e-07 1.06228e-08 9.43263e-08 6.13886e-08 5.76019e-07 6.62541e-06)
(3.00644e-07 -3.45464e-09 -9.15734e-08 6.90241e-08 6.19713e-07 6.83939e-06)
(2.91254e-07 7.72575e-10 -4.98853e-08 5.60601e-08 4.81957e-07 5.32414e-06)
(2.37549e-07 8.02046e-11 1.60805e-09 5.92412e-08 5.28866e-07 5.99226e-06)
(2.66052e-07 -1.07597e-08 -1.46547e-07 5.2006e-08 4.74842e-07 5.55828e-06)
(3.04145e-07 6.80934e-09 -1.69014e-08 5.30457e-08 4.69836e-07 5.33519e-06)
(2.98742e-07 1.00403e-08 6.16661e-08 6.41994e-08 5.57612e-07 5.98367e-06)
(2.82364e-07 6.17664e-10 -4.43538e-08 6.3161e-08 5.3629e-07 5.79678e-06)
(2.40711e-07 3.34563e-09 -9.62614e-09 5.85745e-08 4.91782e-07 5.45501e-06)
(2.26807e-07 1.81869e-10 -2.79857e-08 5.27428e-08 4.48708e-07 5.08428e-06)
(2.013e-07 -6.30102e-10 1.84736e-08 6.5955e-08 4.36163e-07 3.8039e-06)
(2.82966e-07 -2.0811e-09 1.34829e-09 5.36671e-08 3.7028e-07 3.55343e-06)
(2.9476e-07 1.086e-08 7.76846e-08 6.80494e-08 4.83755e-07 4.60403e-06)
(3.08784e-07 -3.35881e-09 -8.18755e-08 7.65249e-08 5.23759e-07 4.76401e-06)
(2.97014e-07 6.43317e-10 -4.72879e-08 6.20828e-08 3.93681e-07 3.54574e-06)
(2.45538e-07 -5.72072e-10 -6.93127e-09 6.59047e-08 4.42973e-07 4.15031e-06)
(2.73958e-07 -1.21537e-08 -1.48061e-07 5.74723e-08 3.88948e-07 3.7715e-06)
(3.13118e-07 6.53329e-09 -3.14046e-08 5.82486e-08 3.77805e-07 3.50858e-06)
(3.1071e-07 1.06341e-08 5.18017e-08 7.08506e-08 4.59204e-07 3.97022e-06)
(2.96527e-07 1.12283e-09 -3.77622e-08 6.969e-08 4.38765e-07 3.84852e-06)
(2.50485e-07 4.73658e-09 1.58085e-09 6.4681e-08 4.00987e-07 3.6405e-06)
(2.33541e-07 8.77007e-10 -2.2861e-08 5.80988e-08 3.60732e-07 3.35029e-06)
(2.09228e-07 -8.89791e-10 1.23369e-08 7.25778e-08 3.42103e-07 2.63379e-06)
(2.8992e-07 -2.29975e-09 -1.91729e-09 5.88189e-08 2.8019e-07 2.44931e-06)
(2.99863e-07 1.10209e-08 6.14426e-08 7.49749e-08 3.86102e-07 3.27297e-06)
(3.14284e-07 -3.08515e-09 -7.16558e-08 8.43084e-08 4.21479e-07 3.38422e-06)
(3.00169e-07 5.22455e-10 -4.47284e-08 6.83824e-08 3.0147e-07 2.43894e-06)
(2.52004e-07 -1.3392e-09 -1.50393e-08 7.29057e-08 3.52148e-07 2.96899e-06)
(2.80189e-07 -1.35977e-08 -1.46835e-07 6.31352e-08 2.99289e-07 2.64974e-06)
(3.1983e-07 6.13319e-09 -4.42366e-08 6.35535e-08 2.82174e-07 2.36793e-06)
(3.2044e-07 1.11662e-08 4.10751e-08 7.77087e-08 3.55736e-07 2.66779e-06)
(3.08807e-07 1.71843e-09 -3.23824e-08 7.64078e-08 3.36268e-07 2.60376e-06)
(2.58856e-07 6.32205e-09 1.04749e-08 7.09907e-08 3.05933e-07 2.50278e-06)
(2.38835e-07 1.68163e-09 -1.91971e-08 6.36107e-08 2.69299e-07 2.28402e-06)
(2.16139e-07 -1.16366e-09 6.00152e-09 7.94194e-08 2.45517e-07 2.02055e-06)
(2.94796e-07 -2.48823e-09 -4.33041e-09 6.41088e-08 1.88958e-07 1.89912e-06)
(3.02639e-07 1.1113e-08 4.61323e-08 8.21257e-08 2.85291e-07 2.51795e-06)
(3.16936e-07 -2.60222e-09 -6.12854e-08 9.23226e-08 3.15234e-07 2.58801e-06)
(3.00572e-07 4.04262e-10 -4.22638e-08 7.49445e-08 2.07434e-07 1.88441e-06)
(2.56839e-07 -2.23231e-09 -2.24326e-08 8.02179e-08 2.58422e-07 2.3336e-06)
(2.84654e-07 -1.50672e-08 -1.42934e-07 6.89637e-08 2.07957e-07 2.07468e-06)
(3.24089e-07 5.60947e-09 -5.5017e-08 6.8921e-08 1.85247e-07 1.79245e-06)
(3.27604e-07 1.16179e-08 2.97841e-08 8.47324e-08 2.49672e-07 1.95819e-06)
(3.18833e-07 2.39675e-09 -2.8431e-08 8.32691e-08 2.3123e-07 1.94408e-06)
(2.65652e-07 8.08694e-09 1.66245e-08 7.74678e-08 2.08843e-07 1.92343e-06)
(2.42597e-07 2.59461e-09 -1.71471e-08 6.92468e-08 1.76557e-07 1.7652e-06)
(2.21894e-07 -1.4339e-09 -4.19388e-10 8.64441e-08 1.48545e-07 1.84733e-06)
(2.97513e-07 -2.61873e-09 -5.9527e-09 6.95127e-08 9.86151e-08 1.78285e-06)
(3.03068e-07 1.11486e-08 3.22191e-08 8.94585e-08 1.83538e-07 2.22382e-06)
(3.16646e-07 -1.8839e-09 -5.11387e-08 1.00511e-07 2.07416e-07 2.26162e-06)
(2.982e-07 2.75786e-10 -3.99266e-08 8.17558e-08 1.13604e-07 1.76358e-06)
(2.6e-07 -3.26375e-09 -2.88522e-08 8.78095e-08 1.63813e-07 2.13019e-06)
(2.8732e-07 -1.65326e-08 -1.36558e-07 7.4925e-08 1.16976e-07 1.92887e-06)
(3.2579e-07 4.96735e-09 -6.34808e-08 7.43124e-08 8.92374e-08 1.66131e-06)