0 	0 	0 	0
5.01672e-05 	-2.81554e-05 	-5.19312e-06 	0.0205229
0.000100334 	-5.63107e-05 	-1.03862e-05 	0.0410458
0.000150502 	-8.44661e-05 	-1.55794e-05 	0.0615687
0.000200669 	-0.000112621 	-2.07725e-05 	0.0820916
0.000250836 	-0.000140777 	-2.59656e-05 	0.102615
0.000301003 	-0.000168932 	-3.11587e-05 	0.123137
0.000351171 	-0.000194253 	-3.71055e-05 	0.14151
0.000401338 	-0.000208853 	-4.59024e-05 	0.15175
0.000451505 	-0.000223454 	-5.46993e-05 	0.16199
0.000501672 	-0.000238055 	-6.34962e-05 	0.17223
0.000551839 	-0.000252655 	-7.22931e-05 	0.18247
0.000602007 	-0.000267256 	-8.109e-05 	0.192711
0.000652174 	-0.000281857 	-8.98868e-05 	0.202951
0.000702341 	-0.000296457 	-9.86837e-05 	0.213191
0.000752508 	-0.000307756 	-0.000107675 	0.222025
0.000802676 	-0.000310866 	-0.00011715 	0.227375
0.000852843 	-0.000313977 	-0.000126625 	0.232725
0.00090301 	-0.000317088 	-0.0001361 	0.238074
0.000953177 	-0.000320198 	-0.000145574 	0.243424
0.00100334 	-0.000323309 	-0.000155049 	0.248773
0.00105351 	-0.000326419 	-0.000164524 	0.254123
0.00110368 	-0.00032953 	-0.000173999 	0.259473
0.00115385 	-0.000332641 	-0.000183473 	0.264822
0.00120401 	-0.00033552 	-0.000192892 	0.270066
0.00125418 	-0.000333657 	-0.000201169 	0.273136
0.00130435 	-0.000331793 	-0.000209445 	0.276206
0.00135452 	-0.00032993 	-0.000217721 	0.279276
0.00140468 	-0.000328067 	-0.000225997 	0.282346
0.00145485 	-0.000326203 	-0.000234274 	0.285416
0.00150502 	-0.00032434 	-0.00024255 	0.288486
0.00155518 	-0.000322477 	-0.000250826 	0.291555
0.00160535 	-0.000320613 	-0.000259102 	0.294625
0.00165552 	-0.00031875 	-0.000267379 	0.297695
0.00170569 	-0.000316887 	-0.000275655 	0.300765
0.00175585 	-0.000314755 	-0.000283452 	0.303542
0.00180602 	-0.000311886 	-0.00028993 	0.305513
0.00185619 	-0.000309017 	-0.000296407 	0.307483
0.00190635 	-0.000306148 	-0.000302885 	0.309454
0.00195652 	-0.000303279 	-0.000309363 	0.311424
0.00200669 	-0.00030041 	-0.000315841 	0.313395
0.00205686 	-0.000297541 	-0.000322319 	0.315366
0.00210702 	-0.000294672 	-0.000328797 	0.317336
0.00215719 	-0.000291803 	-0.000335275 	0.319307
0.00220736 	-0.000288934 	-0.000341753 	0.321277
0.00225753 	-0.000286065 	-0.000348231 	0.323248
0.00230769 	-0.000283196 	-0.000354709 	0.325218
0.00235786 	-0.000280327 	-0.000361187 	0.327189
0.00240803 	-0.000277814 	-0.000366359 	0.328716
0.00245819 	-0.000275459 	-0.00037095 	0.330045
0.00250836 	-0.000273104 	-0.00037554 	0.331373
0.00255853 	-0.000270749 	-0.000380131 	0.332702
0.0026087 	-0.000268394 	-0.000384721 	0.334031
0.00265886 	-0.000266039 	-0.000389312 	0.33536
0.00270903 	-0.000263684 	-0.000393902 	0.336689
0.0027592 	-0.00026133 	-0.000398493 	0.338018
0.00280936 	-0.000258975 	-0.000403083 	0.339347
0.00285953 	-0.00025662 	-0.000407674 	0.340676
0.0029097 	-0.000254265 	-0.000412264 	0.342004
0.00295987 	-0.00025191 	-0.000416855 	0.343333
0.00301003 	-0.000249555 	-0.000421445 	0.344662
0.0030602 	-0.0002472 	-0.000426036 	0.345991
0.00311037 	-0.000244863 	-0.000430595 	0.34731
0.00316054 	-0.000243289 	-0.000433768 	0.348197
0.0032107 	-0.000241715 	-0.000436941 	0.349085
0.00326087 	-0.000240141 	-0.000440114 	0.349973
0.00331104 	-0.000238567 	-0.000443287 	0.35086
0.0033612 	-0.000236993 	-0.00044646 	0.351748
0.00341137 	-0.000235419 	-0.000449633 	0.352635
0.00346154 	-0.000233845 	-0.000452807 	0.353523
0.00351171 	-0.000232271 	-0.00045598 	0.35441
0.00356187 	-0.000230697 	-0.000459153 	0.355298
0.00361204 	-0.000229123 	-0.000462326 	0.356185
0.00366221 	-0.000227549 	-0.000465499 	0.357073
0.00371237 	-0.000225975 	-0.000468672 	0.357961
0.00376254 	-0.000224401 	-0.000471845 	0.358848
0.00381271 	-0.000222827 	-0.000475019 	0.359736
0.00386288 	-0.000221253 	-0.000478192 	0.360623
0.00391304 	-0.000219679 	-0.000481365 	0.361511
0.00396321 	-0.000218105 	-0.000484538 	0.362398
0.00401338 	-0.000217005 	-0.000486867 	0.362979
0.00406355 	-0.000215952 	-0.000489114 	0.36353
0.00411371 	-0.0002149 	-0.00049136 	0.364081
0.00416388 	-0.000213847 	-0.000493607 	0.364632
0.00421405 	-0.000212794 	-0.000495854 	0.365183
0.00426421 	-0.000211741 	-0.0004981 	0.365734
0.00431438 	-0.000210688 	-0.000500347 	0.366285
0.00436455 	-0.000209635 	-0.000502593 	0.366836
0.00441472 	-0.000208582 	-0.00050484 	0.367387
0.00446488 	-0.000207529 	-0.000507086 	0.367938
0.00451505 	-0.000206476 	-0.000509333 	0.368489
0.00456522 	-0.000205424 	-0.00051158 	0.36904
0.00461538 	-0.000204371 	-0.000513826 	0.369591
0.00466555 	-0.000203318 	-0.000516073 	0.370142
0.00471572 	-0.000202265 	-0.000518319 	0.370693
0.00476589 	-0.000201212 	-0.000520566 	0.371244
0.00481605 	-0.000200159 	-0.000522813 	0.371795
0.00486622 	-0.000199106 	-0.000525059 	0.372346
0.00491639 	-0.000198053 	-0.000527306 	0.372897
0.00496656 	-0.000197 	-0.000529552 	0.373448
0.00501672 	-0.000196171 	-0.000531061 	0.373745
0.00506689 	-0.000195353 	-0.00053253 	0.374027
0.00511706 	-0.000194535 	-0.000534 	0.37431
0.00516722 	-0.000193717 	-0.000535469 	0.374593
0.00521739 	-0.0001929 	-0.000536938 	0.374875
0.00526756 	-0.000192082 	-0.000538408 	0.375158
0.00531773 	-0.000191264 	-0.000539877 	0.375441
0.00536789 	-0.000190446 	-0.000541346 	0.375724
0.00541806 	-0.000189629 	-0.000542815 	0.376006
0.00546823 	-0.000188811 	-0.000544285 	0.376289
0.00551839 	-0.000187993 	-0.000545754 	0.376572
0.00556856 	-0.000187175 	-0.000547223 	0.376854
0.00561873 	-0.000186358 	-0.000548693 	0.377137
0.0056689 	-0.00018554 	-0.000550162 	0.37742
0.00571906 	-0.000184722 	-0.000551631 	0.377702
0.00576923 	-0.000183904 	-0.0005531 	0.377985
0.0058194 	-0.000183087 	-0.00055457 	0.378268
0.00586957 	-0.000182269 	-0.000556039 	0.378551
0.00591973 	-0.000181451 	-0.000557508 	0.378833
0.0059699 	-0.000180633 	-0.000558978 	0.379116
0.00602007 	-0.000179816 	-0.000560447 	0.379399
0.00607023 	-0.000178998 	-0.000561916 	0.379681
0.0061204 	-0.00017818 	-0.000563385 	0.379964
0.00617057 	-0.000177461 	-0.000564311 	0.380099
0.00622074 	-0.000176792 	-0.000564961 	0.38016
0.0062709 	-0.000176123 	-0.000565611 	0.38022
0.00632107 	-0.000175454 	-0.000566261 	0.38028
0.00637124 	-0.000174785 	-0.000566911 	0.380341
0.0064214 	-0.000174116 	-0.000567561 	0.380401
0.00647157 	-0.000173446 	-0.000568211 	0.380461
0.00652174 	-0.000172777 	-0.000568861 	0.380522
0.00657191 	-0.000172108 	-0.00056951 	0.380582
0.00662207 	-0.000171439 	-0.00057016 	0.380642
0.00667224 	-0.00017077 	-0.00057081 	0.380703
0.00672241 	-0.000170101 	-0.00057146 	0.380763
0.00677258 	-0.000169432 	-0.00057211 	0.380823
0.00682274 	-0.000168763 	-0.00057276 	0.380883
0.00687291 	-0.000168094 	-0.00057341 	0.380944
0.00692308 	-0.000167425 	-0.00057406 	0.381004
0.00697324 	-0.000166756 	-0.00057471 	0.381064
0.00702341 	-0.000166087 	-0.00057536 	0.381125
0.00707358 	-0.000165418 	-0.00057601 	0.381185
0.00712375 	-0.000164748 	-0.000576659 	0.381245
0.00717391 	-0.000164079 	-0.000577309 	0.381306
0.00722408 	-0.00016341 	-0.000577959 	0.381366
0.00727425 	-0.000162741 	-0.000578609 	0.381426
0.00732441 	-0.000162072 	-0.000579259 	0.381487
0.00737458 	-0.000161403 	-0.000579909 	0.381547
0.00742475 	-0.000160734 	-0.000580559 	0.381607
0.00747492 	-0.000160065 	-0.000581209 	0.381668
0.00752508 	-0.000159455 	-0.000581443 	0.381628
0.00757525 	-0.000158903 	-0.000581261 	0.381488
0.00762542 	-0.000158352 	-0.000581079 	0.381348
0.00767559 	-0.000157801 	-0.000580897 	0.381208
0.00772575 	-0.000157249 	-0.000580715 	0.381067
0.00777592 	-0.000156698 	-0.000580533 	0.380927
0.00782609 	-0.000156147 	-0.000580351 	0.380787
0.00787625 	-0.000155595 	-0.000580169 	0.380647
0.00792642 	-0.000155044 	-0.000579987 	0.380507
0.00797659 	-0.000154493 	-0.000579804 	0.380367
0.00802676 	-0.000153942 	-0.000579622 	0.380227
0.00807692 	-0.00015339 	-0.00057944 	0.380087
0.00812709 	-0.000152839 	-0.000579258 	0.379947
0.00817726 	-0.000152288 	-0.000579076 	0.379807
0.00822742 	-0.000151736 	-0.000578894 	0.379666
0.00827759 	-0.000151185 	-0.000578712 	0.379526
0.00832776 	-0.000150634 	-0.00057853 	0.379386
0.00837793 	-0.000150082 	-0.000578348 	0.379246
0.00842809 	-0.000149531 	-0.000578166 	0.379106
0.00847826 	-0.00014898 	-0.000577984 	0.378966
0.00852843 	-0.000148428 	-0.000577802 	0.378826
0.0085786 	-0.000147877 	-0.00057762 	0.378686
0.00862876 	-0.000147326 	-0.000577438 	0.378546
0.00867893 	-0.000146774 	-0.000577256 	0.378406
0.0087291 	-0.000146223 	-0.000577074 	0.378266
0.00877926 	-0.000145672 	-0.000576892 	0.378125
0.00882943 	-0.00014512 	-0.00057671 	0.377985
0.0088796 	-0.000144628 	-0.000576181 	0.377763
0.00892977 	-0.000144253 	-0.000574967 	0.377378
0.00897993 	-0.000143878 	-0.000573753 	0.376994
0.0090301 	-0.000143503 	-0.00057254 	0.376609
0.00908027 	-0.000143128 	-0.000571326 	0.376225
0.00913043 	-0.000142753 	-0.000570112 	0.37584
0.0091806 	-0.000142378 	-0.000568899 	0.375455
0.00923077 	-0.000142003 	-0.000567685 	0.375071
0.00928094 	-0.000141628 	-0.000566471 	0.374686
0.0093311 	-0.000141253 	-0.000565258 	0.374301
0.00938127 	-0.000140878 	-0.000564044 	0.373917
0.00943144 	-0.000140503 	-0.00056283 	0.373532
0.00948161 	-0.000140127 	-0.000561617 	0.373148
0.00953177 	-0.000139752 	-0.000560403 	0.372763
0.00958194 	-0.000139377 	-0.000559189 	0.372378
0.00963211 	-0.000139002 	-0.000557976 	0.371994
0.00968227 	-0.000138627 	-0.000556762 	0.371609
0.00973244 	-0.000138252 	-0.000555548 	0.371225
0.00978261 	-0.000137877 	-0.000554334 	0.37084
0.00983278 	-0.000137502 	-0.000553121 	0.370455
0.00988294 	-0.000137127 	-0.000551907 	0.370071
0.00993311 	-0.000136752 	-0.000550693 	0.369686
0.00998328 	-0.000136377 	-0.00054948 	0.369302
0.0100334 	-0.000136023 	-0.000548208 	0.368902
0.0100836 	-0.000136058 	-0.000545853 	0.368228
0.0101338 	-0.000136093 	-0.000543497 	0.367554
0.0101839 	-0.000136129 	-0.000541142 	0.36688
0.0102341 	-0.000136164 	-0.000538787 	0.366206
0.0102843 	-0.0001362 	-0.000536431 	0.365532
0.0103344 	-0.000136235 	-0.000534076 	0.364859
0.0103846 	-0.000136271 	-0.000531721 	0.364185
0.0104348 	-0.000136306 	-0.000529365 	0.363511
0.0104849 	-0.000136342 	-0.00052701 	0.362837
0.0105351 	-0.000136377 	-0.000524655 	0.362163
0.0105853 	-0.000136413 	-0.000522299 	0.361489
0.0106355 	-0.000136448 	-0.000519944 	0.360815
0.0106856 	-0.000136484 	-0.000517588 	0.360141
0.0107358 	-0.000136519 	-0.000515233 	0.359467
0.010786 	-0.000136554 	-0.000512878 	0.358793
0.0108361 	-0.00013659 	-0.000510522 	0.358119
0.0108863 	-0.000136625 	-0.000508167 	0.357445
0.0109365 	-0.000136661 	-0.000505812 	0.356771
0.0109866 	-0.000136696 	-0.000503456 	0.356097
0.0110368 	-0.0001368 	-0.00050096 	0.35539
0.011087 	-0.000137606 	-0.000497023 	0.354341
0.0111371 	-0.000138411 	-0.000493086 	0.353292
0.0111873 	-0.000139216 	-0.000489149 	0.352243
0.0112375 	-0.000140021 	-0.000485212 	0.351195
0.0112876 	-0.000140826 	-0.000481274 	0.350146
0.0113378 	-0.000141631 	-0.000477337 	0.349097
0.011388 	-0.000142436 	-0.0004734 	0.348048
0.0114381 	-0.000143241 	-0.000469463 	0.346999
0.0114883 	-0.000144046 	-0.000465526 	0.345951
0.0115385 	-0.000144851 	-0.000461589 	0.344902
0.0115886 	-0.000145656 	-0.000457652 	0.343853
0.0116388 	-0.000146461 	-0.000453715 	0.342804
0.011689 	-0.000147266 	-0.000449778 	0.341755
0.0117391 	-0.000148071 	-0.000445841 	0.340707
0.0117893 	-0.000148876 	-0.000441904 	0.339658
0.0118395 	-0.000149681 	-0.000437967 	0.338609
0.0118896 	-0.000150486 	-0.00043403 	0.33756
0.0119398 	-0.000152398 	-0.000427658 	0.335962
0.01199 	-0.000154335 	-0.000421229 	0.334351
0.0120401 	-0.000156272 	-0.000414801 	0.332741
0.0120903 	-0.000158209 	-0.000408372 	0.33113
0.0121405 	-0.000160146 	-0.000401944 	0.329519
0.0121906 	-0.000162083 	-0.000395515 	0.327909
0.0122408 	-0.00016402 	-0.000389087 	0.326298
0.012291 	-0.000165957 	-0.000382658 	0.324687
0.0123411 	-0.000167894 	-0.000376229 	0.323077
0.0123913 	-0.000169831 	-0.000369801 	0.321466
0.0124415 	-0.000171768 	-0.000363372 	0.319855
0.0124916 	-0.000173705 	-0.000356944 	0.318245
0.0125418 	-0.000175642 	-0.000350515 	0.316634
0.012592 	-0.000177579 	-0.000344087 	0.315023
0.0126421 	-0.000179831 	-0.000336722 	0.313121
0.0126923 	-0.00018279 	-0.000327258 	0.310566
0.0127425 	-0.000185749 	-0.000317794 	0.308011
0.0127926 	-0.000188709 	-0.000308331 	0.305455
0.0128428 	-0.000191668 	-0.000298867 	0.3029
0.012893 	-0.000194627 	-0.000289403 	0.300344
0.0129431 	-0.000197586 	-0.000279939 	0.297789
0.0129933 	-0.000200545 	-0.000270475 	0.295233
0.0130435 	-0.000203504 	-0.000261011 	0.292678
0.0130936 	-0.000206463 	-0.000251547 	0.290123
0.0131438 	-0.000209422 	-0.000242083 	0.287567
0.013194 	-0.000212381 	-0.000232619 	0.285012
0.0132441 	-0.000215341 	-0.000223156 	0.282456
0.0132943 	-0.000217839 	-0.000212249 	0.278659
0.0133445 	-0.000220169 	-0.000200818 	0.274411
0.0133946 	-0.000222499 	-0.000189387 	0.270162
0.0134448 	-0.00022483 	-0.000177956 	0.265914
0.013495 	-0.00022716 	-0.000166526 	0.261665
0.0135452 	-0.000229491 	-0.000155095 	0.257417
0.0135953 	-0.000231821 	-0.000143664 	0.253168
0.0136455 	-0.000234151 	-0.000132233 	0.24892
0.0136957 	-0.000236482 	-0.000120802 	0.244671
0.0137458 	-0.000238812 	-0.000109371 	0.240423
0.013796 	-0.000241142 	-9.794e-05 	0.236174
0.0138462 	-0.000238261 	-8.84555e-05 	0.228667
0.0138963 	-0.000235126 	-7.90658e-05 	0.221001
0.0139465 	-0.000231991 	-6.96761e-05 	0.213335
0.0139967 	-0.000228856 	-6.02864e-05 	0.205669
0.0140468 	-0.000225721 	-5.08967e-05 	0.198003
0.014097 	-0.000222586 	-4.1507e-05 	0.190337
0.0141472 	-0.000219451 	-3.21173e-05 	0.182671
0.0141973 	-0.000216316 	-2.27276e-05 	0.175005
0.0142475 	-0.00021318 	-1.33379e-05 	0.167339
0.0142977 	-0.000203115 	-8.65676e-06 	0.156889
0.0143478 	-0.000190255 	-5.87456e-06 	0.145317
0.014398 	-0.000177395 	-3.09235e-06 	0.133745
0.0144482 	-0.000164535 	-3.10149e-07 	0.122173
0.0144983 	-0.000151675 	2.47205e-06 	0.110601
0.0145485 	-0.000138815 	5.25426e-06 	0.0990294
0.0145987 	-0.000125955 	8.03646e-06 	0.0874574
0.0146488 	-0.000113095 	1.08187e-05 	0.0758854
0.014699 	-9.75481e-05 	1.00728e-05 	0.0649095
0.0147492 	-8.12901e-05 	8.39402e-06 	0.0540913
0.0147993 	-6.5032e-05 	6.71521e-06 	0.043273
0.0148495 	-4.8774e-05 	5.03641e-06 	0.0324548
0.0148997 	-3.2516e-05 	3.35761e-06 	0.0216365
0.0149498 	-1.6258e-05 	1.6788e-06 	0.0108183
0.015 	0 	0 	0
