0 	0 	0 	0
0 	3.92064e-36 	-2.6543e-36 	1.85689e-31
5.01672e-05 	2.98923e-07 	-2.90247e-07 	0.0173206
5.01672e-05 	2.98923e-07 	-2.90247e-07 	0.0173206
0.000100334 	8.18422e-08 	-9.50393e-07 	0.0333089
0.000150502 	-2.30075e-07 	-2.03299e-06 	0.0481396
0.000150502 	-2.30075e-07 	-2.03299e-06 	0.0481396
0.000200669 	-4.90436e-07 	-3.53225e-06 	0.0619017
0.000200669 	-4.90436e-07 	-3.53225e-06 	0.0619017
0.000250836 	-7.23592e-07 	-5.44806e-06 	0.0746744
0.000301003 	-9.50853e-07 	-7.7679e-06 	0.0865245
0.000301003 	-9.50853e-07 	-7.7679e-06 	0.0865245
0.000351171 	-1.17537e-06 	-1.04868e-05 	0.0974971
0.000401338 	-1.39667e-06 	-1.36103e-05 	0.107615
0.000451505 	-1.61248e-06 	-1.71606e-05 	0.116894
0.000451505 	-1.61248e-06 	-1.71606e-05 	0.116894
0.000501672 	-1.8191e-06 	-2.11737e-05 	0.125361
0.000551839 	-2.01236e-06 	-2.56878e-05 	0.133061
0.000551839 	-2.01236e-06 	-2.56878e-05 	0.133061
0.000602007 	-2.18854e-06 	-3.07332e-05 	0.140054
0.000602007 	-2.18854e-06 	-3.07332e-05 	0.140054
0.000652174 	-2.3451e-06 	-3.63318e-05 	0.146411
0.000652174 	-2.3451e-06 	-3.63318e-05 	0.146411
0.000702341 	-2.48084e-06 	-4.2502e-05 	0.152204
0.000702341 	-2.48084e-06 	-4.2502e-05 	0.152204
0.000752508 	-2.5956e-06 	-4.92599e-05 	0.157502
0.000802676 	-2.68972e-06 	-5.66209e-05 	0.16236
0.000852843 	-2.76107e-06 	-6.46824e-05 	0.166771
0.000852843 	-2.76107e-06 	-6.46824e-05 	0.166771
0.00090301 	-2.81413e-06 	-7.33198e-05 	0.170846
0.00090301 	-2.81413e-06 	-7.33198e-05 	0.170846
0.000953177 	-2.85027e-06 	-8.24834e-05 	0.174623
0.00100334 	-2.87088e-06 	-9.21217e-05 	0.178139
0.00100334 	-2.87088e-06 	-9.21217e-05 	0.178139
0.00105351 	-2.87732e-06 	-0.000102185 	0.181425
0.00105351 	-2.87732e-06 	-0.000102185 	0.181425
0.00110368 	-2.87058e-06 	-0.000112637 	0.184504
0.00115385 	-2.84894e-06 	-0.00012352 	0.187355
0.00120401 	-2.81744e-06 	-0.000134682 	0.190055
0.00120401 	-2.81744e-06 	-0.000134682 	0.190055
0.00130435 	-2.72882e-06 	-0.000157709 	0.195063
0.00130435 	-2.72882e-06 	-0.000157709 	0.195063
0.00135452 	-2.67128e-06 	-0.000169562 	0.197363
0.00135452 	-2.67128e-06 	-0.000169562 	0.197363
0.00140468 	-2.60659e-06 	-0.000181573 	0.199554
0.00145485 	-2.53635e-06 	-0.000193692 	0.201661
0.00145485 	-2.53635e-06 	-0.000193692 	0.201661
0.00150502 	-2.46096e-06 	-0.000205899 	0.20369
0.00150502 	-2.46096e-06 	-0.000205899 	0.20369
0.00155518 	-2.37813e-06 	-0.000218195 	0.205612
0.00155518 	-2.37813e-06 	-0.000218195 	0.205612
0.00160535 	-2.29112e-06 	-0.000230511 	0.207473
0.00160535 	-2.29112e-06 	-0.000230511 	0.207473
0.00165552 	-2.20043e-06 	-0.000242833 	0.209282
0.00165552 	-2.20043e-06 	-0.000242833 	0.209282
0.00170569 	-2.10494e-06 	-0.000255128 	0.211019
0.00170569 	-2.10494e-06 	-0.000255128 	0.211019
0.00175585 	-2.00581e-06 	-0.000267351 	0.212702
0.00175585 	-2.00581e-06 	-0.000267351 	0.212702
0.00180602 	-1.90422e-06 	-0.000279507 	0.214346
0.00180602 	-1.90422e-06 	-0.000279507 	0.214346
0.00185619 	-1.7992e-06 	-0.000291536 	0.215938
0.00185619 	-1.7992e-06 	-0.000291536 	0.215938
0.00190635 	-1.69129e-06 	-0.0003034 	0.217484
0.00190635 	-1.69129e-06 	-0.0003034 	0.217484
0.00195652 	-1.58159e-06 	-0.000315149 	0.219002
0.00195652 	-1.58159e-06 	-0.000315149 	0.219002
0.00200669 	-1.46886e-06 	-0.000326659 	0.220472
0.00200669 	-1.46886e-06 	-0.000326659 	0.220472
0.00205686 	-1.35406e-06 	-0.000337958 	0.22191
0.00210702 	-1.23789e-06 	-0.000349117 	0.223327
0.00210702 	-1.23789e-06 	-0.000349117 	0.223327
0.00215719 	-1.11854e-06 	-0.000359878 	0.224695
0.00220736 	-9.98023e-07 	-0.000370464 	0.226044
0.00225753 	-8.75636e-07 	-0.000380771 	0.227366
0.00225753 	-8.75636e-07 	-0.000380771 	0.227366
0.00230769 	-7.51118e-07 	-0.000390712 	0.228655
0.00230769 	-7.51118e-07 	-0.000390712 	0.228655
0.00235786 	-6.25683e-07 	-0.000400494 	0.22993
0.00235786 	-6.25683e-07 	-0.000400494 	0.22993
0.00240803 	-4.97539e-07 	-0.000409757 	0.231165
0.00240803 	-4.97539e-07 	-0.000409757 	0.231165
0.00245819 	-3.68475e-07 	-0.00041883 	0.232387
0.00245819 	-3.68475e-07 	-0.00041883 	0.232387
0.00250836 	-2.37547e-07 	-0.000427514 	0.233582
0.00250836 	-2.37547e-07 	-0.000427514 	0.233582
0.00255853 	-1.04996e-07 	-0.000435842 	0.234753
0.0026087 	2.87064e-08 	-0.000443916 	0.235908
0.0026087 	2.87064e-08 	-0.000443916 	0.235908
0.00265886 	1.64686e-07 	-0.000451476 	0.237032
0.00270903 	3.01207e-07 	-0.000458914 	0.238148
0.00270903 	3.01207e-07 	-0.000458914 	0.238148
0.0027592 	4.4067e-07 	-0.000465694 	0.239225
0.00280936 	5.80635e-07 	-0.000472366 	0.240297
0.00280936 	5.80635e-07 	-0.000472366 	0.240297
0.00285953 	7.23261e-07 	-0.000478469 	0.241336
0.00285953 	7.23261e-07 	-0.000478469 	0.241336
0.0029097 	8.66869e-07 	-0.000484378 	0.242364
0.0029097 	8.66869e-07 	-0.000484378 	0.242364
0.00295987 	1.01295e-06 	-0.000489798 	0.243364
0.00295987 	1.01295e-06 	-0.000489798 	0.243364
0.00301003 	1.16044e-06 	-0.000494966 	0.244351
0.0030602 	1.31027e-06 	-0.000499716 	0.245313
0.00311037 	1.46182e-06 	-0.000504185 	0.246259
0.00311037 	1.46182e-06 	-0.000504185 	0.246259
0.00316054 	1.61563e-06 	-0.000508291 	0.247184
0.00316054 	1.61563e-06 	-0.000508291 	0.247184
0.00326087 	1.9293e-06 	-0.000515623 	0.248978
0.00326087 	1.9293e-06 	-0.000515623 	0.248978
0.00331104 	2.08925e-06 	-0.000518881 	0.249847
0.0033612 	2.25167e-06 	-0.000521833 	0.250696
0.0033612 	2.25167e-06 	-0.000521833 	0.250696
0.00341137 	2.41615e-06 	-0.000524589 	0.251529
0.00341137 	2.41615e-06 	-0.000524589 	0.251529
0.00346154 	2.58378e-06 	-0.000527048 	0.252339
0.00346154 	2.58378e-06 	-0.000527048 	0.252339
0.00351171 	2.75334e-06 	-0.000529372 	0.253138
0.00356187 	2.92718e-06 	-0.000531398 	0.253911
0.00356187 	2.92718e-06 	-0.000531398 	0.253911
0.00361204 	3.10229e-06 	-0.000533353 	0.254677
0.00366221 	3.28287e-06 	-0.000535002 	0.255415
0.00366221 	3.28287e-06 	-0.000535002 	0.255415
0.00371237 	3.46364e-06 	-0.00053664 	0.256152
0.00371237 	3.46364e-06 	-0.00053664 	0.256152
0.00376254 	3.65066e-06 	-0.000537957 	0.256857
0.00376254 	3.65066e-06 	-0.000537957 	0.256857
0.00381271 	3.83768e-06 	-0.000539273 	0.257562
0.00381271 	3.83768e-06 	-0.000539273 	0.257562
0.00386288 	4.0294e-06 	-0.000540344 	0.258241
0.00391304 	4.22208e-06 	-0.000541366 	0.258914
0.00391304 	4.22208e-06 	-0.000541366 	0.258914
0.00396321 	4.4177e-06 	-0.000542234 	0.259567
0.00401338 	4.61534e-06 	-0.000542996 	0.260208
0.00401338 	4.61534e-06 	-0.000542996 	0.260208
0.00406355 	4.81436e-06 	-0.000543688 	0.260839
0.00406355 	4.81436e-06 	-0.000543688 	0.260839
0.00411371 	5.01642e-06 	-0.000544226 	0.261447
0.00411371 	5.01642e-06 	-0.000544226 	0.261447
0.00421405 	5.42436e-06 	-0.000545116 	0.262632
0.00421405 	5.42436e-06 	-0.000545116 	0.262632
0.00426421 	5.63027e-06 	-0.000545466 	0.263208
0.00426421 	5.63027e-06 	-0.000545466 	0.263208
0.00431438 	5.83821e-06 	-0.00054572 	0.263764
0.00431438 	5.83821e-06 	-0.00054572 	0.263764
0.00436455 	6.04733e-06 	-0.000545918 	0.264307
0.00436455 	6.04733e-06 	-0.000545918 	0.264307
0.00441472 	6.25701e-06 	-0.00054609 	0.264844
0.00441472 	6.25701e-06 	-0.00054609 	0.264844
0.00446488 	6.46858e-06 	-0.000546172 	0.265355
0.00446488 	6.46858e-06 	-0.000546172 	0.265355
0.00451505 	6.68014e-06 	-0.000546254 	0.265866
0.00451505 	6.68014e-06 	-0.000546254 	0.265866
0.00456522 	6.89294e-06 	-0.000546273 	0.266352
0.00456522 	6.89294e-06 	-0.000546273 	0.266352
0.00461538 	7.10609e-06 	-0.000546275 	0.26683
0.00461538 	7.10609e-06 	-0.000546275 	0.26683
0.00466555 	7.31941e-06 	-0.000546263 	0.267299
0.00471572 	7.53318e-06 	-0.000546218 	0.267745
0.00476589 	7.74695e-06 	-0.000546173 	0.268191
0.00476589 	7.74695e-06 	-0.000546173 	0.268191
0.00486622 	8.17386e-06 	-0.000546058 	0.269026
0.00486622 	8.17386e-06 	-0.000546058 	0.269026
0.00491639 	8.38704e-06 	-0.000546 	0.269434
0.00496656 	8.59912e-06 	-0.000545954 	0.269814
0.00496656 	8.59912e-06 	-0.000545954 	0.269814
0.00501672 	8.8112e-06 	-0.000545908 	0.270195
0.00506689 	9.02199e-06 	-0.000545883 	0.270558
0.00511706 	9.23171e-06 	-0.000545874 	0.270907
0.00511706 	9.23171e-06 	-0.000545874 	0.270907
0.00521739 	9.64812e-06 	-0.000545904 	0.271576
0.00521739 	9.64812e-06 	-0.000545904 	0.271576
0.00526756 	9.85438e-06 	-0.00054595 	0.271892
0.00526756 	9.85438e-06 	-0.00054595 	0.271892
0.00531773 	1.006e-05 	-0.000546006 	0.272203
0.00536789 	1.02617e-05 	-0.00054612 	0.272488
0.00536789 	1.02617e-05 	-0.00054612 	0.272488
0.00541806 	1.04634e-05 	-0.000546233 	0.272772
0.00546823 	1.0663e-05 	-0.000546375 	0.273045
0.00551839 	1.08591e-05 	-0.000546563 	0.273298
0.00551839 	1.08591e-05 	-0.000546563 	0.273298
0.00556856 	1.10552e-05 	-0.000546751 	0.273551
0.00556856 	1.10552e-05 	-0.000546751 	0.273551
0.0056689 	1.14369e-05 	-0.000547243 	0.27401
0.0056689 	1.14369e-05 	-0.000547243 	0.27401
0.00571906 	1.16263e-05 	-0.000547505 	0.274232
0.00576923 	1.18101e-05 	-0.000547815 	0.274434
0.00576923 	1.18101e-05 	-0.000547815 	0.274434
0.0058194 	1.19914e-05 	-0.000548146 	0.274627
0.0058194 	1.19914e-05 	-0.000548146 	0.274627
0.00591973 	1.23468e-05 	-0.000548851 	0.27499
0.00591973 	1.23468e-05 	-0.000548851 	0.27499
0.0059699 	1.25185e-05 	-0.000549238 	0.275154
0.0059699 	1.25185e-05 	-0.000549238 	0.275154
0.00602007 	1.26903e-05 	-0.000549625 	0.275318
0.00607023 	1.2853e-05 	-0.000550043 	0.27546
0.0061204 	1.30134e-05 	-0.000550469 	0.275596
0.0061204 	1.30134e-05 	-0.000550469 	0.275596
0.00617057 	1.31739e-05 	-0.000550895 	0.275732
0.00622074 	1.33242e-05 	-0.000551335 	0.275847
0.00622074 	1.33242e-05 	-0.000551335 	0.275847
0.0062709 	1.34715e-05 	-0.00055178 	0.275956
0.00632107 	1.36188e-05 	-0.000552225 	0.276065
0.00632107 	1.36188e-05 	-0.000552225 	0.276065
0.00637124 	1.37558e-05 	-0.000552669 	0.276157
0.00637124 	1.37558e-05 	-0.000552669 	0.276157
0.0064214 	1.38879e-05 	-0.000553113 	0.27624
0.0064214 	1.38879e-05 	-0.000553113 	0.27624
0.00647157 	1.40201e-05 	-0.000553557 	0.276323
0.00647157 	1.40201e-05 	-0.000553557 	0.276323
0.00652174 	1.41428e-05 	-0.000553983 	0.276392
0.00657191 	1.42575e-05 	-0.000554393 	0.276449
0.00657191 	1.42575e-05 	-0.000554393 	0.276449
0.00662207 	1.43723e-05 	-0.000554803 	0.276507
0.00667224 	1.448e-05 	-0.000555198 	0.276556
0.00672241 	1.45747e-05 	-0.000555565 	0.276589
0.00672241 	1.45747e-05 	-0.000555565 	0.276589
0.00677258 	1.46694e-05 	-0.000555933 	0.276622
0.00682274 	1.47619e-05 	-0.000556296 	0.276652
0.00682274 	1.47619e-05 	-0.000556296 	0.276652
0.00687291 	1.48336e-05 	-0.000556619 	0.276661
0.00687291 	1.48336e-05 	-0.000556619 	0.276661
0.00692308 	1.49053e-05 	-0.000556941 	0.276669
0.00697324 	1.4977e-05 	-0.000557264 	0.276678
0.00702341 	1.50282e-05 	-0.000557524 	0.276667
0.00707358 	1.50739e-05 	-0.000557767 	0.276652
0.00707358 	1.50739e-05 	-0.000557767 	0.276652
0.00717391 	1.51527e-05 	-0.000558228 	0.276611
0.00717391 	1.51527e-05 	-0.000558228 	0.276611
0.00722408 	1.51684e-05 	-0.000558413 	0.276571
0.00722408 	1.51684e-05 	-0.000558413 	0.276571
0.00727425 	1.51841e-05 	-0.000558598 	0.276532
0.00727425 	1.51841e-05 	-0.000558598 	0.276532
0.00732441 	1.51998e-05 	-0.000558782 	0.276492
0.00732441 	1.51998e-05 	-0.000558782 	0.276492
0.00737458 	1.51821e-05 	-0.000558875 	0.276429
0.00737458 	1.51821e-05 	-0.000558875 	0.276429
0.00742475 	1.51641e-05 	-0.000558966 	0.276366
0.00747492 	1.51461e-05 	-0.000559058 	0.276303
0.00752508 	1.51108e-05 	-0.00055908 	0.276227
0.00752508 	1.51108e-05 	-0.00055908 	0.276227
0.00757525 	1.50585e-05 	-0.000559032 	0.27614
0.00762542 	1.50061e-05 	-0.000558985 	0.276053
0.00767559 	1.49534e-05 	-0.000558936 	0.275966
0.00767559 	1.49534e-05 	-0.000558936 	0.275966
0.00772575 	1.4868e-05 	-0.000558776 	0.275855
0.00777592 	1.47826e-05 	-0.000558617 	0.275744
0.00777592 	1.47826e-05 	-0.000558617 	0.275744
0.00782609 	1.46971e-05 	-0.000558457 	0.275633
0.00787625 	1.45951e-05 	-0.000558212 	0.275509
0.00787625 	1.45951e-05 	-0.000558212 	0.275509
0.00792642 	1.44811e-05 	-0.000557906 	0.275375
0.00797659 	1.43671e-05 	-0.000557599 	0.27524
0.00802676 	1.42481e-05 	-0.000557263 	0.275101
0.00802676 	1.42481e-05 	-0.000557263 	0.275101
0.00807692 	1.41103e-05 	-0.000556815 	0.274944
0.00807692 	1.41103e-05 	-0.000556815 	0.274944
0.00812709 	1.39724e-05 	-0.000556368 	0.274787
0.00817726 	1.38346e-05 	-0.00055592 	0.27463
0.00817726 	1.38346e-05 	-0.00055592 	0.27463
0.00822742 	1.36783e-05 	-0.000555373 	0.274453
0.00827759 	1.352e-05 	-0.000554816 	0.274273
0.00827759 	1.352e-05 	-0.000554816 	0.274273
0.00832776 	1.33617e-05 	-0.000554259 	0.274093
0.00832776 	1.33617e-05 	-0.000554259 	0.274093
0.00837793 	1.31922e-05 	-0.00055362 	0.273899
0.00842809 	1.30166e-05 	-0.000552938 	0.273697
0.00842809 	1.30166e-05 	-0.000552938 	0.273697
0.00847826 	1.2841e-05 	-0.000552257 	0.273495
0.00847826 	1.2841e-05 	-0.000552257 	0.273495
0.0085786 	1.2469e-05 	-0.000550713 	0.273057
0.0085786 	1.2469e-05 	-0.000550713 	0.273057
0.00862876 	1.22791e-05 	-0.000549908 	0.272833
0.00867893 	1.20855e-05 	-0.000549065 	0.272601
0.0087291 	1.18839e-05 	-0.000548138 	0.272354
0.00877926 	1.16824e-05 	-0.000547212 	0.272107
0.00882943 	1.14786e-05 	-0.000546257 	0.271854
0.0088796 	1.12678e-05 	-0.000545209 	0.271585
0.0088796 	1.12678e-05 	-0.000545209 	0.271585
0.00892977 	1.1057e-05 	-0.000544162 	0.271315
0.00892977 	1.1057e-05 	-0.000544162 	0.271315
0.00897993 	1.08447e-05 	-0.00054309 	0.271041
0.00897993 	1.08447e-05 	-0.00054309 	0.271041
0.0090301 	1.06266e-05 	-0.000541922 	0.270748
0.00908027 	1.04086e-05 	-0.000540755 	0.270456
0.00908027 	1.04086e-05 	-0.000540755 	0.270456
0.00913043 	1.01893e-05 	-0.00053956 	0.270159
0.0091806 	9.96582e-06 	-0.000538274 	0.269844
0.0091806 	9.96582e-06 	-0.000538274 	0.269844
0.00923077 	9.74234e-06 	-0.000536987 	0.269529
0.00928094 	9.51765e-06 	-0.000535664 	0.269206
0.00928094 	9.51765e-06 	-0.000535664 	0.269206
0.0093311 	9.29026e-06 	-0.000534257 	0.268868
0.00938127 	9.06288e-06 	-0.000532851 	0.268531
0.00938127 	9.06288e-06 	-0.000532851 	0.268531
0.00943144 	8.83434e-06 	-0.000531392 	0.268182
0.00943144 	8.83434e-06 	-0.000531392 	0.268182
0.00948161 	8.60434e-06 	-0.000529866 	0.267821
0.00948161 	8.60434e-06 	-0.000529866 	0.267821
0.00953177 	8.37434e-06 	-0.000528339 	0.26746
0.00953177 	8.37434e-06 	-0.000528339 	0.26746
0.00958194 	8.1434e-06 	-0.000526738 	0.267084
0.00958194 	8.1434e-06 	-0.000526738 	0.267084
0.00963211 	7.91188e-06 	-0.000525089 	0.2667
0.00968227 	7.68036e-06 	-0.000523441 	0.266315
0.00968227 	7.68036e-06 	-0.000523441 	0.266315
0.00973244 	7.44832e-06 	-0.000521688 	0.26591
0.00978261 	7.2162e-06 	-0.000519916 	0.265501
0.00978261 	7.2162e-06 	-0.000519916 	0.265501
0.00983278 	6.98409e-06 	-0.000518129 	0.26509
0.00983278 	6.98409e-06 	-0.000518129 	0.26509
0.00988294 	6.75213e-06 	-0.00051623 	0.264657
0.00993311 	6.52017e-06 	-0.000514331 	0.264224
0.00993311 	6.52017e-06 	-0.000514331 	0.264224
0.00998328 	6.28856e-06 	-0.000512374 	0.263779
0.0100334 	6.05739e-06 	-0.000510345 	0.263321
0.0100836 	5.82623e-06 	-0.000508317 	0.262863
0.0100836 	5.82623e-06 	-0.000508317 	0.262863
0.0101338 	5.59616e-06 	-0.000506177 	0.262384
0.0101839 	5.36632e-06 	-0.000504014 	0.261901
0.0101839 	5.36632e-06 	-0.000504014 	0.261901
0.0102341 	5.13692e-06 	-0.000501817 	0.261411
0.0102341 	5.13692e-06 	-0.000501817 	0.261411
0.0102843 	4.90887e-06 	-0.000499514 	0.260901
0.0103344 	4.68082e-06 	-0.000497211 	0.260391
0.0103344 	4.68082e-06 	-0.000497211 	0.260391
0.0103846 	4.45431e-06 	-0.000494805 	0.259863
0.0103846 	4.45431e-06 	-0.000494805 	0.259863
0.0104348 	4.22843e-06 	-0.000492356 	0.259326
0.0104348 	4.22843e-06 	-0.000492356 	0.259326
0.0104849 	4.0031e-06 	-0.000489874 	0.258784
0.0104849 	4.0031e-06 	-0.000489874 	0.258784
0.0105351 	3.77974e-06 	-0.000487273 	0.258219
0.0105853 	3.55638e-06 	-0.000484672 	0.257655
0.0105853 	3.55638e-06 	-0.000484672 	0.257655
0.0106856 	3.11462e-06 	-0.000479187 	0.256476
0.0106856 	3.11462e-06 	-0.000479187 	0.256476
0.0107358 	2.89519e-06 	-0.000476365 	0.255872
0.010786 	2.67768e-06 	-0.000473437 	0.255249
0.010786 	2.67768e-06 	-0.000473437 	0.255249
0.0108361 	2.46019e-06 	-0.000470508 	0.254626
0.0108863 	2.24593e-06 	-0.000467406 	0.253973
0.0108863 	2.24593e-06 	-0.000467406 	0.253973
0.0109365 	2.03166e-06 	-0.000464303 	0.25332
0.0109365 	2.03166e-06 	-0.000464303 	0.25332
0.0109866 	1.81975e-06 	-0.000461075 	0.252644
0.0110368 	1.60892e-06 	-0.00045779 	0.251959
0.0110368 	1.60892e-06 	-0.00045779 	0.251959
0.011087 	1.39956e-06 	-0.000454425 	0.251259
0.011087 	1.39956e-06 	-0.000454425 	0.251259
0.0111371 	1.19235e-06 	-0.000450946 	0.250541
0.0111873 	9.85801e-07 	-0.000447432 	0.249816
0.0111873 	9.85801e-07 	-0.000447432 	0.249816
0.0112375 	7.82476e-07 	-0.000443743 	0.249062
0.0112876 	5.79151e-07 	-0.000440055 	0.248308
0.0112876 	5.79151e-07 	-0.000440055 	0.248308
0.0113378 	3.79861e-07 	-0.000436148 	0.247519
0.0113378 	3.79861e-07 	-0.000436148 	0.247519
0.011388 	1.80695e-07 	-0.000432233 	0.246728
0.0114381 	-1.49736e-08 	-0.000428113 	0.245905
0.0114381 	-1.49736e-08 	-0.000428113 	0.245905
0.0114883 	-2.09821e-07 	-0.000423945 	0.245075
0.0115385 	-4.01585e-07 	-0.000419575 	0.244215
0.0115385 	-4.01585e-07 	-0.000419575 	0.244215
0.0115886 	-5.91947e-07 	-0.000415113 	0.243342
0.0116388 	-7.79478e-07 	-0.000410447 	0.242439
0.0116388 	-7.79478e-07 	-0.000410447 	0.242439
0.011689 	-9.65141e-07 	-0.000405645 	0.241518
0.0117391 	-1.14823e-06 	-0.000400627 	0.240567
0.0117893 	-1.32926e-06 	-0.000395434 	0.239593
0.0118395 	-1.508e-06 	-0.000390006 	0.238587
0.0118395 	-1.508e-06 	-0.000390006 	0.238587
0.0118896 	-1.68482e-06 	-0.000384378 	0.237555
0.0119398 	-1.85955e-06 	-0.000378489 	0.236488
0.0119398 	-1.85955e-06 	-0.000378489 	0.236488
0.01199 	-2.03269e-06 	-0.000372399 	0.235394
0.0120401 	-2.20378e-06 	-0.000366013 	0.234257
0.0120401 	-2.20378e-06 	-0.000366013 	0.234257
0.0120903 	-2.37363e-06 	-0.000359448 	0.233095
0.0120903 	-2.37363e-06 	-0.000359448 	0.233095
0.0121906 	-2.70798e-06 	-0.000345492 	0.230649
0.0121906 	-2.70798e-06 	-0.000345492 	0.230649
0.0122408 	-2.87216e-06 	-0.000338039 	0.229351
0.012291 	-3.03586e-06 	-0.00033051 	0.228041
0.012291 	-3.03586e-06 	-0.00033051 	0.228041
0.0123411 	-3.19655e-06 	-0.0003225 	0.22665
0.0123913 	-3.35666e-06 	-0.0003144 	0.225242
0.0123913 	-3.35666e-06 	-0.0003144 	0.225242
0.0124415 	-3.51436e-06 	-0.000305917 	0.223764
0.0124415 	-3.51436e-06 	-0.000305917 	0.223764
0.0124916 	-3.67081e-06 	-0.000297245 	0.222249
0.0124916 	-3.67081e-06 	-0.000297245 	0.222249
0.0125418 	-3.8255e-06 	-0.000288305 	0.22068
0.012592 	-3.97811e-06 	-0.000279077 	0.219047
0.0126421 	-4.1297e-06 	-0.000269707 	0.217382
0.0126421 	-4.1297e-06 	-0.000269707 	0.217382
0.0126923 	-4.27817e-06 	-0.00025996 	0.215621
0.0127425 	-4.42554e-06 	-0.000250103 	0.213826
0.0127425 	-4.42554e-06 	-0.000250103 	0.213826
0.0127926 	-4.57034e-06 	-0.000239995 	0.211953
0.0128428 	-4.71276e-06 	-0.000229713 	0.210012
0.0128428 	-4.71276e-06 	-0.000229713 	0.210012
0.0129431 	-4.9903e-06 	-0.000208723 	0.205928
0.0129431 	-4.9903e-06 	-0.000208723 	0.205928
0.0129933 	-5.12494e-06 	-0.00019807 	0.203778
0.0130435 	-5.25661e-06 	-0.000187338 	0.201554
0.0130435 	-5.25661e-06 	-0.000187338 	0.201554
0.0131438 	-5.50797e-06 	-0.000165804 	0.196833
0.0131438 	-5.50797e-06 	-0.000165804 	0.196833
0.013194 	-5.62769e-06 	-0.000155071 	0.194345
0.0132441 	-5.74184e-06 	-0.00014444 	0.191746
0.0132441 	-5.74184e-06 	-0.00014444 	0.191746
0.0132943 	-5.85199e-06 	-0.000133902 	0.189072
0.0133445 	-5.95619e-06 	-0.000123521 	0.186289
0.0133445 	-5.95619e-06 	-0.000123521 	0.186289
0.0133946 	-6.05268e-06 	-0.000113387 	0.183374
0.0133946 	-6.05268e-06 	-0.000113387 	0.183374
0.0134448 	-6.14337e-06 	-0.000103453 	0.180364
0.0134448 	-6.14337e-06 	-0.000103453 	0.180364
0.013495 	-6.22748e-06 	-9.37505e-05 	0.17725
0.0135452 	-6.29971e-06 	-8.44827e-05 	0.173957
0.0135452 	-6.29971e-06 	-8.44827e-05 	0.173957
0.0135953 	-6.36346e-06 	-7.55265e-05 	0.170545
0.0135953 	-6.36346e-06 	-7.55265e-05 	0.170545
0.0136455 	-6.41796e-06 	-6.69087e-05 	0.167002
0.0136455 	-6.41796e-06 	-6.69087e-05 	0.167002
0.0136957 	-6.46041e-06 	-5.87279e-05 	0.163293
0.0136957 	-6.46041e-06 	-5.87279e-05 	0.163293
0.0137458 	-6.48747e-06 	-5.1096e-05 	0.159376
0.013796 	-6.50165e-06 	-4.39137e-05 	0.155286
0.013796 	-6.50165e-06 	-4.39137e-05 	0.155286
0.0138462 	-6.50176e-06 	-3.7211e-05 	0.15101
0.0138462 	-6.50176e-06 	-3.7211e-05 	0.15101
0.0138963 	-6.48645e-06 	-3.10183e-05 	0.146534
0.0139465 	-6.44838e-06 	-2.55257e-05 	0.141768
0.0139465 	-6.44838e-06 	-2.55257e-05 	0.141768
0.0139967 	-6.39055e-06 	-2.05901e-05 	0.136755
0.0139967 	-6.39055e-06 	-2.05901e-05 	0.136755
0.0140468 	-6.31158e-06 	-1.62103e-05 	0.131483
0.0140468 	-6.31158e-06 	-1.62103e-05 	0.131483
0.014097 	-6.2094e-06 	-1.23941e-05 	0.125928
0.0141472 	-6.08164e-06 	-9.14108e-06 	0.12007
0.0141472 	-6.08164e-06 	-9.14108e-06 	0.12007
0.0141973 	-5.92555e-06 	-6.4366e-06 	0.11388
0.0142475 	-5.73304e-06 	-4.32239e-06 	0.107259
0.0142977 	-5.50701e-06 	-2.667e-06 	0.100226
0.0142977 	-5.50701e-06 	-2.667e-06 	0.100226
0.0143478 	-5.24751e-06 	-1.42506e-06 	0.0927686
0.014398 	-4.95573e-06 	-5.55862e-07 	0.0849082
0.014398 	-4.95573e-06 	-5.55862e-07 	0.0849082
0.0144482 	-4.63405e-06 	-8.49959e-09 	0.0767029
0.0144983 	-4.28612e-06 	2.79227e-07 	0.0682571
0.0144983 	-4.28612e-06 	2.79227e-07 	0.0682571
0.0145485 	-3.91667e-06 	3.76704e-07 	0.0597204
0.0145485 	-3.91667e-06 	3.76704e-07 	0.0597204
0.0145987 	-3.53077e-06 	3.53954e-07 	0.0512718
0.0146488 	-3.13275e-06 	2.73212e-07 	0.0430907
0.014699 	-2.72494e-06 	1.81259e-07 	0.0353236
0.014699 	-2.72494e-06 	1.81259e-07 	0.0353236
0.0147492 	-2.30636e-06 	1.06141e-07 	0.0280646
0.0147993 	-1.86955e-06 	5.79564e-08 	0.0213577
0.0147993 	-1.86955e-06 	5.79564e-08 	0.0213577
0.0148495 	-1.39092e-06 	3.71176e-08 	0.0152131
0.0148495 	-1.39092e-06 	3.71176e-08 	0.0152131
0.0148997 	-8.52737e-07 	2.66823e-08 	0.00962197
0.0148997 	-8.52737e-07 	2.66823e-08 	0.00962197
0.0149498 	-3.34727e-07 	1.70248e-08 	0.00456529
0.0149498 	-3.34727e-07 	1.70248e-08 	0.00456529
0.015 	0 	0 	0
0.015 	0 	0 	0
