/*--------------------------------*- C++ -*----------------------------------*\
| =========                 |                                                 |
| \\      /  F ield         | OpenFOAM: The Open Source CFD Toolbox           |
|  \\    /   O peration     | Version:  v1906                                 |
|   \\  /    A nd           | Web:      www.OpenFOAM.com                      |
|    \\/     M anipulation  |                                                 |
\*---------------------------------------------------------------------------*/
FoamFile
{
    version     2.0;
    format      ascii;
    class       volVectorField;
    location    "36.4";
    object      wallShearStress;
}
// * * * * * * * * * * * * * * * * * * * * * * * * * * * * * * * * * * * * * //

dimensions      [1 -1 -2 0 0 0 0];


internalField   uniform (0 0 0);

boundaryField
{
    leftWall
    {
        type            calculated;
        value           nonuniform List<vector> 
100
(
(-1.52937e-05 -0.162647 0.005849)
(-8.36001e-06 -0.016012 -0.171338)
(-1.08244e-05 -0.00071297 -0.136016)
(-9.22493e-06 8.79138e-05 -0.326018)
(-7.69314e-06 0.000520748 -0.248271)
(-6.15153e-06 -0.000248226 -0.446787)
(-2.45257e-06 0.000387626 -0.27532)
(-4.32036e-06 -7.29256e-05 -0.477034)
(9.3273e-07 -0.000150647 -0.302349)
(1.7913e-05 0.0140974 -0.267593)
(-0.0515903 -0.00947638 -0.17838)
(0.0509495 0.00213515 -0.351599)
(0.0330662 0.000809142 -0.385271)
(0.0117247 0.000269854 -0.423544)
(0.0108973 0.000191336 -0.41786)
(0.00264658 -1.4375e-05 -0.438331)
(0.00679047 2.08287e-05 -0.439664)
(-0.00271351 -0.000236255 -0.418791)
(-0.00202838 -0.00112811 -0.451325)
(-0.0713359 -0.00532359 -0.259735)
(0.00383522 0.00302864 -0.293114)
(0.0363539 0.00266293 -0.43966)
(0.015608 0.000407543 -0.440838)
(0.00336022 0.00011138 -0.458472)
(0.0014747 0.000101007 -0.453244)
(0.00138537 9.30036e-05 -0.460915)
(0.000247272 -8.02516e-05 -0.472554)
(-0.00254834 3.53434e-05 -0.442317)
(-0.00861114 -0.00142736 -0.489008)
(-0.0524349 -0.00478765 -0.324744)
(-0.00320161 0.00420096 -0.339102)
(0.0175172 0.00176935 -0.472344)
(0.0106877 7.51107e-05 -0.454431)
(0.00443894 4.82475e-05 -0.482032)
(0.00301592 -9.84081e-06 -0.457035)
(0.00231435 0.000209166 -0.479812)
(0.00135266 -0.000254229 -0.473422)
(-0.00208699 0.0001693 -0.460814)
(-0.00539463 -0.00142674 -0.493851)
(-0.0326192 -0.00396755 -0.365915)
(-0.000984498 0.00386109 -0.344561)
(0.00994851 0.0018578 -0.488542)
(0.00640544 0.000159177 -0.463104)
(0.00262309 0.000120136 -0.499228)
(0.00112984 -1.47581e-05 -0.461197)
(0.000848833 0.000234036 -0.494392)
(0.000299212 -0.000287019 -0.475581)
(-0.00170558 0.000196758 -0.475151)
(-0.00255564 -0.00134922 -0.49889)
(-0.016587 -0.00400241 -0.384557)
(4.8764e-06 0.00389521 -0.34688)
(4.26606e-06 0.00184093 -0.494009)
(4.17345e-06 0.000119363 -0.464804)
(1.54613e-06 7.9133e-05 -0.504496)
(1.08511e-06 -6.50828e-05 -0.460869)
(-1.63818e-07 0.000245412 -0.499101)
(-1.62774e-07 -0.000328198 -0.475002)
(-1.84504e-06 0.000232316 -0.479961)
(-1.09916e-06 -0.00134886 -0.499896)
(-9.93602e-06 -0.0039896 -0.39011)
(0.000990434 0.00386128 -0.344562)
(-0.00994399 0.00185813 -0.488554)
(-0.00640108 0.000159225 -0.463108)
(-0.0026211 0.000120062 -0.499236)
(-0.00112981 -1.47804e-05 -0.461194)
(-0.000849606 0.000234071 -0.494397)
(-0.000301729 -0.000287113 -0.475576)
(0.0017033 0.000196744 -0.475154)
(0.00255156 -0.0013493 -0.498886)
(0.0165688 -0.00400248 -0.38456)
(0.00320589 0.00420162 -0.33912)
(-0.0175131 0.00176957 -0.472371)
(-0.0106835 7.53887e-05 -0.454443)
(-0.00443592 4.83258e-05 -0.482053)
(-0.00301438 -9.92224e-06 -0.457038)
(-0.00231405 0.000209095 -0.479825)
(-0.00135343 -0.000254394 -0.473417)
(0.00208677 0.000169431 -0.460824)
(0.00539291 -0.00142685 -0.49385)
(0.0326036 -0.00396767 -0.36593)
(-0.00384129 0.00302962 -0.293171)
(-0.0363599 0.00266335 -0.439729)
(-0.0156133 0.000407755 -0.440871)
(-0.00336214 0.000111643 -0.458517)
(-0.00147598 0.000100932 -0.453259)
(-0.00138494 9.30826e-05 -0.460948)
(-0.000248762 -8.04564e-05 -0.472555)
(0.0025499 3.5632e-05 -0.44235)
(0.00860984 -0.00142763 -0.489013)
(0.0524329 -0.0047875 -0.3248)
(0.0515784 -0.0094703 -0.178512)
(-0.0509533 0.00213434 -0.351686)
(-0.0330743 0.000809679 -0.385366)
(-0.0117327 0.000270531 -0.423622)
(-0.0109017 0.000191534 -0.41794)
(-0.00265081 -1.43496e-05 -0.43839)
(-0.00679114 2.0806e-05 -0.43971)
(0.0027108 -0.000235667 -0.418847)
(0.00202965 -0.00112799 -0.451363)
(0.0713522 -0.00532418 -0.259848)
)
;
    }
    rightWall
    {
        type            calculated;
        value           nonuniform List<vector> 
100
(
(-1.46664e-06 0.0076471 -0.676867)
(8.83843e-06 0.00187484 -0.480106)
(1.18582e-06 0.000337404 -0.374906)
(-4.25844e-06 -0.000335879 -0.371201)
(1.16159e-08 -0.000142105 -0.346793)
(-2.47409e-06 -9.29566e-06 -0.37877)
(2.96191e-06 -0.000134371 -0.339751)
(-1.70131e-06 9.84638e-05 -0.398323)
(3.1913e-06 -0.00366182 -0.315085)
(1.37046e-05 -0.005904 -0.762106)
(-0.00652688 0.00807579 -0.663081)
(0.0137579 0.00186707 -0.469767)
(0.00688876 0.000195739 -0.357755)
(0.00530053 -0.000297843 -0.373711)
(-0.00117935 -0.000203786 -0.337862)
(0.00399035 -8.7945e-05 -0.389577)
(-0.00362836 -0.000131156 -0.333707)
(0.00148496 -9.55547e-05 -0.414266)
(-0.0117569 -0.00345157 -0.308262)
(-0.0329821 -0.00528843 -0.793865)
(0.00223883 0.00742433 -0.656636)
(0.0229485 0.000653267 -0.496176)
(0.0107825 8.59747e-05 -0.382368)
(0.00641326 -0.000225774 -0.406026)
(-0.0010791 -8.94783e-05 -0.349399)
(0.00422365 -8.27244e-05 -0.410987)
(-0.00365198 3.80449e-05 -0.337785)
(-0.000282894 -0.000141037 -0.433711)
(-0.0136772 -0.00301589 -0.310696)
(-0.0444894 -0.00470721 -0.822324)
(0.00390967 0.00692262 -0.667115)
(0.0157253 0.000613282 -0.518617)
(0.0066469 0.000353974 -0.393566)
(0.00464677 -0.000192055 -0.424214)
(-0.00103413 -3.15072e-05 -0.352473)
(0.00404005 -0.000130393 -0.429475)
(-0.0028436 0.000121861 -0.342412)
(0.000220726 -0.000208441 -0.455051)
(-0.0114623 -0.00262137 -0.320177)
(-0.0349795 -0.0046598 -0.840288)
(0.00164207 0.00682369 -0.671676)
(0.00881721 0.000474167 -0.531876)
(0.00514229 0.000248028 -0.401911)
(0.00340869 -0.000184832 -0.440549)
(0.000131549 -4.72643e-05 -0.357934)
(0.00211941 -0.000187165 -0.444134)
(-0.00136108 0.000142213 -0.346081)
(-0.000520484 -0.000234202 -0.470221)
(-0.00632311 -0.00244719 -0.324588)
(-0.0191319 -0.00461585 -0.85496)
(5.93077e-06 0.00676848 -0.673014)
(5.41967e-06 0.000354724 -0.537477)
(3.45518e-06 0.000258063 -0.405906)
(4.12569e-06 -0.000175498 -0.445519)
(-4.42815e-07 -1.55478e-05 -0.359452)
(1.22362e-06 -0.000159101 -0.447474)
(-2.58896e-06 0.000173395 -0.346626)
(-4.03256e-07 -0.000229286 -0.474092)
(-3.94529e-06 -0.00241959 -0.325728)
(-1.47231e-05 -0.00457744 -0.859991)
(-0.00163695 0.00682317 -0.671683)
(-0.00881672 0.000473658 -0.531903)
(-0.00513874 0.000248057 -0.401915)
(-0.00340192 -0.00018482 -0.440567)
(-0.000132374 -4.74866e-05 -0.357929)
(-0.0021173 -0.000187217 -0.444147)
(0.0013554 0.00014226 -0.346073)
(0.000520362 -0.000234232 -0.470234)
(0.00631467 -0.00244696 -0.324579)
(0.0191094 -0.0046156 -0.854975)
(-0.00390854 0.00692242 -0.667131)
(-0.015739 0.00061299 -0.518656)
(-0.00665096 0.000353689 -0.393572)
(-0.00464514 -0.000192109 -0.424249)
(0.00103342 -3.12862e-05 -0.352471)
(-0.00403884 -0.000130431 -0.429501)
(0.00284119 0.00012197 -0.342399)
(-0.000220296 -0.000208522 -0.455072)
(0.011459 -0.00262094 -0.320168)
(0.034968 -0.00465957 -0.840312)
(-0.00224479 0.00742371 -0.656655)
(-0.0229609 0.000655271 -0.496208)
(-0.0107898 8.60866e-05 -0.382356)
(-0.00641928 -0.000225745 -0.406055)
(0.00107743 -8.93122e-05 -0.349394)
(-0.00422675 -8.2807e-05 -0.411018)
(0.00365243 3.82976e-05 -0.337776)
(0.000281219 -0.000141262 -0.433741)
(0.0136804 -0.00301524 -0.310687)
(0.0444946 -0.00470702 -0.822359)
(0.00651774 0.00807597 -0.663097)
(-0.0137528 0.00186933 -0.469785)
(-0.00689047 0.000195993 -0.357744)
(-0.00530995 -0.00029787 -0.373723)
(0.00117827 -0.000203844 -0.337854)
(-0.00399641 -8.79342e-05 -0.389588)
(0.00363139 -0.000131076 -0.333698)
(-0.00148867 -9.57214e-05 -0.414276)
(0.0117625 -0.00345169 -0.308258)
(0.0330043 -0.00528824 -0.793877)
)
;
    }
    leftSides_periodic0
    {
        type            cyclic;
    }
    leftSides_periodic1
    {
        type            cyclic;
    }
    rightSides_periodic0
    {
        type            cyclic;
    }
    rightSides_periodic1
    {
        type            cyclic;
    }
    leftInOut_periodic0
    {
        type            cyclic;
    }
    leftInOut_periodic1
    {
        type            cyclic;
    }
    rightInOut_periodic0
    {
        type            cyclic;
    }
    rightInOut_periodic1
    {
        type            cyclic;
    }
}


// ************************************************************************* //
