-0.0075 	0 	0 	0
-0.00745622 	-1.24588e-06 	1.06891e-06 	0.0154259
-0.00741165 	-0.000109375 	2.66966e-06 	0.0294757
-0.00736628 	-0.000253837 	5.02699e-06 	0.0426134
-0.0073201 	-0.000388959 	7.76759e-06 	0.0551197
-0.00727309 	-0.000516434 	1.1031e-05 	0.0670253
-0.00722524 	-0.000645392 	1.47568e-05 	0.0783068
-0.00717653 	-0.000777751 	1.89384e-05 	0.0889689
-0.00712695 	-0.000912924 	2.35683e-05 	0.0990168
-0.00707647 	-0.00104927 	2.86331e-05 	0.108448
-0.0070251 	-0.00118463 	3.41042e-05 	0.117262
-0.0069728 	-0.00131675 	3.99436e-05 	0.125465
-0.00691956 	-0.00144378 	4.61186e-05 	0.133082
-0.00686537 	-0.00156469 	5.26087e-05 	0.140154
-0.00681021 	-0.00167927 	5.93623e-05 	0.146728
-0.00675406 	-0.00178769 	6.63303e-05 	0.152852
-0.0066969 	-0.00189007 	7.35165e-05 	0.158564
-0.00663871 	-0.00198638 	8.0945e-05 	0.163894
-0.00657949 	-0.00207652 	8.8629e-05 	0.168877
-0.0065192 	-0.00216046 	9.65779e-05 	0.173542
-0.00645783 	-0.00223835 	0.000104803 	0.17792
-0.00639535 	-0.00231036 	0.000113314 	0.182037
-0.00633176 	-0.00237662 	0.000122113 	0.18592
-0.00626703 	-0.00243716 	0.000131223 	0.189594
-0.00620114 	-0.00249193 	0.000140714 	0.193082
-0.00613406 	-0.00254103 	0.000150643 	0.196404
-0.00606579 	-0.00258476 	0.000161032 	0.199579
-0.00599629 	-0.00262347 	0.000171874 	0.202623
-0.00592554 	-0.00265748 	0.000183171 	0.205548
-0.00585352 	-0.00268698 	0.000194956 	0.208364
-0.00578022 	-0.00271213 	0.00020723 	0.211082
-0.00570559 	-0.00273303 	0.000219965 	0.213708
-0.00562963 	-0.00274981 	0.000233138 	0.216252
-0.00555231 	-0.00276255 	0.000246736 	0.218719
-0.0054736 	-0.00277135 	0.000260744 	0.221114
-0.00539348 	-0.0027763 	0.000275143 	0.223442
-0.00531193 	-0.00277747 	0.000289915 	0.225707
-0.00522891 	-0.00277495 	0.000305105 	0.227911
-0.0051444 	-0.00276882 	0.000320455 	0.230057
-0.00505838 	-0.00275902 	0.000335842 	0.232151
-0.00497081 	-0.00274543 	0.000351816 	0.234203
-0.00488168 	-0.00272797 	0.000368101 	0.23622
-0.00479094 	-0.00270661 	0.000384156 	0.238198
-0.00469858 	-0.00268145 	0.000399895 	0.240118
-0.00460456 	-0.00265261 	0.000414892 	0.241974
-0.00450886 	-0.00261999 	0.000429444 	0.243782
-0.00441144 	-0.00258334 	0.000442087 	0.245553
-0.00431227 	-0.00254086 	0.000451794 	0.247326
-0.00421133 	-0.00248897 	0.000462718 	0.249187
-0.00410857 	-0.00242392 	0.000476122 	0.251252
-0.00400397 	-0.00234303 	0.000490034 	0.25357
-0.0038975 	-0.00225721 	0.000500944 	0.255825
-0.00378912 	-0.00218191 	0.0005071 	0.257674
-0.00367879 	-0.00211526 	0.000513255 	0.259215
-0.00356649 	-0.00204749 	0.000521576 	0.26066
-0.00345217 	-0.00197285 	0.000528359 	0.262096
-0.0033358 	-0.00188813 	0.000530584 	0.263547
-0.00321735 	-0.00178951 	0.000532799 	0.265071
-0.00309677 	-0.00167229 	0.000537411 	0.266761
-0.00297403 	-0.00153277 	0.000540565 	0.26863
-0.00284909 	-0.00138796 	0.000538241 	0.270353
-0.0027219 	-0.00125489 	0.00053136 	0.271703
-0.00259244 	-0.00112388 	0.000524458 	0.272871
-0.00246065 	-0.000983393 	0.000517668 	0.274009
-0.00232651 	-0.00083403 	0.000509136 	0.275117
-0.00218995 	-0.000683397 	0.000498555 	0.276142
-0.00205095 	-0.00053599 	0.000487337 	0.277054
-0.00190946 	-0.000389335 	0.000474461 	0.277859
-0.00176543 	-0.000237659 	0.000457738 	0.278586
-0.00161881 	-7.73223e-05 	0.000437835 	0.279253
-0.00146957 	9.17009e-05 	0.00041647 	0.279864
-0.00131765 	0.000268303 	0.000394055 	0.280415
-0.001163 	0.00045191 	0.000370091 	0.280905
-0.00100559 	0.000641993 	0.00034451 	0.281331
-0.000845345 	0.00083772 	0.000317494 	0.28169
-0.000682232 	0.00103802 	0.000289136 	0.281981
-0.000516194 	0.00124165 	0.000259473 	0.282198
-0.000347178 	0.0014472 	0.000228985 	0.282338
-0.000175132 	0.00165195 	0.000197652 	0.282392
0 	0.00185107 	0.000165413 	0.282344
0.000175132 	0.00203955 	0.000133011 	0.282187
0.000347178 	0.00221568 	0.000100703 	0.28193
0.000516194 	0.00238104 	6.9066e-05 	0.281587
0.000682232 	0.00253699 	3.83591e-05 	0.281165
0.000845345 	0.00268377 	8.29357e-06 	0.280667
0.00100559 	0.00282166 	-2.09969e-05 	0.280095
0.001163 	0.00295093 	-4.94107e-05 	0.279449
0.00131765 	0.00307184 	-7.68593e-05 	0.278732
0.00146957 	0.00318466 	-0.000103271 	0.277944
0.00161881 	0.00328968 	-0.00012859 	0.277086
0.00176543 	0.00338717 	-0.000152778 	0.27616
0.00190946 	0.00347738 	-0.000175863 	0.275164
0.00205095 	0.00356045 	-0.000197868 	0.274101
0.00218995 	0.00363641 	-0.000219054 	0.272968
0.00232651 	0.003705 	-0.000238389 	0.271766
0.00246065 	0.00376701 	-0.000254173 	0.270497
0.00259244 	0.0038252 	-0.000268794 	0.269172
0.0027219 	0.00388233 	-0.000286703 	0.267776
0.00284909 	0.00393624 	-0.000308747 	0.266213
0.00297403 	0.0039752 	-0.000328174 	0.264365
0.00309677 	0.00399117 	-0.000338184 	0.262288
0.00321735 	0.00399364 	-0.000343603 	0.260227
0.0033358 	0.00399646 	-0.000351734 	0.258324
0.00345217 	0.00400502 	-0.00036295 	0.256524
0.00356649 	0.00401648 	-0.000372871 	0.254727
0.00367879 	0.00402556 	-0.000377979 	0.252872
0.00378912 	0.00403097 	-0.000381134 	0.250936
0.0038975 	0.00403415 	-0.000386364 	0.248895
0.00400397 	0.00403391 	-0.000393253 	0.246691
0.00410857 	0.00402473 	-0.000396905 	0.244281
0.00421133 	0.00400297 	-0.000393979 	0.241717
0.00431227 	0.00397213 	-0.000388551 	0.239119
0.00441144 	0.00393833 	-0.000384542 	0.236535
0.00450886 	0.00390417 	-0.000381351 	0.233923
0.00460456 	0.00386822 	-0.000376608 	0.231234
0.00469858 	0.00382891 	-0.000369271 	0.228453
0.00479094 	0.00378686 	-0.000361249 	0.225581
0.00488168 	0.00374257 	-0.000353603 	0.2226
0.00497081 	0.00369458 	-0.00034503 	0.219489
0.00505838 	0.00364093 	-0.000334141 	0.216247
0.0051444 	0.00358155 	-0.000321158 	0.212907
0.00522891 	0.00351842 	-0.000307124 	0.209509
0.00531193 	0.00345387 	-0.000292822 	0.20607
0.00539348 	0.00338918 	-0.000278682 	0.202576
0.0054736 	0.00332417 	-0.000264631 	0.198994
0.00555231 	0.00325758 	-0.000250263 	0.195285
0.00562963 	0.00318791 	-0.000235241 	0.191426
0.00570559 	0.00311424 	-0.000219604 	0.187406
0.00578022 	0.00303647 	-0.000203666 	0.183225
0.00585352 	0.00295497 	-0.000187723 	0.178884
0.00592554 	0.00287017 	-0.000171977 	0.174381
0.00599629 	0.00278236 	-0.000156555 	0.169712
0.00606579 	0.0026917 	-0.000141507 	0.164869
0.00613406 	0.00259826 	-0.000126894 	0.159844
0.00620114 	0.00250202 	-0.000112822 	0.154625
0.00626703 	0.00240277 	-9.93926e-05 	0.149199
0.00633176 	0.00230025 	-8.66928e-05 	0.143553
0.00639535 	0.00219432 	-7.48028e-05 	0.137676
0.00645783 	0.00208501 	-6.37933e-05 	0.13156
0.0065192 	0.00197237 	-5.37458e-05 	0.125199
0.00657949 	0.00185647 	-4.4734e-05 	0.118584
0.00663871 	0.00173748 	-3.67752e-05 	0.111705
0.0066969 	0.00161577 	-2.98051e-05 	0.104548
0.00675406 	0.00149182 	-2.37971e-05 	0.0971069
0.00681021 	0.00136587 	-1.87626e-05 	0.0893884
0.00686537 	0.00123782 	-1.46617e-05 	0.0814247
0.00691956 	0.00110775 	-1.13929e-05 	0.073282
0.0069728 	0.000976479 	-8.80323e-06 	0.0650685
0.0070251 	0.000845625 	-6.78526e-06 	0.056926
0.00707647 	0.00071748 	-5.21763e-06 	0.0490101
0.00712695 	0.000594605 	-3.96521e-06 	0.0414636
0.00717653 	0.000479288 	-2.94554e-06 	0.0343931
0.00722524 	0.000373232 	-2.10539e-06 	0.0278588
0.00727309 	0.000277799 	-1.41415e-06 	0.0218821
0.0073201 	0.000194881 	-8.89632e-07 	0.0164621
0.00736628 	0.000128339 	-4.31952e-07 	0.0115899
0.00741165 	8.08742e-05 	-2.4978e-07 	0.00725829
0.00745622 	4.40885e-05 	-8.84199e-08 	0.00343262
0.0075 	0 	0 	0
