0 	0 	0 	0
0 	0 	0 	0
0.00752508 	0.000550892 	0.000258087 	-0.297411
0.00752508 	0.000550892 	0.000258087 	-0.297411
0.00757525 	0.000572082 	0.000258385 	-0.297483
0.00762542 	0.000593273 	0.000258684 	-0.297556
0.00762542 	0.000593273 	0.000258684 	-0.297556
0.00767559 	0.000614468 	0.000258893 	-0.297628
0.00772575 	0.000636171 	0.000249346 	-0.297651
0.00777592 	0.000657874 	0.0002398 	-0.297675
0.00782609 	0.000679577 	0.000230253 	-0.297698
0.00782609 	0.000679577 	0.000230253 	-0.297698
0.00787625 	0.000701492 	0.000221705 	-0.297708
0.00792642 	0.00072356 	0.000213882 	-0.297708
0.00797659 	0.000745627 	0.000206059 	-0.297708
0.00802676 	0.000767787 	0.00019855 	-0.297698
0.00802676 	0.000767787 	0.00019855 	-0.297698
0.00807692 	0.000790292 	0.000192218 	-0.297654
0.00812709 	0.000812797 	0.000185887 	-0.29761
0.00812709 	0.000812797 	0.000185887 	-0.29761
0.00817726 	0.000835302 	0.000179556 	-0.297565
0.00822742 	0.000858179 	0.000171704 	-0.29748
0.00822742 	0.000858179 	0.000171704 	-0.29748
0.00827759 	0.000881097 	0.000163685 	-0.297391
0.00832776 	0.000904015 	0.000155666 	-0.297302
0.00832776 	0.000904015 	0.000155666 	-0.297302
0.00837793 	0.00092731 	0.000148557 	-0.297184
0.00842809 	0.000950808 	0.000141939 	-0.297052
0.00842809 	0.000950808 	0.000141939 	-0.297052
0.00847826 	0.000974306 	0.000135322 	-0.296919
0.00847826 	0.000974306 	0.000135322 	-0.296919
0.00852843 	0.000997768 	0.000129519 	-0.296768
0.00852843 	0.000997768 	0.000129519 	-0.296768
0.0085786 	0.00102119 	0.000124691 	-0.296593
0.0085786 	0.00102119 	0.000124691 	-0.296593
0.00862876 	0.0010446 	0.000119863 	-0.296419
0.00867893 	0.00106714 	0.000113778 	-0.296233
0.00867893 	0.00106714 	0.000113778 	-0.296233
0.0087291 	0.00108777 	0.000104993 	-0.296022
0.00877926 	0.00110841 	9.62071e-05 	-0.29581
0.00877926 	0.00110841 	9.62071e-05 	-0.29581
0.00882943 	0.00112769 	8.70087e-05 	-0.295595
0.0088796 	0.0011426 	7.64662e-05 	-0.295366
0.0088796 	0.0011426 	7.64662e-05 	-0.295366
0.00897993 	0.0011721 	6.19127e-05 	-0.294895
0.00897993 	0.0011721 	6.19127e-05 	-0.294895
0.0090301 	0.00118551 	8.2979e-05 	-0.294603
0.00908027 	0.00119891 	0.000104045 	-0.294311
0.00908027 	0.00119891 	0.000104045 	-0.294311
0.00913043 	0.00121624 	0.00012832 	-0.293954
0.0091806 	0.00124658 	0.000163232 	-0.293383
0.0091806 	0.00124658 	0.000163232 	-0.293383
0.00923077 	0.00127692 	0.000198144 	-0.292812
0.00928094 	0.0013185 	0.000199771 	-0.29207
0.00928094 	0.0013185 	0.000199771 	-0.29207
0.0093311 	0.0013852 	0.000127033 	-0.290944
0.00938127 	0.0014519 	5.42951e-05 	-0.289819
0.00938127 	0.0014519 	5.42951e-05 	-0.289819
0.00943144 	0.00153122 	-5.67447e-05 	-0.288434
0.00943144 	0.00153122 	-5.67447e-05 	-0.288434
0.00948161 	0.00162672 	-0.000216898 	-0.286718
0.00948161 	0.00162672 	-0.000216898 	-0.286718
0.00953177 	0.00172223 	-0.000377052 	-0.285002
0.00953177 	0.00172223 	-0.000377052 	-0.285002
0.00958194 	0.00179719 	-0.000402309 	-0.283376
0.00958194 	0.00179719 	-0.000402309 	-0.283376
0.00963211 	0.00185944 	-0.000344077 	-0.281806
0.00963211 	0.00185944 	-0.000344077 	-0.281806
0.00968227 	0.00192169 	-0.000285846 	-0.280235
0.00968227 	0.00192169 	-0.000285846 	-0.280235
0.00973244 	0.00193603 	-0.000108687 	-0.279115
0.00978261 	0.00194172 	8.99675e-05 	-0.278076
0.00983278 	0.00194589 	0.000261638 	-0.27708
0.00988294 	0.00193946 	0.000244358 	-0.276383
0.00988294 	0.00193946 	0.000244358 	-0.276383
0.00993311 	0.00193303 	0.000227077 	-0.275685
0.00998328 	0.00193075 	0.000166847 	-0.275096
0.00998328 	0.00193075 	0.000166847 	-0.275096
0.0100334 	0.00193352 	5.43227e-05 	-0.27464
0.0100334 	0.00193352 	5.43227e-05 	-0.27464
0.0100836 	0.00193629 	-5.82016e-05 	-0.274184
0.0101338 	0.00194013 	-9.68816e-05 	-0.273769
0.0101338 	0.00194013 	-9.68816e-05 	-0.273769
0.0102341 	0.00194521 	-0.000135275 	-0.272983
0.0102341 	0.00194521 	-0.000135275 	-0.272983
0.0102843 	0.00193677 	-0.000127661 	-0.272688
0.0103344 	0.00192834 	-0.000120047 	-0.272393
0.0103344 	0.00192834 	-0.000120047 	-0.272393
0.0103846 	0.00191481 	-0.000130705 	-0.27215
0.0103846 	0.00191481 	-0.000130705 	-0.27215
0.0104348 	0.00189919 	-0.000148889 	-0.271928
0.0104849 	0.00188482 	-0.000170324 	-0.271687
0.0104849 	0.00188482 	-0.000170324 	-0.271687
0.0105351 	0.00187496 	-0.000203439 	-0.271376
0.0105853 	0.0018651 	-0.000236555 	-0.271064
0.0105853 	0.0018651 	-0.000236555 	-0.271064
0.0106355 	0.00186163 	-0.000236452 	-0.270644
0.0106856 	0.00186005 	-0.000226486 	-0.270191
0.0106856 	0.00186005 	-0.000226486 	-0.270191
0.0107358 	0.00185996 	-0.000209541 	-0.269705
0.0107358 	0.00185996 	-0.000209541 	-0.269705
0.010786 	0.00186242 	-0.000180583 	-0.269164
0.010786 	0.00186242 	-0.000180583 	-0.269164
0.0108361 	0.00186487 	-0.000152081 	-0.268622
0.0108361 	0.00186487 	-0.000152081 	-0.268622
0.0108863 	0.0018646 	-0.000195063 	-0.268
0.0109365 	0.00186434 	-0.000238045 	-0.267378
0.0109365 	0.00186434 	-0.000238045 	-0.267378
0.0109866 	0.00185995 	-0.000276976 	-0.266573
0.0109866 	0.00185995 	-0.000276976 	-0.266573
0.0110368 	0.00185368 	-0.00031406 	-0.265686
0.011087 	0.00184781 	-0.000316002 	-0.26459
0.011087 	0.00184781 	-0.000316002 	-0.26459
0.0111371 	0.00184252 	-0.000266953 	-0.263192
0.0111873 	0.00183787 	-0.000199893 	-0.261703
0.0111873 	0.00183787 	-0.000199893 	-0.261703
0.0112375 	0.0018364 	-4.45135e-05 	-0.259774
0.0112876 	0.00183493 	0.000110866 	-0.257844
0.0112876 	0.00183493 	0.000110866 	-0.257844
0.0113378 	0.00182801 	0.000175572 	-0.256275
0.011388 	0.00182092 	0.000237497 	-0.254716
0.011388 	0.00182092 	0.000237497 	-0.254716
0.0114883 	0.00179448 	-4.6019e-05 	-0.253408
0.0114883 	0.00179448 	-4.6019e-05 	-0.253408
0.0115385 	0.0017804 	-0.000178865 	-0.253063
0.0115886 	0.00176624 	-0.000297926 	-0.252814
0.0115886 	0.00176624 	-0.000297926 	-0.252814
0.0116388 	0.00175186 	-0.000334395 	-0.252416
0.011689 	0.00173733 	-0.000316365 	-0.251918
0.011689 	0.00173733 	-0.000316365 	-0.251918
0.0117391 	0.00172149 	-0.000284167 	-0.251271
0.0117893 	0.0017046 	-0.000240573 	-0.250505
0.0117893 	0.0017046 	-0.000240573 	-0.250505
0.0118395 	0.00168479 	-0.000195164 	-0.249675
0.0118896 	0.00166249 	-0.000148223 	-0.248791
0.0118896 	0.00166249 	-0.000148223 	-0.248791
0.0119398 	0.00164267 	-8.01713e-05 	-0.247861
0.0119398 	0.00164267 	-8.01713e-05 	-0.247861
0.01199 	0.00162474 	4.11186e-06 	-0.246895
0.01199 	0.00162474 	4.11186e-06 	-0.246895
0.0120401 	0.00163195 	5.77369e-05 	-0.245733
0.0120401 	0.00163195 	5.77369e-05 	-0.245733
0.0120903 	0.00165436 	9.2843e-05 	-0.244454
0.0120903 	0.00165436 	9.2843e-05 	-0.244454
0.0121405 	0.0017248 	3.25435e-05 	-0.242726
0.0121405 	0.0017248 	3.25435e-05 	-0.242726
0.0121906 	0.00181433 	-6.56482e-05 	-0.24082
0.0121906 	0.00181433 	-6.56482e-05 	-0.24082
0.0122408 	0.00194135 	-0.000238789 	-0.238402
0.0122408 	0.00194135 	-0.000238789 	-0.238402
0.012291 	0.00207538 	-0.000425948 	-0.235887
0.012291 	0.00207538 	-0.000425948 	-0.235887
0.0123411 	0.002144 	-0.000467715 	-0.233745
0.0123411 	0.002144 	-0.000467715 	-0.233745
0.0123913 	0.00218743 	-0.00046701 	-0.231801
0.0123913 	0.00218743 	-0.00046701 	-0.231801
0.0124415 	0.00212488 	-0.00028749 	-0.230691
0.0124916 	0.00203939 	-0.000125905 	-0.229737
0.0124916 	0.00203939 	-0.000125905 	-0.229737
0.012592 	0.00181629 	4.90794e-05 	-0.228121
0.012592 	0.00181629 	4.90794e-05 	-0.228121
0.0126421 	0.00171713 	3.95748e-05 	-0.227163
0.0126923 	0.00164815 	-3.3571e-05 	-0.22592
0.0126923 	0.00164815 	-3.3571e-05 	-0.22592
0.0127425 	0.00158509 	-0.000100999 	-0.224615
0.0127425 	0.00158509 	-0.000100999 	-0.224615
0.0127926 	0.00153417 	-0.000144902 	-0.223183
0.0128428 	0.00148501 	-0.000155677 	-0.221695
0.0128428 	0.00148501 	-0.000155677 	-0.221695
0.012893 	0.00143695 	-0.000145763 	-0.220173
0.0129431 	0.00138835 	-0.000133344 	-0.218574
0.0129431 	0.00138835 	-0.000133344 	-0.218574
0.0129933 	0.00133972 	-0.000124795 	-0.216938
0.0130435 	0.00129104 	-0.000122267 	-0.215246
0.0130435 	0.00129104 	-0.000122267 	-0.215246
0.0130936 	0.00124247 	-0.000119272 	-0.213468
0.0131438 	0.00119388 	-0.000116025 	-0.211639
0.0131438 	0.00119388 	-0.000116025 	-0.211639
0.013194 	0.00114523 	-0.00011239 	-0.20973
0.0132441 	0.00109617 	-0.000108722 	-0.207728
0.0132441 	0.00109617 	-0.000108722 	-0.207728
0.0132943 	0.00104671 	-0.000105093 	-0.205661
0.0133445 	0.000996557 	-0.000101583 	-0.203499
0.0133445 	0.000996557 	-0.000101583 	-0.203499
0.0133946 	0.000945418 	-9.83908e-05 	-0.201215
0.0134448 	0.000893561 	-9.55917e-05 	-0.198841
0.0134448 	0.000893561 	-9.55917e-05 	-0.198841
0.013495 	0.000840903 	-9.33109e-05 	-0.196365
0.0135452 	0.00078713 	-9.19381e-05 	-0.193706
0.0135452 	0.00078713 	-9.19381e-05 	-0.193706
0.0136455 	0.000679046 	-9.02167e-05 	-0.187974
0.0136455 	0.000679046 	-9.02167e-05 	-0.187974
0.0136957 	0.000625768 	-8.95429e-05 	-0.184839
0.0137458 	0.000574978 	-8.8491e-05 	-0.181441
0.0137458 	0.000574978 	-8.8491e-05 	-0.181441
0.013796 	0.000527152 	-8.71606e-05 	-0.17782
0.0138462 	0.000483041 	-8.56534e-05 	-0.173955
0.0138462 	0.000483041 	-8.56534e-05 	-0.173955
0.0138963 	0.000443468 	-8.41389e-05 	-0.16982
0.0138963 	0.000443468 	-8.41389e-05 	-0.16982
0.0139465 	0.000411262 	-8.31468e-05 	-0.165293
0.0139967 	0.000385878 	-8.23942e-05 	-0.160426
0.0139967 	0.000385878 	-8.23942e-05 	-0.160426
0.0140468 	0.00036783 	-8.14554e-05 	-0.155197
0.0140468 	0.00036783 	-8.14554e-05 	-0.155197
0.014097 	0.000357444 	-8.02712e-05 	-0.149578
0.0141472 	0.000354521 	-7.90529e-05 	-0.143545
0.0141973 	0.000358067 	-7.80027e-05 	-0.137079
0.0141973 	0.000358067 	-7.80027e-05 	-0.137079
0.0142475 	0.000365836 	-7.72243e-05 	-0.130106
0.0142977 	0.000373224 	-7.63604e-05 	-0.122695
0.0143478 	0.000376507 	-7.46847e-05 	-0.114861
0.0143478 	0.000376507 	-7.46847e-05 	-0.114861
0.014398 	0.000371693 	-7.22945e-05 	-0.10664
0.014398 	0.000371693 	-7.22945e-05 	-0.10664
0.0144482 	0.000354952 	-6.93798e-05 	-0.0980947
0.0144983 	0.000323407 	-6.57047e-05 	-0.0893187
0.0144983 	0.000323407 	-6.57047e-05 	-0.0893187
0.0145485 	0.000276135 	-6.09789e-05 	-0.0804266
0.0145987 	0.000215311 	-5.5097e-05 	-0.0715323
0.0145987 	0.000215311 	-5.5097e-05 	-0.0715323
0.0146488 	0.000147238 	-4.78538e-05 	-0.0627193
0.014699 	8.28256e-05 	-3.90853e-05 	-0.0540115
0.014699 	8.28256e-05 	-3.90853e-05 	-0.0540115
0.0147492 	3.78988e-05 	-2.89444e-05 	-0.0453541
0.0147993 	3.45698e-05 	-1.82835e-05 	-0.0365968
0.0147993 	3.45698e-05 	-1.82835e-05 	-0.0365968
0.0148495 	0.000105075 	-7.34459e-06 	-0.0274703
0.0148495 	0.000105075 	-7.34459e-06 	-0.0274703
0.0148997 	0.00023226 	-3.38752e-07 	-0.0178357
0.0148997 	0.00023226 	-3.38752e-07 	-0.0178357
0.0149498 	0.000251653 	1.37567e-06 	-0.00831048
0.0149498 	0.000251653 	1.37567e-06 	-0.00831048
0.015 	0 	0 	0
