0 	0 	0 	0
5.01672e-05 	-2.30089e-05 	-4.59865e-06 	0.0203707
0.000100334 	-4.60178e-05 	-9.19729e-06 	0.0407413
0.000150502 	-6.90267e-05 	-1.37959e-05 	0.061112
0.000200669 	-9.20356e-05 	-1.83946e-05 	0.0814826
0.000250836 	-0.000115045 	-2.29932e-05 	0.101853
0.000301003 	-0.000138053 	-2.75919e-05 	0.122224
0.000351171 	-0.000158914 	-3.29116e-05 	0.14048
0.000401338 	-0.00017165 	-4.09579e-05 	0.150739
0.000451505 	-0.000184387 	-4.90043e-05 	0.160997
0.000501672 	-0.000197123 	-5.70506e-05 	0.171256
0.000551839 	-0.000209859 	-6.50969e-05 	0.181515
0.000602007 	-0.000222596 	-7.31433e-05 	0.191774
0.000652174 	-0.000235332 	-8.11896e-05 	0.202033
0.000702341 	-0.000248068 	-8.9236e-05 	0.212291
0.000752508 	-0.000257967 	-9.75043e-05 	0.221125
0.000802676 	-0.00026083 	-0.000106323 	0.226423
0.000852843 	-0.000263693 	-0.000115142 	0.231722
0.00090301 	-0.000266556 	-0.00012396 	0.237021
0.000953177 	-0.00026942 	-0.000132779 	0.24232
0.00100334 	-0.000272283 	-0.000141597 	0.247618
0.00105351 	-0.000275146 	-0.000150416 	0.252917
0.00110368 	-0.000278009 	-0.000159235 	0.258216
0.00115385 	-0.000280872 	-0.000168053 	0.263514
0.00120401 	-0.000283532 	-0.000176828 	0.268708
0.00125418 	-0.000282015 	-0.000184696 	0.271732
0.00130435 	-0.000280498 	-0.000192564 	0.274757
0.00135452 	-0.000278981 	-0.000200433 	0.277782
0.00140468 	-0.000277465 	-0.000208301 	0.280806
0.00145485 	-0.000275948 	-0.000216169 	0.283831
0.00150502 	-0.000274431 	-0.000224037 	0.286856
0.00155518 	-0.000272915 	-0.000231906 	0.289881
0.00160535 	-0.000271398 	-0.000239774 	0.292905
0.00165552 	-0.000269881 	-0.000247642 	0.29593
0.00170569 	-0.000268364 	-0.000255511 	0.298955
0.00175585 	-0.000266591 	-0.000262962 	0.30169
0.00180602 	-0.000264113 	-0.000269265 	0.303628
0.00185619 	-0.000261634 	-0.000275568 	0.305566
0.00190635 	-0.000259156 	-0.000281872 	0.307505
0.00195652 	-0.000256677 	-0.000288175 	0.309443
0.00200669 	-0.000254198 	-0.000294479 	0.311381
0.00205686 	-0.00025172 	-0.000300782 	0.313319
0.00210702 	-0.000249241 	-0.000307085 	0.315258
0.00215719 	-0.000246763 	-0.000313389 	0.317196
0.00220736 	-0.000244284 	-0.000319692 	0.319134
0.00225753 	-0.000241806 	-0.000325995 	0.321072
0.00230769 	-0.000239327 	-0.000332299 	0.323011
0.00235786 	-0.000236848 	-0.000338602 	0.324949
0.00240803 	-0.000234626 	-0.000343717 	0.326452
0.00245819 	-0.000232518 	-0.000348301 	0.327762
0.00250836 	-0.000230409 	-0.000352885 	0.329071
0.00255853 	-0.000228301 	-0.00035747 	0.33038
0.0026087 	-0.000226193 	-0.000362054 	0.33169
0.00265886 	-0.000224085 	-0.000366639 	0.332999
0.00270903 	-0.000221976 	-0.000371223 	0.334309
0.0027592 	-0.000219868 	-0.000375808 	0.335618
0.00280936 	-0.00021776 	-0.000380392 	0.336927
0.00285953 	-0.000215652 	-0.000384976 	0.338237
0.0029097 	-0.000213543 	-0.000389561 	0.339546
0.00295987 	-0.000211435 	-0.000394145 	0.340856
0.00301003 	-0.000209327 	-0.00039873 	0.342165
0.0030602 	-0.000207218 	-0.000403314 	0.343474
0.00311037 	-0.000205125 	-0.000407868 	0.344774
0.00316054 	-0.000203659 	-0.000411092 	0.345652
0.0032107 	-0.000202194 	-0.000414317 	0.346531
0.00326087 	-0.000200728 	-0.000417541 	0.347409
0.00331104 	-0.000199262 	-0.000420766 	0.348288
0.0033612 	-0.000197797 	-0.000423991 	0.349166
0.00341137 	-0.000196331 	-0.000427215 	0.350045
0.00346154 	-0.000194866 	-0.00043044 	0.350923
0.00351171 	-0.0001934 	-0.000433664 	0.351802
0.00356187 	-0.000191934 	-0.000436889 	0.35268
0.00361204 	-0.000190469 	-0.000440113 	0.353559
0.00366221 	-0.000189003 	-0.000443338 	0.354437
0.00371237 	-0.000187538 	-0.000446562 	0.355316
0.00376254 	-0.000186072 	-0.000449787 	0.356194
0.00381271 	-0.000184606 	-0.000453011 	0.357073
0.00386288 	-0.000183141 	-0.000456236 	0.357951
0.00391304 	-0.000181675 	-0.00045946 	0.35883
0.00396321 	-0.00018021 	-0.000462685 	0.359708
0.00401338 	-0.000179159 	-0.000465063 	0.360287
0.00406355 	-0.000178148 	-0.000467358 	0.360837
0.00411371 	-0.000177138 	-0.000469653 	0.361387
0.00416388 	-0.000176128 	-0.000471948 	0.361936
0.00421405 	-0.000175118 	-0.000474242 	0.362486
0.00426421 	-0.000174107 	-0.000476537 	0.363035
0.00431438 	-0.000173097 	-0.000478832 	0.363585
0.00436455 	-0.000172087 	-0.000481127 	0.364135
0.00441472 	-0.000171076 	-0.000483422 	0.364684
0.00446488 	-0.000170066 	-0.000485717 	0.365234
0.00451505 	-0.000169056 	-0.000488012 	0.365783
0.00456522 	-0.000168046 	-0.000490307 	0.366333
0.00461538 	-0.000167035 	-0.000492602 	0.366883
0.00466555 	-0.000166025 	-0.000494897 	0.367432
0.00471572 	-0.000165015 	-0.000497192 	0.367982
0.00476589 	-0.000164004 	-0.000499487 	0.368532
0.00481605 	-0.000162994 	-0.000501781 	0.369081
0.00486622 	-0.000161984 	-0.000504076 	0.369631
0.00491639 	-0.000160974 	-0.000506371 	0.37018
0.00496656 	-0.000159963 	-0.000508666 	0.37073
0.00501672 	-0.000159163 	-0.000510237 	0.371029
0.00506689 	-0.000158374 	-0.00051177 	0.371315
0.00511706 	-0.000157585 	-0.000513302 	0.371601
0.00516722 	-0.000156796 	-0.000514834 	0.371887
0.00521739 	-0.000156007 	-0.000516367 	0.372173
0.00526756 	-0.000155218 	-0.000517899 	0.372459
0.00531773 	-0.000154429 	-0.000519432 	0.372745
0.00536789 	-0.00015364 	-0.000520964 	0.373031
0.00541806 	-0.000152851 	-0.000522496 	0.373317
0.00546823 	-0.000152062 	-0.000524029 	0.373602
0.00551839 	-0.000151273 	-0.000525561 	0.373888
0.00556856 	-0.000150484 	-0.000527093 	0.374174
0.00561873 	-0.000149695 	-0.000528626 	0.37446
0.0056689 	-0.000148906 	-0.000530158 	0.374746
0.00571906 	-0.000148117 	-0.00053169 	0.375032
0.00576923 	-0.000147328 	-0.000533223 	0.375318
0.0058194 	-0.000146539 	-0.000534755 	0.375604
0.00586957 	-0.00014575 	-0.000536287 	0.37589
0.00591973 	-0.000144961 	-0.00053782 	0.376176
0.0059699 	-0.000144172 	-0.000539352 	0.376461
0.00602007 	-0.000143383 	-0.000540885 	0.376747
0.00607023 	-0.000142594 	-0.000542417 	0.377033
0.0061204 	-0.000141805 	-0.000543949 	0.377319
0.00617057 	-0.000141114 	-0.000544961 	0.377459
0.00622074 	-0.000140473 	-0.000545708 	0.377524
0.0062709 	-0.000139832 	-0.000546455 	0.377589
0.00632107 	-0.000139191 	-0.000547202 	0.377654
0.00637124 	-0.00013855 	-0.000547949 	0.37772
0.0064214 	-0.000137909 	-0.000548696 	0.377785
0.00647157 	-0.000137268 	-0.000549443 	0.37785
0.00652174 	-0.000136627 	-0.00055019 	0.377916
0.00657191 	-0.000135986 	-0.000550937 	0.377981
0.00662207 	-0.000135345 	-0.000551684 	0.378046
0.00667224 	-0.000134704 	-0.000552431 	0.378111
0.00672241 	-0.000134063 	-0.000553179 	0.378177
0.00677258 	-0.000133422 	-0.000553926 	0.378242
0.00682274 	-0.000132781 	-0.000554673 	0.378307
0.00687291 	-0.00013214 	-0.00055542 	0.378372
0.00692308 	-0.000131499 	-0.000556167 	0.378438
0.00697324 	-0.000130858 	-0.000556914 	0.378503
0.00702341 	-0.000130217 	-0.000557661 	0.378568
0.00707358 	-0.000129575 	-0.000558408 	0.378633
0.00712375 	-0.000128934 	-0.000559155 	0.378699
0.00717391 	-0.000128293 	-0.000559902 	0.378764
0.00722408 	-0.000127652 	-0.000560649 	0.378829
0.00727425 	-0.000127011 	-0.000561397 	0.378894
0.00732441 	-0.00012637 	-0.000562144 	0.37896
0.00737458 	-0.000125729 	-0.000562891 	0.379025
0.00742475 	-0.000125088 	-0.000563638 	0.37909
0.00747492 	-0.000124447 	-0.000564385 	0.379156
0.00752508 	-0.000123864 	-0.000564741 	0.379122
0.00757525 	-0.000123339 	-0.000564706 	0.378988
0.00762542 	-0.000122814 	-0.000564671 	0.378855
0.00767559 	-0.000122289 	-0.000564636 	0.378721
0.00772575 	-0.000121764 	-0.000564601 	0.378588
0.00777592 	-0.000121239 	-0.000564566 	0.378455
0.00782609 	-0.000120715 	-0.000564531 	0.378321
0.00787625 	-0.00012019 	-0.000564496 	0.378188
0.00792642 	-0.000119665 	-0.000564461 	0.378055
0.00797659 	-0.00011914 	-0.000564426 	0.377921
0.00802676 	-0.000118615 	-0.000564391 	0.377788
0.00807692 	-0.00011809 	-0.000564356 	0.377655
0.00812709 	-0.000117565 	-0.000564321 	0.377521
0.00817726 	-0.00011704 	-0.000564286 	0.377388
0.00822742 	-0.000116515 	-0.000564251 	0.377255
0.00827759 	-0.00011599 	-0.000564216 	0.377121
0.00832776 	-0.000115465 	-0.000564181 	0.376988
0.00837793 	-0.00011494 	-0.000564146 	0.376855
0.00842809 	-0.000114415 	-0.000564111 	0.376721
0.00847826 	-0.00011389 	-0.000564076 	0.376588
0.00852843 	-0.000113365 	-0.000564041 	0.376455
0.0085786 	-0.000112841 	-0.000564006 	0.376321
0.00862876 	-0.000112316 	-0.000563971 	0.376188
0.00867893 	-0.000111791 	-0.000563936 	0.376055
0.0087291 	-0.000111266 	-0.000563901 	0.375921
0.00877926 	-0.000110741 	-0.000563866 	0.375788
0.00882943 	-0.000110216 	-0.000563831 	0.375655
0.0088796 	-0.000109746 	-0.000563474 	0.37544
0.00892977 	-0.000109384 	-0.000562481 	0.375066
0.00897993 	-0.000109023 	-0.000561487 	0.374692
0.0090301 	-0.000108661 	-0.000560494 	0.374318
0.00908027 	-0.000108299 	-0.0005595 	0.373944
0.00913043 	-0.000107938 	-0.000558507 	0.37357
0.0091806 	-0.000107576 	-0.000557514 	0.373196
0.00923077 	-0.000107214 	-0.00055652 	0.372822
0.00928094 	-0.000106853 	-0.000555527 	0.372447
0.0093311 	-0.000106491 	-0.000554534 	0.372073
0.00938127 	-0.000106129 	-0.00055354 	0.371699
0.00943144 	-0.000105768 	-0.000552547 	0.371325
0.00948161 	-0.000105406 	-0.000551553 	0.370951
0.00953177 	-0.000105044 	-0.00055056 	0.370577
0.00958194 	-0.000104683 	-0.000549567 	0.370203
0.00963211 	-0.000104321 	-0.000548573 	0.369829
0.00968227 	-0.000103959 	-0.00054758 	0.369454
0.00973244 	-0.000103598 	-0.000546587 	0.36908
0.00978261 	-0.000103236 	-0.000545593 	0.368706
0.00983278 	-0.000102874 	-0.0005446 	0.368332
0.00988294 	-0.000102513 	-0.000543606 	0.367958
0.00993311 	-0.000102151 	-0.000542613 	0.367584
0.00998328 	-0.000101789 	-0.00054162 	0.36721
0.0100334 	-0.000101446 	-0.00054057 	0.366821
0.0100836 	-0.000101441 	-0.00053847 	0.366162
0.0101338 	-0.000101436 	-0.000536369 	0.365504
0.0101839 	-0.000101431 	-0.000534269 	0.364845
0.0102341 	-0.000101426 	-0.000532168 	0.364186
0.0102843 	-0.000101422 	-0.000530068 	0.363527
0.0103344 	-0.000101417 	-0.000527967 	0.362869
0.0103846 	-0.000101412 	-0.000525867 	0.36221
0.0104348 	-0.000101407 	-0.000523767 	0.361551
0.0104849 	-0.000101402 	-0.000521666 	0.360893
0.0105351 	-0.000101398 	-0.000519566 	0.360234
0.0105853 	-0.000101393 	-0.000517465 	0.359575
0.0106355 	-0.000101388 	-0.000515365 	0.358916
0.0106856 	-0.000101383 	-0.000513265 	0.358258
0.0107358 	-0.000101378 	-0.000511164 	0.357599
0.010786 	-0.000101374 	-0.000509064 	0.35694
0.0108361 	-0.000101369 	-0.000506963 	0.356281
0.0108863 	-0.000101364 	-0.000504863 	0.355623
0.0109365 	-0.000101359 	-0.000502763 	0.354964
0.0109866 	-0.000101354 	-0.000500662 	0.354305
0.0110368 	-0.000101407 	-0.00049842 	0.353614
0.011087 	-0.000102046 	-0.000494733 	0.352586
0.0111371 	-0.000102685 	-0.000491047 	0.351559
0.0111873 	-0.000103324 	-0.00048736 	0.350532
0.0112375 	-0.000103963 	-0.000483673 	0.349505
0.0112876 	-0.000104602 	-0.000479987 	0.348477
0.0113378 	-0.000105241 	-0.0004763 	0.34745
0.011388 	-0.00010588 	-0.000472614 	0.346423
0.0114381 	-0.000106519 	-0.000468927 	0.345396
0.0114883 	-0.000107158 	-0.00046524 	0.344368
0.0115385 	-0.000107797 	-0.000461554 	0.343341
0.0115886 	-0.000108436 	-0.000457867 	0.342314
0.0116388 	-0.000109075 	-0.00045418 	0.341287
0.011689 	-0.000109714 	-0.000450494 	0.340259
0.0117391 	-0.000110353 	-0.000446807 	0.339232
0.0117893 	-0.000110993 	-0.00044312 	0.338205
0.0118395 	-0.000111632 	-0.000439434 	0.337178
0.0118896 	-0.000112271 	-0.000435747 	0.33615
0.0119398 	-0.000113822 	-0.000429588 	0.334584
0.01199 	-0.000115395 	-0.000423373 	0.333005
0.0120401 	-0.000116967 	-0.000417157 	0.331427
0.0120903 	-0.000118539 	-0.000410941 	0.329848
0.0121405 	-0.000120112 	-0.000404725 	0.328269
0.0121906 	-0.000121684 	-0.000398509 	0.32669
0.0122408 	-0.000123257 	-0.000392294 	0.325111
0.012291 	-0.000124829 	-0.000386078 	0.323533
0.0123411 	-0.000126402 	-0.000379862 	0.321954
0.0123913 	-0.000127974 	-0.000373646 	0.320375
0.0124415 	-0.000129547 	-0.00036743 	0.318796
0.0124916 	-0.000131119 	-0.000361215 	0.317218
0.0125418 	-0.000132692 	-0.000354999 	0.315639
0.012592 	-0.000134264 	-0.000348783 	0.31406
0.0126421 	-0.000136098 	-0.00034161 	0.312196
0.0126923 	-0.000138519 	-0.000332291 	0.309692
0.0127425 	-0.000140939 	-0.000322971 	0.307188
0.0127926 	-0.000143359 	-0.000313651 	0.304684
0.0128428 	-0.00014578 	-0.000304332 	0.30218
0.012893 	-0.0001482 	-0.000295012 	0.299676
0.0129431 	-0.00015062 	-0.000285692 	0.297172
0.0129933 	-0.00015304 	-0.000276373 	0.294668
0.0130435 	-0.000155461 	-0.000267053 	0.292164
0.0130936 	-0.000157881 	-0.000257733 	0.28966
0.0131438 	-0.000160301 	-0.000248413 	0.287156
0.013194 	-0.000162722 	-0.000239094 	0.284652
0.0132441 	-0.000165142 	-0.000229774 	0.282148
0.0132943 	-0.000167231 	-0.00021888 	0.278427
0.0133445 	-0.000169198 	-0.000207413 	0.274262
0.0133946 	-0.000171166 	-0.000195947 	0.270098
0.0134448 	-0.000173134 	-0.00018448 	0.265934
0.013495 	-0.000175102 	-0.000173013 	0.26177
0.0135452 	-0.00017707 	-0.000161547 	0.257605
0.0135953 	-0.000179038 	-0.00015008 	0.253441
0.0136455 	-0.000181006 	-0.000138613 	0.249277
0.0136957 	-0.000182974 	-0.000127146 	0.245113
0.0137458 	-0.000184942 	-0.00011568 	0.240948
0.013796 	-0.00018691 	-0.000104213 	0.236784
0.0138462 	-0.000184751 	-9.44463e-05 	0.229336
0.0138963 	-0.000182391 	-8.47624e-05 	0.221728
0.0139465 	-0.000180031 	-7.50784e-05 	0.21412
0.0139967 	-0.000177672 	-6.53945e-05 	0.206512
0.0140468 	-0.000175312 	-5.57105e-05 	0.198904
0.014097 	-0.000172952 	-4.60266e-05 	0.191296
0.0141472 	-0.000170592 	-3.63426e-05 	0.183688
0.0141973 	-0.000168233 	-2.66587e-05 	0.17608
0.0142475 	-0.000165873 	-1.69747e-05 	0.168472
0.0142977 	-0.000157982 	-1.20012e-05 	0.157953
0.0143478 	-0.000147862 	-8.92736e-06 	0.14626
0.014398 	-0.000137741 	-5.85357e-06 	0.134567
0.0144482 	-0.00012762 	-2.77978e-06 	0.122874
0.0144983 	-0.000117499 	2.94014e-07 	0.111181
0.0145485 	-0.000107378 	3.36781e-06 	0.0994886
0.0145987 	-9.72573e-05 	6.4416e-06 	0.0877957
0.0146488 	-8.71364e-05 	9.51539e-06 	0.0761028
0.014699 	-7.51184e-05 	8.97521e-06 	0.0650793
0.0147492 	-6.25987e-05 	7.47934e-06 	0.0542327
0.0147993 	-5.00789e-05 	5.98347e-06 	0.0433862
0.0148495 	-3.75592e-05 	4.48761e-06 	0.0325396
0.0148997 	-2.50395e-05 	2.99174e-06 	0.0216931
0.0149498 	-1.25197e-05 	1.49587e-06 	0.0108465
0.015 	0 	0 	0
