# Region type : patch rightWall
# Faces       : 256
# Area        : 5.400000e-03
# Scale factor: 1.000000e+00
# Time        	areaAverage(heatTransferCoeff(T))	areaAverage(wallShearStress)	areaAverage(T)
100.4         	-2.558239e+02	(-9.048144e-04 -1.156921e-05 -2.920509e-01)	3.130000e+02
100.8         	-2.572990e+02	(-6.157412e-04 6.883253e-06 -3.005312e-01)	3.130000e+02
101.2         	-2.608110e+02	(-4.011184e-04 2.829073e-06 -3.058853e-01)	3.130000e+02
101.6         	-2.630380e+02	(-2.864132e-04 1.666689e-06 -3.080337e-01)	3.130000e+02
102           	-2.640482e+02	(-2.360509e-04 8.315169e-07 -3.086374e-01)	3.130000e+02
102.4         	-2.643581e+02	(-2.012153e-04 2.183070e-07 -3.083566e-01)	3.130000e+02
102.8         	-2.643221e+02	(-1.742613e-04 3.512725e-07 -3.078885e-01)	3.130000e+02
103.2         	-2.642744e+02	(-1.552150e-04 1.867868e-07 -3.078874e-01)	3.130000e+02
103.6         	-2.644141e+02	(-1.407534e-04 7.639813e-07 -3.080576e-01)	3.130000e+02
104           	-2.645703e+02	(-1.295694e-04 7.130330e-07 -3.080763e-01)	3.130000e+02
104.4         	-2.646966e+02	(-1.206400e-04 9.805518e-08 -3.080166e-01)	3.130000e+02
104.8         	-2.648172e+02	(-1.130873e-04 7.614503e-10 -3.079345e-01)	3.130000e+02
105.2         	-2.649349e+02	(-1.061324e-04 1.121831e-06 -3.078932e-01)	3.130000e+02
105.6         	-2.650446e+02	(-9.925304e-05 -2.763347e-07 -3.077102e-01)	3.130000e+02
106           	-2.651778e+02	(-9.253450e-05 -2.164966e-07 -3.075980e-01)	3.130000e+02
106.4         	-2.653180e+02	(-8.618262e-05 -2.299386e-07 -3.075120e-01)	3.130000e+02
106.8         	-2.654657e+02	(-8.014087e-05 -2.487813e-07 -3.074242e-01)	3.130000e+02
107.2         	-2.656236e+02	(-7.452558e-05 -3.282798e-07 -3.073186e-01)	3.130000e+02
107.6         	-2.657923e+02	(-6.937887e-05 1.155378e-06 -3.073219e-01)	3.130000e+02
108           	-2.659578e+02	(-6.451446e-05 -2.607344e-07 -3.071930e-01)	3.130000e+02
108.4         	-2.661330e+02	(-6.001291e-05 9.809953e-07 -3.071874e-01)	3.130000e+02
108.8         	-2.663091e+02	(-5.587175e-05 1.189567e-06 -3.071727e-01)	3.130000e+02
109.2         	-2.664594e+02	(-5.194207e-05 -3.603451e-07 -3.070304e-01)	3.130000e+02
109.6         	-2.666104e+02	(-4.836927e-05 -3.088086e-07 -3.070282e-01)	3.130000e+02
110           	-2.667633e+02	(-4.505757e-05 -2.077170e-07 -3.070079e-01)	3.130000e+02
110.4         	-2.669168e+02	(-4.199724e-05 -1.451389e-07 -3.069844e-01)	3.130000e+02
110.8         	-2.670673e+02	(-3.921827e-05 1.026504e-06 -3.070310e-01)	3.130000e+02
111.2         	-2.671969e+02	(-3.663003e-05 -1.992560e-07 -3.069519e-01)	3.130000e+02
111.6         	-2.673342e+02	(-3.428481e-05 1.057368e-06 -3.069856e-01)	3.130000e+02
112           	-2.674584e+02	(-3.204647e-05 -2.184184e-07 -3.068383e-01)	3.130000e+02
112.4         	-2.675922e+02	(-3.003615e-05 1.003326e-06 -3.069073e-01)	3.130000e+02
112.8         	-2.677142e+02	(-2.817200e-05 -1.916777e-07 -3.068328e-01)	3.130000e+02
113.2         	-2.678405e+02	(-2.649749e-05 1.006926e-06 -3.068369e-01)	3.130000e+02
113.6         	-2.679622e+02	(-2.495427e-05 1.042448e-06 -3.068580e-01)	3.130000e+02
114           	-2.680834e+02	(-2.350132e-05 -2.820289e-09 -3.067931e-01)	3.130000e+02
114.4         	-2.682039e+02	(-2.213915e-05 -1.437621e-07 -3.067439e-01)	3.130000e+02
114.8         	-2.683271e+02	(-2.092196e-05 1.060359e-06 -3.067771e-01)	3.130000e+02
115.2         	-2.684360e+02	(-1.978588e-05 1.001457e-06 -3.067561e-01)	3.130000e+02
115.6         	-2.685539e+02	(-1.874382e-05 1.056499e-06 -3.067493e-01)	3.130000e+02
116           	-2.686663e+02	(-1.775085e-05 -3.131825e-07 -3.066722e-01)	3.130000e+02
116.4         	-2.687932e+02	(-1.687143e-05 1.156550e-06 -3.067609e-01)	3.130000e+02
116.8         	-2.688897e+02	(-1.601940e-05 -2.249889e-07 -3.066190e-01)	3.130000e+02
117.2         	-2.689930e+02	(-1.526262e-05 -2.279178e-07 -3.066001e-01)	3.130000e+02
117.6         	-2.691012e+02	(-1.454447e-05 -2.402330e-07 -3.065588e-01)	3.130000e+02
118           	-2.692115e+02	(-1.390253e-05 9.309528e-07 -3.065844e-01)	3.130000e+02
118.4         	-2.693151e+02	(-1.333174e-05 9.324306e-07 -3.065918e-01)	3.130000e+02
118.8         	-2.694162e+02	(-1.280153e-05 1.019163e-06 -3.065950e-01)	3.130000e+02
119.2         	-2.695194e+02	(-1.229735e-05 1.018468e-06 -3.065807e-01)	3.130000e+02
119.6         	-2.696260e+02	(-1.180447e-05 9.650180e-07 -3.065334e-01)	3.130000e+02
120           	-2.697244e+02	(-1.135878e-05 1.006686e-06 -3.064989e-01)	3.130000e+02
120.4         	-2.698136e+02	(-1.097364e-05 -2.960373e-07 -3.063861e-01)	3.130000e+02
120.8         	-2.699077e+02	(-1.063385e-05 -1.413678e-07 -3.064395e-01)	3.130000e+02
121.2         	-2.700158e+02	(-1.031028e-05 1.047694e-06 -3.064864e-01)	3.130000e+02
121.6         	-2.701159e+02	(-9.985172e-06 1.150553e-06 -3.064756e-01)	3.130000e+02
122           	-2.702098e+02	(-9.696539e-06 1.153950e-06 -3.064489e-01)	3.130000e+02
122.4         	-2.703016e+02	(-9.437439e-06 8.794431e-07 -3.064266e-01)	3.130000e+02
122.8         	-2.703899e+02	(-9.193754e-06 -2.677337e-07 -3.063743e-01)	3.130000e+02
123.2         	-2.704871e+02	(-8.958498e-06 1.150325e-06 -3.063844e-01)	3.130000e+02
123.6         	-2.705753e+02	(-8.733349e-06 -2.924496e-07 -3.062630e-01)	3.130000e+02
124           	-2.706678e+02	(-8.546668e-06 9.129438e-07 -3.063107e-01)	3.130000e+02
124.4         	-2.707475e+02	(-8.380210e-06 -3.013110e-07 -3.062634e-01)	3.130000e+02
124.8         	-2.708384e+02	(-8.231491e-06 1.045341e-06 -3.063232e-01)	3.130000e+02
125.2         	-2.709255e+02	(-8.056614e-06 -2.363837e-07 -3.062155e-01)	3.130000e+02
125.6         	-2.710150e+02	(-7.907088e-06 -1.785230e-07 -3.062223e-01)	3.130000e+02
126           	-2.711075e+02	(-7.791654e-06 1.023363e-06 -3.063009e-01)	3.130000e+02
126.4         	-2.711761e+02	(-7.662647e-06 -3.598034e-07 -3.061749e-01)	3.130000e+02
126.8         	-2.712650e+02	(-7.563977e-06 9.880594e-07 -3.062569e-01)	3.130000e+02
127.2         	-2.713477e+02	(-7.439317e-06 -1.707239e-07 -3.061799e-01)	3.130000e+02
127.6         	-2.714286e+02	(-7.317796e-06 -3.932239e-07 -3.061033e-01)	3.130000e+02
128           	-2.715035e+02	(-7.241115e-06 -1.982624e-07 -3.061225e-01)	3.130000e+02
128.4         	-2.715772e+02	(-7.164353e-06 -2.385973e-07 -3.061026e-01)	3.130000e+02
128.8         	-2.716590e+02	(-7.079220e-06 1.170805e-06 -3.061484e-01)	3.130000e+02
129.2         	-2.717476e+02	(-7.010348e-06 1.080927e-06 -3.061647e-01)	3.130000e+02
129.6         	-2.718220e+02	(-6.938382e-06 1.044803e-06 -3.061181e-01)	3.130000e+02
130           	-2.718886e+02	(-6.883688e-06 -2.959310e-07 -3.060653e-01)	3.130000e+02
130.4         	-2.719629e+02	(-6.837545e-06 -2.423272e-07 -3.060799e-01)	3.130000e+02
130.8         	-2.720413e+02	(-6.769701e-06 9.462770e-07 -3.060940e-01)	3.130000e+02
131.2         	-2.721166e+02	(-6.719607e-06 1.038747e-06 -3.060873e-01)	3.130000e+02
131.6         	-2.721882e+02	(-6.691104e-06 9.091990e-07 -3.060914e-01)	3.130000e+02
132           	-2.722573e+02	(-6.649004e-06 1.367555e-06 -3.060829e-01)	3.130000e+02
132.4         	-2.723276e+02	(-6.614073e-06 8.208271e-07 -3.060411e-01)	3.130000e+02
132.8         	-2.723993e+02	(-6.584618e-06 9.351473e-07 -3.060025e-01)	3.130000e+02
133.2         	-2.724631e+02	(-6.549576e-06 9.405826e-07 -3.059998e-01)	3.130000e+02
133.6         	-2.725319e+02	(-6.513720e-06 8.843734e-07 -3.059818e-01)	3.130000e+02
134           	-2.725942e+02	(-6.486171e-06 -3.251565e-07 -3.059237e-01)	3.130000e+02
134.4         	-2.726697e+02	(-6.471309e-06 1.052534e-06 -3.059998e-01)	3.130000e+02
134.8         	-2.727410e+02	(-6.437524e-06 1.158166e-06 -3.059899e-01)	3.130000e+02
135.2         	-2.728078e+02	(-6.402444e-06 1.119672e-06 -3.059635e-01)	3.130000e+02
135.6         	-2.728630e+02	(-6.390621e-06 8.668034e-07 -3.059093e-01)	3.130000e+02
136           	-2.729233e+02	(-6.384145e-06 8.628440e-07 -3.059019e-01)	3.130000e+02
136.4         	-2.729858e+02	(-6.374746e-06 -2.855913e-07 -3.058680e-01)	3.130000e+02
136.8         	-2.730608e+02	(-6.348447e-06 1.076407e-06 -3.059275e-01)	3.130000e+02
137.2         	-2.731153e+02	(-6.318562e-06 -3.803703e-07 -3.058525e-01)	3.130000e+02
137.6         	-2.731815e+02	(-6.307088e-06 1.124805e-06 -3.059139e-01)	3.130000e+02
138           	-2.732443e+02	(-6.294629e-06 1.120676e-06 -3.059288e-01)	3.130000e+02
138.4         	-2.732947e+02	(-6.253537e-06 1.006155e-06 -3.058645e-01)	3.130000e+02
138.8         	-2.733510e+02	(-6.234384e-06 -2.565042e-07 -3.057742e-01)	3.130000e+02
139.2         	-2.734141e+02	(-6.231771e-06 1.087452e-06 -3.058005e-01)	3.130000e+02
139.6         	-2.734616e+02	(-6.229751e-06 1.098239e-06 -3.058412e-01)	3.130000e+02
140           	-2.735226e+02	(-6.228087e-06 1.025002e-06 -3.058231e-01)	3.130000e+02
140.4         	-2.735805e+02	(-6.208033e-06 -3.060302e-08 -3.057367e-01)	3.130000e+02
140.8         	-2.736375e+02	(-6.204852e-06 1.067524e-06 -3.057885e-01)	3.130000e+02
141.2         	-2.736857e+02	(-6.193291e-06 -3.151582e-07 -3.057317e-01)	3.130000e+02
141.6         	-2.737407e+02	(-6.174486e-06 -1.210761e-07 -3.057376e-01)	3.130000e+02
142           	-2.738005e+02	(-6.138000e-06 9.603229e-07 -3.057415e-01)	3.130000e+02
142.4         	-2.738515e+02	(-6.112696e-06 -1.737394e-07 -3.057021e-01)	3.130000e+02
142.8         	-2.739053e+02	(-6.107261e-06 1.047324e-06 -3.057297e-01)	3.130000e+02
143.2         	-2.739535e+02	(-6.112203e-06 9.504741e-07 -3.057356e-01)	3.130000e+02
143.6         	-2.739982e+02	(-6.095048e-06 -1.867387e-07 -3.056506e-01)	3.130000e+02
144           	-2.740542e+02	(-6.095609e-06 9.698085e-07 -3.057021e-01)	3.130000e+02
144.4         	-2.741005e+02	(-6.095074e-06 8.650950e-07 -3.056609e-01)	3.130000e+02
144.8         	-2.741555e+02	(-6.124985e-06 1.026993e-06 -3.056946e-01)	3.130000e+02
145.2         	-2.741931e+02	(-6.138520e-06 9.476817e-07 -3.056636e-01)	3.130000e+02
145.6         	-2.742405e+02	(-6.131783e-06 -2.851064e-07 -3.055800e-01)	3.130000e+02
146           	-2.742943e+02	(-6.147920e-06 -2.200785e-07 -3.056290e-01)	3.130000e+02
146.4         	-2.743482e+02	(-6.137538e-06 -2.904370e-07 -3.056223e-01)	3.130000e+02
146.8         	-2.743975e+02	(-6.117263e-06 -1.390394e-07 -3.056481e-01)	3.130000e+02
147.2         	-2.744485e+02	(-6.092412e-06 1.029148e-06 -3.056807e-01)	3.130000e+02
147.6         	-2.744922e+02	(-6.061054e-06 -3.323066e-07 -3.055909e-01)	3.130000e+02
148           	-2.745389e+02	(-6.047521e-06 1.050389e-06 -3.056336e-01)	3.130000e+02
148.4         	-2.745756e+02	(-6.046132e-06 -3.550595e-07 -3.055508e-01)	3.130000e+02
148.8         	-2.746186e+02	(-6.060141e-06 1.116701e-06 -3.055995e-01)	3.130000e+02
149.2         	-2.746519e+02	(-6.068361e-06 -1.619629e-07 -3.055587e-01)	3.130000e+02
149.6         	-2.746983e+02	(-6.063009e-06 -2.429664e-07 -3.055040e-01)	3.130000e+02
150           	-2.747464e+02	(-6.068304e-06 -2.931103e-07 -3.055115e-01)	3.130000e+02
150.4         	-2.747892e+02	(-6.065945e-06 -2.175355e-07 -3.055336e-01)	3.130000e+02
150.8         	-2.748297e+02	(-6.063680e-06 -3.729057e-07 -3.054604e-01)	3.130000e+02
151.2         	-2.748645e+02	(-6.065557e-06 -3.035797e-07 -3.054791e-01)	3.130000e+02
151.6         	-2.749138e+02	(-6.047804e-06 9.603898e-07 -3.055122e-01)	3.130000e+02
152           	-2.749554e+02	(-6.055492e-06 1.019982e-06 -3.055584e-01)	3.130000e+02
152.4         	-2.749912e+02	(-6.054576e-06 -3.052897e-07 -3.055050e-01)	3.130000e+02
152.8         	-2.750363e+02	(-6.054580e-06 9.585991e-07 -3.055286e-01)	3.130000e+02
153.2         	-2.750733e+02	(-6.057265e-06 1.029761e-06 -3.055394e-01)	3.130000e+02
153.6         	-2.751168e+02	(-6.075712e-06 1.049494e-06 -3.055674e-01)	3.130000e+02
154           	-2.751521e+02	(-6.070349e-06 9.398820e-07 -3.055248e-01)	3.130000e+02
154.4         	-2.751864e+02	(-6.053600e-06 -2.228281e-07 -3.054706e-01)	3.130000e+02
154.8         	-2.752178e+02	(-6.037913e-06 -4.942412e-07 -3.054080e-01)	3.130000e+02
155.2         	-2.752608e+02	(-6.049421e-06 1.044493e-06 -3.055022e-01)	3.130000e+02
155.6         	-2.752950e+02	(-6.054322e-06 1.026641e-06 -3.054953e-01)	3.130000e+02
156           	-2.753334e+02	(-6.051951e-06 -1.699880e-07 -3.054187e-01)	3.130000e+02
156.4         	-2.753677e+02	(-6.039311e-06 -2.406982e-07 -3.053999e-01)	3.130000e+02
156.8         	-2.754073e+02	(-6.043220e-06 1.042491e-06 -3.054665e-01)	3.130000e+02
157.2         	-2.754429e+02	(-6.041789e-06 9.422983e-07 -3.054912e-01)	3.130000e+02
157.6         	-2.754692e+02	(-6.020356e-06 -2.881201e-07 -3.053872e-01)	3.130000e+02
158           	-2.755068e+02	(-6.001208e-06 -1.880577e-07 -3.053549e-01)	3.130000e+02
158.4         	-2.755458e+02	(-6.010850e-06 1.063642e-06 -3.054229e-01)	3.130000e+02
158.8         	-2.755672e+02	(-5.999958e-06 -3.391776e-07 -3.053504e-01)	3.130000e+02
159.2         	-2.755964e+02	(-5.984639e-06 -2.466006e-07 -3.052942e-01)	3.130000e+02
159.6         	-2.756295e+02	(-5.974676e-06 -3.446069e-07 -3.053199e-01)	3.130000e+02
160           	-2.756707e+02	(-5.989718e-06 8.460983e-07 -3.053912e-01)	3.130000e+02
160.4         	-2.756951e+02	(-5.989301e-06 -1.617302e-07 -3.053369e-01)	3.130000e+02
160.8         	-2.757212e+02	(-6.003441e-06 -1.192984e-07 -3.053492e-01)	3.130000e+02
161.2         	-2.757666e+02	(-6.020920e-06 1.131418e-06 -3.054282e-01)	3.130000e+02
161.6         	-2.757979e+02	(-6.004618e-06 1.065625e-06 -3.053860e-01)	3.130000e+02
162           	-2.758194e+02	(-6.001312e-06 8.235752e-07 -3.053595e-01)	3.130000e+02
162.4         	-2.758472e+02	(-6.008010e-06 -2.285639e-07 -3.053207e-01)	3.130000e+02
162.8         	-2.758737e+02	(-5.994976e-06 -1.265840e-07 -3.053347e-01)	3.130000e+02
163.2         	-2.759083e+02	(-5.980709e-06 -3.123133e-07 -3.053455e-01)	3.130000e+02
163.6         	-2.759403e+02	(-5.948371e-06 -3.298090e-07 -3.053084e-01)	3.130000e+02
164           	-2.759672e+02	(-5.945931e-06 -5.313264e-07 -3.052813e-01)	3.130000e+02
164.4         	-2.759982e+02	(-5.945094e-06 9.252063e-07 -3.053583e-01)	3.130000e+02
164.8         	-2.760184e+02	(-5.935463e-06 -2.768421e-07 -3.052804e-01)	3.130000e+02
165.2         	-2.760531e+02	(-5.939913e-06 9.816535e-07 -3.053154e-01)	3.130000e+02
165.6         	-2.760765e+02	(-5.953171e-06 -2.113821e-07 -3.053038e-01)	3.130000e+02
166           	-2.760993e+02	(-5.945113e-06 -3.615562e-07 -3.052587e-01)	3.130000e+02
166.4         	-2.761254e+02	(-5.946334e-06 -2.349236e-07 -3.052746e-01)	3.130000e+02
166.8         	-2.761537e+02	(-5.949454e-06 -3.548084e-07 -3.052501e-01)	3.130000e+02
167.2         	-2.761814e+02	(-5.942252e-06 -1.688363e-07 -3.052644e-01)	3.130000e+02
167.6         	-2.762103e+02	(-5.939112e-06 -3.803592e-07 -3.052323e-01)	3.130000e+02
168           	-2.762392e+02	(-5.940133e-06 9.703046e-07 -3.053178e-01)	3.130000e+02
168.4         	-2.762647e+02	(-5.919297e-06 1.120468e-06 -3.053195e-01)	3.130000e+02
168.8         	-2.762873e+02	(-5.908585e-06 -2.534428e-07 -3.052421e-01)	3.130000e+02
169.2         	-2.763168e+02	(-5.924848e-06 8.014614e-07 -3.052795e-01)	3.130000e+02
169.6         	-2.763314e+02	(-5.922206e-06 -1.954832e-07 -3.052545e-01)	3.130000e+02
170           	-2.763555e+02	(-5.941618e-06 -2.303028e-07 -3.052101e-01)	3.130000e+02
170.4         	-2.763798e+02	(-5.960591e-06 9.134588e-07 -3.052724e-01)	3.130000e+02
170.8         	-2.764033e+02	(-5.946787e-06 -1.693992e-07 -3.052123e-01)	3.130000e+02
171.2         	-2.764281e+02	(-5.942023e-06 -2.519897e-07 -3.052339e-01)	3.130000e+02
171.6         	-2.764503e+02	(-5.934593e-06 -2.986116e-07 -3.052081e-01)	3.130000e+02
172           	-2.764755e+02	(-5.927276e-06 9.288896e-07 -3.052541e-01)	3.130000e+02
172.4         	-2.764965e+02	(-5.915866e-06 -3.371525e-07 -3.051945e-01)	3.130000e+02
172.8         	-2.765244e+02	(-5.903075e-06 9.718169e-07 -3.052524e-01)	3.130000e+02
173.2         	-2.765470e+02	(-5.907194e-06 1.103483e-06 -3.052707e-01)	3.130000e+02
173.6         	-2.765599e+02	(-5.906604e-06 -3.281934e-07 -3.051779e-01)	3.130000e+02
174           	-2.765791e+02	(-5.907415e-06 -3.698027e-07 -3.051705e-01)	3.130000e+02
174.4         	-2.766001e+02	(-5.899740e-06 -3.626633e-07 -3.051414e-01)	3.130000e+02
174.8         	-2.766252e+02	(-5.918964e-06 -3.180445e-07 -3.051498e-01)	3.130000e+02
175.2         	-2.766538e+02	(-5.928762e-06 1.067017e-06 -3.052375e-01)	3.130000e+02
175.6         	-2.766668e+02	(-5.932172e-06 1.058118e-06 -3.052497e-01)	3.130000e+02
176           	-2.766800e+02	(-5.933399e-06 -4.106847e-07 -3.051499e-01)	3.130000e+02
176.4         	-2.767102e+02	(-5.920815e-06 9.002975e-07 -3.051790e-01)	3.130000e+02
176.8         	-2.767272e+02	(-5.928614e-06 1.037337e-06 -3.052047e-01)	3.130000e+02
177.2         	-2.767517e+02	(-5.949637e-06 1.124675e-06 -3.052331e-01)	3.130000e+02
177.6         	-2.767582e+02	(-5.959409e-06 -3.774738e-07 -3.051369e-01)	3.130000e+02
178           	-2.767850e+02	(-5.969649e-06 9.046939e-07 -3.052205e-01)	3.130000e+02
178.4         	-2.768078e+02	(-5.952046e-06 -3.236279e-07 -3.051702e-01)	3.130000e+02
178.8         	-2.768303e+02	(-5.935758e-06 8.764899e-07 -3.052117e-01)	3.130000e+02
179.2         	-2.768458e+02	(-5.934694e-06 1.036720e-06 -3.051960e-01)	3.130000e+02
179.6         	-2.768593e+02	(-5.910767e-06 -3.672972e-07 -3.051148e-01)	3.130000e+02
180           	-2.768740e+02	(-5.903480e-06 -3.377669e-07 -3.051168e-01)	3.130000e+02
180.4         	-2.768969e+02	(-5.922005e-06 8.650107e-07 -3.051668e-01)	3.130000e+02
180.8         	-2.769084e+02	(-5.924574e-06 -2.966689e-07 -3.050935e-01)	3.130000e+02
181.2         	-2.769240e+02	(-5.928427e-06 -3.032357e-07 -3.050956e-01)	3.130000e+02
181.6         	-2.769419e+02	(-5.925783e-06 -3.836197e-07 -3.051235e-01)	3.130000e+02
182           	-2.769645e+02	(-5.906012e-06 -1.784022e-07 -3.051214e-01)	3.130000e+02
182.4         	-2.769833e+02	(-5.910729e-06 -3.039958e-07 -3.050691e-01)	3.130000e+02
182.8         	-2.769852e+02	(-5.914555e-06 -4.148863e-07 -3.050497e-01)	3.130000e+02
183.2         	-2.770066e+02	(-5.916759e-06 1.007236e-06 -3.051386e-01)	3.130000e+02
183.6         	-2.770259e+02	(-5.918705e-06 -2.145045e-07 -3.050933e-01)	3.130000e+02
184           	-2.770522e+02	(-5.923450e-06 9.580797e-07 -3.051644e-01)	3.130000e+02
184.4         	-2.770630e+02	(-5.934023e-06 8.659685e-07 -3.051853e-01)	3.130000e+02
184.8         	-2.770814e+02	(-5.937733e-06 1.022022e-06 -3.051981e-01)	3.130000e+02
185.2         	-2.770923e+02	(-5.928728e-06 -2.643178e-07 -3.051041e-01)	3.130000e+02
185.6         	-2.771094e+02	(-5.919146e-06 1.299849e-06 -3.051666e-01)	3.130000e+02
186           	-2.771245e+02	(-5.909361e-06 -2.745946e-07 -3.051189e-01)	3.130000e+02
186.4         	-2.771367e+02	(-5.903875e-06 -1.382889e-07 -3.051098e-01)	3.130000e+02
186.8         	-2.771506e+02	(-5.881298e-06 -2.870632e-07 -3.050456e-01)	3.130000e+02
187.2         	-2.771758e+02	(-5.885858e-06 1.106088e-06 -3.051578e-01)	3.130000e+02
187.6         	-2.771917e+02	(-5.886241e-06 9.893861e-07 -3.051593e-01)	3.130000e+02
188           	-2.771920e+02	(-5.872960e-06 -3.719646e-07 -3.050613e-01)	3.130000e+02
188.4         	-2.772095e+02	(-5.864201e-06 9.891343e-07 -3.050911e-01)	3.130000e+02
188.8         	-2.772316e+02	(-5.885279e-06 1.065661e-06 -3.051291e-01)	3.130000e+02
189.2         	-2.772325e+02	(-5.891705e-06 -3.707451e-07 -3.050252e-01)	3.130000e+02
189.6         	-2.772491e+02	(-5.906518e-06 9.054773e-07 -3.050980e-01)	3.130000e+02
190           	-2.772653e+02	(-5.919299e-06 1.078758e-06 -3.051068e-01)	3.130000e+02
190.4         	-2.772762e+02	(-5.930137e-06 1.025420e-06 -3.051112e-01)	3.130000e+02
190.8         	-2.772894e+02	(-5.923126e-06 9.824763e-07 -3.050944e-01)	3.130000e+02
191.2         	-2.773028e+02	(-5.920684e-06 -3.889312e-07 -3.050363e-01)	3.130000e+02
191.6         	-2.773161e+02	(-5.914270e-06 -3.834231e-07 -3.049749e-01)	3.130000e+02
192           	-2.773221e+02	(-5.920400e-06 -3.347068e-07 -3.050196e-01)	3.130000e+02
192.4         	-2.773407e+02	(-5.922087e-06 9.292679e-07 -3.050800e-01)	3.130000e+02
192.8         	-2.773496e+02	(-5.915423e-06 -2.564477e-07 -3.049964e-01)	3.130000e+02
193.2         	-2.773681e+02	(-5.929927e-06 8.356372e-07 -3.051210e-01)	3.130000e+02
193.6         	-2.773806e+02	(-5.904186e-06 -1.930312e-07 -3.050266e-01)	3.130000e+02
194           	-2.773924e+02	(-5.917128e-06 1.048691e-06 -3.050912e-01)	3.130000e+02
194.4         	-2.773962e+02	(-5.920490e-06 -3.942435e-07 -3.049897e-01)	3.130000e+02
194.8         	-2.774090e+02	(-5.918327e-06 -3.290346e-07 -3.050011e-01)	3.130000e+02
195.2         	-2.774255e+02	(-5.914955e-06 -3.389135e-07 -3.050686e-01)	3.130000e+02
195.6         	-2.774442e+02	(-5.908131e-06 -3.882017e-07 -3.050729e-01)	3.130000e+02
196           	-2.774565e+02	(-5.894445e-06 -3.721058e-07 -3.050467e-01)	3.130000e+02
196.4         	-2.774764e+02	(-5.895522e-06 1.133836e-06 -3.051485e-01)	3.130000e+02
196.8         	-2.774773e+02	(-5.876291e-06 9.308568e-07 -3.050825e-01)	3.130000e+02
197.2         	-2.774852e+02	(-5.856885e-06 -2.638004e-07 -3.050094e-01)	3.130000e+02
197.6         	-2.774941e+02	(-5.854068e-06 -1.769638e-07 -3.050263e-01)	3.130000e+02
198           	-2.775068e+02	(-5.873212e-06 1.012786e-06 -3.050803e-01)	3.130000e+02
198.4         	-2.775106e+02	(-5.874325e-06 -3.697413e-07 -3.049608e-01)	3.130000e+02
198.8         	-2.775259e+02	(-5.874761e-06 8.249309e-07 -3.050292e-01)	3.130000e+02
199.2         	-2.775328e+02	(-5.868364e-06 -2.724144e-07 -3.050135e-01)	3.130000e+02
199.6         	-2.775516e+02	(-5.874520e-06 9.552236e-07 -3.050809e-01)	3.130000e+02
200           	-2.775571e+02	(-5.876328e-06 1.041829e-06 -3.050681e-01)	3.130000e+02
