0 	0 	0 	0
0 	0 	0 	0
0.00752508 	0.00018285 	-8.69975e-06 	-0.283772
0.00752508 	0.00018285 	-8.69975e-06 	-0.283772
0.00757525 	0.000213142 	-9.93459e-06 	-0.282717
0.00762542 	0.000243433 	-1.11694e-05 	-0.281661
0.00762542 	0.000243433 	-1.11694e-05 	-0.281661
0.00767559 	0.000273637 	-1.28257e-05 	-0.280606
0.00772575 	0.000294214 	-6.06559e-05 	-0.27958
0.00777592 	0.000314791 	-0.000108486 	-0.278555
0.00782609 	0.000335368 	-0.000156316 	-0.27753
0.00782609 	0.000335368 	-0.000156316 	-0.27753
0.00787625 	0.000345834 	-0.00019047 	-0.276768
0.00792642 	0.000348966 	-0.000214703 	-0.276199
0.00797659 	0.000352097 	-0.000238936 	-0.275629
0.00802676 	0.000354818 	-0.000253146 	-0.275176
0.00802676 	0.000354818 	-0.000253146 	-0.275176
0.00807692 	0.000356 	-0.00022977 	-0.275156
0.00812709 	0.000357182 	-0.000206393 	-0.275136
0.00812709 	0.000357182 	-0.000206393 	-0.275136
0.00817726 	0.000358363 	-0.000183017 	-0.275116
0.00822742 	0.000367765 	-0.000166156 	-0.275177
0.00822742 	0.000367765 	-0.000166156 	-0.275177
0.00827759 	0.000378072 	-0.000150011 	-0.275247
0.00832776 	0.000388379 	-0.000133866 	-0.275317
0.00832776 	0.000388379 	-0.000133866 	-0.275317
0.00837793 	0.000403764 	-0.000129868 	-0.275303
0.00842809 	0.000421892 	-0.000132426 	-0.275242
0.00842809 	0.000421892 	-0.000132426 	-0.275242
0.00847826 	0.000440019 	-0.000134985 	-0.275182
0.00847826 	0.000440019 	-0.000134985 	-0.275182
0.00852843 	0.00045935 	-0.000140444 	-0.275071
0.00852843 	0.00045935 	-0.000140444 	-0.275071
0.0085786 	0.000480121 	-0.000149374 	-0.274901
0.0085786 	0.000480121 	-0.000149374 	-0.274901
0.00862876 	0.000500891 	-0.000158304 	-0.27473
0.00867893 	0.000521971 	-0.000165898 	-0.274542
0.00867893 	0.000521971 	-0.000165898 	-0.274542
0.0087291 	0.000543714 	-0.00017062 	-0.274314
0.00877926 	0.000565458 	-0.000175342 	-0.274086
0.00877926 	0.000565458 	-0.000175342 	-0.274086
0.00882943 	0.000587457 	-0.000179132 	-0.27385
0.0088796 	0.00061029 	-0.000179888 	-0.273588
0.0088796 	0.00061029 	-0.000179888 	-0.273588
0.00897993 	0.00065634 	-0.000181168 	-0.273057
0.00897993 	0.00065634 	-0.000181168 	-0.273057
0.0090301 	0.000681024 	-0.000180804 	-0.272761
0.00908027 	0.000705708 	-0.00018044 	-0.272465
0.00908027 	0.000705708 	-0.00018044 	-0.272465
0.00913043 	0.000731496 	-0.000179786 	-0.272159
0.0091806 	0.000760941 	-0.000178171 	-0.27182
0.0091806 	0.000760941 	-0.000178171 	-0.27182
0.00923077 	0.000790385 	-0.000176555 	-0.271481
0.00928094 	0.000821737 	-0.000174356 	-0.271126
0.00928094 	0.000821737 	-0.000174356 	-0.271126
0.0093311 	0.000857351 	-0.000170851 	-0.270739
0.00938127 	0.000892964 	-0.000167346 	-0.270351
0.00938127 	0.000892964 	-0.000167346 	-0.270351
0.00943144 	0.000930267 	-0.000163726 	-0.269944
0.00943144 	0.000930267 	-0.000163726 	-0.269944
0.00948161 	0.000969735 	-0.000159959 	-0.269513
0.00948161 	0.000969735 	-0.000159959 	-0.269513
0.00953177 	0.0010092 	-0.000156192 	-0.269083
0.00953177 	0.0010092 	-0.000156192 	-0.269083
0.00958194 	0.0010508 	-0.000153658 	-0.268623
0.00958194 	0.0010508 	-0.000153658 	-0.268623
0.00963211 	0.00109371 	-0.000151887 	-0.268146
0.00963211 	0.00109371 	-0.000151887 	-0.268146
0.00968227 	0.00113662 	-0.000150116 	-0.267669
0.00968227 	0.00113662 	-0.000150116 	-0.267669
0.00973244 	0.00118491 	-0.000147198 	-0.267136
0.00978261 	0.00123417 	-0.000144072 	-0.266594
0.00983278 	0.00128402 	-0.000140413 	-0.266044
0.00988294 	0.00133795 	-0.000133015 	-0.26545
0.00988294 	0.00133795 	-0.000133015 	-0.26545
0.00993311 	0.00139188 	-0.000125617 	-0.264855
0.00998328 	0.00144468 	-0.000118207 	-0.264258
0.00998328 	0.00144468 	-0.000118207 	-0.264258
0.0100334 	0.00149611 	-0.000110783 	-0.263657
0.0100334 	0.00149611 	-0.000110783 	-0.263657
0.0100836 	0.00154754 	-0.000103359 	-0.263057
0.0101338 	0.00159392 	-9.67318e-05 	-0.262464
0.0101338 	0.00159392 	-9.67318e-05 	-0.262464
0.0102341 	0.00168389 	-8.37852e-05 	-0.261281
0.0102341 	0.00168389 	-8.37852e-05 	-0.261281
0.0102843 	0.00172657 	-7.71927e-05 	-0.260686
0.0103344 	0.00176926 	-7.06002e-05 	-0.260091
0.0103344 	0.00176926 	-7.06002e-05 	-0.260091
0.0103846 	0.00180921 	-6.93153e-05 	-0.259462
0.0103846 	0.00180921 	-6.93153e-05 	-0.259462
0.0104348 	0.00184804 	-7.02169e-05 	-0.258819
0.0104849 	0.001883 	-7.19881e-05 	-0.258141
0.0104849 	0.001883 	-7.19881e-05 	-0.258141
0.0105351 	0.00190408 	-7.68838e-05 	-0.257337
0.0105853 	0.00192516 	-8.17795e-05 	-0.256533
0.0105853 	0.00192516 	-8.17795e-05 	-0.256533
0.0106355 	0.00193037 	-6.85568e-05 	-0.255493
0.0106856 	0.00193088 	-4.9955e-05 	-0.254382
0.0106856 	0.00193088 	-4.9955e-05 	-0.254382
0.0107358 	0.00192898 	-1.94424e-05 	-0.253144
0.0107358 	0.00192898 	-1.94424e-05 	-0.253144
0.010786 	0.00192293 	3.15662e-05 	-0.251685
0.010786 	0.00192293 	3.15662e-05 	-0.251685
0.0108361 	0.00191709 	8.24148e-05 	-0.250226
0.0108361 	0.00191709 	8.24148e-05 	-0.250226
0.0108863 	0.0019433 	0.000108207 	-0.248862
0.0109365 	0.00196952 	0.000133998 	-0.247498
0.0109365 	0.00196952 	0.000133998 	-0.247498
0.0109866 	0.00203662 	0.000122563 	-0.246372
0.0109866 	0.00203662 	0.000122563 	-0.246372
0.0110368 	0.00212237 	9.41458e-05 	-0.245354
0.011087 	0.00222242 	5.78629e-05 	-0.244302
0.011087 	0.00222242 	5.78629e-05 	-0.244302
0.0111371 	0.00234319 	1.01662e-05 	-0.2432
0.0111873 	0.00246386 	-3.45583e-05 	-0.242058
0.0111873 	0.00246386 	-3.45583e-05 	-0.242058
0.0112375 	0.00258397 	-6.47095e-05 	-0.240718
0.0112876 	0.00270409 	-9.48606e-05 	-0.239379
0.0112876 	0.00270409 	-9.48606e-05 	-0.239379
0.0113378 	0.00279491 	-7.18366e-05 	-0.238189
0.011388 	0.00288484 	-4.71809e-05 	-0.237004
0.011388 	0.00288484 	-4.71809e-05 	-0.237004
0.0114883 	0.00300373 	4.46094e-05 	-0.235259
0.0114883 	0.00300373 	4.46094e-05 	-0.235259
0.0115385 	0.00304856 	6.83957e-05 	-0.23449
0.0115886 	0.0030882 	8.1115e-05 	-0.233754
0.0115886 	0.0030882 	8.1115e-05 	-0.233754
0.0116388 	0.00311923 	7.86949e-05 	-0.232943
0.011689 	0.00314459 	6.62849e-05 	-0.232082
0.011689 	0.00314459 	6.62849e-05 	-0.232082
0.0117391 	0.00316166 	5.99552e-05 	-0.2311
0.0117893 	0.00317206 	5.85163e-05 	-0.23002
0.0117893 	0.00317206 	5.85163e-05 	-0.23002
0.0118395 	0.00318227 	6.8243e-05 	-0.228846
0.0118896 	0.00319232 	8.74031e-05 	-0.227591
0.0118896 	0.00319232 	8.74031e-05 	-0.227591
0.0119398 	0.0032161 	0.000100584 	-0.226363
0.0119398 	0.0032161 	0.000100584 	-0.226363
0.01199 	0.00325045 	0.000109166 	-0.225157
0.01199 	0.00325045 	0.000109166 	-0.225157
0.0120401 	0.00330434 	0.000100588 	-0.224075
0.0120401 	0.00330434 	0.000100588 	-0.224075
0.0120903 	0.00337002 	8.16441e-05 	-0.223068
0.0120903 	0.00337002 	8.16441e-05 	-0.223068
0.0121405 	0.0034432 	6.37739e-05 	-0.222112
0.0121405 	0.0034432 	6.37739e-05 	-0.222112
0.0121906 	0.00351934 	4.63302e-05 	-0.221177
0.0121906 	0.00351934 	4.63302e-05 	-0.221177
0.0122408 	0.00358571 	4.68149e-05 	-0.220174
0.0122408 	0.00358571 	4.68149e-05 	-0.220174
0.012291 	0.00365023 	5.06782e-05 	-0.219159
0.012291 	0.00365023 	5.06782e-05 	-0.219159
0.0123411 	0.00369818 	6.4045e-05 	-0.218039
0.0123411 	0.00369818 	6.4045e-05 	-0.218039
0.0123913 	0.00374443 	7.5862e-05 	-0.216907
0.0123913 	0.00374443 	7.5862e-05 	-0.216907
0.0124415 	0.00378354 	8.11539e-05 	-0.215716
0.0124916 	0.00382129 	8.39869e-05 	-0.214504
0.0124916 	0.00382129 	8.39869e-05 	-0.214504
0.012592 	0.00389102 	8.2949e-05 	-0.211977
0.012592 	0.00389102 	8.2949e-05 	-0.211977
0.0126421 	0.00392403 	8.26526e-05 	-0.210676
0.0126923 	0.00395437 	8.24353e-05 	-0.209317
0.0126923 	0.00395437 	8.24353e-05 	-0.209317
0.0127425 	0.00398388 	8.21371e-05 	-0.207938
0.0127425 	0.00398388 	8.21371e-05 	-0.207938
0.0127926 	0.00401149 	8.16105e-05 	-0.20651
0.0128428 	0.00403748 	8.07851e-05 	-0.20504
0.0128428 	0.00403748 	8.07851e-05 	-0.20504
0.012893 	0.00406247 	7.97729e-05 	-0.203543
0.0129431 	0.00408461 	7.82417e-05 	-0.201972
0.0129431 	0.00408461 	7.82417e-05 	-0.201972
0.0129933 	0.00410541 	7.6551e-05 	-0.200368
0.0130435 	0.0041242 	7.46218e-05 	-0.198715
0.0130435 	0.0041242 	7.46218e-05 	-0.198715
0.0130936 	0.00413966 	7.24073e-05 	-0.196988
0.0131438 	0.00415303 	7.00312e-05 	-0.195219
0.0131438 	0.00415303 	7.00312e-05 	-0.195219
0.013194 	0.00416285 	6.73994e-05 	-0.193381
0.0132441 	0.00416824 	6.43971e-05 	-0.191459
0.0132441 	0.00416824 	6.43971e-05 	-0.191459
0.0132943 	0.00417062 	6.11192e-05 	-0.189478
0.0133445 	0.00416868 	5.74217e-05 	-0.187408
0.0133445 	0.00416868 	5.74217e-05 	-0.187408
0.0133946 	0.00416212 	5.34019e-05 	-0.185222
0.0134448 	0.00415263 	4.93099e-05 	-0.182949
0.0134448 	0.00415263 	4.93099e-05 	-0.182949
0.013495 	0.00414005 	4.52155e-05 	-0.180577
0.0135452 	0.00412292 	4.15038e-05 	-0.178028
0.0135452 	0.00412292 	4.15038e-05 	-0.178028
0.0136455 	0.00407913 	3.48695e-05 	-0.172546
0.0136455 	0.00407913 	3.48695e-05 	-0.172546
0.0136957 	0.00405103 	3.17563e-05 	-0.169564
0.0137458 	0.00401677 	2.84208e-05 	-0.166357
0.0137458 	0.00401677 	2.84208e-05 	-0.166357
0.013796 	0.00397702 	2.49482e-05 	-0.162962
0.0138462 	0.00393106 	2.14184e-05 	-0.159362
0.0138462 	0.00393106 	2.14184e-05 	-0.159362
0.0138963 	0.003878 	1.79498e-05 	-0.155535
0.0138963 	0.003878 	1.79498e-05 	-0.155535
0.0139465 	0.00381389 	1.46526e-05 	-0.151377
0.0139967 	0.00373967 	1.1484e-05 	-0.146932
0.0139967 	0.00373967 	1.1484e-05 	-0.146932
0.0140468 	0.00365435 	8.43324e-06 	-0.142182
0.0140468 	0.00365435 	8.43324e-06 	-0.142182
0.014097 	0.0035567 	5.50249e-06 	-0.137102
0.0141472 	0.0034455 	2.70346e-06 	-0.131665
0.0141973 	0.00331959 	5.59048e-08 	-0.125847
0.0141973 	0.00331959 	5.59048e-08 	-0.125847
0.0142475 	0.00317549 	-2.38232e-06 	-0.119559
0.0142977 	0.00301546 	-4.65126e-06 	-0.112845
0.0143478 	0.00284038 	-6.76335e-06 	-0.105705
0.0143478 	0.00284038 	-6.76335e-06 	-0.105705
0.014398 	0.00265203 	-8.59993e-06 	-0.098156
0.014398 	0.00265203 	-8.59993e-06 	-0.098156
0.0144482 	0.0024533 	-1.00037e-05 	-0.0902469
0.0144983 	0.00224804 	-1.08609e-05 	-0.0820553
0.0144983 	0.00224804 	-1.08609e-05 	-0.0820553
0.0145485 	0.00204049 	-1.10813e-05 	-0.0736834
0.0145987 	0.00183428 	-1.05614e-05 	-0.0652422
0.0145987 	0.00183428 	-1.05614e-05 	-0.0652422
0.0146488 	0.00163093 	-9.20478e-06 	-0.0568296
0.014699 	0.00142845 	-6.96726e-06 	-0.0485087
0.014699 	0.00142845 	-6.96726e-06 	-0.0485087
0.0147492 	0.00122004 	-3.94416e-06 	-0.0402952
0.0147993 	0.00099226 	-4.72449e-07 	-0.0321538
0.0147993 	0.00099226 	-4.72449e-07 	-0.0321538
0.0148495 	0.000721364 	2.59431e-06 	-0.0239921
0.0148495 	0.000721364 	2.59431e-06 	-0.0239921
0.0148997 	0.000404707 	3.8071e-06 	-0.015745
0.0148997 	0.000404707 	3.8071e-06 	-0.015745
0.0149498 	0.00012729 	2.82706e-06 	-0.00761343
0.0149498 	0.00012729 	2.82706e-06 	-0.00761343
0.015 	0 	0 	0
