/*--------------------------------*- C++ -*----------------------------------*\
| =========                 |                                                 |
| \\      /  F ield         | OpenFOAM: The Open Source CFD Toolbox           |
|  \\    /   O peration     | Version:  v1912                                 |
|   \\  /    A nd           | Website:  www.openfoam.com                      |
|    \\/     M anipulation  |                                                 |
\*---------------------------------------------------------------------------*/
FoamFile
{
    version     2.0;
    format      ascii;
    class       volScalarField;
    location    "198.8";
    object      nut;
}
// * * * * * * * * * * * * * * * * * * * * * * * * * * * * * * * * * * * * * //

dimensions      [0 2 -1 0 0 0 0];


internalField   nonuniform List<scalar> 
10077
(
1.60005e-05
1.45543e-05
1.28682e-05
1.25521e-05
1.26005e-05
1.25984e-05
1.25705e-05
1.25407e-05
1.25359e-05
1.25434e-05
1.25764e-05
1.2607e-05
1.26119e-05
1.25656e-05
1.28794e-05
1.45548e-05
1.56268e-05
1.43101e-05
1.28772e-05
1.26132e-05
1.26525e-05
1.2628e-05
1.25849e-05
1.25425e-05
1.25353e-05
1.25453e-05
1.2591e-05
1.26368e-05
1.26643e-05
1.26272e-05
1.28893e-05
1.43116e-05
1.52369e-05
1.40565e-05
1.28622e-05
1.26501e-05
1.26832e-05
1.26397e-05
1.2583e-05
1.25296e-05
1.25203e-05
1.25326e-05
1.25892e-05
1.26487e-05
1.26952e-05
1.26645e-05
1.28751e-05
1.40592e-05
1.48375e-05
1.37981e-05
1.28255e-05
1.26637e-05
1.26929e-05
1.26338e-05
1.25648e-05
1.25024e-05
1.24914e-05
1.25056e-05
1.25713e-05
1.26429e-05
1.27051e-05
1.26784e-05
1.28391e-05
1.38018e-05
1.44354e-05
1.35384e-05
1.27694e-05
1.26551e-05
1.26822e-05
1.26109e-05
1.25314e-05
1.24615e-05
1.2449e-05
1.24647e-05
1.2538e-05
1.26202e-05
1.26945e-05
1.26699e-05
1.27835e-05
1.35431e-05
1.40363e-05
1.32803e-05
1.2696e-05
1.26255e-05
1.26521e-05
1.25718e-05
1.24834e-05
1.24073e-05
1.23937e-05
1.24106e-05
1.249e-05
1.25811e-05
1.26644e-05
1.26404e-05
1.27106e-05
1.32859e-05
1.36449e-05
1.30259e-05
1.26073e-05
1.25765e-05
1.26037e-05
1.25171e-05
1.24214e-05
1.23406e-05
1.23262e-05
1.2344e-05
1.24282e-05
1.25265e-05
1.2616e-05
1.25914e-05
1.26222e-05
1.30324e-05
1.3265e-05
1.27767e-05
1.25051e-05
1.25101e-05
1.25387e-05
1.24477e-05
1.23466e-05
1.22621e-05
1.22472e-05
1.22656e-05
1.23534e-05
1.24572e-05
1.2551e-05
1.2525e-05
1.25203e-05
1.2784e-05
1.2899e-05
1.25336e-05
1.23912e-05
1.24285e-05
1.24592e-05
1.2365e-05
1.22597e-05
1.21726e-05
1.21573e-05
1.21761e-05
1.22666e-05
1.23745e-05
1.24714e-05
1.24433e-05
1.24065e-05
1.25416e-05
1.25486e-05
1.22968e-05
1.22668e-05
1.23329e-05
1.23663e-05
1.22704e-05
1.2162e-05
1.20728e-05
1.20574e-05
1.20763e-05
1.2169e-05
1.228e-05
1.23784e-05
1.23477e-05
1.22822e-05
1.23054e-05
1.22143e-05
1.20663e-05
1.21333e-05
1.22245e-05
1.22605e-05
1.21647e-05
1.20542e-05
1.19636e-05
1.19482e-05
1.19672e-05
1.20612e-05
1.21741e-05
1.22726e-05
1.22391e-05
1.21488e-05
1.20754e-05
1.18961e-05
1.18416e-05
1.19919e-05
1.21039e-05
1.21426e-05
1.20481e-05
1.19367e-05
1.18453e-05
1.18301e-05
1.18489e-05
1.19436e-05
1.20575e-05
1.21545e-05
1.21183e-05
1.20071e-05
1.18512e-05
1.15934e-05
1.16222e-05
1.1843e-05
1.19719e-05
1.20131e-05
1.19213e-05
1.18096e-05
1.17179e-05
1.17032e-05
1.17215e-05
1.18164e-05
1.19307e-05
1.20248e-05
1.1986e-05
1.18577e-05
1.16321e-05
1.13052e-05
1.14073e-05
1.16867e-05
1.18293e-05
1.18726e-05
1.17847e-05
1.16733e-05
1.15818e-05
1.15675e-05
1.15853e-05
1.168e-05
1.17939e-05
1.18841e-05
1.18431e-05
1.17009e-05
1.14175e-05
1.10303e-05
1.11963e-05
1.15235e-05
1.16771e-05
1.1722e-05
1.16384e-05
1.15283e-05
1.14372e-05
1.14236e-05
1.14407e-05
1.1535e-05
1.16474e-05
1.17333e-05
1.16905e-05
1.15374e-05
1.12067e-05
1.07672e-05
1.09885e-05
1.13538e-05
1.15161e-05
1.15625e-05
1.1483e-05
1.13757e-05
1.1285e-05
1.12721e-05
1.12886e-05
1.13822e-05
1.14918e-05
1.15736e-05
1.15293e-05
1.13675e-05
1.09991e-05
1.05145e-05
1.07833e-05
1.11782e-05
1.13474e-05
1.1395e-05
1.1319e-05
1.1216e-05
1.11263e-05
1.11141e-05
1.11298e-05
1.12225e-05
1.13277e-05
1.14058e-05
1.13602e-05
1.11916e-05
1.07939e-05
1.0271e-05
1.05801e-05
1.09966e-05
1.11715e-05
1.12202e-05
1.11471e-05
1.10497e-05
1.09617e-05
1.09502e-05
1.09651e-05
1.1056e-05
1.11556e-05
1.12308e-05
1.1184e-05
1.101e-05
1.05908e-05
1.00352e-05
1.03785e-05
1.08095e-05
1.09886e-05
1.10385e-05
1.09681e-05
1.08769e-05
1.07913e-05
1.07807e-05
1.07947e-05
1.08831e-05
1.09764e-05
1.10488e-05
1.10009e-05
1.08226e-05
1.03893e-05
9.80615e-06
1.01781e-05
1.06177e-05
1.0799e-05
1.08501e-05
1.07824e-05
1.06978e-05
1.06152e-05
1.06056e-05
1.06185e-05
1.07039e-05
1.07906e-05
1.08602e-05
1.08111e-05
1.06302e-05
1.01889e-05
9.58265e-06
9.97868e-06
1.04216e-05
1.06028e-05
1.06553e-05
1.05906e-05
1.05125e-05
1.04335e-05
1.04249e-05
1.04368e-05
1.05185e-05
1.05987e-05
1.06652e-05
1.06147e-05
1.04336e-05
9.9894e-06
9.36386e-06
9.78e-06
1.02215e-05
1.04006e-05
1.04541e-05
1.03931e-05
1.03207e-05
1.02463e-05
1.02387e-05
1.02496e-05
1.03266e-05
1.0401e-05
1.04638e-05
1.04121e-05
1.0233e-05
9.79069e-06
9.14901e-06
9.58202e-06
1.00177e-05
1.01935e-05
1.02472e-05
1.01905e-05
1.01229e-05
1.00539e-05
1.00471e-05
1.0057e-05
1.01286e-05
1.01982e-05
1.02567e-05
1.02046e-05
1.00288e-05
9.59266e-06
8.93751e-06
9.38479e-06
9.81042e-06
9.9829e-06
1.00357e-05
9.9831e-06
9.91953e-06
9.85615e-06
9.85015e-06
9.85926e-06
9.92517e-06
9.99065e-06
1.0045e-05
9.99354e-06
9.82119e-06
9.39539e-06
8.72896e-06
9.18769e-06
9.60014e-06
9.76896e-06
9.82045e-06
9.77163e-06
9.71145e-06
9.65327e-06
9.6478e-06
9.65632e-06
9.71697e-06
9.779e-06
9.8294e-06
9.77917e-06
9.61062e-06
9.19813e-06
8.52312e-06
8.98974e-06
9.38728e-06
9.55207e-06
9.60248e-06
9.55661e-06
9.49933e-06
9.44564e-06
9.4407e-06
9.44862e-06
9.50473e-06
9.5638e-06
9.61111e-06
9.56191e-06
9.39747e-06
8.99995e-06
8.31946e-06
8.78961e-06
9.17135e-06
9.33174e-06
9.38148e-06
9.3377e-06
9.2829e-06
9.23309e-06
9.22868e-06
9.236e-06
9.28817e-06
9.3447e-06
9.38981e-06
9.34121e-06
9.18126e-06
8.79953e-06
8.11749e-06
8.58619e-06
8.95147e-06
9.10711e-06
9.15157e-06
9.11416e-06
9.0615e-06
9.01504e-06
9.01116e-06
9.01789e-06
9.06665e-06
9.12097e-06
9.15908e-06
9.11625e-06
8.96111e-06
8.59578e-06
7.91675e-06
8.37899e-06
8.71766e-06
8.83672e-06
8.86947e-06
8.85241e-06
8.82059e-06
8.79102e-06
8.78768e-06
8.79379e-06
8.82527e-06
8.85863e-06
8.8766e-06
8.84482e-06
8.72616e-06
8.38821e-06
7.71575e-06
8.1677e-06
8.42341e-06
8.53904e-06
8.57246e-06
8.5541e-06
8.52312e-06
8.49829e-06
8.49268e-06
8.50083e-06
8.52762e-06
8.56003e-06
8.57932e-06
8.54676e-06
8.4316e-06
8.17651e-06
7.51382e-06
7.91783e-06
8.11381e-06
8.23442e-06
8.27163e-06
8.24634e-06
8.21059e-06
8.18309e-06
8.17762e-06
8.18553e-06
8.21497e-06
8.25206e-06
8.27825e-06
8.24194e-06
8.12191e-06
7.92386e-06
7.31093e-06
7.59329e-06
7.8039e-06
7.9281e-06
7.96883e-06
7.93717e-06
7.89699e-06
7.86623e-06
7.86158e-06
7.86859e-06
7.90124e-06
7.94268e-06
7.97518e-06
7.93542e-06
7.81189e-06
7.59883e-06
7.0491e-06
7.26283e-06
7.49765e-06
7.62137e-06
7.6641e-06
7.62864e-06
7.58619e-06
7.55365e-06
7.54999e-06
7.55593e-06
7.59028e-06
7.63391e-06
7.67016e-06
7.62843e-06
7.50544e-06
7.26848e-06
6.73046e-06
6.94807e-06
7.19593e-06
7.31542e-06
7.35856e-06
7.32183e-06
7.27926e-06
7.24677e-06
7.24398e-06
7.24896e-06
7.28319e-06
7.32687e-06
7.36432e-06
7.32218e-06
7.20342e-06
6.95383e-06
6.41795e-06
6.65156e-06
6.89907e-06
7.01187e-06
7.05416e-06
7.01801e-06
6.97687e-06
6.94577e-06
6.94371e-06
6.94786e-06
6.98061e-06
7.0228e-06
7.05961e-06
7.01829e-06
6.90619e-06
6.65727e-06
6.12722e-06
6.36986e-06
6.60728e-06
6.71223e-06
6.75284e-06
6.71837e-06
6.6796e-06
6.65065e-06
6.64917e-06
6.65263e-06
6.68315e-06
6.72292e-06
6.758e-06
6.71829e-06
6.614e-06
6.37537e-06
5.85743e-06
6.09901e-06
6.32086e-06
6.41776e-06
6.4562e-06
6.42398e-06
6.38804e-06
6.36152e-06
6.36051e-06
6.36339e-06
6.3914e-06
6.42828e-06
6.46108e-06
6.42348e-06
6.32717e-06
6.10424e-06
5.60391e-06
5.83645e-06
6.0403e-06
6.12959e-06
6.16555e-06
6.13584e-06
6.10292e-06
6.07883e-06
6.07818e-06
6.08058e-06
6.10608e-06
6.1399e-06
6.17015e-06
6.13496e-06
6.04621e-06
5.84134e-06
5.36248e-06
5.58112e-06
5.76651e-06
5.84887e-06
5.88219e-06
5.85509e-06
5.82523e-06
5.80341e-06
5.80306e-06
5.80505e-06
5.82819e-06
5.85891e-06
5.88653e-06
5.85391e-06
5.77202e-06
5.58564e-06
5.13048e-06
5.3329e-06
5.50055e-06
5.5768e-06
5.60741e-06
5.58293e-06
5.55604e-06
5.53628e-06
5.53615e-06
5.53781e-06
5.55881e-06
5.58651e-06
5.61149e-06
5.58152e-06
5.50567e-06
5.33707e-06
4.90665e-06
5.09223e-06
5.24343e-06
5.31436e-06
5.34233e-06
5.32036e-06
5.29628e-06
5.27836e-06
5.27839e-06
5.27978e-06
5.29885e-06
5.32371e-06
5.34616e-06
5.31878e-06
5.24818e-06
5.09606e-06
4.69053e-06
4.8597e-06
4.99593e-06
5.06223e-06
5.08768e-06
5.06807e-06
5.04656e-06
5.03028e-06
5.03043e-06
5.0316e-06
5.04894e-06
5.07119e-06
5.09127e-06
5.06635e-06
5.00034e-06
4.86321e-06
4.48187e-06
4.63566e-06
4.75841e-06
4.82051e-06
4.84366e-06
4.82618e-06
4.80699e-06
4.79221e-06
4.79244e-06
4.79343e-06
4.8092e-06
4.82909e-06
4.84703e-06
4.82436e-06
4.7625e-06
4.63887e-06
4.2802e-06
4.41987e-06
4.53049e-06
4.58862e-06
4.60972e-06
4.59414e-06
4.57698e-06
4.56361e-06
4.56391e-06
4.56474e-06
4.57903e-06
4.59685e-06
4.61289e-06
4.59222e-06
4.53428e-06
4.42282e-06
4.08461e-06
4.21143e-06
4.31107e-06
4.36532e-06
4.38462e-06
4.37069e-06
4.35534e-06
4.34331e-06
4.34367e-06
4.34436e-06
4.35724e-06
4.37322e-06
4.38759e-06
4.36869e-06
4.31458e-06
4.21414e-06
3.89394e-06
4.00903e-06
4.09862e-06
4.14905e-06
4.16676e-06
4.15429e-06
4.14053e-06
4.12981e-06
4.13022e-06
4.13078e-06
4.1423e-06
4.15665e-06
4.16955e-06
4.15221e-06
4.10188e-06
4.01152e-06
3.70698e-06
3.81126e-06
3.89159e-06
3.93828e-06
3.95455e-06
3.94338e-06
3.93108e-06
3.9216e-06
3.92207e-06
3.92251e-06
3.93272e-06
3.9456e-06
3.95717e-06
3.94124e-06
3.89462e-06
3.81355e-06
3.52265e-06
3.61688e-06
3.68866e-06
3.73172e-06
3.74667e-06
3.73668e-06
3.72571e-06
3.71742e-06
3.71794e-06
3.71826e-06
3.72725e-06
3.73876e-06
3.74913e-06
3.73449e-06
3.69147e-06
3.61899e-06
3.34009e-06
3.42493e-06
3.48877e-06
3.52832e-06
3.54205e-06
3.53316e-06
3.52343e-06
3.51625e-06
3.51681e-06
3.51704e-06
3.52487e-06
3.53511e-06
3.54437e-06
3.53092e-06
3.49137e-06
3.42687e-06
3.15864e-06
3.23467e-06
3.29112e-06
3.32733e-06
3.33989e-06
3.33203e-06
3.32347e-06
3.31732e-06
3.31791e-06
3.31805e-06
3.32481e-06
3.33386e-06
3.34208e-06
3.32977e-06
3.29354e-06
3.23644e-06
2.97785e-06
3.04558e-06
3.09517e-06
3.12816e-06
3.13961e-06
3.13271e-06
3.12525e-06
3.12005e-06
3.12067e-06
3.12073e-06
3.1265e-06
3.13443e-06
3.14167e-06
3.13045e-06
3.09741e-06
3.04721e-06
2.79738e-06
2.8573e-06
2.9005e-06
2.93041e-06
2.94079e-06
2.9348e-06
2.92838e-06
2.92404e-06
2.92469e-06
2.92467e-06
2.92955e-06
2.93642e-06
2.94274e-06
2.93256e-06
2.90257e-06
2.85879e-06
2.61691e-06
2.66952e-06
2.70678e-06
2.73377e-06
2.74311e-06
2.73797e-06
2.73252e-06
2.72896e-06
2.72963e-06
2.72955e-06
2.73362e-06
2.7395e-06
2.74495e-06
2.73578e-06
2.70868e-06
2.67088e-06
2.43564e-06
2.48153e-06
2.51331e-06
2.53759e-06
2.54594e-06
2.54157e-06
2.53703e-06
2.53417e-06
2.53487e-06
2.53472e-06
2.53807e-06
2.54302e-06
2.54767e-06
2.53947e-06
2.51507e-06
2.48276e-06
2.2502e-06
2.29043e-06
2.31738e-06
2.33941e-06
2.34684e-06
2.34315e-06
2.33942e-06
2.33715e-06
2.33789e-06
2.33768e-06
2.34041e-06
2.34455e-06
2.34853e-06
2.34121e-06
2.31904e-06
2.29156e-06
2.06173e-06
2.09643e-06
2.119e-06
2.13879e-06
2.14534e-06
2.14231e-06
2.13933e-06
2.13757e-06
2.13831e-06
2.13807e-06
2.14025e-06
2.14362e-06
2.14692e-06
2.14047e-06
2.12051e-06
2.09745e-06
1.87618e-06
1.90565e-06
1.9242e-06
1.9418e-06
1.94749e-06
1.94508e-06
1.94277e-06
1.94147e-06
1.94219e-06
1.94193e-06
1.94363e-06
1.94629e-06
1.94895e-06
1.94335e-06
1.92557e-06
1.90656e-06
1.69437e-06
1.71896e-06
1.73384e-06
1.74934e-06
1.7542e-06
1.75235e-06
1.75067e-06
1.74976e-06
1.75045e-06
1.75018e-06
1.75145e-06
1.75347e-06
1.75555e-06
1.75076e-06
1.73508e-06
1.71977e-06
1.51648e-06
1.53659e-06
1.54816e-06
1.56167e-06
1.56573e-06
1.5644e-06
1.56326e-06
1.56269e-06
1.56336e-06
1.56307e-06
1.56398e-06
1.56543e-06
1.56697e-06
1.56295e-06
1.54926e-06
1.53729e-06
1.34301e-06
1.35904e-06
1.36768e-06
1.37933e-06
1.38266e-06
1.38177e-06
1.38112e-06
1.38083e-06
1.38146e-06
1.38118e-06
1.38178e-06
1.38271e-06
1.38379e-06
1.38049e-06
1.36866e-06
1.35964e-06
1.17482e-06
1.18718e-06
1.19329e-06
1.20323e-06
1.20587e-06
1.20538e-06
1.20514e-06
1.20507e-06
1.20566e-06
1.20539e-06
1.20573e-06
1.20623e-06
1.2069e-06
1.20427e-06
1.19415e-06
1.1877e-06
1.01302e-06
1.02211e-06
1.02603e-06
1.03439e-06
1.03641e-06
1.03625e-06
1.03636e-06
1.03647e-06
1.03702e-06
1.03675e-06
1.03689e-06
1.03701e-06
1.03732e-06
1.03531e-06
1.02676e-06
1.02254e-06
8.58661e-07
8.64487e-07
8.66235e-07
8.73122e-07
8.74484e-07
8.74679e-07
8.75146e-07
8.75429e-07
8.7593e-07
8.75678e-07
8.75616e-07
8.75355e-07
8.75296e-07
8.7392e-07
8.66859e-07
8.64837e-07
7.11087e-07
7.10503e-07
7.07522e-07
7.12673e-07
7.1264e-07
7.13759e-07
7.15221e-07
7.15951e-07
7.16437e-07
7.16183e-07
7.15658e-07
7.14393e-07
7.134e-07
7.13384e-07
7.08028e-07
7.10735e-07
5.53787e-07
5.51656e-07
5.47962e-07
5.51957e-07
5.51599e-07
5.52777e-07
5.54273e-07
5.54999e-07
5.55412e-07
5.55193e-07
5.54638e-07
5.53309e-07
5.52237e-07
5.52545e-07
5.48367e-07
5.51825e-07
4.11719e-07
4.08805e-07
4.04986e-07
4.07977e-07
4.07481e-07
4.08581e-07
4.09972e-07
4.10637e-07
4.10972e-07
4.10793e-07
4.10264e-07
4.09007e-07
4.07993e-07
4.08442e-07
4.05298e-07
4.08921e-07
2.89116e-07
2.8609e-07
2.82634e-07
2.84783e-07
2.8429e-07
2.85223e-07
2.86398e-07
2.86944e-07
2.87201e-07
2.87062e-07
2.86619e-07
2.85546e-07
2.84681e-07
2.85134e-07
2.82862e-07
2.86166e-07
1.89451e-07
1.86827e-07
1.84064e-07
1.8553e-07
1.85118e-07
1.85838e-07
1.86739e-07
1.87145e-07
1.87327e-07
1.87228e-07
1.86895e-07
1.86067e-07
1.85394e-07
1.85777e-07
1.8422e-07
1.86874e-07
1.14395e-07
1.12456e-07
1.10518e-07
1.11447e-07
1.1115e-07
1.11649e-07
1.12267e-07
1.1254e-07
1.12658e-07
1.12594e-07
1.12368e-07
1.11796e-07
1.11329e-07
1.11606e-07
1.10617e-07
1.12483e-07
6.29055e-08
6.16825e-08
6.05018e-08
6.10363e-08
6.08545e-08
6.11589e-08
6.15334e-08
6.16961e-08
6.17646e-08
6.17271e-08
6.15915e-08
6.12443e-08
6.09582e-08
6.11286e-08
6.05586e-08
6.16966e-08
3.1177e-08
3.05218e-08
2.99012e-08
3.01761e-08
3.00818e-08
3.02431e-08
3.04406e-08
3.05259e-08
3.05612e-08
3.05418e-08
3.04705e-08
3.02871e-08
3.01352e-08
3.02235e-08
2.99303e-08
3.05287e-08
1.37784e-08
1.34815e-08
1.32026e-08
1.33273e-08
1.32863e-08
1.33599e-08
1.34497e-08
1.34884e-08
1.35044e-08
1.34956e-08
1.34632e-08
1.33798e-08
1.33104e-08
1.33488e-08
1.32157e-08
1.34846e-08
5.34379e-09
5.23081e-09
5.12459e-09
5.17386e-09
5.15907e-09
5.1877e-09
5.22251e-09
5.23755e-09
5.24386e-09
5.24038e-09
5.22782e-09
5.19548e-09
5.1685e-09
5.18226e-09
5.12976e-09
5.23207e-09
1.76601e-09
1.73062e-09
1.69707e-09
1.71355e-09
1.70924e-09
1.71852e-09
1.72979e-09
1.73469e-09
1.7368e-09
1.73563e-09
1.73156e-09
1.7211e-09
1.71236e-09
1.71633e-09
1.69879e-09
1.73106e-09
4.70666e-10
4.61956e-10
4.53578e-10
4.5801e-10
4.57047e-10
4.59438e-10
4.62345e-10
4.63616e-10
4.64183e-10
4.63867e-10
4.62817e-10
4.60126e-10
4.57876e-10
4.5875e-10
4.54042e-10
4.62084e-10
9.12754e-11
8.97469e-11
8.82467e-11
8.91118e-11
8.89652e-11
8.94094e-11
8.99502e-11
9.01886e-11
9.02993e-11
9.02373e-11
9.00418e-11
8.95425e-11
8.9125e-11
8.92549e-11
8.83373e-11
8.97735e-11
1.06053e-11
1.04452e-11
1.02847e-11
1.03852e-11
1.03726e-11
1.04222e-11
1.04825e-11
1.05093e-11
1.05222e-11
1.0515e-11
1.04931e-11
1.04376e-11
1.0391e-11
1.04017e-11
1.02952e-11
1.04484e-11
6.62564e-13
6.50309e-13
6.38835e-13
6.44372e-13
6.43242e-13
6.46788e-13
6.50933e-13
6.52754e-13
6.53482e-13
6.53083e-13
6.51556e-13
6.47696e-13
6.44335e-13
6.45339e-13
6.39431e-13
6.50455e-13
2.59665e-13
2.5207e-13
2.45649e-13
2.47191e-13
2.4623e-13
2.48108e-13
2.50179e-13
2.5106e-13
2.51279e-13
2.51171e-13
2.5039e-13
2.48424e-13
2.4662e-13
2.47521e-13
2.45828e-13
2.52067e-13
1.22514e-05
1.28909e-05
1.34118e-05
1.31722e-05
1.28951e-05
1.27467e-05
1.27036e-05
1.26956e-05
1.26946e-05
1.26993e-05
1.27103e-05
1.27546e-05
1.29015e-05
1.3176e-05
1.34122e-05
1.28909e-05
1.25892e-05
1.30545e-05
1.33741e-05
1.31306e-05
1.28804e-05
1.27732e-05
1.27521e-05
1.27586e-05
1.27602e-05
1.27621e-05
1.27585e-05
1.27806e-05
1.28865e-05
1.3134e-05
1.33738e-05
1.30534e-05
1.28817e-05
1.31847e-05
1.33242e-05
1.30759e-05
1.28499e-05
1.27789e-05
1.27774e-05
1.27965e-05
1.28004e-05
1.27999e-05
1.27834e-05
1.2786e-05
1.28558e-05
1.30789e-05
1.33233e-05
1.31828e-05
1.31257e-05
1.32812e-05
1.32627e-05
1.30096e-05
1.28055e-05
1.27659e-05
1.27813e-05
1.28112e-05
1.28171e-05
1.28145e-05
1.2787e-05
1.27726e-05
1.28113e-05
1.30123e-05
1.32612e-05
1.32784e-05
1.33206e-05
1.33443e-05
1.319e-05
1.29334e-05
1.27488e-05
1.27358e-05
1.27657e-05
1.28046e-05
1.28121e-05
1.28077e-05
1.27712e-05
1.27424e-05
1.27545e-05
1.29358e-05
1.31881e-05
1.33407e-05
1.34672e-05
1.3375e-05
1.31068e-05
1.28483e-05
1.26811e-05
1.26905e-05
1.27322e-05
1.27785e-05
1.27872e-05
1.27815e-05
1.27375e-05
1.26968e-05
1.26868e-05
1.28506e-05
1.31045e-05
1.33708e-05
1.35673e-05
1.3375e-05
1.30135e-05
1.27553e-05
1.26035e-05
1.26311e-05
1.26824e-05
1.27344e-05
1.27441e-05
1.27373e-05
1.26876e-05
1.26373e-05
1.26092e-05
1.27575e-05
1.30109e-05
1.33702e-05
1.36237e-05
1.33462e-05
1.29105e-05
1.2655e-05
1.25169e-05
1.25595e-05
1.26182e-05
1.26744e-05
1.26849e-05
1.26773e-05
1.26233e-05
1.25655e-05
1.25226e-05
1.26571e-05
1.29078e-05
1.3341e-05
1.36392e-05
1.3291e-05
1.27986e-05
1.25482e-05
1.24228e-05
1.24778e-05
1.25419e-05
1.26013e-05
1.26122e-05
1.26041e-05
1.2547e-05
1.24838e-05
1.24284e-05
1.25503e-05
1.27958e-05
1.32855e-05
1.36175e-05
1.32123e-05
1.26784e-05
1.24361e-05
1.23225e-05
1.2387e-05
1.24553e-05
1.25166e-05
1.25277e-05
1.25194e-05
1.24603e-05
1.23931e-05
1.23282e-05
1.24382e-05
1.26759e-05
1.32065e-05
1.35622e-05
1.31126e-05
1.25505e-05
1.23191e-05
1.22163e-05
1.22877e-05
1.23588e-05
1.24214e-05
1.24324e-05
1.24241e-05
1.23638e-05
1.22938e-05
1.2222e-05
1.23212e-05
1.25483e-05
1.31067e-05
1.34771e-05
1.29942e-05
1.24151e-05
1.2197e-05
1.21039e-05
1.21796e-05
1.22527e-05
1.23158e-05
1.23267e-05
1.23186e-05
1.22577e-05
1.21858e-05
1.21096e-05
1.21992e-05
1.24133e-05
1.29883e-05
1.33657e-05
1.2859e-05
1.22724e-05
1.20695e-05
1.19851e-05
1.20626e-05
1.2137e-05
1.22001e-05
1.22107e-05
1.22028e-05
1.21419e-05
1.20688e-05
1.19908e-05
1.20716e-05
1.22713e-05
1.2853e-05
1.3231e-05
1.27086e-05
1.21227e-05
1.19362e-05
1.18596e-05
1.19364e-05
1.20115e-05
1.20743e-05
1.20844e-05
1.2077e-05
1.20164e-05
1.19427e-05
1.18653e-05
1.19384e-05
1.2122e-05
1.27027e-05
1.30759e-05
1.25446e-05
1.19659e-05
1.17965e-05
1.17274e-05
1.18015e-05
1.18763e-05
1.19385e-05
1.19482e-05
1.19411e-05
1.18812e-05
1.18077e-05
1.1733e-05
1.17989e-05
1.19656e-05
1.25387e-05
1.29029e-05
1.23684e-05
1.18019e-05
1.16493e-05
1.15882e-05
1.16579e-05
1.17315e-05
1.17929e-05
1.18021e-05
1.17955e-05
1.17363e-05
1.16642e-05
1.15938e-05
1.16521e-05
1.1802e-05
1.23626e-05
1.27144e-05
1.21813e-05
1.16309e-05
1.1494e-05
1.14415e-05
1.15063e-05
1.15775e-05
1.16379e-05
1.16465e-05
1.16404e-05
1.15822e-05
1.15125e-05
1.14472e-05
1.14972e-05
1.16313e-05
1.21757e-05
1.25125e-05
1.19846e-05
1.14532e-05
1.1331e-05
1.12865e-05
1.13467e-05
1.14148e-05
1.14735e-05
1.14815e-05
1.1476e-05
1.14195e-05
1.13529e-05
1.12923e-05
1.13345e-05
1.14538e-05
1.19792e-05
1.22993e-05
1.17795e-05
1.12693e-05
1.11607e-05
1.11233e-05
1.11797e-05
1.1244e-05
1.13007e-05
1.1308e-05
1.13032e-05
1.12487e-05
1.11859e-05
1.11292e-05
1.11644e-05
1.127e-05
1.17743e-05
1.20763e-05
1.15669e-05
1.10795e-05
1.09837e-05
1.09526e-05
1.10059e-05
1.1066e-05
1.11202e-05
1.11268e-05
1.11227e-05
1.10706e-05
1.1012e-05
1.09585e-05
1.09876e-05
1.10804e-05
1.15619e-05
1.18453e-05
1.13478e-05
1.08846e-05
1.08005e-05
1.07751e-05
1.0826e-05
1.08816e-05
1.0933e-05
1.09389e-05
1.09355e-05
1.08862e-05
1.0832e-05
1.07811e-05
1.08046e-05
1.08856e-05
1.13429e-05
1.16076e-05
1.11227e-05
1.0685e-05
1.06118e-05
1.05913e-05
1.06404e-05
1.0692e-05
1.07401e-05
1.07452e-05
1.07425e-05
1.06966e-05
1.06464e-05
1.05973e-05
1.0616e-05
1.06861e-05
1.1118e-05
1.12023e-05
1.0892e-05
1.04811e-05
1.04181e-05
1.04018e-05
1.04496e-05
1.04978e-05
1.05419e-05
1.05463e-05
1.05443e-05
1.05024e-05
1.04555e-05
1.04078e-05
1.04223e-05
1.04822e-05
1.08874e-05
1.07806e-05
1.06558e-05
1.02733e-05
1.02198e-05
1.02072e-05
1.02541e-05
1.02993e-05
1.03392e-05
1.0343e-05
1.03415e-05
1.03037e-05
1.02598e-05
1.02131e-05
1.02241e-05
1.02744e-05
1.06513e-05
1.04003e-05
1.03409e-05
1.00619e-05
1.00175e-05
1.00079e-05
1.00541e-05
1.00966e-05
1.01329e-05
1.01362e-05
1.01352e-05
1.0101e-05
1.00598e-05
1.00138e-05
1.00217e-05
1.00631e-05
1.03412e-05
1.00715e-05
1.00019e-05
9.8476e-06
9.81161e-06
9.80465e-06
9.85031e-06
9.89036e-06
9.92365e-06
9.92653e-06
9.92594e-06
9.89465e-06
9.85586e-06
9.81042e-06
9.81579e-06
9.84881e-06
1.00034e-05
9.78452e-06
9.68473e-06
9.62703e-06
9.60167e-06
9.59696e-06
9.63286e-06
9.65421e-06
9.66219e-06
9.66843e-06
9.66458e-06
9.6585e-06
9.63843e-06
9.60262e-06
9.60579e-06
9.62973e-06
9.68613e-06
9.52378e-06
9.39581e-06
9.34823e-06
9.34281e-06
9.34054e-06
9.36396e-06
9.38299e-06
9.38765e-06
9.39384e-06
9.38997e-06
9.38712e-06
9.36929e-06
9.34626e-06
9.34762e-06
9.35112e-06
9.39663e-06
9.27457e-06
9.12624e-06
9.056e-06
9.05524e-06
9.05489e-06
9.08189e-06
9.10422e-06
9.11364e-06
9.11852e-06
9.11584e-06
9.10811e-06
9.08689e-06
9.06032e-06
9.05984e-06
9.05859e-06
9.12645e-06
9.02512e-06
8.86229e-06
8.76209e-06
8.76183e-06
8.76327e-06
8.79713e-06
8.82303e-06
8.83854e-06
8.84179e-06
8.84062e-06
8.82671e-06
8.80183e-06
8.76832e-06
8.76596e-06
8.76421e-06
8.86194e-06
8.76675e-06
8.59135e-06
8.46759e-06
8.46797e-06
8.47118e-06
8.51079e-06
8.53853e-06
8.55873e-06
8.56045e-06
8.5607e-06
8.54204e-06
8.51525e-06
8.47589e-06
8.47166e-06
8.46925e-06
8.59056e-06
8.49343e-06
8.30704e-06
8.17221e-06
8.17455e-06
8.17935e-06
8.2221e-06
8.24983e-06
8.27259e-06
8.27305e-06
8.27446e-06
8.2532e-06
8.22636e-06
8.18379e-06
8.1779e-06
8.17353e-06
8.30598e-06
8.203e-06
8.00987e-06
7.87571e-06
7.881e-06
7.8871e-06
7.93068e-06
7.95713e-06
7.98069e-06
7.98021e-06
7.98248e-06
7.96036e-06
7.93475e-06
7.89131e-06
7.88413e-06
7.87681e-06
8.00873e-06
7.89733e-06
7.70388e-06
7.57813e-06
7.58673e-06
7.59372e-06
7.6366e-06
7.66116e-06
7.68441e-06
7.68322e-06
7.68612e-06
7.66426e-06
7.64049e-06
7.59774e-06
7.5897e-06
7.57912e-06
7.70278e-06
7.58124e-06
7.39363e-06
7.27995e-06
7.29164e-06
7.29914e-06
7.34044e-06
7.36299e-06
7.38534e-06
7.38365e-06
7.38697e-06
7.36595e-06
7.34417e-06
7.303e-06
7.29449e-06
7.2809e-06
7.39265e-06
7.26039e-06
7.083e-06
6.98208e-06
6.99633e-06
7.00402e-06
7.04334e-06
7.06401e-06
7.08519e-06
7.08315e-06
7.08673e-06
7.06683e-06
7.04691e-06
7.00773e-06
6.9991e-06
6.98304e-06
7.08215e-06
6.93971e-06
6.77493e-06
6.6859e-06
6.70207e-06
6.70972e-06
6.74688e-06
6.76592e-06
6.78581e-06
6.78356e-06
6.78727e-06
6.7686e-06
6.75029e-06
6.71328e-06
6.70476e-06
6.68688e-06
6.77423e-06
6.62302e-06
6.47182e-06
6.39315e-06
6.41062e-06
6.41808e-06
6.45305e-06
6.47072e-06
6.48927e-06
6.48693e-06
6.49065e-06
6.47325e-06
6.45629e-06
6.4215e-06
6.41324e-06
6.39415e-06
6.47124e-06
6.31327e-06
6.17577e-06
6.10587e-06
6.12411e-06
6.1313e-06
6.1641e-06
6.18062e-06
6.19782e-06
6.19547e-06
6.1991e-06
6.183e-06
6.16717e-06
6.13457e-06
6.12665e-06
6.10689e-06
6.17531e-06
6.01286e-06
5.88875e-06
5.82623e-06
5.84483e-06
5.85171e-06
5.88239e-06
5.89794e-06
5.91377e-06
5.91151e-06
5.91497e-06
5.90016e-06
5.88528e-06
5.85483e-06
5.84729e-06
5.82728e-06
5.88838e-06
5.72361e-06
5.61227e-06
5.55609e-06
5.57475e-06
5.58132e-06
5.60994e-06
5.62464e-06
5.63914e-06
5.637e-06
5.64025e-06
5.62671e-06
5.61266e-06
5.58428e-06
5.57711e-06
5.55715e-06
5.61199e-06
5.44653e-06
5.34701e-06
5.29646e-06
5.31499e-06
5.32129e-06
5.34795e-06
5.36187e-06
5.37512e-06
5.37311e-06
5.37614e-06
5.36378e-06
5.3505e-06
5.3241e-06
5.31726e-06
5.29754e-06
5.34682e-06
5.18147e-06
5.09264e-06
5.04735e-06
5.06563e-06
5.07173e-06
5.09653e-06
5.10967e-06
5.1218e-06
5.1199e-06
5.12273e-06
5.11144e-06
5.09891e-06
5.07439e-06
5.06781e-06
5.04843e-06
5.09252e-06
4.92726e-06
4.84791e-06
4.80772e-06
4.8257e-06
4.83166e-06
4.85469e-06
4.86703e-06
4.87816e-06
4.87635e-06
4.87902e-06
4.86869e-06
4.85693e-06
4.83418e-06
4.82779e-06
4.80881e-06
4.84785e-06
4.68205e-06
4.61104e-06
4.57588e-06
4.59351e-06
4.59941e-06
4.62075e-06
4.63227e-06
4.64251e-06
4.64076e-06
4.64331e-06
4.63381e-06
4.62286e-06
4.6018e-06
4.59552e-06
4.57698e-06
4.61104e-06
4.44387e-06
4.38025e-06
4.35e-06
4.36724e-06
4.37312e-06
4.39285e-06
4.40353e-06
4.41297e-06
4.41126e-06
4.41371e-06
4.40498e-06
4.39484e-06
4.37541e-06
4.36918e-06
4.35112e-06
4.38031e-06
4.21105e-06
4.15403e-06
4.12849e-06
4.14529e-06
4.1512e-06
4.16937e-06
4.17922e-06
4.18791e-06
4.18624e-06
4.1886e-06
4.18058e-06
4.17125e-06
4.15338e-06
4.14718e-06
4.12962e-06
4.15415e-06
3.98231e-06
3.93127e-06
3.91017e-06
3.92647e-06
3.93241e-06
3.94908e-06
3.95812e-06
3.96611e-06
3.96449e-06
3.96676e-06
3.95941e-06
3.95088e-06
3.9345e-06
3.9283e-06
3.91131e-06
3.93144e-06
3.75674e-06
3.71117e-06
3.69417e-06
3.70993e-06
3.71591e-06
3.73115e-06
3.73941e-06
3.74672e-06
3.74516e-06
3.74733e-06
3.74063e-06
3.73286e-06
3.71792e-06
3.71172e-06
3.69533e-06
3.71139e-06
3.53375e-06
3.49322e-06
3.47997e-06
3.49516e-06
3.50116e-06
3.51502e-06
3.52255e-06
3.5292e-06
3.52771e-06
3.52977e-06
3.52371e-06
3.51665e-06
3.50309e-06
3.49689e-06
3.48113e-06
3.49348e-06
3.31296e-06
3.27711e-06
3.26726e-06
3.28186e-06
3.28788e-06
3.30042e-06
3.30727e-06
3.31326e-06
3.31186e-06
3.3138e-06
3.30836e-06
3.30198e-06
3.28973e-06
3.28354e-06
3.26842e-06
3.27741e-06
3.09424e-06
3.06276e-06
3.05596e-06
3.06996e-06
3.07599e-06
3.08727e-06
3.09347e-06
3.09883e-06
3.09752e-06
3.09934e-06
3.09452e-06
3.08876e-06
3.07777e-06
3.0716e-06
3.05712e-06
3.06309e-06
2.87756e-06
2.85016e-06
2.8461e-06
2.85952e-06
2.86554e-06
2.87563e-06
2.88123e-06
2.88596e-06
2.88477e-06
2.88644e-06
2.88223e-06
2.87705e-06
2.86725e-06
2.86111e-06
2.84725e-06
2.85052e-06
2.66279e-06
2.63919e-06
2.63759e-06
2.65051e-06
2.65653e-06
2.66551e-06
2.67056e-06
2.67467e-06
2.6736e-06
2.67513e-06
2.6715e-06
2.66686e-06
2.65817e-06
2.65205e-06
2.63874e-06
2.63957e-06
2.44888e-06
2.42867e-06
2.42941e-06
2.44209e-06
2.44823e-06
2.45621e-06
2.46076e-06
2.46429e-06
2.46334e-06
2.46472e-06
2.46165e-06
2.45749e-06
2.44983e-06
2.44362e-06
2.43057e-06
2.42908e-06
2.23304e-06
2.21609e-06
2.21853e-06
2.23061e-06
2.23665e-06
2.2437e-06
2.24785e-06
2.25086e-06
2.25002e-06
2.25127e-06
2.24871e-06
2.24495e-06
2.23817e-06
2.23208e-06
2.21966e-06
2.21651e-06
2.02191e-06
2.00799e-06
2.01182e-06
2.02324e-06
2.02913e-06
2.03526e-06
2.03897e-06
2.04147e-06
2.04076e-06
2.04186e-06
2.03978e-06
2.03644e-06
2.03056e-06
2.02463e-06
2.01292e-06
2.00841e-06
1.81661e-06
1.80549e-06
1.81046e-06
1.82121e-06
1.82691e-06
1.83219e-06
1.83548e-06
1.83751e-06
1.83692e-06
1.83787e-06
1.83624e-06
1.83328e-06
1.82825e-06
1.82252e-06
1.81152e-06
1.80591e-06
1.61747e-06
1.60893e-06
1.61479e-06
1.62483e-06
1.6303e-06
1.6348e-06
1.63772e-06
1.63931e-06
1.63884e-06
1.63964e-06
1.63842e-06
1.63581e-06
1.63154e-06
1.62607e-06
1.61579e-06
1.60934e-06
1.42505e-06
1.41884e-06
1.42531e-06
1.43463e-06
1.4398e-06
1.4436e-06
1.44617e-06
1.44738e-06
1.44702e-06
1.44768e-06
1.44681e-06
1.44453e-06
1.44095e-06
1.43577e-06
1.42626e-06
1.41923e-06
1.24018e-06
1.23604e-06
1.24287e-06
1.2514e-06
1.25623e-06
1.2594e-06
1.26166e-06
1.26253e-06
1.26228e-06
1.26281e-06
1.26224e-06
1.26025e-06
1.25728e-06
1.25245e-06
1.24376e-06
1.23642e-06
1.06375e-06
1.06146e-06
1.06843e-06
1.07613e-06
1.08059e-06
1.08319e-06
1.08515e-06
1.08575e-06
1.08558e-06
1.086e-06
1.08568e-06
1.08396e-06
1.08154e-06
1.07709e-06
1.06924e-06
1.06182e-06
8.95666e-07
8.9532e-07
9.02409e-07
9.09362e-07
9.13488e-07
9.15539e-07
9.17223e-07
9.1753e-07
9.17464e-07
9.17757e-07
9.17698e-07
9.16235e-07
9.14347e-07
9.10232e-07
9.03161e-07
8.95663e-07
7.26762e-07
7.31183e-07
7.40102e-07
7.47077e-07
7.51456e-07
7.52713e-07
7.54086e-07
7.53757e-07
7.53896e-07
7.53972e-07
7.5454e-07
7.53388e-07
7.52298e-07
7.47948e-07
7.40886e-07
7.31569e-07
5.61558e-07
5.66521e-07
5.74355e-07
5.80204e-07
5.83929e-07
5.8486e-07
5.85982e-07
5.85594e-07
5.85749e-07
5.85775e-07
5.86366e-07
5.85433e-07
5.84645e-07
5.80946e-07
5.75027e-07
5.66864e-07
4.14127e-07
4.19042e-07
4.25533e-07
4.30242e-07
4.33277e-07
4.33942e-07
4.34823e-07
4.34432e-07
4.34582e-07
4.34578e-07
4.35134e-07
4.34409e-07
4.33861e-07
4.30849e-07
4.26085e-07
4.19332e-07
2.88421e-07
2.92754e-07
2.97813e-07
3.01406e-07
3.03742e-07
3.04197e-07
3.04852e-07
3.04503e-07
3.04634e-07
3.04615e-07
3.0509e-07
3.04556e-07
3.04192e-07
3.01875e-07
2.98241e-07
2.92984e-07
1.87485e-07
1.90891e-07
1.94541e-07
1.97094e-07
1.98766e-07
1.99061e-07
1.99515e-07
1.99239e-07
1.99341e-07
1.99319e-07
1.99685e-07
1.99318e-07
1.99088e-07
1.97431e-07
1.94848e-07
1.91059e-07
1.12394e-07
1.14764e-07
1.17157e-07
1.18817e-07
1.19908e-07
1.20088e-07
1.20377e-07
1.20185e-07
1.20255e-07
1.20237e-07
1.20487e-07
1.20256e-07
1.20119e-07
1.19037e-07
1.17359e-07
1.14875e-07
6.14582e-08
6.29019e-08
6.43044e-08
6.52725e-08
6.59117e-08
6.60133e-08
6.61794e-08
6.60635e-08
6.61058e-08
6.60936e-08
6.62442e-08
6.61116e-08
6.60355e-08
6.54018e-08
6.4423e-08
6.29679e-08
3.03594e-08
3.11208e-08
3.18451e-08
3.23448e-08
3.26758e-08
3.27282e-08
3.28136e-08
3.27533e-08
3.27755e-08
3.27689e-08
3.28472e-08
3.27791e-08
3.27399e-08
3.24118e-08
3.19065e-08
3.11551e-08
1.34091e-08
1.3754e-08
1.40803e-08
1.4306e-08
1.44559e-08
1.44802e-08
1.45191e-08
1.44923e-08
1.45024e-08
1.44994e-08
1.45343e-08
1.45033e-08
1.44849e-08
1.43364e-08
1.4108e-08
1.37695e-08
5.2104e-09
5.34333e-09
5.47002e-09
5.55816e-09
5.61677e-09
5.62673e-09
5.64222e-09
5.63213e-09
5.63609e-09
5.63492e-09
5.6482e-09
5.63578e-09
5.62814e-09
5.57001e-09
5.48085e-09
5.34937e-09
1.72841e-09
1.77108e-09
1.8125e-09
1.84152e-09
1.86085e-09
1.86433e-09
1.86957e-09
1.86642e-09
1.86773e-09
1.86735e-09
1.87156e-09
1.86732e-09
1.8646e-09
1.84542e-09
1.81605e-09
1.77306e-09