/*--------------------------------*- C++ -*----------------------------------*\
| =========                 |                                                 |
| \\      /  F ield         | OpenFOAM: The Open Source CFD Toolbox           |
|  \\    /   O peration     | Version:  v1912                                 |
|   \\  /    A nd           | Website:  www.openfoam.com                      |
|    \\/     M anipulation  |                                                 |
\*---------------------------------------------------------------------------*/
FoamFile
{
    version     2.0;
    format      ascii;
    class       volScalarField;
    location    "198.8";
    object      T;
}
// * * * * * * * * * * * * * * * * * * * * * * * * * * * * * * * * * * * * * //

dimensions      [0 0 0 1 0 0 0];


internalField   nonuniform List<scalar> 
10077
(
347.046
346.875
346.625
346.501
346.453
346.448
346.455
346.463
346.465
346.461
346.451
346.442
346.448
346.496
346.62
346.872
346.993
346.826
346.58
346.456
346.406
346.399
346.406
346.414
346.416
346.412
346.402
346.394
346.401
346.45
346.575
346.823
346.941
346.778
346.536
346.411
346.36
346.352
346.358
346.366
346.367
346.364
346.354
346.347
346.355
346.405
346.531
346.775
346.89
346.73
346.491
346.366
346.314
346.305
346.311
346.318
346.32
346.316
346.307
346.3
346.309
346.361
346.486
346.726
346.838
346.682
346.447
346.322
346.269
346.259
346.264
346.271
346.273
346.269
346.26
346.254
346.264
346.317
346.442
346.678
346.788
346.634
346.403
346.279
346.225
346.214
346.218
346.225
346.226
346.223
346.214
346.209
346.219
346.274
346.399
346.631
346.738
346.586
346.359
346.236
346.18
346.169
346.173
346.179
346.18
346.177
346.169
346.164
346.175
346.231
346.355
346.583
346.688
346.539
346.316
346.193
346.137
346.124
346.128
346.134
346.135
346.132
346.124
346.119
346.132
346.188
346.311
346.535
346.638
346.491
346.273
346.15
346.093
346.08
346.083
346.089
346.09
346.087
346.079
346.075
346.088
346.145
346.268
346.488
346.589
346.444
346.229
346.108
346.05
346.036
346.039
346.044
346.045
346.042
346.035
346.032
346.046
346.103
346.225
346.441
346.54
346.397
346.186
346.066
346.008
345.993
345.995
346
346.001
345.998
345.991
345.988
346.003
346.061
346.182
346.394
346.491
346.351
346.143
346.024
345.965
345.95
345.951
345.956
345.957
345.954
345.947
345.945
345.96
346.019
346.139
346.348
346.442
346.304
346.101
345.982
345.923
345.907
345.908
345.912
345.913
345.91
345.904
345.902
345.918
345.978
346.097
346.301
346.394
346.258
346.058
345.941
345.881
345.864
345.865
345.869
345.87
345.867
345.861
345.86
345.876
345.936
346.054
346.255
346.346
346.212
346.016
345.899
345.839
345.822
345.822
345.826
345.827
345.824
345.819
345.817
345.835
345.895
346.012
346.209
346.298
346.167
345.973
345.858
345.797
345.78
345.779
345.783
345.784
345.781
345.776
345.775
345.793
345.854
345.969
346.164
346.251
346.121
345.931
345.817
345.756
345.738
345.737
345.741
345.741
345.739
345.734
345.733
345.751
345.812
345.927
346.118
346.204
346.076
345.889
345.776
345.714
345.696
345.695
345.698
345.699
345.697
345.692
345.692
345.71
345.771
345.885
346.073
346.157
346.031
345.847
345.734
345.673
345.654
345.653
345.656
345.656
345.654
345.65
345.65
345.669
345.73
345.843
346.028
346.11
345.986
345.805
345.693
345.631
345.612
345.611
345.614
345.614
345.612
345.608
345.608
345.627
345.689
345.801
345.983
346.064
345.941
345.763
345.652
345.59
345.571
345.569
345.572
345.572
345.57
345.566
345.567
345.586
345.648
345.759
345.938
346.018
345.897
345.721
345.611
345.549
345.529
345.528
345.53
345.53
345.529
345.525
345.525
345.545
345.607
345.717
345.894
345.972
345.852
345.678
345.57
345.507
345.488
345.486
345.488
345.488
345.487
345.483
345.484
345.503
345.566
345.675
345.849
345.927
345.808
345.636
345.528
345.466
345.446
345.444
345.447
345.447
345.445
345.441
345.442
345.462
345.524
345.632
345.805
345.882
345.764
345.594
345.487
345.424
345.404
345.402
345.405
345.405
345.403
345.399
345.4
345.42
345.483
345.59
345.761
345.836
345.719
345.551
345.445
345.382
345.362
345.36
345.363
345.363
345.361
345.357
345.359
345.378
345.441
345.548
345.717
345.791
345.675
345.509
345.403
345.34
345.32
345.318
345.321
345.32
345.319
345.315
345.316
345.336
345.4
345.505
345.672
345.746
345.631
345.466
345.361
345.298
345.278
345.276
345.278
345.278
345.277
345.273
345.274
345.294
345.357
345.462
345.628
345.701
345.586
345.423
345.319
345.255
345.235
345.233
345.236
345.235
345.234
345.231
345.232
345.251
345.315
345.419
345.584
345.655
345.542
345.379
345.275
345.211
345.192
345.19
345.192
345.192
345.191
345.187
345.188
345.208
345.272
345.375
345.539
345.609
345.497
345.334
345.231
345.167
345.148
345.146
345.148
345.148
345.147
345.143
345.144
345.164
345.228
345.33
345.494
345.563
345.45
345.288
345.186
345.122
345.103
345.101
345.104
345.103
345.102
345.099
345.099
345.118
345.183
345.285
345.448
345.516
345.403
345.241
345.14
345.076
345.056
345.055
345.058
345.057
345.056
345.053
345.053
345.072
345.137
345.238
345.4
345.468
345.354
345.193
345.093
345.028
345.009
345.008
345.01
345.01
345.009
345.005
345.006
345.025
345.089
345.19
345.352
345.419
345.304
345.144
345.044
344.979
344.96
344.959
344.962
344.961
344.96
344.957
344.957
344.976
345.04
345.14
345.302
345.368
345.253
345.093
344.994
344.929
344.91
344.909
344.911
344.911
344.91
344.907
344.907
344.926
344.99
345.089
345.25
345.315
345.199
345.04
344.942
344.877
344.858
344.858
344.86
344.859
344.858
344.855
344.855
344.874
344.938
345.037
345.197
345.26
345.144
344.986
344.888
344.823
344.804
344.804
344.806
344.806
344.805
344.801
344.801
344.82
344.885
344.982
345.142
345.204
345.087
344.93
344.832
344.767
344.749
344.749
344.751
344.75
344.749
344.746
344.746
344.764
344.829
344.926
345.085
345.145
345.029
344.871
344.775
344.709
344.691
344.691
344.693
344.693
344.692
344.689
344.688
344.706
344.771
344.868
345.026
345.085
344.968
344.81
344.715
344.649
344.631
344.632
344.633
344.633
344.632
344.629
344.628
344.646
344.711
344.807
344.965
345.023
344.904
344.747
344.652
344.586
344.569
344.569
344.571
344.571
344.57
344.567
344.566
344.583
344.649
344.744
344.902
344.958
344.839
344.681
344.587
344.521
344.504
344.505
344.507
344.506
344.505
344.502
344.501
344.518
344.584
344.678
344.836
344.891
344.77
344.613
344.519
344.453
344.436
344.438
344.44
344.439
344.438
344.435
344.433
344.45
344.516
344.61
344.767
344.821
344.699
344.542
344.449
344.382
344.366
344.368
344.37
344.369
344.368
344.365
344.363
344.379
344.446
344.538
344.696
344.748
344.625
344.468
344.376
344.309
344.293
344.295
344.297
344.296
344.295
344.293
344.29
344.306
344.372
344.464
344.622
344.672
344.548
344.39
344.299
344.232
344.217
344.219
344.221
344.22
344.219
344.217
344.214
344.229
344.296
344.387
344.545
344.593
344.468
344.31
344.219
344.152
344.137
344.14
344.142
344.141
344.14
344.138
344.134
344.149
344.216
344.306
344.465
344.511
344.384
344.225
344.136
344.068
344.054
344.057
344.059
344.058
344.057
344.055
344.051
344.065
344.132
344.222
344.381
344.425
344.296
344.137
344.048
343.98
343.967
343.97
343.972
343.971
343.971
343.968
343.964
343.977
344.045
344.134
344.293
344.335
344.204
344.044
343.956
343.888
343.875
343.88
343.881
343.88
343.88
343.877
343.872
343.885
343.953
344.041
344.201
344.24
344.107
343.947
343.86
343.791
343.779
343.784
343.785
343.785
343.784
343.782
343.776
343.789
343.857
343.944
344.104
344.14
344.005
343.844
343.758
343.689
343.678
343.683
343.685
343.684
343.683
343.681
343.675
343.687
343.755
343.841
344.002
344.035
343.897
343.736
343.65
343.581
343.57
343.576
343.578
343.577
343.577
343.574
343.568
343.579
343.647
343.732
343.894
343.922
343.782
343.62
343.536
343.467
343.456
343.463
343.465
343.464
343.463
343.461
343.454
343.464
343.533
343.617
343.779
343.802
343.66
343.497
343.414
343.344
343.334
343.342
343.343
343.342
343.342
343.339
343.332
343.341
343.411
343.493
343.657
343.673
343.528
343.363
343.282
343.212
343.203
343.211
343.213
343.212
343.212
343.209
343.2
343.209
343.279
343.36
343.525
343.533
343.385
343.219
343.139
343.068
343.061
343.069
343.071
343.07
343.07
343.067
343.058
343.066
343.136
343.216
343.382
343.38
343.229
343.062
342.983
342.912
342.906
342.915
342.917
342.916
342.916
342.913
342.903
342.91
342.981
343.059
343.226
343.213
343.058
342.89
342.812
342.741
342.735
342.746
342.748
342.747
342.747
342.744
342.733
342.739
342.81
342.886
343.054
343.027
342.868
342.698
342.623
342.551
342.546
342.558
342.56
342.559
342.559
342.556
342.544
342.549
342.62
342.695
342.865
342.818
342.655
342.483
342.41
342.338
342.334
342.347
342.349
342.348
342.348
342.345
342.332
342.336
342.407
342.48
342.652
342.581
342.413
342.239
342.168
342.095
342.093
342.107
342.11
342.108
342.109
342.105
342.091
342.093
342.165
342.236
342.409
342.307
342.132
341.956
341.887
341.813
341.813
341.828
341.832
341.83
341.831
341.826
341.811
341.812
341.884
341.953
342.129
341.98
341.796
341.615
341.549
341.474
341.477
341.493
341.498
341.496
341.497
341.492
341.475
341.473
341.546
341.612
341.793
341.571
341.377
341.188
341.126
341.05
341.056
341.075
341.08
341.079
341.079
341.073
341.054
341.049
341.124
341.186
341.373
341.041
340.834
340.637
340.579
340.502
340.511
340.533
340.539
340.538
340.539
340.532
340.509
340.501
340.577
340.634
340.83
340.332
340.106
339.898
339.846
339.768
339.781
339.808
339.815
339.814
339.815
339.807
339.78
339.767
339.845
339.896
340.103
339.353
339.107
338.884
338.84
338.759
338.778
338.81
338.82
338.819
338.82
338.81
338.778
338.76
338.84
338.882
339.103
337.994
337.724
337.487
337.452
337.37
337.395
337.433
337.445
337.445
337.445
337.433
337.396
337.371
337.453
337.485
337.72
336.161
335.871
335.623
335.599
335.516
335.548
335.591
335.606
335.605
335.606
335.591
335.549
335.519
335.6
335.622
335.868
333.851
333.557
333.31
333.294
333.214
333.249
333.295
333.31
333.31
333.311
333.295
333.251
333.217
333.295
333.309
333.553
331.19
330.909
330.677
330.667
330.594
330.63
330.674
330.69
330.689
330.69
330.675
330.632
330.597
330.669
330.677
330.906
328.352
328.101
327.896
327.889
327.825
327.859
327.898
327.912
327.912
327.913
327.899
327.86
327.828
327.891
327.895
328.098
325.468
325.256
325.085
325.081
325.028
325.057
325.09
325.102
325.101
325.102
325.09
325.058
325.03
325.083
325.085
325.254
322.606
322.44
322.306
322.303
322.262
322.284
322.31
322.32
322.319
322.32
322.311
322.285
322.263
322.304
322.305
322.438
319.792
319.673
319.578
319.576
319.547
319.563
319.582
319.588
319.588
319.588
319.582
319.564
319.548
319.577
319.578
319.672
317.034
316.963
316.907
316.906
316.888
316.898
316.909
316.913
316.913
316.913
316.909
316.898
316.889
316.906
316.906
316.963
314.333
314.31
314.291
314.291
314.285
314.288
314.292
314.293
314.293
314.293
314.292
314.288
314.285
314.291
314.291
314.309
346.578
346.702
346.846
346.858
346.829
346.782
346.75
346.728
346.722
346.726
346.745
346.776
346.823
346.853
346.842
346.7
346.531
346.648
346.785
346.797
346.768
346.722
346.69
346.669
346.663
346.666
346.686
346.716
346.763
346.792
346.782
346.647
346.484
346.596
346.726
346.738
346.709
346.663
346.632
346.611
346.605
346.608
346.628
346.658
346.703
346.733
346.723
346.595
346.439
346.546
346.669
346.68
346.651
346.606
346.575
346.554
346.548
346.552
346.571
346.601
346.646
346.675
346.666
346.544
346.395
346.496
346.612
346.622
346.594
346.55
346.519
346.499
346.493
346.496
346.515
346.545
346.589
346.618
346.609
346.494
346.351
346.447
346.557
346.566
346.538
346.495
346.465
346.445
346.439
346.442
346.461
346.49
346.533
346.562
346.554
346.446
346.308
346.399
346.503
346.511
346.483
346.441
346.411
346.391
346.385
346.389
346.407
346.436
346.478
346.507
346.5
346.398
346.265
346.352
346.45
346.457
346.429
346.388
346.358
346.339
346.333
346.336
346.354
346.383
346.424
346.453
346.447
346.351
346.223
346.306
346.398
346.404
346.376
346.335
346.307
346.287
346.282
346.285
346.303
346.33
346.371
346.4
346.395
346.304
346.181
346.26
346.346
346.351
346.324
346.284
346.255
346.236
346.231
346.234
346.251
346.279
346.319
346.347
346.344
346.258
346.14
346.214
346.296
346.3
346.272
346.233
346.205
346.186
346.181
346.184
346.201
346.228
346.268
346.296
346.293
346.213
346.098
346.169
346.246
346.249
346.222
346.183
346.155
346.137
346.131
346.135
346.152
346.178
346.217
346.245
346.243
346.168
346.057
346.124
346.197
346.199
346.171
346.133
346.106
346.088
346.083
346.086
346.102
346.128
346.167
346.195
346.194
346.123
346.016
346.08
346.148
346.149
346.122
346.084
346.058
346.039
346.034
346.037
346.054
346.08
346.117
346.145
346.145
346.079
345.975
346.036
346.1
346.1
346.073
346.036
346.01
345.992
345.987
345.99
346.006
346.031
346.069
346.096
346.097
346.035
345.933
345.992
346.052
346.051
346.024
345.988
345.962
345.944
345.939
345.942
345.958
345.983
346.02
346.048
346.05
345.991
345.892
345.948
346.005
346.003
345.976
345.94
345.915
345.897
345.892
345.895
345.911
345.936
345.972
345.999
346.002
345.947
345.851
345.904
345.958
345.955
345.929
345.893
345.868
345.851
345.846
345.849
345.865
345.889
345.925
345.952
345.955
345.903
345.809
345.861
345.911
345.908
345.881
345.846
345.821
345.804
345.799
345.802
345.818
345.842
345.877
345.904
345.909
345.86
345.768
345.817
345.864
345.861
345.834
345.799
345.775
345.758
345.753
345.756
345.772
345.795
345.83
345.857
345.862
345.816
345.726
345.773
345.818
345.814
345.788
345.753
345.729
345.712
345.707
345.71
345.726
345.749
345.784
345.811
345.816
345.772
345.684
345.73
345.772
345.767
345.741
345.706
345.683
345.666
345.661
345.664
345.68
345.703
345.737
345.764
345.77
345.729
345.641
345.686
345.726
345.72
345.695
345.66
345.637
345.62
345.615
345.618
345.634
345.656
345.691
345.717
345.724
345.685
345.598
345.642
345.68
345.674
345.648
345.614
345.591
345.574
345.57
345.572
345.588
345.61
345.645
345.671
345.678
345.641
345.553
345.597
345.634
345.627
345.602
345.568
345.545
345.528
345.524
345.526
345.542
345.564
345.598
345.624
345.632
345.596
345.508
345.552
345.587
345.581
345.555
345.522
345.499
345.482
345.478
345.48
345.496
345.518
345.552
345.578
345.585
345.551
345.462
345.506
345.541
345.534
345.509
345.475
345.453
345.436
345.432
345.434
345.45
345.472
345.505
345.531
345.539
345.506
345.415
345.46
345.494
345.487
345.462
345.429
345.406
345.389
345.385
345.388
345.403
345.425
345.459
345.484
345.492
345.459
345.368
345.413
345.447
345.44
345.415
345.381
345.359
345.342
345.338
345.34
345.356
345.378
345.411
345.437
345.445
345.412
345.32
345.365
345.399
345.391
345.367
345.333
345.311
345.294
345.29
345.292
345.308
345.33
345.363
345.389
345.397
345.365
345.272
345.317
345.35
345.342
345.318
345.285
345.262
345.245
345.241
345.244
345.26
345.281
345.314
345.34
345.348
345.316
345.223
345.268
345.3
345.292
345.268
345.235
345.213
345.196
345.192
345.194
345.21
345.232
345.265
345.29
345.298
345.267
345.172
345.218
345.249
345.241
345.217
345.184
345.162
345.145
345.141
345.144
345.16
345.181
345.214
345.239
345.248
345.217
345.121
345.166
345.197
345.189
345.165
345.132
345.111
345.094
345.09
345.092
345.108
345.129
345.162
345.186
345.195
345.166
345.068
345.114
345.144
345.135
345.111
345.079
345.058
345.041
345.037
345.039
345.055
345.076
345.108
345.133
345.142
345.113
345.014
345.059
345.089
345.08
345.057
345.024
345.003
344.986
344.982
344.985
345.001
345.021
345.054
345.078
345.087
345.059
344.958
345.003
345.032
345.024
345
344.968
344.947
344.93
344.926
344.929
344.945
344.965
344.997
345.021
345.031
345.003
344.899
344.945
344.974
344.965
344.942
344.91
344.89
344.872
344.869
344.871
344.887
344.907
344.939
344.963
344.973
344.945
344.839
344.886
344.914
344.905
344.882
344.851
344.83
344.813
344.809
344.811
344.827
344.848
344.879
344.903
344.912
344.885
344.777
344.824
344.851
344.843
344.82
344.789
344.768
344.751
344.747
344.749
344.766
344.786
344.817
344.841
344.85
344.823
344.712
344.76
344.787
344.779
344.756
344.725
344.705
344.687
344.684
344.686
344.702
344.722
344.753
344.777
344.786
344.759
344.645
344.693
344.72
344.712
344.69
344.658
344.638
344.621
344.618
344.619
344.636
344.656
344.687
344.71
344.719
344.693
344.575
344.624
344.651
344.643
344.621
344.59
344.57
344.552
344.549
344.551
344.568
344.587
344.618
344.641
344.65
344.624
344.503
344.553
344.58
344.571
344.549
344.519
344.499
344.481
344.478
344.48
344.497
344.516
344.547
344.57
344.578
344.553
344.428
344.479
344.505
344.497
344.476
344.445
344.426
344.408
344.405
344.406
344.423
344.442
344.473
344.496
344.504
344.479
344.349
344.402
344.428
344.421
344.399
344.369
344.349
344.331
344.328
344.33
344.347
344.366
344.397
344.419
344.427
344.402
344.268
344.322
344.348
344.341
344.32
344.289
344.27
344.252
344.249
344.251
344.268
344.287
344.317
344.339
344.347
344.322
344.184
344.239
344.265
344.258
344.237
344.207
344.188
344.17
344.167
344.168
344.186
344.204
344.235
344.256
344.264
344.239
344.096
344.152
344.179
344.171
344.151
344.121
344.102
344.084
344.081
344.082
344.1
344.118
344.148
344.17
344.178
344.152
344.003
344.062
344.088
344.081
344.061
344.031
344.012
343.994
343.991
343.992
344.01
344.028
344.058
344.079
344.087
344.062
343.907
343.967
343.993
343.987
343.967
343.937
343.919
343.9
343.897
343.898
343.916
343.934
343.964
343.985
343.993
343.967
343.805
343.867
343.894
343.887
343.868
343.838
343.82
343.801
343.799
343.8
343.818
343.836
343.866
343.886
343.893
343.867
343.699
343.762
343.789
343.783
343.763
343.734
343.716
343.697
343.695
343.696
343.714
343.732
343.761
343.781
343.788
343.762
343.585
343.651
343.678
343.672
343.653
343.624
343.607
343.587
343.585
343.586
343.604
343.622
343.651
343.671
343.678
343.651
343.465
343.533
343.56
343.555
343.536
343.508
343.49
343.47
343.468
343.469
343.488
343.505
343.535
343.554
343.56
343.533
343.337
343.407
343.434
343.43
343.412
343.383
343.365
343.346
343.344
343.344
343.363
343.381
343.41
343.428
343.434
343.407
343.198
343.271
343.299
343.295
343.277
343.249
343.231
343.211
343.209
343.21
343.229
343.247
343.275
343.294
343.299
343.271
343.049
343.124
343.152
343.149
343.132
343.103
343.086
343.066
343.064
343.065
343.084
343.101
343.13
343.148
343.152
343.124
342.885
342.963
342.993
342.99
342.973
342.945
342.928
342.908
342.906
342.907
342.926
342.943
342.972
342.989
342.993
342.964
342.706
342.787
342.817
342.815
342.799
342.771
342.755
342.734
342.732
342.733
342.753
342.77
342.798
342.814
342.817
342.788
342.507
342.592
342.623
342.621
342.606
342.579
342.562
342.542
342.54
342.541
342.56
342.577
342.605
342.621
342.623
342.592
342.284
342.372
342.405
342.404
342.39
342.363
342.347
342.326
342.324
342.325
342.345
342.362
342.389
342.404
342.405
342.373
342.03
342.123
342.158
342.158
342.145
342.118
342.102
342.081
342.08
342.08
342.1
342.117
342.144
342.158
342.158
342.124
341.736
341.835
341.871
341.874
341.862
341.836
341.82
341.798
341.797
341.797
341.818
341.834
341.862
341.874
341.872
341.836
341.382
341.489
341.529
341.534
341.524
341.498
341.482
341.46
341.459
341.459
341.481
341.497
341.524
341.534
341.53
341.49
340.94
341.057
341.103
341.11
341.103
341.077
341.062
341.04
341.039
341.039
341.061
341.077
341.103
341.111
341.105
341.059
340.37
340.501
340.553
340.565
340.561
340.536
340.52
340.498
340.497
340.497
340.519
340.535
340.561
340.566
340.556
340.503
339.61
339.759
339.82
339.837
339.838
339.813
339.798
339.775
339.774
339.774
339.798
339.813
339.839
339.839
339.823
339.761
338.571
338.742
338.816
338.839
338.845
338.822
338.808
338.783
338.784
338.783
338.808
338.823
338.848
338.842
338.82
338.745
337.149
337.345
337.431
337.463
337.476
337.453
337.44
337.415
337.416
337.415
337.441
337.455
337.479
337.467
337.436
337.348
335.265
335.482
335.579
335.619
335.638
335.617
335.605
335.58
335.581
335.58
335.606
335.62
335.642
335.624
335.586
335.486
332.945
333.17
333.271
333.315
333.337
333.319
333.308
333.283
333.285
333.284
333.309
333.322
333.342
333.321
333.278
333.175
330.325
330.542
330.639
330.681
330.704
330.688
330.678
330.656
330.657
330.656
330.679
330.691
330.709
330.687
330.645
330.547
327.576
327.77
327.855
327.894
327.914
327.901
327.892
327.873
327.874
327.873
327.893
327.904
327.919
327.899
327.861
327.775
324.813
324.976
325.046
325.079
325.096
325.085
325.077
325.061
325.062
325.062
325.078
325.087
325.099
325.083
325.051
324.98
322.09
322.218
322.272
322.297
322.311
322.303
322.296
322.284
322.285
322.284
322.297
322.304
322.314
322.301
322.276
322.221
319.423
319.515
319.553
319.571
319.58
319.575
319.57
319.561
319.562
319.561
319.571
319.576
319.582
319.573
319.556
319.517
316.814
316.869
316.891
316.902
316.908
316.904
316.902
316.896
316.897
316.897
316.902
316.905
316.909
316.903
316.893
316.87
314.26
314.278
314.286
314.289
314.291
314.29
314.289
314.287
314.288
314.288
314.289
314.29
314.292
314.29
314.286
314.279
347.031
346.863
346.619
346.495
346.446
346.439
346.445
346.453
346.454
346.451
346.441
346.434
346.441
346.489
346.614
346.86
346.979
346.815
346.574
346.45
346.4
346.392
346.397
346.404
346.406
346.402
346.393
346.387
346.394
346.444
346.569
346.812
346.927
346.767
346.53
346.405
346.354
346.345
346.35
346.357
346.358
346.355
346.346
346.34
346.348
346.4
346.525
346.764
346.876
346.719
346.485
346.361
346.309
346.299
346.303
346.31
346.311
346.308
346.299
346.294
346.303
346.356
346.481
346.716
346.825
346.671
346.441
346.317
346.264
346.253
346.257
346.263
346.265
346.261
346.253
346.248
346.259
346.312
346.437
346.668
346.775
346.624
346.398
346.274
346.219
346.208
346.211
346.218
346.219
346.215
346.207
346.203
346.214
346.269
346.393
346.62
346.725
346.576
346.354
346.231
346.176
346.163
346.166
346.172
346.173
346.17
346.162
346.158
346.171
346.226
346.35
346.573
346.675
346.529
346.311
346.188
346.132
346.119
346.121
346.127
346.128
346.125
346.118
346.114
346.127
346.183
346.306
346.526
346.625
346.482
346.267
346.146
346.089
346.075
346.077
346.082
346.083
346.08
346.073
346.07
346.084
346.141
346.263
346.479
346.576
346.435
346.224
346.104
346.046
346.031
346.033
346.038
346.039
346.036
346.029
346.027
346.041
346.099
346.22
346.432
346.527
346.388
346.181
346.062
346.003
345.988
345.989
345.994
345.995
345.992
345.985
345.983
345.999
346.057
346.177
346.385
346.478
346.342
346.139
346.02
345.961
345.945
345.945
345.95
345.951
345.948
345.942
345.94
345.956
346.015
346.134
346.339
346.43
346.295
346.096
345.978
345.919
345.902
345.902
345.907
345.907
345.905
345.899
345.898
345.914
345.973
346.092
346.292
346.382
346.249
346.053
345.936
345.877
345.859
345.859
345.863
345.864
345.861
345.856
345.855
345.872
345.932
346.049
346.246
346.333
346.203
346.011
345.895
345.835
345.817
345.817
345.82
345.821
345.818
345.813
345.813
345.83
345.891
346.007
346.2
346.286
346.157
345.968
345.854
345.793
345.775
345.774
345.777
345.778
345.776
345.771
345.771
345.789
345.849
345.964
346.154
346.238
346.112
345.926
345.812
345.751
345.733
345.731
345.735
345.735
345.733
345.728
345.729
345.747
345.808
345.922
346.109
346.191
346.066
345.883
345.771
345.709
345.69
345.689
345.692
345.692
345.69
345.686
345.686
345.705
345.767
345.879
346.063
346.144
346.021
345.841
345.729
345.668
345.648
345.647
345.65
345.65
345.648
345.644
345.645
345.664
345.725
345.837
346.018
346.097
345.976
345.798
345.688
345.626
345.606
345.605
345.607
345.607
345.606
345.602
345.603
345.622
345.684
345.794
345.973
346.05
345.931
345.756
345.646
345.584
345.564
345.562
345.565
345.565
345.563
345.559
345.561
345.58
345.642
345.752
345.928
346.004
345.886
345.713
345.605
345.543
345.522
345.52
345.523
345.523
345.521
345.517
345.519
345.539
345.601
345.709
345.883
345.957
345.841
345.671
345.563
345.501
345.48
345.478
345.48
345.48
345.479
345.475
345.476
345.497
345.559
345.667
345.838
345.911
345.796
345.628
345.521
345.459
345.438
345.436
345.438
345.438
345.436
345.433
345.434
345.455
345.517
345.624
345.793
345.865
345.751
345.585
345.479
345.416
345.395
345.393
345.395
345.395
345.394
345.39
345.392
345.412
345.475
345.581
345.748
345.819
345.706
345.542
345.436
345.373
345.353
345.351
345.353
345.352
345.351
345.348
345.349
345.369
345.432
345.538
345.703
345.773
345.661
345.498
345.393
345.329
345.309
345.307
345.309
345.309
345.308
345.304
345.306
345.326
345.389
345.494
345.658
345.726
345.616
345.453
345.349
345.285
345.265
345.263
345.266
345.265
345.264
345.261
345.262
345.282
345.345
345.45
345.613
345.679
345.57
345.408
345.304
345.241
345.221
345.219
345.221
345.221
345.219
345.216
345.217
345.237
345.301
345.405
345.567
345.632
345.524
345.362
345.259
345.195
345.175
345.174
345.176
345.175
345.174
345.171
345.172
345.192
345.255
345.359
345.521
345.585
345.476
345.316
345.213
345.149
345.129
345.128
345.13
345.129
345.128
345.125
345.126
345.146
345.209
345.312
345.474
345.537
345.428
345.268
345.166
345.102
345.082
345.081
345.083
345.082
345.081
345.078
345.079
345.099
345.163
345.264
345.425
345.488
345.378
345.219
345.118
345.054
345.034
345.033
345.035
345.034
345.033
345.03
345.031
345.051
345.115
345.216
345.375
345.438
345.327
345.169
345.069
345.005
344.985
344.984
344.986
344.985
344.984
344.981
344.982
345.001
345.066
345.166
345.325
345.386
345.275
345.118
345.019
344.954
344.935
344.933
344.935
344.935
344.934
344.931
344.931
344.951
345.015
345.115
345.273
345.333
345.222
345.066
344.967
344.902
344.883
344.882
344.883
344.883
344.882
344.879
344.88
344.899
344.963
345.062
345.219
345.279
345.167
345.012
344.914
344.849
344.829
344.828
344.83
344.83
344.829
344.826
344.826
344.846
344.91
345.008
345.165
345.223
345.111
344.956
344.858
344.794
344.774
344.774
344.775
344.775
344.774
344.771
344.771
344.79
344.855
344.952
345.108
345.165
345.053
344.898
344.802
344.736
344.718
344.717
344.719
344.718
344.717
344.714
344.714
344.733
344.798
344.895
345.05
345.106
344.993
344.839
344.743
344.677
344.659
344.658
344.66
344.659
344.659
344.656
344.656
344.674
344.739
344.835
344.99
345.045
344.931
344.777
344.681
344.616
344.598
344.597
344.599
344.599
344.598
344.595
344.595
344.613
344.678
344.773
344.928
344.981
344.867
344.713
344.618
344.553
344.535
344.535
344.536
344.536
344.535
344.532
344.532
344.55
344.615
344.71
344.864
344.916
344.801
344.647
344.553
344.487
344.469
344.469
344.471
344.47
344.47
344.467
344.466
344.484
344.549
344.643
344.798
344.849
344.732
344.578
344.485
344.419
344.401
344.402
344.404
344.403
344.402
344.399
344.398
344.416
344.481
344.575
344.729
344.78
344.661
344.507
344.414
344.348
344.331
344.332
344.334
344.333
344.333
344.329
344.328
344.345
344.411
344.504
344.658
344.708
344.588
344.433
344.341
344.274
344.258
344.259
344.261
344.26
344.26
344.257
344.255
344.272
344.338
344.43
344.585
344.633
344.512
344.357
344.265
344.198
344.182
344.184
344.186
344.185
344.185
344.182
344.18
344.196
344.262
344.353
344.509
344.556
344.433
344.278
344.187
344.119
344.104
344.106
344.108
344.107
344.107
344.104
344.101
344.117
344.183
344.274
344.43
344.477
344.351
344.195
344.105
344.037
344.022
344.025
344.027
344.026
344.026
344.022
344.02
344.034
344.102
344.192
344.348
344.393
344.265
344.109
344.02
343.952
343.937
343.94
343.943
343.941
343.942
343.938
343.935
343.949
344.016
344.106
344.263
344.307
344.176
344.02
343.931
343.862
343.849
343.852
343.855
343.853
343.853
343.85
343.846
343.86
343.928
344.016
344.174
344.216
344.083
343.926
343.838
343.769
343.756
343.76
343.763
343.761
343.761
343.758
343.753
343.766
343.834
343.923
344.08
344.121
343.986
343.828
343.74
343.671
343.659
343.663
343.666
343.664
343.665
343.661
343.656
343.668
343.737
343.824
343.983
344.021
343.883
343.724
343.637
343.568
343.556
343.561
343.564
343.562
343.563
343.559
343.554
343.565
343.634
343.72
343.88
343.915
343.774
343.614
343.528
343.458
343.448
343.453
343.456
343.454
343.455
343.451
343.445
343.456
343.525
343.611
343.771
343.802
343.658
343.497
343.412
343.342
343.332
343.338
343.341
343.339
343.34
343.336
343.33
343.34
343.409
343.494
343.655
343.681
343.533
343.372
343.288
343.217
343.208
343.214
343.218
343.216
343.217
343.212
343.206
343.215
343.285
343.368
343.53
343.55
343.399
343.236
343.153
343.082
343.074
343.081
343.085
343.083
343.084
343.079
343.072
343.08
343.151
343.233
343.396
343.408
343.253
343.089
343.007
342.936
342.929
342.937
342.941
342.938
342.939
342.934
342.926
342.934
343.005
343.086
343.249
343.251
343.092
342.927
342.847
342.775
342.769
342.778
342.782
342.78
342.781
342.776
342.767
342.773
342.844
342.924
343.089
343.078
342.914
342.748
342.67
342.597
342.592
342.602
342.606
342.604
342.605
342.6
342.59
342.595
342.667
342.745
342.911
342.884
342.715
342.547
342.471
342.398
342.394
342.404
342.409
342.407
342.408
342.402
342.392
342.396
342.468
342.544
342.712
342.662
342.488
342.319
342.244
342.171
342.168
342.18
342.185
342.183
342.184
342.178
342.167
342.169
342.242
342.316
342.485
342.406
342.225
342.052
341.98
341.906
341.905
341.918
341.924
341.921
341.923
341.916
341.903
341.904
341.978
342.049
342.221
342.098
341.907
341.73
341.661
341.585
341.587
341.601
341.609
341.606
341.608
341.6
341.585
341.584
341.659
341.727
341.904
341.712
341.509
341.327
341.26
341.183
341.188
341.205
341.213
341.21
341.212
341.203
341.187
341.183
341.259
341.324
341.506
341.211
340.992
340.802
340.74
340.662
340.67
340.689
340.699
340.696
340.698
340.688
340.669
340.661
340.739
340.799
340.989
340.536
340.296
340.096
340.04
339.959
339.972
339.995
340.007
340.004
340.007
339.994
339.971
339.96
340.039
340.094
340.293
339.598
339.333
339.121
339.072
338.988
339.007
339.035
339.05
339.046
339.049
339.035
339.007
338.99
339.072
339.119
339.33
338.284
337.99
337.764
337.724
337.639
337.663
337.697
337.715
337.711
337.715
337.698
337.664
337.641
337.725
337.763
337.986
336.489
336.171
335.935
335.905
335.818
335.849
335.889
335.909
335.905
335.909
335.889
335.851
335.822
335.907
335.934
336.167
334.2
333.872
333.637
333.615
333.531
333.566
333.608
333.63
333.626
333.631
333.609
333.568
333.535
333.617
333.636
333.868
331.532
331.216
330.996
330.98
330.903
330.938
330.98
331.001
330.998