/*--------------------------------*- C++ -*----------------------------------*\
| =========                 |                                                 |
| \\      /  F ield         | OpenFOAM: The Open Source CFD Toolbox           |
|  \\    /   O peration     | Version:  v1912                                 |
|   \\  /    A nd           | Website:  www.openfoam.com                      |
|    \\/     M anipulation  |                                                 |
\*---------------------------------------------------------------------------*/
FoamFile
{
    version     2.0;
    format      ascii;
    class       volSymmTensorField;
    location    "198.8";
    object      UPrime2Mean;
}
// * * * * * * * * * * * * * * * * * * * * * * * * * * * * * * * * * * * * * //

dimensions      [0 2 -2 0 0 0 0];


internalField   nonuniform List<symmTensor> 
10077
(
(1.60634e-07 2.68134e-09 6.13983e-08 1.09746e-07 -7.44042e-07 9.12876e-06)
(1.06172e-07 1.21072e-08 -4.40755e-07 1.41602e-08 -2.29525e-07 7.88098e-06)
(5.70096e-08 -9.93066e-09 -2.46064e-07 1.53564e-08 1.13373e-07 4.67949e-06)
(2.45257e-08 3.03754e-09 -1.64143e-07 1.47862e-08 -4.32843e-08 2.38803e-06)
(1.92682e-08 1.42252e-08 -4.24808e-08 2.96874e-08 -6.96736e-09 3.70385e-07)
(2.49706e-08 3.75468e-09 -2.28107e-08 2.79767e-08 2.60829e-08 1.72956e-07)
(4.30787e-08 -7.34891e-09 -2.96177e-08 2.31439e-08 5.41728e-08 3.32956e-07)
(1.02706e-07 -2.2833e-08 -2.70181e-08 1.58784e-08 4.96396e-08 4.86937e-07)
(1.22198e-07 6.8516e-09 6.93419e-09 2.85858e-09 -1.26268e-08 8.38434e-07)
(8.20883e-08 2.50357e-08 9.05659e-09 1.48452e-08 -3.15614e-08 9.76216e-07)
(6.54835e-08 2.67156e-08 -9.88594e-09 2.15193e-08 -5.55408e-08 8.38457e-07)
(4.81845e-08 2.34078e-08 -7.85742e-09 2.70903e-08 -6.0989e-08 5.26909e-07)
(3.27185e-08 1.47582e-08 5.91152e-09 2.70579e-08 -6.34797e-08 3.28697e-07)
(3.36578e-08 7.52748e-09 4.66926e-08 3.24447e-08 -3.62801e-08 3.83983e-07)
(5.86079e-08 1.6745e-08 1.20172e-07 3.74992e-08 4.22191e-08 9.37164e-07)
(1.77929e-07 -1.53834e-08 3.75756e-07 2.79904e-08 -1.29145e-07 3.62358e-06)
(1.6067e-07 1.76149e-09 8.20271e-08 1.02741e-07 -6.87931e-07 8.69019e-06)
(1.03285e-07 1.13368e-08 -4.0825e-07 1.3596e-08 -2.1815e-07 7.74071e-06)
(5.59626e-08 -9.34769e-09 -2.33414e-07 1.46721e-08 1.07472e-07 4.80012e-06)
(2.36007e-08 2.84359e-09 -1.57609e-07 1.43956e-08 -4.64965e-08 2.4284e-06)
(1.98778e-08 1.42073e-08 -3.94747e-08 2.97046e-08 -1.93194e-09 3.52294e-07)
(2.60015e-08 4.05839e-09 -1.75769e-08 2.84032e-08 3.51026e-08 2.06297e-07)
(4.44572e-08 -6.71634e-09 -2.39279e-08 2.37706e-08 6.41947e-08 4.15662e-07)
(1.05237e-07 -2.25538e-08 -2.02533e-08 1.66802e-08 5.71901e-08 5.86981e-07)
(1.21916e-07 5.92671e-09 7.05391e-09 2.50164e-09 -1.33988e-08 9.38925e-07)
(8.058e-08 2.42501e-08 8.39583e-09 1.39609e-08 -3.42669e-08 1.06087e-06)
(6.41684e-08 2.6137e-08 -1.11561e-08 2.05726e-08 -5.77516e-08 8.92027e-07)
(4.77196e-08 2.31742e-08 -8.19067e-09 2.61995e-08 -6.15173e-08 5.38089e-07)
(3.34137e-08 1.47504e-08 1.18939e-08 2.63826e-08 -5.89461e-08 3.18928e-07)
(3.53611e-08 7.79167e-09 5.69446e-08 3.1702e-08 -3.04555e-08 4.13109e-07)
(6.12766e-08 1.68182e-08 1.33073e-07 3.61077e-08 4.49004e-08 1.01335e-06)
(1.79827e-07 -1.50073e-08 3.77942e-07 2.68524e-08 -1.20905e-07 3.53817e-06)
(1.60967e-07 9.36631e-10 1.01803e-07 9.61843e-08 -6.34822e-07 8.26492e-06)
(1.00632e-07 1.05646e-08 -3.75362e-07 1.30561e-08 -2.06893e-07 7.59154e-06)
(5.49777e-08 -8.76316e-09 -2.19051e-07 1.40362e-08 1.0166e-07 4.90091e-06)
(2.27365e-08 2.628e-09 -1.50448e-07 1.39683e-08 -4.9328e-08 2.46185e-06)
(2.03282e-08 1.40841e-08 -3.65306e-08 2.96118e-08 2.95316e-09 3.39725e-07)
(2.68771e-08 4.32521e-09 -1.20071e-08 2.87221e-08 4.37842e-08 2.4949e-07)
(4.5737e-08 -6.06966e-09 -1.73924e-08 2.43154e-08 7.38744e-08 5.09255e-07)
(1.0785e-07 -2.21419e-08 -1.2248e-08 1.74664e-08 6.47125e-08 6.9633e-07)
(1.21728e-07 5.05666e-09 7.7358e-09 2.19398e-09 -1.37383e-08 1.04478e-06)
(7.90725e-08 2.34509e-08 7.46908e-09 1.31033e-08 -3.67597e-08 1.1493e-06)
(6.28109e-08 2.55583e-08 -1.30402e-08 1.9638e-08 -5.97296e-08 9.49503e-07)
(4.71666e-08 2.29594e-08 -9.34308e-09 2.52944e-08 -6.20351e-08 5.53558e-07)
(3.4139e-08 1.47255e-08 1.75517e-08 2.56856e-08 -5.47838e-08 3.12434e-07)
(3.711e-08 7.98356e-09 6.70509e-08 3.09356e-08 -2.53583e-08 4.44908e-07)
(6.39436e-08 1.67697e-08 1.45353e-07 3.47739e-08 4.67227e-08 1.08386e-06)
(1.81861e-07 -1.46428e-08 3.79127e-07 2.57357e-08 -1.1285e-07 3.44701e-06)
(1.61523e-07 2.09991e-10 1.20736e-07 9.0055e-08 -5.846e-07 7.85474e-06)
(9.82235e-08 9.80525e-09 -3.42331e-07 1.25388e-08 -1.95836e-07 7.43683e-06)
(5.40762e-08 -8.17558e-09 -2.03192e-07 1.34415e-08 9.60641e-08 4.98415e-06)
(2.19365e-08 2.39466e-09 -1.42687e-07 1.3502e-08 -5.17461e-08 2.48969e-06)
(2.05967e-08 1.38537e-08 -3.37779e-08 2.94101e-08 7.64526e-09 3.32003e-07)
(2.75478e-08 4.55077e-09 -6.32781e-09 2.89318e-08 5.21034e-08 3.01016e-07)
(4.68501e-08 -5.42077e-09 -1.03066e-08 2.47733e-08 8.31728e-08 6.11811e-07)
(1.10447e-07 -2.1607e-08 -3.34999e-09 1.82296e-08 7.2178e-08 8.13176e-07)
(1.21642e-07 4.24733e-09 9.00326e-09 1.93554e-09 -1.36288e-08 1.15546e-06)
(7.75736e-08 2.26393e-08 6.36025e-09 1.22764e-08 -3.90184e-08 1.24133e-06)
(6.1418e-08 2.49755e-08 -1.54271e-08 1.87217e-08 -6.14619e-08 1.01087e-06)
(4.65261e-08 2.275e-08 -1.12264e-08 2.43833e-08 -6.2521e-08 5.73378e-07)
(3.48887e-08 1.46749e-08 2.28708e-08 2.49747e-08 -5.097e-08 3.08557e-07)
(3.88905e-08 8.09923e-09 7.69369e-08 3.01532e-08 -2.09263e-08 4.78163e-07)
(6.65906e-08 1.66063e-08 1.56994e-07 3.34995e-08 4.78331e-08 1.14848e-06)
(1.83993e-07 -1.43012e-08 3.79427e-07 2.46485e-08 -1.05034e-07 3.35214e-06)
(1.62332e-07 -4.21014e-10 1.38822e-07 8.43202e-08 -5.37209e-07 7.46139e-06)
(9.60671e-08 9.06558e-09 -3.09391e-07 1.20443e-08 -1.85041e-07 7.27939e-06)
(5.32792e-08 -7.58661e-09 -1.86061e-07 1.28817e-08 9.07421e-08 5.05187e-06)
(2.12095e-08 2.14575e-09 -1.34372e-07 1.30051e-08 -5.37445e-08 2.51299e-06)
(2.06852e-08 1.35178e-08 -3.12955e-08 2.91085e-08 1.20947e-08 3.28421e-07)
(2.79977e-08 4.72574e-09 -6.95596e-10 2.90407e-08 6.00045e-08 3.59391e-07)
(4.77709e-08 -4.78673e-09 -2.8762e-09 2.51479e-08 9.20193e-08 7.21485e-07)
(1.12989e-07 -2.0971e-08 6.20324e-09 1.89686e-08 7.95196e-08 9.35788e-07)
(1.21673e-07 3.4984e-09 1.08762e-08 1.72923e-09 -1.30835e-08 1.27036e-06)
(7.60946e-08 2.1818e-08 5.15656e-09 1.14842e-08 -4.10347e-08 1.33677e-06)
(6e-08 2.4388e-08 -1.81987e-08 1.78293e-08 -6.29462e-08 1.07608e-06)
(4.58009e-08 2.25376e-08 -1.37375e-08 2.34726e-08 -6.2959e-08 5.97573e-07)
(3.56546e-08 1.45959e-08 2.78426e-08 2.42563e-08 -4.74855e-08 3.06794e-07)
(4.06869e-08 8.14189e-09 8.65417e-08 2.93592e-08 -1.71006e-08 5.11942e-07)
(6.91982e-08 1.63381e-08 1.67988e-07 3.22773e-08 4.83541e-08 1.20724e-06)
(1.86185e-07 -1.3983e-08 3.78961e-07 2.3587e-08 -9.74802e-08 3.25544e-06)
(1.63385e-07 -9.57467e-10 1.56046e-07 7.89585e-08 -4.9259e-07 7.08636e-06)
(9.41684e-08 8.35436e-09 -2.76766e-07 1.15686e-08 -1.74552e-07 7.12145e-06)
(5.26073e-08 -6.99587e-09 -1.67884e-07 1.23497e-08 8.57511e-08 5.1058e-06)
(2.05675e-08 1.88515e-09 -1.25562e-07 1.2479e-08 -5.5307e-08 2.53254e-06)
(2.06071e-08 1.30788e-08 -2.91299e-08 2.87101e-08 1.62861e-08 3.28373e-07)
(2.82297e-08 4.84223e-09 4.77823e-09 2.90507e-08 6.74607e-08 4.23295e-07)
(4.84949e-08 -4.18123e-09 4.74735e-09 2.54374e-08 1.00379e-07 8.36648e-07)
(1.15462e-07 -2.02561e-08 1.62371e-08 1.96765e-08 8.66957e-08 1.06263e-06)
(1.21863e-07 2.82131e-09 1.35344e-08 1.57472e-09 -1.20932e-08 1.38911e-06)
(7.4656e-08 2.09939e-08 4.04112e-09 1.07298e-08 -4.27775e-08 1.43553e-06)
(5.85697e-08 2.37983e-08 -2.11755e-08 1.6967e-08 -6.41455e-08 1.14515e-06)
(4.49934e-08 2.23141e-08 -1.67368e-08 2.25687e-08 -6.33132e-08 6.26222e-07)
(3.64261e-08 1.44853e-08 3.24635e-08 2.3536e-08 -4.43072e-08 3.06782e-07)
(4.24817e-08 8.11518e-09 9.58151e-08 2.85582e-08 -1.3823e-08 5.45563e-07)
(7.17466e-08 1.59766e-08 1.78334e-07 3.11051e-08 4.83909e-08 1.26034e-06)
(1.884e-07 -1.36893e-08 3.77845e-07 2.2553e-08 -9.02163e-08 3.15858e-06)
(1.6467e-07 -1.40215e-09 1.72386e-07 7.39465e-08 -4.50689e-07 6.73081e-06)
(9.25309e-08 7.67851e-09 -2.4467e-07 1.11089e-08 -1.64402e-07 6.9647e-06)
(5.20796e-08 -6.4038e-09 -1.4889e-07 1.18398e-08 8.11239e-08 5.14743e-06)
(2.00245e-08 1.61693e-09 -1.16327e-07 1.19275e-08 -5.64274e-08 2.54894e-06)
(2.03812e-08 1.25439e-08 -2.73135e-08 2.82216e-08 2.02084e-08 3.31364e-07)
(2.82553e-08 4.89618e-09 1.0006e-08 2.89659e-08 7.44502e-08 4.91601e-07)
(4.90272e-08 -3.61343e-09 1.2438e-08 2.56426e-08 1.08224e-07 9.55903e-07)
(1.17863e-07 -1.94809e-08 2.65958e-08 2.0347e-08 9.36621e-08 1.19237e-06)
(1.22272e-07 2.23093e-09 1.727e-08 1.47259e-09 -1.06367e-08 1.51169e-06)
(7.32837e-08 2.01724e-08 3.25396e-09 1.00152e-08 -4.42149e-08 1.53781e-06)
(5.71421e-08 2.32095e-08 -2.41426e-08 1.61392e-08 -6.50036e-08 1.21838e-06)
(4.41062e-08 2.2073e-08 -2.0073e-08 2.16763e-08 -6.3536e-08 6.59573e-07)
(3.71907e-08 1.43419e-08 3.67335e-08 2.28189e-08 -4.14164e-08 3.08287e-07)
(4.42557e-08 8.02498e-09 1.04718e-07 2.77539e-08 -1.10417e-08 5.78566e-07)
(7.42162e-08 1.5534e-08 1.88041e-07 2.99797e-08 4.80298e-08 1.30811e-06)
(1.906e-07 -1.34199e-08 3.76196e-07 2.1547e-08 -8.32643e-08 3.063e-06)
(1.66172e-07 -1.75891e-09 1.87812e-07 6.92615e-08 -4.11449e-07 6.39555e-06)
(9.11553e-08 7.04375e-09 -2.13313e-07 1.06622e-08 -1.54613e-07 6.81037e-06)
(5.17125e-08 -5.81104e-09 -1.29317e-07 1.13471e-08 7.68781e-08 5.17804e-06)
(1.95951e-08 1.3456e-09 -1.0675e-07 1.13549e-08 -5.71039e-08 2.56261e-06)
(2.00298e-08 1.19227e-08 -2.58704e-08 2.76509e-08 2.38574e-08 3.36989e-07)
(2.80925e-08 4.88678e-09 1.4915e-08 2.87906e-08 8.09606e-08 5.63356e-07)
(4.93804e-08 -3.08892e-09 2.00847e-08 2.57645e-08 1.15538e-07 1.0781e-06)
(1.20197e-07 -1.86611e-08 3.71255e-08 2.0974e-08 1.00378e-07 1.32384e-06)
(1.22933e-07 1.73295e-09 2.19016e-08 1.42238e-09 -8.72374e-09 1.63754e-06)
(7.20022e-08 1.93597e-08 2.75293e-09 9.34107e-09 -4.53415e-08 1.64339e-06)
(5.57391e-08 2.26249e-08 -2.70708e-08 1.53491e-08 -6.55294e-08 1.29559e-06)
(4.31471e-08 2.18084e-08 -2.36729e-08 2.07991e-08 -6.35947e-08 6.97548e-07)
(3.79345e-08 1.41664e-08 4.06538e-08 2.21087e-08 -3.87965e-08 3.11162e-07)
(4.59883e-08 7.87893e-09 1.13218e-07 2.69489e-08 -8.70872e-09 6.10658e-07)
(7.65864e-08 1.50238e-08 1.97121e-07 2.88975e-08 4.73439e-08 1.35095e-06)
(1.92747e-07 -1.31723e-08 3.74128e-07 2.0569e-08 -7.66391e-08 2.96987e-06)
(1.67868e-07 -2.03228e-09 2.02286e-07 6.48819e-08 -3.74803e-07 6.08095e-06)
(9.0039e-08 6.45493e-09 -1.82901e-07 1.0226e-08 -1.45197e-07 6.65927e-06)
(5.15192e-08 -5.2185e-09 -1.09403e-07 1.08679e-08 7.30208e-08 5.19874e-06)
(1.92935e-08 1.07585e-09 -9.69278e-08 1.07658e-08 -5.73402e-08 2.57381e-06)
(1.95774e-08 1.12259e-08 -2.48146e-08 2.70062e-08 2.72356e-08 3.44908e-07)
(2.77635e-08 4.81437e-09 1.94508e-08 2.85299e-08 8.6988e-08 6.3776e-07)
(4.95718e-08 -2.61234e-09 2.75957e-08 2.58052e-08 1.22318e-07 1.20229e-06)
(1.22477e-07 -1.7811e-08 4.76887e-08 2.15513e-08 1.06808e-07 1.45607e-06)
(1.23849e-07 1.32384e-09 2.67948e-08 1.42009e-09 -6.42726e-09 1.76465e-06)
(7.08378e-08 1.8564e-08 2.26163e-09 8.70851e-09 -4.61612e-08 1.7508e-06)
(5.43889e-08 2.20478e-08 -3.0073e-08 1.45977e-08 -6.57986e-08 1.37539e-06)
(4.21318e-08 2.15185e-08 -2.74851e-08 1.994e-08 -6.34789e-08 7.39126e-07)
(3.86424e-08 1.39603e-08 4.42276e-08 2.14082e-08 -3.64329e-08 3.15305e-07)
(4.76581e-08 7.68616e-09 1.21287e-07 2.61446e-08 -6.77747e-09 6.41643e-07)
(7.88364e-08 1.44602e-08 2.05587e-07 2.78547e-08 4.6398e-08 1.38928e-06)
(1.94807e-07 -1.29424e-08 3.71745e-07 1.96186e-08 -7.03464e-08 2.88011e-06)
(1.69733e-07 -2.22755e-09 2.15761e-07 6.07867e-08 -3.40673e-07 5.78702e-06)
(8.91752e-08 5.91594e-09 -1.5363e-07 9.79803e-09 -1.36153e-07 6.51194e-06)
(5.15075e-08 -4.62736e-09 -8.9393e-08 1.03997e-08 6.95528e-08 5.21045e-06)
(1.91319e-08 8.12392e-10 -8.6966e-08 1.01651e-08 -5.71455e-08 2.58264e-06)
(1.90483e-08 1.04648e-08 -2.41465e-08 2.62957e-08 3.03515e-08 3.5484e-07)
(2.72917e-08 4.68109e-09 2.35812e-08 2.81892e-08 9.25354e-08 7.14157e-07)
(4.96208e-08 -2.1863e-09 3.49065e-08 2.57671e-08 1.28563e-07 1.32773e-06)
(1.24719e-07 -1.69432e-08 5.81856e-08 2.20734e-08 1.12926e-07 1.58826e-06)
(1.25022e-07 9.88954e-10 3.152e-08 1.45953e-09 -3.85784e-09 1.8907e-06)
(6.98134e-08 1.7785e-08 1.64664e-09 8.11647e-09 -4.66799e-08 1.85817e-06)
(5.31159e-08 2.1475e-08 -3.31562e-08 1.38812e-08 -6.58719e-08 1.45594e-06)
(4.10769e-08 2.12002e-08 -3.1397e-08 1.91e-08 -6.31907e-08 7.82959e-07)
(3.92996e-08 1.37262e-08 4.74594e-08 2.0719e-08 -3.43095e-08 3.20604e-07)
(4.92441e-08 7.45658e-09 1.28895e-07 2.53419e-08 -5.19988e-09 6.71355e-07)
(8.09466e-08 1.3858e-08 2.13445e-07 2.68474e-08 4.52524e-08 1.42346e-06)
(1.96744e-07 -1.27249e-08 3.69123e-07 1.86956e-08 -6.43826e-08 2.79435e-06)
(1.71735e-07 -2.35034e-09 2.2818e-07 5.69563e-08 -3.08969e-07 5.51338e-06)
(8.85518e-08 5.42982e-09 -1.25691e-07 9.37659e-09 -1.27476e-07 6.36866e-06)
(5.16795e-08 -4.03907e-09 -6.9532e-08 9.94047e-09 6.64688e-08 5.2139e-06)
(1.912e-08 5.59684e-10 -7.69805e-08 9.55813e-09 -5.65339e-08 2.5891e-06)
(1.84652e-08 9.65097e-09 -2.38533e-08 2.55282e-08 3.32193e-08 3.6657e-07)
(2.67003e-08 4.49052e-09 2.72961e-08 2.77741e-08 9.76123e-08 7.92029e-07)
(4.95467e-08 -1.8118e-09 4.19797e-08 2.56535e-08 1.3428e-07 1.45381e-06)
(1.26939e-07 -1.60677e-08 6.85596e-08 2.25356e-08 1.18713e-07 1.71983e-06)
(1.2646e-07 7.14403e-10 3.5996e-08 1.53378e-09 -1.11314e-09 2.01421e-06)
(6.89457e-08 1.70198e-08 9.4594e-10 7.56298e-09 -4.69105e-08 1.96401e-06)
(5.19382e-08 2.09033e-08 -3.62296e-08 1.31954e-08 -6.57698e-08 1.53592e-06)
(3.99962e-08 2.08516e-08 -3.52872e-08 1.82791e-08 -6.27343e-08 8.28033e-07)
(3.98915e-08 1.34675e-08 5.03543e-08 2.00418e-08 -3.24059e-08 3.26913e-07)
(5.07268e-08 7.20004e-09 1.3601e-07 2.45411e-08 -3.92525e-09 6.99636e-07)
(8.28993e-08 1.32312e-08 2.20695e-07 2.58718e-08 4.39633e-08 1.4538e-06)
(1.98531e-07 -1.25143e-08 3.66315e-07 1.77996e-08 -5.87366e-08 2.71291e-06)
(1.73841e-07 -2.40681e-09 2.39483e-07 5.33717e-08 -2.79588e-07 5.25939e-06)
(8.81514e-08 4.99847e-09 -9.92574e-08 8.9604e-09 -1.19154e-07 6.22949e-06)
(5.20306e-08 -3.45538e-09 -5.00614e-08 9.48923e-09 6.37564e-08 5.2097e-06)
(1.92635e-08 3.21663e-10 -6.70935e-08 8.94994e-09 -5.5524e-08 2.59313e-06)
(1.78495e-08 8.79533e-09 -2.39168e-08 2.47121e-08 3.58555e-08 3.79934e-07)
(2.6012e-08 4.24671e-09 3.06019e-08 2.72909e-08 1.02234e-07 8.70998e-07)
(4.9368e-08 -1.4894e-09 4.88021e-08 2.54678e-08 1.39482e-07 1.58006e-06)
(1.29152e-07 -1.51939e-08 7.87865e-08 2.29338e-08 1.24158e-07 1.8503e-06)
(1.28178e-07 4.94872e-10 4.03222e-08 1.63638e-09 1.74691e-09 2.13449e-06)
(6.82469e-08 1.6269e-08 2.59548e-10 7.04635e-09 -4.68696e-08 2.0675e-06)
(5.08691e-08 2.03332e-08 -3.91836e-08 1.2538e-08 -6.54865e-08 1.61459e-06)
(3.89003e-08 2.04735e-08 -3.90644e-08 1.74777e-08 -6.21084e-08 8.73774e-07)
(4.0405e-08 1.31877e-08 5.29172e-08 1.93768e-08 -3.06973e-08 3.34061e-07)
(5.20894e-08 6.92575e-09 1.42599e-07 2.37425e-08 -2.90152e-09 7.26335e-07)
(8.46801e-08 1.25925e-08 2.27325e-07 2.49247e-08 4.25829e-08 1.48054e-06)
(2.00146e-07 -1.23061e-08 3.63349e-07 1.69305e-08 -5.33914e-08 2.63595e-06)
(1.76008e-07 -2.40337e-09 2.49612e-07 5.00156e-08 -2.52419e-07 5.02418e-06)
(8.79517e-08 4.62274e-09 -7.44871e-08 8.54867e-09 -1.11171e-07 6.09438e-06)
(5.25498e-08 -2.87847e-09 -3.12113e-08 9.04554e-09 6.13968e-08 5.19833e-06)
(1.9564e-08 1.01638e-10 -5.74302e-08 8.3457e-09 -5.41401e-08 2.59462e-06)
(1.72233e-08 7.90947e-09 -2.43241e-08 2.3856e-08 3.8275e-08 3.94793e-07)
(2.52485e-08 3.95506e-09 3.35181e-08 2.67457e-08 1.06419e-07 9.50833e-07)
(4.91035e-08 -1.21782e-09 5.53716e-08 2.52137e-08 1.44183e-07 1.70618e-06)
(1.31372e-07 -1.43282e-08 8.88564e-08 2.32644e-08 1.29255e-07 1.97932e-06)
(1.30193e-07 3.31339e-10 4.46402e-08 1.76185e-09 4.69115e-09 2.25135e-06)
(6.77255e-08 1.55346e-08 -3.19359e-10 6.56503e-09 -4.65774e-08 2.1682e-06)
(4.99192e-08 1.97679e-08 -4.19202e-08 1.19083e-08 -6.50084e-08 1.6917e-06)
(3.77974e-08 2.00682e-08 -4.26703e-08 1.66965e-08 -6.13106e-08 9.19884e-07)
(4.0828e-08 1.28905e-08 5.51523e-08 1.8724e-08 -2.9155e-08 3.41877e-07)
(5.33178e-08 6.64201e-09 1.4863e-07 2.29466e-08 -2.07725e-09 7.51312e-07)
(8.62777e-08 1.19533e-08 2.33319e-07 2.40032e-08 4.11586e-08 1.50386e-06)
(2.01575e-07 -1.20963e-08 3.60231e-07 1.60882e-08 -4.83252e-08 2.56343e-06)
(1.78197e-07 -2.34666e-09 2.58517e-07 4.68711e-08 -2.27341e-07 4.80665e-06)
(8.79261e-08 4.30235e-09 -5.15107e-08 8.1411e-09 -1.03512e-07 5.96317e-06)
(5.32208e-08 -2.3109e-09 -1.31926e-08 8.6095e-09 5.93663e-08 5.18023e-06)
(2.00182e-08 -9.79284e-11 -4.81129e-08 7.75031e-09 -5.2412e-08 2.59352e-06)
(1.66096e-08 7.00535e-09 -2.50711e-08 2.29683e-08 4.0489e-08 4.11014e-07)
(2.44318e-08 3.62215e-09 3.606e-08 2.61448e-08 1.1019e-07 1.03139e-06)
(4.87734e-08 -9.93829e-10 6.16788e-08 2.48949e-08 1.48397e-07 1.83189e-06)
(1.33612e-07 -1.34744e-08 9.87651e-08 2.35249e-08 1.33997e-07 2.10664e-06)
(1.32518e-07 2.24301e-10 4.90703e-08 1.90517e-09 7.69488e-09 2.36482e-06)
(6.73884e-08 1.48179e-08 -7.21722e-10 6.1169e-09 -4.60597e-08 2.26598e-06)
(4.90975e-08 1.92089e-08 -4.43762e-08 1.1305e-08 -6.4336e-08 1.76712e-06)
(3.6695e-08 1.96382e-08 -4.60689e-08 1.5936e-08 -6.03439e-08 9.66183e-07)
(4.11509e-08 1.25796e-08 5.70614e-08 1.80834e-08 -2.77488e-08 3.5019e-07)
(5.44008e-08 6.35609e-09 1.54074e-07 2.21541e-08 -1.4038e-09 7.74441e-07)
(8.76836e-08 1.13232e-08 2.38658e-07 2.31053e-08 3.9733e-08 1.52391e-06)
(2.02806e-07 -1.18816e-08 3.56953e-07 1.52729e-08 -4.35142e-08 2.49519e-06)
(1.80363e-07 -2.2434e-09 2.66156e-07 4.39228e-08 -2.04225e-07 4.60565e-06)
(8.8045e-08 4.03581e-09 -3.04284e-08 7.73784e-09 -9.61607e-08 5.83569e-06)
(5.40228e-08 -1.75561e-09 3.80941e-09 8.1816e-09 5.76388e-08 5.15584e-06)
(2.06184e-08 -2.75519e-10 -3.92557e-08 7.16828e-09 -5.03737e-08 2.58978e-06)
(1.60291e-08 6.09494e-09 -2.61558e-08 2.20577e-08 4.25086e-08 4.28464e-07)
(2.35834e-08 3.25594e-09 3.82305e-08 2.54942e-08 1.13562e-07 1.11249e-06)
(4.83974e-08 -8.12404e-10 6.77079e-08 2.45153e-08 1.52138e-07 1.95688e-06)
(1.35883e-07 -1.26338e-08 1.08518e-07 2.37135e-08 1.3838e-07 2.23216e-06)
(1.35159e-07 1.71421e-10 5.36686e-08 2.06101e-09 1.07269e-08 2.4749e-06)
(6.72398e-08 1.41197e-08 -9.11834e-10 5.69969e-09 -4.53441e-08 2.36073e-06)
(4.84111e-08 1.86573e-08 -4.65272e-08 1.07269e-08 -6.34844e-08 1.84065e-06)
(3.56017e-08 1.91861e-08 -4.92371e-08 1.51966e-08 -5.92157e-08 1.01254e-06)
(4.13668e-08 1.22588e-08 5.86428e-08 1.74551e-08 -2.64496e-08 3.58818e-07)
(5.53299e-08 6.07427e-09 1.58903e-07 2.13658e-08 -8.37237e-10 7.9562e-07)
(8.88914e-08 1.07106e-08 2.43324e-07 2.22292e-08 3.83425e-08 1.54085e-06)
(2.03833e-07 -1.16598e-08 3.53495e-07 1.44846e-08 -3.8935e-08 2.43099e-06)
(1.82464e-07 -2.10036e-09 2.72497e-07 4.11562e-08 -1.82944e-07 4.41995e-06)
(8.8277e-08 3.82063e-09 -1.13079e-08 7.33936e-09 -8.91035e-08 5.71173e-06)
(5.49313e-08 -1.21586e-09 1.96402e-08 7.76261e-09 5.61861e-08 5.12565e-06)
(2.13528e-08 -4.30589e-10 -3.09609e-08 6.60377e-09 -4.80648e-08 2.58343e-06)
(1.54966e-08 5.18702e-09 -2.75559e-08 2.11311e-08 4.4351e-08 4.47044e-07)
(2.27216e-08 2.86242e-09 4.00424e-08 2.47995e-08 1.1655e-07 1.19396e-06)
(4.79906e-08 -6.70815e-10 7.3462e-08 2.40784e-08 1.55419e-07 2.08085e-06)
(1.38191e-07 -1.18104e-08 1.18148e-07 2.3828e-08 1.42402e-07 2.35588e-06)
(1.38109e-07 1.69399e-10 5.84468e-08 2.22423e-09 1.37524e-08 2.58158e-06)
(6.72814e-08 1.3441e-08 -8.78054e-10 5.31125e-09 -4.44576e-08 2.45242e-06)
(4.78673e-08 1.81138e-08 -4.83599e-08 1.01727e-08 -6.24714e-08 1.91222e-06)
(3.45267e-08 1.87154e-08 -5.21611e-08 1.44786e-08 -5.79371e-08 1.05887e-06)
(4.14714e-08 1.1932e-08 5.98938e-08 1.68392e-08 -2.52319e-08 3.6759e-07)
(5.60996e-08 5.80187e-09 1.63098e-07 2.05829e-08 -3.39977e-10 8.14773e-07)
(8.9897e-08 1.01222e-08 2.47304e-07 2.13734e-08 3.70165e-08 1.5548e-06)
(2.04652e-07 -1.14286e-08 3.49831e-07 1.37236e-08 -3.45656e-08 2.37055e-06)
(1.84456e-07 -1.92425e-09 2.77525e-07 3.85581e-08 -1.63369e-07 4.24833e-06)
(8.859e-08 3.65329e-09 5.81686e-09 6.94642e-09 -8.23291e-08 5.59117e-06)
(5.59202e-08 -6.9505e-10 3.41797e-08 7.35342e-09 5.49782e-08 5.0902e-06)
(2.22063e-08 -5.635e-10 -2.33163e-08 6.06037e-09 -4.55271e-08 2.57453e-06)
(1.50223e-08 4.28947e-09 -2.92419e-08 2.01959e-08 4.60382e-08 4.667e-07)
(2.18616e-08 2.44829e-09 4.15145e-08 2.40657e-08 1.19165e-07 1.27559e-06)
(4.75653e-08 -5.64959e-10 7.89551e-08 2.35884e-08 1.58256e-07 2.20357e-06)
(1.40537e-07 -1.10053e-08 1.27694e-07 2.38673e-08 1.46067e-07 2.47782e-06)
(1.41361e-07 2.15606e-10 6.34198e-08 2.39023e-09 1.67402e-08 2.68497e-06)
(6.75143e-08 1.27839e-08 -6.10268e-10 4.94977e-09 -4.34246e-08 2.54113e-06)
(4.74727e-08 1.75798e-08 -4.98658e-08 9.64145e-09 -6.13151e-08 1.98186e-06)
(3.348e-08 1.82299e-08 -5.48359e-08 1.37826e-08 -5.6522e-08 1.10517e-06)
(4.14631e-08 1.16029e-08 6.0813e-08 1.62362e-08 -2.40748e-08 3.76364e-07)
(5.67079e-08 5.54344e-09 1.66635e-07 1.98065e-08 1.1361e-10 8.31841e-07)
(9.06983e-08 9.56326e-09 2.50589e-07 2.05372e-08 3.57768e-08 1.56593e-06)
(2.05264e-07 -1.11862e-08 3.4592e-07 1.299e-08 -3.03914e-08 2.31354e-06)
(1.863e-07 -1.7215e-09 2.81238e-07 3.61163e-08 -1.45375e-07 4.08962e-06)
(8.89527e-08 3.52949e-09 2.09432e-08 6.56e-09 -7.58291e-08 5.47388e-06)
(5.69627e-08 -1.96673e-10 4.73428e-08 6.95492e-09 5.39844e-08 5.05009e-06)
(2.31615e-08 -6.7547e-10 -1.63923e-08 5.54115e-09 -4.28049e-08 2.5632e-06)
(1.46159e-08 3.40942e-09 -3.11957e-08 1.92585e-08 4.75931e-08 4.87416e-07)
(2.1017e-08 2.02028e-09 4.26658e-08 2.32981e-08 1.21422e-07 1.35718e-06)
(4.71333e-08 -4.9053e-10 8.41922e-08 2.30488e-08 1.60676e-07 2.32498e-06)
(1.42919e-07 -1.02183e-08 1.37186e-07 2.38311e-08 1.49382e-07 2.59802e-06)
(1.44906e-07 3.07164e-10 6.86142e-08 2.55465e-09 1.96643e-08 2.78529e-06)
(6.794e-08 1.21495e-08 -9.01865e-11 4.6135e-09 -4.22698e-08 2.62705e-06)
(4.72335e-08 1.70563e-08 -5.10348e-08 9.13227e-09 -6.00333e-08 2.04971e-06)
(3.24719e-08 1.77333e-08 -5.72625e-08 1.31088e-08 -5.49878e-08 1.15154e-06)
(4.13423e-08 1.1275e-08 6.1403e-08 1.56464e-08 -2.29637e-08 3.85039e-07)
(5.71559e-08 5.3027e-09 1.69493e-07 1.90379e-08 5.38092e-10 8.46789e-07)
(9.12971e-08 9.03844e-09 2.53159e-07 1.97201e-08 3.46326e-08 1.5744e-06)
(2.05678e-07 -1.09302e-08 3.4169e-07 1.22839e-08 -2.64099e-08 2.25959e-06)
(1.87958e-07 -1.49835e-09 2.83651e-07 3.38195e-08 -1.28839e-07 3.94268e-06)
(8.93362e-08 3.4441e-09 3.40969e-08 6.18121e-09 -6.95983e-08 5.35981e-06)
(5.8033e-08 2.75791e-10 5.90791e-08 6.5679e-09 5.31723e-08 5.00597e-06)
(2.42002e-08 -7.68506e-10 -1.02401e-08 5.04849e-09 -3.99417e-08 2.54957e-06)
(1.42857e-08 2.55294e-09 -3.34088e-08 1.83246e-08 4.90386e-08 5.09192e-07)
(2.01992e-08 1.58437e-09 4.35144e-08 2.25018e-08 1.2334e-07 1.43859e-06)
(4.67057e-08 -4.43266e-10 8.917e-08 2.24633e-08 1.62718e-07 2.44519e-06)
(1.4534e-07 -9.44965e-09 1.46624e-07 2.37195e-08 1.52359e-07 2.71658e-06)
(1.48734e-07 4.41424e-10 7.40697e-08 2.71347e-09 2.25044e-08 2.88287e-06)
(6.85592e-08 1.15392e-08 7.06937e-10 4.30086e-09 -4.10183e-08 2.71055e-06)
(4.71557e-08 1.65444e-08 -5.18481e-08 8.64442e-09 -5.86411e-08 2.11605e-06)
(3.15127e-08 1.72295e-08 -5.94448e-08 1.24578e-08 -5.33535e-08 1.19814e-06)
(4.1112e-08 1.09515e-08 6.16716e-08 1.50699e-08 -2.1888e-08 3.93569e-07)
(5.74469e-08 5.08236e-09 1.71666e-07 1.82786e-08 9.44494e-10 8.59624e-07)
(9.16986e-08 8.55064e-09 2.54989e-07 1.89219e-08 3.35805e-08 1.58035e-06)
(2.05903e-07 -1.06585e-08 3.37075e-07 1.16055e-08 -2.26231e-08 2.20832e-06)
(1.894e-07 -1.25889e-09 2.84787e-07 3.16578e-08 -1.13643e-07 3.8064e-06)
(8.97143e-08 3.39213e-09 4.53275e-08 5.81107e-09 -6.36317e-08 5.24886e-06)
(5.9107e-08 7.19759e-10 6.93694e-08 6.19308e-09 5.25139e-08 4.95851e-06)
(2.53053e-08 -8.45134e-10 -4.89505e-09 4.58397e-09 -3.6975e-08 2.5337e-06)
(1.40376e-08 1.72457e-09 -3.58756e-08 1.73991e-08 5.03923e-08 5.31997e-07)
(1.94178e-08 1.14542e-09 4.40777e-08 2.16812e-08 1.2495e-07 1.51982e-06)
(4.62913e-08 -4.19643e-10 9.38898e-08 2.18361e-08 1.6441e-07 2.56433e-06)
(1.47802e-07 -8.7002e-09 1.55979e-07 2.35335e-08 1.55023e-07 2.83367e-06)
(1.52832e-07 6.15688e-10 7.98232e-08 2.86303e-09 2.52453e-08 2.97812e-06)
(6.93687e-08 1.09535e-08 1.79745e-09 4.01043e-09 -3.96948e-08 2.79205e-06)
(4.72433e-08 1.60447e-08 -5.22939e-08 8.17729e-09 -5.71542e-08 2.18118e-06)
(3.0612e-08 1.67221e-08 -6.13893e-08 1.183e-08 -5.16374e-08 1.24518e-06)
(4.07775e-08 1.06358e-08 6.16281e-08 1.45066e-08 -2.08326e-08 4.01942e-07)
(5.75865e-08 4.88409e-09 1.73167e-07 1.75307e-08 1.33776e-09 8.704e-07)
(9.19086e-08 8.10172e-09 2.56076e-07 1.81429e-08 3.26134e-08 1.584e-06)
(2.05944e-07 -1.03708e-08 3.32041e-07 1.09549e-08 -1.90289e-08 2.15943e-06)
(1.90611e-07 -1.00294e-09 2.84639e-07 2.96217e-08 -9.96696e-08 3.67946e-06)
(9.00666e-08 3.36989e-09 5.46972e-08 5.45038e-09 -5.79165e-08 5.14075e-06)
(6.01652e-08 1.13458e-09 7.82202e-08 5.83124e-09 5.19876e-08 4.90813e-06)
(2.64628e-08 -9.07787e-10 -3.87139e-10 4.14836e-09 -3.39331e-08 2.51543e-06)
(1.38754e-08 9.27705e-10 -3.85896e-08 1.64868e-08 5.16654e-08 5.55762e-07)
(1.86804e-08 7.07601e-10 4.43738e-08 2.08402e-08 1.26284e-07 1.60095e-06)
(4.58962e-08 -4.16117e-10 9.83586e-08 2.11715e-08 1.65773e-07 2.68244e-06)
(1.50304e-07 -7.97074e-09 1.65233e-07 2.32746e-08 1.57391e-07 2.94947e-06)
(1.57177e-07 8.26232e-10 8.58904e-08 2.99996e-09 2.78714e-08 3.07138e-06)
(7.03599e-08 1.03924e-08 3.18137e-09 3.74071e-09 -3.8324e-08 2.87192e-06)
(4.74955e-08 1.55567e-08 -5.238e-08 7.73007e-09 -5.55944e-08 2.24536e-06)
(2.97777e-08 1.62139e-08 -6.31099e-08 1.12255e-08 -4.98607e-08 1.29284e-06)
(4.03454e-08 1.03322e-08 6.12711e-08 1.39551e-08 -1.97563e-08 4.10055e-07)
(5.75827e-08 4.70955e-09 1.7402e-07 1.67951e-08 1.72536e-09 8.7921e-07)
(9.19346e-08 7.69379e-09 2.56431e-07 1.73825e-08 3.17314e-08 1.58556e-06)
(2.05812e-07 -1.00662e-08 3.26515e-07 1.03317e-08 -1.56122e-08 2.11261e-06)
(1.91598e-07 -7.29626e-10 2.83111e-07 2.77036e-08 -8.68231e-08 3.56012e-06)
(9.03815e-08 3.37257e-09 6.22322e-08 5.09991e-09 -5.2435e-08 5.03436e-06)
(6.11978e-08 1.52056e-09 8.56181e-08 5.48331e-09 5.15668e-08 4.85455e-06)
(2.76603e-08 -9.59096e-10 3.24618e-09 3.74181e-09 -3.08376e-08 2.49436e-06)
(1.3801e-08 1.64917e-10 -4.15433e-08 1.55914e-08 5.28654e-08 5.80399e-07)
(1.79926e-08 2.75582e-10 4.44214e-08 1.99835e-08 1.27361e-07 1.68203e-06)
(4.55243e-08 -4.28455e-10 1.02586e-07 2.04743e-08 1.66816e-07 2.79953e-06)
(1.52838e-07 -7.25991e-09 1.74381e-07 2.29459e-08 1.59475e-07 3.06411e-06)
(1.61738e-07 1.0682e-09 9.22603e-08 3.12121e-09 3.03663e-08 3.16296e-06)
(7.15196e-08 9.85486e-09 4.83939e-09 3.49022e-09 -3.69291e-08 2.95048e-06)
(4.79073e-08 1.50792e-08 -5.21318e-08 7.3019e-09 -5.39889e-08 2.30881e-06)
(2.90151e-08 1.57064e-08 -6.46341e-08 1.06437e-08 -4.80513e-08 1.34132e-06)
(3.9823e-08 1.00464e-08 6.05912e-08 1.34125e-08 -1.86076e-08 4.17786e-07)
(5.74442e-08 4.56118e-09 1.74208e-07 1.60712e-08 2.14404e-09 8.86097e-07)
(9.17888e-08 7.32938e-09 2.56017e-07 1.66388e-08 3.09556e-08 1.58503e-06)
(2.05527e-07 -9.74086e-09 3.20352e-07 9.73395e-09 -1.23418e-08 2.06747e-06)
(1.92354e-07 -4.40267e-10 2.80036e-07 2.5901e-08 -7.50416e-08 3.4467e-06)
(9.06435e-08 3.39618e-09 6.79099e-08 4.76018e-09 -4.71651e-08 4.92813e-06)
(6.21969e-08 1.87847e-09 9.14927e-08 5.14996e-09 5.12226e-08 4.79712e-06)
(2.88839e-08 -1.00214e-09 5.95499e-09 3.3642e-09 -2.77104e-08 2.47012e-06)
(1.38157e-08 -5.61918e-10 -4.47303e-08 1.47165e-08 5.39926e-08 6.05777e-07)
(1.73583e-08 -1.46144e-10 4.42363e-08 1.91159e-08 1.28191e-07 1.76304e-06)
(4.51776e-08 -4.5251e-10 1.06578e-07 1.97489e-08 1.67543e-07 2.91559e-06)
(1.55389e-07 -6.5657e-09 1.83424e-07 2.25507e-08 1.61275e-07 3.17772e-06)
(1.66477e-07 1.33672e-09 9.89083e-08 3.22438e-09 3.27148e-08 3.2531e-06)
(7.28316e-08 9.33999e-09 6.74133e-09 3.25758e-09 -3.55312e-08 3.02795e-06)
(4.84708e-08 1.46103e-08 -5.15838e-08 6.89196e-09 -5.2366e-08 2.37172e-06)
(2.83278e-08 1.52009e-08 -6.59954e-08 1.00844e-08 -4.62358e-08 1.39073e-06)
(3.92201e-08 9.78163e-09 5.95951e-08 1.28776e-08 -1.73742e-08 4.25252e-07)
(5.71796e-08 4.44157e-09 1.73711e-07 1.53579e-08 2.63355e-09 8.91156e-07)
(9.14821e-08 7.00978e-09 2.54788e-07 1.59098e-08 3.03063e-08 1.58237e-06)
(2.05102e-07 -9.39393e-09 3.13475e-07 9.16009e-09 -9.19699e-09 2.02378e-06)
(1.92848e-07 -1.39247e-10 2.75328e-07 2.42118e-08 -6.42866e-08 3.33841e-06)
(9.08264e-08 3.43626e-09 7.17531e-08 4.432e-09 -4.20995e-08 4.82138e-06)
(6.31441e-08 2.20836e-09 9.58097e-08 4.83135e-09 5.09277e-08 4.73575e-06)
(3.01176e-08 -1.03994e-09 7.71066e-09 3.01522e-09 -2.45783e-08 2.4428e-06)
(1.39198e-08 -1.25119e-09 -4.81477e-08 1.38654e-08 5.5038e-08 6.31683e-07)
(1.67785e-08 -5.53221e-10 4.38286e-08 1.82416e-08 1.28773e-07 1.84387e-06)
(4.48547e-08 -4.8431e-10 1.10335e-07 1.9e-08 1.67949e-07 3.03058e-06)
(1.57939e-07 -5.88571e-09 1.92357e-07 2.20934e-08 1.62785e-07 3.29038e-06)
(1.71356e-07 1.62721e-09 1.05811e-07 3.30779e-09 3.49044e-08 3.34207e-06)
(7.42785e-08 8.84699e-09 8.85416e-09 3.0416e-09 -3.41489e-08 3.1046e-06)
(4.91764e-08 1.41489e-08 -5.07722e-08 6.49978e-09 -5.0749e-08 2.43422e-06)
(2.77185e-08 1.46985e-08 -6.72222e-08 9.54725e-09 -4.44346e-08 1.44107e-06)
(3.85492e-08 9.53856e-09 5.83186e-08 1.23517e-08 -1.6094e-08 4.32812e-07)
(5.67981e-08 4.35101e-09 1.72592e-07 1.46563e-08 3.17394e-09 8.94786e-07)
(9.102e-08 6.7334e-09 2.52831e-07 1.51958e-08 2.97575e-08 1.57795e-06)
(2.04524e-07 -9.0279e-09 3.05999e-07 8.6095e-09 -6.19004e-09 1.98157e-06)
(1.93055e-07 1.70074e-10 2.69202e-07 2.26353e-08 -5.45317e-08 3.23598e-06)
(9.09166e-08 3.49086e-09 7.39718e-08 4.11612e-09 -3.7249e-08 4.71503e-06)
(6.40251e-08 2.51133e-09 9.87149e-08 4.52692e-09 5.06792e-08 4.67166e-06)
(3.13507e-08 -1.07516e-09 8.59846e-09 2.69432e-09 -2.14727e-08 2.4135e-06)
(1.41123e-08 -1.90189e-09 -5.17932e-08 1.30409e-08 5.5985e-08 6.578e-07)
(1.6252e-08 -9.41828e-10 4.31994e-08 1.73651e-08 1.29099e-07 1.92432e-06)