-0.0075 	0 	0 	0
-0.0075 	1.81746e-34 	-1.25493e-36 	-8.4415e-33
-0.00745622 	0.000238868 	-1.64936e-06 	-0.0110947
-0.00745622 	0.000238868 	-1.64936e-06 	-0.0110947
-0.00741165 	0.000497565 	-3.9819e-06 	-0.0222751
-0.00741165 	0.000497565 	-3.9819e-06 	-0.0222751
-0.00736628 	0.000751346 	-6.77289e-06 	-0.033535
-0.00736628 	0.000751346 	-6.77289e-06 	-0.033535
-0.0073201 	0.000983371 	-9.49553e-06 	-0.0447653
-0.0073201 	0.000983371 	-9.49553e-06 	-0.0447653
-0.00727309 	0.00119165 	-1.31945e-05 	-0.0559063
-0.00727309 	0.00119165 	-1.31945e-05 	-0.0559063
-0.00722524 	0.00137722 	-1.74468e-05 	-0.0668718
-0.00722524 	0.00137722 	-1.74468e-05 	-0.0668718
-0.00717653 	0.00153979 	-2.24251e-05 	-0.0775591
-0.00717653 	0.00153979 	-2.24251e-05 	-0.0775591
-0.00712695 	0.00167902 	-2.81011e-05 	-0.0878726
-0.00712695 	0.00167902 	-2.81011e-05 	-0.0878726
-0.00707647 	0.00179499 	-3.43634e-05 	-0.0977286
-0.00707647 	0.00179499 	-3.43634e-05 	-0.0977286
-0.0070251 	0.0018883 	-4.11144e-05 	-0.107066
-0.0070251 	0.0018883 	-4.11144e-05 	-0.107066
-0.0069728 	0.00196008 	-4.82168e-05 	-0.115856
-0.0069728 	0.00196008 	-4.82168e-05 	-0.115856
-0.00691956 	0.0020119 	-5.55221e-05 	-0.124106
-0.00691956 	0.0020119 	-5.55221e-05 	-0.124106
-0.00686537 	0.00204569 	-6.29971e-05 	-0.131859
-0.00686537 	0.00204569 	-6.29971e-05 	-0.131859
-0.00681021 	0.00206352 	-7.05829e-05 	-0.139161
-0.00681021 	0.00206352 	-7.05829e-05 	-0.139161
-0.00675406 	0.00206726 	-7.82149e-05 	-0.14605
-0.00675406 	0.00206726 	-7.82149e-05 	-0.14605
-0.0066969 	0.00205869 	-8.58443e-05 	-0.152557
-0.0066969 	0.00205869 	-8.58443e-05 	-0.152557
-0.00663871 	0.00203937 	-9.34107e-05 	-0.158706
-0.00663871 	0.00203937 	-9.34107e-05 	-0.158706
-0.00657949 	0.00201073 	-0.000100931 	-0.164523
-0.00657949 	0.00201073 	-0.000100931 	-0.164523
-0.0065192 	0.00197409 	-0.000108424 	-0.170031
-0.0065192 	0.00197409 	-0.000108424 	-0.170031
-0.00645783 	0.00193064 	-0.000115881 	-0.175253
-0.00645783 	0.00193064 	-0.000115881 	-0.175253
-0.00639535 	0.00188149 	-0.000123314 	-0.180207
-0.00639535 	0.00188149 	-0.000123314 	-0.180207
-0.00633176 	0.00182765 	-0.000130748 	-0.184912
-0.00633176 	0.00182765 	-0.000130748 	-0.184912
-0.00626703 	0.00177002 	-0.000138224 	-0.189382
-0.00626703 	0.00177002 	-0.000138224 	-0.189382
-0.00620114 	0.00170942 	-0.000145786 	-0.193632
-0.00620114 	0.00170942 	-0.000145786 	-0.193632
-0.00613406 	0.00164656 	-0.000153464 	-0.197675
-0.00613406 	0.00164656 	-0.000153464 	-0.197675
-0.00606579 	0.00158196 	-0.000161249 	-0.201531
-0.00606579 	0.00158196 	-0.000161249 	-0.201531
-0.00599629 	0.00151604 	-0.000169104 	-0.205219
-0.00599629 	0.00151604 	-0.000169104 	-0.205219
-0.00592554 	0.00144923 	-0.000177017 	-0.208755
-0.00592554 	0.00144923 	-0.000177017 	-0.208755
-0.00585352 	0.00138209 	-0.000185087 	-0.212146
-0.00585352 	0.00138209 	-0.000185087 	-0.212146
-0.00578022 	0.00131542 	-0.000193583 	-0.215385
-0.00578022 	0.00131542 	-0.000193583 	-0.215385
-0.00570559 	0.00125011 	-0.000202757 	-0.218461
-0.00570559 	0.00125011 	-0.000202757 	-0.218461
-0.00562963 	0.00118677 	-0.000212464 	-0.221373
-0.00562963 	0.00118677 	-0.000212464 	-0.221373
-0.00555231 	0.00112553 	-0.000222118 	-0.22414
-0.00555231 	0.00112553 	-0.000222118 	-0.22414
-0.0054736 	0.00106625 	-0.0002318 	-0.226785
-0.0054736 	0.00106625 	-0.0002318 	-0.226785
-0.00539348 	0.00100865 	-0.000242311 	-0.22933
-0.00539348 	0.00100865 	-0.000242311 	-0.22933
-0.00531193 	0.000952253 	-0.000253368 	-0.231802
-0.00531193 	0.000952253 	-0.000253368 	-0.231802
-0.00522891 	0.000896131 	-0.000263824 	-0.234248
-0.00522891 	0.000896131 	-0.000263824 	-0.234248
-0.0051444 	0.000839461 	-0.000273397 	-0.236704
-0.0051444 	0.000839461 	-0.000273397 	-0.236704
-0.00505838 	0.000783706 	-0.000284325 	-0.239112
-0.00505838 	0.000783706 	-0.000284325 	-0.239112
-0.00497081 	0.000732157 	-0.00029863 	-0.241357
-0.00497081 	0.000732157 	-0.00029863 	-0.241357
-0.00488168 	0.000686364 	-0.000314232 	-0.24341
-0.00488168 	0.000686364 	-0.000314232 	-0.24341
-0.00479094 	0.000645266 	-0.000328522 	-0.245337
-0.00479094 	0.000645266 	-0.000328522 	-0.245337
-0.00469858 	0.000607437 	-0.000341629 	-0.247199
-0.00469858 	0.000607437 	-0.000341629 	-0.247199
-0.00460456 	0.000572403 	-0.000355231 	-0.249006
-0.00460456 	0.000572403 	-0.000355231 	-0.249006
-0.00450886 	0.000540035 	-0.000370184 	-0.250749
-0.00450886 	0.000540035 	-0.000370184 	-0.250749
-0.00441144 	0.000510089 	-0.000385728 	-0.252431
-0.00441144 	0.000510089 	-0.000385728 	-0.252431
-0.00431227 	0.000482257 	-0.000401204 	-0.25406
-0.00431227 	0.000482257 	-0.000401204 	-0.25406
-0.00421133 	0.000456133 	-0.000416408 	-0.255643
-0.00421133 	0.000456133 	-0.000416408 	-0.255643
-0.00410857 	0.000431212 	-0.000431764 	-0.257189
-0.00410857 	0.000431212 	-0.000431764 	-0.257189
-0.00400397 	0.000407033 	-0.00044858 	-0.25872
-0.00400397 	0.000407033 	-0.00044858 	-0.25872
-0.0038975 	0.000382712 	-0.00046626 	-0.260289
-0.0038975 	0.000382712 	-0.00046626 	-0.260289
-0.00378912 	0.000355967 	-0.000480986 	-0.261996
-0.00378912 	0.000355967 	-0.000480986 	-0.261996
-0.00367879 	0.000325766 	-0.000492934 	-0.263888
-0.00367879 	0.000325766 	-0.000492934 	-0.263888
-0.00356649 	0.000296024 	-0.000510316 	-0.265722
-0.00356649 	0.000296024 	-0.000510316 	-0.265722
-0.00345217 	0.000269788 	-0.000533665 	-0.267244
-0.00345217 	0.000269788 	-0.000533665 	-0.267244
-0.0033358 	0.000245587 	-0.000554482 	-0.26853
-0.0033358 	0.000245587 	-0.000554482 	-0.26853
-0.00321735 	0.000222433 	-0.000570893 	-0.269724
-0.00321735 	0.000222433 	-0.000570893 	-0.269724
-0.00309677 	0.000200602 	-0.000586411 	-0.270869
-0.00309677 	0.000200602 	-0.000586411 	-0.270869
-0.00297403 	0.000179731 	-0.000602208 	-0.271969
-0.00297403 	0.000179731 	-0.000602208 	-0.271969
-0.00284909 	0.000159194 	-0.000619125 	-0.273052
-0.00284909 	0.000159194 	-0.000619125 	-0.273052
-0.0027219 	0.000137792 	-0.000639419 	-0.274209
-0.0027219 	0.000137792 	-0.000639419 	-0.274209
-0.00259244 	0.000112627 	-0.000659344 	-0.275618
-0.00259244 	0.000112627 	-0.000659344 	-0.275618
-0.00246065 	8.3684e-05 	-0.000677204 	-0.277449
-0.00246065 	8.3684e-05 	-0.000677204 	-0.277449
-0.00232651 	5.64528e-05 	-0.000699325 	-0.279481
-0.00232651 	5.64528e-05 	-0.000699325 	-0.279481
-0.00218995 	3.55643e-05 	-0.000727466 	-0.281213
-0.00218995 	3.55643e-05 	-0.000727466 	-0.281213
-0.00205095 	2.24532e-05 	-0.000757446 	-0.282474
-0.00205095 	2.24532e-05 	-0.000757446 	-0.282474
-0.00190946 	1.7543e-05 	-0.000782404 	-0.283398
-0.00190946 	1.7543e-05 	-0.000782404 	-0.283398
-0.00176543 	2.0178e-05 	-0.000803401 	-0.284135
-0.00176543 	2.0178e-05 	-0.000803401 	-0.284135
-0.00161881 	2.88481e-05 	-0.000828738 	-0.284774
-0.00161881 	2.88481e-05 	-0.000828738 	-0.284774
-0.00146957 	4.23599e-05 	-0.000857283 	-0.285345
-0.00146957 	4.23599e-05 	-0.000857283 	-0.285345
-0.00131765 	6.0845e-05 	-0.000884201 	-0.285845
-0.00131765 	6.0845e-05 	-0.000884201 	-0.285845
-0.001163 	8.48162e-05 	-0.00090942 	-0.286258
-0.001163 	8.48162e-05 	-0.00090942 	-0.286258
-0.00100559 	0.000114074 	-0.000934153 	-0.286575
-0.00100559 	0.000114074 	-0.000934153 	-0.286575
-0.000845345 	0.000148055 	-0.000956336 	-0.286782
-0.000845345 	0.000148055 	-0.000956336 	-0.286782
-0.000682232 	0.00018609 	-0.000977696 	-0.286865
-0.000682232 	0.00018609 	-0.000977696 	-0.286865
-0.000516194 	0.000227329 	-0.00100091 	-0.286807
-0.000516194 	0.000227329 	-0.00100091 	-0.286807
-0.000347178 	0.000270713 	-0.00102274 	-0.286589
-0.000347178 	0.000270713 	-0.00102274 	-0.286589
-0.000175132 	0.000314095 	-0.00104847 	-0.286176
-0.000175132 	0.000314095 	-0.00104847 	-0.286176
0 	0.000355628 	-0.00107342 	-0.285475
0 	0.000355628 	-0.00107342 	-0.285475
0 	0.000355628 	-0.00107342 	-0.285475
0 	0.000355628 	-0.00107342 	-0.285475
0.000175132 	0.000393746 	-0.00109655 	-0.284333
0.000175132 	-0.00501111 	-0.00798684 	-0.280701
0.000347178 	0.000423659 	-0.00112515 	-0.282692
0.000347178 	-0.0049892 	-0.00806896 	-0.278523
0.000516194 	0.000447254 	-0.00114318 	-0.280983
0.000516194 	-0.00497883 	-0.00812341 	-0.275731
0.000682232 	0.000475162 	-0.00115363 	-0.279598
0.000682232 	-0.00496518 	-0.00816134 	-0.272836
0.000845345 	0.000511332 	-0.00117074 	-0.278425
0.000845345 	-0.00493166 	-0.00820643 	-0.270585
0.00100559 	0.000549921 	-0.00118787 	-0.277292
0.00100559 	-0.00488468 	-0.0082389 	-0.269006
0.001163 	0.00058594 	-0.00120082 	-0.276122
0.001163 	-0.00483262 	-0.00824894 	-0.267674
0.00131765 	0.000619591 	-0.00121198 	-0.274913
0.00131765 	-0.00477257 	-0.00824998 	-0.266391
0.00146957 	0.000650964 	-0.00122152 	-0.273661
0.00146957 	-0.00470481 	-0.00824295 	-0.265122
0.00161881 	0.000678726 	-0.0012277 	-0.272359
0.00161881 	-0.00463165 	-0.00822619 	-0.263832
0.00176543 	0.000701128 	-0.00123112 	-0.271011
0.00176543 	-0.00455372 	-0.00820159 	-0.262488
0.00190946 	0.000717797 	-0.00123663 	-0.269608
0.00190946 	-0.00447124 	-0.00816924 	-0.261062
0.00205095 	0.00073254 	-0.00124672 	-0.268081
0.00205095 	-0.00438462 	-0.00812788 	-0.259531
0.00218995 	0.000751483 	-0.00125246 	-0.266325
0.00218995 	-0.00429224 	-0.00807502 	-0.257902
0.00232651 	0.000773619 	-0.00124536 	-0.26437
0.00232651 	-0.00418971 	-0.00800878 	-0.256226
0.00246065 	0.000789372 	-0.00123501 	-0.262393
0.00246065 	-0.00407446 	-0.00793133 	-0.254542
0.00259244 	0.0007925 	-0.00123148 	-0.260495
0.00259244 	-0.00394467 	-0.00784961 	-0.252797
0.0027219 	0.000783927 	-0.00122917 	-0.258686
0.0027219 	-0.00379541 	-0.00776582 	-0.250938
0.00284909 	0.000767778 	-0.00122205 	-0.256956
0.00284909 	-0.00362334 	-0.00767551 	-0.249007
0.00297403 	0.000747937 	-0.00121222 	-0.255252
0.00297403 	-0.00343036 	-0.00757777 	-0.247057
0.00309677 	0.000725319 	-0.00120327 	-0.253525
0.00309677 	-0.00322009 	-0.00747579 	-0.245095
0.00321735 	0.000698924 	-0.00119446 	-0.251758
0.00321735 	-0.00299496 	-0.00737103 	-0.243107
0.0033358 	0.000667914 	-0.00118352 	-0.249953
0.0033358 	-0.00275654 	-0.00726291 	-0.241093
0.00345217 	0.000632649 	-0.00117068 	-0.248106
0.00345217 	-0.00250596 	-0.00715125 	-0.239052
0.00356649 	0.000594328 	-0.00115769 	-0.246197
0.00356649 	-0.00224368 	-0.00703662 	-0.236981
0.00367879 	0.00055332 	-0.00114565 	-0.244201
0.00367879 	-0.00196954 	-0.00691945 	-0.234875
0.00378912 	-0.00168382 	-0.00679994 	-0.232732
0.00378912 	0.000508031 	-0.0011338 	-0.242107
0.0038975 	0.000455735 	-0.00112037 	-0.239946
0.0038975 	-0.00138799 	-0.00667803 	-0.23054
0.00400397 	0.000394691 	-0.00110446 	-0.237762
0.00400397 	-0.00108412 	-0.00655323 	-0.228276
0.00410857 	0.000325536 	-0.00108665 	-0.235586
0.00410857 	-0.000773708 	-0.00642492 	-0.22591
0.00421133 	0.000250499 	-0.0010681 	-0.233413
0.00421133 	-0.000457256 	-0.00629299 	-0.223422
0.00431227 	0.000171476 	-0.00104978 	-0.23122
0.00431227 	-0.000134948 	-0.00615817 	-0.220818
0.00441144 	8.89106e-05 	-0.00103179 	-0.228986
0.00441144 	0.000192545 	-0.00602141 	-0.218127
0.00450886 	2.03991e-06 	-0.00101355 	-0.226703
0.00450886 	0.000523943 	-0.00588285 	-0.215379
0.00460456 	-9.02485e-05 	-0.0009944 	-0.224368
0.00460456 	0.000857675 	-0.00574201 	-0.212591
0.00469858 	-0.000188682 	-0.000974048 	-0.221982
0.00469858 	0.00119231 	-0.00559847 	-0.209757
0.00479094 	-0.000293344 	-0.000952688 	-0.219546
0.00479094 	0.00152698 	-0.00545194 	-0.20686
0.00488168 	-0.000403912 	-0.000930603 	-0.21706
0.00488168 	0.00186139 	-0.00530244 	-0.203884
0.00497081 	-0.000520007 	-0.00090788 	-0.214523
0.00497081 	0.00219543 	-0.00515028 	-0.200823
0.00505838 	-0.000641283 	-0.00088453 	-0.211933
0.00505838 	0.00252883 	-0.00499578 	-0.197681
0.0051444 	-0.000767351 	-0.000860561 	-0.209287
0.0051444 	0.00286102 	-0.00483913 	-0.194463
0.00522891 	-0.000897764 	-0.000835965 	-0.206582
0.00522891 	0.00319122 	-0.00468046 	-0.191179
0.00531193 	0.00351845 	-0.0045199 	-0.18783
0.00531193 	-0.00103203 	-0.000810749 	-0.203814
0.00539348 	-0.00116963 	-0.00078494 	-0.200979
0.00539348 	0.00384157 	-0.00435758 	-0.184418
0.0054736 	-0.00130998 	-0.000758566 	-0.198071
0.0054736 	0.00415931 	-0.00419366 	-0.180943
0.00555231 	-0.00145247 	-0.000731653 	-0.195085
0.00555231 	0.00447033 	-0.00402827 	-0.177402
0.00562963 	-0.00159638 	-0.000704225 	-0.192014
0.00562963 	0.00477322 	-0.00386156 	-0.173792
0.00570559 	-0.00174092 	-0.000676316 	-0.18885
0.00570559 	0.00506649 	-0.00369371 	-0.17011
0.00578022 	-0.00188525 	-0.000647943 	-0.185586
0.00578022 	0.00534859 	-0.00352491 	-0.166354
0.00585352 	-0.00202839 	-0.00061912 	-0.182211
0.00585352 	0.00561787 	-0.00335547 	-0.162517
0.00592554 	-0.00216927 	-0.000589929 	-0.178713
0.00592554 	0.00587257 	-0.00318559 	-0.158593
0.00599629 	-0.00230676 	-0.000560485 	-0.175077
0.00599629 	0.00611095 	-0.00301532 	-0.154566
0.00606579 	0.00633133 	-0.00284481 	-0.150417
0.00606579 	-0.00243968 	-0.000530818 	-0.171286
0.00613406 	-0.0025669 	-0.000500826 	-0.167319
0.00613406 	0.00653171 	-0.00267445 	-0.146133
0.00620114 	-0.00268706 	-0.000470452 	-0.163152
0.00620114 	0.00670943 	-0.00250477 	-0.141708
0.00626703 	-0.00279825 	-0.000439849 	-0.158763
0.00626703 	0.00686141 	-0.00233611 	-0.137137
0.00633176 	-0.00289799 	-0.000409243 	-0.154126
0.00633176 	0.00698434 	-0.00216863 	-0.132414
0.00639535 	-0.00298358 	-0.000378749 	-0.149218
0.00639535 	0.00707476 	-0.00200275 	-0.127527
0.00645783 	-0.00305229 	-0.000348367 	-0.144013
0.00645783 	0.00712899 	-0.00183894 	-0.122463
0.0065192 	-0.00310136 	-0.00031818 	-0.13849
0.0065192 	0.00714313 	-0.00167762 	-0.117204
0.00657949 	-0.00312789 	-0.000288369 	-0.132624
0.00657949 	0.00711311 	-0.00151935 	-0.111724
0.00663871 	-0.00312906 	-0.000259049 	-0.126394
0.00663871 	0.00703493 	-0.00136466 	-0.105993
0.0066969 	-0.00310205 	-0.000230387 	-0.119783
0.0066969 	0.00690474 	-0.00121446 	-0.0999993
0.00675406 	-0.00304418 	-0.000202677 	-0.112781
0.00675406 	0.00671879 	-0.00106978 	-0.0937605
0.00681021 	-0.00295337 	-0.0001762 	-0.105388
0.00681021 	0.00647398 	-0.00093135 	-0.0873295
0.00686537 	-0.00282874 	-0.000151137 	-0.097635
0.00686537 	0.0061689 	-0.000800298 	-0.0807866
0.00691956 	-0.00267118 	-0.000127648 	-0.0895816
0.00691956 	0.00580523 	-0.000677773 	-0.0742233
0.0069728 	-0.0024837 	-0.000105953 	-0.0813201
0.0069728 	0.00538865 	-0.000564723 	-0.0677272
0.0070251 	-0.00227119 	-8.62445e-05 	-0.0729654
0.0070251 	0.0049285 	-0.000462103 	-0.0613649
0.00707647 	-0.00203992 	-6.86504e-05 	-0.0646405
0.00707647 	0.00443639 	-0.00037049 	-0.0551633
0.00712695 	-0.00179668 	-5.32272e-05 	-0.0564552
0.00712695 	0.00392429 	-0.000290015 	-0.0491037
0.00717653 	-0.00154783 	-3.99324e-05 	-0.0484901
0.00717653 	0.00340307 	-0.000220419 	-0.0431358
0.00722524 	-0.00129874 	-2.86591e-05 	-0.04079
0.00722524 	0.00288206 	-0.000161036 	-0.0371995
0.00727309 	-0.0010536 	-1.92851e-05 	-0.0333692
0.00727309 	0.00236957 	-0.000111247 	-0.0312364
0.0073201 	-0.000815637 	-1.18653e-05 	-0.0262214
0.0073201 	0.00187409 	-7.17871e-05 	-0.0251785
0.00736628 	-0.000587505 	-5.78733e-06 	-0.0193123
0.00736628 	0.00140587 	-3.70796e-05 	-0.0189029
0.00741165 	-0.000373775 	-2.27723e-06 	-0.0126166
0.00741165 	0.000957894 	-1.77561e-05 	-0.0123801
0.00745622 	-0.000179223 	-5.3949e-07 	-0.0061817
0.00745622 	0.000495184 	-6.10888e-06 	-0.00593887
0.0075 	0 	0 	0
0.0075 	0 	0 	0
