-0.0075 	0 	0 	0
-0.0075 	9.83034e-35 	2.64518e-36 	-7.32983e-33
-0.00745622 	0.0001292 	3.47656e-06 	-0.0096336
-0.00745622 	0.0001292 	3.47656e-06 	-0.0096336
-0.00741165 	0.000191468 	7.79266e-06 	-0.019189
-0.00741165 	0.000191468 	7.79266e-06 	-0.019189
-0.00736628 	0.000231187 	1.33423e-05 	-0.0288048
-0.00736628 	0.000231187 	1.33423e-05 	-0.0288048
-0.0073201 	0.000282775 	1.97445e-05 	-0.0385354
-0.0073201 	0.000282775 	1.97445e-05 	-0.0385354
-0.00727309 	0.000346597 	2.78888e-05 	-0.048347
-0.00727309 	0.000346597 	2.78888e-05 	-0.048347
-0.00722524 	0.000413817 	3.77517e-05 	-0.0581412
-0.00722524 	0.000413817 	3.77517e-05 	-0.0581412
-0.00717653 	0.000479516 	4.94668e-05 	-0.0678166
-0.00717653 	0.000479516 	4.94668e-05 	-0.0678166
-0.00712695 	0.0005405 	6.30104e-05 	-0.077283
-0.00712695 	0.0005405 	6.30104e-05 	-0.077283
-0.00707647 	0.000594627 	7.82831e-05 	-0.0864623
-0.00707647 	0.000594627 	7.82831e-05 	-0.0864623
-0.0070251 	0.00064073 	9.52331e-05 	-0.0952935
-0.0070251 	0.00064073 	9.52331e-05 	-0.0952935
-0.0069728 	0.000678587 	0.000113668 	-0.103739
-0.0069728 	0.000678587 	0.000113668 	-0.103739
-0.00691956 	0.000708536 	0.000133557 	-0.111792
-0.00691956 	0.000708536 	0.000133557 	-0.111792
-0.00686537 	0.000730977 	0.000154897 	-0.119469
-0.00686537 	0.000730977 	0.000154897 	-0.119469
-0.00681021 	0.000746184 	0.000177582 	-0.12679
-0.00681021 	0.000746184 	0.000177582 	-0.12679
-0.00675406 	0.000754578 	0.000201568 	-0.13377
-0.00675406 	0.000754578 	0.000201568 	-0.13377
-0.0066969 	0.000756976 	0.000226713 	-0.140428
-0.0066969 	0.000756976 	0.000226713 	-0.140428
-0.00663871 	0.000754364 	0.000252933 	-0.146782
-0.00663871 	0.000754364 	0.000252933 	-0.146782
-0.00657949 	0.00074764 	0.000280193 	-0.152847
-0.00657949 	0.00074764 	0.000280193 	-0.152847
-0.0065192 	0.000737507 	0.000308387 	-0.158635
-0.0065192 	0.000737507 	0.000308387 	-0.158635
-0.00645783 	0.000724439 	0.000337403 	-0.164151
-0.00645783 	0.000724439 	0.000337403 	-0.164151
-0.00639535 	0.00070882 	0.000367083 	-0.169401
-0.00639535 	0.00070882 	0.000367083 	-0.169401
-0.00633176 	0.000691148 	0.000397233 	-0.174391
-0.00633176 	0.000691148 	0.000397233 	-0.174391
-0.00626703 	0.000672141 	0.000427741 	-0.179144
-0.00626703 	0.000672141 	0.000427741 	-0.179144
-0.00620114 	0.000652549 	0.000458657 	-0.183697
-0.00620114 	0.000652549 	0.000458657 	-0.183697
-0.00613406 	0.000632736 	0.000490106 	-0.188084
-0.00613406 	0.000632736 	0.000490106 	-0.188084
-0.00606579 	0.00061239 	0.000522085 	-0.192319
-0.00606579 	0.00061239 	0.000522085 	-0.192319
-0.00599629 	0.000590774 	0.00055421 	-0.196378
-0.00599629 	0.000590774 	0.00055421 	-0.196378
-0.00592554 	0.000567502 	0.000585952 	-0.200221
-0.00592554 	0.000567502 	0.000585952 	-0.200221
-0.00585352 	0.000543063 	0.000617305 	-0.203837
-0.00585352 	0.000543063 	0.000617305 	-0.203837
-0.00578022 	0.000518268 	0.000648542 	-0.207256
-0.00578022 	0.000518268 	0.000648542 	-0.207256
-0.00570559 	0.00049353 	0.000679734 	-0.210521
-0.00570559 	0.00049353 	0.000679734 	-0.210521
-0.00562963 	0.000468818 	0.000710688 	-0.213651
-0.00562963 	0.000468818 	0.000710688 	-0.213651
-0.00555231 	0.000443891 	0.000741071 	-0.216642
-0.00555231 	0.000443891 	0.000741071 	-0.216642
-0.0054736 	0.000418712 	0.000770903 	-0.219486
-0.0054736 	0.000418712 	0.000770903 	-0.219486
-0.00539348 	0.000393774 	0.000800309 	-0.222181
-0.00539348 	0.000393774 	0.000800309 	-0.222181
-0.00531193 	0.000369883 	0.000829159 	-0.22473
-0.00531193 	0.000369883 	0.000829159 	-0.22473
-0.00522891 	0.00034753 	0.000857366 	-0.227144
-0.00522891 	0.00034753 	0.000857366 	-0.227144
-0.0051444 	0.000326441 	0.000884977 	-0.229433
-0.0051444 	0.000326441 	0.000884977 	-0.229433
-0.00505838 	0.000305762 	0.000912104 	-0.231609
-0.00505838 	0.000305762 	0.000912104 	-0.231609
-0.00497081 	0.000284625 	0.000938747 	-0.23368
-0.00497081 	0.000284625 	0.000938747 	-0.23368
-0.00488168 	0.000262481 	0.000964709 	-0.235658
-0.00488168 	0.000262481 	0.000964709 	-0.235658
-0.00479094 	0.000239328 	0.000989931 	-0.237562
-0.00479094 	0.000239328 	0.000989931 	-0.237562
-0.00469858 	0.00021616 	0.00101462 	-0.239419
-0.00469858 	0.00021616 	0.00101462 	-0.239419
-0.00460456 	0.000195013 	0.00103904 	-0.241248
-0.00460456 	0.000195013 	0.00103904 	-0.241248
-0.00450886 	0.000177627 	0.00106327 	-0.243037
-0.00450886 	0.000177627 	0.00106327 	-0.243037
-0.00441144 	0.00016385 	0.00108677 	-0.244745
-0.00441144 	0.00016385 	0.00108677 	-0.244745
-0.00431227 	0.000151857 	0.00110879 	-0.246344
-0.00431227 	0.000151857 	0.00110879 	-0.246344
-0.00421133 	0.000139886 	0.00112933 	-0.247838
-0.00421133 	0.000139886 	0.00112933 	-0.247838
-0.00410857 	0.000127693 	0.0011489 	-0.249248
-0.00410857 	0.000127693 	0.0011489 	-0.249248
-0.00400397 	0.000116082 	0.00116787 	-0.250586
-0.00400397 	0.000116082 	0.00116787 	-0.250586
-0.0038975 	0.000105558 	0.00118628 	-0.251853
-0.0038975 	0.000105558 	0.00118628 	-0.251853
-0.00378912 	9.612e-05 	0.00120408 	-0.253048
-0.00378912 	9.612e-05 	0.00120408 	-0.253048
-0.00367879 	8.76273e-05 	0.00122128 	-0.254172
-0.00367879 	8.76273e-05 	0.00122128 	-0.254172
-0.00356649 	7.98553e-05 	0.0012379 	-0.255226
-0.00356649 	7.98553e-05 	0.0012379 	-0.255226
-0.00345217 	7.24513e-05 	0.00125391 	-0.256214
-0.00345217 	7.24513e-05 	0.00125391 	-0.256214
-0.0033358 	6.49058e-05 	0.00126922 	-0.257137
-0.0033358 	6.49058e-05 	0.00126922 	-0.257137
-0.00321735 	5.65202e-05 	0.00128384 	-0.258
-0.00321735 	5.65202e-05 	0.00128384 	-0.258
-0.00309677 	4.63028e-05 	0.00129789 	-0.258807
-0.00309677 	4.63028e-05 	0.00129789 	-0.258807
-0.00297403 	3.28933e-05 	0.00131137 	-0.25956
-0.00297403 	3.28933e-05 	0.00131137 	-0.25956
-0.00284909 	1.49714e-05 	0.00132445 	-0.260263
-0.00284909 	1.49714e-05 	0.00132445 	-0.260263
-0.0027219 	-7.67653e-06 	0.00133795 	-0.260914
-0.0027219 	-7.67653e-06 	0.00133795 	-0.260914
-0.00259244 	-3.33753e-05 	0.00135234 	-0.26151
-0.00259244 	-3.33753e-05 	0.00135234 	-0.26151
-0.00246065 	-5.93121e-05 	0.00136724 	-0.262043
-0.00246065 	-5.93121e-05 	0.00136724 	-0.262043
-0.00232651 	-8.31265e-05 	0.0013819 	-0.262514
-0.00232651 	-8.31265e-05 	0.0013819 	-0.262514
-0.00218995 	-0.000103642 	0.00139535 	-0.262924
-0.00218995 	-0.000103642 	0.00139535 	-0.262924
-0.00205095 	-0.000120441 	0.0014067 	-0.263282
-0.00205095 	-0.000120441 	0.0014067 	-0.263282
-0.00190946 	-0.000133156 	0.00141588 	-0.263598
-0.00190946 	-0.000133156 	0.00141588 	-0.263598
-0.00176543 	-0.000141224 	0.00142266 	-0.263887
-0.00176543 	-0.000141224 	0.00142266 	-0.263887
-0.00161881 	-0.000144148 	0.0014269 	-0.264159
-0.00161881 	-0.000144148 	0.0014269 	-0.264159
-0.00146957 	-0.00014168 	0.0014291 	-0.264423
-0.00146957 	-0.00014168 	0.0014291 	-0.264423
-0.00131765 	-0.000134623 	0.00142792 	-0.264721
-0.00131765 	-0.000134623 	0.00142792 	-0.264721
-0.001163 	-0.000122992 	0.00142284 	-0.265135
-0.001163 	-0.000122992 	0.00142284 	-0.265135
-0.00100559 	-0.000102239 	0.00141487 	-0.265652
-0.00100559 	-0.000102239 	0.00141487 	-0.265652
-0.000845345 	-6.9556e-05 	0.00140047 	-0.266174
-0.000845345 	-6.9556e-05 	0.00140047 	-0.266174
-0.000682232 	-2.87817e-05 	0.00138192 	-0.266661
-0.000682232 	-2.87817e-05 	0.00138192 	-0.266661
-0.000516194 	1.56606e-05 	0.00136274 	-0.267141
-0.000516194 	1.56606e-05 	0.00136274 	-0.267141
-0.000347178 	6.14593e-05 	0.00133867 	-0.267649
-0.000347178 	6.14593e-05 	0.00133867 	-0.267649
-0.000175132 	0.000106479 	0.00131741 	-0.268202
-0.000175132 	0.000106479 	0.00131741 	-0.268202
0 	0.000147722 	0.00129561 	-0.268792
0 	0.000147722 	0.00129561 	-0.268792
0 	0.000147722 	0.00129561 	-0.268792
0 	0.000147722 	0.00129561 	-0.268792
0.000175132 	0.000181943 	0.00126645 	-0.269381
0.000175132 	-0.00410171 	0.00334018 	-0.269076
0.000347178 	0.000207217 	0.00123741 	-0.269935
0.000347178 	-0.00360969 	0.00329736 	-0.269537
0.000516194 	0.00022313 	0.00120289 	-0.270434
0.000516194 	-0.00311747 	0.00325553 	-0.269902
0.000682232 	0.000229601 	0.00116481 	-0.270869
0.000682232 	-0.00262189 	0.00319443 	-0.270165
0.000845345 	0.000226616 	0.00112911 	-0.27123
0.000845345 	-0.00212622 	0.00312778 	-0.270301
0.00100559 	0.000214434 	0.00109317 	-0.271504
0.00100559 	-0.00163526 	0.00305512 	-0.270284
0.001163 	0.000193681 	0.00105742 	-0.271681
0.001163 	-0.00115359 	0.00297723 	-0.270096
0.00131765 	0.000165372 	0.00102213 	-0.271752
0.00131765 	-0.000683439 	0.00289566 	-0.269724
0.00146957 	0.000130891 	0.000987429 	-0.271709
0.00146957 	-0.000224044 	0.00281164 	-0.269158
0.00161881 	9.18824e-05 	0.000953495 	-0.271546
0.00161881 	0.000228437 	0.00272593 	-0.26839
0.00176543 	5.0111e-05 	0.000920485 	-0.271258
0.00176543 	0.000680703 	0.00263892 	-0.267414
0.00190946 	7.33741e-06 	0.000888487 	-0.270839
0.00190946 	0.00114049 	0.00255045 	-0.266229
0.00205095 	-3.47939e-05 	0.000857575 	-0.270286
0.00205095 	0.00161355 	0.00246069 	-0.26484
0.00218995 	-7.4826e-05 	0.000827609 	-0.269598
0.00218995 	0.00210167 	0.00236863 	-0.26325
0.00232651 	-0.00011149 	0.000799125 	-0.268775
0.00232651 	0.00260339 	0.00227809 	-0.26147
0.00246065 	-0.000143655 	0.000774067 	-0.267822
0.00246065 	0.00311698 	0.00220175 	-0.259531
0.00259244 	-0.000170432 	0.000751577 	-0.266754
0.00259244 	0.00364373 	0.00213189 	-0.257538
0.0027219 	-0.000190892 	0.000725701 	-0.265574
0.0027219 	0.0041911 	0.00202696 	-0.255517
0.00284909 	-0.000203329 	0.000696589 	-0.264228
0.00284909 	0.00477366 	0.00189209 	-0.253058
0.00297403 	-0.000207519 	0.000673651 	-0.262643
0.00297403 	0.00539373 	0.00179627 	-0.249626
0.00309677 	-0.000207839 	0.000658397 	-0.260903
0.00309677 	0.00602094 	0.001752 	-0.24574
0.00321735 	-0.000206986 	0.000642745 	-0.259162
0.00321735 	0.00663919 	0.0017066 	-0.242403
0.0033358 	-0.000202999 	0.000621145 	-0.257449
0.0033358 	0.00726696 	0.00162392 	-0.239756
0.00345217 	-0.000195763 	0.000598612 	-0.255716
0.00345217 	0.00790546 	0.00153726 	-0.237459
0.00356649 	-0.000186815 	0.000582089 	-0.253917
0.00356649 	0.00853626 	0.00147664 	-0.23524
0.00367879 	-0.0001769 	0.000568365 	-0.252035
0.00367879 	0.00915074 	0.00139757 	-0.233008
0.00378912 	0.00975979 	0.00128585 	-0.230799
0.00378912 	-0.000166579 	0.000552414 	-0.250089
0.0038975 	-0.000156216 	0.000533327 	-0.248114
0.0038975 	0.0103826 	0.0011981 	-0.228651
0.00400397 	-0.000145841 	0.000513216 	-0.246134
0.00400397 	0.011017 	0.00116537 	-0.226534
0.00410857 	-0.000135441 	0.000494432 	-0.244149
0.00410857 	0.0116356 	0.00114496 	-0.224361
0.00421133 	-0.000125201 	0.000477399 	-0.242144
0.00421133 	0.0122181 	0.00109513 	-0.222086
0.00431227 	-0.000115316 	0.000461578 	-0.240108
0.00431227 	0.0127654 	0.00102307 	-0.219721
0.00441144 	-0.000105838 	0.000446717 	-0.238036
0.00441144 	0.0132871 	0.000959417 	-0.217297
0.00450886 	-9.68322e-05 	0.00043283 	-0.235933
0.00450886 	0.0137871 	0.000917919 	-0.214864
0.00460456 	-8.81039e-05 	0.000418699 	-0.233804
0.00460456 	0.0142651 	0.000879869 	-0.212476
0.00469858 	-7.81706e-05 	0.000402773 	-0.231631
0.00469858 	0.014731 	0.000829323 	-0.210049
0.00479094 	-6.44542e-05 	0.000385246 	-0.229364
0.00479094 	0.0152065 	0.000765223 	-0.207278
0.00488168 	-4.5841e-05 	0.000369623 	-0.226959
0.00488168 	0.0157025 	0.00070887 	-0.203886
0.00497081 	-2.50548e-05 	0.000358273 	-0.224436
0.00497081 	0.0161976 	0.000682024 	-0.200028
0.00505838 	-6.84332e-06 	0.000348083 	-0.221871
0.00505838 	0.0166528 	0.000666089 	-0.196246
0.0051444 	6.93215e-06 	0.000336047 	-0.219309
0.0051444 	0.0170517 	0.000638538 	-0.192888
0.00522891 	1.75987e-05 	0.000321749 	-0.216734
0.00522891 	0.0174025 	0.000595249 	-0.18987
0.00531193 	0.0177152 	0.000549305 	-0.186992
0.00531193 	2.64388e-05 	0.00030695 	-0.21411
0.00539348 	3.4131e-05 	0.000293586 	-0.211413
0.00539348 	0.0179961 	0.000515973 	-0.184137
0.0054736 	4.09945e-05 	0.00028063 	-0.20863
0.0054736 	0.0182486 	0.000488268 	-0.181267
0.00555231 	4.70222e-05 	0.000267241 	-0.205754
0.00555231 	0.0184723 	0.000459856 	-0.178373
0.00562963 	5.21829e-05 	0.000253873 	-0.202777
0.00562963 	0.0186654 	0.000432867 	-0.175449
0.00570559 	5.65211e-05 	0.00024067 	-0.199691
0.00570559 	0.0188252 	0.000407351 	-0.172486
0.00578022 	6.02396e-05 	0.000227555 	-0.196484
0.00578022 	0.0189488 	0.000382809 	-0.169471
0.00585352 	6.35809e-05 	0.000214489 	-0.19314
0.00585352 	0.0190333 	0.000359188 	-0.166393
0.00592554 	6.66531e-05 	0.000201523 	-0.189642
0.00592554 	0.0190757 	0.000336763 	-0.163236
0.00599629 	6.93988e-05 	0.000188748 	-0.185966
0.00599629 	0.0190727 	0.000315134 	-0.159981
0.00606579 	0.0190211 	0.000294 	-0.156601
0.00606579 	7.17003e-05 	0.000176275 	-0.182091
0.00613406 	7.35318e-05 	0.000164085 	-0.177996
0.00613406 	0.0189173 	0.000273701 	-0.153068
0.00620114 	7.49807e-05 	0.000152178 	-0.173661
0.00620114 	0.0187579 	0.000254826 	-0.14935
0.00626703 	7.61391e-05 	0.000140633 	-0.169063
0.00626703 	0.0185393 	0.000237609 	-0.145421
0.00633176 	7.7034e-05 	0.000129504 	-0.164184
0.00633176 	0.0182578 	0.000221569 	-0.141256
0.00639535 	7.7626e-05 	0.000118819 	-0.159
0.00639535 	0.0179097 	0.00020626 	-0.136839
0.00645783 	7.78426e-05 	0.000108603 	-0.153494
0.00645783 	0.0174908 	0.000191757 	-0.132154
0.0065192 	7.762e-05 	9.88894e-05 	-0.147643
0.0065192 	0.0169971 	0.000178254 	-0.127184
0.00657949 	7.68257e-05 	8.96742e-05 	-0.14143
0.00657949 	0.0164245 	0.000165755 	-0.121915
0.00663871 	7.51152e-05 	8.10039e-05 	-0.134834
0.00663871 	0.0157677 	0.00015402 	-0.116332
0.0066969 	7.20755e-05 	7.29359e-05 	-0.127836
0.0066969 	0.015019 	0.000142612 	-0.110424
0.00675406 	6.73567e-05 	6.5409e-05 	-0.12042
0.00675406 	0.0141728 	0.000131311 	-0.104173
0.00681021 	6.07528e-05 	5.83703e-05 	-0.112577
0.00681021 	0.0132312 	0.000120567 	-0.0975618
0.00686537 	5.23841e-05 	5.17974e-05 	-0.104322
0.00686537 	0.0122089 	0.000110675 	-0.0905892
0.00691956 	4.23896e-05 	4.56641e-05 	-0.0957093
0.00691956 	0.0111324 	0.000101179 	-0.0832804
0.0069728 	3.08488e-05 	3.99165e-05 	-0.0868328
0.0069728 	0.0100333 	9.16045e-05 	-0.0756903
0.0070251 	1.81748e-05 	3.44415e-05 	-0.0778206
0.0070251 	0.00894282 	8.17649e-05 	-0.0679026
0.00707647 	5.08874e-06 	2.91604e-05 	-0.0688172
0.00707647 	0.00788741 	7.14761e-05 	-0.0600192
0.00712695 	-7.54335e-06 	2.40482e-05 	-0.0599595
0.00712695 	0.0068824 	6.05905e-05 	-0.0521498
0.00717653 	-1.87292e-05 	1.9122e-05 	-0.0513532
0.00717653 	0.00592751 	4.9242e-05 	-0.0444019
0.00722524 	-2.72866e-05 	1.44313e-05 	-0.0430604
0.00722524 	0.0050055 	3.77163e-05 	-0.0368804
0.00727309 	-3.16361e-05 	1.0094e-05 	-0.0351044
0.00727309 	0.00408104 	2.66274e-05 	-0.0297014
0.0073201 	-2.93875e-05 	6.27381e-06 	-0.0274823
0.0073201 	0.00309524 	1.69541e-05 	-0.0230246
0.00736628 	-1.66218e-05 	2.94465e-06 	-0.0201653
0.00736628 	0.00195166 	7.14661e-06 	-0.0170904
0.00741165 	3.55303e-06 	8.68838e-07 	-0.0131355
0.00741165 	0.000765566 	2.44341e-06 	-0.011831
0.00745622 	1.37072e-05 	6.55471e-09 	-0.00642558
0.00745622 	1.91839e-05 	7.32683e-08 	-0.0064228
0.0075 	0 	0 	0
0.0075 	0 	0 	0
