-0.0075 	373
-0.00715932 	361.094
-0.00676191 	359.238
-0.00629832 	358.493
-0.00575752 	358.033
-0.00512667 	357.67
-0.00439077 	357.345
-0.00353231 	357.029
-0.00253089 	356.704
-0.00136271 	356.354
0 	355.966
0.00136271 	355.542
0.00253089 	355.097
0.00353231 	354.64
0.00439077 	354.155
0.00512667 	353.604
0.00575752 	352.905
0.00629832 	351.871
0.00676191 	349.647
0.00715932 	338.413
0.0075 	313
