/*--------------------------------*- C++ -*----------------------------------*\
| =========                 |                                                 |
| \\      /  F ield         | OpenFOAM: The Open Source CFD Toolbox           |
|  \\    /   O peration     | Version:  v1912                                 |
|   \\  /    A nd           | Website:  www.openfoam.com                      |
|    \\/     M anipulation  |                                                 |
\*---------------------------------------------------------------------------*/
FoamFile
{
    version     2.0;
    format      ascii;
    class       volVectorField;
    location    "100";
    object      UMean;
}
// * * * * * * * * * * * * * * * * * * * * * * * * * * * * * * * * * * * * * //

dimensions      [0 1 -1 0 0 0 0];


internalField   nonuniform List<vector> 
10147
(
(-0.00107079 0.000125542 0.277713)
(-0.00109956 0.00012827 0.277703)
(-0.00114799 0.000133293 0.277702)
(-0.00121802 0.000140793 0.277708)
(-0.00217555 0.000251749 0.277305)
(-0.00221126 0.000261749 0.277291)
(-0.00220018 0.000268484 0.277263)
(-0.00214182 0.000272247 0.277221)
(-0.000914033 0.000195698 0.275668)
(-0.000845319 0.00019089 0.275635)
(-0.00080887 0.000176402 0.275596)
(-0.000803113 0.000151608 0.275547)
(-0.000946639 -0.000251388 0.276014)
(-0.000982755 -0.000274739 0.275993)
(-0.0010014 -0.000290864 0.275992)
(-0.00100268 -0.000300405 0.276011)
(-0.00245151 0.000275621 0.277405)
(-0.00266676 0.000302239 0.277427)
(-0.00265492 0.000309439 0.277397)
(-0.00240247 0.000305427 0.277282)
(-0.000790733 0.000278047 0.275863)
(-0.000572513 0.00030315 0.275835)
(-0.000533552 0.000287663 0.275793)
(-0.00062944 0.000213934 0.275687)
(-0.00104876 -0.000270261 0.275844)
(-0.00116011 -0.000330253 0.27575)
(-0.00118267 -0.000347563 0.275743)
(-0.00113853 -0.000341703 0.275822)
(-0.000531732 0.000271601 0.275708)
(-0.000626161 0.00019497 0.275584)
(-0.00102465 -0.000276087 0.275908)
(-0.00113954 -0.000334394 0.275803)
(-0.00116142 -0.000351627 0.275797)
(-0.00111086 -0.000347179 0.275893)
(-0.00084556 -0.000336884 0.276428)
(-0.00108698 0.00014026 0.277624)
(-0.00111541 0.00014283 0.277613)
(-0.00116292 0.000147438 0.277611)
(-0.00123145 0.000154257 0.277617)
(-0.00216423 0.00025015 0.277162)
(-0.00219851 0.000259379 0.277145)
(-0.00218621 0.000265462 0.277112)
(-0.00212678 0.000268661 0.277064)
(-0.000882744 0.000186259 0.275351)
(-0.000813866 0.000181336 0.275314)
(-0.000777479 0.000166979 0.275271)
(-0.000772013 0.000142567 0.275219)
(-0.000926656 -0.000252117 0.275709)
(-0.000962911 -0.000274971 0.275689)
(-0.000981942 -0.00029078 0.275688)
(-0.000983889 -0.000300178 0.275708)
(-0.0011035 0.000155319 0.277447)
(-0.00113165 0.000157689 0.277436)
(-0.00117839 0.000161839 0.277433)
(-0.00124561 0.000167929 0.277439)
(-0.00214459 0.000249749 0.27693)
(-0.00217739 0.000258141 0.27691)
(-0.00216393 0.000263538 0.276874)
(-0.00210362 0.000266175 0.276819)
(-0.000853629 0.000176098 0.274955)
(-0.000784411 0.000171103 0.274913)
(-0.000747903 0.000156916 0.274866)
(-0.000742528 0.000132925 0.274812)
(-0.000909461 -0.000252403 0.275323)
(-0.000945857 -0.000274726 0.275304)
(-0.000965286 -0.000290181 0.275304)
(-0.000967936 -0.000299388 0.275325)
(-0.00111685 0.000168425 0.277177)
(-0.00114453 0.000170684 0.277166)
(-0.00119016 0.000174447 0.277163)
(-0.00125559 0.000179865 0.277169)
(-0.00211398 0.000247458 0.276616)
(-0.00214512 0.000254983 0.276593)
(-0.00213057 0.000259685 0.276553)
(-0.0020697 0.000261765 0.276492)
(-0.000822148 0.000165332 0.274494)
(-0.000753117 0.000160238 0.274448)
(-0.000716817 0.000146238 0.274398)
(-0.000711681 0.000122727 0.274341)
(-0.000891716 -0.000253047 0.27486)
(-0.000928204 -0.000274743 0.274841)
(-0.000947961 -0.000289791 0.274841)
(-0.000951217 -0.000298798 0.274862)
(-0.00112348 0.000179569 0.276825)
(-0.00115032 0.000181615 0.276814)
(-0.00119415 0.000184879 0.276811)
(-0.00125678 0.000189497 0.276816)
(-0.0020702 0.000243399 0.276219)
(-0.00209937 0.000250105 0.276194)
(-0.00208379 0.000254141 0.276149)
(-0.00202279 0.000255681 0.276083)
(-0.000785622 0.000152886 0.273966)
(-0.000717892 0.000147865 0.273916)
(-0.000682608 0.000134176 0.273862)
(-0.000678246 0.000111228 0.273803)
(-0.000874307 -0.000254771 0.27432)
(-0.000910848 -0.000275806 0.274302)
(-0.000930876 -0.000290458 0.274302)
(-0.000934655 -0.000299323 0.274323)
(-0.00112724 0.000190614 0.2764)
(-0.00115317 0.000192441 0.276388)
(-0.00119508 0.000195257 0.276385)
(-0.00125472 0.000199185 0.276389)
(-0.00201858 0.000238935 0.275743)
(-0.00204567 0.000244904 0.275716)
(-0.00202916 0.000248342 0.275667)
(-0.00196833 0.000249398 0.275596)
(-0.000749061 0.000141258 0.273365)
(-0.000682903 0.000136236 0.27331)
(-0.000648784 0.000122792 0.273254)
(-0.000645232 0.000100346 0.273193)
(-0.000854507 -0.000255519 0.273706)
(-0.000890917 -0.000275936 0.273688)
(-0.000911092 -0.000290205 0.27369)
(-0.000915327 -0.000298913 0.27371)
(-0.00113022 0.000200628 0.275906)
(-0.00115534 0.000202361 0.275893)
(-0.00119555 0.000204861 0.275889)
(-0.00125254 0.000208247 0.275892)
(-0.00196882 0.000235299 0.275196)
(-0.00199403 0.00024057 0.275166)
(-0.00197671 0.000243419 0.275113)
(-0.00191611 0.00024397 0.275036)
(-0.000714169 0.000130489 0.272688)
(-0.000649199 0.000125375 0.272629)
(-0.00061578 0.000112126 0.27257)
(-0.000612471 9.01696e-05 0.272509)
(-0.00082966 -0.000254179 0.273021)
(-0.000865625 -0.000273967 0.273005)
(-0.000885757 -0.00028782 0.273007)
(-0.000890375 -0.000296308 0.273028)
(-0.00113259 0.000209756 0.275348)
(-0.00115702 0.000211383 0.275335)
(-0.00119577 0.000213538 0.27533)
(-0.00125048 0.000216331 0.275332)
(-0.00192405 0.00023173 0.274578)
(-0.00194761 0.000236302 0.274544)
(-0.0019296 0.000238532 0.274487)
(-0.00186923 0.000238517 0.274405)
(-0.000681534 0.000119414 0.271941)
(-0.000617408 0.000114306 0.271878)
(-0.000584347 0.000101352 0.271816)
(-0.000580925 7.99942e-05 0.271753)
(-0.000800611 -0.000251704 0.272263)
(-0.00083587 -0.000270772 0.272249)
(-0.000855788 -0.000284136 0.272252)
(-0.000860706 -0.000292347 0.272272)
(-0.00113352 0.000218715 0.274728)
(-0.00115731 0.000220198 0.274714)
(-0.00119472 0.000221998 0.274708)
(-0.00124733 0.000224213 0.274709)
(-0.00188255 0.000227711 0.273889)
(-0.00190459 0.000231596 0.273852)
(-0.00188592 0.000233244 0.273791)
(-0.00182573 0.000232727 0.273703)
(-0.000650647 0.000108985 0.27113)
(-0.000587316 0.000103873 0.271063)
(-0.000554621 9.12085e-05 0.270999)
(-0.000551148 7.04455e-05 0.270935)
(-0.00077208 -0.000250197 0.271439)
(-0.000806669 -0.000268547 0.271427)
(-0.000826399 -0.000281459 0.27143)
(-0.00083163 -0.000289471 0.27145)
(-0.00113288 0.000226743 0.274045)
(-0.00115608 0.000228084 0.27403)
(-0.0011922 0.000229537 0.274023)
(-0.00124279 0.000231191 0.274023)
(-0.00184153 0.000223275 0.273131)
(-0.00186208 0.000226512 0.273091)
(-0.00184276 0.000227642 0.273025)
(-0.00178273 0.000226711 0.272932)
(-0.00062067 9.91592e-05 0.27026)
(-0.000558162 9.40521e-05 0.270189)
(-0.000525922 8.1651e-05 0.270122)
(-0.000522557 6.14203e-05 0.270057)
(-0.000747455 -0.000248667 0.270555)
(-0.000781533 -0.000266371 0.270544)
(-0.000801193 -0.000278884 0.270548)
(-0.000806822 -0.000286735 0.270568)
(-0.00113069 0.000232821 0.273292)
(-0.0011533 0.000234065 0.273277)
(-0.00118812 0.000235179 0.273269)
(-0.00123668 0.000236246 0.273267)
(-0.00180121 0.000219501 0.27231)
(-0.00182037 0.000222165 0.272267)
(-0.00180043 0.000222812 0.272197)
(-0.00174053 0.000221471 0.272097)
(-0.00059093 8.95091e-05 0.269332)
(-0.000529333 8.44865e-05 0.269256)
(-0.00049766 7.24107e-05 0.269187)
(-0.000494544 5.27603e-05 0.269121)
(-0.000728289 -0.000245547 0.269608)
(-0.000762058 -0.000262612 0.269598)
(-0.000781773 -0.000274713 0.269603)
(-0.000787847 -0.000282364 0.269623)
(-0.00112908 0.000240098 0.272476)
(-0.00115116 0.000241272 0.27246)
(-0.00118485 0.000242176 0.272451)
(-0.00123163 0.000242888 0.272447)
(-0.00176016 0.00021637 0.271435)
(-0.00177799 0.000218458 0.271388)
(-0.00175746 0.000218621 0.271313)
(-0.00169769 0.000216864 0.271209)
(-0.000564395 8.10922e-05 0.268349)
(-0.000503643 7.59967e-05 0.268269)
(-0.000472614 6.41734e-05 0.268197)
(-0.000469966 4.51119e-05 0.26813)
(-0.000720086 -0.000242156 0.268602)
(-0.000753945 -0.000258517 0.268593)
(-0.000773963 -0.000270173 0.268598)
(-0.000780593 -0.000277625 0.268618)
(-0.00112661 0.00024598 0.271602)
(-0.00114809 0.000247053 0.271587)
(-0.00118055 0.000247684 0.271577)
(-0.00122544 0.000247946 0.271571)
(-0.00171553 0.000211352 0.270511)
(-0.00173201 0.000212846 0.27046)
(-0.0017109 0.0002125 0.270382)
(-0.00165129 0.0002103 0.270273)
(-0.000540751 7.10519e-05 0.267314)
(-0.0004813 6.59541e-05 0.26723)
(-0.000451523 5.44303e-05 0.267156)
(-0.000450133 3.59828e-05 0.267087)
(-0.000728538 -0.000240745 0.267536)
(-0.000763137 -0.00025639 0.267526)
(-0.000783851 -0.0002676 0.267531)
(-0.000791181 -0.000274866 0.267551)
(-0.00112123 0.000249772 0.270677)
(-0.00114198 0.000250684 0.270661)
(-0.00117296 0.000250916 0.270649)
(-0.00121557 0.00025053 0.270641)
(-0.0016683 0.000204251 0.269536)
(-0.00168336 0.000205146 0.269482)
(-0.00166168 0.000204303 0.2694)
(-0.00160231 0.000201688 0.269287)
(-0.000518036 5.84174e-05 0.266231)
(-0.000460628 5.34448e-05 0.266143)
(-0.000432931 4.22491e-05 0.266066)
(-0.000433749 2.43468e-05 0.265994)
(-0.000750325 -0.000240804 0.266413)
(-0.00078619 -0.000255806 0.266402)
(-0.000807917 -0.000266601 0.266407)
(-0.000816061 -0.000273662 0.266427)
(-0.00111493 0.000253001 0.269693)
(-0.00113504 0.000253847 0.269677)
(-0.0011647 0.000253805 0.269665)
(-0.00120528 0.000252931 0.269654)
(-0.00162121 0.000197156 0.268508)
(-0.00163485 0.000197478 0.26845)
(-0.00161262 0.000196177 0.268365)
(-0.00155355 0.000193197 0.268248)
(-0.00049607 4.71935e-05 0.265107)
(-0.000440512 4.22201e-05 0.265016)
(-0.000414739 3.12603e-05 0.264935)
(-0.000417637 1.38408e-05 0.264861)
(-0.000774903 -0.000241827 0.265242)
(-0.000812146 -0.000256263 0.26523)
(-0.000834952 -0.000266691 0.265233)
(-0.000843932 -0.000273574 0.265254)
(-0.00110622 0.000255478 0.26865)
(-0.00112577 0.000256293 0.268634)
(-0.00115431 0.000256033 0.268621)
(-0.00119314 0.000254753 0.268609)
(-0.00157717 0.000191524 0.267429)
(-0.0015896 0.000191345 0.267369)
(-0.00156689 0.000189618 0.26728)
(-0.00150808 0.000186267 0.26716)
(-0.000472783 3.73757e-05 0.263943)
(-0.000418725 3.23718e-05 0.263849)
(-0.000394461 2.16379e-05 0.263765)
(-0.000398944 4.71058e-06 0.263689)
(-0.00079263 -0.00024233 0.264033)
(-0.000830986 -0.000256193 0.26402)
(-0.000854712 -0.00026626 0.264022)
(-0.00086447 -0.000272983 0.264043)
(-0.00109397 0.000257986 0.267548)
(-0.00111301 0.00025873 0.267532)
(-0.00114059 0.000258259 0.267518)
(-0.00117799 0.000256621 0.267506)
(-0.00153429 0.000185207 0.2663)
(-0.00154574 0.000184558 0.266237)
(-0.00152269 0.000182445 0.266146)
(-0.00146415 0.000178778 0.266024)
(-0.000448736 2.81264e-05 0.262742)
(-0.000395908 2.31032e-05 0.262645)
(-0.000372866 1.26084e-05 0.262559)
(-0.000378613 -3.81107e-06 0.262481)
(-0.000803012 -0.000242822 0.26279)
(-0.000842256 -0.000256135 0.262776)
(-0.000866751 -0.000265855 0.262778)
(-0.000877206 -0.000272422 0.262799)
(-0.00107918 0.000258763 0.266387)
(-0.00109771 0.000259415 0.266371)
(-0.00112441 0.000258658 0.266357)
(-0.00116052 0.000256536 0.266344)
(-0.00149083 0.000177867 0.265122)
(-0.00150148 0.000176753 0.265058)
(-0.00147819 0.000174273 0.264965)
(-0.00141995 0.000170321 0.26484)
(-0.000424793 1.74473e-05 0.261505)
(-0.000373155 1.25072e-05 0.261404)
(-0.000351314 2.29184e-06 0.261316)
(-0.000358327 -1.36399e-05 0.261237)
(-0.000809012 -0.000243239 0.26152)
(-0.000849036 -0.000256027 0.261506)
(-0.000874225 -0.000265403 0.261508)
(-0.000885331 -0.000271795 0.261528)
(-0.00106484 0.000259382 0.265175)
(-0.00108282 0.000259944 0.265159)
(-0.0011086 0.000258931 0.265144)
(-0.00114339 0.00025638 0.265131)
(-0.0014471 0.00017046 0.263896)
(-0.0014569 0.00016886 0.26383)
(-0.00143334 0.000165994 0.263736)
(-0.0013754 0.000161739 0.263609)
(-0.000400763 6.44422e-06 0.260229)
(-0.000350283 1.57064e-06 0.260126)
(-0.000329582 -8.37612e-06 0.260037)
(-0.000337766 -2.38256e-05 0.259957)
(-0.000813454 -0.00024381 0.260222)
(-0.000854226 -0.00025606 0.260208)
(-0.000880064 -0.000265079 0.26021)
(-0.000891759 -0.000271283 0.26023)
(-0.00105295 0.000259379 0.263912)
(-0.00107032 0.000259905 0.263896)
(-0.00109507 0.000258722 0.263881)
(-0.00112837 0.000255865 0.263867)
(-0.00140297 0.000163779 0.262624)
(-0.00141175 0.000161747 0.262557)
(-0.00138786 0.000158519 0.262462)
(-0.00133027 0.000153956 0.262333)
(-0.000377564 -3.68292e-06 0.258917)
(-0.000328346 -8.56327e-06 0.258813)
(-0.000308867 -1.82698e-05 0.258723)
(-0.000318284 -3.32216e-05 0.258643)
(-0.000818947 -0.00024511 0.258896)
(-0.000860457 -0.000256806 0.258883)
(-0.000886928 -0.000265475 0.258885)
(-0.000899189 -0.000271524 0.258905)
(-0.00104216 0.000258355 0.262603)
(-0.00105887 0.000258841 0.262586)
(-0.00108245 0.0002575 0.262571)
(-0.00111403 0.000254365 0.262557)
(-0.00135721 0.000156881 0.261307)
(-0.00136483 0.000154486 0.261239)
(-0.00134057 0.000150944 0.261142)
(-0.00128341 0.000146101 0.261012)
(-0.000354593 -1.3551e-05 0.257569)
(-0.00030689 -1.84736e-05 0.257463)
(-0.000288854 -2.79835e-05 0.257373)
(-0.000299705 -4.24914e-05 0.257293)
(-0.000827825 -0.000247197 0.257537)
(-0.000870142 -0.000258352 0.257523)
(-0.000897285 -0.0002667 0.257526)
(-0.000910122 -0.000272642 0.257546)
(-0.00103097 0.000256314 0.261251)
(-0.001047 0.000256754 0.261234)
(-0.00106932 0.00025524 0.261219)
(-0.00109903 0.000251799 0.261205)
(-0.00130868 0.000148685 0.259947)
(-0.00131507 0.000145939 0.259879)
(-0.00129046 0.000142099 0.259781)
(-0.00123379 0.000136998 0.25965)
(-0.000331385 -2.35936e-05 0.256183)
(-0.000285392 -2.85036e-05 0.256077)
(-0.000268962 -3.77832e-05 0.255985)
(-0.000281387 -5.18329e-05 0.255906)
(-0.000840284 -0.000248915 0.256141)
(-0.000883509 -0.000259568 0.256128)
(-0.000911391 -0.000267598 0.25613)
(-0.000924837 -0.000273392 0.256151)
(-0.0010185 0.000253438 0.259853)
(-0.0010338 0.000253835 0.259835)
(-0.00105483 0.000252134 0.25982)
(-0.00108259 0.000248363 0.259806)
(-0.00125658 0.00013985 0.258546)
(-0.00126171 0.000136728 0.258477)
(-0.00123678 0.000132592 0.258378)
(-0.00118069 0.000127263 0.258247)
(-0.000307615 -3.38844e-05 0.254762)
(-0.000263466 -3.87249e-05 0.254655)
(-0.000248753 -4.77321e-05 0.254563)
(-0.000262842 -6.12947e-05 0.254483)
(-0.000854536 -0.000249479 0.254707)
(-0.00089875 -0.000259649 0.254694)
(-0.000927412 -0.000267338 0.254697)
(-0.000941473 -0.000272922 0.254717)
(-0.00100377 0.000249708 0.258408)
(-0.00101831 0.000250055 0.25839)
(-0.00103794 0.000248168 0.258375)
(-0.00106363 0.00024407 0.258361)
(-0.00120138 0.000130321 0.257104)
(-0.00120521 0.000126833 0.257034)
(-0.00117997 0.000122426 0.256936)
(-0.00112458 0.000116909 0.256805)
(-0.000282687 -4.42389e-05 0.253307)
(-0.000240572 -4.89993e-05 0.253199)
(-0.000227725 -5.77297e-05 0.253107)
(-0.00024359 -7.08071e-05 0.253027)
(-0.000870513 -0.000250675 0.253241)
(-0.000915779 -0.000260349 0.253228)
(-0.000945265 -0.000267714 0.25323)
(-0.000959961 -0.000273133 0.25325)
(-0.000987351 0.000244661 0.256921)
(-0.00100109 0.000244959 0.256902)
(-0.00101925 0.000242892 0.256887)
(-0.00104277 0.000238479 0.256874)
(-0.00114562 0.000120965 0.255624)
(-0.00114815 0.000117163 0.255555)
(-0.00112264 0.000112514 0.255457)
(-0.001068 0.000106819 0.255326)
(-0.000257124 -5.48174e-05 0.251818)
(-0.00021722 -5.9469e-05 0.25171)
(-0.000206385 -6.78974e-05 0.251618)
(-0.000224152 -8.04667e-05 0.251538)
(-0.000887757 -0.000252512 0.251739)
(-0.000934156 -0.000261692 0.251726)
(-0.00096449 -0.000268741 0.251729)
(-0.000979793 -0.000274014 0.251749)
(-0.000971561 0.000239207 0.255392)
(-0.000984504 0.000239497 0.255373)
(-0.00100133 0.000237342 0.255358)
(-0.00102291 0.000232759 0.255346)
(-0.00109044 0.000111476 0.254111)
(-0.00109171 0.000107406 0.254042)
(-0.00106598 0.000102535 0.253945)
(-0.00101213 9.66531e-05 0.253814)
(-0.000233653 -6.50676e-05 0.250298)
(-0.000195847 -6.97171e-05 0.250189)
(-0.000186972 -7.79351e-05 0.250096)
(-0.000206646 -9.00763e-05 0.250016)
(-0.000907489 -0.000255132 0.250208)
(-0.000955091 -0.00026382 0.250195)
(-0.00098632 -0.000270567 0.250198)
(-0.00100225 -0.000275719 0.250217)
(-0.000955797 0.000232945 0.253819)
(-0.000967905 0.000233219 0.2538)
(-0.000983409 0.000230976 0.253786)
(-0.00100312 0.000226231 0.253775)
(-0.0010363 0.00010188 0.252563)
(-0.00103639 9.75734e-05 0.252496)
(-0.00101048 9.25095e-05 0.252399)
(-0.000957464 8.64696e-05 0.252268)
(-0.000211983 -7.52195e-05 0.248748)
(-0.00017631 -7.98525e-05 0.248638)
(-0.000169435 -8.78562e-05 0.248545)
(-0.000191061 -9.95763e-05 0.248464)
(-0.000928695 -0.000257761 0.248644)
(-0.000977538 -0.000265994 0.248631)
(-0.00100966 -0.000272449 0.248633)
(-0.00102618 -0.000277462 0.248652)
(-0.000938693 0.000225764 0.252203)
(-0.000949943 0.000225989 0.252184)
(-0.000964083 0.000223605 0.252171)
(-0.000981867 0.000218628 0.252162)
(-0.000981577 9.07752e-05 0.250979)
(-0.000980515 8.62225e-05 0.250913)
(-0.000954513 8.09893e-05 0.250816)
(-0.00090245 7.48494e-05 0.250686)
(-0.000191667 -8.55752e-05 0.247166)
(-0.000158259 -9.01101e-05 0.247055)
(-0.000153467 -9.78456e-05 0.246962)
(-0.000177085 -0.000109116 0.246882)
(-0.000950164 -0.000259969 0.247042)
(-0.00100022 -0.000267791 0.247029)
(-0.00103317 -0.00027396 0.247031)
(-0.00105018 -0.0002788 0.24705)
(-0.000920237 0.000217143 0.250547)
(-0.000930655 0.000217325 0.250528)
(-0.000943425 0.000214777 0.250516)
(-0.000959243 0.000209509 0.250508)
(-0.000927922 7.88909e-05 0.249357)
(-0.00092577 7.40865e-05 0.249291)
(-0.000899739 6.86908e-05 0.249196)
(-0.000848703 6.2471e-05 0.249067)
(-0.000172514 -9.63645e-05 0.245548)
(-0.000141436 -0.000100739 0.245438)
(-0.000138752 -0.00010817 0.245345)
(-0.000164348 -0.00011898 0.245264)
(-0.00097271 -0.000262337 0.245409)
(-0.0010239 -0.000269765 0.245396)
(-0.00105764 -0.000275654 0.245398)
(-0.00107513 -0.000280317 0.245416)
(-0.000902778 0.000208162 0.248853)
(-0.000912462 0.000208324 0.248834)
(-0.000924002 0.000205679 0.248823)
(-0.000938049 0.000200234 0.248817)
(-0.000877184 6.76175e-05 0.247696)
(-0.000873989 6.25991e-05 0.247632)
(-0.000847927 5.70619e-05 0.247537)
(-0.000797875 5.07668e-05 0.247409)
(-0.000154865 -0.000106725 0.243896)
(-0.000125908 -0.000111013 0.243786)
(-0.000125186 -0.000118196 0.243692)
(-0.000152666 -0.000128584 0.243611)
(-0.000995981 -0.000265433 0.243744)
(-0.0010483 -0.000272465 0.243731)
(-0.00108285 -0.000278087 0.243732)
(-0.00110084 -0.000282601 0.24375)
(-0.000887214 0.000198395 0.247118)
(-0.000896204 0.000198572 0.2471)
(-0.000906596 0.000195903 0.24709)
(-0.00091899 0.000190398 0.247086)
(-0.000828976 5.7085e-05 0.245997)
(-0.000824722 5.19302e-05 0.245935)
(-0.000798545 4.62915e-05 0.245842)
(-0.000749315 3.99253e-05 0.245714)
(-0.000137557 -0.000116441 0.242209)
(-0.000110573 -0.000120713 0.242098)
(-0.000111735 -0.000127698 0.242004)
(-0.000141094 -0.000137696 0.241923)
(-0.00101919 -0.000268948 0.242042)
(-0.00107278 -0.000275578 0.242028)
(-0.00110821 -0.000280941 0.24203)
(-0.00112671 -0.000285331 0.242047)
(-0.000872141 0.000188168 0.24534)
(-0.000880457 0.000188334 0.245322)
(-0.000889669 0.000185639 0.245313)
(-0.000900334 0.000180093 0.245311)
(-0.000781005 4.61107e-05 0.244261)
(-0.000775616 4.08669e-05 0.244201)
(-0.000749263 3.51595e-05 0.244109)
(-0.000700807 2.87418e-05 0.243981)
(-0.000119966 -0.000126038 0.240485)
(-9.50201e-05 -0.000130268 0.240374)
(-9.81501e-05 -0.000137038 0.24028)
(-0.000129491 -0.000146642 0.240199)
(-0.00104342 -0.000272322 0.240302)
(-0.0010984 -0.000278568 0.240288)
(-0.00113475 -0.000283682 0.240289)
(-0.00115376 -0.00028795 0.240306)
(-0.000856701 0.000177537 0.243517)
(-0.000864306 0.000177671 0.243499)
(-0.000872229 0.000174918 0.243491)
(-0.000880979 0.000169286 0.243492)
(-0.000731958 3.40946e-05 0.242481)
(-0.000725364 2.87554e-05 0.242422)
(-0.000698861 2.29891e-05 0.242332)
(-0.000651303 1.65465e-05 0.242205)
(-0.000102288 -0.000135754 0.238724)
(-7.95901e-05 -0.000139886 0.238613)
(-8.4837e-05 -0.000146414 0.238518)
(-0.000118256 -0.00015562 0.238437)
(-0.00106874 -0.000275389 0.238523)
(-0.00112508 -0.00028129 0.238509)
(-0.00116232 -0.000286164 0.23851)
(-0.00118177 -0.000290289 0.238525)
(-0.000840624 0.0001664 0.241649)
(-0.000847478 0.000166497 0.241632)
(-0.000854038 0.000163667 0.241625)
(-0.000860761 0.000157916 0.241627)
(-0.000681256 2.18239e-05 0.240655)
(-0.000673444 1.63514e-05 0.240599)
(-0.000646855 1.05263e-05 0.24051)
(-0.000600342 4.09677e-06 0.240385)
(-8.49373e-05 -0.000145482 0.236922)
(-6.46396e-05 -0.000149487 0.236811)
(-7.20577e-05 -0.000155769 0.236717)
(-0.000107512 -0.000164598 0.236635)
(-0.00109496 -0.000278302 0.236706)
(-0.00115258 -0.00028389 0.236691)
(-0.00119066 -0.00028853 0.236691)
(-0.00121053 -0.000292488 0.236706)
(-0.000824004 0.000154247 0.23974)
(-0.000830088 0.000154319 0.239724)
(-0.000835274 0.000151421 0.239719)
(-0.000839968 0.000145555 0.239722)
(-0.000630166 9.45649e-06 0.238788)
(-0.00062119 3.87407e-06 0.238734)
(-0.000594588 -1.97557e-06 0.238646)
(-0.00054921 -8.34507e-06 0.238523)
(-6.85247e-05 -0.000154987 0.235078)
(-5.06972e-05 -0.000158847 0.234968)
(-6.0294e-05 -0.000164873 0.234874)
(-9.77295e-05 -0.000173327 0.234792)
(-0.00112232 -0.000281737 0.234848)
(-0.00118114 -0.000287045 0.234833)
(-0.00122001 -0.000291477 0.234832)
(-0.00124031 -0.000295287 0.234847)
(-0.00080766 0.000140975 0.237791)
(-0.000812984 0.000141054 0.237776)
(-0.000816861 0.000138126 0.237772)
(-0.000819645 0.000132195 0.237777)
(-0.000580172 -3.24154e-06 0.236881)
(-0.000570114 -8.87283e-06 0.236829)
(-0.000543549 -1.47072e-05 0.236743)
(-0.000499332 -2.09966e-05 0.236621)
(-5.38964e-05 -0.000164028 0.23319)
(-3.851e-05 -0.000167767 0.23308)
(-5.02593e-05 -0.000173564 0.232986)
(-8.96519e-05 -0.00018167 0.232903)
(-0.00115069 -0.000285886 0.232947)
(-0.00121068 -0.00029093 0.232932)
(-0.00125034 -0.000295177 0.23293)
(-0.00127106 -0.000298874 0.232943)
(-0.000791224 0.000127784 0.235798)
(-0.000795841 0.000127853 0.235784)
(-0.000798485 0.000124911 0.235781)
(-0.000799463 0.00011896 0.235787)
(-0.000531986 -1.58768e-05 0.23493)
(-0.000520905 -2.15248e-05 0.234879)
(-0.000494405 -2.73297e-05 0.234795)
(-0.000451343 -3.35421e-05 0.234674)
(-4.07656e-05 -0.000173071 0.231257)
(-2.77699e-05 -0.000176708 0.231148)
(-4.16336e-05 -0.0001823 0.231053)
(-8.29555e-05 -0.000190088 0.23097)
(-0.00117928 -0.00029026 0.230997)
(-0.00124044 -0.000295058 0.230981)
(-0.00128086 -0.000299132 0.230979)
(-0.00130197 -0.000302722 0.230991)
(-0.000774256 0.000114997 0.233753)
(-0.000778216 0.000115034 0.233741)
(-0.000779661 0.000112076 0.233739)
(-0.000778854 0.000106124 0.233747)
(-0.000485317 -2.80639e-05 0.232927)
(-0.000473219 -3.37362e-05 0.232879)
(-0.000446802 -3.95168e-05 0.232796)
(-0.000404924 -4.56555e-05 0.232675)
(-2.7419e-05 -0.000181772 0.229276)
(-1.6802e-05 -0.000185311 0.229167)
(-3.27276e-05 -0.000190701 0.229073)
(-7.58836e-05 -0.000198176 0.228988)
(-0.00120675 -0.000294343 0.228996)
(-0.00126902 -0.000298903 0.228979)
(-0.00131016 -0.000302797 0.228976)
(-0.0013316 -0.000306254 0.228987)
(-0.000756834 0.000102352 0.231658)
(-0.000760143 0.000102341 0.231647)
(-0.000760369 9.93618e-05 0.231647)
(-0.000757729 9.34107e-05 0.231655)
(-0.000439017 -4.00029e-05 0.230869)
(-0.000425868 -4.56988e-05 0.230823)
(-0.000399544 -5.14415e-05 0.230742)
(-0.000358909 -5.7479e-05 0.230622)
(-1.34116e-05 -0.000190037 0.227243)
(-5.19891e-06 -0.00019347 0.227135)
(-2.31542e-05 -0.000198657 0.22704)
(-6.80529e-05 -0.000205822 0.226955)
(-0.00123232 -0.000297851 0.226943)
(-0.00129561 -0.000302198 0.226926)
(-0.0013374 -0.000305913 0.226921)
(-0.00135915 -0.000309217 0.226931)
(-0.000739229 8.87284e-05 0.22951)
(-0.000741858 8.87002e-05 0.229501)
(-0.000740811 8.57074e-05 0.229502)
(-0.00073626 7.97463e-05 0.229512)
(-0.000392853 -5.1881e-05 0.228755)
(-0.000378627 -5.75746e-05 0.22871)
(-0.000352404 -6.32486e-05 0.22863)
(-0.000313053 -6.91481e-05 0.228511)
(3.55876e-07 -0.0001979 0.225153)
(6.13572e-06 -0.000201199 0.225045)
(-1.38467e-05 -0.000206173 0.224951)
(-6.04543e-05 -0.000213037 0.224864)
(-0.00125605 -0.000301312 0.224834)
(-0.00132027 -0.000305478 0.224816)
(-0.00136266 -0.000309039 0.224811)
(-0.00138469 -0.000312209 0.224819)
(-0.000722414 7.44806e-05 0.227303)
(-0.000724358 7.4463e-05 0.227295)
(-0.000722055 7.1484e-05 0.227297)
(-0.000715632 6.55403e-05 0.227309)
(-0.000347047 -6.39365e-05 0.226583)
(-0.000331773 -6.95903e-05 0.226541)
(-0.000305659 -7.5171e-05 0.226462)
(-0.000267577 -8.09196e-05 0.226344)
(1.3069e-05 -0.000205319 0.223003)
(1.64903e-05 -0.000208492 0.222896)
(-5.44885e-06 -0.000213269 0.222801)
(-5.36958e-05 -0.000219857 0.222714)
(-0.00127832 -0.000304864 0.222663)
(-0.00134338 -0.000308866 0.222645)
(-0.00138631 -0.00031229 0.222639)
(-0.00140861 -0.000315341 0.222645)
(-0.000706884 6.07287e-05 0.225031)
(-0.000708159 6.06946e-05 0.225025)
(-0.000704664 5.77345e-05 0.225028)
(-0.000696482 5.18439e-05 0.225041)
(-0.000302808 -7.56781e-05 0.224349)
(-0.000286547 -8.12737e-05 0.224309)
(-0.000260547 -8.67506e-05 0.224231)
(-0.000223686 -9.23453e-05 0.224114)
(2.47891e-05 -0.00021222 0.220788)
(2.59805e-05 -0.000215282 0.220682)
(2.20347e-06 -0.000219875 0.220587)
(-4.75689e-05 -0.000226198 0.220499)
(-0.00129921 -0.000308447 0.220425)
(-0.00136504 -0.000312289 0.220406)
(-0.00140847 -0.000315583 0.220399)
(-0.00143101 -0.000318526 0.220403)
(-0.000692273 4.75461e-05 0.22269)
(-0.000692897 4.74643e-05 0.222686)
(-0.000688264 4.4515e-05 0.22269)
(-0.000678411 3.86906e-05 0.222704)
(-0.000260894 -8.71384e-05 0.222044)
(-0.000243713 -9.26712e-05 0.222005)
(-0.000217833 -9.80397e-05 0.22193)
(-0.000182136 -0.000103476 0.221813)
(3.61552e-05 -0.000218659 0.218502)
(3.52168e-05 -0.000221606 0.218397)
(9.70711e-06 -0.000226013 0.218302)
(-4.14754e-05 -0.000232069 0.218212)
(-0.00131815 -0.000311678 0.218117)
(-0.00138466 -0.000315367 0.218097)
(-0.00142853 -0.000318531 0.218089)
(-0.00145128 -0.000321359 0.218091)
(-0.000678507 3.43338e-05 0.220271)
(-0.000678514 3.421e-05 0.220268)
(-0.000672814 3.12713e-05 0.220274)
(-0.000661402 2.55075e-05 0.220289)
(-0.000222416 -9.80146e-05 0.219659)
(-0.00020439 -0.000103475 0.219623)
(-0.000178633 -0.000108722 0.219549)
(-0.000144032 -0.000113982 0.219432)
(4.68576e-05 -0.000224652 0.216136)
(4.39283e-05 -0.000227468 0.216033)
(1.68139e-05 -0.00023168 0.215937)
(-3.56565e-05 -0.000237472 0.215847)
(-0.00133433 -0.000314211 0.215731)
(-0.00140146 -0.000317761 0.21571)
(-0.0014457 -0.000320797 0.2157)
(-0.00146858 -0.0003235 0.2157)
(-0.000666087 2.10107e-05 0.217765)
(-0.000665552 2.08792e-05 0.217764)
(-0.000658921 1.79796e-05 0.217772)
(-0.000646156 1.23011e-05 0.217788)
(-0.000188559 -0.000108081 0.217187)
(-0.000169765 -0.000113453 0.217154)
(-0.000144128 -0.000118564 0.217081)
(-0.000110543 -0.000123636 0.216965)
(5.60878e-05 -0.000229952 0.213686)
(5.14158e-05 -0.000232649 0.213583)
(2.2898e-05 -0.000236684 0.213488)
(-3.06972e-05 -0.000242229 0.213396)
(-0.00134719 -0.000315997 0.213257)
(-0.00141486 -0.000319424 0.213236)
(-0.00145939 -0.000322335 0.213224)
(-0.00148232 -0.000324902 0.213222)
(-0.000654807 8.11333e-06 0.215168)
(-0.00065381 7.98007e-06 0.21517)
(-0.000646375 5.13911e-06 0.215179)
(-0.000632432 -4.20326e-07 0.215196)
(-0.000159407 -0.00011729 0.214623)
(-0.000139905 -0.000122557 0.214592)
(-0.00011438 -0.000127523 0.21452)
(-8.17281e-05 -0.000132402 0.214405)
(6.40345e-05 -0.00023436 0.211144)
(5.78584e-05 -0.000236958 0.211042)
(2.81331e-05 -0.000240829 0.210947)
(-2.64253e-05 -0.000246141 0.210853)
(-0.00135686 -0.000317096 0.210688)
(-0.001425 -0.000320406 0.210666)
(-0.00146974 -0.000323193 0.210653)
(-0.00149266 -0.000325618 0.210648)
(-0.000644312 -4.23707e-06 0.212472)
(-0.000642903 -4.3875e-06 0.212476)
(-0.000634727 -7.17162e-06 0.212487)
(-0.000619687 -1.26013e-05 0.212505)
(-0.000133524 -0.000125978 0.211957)
(-0.000113348 -0.000131125 0.211929)
(-8.79175e-05 -0.000135934 0.211858)
(-5.61346e-05 -0.000140613 0.211743)
(7.15625e-05 -0.000238091 0.208501)
(6.40376e-05 -0.000240583 0.208401)
(3.32488e-05 -0.000244287 0.208305)
(-2.21335e-05 -0.000249363 0.20821)
(-0.00136367 -0.000317828 0.208017)
(-0.00143215 -0.000321022 0.207995)
(-0.00147706 -0.000323693 0.20798)
(-0.00149993 -0.000325994 0.207971)
(-0.000634489 -1.61501e-05 0.209666)
(-0.000632696 -1.63285e-05 0.209672)
(-0.00062381 -1.90624e-05 0.209684)
(-0.000607706 -2.43654e-05 0.209704)
(-0.000109601 -0.000134409 0.20918)
(-8.87726e-05 -0.000139421 0.209154)
(-6.34205e-05 -0.000144064 0.209085)
(-3.245e-05 -0.000148539 0.208971)
(7.94089e-05 -0.00024127 0.205749)
(7.06404e-05 -0.000243638 0.205649)
(3.89081e-05 -0.000247164 0.205553)
(-1.71584e-05 -0.000252002 0.205457)
(-0.00136764 -0.000318085 0.205234)
(-0.00143635 -0.000321164 0.205212)
(-0.00148134 -0.000323725 0.205195)
(-0.00150417 -0.000325917 0.205183)
(-0.000625407 -2.76152e-05 0.206736)
(-0.000623262 -2.78144e-05 0.206745)
(-0.000613708 -3.04899e-05 0.206759)
(-0.000596597 -3.56566e-05 0.206779)
(-8.72412e-05 -0.000142137 0.206281)
(-6.57955e-05 -0.000147007 0.206258)
(-4.05086e-05 -0.000151478 0.206191)
(-1.02884e-05 -0.000155743 0.206076)
(8.78412e-05 -0.000243618 0.202874)
(7.79461e-05 -0.000245864 0.202776)
(4.54086e-05 -0.000249217 0.202679)
(-1.11764e-05 -0.000253821 0.202581)
(-0.0013687 -0.000317491 0.202329)
(-0.0014375 -0.00032046 0.202305)
(-0.00148252 -0.000322912 0.202287)
(-0.0015053 -0.000324986 0.202272)
(-0.000617151 -3.83733e-05 0.20367)
(-0.000614686 -3.85891e-05 0.203681)
(-0.000604527 -4.11948e-05 0.203697)
(-0.000586501 -4.62066e-05 0.203717)
(-6.68107e-05 -0.000148898 0.203246)
(-4.47959e-05 -0.00015362 0.203225)
(-1.95657e-05 -0.000157913 0.203159)
(9.96966e-06 -0.000161964 0.203045)
(9.64052e-05 -0.000245059 0.199864)
(8.55365e-05 -0.000247197 0.199767)
(5.23508e-05 -0.000250387 0.199671)