/*--------------------------------*- C++ -*----------------------------------*\
| =========                 |                                                 |
| \\      /  F ield         | OpenFOAM: The Open Source CFD Toolbox           |
|  \\    /   O peration     | Version:  v1912                                 |
|   \\  /    A nd           | Website:  www.openfoam.com                      |
|    \\/     M anipulation  |                                                 |
\*---------------------------------------------------------------------------*/
FoamFile
{
    version     2.0;
    format      ascii;
    class       volSymmTensorField;
    location    "100";
    object      UPrime2Mean;
}
// * * * * * * * * * * * * * * * * * * * * * * * * * * * * * * * * * * * * * //

dimensions      [0 2 -2 0 0 0 0];


internalField   nonuniform List<symmTensor> 
10147
(
(3.18724e-05 9.16451e-07 -1.61855e-06 4.48293e-05 1.44003e-05 0.000415951)
(3.21146e-05 8.58397e-07 -1.4996e-06 4.48494e-05 1.42455e-05 0.000416013)
(3.25473e-05 7.28331e-07 -1.24473e-06 4.47891e-05 1.38982e-05 0.000415498)
(3.31867e-05 5.22326e-07 -8.4589e-07 4.46496e-05 1.33479e-05 0.000414408)
(4.24296e-05 -2.99202e-06 3.51389e-06 4.21589e-05 3.58285e-06 0.000390647)
(4.27757e-05 -3.14599e-06 3.63369e-06 4.20615e-05 3.16087e-06 0.000389007)
(4.27311e-05 -3.20942e-06 3.46093e-06 4.19694e-05 2.9528e-06 0.000387227)
(4.22938e-05 -3.18504e-06 2.98813e-06 4.18786e-05 2.94965e-06 0.000385232)
(3.49412e-05 -6.53685e-07 -1.39173e-06 4.10093e-05 4.56648e-06 0.000346893)
(3.46415e-05 -4.56604e-07 -1.46954e-06 4.10195e-05 4.65824e-06 0.000345249)
(3.47418e-05 -2.31884e-07 -1.01436e-06 4.10109e-05 4.62778e-06 0.00034406)
(3.52465e-05 3.01766e-08 -6.52989e-09 4.09833e-05 4.47379e-06 0.000343274)
(4.84332e-05 4.73706e-06 2.18697e-05 4.10507e-05 -2.88776e-08 0.000339168)
(4.932e-05 4.96804e-06 2.3212e-05 4.1068e-05 -3.25697e-07 0.000338899)
(4.98424e-05 5.10447e-06 2.4034e-05 4.10567e-05 -4.92755e-07 0.000338989)
(5.00121e-05 5.14941e-06 2.43578e-05 4.10139e-05 -5.32814e-07 0.000339471)
(4.462e-05 -3.4155e-06 5.21347e-06 4.23791e-05 2.69318e-06 0.000392937)
(4.64942e-05 -3.96605e-06 6.39865e-06 4.22047e-05 1.3e-06 0.000390834)
(4.64465e-05 -4.03386e-06 6.21398e-06 4.21062e-05 1.07759e-06 0.000388932)
(4.44225e-05 -3.69619e-06 4.44894e-06 4.19715e-05 1.77243e-06 0.000385062)
(3.30191e-05 -9.91298e-07 -4.51378e-06 4.12717e-05 5.06515e-06 0.000345313)
(3.11802e-05 -7.75775e-07 -6.45385e-06 4.13486e-05 5.62888e-06 0.000341182)
(3.12875e-05 -5.35565e-07 -5.96729e-06 4.13395e-05 5.59633e-06 0.000339911)
(3.34631e-05 3.13377e-09 -2.4995e-06 4.12338e-05 4.93037e-06 0.000340049)
(5.0192e-05 5.19117e-06 2.41698e-05 4.13342e-05 -7.08107e-07 0.000335747)
(5.27357e-05 5.85268e-06 2.79277e-05 4.14473e-05 -1.58254e-06 0.000334239)
(5.33328e-05 6.00845e-06 2.88525e-05 4.14445e-05 -1.77719e-06 0.000334224)
(5.2609e-05 5.82185e-06 2.79311e-05 4.13105e-05 -1.49135e-06 0.000335833)
(3.12321e-05 -5.19341e-07 -5.83949e-06 4.12294e-05 5.67208e-06 0.000340141)
(3.33714e-05 1.72547e-08 -2.37985e-06 4.10995e-05 5.03081e-06 0.000340331)
(4.99401e-05 5.12737e-06 2.39529e-05 4.12161e-05 -5.82669e-07 0.000337134)
(5.25074e-05 5.79471e-06 2.77162e-05 4.13506e-05 -1.47266e-06 0.000335376)
(5.30937e-05 5.94767e-06 2.86273e-05 4.13457e-05 -1.66295e-06 0.000335387)
(5.23006e-05 5.74352e-06 2.76438e-05 4.1181e-05 -1.34329e-06 0.000337356)
(4.8346e-05 4.72717e-06 2.28965e-05 4.02517e-05 2.89902e-07 0.00034843)
(3.19202e-05 7.43347e-07 -1.50042e-06 4.53268e-05 1.6438e-05 0.000428873)
(3.21452e-05 6.87841e-07 -1.36743e-06 4.53433e-05 1.62756e-05 0.000428835)
(3.25462e-05 5.65742e-07 -1.08956e-06 4.52719e-05 1.59147e-05 0.000428159)
(3.31383e-05 3.73297e-07 -6.57832e-07 4.51137e-05 1.53446e-05 0.000426843)
(4.18288e-05 -2.94737e-06 4.08834e-06 4.23097e-05 5.23236e-06 0.000398692)
(4.21581e-05 -3.09122e-06 4.21569e-06 4.21969e-05 4.79732e-06 0.000396832)
(4.21223e-05 -3.14932e-06 4.02862e-06 4.20959e-05 4.58538e-06 0.000394927)
(4.17196e-05 -3.12416e-06 3.51905e-06 4.20022e-05 4.58739e-06 0.000392895)
(3.50819e-05 -5.7867e-07 -1.54853e-06 4.11547e-05 6.40525e-06 0.000354031)
(3.48163e-05 -3.83401e-07 -1.66448e-06 4.11672e-05 6.50373e-06 0.00035232)
(3.4922e-05 -1.57211e-07 -1.22082e-06 4.11583e-05 6.4741e-06 0.000351041)
(3.54037e-05 1.09665e-07 -1.98394e-07 4.11276e-05 6.31508e-06 0.000350138)
(4.7807e-05 4.92185e-06 2.21486e-05 4.10621e-05 1.53916e-06 0.000342494)
(4.86432e-05 5.16016e-06 2.35307e-05 4.10733e-05 1.22938e-06 0.000342031)
(4.91329e-05 5.3009e-06 2.43777e-05 4.10581e-05 1.05306e-06 0.00034203)
(4.92865e-05 5.34724e-06 2.47122e-05 4.10137e-05 1.00703e-06 0.000342523)
(3.21595e-05 5.04319e-07 -1.50057e-06 4.60719e-05 1.83521e-05 0.000440156)
(3.23706e-05 4.47337e-07 -1.35026e-06 4.60843e-05 1.8183e-05 0.000440038)
(3.27452e-05 3.24917e-07 -1.04634e-06 4.60057e-05 1.78144e-05 0.000439215)
(3.32976e-05 1.33206e-07 -5.78631e-07 4.5837e-05 1.72348e-05 0.00043768)
(4.13962e-05 -3.0795e-06 4.70771e-06 4.27394e-05 6.80668e-06 0.000405656)
(4.17093e-05 -3.21799e-06 4.847e-06 4.26036e-05 6.36767e-06 0.000403586)
(4.16822e-05 -3.27118e-06 4.64763e-06 4.24927e-05 6.1556e-06 0.000401569)
(4.13138e-05 -3.24138e-06 4.10101e-06 4.24021e-05 6.16132e-06 0.000399519)
(3.54407e-05 -5.47638e-07 -1.72748e-06 4.15771e-05 8.20972e-06 0.000360008)
(3.52033e-05 -3.38138e-07 -1.8838e-06 4.15888e-05 8.31215e-06 0.000358259)
(3.53113e-05 -9.55421e-08 -1.45531e-06 4.15803e-05 8.2815e-06 0.000356895)
(3.57692e-05 1.90623e-07 -4.23521e-07 4.15515e-05 8.11647e-06 0.000355858)
(4.73135e-05 5.27988e-06 2.23578e-05 4.13306e-05 3.07618e-06 0.00034486)
(4.80984e-05 5.5326e-06 2.37753e-05 4.13259e-05 2.7566e-06 0.000344194)
(4.85547e-05 5.68183e-06 2.46455e-05 4.13011e-05 2.57179e-06 0.000344089)
(4.86917e-05 5.7309e-06 2.49917e-05 4.1253e-05 2.51806e-06 0.000344576)
(3.25836e-05 2.68411e-07 -1.57301e-06 4.66185e-05 2.01016e-05 0.000449858)
(3.27833e-05 2.09572e-07 -1.40697e-06 4.66239e-05 1.99279e-05 0.000449663)
(3.31356e-05 8.61947e-08 -1.0773e-06 4.65316e-05 1.95555e-05 0.000448696)
(3.36539e-05 -1.05697e-07 -5.72784e-07 4.63421e-05 1.89726e-05 0.000446942)
(4.12008e-05 -3.29971e-06 5.27327e-06 4.29175e-05 8.33911e-06 0.000411033)
(4.1501e-05 -3.43491e-06 5.4268e-06 4.27714e-05 7.90248e-06 0.000408784)
(4.14831e-05 -3.48308e-06 5.21702e-06 4.26558e-05 7.69378e-06 0.000406678)
(4.11462e-05 -3.44631e-06 4.63488e-06 4.25657e-05 7.70403e-06 0.000404625)
(3.59771e-05 -5.24509e-07 -1.91877e-06 4.17748e-05 9.97603e-06 0.000364824)
(3.5762e-05 -2.99932e-07 -2.11157e-06 4.17932e-05 1.00831e-05 0.000363071)
(3.58675e-05 -4.0423e-08 -1.69469e-06 4.17855e-05 1.00529e-05 0.00036163)
(3.62982e-05 2.65221e-07 -6.50135e-07 4.17513e-05 9.88417e-06 0.000360439)
(4.69705e-05 5.69373e-06 2.26458e-05 4.14368e-05 4.6255e-06 0.000346062)
(4.77046e-05 5.96265e-06 2.40996e-05 4.14255e-05 4.29852e-06 0.000345192)
(4.81276e-05 6.12148e-06 2.49946e-05 4.13963e-05 4.10674e-06 0.000344971)
(4.82478e-05 6.17377e-06 2.53555e-05 4.1346e-05 4.04602e-06 0.000345427)
(3.31682e-05 4.62559e-08 -1.69342e-06 4.68295e-05 2.16729e-05 0.0004582)
(3.33566e-05 -1.40165e-08 -1.51378e-06 4.68313e-05 2.14978e-05 0.000457925)
(3.36859e-05 -1.37437e-07 -1.15843e-06 4.67304e-05 2.11238e-05 0.000456815)
(3.41687e-05 -3.28077e-07 -6.15251e-07 4.65269e-05 2.05393e-05 0.00045485)
(4.12332e-05 -3.5218e-06 5.75932e-06 4.28585e-05 9.82816e-06 0.00041519)
(4.15214e-05 -3.65376e-06 5.92954e-06 4.27041e-05 9.39578e-06 0.000412795)
(4.15114e-05 -3.69691e-06 5.71154e-06 4.25843e-05 9.19209e-06 0.00041063)
(4.12028e-05 -3.65311e-06 5.09591e-06 4.24941e-05 9.2083e-06 0.000408602)
(3.66296e-05 -5.0705e-07 -2.09751e-06 4.17505e-05 1.16905e-05 0.000369228)
(3.64363e-05 -2.70412e-07 -2.32252e-06 4.17726e-05 1.18031e-05 0.000367502)
(3.65384e-05 2.48625e-09 -1.91201e-06 4.17639e-05 1.1774e-05 0.000365995)
(3.69404e-05 3.23426e-07 -8.48253e-07 4.17241e-05 1.16019e-05 0.000364643)
(4.67735e-05 6.06387e-06 2.30888e-05 4.12956e-05 6.17283e-06 0.000346756)
(4.74571e-05 6.34694e-06 2.45841e-05 4.12781e-05 5.83825e-06 0.000345673)
(4.78471e-05 6.51429e-06 2.55077e-05 4.12448e-05 5.63994e-06 0.000345326)
(4.79506e-05 6.56969e-06 2.58852e-05 4.11921e-05 5.57338e-06 0.00034574)
(3.39523e-05 -1.76519e-07 -1.86944e-06 4.68785e-05 2.314e-05 0.000465827)
(3.41316e-05 -2.38688e-07 -1.67717e-06 4.68787e-05 2.29639e-05 0.000465467)
(3.44409e-05 -3.62988e-07 -1.29617e-06 4.67724e-05 2.25894e-05 0.000464223)
(3.48923e-05 -5.53617e-07 -7.13463e-07 4.65595e-05 2.20046e-05 0.00046207)
(4.1441e-05 -3.73268e-06 6.1969e-06 4.27121e-05 1.12464e-05 0.000418941)
(4.17161e-05 -3.86162e-06 6.38625e-06 4.25498e-05 1.08191e-05 0.000416432)
(4.17119e-05 -3.90001e-06 6.16152e-06 4.24262e-05 1.06214e-05 0.000414244)
(4.14284e-05 -3.84951e-06 5.51303e-06 4.2336e-05 1.06447e-05 0.000412283)
(3.74424e-05 -5.0845e-07 -2.26194e-06 4.16056e-05 1.33316e-05 0.000374125)
(3.72663e-05 -2.59616e-07 -2.51447e-06 4.16288e-05 1.34497e-05 0.00037245)
(3.73634e-05 2.6053e-08 -2.10446e-06 4.16185e-05 1.34206e-05 0.000370889)
(3.77378e-05 3.6089e-07 -1.01423e-06 4.15744e-05 1.3243e-05 0.000369377)
(4.67621e-05 6.36621e-06 2.37176e-05 4.10458e-05 7.63274e-06 0.000347802)
(4.73987e-05 6.66135e-06 2.52623e-05 4.10223e-05 7.2899e-06 0.000346484)
(4.77577e-05 6.83573e-06 2.62189e-05 4.0985e-05 7.08409e-06 0.000345997)
(4.78452e-05 6.89327e-06 2.66141e-05 4.09301e-05 7.01029e-06 0.000346363)
(3.48785e-05 -3.93887e-07 -2.07354e-06 4.68186e-05 2.45327e-05 0.000473293)
(3.50489e-05 -4.57669e-07 -1.86782e-06 4.68162e-05 2.43535e-05 0.000472838)
(3.53379e-05 -5.82589e-07 -1.45935e-06 4.67038e-05 2.3978e-05 0.000471467)
(3.57571e-05 -7.72951e-07 -8.34245e-07 4.64813e-05 2.33943e-05 0.00046915)
(4.17999e-05 -3.94476e-06 6.59024e-06 4.24758e-05 1.25937e-05 0.00042294)
(4.20613e-05 -4.07104e-06 6.7989e-06 4.23064e-05 1.21732e-05 0.000420349)
(4.20613e-05 -4.1049e-06 6.56807e-06 4.2179e-05 1.19824e-05 0.000418176)
(4.17999e-05 -4.04778e-06 5.8878e-06 4.20881e-05 1.20133e-05 0.000416328)
(3.8365e-05 -5.14314e-07 -2.36348e-06 4.13653e-05 1.48949e-05 0.000380039)
(3.82077e-05 -2.54265e-07 -2.64084e-06 4.13908e-05 1.50193e-05 0.000378441)
(3.83034e-05 4.30994e-08 -2.22616e-06 4.138e-05 1.49905e-05 0.00037684)
(3.86561e-05 3.9062e-07 -1.10153e-06 4.13327e-05 1.48074e-05 0.000375168)
(4.69784e-05 6.62595e-06 2.45321e-05 4.07173e-05 9.00846e-06 0.000349477)
(4.75743e-05 6.93162e-06 2.61352e-05 4.06896e-05 8.65767e-06 0.000347907)
(4.79063e-05 7.11217e-06 2.71293e-05 4.06493e-05 8.44425e-06 0.00034726)
(4.79794e-05 7.17168e-06 2.75425e-05 4.05927e-05 8.36265e-06 0.000347553)
(3.59042e-05 -6.07501e-07 -2.32091e-06 4.66601e-05 2.57855e-05 0.000480414)
(3.60654e-05 -6.72796e-07 -2.10314e-06 4.66545e-05 2.56058e-05 0.000479886)
(3.63332e-05 -7.98292e-07 -1.66974e-06 4.65367e-05 2.52321e-05 0.000478409)
(3.67186e-05 -9.88393e-07 -1.00599e-06 4.63063e-05 2.46524e-05 0.000475947)
(4.22325e-05 -4.14828e-06 6.93148e-06 4.21529e-05 1.38839e-05 0.000427451)
(4.24785e-05 -4.27191e-06 7.15853e-06 4.19778e-05 1.34721e-05 0.000424808)
(4.24814e-05 -4.30132e-06 6.92282e-06 4.18478e-05 1.32895e-05 0.000422684)
(4.22414e-05 -4.23777e-06 6.21418e-06 4.17573e-05 1.33282e-05 0.000420986)
(3.93705e-05 -5.23276e-07 -2.41574e-06 4.10634e-05 1.64123e-05 0.000387189)
(3.92347e-05 -2.52969e-07 -2.70908e-06 4.10906e-05 1.65419e-05 0.000385689)
(3.93331e-05 5.47378e-08 -2.28103e-06 4.10795e-05 1.65133e-05 0.000384057)
(3.96701e-05 4.13129e-07 -1.11313e-06 4.10294e-05 1.63252e-05 0.000382222)
(4.73972e-05 6.85599e-06 2.554e-05 4.03388e-05 1.03333e-05 0.000351904)
(4.79586e-05 7.17057e-06 2.72075e-05 4.03061e-05 9.97552e-06 0.000350072)
(4.82672e-05 7.35661e-06 2.82425e-05 4.02628e-05 9.75512e-06 0.000349245)
(4.83273e-05 7.41829e-06 2.86744e-05 4.02052e-05 9.66604e-06 0.000349436)
(3.69997e-05 -8.15261e-07 -2.61858e-06 4.63972e-05 2.69157e-05 0.000487414)
(3.7151e-05 -8.82057e-07 -2.39044e-06 4.63894e-05 2.67376e-05 0.000486829)
(3.73961e-05 -1.00812e-06 -1.93551e-06 4.62676e-05 2.63682e-05 0.000485263)
(3.7745e-05 -1.19795e-06 -1.2384e-06 4.60312e-05 2.57956e-05 0.000482675)
(4.27147e-05 -4.33326e-06 7.16766e-06 4.17588e-05 1.51351e-05 0.000432625)
(4.2944e-05 -4.45391e-06 7.41131e-06 4.15799e-05 1.47342e-05 0.000429958)
(4.29496e-05 -4.47865e-06 7.17382e-06 4.14487e-05 1.45613e-05 0.00042791)
(4.27316e-05 -4.40856e-06 6.44493e-06 4.13596e-05 1.4609e-05 0.000426394)
(4.04258e-05 -5.34752e-07 -2.42644e-06 4.07046e-05 1.78837e-05 0.000395565)
(4.03145e-05 -2.54874e-07 -2.72721e-06 4.0733e-05 1.80174e-05 0.000394178)
(4.0419e-05 6.20712e-08 -2.27937e-06 4.07211e-05 1.79885e-05 0.000392522)
(4.0744e-05 4.29768e-07 -1.06358e-06 4.06685e-05 1.77956e-05 0.000390527)
(4.79759e-05 7.05076e-06 2.66949e-05 3.99153e-05 1.1616e-05 0.000355448)
(4.85065e-05 7.3722e-06 2.8428e-05 3.98776e-05 1.12516e-05 0.000353345)
(4.87941e-05 7.56248e-06 2.9504e-05 3.98316e-05 1.10242e-05 0.000352331)
(4.88421e-05 7.62592e-06 2.99533e-05 3.97733e-05 1.0927e-05 0.000352411)
(3.81584e-05 -1.00673e-06 -2.96929e-06 4.60305e-05 2.79328e-05 0.000494439)
(3.82997e-05 -1.07469e-06 -2.73398e-06 4.60213e-05 2.77569e-05 0.000493808)
(3.85208e-05 -1.20058e-06 -2.2629e-06 4.58966e-05 2.73928e-05 0.000492167)
(3.88314e-05 -1.38899e-06 -1.54018e-06 4.56557e-05 2.68287e-05 0.000489473)
(4.32438e-05 -4.49495e-06 7.25396e-06 4.12975e-05 1.63253e-05 0.000438552)
(4.34551e-05 -4.61232e-06 7.51091e-06 4.11156e-05 1.59369e-05 0.000435879)
(4.34623e-05 -4.63253e-06 7.27379e-06 4.09832e-05 1.57746e-05 0.000433929)
(4.32658e-05 -4.55646e-06 6.53237e-06 4.08946e-05 1.58315e-05 0.000432618)
(4.15216e-05 -5.43452e-07 -2.42833e-06 4.02777e-05 1.9285e-05 0.000404957)
(4.14364e-05 -2.55832e-07 -2.72563e-06 4.03074e-05 1.94233e-05 0.000403696)
(4.15493e-05 6.85156e-08 -2.25034e-06 4.02953e-05 1.93947e-05 0.000402025)
(4.18652e-05 4.43596e-07 -9.8194e-07 4.02411e-05 1.91978e-05 0.000399873)
(4.86512e-05 7.19981e-06 2.79209e-05 3.9431e-05 1.28522e-05 0.000360241)
(4.91533e-05 7.52648e-06 2.97206e-05 3.93902e-05 1.24819e-05 0.000357864)
(4.94214e-05 7.71992e-06 3.08371e-05 3.93425e-05 1.22479e-05 0.000356667)
(4.94582e-05 7.78454e-06 3.13019e-05 3.92838e-05 1.21431e-05 0.000356647)
(3.93842e-05 -1.17779e-06 -3.34559e-06 4.55868e-05 2.88311e-05 0.00050155)
(3.95163e-05 -1.24685e-06 -3.1082e-06 4.55764e-05 2.86586e-05 0.00050088)
(3.97143e-05 -1.37208e-06 -2.6278e-06 4.5449e-05 2.83009e-05 0.000499176)
(3.99871e-05 -1.55813e-06 -1.88838e-06 4.52039e-05 2.77464e-05 0.00049639)
(4.38811e-05 -4.63447e-06 7.14636e-06 4.07783e-05 1.74334e-05 0.000445127)
(4.40743e-05 -4.74848e-06 7.41119e-06 4.05934e-05 1.70583e-05 0.000442464)
(4.40818e-05 -4.76465e-06 7.17546e-06 4.046e-05 1.69068e-05 0.000440631)
(4.39039e-05 -4.68367e-06 6.42899e-06 4.03724e-05 1.69725e-05 0.000439547)
(4.26458e-05 -5.56515e-07 -2.44445e-06 3.97923e-05 2.05994e-05 0.000415219)
(4.25846e-05 -2.63414e-07 -2.72722e-06 3.98236e-05 2.07419e-05 0.000414098)
(4.27047e-05 6.61182e-08 -2.21619e-06 3.98117e-05 2.07136e-05 0.000412422)
(4.30113e-05 4.46311e-07 -8.89301e-07 3.97561e-05 2.05133e-05 0.000410118)
(4.9379e-05 7.29237e-06 2.92035e-05 3.88913e-05 1.40168e-05 0.00036623)
(4.98542e-05 7.62261e-06 3.10716e-05 3.88475e-05 1.36413e-05 0.000363582)
(5.0104e-05 7.8182e-06 3.2229e-05 3.87981e-05 1.34015e-05 0.000362207)
(5.01304e-05 7.8836e-06 3.2708e-05 3.87394e-05 1.329e-05 0.000362095)
(4.07013e-05 -1.33995e-06 -3.76724e-06 4.50935e-05 2.96077e-05 0.000508828)
(4.08268e-05 -1.40987e-06 -3.53223e-06 4.50812e-05 2.94402e-05 0.000508121)
(4.1006e-05 -1.53437e-06 -3.05057e-06 4.49508e-05 2.90903e-05 0.000506359)
(4.12472e-05 -1.71816e-06 -2.3064e-06 4.47015e-05 2.85466e-05 0.000503492)
(4.46571e-05 -4.76387e-06 6.83156e-06 4.02059e-05 1.84667e-05 0.000451966)
(4.48326e-05 -4.87468e-06 7.09886e-06 4.00181e-05 1.81061e-05 0.000449333)
(4.48387e-05 -4.88734e-06 6.86481e-06 3.98849e-05 1.79653e-05 0.00044763)
(4.46757e-05 -4.8024e-06 6.11931e-06 3.98004e-05 1.80383e-05 0.000446785)
(4.38175e-05 -5.86641e-07 -2.50779e-06 3.92588e-05 2.18175e-05 0.000426289)
(4.37724e-05 -2.89757e-07 -2.76344e-06 3.92921e-05 2.19626e-05 0.000425324)
(4.38944e-05 4.29685e-08 -2.20741e-06 3.92797e-05 2.19334e-05 0.000423655)
(4.41887e-05 4.25902e-07 -8.15684e-07 3.92212e-05 2.17289e-05 0.000421211)
(5.01311e-05 7.33507e-06 3.05419e-05 3.82867e-05 1.50851e-05 0.000373333)
(5.05807e-05 7.66725e-06 3.248e-05 3.82376e-05 1.47053e-05 0.000370421)
(5.08132e-05 7.86415e-06 3.36787e-05 3.81852e-05 1.44603e-05 0.000368873)
(5.08298e-05 7.93027e-06 3.41714e-05 3.81255e-05 1.4342e-05 0.000368672)
(4.20777e-05 -1.49255e-06 -4.15513e-06 4.45334e-05 3.02761e-05 0.000516317)
(4.21982e-05 -1.5633e-06 -3.92779e-06 4.4518e-05 3.01154e-05 0.00051557)
(4.23607e-05 -1.68718e-06 -3.45132e-06 4.43837e-05 2.97755e-05 0.000513751)
(4.25732e-05 -1.86897e-06 -2.71036e-06 4.41292e-05 2.92454e-05 0.000510808)
(4.55747e-05 -4.89116e-06 6.3253e-06 3.95881e-05 1.94374e-05 0.00045902)
(4.57343e-05 -4.99945e-06 6.59114e-06 3.93978e-05 1.9092e-05 0.000456428)
(4.57375e-05 -5.00911e-06 6.35864e-06 3.92653e-05 1.89619e-05 0.000454868)
(4.55844e-05 -4.92056e-06 5.61778e-06 3.91846e-05 1.90417e-05 0.000454272)
(4.50074e-05 -6.34542e-07 -2.59685e-06 3.86708e-05 2.29538e-05 0.000438048)
(4.49742e-05 -3.34516e-07 -2.81672e-06 3.87071e-05 2.3099e-05 0.000437258)
(4.5096e-05 5.67518e-10 -2.2092e-06 3.86945e-05 2.30678e-05 0.000435616)
(4.5378e-05 3.85178e-07 -7.48066e-07 3.86324e-05 2.28588e-05 0.00043305)
(5.09397e-05 7.35858e-06 3.19708e-05 3.76209e-05 1.60787e-05 0.000381486)
(5.13671e-05 7.69244e-06 3.39809e-05 3.75652e-05 1.56958e-05 0.000378327)
(5.15844e-05 7.8905e-06 3.52223e-05 3.75089e-05 1.54462e-05 0.000376612)
(5.15922e-05 7.95731e-06 3.57292e-05 3.74477e-05 1.53215e-05 0.00037632)
(4.35094e-05 -1.6418e-06 -4.53926e-06 4.38858e-05 3.08472e-05 0.000523861)
(4.36264e-05 -1.71364e-06 -4.31989e-06 4.38691e-05 3.06928e-05 0.000523076)
(4.37752e-05 -1.83758e-06 -3.85139e-06 4.37334e-05 3.03631e-05 0.000521201)
(4.39636e-05 -2.01845e-06 -3.11893e-06 4.34774e-05 2.98477e-05 0.000518185)
(4.65852e-05 -5.01614e-06 5.69595e-06 3.89287e-05 2.03318e-05 0.000466276)
(4.67298e-05 -5.12245e-06 5.95719e-06 3.87377e-05 2.00022e-05 0.000463734)
(4.67286e-05 -5.12948e-06 5.7256e-06 3.86063e-05 1.98831e-05 0.000462327)
(4.65815e-05 -5.03753e-06 4.99119e-06 3.85287e-05 1.99693e-05 0.000461995)
(4.62336e-05 -6.83512e-07 -2.66016e-06 3.80518e-05 2.39912e-05 0.000450367)
(4.62086e-05 -3.78948e-07 -2.83843e-06 3.80891e-05 2.41372e-05 0.000449776)
(4.63303e-05 -3.97106e-08 -2.17387e-06 3.80754e-05 2.41055e-05 0.000448186)
(4.66037e-05 3.48847e-07 -6.37781e-07 3.80102e-05 2.38945e-05 0.000445526)
(5.18389e-05 7.40312e-06 3.34797e-05 3.69286e-05 1.70414e-05 0.000390702)
(5.22489e-05 7.73992e-06 3.55643e-05 3.6868e-05 1.66576e-05 0.000387319)
(5.24542e-05 7.93987e-06 3.68495e-05 3.68089e-05 1.64052e-05 0.000385448)
(5.24551e-05 8.00758e-06 3.73708e-05 3.67472e-05 1.62755e-05 0.000385063)
(4.49712e-05 -1.77512e-06 -4.89852e-06 4.31366e-05 3.13111e-05 0.000531391)
(4.50855e-05 -1.84819e-06 -4.68891e-06 4.31208e-05 3.11625e-05 0.000530567)
(4.52221e-05 -1.97227e-06 -4.23163e-06 4.2987e-05 3.0843e-05 0.000528639)
(4.53885e-05 -2.15228e-06 -3.51252e-06 4.27341e-05 3.03425e-05 0.000525553)
(4.76691e-05 -5.14006e-06 4.99287e-06 3.82345e-05 2.11215e-05 0.000473669)
(4.77993e-05 -5.24476e-06 5.24692e-06 3.80461e-05 2.08079e-05 0.000471183)
(4.77923e-05 -5.2494e-06 5.01591e-06 3.79169e-05 2.06994e-05 0.000469937)
(4.7648e-05 -5.15417e-06 4.28988e-06 3.78414e-05 2.07916e-05 0.00046988)
(4.74644e-05 -7.20097e-07 -2.70663e-06 3.74037e-05 2.49229e-05 0.00046317)
(4.74461e-05 -4.1053e-07 -2.83805e-06 3.74401e-05 2.50713e-05 0.000462797)
(4.75684e-05 -6.59879e-08 -2.11272e-06 3.74253e-05 2.50413e-05 0.000461281)
(4.78364e-05 3.28406e-07 -4.99305e-07 3.73588e-05 2.48315e-05 0.000458557)
(5.28595e-05 7.4874e-06 3.50326e-05 3.62187e-05 1.79824e-05 0.000400884)
(5.32584e-05 7.82886e-06 3.71922e-05 3.61558e-05 1.76012e-05 0.000397299)
(5.34558e-05 8.03168e-06 3.85212e-05 3.60955e-05 1.73486e-05 0.000395286)
(5.34518e-05 8.10057e-06 3.90561e-05 3.60339e-05 1.72157e-05 0.000394812)
(4.64593e-05 -1.89097e-06 -5.23603e-06 4.23092e-05 3.16911e-05 0.000538949)
(4.65712e-05 -1.96538e-06 -5.03872e-06 4.22943e-05 3.15472e-05 0.000538086)
(4.66961e-05 -2.08982e-06 -4.59563e-06 4.21633e-05 3.12375e-05 0.000536107)
(4.68414e-05 -2.2693e-06 -3.8934e-06 4.19153e-05 3.07523e-05 0.000532952)
(4.87807e-05 -5.25487e-06 4.22249e-06 3.74995e-05 2.18141e-05 0.000481077)
(4.8896e-05 -5.35842e-06 4.46837e-06 3.73157e-05 2.15161e-05 0.000478653)
(4.88823e-05 -5.36103e-06 4.23931e-06 3.71899e-05 2.14184e-05 0.000477573)
(4.87389e-05 -5.26282e-06 3.52539e-06 3.71166e-05 2.15169e-05 0.000477788)
(4.87e-05 -7.49032e-07 -2.73151e-06 3.67087e-05 2.57702e-05 0.000476252)
(4.86882e-05 -4.34219e-07 -2.8121e-06 3.67443e-05 2.59219e-05 0.000476103)
(4.88133e-05 -8.39227e-08 -2.02504e-06 3.67289e-05 2.58954e-05 0.000474677)
(4.90806e-05 3.16982e-07 -3.3635e-07 3.66618e-05 2.56894e-05 0.000471913)
(5.39861e-05 7.5887e-06 3.65695e-05 3.54887e-05 1.88917e-05 0.000411896)
(5.43794e-05 7.93548e-06 3.88001e-05 3.54247e-05 1.85157e-05 0.000408131)
(5.45725e-05 8.14147e-06 4.01703e-05 3.5364e-05 1.82649e-05 0.000405994)
(5.45652e-05 8.21146e-06 4.07172e-05 3.53025e-05 1.813e-05 0.000405447)
(4.79689e-05 -2.00075e-06 -5.6102e-06 4.14455e-05 3.201e-05 0.000546512)
(4.80777e-05 -2.07606e-06 -5.4251e-06 4.14303e-05 3.18689e-05 0.000545616)
(4.81897e-05 -2.20096e-06 -4.99768e-06 4.13018e-05 3.15677e-05 0.000543589)
(4.83124e-05 -2.3805e-06 -4.31543e-06 4.10589e-05 3.1097e-05 0.000540371)
(4.98931e-05 -5.36487e-06 3.39244e-06 3.67153e-05 2.24538e-05 0.000488495)
(4.99918e-05 -5.46767e-06 3.63113e-06 3.65363e-05 2.21713e-05 0.000486132)
(4.997e-05 -5.46853e-06 3.4071e-06 3.64144e-05 2.20846e-05 0.000485208)
(4.98268e-05 -5.36749e-06 2.71068e-06 3.63443e-05 2.21902e-05 0.000485683)
(4.99224e-05 -7.75674e-07 -2.71641e-06 3.59773e-05 2.65475e-05 0.000489354)
(4.99193e-05 -4.5579e-07 -2.74329e-06 3.60127e-05 2.67037e-05 0.000489422)
(5.00507e-05 -1.00266e-07 -1.895e-06 3.59967e-05 2.66818e-05 0.00048809)
(5.03225e-05 3.06249e-07 -1.34895e-07 3.59286e-05 2.64809e-05 0.0004853)
(5.52291e-05 7.68226e-06 3.8062e-05 3.47322e-05 1.9761e-05 0.00042342)
(5.56227e-05 8.03384e-06 4.03577e-05 3.46667e-05 1.93903e-05 0.000419494)
(5.58152e-05 8.24262e-06 4.17648e-05 3.46054e-05 1.91415e-05 0.000417251)
(5.58061e-05 8.31345e-06 4.2321e-05 3.4544e-05 1.90054e-05 0.000416651)
(4.94724e-05 -2.10302e-06 -5.97693e-06 4.05596e-05 3.22694e-05 0.000554208)
(4.95772e-05 -2.17909e-06 -5.80421e-06 4.05434e-05 3.2132e-05 0.000553279)
(4.9675e-05 -2.30465e-06 -5.39459e-06 4.04159e-05 3.1841e-05 0.000551207)
(4.97728e-05 -2.48483e-06 -4.73638e-06 4.01761e-05 3.13871e-05 0.000547929)
(5.09944e-05 -5.46489e-06 2.53278e-06 3.59054e-05 2.30292e-05 0.000496063)
(5.10735e-05 -5.56694e-06 2.76439e-06 3.57305e-05 2.27624e-05 0.000493755)
(5.10418e-05 -5.56592e-06 2.54757e-06 3.56124e-05 2.26869e-05 0.000492979)
(5.08979e-05 -5.46178e-06 1.87296e-06 3.5546e-05 2.27993e-05 0.000493701)
(5.11133e-05 -8.00863e-07 -2.67261e-06 3.52117e-05 2.72704e-05 0.000502247)
(5.11221e-05 -4.76064e-07 -2.64274e-06 3.52487e-05 2.74287e-05 0.000502527)
(5.12648e-05 -1.1599e-07 -1.73264e-06 3.52332e-05 2.74098e-05 0.000501287)
(5.15474e-05 2.94909e-07 9.69691e-08 3.51645e-05 2.72129e-05 0.000498474)
(5.65616e-05 7.7568e-06 3.95175e-05 3.3951e-05 2.05414e-05 0.000434658)
(5.69604e-05 8.11165e-06 4.18722e-05 3.38834e-05 2.01756e-05 0.000430589)
(5.71554e-05 8.32236e-06 4.33128e-05 3.3821e-05 1.9928e-05 0.000428242)
(5.7146e-05 8.39383e-06 4.38776e-05 3.37599e-05 1.97893e-05 0.000427574)
(5.09337e-05 -2.19182e-06 -6.24719e-06 3.96607e-05 3.24499e-05 0.000561919)
(5.10347e-05 -2.26842e-06 -6.08711e-06 3.9644e-05 3.23167e-05 0.000560961)
(5.11188e-05 -2.3945e-06 -5.69824e-06 3.95182e-05 3.20364e-05 0.000558844)
(5.11926e-05 -2.57523e-06 -5.06974e-06 3.92821e-05 3.16e-05 0.000555504)
(5.20669e-05 -5.54284e-06 1.70367e-06 3.50775e-05 2.35293e-05 0.000503772)
(5.21267e-05 -5.64395e-06 1.92293e-06 3.49056e-05 2.32787e-05 0.000501511)
(5.20848e-05 -5.64105e-06 1.7102e-06 3.47906e-05 2.32137e-05 0.000500878)
(5.19393e-05 -5.53401e-06 1.05631e-06 3.47273e-05 2.33317e-05 0.000501845)
(5.22502e-05 -8.25597e-07 -2.64172e-06 3.44305e-05 2.78857e-05 0.000514853)
(5.22711e-05 -4.9664e-07 -2.55459e-06 3.4468e-05 2.80454e-05 0.000515344)
(5.24262e-05 -1.33185e-07 -1.58418e-06 3.44522e-05 2.80287e-05 0.000514193)
(5.27222e-05 2.80464e-07 3.11414e-07 3.43827e-05 2.78349e-05 0.00051135)
(5.79293e-05 7.81144e-06 4.09121e-05 3.31548e-05 2.12314e-05 0.000445616)
(5.83374e-05 8.16815e-06 4.33223e-05 3.30853e-05 2.08715e-05 0.000441408)
(5.85375e-05 8.38002e-06 4.47946e-05 3.30222e-05 2.06257e-05 0.000438956)
(5.85293e-05 8.45197e-06 4.53679e-05 3.29616e-05 2.04845e-05 0.000438208)
(5.23152e-05 -2.25343e-06 -6.33345e-06 3.87282e-05 3.25564e-05 0.000569471)
(5.24134e-05 -2.33016e-06 -6.18641e-06 3.87117e-05 3.24263e-05 0.000568488)
(5.24861e-05 -2.45604e-06 -5.82122e-06 3.85884e-05 3.21555e-05 0.000566326)
(5.25398e-05 -2.63622e-06 -5.2279e-06 3.83571e-05 3.17352e-05 0.00056292)
(5.31092e-05 -5.58053e-06 9.33847e-07 3.42316e-05 2.39447e-05 0.000511494)
(5.3152e-05 -5.68045e-06 1.13277e-06 3.40634e-05 2.37095e-05 0.000509277)
(5.31005e-05 -5.67611e-06 9.18384e-07 3.39515e-05 2.36545e-05 0.000508786)
(5.29525e-05 -5.56734e-06 2.81439e-07 3.38912e-05 2.37771e-05 0.000510001)
(5.33238e-05 -8.40754e-07 -2.61845e-06 3.3634e-05 2.83948e-05 0.000527426)
(5.33543e-05 -5.09523e-07 -2.47682e-06 3.36714e-05 2.85567e-05 0.000528128)
(5.35208e-05 -1.44339e-07 -1.44953e-06 3.36555e-05 2.85434e-05 0.000527064)
(5.38304e-05 2.70565e-07 5.0777e-07 3.35857e-05 2.83545e-05 0.000524186)
(5.92903e-05 7.84373e-06 4.22082e-05 3.23343e-05 2.18568e-05 0.000456632)
(5.9711e-05 8.20141e-06 4.46716e-05 3.22633e-05 2.15042e-05 0.000452274)
(5.99186e-05 8.41391e-06 4.61737e-05 3.21998e-05 2.12617e-05 0.000449716)
(5.9913e-05 8.48615e-06 4.67538e-05 3.21397e-05 2.11198e-05 0.000448902)
(5.36104e-05 -2.28222e-06 -6.24516e-06 3.7741e-05 3.25953e-05 0.000576809)
(5.37067e-05 -2.35855e-06 -6.11296e-06 3.77249e-05 3.24684e-05 0.000575802)
(5.37699e-05 -2.48302e-06 -5.77544e-06 3.76041e-05 3.22069e-05 0.000573598)
(5.38065e-05 -2.66076e-06 -5.22363e-06 3.73776e-05 3.18023e-05 0.00057013)
(5.41329e-05 -5.57401e-06 2.11708e-07 3.33579e-05 2.42862e-05 0.00051911)
(5.416e-05 -5.67248e-06 3.83647e-07 3.31944e-05 2.4065e-05 0.000516946)
(5.4099e-05 -5.66731e-06 1.63335e-07 3.30866e-05 2.40187e-05 0.000516604)
(5.39474e-05 -5.55826e-06 -4.58741e-07 3.30298e-05 2.41452e-05 0.000518071)
(5.43439e-05 -8.35987e-07 -2.58638e-06 3.28071e-05 2.88229e-05 0.000540027)
(5.43823e-05 -5.05395e-07 -2.39089e-06 3.28447e-05 2.89862e-05 0.000540936)
(5.45604e-05 -1.40572e-07 -1.30772e-06 3.28288e-05 2.89766e-05 0.000539955)
(5.4886e-05 2.74237e-07 7.09888e-07 3.27587e-05 2.87938e-05 0.000537043)
(6.06431e-05 7.85129e-06 4.3417e-05 3.14939e-05 2.24424e-05 0.000467709)
(6.10793e-05 8.2096e-06 4.59309e-05 3.14218e-05 2.20975e-05 0.000463191)
(6.12967e-05 8.42227e-06 4.74603e-05 3.1358e-05 2.18599e-05 0.000460527)
(6.12953e-05 8.49421e-06 4.80451e-05 3.12984e-05 2.17202e-05 0.000459659)
(5.48387e-05 -2.29482e-06 -6.06681e-06 3.6709e-05 3.25695e-05 0.00058389)
(5.49336e-05 -2.37043e-06 -5.9512e-06 3.66933e-05 3.24462e-05 0.000582861)
(5.49883e-05 -2.49289e-06 -5.64508e-06 3.65756e-05 3.21942e-05 0.000580624)
(5.50093e-05 -2.66729e-06 -5.14061e-06 3.63547e-05 3.18052e-05 0.000577108)
(5.51569e-05 -5.5442e-06 -4.85034e-07 3.24559e-05 2.4571e-05 0.000526682)
(5.51687e-05 -5.64108e-06 -3.43479e-07 3.22977e-05 2.4363e-05 0.000524579)
(5.50977e-05 -5.6354e-06 -5.71307e-07 3.21944e-05 2.43246e-05 0.000524392)
(5.49409e-05 -5.52692e-06 -1.17835e-06 3.21416e-05 2.44543e-05 0.000526112)
(5.53057e-05 -8.24623e-07 -2.56026e-06 3.19586e-05 2.91647e-05 0.000552515)
(5.53514e-05 -4.96186e-07 -2.30959e-06 3.19966e-05 2.93289e-05 0.00055362)
(5.55423e-05 -1.32825e-07 -1.17067e-06 3.19809e-05 2.93224e-05 0.000552715)
(5.58867e-05 2.81152e-07 9.05681e-07 3.19108e-05 2.91449e-05 0.000549763)
(6.19924e-05 7.84416e-06 4.45739e-05 3.0636e-05 2.29466e-05 0.000478602)
(6.24475e-05 8.20276e-06 4.71347e-05 3.05631e-05 2.26094e-05 0.00047392)
(6.26768e-05 8.41544e-06 4.86895e-05 3.04991e-05 2.23766e-05 0.000471151)
(6.26807e-05 8.48708e-06 4.92785e-05 3.044e-05 2.22392e-05 0.000470232)
(5.60353e-05 -2.30985e-06 -5.84595e-06 3.56537e-05 3.24692e-05 0.000590562)
(5.61298e-05 -2.385e-06 -5.74745e-06 3.56385e-05 3.23498e-05 0.000589516)
(5.61783e-05 -2.50607e-06 -5.47315e-06 3.55242e-05 3.2108e-05 0.000587256)
(5.61872e-05 -2.67812e-06 -5.01634e-06 3.53096e-05 3.17357e-05 0.000583711)
(5.62025e-05 -5.51886e-06 -1.14811e-06 3.15369e-05 2.47968e-05 0.000534185)
(5.61997e-05 -5.61433e-06 -1.03712e-06 3.13847e-05 2.46024e-05 0.00053215)
(5.61179e-05 -5.60816e-06 -1.2724e-06 3.12862e-05 2.45726e-05 0.000532116)
(5.59536e-05 -5.50008e-06 -1.86411e-06 3.12374e-05 2.47059e-05 0.000534081)
(5.62217e-05 -8.25203e-07 -2.52741e-06 3.10962e-05 2.94351e-05 0.00056472)
(5.62714e-05 -4.98387e-07 -2.22308e-06 3.11348e-05 2.95991e-05 0.000566005)
(5.6474e-05 -1.36262e-07 -1.031e-06 3.11197e-05 2.95946e-05 0.00056517)
(5.68381e-05 2.7681e-07 1.10031e-06 3.10503e-05 2.94215e-05 0.000562176)
(6.33362e-05 7.8346e-06 4.56635e-05 2.97746e-05 2.33453e-05 0.000489109)
(6.38131e-05 8.19291e-06 4.82677e-05 2.97014e-05 2.30152e-05 0.00048427)
(6.40564e-05 8.40559e-06 4.98457e-05 2.96375e-05 2.27864e-05 0.000481399)
(6.40668e-05 8.47755e-06 5.0438e-05 2.95791e-05 2.26494e-05 0.000480428)
(5.72196e-05 -2.32645e-06 -5.60178e-06 3.45953e-05 3.22821e-05 0.000596733)
(5.73148e-05 -2.40148e-06 -5.51961e-06 3.45806e-05 3.21668e-05 0.000595674)
(5.73594e-05 -2.52202e-06 -5.27475e-06 3.447e-05 3.19353e-05 0.000593402)