0 	0 	0 	0
0 	0 	0 	0
0.00752508 	-0.000154436 	0.00119649 	-0.283687
0.00752508 	-0.000154436 	0.00119649 	-0.283687
0.00757525 	-0.000162393 	0.00121443 	-0.283595
0.00762542 	-0.00017035 	0.00123236 	-0.283502
0.00762542 	-0.00017035 	0.00123236 	-0.283502
0.00767559 	-0.000178321 	0.00125031 	-0.283409
0.00772575 	-0.000187853 	0.00126938 	-0.283257
0.00777592 	-0.000197386 	0.00128845 	-0.283105
0.00782609 	-0.000206918 	0.00130751 	-0.282952
0.00782609 	-0.000206918 	0.00130751 	-0.282952
0.00787625 	-0.000216672 	0.00132437 	-0.282774
0.00792642 	-0.000226584 	0.00133963 	-0.282576
0.00797659 	-0.000236497 	0.00135489 	-0.282378
0.00802676 	-0.000246716 	0.00136948 	-0.282173
0.00802676 	-0.000246716 	0.00136948 	-0.282173
0.00807692 	-0.000258081 	0.00138159 	-0.28194
0.00812709 	-0.000269445 	0.00139369 	-0.281706
0.00812709 	-0.000269445 	0.00139369 	-0.281706
0.00817726 	-0.00028081 	0.0014058 	-0.281473
0.00822742 	-0.000295125 	0.00141906 	-0.281212
0.00822742 	-0.000295125 	0.00141906 	-0.281212
0.00827759 	-0.000309764 	0.00143246 	-0.280947
0.00832776 	-0.000324403 	0.00144585 	-0.280683
0.00832776 	-0.000324403 	0.00144585 	-0.280683
0.00837793 	-0.000341199 	0.00145881 	-0.280402
0.00842809 	-0.000359159 	0.00147153 	-0.280112
0.00842809 	-0.000359159 	0.00147153 	-0.280112
0.00847826 	-0.000377119 	0.00148426 	-0.279822
0.00847826 	-0.000377119 	0.00148426 	-0.279822
0.00852843 	-0.00039584 	0.00149669 	-0.279521
0.00852843 	-0.00039584 	0.00149669 	-0.279521
0.0085786 	-0.000415472 	0.00150879 	-0.279208
0.0085786 	-0.000415472 	0.00150879 	-0.279208
0.00862876 	-0.000435103 	0.00152089 	-0.278895
0.00867893 	-0.000454679 	0.00153285 	-0.278575
0.00867893 	-0.000454679 	0.00153285 	-0.278575
0.0087291 	-0.000474135 	0.00154452 	-0.278239
0.00877926 	-0.000493591 	0.00155619 	-0.277904
0.00877926 	-0.000493591 	0.00155619 	-0.277904
0.00882943 	-0.00051262 	0.00156777 	-0.277564
0.0088796 	-0.000530263 	0.0015791 	-0.277208
0.0088796 	-0.000530263 	0.0015791 	-0.277208
0.00897993 	-0.000564858 	0.0016017 	-0.276492
0.00897993 	-0.000564858 	0.0016017 	-0.276492
0.0090301 	-0.000579161 	0.00161277 	-0.276118
0.00908027 	-0.000593464 	0.00162383 	-0.275743
0.00908027 	-0.000593464 	0.00162383 	-0.275743
0.00913043 	-0.000606976 	0.00163504 	-0.275365
0.0091806 	-0.000617866 	0.00164671 	-0.274976
0.0091806 	-0.000617866 	0.00164671 	-0.274976
0.00923077 	-0.000628755 	0.00165838 	-0.274586
0.00928094 	-0.000639376 	0.00166935 	-0.274192
0.00928094 	-0.000639376 	0.00166935 	-0.274192
0.0093311 	-0.000649397 	0.00167872 	-0.27379
0.00938127 	-0.000659418 	0.00168809 	-0.273387
0.00938127 	-0.000659418 	0.00168809 	-0.273387
0.00943144 	-0.000669827 	0.00169835 	-0.272977
0.00943144 	-0.000669827 	0.00169835 	-0.272977
0.00948161 	-0.000680733 	0.00170974 	-0.272557
0.00948161 	-0.000680733 	0.00170974 	-0.272557
0.00953177 	-0.000691639 	0.00172113 	-0.272137
0.00953177 	-0.000691639 	0.00172113 	-0.272137
0.00958194 	-0.000699738 	0.00174653 	-0.271703
0.00958194 	-0.000699738 	0.00174653 	-0.271703
0.00963211 	-0.000706099 	0.00178061 	-0.271262
0.00963211 	-0.000706099 	0.00178061 	-0.271262
0.00968227 	-0.000712461 	0.00181468 	-0.27082
0.00968227 	-0.000712461 	0.00181468 	-0.27082
0.00973244 	-0.000703846 	0.00185289 	-0.270343
0.00978261 	-0.000692524 	0.00189185 	-0.269859
0.00983278 	-0.000677204 	0.00192127 	-0.269353
0.00988294 	-0.000633882 	0.00188382 	-0.268693
0.00988294 	-0.000633882 	0.00188382 	-0.268693
0.00993311 	-0.00059056 	0.00184638 	-0.268033
0.00998328 	-0.000538213 	0.00177491 	-0.267188
0.00998328 	-0.000538213 	0.00177491 	-0.267188
0.0100334 	-0.000474878 	0.00166201 	-0.266119
0.0100334 	-0.000474878 	0.00166201 	-0.266119
0.0100836 	-0.000411543 	0.00154911 	-0.26505
0.0101338 	-0.0003714 	0.00153085 	-0.263738
0.0101338 	-0.0003714 	0.00153085 	-0.263738
0.0102341 	-0.000307738 	0.0015706 	-0.261074
0.0102341 	-0.000307738 	0.0015706 	-0.261074
0.0102843 	-0.000300153 	0.0017198 	-0.259982
0.0103344 	-0.000292568 	0.001869 	-0.258891
0.0103344 	-0.000292568 	0.001869 	-0.258891
0.0103846 	-0.000247254 	0.00200765 	-0.257966
0.0103846 	-0.000247254 	0.00200765 	-0.257966
0.0104348 	-0.000186397 	0.00214196 	-0.257109
0.0104849 	-0.000100985 	0.00224288 	-0.256152
0.0104849 	-0.000100985 	0.00224288 	-0.256152
0.0105351 	7.26522e-05 	0.00222385 	-0.254831
0.0105853 	0.000246289 	0.00220482 	-0.253511
0.0105853 	0.000246289 	0.00220482 	-0.253511
0.0106355 	0.000446492 	0.0021096 	-0.252015
0.0106856 	0.000654581 	0.00199177 	-0.250467
0.0106856 	0.000654581 	0.00199177 	-0.250467
0.0107358 	0.000842428 	0.00190452 	-0.249058
0.0107358 	0.000842428 	0.00190452 	-0.249058
0.010786 	0.00099544 	0.00186988 	-0.247889
0.010786 	0.00099544 	0.00186988 	-0.247889
0.0108361 	0.00114812 	0.00183582 	-0.246723
0.0108361 	0.00114812 	0.00183582 	-0.246723
0.0108863 	0.00124905 	0.00189324 	-0.245904
0.0109365 	0.00134999 	0.00195066 	-0.245084
0.0109365 	0.00134999 	0.00195066 	-0.245084
0.0109866 	0.00142726 	0.00200991 	-0.244399
0.0109866 	0.00142726 	0.00200991 	-0.244399
0.0110368 	0.00149375 	0.00207 	-0.243775
0.011087 	0.0015573 	0.00208944 	-0.24318
0.011087 	0.0015573 	0.00208944 	-0.24318
0.0111371 	0.0016166 	0.00204991 	-0.24263
0.0111873 	0.00167757 	0.00199709 	-0.242064
0.0111873 	0.00167757 	0.00199709 	-0.242064
0.0112375 	0.00174675 	0.00187912 	-0.241426
0.0112876 	0.00181592 	0.00176115 	-0.240788
0.0112876 	0.00181592 	0.00176115 	-0.240788
0.0113378 	0.00189118 	0.00172314 	-0.239787
0.011388 	0.00196663 	0.00168757 	-0.238776
0.011388 	0.00196663 	0.00168757 	-0.238776
0.0114883 	0.00211322 	0.00181136 	-0.236243
0.0114883 	0.00211322 	0.00181136 	-0.236243
0.0115385 	0.00218716 	0.00188011 	-0.235022
0.0115886 	0.0022615 	0.00194731 	-0.233835
0.0115886 	0.0022615 	0.00194731 	-0.233835
0.0116388 	0.0023359 	0.00196668 	-0.232764
0.011689 	0.00241034 	0.00195448 	-0.231771
0.011689 	0.00241034 	0.00195448 	-0.231771
0.0117391 	0.00248126 	0.00191513 	-0.230826
0.0117893 	0.00254934 	0.00185396 	-0.229921
0.0117893 	0.00254934 	0.00185396 	-0.229921
0.0118395 	0.00261551 	0.00180843 	-0.229005
0.0118896 	0.00268006 	0.00177613 	-0.228082
0.0118896 	0.00268006 	0.00177613 	-0.228082
0.0119398 	0.00274466 	0.00175792 	-0.227128
0.0119398 	0.00274466 	0.00175792 	-0.227128
0.01199 	0.0028093 	0.00175056 	-0.226152
0.01199 	0.0028093 	0.00175056 	-0.226152
0.0120401 	0.00287364 	0.00174903 	-0.225147
0.0120401 	0.00287364 	0.00174903 	-0.225147
0.0120903 	0.00293779 	0.00175103 	-0.224124
0.0120903 	0.00293779 	0.00175103 	-0.224124
0.0121405 	0.00300009 	0.00174102 	-0.223078
0.0121405 	0.00300009 	0.00174102 	-0.223078
0.0121906 	0.00306166 	0.00172625 	-0.222024
0.0121906 	0.00306166 	0.00172625 	-0.222024
0.0122408 	0.00312137 	0.00168119 	-0.220944
0.0122408 	0.00312137 	0.00168119 	-0.220944
0.012291 	0.00318074 	0.00163042 	-0.219858
0.012291 	0.00318074 	0.00163042 	-0.219858
0.0123411 	0.00324022 	0.00157391 	-0.218698
0.0123411 	0.00324022 	0.00157391 	-0.218698
0.0123913 	0.00329986 	0.00152329 	-0.217516
0.0123913 	0.00329986 	0.00152329 	-0.217516
0.0124415 	0.00336018 	0.00149743 	-0.216241
0.0124916 	0.00342066 	0.0014855 	-0.214933
0.0124916 	0.00342066 	0.0014855 	-0.214933
0.012592 	0.00354091 	0.00149918 	-0.212215
0.012592 	0.00354091 	0.00149918 	-0.212215
0.0126421 	0.00359985 	0.00150435 	-0.210844
0.0126923 	0.00365275 	0.00147569 	-0.209462
0.0126923 	0.00365275 	0.00147569 	-0.209462
0.0127425 	0.00370323 	0.00144112 	-0.208067
0.0127425 	0.00370323 	0.00144112 	-0.208067
0.0127926 	0.00374791 	0.0013949 	-0.206642
0.0128428 	0.00378924 	0.00135773 	-0.205177
0.0128428 	0.00378924 	0.00135773 	-0.205177
0.012893 	0.00382848 	0.00132621 	-0.203687
0.0129431 	0.00386377 	0.00129625 	-0.202125
0.0129431 	0.00386377 	0.00129625 	-0.202125
0.0129933 	0.00389733 	0.00126294 	-0.200529
0.0130435 	0.00392828 	0.00122443 	-0.198883
0.0130435 	0.00392828 	0.00122443 	-0.198883
0.0130936 	0.00395559 	0.00118646 	-0.197161
0.0131438 	0.00398092 	0.00115002 	-0.195396
0.0131438 	0.00398092 	0.00115002 	-0.195396
0.013194 	0.00400318 	0.00111718 	-0.193564
0.0132441 	0.0040217 	0.00108445 	-0.191658
0.0132441 	0.0040217 	0.00108445 	-0.191658
0.0132943 	0.00403737 	0.00105054 	-0.189702
0.0133445 	0.00404865 	0.00101354 	-0.187673
0.0133445 	0.00404865 	0.00101354 	-0.187673
0.0133946 	0.00405427 	0.000975057 	-0.185549
0.0134448 	0.00405605 	0.000935975 	-0.183353
0.0134448 	0.00405605 	0.000935975 	-0.183353
0.013495 	0.00405367 	0.000896459 	-0.181074
0.0135452 	0.00404505 	0.000855938 	-0.178639
0.0135452 	0.00404505 	0.000855938 	-0.178639
0.0136455 	0.00401513 	0.000774028 	-0.173404
0.0136455 	0.00401513 	0.000774028 	-0.173404
0.0136957 	0.00399185 	0.000733256 	-0.170548
0.0137458 	0.00395971 	0.000693105 	-0.167463
0.0137458 	0.00395971 	0.000693105 	-0.167463
0.013796 	0.00391941 	0.000652933 	-0.164187
0.0138462 	0.0038699 	0.000612498 	-0.160704
0.0138462 	0.0038699 	0.000612498 	-0.160704
0.0138963 	0.00381002 	0.00057159 	-0.156993
0.0138963 	0.00381002 	0.00057159 	-0.156993
0.0139465 	0.00373462 	0.000530897 	-0.152947
0.0139967 	0.00364567 	0.000490841 	-0.148609
0.0139967 	0.00364567 	0.000490841 	-0.148609
0.0140468 	0.00354244 	0.000451716 	-0.143958
0.0140468 	0.00354244 	0.000451716 	-0.143958
0.014097 	0.00342403 	0.000413654 	-0.138965
0.0141472 	0.0032896 	0.000376519 	-0.133598
0.0141973 	0.00313847 	0.000339778 	-0.127828
0.0141973 	0.00313847 	0.000339778 	-0.127828
0.0142475 	0.00296756 	0.000303972 	-0.121557
0.0142977 	0.00277889 	0.000269775 	-0.114823
0.0143478 	0.00257255 	0.000237668 	-0.107605
0.0143478 	0.00257255 	0.000237668 	-0.107605
0.014398 	0.00235029 	0.000207699 	-0.0998937
0.014398 	0.00235029 	0.000207699 	-0.0998937
0.0144482 	0.00211543 	0.000179336 	-0.0917086
0.0144983 	0.00187285 	0.000152352 	-0.0831064
0.0144983 	0.00187285 	0.000152352 	-0.0831064
0.0145485 	0.00162905 	0.000127028 	-0.0741854
0.0145987 	0.00139139 	0.000103539 	-0.0650777
0.0145987 	0.00139139 	0.000103539 	-0.0650777
0.0146488 	0.00116656 	8.18919e-05 	-0.0559318
0.014699 	0.000959576 	6.209e-05 	-0.0468898
0.014699 	0.000959576 	6.209e-05 	-0.0468898
0.0147492 	0.000774046 	4.41137e-05 	-0.0380725
0.0147993 	0.000614106 	2.84047e-05 	-0.0295823
0.0147993 	0.000614106 	2.84047e-05 	-0.0295823
0.0148495 	0.000487635 	1.43067e-05 	-0.0215555
0.0148495 	0.000487635 	1.43067e-05 	-0.0215555
0.0148997 	0.000385412 	4.96625e-06 	-0.0141189
0.0148997 	0.000385412 	4.96625e-06 	-0.0141189
0.0149498 	0.000243542 	9.10828e-07 	-0.00708244
0.0149498 	0.000243542 	9.10828e-07 	-0.00708244
0.015 	0 	0 	0
