-0.0075 	0 	0 	0
-0.00715932 	-0.000166826 	-3.23765e-05 	0.138638
-0.00676191 	-0.000272224 	-9.79201e-05 	0.219867
-0.00629832 	-0.000299384 	-0.000181281 	0.26897
-0.00575752 	-0.000281925 	-0.000267488 	0.301717
-0.00512667 	-0.00024926 	-0.000347504 	0.326206
-0.00439077 	-0.000217166 	-0.000414875 	0.345494
-0.00353231 	-0.000191407 	-0.000469855 	0.360569
-0.00253089 	-0.000170853 	-0.000515387 	0.371544
-0.00136271 	-0.000152157 	-0.000550583 	0.378176
0 	-0.000134404 	-0.000569985 	0.379907
0.00136271 	-0.000119839 	-0.000567692 	0.376229
0.00253089 	-0.000111263 	-0.000542868 	0.367444
0.00353231 	-0.000111371 	-0.000499289 	0.354205
0.00439077 	-0.000123113 	-0.000434877 	0.336517
0.00512667 	-0.000147706 	-0.000342834 	0.313224
0.00575752 	-0.00018007 	-0.000225216 	0.281556
0.00629832 	-0.000202411 	-0.000101652 	0.236405
0.00676191 	-0.000178564 	-1.27274e-05 	0.16593
0.00715932 	-9.21893e-05 	1.07261e-05 	0.0735844
0.0075 	0 	0 	0
