0 	0 	0 	0
5.01672e-05 	-2.45662e-05 	-4.76766e-06 	0.0204154
0.000100334 	-4.91324e-05 	-9.53531e-06 	0.0408308
0.000150502 	-7.36987e-05 	-1.4303e-05 	0.0612462
0.000200669 	-9.82649e-05 	-1.90706e-05 	0.0816616
0.000250836 	-0.000122831 	-2.38383e-05 	0.102077
0.000301003 	-0.000147397 	-2.86059e-05 	0.122492
0.000351171 	-0.000169608 	-3.41069e-05 	0.140783
0.000401338 	-0.000182913 	-4.23808e-05 	0.151037
0.000451505 	-0.000196218 	-5.06547e-05 	0.16129
0.000501672 	-0.000209523 	-5.89286e-05 	0.171544
0.000551839 	-0.000222828 	-6.72024e-05 	0.181798
0.000602007 	-0.000236133 	-7.54763e-05 	0.192052
0.000652174 	-0.000249438 	-8.37502e-05 	0.202306
0.000702341 	-0.000262743 	-9.20241e-05 	0.21256
0.000752508 	-0.000273069 	-0.000100513 	0.221394
0.000802676 	-0.000276008 	-0.000109533 	0.226708
0.000852843 	-0.000278947 	-0.000118554 	0.232021
0.00090301 	-0.000281886 	-0.000127575 	0.237335
0.000953177 	-0.000284825 	-0.000136596 	0.242649
0.00100334 	-0.000287764 	-0.000145617 	0.247962
0.00105351 	-0.000290703 	-0.000154637 	0.253276
0.00110368 	-0.000293642 	-0.000163658 	0.25859
0.00115385 	-0.000296581 	-0.000172679 	0.263904
0.00120401 	-0.000299309 	-0.000181652 	0.269111
0.00125418 	-0.000297689 	-0.000189649 	0.272149
0.00130435 	-0.000296069 	-0.000197646 	0.275187
0.00135452 	-0.00029445 	-0.000205644 	0.278225
0.00140468 	-0.00029283 	-0.000213641 	0.281262
0.00145485 	-0.000291211 	-0.000221638 	0.2843
0.00150502 	-0.000289591 	-0.000229635 	0.287338
0.00155518 	-0.000287972 	-0.000237632 	0.290376
0.00160535 	-0.000286352 	-0.000245629 	0.293413
0.00165552 	-0.000284733 	-0.000253626 	0.296451
0.00170569 	-0.000283113 	-0.000261623 	0.299489
0.00175585 	-0.000281233 	-0.000269185 	0.302236
0.00180602 	-0.000278635 	-0.000275548 	0.304183
0.00185619 	-0.000276037 	-0.000281911 	0.306131
0.00190635 	-0.00027344 	-0.000288274 	0.308078
0.00195652 	-0.000270842 	-0.000294637 	0.310026
0.00200669 	-0.000268244 	-0.000301 	0.311973
0.00205686 	-0.000265647 	-0.000307363 	0.313921
0.00210702 	-0.000263049 	-0.000313726 	0.315868
0.00215719 	-0.000260451 	-0.00032009 	0.317816
0.00220736 	-0.000257854 	-0.000326453 	0.319763
0.00225753 	-0.000255256 	-0.000332816 	0.321711
0.00230769 	-0.000252658 	-0.000339179 	0.323658
0.00235786 	-0.000250061 	-0.000345542 	0.325606
0.00240803 	-0.000247747 	-0.000350681 	0.327116
0.00245819 	-0.000245559 	-0.000355273 	0.328431
0.00250836 	-0.000243371 	-0.000359866 	0.329745
0.00255853 	-0.000241183 	-0.000364459 	0.33106
0.0026087 	-0.000238995 	-0.000369052 	0.332375
0.00265886 	-0.000236807 	-0.000373644 	0.33369
0.00270903 	-0.000234619 	-0.000378237 	0.335005
0.0027592 	-0.000232432 	-0.00038283 	0.33632
0.00280936 	-0.000230244 	-0.000387423 	0.337635
0.00285953 	-0.000228056 	-0.000392015 	0.33895
0.0029097 	-0.000225868 	-0.000396608 	0.340264
0.00295987 	-0.00022368 	-0.000401201 	0.341579
0.00301003 	-0.000221492 	-0.000405794 	0.342894
0.0030602 	-0.000219304 	-0.000410386 	0.344209
0.00311037 	-0.000217132 	-0.000414948 	0.345514
0.00316054 	-0.000215627 	-0.000418161 	0.346395
0.0032107 	-0.000214121 	-0.000421374 	0.347276
0.00326087 	-0.000212616 	-0.000424587 	0.348157
0.00331104 	-0.000211111 	-0.0004278 	0.349038
0.0033612 	-0.000209605 	-0.000431013 	0.349919
0.00341137 	-0.0002081 	-0.000434225 	0.3508
0.00346154 	-0.000206595 	-0.000437438 	0.351681
0.00351171 	-0.000205089 	-0.000440651 	0.352562
0.00356187 	-0.000203584 	-0.000443864 	0.353443
0.00361204 	-0.000202079 	-0.000447077 	0.354324
0.00366221 	-0.000200573 	-0.00045029 	0.355205
0.00371237 	-0.000199068 	-0.000453503 	0.356086
0.00376254 	-0.000197563 	-0.000456716 	0.356966
0.00381271 	-0.000196057 	-0.000459929 	0.357847
0.00386288 	-0.000194552 	-0.000463142 	0.358728
0.00391304 	-0.000193047 	-0.000466355 	0.359609
0.00396321 	-0.000191541 	-0.000469568 	0.36049
0.00401338 	-0.000190469 	-0.000471932 	0.36107
0.00406355 	-0.00018944 	-0.000474213 	0.361619
0.00411371 	-0.00018841 	-0.000476494 	0.362169
0.00416388 	-0.00018738 	-0.000478775 	0.362719
0.00421405 	-0.000186351 	-0.000481056 	0.363269
0.00426421 	-0.000185321 	-0.000483337 	0.363819
0.00431438 	-0.000184291 	-0.000485618 	0.364369
0.00436455 	-0.000183262 	-0.000487899 	0.364918
0.00441472 	-0.000182232 	-0.00049018 	0.365468
0.00446488 	-0.000181202 	-0.000492461 	0.366018
0.00451505 	-0.000180173 	-0.000494742 	0.366568
0.00456522 	-0.000179143 	-0.000497023 	0.367118
0.00461538 	-0.000178113 	-0.000499304 	0.367668
0.00466555 	-0.000177083 	-0.000501585 	0.368217
0.00471572 	-0.000176054 	-0.000503866 	0.368767
0.00476589 	-0.000175024 	-0.000506147 	0.369317
0.00481605 	-0.000173994 	-0.000508428 	0.369867
0.00486622 	-0.000172965 	-0.000510709 	0.370417
0.00491639 	-0.000171935 	-0.00051299 	0.370967
0.00496656 	-0.000170905 	-0.000515271 	0.371516
0.00501672 	-0.000170091 	-0.000516822 	0.371815
0.00506689 	-0.000169288 	-0.000518333 	0.372099
0.00511706 	-0.000168485 	-0.000519845 	0.372384
0.00516722 	-0.000167682 	-0.000521356 	0.372669
0.00521739 	-0.000166879 	-0.000522868 	0.372954
0.00526756 	-0.000166077 	-0.000524379 	0.373239
0.00531773 	-0.000165274 	-0.000525891 	0.373523
0.00536789 	-0.000164471 	-0.000527402 	0.373808
0.00541806 	-0.000163668 	-0.000528914 	0.374093
0.00546823 	-0.000162865 	-0.000530425 	0.374378
0.00551839 	-0.000162062 	-0.000531937 	0.374663
0.00556856 	-0.000161259 	-0.000533448 	0.374947
0.00561873 	-0.000160456 	-0.00053496 	0.375232
0.0056689 	-0.000159653 	-0.000536471 	0.375517
0.00571906 	-0.00015885 	-0.000537983 	0.375802
0.00576923 	-0.000158048 	-0.000539494 	0.376087
0.0058194 	-0.000157245 	-0.000541006 	0.376371
0.00586957 	-0.000156442 	-0.000542517 	0.376656
0.00591973 	-0.000155639 	-0.000544029 	0.376941
0.0059699 	-0.000154836 	-0.00054554 	0.377226
0.00602007 	-0.000154033 	-0.000547052 	0.377511
0.00607023 	-0.00015323 	-0.000548563 	0.377795
0.0061204 	-0.000152427 	-0.000550075 	0.37808
0.00617057 	-0.000151723 	-0.000551057 	0.378218
0.00622074 	-0.00015107 	-0.000551772 	0.378282
0.0062709 	-0.000150416 	-0.000552486 	0.378346
0.00632107 	-0.000149763 	-0.0005532 	0.378409
0.00637124 	-0.000149109 	-0.000553914 	0.378473
0.0064214 	-0.000148456 	-0.000554628 	0.378537
0.00647157 	-0.000147802 	-0.000555343 	0.378601
0.00652174 	-0.000147149 	-0.000556057 	0.378664
0.00657191 	-0.000146495 	-0.000556771 	0.378728
0.00662207 	-0.000145842 	-0.000557485 	0.378792
0.00667224 	-0.000145188 	-0.0005582 	0.378855
0.00672241 	-0.000144534 	-0.000558914 	0.378919
0.00677258 	-0.000143881 	-0.000559628 	0.378983
0.00682274 	-0.000143227 	-0.000560342 	0.379047
0.00687291 	-0.000142574 	-0.000561057 	0.37911
0.00692308 	-0.00014192 	-0.000561771 	0.379174
0.00697324 	-0.000141267 	-0.000562485 	0.379238
0.00702341 	-0.000140613 	-0.000563199 	0.379301
0.00707358 	-0.00013996 	-0.000563914 	0.379365
0.00712375 	-0.000139306 	-0.000564628 	0.379429
0.00717391 	-0.000138652 	-0.000565342 	0.379493
0.00722408 	-0.000137999 	-0.000566056 	0.379556
0.00727425 	-0.000137345 	-0.000566771 	0.37962
0.00732441 	-0.000136692 	-0.000567485 	0.379684
0.00737458 	-0.000136038 	-0.000568199 	0.379747
0.00742475 	-0.000135385 	-0.000568913 	0.379811
0.00747492 	-0.000134731 	-0.000569628 	0.379875
0.00752508 	-0.000134136 	-0.000569942 	0.379839
0.00757525 	-0.0001336 	-0.000569858 	0.379704
0.00762542 	-0.000133064 	-0.000569774 	0.379568
0.00767559 	-0.000132528 	-0.000569689 	0.379433
0.00772575 	-0.000131991 	-0.000569605 	0.379297
0.00777592 	-0.000131455 	-0.000569521 	0.379162
0.00782609 	-0.000130919 	-0.000569436 	0.379027
0.00787625 	-0.000130383 	-0.000569352 	0.378891
0.00792642 	-0.000129846 	-0.000569267 	0.378756
0.00797659 	-0.00012931 	-0.000569183 	0.37862
0.00802676 	-0.000128774 	-0.000569099 	0.378485
0.00807692 	-0.000128238 	-0.000569014 	0.37835
0.00812709 	-0.000127702 	-0.00056893 	0.378214
0.00817726 	-0.000127165 	-0.000568845 	0.378079
0.00822742 	-0.000126629 	-0.000568761 	0.377943
0.00827759 	-0.000126093 	-0.000568677 	0.377808
0.00832776 	-0.000125557 	-0.000568592 	0.377673
0.00837793 	-0.00012502 	-0.000568508 	0.377537
0.00842809 	-0.000124484 	-0.000568424 	0.377402
0.00847826 	-0.000123948 	-0.000568339 	0.377266
0.00852843 	-0.000123412 	-0.000568255 	0.377131
0.0085786 	-0.000122876 	-0.00056817 	0.376996
0.00862876 	-0.000122339 	-0.000568086 	0.37686
0.00867893 	-0.000121803 	-0.000568002 	0.376725
0.0087291 	-0.000121267 	-0.000567917 	0.376589
0.00877926 	-0.000120731 	-0.000567833 	0.376454
0.00882943 	-0.000120194 	-0.000567748 	0.376319
0.0088796 	-0.000119715 	-0.000567334 	0.376102
0.00892977 	-0.000119347 	-0.000566268 	0.375725
0.00897993 	-0.000118978 	-0.000565202 	0.375347
0.0090301 	-0.00011861 	-0.000564135 	0.37497
0.00908027 	-0.000118242 	-0.000563069 	0.374593
0.00913043 	-0.000117873 	-0.000562003 	0.374216
0.0091806 	-0.000117505 	-0.000560937 	0.373838
0.00923077 	-0.000117137 	-0.000559871 	0.373461
0.00928094 	-0.000116769 	-0.000558805 	0.373084
0.0093311 	-0.0001164 	-0.000557739 	0.372707
0.00938127 	-0.000116032 	-0.000556673 	0.372329
0.00943144 	-0.000115664 	-0.000555607 	0.371952
0.00948161 	-0.000115296 	-0.000554541 	0.371575
0.00953177 	-0.000114927 	-0.000553475 	0.371198
0.00958194 	-0.000114559 	-0.000552409 	0.37082
0.00963211 	-0.000114191 	-0.000551343 	0.370443
0.00968227 	-0.000113822 	-0.000550277 	0.370066
0.00973244 	-0.000113454 	-0.00054921 	0.369689
0.00978261 	-0.000113086 	-0.000548144 	0.369311
0.00983278 	-0.000112718 	-0.000547078 	0.368934
0.00988294 	-0.000112349 	-0.000546012 	0.368557
0.00993311 	-0.000111981 	-0.000544946 	0.36818
0.00998328 	-0.000111613 	-0.00054388 	0.367802
0.0100334 	-0.000111264 	-0.000542757 	0.36741
0.0100836 	-0.000111269 	-0.000540574 	0.366747
0.0101338 	-0.000111274 	-0.000538391 	0.366084
0.0101839 	-0.00011128 	-0.000536208 	0.365421
0.0102341 	-0.000111285 	-0.000534025 	0.364757
0.0102843 	-0.000111291 	-0.000531842 	0.364094
0.0103344 	-0.000111296 	-0.000529658 	0.363431
0.0103846 	-0.000111301 	-0.000527475 	0.362768
0.0104348 	-0.000111307 	-0.000525292 	0.362104
0.0104849 	-0.000111312 	-0.000523109 	0.361441
0.0105351 	-0.000111318 	-0.000520926 	0.360778
0.0105853 	-0.000111323 	-0.000518743 	0.360115
0.0106355 	-0.000111328 	-0.00051656 	0.359451
0.0106856 	-0.000111334 	-0.000514376 	0.358788
0.0107358 	-0.000111339 	-0.000512193 	0.358125
0.010786 	-0.000111345 	-0.00051001 	0.357462
0.0108361 	-0.00011135 	-0.000507827 	0.356798
0.0108863 	-0.000111355 	-0.000505644 	0.356135
0.0109365 	-0.000111361 	-0.000503461 	0.355472
0.0109866 	-0.000111366 	-0.000501278 	0.354809
0.0110368 	-0.000111432 	-0.000498953 	0.354112
0.011087 	-0.000112119 	-0.000495189 	0.353079
0.0111371 	-0.000112805 	-0.000491425 	0.352045
0.0111873 	-0.000113491 	-0.000487661 	0.351011
0.0112375 	-0.000114177 	-0.000483897 	0.349978
0.0112876 	-0.000114863 	-0.000480132 	0.348944
0.0113378 	-0.00011555 	-0.000476368 	0.347911
0.011388 	-0.000116236 	-0.000472604 	0.346877
0.0114381 	-0.000116922 	-0.00046884 	0.345843
0.0114883 	-0.000117608 	-0.000465076 	0.34481
0.0115385 	-0.000118294 	-0.000461311 	0.343776
0.0115886 	-0.000118981 	-0.000457547 	0.342742
0.0116388 	-0.000119667 	-0.000453783 	0.341709
0.011689 	-0.000120353 	-0.000450019 	0.340675
0.0117391 	-0.000121039 	-0.000446255 	0.339642
0.0117893 	-0.000121726 	-0.000442491 	0.338608
0.0118395 	-0.000122412 	-0.000438726 	0.337574
0.0118896 	-0.000123098 	-0.000434962 	0.336541
0.0119398 	-0.000124752 	-0.000428744 	0.334965
0.01199 	-0.000126428 	-0.00042247 	0.333377
0.0120401 	-0.000128105 	-0.000416195 	0.33179
0.0120903 	-0.000129781 	-0.00040992 	0.330202
0.0121405 	-0.000131458 	-0.000403646 	0.328614
0.0121906 	-0.000133134 	-0.000397371 	0.327026
0.0122408 	-0.000134811 	-0.000391097 	0.325438
0.012291 	-0.000136487 	-0.000384822 	0.32385
0.0123411 	-0.000138164 	-0.000378547 	0.322262
0.0123913 	-0.00013984 	-0.000372273 	0.320674
0.0124415 	-0.000141517 	-0.000365998 	0.319086
0.0124916 	-0.000143193 	-0.000359724 	0.317498
0.0125418 	-0.00014487 	-0.000353449 	0.31591
0.012592 	-0.000146546 	-0.000347174 	0.314322
0.0126421 	-0.000148499 	-0.00033995 	0.312448
0.0126923 	-0.000151073 	-0.000330597 	0.309929
0.0127425 	-0.000153647 	-0.000321244 	0.307411
0.0127926 	-0.00015622 	-0.00031189 	0.304893
0.0128428 	-0.000158794 	-0.000302537 	0.302374
0.012893 	-0.000161368 	-0.000293183 	0.299856
0.0129431 	-0.000163942 	-0.00028383 	0.297337
0.0129933 	-0.000166515 	-0.000274477 	0.294819
0.0130435 	-0.000169089 	-0.000265123 	0.292301
0.0130936 	-0.000171663 	-0.00025577 	0.289782
0.0131438 	-0.000174236 	-0.000246417 	0.287264
0.013194 	-0.00017681 	-0.000237063 	0.284746
0.0132441 	-0.000179384 	-0.00022771 	0.282227
0.0132943 	-0.00018159 	-0.00021681 	0.278484
0.0133445 	-0.000183663 	-0.000205347 	0.274296
0.0133946 	-0.000185735 	-0.000193885 	0.270107
0.0134448 	-0.000187808 	-0.000182422 	0.265919
0.013495 	-0.00018988 	-0.00017096 	0.26173
0.0135452 	-0.000191953 	-0.000159497 	0.257542
0.0135953 	-0.000194025 	-0.000148035 	0.253354
0.0136455 	-0.000196098 	-0.000136572 	0.249165
0.0136957 	-0.00019817 	-0.00012511 	0.244977
0.0137458 	-0.000200243 	-0.000113647 	0.240788
0.013796 	-0.000202315 	-0.000102185 	0.2366
0.0138462 	-0.000199951 	-9.24765e-05 	0.229133
0.0138963 	-0.00019737 	-8.28535e-05 	0.221507
0.0139465 	-0.000194789 	-7.32306e-05 	0.21388
0.0139967 	-0.000192209 	-6.36077e-05 	0.206254
0.0140468 	-0.000189628 	-5.39848e-05 	0.198628
0.014097 	-0.000187048 	-4.43618e-05 	0.191001
0.0141472 	-0.000184467 	-3.47389e-05 	0.183375
0.0141973 	-0.000181886 	-2.5116e-05 	0.175748
0.0142475 	-0.000179306 	-1.5493e-05 	0.168122
0.0142977 	-0.000170794 	-1.06177e-05 	0.157623
0.0143478 	-0.000159891 	-7.65701e-06 	0.145966
0.014398 	-0.000148987 	-4.69636e-06 	0.134309
0.0144482 	-0.000138084 	-1.73571e-06 	0.122651
0.0144983 	-0.00012718 	1.22494e-06 	0.110994
0.0145485 	-0.000116277 	4.18559e-06 	0.0993369
0.0145987 	-0.000105373 	7.14624e-06 	0.0876796
0.0146488 	-9.44696e-05 	1.01069e-05 	0.0760224
0.014699 	-8.1453e-05 	9.47692e-06 	0.0650148
0.0147492 	-6.78775e-05 	7.89743e-06 	0.054179
0.0147993 	-5.4302e-05 	6.31795e-06 	0.0433432
0.0148495 	-4.07265e-05 	4.73846e-06 	0.0325074
0.0148997 	-2.7151e-05 	3.15897e-06 	0.0216716
0.0149498 	-1.35755e-05 	1.57949e-06 	0.0108358
0.015 	0 	0 	0
