0 	0 	0 	0
5.01672e-05 	0.000212139 	-3.22203e-06 	0.0159591
0.000100334 	0.000115425 	-5.31125e-06 	0.0310742
0.000150502 	-6.02268e-05 	-6.38443e-06 	0.0450621
0.000200669 	-0.000168642 	-5.85102e-06 	0.057879
0.000250836 	-0.000209859 	-4.63816e-06 	0.0696624
0.000301003 	-0.000207183 	-2.8918e-06 	0.0805345
0.000351171 	-0.000172027 	-8.11657e-07 	0.0905813
0.000401338 	-0.000111917 	1.48979e-06 	0.0998683
0.000451505 	-3.26927e-05 	3.95878e-06 	0.108448
0.000501672 	6.09842e-05 	6.56931e-06 	0.116367
0.000551839 	0.000165436 	9.27614e-06 	0.123674
0.000602007 	0.000277753 	1.20216e-05 	0.130419
0.000652174 	0.000395583 	1.47691e-05 	0.136653
0.000702341 	0.000517047 	1.75039e-05 	0.142429
0.000752508 	0.000640726 	2.02054e-05 	0.147797
0.000802676 	0.000765586 	2.28176e-05 	0.152803
0.000852843 	0.000890566 	2.52451e-05 	0.15744
0.00090301 	0.00101467 	2.75169e-05 	0.161794
0.000953177 	0.00113727 	2.96652e-05 	0.165896
0.00100334 	0.0012579 	3.17115e-05 	0.169769
0.00105351 	0.00137623 	3.36708e-05 	0.173437
0.00110368 	0.00149196 	3.55529e-05 	0.176914
0.00115385 	0.00160399 	3.73703e-05 	0.180172
0.00120401 	0.00171307 	3.91691e-05 	0.183282
0.00125418 	0.00181921 	4.09624e-05 	0.186258
0.00130435 	0.00192245 	4.27635e-05 	0.189109
0.00135452 	0.00202185 	4.46089e-05 	0.191812
0.00140468 	0.00211792 	4.65437e-05 	0.194398
0.00145485 	0.00221131 	4.85576e-05 	0.196893
0.00150502 	0.00230216 	5.06495e-05 	0.199304
0.00155518 	0.00238914 	5.28433e-05 	0.201592
0.00160535 	0.00247366 	5.5103e-05 	0.20381
0.00165552 	0.00255588 	5.74331e-05 	0.205965
0.00170569 	0.00263461 	5.98964e-05 	0.208035
0.00175585 	0.00271004 	6.25229e-05 	0.210035
0.00180602 	0.00278309 	6.5263e-05 	0.211986
0.00185619 	0.00285249 	6.81687e-05 	0.213867
0.00190635 	0.00291848 	7.12028e-05 	0.215688
0.00195652 	0.00298233 	7.43232e-05 	0.21747
0.00200669 	0.00304238 	7.76107e-05 	0.219186
0.00205686 	0.00309968 	8.10725e-05 	0.220858
0.00210702 	0.00315517 	8.46512e-05 	0.2225
0.00215719 	0.00320623 	8.86227e-05 	0.224073
0.00220736 	0.00325554 	9.2783e-05 	0.225623
0.00225753 	0.00330205 	9.72456e-05 	0.227134
0.00230769 	0.00334507 	0.000102103 	0.228602
0.00235786 	0.00338657 	0.00010713 	0.230053
0.00240803 	0.00342321 	0.000112657 	0.231452
0.00245819 	0.00345809 	0.00011832 	0.232833
0.00250836 	0.0034894 	0.000124256 	0.234178
0.00255853 	0.00351761 	0.000130309 	0.235491
0.0026087 	0.00354363 	0.000136446 	0.23678
0.00265886 	0.00356577 	0.000142442 	0.238019
0.00270903 	0.00358698 	0.000148406 	0.239247
0.0027592 	0.00360414 	0.000154136 	0.240407
0.00280936 	0.00362074 	0.000159923 	0.241556
0.00285953 	0.00363435 	0.000166007 	0.242648
0.0029097 	0.00364686 	0.000172295 	0.243722
0.00295987 	0.0036566 	0.000179093 	0.244751
0.00301003 	0.00366441 	0.000186115 	0.24576
0.0030602 	0.00366901 	0.000193506 	0.246737
0.00311037 	0.00367077 	0.000201059 	0.247694
0.00316054 	0.00366881 	0.000208822 	0.248626
0.0032107 	0.00366373 	0.0002168 	0.249539
0.00326087 	0.00365495 	0.000225033 	0.250428
0.00331104 	0.00364392 	0.000233566 	0.251297
0.0033612 	0.00363008 	0.000242472 	0.25214
0.00341137 	0.00361542 	0.000251418 	0.252964
0.00346154 	0.00359948 	0.000260424 	0.253758
0.00351171 	0.00358358 	0.000269257 	0.254537
0.00356187 	0.00356774 	0.000277709 	0.255283
0.00361204 	0.00355205 	0.000286108 	0.25602
0.00366221 	0.00353698 	0.000294282 	0.256721
0.00371237 	0.00352192 	0.000302465 	0.25742
0.00376254 	0.00350725 	0.000310919 	0.258078
0.00381271 	0.00349257 	0.000319372 	0.258736
0.00386288 	0.00347776 	0.00032807 	0.25936
0.00391304 	0.00346292 	0.000336818 	0.259977
0.00396321 	0.00344795 	0.000345582 	0.26057
0.00401338 	0.00343287 	0.000354356 	0.261147
0.00406355 	0.00341773 	0.000363088 	0.261711
0.00411371 	0.00340247 	0.000371727 	0.262249
0.00416388 	0.00338721 	0.000380366 	0.262786
0.00421405 	0.00337173 	0.000388715 	0.263286
0.00426421 	0.00335625 	0.000397062 	0.263786
0.00431438 	0.00334069 	0.000405189 	0.264262
0.00436455 	0.00332508 	0.000413187 	0.264725
0.00441472 	0.0033095 	0.000421151 	0.265179
0.00446488 	0.00329405 	0.000429001 	0.265607
0.00451505 	0.00327859 	0.000436851 	0.266034
0.00456522 	0.00326349 	0.000444813 	0.266435
0.00461538 	0.00324847 	0.000452806 	0.266829
0.00466555 	0.00323359 	0.000460864 	0.267213
0.00471572 	0.00321902 	0.000469082 	0.267575
0.00476589 	0.00320445 	0.0004773 	0.267937
0.00481605 	0.00319 	0.000485544 	0.268277
0.00486622 	0.00317558 	0.000493795 	0.268609
0.00491639 	0.00316113 	0.000502011 	0.268936
0.00496656 	0.00314651 	0.000510059 	0.26924
0.00501672 	0.0031319 	0.000518107 	0.269544
0.00506689 	0.00311705 	0.000525993 	0.269833
0.00511706 	0.003102 	0.000533747 	0.270111
0.00516722 	0.00308696 	0.000541501 	0.270389
0.00521739 	0.00307146 	0.000548993 	0.270646
0.00526756 	0.0030559 	0.000556448 	0.2709
0.00531773 	0.00304024 	0.000563856 	0.27115
0.00536789 	0.00302409 	0.00057101 	0.271382
0.00541806 	0.00300794 	0.000578164 	0.271613
0.00546823 	0.00299153 	0.000585199 	0.271837
0.00551839 	0.00297473 	0.000592042 	0.272047
0.00556856 	0.00295792 	0.000598886 	0.272258
0.00561873 	0.00294071 	0.000605551 	0.272458
0.0056689 	0.0029232 	0.000612078 	0.272649
0.00571906 	0.00290568 	0.000618604 	0.272841
0.00576923 	0.00288766 	0.000624909 	0.27302
0.0058194 	0.0028694 	0.000631114 	0.273193
0.00586957 	0.00285114 	0.000637319 	0.273367
0.00591973 	0.00283229 	0.000643266 	0.273528
0.0059699 	0.00281327 	0.000649135 	0.273684
0.00602007 	0.00279425 	0.000655005 	0.273841
0.00607023 	0.0027746 	0.00066059 	0.273985
0.0061204 	0.00275479 	0.000666102 	0.274126
0.00617057 	0.00273499 	0.000671613 	0.274267
0.00622074 	0.00271457 	0.000676843 	0.274397
0.0062709 	0.00269397 	0.000681986 	0.274523
0.00632107 	0.00267337 	0.000687129 	0.274649
0.00637124 	0.00265223 	0.000692021 	0.274765
0.0064214 	0.00263083 	0.000696797 	0.274876
0.00647157 	0.00260943 	0.000701573 	0.274987
0.00652174 	0.00258759 	0.000706149 	0.275091
0.00657191 	0.00256539 	0.000710558 	0.275189
0.00662207 	0.0025432 	0.000714967 	0.275286
0.00667224 	0.00252072 	0.000719245 	0.275378
0.00672241 	0.00249774 	0.000723281 	0.275462
0.00677258 	0.00247475 	0.000727317 	0.275545
0.00682274 	0.00245169 	0.000731317 	0.275627
0.00687291 	0.00242796 	0.000734983 	0.275696
0.00692308 	0.00240424 	0.00073865 	0.275766
0.00697324 	0.00238051 	0.000742317 	0.275835
0.00702341 	0.00235617 	0.000745703 	0.275893
0.00707358 	0.00233166 	0.000749015 	0.275948
0.00712375 	0.00230716 	0.000752327 	0.276002
0.00717391 	0.00228204 	0.000755492 	0.276052
0.00722408 	0.00225608 	0.000758456 	0.276093
0.00727425 	0.00223012 	0.000761419 	0.276135
0.00732441 	0.00220416 	0.000764383 	0.276176
0.00737458 	0.00217645 	0.000767092 	0.276208
0.00742475 	0.00214873 	0.000769799 	0.27624
0.00747492 	0.002121 	0.000772506 	0.276272
0.00752508 	0.00209246 	0.000775077 	0.2763
0.00757525 	0.00206308 	0.000777514 	0.276324
0.00762542 	0.00203371 	0.000779951 	0.276349
0.00767559 	0.00200432 	0.000782386 	0.276373
0.00772575 	0.00197314 	0.000784645 	0.276387
0.00777592 	0.00194195 	0.000786903 	0.276401
0.00782609 	0.00191077 	0.000789162 	0.276415
0.00787625 	0.00187891 	0.000791431 	0.276421
0.00792642 	0.00184657 	0.000793708 	0.276421
0.00797659 	0.00181424 	0.000795984 	0.276421
0.00802676 	0.00178179 	0.000798253 	0.276418
0.00807692 	0.00174897 	0.000800496 	0.276402
0.00812709 	0.00171614 	0.000802739 	0.276387
0.00817726 	0.00168331 	0.000804981 	0.276371
0.00822742 	0.00165005 	0.000807161 	0.276342
0.00827759 	0.00161675 	0.000809333 	0.276311
0.00832776 	0.00158344 	0.000811506 	0.27628
0.00837793 	0.00154979 	0.000813635 	0.27624
0.00842809 	0.00151595 	0.000815742 	0.276194
0.00847826 	0.00148211 	0.000817848 	0.276149
0.00852843 	0.00144801 	0.000819921 	0.276096
0.0085786 	0.0014136 	0.000821953 	0.276036
0.00862876 	0.0013792 	0.000823986 	0.275976
0.00867893 	0.0013446 	0.000825988 	0.275911
0.0087291 	0.00130959 	0.000827926 	0.275837
0.00877926 	0.00127459 	0.000829863 	0.275762
0.00882943 	0.00123943 	0.000831771 	0.275685
0.0088796 	0.00120379 	0.000833583 	0.275596
0.00892977 	0.00116815 	0.000835394 	0.275508
0.00897993 	0.00113237 	0.000837183 	0.275417
0.0090301 	0.00109605 	0.000838887 	0.275315
0.00908027 	0.00105973 	0.000840591 	0.275214
0.00913043 	0.00102324 	0.000842284 	0.275109
0.0091806 	0.000986187 	0.000843941 	0.274996
0.00923077 	0.000949139 	0.000845598 	0.274882
0.00928094 	0.000911866 	0.000847249 	0.274764
0.0093311 	0.000874092 	0.000848884 	0.274638
0.00938127 	0.000836318 	0.000850519 	0.274512
0.00943144 	0.000798296 	0.00085214 	0.27438
0.00948161 	0.000759958 	0.000853743 	0.274241
0.00953177 	0.00072162 	0.000855345 	0.274103
0.00958194 	0.000683202 	0.000856964 	0.273955
0.00963211 	0.000644735 	0.000858594 	0.273803
0.00968227 	0.000606268 	0.000860223 	0.27365
0.00973244 	0.000568291 	0.000861899 	0.273483
0.00978261 	0.000530402 	0.000863583 	0.273314
0.00983278 	0.000492686 	0.000865266 	0.273143
0.00988294 	0.000456174 	0.000866943 	0.272955
0.00993311 	0.000419662 	0.000868619 	0.272768
0.00998328 	0.000384071 	0.00087031 	0.272572
0.0100334 	0.000349601 	0.000872018 	0.272366
0.0100836 	0.000315131 	0.000873725 	0.27216
0.0101338 	0.000282696 	0.00087538 	0.271939
0.0101839 	0.000250696 	0.000877024 	0.271714
0.0102341 	0.00021936 	0.000878589 	0.271485
0.0102843 	0.00019009 	0.000879907 	0.271243
0.0103344 	0.00016082 	0.000881226 	0.271001
0.0103846 	0.00013365 	0.000882347 	0.270747
0.0104348 	0.000107344 	0.000883385 	0.270488
0.0104849 	8.17461e-05 	0.000884319 	0.270225
0.0105351 	5.86882e-05 	0.000884875 	0.269948
0.0105853 	3.56303e-05 	0.000885432 	0.269671
0.0106355 	1.52848e-05 	0.000885355 	0.269381
0.0106856 	-4.2554e-06 	0.00088509 	0.269087
0.0107358 	-2.2439e-05 	0.000884605 	0.268785
0.010786 	-3.82883e-05 	0.000883738 	0.268473
0.0108361 	-5.41127e-05 	0.000882869 	0.26816
0.0108863 	-6.60427e-05 	0.000881624 	0.267828
0.0109365 	-7.79728e-05 	0.000880378 	0.267496
0.0109866 	-8.6811e-05 	0.000879552 	0.26715
0.0110368 	-9.42389e-05 	0.000878918 	0.266799
0.011087 	-9.94089e-05 	0.000878661 	0.266439
0.0111371 	-0.000101303 	0.000878951 	0.266067
0.0111873 	-0.000102065 	0.000879095 	0.265691
0.0112375 	-9.72815e-05 	0.000878516 	0.265296
0.0112876 	-9.24976e-05 	0.000877936 	0.264902
0.0113378 	-8.03794e-05 	0.000875054 	0.26448
0.011388 	-6.80362e-05 	0.0008721 	0.264058
0.0114381 	-4.91575e-05 	0.000866787 	0.263608
0.0114883 	-2.87438e-05 	0.000860919 	0.263151
0.0115385 	-2.76491e-06 	0.000854442 	0.262664
0.0115886 	2.57443e-05 	0.000847688 	0.262164
0.0116388 	5.89789e-05 	0.0008418 	0.261634
0.011689 	9.53315e-05 	0.000836482 	0.261084
0.0117391 	0.000135835 	0.000831128 	0.260504
0.0117893 	0.000179677 	0.000825745 	0.2599
0.0118395 	0.000227122 	0.000819609 	0.259265
0.0118896 	0.000277611 	0.000812838 	0.258603
0.0119398 	0.00033108 	0.000805532 	0.257906
0.01199 	0.00038684 	0.000797815 	0.257183
0.0120401 	0.000444972 	0.000789612 	0.256418
0.0120903 	0.000504538 	0.000781116 	0.255629
0.0121405 	0.000566011 	0.000772186 	0.25479
0.0121906 	0.000628243 	0.000763084 	0.253931
0.0122408 	0.000692192 	0.000753633 	0.253012
0.012291 	0.000756465 	0.000744117 	0.252081
0.0123411 	0.000822515 	0.000734183 	0.251075
0.0123913 	0.000888875 	0.000724098 	0.250054
0.0124415 	0.000956544 	0.000713375 	0.248969
0.0124916 	0.00102482 	0.000702206 	0.247847
0.0125418 	0.00109394 	0.000690408 	0.246676
0.012592 	0.00116393 	0.00067815 	0.24544
0.0126421 	0.00123436 	0.000665667 	0.244172
0.0126923 	0.00130586 	0.000652922 	0.242803
0.0127425 	0.00137763 	0.000640086 	0.241398
0.0127926 	0.00145002 	0.000627034 	0.239909
0.0128428 	0.00152276 	0.000613739 	0.238346
0.012893 	0.00159574 	0.000600291 	0.236738
0.0129431 	0.00166929 	0.000586417 	0.235005
0.0129933 	0.00174308 	0.000572355 	0.233219
0.0130435 	0.00181724 	0.000558009 	0.231354
0.0130936 	0.0018917 	0.000543259 	0.229374
0.0131438 	0.00196621 	0.000528278 	0.227329
0.013194 	0.0020407 	0.000512927 	0.225178
0.0132441 	0.00211479 	0.000497117 	0.222905
0.0132943 	0.0021883 	0.000481031 	0.220549
0.0133445 	0.00226066 	0.000464593 	0.218069
0.0133946 	0.00232982 	0.000447922 	0.215437
0.0134448 	0.00239575 	0.000431071 	0.212692
0.013495 	0.00245763 	0.000414014 	0.20982
0.0135452 	0.00251136 	0.000396582 	0.206723
0.0135953 	0.00255954 	0.000378938 	0.203469
0.0136455 	0.00260195 	0.000361074 	0.200043
0.0136957 	0.00263734 	0.000342946 	0.196398
0.0137458 	0.00266413 	0.000324529 	0.192478
0.013796 	0.0026833 	0.000305885 	0.188331
0.0138462 	0.00269381 	0.000287022 	0.183939
0.0138963 	0.00269444 	0.000267962 	0.179283
0.0139465 	0.00267996 	0.000248751 	0.174244
0.0139967 	0.00265205 	0.000229517 	0.16888
0.0140468 	0.0026094 	0.000210327 	0.163173
0.014097 	0.00255027 	0.000191225 	0.157093
0.0141472 	0.00247298 	0.000172236 	0.150609
0.0141973 	0.0023762 	0.000153388 	0.143688
0.0142475 	0.00225675 	0.000134804 	0.13622
0.0142977 	0.00211948 	0.000116659 	0.128248
0.0143478 	0.0019672 	9.9285e-05 	0.11975
0.014398 	0.00180328 	8.3102e-05 	0.110705
0.0144482 	0.00163198 	6.84042e-05 	0.101113
0.0144983 	0.00145853 	5.51814e-05 	0.0910225
0.0145485 	0.00128845 	4.32967e-05 	0.0805529
0.0145987 	0.00112603 	3.27556e-05 	0.0698947
0.0146488 	0.000972576 	2.36276e-05 	0.0592912
0.014699 	0.00082433 	1.59619e-05 	0.048996
0.0147492 	0.000669271 	9.88563e-06 	0.0392171
0.0147993 	0.000481606 	5.4514e-06 	0.0300755
0.0148495 	0.000211973 	2.66489e-06 	0.0215942
0.0148997 	-0.0001253 	1.17127e-06 	0.0137342
0.0149498 	-0.000285132 	1.7798e-07 	0.00650494
0.015 	0 	0 	0
