-0.0075 	373
-0.00715932 	361.42
-0.00676191 	359.615
-0.00629832 	358.889
-0.00575752 	358.439
-0.00512667 	358.083
-0.00439077 	357.762
-0.00353231 	357.449
-0.00253089 	357.127
-0.00136271 	356.778
0 	356.391
0.00136271 	355.968
0.00253089 	355.522
0.00353231 	355.064
0.00439077 	354.577
0.00512667 	354.022
0.00575752 	353.319
0.00629832 	352.278
0.00676191 	350.035
0.00715932 	338.693
0.0075 	313
