-0.0075 	373
-0.00715932 	361.479
-0.00676191 	359.683
-0.00629832 	358.961
-0.00575752 	358.512
-0.00512667 	358.158
-0.00439077 	357.838
-0.00353231 	357.526
-0.00253089 	357.204
-0.00136271 	356.855
0 	356.469
0.00136271 	356.045
0.00253089 	355.6
0.00353231 	355.141
0.00439077 	354.653
0.00512667 	354.098
0.00575752 	353.394
0.00629832 	352.352
0.00676191 	350.106
0.00715932 	338.744
0.0075 	313
