/*--------------------------------*- C++ -*----------------------------------*\
| =========                 |                                                 |
| \\      /  F ield         | OpenFOAM: The Open Source CFD Toolbox           |
|  \\    /   O peration     | Version:  v1906                                 |
|   \\  /    A nd           | Web:      www.OpenFOAM.com                      |
|    \\/     M anipulation  |                                                 |
\*---------------------------------------------------------------------------*/
FoamFile
{
    version     2.0;
    format      ascii;
    class       volScalarField;
    location    "97.2";
    object      alphat;
}
// * * * * * * * * * * * * * * * * * * * * * * * * * * * * * * * * * * * * * //

dimensions      [1 -1 -1 0 0 0 0];


internalField   nonuniform List<scalar> 
630
(
2.10782e-08
8.2758e-09
1.83285e-08
2.39699e-08
2.73271e-08
1.02358e-08
2.27262e-08
3.33675e-08
2.34431e-07
6.85075e-08
1.85041e-07
2.95061e-07
1.65491e-06
4.6776e-07
1.30739e-06
2.03065e-06
7.06131e-06
2.01659e-06
5.62539e-06
8.39851e-06
2.126e-05
6.30511e-06
1.71236e-05
2.45289e-05
5.00819e-05
1.57748e-05
4.0834e-05
5.61958e-05
9.87101e-05
3.35227e-05
8.14597e-05
0.00010798
0.00017037
6.28801e-05
0.00014214
0.000182004
0.000265871
0.000106886
0.00022387
0.000277702
0.000383906
0.00016783
0.000325678
0.000392408
0.000521876
0.000246983
0.000445163
0.000522473
0.000677281
0.000344583
0.000579493
0.000664794
0.000848152
0.000460002
0.000726677
0.000803567
0.00103241
0.000591979
0.000884592
0.000947454
0.00122818
0.000738838
0.00105136
0.00109644
0.00143376
0.000898632
0.00122532
0.00124906
0.00164756
0.00106941
0.00140501
0.00140384
0.00186808
0.00124937
0.00158912
0.00155934
0.00209389
0.00143655
0.00177646
0.00171452
0.00232359
0.00162901
0.00196591
0.00186898
0.00255585
0.00182482
0.00215648
0.00202248
0.00278936
0.00202209
0.00234719
0.00217291
0.003024
0.00221883
0.00253723
0.0023134
0.00325886
0.00241356
0.00272598
0.00243308
0.00349309
0.00260624
0.0029129
0.00252839
0.00372584
0.00279742
0.00309724
0.00262093
0.00395629
0.00298729
0.00327804
0.00276149
0.00418374
0.00317601
0.00345437
0.00299885
0.00440823
0.00336355
0.00362572
0.00331579
0.0046296
0.00354996
0.00379186
0.00350196
0.00484772
0.0037353
0.00395262
0.00363504
0.00506242
0.0039197
0.0041034
0.00376509
0.00527375
0.00410333
0.00389808
0.00389284
0.0054817
0.00428641
0.00350864
0.00401918
0.00515269
0.00446921
0.00338097
0.00414618
0.00429771
0.00465199
0.00394515
0.00427694
0.00375011
0.00483488
0.00480889
0.00441537
0.00416991
0.00501783
0.00493746
0.00456591
0.00628812
0.00520062
0.00505725
0.00473293
0.00667525
0.00538283
0.00516926
0.00491908
0.00685833
0.00556412
0.00527018
0.00512487
0.00702625
0.00553891
0.00535721
0.00535093
0.00718024
0.00460227
0.00542943
0.00559866
0.00731621
0.00376204
0.00392631
0.00586907
0.00743157
0.00374752
0.00225205
0.00616256
0.00752432
0.00535452
0.0016068
0.00647881
0.00759282
0.00671341
0.0020597
0.00681654
0.00763536
0.00691809
0.00537482
0.00717348
0.0053145
0.00711277
0.00541053
0.00754676
0.00297753
0.00730353
0.00545428
0.00793329
0.00206525
0.00748401
0.00551519
0.00832985
0.0026892
0.00765149
0.0055887
0.00873314
0.00743476
0.00780382
0.00567045
0.00913974
0.00753815
0.00793956
0.00576245
0.00954646
0.00764918
0.00742593
0.00586749
0.00995038
0.00778685
0.00426004
0.00599081
0.0103486
0.00794815
0.00266541
0.00613762
0.0107385
0.00812732
0.00239735
0.00630407
0.0111174
0.00832833
0.00425666
0.00647868
0.011483
0.00855916
0.00865566
0.0066563
0.0118196
0.0088307
0.00889544
0.00683662
0.0121254
0.00915948
0.00912382
0.0070202
0.0123985
0.0095362
0.00939089
0.00720768
0.0126402
0.00992682
0.00969323
0.00739847
0.0128492
0.010318
0.009999
0.00759078
0.013025
0.0107096
0.0102966
0.00778295
0.0131667
0.0110984
0.0105874
0.00797284
0.0132735
0.0114802
0.0108686
0.00815789
0.0133448
0.0118488
0.0111344
0.00833521
0.0133618
0.0121949
0.0113767
0.00850175
0.0133218
0.0125072
0.0115835
0.00865439
0.0132227
0.0127728
0.0117381
0.00879
0.0130834
0.0129751
0.0118307
0.00890565
0.0129428
0.01312
0.0118386
0.00899886
0.0128141
0.0132518
0.00848227
0.00906251
0.0105734
0.00711999
0.0041868
0.00909351
0.00781838
0.00491505
0.00237097
0.0090916
0.0121125
0.0132461
0.00274822
3.75659e-09
2.04651e-09
8.98937e-09
5.48147e-09
8.71205e-09
7.2715e-09
2.01902e-08
1.28327e-08
1.15976e-07
1.13638e-07
2.56768e-07
1.66613e-07
8.4398e-07
8.35241e-07
1.81704e-06
1.18887e-06
3.65386e-06
3.63596e-06
7.60401e-06
5.03654e-06
1.13585e-05
1.13925e-05
2.26635e-05
1.52576e-05
2.80671e-05
2.84267e-05
5.33431e-05
3.66001e-05
5.84665e-05
5.98216e-05
0.000105486
7.38588e-05
0.000106643
0.000110114
0.00018261
0.000130507
0.000174991
0.000181941
0.000285087
0.000207827
0.000263737
0.000275376
0.000410594
0.000304907
0.000371215
0.000388216
0.000555208
0.000419308
0.000494537
0.000516857
0.000714724
0.000547892
0.00063038
0.000657237
0.000885882
0.00068752
0.000775953
0.000799357
0.00105934
0.000822263
0.00092916
0.000931533
0.00123012
0.00096038
0.00108793
0.00106561
0.00140546
0.00110427
0.00124469
0.00120156
0.00158433
0.0012532
0.00139456
0.00133851
0.00176573
0.0014065
0.00154402
0.00147569
0.0019487
0.00156361
0.00169326
0.00161255
0.0021326
0.0017241
0.00184284
0.00174892
0.00231717
0.00188772
0.00199384
0.001885
0.0025025
0.0020544
0.00214685
0.00202099
0.00268855
0.00222415
0.00229873
0.00215504
0.002875
0.00239682
0.00243913
0.00228443
0.00306137
0.00257122
0.00255359
0.00241091
0.00324311
0.00274636
0.0026395
0.00253465
0.0034114
0.00292241
0.00271818
0.0026555
0.00355697
0.00309879
0.00283918
0.00277356
0.00367979
0.00327554
0.00305871
0.00288925
0.00380235
0.00345372
0.00338634
0.00300288
0.00397626
0.00363458
0.00369033
0.00311389
0.00427156
0.00381823
0.00383307
0.00322093
0.00472366
0.00400346
0.00394249
0.00332284
0.00524365
0.0041887
0.00370418
0.00341886
0.00549056
0.00437314
0.00323676
0.00350854
0.00560649
0.00455713
0.00281673
0.00359364
0.00536404
0.00474157
0.00283173
0.00367877
0.00498689
0.00492615
0.00359198
0.00376661
0.00478745
0.00510862
0.00476527
0.00385539
0.00517585
0.00528684
0.00490935
0.00394369
0.0063
0.00546029
0.00504556
0.00403372
0.00716266
0.00562897
0.00517644
0.00412822
0.00740613
0.00579178
0.00530089
0.00422321
0.0076419
0.00594861
0.00541809
0.00430266
0.00781677
0.00610985
0.00455719
0.00435297
0.00810041
0.00631242
0.00309731
0.00438318
0.00835559
0.00663132
0.00233149
0.00441081
0.00855272
0.00715891
0.00265884
0.00444057
0.00873668
0.00790778
0.00582159
0.00447033
0.00892579
0.00860818
0.00592114
0.00450943
0.00910109
0.00874676
0.00602008
0.0045865
0.00926096
0.00885772
0.00613614
0.00474476
0.00941057
0.00894076
0.00626747
0.0050019
0.00955199
0.00899458
0.00639783
0.00527952
0.00968734
0.00901789
0.00651321
0.00540699
0.00981969
0.00901005
0.00661692
0.00538996
0.00994844
0.00897102
0.00669822
0.00537197
0.0100704
0.00890541
0.00673
0.00536241
0.0101847
0.00881192
0.00678587
0.00536304
0.0102914
0.00870423
0.00684852
0.0053708
0.0103896
0.00858659
0.00689161
0.00538223
0.0104775
0.0084651
0.00688983
0.00523809
0.0105501
0.0083465
0.00682618
0.0047632
0.0105977
0.00823984
0.00670206
0.00438133
0.0106107
0.00813486
0.00655013
0.00442747
0.0105963
0.00802455
0.00643265
0.00481147
0.0106125
0.00790544
0.0064134
0.00505635
0.0107735
0.00777786
0.00650887
0.00493549
0.0111698
0.00764447
0.00663274
0.00472286
0.0117949
0.00751207
0.00659395
0.00460748
0.0119469
0.00738688
0.00626334
0.00463357
0.0119091
0.00727522
0.00578466
0.00471968
0.0118615
0.00718457
0.00544573
0.00455795
0.0118063
0.00713439
0.00543114
0.00440142
0.0117507
0.00714175
0.0057948
0.00427595
0.0116991
0.00719484
0.00633782
0.00421991
0.0116544
0.00729301
0.00622226
0.00427424
0.011621
0.00744391
)
;

boundaryField
{
    leftWall
    {
        type            compressible::alphatWallFunction;
        Prt             0.85;
        value           uniform 0;
    }
    rightWall
    {
        type            compressible::alphatWallFunction;
        Prt             0.85;
        value           nonuniform 0();
    }
    leftSides_periodic0
    {
        type            cyclic;
    }
    leftSides_periodic1
    {
        type            cyclic;
    }
    rightSides_periodic0
    {
        type            cyclic;
    }
    rightSides_periodic1
    {
        type            cyclic;
    }
    leftInOut_periodic0
    {
        type            cyclic;
    }
    leftInOut_periodic1
    {
        type            cyclic;
    }
    rightInOut_periodic0
    {
        type            cyclic;
    }
    rightInOut_periodic1
    {
        type            cyclic;
    }
    procBoundary0to1
    {
        type            processor;
        value           nonuniform List<scalar> 
11
(
0.0090579
0.00297288
0.0032246
0.0090579
0.0110489
0.0090579
0.00297288
0.00614024
0.00445494
0.0116018
0.0076519
)
;
    }
    procBoundary0to1throughleftInOut_periodic1
    {
        type            processorCyclic;
        value           uniform 0.00297288;
    }
    procBoundary0to2
    {
        type            processor;
        value           nonuniform List<scalar> 
316
(
5.57185e-09
1.36196e-09
2.65324e-09
7.91433e-09
2.3145e-08
4.09223e-09
1.21405e-08
1.79235e-08
3.64765e-07
6.00586e-08
1.96916e-07
2.22232e-07
2.58195e-06
4.44284e-07
1.41952e-06
1.54895e-06
1.06111e-05
1.95951e-06
5.97909e-06
6.3942e-06
3.07958e-05
6.22621e-06
1.78877e-05
1.87564e-05
7.01406e-05
1.57292e-05
4.21171e-05
4.32915e-05
0.00013375
3.34219e-05
8.30119e-05
8.37216e-05
0.000223143
6.19682e-05
0.000142827
0.000141602
0.000336316
0.000103015
0.00022123
0.000216062
0.000456485
0.000156853
0.000315786
0.000304411
0.000580094
0.00022254
0.000405751
0.000389708
0.000713578
0.000298324
0.00050345
0.000478845
0.000853346
0.000370765
0.000606468
0.000572362
0.00099784
0.000447868
0.000713552
0.000669781
0.00114672
0.000529017
0.000824342
0.000770542
0.00129977
0.0006142
0.000938816
0.000873998
0.00145666
0.000703671
0.00105699
0.000979479
0.00161726
0.000797594
0.00117873
0.00108643
0.0017827
0.000895818
0.00130381
0.00119438
0.00195487
0.000998049
0.00143041
0.00130296
0.00213284
0.00110368
0.0015531
0.00141184
0.00230626
0.001212
0.00166351
0.00152079
0.00245327
0.00132375
0.00176398
0.00163003
0.00255836
0.00144384
0.00188679
0.00174088
0.00266102
0.00158179
0.00207778
0.00185585
0.00286003
0.00174376
0.00237258
0.00197634
0.00319516
0.00191377
0.00268044
0.00209693
0.00362215
0.00203812
0.00281699
0.00220071
0.00398355
0.00210243
0.00295262
0.00226962
0.00416043
0.00217187
0.00283232
0.00231513
0.00433537
0.00233853
0.00231017
0.0023925
0.00449995
0.00261779
0.00217985
0.0025628
0.00333929
0.00296277
0.00247697
0.0028309
0.00307978
0.0031524
0.00310949
0.00295084
0.00367212
0.00332245
0.00381991
0.00303445
0.00485619
0.00349953
0.00396835
0.00311965
0.00545319
0.00326547
0.00409913
0.0032086
0.00561231
0.00309769
0.00422756
0.00330526
0.00576862
0.00346003
0.00435354
0.00341637
0.00592451
0.00415082
0.00447594
0.00354989
0.00607885
0.00449689
0.00459448
0.00370997
0.00623086
0.00470176
0.00470959
0.00389465
0.00638005
0.00490974
0.00482039
0.00410324
0.00652616
0.00511935
0.00492615
0.00433797
0.00666913
0.00532897
0.00502631
0.00460048
0.00680914
0.00553788
0.00511975
0.00489152
0.00694673
0.0057469
0.00520602
0.00521082
0.00708276
0.0059565
0.00528443
0.00555708
0.00721776
0.0061662
0.00535409
0.00592797
0.00735125
0.00637552
0.00541406
0.00632029
0.00748245
0.00658399
0.00546886
0.00673002
0.00761108
0.00679119
0.00552027
0.0071524
0.00773697
0.00699675
0.00556918
0.00758192
0.00785985
0.00720036
0.00561657
0.0080122
0.00797936
0.00740424
0.00566218
0.00843597
0.00809497
0.00760962
0.00570321
0.00884491
0.00820602
0.00781704
0.00574038
0.00923165
0.00831164
0.00802728
0.00577804
0.00958319
0.00840981
0.00824187
0.00581918
0.00989505
0.00851585
0.00846035
0.00586658
0.0101774
0.00863807
0.00868033
0.00592363
0.0057721
0.00877549
0.00890286
0.00598991
0.00326162
0.00892796
0.00912893
0.00606663
0.00262031
0.00909602
0.00935958
0.0061568
0.00823454
0.00927941
0.00959607
0.00626231
0.00531072
0.00947664
0.0098394
0.00638165
0.00856596
0.00968631
0.0100893
0.00651356
0.0121259
0.00990704
0.0103454
0.00665726
0.0121049
0.0101373
0.0106068
0.00681133
0.0120147
0.010375
0.0108721
0.00697357
0.0119128
0.0106174
0.0111396
0.00713771
0.00835504
0.0108614
0.011407
0.007302
0.00410955
0.0111034
0.0116705
0.00746521
0.00237603
0.0113349
0.0119265
0.00763001
0.00256144
0.0115522
0.0121748
0.00779983
0.00890777
0.0117524
0.0124143
0.00796771
0.00731525
0.0119289
0.0126454
0.00812643
0.010897
0.0120806
0.0128713
0.0082716
0.011617
)
;
    }
    procBoundary0to2throughleftSides_periodic0
    {
        type            processorCyclic;
        value           nonuniform List<scalar> 
314
(
4.04996e-09
6.79206e-09
5.78735e-08
3.93724e-07
1.66689e-06
5.1249e-06
1.26038e-05
2.62702e-05
4.8203e-05
7.9997e-05
0.000122536
0.000175974
0.000239888
0.000313105
0.000386003
0.000465988
0.000552607
0.000645869
0.000746082
0.000854476
0.00097456
0.00111017
0.0012606
0.00142147
0.00158934
0.00176342
0.00194446
0.0021329
0.00232913
0.00253337
0.00274441
0.00294155
0.00313718
0.00333258
0.00352675
0.00371954
0.00391078
0.00410068
0.0042886
0.00447297
0.00465271
0.00482647
0.004993
0.00515108
0.00529947
0.00543702
0.0055626
0.00567523
0.00577538
0.00586504
0.00594703
0.00602614
0.00611018
0.00619843
0.00628691
0.00637476
0.00646249
0.00655088
0.00663893
0.00672136
0.00678785
0.00683476
0.00686375
0.0068769
0.00687643
0.00686382
0.00683923
0.00680224
0.00674961
0.00667803
0.0065887
0.00648385
0.00636537
0.00623543
0.00610444
0.00597821
0.00586195
0.00575932
0.00567049
1.13203e-08
1.56988e-08
1.09563e-07
7.31593e-07
3.065e-06
9.24873e-06
2.21447e-05
4.46984e-05
7.92385e-05
0.000127054
0.000188354
0.000262504
0.000348375
0.000437613
0.000533312
0.0006381
0.000752643
0.000877398
0.0010129
0.0011598
0.00131904
0.00148995
0.00166727
0.00183094
0.00199036
0.00215272
0.00231764
0.00248474
0.00265358
0.00282377
0.00299485
0.00316638
0.00333784
0.00350869
0.00367834
0.00384622
0.00401176
0.00417443
0.00433372
0.00448902
0.0046395
0.00478416
0.00492181
0.00505107
0.0051702
0.00527691
0.00537305
0.00545857
0.00553182
0.0055942
0.00564612
0.00568677
0.00571517
0.00573044
0.00573199
0.00571973
0.00569443
0.00565853
0.00559313
0.00556024
0.00553248
0.00548019
0.00542042
0.00535391
0.0052814
0.00520487
0.00512701
0.00505139
0.00498062
0.00491691
0.00486304
0.0048214
0.00479369
0.00478084
0.00478284
0.00480056
0.00483524
0.00488767
0.00497668
1.16797e-08
2.13141e-08
2.29526e-07
1.6004e-06
6.66597e-06
1.97522e-05
4.61212e-05
9.0411e-05
0.000155339
0.000241317
0.000346936
0.000466816
0.000588951
0.000722038
0.000865112
0.0010184
0.00118225
0.00135685
0.00154223
0.0017387
0.00194822
0.00217566
0.00242128
0.00267514
0.00292892
0.00318136
0.00343503
0.00367713
0.00391727
0.00415979
0.00440434
0.00465055
0.004898
0.00514611
0.00539408
0.00564104
0.00588594
0.0061277
0.00636506
0.00659671
0.00682113
0.00703678
0.00724417
0.00744335
0.00763542
0.00782299
0.00801108
0.00820602
0.008405
0.00860224
0.00879561
0.00897702
0.00915161
0.0093341
0.00527254
0.00412702
0.00557453
0.00926397
0.0103036
0.0104999
0.0106785
0.010843
0.0109974
0.0111419
0.0112752
0.0113957
0.0115018
0.0115916
0.0116637
0.0117194
0.0117609
0.0117915
0.0118128
0.0118264
0.011834
0.0118369
0.0118373
0.0118357
1.09156e-08
1.79869e-08
1.63228e-07
1.10832e-06
4.59092e-06
1.3673e-05
3.23654e-05
6.46939e-05
0.000113687
0.000180774
0.000265775
0.000367343
0.000483534
0.000610003
0.000738621
0.000876011
0.00102247
0.00117816
0.00134272
0.00151567
0.00169651
0.00188464
0.00207945
0.00228027
0.00248646
0.00269747
0.00291279
0.00313228
0.00335683
0.00358642
0.00381952
0.00405363
0.00428697
0.00451961
0.00475302
0.00498868
0.00522699
0.00546831
0.00571776
0.0059933
0.00630082
0.00661214
0.00690707
0.00718869
0.00744711
0.00766941
0.00787754
0.00806895
0.00824109
0.00839145
0.00851762
0.00861735
0.00868863
0.00872973
0.00873929
0.00871636
0.00866044
0.00857163
0.00844683
0.00828277
0.00807518
0.00782922
0.00756055
0.00727479
0.00697629
0.00666821
0.00635409
0.00603573
0.00571702
0.00541675
0.00514352
0.00490909
0.00473105
0.00463239
0.00463005
0.004717
0.00486388
0.00504733
)
;
    }
}


// ************************************************************************* //
