/*--------------------------------*- C++ -*----------------------------------*\
| =========                 |                                                 |
| \\      /  F ield         | OpenFOAM: The Open Source CFD Toolbox           |
|  \\    /   O peration     | Version:  v1906                                 |
|   \\  /    A nd           | Web:      www.OpenFOAM.com                      |
|    \\/     M anipulation  |                                                 |
\*---------------------------------------------------------------------------*/
FoamFile
{
    version     2.0;
    format      ascii;
    class       volScalarField;
    location    "97.2";
    object      p_rgh;
}
// * * * * * * * * * * * * * * * * * * * * * * * * * * * * * * * * * * * * * //

dimensions      [1 -1 -2 0 0 0 0];


internalField   nonuniform List<scalar> 
630
(
100000
100026
100013
100008
100000
100026
100013
100009
100001
100027
100013
100009
100001
100027
100014
100010
100002
100027
100014
100010
100002
100027
100015
100011
100003
100028
100015
100011
100003
100028
100015
100011
100003
100028
100015
100011
100003
100028
100015
100011
100004
100028
100015
100011
100004
100028
100015
100011
100004
100028
100015
100011
100004
100028
100016
100011
100004
100028
100016
100011
100005
100028
100016
100011
100005
100028
100016
100011
100005
100028
100016
100011
100005
100028
100016
100011
100005
100028
100016
100011
100006
100028
100016
100011
100006
100028
100016
100011
100006
100028
100016
100011
100006
100028
100016
100011
100007
100028
100016
100011
100007
100028
100016
100011
100007
100028
100016
100011
100008
100028
100016
100011
100008
100028
100016
100010
100008
100028
100016
100010
100009
100028
100016
100010
100009
100028
100016
100010
100009
100027
100016
100010
100010
100027
100016
100010
100010
100027
100016
100010
100010
100027
100016
100010
100011
100027
100017
100009
100011
100027
100017
100009
100011
100027
100017
100009
100011
100027
100017
100009
100012
100027
100017
100009
100012
100027
100017
100009
100012
100027
100017
100009
100013
100026
100017
100008
100013
100026
100017
100008
100013
100026
100017
100008
100014
100026
100017
100008
100014
100026
100017
100008
100014
100026
100017
100007
100015
100026
100017
100007
100015
100026
100017
100007
100015
100026
100017
100007
100015
100026
100017
100007
100015
100025
100017
100006
100016
100025
100017
100006
100016
100025
100017
100006
100016
100025
100018
100006
100016
100025
100018
100005
100016
100025
100018
100005
100017
100025
100018
100005
100017
100025
100018
100004
100017
100025
100018
100004
100017
100025
100018
100004
100017
100025
100018
100004
100017
100024
100018
100003
100018
100024
100018
100003
100018
100024
100018
100003
100018
100024
100018
100002
100018
100024
100018
100002
100018
100024
100018
100002
100018
100024
100018
100001
100018
100024
100018
100001
100018
100024
100018
100001
100018
100024
100018
100001
100018
100023
100018
100000
100018
100023
100018
100000
100018
100023
100018
99999.9
100018
100023
100018
99999.9
100018
100023
100344
100314
100351
100305
100344
100315
100352
100306
100345
100316
100353
100307
100346
100317
100355
100308
100347
100317
100356
100309
100348
100318
100357
100310
100348
100319
100357
100311
100349
100319
100358
100311
100349
100320
100358
100312
100350
100320
100358
100312
100350
100320
100359
100312
100350
100321
100359
100313
100350
100321
100359
100313
100350
100321
100359
100313
100350
100321
100359
100313
100350
100321
100359
100313
100351
100321
100359
100314
100351
100322
100359
100314
100351
100322
100359
100314
100351
100322
100359
100314
100351
100322
100359
100314
100351
100322
100358
100314
100351
100322
100358
100315
100350
100323
100358
100315
100350
100323
100358
100315
100350
100323
100358
100315
100350
100323
100358
100316
100350
100323
100358
100316
100350
100324
100357
100316
100350
100324
100357
100316
100350
100324
100357
100317
100350
100324
100357
100317
100350
100325
100357
100317
100350
100325
100356
100318
100350
100325
100356
100318
100349
100325
100356
100318
100349
100326
100355
100319
100349
100326
100355
100319
100349
100326
100355
100319
100349
100326
100354
100320
100349
100327
100354
100320
100349
100327
100354
100321
100348
100327
100353
100321
100348
100328
100353
100322
100348
100328
100353
100322
100348
100328
100352
100322
100348
100328
100352
100323
100348
100329
100351
100323
100347
100329
100351
100324
100347
100329
100350
100324
100347
100330
100350
100325
100347
100330
100349
100326
100347
100330
100349
100326
100347
100331
100348
100327
100346
100331
100348
100328
100346
100331
100347
100328
100346
100332
100347
100329
100346
100332
100346
100329
100346
100332
100346
100330
100345
100333
100345
100331
100345
100333
100345
100331
100345
100333
100344
100332
100345
100334
100344
100332
100345
100334
100343
100333
100345
100334
100342
100333
100344
100335
100342
100334
100344
100335
100342
100335
100344
100335
100341
100335
100344
100336
100341
100335
100344
100336
100340
100336
100344
100336
100340
100336
100344
100337
100339
100337
100344
100337
100339
100337
100343
100337
100338
100338
100343
100338
100338
100338
100343
100338
100338
100339
100343
100338
100337
100339
100343
100338
100337
100339
100343
100339
100337
100340
)
;

boundaryField
{
    leftWall
    {
        type            fixedFluxPressure;
        gradient        nonuniform List<scalar> 8(-8535.76 -18116.2 -5849.92 -18061.1 -8313.79 -25140.9 -10112.9 -23204.8);
        value           nonuniform List<scalar> 8(99999.8 100343 100026 100314 100013 100351 100008 100304);
    }
    rightWall
    {
        type            fixedFluxPressure;
        gradient        nonuniform 0();
        value           nonuniform 0();
    }
    leftSides_periodic0
    {
        type            cyclic;
    }
    leftSides_periodic1
    {
        type            cyclic;
    }
    rightSides_periodic0
    {
        type            cyclic;
    }
    rightSides_periodic1
    {
        type            cyclic;
    }
    leftInOut_periodic0
    {
        type            cyclic;
    }
    leftInOut_periodic1
    {
        type            cyclic;
    }
    rightInOut_periodic0
    {
        type            cyclic;
    }
    rightInOut_periodic1
    {
        type            cyclic;
    }
    procBoundary0to1
    {
        type            processor;
        value           nonuniform List<scalar> 
11
(
100018
99999.9
100018
100018
100023
100018
99999.9
100343
100339
100336
100340
)
;
    }
    procBoundary0to1throughleftInOut_periodic1
    {
        type            processorCyclic;
        value           uniform 99999.9;
    }
    procBoundary0to2
    {
        type            processor;
        value           nonuniform List<scalar> 
316
(
100319
100092
100314
100098
100321
100093
100316
100101
100323
100094
100318
100103
100325
100095
100319
100105
100327
100096
100321
100107
100328
100097
100322
100108
100330
100098
100323
100110
100331
100099
100324
100111
100331
100100
100325
100112
100332
100101
100326
100113
100332
100102
100326
100113
100332
100102
100326
100113
100332
100103
100326
100114
100332
100104
100327
100114
100332
100104
100327
100115
100332
100104
100327
100115
100332
100105
100327
100115
100331
100105
100327
100116
100331
100106
100326
100116
100331
100106
100326
100117
100330
100107
100326
100117
100330
100107
100326
100117
100330
100108
100326
100118
100329
100108
100325
100118
100328
100109
100325
100119
100328
100109
100325
100119
100327
100110
100324
100120
100326
100110
100324
100120
100325
100111
100324
100121
100324
100112
100323
100121
100323
100112
100323
100122
100322
100113
100322
100122
100322
100114
100322
100123
100321
100115
100321
100124
100320
100116
100321
100124
100319
100117
100320
100125
100318
100118
100319
100126
100316
100118
100318
100127
100315
100119
100318
100127
100313
100120
100317
100128
100312
100122
100316
100129
100310
100123
100315
100130
100309
100124
100314
100131
100307
100126
100313
100132
100305
100127
100312
100133
100304
100128
100312
100134
100302
100130
100311
100135
100300
100131
100310
100136
100298
100133
100309
100137
100296
100135
100308
100139
100295
100136
100307
100140
100293
100138
100306
100142
100291
100140
100305
100143
100289
100142
100304
100145
100287
100144
100303
100147
100285
100146
100302
100148
100283
100148
100300
100150
100281
100150
100299
100152
100278
100152
100298
100155
100276
100154
100297
100157
100274
100156
100296
100159
100272
100158
100295
100161
100270
100161
100294
100162
100268
100163
100293
100163
100266
100165
100292
100164
100263
100168
100291
100165
100261
100170
100289
100167
100259
100173
100288
100170
100256
100176
100287
100173
100254
100178
100286
100176
100251
100181
100285
100178
100249
100184
100283
100180
100246
100187
100282
100182
100243
100190
100281
100184
100241
100193
100280
100185
100238
100197
100278
100185
100235
100200
100277
100186
100232
100203
100275
100188
100229
100207
100274
100190
)
;
    }
    procBoundary0to2throughleftSides_periodic0
    {
        type            processorCyclic;
        value           nonuniform List<scalar> 
314
(
99863
99864.8
99866.7
99868.5
99870.3
99872.1
99873.8
99875.2
99876.4
99877.4
99878.2
99878.8
99879.2
99879.6
99880
99880.2
99880.5
99880.7
99880.9
99881.1
99881.3
99881.5
99881.7
99881.8
99882
99882.2
99882.4
99882.5
99882.7
99882.9
99883.1
99883.3
99883.5
99883.8
99884
99884.2
99884.5
99884.7
99885
99885.3
99885.5
99885.8
99886.1
99886.4
99886.7
99887
99887.3
99887.6
99887.9
99888.2
99888.5
99888.8
99889.1
99889.4
99889.7
99890
99890.3
99890.5
99890.8
99891.1
99891.4
99891.7
99891.9
99892.2
99892.5
99892.8
99893
99893.3
99893.6
99893.8
99894.1
99894.3
99894.5
99894.7
99895
99895.2
99895.4
99895.6
99895.8
99905.5
99907.3
99909.1
99911
99912.8
99914.7
99916.3
99917.8
99918.9
99919.8
99920.5
99921
99921.3
99921.6
99921.9
99922
99922.2
99922.3
99922.3
99922.4
99922.4
99922.4
99922.4
99922.3
99922.3
99922.2
99922.1
99922.1
99922
99921.8
99921.7
99921.6
99921.4
99921.3
99921.1
99920.9
99920.7
99920.5
99920.3
99920.1
99919.9
99919.7
99919.4
99919.2
99918.9
99918.7
99918.4
99918.2
99917.9
99917.7
99917.4
99917.1
99916.9
99916.6
99916.4
99916.1
99915.9
99915.7
99915.5
99915.3
99915
99914.8
99914.6
99914.5
99914.3
99914.1
99913.9
99913.8
99913.6
99913.5
99913.4
99913.2
99913.1
99913
99912.9
99912.8
99912.7
99912.6
99912.5
99871.4
99873.8
99876.2
99878.7
99881.1
99883.3
99885.2
99886.6
99887.7
99888.5
99889.1
99889.6
99890
99890.4
99890.7
99890.9
99891.2
99891.4
99891.7
99891.9
99892.1
99892.3
99892.5
99892.8
99893
99893.2
99893.4
99893.7
99893.9
99894.2
99894.4
99894.7
99895
99895.3
99895.6
99895.9
99896.2
99896.5
99896.8
99897.2
99897.5
99897.8
99898.2
99898.5
99898.9
99899.3
99899.6
99900
99900.3
99900.7
99901.1
99901.5
99901.9
99902.1
99902.4
99902.6
99902.9
99903.3
99903.7
99904.1
99904.5
99904.9
99905.3
99905.6
99906
99906.4
99906.8
99907.1
99907.5
99907.9
99908.2
99908.6
99909
99909.3
99909.7
99910
99910.4
99910.7
99898.2
99900.5
99902.9
99905.2
99907.5
99909.7
99911.5
99913
99914.1
99915
99915.6
99916.1
99916.4
99916.7
99916.9
99917.1
99917.2
99917.3
99917.4
99917.5
99917.5
99917.5
99917.5
99917.5
99917.4
99917.4
99917.3
99917.2
99917.1
99917
99916.8
99916.6
99916.5
99916.3
99916.1
99915.8
99915.6
99915.4
99915.1
99914.8
99914.5
99914.2
99913.9
99913.5
99913.2
99912.8
99912.4
99912
99911.6
99911.2
99910.8
99910.4
99910
99909.6
99909.2
99908.8
99908.4
99908
99907.7
99907.3
99907
99906.7
99906.4
99906.1
99905.8
99905.6
99905.4
99905.2
99905
99904.8
99904.7
99904.6
99904.5
99904.4
99904.3
99904.2
99904.1
99904
)
;
    }
}


// ************************************************************************* //
