/*--------------------------------*- C++ -*----------------------------------*\
| =========                 |                                                 |
| \\      /  F ield         | OpenFOAM: The Open Source CFD Toolbox           |
|  \\    /   O peration     | Version:  v1906                                 |
|   \\  /    A nd           | Web:      www.OpenFOAM.com                      |
|    \\/     M anipulation  |                                                 |
\*---------------------------------------------------------------------------*/
FoamFile
{
    version     2.0;
    format      ascii;
    class       volScalarField;
    location    "97.2";
    object      T;
}
// * * * * * * * * * * * * * * * * * * * * * * * * * * * * * * * * * * * * * //

dimensions      [0 0 0 1 0 0 0];


internalField   nonuniform List<scalar> 
630
(
371.462
371.946
371.502
371.178
368.349
369.826
368.489
367.521
365.15
367.677
365.429
363.825
361.909
365.511
362.359
360.163
358.756
363.362
359.389
356.719
355.923
361.298
356.715
353.768
353.627
359.415
354.529
351.499
351.919
357.807
352.886
349.881
350.696
356.517
351.704
348.753
349.818
355.525
350.858
347.954
349.171
354.772
350.238
347.368
348.677
354.197
349.771
346.919
348.281
353.75
349.404
346.559
347.955
353.392
349.105
346.26
347.68
353.098
348.856
346.005
347.444
352.851
348.646
345.785
347.237
352.637
348.464
345.592
347.055
352.45
348.306
345.42
346.891
352.281
348.166
345.265
346.742
352.128
348.041
345.125
346.607
351.986
347.929
344.997
346.482
351.855
347.828
344.879
346.367
351.732
347.735
344.77
346.259
351.615
347.651
344.669
346.159
351.504
347.573
344.574
346.064
351.397
347.501
344.485
345.975
351.295
347.434
344.401
345.891
351.195
347.373
344.321
345.811
351.099
347.316
344.245
345.735
351.005
347.264
344.175
345.662
350.914
347.215
344.112
345.593
350.825
347.169
344.053
345.526
350.739
347.126
343.998
345.462
350.654
347.086
343.946
345.401
350.572
347.048
343.896
345.341
350.491
347.011
343.848
345.282
350.413
346.973
343.803
345.22
350.336
346.94
343.76
345.151
350.262
346.913
343.72
345.083
350.189
346.89
343.681
345.027
350.118
346.868
343.645
344.98
350.049
346.849
343.611
344.938
349.981
346.832
343.579
344.896
349.914
346.817
343.55
344.855
349.845
346.804
343.522
344.815
349.767
346.792
343.497
344.776
349.683
346.78
343.473
344.738
349.61
346.766
343.451
344.699
349.551
346.758
343.431
344.66
349.497
346.755
343.412
344.619
349.445
346.755
343.395
344.562
349.393
346.757
343.378
344.473
349.343
346.76
343.363
344.404
349.294
346.766
343.349
344.362
349.246
346.773
343.336
344.33
349.197
346.781
343.323
344.298
349.147
346.79
343.311
344.266
349.084
346.8
343.299
344.234
348.986
346.811
343.288
344.202
348.865
346.822
343.277
344.171
348.777
346.834
343.267
344.139
348.72
346.847
343.257
344.109
348.675
346.859
343.247
344.078
348.63
346.873
343.238
344.048
348.585
346.886
343.228
344.019
348.541
346.9
343.219
343.99
348.499
346.915
343.21
343.961
348.457
346.929
343.201
343.933
348.417
346.944
343.192
343.905
348.378
346.96
343.183
343.877
348.34
346.976
343.174
343.849
348.304
346.992
343.165
343.821
348.269
347.008
343.155
343.793
348.235
347.024
343.145
343.766
348.202
347.041
343.135
343.739
348.165
347.059
343.124
343.712
348.126
347.076
343.111
343.683
348.068
347.094
343.091
343.643
347.938
371.912
371.915
371.49
371.606
369.722
369.738
368.462
368.807
367.491
367.538
365.405
365.972
365.224
365.334
362.365
363.124
362.956
363.169
359.462
360.342
360.779
361.133
356.906
357.781
358.833
359.349
354.878
355.619
357.231
357.907
353.395
353.942
355.992
356.807
352.345
352.701
355.06
355.985
351.594
351.792
354.355
355.362
351.037
351.112
353.809
354.877
350.608
350.589
353.375
354.485
350.264
350.172
353.018
354.159
349.976
349.83
352.716
353.878
349.729
349.538
352.454
353.626
349.511
349.284
352.222
353.397
349.317
349.058
352.014
353.186
349.142
348.856
351.825
352.989
348.981
348.673
351.652
352.805
348.833
348.506
351.493
352.631
348.696
348.352
351.344
352.466
348.567
348.21
351.205
352.31
348.446
348.078
351.075
352.16
348.331
347.955
350.952
352.017
348.222
347.839
350.837
351.88
348.119
347.73
350.727
351.748
348.019
347.626
350.623
351.621
347.923
347.528
350.523
351.499
347.831
347.434
350.427
351.38
347.741
347.345
350.334
351.265
347.652
347.259
350.246
351.154
347.565
347.177
350.165
351.047
347.48
347.097
350.09
350.942
347.399
347.021
350.019
350.84
347.321
346.947
349.95
350.741
347.25
346.876
349.882
350.645
347.181
346.806
349.811
350.551
347.112
346.739
349.732
350.458
347.042
346.674
349.651
350.368
346.968
346.61
349.58
350.28
346.889
346.548
349.522
350.194
346.811
346.487
349.47
350.11
346.739
346.428
349.42
350.029
346.674
346.369
349.37
349.949
346.611
346.312
349.321
349.871
346.547
346.255
349.272
349.794
346.484
346.2
349.222
349.718
346.42
346.145
349.16
349.642
346.356
346.092
349.078
349.567
346.291
346.042
349.001
349.492
346.226
345.996
348.945
349.417
346.161
345.952
348.902
349.343
346.095
345.909
348.859
349.269
346.029
345.867
348.815
349.198
345.962
345.824
348.769
349.13
345.895
345.78
348.722
349.065
345.828
345.736
348.675
349.002
345.76
345.691
348.626
348.938
345.692
345.646
348.576
348.873
345.623
345.599
348.525
348.806
345.554
345.552
348.473
348.737
345.485
345.504
348.419
348.665
345.415
345.454
348.365
348.59
345.345
345.404
348.309
348.511
345.274
345.352
348.251
348.426
345.203
345.3
348.193
348.333
345.131
345.246
348.133
348.238
345.058
345.191
348.072
348.145
344.986
345.135
348.011
348.053
344.912
345.078
347.948
347.958
344.839
345.02
347.883
347.859
344.764
344.961
347.816
347.756
344.688
344.901
347.747
347.65
344.611
344.841
347.677
347.538
344.532
344.78
347.606
347.422
344.452
344.718
347.534
347.299
344.371
344.656
347.46
347.173
344.288
344.593
347.384
347.043
344.204
344.53
)
;

boundaryField
{
    leftWall
    {
        type            fixedValue;
        value           uniform 373;
    }
    rightWall
    {
        type            fixedValue;
        value           nonuniform 0();
    }
    leftSides_periodic0
    {
        type            cyclic;
    }
    leftSides_periodic1
    {
        type            cyclic;
    }
    rightSides_periodic0
    {
        type            cyclic;
    }
    rightSides_periodic1
    {
        type            cyclic;
    }
    leftInOut_periodic0
    {
        type            cyclic;
    }
    leftInOut_periodic1
    {
        type            cyclic;
    }
    rightInOut_periodic0
    {
        type            cyclic;
    }
    rightInOut_periodic1
    {
        type            cyclic;
    }
    procBoundary0to1
    {
        type            processor;
        value           nonuniform List<scalar> 
11
(
347.113
343.058
343.577
347.113
347.836
347.113
343.058
347.307
346.912
344.119
344.468
)
;
    }
    procBoundary0to1throughleftInOut_periodic1
    {
        type            processorCyclic;
        value           uniform 343.058;
    }
    procBoundary0to2
    {
        type            processor;
        value           nonuniform List<scalar> 
316
(
371.456
372.195
371.69
371.3
368.349
370.574
369.061
367.892
365.177
368.925
366.401
364.462
361.964
367.243
363.721
361.064
358.844
365.525
361.079
357.825
356.074
363.789
358.608
354.953
353.867
362.089
356.477
352.63
352.237
360.506
354.78
350.884
351.06
359.113
353.491
349.612
350.196
357.937
352.519
348.681
349.537
356.966
351.776
347.98
349.016
356.165
351.187
347.43
348.587
355.5
350.706
346.978
348.224
354.936
350.299
346.597
347.91
354.445
349.947
346.271
347.635
354.01
349.638
345.988
347.391
353.621
349.366
345.739
347.172
353.271
349.123
345.517
346.976
352.955
348.904
345.318
346.797
352.667
348.706
345.138
346.634
352.403
348.525
344.974
346.484
352.162
348.36
344.823
346.346
351.939
348.207
344.684
346.215
351.733
348.064
344.555
346.092
351.543
347.934
344.435
345.976
351.367
347.816
344.323
345.869
351.206
347.711
344.218
345.773
351.056
347.616
344.119
345.685
350.914
347.528
344.025
345.604
350.779
347.442
343.936
345.527
350.65
347.351
343.85
345.452
350.531
347.257
343.77
345.37
350.423
347.166
343.696
345.281
350.324
347.089
343.628
345.193
350.23
347.025
343.564
345.119
350.142
346.966
343.503
345.055
350.055
346.912
343.445
344.994
349.965
346.862
343.39
344.936
349.877
346.815
343.338
344.879
349.797
346.77
343.289
344.823
349.725
346.728
343.242
344.768
349.657
346.689
343.199
344.715
349.592
346.652
343.158
344.662
349.529
346.617
343.121
344.61
349.468
346.584
343.087
344.56
349.41
346.554
343.055
344.51
349.354
346.526
343.027
344.461
349.299
346.5
343
344.413
349.245
346.475
342.977
344.365
349.193
346.453
342.955
344.319
349.142
346.433
342.935
344.273
349.092
346.416
342.918
344.228
349.043
346.4
342.901
344.184
348.994
346.386
342.887
344.141
348.946
346.374
342.874
344.098
348.898
346.364
342.862
344.057
348.85
346.357
342.851
344.017
348.803
346.353
342.841
343.977
348.755
346.352
342.832
343.939
348.708
346.355
342.824
343.902
348.661
346.36
342.816
343.866
348.614
346.367
342.807
343.831
348.568
346.378
342.799
343.798
348.521
346.392
342.79
343.766
348.475
346.408
342.78
343.736
348.43
346.427
342.775
343.706
348.384
346.448
342.773
343.678
348.339
346.471
342.771
343.652
348.294
346.497
342.769
343.626
348.248
346.524
342.767
343.602
348.203
346.554
342.766
343.579
348.157
346.585
342.764
343.557
348.112
346.618
342.763
343.535
348.066
346.653
342.763
343.515
348.021
346.69
342.764
343.495
347.975
346.728
342.767
343.475
347.93
346.766
342.768
343.456
347.884
346.804
342.769
343.437
347.839
346.841
342.768
)
;
    }
    procBoundary0to2throughleftSides_periodic0
    {
        type            processorCyclic;
        value           nonuniform List<scalar> 
314
(
371.927
369.775
367.604
365.427
363.269
361.181
359.242
357.537
356.12
354.993
354.114
353.431
352.896
352.469
352.12
351.828
351.578
351.361
351.172
351.004
350.854
350.72
350.599
350.489
350.387
350.293
350.204
350.12
350.041
349.966
349.894
349.825
349.758
349.694
349.632
349.571
349.511
349.452
349.395
349.338
349.283
349.228
349.175
349.123
349.072
349.021
348.971
348.921
348.871
348.821
348.77
348.719
348.667
348.617
348.568
348.52
348.474
348.429
348.386
348.343
348.3
348.259
348.219
348.179
348.138
348.098
348.056
348.014
347.971
347.927
347.882
347.837
347.792
347.746
347.699
347.652
347.602
347.551
347.497
371.957
369.856
367.707
365.51
363.29
361.123
359.129
357.423
356.052
354.989
354.175
353.549
353.059
352.668
352.347
352.08
351.857
351.667
351.505
351.366
351.246
351.14
351.047
350.964
350.887
350.817
350.752
350.69
350.632
350.577
350.524
350.473
350.424
350.375
350.328
350.282
350.236
350.191
350.146
350.101
350.056
350.011
349.965
349.92
349.873
349.827
349.78
349.732
349.684
349.635
349.586
349.535
349.484
349.431
349.376
349.32
349.262
349.201
349.136
349.07
349.004
348.937
348.869
348.8
348.729
348.657
348.581
348.504
348.423
348.339
348.252
348.161
348.066
347.968
347.865
347.759
347.649
347.535
347.419
371.59
368.755
365.876
362.972
360.126
357.514
355.327
353.64
352.39
351.466
350.769
350.227
349.792
349.431
349.123
348.857
348.624
348.418
348.233
348.067
347.917
347.781
347.656
347.541
347.434
347.334
347.239
347.15
347.065
346.984
346.907
346.834
346.763
346.695
346.629
346.565
346.503
346.444
346.386
346.329
346.275
346.221
346.169
346.118
346.068
346.018
345.97
345.922
345.876
345.831
345.788
345.745
345.701
345.648
345.577
345.499
345.444
345.401
345.359
345.317
345.274
345.232
345.188
345.144
345.099
345.053
345.006
344.958
344.908
344.858
344.806
344.752
344.698
344.642
344.584
344.526
344.466
344.406
371.634
368.893
366.125
363.351
360.63
358.085
355.871
354.088
352.725
351.703
350.931
350.336
349.866
349.484
349.164
348.89
348.651
348.439
348.251
348.082
347.928
347.788
347.659
347.539
347.428
347.324
347.226
347.133
347.046
346.963
346.884
346.809
346.737
346.668
346.601
346.537
346.475
346.415
346.357
346.301
346.248
346.196
346.146
346.097
346.05
346.004
345.959
345.915
345.871
345.828
345.785
345.743
345.701
345.659
345.617
345.574
345.532
345.489
345.445
345.401
345.356
345.309
345.261
345.212
345.161
345.108
345.053
344.997
344.938
344.877
344.814
344.748
344.68
344.61
344.539
344.468
344.399
344.332
)
;
    }
}


// ************************************************************************* //
