/*--------------------------------*- C++ -*----------------------------------*\
| =========                 |                                                 |
| \\      /  F ield         | OpenFOAM: The Open Source CFD Toolbox           |
|  \\    /   O peration     | Version:  v1906                                 |
|   \\  /    A nd           | Web:      www.OpenFOAM.com                      |
|    \\/     M anipulation  |                                                 |
\*---------------------------------------------------------------------------*/
FoamFile
{
    version     2.0;
    format      ascii;
    class       volVectorField;
    location    "97.2";
    object      UMean;
}
// * * * * * * * * * * * * * * * * * * * * * * * * * * * * * * * * * * * * * //

dimensions      [0 1 -1 0 0 0 0];


internalField   nonuniform List<vector> 
630
(
(1.18771e-05 -0.000200249 -0.00722676)
(-0.000119165 -1.32785e-06 -0.00766332)
(2.59217e-06 -1.24951e-06 -0.00781344)
(0.000111709 -1.25102e-06 -0.00740508)
(4.51919e-05 0.00034685 -0.0209021)
(-0.000343101 -5.3531e-06 -0.0221123)
(-3.162e-06 -5.79254e-06 -0.0225663)
(0.00032072 -5.00339e-06 -0.0213607)
(8.20847e-05 -0.00030186 -0.0339481)
(-0.00053896 -1.54638e-05 -0.0358232)
(-1.37132e-05 -1.60721e-05 -0.0366009)
(0.000501508 -1.46942e-05 -0.0346053)
(0.00011789 0.000184203 -0.0463696)
(-0.000711574 -2.73638e-05 -0.04881)
(-2.43029e-05 -2.90401e-05 -0.049923)
(0.000658978 -2.60288e-05 -0.0471485)
(0.000151158 -8.17199e-05 -0.0581668)
(-0.000864042 -4.29186e-05 -0.0610998)
(-3.33285e-05 -4.55437e-05 -0.0625431)
(0.000796268 -4.08974e-05 -0.0590186)
(0.000182562 -1.25446e-05 -0.069355)
(-0.00100004 -6.07071e-05 -0.0727231)
(-4.13223e-05 -6.44733e-05 -0.0744851)
(0.000917261 -5.78456e-05 -0.0702539)
(0.000212731 -3.35388e-05 -0.0799537)
(-0.00112055 -8.04824e-05 -0.0837089)
(-4.88065e-05 -8.55483e-05 -0.0857763)
(0.00102326 -7.66364e-05 -0.0808912)
(0.000242223 -4.31106e-05 -0.0899783)
(-0.00122628 -0.000101921 -0.0940739)
(-5.6272e-05 -0.000108476 -0.0964358)
(0.00111533 -9.69579e-05 -0.0909552)
(0.00027141 -5.82625e-05 -0.0994336)
(-0.00131735 -0.000124856 -0.103818)
(-6.41191e-05 -0.00013294 -0.106467)
(0.0011939 -0.000118636 -0.100453)
(0.000300433 -7.17188e-05 -0.108318)
(-0.00139425 -0.000149193 -0.112932)
(-7.25021e-05 -0.000158564 -0.115868)
(0.00125973 -0.000141589 -0.109381)
(0.000329171 -8.53452e-05 -0.116636)
(-0.0014585 -0.000174724 -0.121419)
(-8.12823e-05 -0.000185308 -0.124643)
(0.00131446 -0.000165736 -0.117738)
(0.000357336 -9.955e-05 -0.124407)
(-0.00151195 -0.000201147 -0.129298)
(-9.0231e-05 -0.000213431 -0.132817)
(0.00136013 -0.000190815 -0.12554)
(0.000384671 -0.000114739 -0.131659)
(-0.00155493 -0.000228295 -0.136605)
(-9.93313e-05 -0.000242895 -0.140424)
(0.00139748 -0.000216499 -0.132815)
(0.00041117 -0.000130431 -0.138422)
(-0.00158571 -0.000256175 -0.14338)
(-0.000108948 -0.000273177 -0.147495)
(0.00142489 -0.000242738 -0.139597)
(0.000437093 -0.000145899 -0.144721)
(-0.00160176 -0.000284844 -0.149662)
(-0.00011952 -0.000303747 -0.154061)
(0.00143941 -0.000269699 -0.145919)
(0.000462771 -0.000160922 -0.150584)
(-0.00160135 -0.000314168 -0.155488)
(-0.000131233 -0.000334487 -0.160156)
(0.00143869 -0.000297409 -0.151811)
(0.000488469 -0.000175785 -0.156041)
(-0.00158434 -0.000343902 -0.160898)
(-0.000144073 -0.000365415 -0.165816)
(0.00142206 -0.000325633 -0.157308)
(0.000514302 -0.000190743 -0.161125)
(-0.00155188 -0.000373853 -0.16593)
(-0.000157934 -0.000396446 -0.171078)
(0.00139026 -0.000354117 -0.162443)
(0.000540239 -0.000205676 -0.165869)
(-0.001506 -0.00040386 -0.170623)
(-0.000172615 -0.000427461 -0.175979)
(0.00134482 -0.000382723 -0.167249)
(0.000566174 -0.000220444 -0.170308)
(-0.00144929 -0.000433791 -0.175015)
(-0.000187851 -0.000458258 -0.180558)
(0.00128781 -0.000411358 -0.171759)
(0.000591954 -0.000235305 -0.174477)
(-0.00138448 -0.00046348 -0.179141)
(-0.00020339 -0.000488611 -0.184849)
(0.00122157 -0.000439867 -0.176005)
(0.000617482 -0.000250779 -0.178411)
(-0.00131419 -0.000492719 -0.183034)
(-0.000218974 -0.000518324 -0.188885)
(0.00114852 -0.000467937 -0.180015)
(0.000642913 -0.000266202 -0.182136)
(-0.00124052 -0.00052132 -0.186726)
(-0.000234331 -0.00054732 -0.192699)
(0.00107079 -0.000495514 -0.183817)
(0.000668303 -0.000280773 -0.185677)
(-0.00116506 -0.000549156 -0.19024)
(-0.000249364 -0.000575571 -0.196318)
(0.00099033 -0.00052291 -0.187438)
(0.000693336 -0.000295327 -0.189056)
(-0.00108895 -0.0005762 -0.1936)
(-0.000264151 -0.000603166 -0.199767)
(0.000909269 -0.00055022 -0.190899)
(0.000717848 -0.000310625 -0.192294)
(-0.00101291 -0.000602273 -0.196822)
(-0.000278772 -0.000630293 -0.203066)
(0.000829717 -0.000576891 -0.194224)
(0.000742107 -0.000326028 -0.195408)
(-0.000937066 -0.000627676 -0.199924)
(-0.000293169 -0.000655961 -0.206234)
(0.000752692 -0.000602148 -0.19743)
(0.000766711 -0.000340374 -0.198407)
(-0.000861307 -0.000652755 -0.202918)
(-0.000307707 -0.00067976 -0.209284)
(0.000676865 -0.000626339 -0.200528)
(0.000791601 -0.000354164 -0.201302)
(-0.000785581 -0.000676426 -0.205818)
(-0.000323372 -0.000702979 -0.212235)
(0.00059985 -0.0006508 -0.203515)
(0.000816201 -0.000367664 -0.204104)
(-0.000710806 -0.000698192 -0.208632)
(-0.000340771 -0.000725655 -0.215093)
(0.000520177 -0.000674702 -0.206394)
(0.000840382 -0.000380813 -0.206821)
(-0.000639035 -0.000717841 -0.211366)
(-0.00035906 -0.00074742 -0.217868)
(0.000438783 -0.000694949 -0.209176)
(0.000865967 -0.000396246 -0.20946)
(-0.000570768 -0.000736755 -0.214028)
(-0.000375857 -0.000767454 -0.220563)
(0.000358171 -0.00071687 -0.211872)
(0.000895979 -0.000411741 -0.212029)
(-0.000505805 -0.000757248 -0.216628)
(-0.000390041 -0.000786119 -0.223182)
(0.000282797 -0.000743745 -0.214506)
(0.000929836 -0.000422363 -0.214532)
(-0.000441145 -0.000779172 -0.219171)
(-0.000404049 -0.000802639 -0.225724)
(0.000216708 -0.000770745 -0.217104)
(0.000962601 -0.0004285 -0.216973)
(-0.000381109 -0.000797899 -0.221686)
(-0.000423383 -0.000819549 -0.228201)
(0.000159972 -0.000789617 -0.219691)
(0.000987618 -0.000439913 -0.219403)
(-0.000332284 -0.000809069 -0.224204)
(-0.000449782 -0.000834402 -0.230638)
(0.00011793 -0.000797118 -0.222283)
(0.00100221 -0.000459787 -0.221871)
(-0.000282411 -0.000817082 -0.226648)
(-0.000477693 -0.000844095 -0.233044)
(7.58659e-05 -0.000815085 -0.224771)
(0.0010142 -0.0004711 -0.224323)
(-0.000222599 -0.000828883 -0.228961)
(-0.000498447 -0.000856976 -0.235447)
(3.07518e-05 -0.000838579 -0.227145)
(0.00102437 -0.000481014 -0.226724)
(-0.000154923 -0.000845741 -0.231175)
(-0.000511187 -0.000868676 -0.237868)
(-2.12777e-05 -0.000863386 -0.229428)
(0.00103579 -0.000482612 -0.229089)
(-8.60005e-05 -0.000862805 -0.233344)
(-0.000529859 -0.000884045 -0.240302)
(-7.69348e-05 -0.000883662 -0.231653)
(0.00104859 -0.000494952 -0.231479)
(-2.72453e-05 -0.00087332 -0.235547)
(-0.00056251 -0.000892113 -0.242659)
(-0.000122307 -0.00089634 -0.23389)
(0.00106009 -0.000511051 -0.233921)
(1.42722e-05 -0.000879594 -0.237804)
(-0.000594369 -0.000894061 -0.244958)
(-0.000157773 -0.000911877 -0.236144)
(0.00107623 -0.000517959 -0.236416)
(3.54094e-05 -0.000876917 -0.240094)
(-0.000621038 -0.000900926 -0.247237)
(-0.000186253 -0.000927256 -0.23838)
(0.00111145 -0.000521703 -0.238866)
(5.68195e-05 -0.000886339 -0.242313)
(-0.0006408 -0.000914704 -0.249491)
(-0.000201894 -0.00094796 -0.240594)
(0.00116804 -0.000519658 -0.241257)
(7.98129e-05 -0.000897043 -0.244483)
(-0.000660911 -0.000925796 -0.251626)
(-0.000204941 -0.000963418 -0.242769)
(0.00122596 -0.000551376 -0.243672)
(9.7508e-05 -0.000905805 -0.246647)
(-0.000674529 -0.000923393 -0.253674)
(-0.000212358 -0.000975239 -0.244828)
(0.00126441 -0.000567241 -0.245906)
(0.000116732 -0.000903387 -0.248784)
(-0.000686436 -0.000918315 -0.255676)
(-0.000229142 -0.00099021 -0.246768)
(0.00128342 -0.000566903 -0.247928)
(0.000145826 -0.000897871 -0.250813)
(-0.000703634 -0.000925636 -0.257724)
(-0.000258892 -0.0010143 -0.248555)
(0.00129806 -0.000564012 -0.249831)
(0.000182602 -0.000906412 -0.252698)
(-0.000728402 -0.000938286 -0.259785)
(-0.000278888 -0.00103634 -0.250319)
(0.00131965 -0.000562724 -0.251693)
(0.000213375 -0.000915526 -0.254532)
(-0.000745107 -0.000929188 -0.261661)
(-0.000292721 -0.0010544 -0.252109)
(0.00135766 -0.000574036 -0.253539)
(0.000229057 -0.000914455 -0.256391)
(-0.00073997 -0.000925663 -0.263474)
(-0.000299763 -0.00107293 -0.253925)
(0.00139585 -0.000585497 -0.255389)
(0.000247082 -0.000908717 -0.258175)
(-0.000714333 -0.000945629 -0.265304)
(-0.000296818 -0.00107682 -0.255767)
(0.00142378 -0.000608763 -0.257272)
(0.000268054 -0.000903833 -0.259881)
(-0.000705285 -0.000950235 -0.267037)
(-0.000300106 -0.00108404 -0.257499)
(0.0014422 -0.000623142 -0.259067)
(0.00029092 -0.000904312 -0.261505)
(-0.000716901 -0.000936334 -0.268633)
(-0.000313812 -0.00111159 -0.259072)
(0.00145436 -0.000614888 -0.260738)
(0.000312888 -0.00090733 -0.26307)
(-0.000722936 -0.00093853 -0.270217)
(-0.000320841 -0.00114443 -0.260561)
(0.00146207 -0.000611926 -0.262338)
(0.000331682 -0.000903728 -0.264633)
(-0.000711182 -0.000944576 -0.271728)
(-0.000323379 -0.00116402 -0.26199)
(0.00146982 -0.000626145 -0.263873)
(0.000343106 -0.00089655 -0.266215)
(-0.000688573 -0.000943591 -0.273147)
(-0.000320896 -0.00116598 -0.263396)
(0.00147422 -0.000637242 -0.265373)
(0.000342413 -0.000892228 -0.26778)
(-0.000672814 -0.000942121 -0.274468)
(-0.000320912 -0.00117799 -0.264728)
(0.0014681 -0.000659728 -0.266869)
(0.000337128 -0.000893002 -0.269328)
(-0.000675757 -0.000938656 -0.27571)
(-0.000322259 -0.00120927 -0.265984)
(0.0014564 -0.000666824 -0.268227)
(0.000344176 -0.00089949 -0.270802)
(-0.000690058 -0.000939074 -0.276921)
(-0.000314762 -0.00123739 -0.267224)
(0.00145558 -0.000668643 -0.269452)
(0.000344887 -0.000895674 -0.272268)
(-0.000699186 -0.00094086 -0.278054)
(-0.000300131 -0.00124606 -0.26845)
(0.00146892 -0.00066794 -0.270644)
(0.000325899 -0.000865153 -0.273821)
(-0.000695422 -0.000946142 -0.279142)
(-0.000290435 -0.00125832 -0.26958)
(0.00148813 -0.000663696 -0.271813)
(0.000319872 -0.000852613 -0.275192)
(-0.000687913 -0.000936549 -0.280236)
(-0.000278204 -0.00128087 -0.270616)
(0.00150161 -0.000678444 -0.273074)
(0.00033092 -0.000867762 -0.276337)
(-0.000680235 -0.000931819 -0.281357)
(-0.000267655 -0.00130814 -0.271536)
(0.00151169 -0.000714566 -0.274367)
(0.000333934 -0.000876713 -0.277423)
(-0.00067391 -0.000943572 -0.282334)
(-0.00026253 -0.00132357 -0.272379)
(0.00151285 -0.000725591 -0.275495)
(0.000335577 -0.000863427 -0.27845)
(-0.000660772 -0.00093949 -0.283092)
(-0.000259435 -0.00133732 -0.273141)
(0.0015141 -0.000710607 -0.276378)
(0.000341517 -0.000846236 -0.279412)
(-0.000639107 -0.000925956 -0.283744)
(-0.000260673 -0.00136073 -0.273782)
(0.00150891 -0.000704703 -0.2772)
(0.000353679 -0.000839752 -0.280276)
(-0.000608559 -0.000927411 -0.28441)
(-0.000264596 -0.00138602 -0.274317)
(0.00149053 -0.00072803 -0.278063)
(0.000361158 -0.0008377 -0.281063)
(-0.000584499 -0.000932175 -0.285006)
(-0.000264177 -0.00140562 -0.274803)
(0.0014632 -0.000750551 -0.278837)
(0.000348983 -0.000843139 -0.281843)
(-0.000569516 -0.000923154 -0.285452)
(-0.000256998 -0.00141857 -0.27526)
(0.00143731 -0.000745924 -0.279445)
(0.000331262 -0.00083334 -0.282568)
(-0.000551736 -0.000914483 -0.285815)
(-0.000248471 -0.00142767 -0.275646)
(0.00141305 -0.000745255 -0.279973)
(0.00032613 -0.000808237 -0.283196)
(-0.000526962 -0.000923449 -0.286147)
(-0.000246957 -0.00144449 -0.275907)
(0.00138559 -0.000760576 -0.280472)
(0.000349439 -0.000804984 -0.28363)
(-0.00049507 -0.00091857 -0.286402)
(-0.000248734 -0.0014656 -0.276043)
(0.00135899 -0.000766776 -0.280841)
(0.000388609 -0.000803609 -0.283907)
(-0.000461523 -0.000902608 -0.286553)
(-0.000243925 -0.00147654 -0.276095)
(0.00132528 -0.000768196 -0.281101)
(0.00040628 -0.000797313 -0.284142)
(-0.00042449 -0.000903979 -0.28665)
(-0.00024049 -0.00149588 -0.276054)
(0.00129309 -0.000774088 -0.281238)
(0.000401901 -0.000784991 -0.284354)
(-0.000393121 -0.000905292 -0.286612)
(-0.00023168 -0.0015195 -0.27598)
(0.00126187 -0.000783485 -0.281297)
(0.000404074 -0.000771135 -0.284454)
(-0.000368807 -0.000901219 -0.286416)
(-0.000215172 -0.00152208 -0.275845)
(0.0012338 -0.000788945 -0.281257)
(0.000430369 -0.000748429 -0.284371)
(-0.000347058 -0.000897605 -0.286025)
(-0.000211803 -0.00149784 -0.27549)
(0.00120755 -0.000795179 -0.281108)
(0.000477553 -0.000737815 -0.284127)
(0.000106127 -6.41623e-07 -0.00469783)
(1.28703e-05 -4.31496e-07 -0.00402134)
(-9.43025e-05 -4.91495e-07 -0.00481472)
(-1.96955e-05 -6.21332e-07 -0.00451163)
(0.000294597 -2.61202e-06 -0.0141932)
(2.93347e-05 -2.38903e-06 -0.0123097)
(-0.000259598 -2.60653e-06 -0.0145388)
(-4.91733e-05 -3.57695e-06 -0.0137162)
(0.000452474 -8.01577e-06 -0.0238141)
(3.63954e-05 -6.69468e-06 -0.0208545)
(-0.000394518 -7.37437e-06 -0.024388)
(-6.8829e-05 -9.98377e-06 -0.0231143)
(0.000588736 -1.39706e-05 -0.0335267)
(3.98704e-05 -1.2003e-05 -0.0295788)
(-0.000507971 -1.3339e-05 -0.0343186)
(-8.45943e-05 -1.81506e-05 -0.0326265)
(0.000710474 -2.17064e-05 -0.0432704)
(4.26219e-05 -1.86663e-05 -0.0384087)
(-0.00060695 -2.0813e-05 -0.0442659)
(-9.94778e-05 -2.83518e-05 -0.0421747)
(0.000817841 -3.01432e-05 -0.0529687)
(4.40814e-05 -2.58739e-05 -0.0472721)
(-0.000691526 -2.90287e-05 -0.0541483)
(-0.000113065 -3.97068e-05 -0.0516831)
(0.000911068 -3.89551e-05 -0.0625426)
(4.36984e-05 -3.32468e-05 -0.0560912)
(-0.000761913 -3.76114e-05 -0.0638836)
(-0.00012492 -5.17918e-05 -0.0610757)
(0.000990469 -4.78274e-05 -0.0719113)
(4.1053e-05 -4.05159e-05 -0.0647834)
(-0.000818487 -4.62922e-05 -0.0733903)
(-0.000134658 -6.42916e-05 -0.0702766)
(0.00105654 -5.65322e-05 -0.0809936)
(3.58972e-05 -4.74813e-05 -0.0732641)
(-0.000861837 -5.48803e-05 -0.0825883)
(-0.000141987 -7.69703e-05 -0.0792106)
(0.00111001 -6.4836e-05 -0.0897163)
(2.81716e-05 -5.3968e-05 -0.0814551)
(-0.000892795 -6.31519e-05 -0.0914063)
(-0.000146742 -8.96289e-05 -0.0878091)
(0.00115177 -7.26217e-05 -0.0980286)
(1.79801e-05 -5.98704e-05 -0.0892972)
(-0.00091249 -7.09758e-05 -0.0997951)
(-0.00014885 -0.000102072 -0.0960217)
(0.00118304 -7.98873e-05 -0.10591)
(5.43291e-06 -6.51061e-05 -0.0967592)
(-0.000922391 -7.84078e-05 -0.107735)
(-0.000148296 -0.000114102 -0.103823)
(0.0012053 -8.65912e-05 -0.113365)
(-9.40304e-06 -6.95153e-05 -0.103838)
(-0.000924052 -8.54307e-05 -0.115235)
(-0.00014523 -0.00012558 -0.111218)
(0.00122003 -9.25017e-05 -0.120417)
(-2.62926e-05 -7.29459e-05 -0.110553)
(-0.000919014 -9.18413e-05 -0.122324)
(-0.000140008 -0.000136435 -0.11823)
(0.00122858 -9.73901e-05 -0.127095)
(-4.47638e-05 -7.53337e-05 -0.116935)
(-0.000908642 -9.74069e-05 -0.129038)
(-0.000133046 -0.000146585 -0.12489)
(0.00123195 -0.000101199 -0.133429)
(-6.43081e-05 -7.66801e-05 -0.123016)
(-0.000893775 -0.000102074 -0.135411)
(-0.000124598 -0.0001559 -0.131228)
(0.00123087 -0.000103944 -0.139447)
(-8.46248e-05 -7.69233e-05 -0.128822)
(-0.000874947 -0.00010589 -0.141471)
(-0.000114699 -0.000164251 -0.13727)
(0.00122603 -0.000105601 -0.145174)
(-0.000105627 -7.59368e-05 -0.134377)
(-0.000852689 -0.00010882 -0.147242)
(-0.000103357 -0.000171557 -0.143037)
(0.00121799 -0.000106102 -0.150631)
(-0.000127262 -7.36426e-05 -0.139702)
(-0.000827514 -0.0001108 -0.152748)
(-9.06785e-05 -0.000177786 -0.148548)
(0.00120726 -0.000105439 -0.155837)
(-0.000149419 -7.00201e-05 -0.144814)
(-0.000799891 -0.000111804 -0.158006)
(-7.68131e-05 -0.000182894 -0.153821)
(0.00119424 -0.000103619 -0.160806)
(-0.000171937 -6.50776e-05 -0.149728)
(-0.000770207 -0.000111853 -0.163036)
(-6.1957e-05 -0.000186824 -0.158872)
(0.00117927 -0.000100521 -0.165555)
(-0.000194642 -5.8824e-05 -0.154457)
(-0.000738801 -0.000110982 -0.167852)
(-4.63968e-05 -0.000189643 -0.163714)
(0.00116266 -9.62595e-05 -0.170099)
(-0.000217412 -5.13142e-05 -0.159012)
(-0.000705971 -0.000109214 -0.172468)
(-3.047e-05 -0.000191349 -0.168357)
(0.0011448 -9.08978e-05 -0.174455)
(-0.000240175 -4.25727e-05 -0.163401)
(-0.000671925 -0.000106559 -0.176895)
(-1.44751e-05 -0.000191984 -0.172811)
(0.00112623 -8.43239e-05 -0.178643)
(-0.000262807 -3.27659e-05 -0.167633)
(-0.000636925 -0.000103105 -0.181144)
(1.43037e-06 -0.000191768 -0.177086)
(0.00110735 -7.67218e-05 -0.182676)
(-0.000285149 -2.19544e-05 -0.17172)
(-0.000601309 -9.89913e-05 -0.185226)
(1.72631e-05 -0.000190623 -0.181195)
(0.00108802 -6.83015e-05 -0.186563)
(-0.000307096 -1.01789e-05 -0.175672)
(-0.000565466 -9.42201e-05 -0.189157)
(3.31956e-05 -0.000188495 -0.18515)
(0.0010675 -5.88782e-05 -0.19031)
(-0.000328495 2.47464e-06 -0.1795)
(-0.000529581 -8.86037e-05 -0.192951)
(4.93906e-05 -0.000185429 -0.188963)
(0.00104534 -4.84168e-05 -0.193924)
(-0.000349102 1.61293e-05 -0.183214)
(-0.000493254 -8.23148e-05 -0.196617)
(6.57139e-05 -0.000181673 -0.192638)
(0.00102162 -3.71333e-05 -0.197417)
(-0.00036875 3.0884e-05 -0.186817)
(-0.000456174 -7.59329e-05 -0.200164)
(8.17806e-05 -0.000177353 -0.196178)
(0.000996209 -2.48414e-05 -0.200794)
(-0.000387578 4.64274e-05 -0.190308)
(-0.000417935 -6.93987e-05 -0.203601)
(9.69312e-05 -0.000171905 -0.199587)
(0.000968897 -1.16894e-05 -0.204055)
(-0.000406104 6.21535e-05 -0.193687)
(-0.000377687 -6.18362e-05 -0.206941)
(0.000110176 -0.000165425 -0.202871)
(0.000939906 1.83482e-06 -0.207215)
(-0.000424641 7.75645e-05 -0.196961)
(-0.000335117 -5.29233e-05 -0.210198)
(0.00012059 -0.000159094 -0.206038)
(0.000909929 1.5403e-05 -0.2103)
(-0.000443164 9.34264e-05 -0.200144)
(-0.000290843 -4.35217e-05 -0.213374)
(0.000128485 -0.000153484 -0.209099)
(0.000881944 3.01744e-05 -0.213303)
(-0.00046135 0.000110905 -0.203248)
(-0.000246711 -3.45912e-05 -0.216455)
(0.000135325 -0.000147128 -0.212073)
(0.000858407 4.64515e-05 -0.216208)
(-0.000477568 0.000129278 -0.206267)
(-0.000203873 -2.77002e-05 -0.219427)
(0.00014302 -0.000138333 -0.214975)
(0.00083855 6.31683e-05 -0.219046)
(-0.000490193 0.000146964 -0.209195)
(-0.000163909 -2.01345e-05 -0.222275)
(0.000151611 -0.000128613 -0.217795)
(0.000819433 7.81689e-05 -0.221855)
(-0.000499635 0.000163117 -0.212046)
(-0.000128723 -9.25475e-06 -0.224997)
(0.000159294 -0.000120628 -0.220518)
(0.000797214 9.32983e-05 -0.224613)
(-0.000508328 0.000179992 -0.21484)
(-9.77333e-05 3.66243e-06 -0.227616)
(0.000165881 -0.000113811 -0.223148)
(0.000770331 0.000111206 -0.227265)
(-0.000517691 0.000198908 -0.217568)
(-6.53794e-05 1.41931e-05 -0.230153)
(0.000169795 -0.000106714 -0.225694)
(0.000738324 0.000128704 -0.229799)
(-0.00052623 0.000218566 -0.220195)
(-2.52075e-05 1.88038e-05 -0.232624)
(0.000170183 -9.7618e-05 -0.22814)
(0.000702002 0.000144249 -0.232224)
(-0.000532608 0.000234104 -0.222706)
(1.82583e-05 2.50522e-05 -0.235031)
(0.000168235 -8.82769e-05 -0.230478)
(0.000660955 0.000158969 -0.234552)
(-0.000537018 0.000248143 -0.225138)
(5.84072e-05 3.35556e-05 -0.23739)
(0.000164431 -7.95235e-05 -0.232729)
(0.000617782 0.00017407 -0.2368)
(-0.000539048 0.000263548 -0.227532)
(9.2512e-05 4.6766e-05 -0.239701)
(0.000158773 -7.28346e-05 -0.234901)
(0.000578854 0.000192253 -0.238949)
(-0.000540206 0.000280852 -0.229889)
(0.000123806 5.34279e-05 -0.241958)
(0.000152216 -6.77275e-05 -0.237001)
(0.000545088 0.000206304 -0.241048)
(-0.000542752 0.000298104 -0.232157)
(0.000155156 5.55823e-05 -0.244149)
(0.000144144 -6.22166e-05 -0.239049)
(0.000513757 0.000212334 -0.243147)
(-0.000544737 0.000313097 -0.234319)
(0.000185938 5.94821e-05 -0.246264)
(0.000135988 -5.43093e-05 -0.241059)
(0.000478782 0.000218669 -0.245198)
(-0.00054301 0.000325059 -0.236395)
(0.000216925 6.60172e-05 -0.248274)
(0.000128481 -4.55615e-05 -0.243012)
(0.000445557 0.000235132 -0.247128)
(-0.000538172 0.000333742 -0.238412)
(0.000248224 7.23588e-05 -0.250182)
(0.000118972 -3.87854e-05 -0.244885)
(0.000415384 0.000252597 -0.248978)
(-0.000533346 0.000341836 -0.240409)
(0.000278364 7.74991e-05 -0.252013)
(0.000104962 -3.34521e-05 -0.246683)
(0.000387647 0.000263824 -0.250805)
(-0.00052749 0.000352856 -0.242424)
(0.000304796 7.92677e-05 -0.253812)
(8.39904e-05 -2.9896e-05 -0.248416)
(0.00036074 0.000266582 -0.252595)
(-0.0005178 0.000365628 -0.244445)
(0.000327198 8.16603e-05 -0.255577)
(5.86201e-05 -2.38623e-05 -0.25011)
(0.000335954 0.00027179 -0.254334)
(-0.000507339 0.000376359 -0.246381)
(0.000347775 8.30732e-05 -0.257288)
(3.52465e-05 -1.6961e-05 -0.251778)
(0.000315274 0.000285212 -0.256059)
(-0.000497091 0.000384053 -0.248237)
(0.000368235 8.48574e-05 -0.258957)
(1.66336e-05 -1.38307e-05 -0.25342)
(0.000302494 0.000297163 -0.257779)
(-0.00048357 0.000388108 -0.250038)
(0.000387175 8.91606e-05 -0.26058)
(-1.52057e-06 -1.10284e-05 -0.255025)
(0.000285832 0.000303859 -0.259422)
(-0.000468235 0.000394096 -0.251798)
(0.000400095 9.08997e-05 -0.262151)
(-1.91739e-05 -5.4442e-06 -0.256545)
(0.000262885 0.000308349 -0.260966)
(-0.00045469 0.000403842 -0.253549)
(0.000408636 8.77925e-05 -0.263716)
(-3.35372e-05 -7.69238e-07 -0.258016)
(0.00023736 0.000309887 -0.26247)
(-0.000442096 0.00041423 -0.255283)
(0.000415499 8.56888e-05 -0.265261)
(-4.56741e-05 3.01079e-06 -0.259472)
(0.000216721 0.000314964 -0.263954)
(-0.000435053 0.000416699 -0.256979)
(0.000419379 8.92077e-05 -0.266771)
(-5.9782e-05 6.72216e-06 -0.260893)
(0.00020422 0.000320323 -0.265434)
(-0.000428576 0.000417654 -0.258624)
(0.000421673 8.85519e-05 -0.268228)
(-8.07278e-05 9.76468e-06 -0.262218)
(0.000195032 0.000327378 -0.266855)
(-0.000415417 0.000420796 -0.260208)
(0.000423022 8.81379e-05 -0.269619)
(-0.000105534 1.27574e-05 -0.263428)
(0.000185664 0.000334272 -0.268226)
(-0.000392943 0.000424645 -0.261726)
(0.000424716 9.25517e-05 -0.270961)
(-0.000130246 1.65318e-05 -0.264582)
(0.000176436 0.000337487 -0.269546)
(-0.000370611 0.000425965 -0.263203)
(0.000424048 9.39963e-05 -0.272285)
(-0.000154437 1.81172e-05 -0.265749)
(0.000165015 0.000336548 -0.270821)
(-0.000354131 0.000427469 -0.264668)
(0.000417077 8.56569e-05 -0.273595)
(-0.000176285 1.93134e-05 -0.266961)
(0.000155008 0.00033929 -0.27201)
(-0.000339403 0.000429949 -0.266106)
(0.000408093 8.40037e-05 -0.274849)
(-0.000196318 2.48393e-05 -0.268153)
(0.000145705 0.000344178 -0.273152)
(-0.000321462 0.000429989 -0.267496)
(0.000400578 8.82915e-05 -0.276025)
(-0.000215155 2.83729e-05 -0.269243)
(0.000134095 0.000348838 -0.274303)
(-0.000301144 0.000427786 -0.268858)
(0.000391184 8.93127e-05 -0.277143)
(-0.000233703 2.99214e-05 -0.27021)
(0.000122739 0.00034642 -0.275477)
(-0.000282915 0.000429195 -0.270188)
(0.00037834 8.66746e-05 -0.278192)
(-0.000252514 3.16405e-05 -0.271087)
(0.000116575 0.00034242 -0.276615)
(-0.000265356 0.000430829 -0.271478)
(0.000363406 8.70682e-05 -0.279135)
(-0.000273596 3.38181e-05 -0.271905)
(0.000117478 0.000344263 -0.277654)
(-0.000243759 0.000431817 -0.272718)
(0.000350217 8.56162e-05 -0.279996)
(-0.000294376 3.36981e-05 -0.272695)
(0.000129187 0.000350552 -0.278552)
(-0.000219728 0.000433315 -0.273917)
(0.000337636 8.62416e-05 -0.28077)
(-0.000309284 3.32608e-05 -0.273417)
(0.000139316 0.000353399 -0.279335)
(-0.000199215 0.000434553 -0.275059)
(0.000325382 8.91466e-05 -0.281443)
(-0.000321342 3.58613e-05 -0.274037)
(0.00014008 0.000350925 -0.280057)
(-0.000189421 0.000437348 -0.27611)
(0.000314034 9.09716e-05 -0.28202)
(-0.000335816 4.09016e-05 -0.274533)
(0.000137605 0.000350738 -0.280686)
(-0.000184405 0.000439014 -0.277031)
(0.000301336 9.17546e-05 -0.282511)
(-0.000354401 4.32509e-05 -0.274892)
(0.000131108 0.00034951 -0.281205)
(-0.00017842 0.00043775 -0.277819)
(0.00028703 9.1308e-05 -0.282895)
(-0.00037519 3.71258e-05 -0.2751)
(0.000118829 0.000349145 -0.281587)
(-0.000169749 0.000438908 -0.278499)
(0.000271938 9.43768e-05 -0.283167)
(-0.000389583 3.27523e-05 -0.275188)
(0.000106535 0.000350205 -0.281821)
(-0.000158563 0.000442619 -0.279071)
(0.000261157 0.000101824 -0.283335)
(-0.000392151 3.49801e-05 -0.275175)
(9.62419e-05 0.000346361 -0.281893)
(-0.00014835 0.000443868 -0.279512)
(0.000263909 0.000103206 -0.283407)
(-0.000383384 4.16902e-05 -0.274987)
(9.69495e-05 0.000342591 -0.281743)
(-0.000142532 0.000444977 -0.279828)
(0.000286747 9.2389e-05 -0.283349)
(-0.000370415 4.5914e-05 -0.274584)
)
;

boundaryField
{
    leftWall
    {
        type            calculated;
        value           uniform (0 0 0);
    }
    rightWall
    {
        type            calculated;
        value           nonuniform 0();
    }
    leftSides_periodic0
    {
        type            cyclic;
    }
    leftSides_periodic1
    {
        type            cyclic;
    }
    rightSides_periodic0
    {
        type            cyclic;
    }
    rightSides_periodic1
    {
        type            cyclic;
    }
    leftInOut_periodic0
    {
        type            cyclic;
    }
    leftInOut_periodic1
    {
        type            cyclic;
    }
    rightInOut_periodic0
    {
        type            cyclic;
    }
    rightInOut_periodic1
    {
        type            cyclic;
    }
    procBoundary0to1
    {
        type            processor;
        value           nonuniform List<vector> 
11
(
(-0.000326026 -0.000881038 -0.285399)
(-0.000258819 -0.00150103 -0.27464)
(0.00118587 -0.000788987 -0.280761)
(-0.000326026 -0.000881038 -0.285399)
(0.000508365 -0.00074209 -0.28377)
(-0.000326026 -0.000881038 -0.285399)
(-0.000258819 -0.00150103 -0.27464)
(0.000109092 0.000352185 -0.281345)
(-0.000139886 0.000448068 -0.280008)
(0.000296078 9.42303e-05 -0.283033)
(-0.000360777 3.45321e-05 -0.27393)
)
;
    }
    procBoundary0to1throughleftInOut_periodic1
    {
        type            processorCyclic;
        value           uniform (-0.000258819 -0.00150103 -0.27464);
    }
    procBoundary0to2
    {
        type            processor;
        value           nonuniform List<vector> 
316
(
(5.59763e-05 -1.55297e-06 -0.00522232)
(-1.26829e-05 1.10691e-06 -0.00521607)
(-4.11332e-05 -1.55268e-06 -0.0057097)
(7.12405e-06 9.22695e-07 -0.00531799)
(0.000143762 2.18932e-06 -0.0157657)
(-4.45333e-05 7.62236e-06 -0.0157699)
(-9.99522e-05 2.10982e-06 -0.0171728)
(2.79222e-05 6.45998e-06 -0.0160334)
(0.000205677 4.97672e-06 -0.0264537)
(-8.515e-05 1.95371e-05 -0.0265)
(-0.000133374 4.34598e-06 -0.0287274)
(5.73835e-05 1.64929e-05 -0.0268774)
(0.000254727 1.32775e-05 -0.0372391)
(-0.000130423 3.52923e-05 -0.0373534)
(-0.000154363 1.19291e-05 -0.0403204)
(9.14358e-05 2.96386e-05 -0.0378026)
(0.000298027 2.30967e-05 -0.0480491)
(-0.00017739 5.39623e-05 -0.0482461)
(-0.000170072 2.05236e-05 -0.0518731)
(0.000127151 4.50989e-05 -0.0487277)
(0.000335369 3.5225e-05 -0.0587906)
(-0.000225564 7.52913e-05 -0.0590802)
(-0.000180374 3.10455e-05 -0.0632877)
(0.000164078 6.26334e-05 -0.0595549)
(0.000366636 4.92486e-05 -0.0693668)
(-0.000274288 9.89865e-05 -0.0697558)
(-0.000185277 4.30424e-05 -0.0744668)
(0.000201625 8.19972e-05 -0.070189)
(0.000391864 6.49433e-05 -0.0796828)
(-0.000322777 0.000124679 -0.0801775)
(-0.000184953 5.62876e-05 -0.085319)
(0.000239121 0.000102849 -0.0805434)
(0.000411136 8.20502e-05 -0.0896533)
(-0.000370182 0.000152167 -0.0902601)
(-0.000179647 7.04926e-05 -0.0957634)
(0.000275863 0.000125041 -0.0905429)
(0.000424536 0.00010031 -0.0992113)
(-0.00041574 0.000181241 -0.0999377)
(-0.000169527 8.54277e-05 -0.105739)
(0.000311237 0.0001485 -0.10013)
(0.000432448 0.000119629 -0.108317)
(-0.000458627 0.000211478 -0.109171)
(-0.000154999 0.000101109 -0.115211)
(0.000344773 0.000172884 -0.109269)
(0.000436017 0.000140015 -0.116956)
(-0.000498042 0.000242503 -0.117948)
(-0.000137249 0.000117449 -0.124173)
(0.000375975 0.00019776 -0.117951)
(0.000436856 0.000161276 -0.125138)
(-0.000533538 0.000274383 -0.126281)
(-0.000117984 0.000134188 -0.132641)
(0.000404391 0.000223172 -0.126184)
(0.000436388 0.000183161 -0.132885)
(-0.00056485 0.000307331 -0.134191)
(-9.87078e-05 0.000151195 -0.140645)
(0.000429611 0.000249468 -0.13399)
(0.000435497 0.000205528 -0.14022)
(-0.000591915 0.000341172 -0.141698)
(-8.0272e-05 0.000168425 -0.148209)
(0.000451162 0.000276566 -0.141389)
(0.000434471 0.000228433 -0.147162)
(-0.00061489 0.000375531 -0.148819)
(-6.29641e-05 0.000185939 -0.155353)
(0.000468848 0.000304019 -0.148397)
(0.000433612 0.00025188 -0.153727)
(-0.000633957 0.000410264 -0.155571)
(-4.70417e-05 0.000203614 -0.162096)
(0.000482691 0.000331652 -0.15503)
(0.000433379 0.000275629 -0.159925)
(-0.000649207 0.000445283 -0.161967)
(-3.2866e-05 0.000221203 -0.168453)
(0.000492647 0.000359441 -0.161302)
(0.000434176 0.000299583 -0.165767)
(-0.000660524 0.000480333 -0.168021)
(-2.07535e-05 0.000238665 -0.174441)
(0.000498644 0.000387175 -0.167226)
(0.000436489 0.000323428 -0.17127)
(-0.000667709 0.000515412 -0.173745)
(-1.08759e-05 0.000256237 -0.180082)
(0.000500742 0.000414607 -0.172816)
(0.000440523 0.000346424 -0.176452)
(-0.000670487 0.000550778 -0.179156)
(-3.48031e-06 0.000273586 -0.185395)
(0.000499377 0.000441874 -0.178089)
(0.000446429 0.000369264 -0.181342)
(-0.000668523 0.000585988 -0.184269)
(1.03768e-06 0.000290253 -0.190402)
(0.000494974 0.000469016 -0.183065)
(0.000453919 0.000393013 -0.185969)
(-0.000661506 0.000620302 -0.189106)
(2.68853e-06 0.000306139 -0.195119)
(0.000487455 0.000495524 -0.18776)
(0.00046098 0.000417407 -0.19036)
(-0.000649736 0.000653359 -0.193686)
(2.27652e-06 0.000322062 -0.199566)
(0.000475954 0.000520654 -0.192188)
(0.000464972 0.00044029 -0.194525)
(-0.000634666 0.000686793 -0.198017)
(4.67892e-07 0.000337792 -0.203755)
(0.000459184 0.000545177 -0.196356)
(0.000466278 0.000460155 -0.198469)
(-0.000617529 0.000721727 -0.202105)
(-2.74198e-06 0.000352339 -0.2077)
(0.000437732 0.00057084 -0.200282)
(0.000470254 0.000478304 -0.202202)
(-0.000598214 0.000754906 -0.205974)
(-6.00581e-06 0.000366389 -0.211429)
(0.000414578 0.000596681 -0.204009)
(0.000481078 0.000497088 -0.205752)
(-0.000574869 0.000785019 -0.209661)
(-7.14467e-06 0.000380764 -0.214991)
(0.000392838 0.000619206 -0.20758)
(0.000497731 0.000520141 -0.209148)
(-0.000547417 0.000813076 -0.213195)
(-3.62817e-06 0.000395216 -0.218434)
(0.00037358 0.000637475 -0.21101)
(0.000515372 0.000543074 -0.212378)
(-0.000519868 0.000843542 -0.216573)
(3.11284e-06 0.00040692 -0.221775)