0 	0 	0 	0
0 	7.28743e-36 	-3.23546e-36 	1.85342e-31
5.01672e-05 	5.48868e-07 	-3.4445e-07 	0.0172887
5.01672e-05 	5.48868e-07 	-3.4445e-07 	0.0172887
0.000100334 	9.28034e-08 	-1.05645e-06 	0.0332527
0.000150502 	-5.18147e-07 	-2.1876e-06 	0.0480705
0.000150502 	-5.18147e-07 	-2.1876e-06 	0.0480705
0.000200669 	-9.65763e-07 	-3.7232e-06 	0.0618323
0.000200669 	-9.65763e-07 	-3.7232e-06 	0.0618323
0.000250836 	-1.30063e-06 	-5.67664e-06 	0.0746149
0.000301003 	-1.58377e-06 	-8.03551e-06 	0.0864816
0.000301003 	-1.58377e-06 	-8.03551e-06 	0.0864816
0.000351171 	-1.83549e-06 	-1.07967e-05 	0.0974735
0.000401338 	-2.06368e-06 	-1.39658e-05 	0.10761
0.000451505 	-2.2706e-06 	-1.75642e-05 	0.116906
0.000451505 	-2.2706e-06 	-1.75642e-05 	0.116906
0.000501672 	-2.45521e-06 	-2.16266e-05 	0.125386
0.000551839 	-2.61508e-06 	-2.61893e-05 	0.133095
0.000551839 	-2.61508e-06 	-2.61893e-05 	0.133095
0.000602007 	-2.74791e-06 	-3.12812e-05 	0.140096
0.000602007 	-2.74791e-06 	-3.12812e-05 	0.140096
0.000652174 	-2.85254e-06 	-3.69241e-05 	0.146459
0.000652174 	-2.85254e-06 	-3.69241e-05 	0.146459
0.000702341 	-2.92917e-06 	-4.31377e-05 	0.152258
0.000702341 	-2.92917e-06 	-4.31377e-05 	0.152258
0.000752508 	-2.97901e-06 	-4.99387e-05 	0.157561
0.000802676 	-3.00353e-06 	-5.73428e-05 	0.162424
0.000852843 	-3.00126e-06 	-6.54468e-05 	0.16684
0.000852843 	-3.00126e-06 	-6.54468e-05 	0.16684
0.00090301 	-2.97808e-06 	-7.41241e-05 	0.170918
0.00090301 	-2.97808e-06 	-7.41241e-05 	0.170918
0.000953177 	-2.93588e-06 	-8.33245e-05 	0.174699
0.00100334 	-2.87647e-06 	-9.29961e-05 	0.178218
0.00100334 	-2.87647e-06 	-9.29961e-05 	0.178218
0.00105351 	-2.80156e-06 	-0.000103089 	0.181506
0.00105351 	-2.80156e-06 	-0.000103089 	0.181506
0.00110368 	-2.71241e-06 	-0.000113567 	0.184588
0.00115385 	-2.6075e-06 	-0.00012447 	0.187441
0.00120401 	-2.49242e-06 	-0.000135648 	0.190144
0.00120401 	-2.49242e-06 	-0.000135648 	0.190144
0.00130435 	-2.23638e-06 	-0.000158692 	0.195156
0.00130435 	-2.23638e-06 	-0.000158692 	0.195156
0.00135452 	-2.09531e-06 	-0.000170546 	0.197458
0.00135452 	-2.09531e-06 	-0.000170546 	0.197458
0.00140468 	-1.94731e-06 	-0.000182553 	0.199651
0.00145485 	-1.79391e-06 	-0.000194662 	0.20176
0.00145485 	-1.79391e-06 	-0.000194662 	0.20176
0.00150502 	-1.63551e-06 	-0.000206856 	0.203791
0.00150502 	-1.63551e-06 	-0.000206856 	0.203791
0.00155518 	-1.46992e-06 	-0.000219129 	0.205715
0.00155518 	-1.46992e-06 	-0.000219129 	0.205715
0.00160535 	-1.30045e-06 	-0.000231417 	0.207579
0.00160535 	-1.30045e-06 	-0.000231417 	0.207579
0.00165552 	-1.12766e-06 	-0.000243705 	0.20939
0.00165552 	-1.12766e-06 	-0.000243705 	0.20939
0.00170569 	-9.50755e-07 	-0.000255958 	0.21113
0.00170569 	-9.50755e-07 	-0.000255958 	0.21113
0.00175585 	-7.71032e-07 	-0.00026813 	0.212814
0.00175585 	-7.71032e-07 	-0.00026813 	0.212814
0.00180602 	-5.89487e-07 	-0.00028023 	0.214461
0.00180602 	-5.89487e-07 	-0.00028023 	0.214461
0.00185619 	-4.0555e-07 	-0.000292195 	0.216053
0.00185619 	-4.0555e-07 	-0.000292195 	0.216053
0.00190635 	-2.19813e-07 	-0.000303988 	0.2176
0.00190635 	-2.19813e-07 	-0.000303988 	0.2176
0.00195652 	-3.30105e-08 	-0.000315661 	0.219119
0.00195652 	-3.30105e-08 	-0.000315661 	0.219119
0.00200669 	1.55457e-07 	-0.000327088 	0.22059
0.00200669 	1.55457e-07 	-0.000327088 	0.22059
0.00205686 	3.44903e-07 	-0.000338299 	0.222029
0.00210702 	5.34995e-07 	-0.000349366 	0.223446
0.00210702 	5.34995e-07 	-0.000349366 	0.223446
0.00215719 	7.26345e-07 	-0.000360026 	0.224813
0.00220736 	9.18074e-07 	-0.000370509 	0.226163
0.00225753 	1.11041e-06 	-0.000380708 	0.227483
0.00225753 	1.11041e-06 	-0.000380708 	0.227483
0.00230769 	1.3033e-06 	-0.000390536 	0.228772
0.00230769 	1.3033e-06 	-0.000390536 	0.228772
0.00235786 	1.49641e-06 	-0.000400203 	0.230046
0.00235786 	1.49641e-06 	-0.000400203 	0.230046
0.00240803 	1.69005e-06 	-0.000409347 	0.23128
0.00240803 	1.69005e-06 	-0.000409347 	0.23128
0.00245819 	1.88383e-06 	-0.000418298 	0.2325
0.00245819 	1.88383e-06 	-0.000418298 	0.2325
0.00250836 	2.07788e-06 	-0.000426858 	0.233693
0.00250836 	2.07788e-06 	-0.000426858 	0.233693
0.00255853 	2.27211e-06 	-0.000435059 	0.234862
0.0026087 	2.46646e-06 	-0.000443005 	0.236015
0.0026087 	2.46646e-06 	-0.000443005 	0.236015
0.00265886 	2.66104e-06 	-0.000450434 	0.237136
0.00270903 	2.85568e-06 	-0.00045774 	0.238249
0.00270903 	2.85568e-06 	-0.00045774 	0.238249
0.0027592 	3.05072e-06 	-0.000464385 	0.239324
0.00280936 	3.24587e-06 	-0.000470922 	0.240392
0.00280936 	3.24587e-06 	-0.000470922 	0.240392
0.00285953 	3.44156e-06 	-0.000476888 	0.241428
0.00285953 	3.44156e-06 	-0.000476888 	0.241428
0.0029097 	3.63753e-06 	-0.00048266 	0.242452
0.0029097 	3.63753e-06 	-0.00048266 	0.242452
0.00295987 	3.83421e-06 	-0.000487944 	0.243449
0.00295987 	3.83421e-06 	-0.000487944 	0.243449
0.00301003 	4.03137e-06 	-0.000492976 	0.244431
0.0030602 	4.22934e-06 	-0.000497591 	0.24539
0.00311037 	4.42792e-06 	-0.000501929 	0.246332
0.00311037 	4.42792e-06 	-0.000501929 	0.246332
0.00316054 	4.62732e-06 	-0.000505907 	0.247252
0.00316054 	4.62732e-06 	-0.000505907 	0.247252
0.00326087 	5.02827e-06 	-0.000512995 	0.249036
0.00326087 	5.02827e-06 	-0.000512995 	0.249036
0.00331104 	5.22998e-06 	-0.000516137 	0.2499
0.0033612 	5.43271e-06 	-0.000518979 	0.250743
0.0033612 	5.43271e-06 	-0.000518979 	0.250743
0.00341137 	5.63666e-06 	-0.000521629 	0.251571
0.00341137 	5.63666e-06 	-0.000521629 	0.251571
0.00346154 	5.84246e-06 	-0.000523988 	0.252376
0.00346154 	5.84246e-06 	-0.000523988 	0.252376
0.00351171 	6.04971e-06 	-0.000526216 	0.253169
0.00356187 	6.26018e-06 	-0.000528153 	0.253937
0.00356187 	6.26018e-06 	-0.000528153 	0.253937
0.00361204 	6.47167e-06 	-0.000530019 	0.254698
0.00366221 	6.68755e-06 	-0.000531587 	0.255431
0.00366221 	6.68755e-06 	-0.000531587 	0.255431
0.00371237 	6.90358e-06 	-0.000533145 	0.256162
0.00371237 	6.90358e-06 	-0.000533145 	0.256162
0.00376254 	7.12419e-06 	-0.000534388 	0.256862
0.00376254 	7.12419e-06 	-0.000534388 	0.256862
0.00381271 	7.34481e-06 	-0.000535631 	0.257562
0.00381271 	7.34481e-06 	-0.000535631 	0.257562
0.00386288 	7.56826e-06 	-0.000536633 	0.258235
0.00391304 	7.79229e-06 	-0.000537587 	0.258903
0.00391304 	7.79229e-06 	-0.000537587 	0.258903
0.00396321 	8.01774e-06 	-0.00053839 	0.259552
0.00401338 	8.24418e-06 	-0.000539089 	0.260187
0.00401338 	8.24418e-06 	-0.000539089 	0.260187
0.00406355 	8.4712e-06 	-0.00053972 	0.260813
0.00406355 	8.4712e-06 	-0.00053972 	0.260813
0.00411371 	8.69948e-06 	-0.000540199 	0.261416
0.00411371 	8.69948e-06 	-0.000540199 	0.261416
0.00421405 	9.15734e-06 	-0.000540975 	0.262591
0.00421405 	9.15734e-06 	-0.000540975 	0.262591
0.00426421 	9.38693e-06 	-0.00054127 	0.263162
0.00426421 	9.38693e-06 	-0.00054127 	0.263162
0.00431438 	9.61694e-06 	-0.00054147 	0.263713
0.00431438 	9.61694e-06 	-0.00054147 	0.263713
0.00436455 	9.84719e-06 	-0.000541615 	0.264252
0.00436455 	9.84719e-06 	-0.000541615 	0.264252
0.00441472 	1.00774e-05 	-0.000541734 	0.264783
0.00441472 	1.00774e-05 	-0.000541734 	0.264783
0.00446488 	1.03076e-05 	-0.000541765 	0.26529
0.00446488 	1.03076e-05 	-0.000541765 	0.26529
0.00451505 	1.05378e-05 	-0.000541796 	0.265796
0.00451505 	1.05378e-05 	-0.000541796 	0.265796
0.00456522 	1.07672e-05 	-0.000541765 	0.266278
0.00456522 	1.07672e-05 	-0.000541765 	0.266278
0.00461538 	1.09964e-05 	-0.000541716 	0.266752
0.00461538 	1.09964e-05 	-0.000541716 	0.266752
0.00466555 	1.1225e-05 	-0.000541653 	0.267217
0.00471572 	1.14522e-05 	-0.000541558 	0.267659
0.00476589 	1.16794e-05 	-0.000541462 	0.2681
0.00476589 	1.16794e-05 	-0.000541462 	0.2681
0.00486622 	1.21286e-05 	-0.000541243 	0.268927
0.00486622 	1.21286e-05 	-0.000541243 	0.268927
0.00491639 	1.23521e-05 	-0.000541134 	0.269331
0.00496656 	1.25723e-05 	-0.000541033 	0.269709
0.00496656 	1.25723e-05 	-0.000541033 	0.269709
0.00501672 	1.27924e-05 	-0.000540933 	0.270086
0.00506689 	1.30098e-05 	-0.000540851 	0.270445
0.00511706 	1.32248e-05 	-0.000540784 	0.270791
0.00511706 	1.32248e-05 	-0.000540784 	0.270791
0.00521739 	1.36493e-05 	-0.000540695 	0.271453
0.00521739 	1.36493e-05 	-0.000540695 	0.271453
0.00526756 	1.3858e-05 	-0.000540679 	0.271767
0.00526756 	1.3858e-05 	-0.000540679 	0.271767
0.00531773 	1.40655e-05 	-0.000540672 	0.272075
0.00536789 	1.42667e-05 	-0.00054072 	0.272357
0.00536789 	1.42667e-05 	-0.00054072 	0.272357
0.00541806 	1.44679e-05 	-0.000540767 	0.272639
0.00546823 	1.46659e-05 	-0.000540841 	0.272909
0.00551839 	1.48585e-05 	-0.000540958 	0.27316
0.00551839 	1.48585e-05 	-0.000540958 	0.27316
0.00556856 	1.50512e-05 	-0.000541075 	0.273411
0.00556856 	1.50512e-05 	-0.000541075 	0.273411
0.0056689 	1.54215e-05 	-0.000541419 	0.273865
0.0056689 	1.54215e-05 	-0.000541419 	0.273865
0.00571906 	1.56046e-05 	-0.000541606 	0.274086
0.00576923 	1.57801e-05 	-0.000541838 	0.274286
0.00576923 	1.57801e-05 	-0.000541838 	0.274286
0.0058194 	1.59521e-05 	-0.00054209 	0.274477
0.0058194 	1.59521e-05 	-0.00054209 	0.274477
0.00591973 	1.62865e-05 	-0.000542635 	0.274838
0.00591973 	1.62865e-05 	-0.000542635 	0.274838
0.0059699 	1.64459e-05 	-0.00054294 	0.275
0.0059699 	1.64459e-05 	-0.00054294 	0.275
0.00602007 	1.66052e-05 	-0.000543245 	0.275163
0.00607023 	1.67529e-05 	-0.000543578 	0.275304
0.0061204 	1.68975e-05 	-0.000543919 	0.275439
0.0061204 	1.68975e-05 	-0.000543919 	0.275439
0.00617057 	1.70422e-05 	-0.00054426 	0.275574
0.00622074 	1.71739e-05 	-0.000544614 	0.275689
0.00622074 	1.71739e-05 	-0.000544614 	0.275689
0.0062709 	1.73018e-05 	-0.000544972 	0.275797
0.00632107 	1.74296e-05 	-0.000545331 	0.275906
0.00632107 	1.74296e-05 	-0.000545331 	0.275906
0.00637124 	1.75445e-05 	-0.000545689 	0.275997
0.00637124 	1.75445e-05 	-0.000545689 	0.275997
0.0064214 	1.76533e-05 	-0.000546046 	0.276079
0.0064214 	1.76533e-05 	-0.000546046 	0.276079
0.00647157 	1.77621e-05 	-0.000546404 	0.276162
0.00647157 	1.77621e-05 	-0.000546404 	0.276162
0.00652174 	1.78593e-05 	-0.000546737 	0.276231
0.00657191 	1.79466e-05 	-0.00054705 	0.276289
0.00657191 	1.79466e-05 	-0.00054705 	0.276289
0.00662207 	1.8034e-05 	-0.000547362 	0.276346
0.00667224 	1.8113e-05 	-0.000547661 	0.276395
0.00672241 	1.81766e-05 	-0.000547932 	0.276428
0.00672241 	1.81766e-05 	-0.000547932 	0.276428
0.00677258 	1.82401e-05 	-0.000548203 	0.276461
0.00682274 	1.83009e-05 	-0.000548472 	0.276492
0.00682274 	1.83009e-05 	-0.000548472 	0.276492
0.00687291 	1.83378e-05 	-0.000548716 	0.276501
0.00687291 	1.83378e-05 	-0.000548716 	0.276501
0.00692308 	1.83747e-05 	-0.000548961 	0.27651
0.00697324 	1.84115e-05 	-0.000549206 	0.276518
0.00702341 	1.84253e-05 	-0.000549388 	0.276508
0.00707358 	1.84329e-05 	-0.000549554 	0.276493
0.00707358 	1.84329e-05 	-0.000549554 	0.276493
0.00717391 	1.8434e-05 	-0.000549879 	0.276453
0.00717391 	1.8434e-05 	-0.000549879 	0.276453
0.00722408 	1.84079e-05 	-0.000550026 	0.276414
0.00722408 	1.84079e-05 	-0.000550026 	0.276414
0.00727425 	1.83818e-05 	-0.000550174 	0.276375
0.00727425 	1.83818e-05 	-0.000550174 	0.276375
0.00732441 	1.83557e-05 	-0.000550321 	0.276336
0.00732441 	1.83557e-05 	-0.000550321 	0.276336
0.00737458 	1.82914e-05 	-0.000550396 	0.276274
0.00737458 	1.82914e-05 	-0.000550396 	0.276274
0.00742475 	1.82267e-05 	-0.00055047 	0.276211
0.00747492 	1.81621e-05 	-0.000550545 	0.276148
0.00752508 	1.80779e-05 	-0.00055054 	0.276074
0.00752508 	1.80779e-05 	-0.00055054 	0.276074
0.00757525 	1.79741e-05 	-0.000550456 	0.275987
0.00762542 	1.78703e-05 	-0.000550372 	0.275901
0.00767559 	1.77662e-05 	-0.000550288 	0.275814
0.00767559 	1.77662e-05 	-0.000550288 	0.275814
0.00772575 	1.76246e-05 	-0.00055011 	0.275704
0.00777592 	1.7483e-05 	-0.000549933 	0.275593
0.00777592 	1.7483e-05 	-0.000549933 	0.275593
0.00782609 	1.73415e-05 	-0.000549756 	0.275483
0.00787625 	1.71813e-05 	-0.000549485 	0.275359
0.00787625 	1.71813e-05 	-0.000549485 	0.275359
0.00792642 	1.70077e-05 	-0.000549146 	0.275225
0.00797659 	1.68341e-05 	-0.000548807 	0.275092
0.00802676 	1.6655e-05 	-0.000548437 	0.274953
0.00802676 	1.6655e-05 	-0.000548437 	0.274953
0.00807692 	1.64553e-05 	-0.000547949 	0.274797
0.00807692 	1.64553e-05 	-0.000547949 	0.274797
0.00812709 	1.62556e-05 	-0.000547461 	0.274641
0.00817726 	1.60559e-05 	-0.000546973 	0.274484
0.00817726 	1.60559e-05 	-0.000546973 	0.274484
0.00822742 	1.58353e-05 	-0.000546409 	0.274308
0.00827759 	1.56125e-05 	-0.000545837 	0.274129
0.00827759 	1.56125e-05 	-0.000545837 	0.274129
0.00832776 	1.53896e-05 	-0.000545265 	0.27395
0.00832776 	1.53896e-05 	-0.000545265 	0.27395
0.00837793 	1.51537e-05 	-0.000544618 	0.273756
0.00842809 	1.49108e-05 	-0.00054393 	0.273555
0.00842809 	1.49108e-05 	-0.00054393 	0.273555
0.00847826 	1.46679e-05 	-0.000543243 	0.273354
0.00847826 	1.46679e-05 	-0.000543243 	0.273354
0.0085786 	1.41574e-05 	-0.000541702 	0.272919
0.0085786 	1.41574e-05 	-0.000541702 	0.272919
0.00862876 	1.38976e-05 	-0.000540901 	0.272695
0.00867893 	1.36333e-05 	-0.000540065 	0.272465
0.0087291 	1.33594e-05 	-0.000539152 	0.272219
0.00877926 	1.30855e-05 	-0.000538238 	0.271973
0.00882943 	1.28089e-05 	-0.000537299 	0.271722
0.0088796 	1.25236e-05 	-0.000536274 	0.271453
0.0088796 	1.25236e-05 	-0.000536274 	0.271453
0.00892977 	1.22383e-05 	-0.00053525 	0.271185
0.00892977 	1.22383e-05 	-0.00053525 	0.271185
0.00897993 	1.19511e-05 	-0.000534202 	0.270912
0.00897993 	1.19511e-05 	-0.000534202 	0.270912
0.0090301 	1.16567e-05 	-0.000533067 	0.270622
0.00908027 	1.13624e-05 	-0.000531932 	0.270331
0.00908027 	1.13624e-05 	-0.000531932 	0.270331
0.00913043 	1.10665e-05 	-0.000530771 	0.270035
0.0091806 	1.07652e-05 	-0.000529526 	0.269721
0.0091806 	1.07652e-05 	-0.000529526 	0.269721
0.00923077 	1.0464e-05 	-0.000528281 	0.269408
0.00928094 	1.01612e-05 	-0.000527001 	0.269088
0.00928094 	1.01612e-05 	-0.000527001 	0.269088
0.0093311 	9.85486e-06 	-0.000525646 	0.268751
0.00938127 	9.54855e-06 	-0.000524291 	0.268415
0.00938127 	9.54855e-06 	-0.000524291 	0.268415
0.00943144 	9.24073e-06 	-0.000522886 	0.268069
0.00943144 	9.24073e-06 	-0.000522886 	0.268069
0.00948161 	8.93096e-06 	-0.000521419 	0.26771
0.00948161 	8.93096e-06 	-0.000521419 	0.26771
0.00953177 	8.6212e-06 	-0.000519952 	0.26735
0.00953177 	8.6212e-06 	-0.000519952 	0.26735
0.00958194 	8.31014e-06 	-0.000518415 	0.266977
0.00958194 	8.31014e-06 	-0.000518415 	0.266977
0.00963211 	7.99829e-06 	-0.000516835 	0.266594
0.00968227 	7.68645e-06 	-0.000515254 	0.266211
0.00968227 	7.68645e-06 	-0.000515254 	0.266211
0.00973244 	7.37384e-06 	-0.000513576 	0.265808
0.00978261 	7.0611e-06 	-0.000511879 	0.265402
0.00978261 	7.0611e-06 	-0.000511879 	0.265402
0.00983278 	6.74837e-06 	-0.000510168 	0.264992
0.00983278 	6.74837e-06 	-0.000510168 	0.264992
0.00988294 	6.43575e-06 	-0.000508353 	0.264561
0.00993311 	6.12314e-06 	-0.000506537 	0.26413
0.00993311 	6.12314e-06 	-0.000506537 	0.26413
0.00998328 	5.81097e-06 	-0.000504666 	0.263688
0.0100334 	5.49936e-06 	-0.000502727 	0.263232
0.0100836 	5.18775e-06 	-0.000500789 	0.262776
0.0100836 	5.18775e-06 	-0.000500789 	0.262776
0.0101338 	4.87761e-06 	-0.000498744 	0.2623
0.0101839 	4.56778e-06 	-0.000496677 	0.261819
0.0101839 	4.56778e-06 	-0.000496677 	0.261819
0.0102341 	4.25855e-06 	-0.000494578 	0.261331
0.0102341 	4.25855e-06 	-0.000494578 	0.261331
0.0102843 	3.95119e-06 	-0.000492377 	0.260824
0.0103344 	3.64383e-06 	-0.000490176 	0.260317
0.0103344 	3.64383e-06 	-0.000490176 	0.260317
0.0103846 	3.33866e-06 	-0.000487876 	0.25979
0.0103846 	3.33866e-06 	-0.000487876 	0.25979
0.0104348 	3.0344e-06 	-0.000485534 	0.259256
0.0104348 	3.0344e-06 	-0.000485534 	0.259256
0.0104849 	2.73093e-06 	-0.000483161 	0.258716
0.0104849 	2.73093e-06 	-0.000483161 	0.258716
0.0105351 	2.43031e-06 	-0.000480671 	0.258155
0.0105853 	2.1297e-06 	-0.000478182 	0.257593
0.0105853 	2.1297e-06 	-0.000478182 	0.257593
0.0106856 	1.53581e-06 	-0.000472926 	0.256419
0.0106856 	1.53581e-06 	-0.000472926 	0.256419
0.0107358 	1.24102e-06 	-0.00047022 	0.255818
0.010786 	9.49117e-07 	-0.00046741 	0.255198
0.010786 	9.49117e-07 	-0.00046741 	0.255198
0.0108361 	6.57244e-07 	-0.000464599 	0.254578
0.0108863 	3.70279e-07 	-0.000461615 	0.253927
0.0108863 	3.70279e-07 	-0.000461615 	0.253927
0.0109365 	8.33134e-08 	-0.000458632 	0.253276
0.0109365 	8.33134e-08 	-0.000458632 	0.253276
0.0109866 	-2.00018e-07 	-0.000455524 	0.252604
0.0110368 	-4.81691e-07 	-0.00045236 	0.251921
0.0110368 	-4.81691e-07 	-0.00045236 	0.251921
0.011087 	-7.61061e-07 	-0.000449118 	0.251224
0.011087 	-7.61061e-07 	-0.000449118 	0.251224
0.0111371 	-1.03709e-06 	-0.000445763 	0.250508
0.0111873 	-1.31209e-06 	-0.000442373 	0.249786
0.0111873 	-1.31209e-06 	-0.000442373 	0.249786
0.0112375 	-1.58208e-06 	-0.000438813 	0.249035
0.0112876 	-1.85206e-06 	-0.000435253 	0.248284
0.0112876 	-1.85206e-06 	-0.000435253 	0.248284
0.0113378 	-2.11579e-06 	-0.000431479 	0.247498
0.0113378 	-2.11579e-06 	-0.000431479 	0.247498
0.011388 	-2.37933e-06 	-0.000427698 	0.24671
0.0114381 	-2.63746e-06 	-0.000423718 	0.245891
0.0114381 	-2.63746e-06 	-0.000423718 	0.245891
0.0114883 	-2.89431e-06 	-0.000419691 	0.245064
0.0115385 	-3.14637e-06 	-0.000415468 	0.244208
0.0115385 	-3.14637e-06 	-0.000415468 	0.244208
0.0115886 	-3.39624e-06 	-0.000411157 	0.243338
0.0116388 	-3.64152e-06 	-0.000406645 	0.24244
0.0116388 	-3.64152e-06 	-0.000406645 	0.24244
0.011689 	-3.88378e-06 	-0.000402002 	0.241523
0.0117391 	-4.1216e-06 	-0.000397147 	0.240577
0.0117893 	-4.35584e-06 	-0.000392122 	0.239607
0.0118395 	-4.58591e-06 	-0.000386863 	0.238607
0.0118395 	-4.58591e-06 	-0.000386863 	0.238607
0.0118896 	-4.81245e-06 	-0.000381407 	0.23758
0.0119398 	-5.03503e-06 	-0.00037569 	0.236518
0.0119398 	-5.03503e-06 	-0.00037569 	0.236518
0.01199 	-5.25456e-06 	-0.000369773 	0.235429
0.0120401 	-5.47005e-06 	-0.000363558 	0.234298
0.0120401 	-5.47005e-06 	-0.000363558 	0.234298
0.0120903 	-5.68309e-06 	-0.000357163 	0.233142
0.0120903 	-5.68309e-06 	-0.000357163 	0.233142
0.0121906 	-6.09821e-06 	-0.000343545 	0.230707
0.0121906 	-6.09821e-06 	-0.000343545 	0.230707
0.0122408 	-6.29933e-06 	-0.00033626 	0.229415
0.012291 	-6.49941e-06 	-0.000328897 	0.22811
0.012291 	-6.49941e-06 	-0.000328897 	0.22811
0.0123411 	-6.69266e-06 	-0.000321052 	0.226724
0.0123913 	-6.88454e-06 	-0.000313116 	0.225322
0.0123913 	-6.88454e-06 	-0.000313116 	0.225322
0.0124415 	-7.07067e-06 	-0.000304795 	0.22385
0.0124415 	-7.07067e-06 	-0.000304795 	0.22385
0.0124916 	-7.2537e-06 	-0.000296282 	0.22234
0.0124916 	-7.2537e-06 	-0.000296282 	0.22234
0.0125418 	-7.43237e-06 	-0.0002875 	0.220777
0.012592 	-7.60582e-06 	-0.000278426 	0.219149
0.0126421 	-7.77668e-06 	-0.000269207 	0.21749
0.0126421 	-7.77668e-06 	-0.000269207 	0.21749
0.0126923 	-7.93966e-06 	-0.000259604 	0.215733
0.0127425 	-8.0999e-06 	-0.000249888 	0.213943
0.0127425 	-8.0999e-06 	-0.000249888 	0.213943
0.0127926 	-8.25374e-06 	-0.000239914 	0.212076
0.0128428 	-8.40179e-06 	-0.000229759 	0.210139
0.0128428 	-8.40179e-06 	-0.000229759 	0.210139
0.0129431 	-8.68068e-06 	-0.000209001 	0.206065
0.0129431 	-8.68068e-06 	-0.000209001 	0.206065
0.0129933 	-8.81073e-06 	-0.000198452 	0.20392
0.0130435 	-8.93416e-06 	-0.000187815 	0.201701
0.0130435 	-8.93416e-06 	-0.000187815 	0.201701
0.0131438 	-9.15586e-06 	-0.000166442 	0.196988
0.0131438 	-9.15586e-06 	-0.000166442 	0.196988
0.013194 	-9.25466e-06 	-0.000155775 	0.194504
0.0132441 	-9.34278e-06 	-0.0001452 	0.19191
0.0132441 	-9.34278e-06 	-0.0001452 	0.19191
0.0132943 	-9.42342e-06 	-0.00013471 	0.18924
0.0133445 	-9.49321e-06 	-0.000124367 	0.18646
0.0133445 	-9.49321e-06 	-0.000124367 	0.18646
0.0133946 	-9.54953e-06 	-0.000114261 	0.18355
0.0133946 	-9.54953e-06 	-0.000114261 	0.18355
0.0134448 	-9.59601e-06 	-0.000104348 	0.180544
0.0134448 	-9.59601e-06 	-0.000104348 	0.180544
0.013495 	-9.63149e-06 	-9.46585e-05 	0.177434
0.0135452 	-9.64786e-06 	-8.53928e-05 	0.174145
0.0135452 	-9.64786e-06 	-8.53928e-05 	0.174145
0.0135953 	-9.65099e-06 	-7.64323e-05 	0.170736
0.0135953 	-9.65099e-06 	-7.64323e-05 	0.170736
0.0136455 	-9.63982e-06 	-6.78037e-05 	0.167198
0.0136455 	-9.63982e-06 	-6.78037e-05 	0.167198
0.0136957 	-9.61035e-06 	-5.96046e-05 	0.163494
0.0136957 	-9.61035e-06 	-5.96046e-05 	0.163494
0.0137458 	-9.55812e-06 	-5.1946e-05 	0.159581
0.013796 	-9.48736e-06 	-4.47309e-05 	0.155496
0.013796 	-9.48736e-06 	-4.47309e-05 	0.155496
0.0138462 	-9.39672e-06 	-3.79899e-05 	0.151224
0.0138462 	-9.39672e-06 	-3.79899e-05 	0.151224
0.0138963 	-9.28473e-06 	-3.17539e-05 	0.146752
0.0139465 	-9.14204e-06 	-2.62131e-05 	0.141989
0.0139465 	-9.14204e-06 	-2.62131e-05 	0.141989
0.0139967 	-8.97337e-06 	-2.12263e-05 	0.136979
0.0139967 	-8.97337e-06 	-2.12263e-05 	0.136979
0.0140468 	-8.7774e-06 	-1.67931e-05 	0.131709
0.0140468 	-8.7774e-06 	-1.67931e-05 	0.131709
0.014097 	-8.55193e-06 	-1.29222e-05 	0.126156
0.0141472 	-8.29429e-06 	-9.61406e-06 	0.120297
0.0141472 	-8.29429e-06 	-9.61406e-06 	0.120297
0.0141973 	-8.00126e-06 	-6.8549e-06 	0.114106
0.0142475 	-7.66284e-06 	-4.68806e-06 	0.107484
0.0142977 	-7.28334e-06 	-2.98307e-06 	0.100446
0.0142977 	-7.28334e-06 	-2.98307e-06 	0.100446
0.0143478 	-6.86455e-06 	-1.69565e-06 	0.0929803
0.014398 	-6.41044e-06 	-7.86034e-07 	0.0851052
0.014398 	-6.41044e-06 	-7.86034e-07 	0.0851052
0.0144482 	-5.92707e-06 	-2.03525e-07 	0.0768783
0.0144983 	-5.42236e-06 	1.14671e-07 	0.068404
0.0144983 	-5.42236e-06 	1.14671e-07 	0.068404
0.0145485 	-4.90568e-06 	2.3898e-07 	0.0598331
0.0145485 	-4.90568e-06 	2.3898e-07 	0.0598331
0.0145987 	-4.38603e-06 	2.40855e-07 	0.0513476
0.0146488 	-3.86937e-06 	1.84096e-07 	0.0431306
0.014699 	-3.35602e-06 	1.16626e-07 	0.0353325
0.014699 	-3.35602e-06 	1.16626e-07 	0.0353325
0.0147492 	-2.8381e-06 	6.69322e-08 	0.0280503
0.0147993 	-2.29476e-06 	4.41567e-08 	0.0213296
0.0147993 	-2.29476e-06 	4.41567e-08 	0.0213296
0.0148495 	-1.67928e-06 	4.55257e-08 	0.0151806
0.0148495 	-1.67928e-06 	4.55257e-08 	0.0151806
0.0148997 	-9.6668e-07 	4.53833e-08 	0.0095944
0.0148997 	-9.6668e-07 	4.53833e-08 	0.0095944
0.0149498 	-3.10649e-07 	3.23478e-08 	0.00454965
0.0149498 	-3.10649e-07 	3.23478e-08 	0.00454965
0.015 	0 	0 	0
0.015 	0 	0 	0
