/*--------------------------------*- C++ -*----------------------------------*\
| =========                 |                                                 |
| \\      /  F ield         | OpenFOAM: The Open Source CFD Toolbox           |
|  \\    /   O peration     | Version:  v1906                                 |
|   \\  /    A nd           | Web:      www.OpenFOAM.com                      |
|    \\/     M anipulation  |                                                 |
\*---------------------------------------------------------------------------*/
FoamFile
{
    version     2.0;
    format      ascii;
    class       volScalarField;
    location    "98.4";
    object      pPrime2Mean;
}
// * * * * * * * * * * * * * * * * * * * * * * * * * * * * * * * * * * * * * //

dimensions      [2 -2 -4 0 0 0 0];


internalField   nonuniform List<scalar> 
630
(
78982.2
80411.6
79805.9
81296.1
79246.2
80150.8
80037.5
80956.4
79521.2
79871
80280
80584.1
79812.7
79574.9
80546.8
80185.9
80120.9
79266.1
80841.1
79774
80444.1
78947.1
81159.5
79357.5
80781.7
78620
81499.3
78941.9
81135.3
78285.7
81859.8
78528.8
81508.1
77945.5
82239.8
78118.7
81902.4
77600.6
82638
77710.3
82317.8
77253.5
83053.3
77300.1
82753.3
76906.8
83484.6
76885.5
83208.5
76562.3
83930.4
76466.7
83683
76220.4
84390.3
76045.8
84175.2
75879.1
84868.5
75626.2
84683.6
75537.8
85374.1
75210.6
85208.9
75198.9
85916.2
74800.2
85752.7
74863.6
86496.9
74395.7
86315.3
74529.5
87109.6
73997.3
86895.1
74197.1
87742
73606.2
87490.1
73873.1
88380.9
73225.4
88098.5
73564.6
89016.9
72857.1
88718.1
73270.5
89648
72501.2
89347
72982.2
90277.9
72154.9
89985.5
72694.8
90912.4
71815.7
90634.3
72411.5
91555.4
71485.5
91291.8
72137.1
92212.1
71168.2
91954.1
71874.2
92889.9
70866.9
92616.5
71623.4
93594.1
70583.9
93278.7
71385.1
94324.8
70319
93946.7
71158.4
95073.2
70069.9
94628.5
70941.7
95827.1
69833.8
95326.6
70732.7
96579.6
69609.6
96034.5
70530.8
97330.4
69397.7
96742.9
70336.4
98081.7
69197.9
97448.5
70149.3
98833.9
69009.1
98151
69972
99582.9
68831.4
98849.9
69808.9
100325
68668.2
99545.7
69660.6
101061
68523.5
100237
69524.6
101793
68397.3
100924
69397.8
102519
68284.8
101602
69277.5
103237
68180.8
102266
69164.5
103942
68083.2
102914
69060.5
104629
67992.9
103543
68966.2
105298
67911.8
104154
68882
105944
67841.3
104741
68808.2
106567
67781.8
105303
68743.4
107162
67732.3
105836
68686.2
107730
67690.9
106341
68635
108267
67655.2
106818
68589.5
108775
67623.8
107266
68549.5
109253
67596.5
107686
68514.8
109701
67573.3
108076
68485.1
110117
67554.2
108436
68459.9
110502
67538.8
108766
68438.6
110854
67526.4
109066
68420.9
111175
67516.7
109338
68406.4
111465
67509.1
109584
68394.5
111728
67503.2
109804
68384.8
111963
67498.7
110001
68377
112173
67495.3
110176
68370.6
112359
67492.7
110331
68365.4
112523
67490.6
110467
68361.1
112668
67489
110586
68357.6
112794
67487.8
110689
68354.7
112904
67486.9
110779
68352.3
112999
67486.3
110857
68350.3
113081
67485.9
110925
68348.7
113152
67485.7
110985
68347.4
113215
67485.6
111038
68346.3
113271
67485.6
111086
68345.3
113320
67485.7
111129
68344.4
113364
67485.7
111166
68343.7
113403
67485.7
111199
68342.9
113437
67485.7
111226
68342.3
113465
67485.6
111243
68339.4
113483
67483.1
111250
68332.2
113492
67476.2
111254
68325.7
113496
67469.9
9958.7
10008.1
9864.71
10179.9
9966.48
10016.5
9873.18
10184.7
9975.26
10026.7
9883.3
10191.2
9985.54
10038.8
9894.93
10199.4
9997.69
10052.8
9908.19
10209.2
10011.9
10068.8
9923.27
10220.5
10027.8
10086.7
9940.16
10233.5
10045
10106.3
9958.61
10248.6
10063.3
10127.9
9978.37
10265.9
10082.6
10151.8
9999.25
10285.3
10103.2
10178.1
10021.2
10307.1
10125.5
10207.1
10044.8
10331.6
10149.4
10238.6
10070.6
10358.8
10175.3
10272.7
10099.2
10388.6
10203.2
10309.5
10130.8
10420.6
10233.2
10348.8
10165
10454.4
10265.5
10390.6
10201.5
10489.6
10300.2
10434.8
10240.3
10526.2
10337.3
10481.3
10281.4
10564.8
10376.3
10530.3
10324.9
10606.3
10417.1
10581.9
10371
10651.5
10459.6
10636
10419.1
10700.7
10503.6
10692.2
10469.2
10754
10549.1
10750
10520.8
10811.1
10595.6
10808.7
10573.6
10871.4
10642.7
10868.1
10627.3
10933.9
10690.3
10928.3
10681.8
10998
10738.9
10990.2
10737.5
11063.6
10789.4
11054
10794.5
11130.2
10842
11119.5
10852.4
11197.4
10895.7
11185.7
10910.5
11264.5
10949.7
11252.3
10968.4
11331.5
11003.4
11319.6
11026.5
11398.7
11057.3
11387.5
11085.1
11465.5
11111.7
11455
11144.5
11531.2
11166.7
11521.2
11204.6
11595.4
11222.1
11586.1
11265
11659.1
11278
11650.8
11325.5
11723.5
11334.4
11715.7
11385.9
11789.2
11391.2
11780.5
11445.7
11855.5
11447.7
11844.2
11504.6
11921.1
11502.9
11906.2
11561.8
11985.5
11556.1
11966.2
11617.1
12048.3
11606.8
12024.6
11670.7
12109.1
11655.4
12081.2
11722.9
12167.8
11702.4
12136
11773.5
12224.4
11748.4
12188.9
11822.6
12279
11793.5
12239.8
11869.9
12331.7
11837.5
12288.6
11915.1
12382.2
11879.8
12335.2
11958.1
12430.4
11920.2
12379.5
11999
12476.1
11958.4
12421.3
12037.4
12519.1
11994.2
12460.7
12073.5
12559.3
12027.7
12497.5
12107.1
12596.7
12058.9
12531.6
12138.3
12631.4
12087.8
12563.3
12167
12663.4
12114.4
12592.5
12193.4
12692.9
12138.8
12619.3
12217.5
12719.8
12161.2
12643.9
12239.3
12744.3
12181.4
12666.2
12259
12766.5
12199.7
12686.4
12276.6
12786.4
12216.1
12704.5
12292.3
12804.1
12230.6
12720.6
12306.1
12819.6
12243.5
12734.8
12318.1
12833.2
12254.6
12747.3
12328.4
12845
12264.2
12758.1
12337.3
12855
12272.5
12767.6
12344.9
12863.7
12279.7
12775.9
12351.5
12871.2
12285.9
12783.2
12357.2
12877.7
12291.3
12789.8
12362.3
12883.5
12296.2
12795.8
12367
12888.7
12300.6
12801.1
12371.1
12893.5
12304.6
12806
12374.8
12897.7
12308.1
12810.3
12378.1
12901.4
12311.2
12814
12380.8
12904.5
12313.8
12817.1
12379.5
12903.5
12312.4
12816
12371.6
12895.8
12304.4
12808.3
12364.1
12888.5
12296.8
12800.9
)
;

boundaryField
{
    leftWall
    {
        type            calculated;
        value           nonuniform 0();
    }
    rightWall
    {
        type            calculated;
        value           nonuniform List<scalar> 8(111254 12364.1 68325.7 12888.5 113496 12296.8 67469.9 12800.9);
    }
    leftSides_periodic0
    {
        type            cyclic;
    }
    leftSides_periodic1
    {
        type            cyclic;
    }
    rightSides_periodic0
    {
        type            cyclic;
    }
    rightSides_periodic1
    {
        type            cyclic;
    }
    leftInOut_periodic0
    {
        type            cyclic;
    }
    leftInOut_periodic1
    {
        type            cyclic;
    }
    rightInOut_periodic0
    {
        type            cyclic;
    }
    rightInOut_periodic1
    {
        type            cyclic;
    }
    procBoundary3to1
    {
        type            processor;
        value           nonuniform List<scalar> 
316
(
130699
135556
134360
135285
130860
135339
134498
135085
131016
135095
134629
134853
131176
134830
134763
134594
131345
134552
134909
134316
131527
134266
135070
134022
131722
133975
135246
133717
131931
133681
135437
133404
132153
133386
135643
133085
132390
133090
135865
132764
132646
132789
136103
132441
132922
132486
136358
132113
133216
132181
136629
131775
133527
131871
136912
131427
133852
131556
137207
131066
134186
131235
137516
130695
134528
130911
137841
130319
134879
130582
138184
129941
135242
130247
138544
129564
135624
129906
138921
129187
136026
129562
139313
128807
136448
129219
139719
128427
136884
128878
140137
128052
137331
128540
140564
127686
137785
128203
141000
127330
138246
127867
141444
126981
138715
127533
141898
126639
139193
127203
142362
126303
139680
126878
142835
125978
140174
126565
143315
125666
140670
126265
143800
125370
141168
125978
144288
125087
141665
125701
144779
124814
142163
125432
145269
124549
142659
125173
145758
124294
143152
124925
146244
124051
143640
124689
146725
123819
144121
124466
147200
123600
144593
124255
147667
123392
145054
124058
148124
123196
145503
123872
148569
123014
145940
123699
149001
122844
146363
123537
149421
122685
146772
123385
149827
122536
147166
123243
150218
122396
147543
123111
150593
122267
147902
122990
150950
122148
148244
122878
151290
122038
148567
122776
151612
121937
148870
122682
151915
121845
149155
122597
152199
121760
149421
122519
152463
121684
149667
122449
152709
121615
149893
122385
152935
121552
150101
122328
153143
121496
150290
122276
153332
121446
150461
122230
153503
121401
150615
122189
153657
121361
150754
122153
153796
121325
150879
122120
153921
121294
150991
122091
154033
121266
151090
122065
154133
121241
151179
122042
154222
121219
151257
122022
154301
121200
151326
122004
154369
121183
151386
121989
154429
121169
151438
121975
154481
121156
151483
121964
154527
121146
151523
121954
154566
121136
151559
121945
154601
121128
151590
121937
154633
121121
151619
121930
154661
121114
151644
121923
154686
121108
151666
121918
154708
121103
151686
121913
154727
121099
151702
121909
154742
121095
151713
121906
154754
121092
151721
121903
154762
121090
151727
121902
154767
121089
)
;
    }
    procBoundary3to1throughrightSides_periodic1
    {
        type            processorCyclic;
        value           nonuniform List<scalar> 
314
(
10227.1
10530.8
10854.6
11195.3
11551.2
11921.7
12306.2
12704
13115.7
13542.8
13986.5
14446.5
14922.1
15413.9
15923.1
16448.7
16987.7
17537.2
18095.5
18661.5
19234.9
19816.1
20406.1
21004.7
21608.8
22213.8
22816.7
23416.2
24011.2
24600.2
25181.6
25755.1
26320.2
26875.4
27416.8
27941.5
28448.8
28939.7
29414.7
29872.2
30309.5
30725.1
31119.6
31495.2
31854.3
32198
32525.9
32836.4
33128.4
33401.8
33657
33893.9
34112.8
34314.2
34498.9
34667.8
34821.8
34961.6
35088.2
35202.4
35305
35396.8
35478.3
35550.2
35613.3
35668.7
35717.3
35760.3
35798.7
35833.2
35864.3
35892.2
35916.7
35937.7
35955
35967.5
35976.6
35982.8
12081
11836.6
11581.9
11316.7
11043.2
10764.9
10484.3
10202.4
9919.31
9635.61
9351.85
9067.6
8781.81
8494.11
8205.56
7918.53
7635.35
7357.11
7083.81
6815.46
6552.99
6297.98
6051.52
5814.03
5585.83
5367.34
5158.9
4960.71
4772.97
4595.76
4428.94
4272.2
4125.34
3988.26
3860.96
3743.66
3636.92
3541.09
3455.65
3379.03
3309.09
3244.14
3183.58
3127.42
3075.72
3028.38
2985.17
2946.07
2911.11
2880.09
2852.62
2828.26
2806.63
2787.48
2770.61
2755.77
2742.72
2731.26
2721.17
2712.3
2704.51
2697.7
2691.77
2686.64
2682.21
2678.41
2675.12
2672.27
2669.76
2667.52
2665.52
2663.72
2662.14
2660.78
2659.65
2658.84
2658.23
2657.82
14095
14373.5
14675.6
15000.4
15344.6
15705.3
16081.8
16476
16888.6
17318.9
17766
18229.9
18710.9
19209.5
19726.7
20262.5
20815.3
21382.7
21962.4
22553.8
23156.8
23770.8
24394.5
25027.3
25668.7
26317.6
26971.6
27627
28280.1
28927.1
29565.6
30195.3
30815.2
31422.8
32015.5
32592.7
33155.2
33703.2
34235.1
34749.2
35245.3
35722.9
36180.4
36615.8
37028.7
37420.9
37795.2
38153.2
38494.7
38817.8
39120.6
39402.5
39663.7
39904.9
40126.9
40330.5
40516.4
40685.7
40839.5
40978.6
41104.1
41216.8
41317.3
41406.6
41485.1
41553.9
41613.8
41666.2
41712.3
41753.3
41790
41823
41852.6
41878.6
41901
41919.5
41932.8
41942.5
41949.1
10656.7
10419.6
10172.2
9911.98
9642.12
9366.71
9088.39
8807.55
8524
8238.4
7951.56
7663.85
7375.64
7087.25
6799.1
6512.5
6229.67
5952.61
5682.38
5419.67
5165.5
4920.99
4686.93
4463.58
4250.81
4048.52
3856.96
3676.65
3507.79
3350.1
3203.23
3067.06
2941.49
2826.21
2720.67
2624.57
2537.64
2459.6
2389.94
2327.54
2271.11
2219.73
2173.16
2131.5
2094.54
2061.7
2032.42
2006.35
1983.28
1962.96
1945.19
1929.72
1916.29
1904.64
1894.54
1885.76
1878.13
1871.51
1865.77
1860.79
1856.48
1852.74
1849.49
1846.69
1844.27
1842.19
1840.39
1838.82
1837.44
1836.21
1835.11
1834.12
1833.25
1832.49
1831.85
1831.33
1830.95
1830.67
1830.49
)
;
    }
    procBoundary3to2
    {
        type            processor;
        value           nonuniform List<scalar> 
11
(
78718.4
80657.5
79564.6
81610.5
9951.56
10000.8
9857.93
10176.9
9857.93
10176.9
10176.9
)
;
    }
    procBoundary3to2throughrightInOut_periodic0
    {
        type            processorCyclic;
        value           uniform 9857.93;
    }
}


// ************************************************************************* //
