/*--------------------------------*- C++ -*----------------------------------*\
| =========                 |                                                 |
| \\      /  F ield         | OpenFOAM: The Open Source CFD Toolbox           |
|  \\    /   O peration     | Version:  v1906                                 |
|   \\  /    A nd           | Web:      www.OpenFOAM.com                      |
|    \\/     M anipulation  |                                                 |
\*---------------------------------------------------------------------------*/
FoamFile
{
    version     2.0;
    format      ascii;
    class       volVectorField;
    location    "98.4";
    object      U;
}
// * * * * * * * * * * * * * * * * * * * * * * * * * * * * * * * * * * * * * //

dimensions      [0 1 -1 0 0 0 0];


internalField   nonuniform List<vector> 
630
(
(0.00202158 -4.42092e-06 -0.309619)
(0.0096236 0.00429949 -0.278983)
(0.00133792 -0.00169898 -0.305307)
(-0.00781391 0.000847769 -0.27017)
(0.00191148 -0.000184404 -0.308739)
(0.00985472 0.00431104 -0.279013)
(0.00165618 -0.00161873 -0.304365)
(-0.00711909 0.00107054 -0.261578)
(0.00179917 -0.000346759 -0.307651)
(0.0100513 0.00431234 -0.278912)
(0.00196297 -0.00152621 -0.303406)
(-0.00659237 0.00128445 -0.256109)
(0.0016846 -0.000503424 -0.306419)
(0.0102272 0.00429445 -0.278757)
(0.00226098 -0.00145068 -0.302492)
(-0.00625483 0.00118768 -0.253278)
(0.00156424 -0.000654948 -0.305062)
(0.0103851 0.00427578 -0.278562)
(0.00255851 -0.00136502 -0.301634)
(-0.00602872 0.00111252 -0.251723)
(0.00143787 -0.000804812 -0.303599)
(0.0105259 0.00425245 -0.278332)
(0.00285682 -0.00127681 -0.300841)
(-0.00580711 0.00113281 -0.250457)
(0.00130663 -0.000951908 -0.302053)
(0.0106494 0.00422556 -0.278071)
(0.00315371 -0.00118634 -0.300113)
(-0.0055352 0.00114951 -0.249122)
(0.00117208 -0.00109496 -0.300439)
(0.0107547 0.00419607 -0.277779)
(0.003447 -0.00109312 -0.299444)
(-0.00521707 0.00115494 -0.247741)
(0.00103585 -0.00123239 -0.298768)
(0.0108404 0.00416419 -0.277452)
(0.00373539 -0.00100147 -0.298816)
(-0.00485485 0.0011607 -0.24631)
(0.000899588 -0.0013615 -0.297044)
(0.0109051 0.00412995 -0.277088)
(0.00401885 -0.000909659 -0.298179)
(-0.00445054 0.00116808 -0.244828)
(0.000764695 -0.00147975 -0.295264)
(0.0109478 0.00409336 -0.276683)
(0.00428978 -0.000853072 -0.297613)
(-0.00400655 0.00117558 -0.243295)
(0.000632097 -0.00157895 -0.293413)
(0.010967 0.00405445 -0.276235)
(0.0045392 -0.000783646 -0.297281)
(-0.00352515 0.00118138 -0.24171)
(0.000503213 -0.00174557 -0.291481)
(0.0109609 0.004013 -0.27574)
(0.00482757 -0.000579057 -0.296596)
(-0.00300804 0.0011874 -0.24007)
(0.000388 -0.00197336 -0.289609)
(0.0109303 0.00396795 -0.275194)
(0.00530482 -0.000317295 -0.293478)
(-0.00246016 0.00118013 -0.238366)
(0.000297436 -0.00207169 -0.288026)
(0.010881 0.00391909 -0.274595)
(0.00598693 -0.000376328 -0.286727)
(-0.00189226 0.00121665 -0.236568)
(0.000200042 -0.00192265 -0.286132)
(0.0108151 0.0038669 -0.273933)
(0.00645233 -0.000417324 -0.282138)
(-0.00130585 0.0013255 -0.234772)
(4.73453e-06 -0.00164769 -0.281753)
(0.0107254 0.00381121 -0.273203)
(0.00675088 -0.000253025 -0.279807)
(-0.000700269 0.0013748 -0.233255)
(-0.000334536 -0.00186035 -0.273559)
(0.0105979 0.00375312 -0.272403)
(0.00696487 -9.55045e-05 -0.278686)
(1.01906e-05 0.00124728 -0.231654)
(-0.00062012 -0.00224257 -0.266427)
(0.0104222 0.00369374 -0.271534)
(0.00713495 -9.75682e-06 -0.277854)
(0.00102037 0.000999953 -0.228327)
(-0.000785563 -0.00236706 -0.262049)
(0.0101983 0.00363278 -0.270596)
(0.00727824 6.85627e-05 -0.276946)
(0.00232449 0.00106237 -0.221814)
(-0.000870101 -0.00232805 -0.259205)
(0.00993267 0.00357013 -0.269583)
(0.00738919 0.000149739 -0.275964)
(0.00349011 0.00135274 -0.215173)
(-0.000907804 -0.00224303 -0.256951)
(0.00963339 0.00350658 -0.268486)
(0.00747021 0.000223282 -0.274895)
(0.00432469 0.00146649 -0.21088)
(-0.000925919 -0.0022378 -0.254806)
(0.00930614 0.00344229 -0.267295)
(0.00752938 0.000289183 -0.273735)
(0.00502011 0.00143546 -0.208127)
(-0.000936076 -0.00227569 -0.252646)
(0.00895274 0.0033798 -0.266004)
(0.00757524 0.000350177 -0.272482)
(0.00571514 0.00137083 -0.206014)
(-0.000941921 -0.00227169 -0.250474)
(0.00857632 0.00330098 -0.264605)
(0.00761315 0.000406723 -0.271136)
(0.00640285 0.00137287 -0.204016)
(-0.00094508 -0.0022655 -0.248285)
(0.00818471 0.00327035 -0.263073)
(0.00764466 0.000458735 -0.2697)
(0.00707232 0.00141287 -0.201985)
(-0.000946123 -0.00225777 -0.24607)
(0.00774929 0.00330789 -0.261496)
(0.00766969 0.000506151 -0.268179)
(0.00772914 0.00142349 -0.199933)
(-0.000944343 -0.00224553 -0.243827)
(0.00724642 0.00328157 -0.260117)
(0.00768677 0.000548643 -0.266577)
(0.00837543 0.00143473 -0.197859)
(-0.000939444 -0.0022258 -0.241549)
(0.00669239 0.00306575 -0.258571)
(0.00769505 0.000586663 -0.264904)
(0.00901186 0.00144688 -0.195759)
(-0.000933404 -0.00219972 -0.239234)
(0.00611756 0.00276098 -0.255425)
(0.00769683 0.0006209 -0.263169)
(0.00963852 0.00145784 -0.19363)
(-0.000930237 -0.00216873 -0.236879)
(0.0056094 0.00280307 -0.250007)
(0.00769714 0.000651001 -0.261379)
(0.0102552 0.00146599 -0.19147)
(-0.000932969 -0.00213372 -0.234481)
(0.00523238 0.00295975 -0.245184)
(0.0076996 0.000676222 -0.25954)
(0.0108611 0.00147211 -0.189278)
(-0.000941442 -0.00208985 -0.232038)
(0.00489864 0.00297421 -0.24183)
(0.00770308 0.000696481 -0.257649)
(0.0114538 0.0014758 -0.187054)
(-0.000954311 -0.00204623 -0.229544)
(0.00446628 0.00285102 -0.239326)
(0.00770389 0.000712635 -0.255706)
(0.0120303 0.00147739 -0.184797)
(-0.000968242 -0.00204026 -0.227005)
(0.00395319 0.00273055 -0.237087)
(0.00769836 0.000725123 -0.253708)
(0.0125864 0.00146709 -0.182503)
(-0.000975527 -0.00205583 -0.224466)
(0.0034377 0.00270455 -0.234824)
(0.0076849 0.000733853 -0.251653)
(0.0131151 0.00147124 -0.180166)
(-0.000969478 -0.00201963 -0.221954)
(0.0029197 0.0026867 -0.232554)
(0.00766329 0.000738779 -0.249539)
(0.0136237 0.00150771 -0.177806)
(-0.00095814 -0.00189095 -0.219287)
(0.00238421 0.00259815 -0.230287)
(0.00763382 0.000740076 -0.247363)
(0.0141325 0.00152609 -0.175503)
(-0.000972698 -0.00169872 -0.216026)
(0.00184596 0.00244053 -0.227737)
(0.00759778 0.000738195 -0.245123)
(0.0146496 0.0014817 -0.173209)
(-0.00104909 -0.00161083 -0.211898)
(0.00135101 0.00231687 -0.224504)
(0.0075568 0.000733565 -0.242815)
(0.0151507 0.00136027 -0.170575)
(-0.00117284 -0.00166043 -0.207422)
(0.000937224 0.00230797 -0.220786)
(0.00751133 0.000726063 -0.240434)
(0.0155571 0.00128949 -0.167167)
(-0.00129116 -0.00169757 -0.203402)
(0.000585375 0.00231638 -0.217327)
(0.00745939 0.000715616 -0.237978)
(0.015828 0.0013464 -0.163182)
(-0.00137597 -0.00166438 -0.19995)
(0.000226582 0.00227604 -0.214313)
(0.00739836 0.000701878 -0.235441)
(0.0160142 0.00140726 -0.159483)
(-0.00142632 -0.00155726 -0.196782)
(-0.000191585 0.00217007 -0.211515)
(0.00732696 0.000684705 -0.23282)
(0.0161928 0.00141376 -0.156339)
(-0.00145893 -0.00146172 -0.193674)
(-0.000633871 0.00207577 -0.208746)
(0.00724554 0.000664685 -0.230113)
(0.0164164 0.00135441 -0.153513)
(-0.00148921 -0.00141271 -0.190536)
(-0.00106202 0.00201621 -0.20592)
(0.00715555 0.000642352 -0.227316)
(0.0166564 0.00130306 -0.150772)
(-0.00152035 -0.00136118 -0.187349)
(-0.00147617 0.00194637 -0.203026)
(0.00705776 0.000618966 -0.224415)
(0.0168681 0.00128675 -0.148008)
(-0.0015514 -0.00130359 -0.184108)
(-0.00187973 0.00187492 -0.20006)
(0.00695255 0.000595234 -0.221391)
(0.0170451 0.00126283 -0.145204)
(-0.00158178 -0.00124819 -0.180807)
(-0.00227452 0.00180464 -0.197016)
(0.00684089 0.000570095 -0.218216)
(0.0171903 0.00123258 -0.142355)
(-0.00161123 -0.00119392 -0.177436)
(-0.00266178 0.00173446 -0.193888)
(0.00672393 0.000542488 -0.214866)
(0.0173042 0.00120184 -0.139454)
(-0.00163967 -0.00113939 -0.173983)
(-0.00304209 0.00166323 -0.190666)
(0.00660246 0.000511957 -0.211329)
(0.0173864 0.00116978 -0.136495)
(-0.00166717 -0.00108518 -0.170431)
(-0.00341534 0.00159084 -0.187337)
(0.00647644 0.000479252 -0.207604)
(0.0174355 0.00113578 -0.133466)
(-0.0016938 -0.00103192 -0.166767)
(-0.00378038 0.00151797 -0.183884)
(0.00634518 0.000445953 -0.203687)
(0.0174504 0.00109983 -0.130359)
(-0.0017195 -0.000979042 -0.162974)
(-0.00413524 0.00144507 -0.180287)
(0.00620788 0.000412524 -0.199567)
(0.0174292 0.00106155 -0.12716)
(-0.00174414 -0.000926549 -0.159032)
(-0.00447771 0.00137178 -0.176526)
(0.00606398 0.000378876 -0.195222)
(0.0173685 0.00102076 -0.123854)
(-0.00176754 -0.000874458 -0.154922)
(-0.00480513 0.00129807 -0.172573)
(0.00591314 0.000345158 -0.190629)
(0.0172633 0.000977402 -0.120416)
(-0.00178939 -0.000822815 -0.150619)
(-0.00511389 0.00122414 -0.168399)
(0.00575497 0.000311461 -0.185757)
(0.0171067 0.000932659 -0.116818)
(-0.0018092 -0.000771547 -0.146097)
(-0.00539948 0.00115011 -0.163967)
(0.00558901 0.000278065 -0.180575)
(0.0168926 0.0008873 -0.11304)
(-0.00182625 -0.000720376 -0.141329)
(-0.00565669 0.00107617 -0.159238)
(0.00541471 0.000245091 -0.175056)
(0.0166172 0.000840631 -0.109064)
(-0.00183954 -0.000669763 -0.136286)
(-0.00587991 0.00100257 -0.154171)
(0.00523128 0.000212897 -0.169169)
(0.0162765 0.000792296 -0.104876)
(-0.00184741 -0.000620046 -0.130941)
(-0.00606351 0.000929492 -0.148726)
(0.00503771 0.000182054 -0.162883)
(0.0158659 0.000742004 -0.10045)
(-0.00184736 -0.000570612 -0.125277)
(-0.00620207 0.000857124 -0.142866)
(0.00483285 0.000152581 -0.156165)
(0.0153789 0.000690628 -0.0957604)
(-0.00183668 -0.000521015 -0.119267)
(-0.00629106 0.000785975 -0.136555)
(0.00461545 0.000125044 -0.148981)
(0.0148085 0.000638946 -0.0907878)
(-0.00181313 -0.000471286 -0.112872)
(-0.00632892 0.000716079 -0.129765)
(0.00438413 9.93746e-05 -0.141298)
(0.0141489 0.000586904 -0.0855215)
(-0.00177536 -0.000422515 -0.106059)
(-0.00631387 0.000647058 -0.122471)
(0.00413676 7.55384e-05 -0.133086)
(0.0133978 0.00053478 -0.0799667)
(-0.00172284 -0.000375642 -0.0988179)
(-0.00624021 0.000578409 -0.114633)
(0.00387088 5.5383e-05 -0.124323)
(0.0125573 0.000482869 -0.0741485)
(-0.00165551 -0.000330533 -0.0911658)
(-0.00609898 0.000510978 -0.106214)
(0.00358462 3.83775e-05 -0.114964)
(0.0116361 0.00043154 -0.0681141)
(-0.00157396 -0.000287455 -0.0831571)
(-0.00587769 0.000446242 -0.097231)
(0.0032788 2.43577e-05 -0.10499)
(0.0106487 0.000381224 -0.0619305)
(-0.00147966 -0.000247129 -0.0748857)
(-0.00556649 0.000384353 -0.0877568)
(0.00295899 1.26258e-05 -0.0944837)
(0.00961538 0.000332381 -0.0556764)
(-0.00137474 -0.000210062 -0.0664779)
(-0.0051645 0.000325723 -0.0779322)
(0.00263312 2.40788e-06 -0.0836125)
(0.00855891 0.000285468 -0.0494312)
(-0.00126143 -0.000176543 -0.0580755)
(-0.00468046 0.000270962 -0.0679523)
(0.00230966 -5.44119e-06 -0.0726181)
(0.00750203 0.00024083 -0.0432624)
(-0.00114143 -0.000146578 -0.0498122)
(-0.0041335 0.000220643 -0.0580377)
(0.00199625 -1.15659e-05 -0.0617713)
(0.00646493 0.000198861 -0.0372199)
(-0.00101515 -0.000119981 -0.0417939)
(-0.00355108 0.000175117 -0.0483931)
(0.0016972 -1.60941e-05 -0.0513115)
(0.00546487 0.000160017 -0.0313383)
(-0.000880998 -9.54898e-05 -0.0340984)
(-0.00296588 0.0001335 -0.0391797)
(0.00141194 -1.81689e-05 -0.041408)
(0.00451847 0.000123821 -0.0256498)
(-0.000734356 -7.47331e-05 -0.0267947)
(-0.00241578 9.7626e-05 -0.0305232)
(0.00113449 -1.90835e-05 -0.0321698)
(0.00364698 9.22512e-05 -0.0202051)
(-0.000565479 -6.05612e-05 -0.0199798)
(-0.0019495 6.99501e-05 -0.0225548)
(0.000852532 -2.12084e-05 -0.0236934)
(0.00288496 6.82405e-05 -0.0151035)
(-0.000355898 -2.07742e-05 -0.0138422)
(-0.00163943 2.5944e-05 -0.0154871)
(0.00054473 -3.2223e-06 -0.0161403)
(0.00229387 2.49446e-05 -0.0105522)
(-0.000145366 -3.45436e-05 -0.00833585)
(-0.0012758 2.99428e-05 -0.00923536)
(0.000250123 -1.97115e-05 -0.00947361)
(0.00166579 3.16622e-05 -0.00649975)
(-1.83372e-05 5.60463e-06 -0.00290769)
(-0.000530187 -5.08508e-06 -0.00317574)
(5.03678e-05 5.06025e-06 -0.00319184)
(0.000660562 -5.70485e-06 -0.00235197)
(-0.00250671 0.000470156 -0.290999)
(-0.00713734 -0.000912481 -0.25825)
(-0.000543339 -0.000756877 -0.247309)
(0.00119087 -9.79419e-05 -0.280065)
(-0.00242645 0.000529181 -0.291563)
(-0.00756422 -0.0010182 -0.259592)
(-0.00063978 -0.00084504 -0.247024)
(0.000989581 -0.000126225 -0.279973)
(-0.00233634 0.000590223 -0.291998)
(-0.00787818 -0.00110159 -0.260483)
(-0.000745418 -0.000935791 -0.246567)
(0.000813306 -0.000154205 -0.279829)
(-0.0022368 0.000657734 -0.292319)
(-0.00803753 -0.00115958 -0.260629)
(-0.00085897 -0.00102474 -0.245941)
(0.000666745 -0.000178852 -0.279663)
(-0.00212722 0.00072029 -0.292526)
(-0.00805021 -0.00121996 -0.260072)
(-0.000983531 -0.00111343 -0.245246)
(0.000552028 -0.000205861 -0.279491)
(-0.00200707 0.000780062 -0.292625)
(-0.00794903 -0.00127715 -0.258986)
(-0.00112412 -0.00121144 -0.244603)
(0.0004681 -0.000227831 -0.279323)
(-0.00187619 0.000836165 -0.292621)
(-0.00776763 -0.00132743 -0.257542)
(-0.00127948 -0.00130343 -0.244014)
(0.000409071 -0.000240959 -0.279146)
(-0.00173517 0.000887736 -0.292527)
(-0.00753068 -0.00137177 -0.25587)
(-0.00144569 -0.00138342 -0.24345)
(0.000358152 -0.000247208 -0.27889)
(-0.00158565 0.000934545 -0.292354)
(-0.00725321 -0.00141064 -0.25405)
(-0.00161815 -0.00145821 -0.242888)
(0.000305689 -0.000247982 -0.278518)
(-0.00142991 0.000976482 -0.292116)
(-0.00694272 -0.00144383 -0.252123)
(-0.00179239 -0.00152996 -0.242304)
(0.000250998 -0.000247386 -0.278035)
(-0.0012704 0.00101318 -0.291829)
(-0.00660289 -0.00147138 -0.250109)
(-0.00196405 -0.00159689 -0.241682)
(0.000194617 -0.00024659 -0.277451)
(-0.00110945 0.00104318 -0.291506)
(-0.00623838 -0.00149387 -0.248033)
(-0.00212865 -0.00165777 -0.24101)
(0.000136291 -0.000246768 -0.276776)
(-0.000949312 0.00106667 -0.291156)
(-0.00585814 -0.00151125 -0.245945)
(-0.00228177 -0.00171127 -0.240281)
(7.57762e-05 -0.000247168 -0.276017)
(-0.000791907 0.0010887 -0.290783)
(-0.00547394 -0.0015233 -0.243914)
(-0.00241939 -0.0017631 -0.2395)
(1.29668e-05 -0.000247588 -0.275181)
(-0.000637251 0.00111477 -0.290362)
(-0.00509365 -0.00153036 -0.241981)
(-0.00253769 -0.00181512 -0.238688)
(-5.21303e-05 -0.000248104 -0.274271)
(-0.00048188 0.00114739 -0.289815)
(-0.00471781 -0.00153396 -0.240141)
(-0.00263364 -0.00185819 -0.237866)
(-0.00011952 -0.000248748 -0.273291)
(-0.000325002 0.00118301 -0.289115)
(-0.00434267 -0.00153467 -0.238367)
(-0.00270874 -0.00188239 -0.236981)
(-0.000189381 -0.000249463 -0.272245)
(-0.000168303 0.00121542 -0.288275)
(-0.00396421 -0.00153127 -0.236633)
(-0.00277041 -0.00189027 -0.235885)
(-0.000262221 -0.000250205 -0.271132)
(-1.35344e-05 0.00124302 -0.287313)
(-0.00357952 -0.00152299 -0.234915)
(-0.00282191 -0.00188615 -0.234544)
(-0.000338718 -0.000250943 -0.269953)
(0.000137949 0.00126587 -0.286245)
(-0.00318591 -0.00150617 -0.233183)
(-0.0028629 -0.00187672 -0.233001)
(-0.000419577 -0.000251655 -0.26871)
(0.000284979 0.0012846 -0.285084)
(-0.00278182 -0.00147718 -0.231393)
(-0.00289263 -0.00186215 -0.231307)
(-0.000505449 -0.000252313 -0.267401)
(0.000426512 0.00129954 -0.283843)
(-0.00237031 -0.00143722 -0.229533)
(-0.00291091 -0.00184357 -0.229497)
(-0.000596938 -0.000252849 -0.266025)
(0.000561652 0.00131096 -0.282529)
(-0.00195587 -0.00139102 -0.227625)
(-0.00291796 -0.00182237 -0.227593)
(-0.000694684 -0.000253141 -0.264583)
(0.000689709 0.0013191 -0.28115)
(-0.00154033 -0.00134304 -0.225685)
(-0.00291422 -0.00179791 -0.22561)
(-0.000799389 -0.000253119 -0.263072)
(0.000810217 0.00132409 -0.27971)
(-0.00112311 -0.0012939 -0.22371)
(-0.00290027 -0.00177023 -0.223556)
(-0.00091179 -0.000252571 -0.261493)
(0.000922882 0.00132603 -0.278212)
(-0.00070328 -0.00124287 -0.221694)
(-0.00287671 -0.00173945 -0.221433)
(-0.00103266 -0.000251883 -0.259844)
(0.00102752 0.00132505 -0.276659)
(-0.000280369 -0.00119044 -0.219629)
(-0.00284365 -0.00170583 -0.219243)
(-0.00116256 -0.000251193 -0.258126)
(0.00112405 0.00132124 -0.27505)
(0.000145636 -0.00113684 -0.217511)
(-0.00280033 -0.00166997 -0.21698)
(-0.00130174 -0.000249692 -0.256337)
(0.00121245 0.00131475 -0.273386)
(0.000574637 -0.00108207 -0.215336)
(-0.00274661 -0.00163192 -0.214623)
(-0.0014511 -0.000245758 -0.254471)
(0.00129278 0.00130577 -0.271664)
(0.00100626 -0.00102655 -0.2131)
(-0.00268385 -0.00159129 -0.212163)
(-0.00161173 -0.000237149 -0.252516)
(0.00136514 0.00129457 -0.269884)
(0.00143738 -0.000971497 -0.210808)
(-0.00261327 -0.00154814 -0.209606)
(-0.00177909 -0.00022308 -0.250461)
(0.00142965 0.00128083 -0.268042)
(0.00186627 -0.000915724 -0.208462)
(-0.00253543 -0.0015027 -0.206964)
(-0.00194999 -0.000204188 -0.248283)
(0.00148654 0.00126475 -0.266136)
(0.00231058 -0.000858867 -0.205962)
(-0.00245095 -0.00145487 -0.20424)
(-0.00213669 -0.00018389 -0.245871)
(0.00153565 0.00124686 -0.264163)
(0.00279599 -0.000805487 -0.203152)
(-0.00236052 -0.00140413 -0.201435)
(-0.00235964 -0.00016647 -0.243082)
(0.00157725 0.00122671 -0.262103)
(0.00331812 -0.000758221 -0.200014)
(-0.00226492 -0.00135122 -0.198547)
(-0.00262068 -0.000152259 -0.239927)
(0.00161257 0.00120416 -0.259925)
(0.00383515 -0.000716133 -0.196731)
(-0.00216512 -0.00129649 -0.195577)
(-0.0028921 -0.000140909 -0.236591)
(0.00164244 0.00117893 -0.257618)
(0.00430333 -0.000677112 -0.193539)
(-0.00206216 -0.00124014 -0.192532)
(-0.00314186 -0.000131116 -0.233292)
(0.00166696 0.0011512 -0.255181)
(0.00470309 -0.000638353 -0.190552)
(-0.0019573 -0.00118365 -0.189428)
(-0.00335368 -0.000121313 -0.23014)
(0.00168608 0.00112188 -0.252617)
(0.00504361 -0.000598493 -0.187706)
(-0.00185152 -0.00112689 -0.186269)
(-0.00352587 -0.000111102 -0.227121)
(0.00169974 0.00109138 -0.249925)
(0.0053416 -0.000557941 -0.184886)
(-0.00174533 -0.00106776 -0.183042)
(-0.0036652 -9.89275e-05 -0.224149)
(0.00170793 0.00106002 -0.247104)
(0.00560786 -0.000517329 -0.182029)
(-0.00163921 -0.00100587 -0.179717)
(-0.0037812 -8.41849e-05 -0.221126)
(0.00171076 0.00102808 -0.244151)
(0.00585019 -0.000475805 -0.179078)
(-0.00153371 -0.000942222 -0.176271)
(-0.00388239 -6.7456e-05 -0.217985)
(0.00170838 0.000995784 -0.241063)
(0.00607348 -0.000432879 -0.175975)
(-0.00142941 -0.000878437 -0.172693)
(-0.00397417 -4.98116e-05 -0.214701)
(0.001701 0.000963088 -0.237834)
(0.00627989 -0.000389533 -0.172699)
(-0.00132682 -0.000815097 -0.168985)
(-0.00405873 -3.18433e-05 -0.211268)
(0.00168879 0.000930046 -0.234459)
(0.00646899 -0.000346984 -0.16926)
(-0.0012265 -0.000752597 -0.165149)
(-0.00413643 -1.35763e-05 -0.207691)
(0.001672 0.000896547 -0.230934)
(0.00663868 -0.000305606 -0.165677)
(-0.00112911 -0.00069169 -0.161195)
(-0.00420723 4.78045e-06 -0.203969)
(0.00165107 0.000861996 -0.227259)
(0.00678716 -0.000265401 -0.161962)
(-0.00103533 -0.000632769 -0.157127)
(-0.00427141 2.31466e-05 -0.200098)
(0.00162659 0.000826224 -0.223434)
(0.0069136 -0.000226509 -0.158114)
(-0.000945771 -0.000575764 -0.15295)
(-0.00432954 4.11654e-05 -0.196069)
(0.00159903 0.000789865 -0.219459)
(0.00701798 -0.000189255 -0.154129)
(-0.00086088 -0.00052053 -0.148664)
(-0.00438201 5.82006e-05 -0.191874)
(0.00156874 0.000753531 -0.215327)
(0.00710034 -0.000154125 -0.150002)
(-0.000780939 -0.000467111 -0.144263)
(-0.00442834 7.4008e-05 -0.187511)
(0.00153599 0.000717558 -0.211025)
(0.00716005 -0.000121462 -0.14573)
(-0.000705942 -0.000415789 -0.139736)
(-0.00446732 8.83311e-05 -0.182978)
(0.00150099 0.000681979 -0.206541)
(0.00719592 -9.15624e-05 -0.141312)
(-0.000635908 -0.000366742 -0.135063)
(-0.00449763 0.000101042 -0.178275)
(0.00146395 0.000646658 -0.201859)
(0.00720678 -6.45935e-05 -0.136745)
(-0.000571347 -0.000320154 -0.130229)
(-0.00451801 0.000112242 -0.173395)
(0.00142513 0.00061145 -0.196965)
(0.00719169 -4.05773e-05 -0.132019)
(-0.000512843 -0.000276239 -0.125237)
(-0.00452734 0.000121964 -0.168328)
(0.00138476 0.000576337 -0.191842)
(0.00714993 -1.95102e-05 -0.127132)
(-0.000460721 -0.000235213 -0.120093)
(-0.00452481 0.000130151 -0.163051)
(0.00134309 0.000541354 -0.186474)
(0.00708075 -1.33439e-06 -0.122082)
(-0.000415246 -0.000197246 -0.114799)
(-0.00450972 0.000136636 -0.157544)
(0.00130036 0.000506557 -0.180838)
(0.00698331 1.40542e-05 -0.116871)
(-0.00037661 -0.000162407 -0.109356)
(-0.00448113 0.000141258 -0.15179)
(0.00125683 0.000472017 -0.17491)
(0.0068569 2.67304e-05 -0.111495)
(-0.000344924 -0.000130767 -0.103763)
(-0.00443761 0.000143941 -0.145779)
(0.00121277 0.000437804 -0.168668)
(0.006701 3.67218e-05 -0.105952)
(-0.000320207 -0.000102313 -0.0980206)
(-0.00437735 0.000144614 -0.139495)
(0.00116836 0.00040399 -0.16209)
(0.00651526 4.4226e-05 -0.100237)
(-0.000302408 -7.70534e-05 -0.092128)
(-0.00429848 0.000143319 -0.132924)
(0.00112375 0.000370656 -0.155151)
(0.0062991 4.93373e-05 -0.09435)
(-0.000291002 -5.5123e-05 -0.0860877)
(-0.0041991 0.000140199 -0.12605)
(0.00107908 0.000337884 -0.147826)
(0.00605139 5.22e-05 -0.0882886)
(-0.000285197 -3.65036e-05 -0.0798776)
(-0.00407684 0.000135262 -0.118857)
(0.0010344 0.000305752 -0.140093)
(0.00577054 5.32712e-05 -0.0820336)
(-0.000284708 -2.10914e-05 -0.0734783)
(-0.00392877 0.000128698 -0.111333)
(0.000989672 0.000274429 -0.13193)
(0.00545616 5.24524e-05 -0.0755612)
(-0.000289004 -8.76024e-06 -0.0669158)
(-0.00375208 0.000120695 -0.103441)
(0.000944415 0.000244134 -0.123314)
(0.00511098 5.0056e-05 -0.0688842)
(-0.000296931 6.53714e-07 -0.0602436)
(-0.00354575 0.000111214 -0.0951456)
(0.000897961 0.000214905 -0.114193)
(0.00474003 4.64246e-05 -0.0620515)
(-0.000307107 7.35649e-06 -0.0535428)
(-0.00331208 0.000100619 -0.0864728)
(0.000850184 0.000186823 -0.104547)
(0.00435006 4.17191e-05 -0.0551469)
(-0.000317919 1.16818e-05 -0.0469208)
(-0.00305568 8.91506e-05 -0.0775046)
(0.000801153 0.00016002 -0.0944446)
(0.00394965 3.64623e-05 -0.0482867)
(-0.000327677 1.40231e-05 -0.0404999)
(-0.00278323 7.70794e-05 -0.0683826)
(0.000750888 0.000134671 -0.0840305)
(0.00354832 3.08791e-05 -0.0416071)
(-0.000334837 1.48022e-05 -0.0343996)
(-0.0025032 6.49119e-05 -0.0592981)
(0.000699696 0.000111046 -0.0735195)
(0.00315504 2.53016e-05 -0.0352434)
(-0.000338199 1.44857e-05 -0.0287173)
(-0.00222418 5.30203e-05 -0.0504631)
(0.000647996 8.94158e-05 -0.0631699)
(0.0027767 2.00297e-05 -0.029306)
(-0.000336992 1.35384e-05 -0.0235144)
(-0.00195279 4.1874e-05 -0.0420685)
(0.000596078 7.00495e-05 -0.0532288)
(0.00241716 1.53099e-05 -0.0238645)
(-0.000330766 1.2353e-05 -0.0188148)
(-0.00169206 3.18726e-05 -0.0342488)
(0.000543831 5.30126e-05 -0.0438763)
(0.00207692 1.13203e-05 -0.018948)
(-0.000319045 1.10705e-05 -0.0146138)
(-0.00144069 2.33232e-05 -0.0270758)
(0.000490545 3.84868e-05 -0.0352028)
(0.00175304 8.22834e-06 -0.0145593)
(-0.000300711 1.00389e-05 -0.0108899)
(-0.00119227 1.63626e-05 -0.0205812)
(0.000434607 2.62424e-05 -0.0272287)
(0.0014381 5.94525e-06 -0.0106956)
(-0.000273113 8.6011e-06 -0.0076156)
(-0.000933072 1.10679e-05 -0.0147918)
(0.000372837 1.73578e-05 -0.019942)
(0.00111763 4.16547e-06 -0.00737227)
(-0.000230769 7.85512e-06 -0.00478184)
(-0.000637444 6.66243e-06 -0.00978307)
(0.000299275 7.83212e-06 -0.0133462)
(0.000765355 4.52471e-06 -0.00466592)
(-0.000156384 3.38402e-06 -0.00247906)
(-0.000323764 3.3706e-06 -0.00555112)
(0.000196252 6.20163e-06 -0.00750305)
(0.0003985 8.21288e-07 -0.00259021)
(-5.13777e-05 1.93622e-06 -0.000715068)
(-7.35579e-05 7.76948e-07 -0.00180205)
(6.43085e-05 -2.49645e-07 -0.0023543)
(9.78567e-05 1.39812e-06 -0.000860334)
)
;

boundaryField
{
    leftWall
    {
        type            noSlip;
    }
    rightWall
    {
        type            noSlip;
    }
    leftSides_periodic0
    {
        type            cyclic;
    }
    leftSides_periodic1
    {
        type            cyclic;
    }
    rightSides_periodic0
    {
        type            cyclic;
    }
    rightSides_periodic1
    {
        type            cyclic;
    }
    leftInOut_periodic0
    {
        type            cyclic;
    }
    leftInOut_periodic1
    {
        type            cyclic;
    }
    rightInOut_periodic0
    {
        type            cyclic;
    }
    rightInOut_periodic1
    {
        type            cyclic;
    }
    procBoundary3to1
    {
        type            processor;
        value           nonuniform List<vector> 
316
(
(-0.000310956 0.00129755 -0.254103)
(-0.00214421 0.000870673 -0.285913)
(0.000398155 0.000403405 -0.307863)
(0.00195161 -0.00109864 -0.267155)
(-0.000398285 0.00135917 -0.254539)
(-0.00212655 0.000909567 -0.286594)
(0.000477393 0.000386639 -0.307705)
(0.00205993 -0.00101944 -0.266589)
(-0.000492259 0.00141881 -0.255022)
(-0.00214015 0.000950273 -0.287073)
(0.000555364 0.00036627 -0.30736)
(0.00216487 -0.000952086 -0.265855)
(-0.000593338 0.00147692 -0.255592)
(-0.00218757 0.000977827 -0.287321)
(0.000630053 0.000333745 -0.306823)
(0.00225553 -0.000909582 -0.265028)
(-0.000701014 0.0015402 -0.256254)
(-0.0022706 0.00100786 -0.287325)
(0.000699687 0.000305712 -0.306102)
(0.00233284 -0.000862629 -0.264101)
(-0.000806508 0.00160239 -0.256849)
(-0.00238945 0.00103741 -0.287079)
(0.000762553 0.000277307 -0.305206)
(0.00239878 -0.000816757 -0.263064)
(-0.000898129 0.00168051 -0.257169)
(-0.00254067 0.00106037 -0.286585)
(0.000817226 0.000249133 -0.304146)
(0.00245354 -0.000772878 -0.26191)
(-0.000975853 0.00175339 -0.257189)
(-0.00271393 0.00107161 -0.28587)
(0.000863009 0.000218434 -0.302927)
(0.00249637 -0.000730504 -0.26064)
(-0.00104437 0.00181461 -0.25693)
(-0.00288469 0.00107232 -0.285042)
(0.000900182 0.000188977 -0.301558)
(0.00252633 -0.000689856 -0.259252)
(-0.0011084 0.00187266 -0.25641)
(-0.00303861 0.00106438 -0.284162)
(0.000928574 0.000180899 -0.300007)
(0.00254234 -0.000651069 -0.25775)
(-0.00117146 0.00192907 -0.255645)
(-0.00317312 0.00105254 -0.283238)
(0.000953651 0.000170722 -0.298137)
(0.0025428 -0.000614602 -0.256137)
(-0.00123594 0.00198197 -0.254652)
(-0.00328753 0.00103828 -0.282265)
(0.000984684 0.000116767 -0.295634)
(0.00252605 -0.000579716 -0.254414)
(-0.00130341 0.00203067 -0.253445)
(-0.00338132 0.00102312 -0.281241)
(0.0010189 4.83474e-05 -0.292382)
(0.0024902 -0.000545124 -0.252587)
(-0.00137499 0.00207467 -0.252038)
(-0.00345577 0.0010062 -0.280164)
(0.00104397 1.63982e-05 -0.289092)
(0.00243277 -0.000511882 -0.250681)
(-0.00145142 0.00211747 -0.250445)
(-0.00351364 0.000987363 -0.279034)
(0.00105465 1.47914e-05 -0.286425)
(0.00235322 -0.000481384 -0.24873)
(-0.00153319 0.00216 -0.248673)
(-0.00355806 0.000966917 -0.277856)
(0.00105278 8.19497e-06 -0.284362)
(0.00225346 -0.000452492 -0.24675)
(-0.00162056 0.00219349 -0.246735)
(-0.00359096 0.000945202 -0.27663)
(0.0010441 -2.78538e-05 -0.282558)
(0.00213491 -0.000423967 -0.244742)
(-0.00171191 0.0022111 -0.24468)
(-0.00361265 0.000922403 -0.275357)
(0.00103064 -8.41267e-05 -0.280774)
(0.00199721 -0.000396598 -0.242708)
(-0.00180177 0.00221727 -0.242628)
(-0.00362232 0.000898494 -0.274039)
(0.00101164 -0.000140285 -0.278957)
(0.00183804 -0.000372431 -0.240659)
(-0.00188725 0.00221359 -0.240647)
(-0.00361913 0.000873498 -0.272674)
(0.000987467 -0.000183357 -0.277128)
(0.00165388 -0.000356654 -0.238627)
(-0.00196876 0.0022035 -0.238731)
(-0.00360239 0.000850523 -0.271263)
(0.00095944 -0.000218194 -0.275292)
(0.00144239 -0.000352288 -0.236651)
(-0.00204702 0.00218945 -0.23687)
(-0.00357125 0.00082271 -0.269807)
(0.000928678 -0.000251874 -0.273443)
(0.0012047 -0.000356027 -0.234743)
(-0.00212279 0.00217302 -0.235054)
(-0.00353073 0.000784225 -0.268267)
(0.000896244 -0.000283191 -0.271575)
(0.00094206 -0.000363247 -0.232876)
(-0.00219727 0.00215478 -0.233272)
(-0.00349491 0.000754605 -0.266522)
(0.000863237 -0.000312173 -0.269681)
(0.000654682 -0.000371166 -0.231034)
(-0.00227186 0.0021339 -0.231514)
(-0.0034633 0.000746478 -0.264352)
(0.000830687 -0.000340272 -0.267753)
(0.000343445 -0.000380011 -0.229218)
(-0.00234745 0.00211025 -0.229772)
(-0.00340702 0.000745538 -0.261748)
(0.000799211 -0.000367758 -0.26578)
(9.70219e-06 -0.000390086 -0.227425)
(-0.0024239 0.00208385 -0.22804)
(-0.0032901 0.000718716 -0.259246)
(0.000768826 -0.00039366 -0.263755)
(-0.00034496 -0.000400633 -0.225651)
(-0.00250028 0.00205461 -0.226312)
(-0.00311896 0.000670345 -0.257205)
(0.000739174 -0.000416191 -0.261685)
(-0.000719019 -0.000411705 -0.223894)
(-0.00257578 0.0020224 -0.224582)
(-0.00292868 0.000630032 -0.255447)
(0.000710107 -0.000434313 -0.259581)
(-0.00111096 -0.000423409 -0.222149)
(-0.00265025 0.00198719 -0.222846)
(-0.00273679 0.000602223 -0.2537)
(0.000681942 -0.000449111 -0.257449)
(-0.00151914 -0.000435757 -0.220415)
(-0.00272414 0.00194896 -0.221097)
(-0.0025416 0.00057785 -0.251872)
(0.000655269 -0.000461639 -0.255294)
(-0.00194172 -0.00044849 -0.218688)
(-0.00279806 0.00190781 -0.219332)
(-0.00233759 0.000544477 -0.250009)
(0.0006306 -0.00047218 -0.253113)
(-0.00237695 -0.000462155 -0.216967)
(-0.00287229 0.00186386 -0.217546)
(-0.00212188 0.000500861 -0.24815)
(0.000608131 -0.000480564 -0.250907)
(-0.00282384 -0.000475156 -0.215249)
(-0.00294685 0.00181703 -0.215735)
(-0.00189341 0.000456279 -0.246299)
(0.000587864 -0.000486527 -0.248674)
(-0.00328042 -0.000483705 -0.213534)
(-0.0030218 0.00176692 -0.213897)
(-0.0016524 0.000415864 -0.244453)
(0.000569813 -0.000490001 -0.246412)
(-0.003739 -0.000486808 -0.21181)
(-0.00309718 0.00171437 -0.212028)
(-0.00140379 0.000380879 -0.242599)
(0.000554016 -0.000491059 -0.244118)
(-0.00418785 -0.000486048 -0.210052)
(-0.00317308 0.00165979 -0.210123)
(-0.00115791 0.000350628 -0.240711)
(0.000540483 -0.000489847 -0.241791)
(-0.00462101 -0.000483871 -0.208245)
(-0.00324943 0.00160328 -0.208179)
(-0.000921868 0.000322313 -0.238765)
(0.000529183 -0.000486557 -0.239426)
(-0.00503588 -0.000481841 -0.206379)
(-0.00332558 0.00154598 -0.206187)
(-0.000697569 0.00029375 -0.236746)
(0.000520076 -0.000481401 -0.23702)
(-0.00543091 -0.000480399 -0.204452)
(-0.00340044 0.00148754 -0.204141)
(-0.000485053 0.000264538 -0.234653)
(0.000513137 -0.000474552 -0.234569)
(-0.00580507 -0.000479915 -0.202461)
(-0.00347274 0.0014261 -0.20204)
(-0.000283981 0.000233686 -0.232486)
(0.000508348 -0.000466145 -0.232068)
(-0.00615787 -0.000480468 -0.200407)
(-0.00354126 0.00136152 -0.199891)
(-9.39133e-05 0.000200991 -0.230249)