0 	0 	0 	0
0 	-1.30365e-35 	-1.51839e-36 	1.85499e-31
5.01672e-05 	-1.14719e-06 	-1.88186e-07 	0.0173049
5.01672e-05 	-1.14719e-06 	-1.88186e-07 	0.0173049
0.000100334 	-1.7099e-06 	-7.8012e-07 	0.0332937
0.000150502 	-2.1748e-06 	-1.81046e-06 	0.0481286
0.000150502 	-2.1748e-06 	-1.81046e-06 	0.0481286
0.000200669 	-2.69472e-06 	-3.28616e-06 	0.0618939
0.000200669 	-2.69472e-06 	-3.28616e-06 	0.0618939
0.000250836 	-3.23121e-06 	-5.18517e-06 	0.0746697
0.000301003 	-3.74884e-06 	-7.49995e-06 	0.0865234
0.000301003 	-3.74884e-06 	-7.49995e-06 	0.0865234
0.000351171 	-4.23608e-06 	-1.02246e-05 	0.0974994
0.000401338 	-4.68818e-06 	-1.33663e-05 	0.10762
0.000451505 	-5.10238e-06 	-1.69486e-05 	0.1169
0.000451505 	-5.10238e-06 	-1.69486e-05 	0.1169
0.000501672 	-5.47709e-06 	-2.1008e-05 	0.125367
0.000551839 	-5.81183e-06 	-2.55829e-05 	0.133066
0.000551839 	-5.81183e-06 	-2.55829e-05 	0.133066
0.000602007 	-6.10724e-06 	-3.07034e-05 	0.140058
0.000602007 	-6.10724e-06 	-3.07034e-05 	0.140058
0.000652174 	-6.36481e-06 	-3.63905e-05 	0.146413
0.000652174 	-6.36481e-06 	-3.63905e-05 	0.146413
0.000702341 	-6.58665e-06 	-4.26608e-05 	0.152203
0.000702341 	-6.58665e-06 	-4.26608e-05 	0.152203
0.000752508 	-6.77511e-06 	-4.95286e-05 	0.157499
0.000802676 	-6.93212e-06 	-5.70075e-05 	0.162354
0.000852843 	-7.05541e-06 	-6.51937e-05 	0.166763
0.000852843 	-7.05541e-06 	-6.51937e-05 	0.166763
0.00090301 	-7.15232e-06 	-7.39601e-05 	0.170835
0.00090301 	-7.15232e-06 	-7.39601e-05 	0.170835
0.000953177 	-7.2255e-06 	-8.32573e-05 	0.17461
0.00100334 	-7.27743e-06 	-9.30337e-05 	0.178124
0.00100334 	-7.27743e-06 	-9.30337e-05 	0.178124
0.00105351 	-7.31033e-06 	-0.00010324 	0.181409
0.00105351 	-7.31033e-06 	-0.00010324 	0.181409
0.00110368 	-7.32576e-06 	-0.00011384 	0.184487
0.00115385 	-7.32138e-06 	-0.000124877 	0.187338
0.00120401 	-7.30369e-06 	-0.000136197 	0.190037
0.00120401 	-7.30369e-06 	-0.000136197 	0.190037
0.00130435 	-7.23328e-06 	-0.000159549 	0.195044
0.00130435 	-7.23328e-06 	-0.000159549 	0.195044
0.00135452 	-7.17974e-06 	-0.000171569 	0.197344
0.00135452 	-7.17974e-06 	-0.000171569 	0.197344
0.00140468 	-7.11632e-06 	-0.000183749 	0.199535
0.00145485 	-7.04537e-06 	-0.000196038 	0.201642
0.00145485 	-7.04537e-06 	-0.000196038 	0.201642
0.00150502 	-6.96757e-06 	-0.000208416 	0.203672
0.00150502 	-6.96757e-06 	-0.000208416 	0.203672
0.00155518 	-6.88017e-06 	-0.000220882 	0.205594
0.00155518 	-6.88017e-06 	-0.000220882 	0.205594
0.00160535 	-6.78729e-06 	-0.000233368 	0.207456
0.00160535 	-6.78729e-06 	-0.000233368 	0.207456
0.00165552 	-6.6895e-06 	-0.00024586 	0.209265
0.00165552 	-6.6895e-06 	-0.00024586 	0.209265
0.00170569 	-6.5849e-06 	-0.000258322 	0.211003
0.00170569 	-6.5849e-06 	-0.000258322 	0.211003
0.00175585 	-6.47468e-06 	-0.000270711 	0.212687
0.00175585 	-6.47468e-06 	-0.000270711 	0.212687
0.00180602 	-6.36057e-06 	-0.00028303 	0.214332
0.00180602 	-6.36057e-06 	-0.00028303 	0.214332
0.00185619 	-6.24084e-06 	-0.000295218 	0.215925
0.00185619 	-6.24084e-06 	-0.000295218 	0.215925
0.00190635 	-6.11621e-06 	-0.000307238 	0.217472
0.00190635 	-6.11621e-06 	-0.000307238 	0.217472
0.00195652 	-5.98853e-06 	-0.00031914 	0.218991
0.00195652 	-5.98853e-06 	-0.00031914 	0.218991
0.00200669 	-5.85558e-06 	-0.000330799 	0.220462
0.00200669 	-5.85558e-06 	-0.000330799 	0.220462
0.00205686 	-5.71898e-06 	-0.000342242 	0.221902
0.00210702 	-5.57996e-06 	-0.000353543 	0.223319
0.00210702 	-5.57996e-06 	-0.000353543 	0.223319
0.00215719 	-5.43532e-06 	-0.000364437 	0.224688
0.00220736 	-5.2886e-06 	-0.000375155 	0.226039
0.00225753 	-5.13856e-06 	-0.000385588 	0.227361
0.00225753 	-5.13856e-06 	-0.000385588 	0.227361
0.00230769 	-4.98476e-06 	-0.000395651 	0.228651
0.00230769 	-4.98476e-06 	-0.000395651 	0.228651
0.00235786 	-4.82935e-06 	-0.000405551 	0.229928
0.00235786 	-4.82935e-06 	-0.000405551 	0.229928
0.00240803 	-4.66919e-06 	-0.000414924 	0.231164
0.00240803 	-4.66919e-06 	-0.000414924 	0.231164
0.00245819 	-4.50745e-06 	-0.000424104 	0.232386
0.00245819 	-4.50745e-06 	-0.000424104 	0.232386
0.00250836 	-4.34248e-06 	-0.00043289 	0.233582
0.00250836 	-4.34248e-06 	-0.00043289 	0.233582
0.00255853 	-4.17477e-06 	-0.000441315 	0.234754
0.0026087 	-4.00512e-06 	-0.000449482 	0.23591
0.0026087 	-4.00512e-06 	-0.000449482 	0.23591
0.00265886 	-3.83176e-06 	-0.000457128 	0.237034
0.00270903 	-3.65752e-06 	-0.00046465 	0.23815
0.00270903 	-3.65752e-06 	-0.00046465 	0.23815
0.0027592 	-3.47881e-06 	-0.000471505 	0.239228
0.00280936 	-3.29941e-06 	-0.000478251 	0.2403
0.00280936 	-3.29941e-06 	-0.000478251 	0.2403
0.00285953 	-3.11633e-06 	-0.000484422 	0.241339
0.00285953 	-3.11633e-06 	-0.000484422 	0.241339
0.0029097 	-2.93203e-06 	-0.000490396 	0.242367
0.0029097 	-2.93203e-06 	-0.000490396 	0.242367
0.00295987 	-2.74465e-06 	-0.000495877 	0.243368
0.00295987 	-2.74465e-06 	-0.000495877 	0.243368
0.00301003 	-2.55563e-06 	-0.000501102 	0.244355
0.0030602 	-2.36392e-06 	-0.000505905 	0.245318
0.00311037 	-2.17026e-06 	-0.000510425 	0.246264
0.00311037 	-2.17026e-06 	-0.000510425 	0.246264
0.00316054 	-1.97409e-06 	-0.000514578 	0.247189
0.00316054 	-1.97409e-06 	-0.000514578 	0.247189
0.00326087 	-1.57491e-06 	-0.000521996 	0.248983
0.00326087 	-1.57491e-06 	-0.000521996 	0.248983
0.00331104 	-1.37188e-06 	-0.000525292 	0.249853
0.0033612 	-1.16615e-06 	-0.000528278 	0.250702
0.0033612 	-1.16615e-06 	-0.000528278 	0.250702
0.00341137 	-9.5857e-07 	-0.000531066 	0.251535
0.00341137 	-9.5857e-07 	-0.000531066 	0.251535
0.00346154 	-7.48177e-07 	-0.000533552 	0.252346
0.00346154 	-7.48177e-07 	-0.000533552 	0.252346
0.00351171 	-5.36524e-07 	-0.000535901 	0.253145
0.00356187 	-3.22101e-07 	-0.000537947 	0.253919
0.00356187 	-3.22101e-07 	-0.000537947 	0.253919
0.00361204 	-1.07009e-07 	-0.00053992 	0.254685
0.00366221 	1.10929e-07 	-0.000541582 	0.255423
0.00366221 	1.10929e-07 	-0.000541582 	0.255423
0.00371237 	3.28972e-07 	-0.000543233 	0.25616
0.00371237 	3.28972e-07 	-0.000543233 	0.25616
0.00376254 	5.50469e-07 	-0.000544557 	0.256865
0.00376254 	5.50469e-07 	-0.000544557 	0.256865
0.00381271 	7.71966e-07 	-0.000545881 	0.25757
0.00381271 	7.71966e-07 	-0.000545881 	0.25757
0.00386288 	9.96683e-07 	-0.000546957 	0.258248
0.00391304 	1.22206e-06 	-0.000547982 	0.258921
0.00391304 	1.22206e-06 	-0.000547982 	0.258921
0.00396321 	1.44972e-06 	-0.000548851 	0.259575
0.00401338 	1.67895e-06 	-0.000549612 	0.260216
0.00401338 	1.67895e-06 	-0.000549612 	0.260216
0.00406355 	1.90925e-06 	-0.000550302 	0.260846
0.00406355 	1.90925e-06 	-0.000550302 	0.260846
0.00411371 	2.14186e-06 	-0.000550834 	0.261455
0.00411371 	2.14186e-06 	-0.000550834 	0.261455
0.00421405 	2.60975e-06 	-0.000551705 	0.26264
0.00421405 	2.60975e-06 	-0.000551705 	0.26264
0.00426421 	2.84504e-06 	-0.000552043 	0.263217
0.00426421 	2.84504e-06 	-0.000552043 	0.263217
0.00431438 	3.08156e-06 	-0.000552281 	0.263772
0.00431438 	3.08156e-06 	-0.000552281 	0.263772
0.00436455 	3.31879e-06 	-0.000552461 	0.264316
0.00436455 	3.31879e-06 	-0.000552461 	0.264316
0.00441472 	3.55628e-06 	-0.000552613 	0.264853
0.00441472 	3.55628e-06 	-0.000552613 	0.264853
0.00446488 	3.79462e-06 	-0.000552671 	0.265364
0.00446488 	3.79462e-06 	-0.000552671 	0.265364
0.00451505 	4.03296e-06 	-0.000552729 	0.265876
0.00451505 	4.03296e-06 	-0.000552729 	0.265876
0.00456522 	4.27145e-06 	-0.000552719 	0.266362
0.00456522 	4.27145e-06 	-0.000552719 	0.266362
0.00461538 	4.50999e-06 	-0.00055269 	0.266841
0.00461538 	4.50999e-06 	-0.00055269 	0.266841
0.00466555 	4.7483e-06 	-0.000552645 	0.267311
0.00471572 	4.98606e-06 	-0.000552564 	0.267757
0.00476589 	5.22382e-06 	-0.000552482 	0.268203
0.00476589 	5.22382e-06 	-0.000552482 	0.268203
0.00486622 	5.69619e-06 	-0.000552282 	0.269039
0.00486622 	5.69619e-06 	-0.000552282 	0.269039
0.00491639 	5.93165e-06 	-0.000552181 	0.269447
0.00496656 	6.16474e-06 	-0.000552086 	0.269829
0.00496656 	6.16474e-06 	-0.000552086 	0.269829
0.00501672 	6.39784e-06 	-0.000551991 	0.27021
0.00506689 	6.62873e-06 	-0.000551913 	0.270574
0.00511706 	6.8578e-06 	-0.000551849 	0.270923
0.00511706 	6.8578e-06 	-0.000551849 	0.270923
0.00521739 	7.31135e-06 	-0.000551764 	0.271592
0.00521739 	7.31135e-06 	-0.000551764 	0.271592
0.00526756 	7.53519e-06 	-0.000551749 	0.271909
0.00526756 	7.53519e-06 	-0.000551749 	0.271909
0.00531773 	7.75802e-06 	-0.000551744 	0.272221
0.00536789 	7.97531e-06 	-0.000551791 	0.272506
0.00536789 	7.97531e-06 	-0.000551791 	0.272506
0.00541806 	8.19261e-06 	-0.000551839 	0.272792
0.00546823 	8.40684e-06 	-0.000551913 	0.273065
0.00551839 	8.61614e-06 	-0.00055203 	0.273318
0.00551839 	8.61614e-06 	-0.00055203 	0.273318
0.00556856 	8.82543e-06 	-0.000552147 	0.273572
0.00556856 	8.82543e-06 	-0.000552147 	0.273572
0.0056689 	9.22892e-06 	-0.00055249 	0.274032
0.0056689 	9.22892e-06 	-0.00055249 	0.274032
0.00571906 	9.42854e-06 	-0.000552677 	0.274255
0.00576923 	9.62023e-06 	-0.000552909 	0.274458
0.00576923 	9.62023e-06 	-0.000552909 	0.274458
0.0058194 	9.80837e-06 	-0.000553161 	0.274651
0.0058194 	9.80837e-06 	-0.000553161 	0.274651
0.00591973 	1.01744e-05 	-0.000553706 	0.275015
0.00591973 	1.01744e-05 	-0.000553706 	0.275015
0.0059699 	1.03492e-05 	-0.000554011 	0.27518
0.0059699 	1.03492e-05 	-0.000554011 	0.27518
0.00602007 	1.05239e-05 	-0.000554316 	0.275344
0.00607023 	1.06867e-05 	-0.00055465 	0.275487
0.0061204 	1.08462e-05 	-0.000554991 	0.275623
0.0061204 	1.08462e-05 	-0.000554991 	0.275623
0.00617057 	1.10058e-05 	-0.000555333 	0.27576
0.00622074 	1.11524e-05 	-0.000555688 	0.275876
0.00622074 	1.11524e-05 	-0.000555688 	0.275876
0.0062709 	1.1295e-05 	-0.000556047 	0.275986
0.00632107 	1.14376e-05 	-0.000556406 	0.276095
0.00632107 	1.14376e-05 	-0.000556406 	0.276095
0.00637124 	1.15672e-05 	-0.000556764 	0.276187
0.00637124 	1.15672e-05 	-0.000556764 	0.276187
0.0064214 	1.16908e-05 	-0.00055712 	0.276271
0.0064214 	1.16908e-05 	-0.00055712 	0.276271
0.00647157 	1.18145e-05 	-0.000557477 	0.276354
0.00647157 	1.18145e-05 	-0.000557477 	0.276354
0.00652174 	1.19265e-05 	-0.000557827 	0.276424
0.00657191 	1.20289e-05 	-0.000558173 	0.276482
0.00657191 	1.20289e-05 	-0.000558173 	0.276482
0.00662207 	1.21313e-05 	-0.000558519 	0.27654
0.00667224 	1.22253e-05 	-0.000558852 	0.276589
0.00672241 	1.23037e-05 	-0.00055916 	0.276623
0.00672241 	1.23037e-05 	-0.00055916 	0.276623
0.00677258 	1.23822e-05 	-0.000559467 	0.276656
0.00682274 	1.24579e-05 	-0.000559768 	0.276687
0.00682274 	1.24579e-05 	-0.000559768 	0.276687
0.00687291 	1.25096e-05 	-0.000560007 	0.276696
0.00687291 	1.25096e-05 	-0.000560007 	0.276696
0.00692308 	1.25613e-05 	-0.000560245 	0.276704
0.00697324 	1.26129e-05 	-0.000560484 	0.276713
0.00702341 	1.26411e-05 	-0.00056067 	0.276703
0.00707358 	1.26629e-05 	-0.000560842 	0.276687
0.00707358 	1.26629e-05 	-0.000560842 	0.276687
0.00717391 	1.26934e-05 	-0.00056114 	0.276646
0.00717391 	1.26934e-05 	-0.00056114 	0.276646
0.00722408 	1.26838e-05 	-0.000561199 	0.276606
0.00722408 	1.26838e-05 	-0.000561199 	0.276606
0.00727425 	1.26741e-05 	-0.000561259 	0.276566
0.00727425 	1.26741e-05 	-0.000561259 	0.276566
0.00732441 	1.26645e-05 	-0.000561318 	0.276527
0.00732441 	1.26645e-05 	-0.000561318 	0.276527
0.00737458 	1.26234e-05 	-0.000561272 	0.276463
0.00737458 	1.26234e-05 	-0.000561272 	0.276463
0.00742475 	1.25821e-05 	-0.000561225 	0.2764
0.00747492 	1.25408e-05 	-0.000561177 	0.276336
0.00752508 	1.24835e-05 	-0.000561088 	0.27626
0.00752508 	1.24835e-05 	-0.000561088 	0.27626
0.00757525 	1.24103e-05 	-0.000560957 	0.276173
0.00762542 	1.23371e-05 	-0.000560825 	0.276085
0.00767559 	1.22636e-05 	-0.000560693 	0.275997
0.00767559 	1.22636e-05 	-0.000560693 	0.275997
0.00772575 	1.21596e-05 	-0.000560433 	0.275886
0.00777592 	1.20557e-05 	-0.000560173 	0.275774
0.00777592 	1.20557e-05 	-0.000560173 	0.275774
0.00782609 	1.19517e-05 	-0.000559913 	0.275662
0.00787625 	1.18313e-05 	-0.000559594 	0.275537
0.00787625 	1.18313e-05 	-0.000559594 	0.275537
0.00792642 	1.16991e-05 	-0.000559232 	0.275402
0.00797659 	1.15668e-05 	-0.00055887 	0.275267
0.00802676 	1.14291e-05 	-0.000558486 	0.275127
0.00802676 	1.14291e-05 	-0.000558486 	0.275127
0.00807692 	1.12711e-05 	-0.000558017 	0.274969
0.00807692 	1.12711e-05 	-0.000558017 	0.274969
0.00812709 	1.1113e-05 	-0.000557548 	0.27481
0.00817726 	1.0955e-05 	-0.000557079 	0.274652
0.00817726 	1.0955e-05 	-0.000557079 	0.274652
0.00822742 	1.07774e-05 	-0.000556487 	0.274474
0.00827759 	1.05977e-05 	-0.000555882 	0.274293
0.00827759 	1.05977e-05 	-0.000555882 	0.274293
0.00832776 	1.04179e-05 	-0.000555276 	0.274112
0.00832776 	1.04179e-05 	-0.000555276 	0.274112
0.00837793 	1.02265e-05 	-0.000554593 	0.273916
0.00842809 	1.00287e-05 	-0.000553867 	0.273712
0.00842809 	1.00287e-05 	-0.000553867 	0.273712
0.00847826 	9.83095e-06 	-0.000553141 	0.273509
0.00847826 	9.83095e-06 	-0.000553141 	0.273509
0.0085786 	9.41408e-06 	-0.000551515 	0.273069
0.0085786 	9.41408e-06 	-0.000551515 	0.273069
0.00862876 	9.20165e-06 	-0.00055067 	0.272843
0.00867893 	8.98552e-06 	-0.000549787 	0.27261
0.0087291 	8.76141e-06 	-0.000548823 	0.272361
0.00877926 	8.53731e-06 	-0.00054786 	0.272112
0.00882943 	8.3111e-06 	-0.000546869 	0.271858
0.0088796 	8.07801e-06 	-0.00054579 	0.271587
0.0088796 	8.07801e-06 	-0.00054579 	0.271587
0.00892977 	7.84493e-06 	-0.000544711 	0.271316
0.00892977 	7.84493e-06 	-0.000544711 	0.271316
0.00897993 	7.61049e-06 	-0.000543608 	0.27104
0.00897993 	7.61049e-06 	-0.000543608 	0.27104
0.0090301 	7.37083e-06 	-0.000542414 	0.270747
0.00908027 	7.13117e-06 	-0.00054122 	0.270453
0.00908027 	7.13117e-06 	-0.00054122 	0.270453
0.00913043 	6.89048e-06 	-0.000539999 	0.270154
0.0091806 	6.64635e-06 	-0.000538691 	0.269837
0.0091806 	6.64635e-06 	-0.000538691 	0.269837
0.00923077 	6.40223e-06 	-0.000537382 	0.269521
0.00928094 	6.15729e-06 	-0.000536039 	0.269197
0.00928094 	6.15729e-06 	-0.000536039 	0.269197
0.0093311 	5.91055e-06 	-0.000534616 	0.268858
0.00938127 	5.66381e-06 	-0.000533193 	0.268518
0.00938127 	5.66381e-06 	-0.000533193 	0.268518
0.00943144 	5.41665e-06 	-0.00053172 	0.268169
0.00943144 	5.41665e-06 	-0.00053172 	0.268169
0.00948161 	5.16893e-06 	-0.000530181 	0.267806
0.00948161 	5.16893e-06 	-0.000530181 	0.267806
0.00953177 	4.92122e-06 	-0.000528643 	0.267444
0.00953177 	4.92122e-06 	-0.000528643 	0.267444
0.00958194 	4.67379e-06 	-0.000527033 	0.267067
0.00958194 	4.67379e-06 	-0.000527033 	0.267067
0.00963211 	4.42655e-06 	-0.000525378 	0.26668
0.00968227 	4.17931e-06 	-0.000523723 	0.266294
0.00968227 	4.17931e-06 	-0.000523723 	0.266294
0.00973244 	3.93355e-06 	-0.000521968 	0.265888
0.00978261 	3.68805e-06 	-0.000520193 	0.265478
0.00978261 	3.68805e-06 	-0.000520193 	0.265478
0.00983278 	3.44291e-06 	-0.000518404 	0.265065
0.00983278 	3.44291e-06 	-0.000518404 	0.265065
0.00988294 	3.20027e-06 	-0.000516508 	0.26463
0.00993311 	2.95763e-06 	-0.000514612 	0.264196
0.00993311 	2.95763e-06 	-0.000514612 	0.264196
0.00998328 	2.71671e-06 	-0.000512659 	0.26375
0.0100334 	2.47788e-06 	-0.000510636 	0.263291
0.0100836 	2.23906e-06 	-0.000508614 	0.262832
0.0100836 	2.23906e-06 	-0.000508614 	0.262832
0.0101338 	2.00408e-06 	-0.000506484 	0.262351
0.0101839 	1.76993e-06 	-0.000504331 	0.261866
0.0101839 	1.76993e-06 	-0.000504331 	0.261866
0.0102341 	1.53708e-06 	-0.000502144 	0.261375
0.0102341 	1.53708e-06 	-0.000502144 	0.261375
0.0102843 	1.30832e-06 	-0.000499855 	0.260864
0.0103344 	1.07957e-06 	-0.000497566 	0.260354
0.0103344 	1.07957e-06 	-0.000497566 	0.260354
0.0103846 	8.55088e-07 	-0.000495175 	0.259824
0.0103846 	8.55088e-07 	-0.000495175 	0.259824
0.0104348 	6.32372e-07 	-0.000492743 	0.259286
0.0104348 	6.32372e-07 	-0.000492743 	0.259286
0.0104849 	4.11092e-07 	-0.000490279 	0.258742
0.0104849 	4.11092e-07 	-0.000490279 	0.258742
0.0105351 	1.94977e-07 	-0.000487697 	0.258177
0.0105853 	-2.11386e-08 	-0.000485115 	0.257611
0.0105853 	-2.11386e-08 	-0.000485115 	0.257611
0.0106856 	-4.40806e-07 	-0.000479674 	0.25643
0.0106856 	-4.40806e-07 	-0.000479674 	0.25643
0.0107358 	-6.47057e-07 	-0.000476875 	0.255825
0.010786 	-8.48542e-07 	-0.000473971 	0.255201
0.010786 	-8.48542e-07 	-0.000473971 	0.255201
0.0108361 	-1.04998e-06 	-0.000471066 	0.254578
0.0108863 	-1.24351e-06 	-0.00046799 	0.253923
0.0108863 	-1.24351e-06 	-0.00046799 	0.253923
0.0109365 	-1.43705e-06 	-0.000464914 	0.253269
0.0109365 	-1.43705e-06 	-0.000464914 	0.253269
0.0109866 	-1.62487e-06 	-0.000461714 	0.252593
0.0110368 	-1.81007e-06 	-0.000458457 	0.251906
0.0110368 	-1.81007e-06 	-0.000458457 	0.251906
0.011087 	-1.99173e-06 	-0.000455122 	0.251206
0.011087 	-1.99173e-06 	-0.000455122 	0.251206
0.0111371 	-2.16823e-06 	-0.000451673 	0.250487
0.0111873 	-2.3432e-06 	-0.000448188 	0.249761
0.0111873 	-2.3432e-06 	-0.000448188 	0.249761
0.0112375 	-2.51064e-06 	-0.000444532 	0.249007
0.0112876 	-2.67809e-06 	-0.000440875 	0.248253
0.0112876 	-2.67809e-06 	-0.000440875 	0.248253
0.0113378 	-2.8364e-06 	-0.000437 	0.247463
0.0113378 	-2.8364e-06 	-0.000437 	0.247463
0.011388 	-2.99444e-06 	-0.000433117 	0.246672
0.0114381 	-3.1446e-06 	-0.00042903 	0.245849
0.0114381 	-3.1446e-06 	-0.00042903 	0.245849
0.0114883 	-3.29291e-06 	-0.000424894 	0.245018
0.0115385 	-3.43448e-06 	-0.000420557 	0.244158
0.0115385 	-3.43448e-06 	-0.000420557 	0.244158
0.0115886 	-3.57299e-06 	-0.000416129 	0.243284
0.0116388 	-3.70575e-06 	-0.000411497 	0.242381
0.0116388 	-3.70575e-06 	-0.000411497 	0.242381
0.011689 	-3.83472e-06 	-0.00040673 	0.24146
0.0117391 	-3.95856e-06 	-0.000401747 	0.240509
0.0117893 	-4.07828e-06 	-0.00039659 	0.239535
0.0118395 	-4.19297e-06 	-0.000391199 	0.238529
0.0118395 	-4.19297e-06 	-0.000391199 	0.238529
0.0118896 	-4.30341e-06 	-0.00038561 	0.237498
0.0119398 	-4.4084e-06 	-0.000379761 	0.236431
0.0119398 	-4.4084e-06 	-0.000379761 	0.236431
0.01199 	-4.50922e-06 	-0.000373712 	0.235336
0.0120401 	-4.60382e-06 	-0.000367366 	0.2342
0.0120401 	-4.60382e-06 	-0.000367366 	0.2342
0.0120903 	-4.69469e-06 	-0.000360842 	0.233039
0.0120903 	-4.69469e-06 	-0.000360842 	0.233039
0.0121906 	-4.85902e-06 	-0.000346966 	0.230594
0.0121906 	-4.85902e-06 	-0.000346966 	0.230594
0.0122408 	-4.93115e-06 	-0.000339553 	0.229297
0.012291 	-5.00165e-06 	-0.000332063 	0.227988
0.012291 	-5.00165e-06 	-0.000332063 	0.227988
0.0123411 	-5.06189e-06 	-0.00032409 	0.226598
0.0123913 	-5.12017e-06 	-0.000316026 	0.225191
0.0123913 	-5.12017e-06 	-0.000316026 	0.225191
0.0124415 	-5.17015e-06 	-0.000307578 	0.223714
0.0124415 	-5.17015e-06 	-0.000307578 	0.223714
0.0124916 	-5.21587e-06 	-0.00029894 	0.2222
0.0124916 	-5.21587e-06 	-0.00029894 	0.2222
0.0125418 	-5.25559e-06 	-0.000290032 	0.220632
0.012592 	-5.28848e-06 	-0.000280834 	0.219
0.0126421 	-5.31801e-06 	-0.000271492 	0.217336
0.0126421 	-5.31801e-06 	-0.000271492 	0.217336
0.0126923 	-5.33785e-06 	-0.00026177 	0.215575
0.0127425 	-5.35453e-06 	-0.000251935 	0.213781
0.0127425 	-5.35453e-06 	-0.000251935 	0.213781
0.0127926 	-5.36389e-06 	-0.000241846 	0.211909
0.0128428 	-5.36714e-06 	-0.000231579 	0.209969
0.0128428 	-5.36714e-06 	-0.000231579 	0.209969
0.0129431 	-5.35633e-06 	-0.000210609 	0.205887
0.0129431 	-5.35633e-06 	-0.000210609 	0.205887
0.0129933 	-5.3422e-06 	-0.00019996 	0.203738
0.0130435 	-5.32221e-06 	-0.000189227 	0.201516
0.0130435 	-5.32221e-06 	-0.000189227 	0.201516
0.0131438 	-5.26229e-06 	-0.000167679 	0.196797
0.0131438 	-5.26229e-06 	-0.000167679 	0.196797
0.013194 	-5.22347e-06 	-0.000156931 	0.194309
0.0132441 	-5.1776e-06 	-0.00014628 	0.191712
0.0132441 	-5.1776e-06 	-0.00014628 	0.191712
0.0132943 	-5.12706e-06 	-0.000135718 	0.189039
0.0133445 	-5.07002e-06 	-0.000125309 	0.186257
0.0133445 	-5.07002e-06 	-0.000125309 	0.186257
0.0133946 	-5.0057e-06 	-0.000115142 	0.183344
0.0133946 	-5.0057e-06 	-0.000115142 	0.183344
0.0134448 	-4.93643e-06 	-0.00010517 	0.180336
0.0134448 	-4.93643e-06 	-0.00010517 	0.180336
0.013495 	-4.86178e-06 	-9.54261e-05 	0.177224
0.0135452 	-4.77887e-06 	-8.6111e-05 	0.173933
0.0135452 	-4.77887e-06 	-8.6111e-05 	0.173933
0.0135953 	-4.69092e-06 	-7.71042e-05 	0.170523
0.0135953 	-4.69092e-06 	-7.71042e-05 	0.170523
0.0136455 	-4.59779e-06 	-6.84325e-05 	0.166982
0.0136455 	-4.59779e-06 	-6.84325e-05 	0.166982
0.0136957 	-4.49848e-06 	-6.01939e-05 	0.163277
0.0136957 	-4.49848e-06 	-6.01939e-05 	0.163277
0.0137458 	-4.39197e-06 	-5.24995e-05 	0.159362
0.013796 	-4.27989e-06 	-4.52513e-05 	0.155276
0.013796 	-4.27989e-06 	-4.52513e-05 	0.155276
0.0138462 	-4.16206e-06 	-3.84796e-05 	0.151003
0.0138462 	-4.16206e-06 	-3.84796e-05 	0.151003
0.0138963 	-4.03835e-06 	-3.22147e-05 	0.14653
0.0139465 	-3.90701e-06 	-2.66469e-05 	0.141768
0.0139465 	-3.90701e-06 	-2.66469e-05 	0.141768
0.0139967 	-3.76983e-06 	-2.16342e-05 	0.136759
0.0139967 	-3.76983e-06 	-2.16342e-05 	0.136759
0.0140468 	-3.62696e-06 	-1.71757e-05 	0.13149
0.0140468 	-3.62696e-06 	-1.71757e-05 	0.13149
0.014097 	-3.47853e-06 	-1.32796e-05 	0.125939
0.0141472 	-3.32486e-06 	-9.94586e-06 	0.120083
0.0141472 	-3.32486e-06 	-9.94586e-06 	0.120083
0.0141973 	-3.16659e-06 	-7.16029e-06 	0.113896
0.0142475 	-3.00344e-06 	-4.96521e-06 	0.107278
0.0142977 	-2.83534e-06 	-3.22861e-06 	0.100245
0.0142977 	-2.83534e-06 	-3.22861e-06 	0.100245
0.0143478 	-2.66133e-06 	-1.9055e-06 	0.0927881
0.014398 	-2.48045e-06 	-9.55962e-07 	0.0849257
0.014398 	-2.48045e-06 	-9.55962e-07 	0.0849257
0.0144482 	-2.29189e-06 	-3.30688e-07 	0.0767165
0.0144983 	-2.09466e-06 	3.03773e-08 	0.0682648
0.0144983 	-2.09466e-06 	3.03773e-08 	0.0682648
0.0145485 	-1.88756e-06 	1.94383e-07 	0.0597207
0.0145485 	-1.88756e-06 	1.94383e-07 	0.0597207
0.0145987 	-1.66946e-06 	2.28876e-07 	0.0512643
0.0146488 	-1.44029e-06 	1.93271e-07 	0.0430763
0.014699 	-1.20229e-06 	1.31708e-07 	0.0353043
0.014699 	-1.20229e-06 	1.31708e-07 	0.0353043
0.0147492 	-9.61791e-07 	7.06929e-08 	0.0280432
0.0147993 	-7.3273e-07 	2.29433e-08 	0.021337
0.0147993 	-7.3273e-07 	2.29433e-08 	0.021337
0.0148495 	-5.45244e-07 	-1.0453e-08 	0.0151944
0.0148495 	-5.45244e-07 	-1.0453e-08 	0.0151944
0.0148997 	-4.22416e-07 	-2.28751e-08 	0.00960555
0.0148997 	-4.22416e-07 	-2.28751e-08 	0.00960555
0.0149498 	-2.91732e-07 	-1.791e-08 	0.00455353
0.0149498 	-2.91732e-07 	-1.791e-08 	0.00455353
0.015 	0 	0 	0
0.015 	0 	0 	0
