/*--------------------------------*- C++ -*----------------------------------*\
| =========                 |                                                 |
| \\      /  F ield         | OpenFOAM: The Open Source CFD Toolbox           |
|  \\    /   O peration     | Version:  v1912                                 |
|   \\  /    A nd           | Website:  www.openfoam.com                      |
|    \\/     M anipulation  |                                                 |
\*---------------------------------------------------------------------------*/
FoamFile
{
    version     2.0;
    format      ascii;
    class       volScalarField;
    location    "96.4";
    object      T;
}
// * * * * * * * * * * * * * * * * * * * * * * * * * * * * * * * * * * * * * //

dimensions      [0 0 0 1 0 0 0];


internalField   nonuniform List<scalar> 
2528
(
371.877
371.629
371.54
371.665
369.629
368.871
368.606
368.988
367.375
366.075
365.634
366.294
365.125
363.273
362.664
363.611
362.913
360.57
359.808
360.996
360.815
358.16
357.261
358.562
358.946
356.222
355.199
356.455
357.401
354.785
353.659
354.77
356.195
353.751
352.545
353.499
355.276
352.997
351.735
352.561
354.574
352.427
351.127
351.862
354.025
351.98
350.655
351.329
353.585
351.615
350.274
350.909
353.221
351.305
349.953
350.568
352.911
351.034
349.676
350.282
352.64
350.792
349.433
350.035
352.4
350.574
349.217
349.817
352.185
350.374
349.022
349.622
351.989
350.19
348.846
349.446
351.811
350.02
348.685
349.284
351.647
349.86
348.536
349.136
351.495
349.711
348.399
348.998
351.353
349.57
348.27
348.869
351.221
349.436
348.15
348.748
351.096
349.309
348.037
348.634
350.978
349.188
347.93
348.526
350.866
349.072
347.828
348.424
350.758
348.96
347.73
348.326
350.655
348.853
347.636
348.232
350.554
348.75
347.546
348.142
350.457
348.651
347.458
348.055
350.361
348.555
347.373
347.971
350.267
348.462
347.291
347.89
350.176
348.372
347.212
347.812
350.087
348.284
347.135
347.735
350.002
348.199
347.06
347.661
349.92
348.116
346.988
347.588
349.841
348.034
346.918
347.516
349.764
347.955
346.849
347.445
349.69
347.878
346.783
347.375
349.618
347.803
346.718
347.307
349.549
347.729
346.656
347.24
349.481
347.657
346.596
347.175
349.414
347.587
346.54
347.111
349.35
347.518
346.485
347.049
349.286
347.449
346.432
346.988
349.224
347.381
346.379
346.93
349.162
347.311
346.326
346.873
349.102
347.242
346.271
346.819
349.044
347.173
346.215
346.766
348.986
347.104
346.158
346.712
348.931
347.035
346.099
346.658
348.876
346.967
346.04
346.603
348.823
346.901
345.979
346.547
348.77
346.836
345.918
346.49
348.716
346.774
345.855
346.432
348.663
346.712
345.792
346.374
348.61
346.651
345.727
346.316
348.556
346.589
345.662
346.257
348.502
346.526
345.596
346.198
348.447
346.463
345.529
346.139
348.389
346.398
345.462
346.08
348.323
346.331
345.395
346.02
348.247
346.262
345.327
345.961
348.163
346.192
345.259
345.902
348.079
346.122
345.191
345.845
348.003
346.054
345.123
345.79
347.935
345.986
345.055
345.738
347.871
345.919
344.988
345.688
347.806
345.853
344.921
345.638
347.741
345.788
344.855
345.587
347.676
345.725
344.789
345.536
347.61
345.663
344.724
345.484
347.541
345.602
344.659
345.432
347.467
345.542
344.595
345.378
347.39
345.482
344.532
345.323
347.311
345.424
344.469
345.267
347.229
345.366
344.406
345.209
347.145
345.309
344.344
345.15
371.627
371.721
371.729
371.519
368.872
369.15
369.172
368.542
366.094
366.545
366.575
365.525
363.316
363.926
363.962
362.531
360.612
361.356
361.408
359.723
358.116
358.959
359.065
357.349
355.991
356.897
357.1
355.566
354.324
355.264
355.579
354.325
353.086
354.04
354.452
353.473
352.181
353.138
353.618
352.873
351.511
352.463
352.985
352.432
351.002
351.945
352.488
352.093
350.601
351.534
352.083
351.819
350.271
351.197
351.74
351.591
349.994
350.912
351.441
351.395
349.756
350.664
351.177
351.225
349.549
350.445
350.938
351.074
349.367
350.249
350.721
350.938
349.205
350.07
350.52
350.814
349.059
349.905
350.334
350.699
348.926
349.752
350.16
350.592
348.805
349.609
349.997
350.492
348.693
349.475
349.843
350.398
348.589
349.347
349.698
350.309
348.492
349.226
349.56
350.223
348.401
349.109
349.429
350.141
348.314
348.998
349.303
350.062
348.233
348.89
349.182
349.986
348.155
348.785
349.064
349.912
348.08
348.684
348.95
349.841
348.008
348.586
348.839
349.771
347.939
348.49
348.731
349.703
347.872
348.396
348.626
349.637
347.808
348.304
348.523
349.572
347.745
348.214
348.424
349.508
347.684
348.125
348.326
349.445
347.625
348.041
348.231
349.383
347.568
347.96
348.139
349.322
347.512
347.883
348.049
349.261
347.457
347.808
347.96
349.201
347.404
347.734
347.873
349.142
347.352
347.661
347.787
349.083
347.301
347.585
347.7
349.025
347.251
347.5
347.612
348.967
347.203
347.404
347.519
348.91
347.155
347.313
347.395
348.852
347.108
347.235
347.206
348.793
347.063
347.171
347.055
348.731
347.017
347.112
346.959
348.655
346.973
347.054
346.882
348.552
346.929
346.996
346.807
348.455
346.886
346.939
346.731
348.384
346.843
346.882
346.656
348.327
346.801
346.827
346.58
348.273
346.759
346.772
346.505
348.217
346.718
346.717
346.431
348.16
346.677
346.661
346.356
348.102
346.635
346.604
346.283
348.043
346.594
346.543
346.209
347.984
346.553
346.457
346.135
347.924
346.511
346.314
346.062
347.863
346.468
346.181
345.988
347.802
346.426
346.096
345.915
347.741
346.384
346.039
345.841
347.679
346.342
345.987
345.768
347.617
346.3
345.932
345.694
347.555
346.258
345.876
345.619
347.492
346.217
345.817
345.544
347.43
346.174
345.758
345.469
347.367
346.13
345.697
345.393
347.305
346.083
345.634
345.316
347.242
346.011
345.57
345.239
347.179
345.877
345.505
345.161
347.115
345.78
345.437
345.081
347.051
345.726
345.368
345.001
346.987
345.682
345.296
344.919
346.923
345.635
345.223
344.837
346.858
345.586
345.147
344.752
346.792
345.535
345.07
344.667
346.726
371.776
371.64
371.533
371.716
369.314
368.907
368.591
369.13
366.813
366.138
365.619
366.498
364.292
363.36
362.649
363.832
361.817
360.649
359.774
361.192
359.516
358.162
357.169
358.706
357.547
356.07
355.022
356.54
355.992
354.451
353.398
354.793
354.825
353.259
352.226
353.455
353.959
352.392
351.385
352.449
353.309
351.751
350.768
351.686
352.808
351.264
350.3
351.095
352.408
350.884
349.932
350.626
352.079
350.575
349.632
350.243
351.8
350.316
349.379
349.921
351.56
350.095
349.161
349.644
351.349
349.904
348.969
349.404
351.163
349.735
348.798
349.191
350.997
349.586
348.644
349.003
350.846
349.451
348.503
348.834
350.71
349.328
348.374
348.681
350.584
349.216
348.254
348.542
350.468
349.111
348.142
348.415
350.362
349.014
348.037
348.298
350.263
348.922
347.938
348.188
350.171
348.835
347.843
348.085
350.085
348.751
347.752
347.988
350.003
348.67
347.663
347.896
349.925
348.591
347.577
347.808
349.851
348.514
347.494
347.724
349.78
348.438
347.412
347.643
349.711
348.364
347.332
347.566
349.645
348.29
347.253
347.491
349.58
348.218
347.175
347.418
349.517
348.146
347.098
347.348
349.455
348.074
347.021
347.279
349.394
348.002
346.945
347.212
349.334
347.931
346.869
347.147
349.275
347.86
346.792
347.083
349.217
347.789
346.716
347.021
349.159
347.717
346.639
346.959
349.102
347.645
346.562
346.899
349.045
347.573
346.484
346.839
348.989
347.5
346.405
346.78
348.934
347.427
346.326
346.721
348.879
347.354
346.246
346.663
348.824
347.281
346.165
346.605
348.769
347.208
346.085
346.548
348.715
347.134
346.006
346.491
348.661
347.06
345.927
346.434
348.608
346.987
345.849
346.378
348.554
346.912
345.772
346.323
348.501
346.838
345.696
346.269
348.448
346.763
345.621
346.216
348.395
346.688
345.547
346.164
348.342
346.612
345.473
346.113
348.29
346.536
345.401
346.062
348.237
346.459
345.329
346.012
348.185
346.381
345.258
345.963
348.133
346.303
345.188
345.915
348.081
346.225
345.118
345.867
348.03
346.148
345.05
345.82
347.979
346.074
344.982
345.773
347.929
346.002
344.914
345.728
347.878
345.932
344.846
345.682
347.826
345.864
344.779
345.638
347.773
345.797
344.712
345.593
347.719
345.731
344.645
345.55
347.664
345.667
344.579
345.506
347.607
345.604
344.511
345.463
347.549
345.543
344.444
345.42
347.489
345.483
344.377
345.378
347.428
345.425
344.309
345.335
347.368
345.367
344.24
345.292
347.311
345.311
344.172
345.249
347.256
345.256
344.102
345.206
347.2
345.201
344.032
345.163
347.146
345.148
343.963
345.119
347.091
345.095
343.894
345.075
371.769
371.936
371.904
371.781
369.294
369.795
369.702
369.333
366.783
367.615
367.476
366.859
364.247
365.397
365.235
364.371
361.729
363.159
363.006
361.933
359.339
360.961
360.848
359.686
357.229
358.913
358.859
357.795
355.505
357.127
357.132
356.325
354.171
355.661
355.714
355.227
353.159
354.498
354.588
354.405
352.385
353.584
353.702
353.775
351.779
352.86
353
353.273
351.291
352.276
352.431
352.857
350.883
351.79
351.957
352.501
350.535
351.374
351.551
352.191
350.233
351.012
351.199
351.919
349.969
350.694
350.89
351.676
349.735
350.413
350.616
351.457
349.526
350.161
350.371
351.259
349.34
349.935
350.15
351.078
349.173
349.73
349.948
350.911
349.025
349.543
349.763
350.756
348.893
349.371
349.591
350.611
348.773
349.214
349.432
350.476
348.663
349.068
349.285
350.349
348.562
348.932
349.149
350.229
348.468
348.806
349.025
350.114
348.381
348.687
348.909
350.005
348.299
348.576
348.794
349.9
348.222
348.472
348.674
349.799
348.142
348.372
348.548
349.701
348.051
348.278
348.42
349.607
347.949
348.188
348.3
349.518
347.854
348.102
348.191
349.433
347.781
348.021
348.09
349.354
347.719
347.944
347.992
349.278
347.662
347.871
347.895
349.201
347.607
347.8
347.798
349.12
347.555
347.731
347.701
349.033
347.505
347.664
347.605
348.944
347.456
347.598
347.509
348.859
347.409
347.533
347.412
348.783
347.363
347.469
347.316
348.711
347.318
347.407
347.219
348.64
347.275
347.345
347.122
348.57
347.232
347.284
347.025
348.5
347.19
347.223
346.929
348.43
347.15
347.164
346.832
348.361
347.109
347.105
346.736
348.292
347.07
347.046
346.64
348.222
347.032
346.988
346.545
348.153
346.994
346.931
346.45
348.084
346.956
346.874
346.356
348.015
346.92
346.817
346.263
347.947
346.884
346.761
346.17
347.879
346.849
346.704
346.079
347.811
346.814
346.648
345.988
347.743
346.781
346.592
345.898
347.676
346.748
346.537
345.81
347.609
346.716
346.482
345.723
347.543
346.685
346.428
345.636
347.477
346.649
346.365
345.551
347.412
346.592
346.266
345.466
347.347
346.513
346.133
345.383
347.283
346.461
346.041
345.3
347.22
346.424
345.976
345.218
347.157
346.39
345.916
345.136
347.095
346.355
345.858
345.055
347.034
346.321
345.8
344.975
346.973
346.286
345.744
344.896
346.914
346.25
345.687
344.816
346.856
346.214
345.63
344.738
346.799
346.174
345.574
344.66
346.743
346.119
345.517
344.584
346.689
346.034
345.459
344.508
346.636
345.971
345.401
344.433
346.584
345.925
345.341
344.36
346.533
345.883
345.281
344.288
346.483
345.841
345.219
344.215
346.434
347.06
345.252
344.283
345.09
346.976
345.196
344.223
345.03
346.892
345.142
344.166
344.97
346.809
345.089
344.11
344.911
346.727
345.037
344.055
344.852
346.646
344.986
344.002
344.794
346.565
344.935
343.95
344.736
346.484
344.885
343.898
344.678
346.404
344.835
343.845
344.62
346.324
344.786
343.79
344.563
346.244
344.737
343.734
344.506
346.164
344.687
343.676
344.449
346.084
344.636
343.617
344.391
346.004
344.578
343.558
344.334
345.924
344.51
343.5
344.278
345.846
344.434
343.445
344.224
345.769
344.357
343.392
344.171
345.694
344.29
343.341
344.12
345.621
344.235
343.291
344.07
345.549
344.186
343.241
344.021
345.479
344.139
343.192
343.974
345.411
344.093
343.143
343.927
345.344
344.046
343.093
343.881
345.278
344
343.044
343.836
345.214
343.953
342.994
343.791
345.15
343.907
342.944
343.747
345.088
343.861
342.893
343.703
345.027
343.814
342.842
343.659
344.966
343.767
342.79
343.615
344.907
343.721
342.737
343.571
344.848
343.673
342.684
343.528
344.79
343.626
342.631
343.484
344.733
343.578
342.576
343.44
344.676
343.53
342.521
343.397
344.62
343.481
342.465
343.352
344.564
343.431
342.408
343.308
344.509
343.38
342.35
343.263
344.454
343.328
342.291
343.219
344.399
343.276
342.231
343.174
344.344
343.223
342.171
343.13
344.289
343.169
342.108
343.085
344.234
343.115
342.045
343.041
344.179
343.06
341.98
342.996
344.124
343.005
341.913
342.951
344.068
342.948
341.845
342.905
344.012
342.891
341.775
342.859
343.955
342.832
341.702
342.811
343.897
342.77
341.626
342.763
343.838
342.706
341.548
342.713
343.778
342.64
341.465
342.662
343.716
342.57
341.378
342.608
343.652
342.495
341.285
342.551
343.585
342.416
341.186
342.491
343.515
342.33
341.079
342.427
343.442
342.236
340.963
342.358
343.363
342.132
340.835
342.281
343.279
342.017
340.695
342.196
343.187
341.889
340.538
342.101
343.085
341.743
340.362
341.992
342.972
341.575
340.162
341.868
342.843
341.381
339.932
341.723
342.695
341.154
339.663
341.552
342.521
340.884
339.341
341.347
342.314
340.557
338.946
341.098
342.061
340.149
338.449
340.785
341.743
339.625
337.813
340.38
341.327
338.935
336.989
339.837
340.754
338.018
335.922
339.091
339.943
336.8
334.568
338.06
338.775
335.227
332.922
336.653
337.125
333.296
331.032
334.819
334.93
331.077
328.98
332.589
332.27
328.679
326.846
330.077
329.323
326.203
324.683
327.418
326.265
323.717
322.52
324.713
323.204
321.257
320.368
322.023
320.197
318.839
318.232
319.377
317.263
316.469
316.117
316.786
314.406
314.147
314.032
314.251
345.483
344.99
344.581
346.661
345.431
344.912
344.494
346.596
345.378
344.834
344.409
346.533
345.326
344.757
344.324
346.471
345.275
344.682
344.241
346.411
345.223
344.608
344.16
346.352
345.172
344.535
344.08
346.295
345.122
344.464
344.001
346.238
345.071
344.394
343.924
346.181
345.022
344.325
343.849
346.126
344.974
344.258
343.777
346.072
344.928
344.192
343.702
346.02
344.883
344.126
343.619
345.969
344.841
344.062
343.528
345.92
344.804
344
343.44
345.872
344.764
343.938
343.365
345.826
344.711
343.878
343.296
345.782
344.638
343.819
343.229
345.739
344.57
343.763
343.163
345.697
344.525
343.708
343.098
345.656
344.489
343.655
343.034
345.616
344.455
343.604
342.97
345.578
344.42
343.553
342.906
345.54
344.386
343.504
342.842
345.503
344.352
343.457
342.78
345.466
344.319
343.41
342.717
345.431
344.285
343.364
342.655
345.395
344.252
343.319
342.594
345.36
344.218
343.275
342.533
345.326
344.185
343.232
342.472
345.292
344.152
343.188
342.411
345.258
344.119
343.134
342.35
345.216
344.085
343.057
342.289
345.156
344.051
342.965
342.226
345.082
344.018
342.9
342.164
345.026
343.984
342.849
342.101
344.983
343.951
342.8
342.037
344.943
343.917
342.752
341.972
344.904
343.882
342.703
341.905
344.865
343.845
342.653
341.836
344.825
343.803
342.601
341.765
344.784
343.76
342.547
341.692
344.741
343.717
342.491
341.615
344.697
343.675
342.43
341.536
344.651
343.633
342.357
341.453
344.603
343.588
342.272
341.365
344.551
343.539
342.184
341.273
344.497
343.486
342.1
341.174
344.439
343.429
342.017
341.068
344.375
343.366
341.93
340.953
344.302
343.299
341.837
340.827
344.218
343.225
341.735
340.691
344.124
343.145
341.619
340.542
344.024
343.058
341.487
340.379
343.921
342.962
341.34
340.199
343.811
342.855
341.177
340
343.689
342.736
340.998
339.779
343.551
342.603
340.801
339.531
343.394
342.454
340.582
339.252
343.217
342.286
340.336
338.935
343.016
342.094
340.058
338.573
342.788
341.874
339.741
338.154
342.528
341.62
339.377
337.654
342.228
341.321
338.952
337.045
341.877
340.967
338.441
336.297
341.461
340.535
337.801
335.377
340.953
339.986
336.986
334.256
340.306
339.259
335.934
332.922
339.453
338.273
334.586
331.393
338.309
336.924
332.913
329.713
336.776
335.121
330.95
327.937
334.798
332.86
328.795
326.119
332.42
330.262
326.562
324.293
329.79
327.505
324.333
322.481
327.071
324.728
322.151
320.693
324.369
322
320.027
318.932
321.728
319.344
317.961
317.201
319.157
316.76
315.945
315.499
316.653
314.241
313.973
313.827
314.207
347.037
345.043
343.825
345.031
346.984
344.993
343.758
344.988
346.932
344.945
343.694
344.946
346.882
344.9
343.632
344.905
346.834
344.856
343.572
344.865
346.786
344.813
343.514
344.827
346.739
344.773
343.458
344.79
346.694
344.733
343.405
344.754
346.649
344.694
343.353
344.72
346.605
344.657
343.304
344.687
346.562
344.62
343.256
344.655
346.518
344.584
343.209
344.624
346.475
344.549
343.165
344.596
346.43
344.514
343.121
344.568
346.379
344.481
343.079
344.54
346.328
344.447
343.038
344.511
346.28
344.414
342.997
344.481
346.231
344.381
342.956
344.451
346.18
344.346
342.916
344.419
346.128
344.311
342.876
344.386
346.074
344.274
342.836
344.352
346.019
344.237
342.796
344.317
345.964
344.198
342.757
344.282
345.908
344.159
342.717
344.246
345.851
344.119
342.677
344.21
345.795
344.077
342.636
344.172
345.739
344.034
342.596
344.134
345.683
343.99
342.555
344.095
345.627
343.945
342.513
344.055
345.57
343.898
342.47
344.014
345.514
343.849
342.427
343.971
345.457
343.796
342.383
343.928
345.4
343.739
342.337
343.883
345.343
343.681
342.29
343.836
345.285
343.622
342.241
343.789
345.227
343.564
342.191
343.74
345.168
343.506
342.138
343.69
345.106
343.446
342.083
343.638
345.04
343.384
342.025
343.584
344.971
343.319
341.965
343.526
344.898
343.25
341.902
343.464
344.822
343.176
341.836
343.399
344.743
343.098
341.766
343.329
344.661
343.015
341.694
343.256
344.577
342.929
341.617
343.18
344.49
342.839
341.536
343.099
344.399
342.744
341.451
343.014
344.305
342.646
341.36
342.925
344.207
342.543
341.265
342.83
344.105
342.435
341.164
342.729
343.998
342.322
341.056
342.623
343.886
342.204
340.94
342.51
343.769
342.078
340.815
342.391
343.645
341.946
340.681
342.264
343.514
341.805
340.537
342.13
343.376
341.656
340.381
341.985
343.229
341.495
340.211
341.83
343.072
341.323
340.026
341.662
342.902
341.137
339.822
341.479
342.719
340.934
339.596
341.28
342.519
340.712
339.341
341.061
342.298
340.466
339.046
340.818
342.053
340.19
338.7
340.545
341.778
339.874
338.284
340.235
341.463
339.499
337.773
339.872
341.098
339.038
337.134
339.432
340.655
338.454
336.321
338.874
340.088
337.69
335.284
338.144
339.328
336.668
333.978
337.162
338.272
335.297
332.393
335.828
336.778
333.517
330.562
334.067
334.727
331.361
328.559
331.89
332.138
328.951
326.463
329.418
329.205
326.433
324.335
326.812
326.152
323.902
322.21
324.188
323.112
321.401
320.107
321.603
320.136
318.944
318.034
319.075
317.232
316.533
315.994
316.605
314.397
314.168
313.991
314.191
345.799
345.156
344.14
346.386
345.758
345.093
344.066
346.34
345.718
345.03
344.001
346.295
345.679
344.969
343.941
346.252
345.639
344.908
343.883
346.211
345.601
344.848
343.827
346.17
345.562
344.789
343.774
346.131
345.523
344.731
343.722
346.092
345.483
344.674
343.672
346.054
345.443
344.619
343.624
346.016
345.402
344.565
343.576
345.978
345.36
344.512
343.528
345.937
345.315
344.46
343.471
345.88
345.267
344.407
343.392
345.783
345.2
344.346
343.307
345.702
345.105
344.256
343.239
345.65
345.029
344.14
343.187
345.611
344.978
344.052
343.14
345.573
344.935
343.993
343.093
345.535
344.889
343.942
343.044
345.497
344.843
343.89
342.995
345.458
344.796
343.838
342.945
345.419
344.748
343.786
342.895
345.379
344.699
343.734
342.843
345.339
344.648
343.68
342.79
345.298
344.597
343.627
342.736
345.256
344.545
343.572
342.681
345.213
344.491
343.517
342.624
345.169
344.437
343.461
342.567
345.124
344.381
343.404
342.507
345.078
344.325
343.346
342.446
345.03
344.267
343.287
342.384
344.979
344.208
343.226
342.32
344.926
344.148
343.164
342.254
344.859
344.087
343.099
342.187
344.763
344.025
343.032
342.118
344.667
343.96
342.95
342.047
344.591
343.892
342.839
341.974
344.529
343.819
342.727
341.899
344.472
343.742
342.634
341.822
344.414
343.663
342.556
341.743
344.354
343.584
342.485
341.662
344.293
343.503
342.412
341.578
344.229
343.422
342.338
341.492
344.164
343.34
342.263
341.404
344.098
343.256
342.186
341.313
344.029
343.171
342.108
341.22
343.958
343.083
342.028
341.123
343.884
342.994
341.946
341.024
343.808
342.902
341.862
340.92
343.73
342.807
341.776
340.813
343.648
342.71
341.686
340.701
343.563
342.609
341.594
340.584
343.474
342.504
341.498
340.461
343.38
342.395
341.397
340.33
343.282
342.28
341.29
340.192
343.177
342.158
341.177
340.043
343.066
342.028
341.055
339.882
342.945
341.888
340.923
339.706
342.815
341.737
340.779
339.511
342.672
341.571
340.618
339.291
342.514
341.387
340.437
339.039
342.336
341.178
340.229
338.745
342.132
340.936
339.984
338.391
341.895
340.645
339.685
337.956
341.61
340.283
339.308
337.404
341.258
339.815
338.813
336.69
340.804
339.189
338.142
335.751
340.194
338.326
337.217
334.524
339.347
337.128
335.948
332.974
338.157
335.507
334.276
331.122
336.516
333.447
332.215
329.051
334.392
331.028
329.859
326.864
331.864
328.38
327.325
324.643
329.08
325.611
324.705
322.435
326.167
322.792
322.061
320.262
323.208
319.963
319.427
318.133
320.249
317.151
316.824
316.049
317.317
314.374
314.264
314.008
314.428
)
;

boundaryField
{
    leftWall
    {
        type            fixedValue;
        value           uniform 373;
    }
    rightWall
    {
        type            fixedValue;
        value           uniform 313;
    }
    leftSides_periodic0
    {
        type            cyclic;
    }
    leftSides_periodic1
    {
        type            cyclic;
    }
    rightSides_periodic0
    {
        type            cyclic;
    }
    rightSides_periodic1
    {
        type            cyclic;
    }
    leftInOut_periodic0
    {
        type            cyclic;
    }
    leftInOut_periodic1
    {
        type            cyclic;
    }
    rightInOut_periodic0
    {
        type            cyclic;
    }
    rightInOut_periodic1
    {
        type            cyclic;
    }
}


// ************************************************************************* //
