/*--------------------------------*- C++ -*----------------------------------*\
| =========                 |                                                 |
| \\      /  F ield         | OpenFOAM: The Open Source CFD Toolbox           |
|  \\    /   O peration     | Version:  v1912                                 |
|   \\  /    A nd           | Website:  www.openfoam.com                      |
|    \\/     M anipulation  |                                                 |
\*---------------------------------------------------------------------------*/
FoamFile
{
    version     2.0;
    format      ascii;
    class       volScalarField;
    location    "8.8";
    object      T;
}
// * * * * * * * * * * * * * * * * * * * * * * * * * * * * * * * * * * * * * //

dimensions      [0 0 0 1 0 0 0];


internalField   nonuniform List<scalar> 
34128
(
371.846
371.861
371.845
371.813
371.814
371.846
371.866
371.86
371.843
371.848
371.844
371.837
369.525
369.573
369.523
369.424
369.427
369.526
369.589
369.569
369.52
369.532
369.52
369.499
367.171
367.254
367.171
366.997
367.004
367.179
367.285
367.254
367.171
367.185
367.165
367.131
364.79
364.914
364.799
364.539
364.55
364.811
364.965
364.925
364.807
364.813
364.788
364.741
362.398
362.566
362.42
362.061
362.079
362.438
362.644
362.599
362.445
362.43
362.403
362.347
360.019
360.231
360.052
359.587
359.617
360.08
360.342
360.297
360.105
360.057
360.033
359.972
357.688
357.937
357.725
357.152
357.2
357.765
358.087
358.049
357.818
357.726
357.711
357.65
355.446
355.722
355.478
354.804
354.875
355.531
355.91
355.885
355.619
355.48
355.477
355.42
353.339
353.628
353.354
352.599
352.697
353.418
353.845
353.841
353.55
353.366
353.374
353.323
351.408
351.698
351.4
350.594
350.716
351.47
351.924
351.947
351.647
351.431
351.444
351.398
349.685
349.966
349.654
348.837
348.975
349.723
350.179
350.228
349.941
349.712
349.721
349.676
348.19
348.454
348.141
347.358
347.5
348.204
348.632
348.702
348.453
348.231
348.227
348.179
346.924
347.166
346.867
346.161
346.294
346.922
347.295
347.377
347.185
346.99
346.964
346.913
345.88
346.096
345.826
345.228
345.345
345.873
346.174
346.255
346.131
345.974
345.927
345.872
345.047
345.232
345.003
344.532
344.628
345.044
345.265
345.337
345.279
345.163
345.1
345.047
344.406
344.556
344.374
344.031
344.106
344.412
344.558
344.615
344.611
344.534
344.464
344.417
343.933
344.046
343.912
343.683
343.741
343.948
344.032
344.073
344.105
344.058
343.991
343.956
343.601
343.679
343.588
343.449
343.492
343.62
343.658
343.686
343.736
343.709
343.652
343.631
343.38
343.429
343.371
343.296
343.328
343.397
343.407
343.425
343.478
343.463
343.421
343.411
343.24
343.268
343.235
343.199
343.22
343.252
343.247
343.259
343.306
343.298
343.27
343.266
343.156
343.172
343.155
343.139
343.151
343.162
343.151
343.16
343.197
343.193
343.177
343.175
343.106
343.118
343.111
343.102
343.108
343.109
343.098
343.104
343.131
343.131
343.122
343.119
343.078
343.088
343.086
343.08
343.081
343.079
343.071
343.074
343.094
343.096
343.092
343.086
343.061
343.071
343.072
343.067
343.063
343.063
343.057
343.059
343.073
343.076
343.075
343.067
343.05
343.06
343.061
343.056
343.052
343.053
343.049
343.05
343.061
343.065
343.064
343.056
343.043
343.052
343.051
343.048
343.044
343.046
343.044
343.045
343.053
343.056
343.055
343.049
343.038
343.044
343.042
343.04
343.037
343.04
343.04
343.04
343.046
343.049
343.047
343.044
343.033
343.038
343.034
343.032
343.032
343.034
343.035
343.035
343.04
343.041
343.04
343.039
343.029
343.032
343.026
343.025
343.027
343.028
343.03
343.03
343.034
343.034
343.032
343.034
343.024
343.026
343.02
343.019
343.022
343.023
343.025
343.025
343.028
343.027
343.025
343.028
343.019
343.021
343.015
343.013
343.017
343.018
343.02
343.02
343.023
343.021
343.018
343.023
343.015
343.017
343.011
343.009
343.013
343.013
343.015
343.016
343.018
343.015
343.013
343.017
343.011
343.013
343.007
343.005
343.009
343.009
343.011
343.012
343.014
343.011
343.009
343.013
343.008
343.009
343.005
343.003
343.006
343.006
343.007
343.008
343.011
343.007
343.005
343.009
343.005
343.007
343.003
343.001
343.004
343.004
343.005
343.006
343.008
343.005
343.003
343.006
343.003
343.004
343.002
343
343.002
343.002
343.003
343.003
343.006
343.003
343.002
343.004
343.002
343.003
343.001
343
343.001
343.001
343.001
343.002
343.004
343.001
343.001
343.002
343.001
343.002
343
342.999
343
343
343.001
343.001
343.003
343
343
343.001
343
343.001
343
342.999
342.999
343
343
343
343.001
343
343
343
343
343
343
342.999
342.999
342.999
343
343
343.001
342.999
342.999
343
343
343
342.999
342.999
342.999
342.999
342.999
342.999
343
342.999
342.999
342.999
343
342.999
342.999
342.999
342.999
342.999
342.999
342.999
343
342.999
342.999
342.999
343
342.999
342.999
342.999
342.999
342.999
342.999
342.999
342.999
342.999
342.999
342.999
342.999
342.999
342.999
342.999
342.999
342.999
342.999
342.999
342.999
342.999
342.999
342.999
342.999
342.999
343
342.999
342.999
342.999
342.999
342.999
342.999
342.999
342.999
342.999
343
342.999
343
343
342.999
342.999
342.999
342.999
342.999
342.999
342.999
342.999
343
342.999
343
343
342.999
342.999
343
342.999
342.999
342.999
342.999
342.999
343
342.999
343
343
342.999
342.999
343
342.999
342.999
342.999
343
342.999
343
343
343
343
342.999
343
343
342.999
342.999
342.999
343
342.999
343
343
343
343
343
343
343
343
342.999
342.999
343
343
343
343
343
343
343
343
343
343
342.999
342.999
343
343
343
343
343
343
343
343
343
343
342.999
342.999
343
343
343
343
343
343
343
343
343
343
342.999
343
343
343
343
343
343
343
343
343
343
343
343
343
343
343
343
343
343
343
343
343
343
343
343
343
343
343
343
343
343
343
343
343
343
343
343
343
343
343
343
343
343
343
343
343
343
343
343
343
343
343
343
343
343
343
343
343
343
343
343
343
343
343
343
343
343
343
343
343
343
343
343
343
343
343
343
343
343
343
343
343
343
343
343
343
343
343
343
343
343
343
343
343
343
343
343
343
343
343
343
343
343
343
343
343
343
343
343
343
343
343
343
343
343
343
343
343
343
343
343
343
343
343
343
343
343
343
343
343
343
343
343
343
343
343
343
343
343
343
343
343
343
343
343
343
343
343
343
343
343
343
343
343
343
343
343
343
343
343
343
343
343
343
343
343
343
343
343
343
343
343
343
343
343
343
343
343
343
343
343
343
343
343
343
343
343
343
343
343
343
343
343
343
343
343
343
343
343
343
343
343
343
343
343
343
343
343
343
343
343
343
343
343
343
343
343
343
343
343
343
343
343
343
343
343
343
343
343
343
343
343
343
343
343
343
343
343
343
343
343
343
343
343
343
343
343
343
343
343
343
343
343
343
343
343
343
343
343
343
343
343
343
343
343
343
343
343
343
343
343
343
343
343
343
343
343
343
343
343
343
343
343
343
343
343
343
343
343
343
343
343
343
343
343
343
343
343
343
343
343
343
343
343
343
343
343
343
343
343
343
343
343
343
343
343
371.82
371.838
371.822
371.786
371.787
371.824
371.844
371.838
371.822
371.823
371.819
371.813
369.449
369.503
369.454
369.343
369.348
369.461
369.523
369.505
369.455
369.457
369.446
369.428
367.045
367.138
367.056
366.861
366.872
367.069
367.176
367.148
367.064
367.059
367.043
367.015
364.618
364.754
364.636
364.346
364.368
364.659
364.815
364.781
364.661
364.637
364.62
364.584
362.187
362.364
362.209
361.814
361.851
362.245
362.456
362.419
362.262
362.209
362.194
362.154
359.778
359.994
359.798
359.291
359.351
359.849
360.119
360.087
359.891
359.799
359.791
359.752
357.426
357.672
357.434
356.818
356.908
357.502
357.83
357.81
357.58
357.444
357.444
357.409
355.171
355.437
355.157
354.447
354.569
355.24
355.619
355.617
355.363
355.186
355.194
355.162
353.053
353.328
353.013
352.236
352.387
353.107
353.517
353.54
353.279
353.073
353.082
353.05
351.11
351.385
351.046
350.242
350.413
351.144
351.562
351.609
351.364
351.146
351.146
351.111
349.373
349.638
349.292
348.508
348.686
349.388
349.785
349.851
349.646
349.437
349.419
349.376
347.862
348.11
347.773
347.06
347.23
347.867
348.216
348.292
348.146
347.964
347.921
347.869
346.585
346.806
346.497
345.895
346.048
346.59
346.872
346.948
346.869
346.724
346.658
346.6
345.542
345.727
345.46
344.992
345.124
345.554
345.763
345.829
345.813
345.707
345.625
345.568
344.722
344.864
344.647
344.318
344.427
344.744
344.883
344.936
344.966
344.894
344.809
344.761
344.107
344.202
344.036
343.83
343.921
344.134
344.217
344.256
344.312
344.266
344.188
344.154
343.668
343.72
343.6
343.49
343.564
343.693
343.738
343.765
343.828
343.796
343.734
343.716
343.371
343.389
343.306
343.261
343.321
343.39
343.411
343.43
343.484
343.461
343.418
343.412
343.182
343.177
343.124
343.114
343.161
343.192
343.203
343.216
343.254
343.235
343.209
343.211
343.069
343.052
343.02
343.026
343.06
343.072
343.08
343.087
343.109
343.093
343.082
343.085
343.005
342.986
342.969
342.978
343
343.005
343.013
343.017
343.024
343.011
343.009
343.012
342.973
342.956
342.95
342.957
342.969
342.973
342.981
342.982
342.98
342.97
342.973
342.974
342.961
342.946
342.946
342.951
342.956
342.962
342.969
342.968
342.961
342.953
342.959
342.959
342.96
342.948
342.95
342.954
342.955
342.962
342.966
342.965
342.956
342.95
342.956
342.957
342.965
342.955
342.957
342.961
342.96
342.966
342.969
342.967
342.959
342.954
342.959
342.962
342.972
342.964
342.965
342.969
342.968
342.972
342.972
342.972
342.966
342.96
342.964
342.97
342.98
342.973
342.973
342.977
342.976
342.978
342.976
342.976
342.973
342.967
342.969
342.977
342.986
342.982
342.98
342.983
342.984
342.983
342.979
342.981
342.98
342.974
342.974
342.983
342.99
342.988
342.985
342.987
342.99
342.987
342.982
342.984
342.986
342.981
342.979
342.988
342.993
342.993
342.99
342.991
342.994
342.99
342.985
342.987
342.992
342.986
342.983
342.991
342.994
342.996
342.993
342.993
342.996
342.992
342.987
342.99
342.996
342.99
342.987
342.993
342.995
342.998
342.995
342.995
342.998
342.994
342.989
342.991
342.999
342.994
342.989
342.994
342.996
342.999
342.997
342.996
342.998
342.995
342.99
342.993
343.001
342.996
342.992
342.995
342.996
342.999
342.997
342.997
342.998
342.996
342.992
342.994
343.003
342.997
342.993
342.996
342.997
342.999
342.998
342.997
342.998
342.997
342.994
342.995
343.003
342.998
342.995
342.997
342.997
342.999
342.998
342.998
342.998
342.997
342.995
342.996
343.003
342.999
342.996
342.997
342.998
342.999
342.998
342.998
342.998
342.998
342.996
342.997
343.002
342.999
342.997
342.997
342.998
342.999
342.999
342.998
342.998
342.998
342.997
342.997
343.002
342.999
342.998
342.998
342.998
342.999
342.999
342.998
342.998
342.998
342.998
342.998
343.001
342.999
342.998
342.998
342.999
342.999
342.999
342.999
342.998
342.999
342.998
342.998
343
342.999
342.998
342.998
342.999
342.999
342.999
342.999
342.999
342.999
342.999
342.998
343
342.999
342.999
342.998
342.999
342.999
342.999
342.999
342.999
342.999
342.999
342.999
342.999
342.999
342.999
342.999
342.999
342.999
342.999
342.999
342.999
342.999
342.999
342.999
342.999
342.999
342.999
342.999
342.999
342.999
342.999
342.999
342.999
342.999
342.999
342.999
342.999
342.999
342.999
342.999
342.999
342.999
342.999
342.999
342.999
342.999
342.999
342.999
342.999
342.999
342.999
342.999
342.999
342.999
342.999
342.999
342.999
342.999
342.999
342.999
342.999
342.999
342.999
342.999
342.999
342.999
342.999
342.999
342.999
342.999
343
342.999
342.999
342.999
342.999
342.999
342.999
342.999
342.999
343
342.999
343
343
342.999
342.999
342.999
342.999
342.999
342.999
342.999
343
343
343
343
343
342.999
342.999
342.999
343
342.999
343
342.999
343
343
343
343
343
342.999
342.999
342.999
343
342.999
343
342.999
343
343
343
343
343
343
342.999
342.999
343
343
343
343
343
343
343
343
343
343
342.999
342.999
343
343
343
343
343
343
343
343
343
343
342.999
342.999
343
343
343
343
343
343
343
343
343
343
342.999
343
343
343
343
343
343
343
343
343
343
343
343
343
343
343
343
343
343
343
343
343
343
343
343
343
343
343
343
343
343
343
343
343
343
343
343
343
343
343
343
343
343
343
343
343
343
343
343
343
343
343
343
343
343
343
343
343
343
343
343
343
343
343
343
343
343
343
343
343
343
343
343
343
343
343
343
343
343
343
343
343
343
343
343
343
343
343
343
343
343
343
343
343
343
343
343
343
343
343
343
343
343
343
343
343
343
343
343
343
343
343
343
343
343
343
343
343
343
343
343
343
343
343
343
343
343
343
343
343
343
343
343
343
343
343
343
343
343
343
343
343
343
343
343
343
343
343
343
343
343
343
343
343
343
343
343
343
343
343
343
343
343
343
343
343
343
343
343
343
343
343
343
343
343
343
343
343
343
343
343
343
343
343
343
343
343
343
343
343
343
343
343
343
343
343
343
343
343
343
343
343
343
343
343
343
343
343
343
343
343
343
343
343
343
343
343
343
343
343
343
343
343
343
343
343
343
343
343
343
343
343
343
343
343
343
343
343
343
343
343
343
343
343
343
343
343
343
343
343
343
343
343
343
343
343
343
343
343
343
343
343
343
343
343
343
343
343
343
343
343
343
343
343
343
343
343
343
343
343
343
343
343
343
343
343
343
343
343
343
343
343
343
343
343
343
343
343
343
343
343
343
343
343
371.776
371.797
371.782
371.74
371.742
371.783
371.805
371.799
371.782
371.78
371.777
371.771
369.317
369.378
369.332
369.206
369.212
369.337
369.403
369.389
369.337
369.327
369.319
369.303
366.826
366.93
366.85
366.63
366.646
366.862
366.975
366.954
366.868
366.843
366.832
366.807
364.316
364.461
364.344
364.021
364.053
364.366
364.532
364.509
364.387
364.337
364.326
364.296
361.807
361.99
361.83
361.398
361.455
361.868
362.088
362.07
361.914
361.83
361.823
361.79
359.328
359.544
359.337
358.796
358.885
359.394
359.668
359.662
359.477
359.354
359.35
359.317
356.92
357.157
356.904
356.265
356.392
356.98
357.3
357.312
357.109
356.95
356.946
356.915
354.625
354.874
354.577
353.867
354.031
354.672
355.021
355.056
354.854
354.666
354.657
354.625
352.49
352.741
352.41
351.669
351.862
352.521
352.873
352.931
352.752
352.552
352.528
352.493
350.555
350.797
350.448
349.727
349.936
350.574
350.901
350.976
350.842
350.649
350.602
350.563
348.853
349.077
348.728
348.078
348.29
348.868
349.144
349.225
349.153
348.982
348.91
348.868
347.403
347.597
347.267
346.732
346.935
347.423
347.63
347.708
347.702
347.563
347.47
347.431
346.209
346.364
346.067
345.67
345.859
346.238
346.372
346.438
346.489
346.383
346.281
346.251
345.261
345.371
345.116
344.858
345.03
345.298
345.366
345.416
345.506
345.43
345.33
345.317
344.542
344.606
344.397
344.258
344.413
344.579
344.598
344.633
344.739
344.683
344.599
344.603
344.021
344.046
343.881
343.828
343.965
344.052
344.039
344.061
344.163
344.123
344.06
344.079
343.66
343.66
343.535
343.532
343.648
343.68
343.654
343.666
343.751
343.721
343.682
343.707
343.421
343.409
343.32
343.336
343.43
343.431
343.402
343.407
343.47
343.45
343.43
343.454
343.268
343.256
343.196
343.214
343.284
343.272
343.246
343.246
343.289
343.278
343.272
343.288
343.173
343.167
343.131
343.142
343.189
343.175
343.155
343.151
343.179
343.177
343.177
343.184
343.116
343.117
343.1
343.103
343.129
343.12
343.103
343.097
343.116
343.121
343.124
343.122
343.084
343.09
343.085
343.083
343.093
343.088
343.075
343.069
343.083
343.092
343.095
343.088
343.066
343.075
343.076
343.073
343.072
343.07
343.06
343.055
343.066
343.077
343.078
343.071
343.058
343.066
343.07
343.067
343.06
343.059
343.052
343.048
343.058
343.068
343.068
343.061
343.053
343.061
343.063
343.061
343.053
343.052
343.046
343.045
343.054
343.062
343.059
343.056
343.048
343.056
343.056
343.054
343.047
343.045
343.041
343.043
343.051
343.056
343.052
343.051
343.044
343.051
343.049
343.046
343.042
343.04
343.037
343.04
343.049
343.05
343.045
343.045
343.038
343.045
343.041
343.038
343.036
343.034
343.032
343.036
343.045
343.044
343.038
343.04
343.031
343.038
343.033
343.029
343.03
343.028
343.027
343.032
343.041
343.037
343.031
343.033
343.025
343.031
343.026
343.022
343.023
343.022
343.021
343.026
343.037
343.031
343.025
343.027
343.019
343.024
343.019
343.015
343.017
343.016
343.017
343.021
343.031
343.024
343.019
343.021
343.014
343.018
343.013
343.01
343.012
343.012
343.012
343.016
343.026
343.019
343.014
343.016
343.01
343.013
343.009
343.006
343.007
343.008
343.009
343.011
343.02
343.014
343.009
343.011
343.007
343.009
343.005
343.003
343.004
343.005
343.007
343.008
343.015
343.009
343.006
343.008
343.004
343.006
343.003
343.001
343.002
343.003
343.005
343.005
343.011
343.006
343.004
343.005
343.003
343.003
343.001
343
343
343.002
343.003
343.003
343.008
343.004
343.002
343.003
343.001
343.002
343
342.999
342.999
343.001
343.002
343.001
343.005
343.002
343.001
343.002
343
343.001
343
342.999
342.999
343
343.001
343.001
343.003
343
343
343.001
343
343
342.999
342.999
342.999
343
343.001
343
343.001
343
343
343
343
343
342.999
342.999
342.999
342.999
343
343
343
342.999
343
343
342.999
342.999
342.999
342.999
342.999
342.999
343
342.999
342.999
342.999
343
342.999
342.999
342.999
342.999
342.999
342.999
342.999
343
342.999
342.999
342.999
342.999
342.999
342.999
342.999
342.999
342.999
342.999
342.999
343
342.999
342.999
342.999
342.999
342.999
342.999
342.999
342.999
342.999
342.999
342.999
343
342.999
342.998
342.999
342.999
342.999
342.999
342.999
342.999
342.999
342.999
342.999
343
342.999
342.998
342.999
342.999
342.999
342.999
342.999
342.999
342.999
342.999
342.999
343
342.999
342.998
342.999
342.999
342.999
342.999
342.999
342.999
342.999
342.999
343
343
342.999
342.999
342.999
342.999
342.999
342.999
342.999
342.999
342.999
342.999
343
343
342.999
342.999
342.999
342.999
342.999
342.999
342.999
342.999
342.999
342.999
343
343
343
342.999
342.999
343
342.999
343
342.999
343
343
343
343
343
343
342.999
342.999
343
342.999
343
342.999
343
343
343
343
343
343
342.999
342.999
343
343
343
343
343
343
343
343
343
343
342.999
342.999
343
343
343
343
343
343
343
343
343
343
342.999
343
343
343
343
343
343
343
343
343
343
343
343
343
343
343
343
343
343
343
343
343
343
343
343
343
343
343
343
343
343
343
343
343
343
343
343
343
343
343
343
343
343
343
343
343
343
343
343
343
343
343
343
343
343
343
343
343
343
343
343
343
343
343
343
343
343
343
343
343
343
343
343
343
343
343
343
343
343
343
343
343
343
343
343
343
343
343
343
343
343
343
343
343
343
343
343
343
343
343
343
343
343
343
343
343
343
343
343
343
343
343
343
343
343
343
343
343
343
343
343
343
343
343
343
343
343
343
343
343
343
343
343
343
343
343
343
343
343
343
343
343
343
343
343
343
343
343
343
343
343
343
343
343
343
343
343
343
343
343
343
343
343
343
343
343
343
343
343
343
343
343
343
343
343
343
343
343
343
343
343
343
343
343
343
343
343
343
343
343
343
343
343
343
343
343
343
343
343
343
343
343
343
343
343
343
343
343
343
343
343
343
343
343
343
343
343
343
343
343
343
343
343
343
343
343
343
343
343
343
343
343
343
343
343
343
343
343
343
343
343
343
343
343
343
343
343
343
343
343
343
343
343
343
343
343
343
343
343
343
343
343
343
343
343
343
343
343
343
343
343
343
343
343
343
343
343
343
343
343
343
343
343
343
343
343
343
343
343
343
343
343
343
343
343
343
343
343
343
343
343
343
343
343
343
343
343
343
343
343
343
343
343
343
343
343
371.747
371.768
371.752
371.706
371.71
371.755
371.778
371.773
371.756
371.749
371.748
371.744
369.229
369.293
369.243
369.103
369.118
369.254
369.323
369.311
369.259
369.234
369.231
369.222
366.682
366.788
366.699
366.458
366.49
366.722
366.84
366.825
366.738
366.689
366.686
366.674
364.121
364.265
364.132
363.784
363.841
364.171
364.34
364.328
364.209
364.127
364.125
364.114
361.567
361.746
361.563
361.105
361.197
361.622
361.841
361.839
361.692
361.573
361.572
361.564
359.054
359.259
359.022
358.463
358.597
359.104
359.367
359.38
359.218
359.063
359.059
359.054
356.617
356.84
356.549
355.914
356.09
356.658
356.948
356.981
356.822
356.638
356.625
356.623
354.3
354.531
354.194
353.521
353.735
354.33
354.624
354.677
354.543
354.345
354.315
354.312
352.147
352.376
352.005
351.345
351.586
352.169
352.441
352.508
352.422
352.227
352.173
352.168
350.198
350.412
350.027
349.435
349.688
350.221
350.446
350.52
350.495
350.319
350.239
350.234
348.49
348.676
348.295
347.815
348.07
348.518
348.682
348.752
348.792
348.643
348.544
348.542
347.043
347.189
346.831
346.489
346.737
347.079
347.179
347.24
347.332
347.213
347.107
347.113
345.866
345.964
345.641
345.438
345.674
345.905
345.95
345.997
346.12
346.029
345.929
345.947
344.947
344.998
344.719
344.631
344.85
344.982
344.989
345.023
345.152
345.082
345
345.03
344.261
344.274
344.043
344.034
344.231
344.286
344.273
344.296
344.411
344.357
344.299
344.335
343.772
343.76
343.578
343.608
343.779
343.784
343.767
343.781
343.869
343.83
343.795
343.829
343.437
343.414
343.28
343.321
343.46
343.44
343.428
343.434
343.494
343.467
343.451
343.475
343.218
343.195
343.104
343.138
343.242
343.217
343.213
343.214
343.248
343.232
343.228
343.24
343.082
343.062
343.009
343.031
343.102
343.082
343.084
343.082
343.096
343.09
343.092
343.093
343.004
342.988
342.963
342.975
343.016
343.006
343.013
343.009
343.01
343.01
343.013
343.008
342.965
342.95
342.944
342.951
342.97
342.968
342.977
342.972
342.966
342.968
342.972
342.966
342.951
342.935
342.939
342.945
342.95
342.954
342.963
342.958
342.948
342.949
342.953
342.949
342.952
342.935
342.942
342.949
342.946
342.952
342.961
342.957
342.945
342.943
342.947
342.947
342.959
342.942
342.949
342.956
342.951
342.957
342.964
342.962
342.949
342.944
342.948
342.953
342.968
342.953
342.957
342.963
342.96
342.965
342.97
342.968
342.957
342.949
342.954
342.961
342.976
342.963
342.965
342.97
342.969
342.972
342.975
342.975
342.967
342.957
342.961
342.969
342.981
342.972
342.972
342.976
342.977
342.979
342.979
342.98
342.975
342.965
342.968
342.976
342.985
342.979
342.978
342.981
342.983
342.984
342.981
342.983
342.982
342.972
342.974
342.981
342.987
342.984
342.984
342.984
342.987
342.987
342.983
342.985
342.988
342.978
342.979
342.986
342.988
342.988
342.988
342.988
342.989
342.989
342.985
342.986
342.992
342.983
342.983
342.989
342.99
342.99
342.991
342.99
342.991
342.99
342.987
342.988
342.994
342.987
342.986
342.991
342.991
342.992
342.994
342.993
342.993
342.992
342.989
342.989
342.996
342.99
342.988
342.992
342.992
342.994
342.996
342.995
342.994
342.993
342.991
342.99
342.996
342.992
342.991
342.993
342.993
342.995
342.997
342.996
342.995
342.994
342.993
342.992
342.997
342.994
342.993
342.994
342.994
342.996
342.998
342.997
342.996
342.995
342.994
342.994
342.997
342.995
342.994
342.995
342.995
342.997
342.998
342.997
342.997
342.996
342.996
342.995
342.997
342.996
342.996
342.996
342.996
342.998
342.999
342.998
342.997
342.997
342.997
342.996
342.997
342.997
342.997
342.996
342.997
342.998
342.999
342.998
342.998
342.998
342.997
342.997
342.998
342.997
342.997
342.997
342.997
342.998
342.999
342.998
342.998
342.998
342.998
342.998
342.998
342.998
342.998
342.997
342.998
342.998
342.999
342.998
342.998
342.998
342.998
342.998
342.998
342.998
342.998
342.998
342.998
342.999
342.999
342.998
342.999
342.999
342.999
342.998
342.998
342.998
342.998
342.998
342.998
342.999
342.999
342.999
342.999
342.999
342.999
342.999
342.998
342.998
342.999
342.998
342.999
342.999
342.999
342.999
342.999
342.999
342.999
342.999
342.998
342.999
342.999
342.998
342.999
342.999
342.999
342.999
342.999
342.999
342.999
342.999
342.998
342.999
342.999
342.999
342.999
342.999
342.999
342.999
342.999
342.999
342.999
342.999
342.998
342.999
342.999
342.999
342.999
342.999
342.999
342.999
342.999
342.999
342.999
342.999
342.999
342.999
342.999
342.999
342.999
342.999
342.999
342.999
342.999
342.999
342.999
342.999
342.999
342.999
342.999
342.999
342.999
342.999
342.999
342.999
342.999
342.999
343
342.999
342.999
342.999
342.999
342.999
342.999
342.999
342.999
342.999
342.999
343
343
343
342.999
342.999
342.999
342.999
343
342.999
342.999
342.999
343
343
343
343
342.999
342.999
342.999
342.999
343
342.999
343
343
343
343
343
343
342.999
342.999
343
342.999
343
343
343
343
343
343
343
343
343
343
343
343
343
343
343
343
343
343
343
343
343
343
343
343
343
343
343
343
343
343
343
343
343
343
343
343
343
343
343
343
343
343
343
343
343
343
343
343
343
343
343
343
343
343
343
343
343
343
343
343
343
343
343
343
343
343
343
343
343
343
343
343
343
343
343
343
343
343
343
343
343
343
343
343
343
343
343
343
343
343
343
343
343
343
343
343
343
343
343
343
343
343
343
343
343
343
343
343
343
343
343
343
343
343
343
343
343
343
343
343
343
343
343
343
343
343
343
343
343
343
343
343
343
343
343
343
343
343
343
343
343
343
343
343
343
343
343
343
343
343
343
343
343
343
343
343
343
343
343
343
343
343
343
343
343
343
343
343
343
343
343
343
343
343
343
343
343
343
343
343
343
343
343
343
343
343
343
343
343
343
343
343
343
343
343
343
343
343
343
343
343
343
343
343
343
343
343
343
343
343
343
343
343
343
343
343
343
343
343
343
343
343
343
343
343
343
343
343
343
343
343
343
343
343
343
343
343
343
343
343
343
343
343
343
343
343
343
343
343
343
343
343
343
343
343
343
343
343
343
343
343
343
343
343
343
343
343
343
343
343
343
343
343
343
343
343
343
343
343
343
343
343
343
343
343
343
343
343
343
343
343
343
343
343
343
343
343
343
343
343
343
343
343
343
343
343
343
343
343
343
343
343
343
343
343
343
343
343
343
343
343
343
343
343
343
343
343
343
343
343
343
343
343
343
343
343
371.696
371.718
371.701
371.65
371.657
371.705
371.729
371.727
371.709
371.697
371.697
371.696
369.078
369.144
369.091
368.936
368.957
369.101
369.176
369.171
369.117
369.079
369.08
369.077
366.431
366.539
366.445
366.182
366.226
366.466
366.59
366.588
366.502
366.433
366.434
366.431
363.771
363.918
363.776
363.404
363.48
363.812
363.984
363.989
363.879
363.776
363.776
363.775
361.123
361.303
361.108
360.636
360.752
361.163
361.374
361.395
361.274
361.137
361.131
361.134
358.522
358.726
358.476
357.928
358.088
358.557
358.791
358.831
358.719
358.554
358.535
358.542
356.013
356.23
355.927
355.344
355.547
356.042
356.274
356.333
356.253
356.074
356.032
356.043
353.645
353.862
353.517
352.95
353.19
353.672
353.878
353.951
353.924
353.743
353.675
353.691
351.473
351.675
351.301
350.807
351.075
351.503
351.66
351.74
351.777
351.607
351.514
351.538
349.546
349.718
349.331
348.955
349.241
349.582
349.678
349.756
349.856
349.703
349.593
349.632
347.9
348.029
347.648
347.41
347.705
347.942
347.977
348.045
348.191
348.058
347.945
348.003
346.551
346.632
346.271
346.165
346.463
346.592
346.578
346.634
346.801
346.686
346.585
346.662
345.49
345.527
345.201
345.196
345.485
345.523
345.478
345.522
345.684
345.586
345.506
345.597
344.688
344.695
344.413
344.466
344.737
344.71
344.653
344.685
344.824
344.741
344.687
344.781
344.107
344.1
343.872
343.942
344.18
344.119
344.064
344.086
344.193
344.127
344.094
344.18
343.704
343.696
343.524
343.583
343.78
343.709
343.663
343.678
343.752
343.704
343.687
343.757
343.434
343.434
343.316
343.352
343.502
343.44
343.403
343.412
343.461
343.43
343.421
343.473
343.263
343.272
343.2
343.214
343.317
343.271
343.243
343.247
343.279
343.262
343.257
343.292
343.162
343.175
343.138
343.138
343.2
343.171
343.148
343.15
343.172
343.164
343.16
343.183
343.107
343.121
343.107
343.1
343.131
343.115
343.096
343.096
343.113
343.11
343.107
343.122
343.081
343.092
343.09
343.083
343.094
343.086
343.07
343.068
343.082
343.082
343.08
343.09
343.071
343.079
343.08
343.076
343.076
343.072
343.059
343.056
343.068
343.069
343.069
343.074
343.067
343.073
343.074
343.072
343.068
343.066
343.055
343.051
343.062
343.064
343.065
343.066
343.063
343.069
343.068
343.067
343.063
343.062
343.054
343.049
343.06
343.062
343.064
343.062
343.058
343.064
343.062
343.061
343.059
343.058
343.051
343.047
343.058
343.061
343.062
343.057
343.051
343.058
343.056
343.054
343.053
343.053
343.047
343.045
343.055
343.058
343.058
343.052
343.043
343.05
343.048
343.046
343.046
343.046
343.042
343.041
343.051
343.053
343.052
343.047
343.034
343.042
343.041
343.038
343.037
343.038
343.036
343.036
343.046
343.047
343.044
343.04
343.027
343.034
343.034
343.03
343.029
343.03
343.029
343.031
343.039
343.039
343.036
343.033
343.02
343.027
343.028
343.023
343.021
343.022
343.024
343.025
343.032
343.031
343.028
343.027
343.015
343.021
343.022
343.017
343.015
343.016
343.019
343.021
343.025
343.024
343.021
343.02
343.01
343.016
343.017
343.012
343.01
343.011
343.015
343.016
343.018
343.017
343.015
343.015
343.007
343.011
343.012
343.008
343.006
343.008
343.011
343.012
343.013
343.012
343.01
343.01
343.005
343.008
343.009
343.004
343.003
343.005
343.008
343.009
343.008
343.007
343.007
343.007
343.003
343.006
343.006
343.002
343.002
343.003
343.005
343.007
343.005
343.004
343.004
343.004
343.002
343.004
343.003
343.001
343
343.002
343.004
343.004
343.002
343.002
343.002
343.003
343.001
343.002
343.002
342.999
343
343.001
343.002
343.003
343.001
343.001
343.001
343.001
343.001
343.001
343.001
342.999
342.999
343
343.001
343.001
343
343
343
343
343
343.001
343
342.999
342.999
343
343
343
342.999
342.999
343
343
343
343
342.999
342.998
342.999
342.999
343
343
342.999
342.999
343
343
343
343
342.999
342.998
342.999
342.999
343
343
342.998
342.999
342.999
342.999
342.999
343
342.999
342.998
342.999
342.999
342.999
342.999
342.998
342.999
342.999
342.999
342.999
342.999
342.999
342.999
342.999
342.999
342.999
342.999
342.998
342.999
342.999
342.999
342.999
342.999
342.999
342.999
342.999
342.999
342.999
342.999
342.999
342.999
342.999
342.999
342.999
342.999
342.999
342.999
342.999
342.999
342.999
342.999
342.999
342.999
342.999
342.999
342.999
342.999
342.999
342.999
342.999
342.999
342.999
342.999
342.999
342.999
342.999
342.999
343
342.999
342.999
342.999
342.999
342.999
342.999
342.999
342.999
342.999
342.999
342.999
343
342.999
342.999
342.999
342.999
342.999
342.999
343
342.999
342.999
343
342.999
343
342.999
342.999
342.999
343
343
343
343
342.999
342.999
343
342.999
343
343
342.999
342.999
343
343
343
343
343
343
343
342.999
343
343
343
343
343
343
343
343
343
343
343
343
343
343
343
343
343
343
343
343
343
343
343
343
343
343
343
343
343
343
343
343
343
343
343
343
343
343
343
343
343
343
343
343
343
343
343
343
343
343
343
343
343
343
343
343
343
343
343
343
343
343
343
343
343
343
343
343
343
343
343
343
343
343
343
343
343
343
343
343
343
343
343
343
343
343
343
343
343
343
343
343
343
343
343
343
343
343
343
343
343
343
343
343