/*--------------------------------*- C++ -*----------------------------------*\
| =========                 |                                                 |
| \\      /  F ield         | OpenFOAM: The Open Source CFD Toolbox           |
|  \\    /   O peration     | Version:  v1912                                 |
|   \\  /    A nd           | Website:  www.openfoam.com                      |
|    \\/     M anipulation  |                                                 |
\*---------------------------------------------------------------------------*/
FoamFile
{
    version     2.0;
    format      ascii;
    class       volVectorField;
    location    "8.8";
    object      wallShearStress;
}
// * * * * * * * * * * * * * * * * * * * * * * * * * * * * * * * * * * * * * //

dimensions      [1 -1 -2 0 0 0 0];


internalField   uniform (0 0 0);

boundaryField
{
    leftWall
    {
        type            calculated;
        value           nonuniform List<vector> 
216
(
(-3.64985e-05 -4.93517e-05 0.192803)
(-0.000118085 -5.36421e-05 0.199105)
(-0.000243987 -5.53811e-05 0.206798)
(-0.000613014 -5.64331e-05 0.214035)
(-0.00108569 -5.73634e-05 0.223408)
(-0.00161577 -6.30274e-05 0.232746)
(-0.00190163 -7.32849e-05 0.245218)
(-0.00181201 -8.84795e-05 0.257874)
(-0.0013664 -0.000105523 0.273726)
(-0.000687847 -0.00012803 0.288836)
(1.9994e-06 -0.000157191 0.306928)
(0.000665966 -0.000197553 0.324612)
(0.000924652 -0.000245527 0.348955)
(0.000143352 -0.000326186 0.375528)
(-0.00130684 -0.00047531 0.426258)
(-0.000586226 -0.000978409 0.484231)
(0.00222354 -0.00583769 0.712619)
(0.00374012 -0.117941 1.88787)
(4.44055e-05 -4.76384e-05 0.189586)
(5.43843e-05 -5.45806e-05 0.196853)
(-5.08094e-05 -6.03326e-05 0.205521)
(-0.000481947 -6.74614e-05 0.213929)
(-0.00106973 -7.38862e-05 0.223537)
(-0.0017156 -8.25358e-05 0.232376)
(-0.00208064 -9.05212e-05 0.242785)
(-0.00197033 -0.000100426 0.252859)
(-0.0013238 -0.000111106 0.265726)
(-0.000246506 -0.000125126 0.279403)
(0.000936228 -0.00014237 0.29786)
(0.00213268 -0.000170719 0.318547)
(0.00322519 -0.000220886 0.346603)
(0.0039897 -0.000325535 0.376282)
(0.00395283 -0.00049612 0.427098)
(0.00296692 -0.0010067 0.483092)
(0.00177736 -0.00591251 0.710918)
(0.00457858 -0.117893 1.89541)
(-0.000483479 -3.72168e-05 0.194603)
(-0.000497519 -4.38447e-05 0.20201)
(-0.000450792 -5.26437e-05 0.210717)
(-0.000431434 -6.54041e-05 0.219735)
(-0.000343284 -7.66435e-05 0.229521)
(-0.00021325 -8.74863e-05 0.238383)
(-3.93929e-05 -9.56402e-05 0.24738)
(0.000135623 -0.000104677 0.255476)
(0.000167949 -0.000112966 0.265634)
(3.78825e-05 -0.00012349 0.277777)
(-0.000140485 -0.000135403 0.295621)
(0.000185579 -0.000156014 0.317332)
(0.00137752 -0.000192558 0.346997)
(0.00303247 -0.000279055 0.37955)
(0.00381751 -0.000443566 0.434241)
(0.00270148 -0.000970395 0.49519)
(0.00174203 -0.00588009 0.721839)
(0.0142635 -0.117832 1.89621)
(-0.00127098 -3.79331e-05 0.203865)
(-0.00137451 -4.32203e-05 0.209515)
(-0.00131109 -5.03199e-05 0.216007)
(-0.000985155 -6.02249e-05 0.223035)
(-0.000436284 -6.63656e-05 0.23125)
(0.000345304 -7.15455e-05 0.239647)
(0.00117566 -7.56413e-05 0.249079)
(0.00181243 -8.62742e-05 0.25872)
(0.00178651 -0.000102606 0.27084)
(0.00101765 -0.000125134 0.284747)
(-5.39828e-06 -0.000151119 0.303017)
(-0.000206434 -0.000187879 0.323283)
(0.000775244 -0.00023204 0.350187)
(0.00197955 -0.000305026 0.379949)
(0.00181415 -0.00045039 0.43269)
(0.000664887 -0.000988068 0.49278)
(0.00423958 -0.00588021 0.718805)
(0.019864 -0.117923 1.88445)
(-0.000560816 -4.98745e-05 0.202229)
(-0.000457518 -5.40714e-05 0.207128)
(-0.000353323 -5.69658e-05 0.212712)
(-0.000135479 -6.01284e-05 0.218337)
(2.21046e-05 -6.14183e-05 0.225587)
(0.000220749 -6.42632e-05 0.233579)
(0.000407117 -6.81911e-05 0.244338)
(0.000611537 -7.82806e-05 0.256355)
(0.000592792 -9.36366e-05 0.271747)
(0.000389868 -0.00011793 0.287866)
(0.000430885 -0.000150052 0.307131)
(0.00140439 -0.000193703 0.326441)
(0.00312606 -0.000242393 0.352024)
(0.00422839 -0.000311704 0.380644)
(0.00377221 -0.000446118 0.433193)
(0.00241475 -0.000950382 0.491522)
(0.00144992 -0.00571113 0.715305)
(-0.00323746 -0.117666 1.88174)
(-4.16453e-05 -4.69471e-05 0.193546)
(0.000188212 -5.008e-05 0.199871)
(0.000314982 -5.23792e-05 0.207367)
(0.000380845 -5.60322e-05 0.21443)
(0.000180159 -5.97476e-05 0.223537)
(-0.000117412 -6.66506e-05 0.232833)
(-0.000408643 -7.3862e-05 0.245376)
(-0.000437561 -8.32635e-05 0.258264)
(-0.000273948 -9.50706e-05 0.274398)
(0.000209317 -0.000116181 0.290219)
(0.00113559 -0.000142059 0.309748)
(0.00254525 -0.00017007 0.329553)
(0.00369792 -0.000197817 0.356884)
(0.00346029 -0.000261315 0.387186)
(0.00197514 -0.00041358 0.43971)
(0.000251685 -0.00095608 0.493697)
(-0.00354652 -0.00586508 0.71193)
(-0.000846996 -0.118329 1.8823)
(-0.00049933 -4.27414e-05 0.187882)
(-0.000351642 -4.46854e-05 0.195374)
(-0.000281537 -4.64209e-05 0.204272)
(-0.000312402 -5.08069e-05 0.212481)
(-0.000615092 -5.83472e-05 0.222776)
(-0.00103844 -7.02815e-05 0.232751)
(-0.00147488 -8.04731e-05 0.245972)
(-0.00161152 -9.02271e-05 0.258869)
(-0.00142924 -0.000100341 0.274942)
(-0.000799069 -0.00011439 0.290171)
(0.000193515 -0.000130329 0.3097)
(0.00121196 -0.000152475 0.330152)
(0.00160671 -0.000187568 0.359225)
(0.00149914 -0.00027207 0.390678)
(0.00217181 -0.000441955 0.442429)
(0.00302153 -0.000977787 0.492488)
(0.00151409 -0.00597193 0.709114)
(-0.00862651 -0.11509 1.88649)
(-0.00120896 -4.7479e-05 0.18707)
(-0.00112877 -5.17489e-05 0.194578)
(-0.00103345 -5.52014e-05 0.203489)
(-0.00100485 -6.04542e-05 0.211977)
(-0.00111021 -6.89977e-05 0.222034)
(-0.00131134 -8.43922e-05 0.231254)
(-0.00156596 -0.000102487 0.242822)
(-0.00163253 -0.000118928 0.253817)
(-0.00137396 -0.000129564 0.267705)
(-0.000796962 -0.000139284 0.280683)
(-0.000249591 -0.000151407 0.297881)
(-7.89817e-05 -0.000176092 0.31726)
(-0.000333841 -0.000213984 0.347366)
(4.53631e-05 -0.000293029 0.381806)
(0.0023459 -0.000438831 0.438558)
(0.00483553 -0.00094564 0.497855)
(0.00129002 -0.00576757 0.725169)
(-0.0312777 -0.122831 1.89786)
(-0.00110573 -5.60564e-05 0.188628)
(-0.00106578 -6.2461e-05 0.195243)
(-0.000953362 -6.74458e-05 0.203188)
(-0.000829124 -7.19396e-05 0.211431)
(-0.000574446 -7.59067e-05 0.220925)
(-0.000187061 -8.35719e-05 0.229808)
(0.000323252 -9.67794e-05 0.240259)
(0.000858673 -0.000114483 0.250662)
(0.00143708 -0.000130651 0.264238)
(0.00193701 -0.000146048 0.278172)
(0.00192874 -0.000162841 0.296105)
(0.00102234 -0.000186881 0.315818)
(-0.000391216 -0.000217052 0.344764)
(-0.000617398 -0.000285418 0.377893)
(0.000618715 -0.000437373 0.434893)
(-0.000389642 -0.000994941 0.49813)
(-0.00901313 -0.0059183 0.734554)
(-0.0112932 -0.119294 1.90739)
(-0.000284131 -5.3948e-05 0.190239)
(-0.000332052 -5.78373e-05 0.19663)
(-0.00033633 -6.06986e-05 0.204172)
(-0.00033667 -6.37589e-05 0.21226)
(-0.000169945 -6.42905e-05 0.221768)
(0.000123727 -6.55942e-05 0.231627)
(0.000544316 -6.89161e-05 0.243409)
(0.000953462 -8.1211e-05 0.255936)
(0.00143857 -9.90499e-05 0.271558)
(0.0019479 -0.000121756 0.288016)
(0.00209103 -0.000144968 0.307694)
(0.00110779 -0.000170555 0.327749)
(-0.000937943 -0.000200987 0.354195)
(-0.00242014 -0.000264656 0.383954)
(-0.00175609 -0.000416652 0.438504)
(0.000392037 -0.000996132 0.499344)
(0.000277835 -0.00596087 0.725606)
(-0.01326 -0.117158 1.89919)
(-6.57705e-05 -4.88322e-05 0.191619)
(-0.000282374 -5.20048e-05 0.197928)
(-0.000506472 -5.44444e-05 0.2054)
(-0.000779305 -5.77652e-05 0.213042)
(-0.00100515 -6.04919e-05 0.222469)
(-0.00115663 -6.47343e-05 0.232518)
(-0.00107899 -7.01625e-05 0.245013)
(-0.000744521 -8.00931e-05 0.258092)
(1.98548e-05 -9.48968e-05 0.273759)
(0.00104944 -0.000114765 0.28976)
(0.00180109 -0.000138569 0.308917)
(0.00107497 -0.000169272 0.328485)
(-0.00143941 -0.000209635 0.353784)
(-0.00435253 -0.00028389 0.381589)
(-0.00509647 -0.000427654 0.434094)
(-0.0026058 -0.000926216 0.495822)
(-0.00362022 -0.00569595 0.721751)
(-0.0280831 -0.115764 1.88209)
(0.000142703 -4.82795e-05 0.193532)
(-5.14725e-05 -5.2964e-05 0.199317)
(-0.00030536 -5.74257e-05 0.206542)
(-0.000691635 -6.32626e-05 0.213499)
(-0.00114471 -6.85725e-05 0.222335)
(-0.00156551 -7.46397e-05 0.231009)
(-0.00172426 -7.96339e-05 0.241896)
(-0.00149001 -8.73836e-05 0.252748)
(-0.000677524 -9.88155e-05 0.266651)
(0.000537324 -0.00011896 0.281718)
(0.00169971 -0.000147176 0.301707)
(0.00162781 -0.0001891 0.322973)
(-2.93513e-05 -0.000247866 0.349579)
(-0.00255463 -0.000343808 0.376776)
(-0.00390878 -0.00050007 0.427724)
(-0.00360787 -0.00100417 0.487387)
(-0.00613895 -0.00588349 0.707068)
(-0.0197061 -0.114617 1.86412)
)
;
    }
    rightWall
    {
        type            calculated;
        value           nonuniform List<vector> 
216
(
(-0.000302565 2.71025e-05 0.378779)
(-0.000584018 2.86493e-05 0.382239)
(-0.00103661 2.74257e-05 0.388847)
(-0.00161554 2.65259e-05 0.393889)
(-0.00234788 2.55824e-05 0.401733)
(-0.00307116 3.107e-05 0.407326)
(-0.0036172 4.41349e-05 0.415569)
(-0.00371992 6.33163e-05 0.421496)
(-0.0030903 7.9212e-05 0.430817)
(-0.00159807 8.84648e-05 0.438491)
(0.000446696 9.32897e-05 0.451579)
(0.00180096 0.000108962 0.464664)
(0.000592695 0.000138311 0.48968)
(-0.00365851 0.000235152 0.512448)
(-0.00737562 0.000354216 0.570714)
(-0.0032968 0.000897884 0.611723)
(0.00167733 0.00703016 0.913587)
(-0.00857949 0.285461 2.34629)
(-0.000120322 2.04811e-05 0.381713)
(-0.000617143 2.41347e-05 0.385079)
(-0.00121266 2.85771e-05 0.391611)
(-0.00180252 3.59966e-05 0.395842)
(-0.00242297 4.26274e-05 0.403157)
(-0.00275903 5.07886e-05 0.40726)
(-0.00255924 6.05058e-05 0.413985)
(-0.00179285 7.26806e-05 0.41725)
(-0.000723334 8.29849e-05 0.424169)
(0.00024283 9.05832e-05 0.429964)
(0.00107551 9.68891e-05 0.443551)
(0.0013642 0.0001185 0.459466)
(0.000945632 0.000163268 0.487418)
(-3.28557e-05 0.000277063 0.509493)
(-0.00151146 0.00040009 0.562323)
(-5.22633e-05 0.000924034 0.599346)
(0.00280303 0.00705108 0.905788)
(-0.0234731 0.286159 2.34139)
(-0.00111998 1.39739e-05 0.387972)
(-0.00157291 2.01045e-05 0.391464)
(-0.00189048 2.75621e-05 0.397239)
(-0.00183109 4.03248e-05 0.400044)
(-0.00155519 5.51882e-05 0.405268)
(-0.000841208 6.94898e-05 0.407381)
(0.000299773 7.75714e-05 0.412346)
(0.00166636 7.95931e-05 0.414953)
(0.00268527 7.76548e-05 0.421719)
(0.0026558 7.83043e-05 0.428433)
(0.00162939 8.27411e-05 0.442886)
(0.000182987 0.000103467 0.460134)
(7.72453e-05 0.000136689 0.488863)
(0.00205999 0.000233943 0.513212)
(0.00362661 0.000343581 0.569652)
(0.0033255 0.000853439 0.60858)
(0.00433072 0.00698429 0.909446)
(-0.00265627 0.286776 2.34048)
(-0.00199931 2.33475e-05 0.389339)
(-0.00188425 2.82007e-05 0.391309)
(-0.0015433 3.32562e-05 0.395164)
(-0.000611365 4.11745e-05 0.396624)
(0.000574163 4.88481e-05 0.400909)
(0.00207212 5.56336e-05 0.403665)
(0.00341063 5.60678e-05 0.410419)
(0.00437434 5.48858e-05 0.416885)
(0.00442313 5.35874e-05 0.428416)
(0.00316993 6.10386e-05 0.4405)
(0.000786365 7.68959e-05 0.457773)
(-0.00181584 0.000107557 0.474093)
(-0.00250717 0.000143726 0.498434)
(-0.00062635 0.000225171 0.520558)
(0.000665703 0.00032504 0.578114)
(-0.000912912 0.00085594 0.617779)
(-0.000507147 0.00695022 0.920803)
(-0.00538398 0.286022 2.35438)
(-0.00115361 3.10227e-05 0.380056)
(-0.000910551 3.05436e-05 0.380556)
(-0.000534741 3.09502e-05 0.383118)
(0.000289633 3.19603e-05 0.385042)
(0.00107699 3.21201e-05 0.39092)
(0.00190725 3.25278e-05 0.397445)
(0.0021305 3.05774e-05 0.409193)
(0.00191003 3.30666e-05 0.421385)
(0.000884624 4.11942e-05 0.437665)
(-0.000572271 6.37809e-05 0.452111)
(-0.00190272 0.000100337 0.46855)
(-0.00266967 0.000147161 0.48123)
(-0.00173327 0.000182 0.500408)
(0.000926122 0.000251729 0.517787)
(0.00395006 0.000347776 0.572437)
(0.00273703 0.000861916 0.611025)
(-0.000937316 0.00686826 0.903712)
(0.0173183 0.294254 2.32501)
(0.000971257 4.18333e-05 0.375465)
(0.000842955 3.99885e-05 0.37743)
(0.000652692 3.51225e-05 0.380476)
(0.000431893 2.80827e-05 0.383676)
(-3.84981e-05 2.39919e-05 0.389935)
(-0.000512377 2.79479e-05 0.3975)
(-0.00129321 3.64633e-05 0.41044)
(-0.00177044 4.87351e-05 0.423746)
(-0.00212203 6.17754e-05 0.440264)
(-0.00189232 8.31797e-05 0.451789)
(-0.000634098 0.00011335 0.463998)
(0.00162299 0.000152062 0.471933)
(0.00486932 0.000175723 0.490058)
(0.00725158 0.000231641 0.509864)
(0.00645264 0.000302495 0.571486)
(0.000547466 0.000836332 0.617045)
(-0.00427135 0.00703053 0.918271)
(0.0624653 0.287281 2.35431)
(0.00237394 3.50797e-05 0.382313)
(0.00225559 3.74628e-05 0.386411)
(0.00183229 3.68912e-05 0.390707)
(0.000841368 3.61052e-05 0.395039)
(-0.000495235 3.65338e-05 0.400694)
(-0.0019276 4.17076e-05 0.406447)
(-0.00319089 4.86573e-05 0.415705)
(-0.0036859 5.55108e-05 0.424467)
(-0.00309165 6.0972e-05 0.437322)
(-0.00113095 6.91249e-05 0.446723)
(0.00164843 7.17221e-05 0.460164)
(0.00401758 7.51253e-05 0.471287)
(0.004962 7.5965e-05 0.495914)
(0.00375444 0.000154221 0.524905)
(0.000124644 0.000284668 0.592501)
(-0.00306632 0.000876042 0.625208)
(-7.21231e-06 0.00730485 0.915622)
(0.0275015 0.28064 2.37274)
(0.00191349 8.59489e-06 0.387689)
(0.00196802 1.4743e-05 0.393172)
(0.00174126 2.25683e-05 0.399219)
(0.000949464 3.25069e-05 0.40491)
(-3.09548e-05 3.97392e-05 0.411062)
(-0.00131056 4.5342e-05 0.415558)
(-0.00242118 4.94905e-05 0.42121)
(-0.00330298 5.62638e-05 0.425197)
(-0.00333389 6.26324e-05 0.433451)
(-0.00239382 6.96519e-05 0.441456)
(-0.00135692 7.25575e-05 0.456952)
(-0.00171278 8.39837e-05 0.472351)
(-0.00495143 0.000106236 0.499108)
(-0.00774457 0.000200383 0.525104)
(-0.00353165 0.000320512 0.586552)
(0.00696619 0.000871297 0.618773)
(0.0113566 0.00713638 0.915117)
(-0.00328816 0.286137 2.35233)
(-0.000767873 -2.15436e-06 0.386256)
(-0.00062784 5.52676e-06 0.39252)
(-0.00044113 1.48225e-05 0.400265)
(-0.000482383 2.56166e-05 0.407006)
(-0.000508035 3.36555e-05 0.414339)
(-0.000855181 4.25999e-05 0.418944)
(-0.0010883 5.33722e-05 0.423894)
(-0.00140149 6.83538e-05 0.426303)
(-0.00124224 8.39012e-05 0.431718)
(-0.00069 0.00010035 0.437391)
(-9.86199e-05 0.000118865 0.45047)
(-0.000294748 0.000149185 0.46585)
(-0.00237669 0.000185571 0.491497)
(-0.00443282 0.0002606 0.513242)
(-0.00231504 0.00032033 0.570676)
(0.00557023 0.000842064 0.616871)
(0.0142957 0.00713906 0.928811)
(0.0146695 0.285999 2.34056)
(-0.002964 1.53276e-05 0.379964)
(-0.00282672 2.21919e-05 0.384074)
(-0.00238454 2.82771e-05 0.39112)
(-0.00191855 3.37922e-05 0.396907)
(-0.00124313 3.75392e-05 0.404828)
(-0.000674061 4.25895e-05 0.410101)
(0.000200136 4.94534e-05 0.416885)
(0.000970188 6.00036e-05 0.42113)
(0.00179516 7.03919e-05 0.428419)
(0.00234959 8.43377e-05 0.43597)
(0.00241117 0.000100464 0.450781)
(0.00171966 0.00012651 0.468512)
(-0.000139785 0.000155327 0.495466)
(-0.00287556 0.000232509 0.517057)
(-0.00601125 0.000311966 0.571842)
(-0.00387348 0.000808057 0.615928)
(0.013166 0.00692192 0.931756)
(0.0283542 0.285698 2.3496)
(-0.00228818 3.53918e-05 0.377227)
(-0.00230985 3.93275e-05 0.378116)
(-0.00207308 4.13078e-05 0.383002)
(-0.00172571 4.31904e-05 0.386095)
(-0.00104483 4.49594e-05 0.393317)
(-0.000236566 4.97996e-05 0.398538)
(0.000825164 5.39765e-05 0.407723)
(0.00166033 5.93851e-05 0.415352)
(0.00197532 6.39404e-05 0.427105)
(0.00162621 7.47245e-05 0.438317)
(0.000623983 9.18682e-05 0.454959)
(-0.000418205 0.000121002 0.471761)
(-0.00137548 0.000155622 0.496057)
(-0.00246346 0.000241432 0.515054)
(-0.00499082 0.000346915 0.56638)
(-0.0065812 0.000887509 0.60212)
(-0.00188232 0.00698768 0.916405)
(0.000395907 0.28574 2.35628)
(-0.000231766 3.44586e-05 0.379641)
(-0.000292339 3.61682e-05 0.3801)
(-0.000305128 3.75986e-05 0.384024)
(-0.000312647 3.99887e-05 0.385786)
(-0.000140649 4.21623e-05 0.391929)
(0.000314992 4.65213e-05 0.396727)
(0.000841665 4.95908e-05 0.406408)
(0.00130041 5.49386e-05 0.415499)
(0.00119259 6.13719e-05 0.428948)
(0.000796747 7.3608e-05 0.441159)
(4.9418e-05 8.96231e-05 0.456963)
(-0.00030829 0.000117051 0.471254)
(0.000164965 0.000148253 0.493613)
(0.0012149 0.000230403 0.513144)
(0.0004363 0.000328468 0.566829)
(-0.00275564 0.000883373 0.599932)
(-0.00682923 0.00707375 0.903206)
(-0.00236327 0.286063 2.34728)
)
;
    }
    leftSides_periodic0
    {
        type            cyclic;
    }
    leftSides_periodic1
    {
        type            cyclic;
    }
    rightSides_periodic0
    {
        type            cyclic;
    }
    rightSides_periodic1
    {
        type            cyclic;
    }
    leftInOut_periodic0
    {
        type            calculated;
        value           nonuniform 0();
    }
    leftInOut_periodic1
    {
        type            calculated;
        value           uniform (0 0 0);
    }
    rightInOut_periodic0
    {
        type            calculated;
        value           nonuniform 0();
    }
    rightInOut_periodic1
    {
        type            calculated;
        value           uniform (0 0 0);
    }
    procBoundary5to2
    {
        type            processor;
        value           uniform (0 0 0);
    }
    procBoundary5to3throughleftSides_periodic0
    {
        type            processorCyclic;
        value           uniform (0 0 0);
    }
    procBoundary5to3throughrightSides_periodic0
    {
        type            processorCyclic;
        value           uniform (0 0 0);
    }
    procBoundary5to4
    {
        type            processor;
        value           uniform (0 0 0);
    }
}


// ************************************************************************* //
