/*--------------------------------*- C++ -*----------------------------------*\
| =========                 |                                                 |
| \\      /  F ield         | OpenFOAM: The Open Source CFD Toolbox           |
|  \\    /   O peration     | Version:  v1912                                 |
|   \\  /    A nd           | Website:  www.openfoam.com                      |
|    \\/     M anipulation  |                                                 |
\*---------------------------------------------------------------------------*/
FoamFile
{
    version     2.0;
    format      ascii;
    class       volScalarField;
    location    "98.4";
    object      alphat;
}
// * * * * * * * * * * * * * * * * * * * * * * * * * * * * * * * * * * * * * //

dimensions      [1 -1 -1 0 0 0 0];


internalField   nonuniform List<scalar> 
2528
(
4.36202e-09
5.8346e-09
4.54514e-09
4.34464e-09
1.14315e-08
1.37587e-08
1.14583e-08
1.21501e-08
1.57214e-07
1.79232e-07
1.53961e-07
1.72587e-07
1.13505e-06
1.2822e-06
1.10125e-06
1.24927e-06
4.85207e-06
5.4565e-06
4.66883e-06
5.36246e-06
1.48441e-05
1.66254e-05
1.41722e-05
1.64953e-05
3.59803e-05
4.01309e-05
3.41285e-05
4.0221e-05
7.33295e-05
8.14913e-05
6.92466e-05
8.24672e-05
0.00013069
0.000144848
0.000123129
0.000147795
0.000209598
0.000231922
0.000197315
0.000238116
0.000309284
0.000341939
0.000291116
0.00035251
0.000427372
0.000472356
0.000402155
0.000488001
0.000560773
0.000619771
0.000527252
0.000640601
0.000691744
0.000780595
0.000647493
0.000806096
0.00083045
0.000948225
0.000772112
0.000979895
0.000975299
0.00110998
0.000901565
0.00114176
0.00112601
0.00127672
0.00103583
0.00130609
0.00128246
0.00144774
0.00117403
0.00147307
0.00144424
0.00162175
0.00131538
0.00164177
0.00161097
0.00179738
0.00145918
0.00181118
0.00178227
0.00197333
0.00160495
0.00198037
0.00195787
0.00214842
0.00175226
0.00214849
0.00213753
0.00232147
0.00190064
0.00231469
0.00232025
0.00249114
0.00204941
0.002478
0.00250266
0.00265487
0.00219771
0.00263659
0.00268557
0.00281108
0.00234447
0.00278922
0.00286854
0.00295875
0.00248782
0.00293487
0.00305063
0.00309753
0.00262513
0.0030722
0.00323008
0.00322926
0.00275536
0.0031996
0.00340337
0.00335948
0.00287677
0.00331529
0.00356424
0.00349764
0.00298742
0.00341738
0.00370304
0.00365446
0.00308556
0.00350413
0.00380768
0.00383764
0.0031701
0.0035744
0.00386782
0.00404855
0.00324178
0.00362869
0.00388471
0.00428075
0.00330739
0.00367124
0.00387961
0.00451793
0.00338352
0.00371121
0.00388636
0.00473774
0.00349117
0.00375857
0.00392709
0.0049288
0.00363953
0.00381572
0.00400429
0.00509846
0.00381944
0.0038757
0.00411656
0.00525971
0.00401467
0.00393052
0.00426626
0.00542171
0.00421023
0.0039765
0.00445309
0.00559062
0.00439136
0.00401293
0.00466818
0.00577168
0.0045453
0.00404139
0.00489384
0.00596992
0.0046557
0.00406497
0.00510941
0.0061909
0.00470582
0.00408554
0.00530213
0.00644032
0.00474767
0.00410308
0.00547235
0.00672094
0.00478255
0.0041154
0.00562165
0.007033
0.0048028
0.00411783
0.00571912
0.00737247
0.00450527
0.00410398
0.00578201
0.00769825
0.00420217
0.00406747
0.00583802
0.00786404
0.0040737
0.00400392
0.00588599
0.00797279
0.00417714
0.00391142
0.00592473
0.00805142
0.00444168
0.00379303
0.00595345
0.00809647
0.00474599
0.00366215
0.00597196
0.00810505
0.0049597
0.00354162
0.00598112
0.00800176
0.00497034
0.00346073
0.00595142
0.00757589
0.0049775
0.00344293
0.00554967
0.00716123
0.00498099
0.00342858
0.00526713
0.00691072
0.00498061
0.00344857
0.00533813
0.00688661
0.00497649
0.0035184
0.00574499
0.00705738
0.00496729
0.003592
0.00613459
0.00706328
0.00495521
0.00373978
0.00619846
0.00680493
0.00494323
0.0039566
0.00584771
0.0065239
0.00493582
0.0041504
0.00558273
0.00622722
0.00493903
0.00435076
0.00572052
0.00591596
0.00495984
0.004553
0.00621396
0.00539524
0.00500605
0.00474931
0.00664934
0.00422969
0.00508463
0.00493342
0.00674152
0.00332607
0.00520139
0.00510014
0.00683229
0.00292976
0.00536044
0.0052453
0.00691891
0.00299581
0.00556375
0.00536599
0.00699853
0.00344324
0.00581068
0.00546061
0.00707014
0.00356901
0.00609785
0.00552996
0.00713253
0.00339957
0.0064191
0.00557759
0.00718457
0.00329847
0.00676648
0.00561022
0.00722568
0.003285
0.00713117
0.00563868
0.00725654
0.00337263
0.00750522
0.00567687
0.00727737
0.00355731
0.00788211
0.00574161
0.00728908
0.00382762
0.00825417
0.00584774
8.23647e-09
1.57103e-08
1.31815e-08
7.90252e-09
1.30454e-08
2.45152e-08
2.11379e-08
1.33907e-08
1.28572e-07
2.29262e-07
2.06715e-07
1.40483e-07
9.03922e-07
1.56355e-06
1.42818e-06
9.98405e-07
3.83672e-06
6.4183e-06
5.92641e-06
4.27465e-06
1.16689e-05
1.87658e-05
1.75258e-05
1.31285e-05
2.81391e-05
4.333e-05
4.09438e-05
3.19957e-05
5.71557e-05
8.41846e-05
8.04759e-05
6.56858e-05
0.000101759
0.000143564
0.000138767
0.000118133
0.000163387
0.000221467
0.000216264
0.000191415
0.000241747
0.000316064
0.000311482
0.00028551
0.000335206
0.000424562
0.000421705
0.000398757
0.000441514
0.000538201
0.000544047
0.0005286
0.000558859
0.000652844
0.000670322
0.000672466
0.000684725
0.00077625
0.000798802
0.000828723
0.000815298
0.00090835
0.000936029
0.000995959
0.00096059
0.00104957
0.00108282
0.00117285
0.00112063
0.00120097
0.00124148
0.00135823
0.0012818
0.001364
0.00141444
0.00155096
0.00145071
0.00153983
0.00160164
0.00174983
0.0016271
0.00172788
0.00179808
0.00195356
0.0018106
0.00192412
0.00197915
0.00216159
0.00200065
0.00212156
0.00215805
0.00237274
0.00219654
0.002312
0.00233692
0.00258595
0.00239742
0.0024852
0.00251445
0.0028002
0.00260241
0.00265467
0.00269005
0.00301466
0.00281087
0.00282034
0.00286372
0.00322873
0.00302211
0.00298169
0.0030351
0.00344179
0.00323536
0.0031376
0.00320372
0.00365334
0.0034499
0.00328555
0.00336919
0.00386303
0.00366508
0.00342448
0.00353122
0.00407066
0.00388049
0.00355412
0.00368961
0.00427621
0.00409597
0.00367041
0.00384421
0.0044798
0.00431157
0.00347451
0.00399494
0.00468169
0.0045275
0.00305969
0.00414164
0.0048823
0.00474412
0.002802
0.00428093
0.00508212
0.00496181
0.00312912
0.00441091
0.00528164
0.00518081
0.00421207
0.00453095
0.00548125
0.00540113
0.00443688
0.00464295
0.00568109
0.00562212
0.00459241
0.00474727
0.00588094
0.00584261
0.0047596
0.00484354
0.00608077
0.00606073
0.00494064
0.00493202
0.00628116
0.0062757
0.00513714
0.00501311
0.00648281
0.0064876
0.00535079
0.00468323
0.00668555
0.00669548
0.00558263
0.00335715
0.00688912
0.00689847
0.00583295
0.00261133
0.00709057
0.00672136
0.00610122
0.00287507
0.00728605
0.00609854
0.00638636
0.00496008
0.00747515
0.00655497
0.00668665
0.00534396
0.00765739
0.00768027
0.00699983
0.00541529
0.00783257
0.00785871
0.00732318
0.00550137
0.00800057
0.00802402
0.00765386
0.00560394
0.00816154
0.00818024
0.00798907
0.00572781
0.00831613
0.00832472
0.00832598
0.00587638
0.00846578
0.00845598
0.00866182
0.0060507
0.00860693
0.00857319
0.00899417
0.00624988
0.0082454
0.0086763
0.00932145
0.00647144
0.005943
0.00876139
0.00964239
0.00671171
0.00457378
0.00660964
0.00995437
0.00696642
0.00513853
0.00493848
0.0102595
0.00723108
0.00866325
0.00535018
0.0105554
0.00750436
0.00936974
0.00877021
0.0108363
0.00778228
0.00949569
0.00874099
0.0111038
0.00805418
0.00961472
0.00871091
0.0113603
0.00831886
0.00972599
0.00868385
0.0116083
0.00857924
0.00982989
0.00865925
0.0118506
0.008837
0.00992768
0.00864025
0.0120902
0.00908992
0.0100204
0.00863171
0.0123306
0.00933527
0.0101084
0.00863762
0.012577
0.00957258
0.0101914
0.00866105
0.0128335
0.00980184
0.0102682
0.00870071
0.0131018
0.0100225
0.0103373
0.00875269
0.0133808
0.0102324
0.0103966
0.00881691
0.0136564
0.0104278
0.010443
0.00889425
0.0139209
0.0106041
0.0104731
0.00898324
0.014165
0.0107556
0.0104854
0.00907906
0.0143792
0.010891
0.0104871
0.00917246
0.0145554
0.0110091
0.0104806
0.00925552
0.0146899
0.011105
0.0104637
0.00932634
0.0147891
0.0111767
0.0104353
1.3228e-08
1.40803e-08
1.31155e-08
1.05043e-08
1.83448e-08
2.18407e-08
1.77288e-08
1.49811e-08
1.63453e-07
2.02957e-07
1.51562e-07
1.30818e-07
1.15887e-06
1.39872e-06
1.06816e-06
9.20801e-07
4.9708e-06
5.81368e-06
4.57491e-06
3.95878e-06
1.51048e-05
1.71983e-05
1.38805e-05
1.21425e-05
3.59862e-05
4.01062e-05
3.30153e-05
2.9367e-05
7.16789e-05
7.85554e-05
6.56985e-05
5.96409e-05
0.000124735
0.000134893
0.000114341
0.000106123
0.000195751
0.00020941
0.000179628
0.000170516
0.000283645
0.000300719
0.000260697
0.000252992
0.000386319
0.000406471
0.00035566
0.000352535
0.000501396
0.000524065
0.000461469
0.000467451
0.000617725
0.000640572
0.000565268
0.00059592
0.000741301
0.000764206
0.000677097
0.000724766
0.000874498
0.000896262
0.000797383
0.000863467
0.00101719
0.00103663
0.000926035
0.00101362
0.00116929
0.00118526
0.00106299
0.00117537
0.00133082
0.00134229
0.00120827
0.00134878
0.00150208
0.00150801
0.00136192
0.00153404
0.00168377
0.00168291
0.00152409
0.00173144
0.00187699
0.00186759
0.0016951
0.00194153
0.00208236
0.00206221
0.00187511
0.00216506
0.00229782
0.0022652
0.00206286
0.00240255
0.00250361
0.00245762
0.00224755
0.00265267
0.0027032
0.00263906
0.00240942
0.00289579
0.00290511
0.00282136
0.00256878
0.00312889
0.0031093
0.00300447
0.00272486
0.00336486
0.00331531
0.00318838
0.00287675
0.00360327
0.00352262
0.0033732
0.00302352
0.00384331
0.00373063
0.00355916
0.00316429
0.00408418
0.00394001
0.00374652
0.00329818
0.0043251
0.00415045
0.00393557
0.00342435
0.00456522
0.00436161
0.00412665
0.00354199
0.00480373
0.00457309
0.00432026
0.00365035
0.00503974
0.00478442
0.00451713
0.00374879
0.00527234
0.00499484
0.00471812
0.00383661
0.00550047
0.00520308
0.0049239
0.00391293
0.00572282
0.00540722
0.00513482
0.00397667
0.0059378
0.00560495
0.0053511
0.00402672
0.00614359
0.00579374
0.00557274
0.00406226
0.00633823
0.00597069
0.00579958
0.00408293
0.00651971
0.00613286
0.00603093
0.00408933
0.0066857
0.0062783
0.0062656
0.00408863
0.00683399
0.00640636
0.00650198
0.00408261
0.00696247
0.00651747
0.00673797
0.00407436
0.0070718
0.00661675
0.00697105
0.00406803
0.00716343
0.00670448
0.0071979
0.00406729
0.00723679
0.00678099
0.00741484
0.00407513
0.00729129
0.00684595
0.00761817
0.0040962
0.00732654
0.00689835
0.00780415
0.00413679
0.00734241
0.00693707
0.00796906
0.00419904
0.00733899
0.00696099
0.00810945
0.00427505
0.00731651
0.00696897
0.00822233
0.00436207
0.00727534
0.00696001
0.00830526
0.00445695
0.00721593
0.00693336
0.00835898
0.00455617
0.00713879
0.00688867
0.00838668
0.00465582
0.00704472
0.00682616
0.00838733
0.00475189
0.00693474
0.00674684
0.00836044
0.00484074
0.00681018
0.00665266
0.00830617
0.00491949
0.00667052
0.00654667
0.00822538
0.00498643
0.00651377
0.00643396
0.00812555
0.00504172
0.00633929
0.00632059
0.00801007
0.00509402
0.00614757
0.00621522
0.00788221
0.00514437
0.00593943
0.00612895
0.00774553
0.00519157
0.00571631
0.00606988
0.00760334
0.00523508
0.00548293
0.00604175
0.00745938
0.00527444
0.00524406
0.00604535
0.00731609
0.00530915
0.00500439
0.00607891
0.00717466
0.00533866
0.00476873
0.00613986
0.00703497
0.00536238
0.00454229
0.00622608
0.00689546
0.00537959
0.00433038
0.0063305
0.00675343
0.00538935
0.00413923
0.00644172
0.00660538
0.00539074
0.00397535
0.00654944
0.00644767
0.00538332
0.00384531
0.00664577
0.00627723
0.00536765
0.00375353
0.00672645
0.00609234
0.00533219
0.00369689
0.00679181
0.00589353
0.00527357
0.00367644
0.00684293
0.00568476
0.00519252
0.00369792
0.00687636
0.00547442
0.00509156
0.00376894
4.70133e-09
9.24599e-09
5.25448e-09
3.82861e-09
1.12704e-08
1.81235e-08
1.09149e-08
7.19648e-09
1.27075e-07
2.06628e-07
1.26827e-07
6.66495e-08
8.59369e-07
1.44823e-06
8.90607e-07
4.49903e-07
3.51749e-06
6.03427e-06
3.74367e-06
1.87261e-06
1.0437e-05
1.78592e-05
1.12912e-05
5.67127e-06
2.47475e-05
4.15879e-05
2.70117e-05
1.37588e-05
4.96071e-05
8.11431e-05
5.43814e-05
2.82665e-05
8.72552e-05
0.000138452
9.58552e-05
5.10007e-05
0.000138405
0.000213105
0.000152253
8.29929e-05
0.000202224
0.000302894
0.000222774
0.000124339
0.000276786
0.000394612
0.00030549
0.000174324
0.000349541
0.000488644
0.000388921
0.000231703
0.000425574
0.000588275
0.000474489
0.000286996
0.000505469
0.000693488
0.000564629
0.000345655
0.000588951
0.000804053
0.000659134
0.000407927
0.000675925
0.000919879
0.000757727
0.00047392
0.000766897
0.00104096
0.000860027
0.000543825
0.000863593
0.00116753
0.000965566
0.000618011
0.000969713
0.00129999
0.0010747
0.000697164
0.00109029
0.00143876
0.00118979
0.000782624
0.00122889
0.0015842
0.00131563
0.000876524
0.00138171
0.00173696
0.0014578
0.00098161
0.00153909
0.00189896
0.00161927
0.00110041
0.00169643
0.00207388
0.00179702
0.00123193
0.00185531
0.00226249
0.00198134
0.0013709
0.00201898
0.00244783
0.00216268
0.00151372
0.00218218
0.0025739
0.00233924
0.00166014
0.00233172
0.00256334
0.00251382
0.00181074
0.00247898
0.0024158
0.00267582
0.00196509
0.00262194
0.00225248
0.00282556
0.00210892
0.00275729
0.00221337
0.0029699
0.00224884
0.0028829
0.00237815
0.00310687
0.00238524
0.00300075
0.00273166
0.00323875
0.00251891
0.00303151
0.00313516
0.00311539
0.00246506
0.0022059
0.00335338
0.00249898
0.00218013
0.00211055
0.00342325
0.00248539
0.00222341
0.00266251
0.00348611
0.00306974
0.00265044
0.00365312
0.0035435
0.00398885
0.00327015
0.00391349
0.00359815
0.00417204
0.00349204
0.00408757
0.00365401
0.00432436
0.003681
0.00426982
0.00371554
0.00447408
0.00388228
0.00445875
0.00378799
0.00461851
0.0040959
0.00465305
0.00387769
0.0047548
0.00432153
0.00485878
0.00399293
0.00487968
0.00455827
0.00507405
0.00414616
0.0049896
0.00480459
0.00529632
0.00434114
0.00508195
0.00506284
0.00552252
0.00457713
0.0051574
0.00533124
0.0057496
0.0048524
0.00522256
0.00560901
0.00597623
0.00516874
0.00314242
0.00589691
0.00620101
0.00552625
0.00262257
0.00619382
0.00642087
0.00592308
0.00357059
0.0064977
0.0066327
0.00635569
0.00553499
0.00680615
0.00683351
0.00681917
0.00561309
0.00711669
0.00702051
0.00730752
0.00571139
0.00742688
0.00719128
0.00781178
0.00583257
0.00773457
0.00734391
0.00832053
0.00598169
0.00803861
0.00747744
0.00882707
0.00615611
0.00833936
0.00759089
0.00932492
0.00635117
0.00863801
0.00768492
0.00980798
0.00656319
0.00893653
0.00776172
0.0102715
0.00678821
0.00923802
0.00781955
0.0107112
0.00702205
0.00954555
0.00786075
0.0111243
0.00726137
0.00986193
0.00557441
0.0115088
0.00750392
0.0101911
0.00401487
0.0118639
0.00774827
0.0105286
0.0056352
0.0121899
0.00799392
0.0108733
0.0079216
0.0124389
0.0082411
0.0112245
0.00792414
0.0125416
0.00849188
0.0115801
0.00794991
0.012698
0.0087474
0.011938
0.0080021
0.0129334
0.00900823
0.0122953
0.00808421
0.0132643
0.00927435
0.0126476
0.00819974
0.0134969
0.00954496
0.0129886
0.00835262
0.0136119
0.00981942
0.0133091
0.00855058
0.0137011
0.0100949
0.0135973
0.0087817
0.0137664
0.0103672
0.0138384
0.00902293
0.0138111
0.0106309
0.0140172
0.00926076
0.0138403
0.0108813
0.0141139
0.00948078
0.011546
0.0111121
0.0141231
0.00966985
0.00775008
0.0113215
0.0140265
0.00729267
0.00416149
0.00861135
0.00601048
0.00728869
0.00453425
0.00894412
0.00623795
0.00727461
0.00492391
0.00924634
0.00652571
0.00725387
0.00531274
0.00951538
0.00685528
0.00722456
0.00568779
0.00975039
0.00613503
0.00719827
0.00604042
0.00975334
0.00525672
0.0071782
0.00636516
0.00971091
0.00530469
0.00717381
0.00665888
0.00963687
0.00608062
0.00719353
0.00692021
0.00935545
0.00737747
0.00723395
0.00714912
0.00884817
0.00890731
0.0072919
0.00734666
0.00827276
0.00974139
0.00736547
0.0075145
0.00780911
0.0100366
0.00745329
0.00765441
0.00760081
0.0102957
0.00675415
0.00776856
0.00774284
0.0105254
0.00601895
0.00785902
0.0082161
0.0107159
0.00550459
0.00792776
0.00888475
0.0108572
0.00527879
0.00797669
0.00956602
0.0109501
0.00542126
0.00800772
0.0100814
0.0109959
0.00591863
0.00802263
0.0103389
0.0109962
0.0066524
0.00802295
0.0103768
0.0100797
0.00746175
0.00800997
0.0102766
0.00950636
0.0081531
0.00798464
0.0101023
0.00960227
0.00858296
0.00794747
0.0099042
0.00996698
0.00878611
0.00789886
0.0097133
0.0104066
0.00887436
0.00783905
0.00953528
0.0102034
0.00890189
0.00776887
0.00936121
0.00998525
0.00889084
0.0076886
0.00918083
0.00975879
0.00885723
0.00759862
0.00899045
0.00952257
0.00880647
0.00749949
0.00879155
0.00927682
0.00873739
0.00739187
0.00858491
0.0090224
0.00864924
0.00727651
0.00837249
0.00874541
0.00854229
0.00715355
0.00815392
0.00842436
0.0084169
0.00702221
0.00792378
0.00808085
0.00827418
0.00688155
0.0076756
0.007715
0.00811605
0.00673075
0.00739526
0.00734638
0.00794478
0.00656692
0.00708996
0.0070081
0.00776264
0.00639047
0.00677887
0.00673559
0.00757113
0.00620271
0.00646423
0.00654905
0.00737046
0.0060049
0.00614782
0.00643361
0.00715989
0.00579817
0.00583115
0.00632194
0.00693857
0.00558369
0.00551558
0.00609026
0.00670621
0.0053619
0.00520231
0.00583453
0.00646321
0.00513339
0.00489245
0.00557278
0.00621038
0.00489906
0.004587
0.00530501
0.00594862
0.00465991
0.00428664
0.00503161
0.00567894
0.004417
0.00399188
0.00475373
0.00540241
0.00417084
0.0037036
0.00447327
0.00512003
0.0039217
0.00342258
0.00419022
0.00483259
0.00366969
0.00314954
0.00389239
0.00454078
0.00341655
0.00288505
0.00359313
0.00424547
0.00313182
0.00262959
0.00329854
0.00394786
0.00284903
0.00237793
0.00301053
0.00364952
0.00257397
0.00212775
0.0027304
0.00335234
0.00230705
0.00189358
0.00245847
0.00305837
0.00205014
0.00167535
0.00219877
0.00276923
0.00181075
0.00147264
0.00195229
0.00248722
0.00159393
0.00128502
0.00171967
0.00221518
0.00139748
0.00111203
0.00150132
0.00195496
0.00121778
0.00095327
0.00129764
0.00170798
0.00105258
0.000808333
0.00110905
0.00147538
0.000900536
0.00067318
0.000935871
0.00125806
0.00076069
0.000543522
0.000778102
0.00105664
0.000632356
0.000426799
0.000635466
0.000871297
0.000514682
0.00032403
0.000495001
0.000687962
0.000402548
0.000236332
0.000371897
0.000519285
0.0002938
0.000164414
0.000267325
0.000371656
0.00020295
0.000108286
0.000182151
0.000248665
0.000131328
6.7018e-05
0.000116468
0.000153019
7.87959e-05
3.86992e-05
6.91575e-05
8.50817e-05
4.3417e-05
2.07001e-05
3.77465e-05
4.19938e-05
2.17645e-05
1.01671e-05
1.87424e-05
1.80925e-05
9.81117e-06
4.52837e-06
8.35756e-06
6.68147e-06
3.905e-06
1.79241e-06
3.28416e-06
2.06177e-06
1.32952e-06
6.09833e-07
1.10156e-06
5.08853e-07
3.66283e-07
1.68607e-07
2.98335e-07
9.25069e-08
7.40503e-08
3.44295e-08
5.91399e-08
1.07428e-08
9.49633e-09
4.60814e-09
7.37891e-09
1.18785e-09
1.21206e-09
7.66914e-10
8.74065e-10
1.02471e-09
8.73054e-10
6.26674e-10
6.08977e-10
0.00938406
0.010192
0.0112288
0.0103964
0.00942806
0.00925879
0.0112582
0.0103491
0.00945711
0.0120905
0.0112639
0.010295
0.0094697
0.0147765
0.0112456
0.0102345
0.00946522
0.0146724
0.011203
0.0101669
0.00943432
0.0145457
0.0111357
0.0101107
0.00937918
0.0143949
0.0110462
0.0100643
0.00930297
0.0142183
0.0109387
0.0100229
0.00920912
0.014017
0.0108161
0.00998138
0.00910055
0.0137923
0.0106804
0.00993333
0.00897808
0.0135465
0.0105327
0.00987422
0.00885695
0.0132826
0.0103733
0.00980082
0.00873864
0.0130073
0.0102019
0.00971105
0.00862339
0.0127247
0.0100178
0.00960362
0.00850912
0.0124378
0.00982008
0.00947762
0.00839963
0.0121483
0.00960888
0.00933314
0.00829196
0.0118572
0.00938451
0.00917007
0.00817725
0.011565
0.00914757
0.00898968
0.00805504
0.0112724
0.0088988
0.00879335
0.00793478
0.0109796
0.00863922
0.00858275
0.00781251
0.0106864
0.00837014
0.00835988
0.00768463
0.0103925
0.00809315
0.00812706
0.00754827
0.0100974
0.00781069
0.0078865
0.00740123
0.00980004
0.00752585
0.00764012
0.00724179
0.00949952
0.00724153
0.00738964
0.00707134
0.00919499
0.00696045
0.00713671
0.00689187
0.00888643
0.0066851
0.00688295
0.00670576
0.00857379
0.00641744
0.0066299
0.00651558
0.00825725
0.00615563
0.00637919
0.0063238
0.00793721
0.00589671
0.00613137
0.00613198
0.00761422
0.00564487
0.00588763
0.00594196
0.007289
0.00540318
0.00565023
0.00575621
0.00696239
0.00517361
0.00542104
0.00557671
0.0066354
0.00495718
0.00520105
0.00540039
0.00630843
0.00475416
0.0049896
0.00522583
0.00598023
0.00456422
0.0047776
0.0050535
0.00565122
0.00438551
0.00456577
0.00488399
0.00532435
0.00421254
0.00435877
0.00471786
0.00500281
0.00404502
0.00415974
0.00455516
0.00468907
0.00388255
0.00397061
0.00439568
0.00438577
0.00372438
0.00380281
0.00423906
0.00409245
0.00349094
0.00366156
0.00408483
0.00380437
0.00325009
0.0035237
0.00393249
0.00297337
0.00308735
0.00214999
0.00378157
0.00227229
0.00298704
0.00184483
0.0036142
0.00208325
0.00289196
0.00215825
0.00342468
0.00221255
0.00276835
0.00274489
0.00321383
0.00242975
0.0026193
0.00293378
0.00299209
0.00245934
0.00245837
0.00281103
0.00277795
0.0022741
0.00228696
0.00268487
0.00257934
0.0020907
0.00211329
0.00255544
0.0023969
0.00176708
0.00194462
0.00242316
0.00222672
0.00150883
0.00178346
0.00228848
0.0020576
0.00134765
0.00163056
0.00215192
0.00189442
0.00124236
0.00148579
0.00201195
0.00173783
0.00114674
0.00134848
0.00186143
0.00158701
0.00103725
0.00121775
0.00165135
0.00144087
0.000915508
0.00109276
0.00145912
0.00129864
0.000793865
0.000972908
0.00130096
0.00116
0.000680951
0.000857873
0.00116933
0.00102499
0.00057834
0.000747646
0.00104999
0.000893999
0.000471961
0.00064247
0.000933368
0.000767731
0.000366682
0.000542837
0.000816799
0.000647111
0.00027379
0.000448532
0.000701452
0.000533023
0.000195349
0.000344966
0.000589675
0.000420092
0.000132449
0.000252549
0.00048345
0.000305289
8.49081e-05
0.00017434
0.000373301
0.000207261
5.12411e-05
0.000112359
0.000265367
0.0001296
2.89871e-05
6.69717e-05
0.000173774
7.35998e-05
1.52885e-05
3.66157e-05
0.000102896
3.7491e-05
7.4553e-06
1.82187e-05
5.40919e-05
1.6933e-05
3.31579e-06
8.16445e-06
2.48406e-05
6.67726e-06
1.31566e-06
3.23713e-06
9.80712e-06
2.23544e-06
4.49326e-07
1.09977e-06
3.24774e-06
6.02298e-07
1.24407e-07
3.02367e-07
8.59231e-07
1.18005e-07
2.51186e-08
6.06478e-08
1.64722e-07
1.38846e-08
3.03049e-09
7.33152e-09
1.89714e-08
9.1697e-10
1.81622e-10
5.12204e-10
1.28494e-09
3.90091e-10
5.96172e-11
2.30317e-10
6.0146e-10
0.00689053
0.00527704
0.0049764
0.00389909
0.00688607
0.00510778
0.00485624
0.00409579
0.00686557
0.00496839
0.00474184
0.00434977
0.00683182
0.00485283
0.00464277
0.00463862
0.00678846
0.00475717
0.00456832
0.00494186
0.00673957
0.00467908
0.00452604
0.00524667
0.00668996
0.00461731
0.00451978
0.00554592
0.00664512
0.00457167
0.00454912
0.00583589
0.00661117
0.00454253
0.00461188
0.00611459
0.00659466
0.00453026
0.00470539
0.00638069
0.00660166
0.0045341
0.00482687
0.00663301
0.00662317
0.00455234
0.00497398
0.00687014
0.00666148
0.00458
0.00514452
0.00709038
0.00671813
0.00461309
0.00533458
0.00729178
0.00679396
0.00464887
0.00553743
0.00747236
0.00688941
0.00468566
0.00574509
0.00763109
0.00700431
0.00472252
0.00595057
0.007768
0.00713871
0.004759
0.00614815
0.00788304
0.00729042
0.00479482
0.00633326
0.0079762
0.00745257
0.00482973
0.00650242
0.00804756
0.00761777
0.00486338
0.00665305
0.00809732
0.00777953
0.00489527
0.00678347
0.00812569
0.00793227
0.00492471
0.00688849
0.00813282
0.00807131
0.00495096
0.00696726
0.00811871
0.00819308
0.00497358
0.0070209
0.00808309
0.0082905
0.00499168
0.00705045
0.00802696
0.0083619
0.00500446
0.00705686
0.00795216
0.00840593
0.00501127
0.00704104
0.00786041
0.00842255
0.00501145
0.00700382
0.00775327
0.00819293
0.00500425
0.00694605
0.00762835
0.0080287
0.00494122
0.0068687
0.00748391
0.0079914
0.00485594
0.00677276
0.00731959
0.00798731
0.00478085
0.00665943
0.00713591
0.00792125
0.00470824
0.00648294
0.00693528
0.00775588
0.00462172
0.00618556
0.00672045
0.00750881
0.00452106
0.00590145
0.00649442
0.00721663
0.00441112
0.0056493
0.00626055
0.00691065
0.004294
0.00542709
0.00602235
0.00661105
0.00417045
0.00522725
0.00578303
0.00632856
0.00403965
0.00504313
0.00554593
0.00606663
0.00390022
0.00487028
0.00525722
0.00582342
0.00375103
0.0047062
0.00480213
0.00559382
0.0035938
0.00454903
0.00438609
0.00537193
0.00343562
0.00439604
0.00407309
0.0051529
0.00328632
0.0042431
0.0038689
0.00493369
0.00315079
0.00408597
0.00373425
0.00471294
0.00302431
0.00392182
0.00361711
0.00449043
0.00289759
0.00374964
0.00348789
0.00426655
0.00276486
0.00356977
0.0033411
0.00404197
0.0026255
0.00338331
0.00318096
0.00381729
0.00248034
0.0031916
0.0030126
0.003593
0.0023274
0.00299595
0.00283982
0.00336941
0.00216735
0.0027972
0.00266481
0.00314677
0.00201023
0.00259424
0.00248775
0.00292523
0.00185637
0.00238852
0.00230429
0.00270477
0.00170447
0.00218489
0.00211594
0.00248455
0.00155362
0.00198425
0.00192954
0.00225996
0.00140378
0.00178698
0.00174712
0.00203853
0.00125563
0.00159356
0.00156926
0.00182183
0.00111021
0.00140459
0.00139605
0.00161039
0.00096877
0.00121962
0.00122772
0.001405
0.000832516
0.00103267
0.00106497
0.00120683
0.000699021
0.000839125
0.000908825
0.00101716
0.000556181
0.000658865
0.000759081
0.000832813
0.000425083
0.000496212
0.000596777
0.000640502
0.00030944
0.000355424
0.000448146
0.000467247
0.000212526
0.000239917
0.000317862
0.000318997
0.000136327
0.000151258
0.00021034
0.000200705
8.08526e-05
8.83679e-05
0.000128227
0.000114557
4.39201e-05
4.75226e-05
7.11963e-05
5.84777e-05
2.16538e-05
2.33663e-05
3.56608e-05
2.63638e-05
9.58195e-06
1.03975e-05
1.59563e-05
1.03403e-05
3.73844e-06
4.11016e-06
6.27957e-06
3.43512e-06
1.24611e-06
1.39619e-06
2.11014e-06
9.17272e-07
3.35357e-07
3.8444e-07
5.72712e-07
1.77963e-07
6.57061e-08
7.72291e-08
1.13224e-07
2.06392e-08
7.72205e-09
9.26944e-09
1.343e-08
1.23506e-09
4.97375e-10
5.40553e-10
8.69138e-10
4.40433e-10
2.0415e-10
1.6339e-10
3.53734e-10
0.00981848
0.00594133
0.0115052
0.00656678
0.00992293
0.00766335
0.0116616
0.00477753
0.00997939
0.013596
0.0117902
0.00621103
0.00998961
0.0135461
0.0118885
0.00984113
0.00995806
0.0134592
0.0118498
0.0130565
0.0098921
0.0133264
0.011995
0.0128568
0.00979914
0.0131472
0.0119886
0.0126477
0.00968769
0.012924
0.0119426
0.0124243
0.00957041
0.0126688
0.0118632
0.0121854
0.00945938
0.0123871
0.0117569
0.0119309
0.00935851
0.0120865
0.0116318
0.0116595
0.00926822
0.0117738
0.0101591
0.01137
0.00918797
0.0114547
0.00755818
0.011051
0.00911448
0.0111331
0.00854206
0.0106958
0.00904895
0.0108123
0.0109975
0.0103221
0.00603862
0.0104949
0.0108958
0.00994565
0.00426806
0.010183
0.0107957
0.00956902
0.00550826
0.00987821
0.010681
0.00919656
0.00880295
0.00958162
0.0105486
0.00882983
0.00878019
0.00929347
0.0103969
0.00847324
0.00873695
0.00901351
0.0102266
0.0081297
0.0086685
0.00874119
0.0100398
0.00780136
0.00857373
0.0084757
0.00984456
0.00748957
0.00845553
0.00821621
0.00964407
0.00719495
0.00831475
0.00796217
0.00943883
0.00691775
0.0081591
0.00771346
0.00922959
0.00665156
0.00799052
0.00747061
0.00901722
0.00642108
0.00781118
0.00723356
0.00880247
0.00623838
0.00762791
0.00556879
0.00858669
0.0060856
0.00744322
0.00445201
0.00836961
0.00595862
0.00725782
0.00499644
0.0081514
0.00585626
0.00707226
0.00616776
0.0079321
0.00577748
0.00688663
0.0059427
0.00771138
0.00572089
0.00670083
0.00572723
0.00749157
0.00568413
0.00651417
0.00550346
0.00727321
0.00566524
0.00632577
0.00527494
0.00705608
0.00562959
0.00613484
0.00504389
0.00683989
0.00379269
0.00594177
0.0048124
0.00662322
0.0028859
0.00574702
0.00458186
0.00640515
0.00325654
0.00555089
0.00435334
0.00618587
0.00562426
0.00535346
0.00412768
0.00596526
0.00568686
0.00515473
0.00390529
0.00574304
0.00565745
0.00495467
0.00368676
0.00550573
0.00559895
0.00475327
0.00347246
0.00526603
0.00551016
0.00455055
0.00326261
0.00502535
0.00539248
0.00434656
0.00305726
0.00478308
0.00524901
0.00414135
0.00285632
0.00453902
0.0050827
0.00393499
0.00265966
0.00429316
0.00489809
0.0037126
0.00246716
0.00404567
0.0046985
0.00349011
0.00227871
0.0037969
0.0044867
0.00326662
0.00209428
0.00354706
0.00426442
0.00304163
0.00191391
0.00329498
0.00399189
0.00281697
0.00173777
0.00304045
0.00371561
0.00259363
0.00156614
0.00278529
0.0034389
0.00237044
0.00139944
0.00253308
0.00315763
0.00215343
0.00123821
0.0022862
0.00287213
0.00194384
0.00108314
0.0020466
0.00258887
0.00174205
0.000935041
0.001816
0.00231666
0.00154836
0.000794859
0.00159583
0.00206547
0.00136306
0.000663628
0.00138718
0.00183629
0.00118653
0.00054246
0.0011906
0.00162309
0.00101925
0.000432501
0.00100525
0.00142003
0.000861375
0.000334925
0.000831341
0.00122491
0.000712194
0.000250649
0.000656156
0.00103795
0.000562604
0.000180204
0.000498767
0.000860737
0.000421055
0.000123666
0.000362207
0.000694618
0.000298
8.04701e-05
0.000248886
0.000541469
0.000196802
4.9318e-05
0.000160103
0.000389316
0.000119443
2.82823e-05
9.53571e-05
0.000255912
6.55559e-05
1.50687e-05
5.2013e-05
0.000152886
3.20188e-05
7.39214e-06
2.56979e-05
8.13608e-05
1.36936e-05
3.29524e-06
1.13517e-05
3.78332e-05
5.03343e-06
1.30727e-06
4.39935e-06
1.50742e-05
1.54829e-06
4.46104e-07
1.44997e-06
5.01018e-06
3.81042e-07
1.23745e-07
3.85186e-07
1.32272e-06
6.90915e-08
2.53859e-08
7.49837e-08
2.52025e-07
8.06326e-09
3.46692e-09
9.20838e-09
2.90431e-08
9.84543e-10
6.39673e-10
1.0892e-09
2.32576e-09
9.08708e-10
5.36288e-10
8.41401e-10
1.35583e-09
)
;

boundaryField
{
    leftWall
    {
        type            compressible::alphatWallFunction;
        Prt             0.85;
        value           uniform 0;
    }
    rightWall
    {
        type            compressible::alphatWallFunction;
        Prt             0.85;
        value           uniform 0;
    }
    leftSides_periodic0
    {
        type            cyclic;
    }
    leftSides_periodic1
    {
        type            cyclic;
    }
    rightSides_periodic0
    {
        type            cyclic;
    }
    rightSides_periodic1
    {
        type            cyclic;
    }
    leftInOut_periodic0
    {
        type            cyclic;
    }
    leftInOut_periodic1
    {
        type            cyclic;
    }
    rightInOut_periodic0
    {
        type            cyclic;
    }
    rightInOut_periodic1
    {
        type            cyclic;
    }
}


// ************************************************************************* //
