0 	0 	0 	0
5.01672e-05 	-2.60907e-05 	-4.93663e-06 	0.0204603
0.000100334 	-5.21815e-05 	-9.87327e-06 	0.0409207
0.000150502 	-7.82722e-05 	-1.48099e-05 	0.061381
0.000200669 	-0.000104363 	-1.97465e-05 	0.0818413
0.000250836 	-0.000130454 	-2.46832e-05 	0.102302
0.000301003 	-0.000156544 	-2.96198e-05 	0.122762
0.000351171 	-0.000180077 	-3.52987e-05 	0.141087
0.000401338 	-0.000193937 	-4.37847e-05 	0.151336
0.000451505 	-0.000207796 	-5.22707e-05 	0.161586
0.000501672 	-0.000221655 	-6.07567e-05 	0.171836
0.000551839 	-0.000235515 	-6.92427e-05 	0.182085
0.000602007 	-0.000249374 	-7.77287e-05 	0.192335
0.000652174 	-0.000263234 	-8.62147e-05 	0.202584
0.000702341 	-0.000277093 	-9.47007e-05 	0.212834
0.000752508 	-0.000287835 	-0.000103394 	0.221669
0.000802676 	-0.000290848 	-0.0001126 	0.226998
0.000852843 	-0.00029386 	-0.000121806 	0.232326
0.00090301 	-0.000296873 	-0.000131012 	0.237654
0.000953177 	-0.000299886 	-0.000140218 	0.242983
0.00100334 	-0.000302898 	-0.000149425 	0.248311
0.00105351 	-0.000305911 	-0.000158631 	0.253639
0.00110368 	-0.000308923 	-0.000167837 	0.258968
0.00115385 	-0.000311936 	-0.000177043 	0.264296
0.00120401 	-0.000314729 	-0.000186199 	0.269519
0.00125418 	-0.000313008 	-0.000194313 	0.272569
0.00130435 	-0.000311287 	-0.000202427 	0.27562
0.00135452 	-0.000309566 	-0.000210541 	0.27867
0.00140468 	-0.000307845 	-0.000218655 	0.281721
0.00145485 	-0.000306124 	-0.000226769 	0.284772
0.00150502 	-0.000304402 	-0.000234883 	0.287822
0.00155518 	-0.000302681 	-0.000242998 	0.290873
0.00160535 	-0.00030096 	-0.000251112 	0.293923
0.00165552 	-0.000299239 	-0.000259226 	0.296974
0.00170569 	-0.000297518 	-0.00026734 	0.300025
0.00175585 	-0.000295533 	-0.000275001 	0.302784
0.00180602 	-0.00029282 	-0.000281417 	0.30474
0.00185619 	-0.000290107 	-0.000287833 	0.306697
0.00190635 	-0.000287395 	-0.000294249 	0.308653
0.00195652 	-0.000284682 	-0.000300665 	0.31061
0.00200669 	-0.000281969 	-0.000307081 	0.312566
0.00205686 	-0.000279257 	-0.000313497 	0.314523
0.00210702 	-0.000276544 	-0.000319913 	0.316479
0.00215719 	-0.000273831 	-0.000326328 	0.318436
0.00220736 	-0.000271119 	-0.000332744 	0.320393
0.00225753 	-0.000268406 	-0.00033916 	0.322349
0.00230769 	-0.000265693 	-0.000345576 	0.324306
0.00235786 	-0.00026298 	-0.000351992 	0.326262
0.00240803 	-0.00026058 	-0.000357151 	0.327779
0.00245819 	-0.000258318 	-0.00036175 	0.329099
0.00250836 	-0.000256057 	-0.000366349 	0.330419
0.00255853 	-0.000253795 	-0.000370948 	0.33174
0.0026087 	-0.000251533 	-0.000375547 	0.33306
0.00265886 	-0.000249272 	-0.000380146 	0.33438
0.00270903 	-0.00024701 	-0.000384745 	0.335701
0.0027592 	-0.000244749 	-0.000389344 	0.337021
0.00280936 	-0.000242487 	-0.000393944 	0.338341
0.00285953 	-0.000240225 	-0.000398543 	0.339662
0.0029097 	-0.000237964 	-0.000403142 	0.340982
0.00295987 	-0.000235702 	-0.000407741 	0.342302
0.00301003 	-0.000233441 	-0.00041234 	0.343623
0.0030602 	-0.000231179 	-0.000416939 	0.344943
0.00311037 	-0.000228934 	-0.000421506 	0.346253
0.00316054 	-0.000227395 	-0.000424709 	0.347137
0.0032107 	-0.000225856 	-0.000427912 	0.34802
0.00326087 	-0.000224317 	-0.000431116 	0.348904
0.00331104 	-0.000222778 	-0.000434319 	0.349787
0.0033612 	-0.000221239 	-0.000437522 	0.350671
0.00341137 	-0.0002197 	-0.000440725 	0.351554
0.00346154 	-0.000218161 	-0.000443928 	0.352438
0.00351171 	-0.000216622 	-0.000447131 	0.353321
0.00356187 	-0.000215084 	-0.000450334 	0.354205
0.00361204 	-0.000213545 	-0.000453537 	0.355088
0.00366221 	-0.000212006 	-0.000456741 	0.355972
0.00371237 	-0.000210467 	-0.000459944 	0.356855
0.00376254 	-0.000208928 	-0.000463147 	0.357739
0.00381271 	-0.000207389 	-0.00046635 	0.358622
0.00386288 	-0.00020585 	-0.000469553 	0.359506
0.00391304 	-0.000204311 	-0.000472756 	0.360389
0.00396321 	-0.000202772 	-0.000475959 	0.361273
0.00401338 	-0.000201684 	-0.000478314 	0.361853
0.00406355 	-0.00020064 	-0.000480586 	0.362403
0.00411371 	-0.000199597 	-0.000482857 	0.362953
0.00416388 	-0.000198553 	-0.000485129 	0.363504
0.00421405 	-0.000197509 	-0.0004874 	0.364054
0.00426421 	-0.000196465 	-0.000489672 	0.364604
0.00431438 	-0.000195421 	-0.000491944 	0.365154
0.00436455 	-0.000194377 	-0.000494215 	0.365705
0.00441472 	-0.000193334 	-0.000496487 	0.366255
0.00446488 	-0.00019229 	-0.000498758 	0.366805
0.00451505 	-0.000191246 	-0.00050103 	0.367355
0.00456522 	-0.000190202 	-0.000503302 	0.367906
0.00461538 	-0.000189158 	-0.000505573 	0.368456
0.00466555 	-0.000188115 	-0.000507845 	0.369006
0.00471572 	-0.000187071 	-0.000510116 	0.369556
0.00476589 	-0.000186027 	-0.000512388 	0.370107
0.00481605 	-0.000184983 	-0.00051466 	0.370657
0.00486622 	-0.000183939 	-0.000516931 	0.371207
0.00491639 	-0.000182896 	-0.000519203 	0.371758
0.00496656 	-0.000181852 	-0.000521474 	0.372308
0.00501672 	-0.000181027 	-0.000523011 	0.372605
0.00506689 	-0.000180215 	-0.000524509 	0.372889
0.00511706 	-0.000179402 	-0.000526006 	0.373173
0.00516722 	-0.000178589 	-0.000527504 	0.373457
0.00521739 	-0.000177777 	-0.000529001 	0.373741
0.00526756 	-0.000176964 	-0.000530499 	0.374025
0.00531773 	-0.000176151 	-0.000531996 	0.374309
0.00536789 	-0.000175339 	-0.000533494 	0.374593
0.00541806 	-0.000174526 	-0.000534991 	0.374877
0.00546823 	-0.000173713 	-0.000536489 	0.375161
0.00551839 	-0.000172901 	-0.000537986 	0.375445
0.00556856 	-0.000172088 	-0.000539484 	0.375729
0.00561873 	-0.000171275 	-0.000540981 	0.376013
0.0056689 	-0.000170463 	-0.000542479 	0.376297
0.00571906 	-0.00016965 	-0.000543976 	0.376581
0.00576923 	-0.000168837 	-0.000545474 	0.376865
0.0058194 	-0.000168025 	-0.000546971 	0.377149
0.00586957 	-0.000167212 	-0.000548469 	0.377433
0.00591973 	-0.000166399 	-0.000549966 	0.377716
0.0059699 	-0.000165587 	-0.000551464 	0.378
0.00602007 	-0.000164774 	-0.000552961 	0.378284
0.00607023 	-0.000163961 	-0.000554459 	0.378568
0.0061204 	-0.000163149 	-0.000555956 	0.378852
0.00617057 	-0.000162435 	-0.000556918 	0.378989
0.00622074 	-0.000161772 	-0.000557608 	0.379052
0.0062709 	-0.00016111 	-0.000558299 	0.379114
0.00632107 	-0.000160447 	-0.000558989 	0.379176
0.00637124 	-0.000159784 	-0.000559679 	0.379239
0.0064214 	-0.000159121 	-0.000560369 	0.379301
0.00647157 	-0.000158458 	-0.000561059 	0.379363
0.00652174 	-0.000157795 	-0.00056175 	0.379426
0.00657191 	-0.000157132 	-0.00056244 	0.379488
0.00662207 	-0.000156469 	-0.00056313 	0.379551
0.00667224 	-0.000155806 	-0.00056382 	0.379613
0.00672241 	-0.000155144 	-0.00056451 	0.379675
0.00677258 	-0.000154481 	-0.000565201 	0.379738
0.00682274 	-0.000153818 	-0.000565891 	0.3798
0.00687291 	-0.000153155 	-0.000566581 	0.379862
0.00692308 	-0.000152492 	-0.000567271 	0.379925
0.00697324 	-0.000151829 	-0.000567961 	0.379987
0.00702341 	-0.000151166 	-0.000568652 	0.38005
0.00707358 	-0.000150503 	-0.000569342 	0.380112
0.00712375 	-0.000149841 	-0.000570032 	0.380174
0.00717391 	-0.000149178 	-0.000570722 	0.380237
0.00722408 	-0.000148515 	-0.000571412 	0.380299
0.00727425 	-0.000147852 	-0.000572103 	0.380361
0.00732441 	-0.000147189 	-0.000572793 	0.380424
0.00737458 	-0.000146526 	-0.000573483 	0.380486
0.00742475 	-0.000145863 	-0.000574173 	0.380548
0.00747492 	-0.0001452 	-0.000574863 	0.380611
0.00752508 	-0.000144596 	-0.000575147 	0.380573
0.00757525 	-0.000144051 	-0.000575024 	0.380436
0.00762542 	-0.000143506 	-0.000574901 	0.380299
0.00767559 	-0.000142961 	-0.000574778 	0.380162
0.00772575 	-0.000142417 	-0.000574655 	0.380024
0.00777592 	-0.000141872 	-0.000574532 	0.379887
0.00782609 	-0.000141327 	-0.000574409 	0.37975
0.00787625 	-0.000140782 	-0.000574286 	0.379613
0.00792642 	-0.000140237 	-0.000574163 	0.379475
0.00797659 	-0.000139692 	-0.00057404 	0.379338
0.00802676 	-0.000139147 	-0.000573917 	0.379201
0.00807692 	-0.000138602 	-0.000573794 	0.379064
0.00812709 	-0.000138057 	-0.000573671 	0.378926
0.00817726 	-0.000137512 	-0.000573548 	0.378789
0.00822742 	-0.000136967 	-0.000573425 	0.378652
0.00827759 	-0.000136422 	-0.000573302 	0.378515
0.00832776 	-0.000135877 	-0.000573179 	0.378378
0.00837793 	-0.000135332 	-0.000573056 	0.37824
0.00842809 	-0.000134787 	-0.000572933 	0.378103
0.00847826 	-0.000134242 	-0.00057281 	0.377966
0.00852843 	-0.000133697 	-0.000572687 	0.377829
0.0085786 	-0.000133152 	-0.000572564 	0.377691
0.00862876 	-0.000132607 	-0.000572441 	0.377554
0.00867893 	-0.000132062 	-0.000572318 	0.377417
0.0087291 	-0.000131517 	-0.000572195 	0.37728
0.00877926 	-0.000130972 	-0.000572072 	0.377142
0.00882943 	-0.000130427 	-0.000571949 	0.377005
0.0088796 	-0.00012994 	-0.000571488 	0.376786
0.00892977 	-0.000129567 	-0.000570362 	0.376406
0.00897993 	-0.000129194 	-0.000569236 	0.376026
0.0090301 	-0.000128821 	-0.000568109 	0.375646
0.00908027 	-0.000128448 	-0.000566983 	0.375265
0.00913043 	-0.000128074 	-0.000565856 	0.374885
0.0091806 	-0.000127701 	-0.00056473 	0.374505
0.00923077 	-0.000127328 	-0.000563603 	0.374125
0.00928094 	-0.000126955 	-0.000562477 	0.373745
0.0093311 	-0.000126582 	-0.00056135 	0.373365
0.00938127 	-0.000126209 	-0.000560224 	0.372985
0.00943144 	-0.000125836 	-0.000559097 	0.372604
0.00948161 	-0.000125463 	-0.000557971 	0.372224
0.00953177 	-0.000125089 	-0.000556845 	0.371844
0.00958194 	-0.000124716 	-0.000555718 	0.371464
0.00963211 	-0.000124343 	-0.000554592 	0.371084
0.00968227 	-0.00012397 	-0.000553465 	0.370704
0.00973244 	-0.000123597 	-0.000552339 	0.370324
0.00978261 	-0.000123224 	-0.000551212 	0.369943
0.00983278 	-0.000122851 	-0.000550086 	0.369563
0.00988294 	-0.000122478 	-0.000548959 	0.369183
0.00993311 	-0.000122104 	-0.000547833 	0.368803
0.00998328 	-0.000121731 	-0.000546707 	0.368423
0.0100334 	-0.000121378 	-0.000545523 	0.368028
0.0100836 	-0.000121394 	-0.000543268 	0.36736
0.0101338 	-0.000121411 	-0.000541013 	0.366693
0.0101839 	-0.000121427 	-0.000538758 	0.366025
0.0102341 	-0.000121443 	-0.000536504 	0.365358
0.0102843 	-0.000121459 	-0.000534249 	0.364691
0.0103344 	-0.000121476 	-0.000531994 	0.364023
0.0103846 	-0.000121492 	-0.000529739 	0.363356
0.0104348 	-0.000121508 	-0.000527484 	0.362688
0.0104849 	-0.000121524 	-0.00052523 	0.362021
0.0105351 	-0.000121541 	-0.000522975 	0.361353
0.0105853 	-0.000121557 	-0.00052072 	0.360686
0.0106355 	-0.000121573 	-0.000518465 	0.360018
0.0106856 	-0.000121589 	-0.00051621 	0.359351
0.0107358 	-0.000121606 	-0.000513956 	0.358683
0.010786 	-0.000121622 	-0.000511701 	0.358016
0.0108361 	-0.000121638 	-0.000509446 	0.357348
0.0108863 	-0.000121654 	-0.000507191 	0.356681
0.0109365 	-0.000121671 	-0.000504936 	0.356013
0.0109866 	-0.000121687 	-0.000502681 	0.355346
0.0110368 	-0.000121767 	-0.000500285 	0.354645
0.011087 	-0.000122501 	-0.00049645 	0.353605
0.0111371 	-0.000123234 	-0.000492614 	0.352565
0.0111873 	-0.000123968 	-0.000488778 	0.351526
0.0112375 	-0.000124701 	-0.000484942 	0.350486
0.0112876 	-0.000125434 	-0.000481107 	0.349446
0.0113378 	-0.000126168 	-0.000477271 	0.348407
0.011388 	-0.000126901 	-0.000473435 	0.347367
0.0114381 	-0.000127635 	-0.000469599 	0.346327
0.0114883 	-0.000128368 	-0.000465764 	0.345288
0.0115385 	-0.000129102 	-0.000461928 	0.344248
0.0115886 	-0.000129835 	-0.000458092 	0.343208
0.0116388 	-0.000130569 	-0.000454256 	0.342168
0.011689 	-0.000131302 	-0.000450421 	0.341129
0.0117391 	-0.000132035 	-0.000446585 	0.340089
0.0117893 	-0.000132769 	-0.000442749 	0.339049
0.0118395 	-0.000133502 	-0.000438913 	0.33801
0.0118896 	-0.000134236 	-0.000435078 	0.33697
0.0119398 	-0.000135993 	-0.0004288 	0.335386
0.01199 	-0.000137774 	-0.000422465 	0.333789
0.0120401 	-0.000139555 	-0.000416131 	0.332192
0.0120903 	-0.000141335 	-0.000409797 	0.330595
0.0121405 	-0.000143116 	-0.000403463 	0.328998
0.0121906 	-0.000144897 	-0.000397128 	0.327401
0.0122408 	-0.000146678 	-0.000390794 	0.325804
0.012291 	-0.000148459 	-0.00038446 	0.324207
0.0123411 	-0.00015024 	-0.000378126 	0.32261
0.0123913 	-0.00015202 	-0.000371791 	0.321013
0.0124415 	-0.000153801 	-0.000365457 	0.319416
0.0124916 	-0.000155582 	-0.000359123 	0.317819
0.0125418 	-0.000157363 	-0.000352789 	0.316222
0.012592 	-0.000159144 	-0.000346454 	0.314625
0.0126421 	-0.000161217 	-0.000339178 	0.31274
0.0126923 	-0.000163945 	-0.000329788 	0.310207
0.0127425 	-0.000166673 	-0.000320398 	0.307674
0.0127926 	-0.0001694 	-0.000311008 	0.305141
0.0128428 	-0.000172128 	-0.000301618 	0.302608
0.012893 	-0.000174856 	-0.000292228 	0.300075
0.0129431 	-0.000177584 	-0.000282839 	0.297543
0.0129933 	-0.000180312 	-0.000273449 	0.29501
0.0130435 	-0.00018304 	-0.000264059 	0.292477
0.0130936 	-0.000185768 	-0.000254669 	0.289944
0.0131438 	-0.000188496 	-0.000245279 	0.287411
0.013194 	-0.000191224 	-0.000235889 	0.284879
0.0132441 	-0.000193952 	-0.000226499 	0.282346
0.0132943 	-0.000196275 	-0.000215603 	0.278581
0.0133445 	-0.000198451 	-0.000204159 	0.274369
0.0133946 	-0.000200627 	-0.000192714 	0.270157
0.0134448 	-0.000202802 	-0.00018127 	0.265945
0.013495 	-0.000204978 	-0.000169826 	0.261733
0.0135452 	-0.000207154 	-0.000158382 	0.257521
0.0135953 	-0.00020933 	-0.000146938 	0.253309
0.0136455 	-0.000211506 	-0.000135494 	0.249097
0.0136957 	-0.000213682 	-0.000124049 	0.244885
0.0137458 	-0.000215857 	-0.000112605 	0.240673
0.013796 	-0.000218033 	-0.000101161 	0.236461
0.0138462 	-0.000215458 	-9.15164e-05 	0.228978
0.0138963 	-0.000212651 	-8.19593e-05 	0.221334
0.0139465 	-0.000209844 	-7.24022e-05 	0.213691
0.0139967 	-0.000207037 	-6.28451e-05 	0.206048
0.0140468 	-0.00020423 	-5.32881e-05 	0.198405
0.014097 	-0.000201423 	-4.3731e-05 	0.190762
0.0141472 	-0.000198616 	-3.41739e-05 	0.183119
0.0141973 	-0.000195809 	-2.46168e-05 	0.175476
0.0142475 	-0.000193003 	-1.50597e-05 	0.167833
0.0142977 	-0.000183858 	-1.02211e-05 	0.157352
0.0143478 	-0.000172157 	-7.28542e-06 	0.145727
0.014398 	-0.000160456 	-4.34976e-06 	0.134102
0.0144482 	-0.000148755 	-1.41409e-06 	0.122476
0.0144983 	-0.000137054 	1.52158e-06 	0.110851
0.0145485 	-0.000125353 	4.45725e-06 	0.099226
0.0145987 	-0.000113652 	7.39291e-06 	0.0876008
0.0146488 	-0.000101952 	1.03286e-05 	0.0759756
0.014699 	-8.79162e-05 	9.66817e-06 	0.0649794
0.0147492 	-7.32635e-05 	8.05681e-06 	0.0541495
0.0147993 	-5.86108e-05 	6.44545e-06 	0.0433196
0.0148495 	-4.39581e-05 	4.83409e-06 	0.0324897
0.0148997 	-2.93054e-05 	3.22272e-06 	0.0216598
0.0149498 	-1.46527e-05 	1.61136e-06 	0.0108299
0.015 	0 	0 	0
