/*--------------------------------*- C++ -*----------------------------------*\
| =========                 |                                                 |
| \\      /  F ield         | OpenFOAM: The Open Source CFD Toolbox           |
|  \\    /   O peration     | Version:  v1912                                 |
|   \\  /    A nd           | Website:  www.openfoam.com                      |
|    \\/     M anipulation  |                                                 |
\*---------------------------------------------------------------------------*/
FoamFile
{
    version     2.0;
    format      ascii;
    class       volScalarField;
    location    "10.8";
    object      nut;
}
// * * * * * * * * * * * * * * * * * * * * * * * * * * * * * * * * * * * * * //

dimensions      [0 2 -1 0 0 0 0];


internalField   nonuniform List<scalar> 
34128
(
4.26925e-12
4.17336e-12
4.27769e-12
4.32609e-12
4.32281e-12
4.33502e-12
4.37241e-12
4.41904e-12
4.45994e-12
4.45447e-12
4.32826e-12
4.20735e-12
4.19557e-12
4.1009e-12
4.20279e-12
4.2573e-12
4.25656e-12
4.26816e-12
4.29931e-12
4.33927e-12
4.37558e-12
4.36502e-12
4.24342e-12
4.12835e-12
7.49073e-12
7.32046e-12
7.48634e-12
7.70486e-12
7.7449e-12
7.75778e-12
7.7126e-12
7.67913e-12
7.67594e-12
7.56438e-12
7.39302e-12
7.25574e-12
3.13487e-11
3.06659e-11
3.12798e-11
3.25834e-11
3.28766e-11
3.2901e-11
3.23787e-11
3.18916e-11
3.16469e-11
3.08546e-11
3.02928e-11
2.99575e-11
1.22098e-10
1.19629e-10
1.21807e-10
1.27102e-10
1.28291e-10
1.28353e-10
1.2607e-10
1.23887e-10
1.22691e-10
1.19252e-10
1.17237e-10
1.16245e-10
3.65656e-10
3.58933e-10
3.64787e-10
3.80347e-10
3.83755e-10
3.83908e-10
3.77026e-10
3.7028e-10
3.66305e-10
3.55533e-10
3.49868e-10
3.47647e-10
8.79833e-10
8.65395e-10
8.77699e-10
9.13719e-10
9.21377e-10
9.21709e-10
9.0547e-10
8.88976e-10
8.784e-10
8.51624e-10
8.39117e-10
8.35937e-10
1.78482e-09
1.75904e-09
1.78027e-09
1.84981e-09
1.8641e-09
1.86471e-09
1.8329e-09
1.79902e-09
1.77511e-09
1.71923e-09
1.69659e-09
1.69525e-09
3.16491e-09
3.125e-09
3.15655e-09
3.2731e-09
3.29558e-09
3.2965e-09
3.24293e-09
3.18255e-09
3.13532e-09
3.03355e-09
2.99838e-09
3.00559e-09
5.04191e-09
4.98645e-09
5.02858e-09
5.20343e-09
5.2344e-09
5.23545e-09
5.15617e-09
5.06044e-09
4.97654e-09
4.80985e-09
4.76086e-09
4.78721e-09
7.37204e-09
7.30085e-09
7.35341e-09
7.59381e-09
7.63204e-09
7.63286e-09
7.528e-09
7.3905e-09
7.25412e-09
7.00292e-09
6.93895e-09
6.99711e-09
1.00283e-08
9.9264e-09
1.00138e-08
1.03332e-08
1.03899e-08
1.03785e-08
1.02586e-08
1.00829e-08
9.8569e-09
9.50165e-09
9.427e-09
9.53812e-09
1.24131e-08
1.22941e-08
1.23952e-08
1.27751e-08
1.28467e-08
1.28353e-08
1.27019e-08
1.24948e-08
1.21969e-08
1.17421e-08
1.16399e-08
1.17877e-08
1.49156e-08
1.47815e-08
1.48918e-08
1.5329e-08
1.54163e-08
1.54107e-08
1.52674e-08
1.50242e-08
1.46514e-08
1.40869e-08
1.3951e-08
1.41386e-08
1.75054e-08
1.73593e-08
1.74733e-08
1.79626e-08
1.80671e-08
1.80725e-08
1.79245e-08
1.76449e-08
1.71904e-08
1.65064e-08
1.63305e-08
1.65601e-08
2.01554e-08
2.00019e-08
2.01139e-08
2.06474e-08
2.07698e-08
2.07923e-08
2.06468e-08
2.03317e-08
1.97882e-08
1.89749e-08
1.8752e-08
1.90251e-08
2.28454e-08
2.26906e-08
2.27946e-08
2.33622e-08
2.35023e-08
2.35488e-08
2.34147e-08
2.30657e-08
2.24264e-08
2.1474e-08
2.11955e-08
2.15125e-08
2.55635e-08
2.54153e-08
2.55052e-08
2.60941e-08
2.62509e-08
2.63299e-08
2.62168e-08
2.58354e-08
2.50944e-08
2.39941e-08
2.36491e-08
2.40092e-08
2.83078e-08
2.81752e-08
2.82446e-08
2.88398e-08
2.90112e-08
2.91329e-08
2.90503e-08
2.8637e-08
2.77907e-08
2.65349e-08
2.61108e-08
2.65107e-08
3.10882e-08
3.09812e-08
3.10226e-08
3.16061e-08
3.17884e-08
3.19655e-08
3.19224e-08
3.14761e-08
3.05242e-08
2.91063e-08
2.85897e-08
2.90233e-08
3.39262e-08
3.38566e-08
3.38612e-08
3.44112e-08
3.45978e-08
3.48453e-08
3.48508e-08
3.43689e-08
3.33142e-08
3.17291e-08
3.11057e-08
3.1564e-08
3.68527e-08
3.68344e-08
3.67914e-08
3.72824e-08
3.74627e-08
3.77978e-08
3.78627e-08
3.73415e-08
3.61892e-08
3.44337e-08
3.36884e-08
3.41593e-08
3.99034e-08
3.99514e-08
3.98488e-08
4.02519e-08
4.0411e-08
4.08524e-08
4.09894e-08
4.04257e-08
3.91828e-08
3.72553e-08
3.63718e-08
3.68415e-08
4.3113e-08
4.32427e-08
4.3068e-08
4.33515e-08
4.34707e-08
4.40385e-08
4.42632e-08
4.36538e-08
4.23297e-08
4.02302e-08
3.91911e-08
3.96438e-08
4.65143e-08
4.67402e-08
4.6481e-08
4.6611e-08
4.66682e-08
4.7384e-08
4.77146e-08
4.7057e-08
4.56637e-08
4.3395e-08
4.21805e-08
4.25981e-08
5.01421e-08
5.04775e-08
5.01216e-08
5.00603e-08
5.00291e-08
5.09166e-08
5.13752e-08
5.06673e-08
4.92215e-08
4.6789e-08
4.53771e-08
4.57377e-08
5.40432e-08
5.45012e-08
5.40349e-08
5.37376e-08
5.35835e-08
5.46696e-08
5.5284e-08
5.4525e-08
5.30507e-08
5.0464e-08
4.88283e-08
4.91049e-08
5.82899e-08
5.88841e-08
5.82891e-08
5.76996e-08
5.73747e-08
5.86914e-08
5.94991e-08
5.869e-08
5.72227e-08
5.44965e-08
5.26031e-08
5.27613e-08
6.2994e-08
6.37389e-08
6.2988e-08
6.2034e-08
6.14711e-08
6.30578e-08
6.41104e-08
6.32549e-08
6.18465e-08
5.90031e-08
5.68052e-08
5.68e-08
6.83255e-08
6.92353e-08
6.82866e-08
6.68777e-08
6.59826e-08
6.78875e-08
6.92556e-08
6.83621e-08
6.70864e-08
6.41559e-08
6.15866e-08
6.13596e-08
7.45138e-08
7.55912e-08
7.43891e-08
7.24252e-08
7.10869e-08
7.33664e-08
7.51394e-08
7.42206e-08
7.31774e-08
7.01997e-08
6.71644e-08
6.66405e-08
8.18027e-08
8.30286e-08
8.15069e-08
7.88861e-08
7.69986e-08
7.9719e-08
8.19927e-08
8.10651e-08
8.03907e-08
7.74308e-08
7.38041e-08
7.28762e-08
9.05118e-08
9.18491e-08
8.99162e-08
8.65209e-08
8.39593e-08
8.72123e-08
9.01083e-08
8.91906e-08
8.90727e-08
8.62127e-08
8.18051e-08
8.03202e-08
1.01145e-07
1.02538e-07
1.00062e-07
9.57517e-08
9.23723e-08
9.62885e-08
9.99584e-08
9.9072e-08
9.97768e-08
9.71268e-08
9.16509e-08
8.93821e-08
1.14465e-07
1.15825e-07
1.12609e-07
1.07205e-07
1.02845e-07
1.07613e-07
1.12259e-07
1.11431e-07
1.13351e-07
1.11064e-07
1.04071e-07
1.00674e-07
1.31625e-07
1.32811e-07
1.28546e-07
1.21816e-07
1.16294e-07
1.22204e-07
1.28109e-07
1.27368e-07
1.311e-07
1.29396e-07
1.20169e-07
1.15115e-07
1.54392e-07
1.55182e-07
1.49373e-07
1.4102e-07
1.34135e-07
1.41653e-07
1.4922e-07
1.48598e-07
1.55075e-07
1.54262e-07
1.41632e-07
1.34104e-07
1.85592e-07
1.85657e-07
1.77463e-07
1.67056e-07
1.58594e-07
1.68515e-07
1.7838e-07
1.77895e-07
1.88563e-07
1.89117e-07
1.71111e-07
1.59842e-07
2.29512e-07
2.28394e-07
2.16319e-07
2.00412e-07
1.89872e-07
2.04048e-07
2.19812e-07
2.18973e-07
2.33531e-07
2.39196e-07
2.12676e-07
1.95666e-07
2.76775e-07
2.72686e-07
2.54683e-07
2.34669e-07
2.21818e-07
2.39471e-07
2.60184e-07
2.58468e-07
2.79721e-07
2.93137e-07
2.64571e-07
2.37423e-07
3.34819e-07
3.28103e-07
3.05487e-07
2.80143e-07
2.64694e-07
2.87089e-07
3.13181e-07
3.11539e-07
3.41281e-07
3.60651e-07
3.23744e-07
2.86722e-07
4.07127e-07
3.96664e-07
3.69614e-07
3.38652e-07
3.21441e-07
3.48954e-07
3.80764e-07
3.79206e-07
4.18305e-07
4.45107e-07
3.98992e-07
3.50489e-07
4.95275e-07
4.79762e-07
4.48211e-07
4.10753e-07
3.92603e-07
4.25561e-07
4.63856e-07
4.6248e-07
5.12881e-07
5.48904e-07
4.92041e-07
4.29678e-07
6.01404e-07
5.7973e-07
5.43762e-07
4.98407e-07
4.79932e-07
5.19113e-07
5.64905e-07
5.63781e-07
6.27155e-07
6.73941e-07
6.05339e-07
5.26503e-07
7.27005e-07
6.98544e-07
6.58267e-07
6.0368e-07
5.85549e-07
6.3156e-07
6.85825e-07
6.84975e-07
7.62254e-07
8.20623e-07
7.40304e-07
6.43025e-07
8.72617e-07
8.37126e-07
7.92529e-07
7.27931e-07
7.10723e-07
7.63885e-07
8.27478e-07
8.26834e-07
9.17946e-07
9.87352e-07
8.96641e-07
7.80219e-07
1.03839e-06
9.94476e-07
9.457e-07
8.71286e-07
8.55367e-07
9.1565e-07
9.89458e-07
9.88567e-07
1.09301e-06
1.17053e-06
1.07186e-06
9.37396e-07
1.22549e-06
1.16755e-06
1.11499e-06
1.03217e-06
1.01766e-06
1.0847e-06
1.17162e-06
1.16761e-06
1.28781e-06
1.36578e-06
1.2612e-06
1.1118e-06
1.42474e-06
1.35155e-06
1.29558e-06
1.20708e-06
1.19398e-06
1.26717e-06
1.37019e-06
1.36023e-06
1.49253e-06
1.56863e-06
1.4581e-06
1.29855e-06
1.62687e-06
1.5405e-06
1.48184e-06
1.39087e-06
1.3793e-06
1.4578e-06
1.57607e-06
1.56465e-06
1.69589e-06
1.76952e-06
1.65512e-06
1.49113e-06
1.82332e-06
1.72813e-06
1.66726e-06
1.57746e-06
1.56799e-06
1.65072e-06
1.78038e-06
1.77087e-06
1.89038e-06
1.95968e-06
1.845e-06
1.68218e-06
2.00795e-06
1.90893e-06
1.84618e-06
1.76098e-06
1.75444e-06
1.84034e-06
1.97434e-06
1.96865e-06
2.07133e-06
2.13051e-06
2.02113e-06
1.86459e-06
2.17776e-06
2.07854e-06
2.01403e-06
1.93602e-06
1.93291e-06
2.02177e-06
2.15229e-06
2.15049e-06
2.23476e-06
2.07312e-06
2.17748e-06
2.03246e-06
2.33039e-06
2.23325e-06
2.16695e-06
2.09727e-06
1.99288e-06
2.19261e-06
2.31085e-06
2.31081e-06
2.37682e-06
2.03008e-06
2.221e-06
2.18122e-06
2.46317e-06
2.17627e-06
2.14695e-06
2.05085e-06
1.96236e-06
2.26822e-06
2.44828e-06
2.44787e-06
2.495e-06
2.02464e-06
2.09917e-06
2.18576e-06
2.5029e-06
2.06552e-06
2.01751e-06
1.97895e-06
1.96824e-06
2.32211e-06
2.56386e-06
2.56197e-06
2.59063e-06
2.0477e-06
1.99176e-06
2.014e-06
2.43576e-06
2.00894e-06
1.93205e-06
1.94056e-06
2.0108e-06
2.43934e-06
2.65768e-06
2.65433e-06
2.64847e-06
2.09586e-06
1.90508e-06
1.8697e-06
2.40168e-06
2.00477e-06
1.89454e-06
1.93392e-06
2.08341e-06
2.61543e-06
2.73013e-06
2.72631e-06
2.72015e-06
2.16657e-06
1.83452e-06
1.75776e-06
2.40621e-06
2.04266e-06
1.89523e-06
1.9535e-06
2.18334e-06
2.75227e-06
2.7818e-06
2.77788e-06
2.75941e-06
2.25709e-06
1.78041e-06
1.66846e-06
2.44093e-06
2.1152e-06
1.92736e-06
1.99602e-06
2.3098e-06
2.80201e-06
2.82044e-06
2.81494e-06
2.78964e-06
2.36493e-06
1.74428e-06
1.59854e-06
2.49993e-06
2.21803e-06
1.98782e-06
2.06008e-06
2.46312e-06
2.83959e-06
2.84949e-06
2.84287e-06
2.81323e-06
2.48751e-06
1.7288e-06
1.54679e-06
2.58036e-06
2.3491e-06
2.0757e-06
2.14577e-06
2.64636e-06
2.86805e-06
2.87127e-06
2.86353e-06
2.83183e-06
2.6179e-06
1.73813e-06
1.51365e-06
2.68183e-06
2.50785e-06
2.19115e-06
2.25484e-06
2.85342e-06
2.88878e-06
2.88753e-06
2.87853e-06
2.84671e-06
2.7328e-06
1.77802e-06
1.50088e-06
2.80751e-06
2.69634e-06
2.33478e-06
2.39066e-06
2.87994e-06
2.90393e-06
2.89974e-06
2.88919e-06
2.85884e-06
2.79258e-06
1.85625e-06
1.51129e-06
2.95577e-06
2.91064e-06
2.50828e-06
2.55885e-06
2.90174e-06
2.91531e-06
2.90899e-06
2.89653e-06
2.86888e-06
2.80448e-06
1.98302e-06
1.54854e-06
2.97831e-06
2.9917e-06
2.71519e-06
2.76726e-06
2.9195e-06
2.9238e-06
2.91608e-06
2.90137e-06
2.87732e-06
2.81575e-06
2.16928e-06
1.61683e-06
2.98416e-06
3.0038e-06
2.94381e-06
2.89022e-06
2.93347e-06
2.93016e-06
2.92159e-06
2.90429e-06
2.88445e-06
2.82649e-06
2.42109e-06
1.72037e-06
2.98794e-06
3.01352e-06
2.95881e-06
2.9062e-06
2.94397e-06
2.93513e-06
2.9259e-06
2.90572e-06
2.89044e-06
2.83666e-06
2.70576e-06
1.86216e-06
2.99013e-06
3.02119e-06
2.97098e-06
2.91948e-06
2.95135e-06
2.93896e-06
2.92922e-06
2.90594e-06
2.89539e-06
2.84614e-06
2.78324e-06
2.04147e-06
2.99074e-06
3.02699e-06
2.98018e-06
2.92973e-06
2.95572e-06
2.94197e-06
2.9317e-06
2.9052e-06
2.89936e-06
2.85464e-06
2.79469e-06
2.25241e-06
2.98998e-06
3.031e-06
2.98642e-06
2.93674e-06
2.95631e-06
2.94438e-06
2.93342e-06
2.90357e-06
2.9024e-06
2.8624e-06
2.8051e-06
2.484e-06
2.98809e-06
3.03323e-06
2.99035e-06
2.94035e-06
2.95372e-06
2.94632e-06
2.93448e-06
2.901e-06
2.90457e-06
2.86935e-06
2.81441e-06
2.71338e-06
2.98531e-06
3.03372e-06
2.99101e-06
2.94059e-06
2.94998e-06
2.94783e-06
2.93496e-06
2.89782e-06
2.90595e-06
2.87535e-06
2.82268e-06
2.80848e-06
2.98187e-06
3.0325e-06
2.98821e-06
2.93794e-06
2.94651e-06
2.94888e-06
2.93501e-06
2.89426e-06
2.90674e-06
2.88037e-06
2.83005e-06
2.81916e-06
2.97802e-06
3.02964e-06
2.98256e-06
2.93349e-06
2.94333e-06
2.94929e-06
2.93475e-06
2.88986e-06
2.90715e-06
2.88445e-06
2.83678e-06
2.82928e-06
2.97401e-06
3.02527e-06
2.97462e-06
2.92791e-06
2.93992e-06
2.94897e-06
2.93453e-06
2.88719e-06
2.90731e-06
2.88769e-06
2.84311e-06
2.83885e-06
2.97006e-06
3.01946e-06
2.96473e-06
2.92166e-06
2.9357e-06
2.94793e-06
2.93466e-06
2.88641e-06
2.90761e-06
2.89019e-06
2.84925e-06
2.84789e-06
2.96637e-06
3.01239e-06
2.9538e-06
2.91467e-06
2.9306e-06
2.94625e-06
2.93527e-06
2.88754e-06
2.90804e-06
2.892e-06
2.85523e-06
2.71242e-06
2.96284e-06
3.0042e-06
2.94205e-06
2.90706e-06
2.92453e-06
2.94398e-06
2.93626e-06
2.89042e-06
2.90847e-06
2.89305e-06
2.86086e-06
2.54756e-06
4.56892e-12
4.47869e-12
4.56773e-12
4.60865e-12
4.60166e-12
4.61733e-12
4.64917e-12
4.69242e-12
4.73846e-12
4.73652e-12
4.61892e-12
4.50164e-12
4.38425e-12
4.29932e-12
4.38005e-12
4.41401e-12
4.40001e-12
4.41414e-12
4.44732e-12
4.49166e-12
4.53927e-12
4.5408e-12
4.43424e-12
4.32438e-12
5.98449e-12
5.90552e-12
5.92707e-12
5.87123e-12
5.71109e-12
5.71208e-12
5.8065e-12
5.91952e-12
6.04834e-12
6.11211e-12
6.08306e-12
5.98361e-12
1.75733e-11
1.76006e-11
1.71097e-11
1.63835e-11
1.51994e-11
1.51099e-11
1.56286e-11
1.62196e-11
1.69237e-11
1.74377e-11
1.80492e-11
1.81308e-11
6.13911e-11
6.19431e-11
5.94614e-11
5.61408e-11
5.10485e-11
5.06029e-11
5.27462e-11
5.5139e-11
5.8009e-11
6.02153e-11
6.32673e-11
6.41212e-11
1.77539e-10
1.79896e-10
1.71916e-10
1.61398e-10
1.45648e-10
1.44186e-10
1.50777e-10
1.57986e-10
1.66621e-10
1.73368e-10
1.8308e-10
1.86332e-10
4.19557e-10
4.26596e-10
4.06759e-10
3.80466e-10
3.41749e-10
3.37973e-10
3.54231e-10
3.71584e-10
3.92254e-10
4.08648e-10
4.32702e-10
4.41798e-10
8.39983e-10
8.56746e-10
8.15893e-10
7.60749e-10
6.80639e-10
6.72428e-10
7.06371e-10
7.4164e-10
7.83208e-10
8.16793e-10
8.66545e-10
8.87311e-10
1.47238e-09
1.50606e-09
1.43361e-09
1.33297e-09
1.18813e-09
1.17251e-09
1.23462e-09
1.29746e-09
1.37044e-09
1.43072e-09
1.52009e-09
1.56052e-09
2.32049e-09
2.37968e-09
2.26593e-09
2.10139e-09
1.86612e-09
1.83942e-09
1.94199e-09
2.04315e-09
2.15841e-09
2.25585e-09
2.39898e-09
2.468e-09
3.35826e-09
3.45186e-09
3.29028e-09
3.04409e-09
2.69352e-09
2.65176e-09
2.80771e-09
2.95803e-09
3.12564e-09
3.27063e-09
3.47911e-09
3.58468e-09
4.49556e-09
4.62275e-09
4.42862e-09
4.09802e-09
3.62501e-09
3.56222e-09
3.78076e-09
3.99021e-09
4.20808e-09
4.40585e-09
4.68663e-09
4.83414e-09
5.52351e-09
5.69057e-09
5.46177e-09
5.04512e-09
4.44941e-09
4.3688e-09
4.64804e-09
4.91167e-09
5.18789e-09
5.44017e-09
5.77838e-09
5.9583e-09
6.58824e-09
6.80075e-09
6.53978e-09
6.03013e-09
5.30205e-09
5.20213e-09
5.54764e-09
5.86919e-09
6.21101e-09
6.52497e-09
6.91928e-09
7.13031e-09
7.67446e-09
7.93756e-09
7.64834e-09
7.03984e-09
6.17143e-09
6.05089e-09
6.46747e-09
6.85006e-09
7.26479e-09
7.64794e-09
8.0954e-09
8.33476e-09
8.76939e-09
9.08744e-09
8.77531e-09
8.0634e-09
7.04869e-09
6.90646e-09
7.39787e-09
7.84385e-09
8.33916e-09
8.79957e-09
9.29542e-09
9.55856e-09
9.86402e-09
1.02401e-08
9.91171e-09
9.09324e-09
7.92848e-09
7.76388e-09
8.33243e-09
8.84323e-09
9.42762e-09
9.97429e-09
1.05119e-08
1.07922e-08
1.09538e-08
1.13895e-08
1.10524e-08
1.01257e-08
8.80942e-09
8.62222e-09
9.26851e-09
9.84443e-09
1.05277e-08
1.1171e-08
1.17422e-08
1.20304e-08
1.20395e-08
1.25345e-08
1.21971e-08
1.11618e-08
9.69443e-09
9.48487e-09
1.02077e-08
1.0848e-08
1.16416e-08
1.23933e-08
1.2989e-08
1.32737e-08
1.31275e-08
1.36805e-08
1.33513e-08
1.2208e-08
1.05912e-08
1.03598e-08
1.11563e-08
1.18596e-08
1.27765e-08
1.36502e-08
1.42605e-08
1.45285e-08
1.42314e-08
1.48392e-08
1.45267e-08
1.3277e-08
1.15129e-08
1.12602e-08
1.21264e-08
1.28908e-08
1.39451e-08
1.49561e-08
1.55714e-08
1.58084e-08
1.53706e-08
1.60283e-08
1.57409e-08
1.43875e-08
1.24782e-08
1.22041e-08
1.31352e-08
1.39591e-08
1.51661e-08
1.63308e-08
1.69428e-08
1.71338e-08
1.65699e-08
1.72706e-08
1.7017e-08
1.55636e-08
1.35113e-08
1.3215e-08
1.4206e-08
1.50874e-08
1.64637e-08
1.77997e-08
1.84009e-08
1.85303e-08
1.78595e-08
1.8594e-08
1.83834e-08
1.68351e-08
1.46415e-08
1.43217e-08
1.53669e-08
1.63044e-08
1.78677e-08
1.93937e-08
1.99764e-08
2.00279e-08
1.92779e-08
2.00342e-08
1.98758e-08
1.82385e-08
1.59042e-08
1.5559e-08
1.66533e-08
1.76458e-08
1.94157e-08
2.11505e-08
2.17063e-08
2.16626e-08
2.08766e-08
2.16393e-08
2.15417e-08
1.98213e-08
1.73435e-08
1.69714e-08
1.81111e-08
1.91584e-08
2.11574e-08
2.31208e-08
2.36386e-08
2.34802e-08
2.27282e-08
2.34779e-08
2.34474e-08
2.16479e-08
1.90181e-08
1.86183e-08
1.98032e-08
2.09068e-08
2.31635e-08
2.53763e-08
2.58395e-08
2.55438e-08
2.49368e-08
2.56476e-08
2.56865e-08
2.38079e-08
2.10089e-08
2.05825e-08
2.18183e-08
2.29832e-08
2.55356e-08
2.80225e-08
2.84051e-08
2.79433e-08
2.76508e-08
2.82867e-08
2.83904e-08
2.64269e-08
2.34305e-08
2.29813e-08
2.42827e-08
2.55191e-08
2.84204e-08
3.12134e-08
3.14747e-08
3.08078e-08
3.10785e-08
3.15883e-08
3.17413e-08
2.96799e-08
2.64461e-08
2.5982e-08
2.73749e-08
2.87001e-08
3.20272e-08
3.51708e-08
3.52483e-08
3.4321e-08
3.5511e-08
3.582e-08
3.59899e-08
3.38104e-08
3.02887e-08
2.98226e-08
3.13459e-08
3.27871e-08
3.66506e-08
4.02081e-08
4.00082e-08
3.87406e-08
4.13546e-08
4.13495e-08
4.14794e-08
3.91554e-08
3.52905e-08
3.48411e-08
3.65479e-08
3.81447e-08
4.27049e-08
4.67668e-08
4.61497e-08
4.4426e-08
4.90301e-08
4.85319e-08
4.85217e-08
4.60194e-08
4.17551e-08
4.13526e-08
4.33162e-08
4.51279e-08
5.06297e-08
5.53352e-08
5.40782e-08
5.1719e-08
5.92255e-08
5.79502e-08
5.76297e-08
5.49115e-08
5.02066e-08
4.98946e-08
5.2204e-08
5.43196e-08
6.11458e-08
6.67155e-08
6.44623e-08
6.11886e-08
7.30291e-08
7.05203e-08
6.96003e-08
6.66292e-08
6.14814e-08
6.13198e-08
6.40765e-08
6.66273e-08
7.53956e-08
8.21951e-08
7.83598e-08
7.37273e-08
9.21738e-08
8.76586e-08
8.56548e-08
8.23987e-08
7.69058e-08
7.69817e-08
8.02863e-08
8.34673e-08
9.51984e-08
1.03867e-07
9.74585e-08
9.07366e-08
1.19315e-07
1.09469e-07
1.0651e-07
1.02622e-07
9.79073e-08
9.8771e-08
1.02896e-07
1.06974e-07
1.22815e-07
1.35033e-07
1.24401e-07
1.14358e-07
1.4879e-07
1.34354e-07
1.29738e-07
1.25587e-07
1.212e-07
1.22819e-07
1.29478e-07
1.33351e-07
1.53961e-07
1.70277e-07
1.56843e-07
1.41835e-07
1.88352e-07
1.6714e-07
1.59986e-07
1.55699e-07
1.52097e-07
1.54802e-07
1.62734e-07
1.68182e-07
1.95815e-07
2.16921e-07
1.97626e-07
1.76754e-07
2.41714e-07
2.1058e-07
1.99645e-07
1.95483e-07
1.93355e-07
1.97619e-07
2.07356e-07
2.14731e-07
2.52119e-07
2.79804e-07
2.52463e-07
2.23378e-07
3.12333e-07
2.68162e-07
2.51773e-07
2.48163e-07
2.48471e-07
2.54923e-07
2.67105e-07
2.76961e-07
3.2635e-07
3.61793e-07
3.25043e-07
2.85674e-07
4.0298e-07
3.4169e-07
3.18444e-07
3.1623e-07
3.1999e-07
3.29193e-07
3.44393e-07
3.57194e-07
4.21556e-07
4.66442e-07
4.17987e-07
3.65545e-07
5.17525e-07
4.33921e-07
4.01607e-07
4.01849e-07
4.10394e-07
4.23205e-07
4.42367e-07
4.58823e-07
5.41524e-07
5.97017e-07
5.349e-07
4.65976e-07
6.58951e-07
5.47351e-07
5.03754e-07
5.07834e-07
5.22604e-07
5.39867e-07
5.64306e-07
5.85115e-07
6.88744e-07
7.54803e-07
6.78131e-07
5.89657e-07
8.28161e-07
6.83157e-07
6.26563e-07
6.36021e-07
6.58347e-07
6.8072e-07
7.12209e-07
7.37938e-07
8.63152e-07
9.3791e-07
8.47602e-07
7.37674e-07
1.02242e-06
8.4059e-07
7.70343e-07
7.86518e-07
8.17368e-07
8.45155e-07
8.85677e-07
9.16812e-07
1.06073e-06
1.14053e-06
1.03994e-06
9.08702e-07
1.23288e-06
1.01673e-06
9.33615e-07
9.57175e-07
9.96932e-07
1.02999e-06
1.08052e-06
1.11807e-06
1.27175e-06
1.35296e-06
1.24838e-06
1.09861e-06
1.44325e-06
1.2067e-06
1.11296e-06
1.14351e-06
1.19184e-06
1.22966e-06
1.28595e-06
1.33428e-06
1.47797e-06
1.56187e-06
1.46364e-06
1.30075e-06
1.65068e-06
1.4042e-06
1.30324e-06
1.33916e-06
1.395e-06
1.43691e-06
1.49129e-06
1.55394e-06
1.67432e-06
1.6392e-06
1.6755e-06
1.50688e-06
1.85186e-06
1.60236e-06
1.49805e-06
1.53671e-06
1.59833e-06
1.64379e-06
1.69116e-06
1.75983e-06
1.85871e-06
1.57591e-06
1.87451e-06
1.7084e-06
2.04315e-06
1.79439e-06
1.69054e-06
1.72855e-06
1.68115e-06
1.84272e-06
1.88047e-06
1.94765e-06
1.90863e-06
1.53325e-06
1.96137e-06
1.89745e-06
2.19975e-06
1.879e-06
1.87414e-06
1.72687e-06
1.65935e-06
1.89357e-06
2.05657e-06
2.11638e-06
1.85888e-06
1.51144e-06
1.8966e-06
2.06763e-06
2.13309e-06
1.7839e-06
1.83808e-06
1.68391e-06
1.66171e-06
1.86657e-06
2.21563e-06
2.26533e-06
1.83672e-06
1.50707e-06
1.83975e-06
2.01095e-06
2.07282e-06
1.70852e-06
1.75766e-06
1.66033e-06
1.69995e-06
1.88913e-06
2.35512e-06
2.39547e-06
1.84189e-06
1.51985e-06
1.79581e-06
1.89793e-06
2.04119e-06
1.67526e-06
1.70825e-06
1.6631e-06
1.77383e-06
1.96697e-06
2.32028e-06
2.50624e-06
1.87014e-06
1.54777e-06
1.75823e-06
1.80007e-06
2.03749e-06
1.68195e-06
1.69478e-06
1.69496e-06
1.88016e-06
2.09154e-06
2.26222e-06
2.55555e-06
1.92022e-06
1.58896e-06
1.72401e-06
1.72159e-06
2.06153e-06
1.72227e-06
1.7149e-06
1.75501e-06
2.01449e-06
2.25538e-06
2.25216e-06
2.54316e-06
1.98912e-06
1.64219e-06
1.69195e-06
1.65821e-06
2.10995e-06
1.79018e-06
1.76502e-06
1.84082e-06
2.17239e-06
2.45566e-06
2.28576e-06
2.54479e-06
2.07164e-06
1.70667e-06
1.66229e-06
1.60546e-06
2.17782e-06
1.88172e-06
1.84288e-06
1.94988e-06
2.34971e-06
2.67999e-06
2.35024e-06
2.56804e-06
2.16247e-06
1.78144e-06
1.63678e-06
1.56154e-06
2.26148e-06
1.99487e-06
1.94779e-06
2.07981e-06
2.54151e-06
2.81371e-06
2.43475e-06
2.60512e-06
2.25759e-06
1.86463e-06
1.61861e-06
1.527e-06
2.35901e-06
2.12895e-06
2.08028e-06
2.22801e-06
2.74165e-06
2.84493e-06
2.52902e-06
2.64765e-06
2.35335e-06
1.95322e-06
1.61197e-06
1.50416e-06
2.47028e-06
2.28381e-06
2.24097e-06
2.39126e-06
2.92984e-06
2.8699e-06
2.62297e-06
2.69097e-06
2.44594e-06
2.0441e-06
1.62183e-06
1.49635e-06
2.59697e-06
2.45901e-06
2.42821e-06
2.56534e-06
2.94275e-06
2.88996e-06
2.70853e-06
2.73362e-06
2.53165e-06
2.13612e-06
1.6539e-06
1.50749e-06
2.74266e-06
2.65404e-06
2.6391e-06
2.74609e-06
2.95163e-06
2.90614e-06
2.78207e-06
2.77435e-06
2.60774e-06
2.22967e-06
1.71481e-06
1.54198e-06
2.90725e-06
2.86413e-06
2.87016e-06
2.9261e-06
2.95759e-06
2.91923e-06
2.84329e-06
2.8116e-06
2.67356e-06
2.32467e-06
1.81255e-06
1.60477e-06
3.03215e-06
3.02068e-06
2.97241e-06
2.94759e-06
2.96139e-06
2.92985e-06
2.89226e-06
2.84362e-06
2.73086e-06
2.42193e-06
1.95707e-06
1.70128e-06
3.03346e-06
3.02843e-06
2.98678e-06
2.95904e-06
2.96377e-06
2.93843e-06
2.92554e-06
2.86877e-06
2.78334e-06
2.52413e-06
2.15875e-06
1.83692e-06
3.03331e-06
3.03428e-06
2.99857e-06
2.96644e-06
2.96505e-06
2.94525e-06
2.93038e-06
2.88729e-06
2.83496e-06
2.63326e-06
2.42069e-06
2.01522e-06
3.0318e-06
3.03839e-06
3.00549e-06
2.96988e-06
2.96542e-06
2.95061e-06
2.93401e-06
2.8997e-06
2.88928e-06
2.74853e-06
2.71321e-06
2.23314e-06
3.02934e-06
3.04085e-06
3.00845e-06
2.96987e-06
2.96498e-06
2.95469e-06
2.93651e-06
2.90172e-06
2.90054e-06
2.86329e-06
2.82125e-06
2.48051e-06
3.02607e-06
3.04172e-06
3.00788e-06
2.96693e-06
2.9638e-06
2.95757e-06
2.93798e-06
2.90009e-06
2.90524e-06
2.87958e-06
2.83269e-06
2.74035e-06
3.02205e-06
3.04103e-06
3.00344e-06
2.9616e-06
2.9619e-06
2.95935e-06
2.93867e-06
2.89666e-06
2.90928e-06
2.88771e-06
2.84278e-06
2.82995e-06
3.01732e-06
3.03877e-06
2.99662e-06
2.95439e-06
2.95926e-06
2.96009e-06
2.9389e-06
2.89462e-06
2.91238e-06
2.89453e-06
2.85151e-06
2.84299e-06
3.01194e-06
3.03498e-06
2.98813e-06
2.94578e-06
2.95578e-06
2.95989e-06
2.93886e-06
2.89379e-06
2.91543e-06
2.90013e-06
2.85904e-06
2.85519e-06
3.00597e-06
3.02975e-06
2.97816e-06
2.93604e-06
2.95137e-06
2.95892e-06
2.93786e-06
2.89528e-06
2.9184e-06
2.90464e-06
2.86567e-06
2.86644e-06
2.99948e-06
3.02325e-06
2.96684e-06
2.92612e-06
2.94596e-06
2.95735e-06
2.93781e-06
2.89711e-06
2.9211e-06
2.90821e-06
2.87177e-06
2.87662e-06
2.99257e-06
3.01568e-06
2.95434e-06
2.91568e-06
2.93987e-06
2.95538e-06
2.93929e-06
2.89975e-06
2.9234e-06
2.91097e-06
2.8777e-06
2.88579e-06
2.98533e-06
3.00737e-06
2.94108e-06
2.90515e-06
2.93297e-06
2.95317e-06
2.94193e-06
2.90351e-06
2.9256e-06
2.91292e-06
2.88359e-06
2.89412e-06
2.9782e-06
2.99868e-06
2.92758e-06
2.89491e-06
2.92596e-06
2.95089e-06
2.94552e-06
2.90849e-06
2.92771e-06
2.91392e-06
2.8893e-06
2.88808e-06
4.93477e-12
4.86476e-12
4.94795e-12
4.98178e-12
4.94729e-12
4.94493e-12
4.97502e-12
5.0305e-12
5.09315e-12
5.09141e-12
4.97283e-12
4.85518e-12
4.81237e-12
4.74914e-12
4.83079e-12
4.86582e-12
4.82695e-12
4.82228e-12
4.85175e-12
4.90291e-12
4.95935e-12
4.95117e-12
4.83644e-12
4.72955e-12
7.92335e-12
7.91683e-12
8.05187e-12
8.13797e-12
7.97437e-12
7.92374e-12
7.97641e-12
8.00894e-12
8.02125e-12
7.89188e-12
7.7192e-12
7.68619e-12
3.08183e-11
3.11644e-11
3.16544e-11
3.20758e-11
3.10868e-11
3.07432e-11
3.09587e-11
3.08915e-11
3.06581e-11
2.97354e-11
2.91109e-11
2.94973e-11
1.17527e-10
1.19245e-10
1.20913e-10
1.22529e-10
1.18501e-10
1.1711e-10
1.17917e-10
1.17434e-10
1.16315e-10
1.12429e-10
1.10055e-10
1.12002e-10
3.48444e-10
3.53936e-10
3.58247e-10
3.62839e-10
3.50978e-10
3.46975e-10
3.49274e-10
3.4748e-10
3.44009e-10
3.32308e-10
3.25262e-10
3.3145e-10
8.31218e-10
8.44745e-10
8.53581e-10
8.64007e-10
8.36495e-10
8.27461e-10
8.32691e-10
8.27601e-10
8.19003e-10
7.91167e-10
7.74475e-10
7.8985e-10
1.67188e-09
1.69928e-09
1.71461e-09
1.73475e-09
1.68163e-09
1.66466e-09
1.6747e-09
1.66281e-09
1.6445e-09
1.58893e-09
1.55576e-09
1.58769e-09
2.9408e-09
2.98827e-09
3.01218e-09
3.04643e-09
2.95763e-09
2.93005e-09
2.9474e-09
2.92395e-09
2.88922e-09
2.79215e-09
2.73424e-09
2.79156e-09
4.65127e-09
4.7237e-09
4.75898e-09
4.81237e-09
4.68038e-09
4.64051e-09
4.6679e-09
4.62735e-09
4.56758e-09
4.41464e-09
4.32256e-09
4.41357e-09
6.75988e-09
6.85942e-09
6.91006e-09
6.98805e-09
6.81019e-09
6.75808e-09
6.79815e-09
6.73495e-09
6.64043e-09
6.41817e-09
6.28123e-09
6.41134e-09
9.09713e-09
9.21501e-09
9.32479e-09
9.45766e-09
9.2663e-09
9.20432e-09
9.24678e-09
9.14605e-09
8.98376e-09
8.67436e-09
8.49577e-09
8.67059e-09
1.12531e-08
1.13886e-08
1.15202e-08
1.16869e-08
1.14825e-08
1.14195e-08
1.14588e-08
1.13264e-08
1.11233e-08
1.07399e-08
1.05054e-08
1.07064e-08
1.35216e-08
1.36732e-08
1.38229e-08
1.40236e-08
1.38057e-08
1.37464e-08
1.37887e-08
1.36215e-08
1.3375e-08
1.2913e-08
1.26142e-08
1.28365e-08
1.5879e-08
1.60447e-08
1.62082e-08
1.64415e-08
1.62153e-08
1.61656e-08
1.6212e-08
1.60077e-08
1.57153e-08
1.51706e-08
1.47977e-08
1.50351e-08
1.83067e-08
1.84839e-08
1.86563e-08
1.89196e-08
1.86904e-08
1.86569e-08
1.87088e-08
1.84658e-08
1.81265e-08
1.74957e-08
1.70372e-08
1.72813e-08
2.07945e-08
2.09793e-08
2.11547e-08
2.14442e-08
2.12168e-08
2.12078e-08
2.12667e-08
2.09834e-08
2.05988e-08
1.98795e-08
1.93215e-08
1.95614e-08
2.33413e-08
2.35283e-08
2.36994e-08
2.40103e-08
2.37888e-08
2.38141e-08
2.38813e-08
2.35565e-08
2.3131e-08
2.23221e-08
2.16489e-08
2.18708e-08
2.59563e-08
2.61377e-08
2.62953e-08
2.66218e-08
2.64091e-08
2.64798e-08
2.65575e-08
2.61909e-08
2.57316e-08
2.4833e-08
2.40272e-08
2.42146e-08
2.86588e-08
2.8825e-08
2.89572e-08
2.92925e-08
2.909e-08
2.9218e-08
2.93105e-08
2.89028e-08
2.84183e-08
2.74308e-08
2.6474e-08
2.66086e-08
3.14783e-08
3.16173e-08
3.17096e-08
3.2046e-08
3.18545e-08
3.20515e-08
3.21653e-08
3.17194e-08
3.12195e-08
3.0144e-08
2.90165e-08
2.90785e-08
3.44529e-08
3.45497e-08
3.45852e-08
3.49148e-08
3.4734e-08
3.50114e-08
3.51558e-08
3.46766e-08
3.41723e-08
3.30105e-08
3.16898e-08
3.16576e-08
3.76268e-08
3.76626e-08
3.76225e-08
3.79372e-08
3.77659e-08
3.81349e-08
3.8322e-08
3.78171e-08
3.73212e-08
3.60756e-08
3.45354e-08
3.43849e-08
4.10505e-08
4.10007e-08
4.08649e-08
4.11571e-08
4.09917e-08
4.1463e-08
4.17078e-08
4.11883e-08
4.07177e-08
3.93921e-08
3.76016e-08
3.73055e-08
4.47841e-08
4.4616e-08
4.43631e-08
4.46249e-08
4.44587e-08
4.50425e-08
4.53631e-08
4.48446e-08
4.44239e-08
4.30253e-08
4.09465e-08
4.04722e-08
4.89054e-08
4.85742e-08
4.81806e-08
4.84044e-08
4.82255e-08
4.89306e-08
4.93497e-08
4.88553e-08
4.85212e-08
4.70618e-08
4.46457e-08
4.39527e-08
5.35211e-08
5.29639e-08
5.24032e-08
5.25819e-08
5.23725e-08
5.32052e-08
5.37513e-08
5.33146e-08
5.31226e-08
5.16239e-08
4.88045e-08
4.78388e-08
5.87793e-08
5.79073e-08
5.71483e-08
5.72779e-08
5.70164e-08
5.79786e-08
5.8686e-08
5.83552e-08
5.83871e-08
5.68842e-08
5.35713e-08
5.22592e-08
6.48796e-08
6.35687e-08
6.25743e-08
6.26587e-08
6.23261e-08
6.34113e-08
6.43178e-08
6.41595e-08
6.45326e-08
6.308e-08
5.91507e-08
5.73915e-08
7.20817e-08
7.01648e-08
6.88906e-08
6.89492e-08
6.85399e-08
6.97271e-08
7.08675e-08
7.09713e-08
7.1848e-08
7.05263e-08
6.58155e-08
6.34735e-08
8.07095e-08
7.7971e-08
7.63616e-08
7.64384e-08
7.59811e-08
7.72259e-08
7.86172e-08
7.90988e-08
8.06999e-08
7.9625e-08
7.3916e-08
7.0812e-08
9.11712e-08
8.73334e-08
8.53149e-08
8.54849e-08
8.50569e-08
8.62769e-08
8.79055e-08
8.89137e-08
9.15524e-08
9.08939e-08
8.38928e-08
7.97894e-08
1.04086e-07
9.87561e-08
9.62232e-08
9.66103e-08
9.63468e-08
9.73977e-08
9.92182e-08
1.00957e-07
1.05112e-07
1.05122e-07
9.63744e-08
9.09256e-08
1.20435e-07
1.13043e-07
1.09835e-07
1.1065e-07
1.10794e-07
1.11426e-07
1.13329e-07
1.16089e-07
1.22502e-07
1.23559e-07
1.12352e-07
1.05048e-07
1.41737e-07
1.31447e-07
1.27303e-07
1.28914e-07
1.29921e-07
1.29691e-07
1.31434e-07
1.35642e-07
1.45488e-07
1.48159e-07
1.33343e-07
1.23425e-07
1.70417e-07
1.55975e-07
1.50443e-07
1.53479e-07
1.56187e-07
1.54366e-07
1.55426e-07
1.61715e-07
1.7692e-07
1.82062e-07
1.61694e-07
1.48013e-07
2.10376e-07
1.8967e-07
1.81923e-07
1.85864e-07
1.89298e-07
1.88782e-07
1.88275e-07
1.97593e-07
2.21149e-07
2.30074e-07
2.01116e-07
1.81935e-07
2.61545e-07
2.25113e-07
2.13437e-07
2.17437e-07
2.22562e-07
2.22908e-07
2.28068e-07
2.42226e-07
2.68861e-07
2.82792e-07
2.55641e-07
2.29709e-07
3.17981e-07
2.68751e-07
2.5329e-07
2.59025e-07
2.66899e-07
2.65839e-07
2.72646e-07
2.90943e-07
3.27902e-07
3.48036e-07
3.13172e-07
2.79886e-07
3.89381e-07
3.2592e-07
3.05922e-07
3.14118e-07
3.25932e-07
3.23178e-07
3.31175e-07
3.54822e-07
4.02595e-07
4.29638e-07
3.865e-07
3.4392e-07
4.76516e-07
3.96624e-07
3.71932e-07
3.82965e-07
4.00085e-07
3.95109e-07
4.0404e-07
4.34121e-07
4.9455e-07
5.29818e-07
4.77303e-07
4.24022e-07
5.81626e-07
4.8274e-07
4.52898e-07
4.67356e-07
4.91795e-07
4.83787e-07
4.93118e-07
5.31154e-07
6.05727e-07
6.50221e-07
5.87985e-07
5.22637e-07
7.0619e-07
5.86281e-07
5.51054e-07
5.69312e-07
6.033e-07
5.91444e-07
6.00682e-07
6.47863e-07
7.36884e-07
7.90993e-07
7.20029e-07
6.42085e-07
8.50572e-07
7.08595e-07
6.68088e-07
6.90133e-07
7.35819e-07
7.194e-07
7.28175e-07
7.85085e-07
8.87141e-07
9.50355e-07
8.73398e-07
7.83607e-07
1.0138e-06
8.49977e-07
8.04697e-07
8.30024e-07
8.8906e-07
8.67576e-07
8.75737e-07
9.42169e-07
1.0539e-06
1.12456e-06
1.04613e-06
9.46767e-07
1.19322e-06
1.00932e-06
9.60156e-07
9.87809e-07
1.06094e-06
1.03417e-06
1.04173e-06
1.11685e-06
1.23321e-06
1.3083e-06
1.23424e-06
1.129e-06
1.38355e-06