/*--------------------------------*- C++ -*----------------------------------*\
| =========                 |                                                 |
| \\      /  F ield         | OpenFOAM: The Open Source CFD Toolbox           |
|  \\    /   O peration     | Version:  v1912                                 |
|   \\  /    A nd           | Website:  www.openfoam.com                      |
|    \\/     M anipulation  |                                                 |
\*---------------------------------------------------------------------------*/
FoamFile
{
    version     2.0;
    format      ascii;
    class       surfaceScalarField;
    location    "10.8";
    object      phi;
}
// * * * * * * * * * * * * * * * * * * * * * * * * * * * * * * * * * * * * * //

dimensions      [1 0 -1 0 0 0 0];
oriented        oriented;


internalField   nonuniform List<scalar> 
97428
(
2.55521e-10
7.89729e-09
-2.51393e-07
6.32809e-10
8.15516e-09
-2.48756e-07
3.78187e-10
8.55994e-09
-2.515e-07
-8.76408e-11
8.83545e-09
-2.52747e-07
-6.49506e-10
8.89377e-09
-2.52574e-07
-9.93919e-10
8.60285e-09
-2.52964e-07
-1.2723e-09
8.20836e-09
-2.5394e-07
-1.41117e-09
7.99566e-09
-2.552e-07
-9.40377e-10
7.66012e-09
-2.56417e-07
-1.49588e-10
7.47365e-09
-2.56316e-07
2.51893e-10
7.97598e-09
-2.52919e-07
8.46976e-09
-2.49555e-07
3.4797e-10
3.14728e-08
-7.78521e-07
1.55057e-09
3.23062e-08
-7.70754e-07
1.15454e-09
3.35387e-08
-7.78905e-07
-1.23795e-10
3.48484e-08
-7.82667e-07
-1.87575e-09
3.52923e-08
-7.82135e-07
-2.85263e-09
3.40273e-08
-7.83303e-07
-3.54193e-09
3.236e-08
-7.86208e-07
-3.97303e-09
3.16575e-08
-7.90011e-07
-2.75794e-09
3.04878e-08
-7.93771e-07
-7.39499e-10
2.9861e-08
-7.93419e-07
3.3453e-10
3.16464e-08
-7.83079e-07
3.34768e-08
-7.72778e-07
2.25316e-11
7.0727e-08
-1.33774e-06
2.24577e-09
7.22904e-08
-1.32502e-06
2.02454e-09
7.45214e-08
-1.33848e-06
5.15265e-11
7.77062e-08
-1.34476e-06
-2.99912e-09
7.90394e-08
-1.3438e-06
-4.67116e-09
7.60817e-08
-1.34575e-06
-5.7381e-09
7.21985e-08
-1.35056e-06
-6.4998e-09
7.08027e-08
-1.35695e-06
-4.72895e-09
6.8437e-08
-1.36344e-06
-1.7758e-09
6.71703e-08
-1.36277e-06
-1.63584e-10
7.08947e-08
-1.34528e-06
7.47971e-08
-1.32777e-06
-7.34654e-10
1.25451e-07
-1.92707e-06
2.7872e-09
1.27785e-07
-1.90971e-06
3.05626e-09
1.30983e-07
-1.92823e-06
5.08518e-10
1.3689e-07
-1.93697e-06
-3.98598e-09
1.39762e-07
-1.93546e-06
-6.51216e-09
1.3441e-07
-1.93822e-06
-7.99089e-09
1.27308e-07
-1.94485e-06
-9.13313e-09
1.2504e-07
-1.95382e-06
-6.99676e-09
1.21234e-07
-1.96324e-06
-3.39146e-09
1.19165e-07
-1.96219e-06
-1.38676e-09
1.25415e-07
-1.93741e-06
1.32068e-07
-1.91251e-06
-1.95142e-09
1.95238e-07
-2.54419e-06
3.22154e-09
1.983e-07
-2.52264e-06
4.32973e-09
2.02248e-07
-2.54578e-06
1.32142e-09
2.11708e-07
-2.55683e-06
-4.82422e-09
2.16899e-07
-2.55468e-06
-8.44772e-09
2.0848e-07
-2.55826e-06
-1.0415e-08
1.97086e-07
-2.56657e-06
-1.19926e-08
1.93753e-07
-2.57804e-06
-9.67391e-09
1.88366e-07
-2.5906e-06
-5.6955e-09
1.8538e-07
-2.58911e-06
-3.45935e-09
1.94728e-07
-2.55702e-06
2.04787e-07
-2.52472e-06
-3.64098e-09
2.79497e-07
-3.18653e-06
3.59281e-09
2.83193e-07
-3.16137e-06
5.91795e-09
2.87497e-07
-3.18851e-06
2.55154e-09
3.0132e-07
-3.2016e-06
-5.51717e-09
3.09724e-07
-3.19869e-06
-1.05539e-08
2.9759e-07
-3.20317e-06
-1.31174e-08
2.80746e-07
-3.21292e-06
-1.51854e-08
2.76115e-07
-3.22669e-06
-1.28504e-08
2.69093e-07
-3.24262e-06
-8.75819e-09
2.6514e-07
-3.24064e-06
-6.45962e-09
2.78206e-07
-3.20139e-06
2.92335e-07
-3.16187e-06
-5.80706e-09
3.77493e-07
-3.8514e-06
3.94009e-09
3.81686e-07
-3.82329e-06
7.87952e-09
3.85806e-07
-3.85362e-06
4.2367e-09
4.04789e-07
-3.8684e-06
-6.08448e-09
4.17377e-07
-3.86458e-06
-1.29094e-08
4.00891e-07
-3.87004e-06
-1.61965e-08
3.7735e-07
-3.88094e-06
-1.88045e-08
3.71138e-07
-3.89668e-06
-1.65904e-08
3.62493e-07
-3.9162e-06
-1.26048e-08
3.57598e-07
-3.91376e-06
-1.04142e-08
3.75103e-07
-3.86769e-06
3.94005e-07
-3.82133e-06
-8.43645e-09
4.88392e-07
-4.53612e-06
4.29806e-09
4.92904e-07
-4.50581e-06
1.02533e-08
4.9619e-07
-4.53834e-06
6.38963e-09
5.21138e-07
-4.55436e-06
-6.56417e-09
5.38919e-07
-4.5494e-06
-1.55954e-08
5.17417e-07
-4.55595e-06
-1.97417e-08
4.85866e-07
-4.56763e-06
-2.29285e-08
4.77762e-07
-4.58493e-06
-2.09315e-08
4.67535e-07
-4.60825e-06
-1.72135e-08
4.61787e-07
-4.60544e-06
-1.52954e-08
4.846e-07
-4.55311e-06
5.09025e-07
-4.50054e-06
-1.14949e-08
6.1131e-07
-5.23823e-06
4.69739e-09
6.15927e-07
-5.20647e-06
1.30542e-08
6.17669e-07
-5.24014e-06
8.99211e-09
6.49414e-07
-5.25686e-06
-7.01429e-09
6.73392e-07
-5.25041e-06
-1.86946e-08
6.46143e-07
-5.2581e-06
-2.38334e-08
6.05241e-07
-5.27024e-06
-2.76219e-08
5.94961e-07
-5.28861e-06
-2.58856e-08
5.83168e-07
-5.3159e-06
-2.25164e-08
5.76687e-07
-5.31285e-06
-2.10205e-08
6.05836e-07
-5.25504e-06
6.36588e-07
-5.1971e-06
-1.49243e-08
7.45352e-07
-5.95558e-06
5.1652e-09
7.4983e-07
-5.92318e-06
1.62708e-08
7.49325e-07
-5.95691e-06
1.19919e-08
7.88738e-07
-5.97367e-06
-7.51385e-09
8.19884e-07
-5.96518e-06
-2.22923e-08
7.86046e-07
-5.97403e-06
-2.85442e-08
7.34481e-07
-5.98639e-06
-3.29365e-08
7.21838e-07
-6.00537e-06
-3.1441e-08
7.08415e-07
-6.03672e-06
-2.84036e-08
7.01294e-07
-6.03362e-06
-2.74543e-08
7.37949e-07
-5.97127e-06
7.75873e-07
-5.90892e-06
-1.86422e-08
8.89645e-07
-6.68651e-06
5.72555e-09
8.9372e-07
-6.65426e-06
1.98638e-08
8.9033e-07
-6.68703e-06
1.53012e-08
9.38342e-07
-6.70309e-06
-8.16316e-09
9.77587e-07
-6.69179e-06
-2.64764e-08
9.36171e-07
-6.70172e-06
-3.394e-08
8.72709e-07
-6.71426e-06
-3.89125e-08
8.57684e-07
-6.73353e-06
-3.75658e-08
8.42433e-07
-6.76889e-06
-3.47284e-08
8.34683e-07
-6.76589e-06
-3.44139e-08
8.80098e-07
-6.70001e-06
9.26073e-07
-6.6343e-06
-2.25408e-08
1.04336e-06
-7.42978e-06
6.39938e-09
1.04676e-06
-7.39851e-06
2.37646e-08
1.03996e-06
-7.42942e-06
1.87952e-08
1.09758e-06
-7.44395e-06
-9.08355e-09
1.14584e-06
-7.42884e-06
-3.13374e-08
1.0957e-06
-7.4397e-06
-4.00802e-08
1.0192e-06
-7.45261e-06
-4.55794e-08
1.00198e-06
-7.47202e-06
-4.42109e-08
9.84551e-07
-7.51123e-06
-4.13135e-08
9.76054e-07
-7.50841e-06
-4.16746e-08
1.03149e-06
-7.43996e-06
1.08642e-06
-7.37195e-06
-2.64882e-08
1.20571e-06
-8.18467e-06
7.20448e-09
1.20813e-06
-8.15519e-06
2.78756e-08
1.19758e-06
-8.18353e-06
2.23126e-08
1.26591e-06
-8.19561e-06
-1.04168e-08
1.32416e-06
-8.17552e-06
-3.69683e-08
1.26397e-06
-8.18706e-06
-4.70185e-08
1.17338e-06
-8.20079e-06
-5.29572e-08
1.15436e-06
-8.22042e-06
-5.13132e-08
1.13425e-06
-8.26323e-06
-4.79576e-08
1.12474e-06
-8.26057e-06
-4.89769e-08
1.1914e-06
-8.19033e-06
1.25617e-06
-8.12103e-06
-3.03286e-08
1.37595e-06
-8.95073e-06
8.15462e-09
1.37708e-06
-8.92379e-06
3.20677e-08
1.36259e-06
-8.94904e-06
2.56537e-08
1.44287e-06
-8.95771e-06
-1.23238e-08
1.5122e-06
-8.9314e-06
-4.34619e-08
1.44051e-06
-8.94333e-06
-5.47988e-08
1.33476e-06
-8.95853e-06
-6.10524e-08
1.31453e-06
-8.97863e-06
-5.87951e-08
1.29113e-06
-9.02473e-06
-5.4439e-08
1.28022e-06
-9.02218e-06
-5.60311e-08
1.35915e-06
-8.95067e-06
1.43464e-06
-8.88098e-06
-3.38834e-08
1.55337e-06
-9.72754e-06
9.25809e-09
1.55285e-06
-9.70384e-06
3.61786e-08
1.53442e-06
-9.72561e-06
2.8581e-08
1.62805e-06
-9.72992e-06
-1.49812e-08
1.70974e-06
-9.6962e-06
-5.09048e-08
1.62502e-06
-9.70823e-06
-6.34493e-08
1.50295e-06
-9.72565e-06
-6.98542e-08
1.48218e-06
-9.74659e-06
-6.65639e-08
1.45486e-06
-9.79571e-06
-6.05207e-08
1.44203e-06
-9.79318e-06
-6.25235e-08
1.53417e-06
-9.72062e-06
1.62121e-06
-9.65124e-06
-3.69563e-08
1.73729e-06
-1.05147e-05
1.05164e-08
1.73473e-06
-1.04948e-05
4.00147e-08
1.71251e-06
-1.05129e-05
3.08218e-08
1.82107e-06
-1.05119e-05
-1.8577e-08
1.91663e-06
-1.04697e-05
-5.93728e-08
1.81727e-06
-1.04816e-05
-7.29787e-08
1.67755e-06
-1.0502e-05
-7.9331e-08
1.65699e-06
-1.05242e-05
-7.45135e-08
1.6251e-06
-1.05761e-05
-6.59593e-08
1.60976e-06
-1.05736e-05
-6.81271e-08
1.71591e-06
-1.04999e-05
1.81529e-06
-1.04314e-05
-3.93401e-08
1.92699e-06
-1.13118e-05
1.19225e-08
1.92196e-06
-1.12961e-05
4.33539e-08
1.89624e-06
-1.13102e-05
3.20745e-08
2.02151e-06
-1.13033e-05
-2.33031e-08
2.13268e-06
-1.12518e-05
-6.89229e-08
2.01704e-06
-1.12633e-05
-8.33693e-08
1.85811e-06
-1.12873e-05
-8.94274e-08
1.83849e-06
-1.1311e-05
-8.25263e-08
1.80142e-06
-1.13659e-05
-7.05146e-08
1.7829e-06
-1.13635e-05
-7.25144e-08
1.90382e-06
-1.12883e-05
2.01632e-06
-1.12208e-05
-4.08258e-08
2.12171e-06
-1.2118e-05
1.34594e-08
2.11378e-06
-1.21068e-05
4.59513e-08
2.08496e-06
-1.21168e-05
3.20182e-08
2.22887e-06
-1.21032e-05
-2.93445e-08
2.35758e-06
-1.20419e-05
-7.95842e-08
2.224e-06
-1.2053e-05
-9.45719e-08
2.04405e-06
-1.20811e-05
-1.00062e-07
2.02612e-06
-1.21067e-05
-9.04771e-08
1.98325e-06
-1.21645e-05
-7.39618e-08
1.96078e-06
-1.21624e-05
-7.53728e-08
2.09726e-06
-1.20853e-05
2.22368e-06
-1.20189e-05
-4.12162e-08
2.32053e-06
-1.29324e-05
1.50978e-08
2.30934e-06
-1.29257e-05
4.75496e-08
2.27795e-06
-1.29314e-05
3.03278e-08
2.44256e-06
-1.29108e-05
-3.68658e-08
2.59084e-06
-1.28395e-05
-9.13482e-08
2.43759e-06
-1.28501e-05
-1.06501e-07
2.23464e-06
-1.28826e-05
-1.11126e-07
2.21916e-06
-1.29102e-05
-9.82384e-08
2.16978e-06
-1.29712e-05
-7.61076e-08
2.14246e-06
-1.29698e-05
-7.64246e-08
2.29541e-06
-1.28903e-05
2.43668e-06
-1.28246e-05
-4.03402e-08
2.52234e-06
-1.37535e-05
1.6796e-08
2.5077e-06
-1.37511e-05
4.78912e-08
2.4744e-06
-1.37524e-05
2.66926e-08
2.66182e-06
-1.37246e-05
-4.59965e-08
2.8317e-06
-1.36434e-05
-1.0416e-07
2.657e-06
-1.36536e-05
-1.1903e-07
2.42893e-06
-1.36906e-05
-1.22486e-07
2.4167e-06
-1.37203e-05
-1.05689e-07
2.35997e-06
-1.37848e-05
-7.68061e-08
2.32667e-06
-1.37844e-05
-7.54481e-08
2.49719e-06
-1.3702e-05
2.65448e-06
-1.36368e-05
-3.80702e-08
2.72584e-06
-1.45795e-05
1.84985e-08
2.7078e-06
-1.45811e-05
4.67352e-08
2.67339e-06
-1.45779e-05
2.0839e-08
2.88574e-06
-1.4543e-05
-5.68148e-08
3.07909e-06
-1.44524e-05
-1.17912e-07
2.88108e-06
-1.44621e-05
-1.31996e-07
2.62577e-06
-1.45036e-05
-1.3399e-07
2.61768e-06
-1.45355e-05
-1.12722e-07
2.55249e-06
-1.46037e-05
-7.59762e-08
2.51183e-06
-1.46048e-05
-7.22992e-08
2.70123e-06
-1.4519e-05
2.87601e-06
-1.44539e-05
-3.43383e-08
2.9295e-06
-1.54082e-05
2.01366e-08
2.90846e-06
-1.54134e-05
4.38738e-08
2.87395e-06
-1.54055e-05
1.25535e-08
3.11322e-06
-1.53638e-05
-6.93343e-08
3.33166e-06
-1.52649e-05
-1.32439e-07
3.10836e-06
-1.5274e-05
-1.45199e-07
2.82375e-06
-1.53199e-05
-1.45474e-07
2.82081e-06
-1.5354e-05
-1.19257e-07
2.74573e-06
-1.54258e-05
-7.36149e-08
2.69599e-06
-1.54288e-05
-6.69301e-08
2.90582e-06
-1.53394e-05
3.1e-06
-1.5274e-05
-2.91507e-08
3.13157e-06
-1.62372e-05
2.16296e-08
3.1084e-06
-1.62453e-05
3.91504e-08
3.07502e-06
-1.62328e-05
1.7054e-09
3.34299e-06
-1.6185e-05
-8.34933e-08
3.58769e-06
-1.60788e-05
-1.47522e-07
3.33706e-06
-1.60874e-05
-1.5841e-07
3.02128e-06
-1.61373e-05
-1.56771e-07
3.0246e-06
-1.61735e-05
-1.25248e-07
2.93784e-06
-1.6249e-05
-6.98065e-08
2.87693e-06
-1.62543e-05
-5.94026e-08
3.10893e-06
-1.61612e-05
3.3249e-06
-1.60948e-05
-2.25969e-08
3.33015e-06
-1.70637e-05
2.28866e-08
3.30625e-06
-1.7074e-05
3.24743e-08
3.27549e-06
-1.7057e-05
-1.17336e-08
3.57364e-06
-1.70041e-05
-9.91488e-08
3.84517e-06
-1.68923e-05
-1.62891e-07
3.56512e-06
-1.69001e-05
-1.71383e-07
3.21657e-06
-1.69535e-05
-1.67724e-07
3.22739e-06
-1.69917e-05
-1.30686e-07
3.12672e-06
-1.70705e-05
-6.47242e-08
3.05214e-06
-1.70786e-05
-4.98925e-08
3.30825e-06
-1.69817e-05
3.54895e-06
-1.69141e-05
-1.48541e-08
3.52321e-06
-1.78849e-05
2.38105e-08
3.50063e-06
-1.78966e-05
2.38324e-08
3.47423e-06
-1.78754e-05
-2.76904e-08
3.80358e-06
-1.78184e-05
-1.16077e-07
4.10177e-06
-1.77029e-05
-1.78238e-07
3.79019e-06
-1.77099e-05
-1.83866e-07
3.40768e-06
-1.7766e-05
-1.78199e-07
3.42736e-06
-1.7806e-05
-1.3561e-07
3.31011e-06
-1.78877e-05
-5.86242e-08
3.21892e-06
-1.78989e-05
-3.86846e-08
3.50122e-06
-1.77984e-05
3.77016e-06
-1.77293e-05
-6.18302e-09
3.70865e-06
-1.86979e-05
2.43005e-08
3.69013e-06
-1.87104e-05
1.32952e-08
3.67011e-06
-1.86853e-05
-4.59577e-08
4.03113e-06
-1.86257e-05
-1.33982e-07
4.35489e-06
-1.85085e-05
-1.93232e-07
4.00973e-06
-1.85144e-05
-1.95621e-07
3.59259e-06
-1.85723e-05
-1.88091e-07
3.62258e-06
-1.86137e-05
-1.401e-07
3.48562e-06
-1.86979e-05
-5.18317e-08
3.37442e-06
-1.87123e-05
-2.61587e-08
3.68511e-06
-1.86087e-05
3.98636e-06
-1.85378e-05
3.08261e-09
3.88439e-06
-1.94999e-05
2.42604e-08
3.87341e-06
-1.95125e-05
1.01844e-09
3.862e-06
-1.94841e-05
-6.62275e-08
4.25451e-06
-1.94233e-05
-1.52505e-07
4.60171e-06
-1.93068e-05
-2.07535e-07
4.22103e-06
-1.93112e-05
-2.06433e-07
3.76921e-06
-1.93699e-05
-1.97338e-07
3.81111e-06
-1.94124e-05
-1.44277e-07
3.6508e-06
-1.94983e-05
-4.47204e-08
3.51572e-06
-1.9516e-05
-1.27656e-08
3.85706e-06
-1.94098e-05
4.19528e-06
-1.93371e-05
1.25539e-08
4.0484e-06
-2.02885e-05
2.35976e-08
4.04917e-06
-2.03006e-05
-1.27706e-08
4.04883e-06
-2.02695e-05
-8.80912e-08
4.47188e-06
-2.0209e-05
-1.71249e-07
4.8392e-06
-2.00955e-05
-2.20827e-07
4.42126e-06
-2.00981e-05
-2.16131e-07
3.93552e-06
-2.01563e-05
-2.05919e-07
3.99098e-06
-2.01995e-05
-1.48291e-07
3.80318e-06
-2.02862e-05
-3.76876e-08
3.63991e-06
-2.03072e-05
1.0017e-09
4.0142e-06
-2.01991e-05
4.39457e-06
-2.01249e-05
2.18103e-08
4.19879e-06
-2.10612e-05
2.22336e-08
4.21621e-06
-2.10727e-05
-2.77786e-08
4.22955e-06
-2.10396e-05
-1.11063e-07
4.68137e-06
-2.09809e-05
-1.89795e-07
5.06427e-06
-2.08723e-05
-2.32821e-07
4.60755e-06
-2.08729e-05
-2.24593e-07
4.08954e-06
-2.09292e-05
-2.13865e-07
4.16034e-06
-2.09726e-05
-1.52313e-07
3.9404e-06
-2.10592e-05
-3.1126e-08
3.7442e-06
-2.10834e-05
1.46423e-08
4.15367e-06
-2.09744e-05
4.58186e-06
-2.08989e-05
3.04232e-08
4.33387e-06
-2.18162e-05
2.01059e-08
4.37345e-06
-2.18269e-05
-4.36534e-08
4.40315e-06
-2.17927e-05
-1.34604e-07
4.88112e-06
-2.17371e-05
-2.07734e-07
5.27377e-06
-2.16354e-05
-2.43284e-07
4.77708e-06
-2.16334e-05
-2.31758e-07
4.22951e-06
-2.16867e-05
-2.21247e-07
4.31747e-06
-2.17298e-05
-1.56521e-07
4.06023e-06
-2.18152e-05
-2.5397e-08
3.82599e-06
-2.18422e-05
2.76823e-08
4.27277e-06
-2.17335e-05
4.75485e-06
-2.16572e-05
3.79886e-08
4.45218e-06
-2.25519e-05
1.71736e-08
4.51991e-06
-2.2562e-05
-6.00215e-08
4.56865e-06
-2.25275e-05
-1.58157e-07
5.06932e-06
-2.24762e-05
-2.24685e-07
5.46462e-06
-2.23829e-05
-2.52052e-07
4.92718e-06
-2.2378e-05
-2.37628e-07
4.35387e-06
-2.2427e-05
-2.28173e-07
4.46088e-06
-2.24694e-05
-1.61084e-07
4.16069e-06
-2.25524e-05
-2.08068e-08
3.883e-06
-2.25817e-05
3.96932e-08
4.36904e-06
-2.24746e-05
4.91137e-06
-2.23983e-05
4.41475e-08
4.5526e-06
-2.32674e-05
1.34219e-08
4.6547e-06
-2.32772e-05
-7.64974e-08
4.7251e-06
-2.32434e-05
-1.81169e-07
5.24423e-06
-2.31973e-05
-2.40319e-07
5.63393e-06
-2.31134e-05
-2.59038e-07
5.0554e-06
-2.31051e-05
-2.42268e-07
4.46135e-06
-2.31488e-05
-2.34779e-07
4.58935e-06
-2.31901e-05
-1.66151e-07
4.24012e-06
-2.32696e-05
-1.75872e-08
3.91332e-06
-2.33006e-05
5.03478e-08
4.44031e-06
-2.31963e-05
5.04945e-06
-2.31209e-05
4.86163e-08
4.63436e-06
-2.3962e-05
8.86578e-09
4.77708e-06
-2.39723e-05
-9.27043e-08
4.87158e-06
-2.39399e-05
-2.03124e-07
5.40425e-06
-2.38996e-05
-2.54375e-07
5.77907e-06
-2.38257e-05
-2.64237e-07
5.15962e-06
-2.38137e-05
-2.45798e-07
4.55105e-06
-2.38512e-05
-2.41215e-07
4.70199e-06
-2.38911e-05
-1.7184e-07
4.29722e-06
-2.3966e-05
-1.58847e-08
3.91555e-06
-2.39981e-05
5.93837e-08
4.48489e-06
-2.38978e-05
5.16741e-06
-2.38243e-05
5.12017e-08
4.69709e-06
-2.46359e-05
3.55479e-09
4.88636e-06
-2.46474e-05
-1.0829e-07
5.00719e-06
-2.46173e-05
-2.23567e-07
5.54791e-06
-2.4583e-05
-2.66671e-07
5.89779e-06
-2.4519e-05
-2.67722e-07
5.23815e-06
-2.4503e-05
-2.48383e-07
4.62244e-06
-2.45339e-05
-2.47634e-07
4.79827e-06
-2.45721e-05
-1.78225e-07
4.33111e-06
-2.46414e-05
-1.57565e-08
3.88877e-06
-2.46738e-05
6.6661e-08
4.50153e-06
-2.45788e-05
5.26389e-06
-2.45081e-05
5.18141e-08
4.74078e-06
-2.52895e-05
-2.44276e-09
4.98196e-06
-2.5303e-05
-1.22939e-07
5.13102e-06
-2.52761e-05
-2.42113e-07
5.67398e-06
-2.52478e-05
-2.77104e-07
5.98833e-06
-2.51931e-05
-2.69638e-07
5.28977e-06
-2.51729e-05
-2.50222e-07
4.6754e-06
-2.5197e-05
-2.54174e-07
4.87803e-06
-2.52333e-05
-1.85333e-07
4.34134e-06
-2.52961e-05
-1.71752e-08
3.83265e-06
-2.53282e-05
7.2132e-08
4.48955e-06
-2.52395e-05
5.33792e-06
-2.51727e-05
5.04741e-08
4.76576e-06
-2.5924e-05
-9.02215e-09
5.0634e-06
-2.59403e-05
-1.36382e-07
5.2422e-06
-2.59172e-05
-2.58462e-07
5.78143e-06
-2.58945e-05
-2.8565e-07
6.04944e-06
-2.58482e-05
-2.70187e-07
5.3138e-06
-2.58237e-05
-2.51532e-07
4.71019e-06
-2.58412e-05
-2.6095e-07
4.94146e-06
-2.58755e-05
-1.93144e-07
4.3279e-06
-2.5931e-05
-2.00394e-08
3.74741e-06
-2.59622e-05
7.58349e-08
4.44883e-06
-2.58807e-05
5.38896e-06
-2.58185e-05
4.73117e-08
4.77272e-06
-2.65408e-05
-1.60375e-08
5.13032e-06
-2.65606e-05
-1.48396e-07
5.33988e-06
-2.65419e-05
-2.72402e-07
5.86952e-06
-2.65243e-05
-2.92354e-07
6.08053e-06
-2.64849e-05
-2.69614e-07
5.31012e-06
-2.6456e-05
-2.52532e-07
4.72745e-06
-2.64674e-05
-2.68038e-07
4.9891e-06
-2.64998e-05
-2.01586e-07
4.29121e-06
-2.65476e-05
-2.41892e-08
3.63382e-06
-2.65773e-05
7.78759e-08
4.37979e-06
-2.65036e-05
5.41689e-06
-2.64468e-05
4.2561e-08
4.76288e-06
-2.71418e-05
-2.33142e-08
5.18267e-06
-2.71659e-05
-1.58812e-07
5.42351e-06
-2.7152e-05
-2.83803e-07
5.938e-06
-2.71386e-05
-2.97317e-07
6.08182e-06
-2.71045e-05
-2.6819e-07
5.27938e-06
-2.70714e-05
-2.53432e-07
4.72831e-06
-2.70774e-05
-2.75471e-07
5.02193e-06
-2.71081e-05
-2.10537e-07
4.23229e-06
-2.71478e-05
-2.94242e-08
3.49333e-06
-2.71755e-05
7.84058e-08
4.28357e-06
-2.711e-05
5.42216e-06
-2.70592e-05
3.65514e-08
4.73782e-06
-2.77294e-05
-3.06466e-08
5.22071e-06
-2.7758e-05
-1.67511e-07
5.49279e-06
-2.77493e-05
-2.92627e-07
5.98708e-06
-2.77394e-05
-3.00685e-07
6.05435e-06
-2.77087e-05
-2.66197e-07
5.22299e-06
-2.76717e-05
-2.54418e-07
4.71437e-06
-2.76732e-05
-2.83228e-07
5.04135e-06
-2.77024e-05
-2.19837e-07
4.1527e-06
-2.77339e-05
-3.55198e-08
3.32814e-06
-2.77594e-05
7.75957e-08
4.16202e-06
-2.77021e-05
5.40578e-06
-2.76576e-05
2.96682e-08
4.69929e-06
-2.83062e-05
-3.7827e-08
5.2448e-06
-2.83395e-05
-1.74443e-07
5.54763e-06
-2.83361e-05
-2.98919e-07
6.01719e-06
-2.83288e-05
-3.02631e-07
5.9997e-06
-2.82997e-05
-2.63888e-07
5.14274e-06
-2.8259e-05
-2.55625e-07
4.68741e-06
-2.82572e-05
-2.91254e-07
5.04892e-06
-2.82852e-05
-2.29323e-07
4.0542e-06
-2.83088e-05
-4.22608e-08
3.14067e-06
-2.83317e-05
7.5622e-08
4.01735e-06
-2.82826e-05
5.36904e-06
-2.82443e-05
2.23057e-08
4.64905e-06
-2.88747e-05
-4.46506e-08
5.25527e-06
-2.89126e-05
-1.79593e-07
5.58789e-06
-2.89146e-05
-3.02768e-07
6.02889e-06
-2.8909e-05
-3.0333e-07
5.91984e-06
-2.88798e-05
-2.6148e-07
5.04073e-06
-2.88358e-05
-2.57143e-07
4.64919e-06
-2.88319e-05
-2.99451e-07
5.04612e-06
-2.8859e-05
-2.38824e-07
3.93862e-06
-2.8875e-05
-4.94641e-08
2.93349e-06
-2.88954e-05
7.2639e-08
3.85196e-06
-2.88541e-05
5.31338e-06
-2.88219e-05
1.49233e-08
4.58893e-06
-2.94378e-05
-5.09074e-08
5.25261e-06
-2.94797e-05
-1.82983e-07
5.61353e-06
-2.94871e-05
-3.04319e-07
6.02297e-06
-2.94824e-05
-3.02959e-07
5.81723e-06
-2.94515e-05
-2.59166e-07
4.91944e-06
-2.94048e-05
-2.59017e-07
4.60153e-06
-2.94e-05
-3.07668e-07
5.03446e-06
-2.94266e-05
-2.4815e-07
3.80798e-06
-2.94355e-05
-5.69712e-08
2.70939e-06
-2.94534e-05
6.87636e-08
3.66852e-06
-2.94194e-05
5.24044e-06
-2.93928e-05
7.87623e-09
4.52078e-06
-2.99978e-05
-5.64062e-08
5.23738e-06
-3.00434e-05
-1.84679e-07
5.62463e-06
-3.00558e-05
-3.03763e-07
6.00046e-06
-3.00512e-05
-3.01688e-07
5.69472e-06
-3.00176e-05
-2.57082e-07
4.78164e-06
-2.99685e-05
-2.6124e-07
4.54623e-06
-2.9964e-05
-3.15737e-07
5.01542e-06
-2.99904e-05
-2.57129e-07
3.66437e-06
-2.99928e-05
-6.46614e-08
2.47126e-06
-3.00085e-05
6.40763e-08
3.46982e-06
-2.99813e-05
5.152e-06
-2.99596e-05
1.52656e-09
4.44637e-06
-3.05574e-05
-6.0985e-08
5.21029e-06
-3.06058e-05
-1.84778e-07
5.62145e-06
-3.0623e-05
-3.0133e-07
5.96257e-06
-3.06181e-05
-2.99671e-07
5.55537e-06
-3.05806e-05
-2.55314e-07
4.63017e-06
-3.05297e-05
-2.63761e-07
4.485e-06
-3.05266e-05
-3.23481e-07
4.99037e-06
-3.0553e-05
-2.65621e-07
3.50989e-06
-3.05497e-05
-7.24592e-08
2.22197e-06
-3.05634e-05
5.86224e-08
3.25868e-06
-3.05422e-05
5.04986e-06
-3.05248e-05
-3.8569e-09
4.36727e-06
-3.11186e-05
-6.45176e-08
5.1721e-06
-3.11691e-05
-1.83403e-07
5.60442e-06
-3.11907e-05
-2.97263e-07
5.91062e-06
-3.1185e-05
-2.97044e-07
5.40226e-06
-3.11432e-05
-2.53896e-07
4.46786e-06
-3.10909e-05
-2.66496e-07
4.41938e-06
-3.10899e-05
-3.30735e-07
4.96051e-06
-3.11168e-05
-2.73525e-07
3.34655e-06
-3.11084e-05
-8.03329e-08
1.96425e-06
-3.11203e-05
5.24157e-08
3.03777e-06
-3.11045e-05
4.9357e-06
-3.10907e-05
-8.0741e-09
4.28483e-06
-3.16835e-05
-6.69183e-08
5.12363e-06
-3.17353e-05
-1.8069e-07
5.5741e-06
-3.17608e-05
-2.91811e-07
5.84594e-06
-3.17542e-05
-2.9392e-07
5.23831e-06
-3.17078e-05
-2.52822e-07
4.29734e-06
-3.16543e-05
-2.6934e-07
4.35065e-06
-3.16562e-05
-3.37357e-07
4.92685e-06
-3.16836e-05
-2.80788e-07
3.1762e-06
-3.16709e-05
-8.8294e-08
1.70064e-06
-3.16812e-05
4.54447e-08
2.80958e-06
-3.16701e-05
4.81101e-06
-3.16592e-05
-1.10034e-08
4.20016e-06
-3.22535e-05
-6.81408e-08
5.06566e-06
-3.2306e-05
-1.76779e-07
5.53119e-06
-3.2335e-05
-2.85208e-07
5.76984e-06
-3.23274e-05
-2.9039e-07
5.06622e-06
-3.22763e-05
-2.52055e-07
4.12098e-06
-3.22219e-05
-2.72182e-07
4.27987e-06
-3.22272e-05
-3.43238e-07
4.89017e-06
-3.22554e-05
-2.87406e-07
3.00049e-06
-3.22388e-05
-9.63969e-08
1.43341e-06
-3.22477e-05
3.76755e-08
2.57628e-06
-3.22408e-05
4.67705e-06
-3.22321e-05
-1.25868e-08
4.11409e-06
-3.283e-05
-6.81695e-08
4.99895e-06
-3.28825e-05
-1.71798e-07
5.47643e-06
-3.29147e-05
-2.77655e-07
5.68357e-06
-3.29062e-05
-2.86519e-07
4.88834e-06
-3.28504e-05
-2.51533e-07
3.94083e-06
-3.27954e-05
-2.74912e-07
4.20783e-06
-3.28043e-05
-3.48298e-07
4.85102e-06
-3.28335e-05
-2.93419e-07
2.8209e-06
-3.28135e-05
-1.0474e-07
1.16461e-06
-3.28209e-05
2.90516e-08
2.33974e-06
-3.28178e-05
4.53477e-06
-3.28108e-05
-1.28099e-08
4.02722e-06
-3.3414e-05
-6.70041e-08
4.92421e-06
-3.3466e-05
-1.6585e-07
5.41059e-06
-3.35011e-05
-2.69307e-07
5.58825e-06
-3.34917e-05
-2.82341e-07
4.70669e-06
-3.34316e-05
-2.51183e-07
3.75858e-06
-3.33759e-05
-2.77428e-07
4.1351e-06
-3.33887e-05
-3.52481e-07
4.80974e-06
-3.3419e-05
-2.98894e-07
2.63869e-06
-3.3396e-05
-1.13469e-07
8.9589e-07
-3.34017e-05
1.94883e-08
2.1015e-06
-3.34022e-05
4.38482e-06
-3.33963e-05
-1.16742e-08
3.93998e-06
-3.40062e-05
-6.46441e-08
4.84207e-06
-3.40574e-05
-1.59001e-07
5.33443e-06
-3.40951e-05
-2.6026e-07
5.48491e-06
-3.40851e-05
-2.77864e-07
4.52299e-06
-3.40209e-05
-2.50926e-07
3.57565e-06
-3.39646e-05
-2.79637e-07
4.062e-06
-3.39813e-05
-3.55751e-07
4.76647e-06
-3.40129e-05
-3.03918e-07
2.45498e-06
-3.39869e-05
-1.22769e-07
6.2844e-07
-3.39903e-05
8.86852e-09
1.86279e-06
-3.39946e-05
4.22752e-06
-3.39896e-05
-9.16924e-09
3.85263e-06
-3.46074e-05
-6.10747e-08
4.75314e-06
-3.46574e-05
-1.51273e-07
5.24871e-06
-3.46975e-05
-2.5055e-07
5.37447e-06
-3.4687e-05
-2.7307e-07
4.33855e-06
-3.46189e-05
-2.50685e-07
3.3932e-06
-3.45622e-05
-2.81449e-07
3.98866e-06
-3.45828e-05
-3.58091e-07
4.72121e-06
-3.46157e-05
-3.08595e-07
2.2707e-06
-3.45868e-05
-1.32834e-07
3.6317e-07
-3.4587e-05
-2.95768e-09
1.62447e-06
-3.45955e-05
4.06289e-06
-3.45913e-05
-5.25407e-09
3.76534e-06
-3.52179e-05
-5.62616e-08
4.65787e-06
-3.52663e-05
-1.42649e-07
5.15414e-06
-3.53088e-05
-2.40164e-07
5.25756e-06
-3.52979e-05
-2.67923e-07
4.15418e-06
-3.52261e-05
-2.50386e-07
3.21201e-06
-3.5169e-05
-2.82773e-07
3.91506e-06
-3.51938e-05
-3.59469e-07
4.67383e-06
-3.52281e-05
-3.13045e-07
2.08649e-06
-3.51958e-05
-1.43835e-07
1.01149e-07
-3.51925e-05
-1.61567e-08
1.38703e-06
-3.52051e-05
3.89069e-06
-3.52019e-05
1.27616e-10
3.67801e-06
-3.5838e-05
-5.01733e-08
4.55633e-06
-3.58843e-05
-1.33116e-07
5.05113e-06
-3.59292e-05
-2.29112e-07
5.13441e-06
-3.59178e-05
-2.62392e-07
3.97043e-06
-3.58428e-05
-2.49965e-07
3.0326e-06
-3.57854e-05
-2.83524e-07
3.84103e-06
-3.58145e-05
-3.59824e-07
4.62407e-06
-3.58504e-05
-3.17427e-07
1.90312e-06
-3.58144e-05
-1.56065e-07
-1.56205e-07
-3.58071e-05
-3.08921e-08
1.15078e-06
-3.58235e-05
3.71016e-06
-3.58215e-05
6.95355e-09
3.59029e-06
-3.64677e-05
-4.28529e-08
4.44836e-06
-3.65115e-05
-1.22761e-07
4.93973e-06
-3.65587e-05
-2.1744e-07
5.0051e-06
-3.65473e-05
-2.56466e-07
3.78812e-06
-3.64695e-05
-2.4938e-07
2.8558e-06
-3.64121e-05
-2.8362e-07
3.76628e-06
-3.64456e-05
-3.59024e-07
4.57154e-06
-3.6483e-05
-3.21767e-07
1.72169e-06
-3.6443e-05
-1.69902e-07
-4.07047e-07
-3.64311e-05
-4.73842e-08
9.16141e-07
-3.64512e-05
3.52039e-06
-3.64502e-05
1.52807e-08
3.50164e-06
-3.71076e-05
-3.4181e-08
4.33388e-06
-3.71483e-05
-1.11523e-07
4.82027e-06
-3.71976e-05
-2.05099e-07
4.87013e-06
-3.71865e-05
-2.50153e-07
3.60877e-06
-3.7107e-05
-2.48592e-07
2.68287e-06
-3.70495e-05
-2.82997e-07
3.69039e-06
-3.70871e-05
-3.56947e-07
4.51572e-06
-3.71262e-05
-3.25919e-07
1.54349e-06
-3.70821e-05
-1.85506e-07
-6.49196e-07
-3.70651e-05
-6.58579e-08
6.83745e-07
-3.70881e-05
3.32009e-06
-3.70879e-05
2.52376e-08
3.4116e-06
-3.77579e-05
-2.39138e-08
4.21322e-06
-3.7795e-05
-9.92782e-08
4.69372e-06
-3.78461e-05
-1.92149e-07
4.73075e-06
-3.78359e-05
-2.4359e-07
3.43431e-06
-3.77558e-05
-2.47654e-07
2.51522e-06
-3.76986e-05
-2.8162e-07
3.61286e-06
-3.77393e-05
-3.53501e-07
4.45597e-06
-3.77804e-05
-3.29735e-07
1.36987e-06
-3.77323e-05
-2.02834e-07
-8.80395e-07
-3.77096e-05
-8.64478e-08
4.54299e-07
-3.77344e-05
3.10826e-06
-3.77348e-05
3.68433e-08
3.32003e-06
-3.84192e-05
-1.21864e-08
4.08719e-06
-3.84524e-05
-8.62956e-08
4.5615e-06
-3.85047e-05
-1.78975e-07
4.58866e-06
-3.84961e-05
-2.37055e-07
3.26663e-06
-3.84166e-05
-2.46714e-07
2.35408e-06
-3.836e-05
-2.7948e-07
3.53321e-06
-3.84027e-05
-3.48628e-07
4.39163e-06
-3.84458e-05
-3.33091e-07
1.20217e-06
-3.83941e-05
-2.21703e-07
-1.09854e-06
-3.83652e-05
-1.09204e-07
2.28556e-07
-3.83902e-05
2.88425e-06
-3.83909e-05
4.98727e-08
3.22674e-06
-3.90917e-05
5.31679e-10
3.95702e-06
-3.91211e-05
-7.31199e-08
4.42534e-06
-3.91741e-05
-1.66079e-07
4.44566e-06
-3.91677e-05
-2.30848e-07
3.10732e-06
-3.90899e-05
-2.45904e-07
2.20038e-06
-3.90344e-05
-2.76583e-07
3.45092e-06
-3.90778e-05
-3.42232e-07
4.32203e-06
-3.91227e-05
-3.35805e-07
1.0417e-06
-3.90678e-05
-2.41846e-07
-1.30174e-06
-3.90322e-05
-1.34155e-07
7.36715e-09
-3.90559e-05
2.64766e-06
-3.90565e-05
6.38222e-08
3.13158e-06
-3.97761e-05
1.37022e-08
3.82396e-06
-3.98019e-05
-6.03216e-08
4.28706e-06
-3.98551e-05
-1.53961e-07
4.30344e-06
-3.98512e-05
-2.25279e-07
2.95761e-06
-3.97764e-05
-2.45355e-07
2.05466e-06
-3.97222e-05
-2.72954e-07
3.36528e-06
-3.97652e-05
-3.3423e-07
4.24647e-06
-3.98116e-05
-3.37646e-07
8.89596e-07
-3.97539e-05
-2.62898e-07
-1.48833e-06
-3.97111e-05
-1.61218e-07
-2.08306e-07
-3.97315e-05
2.3982e-06
-3.97318e-05
7.8193e-08
3.03436e-06
-4.04726e-05
2.67909e-08
3.68928e-06
-4.04953e-05
-4.84392e-08
4.14849e-06
-4.05482e-05
-1.43081e-07
4.16356e-06
-4.05471e-05
-2.20595e-07
2.81833e-06
-4.04763e-05
-2.45134e-07
1.91698e-06
-4.04237e-05
-2.6863e-07
3.2754e-06
-4.04653e-05
-3.24624e-07
4.16426e-06
-4.05128e-05
-3.38427e-07
7.46634e-07
-4.04528e-05
-2.8439e-07
-1.65704e-06
-4.04022e-05
-1.90162e-07
-4.17409e-07
-4.04174e-05
2.1358e-06
-4.04172e-05
9.24947e-08
2.93501e-06
-4.11818e-05
3.92898e-08
3.55416e-06
-4.12018e-05
-3.79568e-08
4.01139e-06
-4.12541e-05
-1.33838e-07
4.02743e-06
-4.1256e-05
-2.16953e-07
2.68989e-06
-4.119e-05
-2.45265e-07
1.78693e-06
-4.11391e-05
-2.63644e-07
3.18025e-06
-4.11785e-05
-3.13451e-07
4.07464e-06
-4.12267e-05
-3.37989e-07
6.13293e-07
-4.11647e-05
-3.05754e-07
-1.80704e-06
-4.1106e-05
-2.20577e-07
-6.1885e-07
-4.11139e-05
1.86084e-06
-4.1113e-05
1.06285e-07
2.8335e-06
-4.1904e-05
5.07379e-08
3.4197e-06
-4.19219e-05
-2.92872e-08
3.87743e-06
-4.19734e-05
-1.26546e-07
3.89627e-06
-4.19783e-05
-2.14461e-07
2.57228e-06
-4.19179e-05
-2.45779e-07
1.66381e-06
-4.18684e-05
-2.5804e-07
3.07869e-06
-4.1905e-05
-3.00769e-07
3.97673e-06
-4.19536e-05
-3.36189e-07
4.89745e-07
-4.18899e-05
-3.26334e-07
-1.93809e-06
-4.18228e-05
-2.51872e-07
-8.11559e-07
-4.18215e-05
1.57437e-06
-4.18197e-05
1.19159e-07
2.72989e-06
-4.26395e-05
6.0736e-08
3.28692e-06
-4.2656e-05
-2.27564e-08
3.74815e-06
-4.27065e-05
-1.21401e-07
3.77104e-06
-4.27144e-05
-2.13159e-07
2.46508e-06
-4.26602e-05
-2.46704e-07
1.54676e-06
-4.2612e-05
-2.51872e-07
2.96951e-06
-4.26452e-05
-2.86666e-07
3.86956e-06
-4.26936e-05
-3.32924e-07
3.75901e-07
-4.26286e-05
-3.45447e-07
-2.05052e-06
-4.2553e-05
-2.83289e-07
-9.94593e-07
-4.25409e-05
1.27819e-06
-4.25378e-05
1.30751e-07
2.62431e-06
-4.33888e-05
6.89605e-08
3.15671e-06
-4.34044e-05
-1.85879e-08
3.6249e-06
-4.34539e-05
-1.18488e-07
3.65244e-06
-4.34648e-05
-2.13028e-07
2.36745e-06
-4.34172e-05
-2.48074e-07
1.43489e-06
-4.33699e-05
-2.45216e-07
2.85153e-06
-4.33991e-05
-2.71256e-07
3.75211e-06
-4.34471e-05
-3.28161e-07
2.71478e-07
-4.3381e-05
-3.62485e-07
-2.14522e-06
-4.32969e-05
-3.1396e-07
-1.16729e-06
-4.3273e-05
9.74868e-07
-4.32682e-05
1.40726e-07
2.51697e-06
-4.41521e-05
7.51747e-08
3.0298e-06
-4.41674e-05
-1.68991e-08
3.50878e-06
-4.4216e-05
-1.17837e-07
3.54086e-06
-4.42297e-05
-2.14072e-07
2.27821e-06
-4.4189e-05
-2.49939e-07
1.3272e-06
-4.41424e-05
-2.38188e-07
2.72373e-06
-4.41671e-05
-2.54682e-07
3.6234e-06
-4.42142e-05
-3.21835e-07
1.75967e-07
-4.41473e-05
-3.76902e-07
-2.2235e-06
-4.40548e-05
-3.42981e-07
-1.32929e-06
-4.40187e-05
6.67654e-07
-4.40118e-05
1.48925e-07
2.40819e-06
-4.49299e-05
7.92847e-08
2.90671e-06
-4.49454e-05
-1.7694e-08
3.4006e-06
-4.49931e-05
-1.194e-07
3.43637e-06
-4.50097e-05
-2.16303e-07
2.19602e-06
-4.49756e-05
-2.52346e-07
1.22284e-06
-4.49298e-05
-2.30929e-07
2.58534e-06
-4.49495e-05
-2.37112e-07
3.48252e-06
-4.49954e-05
-3.13835e-07
8.85743e-08
-4.49278e-05
-3.88212e-07
-2.28679e-06
-4.48273e-05
-3.69502e-07
-1.48054e-06
-4.47794e-05
3.6032e-07
-4.47696e-05
1.55402e-07
2.2983e-06
-4.57222e-05
8.13114e-08
2.78781e-06
-4.57382e-05
-2.08363e-08
3.30076e-06
-4.57856e-05
-1.22992e-07
3.33857e-06
-4.58051e-05
-2.197e-07
2.11946e-06
-4.57774e-05
-2.55317e-07
1.12116e-06
-4.57322e-05
-2.23598e-07
2.43576e-06
-4.57465e-05
-2.18746e-07