/*--------------------------------*- C++ -*----------------------------------*\
| =========                 |                                                 |
| \\      /  F ield         | OpenFOAM: The Open Source CFD Toolbox           |
|  \\    /   O peration     | Version:  v1912                                 |
|   \\  /    A nd           | Website:  www.openfoam.com                      |
|    \\/     M anipulation  |                                                 |
\*---------------------------------------------------------------------------*/
FoamFile
{
    version     2.0;
    format      ascii;
    class       volScalarField;
    location    "10.8";
    object      T;
}
// * * * * * * * * * * * * * * * * * * * * * * * * * * * * * * * * * * * * * //

dimensions      [0 0 0 1 0 0 0];


internalField   nonuniform List<scalar> 
34128
(
371.841
371.853
371.847
371.851
371.85
371.846
371.842
371.845
371.853
371.851
371.843
371.828
369.511
369.547
369.527
369.537
369.538
369.528
369.516
369.524
369.545
369.541
369.516
369.474
367.151
367.212
367.171
367.187
367.195
367.183
367.16
367.168
367.203
367.194
367.156
367.092
364.771
364.854
364.786
364.805
364.829
364.821
364.78
364.784
364.831
364.818
364.77
364.695
362.386
362.489
362.385
362.404
362.453
362.454
362.391
362.38
362.44
362.425
362.375
362.301
360.019
360.138
359.992
360.009
360.089
360.103
360.011
359.976
360.047
360.038
359.998
359.938
357.703
357.831
357.639
357.654
357.767
357.796
357.67
357.601
357.685
357.688
357.673
357.638
355.477
355.608
355.371
355.385
355.524
355.568
355.408
355.301
355.393
355.416
355.439
355.437
353.381
353.509
353.237
353.25
353.404
353.458
353.27
353.129
353.223
353.266
353.339
353.375
351.457
351.579
351.285
351.297
351.449
351.506
351.305
351.14
351.226
351.286
351.411
351.484
349.736
349.85
349.551
349.56
349.696
349.747
349.552
349.381
349.446
349.512
349.685
349.79
348.238
348.344
348.059
348.064
348.17
348.209
348.039
347.88
347.914
347.974
348.179
348.311
346.968
347.066
346.811
346.809
346.881
346.903
346.772
346.64
346.638
346.683
346.9
347.049
345.919
346.009
345.794
345.786
345.827
345.831
345.745
345.647
345.611
345.635
345.843
346
345.081
345.162
344.992
344.979
344.996
344.987
344.941
344.876
344.815
344.82
345
345.153
344.435
344.505
344.38
344.365
344.368
344.352
344.335
344.296
344.224
344.214
344.356
344.494
343.959
344.015
343.928
343.914
343.913
343.897
343.896
343.872
343.802
343.785
343.885
344
343.622
343.664
343.607
343.595
343.597
343.585
343.59
343.574
343.514
343.495
343.558
343.646
343.396
343.424
343.388
343.379
343.386
343.382
343.385
343.372
343.326
343.309
343.343
343.405
343.252
343.269
343.245
343.239
343.25
343.253
343.254
343.241
343.208
343.194
343.21
343.25
343.165
343.174
343.157
343.153
343.166
343.175
343.173
343.161
343.137
343.126
343.133
343.157
343.115
343.119
343.106
343.102
343.116
343.126
343.125
343.114
343.096
343.087
343.09
343.104
343.087
343.089
343.078
343.074
343.086
343.097
343.097
343.087
343.072
343.064
343.067
343.076
343.072
343.073
343.064
343.058
343.069
343.077
343.079
343.071
343.058
343.051
343.055
343.062
343.062
343.063
343.055
343.05
343.058
343.064
343.067
343.06
343.049
343.043
343.048
343.055
343.055
343.055
343.049
343.044
343.05
343.054
343.057
343.052
343.043
343.038
343.043
343.049
343.047
343.048
343.044
343.039
343.044
343.046
343.048
343.044
343.037
343.033
343.039
343.044
343.04
343.04
343.038
343.035
343.038
343.04
343.039
343.036
343.031
343.029
343.035
343.039
343.032
343.033
343.032
343.03
343.032
343.034
343.032
343.029
343.026
343.024
343.03
343.034
343.025
343.025
343.026
343.025
343.027
343.028
343.025
343.022
343.02
343.02
343.026
343.028
343.018
343.019
343.021
343.02
343.022
343.022
343.018
343.016
343.015
343.015
343.021
343.022
343.013
343.014
343.016
343.016
343.017
343.017
343.013
343.011
343.01
343.011
343.016
343.017
343.009
343.01
343.012
343.012
343.013
343.013
343.009
343.007
343.006
343.008
343.012
343.012
343.005
343.006
343.008
343.009
343.009
343.009
343.006
343.004
343.004
343.005
343.008
343.008
343.003
343.004
343.006
343.006
343.006
343.006
343.003
343.002
343.002
343.003
343.005
343.005
343.001
343.002
343.004
343.004
343.004
343.004
343.002
343.001
343
343.001
343.003
343.003
343
343.001
343.002
343.003
343.002
343.002
343.001
343
343
343
343.002
343.001
343
343
343.001
343.001
343.001
343.001
343
342.999
342.999
343
343.001
343
342.999
343
343
343.001
343
343
343
342.999
342.999
342.999
343
343
342.999
342.999
343
343
343
343
343
342.999
342.999
342.999
342.999
342.999
342.999
342.999
342.999
343
343
343
342.999
342.999
342.999
342.999
342.999
342.999
342.999
342.999
342.999
343
342.999
342.999
342.999
342.999
342.999
342.999
342.999
342.999
342.999
342.999
342.999
342.999
342.999
342.999
342.999
342.999
342.999
342.999
342.999
342.999
342.999
342.999
342.999
342.999
342.999
342.999
342.999
342.999
342.999
342.999
342.999
342.999
342.999
342.999
342.999
342.999
342.999
342.999
342.999
342.999
342.999
342.999
342.999
342.999
342.999
342.999
342.999
342.999
342.999
342.999
343
342.999
342.999
342.999
342.999
342.999
343
342.999
342.999
342.999
342.999
342.999
343
342.999
342.999
343
343
342.999
343
342.999
342.999
342.999
342.999
343
343
343
343
343
343
342.999
343
343
342.999
342.999
343
343
343
343
343
343
343
343
343
343
343
343
343
343
343
343
343
343
343
343
343
343
343
343
343
343
343
343
343
343
343
343
343
343
343
343
343
343
343
343
343
343
343
343
343
343
343
343
343
343
343
343
343
343
343
343
343
343
343
343
343
343
343
343
343
343
343
343
343
343
343
343
343
343
343
343
343
343
343
343
343
343
343
343
343
343
343
343
343
343
343
343
343
343
343
343
343
343
343
343
343
343
343
343
343
343
343
343
343
343
343
343
343
343
343
343
343
343
343
343
343
343
343
343
343
343
343
343
343
343
343
343
343
343
343
343
343
343
343
343
343
343
343
343
343
343
343
343
343
343
343
343
343
343
343
343
343
343
343
343
343
343
343
343
343
343
343
343
343
343
343
343
343
343
343
343
343
343
343
343
343
343
343
343
343
343
343
343
343
343
343
343
343
343
343
343
343
343
343
343
343
343
343
343
343
343
343
343
343
343
343
343
343
343
343
343
343
343
343
343
343
343
343
343
343
343
343
343
343
343
343
343
343
343
343
343
343
343
343
343
343
343
343
343
343
343
343
343
343
343
343
343
343
343
343
343
343
343
343
343
343
343
343
343
343
343
343
343
343
343
343
343
343
343
343
343
343
343
343
343
343
343
343
343
343
343
343
343
343
343
343
343
343
343
343
343
343
343
343
343
343
343
343
343
343
343
343
343
343
343
343
343
343
343
343
343
343
343
343
343
343
343
343
343
343
343
343
343
343
343
343
343
343
343
343
343
343
343
343
343
343
343
343
343
343
343
343
343
343
343
343
343
343
343
343
343
343
343
343
343
343
343
343
343
343
343
343
343
371.816
371.829
371.82
371.823
371.826
371.826
371.82
371.821
371.827
371.824
371.816
371.805
369.438
369.477
369.448
369.454
369.467
369.466
369.449
369.449
369.467
369.458
369.436
369.406
367.03
367.094
367.04
367.05
367.077
367.079
367.046
367.039
367.07
367.056
367.025
366.982
364.604
364.69
364.605
364.617
364.665
364.674
364.619
364.598
364.641
364.625
364.593
364.549
362.178
362.283
362.159
362.172
362.247
362.267
362.183
362.138
362.192
362.181
362.159
362.125
359.777
359.895
359.73
359.744
359.846
359.878
359.761
359.683
359.747
359.747
359.751
359.739
357.434
357.559
357.353
357.368
357.493
357.535
357.384
357.27
357.341
357.358
357.402
357.42
355.187
355.314
355.072
355.089
355.225
355.274
355.095
354.948
355.018
355.053
355.149
355.204
353.075
353.201
352.935
352.952
353.084
353.133
352.94
352.77
352.83
352.881
353.032
353.124
351.136
351.26
350.984
350.998
351.113
351.153
350.965
350.79
350.828
350.885
351.087
351.214
349.402
349.521
349.255
349.262
349.347
349.372
349.209
349.047
349.054
349.108
349.345
349.5
347.891
348.006
347.765
347.764
347.815
347.821
347.696
347.562
347.535
347.578
347.829
348.001
346.614
346.722
346.52
346.51
346.529
346.517
346.434
346.336
346.28
346.308
346.549
346.727
345.569
345.667
345.51
345.493
345.489
345.464
345.419
345.353
345.281
345.297
345.506
345.675
344.746
344.83
344.718
344.698
344.681
344.649
344.631
344.591
344.517
344.526
344.692
344.838
344.124
344.191
344.119
344.1
344.078
344.048
344.043
344.021
343.958
343.966
344.085
344.2
343.677
343.726
343.685
343.669
343.649
343.624
343.623
343.61
343.567
343.578
343.655
343.735
343.372
343.403
343.385
343.373
343.356
343.339
343.337
343.328
343.306
343.322
343.367
343.414
343.175
343.193
343.189
343.181
343.168
343.156
343.152
343.147
343.142
343.161
343.185
343.206
343.057
343.066
343.069
343.065
343.053
343.044
343.041
343.039
343.045
343.065
343.077
343.08
342.992
342.997
343.003
343.002
342.99
342.98
342.979
342.981
342.992
343.011
343.017
343.011
342.962
342.964
342.971
342.972
342.959
342.948
342.95
342.955
342.967
342.984
342.985
342.977
342.952
342.953
342.96
342.962
342.949
342.935
342.941
342.949
342.96
342.973
342.971
342.964
342.952
342.953
342.96
342.963
342.95
342.936
342.942
342.951
342.962
342.971
342.967
342.961
342.958
342.959
342.965
342.968
342.957
342.944
342.949
342.958
342.968
342.973
342.968
342.963
342.965
342.966
342.972
342.975
342.966
342.955
342.959
342.967
342.975
342.978
342.971
342.968
342.972
342.973
342.977
342.981
342.974
342.966
342.968
342.974
342.981
342.982
342.976
342.973
342.978
342.979
342.982
342.986
342.982
342.977
342.976
342.98
342.986
342.985
342.98
342.977
342.982
342.984
342.986
342.989
342.988
342.985
342.983
342.985
342.989
342.988
342.984
342.982
342.986
342.988
342.989
342.992
342.992
342.991
342.988
342.989
342.991
342.99
342.986
342.985
342.989
342.991
342.992
342.993
342.995
342.995
342.992
342.992
342.992
342.991
342.989
342.988
342.991
342.993
342.993
342.995
342.997
342.997
342.994
342.994
342.994
342.992
342.99
342.99
342.993
342.995
342.995
342.996
342.997
342.998
342.996
342.995
342.995
342.993
342.992
342.992
342.995
342.996
342.996
342.996
342.998
342.999
342.997
342.996
342.995
342.994
342.993
342.994
342.996
342.997
342.997
342.997
342.998
342.999
342.998
342.997
342.996
342.995
342.994
342.995
342.997
342.997
342.997
342.997
342.998
342.999
342.999
342.998
342.997
342.996
342.995
342.996
342.998
342.998
342.998
342.998
342.998
342.999
342.999
342.998
342.997
342.997
342.996
342.997
342.998
342.998
342.998
342.998
342.998
342.999
342.999
342.999
342.998
342.997
342.997
342.998
342.998
342.998
342.998
342.998
342.998
342.999
342.999
342.999
342.998
342.998
342.998
342.998
342.999
342.999
342.999
342.998
342.998
342.999
342.999
342.999
342.998
342.998
342.998
342.998
342.999
342.999
342.999
342.999
342.999
342.999
342.999
342.999
342.999
342.998
342.998
342.999
342.999
342.999
342.999
342.999
342.999
342.999
342.999
342.999
342.999
342.999
342.999
342.999
342.999
342.999
342.999
342.999
342.999
342.999
342.999
342.999
342.999
342.999
342.999
342.999
342.999
342.999
342.999
342.999
342.999
342.999
342.999
342.999
342.999
342.999
342.999
342.999
342.999
342.999
342.999
342.999
342.999
342.999
342.999
342.999
342.999
342.999
342.999
342.999
342.999
342.999
342.999
342.999
342.999
342.999
342.999
342.999
342.999
342.999
342.999
342.999
343
342.999
342.999
342.999
342.999
342.999
342.999
342.999
342.999
342.999
342.999
342.999
343
342.999
342.999
342.999
342.999
342.999
343
343
342.999
343
342.999
342.999
343
342.999
342.999
342.999
342.999
342.999
343
343
343
343
343
343
343
343
342.999
342.999
343
343
343
343
343
343
343
343
343
343
342.999
343
343
343
343
343
343
343
343
343
343
343
343
343
343
343
343
343
343
343
343
343
343
343
343
343
343
343
343
343
343
343
343
343
343
343
343
343
343
343
343
343
343
343
343
343
343
343
343
343
343
343
343
343
343
343
343
343
343
343
343
343
343
343
343
343
343
343
343
343
343
343
343
343
343
343
343
343
343
343
343
343
343
343
343
343
343
343
343
343
343
343
343
343
343
343
343
343
343
343
343
343
343
343
343
343
343
343
343
343
343
343
343
343
343
343
343
343
343
343
343
343
343
343
343
343
343
343
343
343
343
343
343
343
343
343
343
343
343
343
343
343
343
343
343
343
343
343
343
343
343
343
343
343
343
343
343
343
343
343
343
343
343
343
343
343
343
343
343
343
343
343
343
343
343
343
343
343
343
343
343
343
343
343
343
343
343
343
343
343
343
343
343
343
343
343
343
343
343
343
343
343
343
343
343
343
343
343
343
343
343
343
343
343
343
343
343
343
343
343
343
343
343
343
343
343
343
343
343
343
343
343
343
343
343
343
343
343
343
343
343
343
343
343
343
343
343
343
343
343
343
343
343
343
343
343
343
343
343
343
343
343
343
343
343
343
343
343
343
343
343
343
343
343
343
343
343
343
343
343
343
343
343
343
343
343
343
343
343
343
343
343
343
343
343
343
343
343
343
343
343
343
343
343
343
343
343
343
343
343
343
343
343
343
343
343
343
343
343
343
343
343
343
343
343
343
343
343
343
343
343
343
343
343
343
343
343
343
343
343
343
343
343
343
343
343
371.776
371.788
371.775
371.776
371.783
371.785
371.778
371.775
371.782
371.779
371.773
371.766
369.317
369.352
369.311
369.313
369.338
369.345
369.321
369.311
369.33
369.323
369.307
369.288
366.83
366.886
366.811
366.815
366.861
366.876
366.829
366.806
366.838
366.83
366.811
366.788
364.326
364.401
364.287
364.291
364.362
364.386
364.313
364.267
364.312
364.308
364.298
364.281
361.825
361.915
361.757
361.762
361.858
361.894
361.789
361.713
361.769
361.774
361.788
361.789
359.356
359.455
359.254
359.259
359.376
359.422
359.286
359.175
359.237
359.257
359.31
359.339
356.954
357.06
356.819
356.824
356.953
357.006
356.843
356.701
356.76
356.797
356.901
356.965
354.663
354.772
354.504
354.508
354.635
354.688
354.512
354.347
354.392
354.441
354.602
354.705
352.526
352.638
352.359
352.36
352.473
352.517
352.346
352.175
352.193
352.245
352.457
352.599
350.586
350.7
350.429
350.426
350.515
350.543
350.395
350.235
350.215
350.261
350.508
350.683
348.876
348.989
348.746
348.738
348.798
348.808
348.695
348.559
348.499
348.531
348.79
348.986
347.416
347.524
347.324
347.311
347.347
347.341
347.265
347.158
347.066
347.081
347.325
347.529
346.21
346.308
346.157
346.143
346.163
346.147
346.102
346.022
345.911
345.912
346.121
346.316
345.25
345.333
345.231
345.218
345.232
345.214
345.188
345.128
345.016
345.009
345.169
345.341
344.519
344.583
344.521
344.512
344.528
344.515
344.498
344.449
344.352
344.342
344.452
344.589
343.989
344.031
344
343.997
344.018
344.014
343.996
343.955
343.879
343.87
343.938
344.037
343.623
343.647
343.635
343.636
343.663
343.668
343.648
343.612
343.558
343.551
343.588
343.653
343.384
343.394
343.391
343.397
343.427
343.438
343.417
343.387
343.35
343.343
343.361
343.4
343.237
343.239
343.239
343.246
343.275
343.288
343.271
343.247
343.22
343.212
343.22
343.243
343.152
343.151
343.149
343.155
343.182
343.194
343.183
343.165
343.143
343.133
343.136
343.152
343.107
343.105
343.101
343.105
343.128
343.136
343.131
343.119
343.099
343.087
343.088
343.101
343.084
343.083
343.076
343.078
343.096
343.103
343.102
343.093
343.076
343.063
343.062
343.074
343.074
343.073
343.065
343.063
343.077
343.084
343.085
343.078
343.064
343.051
343.049
343.06
343.068
343.067
343.059
343.055
343.066
343.074
343.075
343.068
343.057
343.046
343.044
343.052
343.062
343.063
343.055
343.05
343.058
343.067
343.067
343.06
343.052
343.043
343.042
343.048
343.057
343.057
343.051
343.045
343.052
343.062
343.06
343.052
343.046
343.04
343.04
343.044
343.05
343.051
343.046
343.04
343.045
343.055
343.052
343.044
343.04
343.036
343.039
343.041
343.042
343.044
343.041
343.036
343.039
343.048
343.044
343.037
343.033
343.031
343.035
343.037
343.034
343.037
343.035
343.031
343.032
343.04
343.036
343.029
343.026
343.025
343.031
343.032
343.027
343.029
343.029
343.026
343.026
343.031
343.028
343.022
343.02
343.02
343.026
343.027
343.02
343.022
343.023
343.021
343.02
343.023
343.021
343.016
343.014
343.015
343.02
343.022
343.015
343.016
343.018
343.016
343.014
343.016
343.015
343.012
343.01
343.011
343.015
343.017
343.01
343.011
343.013
343.012
343.01
343.011
343.01
343.008
343.007
343.007
343.011
343.012
343.006
343.007
343.009
343.009
343.007
343.007
343.006
343.005
343.004
343.005
343.008
343.009
343.004
343.004
343.006
343.006
343.004
343.004
343.004
343.003
343.002
343.003
343.005
343.006
343.002
343.002
343.004
343.004
343.002
343.002
343.002
343.002
343.001
343.001
343.003
343.004
343.001
343.001
343.002
343.002
343.001
343.001
343.001
343.001
343
343
343.001
343.002
343
343
343.001
343.001
343
343
343
343
343
343
343.001
343.001
343
342.999
343
343
343
342.999
343
343
342.999
342.999
343
343
342.999
342.999
342.999
343
342.999
342.999
342.999
342.999
342.999
342.999
343
343
342.999
342.999
342.999
342.999
342.999
342.999
342.999
342.999
342.999
342.999
342.999
342.999
342.999
342.999
342.999
342.999
342.999
342.999
342.999
342.999
342.999
342.999
342.999
342.999
342.999
342.999
342.999
342.999
342.999
342.999
342.999
342.999
342.999
342.999
342.999
342.999
342.999
342.999
342.999
342.999
342.999
342.999
342.999
342.999
342.999
342.999
342.999
342.999
342.999
342.999
342.999
342.999
342.999
342.999
342.999
342.999
342.999
342.999
342.999
342.999
342.999
342.999
342.999
342.999
342.999
342.999
342.999
342.999
342.999
342.999
342.999
342.999
343
342.999
342.999
342.999
342.999
342.999
342.999
342.999
342.999
342.999
342.999
343
343
342.999
342.999
342.999
342.999
342.999
342.999
342.999
342.999
343
343
343
343
342.999
342.999
342.999
342.999
342.999
342.999
342.999
343
343
343
343
343
342.999
342.999
342.999
343
342.999
342.999
343
343
343
343
343
343
343
342.999
343
343
343
342.999
343
343
343
343
343
343
343
343
343
343
343
343
343
343
343
343
343
343
343
343
343
343
343
343
343
343
343
343
343
343
343
343
343
343
343
343
343
343
343
343
343
343
343
343
343
343
343
343
343
343
343
343
343
343
343
343
343
343
343
343
343
343
343
343
343
343
343
343
343
343
343
343
343
343
343
343
343
343
343
343
343
343
343
343
343
343
343
343
343
343
343
343
343
343
343
343
343
343
343
343
343
343
343
343
343
343
343
343
343
343
343
343
343
343
343
343
343
343
343
343
343
343
343
343
343
343
343
343
343
343
343
343
343
343
343
343
343
343
343
343
343
343
343
343
343
343
343
343
343
343
343
343
343
343
343
343
343
343
343
343
343
343
343
343
343
343
343
343
343
343
343
343
343
343
343
343
343
343
343
343
343
343
343
343
343
343
343
343
343
343
343
343
343
343
343
343
343
343
343
343
343
343
343
343
343
343
343
343
343
343
343
343
343
343
343
343
343
343
343
343
343
343
343
343
343
343
343
343
343
343
343
343
343
343
343
343
343
343
343
343
343
343
343
343
343
343
343
343
343
343
343
343
343
343
343
343
343
343
343
343
343
343
343
343
343
343
343
343
343
343
343
343
343
343
343
343
343
343
343
343
343
343
343
343
343
343
343
343
343
343
343
343
343
343
343
343
343
343
343
343
343
343
343
343
343
343
343
343
343
343
343
343
343
343
343
343
343
343
343
343
343
343
343
343
343
343
343
343
343
343
343
343
343
343
343
343
343
343
343
343
343
371.748
371.759
371.743
371.743
371.754
371.758
371.748
371.741
371.747
371.746
371.744
371.741
369.232
369.266
369.216
369.216
369.249
369.263
369.231
369.207
369.226
369.222
369.219
369.216
366.687
366.743
366.655
366.656
366.712
366.737
366.679
366.633
366.662
366.661
366.667
366.669
364.127
364.202
364.075
364.076
364.155
364.191
364.104
364.029
364.067
364.072
364.101
364.118
361.575
361.666
361.498
361.501
361.599
361.644
361.528
361.419
361.46
361.477
361.542
361.585
359.06
359.163
358.96
358.965
359.073
359.124
358.982
358.842
358.876
358.905
359.021
359.097
356.618
356.733
356.504
356.51
356.618
356.667
356.512
356.349
356.364
356.402
356.573
356.689
354.293
354.417
354.179
354.184
354.28
354.319
354.166
353.995
353.978
354.018
354.242
354.396
352.129
352.26
352.031
352.033
352.109
352.133
351.998
351.833
351.777
351.811
352.071
352.26
350.17
350.304
350.101
350.099
350.152
350.159
350.051
349.906
349.811
349.834
350.107
350.318
348.451
348.581
348.418
348.411
348.444
348.437
348.36
348.239
348.116
348.128
348.388
348.604
346.995
347.112
346.997
346.986
347.007
346.993
346.939
346.843
346.709
346.714
346.94
347.142
345.809
345.906
345.836
345.824
345.843
345.829
345.788
345.711
345.587
345.59
345.769
345.941
344.884
344.956
344.923
344.914
344.934
344.927
344.891
344.827
344.728
344.734
344.865
344.996
344.195
344.242
344.235
344.23
344.254
344.256
344.218
344.166
344.097
344.109
344.2
344.287
343.707
343.733
343.741
343.74
343.767
343.774
343.736
343.696
343.655
343.671
343.733
343.783
343.38
343.391
343.405
343.407
343.432
343.44
343.406
343.378
343.358
343.376
343.42
343.443
343.173
343.176
343.189
343.193
343.213
343.217
343.192
343.175
343.168
343.187
343.218
343.226
343.051
343.051
343.062
343.066
343.078
343.075
343.06
343.054
343.054
343.071
343.094
343.094
342.986
342.985
342.993
342.996
342.999
342.991
342.985
342.987
342.992
343.006
343.021
343.019
342.956
342.956
342.962
342.963
342.959
342.947
342.947
342.954
342.962
342.976
342.983
342.979
342.946
342.946
342.951
342.951
342.942
342.93
342.933
342.941
342.952
342.965
342.966
342.96
342.947
342.947
342.952
342.951
342.939
342.929
342.932
342.94
342.954
342.966
342.963
342.955
342.952
342.952
342.958
342.957
342.944
342.936
342.939
342.945
342.96
342.972
342.966
342.956
342.959
342.959
342.965
342.965
342.952
342.947
342.948
342.953
342.967
342.978
342.972
342.961
342.966
342.966
342.971
342.973
342.961
342.958
342.959
342.962
342.974
342.982
342.977
342.968
342.972
342.972
342.977
342.979
342.97
342.967
342.968
342.971
342.98
342.985
342.981
342.974
342.977
342.978
342.982
342.985
342.977
342.974
342.975
342.978
342.984
342.987
342.983
342.979
342.982
342.982
342.985
342.988
342.982
342.98
342.982
342.984
342.988
342.988
342.984
342.983
342.985
342.986
342.988
342.991
342.987
342.984
342.986
342.989
342.99
342.989
342.985
342.985
342.988
342.988
342.99
342.992
342.99
342.988
342.99
342.992
342.992
342.99
342.986
342.987
342.99
342.99
342.991
342.993
342.992
342.99
342.993
342.994
342.994
342.991
342.988
342.989
342.992
342.992
342.993
342.994
342.994
342.993
342.995
342.996
342.995
342.992
342.989
342.991
342.994
342.994
342.994
342.995
342.995
342.995
342.997
342.997
342.996
342.993
342.991
342.992
342.995
342.995
342.995
342.995
342.996
342.996
342.998
342.998
342.996
342.994
342.992
342.994
342.996
342.996
342.996
342.996
342.997
342.997
342.998
342.998
342.997
342.995
342.994
342.995
342.997
342.997
342.996
342.997
342.998
342.998
342.999
342.998
342.997
342.996
342.995
342.996
342.998
342.997
342.997
342.997
342.998
342.999
342.999
342.999
342.998
342.997
342.996
342.997
342.998
342.998
342.997
342.998
342.998
342.999
342.999
342.999
342.998
342.997
342.997
342.998
342.998
342.998
342.998
342.998
342.999
342.999
342.999
342.999
342.998
342.998
342.998
342.998
342.999
342.998
342.998
342.998
342.999
342.999
342.999
342.999
342.998
342.998
342.998
342.998
342.999
342.998
342.998
342.998
342.999
342.999
342.999
342.999
342.999
342.998
342.998
342.999
342.999
342.999
342.998
342.998
342.999
342.999
342.999
342.999
342.999
342.999
342.999
342.999
342.999
342.999
342.999
342.999
342.999
342.999
342.999
342.999
342.999
342.999
342.999
342.999
342.999
342.999
342.999
342.999
342.999
342.999
342.999
342.999
342.999
342.999
342.999
342.999
342.999
342.999
342.999
342.999
342.999
342.999
342.999
342.999
342.999
342.999
342.999
342.999
342.999
342.999
342.999
342.999
342.999
342.999
342.999
342.999
342.999
342.999
342.999
342.999
342.999
342.999
342.999
342.999
342.999
342.999
342.999
342.999
342.999
342.999
343
342.999
342.999
342.999
342.999
342.999
342.999
342.999
342.999
342.999
342.999
343
343
343
343
342.999
342.999
342.999
342.999
342.999
342.999
342.999
343
343
343
343
343
342.999
342.999
342.999
343
342.999
342.999
342.999
343
343
343
343
343
343
343
343
343
343
342.999
343
343
343
343
343
343
343
343
343
343
343
342.999
343
343
343
343
343
343
343
343
343
343
343
343
343
343
343
343
343
343
343
343
343
343
343
343
343
343
343
343
343
343
343
343
343
343
343
343
343
343
343
343
343
343
343
343
343
343
343
343
343
343
343
343
343
343
343
343
343
343
343
343
343
343
343
343
343
343
343
343
343
343
343
343
343
343
343
343
343
343
343
343
343
343
343
343
343
343
343
343
343
343
343
343
343
343
343
343
343
343
343
343
343
343
343
343
343
343
343
343
343
343
343
343
343
343
343
343
343
343
343
343
343
343
343
343
343
343
343
343
343
343
343
343
343
343
343
343
343
343
343
343
343
343
343
343
343
343
343
343
343
343
343
343
343
343
343
343
343
343
343
343
343
343
343
343
343
343
343
343
343
343
343
343
343
343
343
343
343
343
343
343
343
343
343
343
343
343
343
343
343
343
343
343
343
343
343
343
343
343
343
343
343
343
343
343
343
343
343
343
343
343
343
343
343
343
343
343
343
343
343
343
343
343
343
343
343
343
343
343
343
343
343
343
343
343
343
343
343
343
343
343
343
343
343
343
343
343
343
343
343
343
343
343
343
343
343
343
343
343
343
343
343
343
343
343
343
343
343
343
343
343
343
343
343
343
343
343
343
343
343
343
343
343
343
343
343
343
343
343
343
343
343
343
343
343
343
343
343
343
343
343
343
343
343
343
343
343
343
343
343
343
343
343
343
343
343
343
343
371.7
371.709
371.69
371.689
371.702
371.708
371.695
371.684
371.69
371.691
371.694
371.696
369.088
369.117
369.056
369.056
369.092
369.111
369.072
369.036
369.054
369.059
369.072
369.081
366.447
366.494
366.391
366.39
366.45
366.481
366.414
366.349
366.377
366.387
366.42
366.443
363.792
363.856
363.711
363.71
363.789
363.83
363.735
363.64
363.669
363.688
363.755
363.8
361.147
361.226
361.042
361.041
361.133
361.18
361.062
360.937
360.959
360.987
361.099
361.176
358.544
358.638
358.424
358.423
358.518
358.566
358.435
358.287
358.287
358.321
358.485
358.6
356.027
356.133
355.907
355.903
355.992
356.034
355.904
355.746
355.711
355.744
355.958
356.112
353.647
353.763
353.543
353.535
353.613
353.644
353.528
353.372
353.295
353.321
353.569
353.758
351.457
351.578
351.385
351.373
351.438
351.457
351.362
351.219
351.101
351.116
351.375
351.588
349.509
349.627
349.476
349.462
349.517
349.529
349.455
349.328
349.181
349.184
349.431
349.65
347.84
347.946
347.844
347.83
347.885
347.894
347.835
347.724
347.567
347.563
347.775
347.981
346.469
346.555
346.5
346.492
346.551
346.565
346.511
346.413
346.265
346.257
346.426
346.601
345.391
345.452
345.435
345.436
345.503
345.524
345.469
345.381
345.257
345.249
345.374
345.51
344.581
344.619
344.627
344.637
344.712
344.739
344.68
344.604
344.506
344.499
344.59
344.686
344.004
344.023
344.043
344.061
344.138
344.166
344.109
344.045
343.972
343.964
344.029
344.094
343.613
343.621
343.643
343.666
343.74
343.763
343.713
343.664
343.607
343.596
343.645
343.689
343.365
343.368
343.386
343.41
343.475
343.49
343.45
343.416
343.37
343.355
343.391
343.424
343.216
343.219
343.23
343.253
343.305
343.312
343.285
343.262
343.224
343.205
343.23
343.258
343.135
343.138
343.143
343.161
343.201
343.202
343.185
343.17
343.139
343.119
343.133
343.158
343.094
343.097
343.098
343.11
343.139
343.139
343.128
343.118
343.094
343.076
343.08
343.1
343.077
343.079
343.077
343.083
343.103
343.105
343.099
343.09
343.073
343.057
343.054
343.069
343.07
343.072
343.067
343.069
343.083
343.089
343.084
343.075
343.064
343.051
343.046
343.055
343.068
343.068
343.062
343.061
343.072
343.082
343.077
343.069
343.061
343.051
343.045
343.05
343.066
343.066
343.059
343.056
343.065
343.077
343.073
343.065
343.058
343.05
343.046
343.05
343.063
343.063
343.056
343.052
343.059
343.071
343.069
343.062
343.054
343.047
343.046
343.05
343.059
343.058
343.051
343.047
343.053
343.064
343.064
343.057
343.049
343.043
343.043
343.048
343.052
343.052
343.046
343.042
343.047
343.056
343.057
343.052
343.043
343.037
343.039
343.045
343.045
343.045
343.04
343.036
343.04
343.047
343.049
343.045
343.036
343.03
343.033
343.04
343.037
343.037
343.033
343.03
343.033
343.038
343.041
343.037
343.029
343.024
343.027
343.033
343.029
343.03
343.027
343.024
343.026
343.03
343.033
343.029
343.023
343.019
343.022
343.027
343.022
343.023
343.02
343.018
343.02
343.023
343.026
343.022
343.017
343.014
343.017
343.021
343.016
343.017
343.015
343.014
343.015
343.018
343.02
343.016
343.012
343.01
343.013
343.015
343.011
343.012
343.011
343.01
343.011
343.013
343.015
343.011
343.008
343.007
343.009
343.011
343.007
343.008
343.007
343.007
343.008
343.009
343.01
343.007
343.005
343.004
343.006
343.008
343.005
343.005
343.005
343.004
343.005
343.007
343.007
343.004
343.002
343.003
343.004
343.005
343.002
343.003
343.003
343.003
343.003
343.004
343.005
343.002
343.001
343.001
343.003
343.003
343.001
343.002
343.001
343.001
343.002
343.003
343.003
343.001
343
343
343.002
343.002
343
343
343
343.001
343.001
343.002
343.002
343
342.999
343
343.001
343.001
343
343
343
343
343
343.001
343.001
342.999
342.999
342.999
343
343
342.999
342.999
342.999
343
343
343
343
342.999
342.999
342.999
343
343
342.999
342.999
342.999
342.999
343
343
343
342.999
342.999
342.999
343
342.999
342.999
342.999
342.999
342.999
342.999
343
342.999
342.999
342.999
342.999
342.999
342.999
342.999
342.999
342.999
342.999
342.999
342.999
342.999
342.999
342.999
342.999
342.999
342.999
342.999
342.999
342.999
342.999
342.999
342.999
342.999
342.999
342.999
342.999
342.999
342.999
342.999
342.999
342.999
342.999
342.999
342.999
342.999
342.999
342.999
342.999
342.999
342.999
342.999
342.999
342.999
342.999
342.999
342.999
342.999
342.999
342.999
342.999
342.999
342.999
342.999
342.999
342.999
342.999
342.999
342.999
342.999
342.999
342.999
342.999
343
342.999
342.999
342.999
342.999
342.999
342.999
342.999
342.999
342.999
342.999
343
343
343
342.999
342.999
342.999
342.999
343
342.999
342.999
342.999
342.999
343
343
343
343
342.999
342.999
343
343
342.999
342.999
342.999
343
343
343
343
343
343
343
343
343
342.999
342.999
342.999
343
343
343
343
343
343
343
343
343
343
342.999
343
343
343
343
343
343
343
343
343
343
343
343
343
343
343
343
343
343
343
343
343
343
343
343
343
343
343
343
343
343
343
343
343
343
343
343
343
343
343
343
343
343
343
343
343
343
343
343
343
343
343
343
343
343
343
343
343
343
343
343
343
343
343
343
343
343
343
343
343
343
343
343
343
343
343
343
343
343
343
343
343
343
343
343