/*--------------------------------*- C++ -*----------------------------------*\
| =========                 |                                                 |
| \\      /  F ield         | OpenFOAM: The Open Source CFD Toolbox           |
|  \\    /   O peration     | Version:  v1912                                 |
|   \\  /    A nd           | Website:  www.openfoam.com                      |
|    \\/     M anipulation  |                                                 |
\*---------------------------------------------------------------------------*/
FoamFile
{
    version     2.0;
    format      ascii;
    class       volVectorField;
    location    "10.8";
    object      wallShearStress;
}
// * * * * * * * * * * * * * * * * * * * * * * * * * * * * * * * * * * * * * //

dimensions      [1 -1 -2 0 0 0 0];


internalField   uniform (0 0 0);

boundaryField
{
    leftWall
    {
        type            calculated;
        value           nonuniform List<vector> 
216
(
(1.53335e-05 -4.40892e-05 0.193182)
(8.92656e-05 -4.65518e-05 0.199891)
(0.000163519 -5.04915e-05 0.207746)
(6.69074e-05 -5.76915e-05 0.216086)
(-0.000142755 -6.48812e-05 0.225856)
(-0.000392646 -7.32264e-05 0.235785)
(-0.000419716 -8.03457e-05 0.247179)
(8.011e-05 -8.83793e-05 0.258551)
(0.00122925 -9.79933e-05 0.27218)
(0.00263549 -0.000116012 0.286704)
(0.00344048 -0.000141952 0.305325)
(0.00269011 -0.000177831 0.325791)
(0.000759101 -0.000226375 0.352851)
(-0.000872032 -0.000317694 0.382202)
(-0.00085327 -0.000471532 0.434799)
(0.000838867 -0.000982445 0.495706)
(0.000548519 -0.00585641 0.720076)
(-0.0117319 -0.118018 1.8852)
(-0.000160524 -4.58307e-05 0.191018)
(-0.000235213 -5.1168e-05 0.197938)
(-0.000236856 -5.63013e-05 0.206298)
(-0.000237612 -6.38593e-05 0.214935)
(-0.000226079 -7.05099e-05 0.224977)
(-0.000178694 -7.72355e-05 0.234711)
(-2.56715e-05 -8.11361e-05 0.245867)
(0.000327805 -8.45778e-05 0.256833)
(0.000918256 -9.02844e-05 0.27067)
(0.00152508 -0.000103499 0.286064)
(0.00156867 -0.000121967 0.306646)
(0.000487068 -0.000150486 0.329442)
(-0.00104888 -0.000192886 0.359327)
(-0.00164099 -0.000285873 0.391491)
(-0.000517194 -0.000462971 0.44573)
(0.00307108 -0.000994902 0.502479)
(0.00425915 -0.00584968 0.720047)
(0.00796821 -0.117661 1.88673)
(-0.000186243 -4.85922e-05 0.193372)
(-0.000331628 -5.3787e-05 0.199871)
(-0.000407333 -5.7265e-05 0.20802)
(-0.00040389 -6.18515e-05 0.215914)
(-0.000324479 -6.61217e-05 0.225521)
(-0.000216524 -7.10974e-05 0.234461)
(-0.000138649 -7.57743e-05 0.245331)
(-0.000117725 -8.35139e-05 0.255932)
(-2.7001e-05 -9.53051e-05 0.270112)
(0.000101054 -0.000113182 0.285782)
(-4.02231e-05 -0.000135154 0.306756)
(-0.00104154 -0.000168632 0.328845)
(-0.00278931 -0.000214413 0.356973)
(-0.0037041 -0.000298866 0.386158)
(-0.00112799 -0.000450001 0.438058)
(0.00530209 -0.000970981 0.494892)
(0.00472362 -0.00594437 0.720732)
(-0.0360247 -0.115627 1.90094)
(-5.30573e-05 -4.99488e-05 0.194455)
(-0.000231936 -5.37761e-05 0.200738)
(-0.000387004 -5.66394e-05 0.208689)
(-0.000437502 -6.07459e-05 0.215987)
(-0.000329014 -6.47511e-05 0.225226)
(-0.000148088 -7.05579e-05 0.233654)
(-2.23283e-05 -7.87486e-05 0.244389)
(-9.01566e-05 -9.35919e-05 0.254809)
(-0.000331085 -0.000110969 0.268952)
(-0.000623239 -0.000130158 0.283935)
(-0.000839763 -0.000151552 0.303656)
(-0.000886164 -0.000188516 0.324082)
(-0.000885865 -0.000242815 0.350977)
(-0.000828665 -0.000327351 0.378713)
(-4.09244e-05 -0.000442446 0.429585)
(0.00306172 -0.000889295 0.49084)
(0.00403433 -0.00577124 0.720889)
(-0.0341424 -0.119586 1.88297)
(9.58229e-05 -4.97238e-05 0.194372)
(-8.54835e-05 -5.33769e-05 0.200553)
(-0.000257379 -5.71198e-05 0.207919)
(-0.000338066 -6.17265e-05 0.214714)
(-0.000288537 -6.52587e-05 0.223308)
(-0.000159355 -7.06489e-05 0.231652)
(1.22048e-06 -7.97634e-05 0.24259)
(0.000164738 -9.66002e-05 0.253912)
(0.00027961 -0.000117136 0.268966)
(0.000351132 -0.000137672 0.284656)
(0.000368343 -0.000154606 0.303994)
(0.000411133 -0.000177907 0.323491)
(0.00040031 -0.000214542 0.350034)
(0.000188213 -0.000288543 0.380005)
(-0.00125874 -0.000416596 0.434468)
(-0.00354275 -0.000898191 0.49567)
(-0.00306167 -0.0057833 0.725992)
(0.00763137 -0.118051 1.88883)
(0.000295311 -4.81993e-05 0.194647)
(0.00029777 -5.30407e-05 0.200887)
(0.000289436 -5.80982e-05 0.207858)
(0.000268088 -6.46009e-05 0.214549)
(0.000200418 -7.02821e-05 0.2227)
(4.9853e-05 -7.71724e-05 0.230996)
(-0.00013724 -8.46716e-05 0.241585)
(-0.000274723 -9.55592e-05 0.252686)
(-0.000261156 -0.00010902 0.267031)
(2.27489e-05 -0.000126098 0.282462)
(0.000542606 -0.000145806 0.302331)
(0.000819351 -0.000171917 0.323684)
(7.72721e-05 -0.000206456 0.352006)
(-0.00164804 -0.000287832 0.382589)
(-0.00395357 -0.000463985 0.436156)
(-0.00597662 -0.00101771 0.494251)
(-0.00516744 -0.00586371 0.72093)
(-0.00626706 -0.11436 1.87707)
(0.000292601 -4.57614e-05 0.195475)
(0.000502134 -5.17046e-05 0.201581)
(0.000695567 -5.81471e-05 0.208506)
(0.00084948 -6.69288e-05 0.215392)
(0.000882672 -7.51599e-05 0.22374)
(0.000766127 -8.39426e-05 0.232324)
(0.000587197 -9.09455e-05 0.242957)
(0.000389264 -9.88493e-05 0.253779)
(0.000248914 -0.00010802 0.267183)
(0.000171555 -0.000122655 0.281415)
(0.000157545 -0.000142382 0.300469)
(-1.90518e-05 -0.000171841 0.322353)
(-0.000682909 -0.000213103 0.352075)
(-0.00138099 -0.000304981 0.383193)
(-0.00128887 -0.000487622 0.43474)
(-0.000214399 -0.00103823 0.488335)
(0.00171643 -0.0059312 0.708886)
(-0.00814955 -0.117194 1.88048)
(0.000441917 -4.37986e-05 0.196507)
(0.000750859 -4.83193e-05 0.202517)
(0.00102117 -5.35795e-05 0.209678)
(0.00126939 -6.16713e-05 0.216719)
(0.0013369 -6.9432e-05 0.225418)
(0.00121071 -7.84322e-05 0.234125)
(0.000969699 -8.60485e-05 0.24492)
(0.000707498 -9.53921e-05 0.255767)
(0.000499932 -0.000105434 0.269369)
(0.00026857 -0.000118468 0.283763)
(-1.96829e-05 -0.00013448 0.302846)
(-0.000448283 -0.000163525 0.324292)
(-0.000949953 -0.000214871 0.35322)
(-0.00078533 -0.000313202 0.382894)
(0.000816218 -0.000476121 0.431898)
(0.00323195 -0.000984292 0.484392)
(0.00431336 -0.00587118 0.708206)
(-0.0128213 -0.119667 1.88945)
(0.000375375 -4.16954e-05 0.197418)
(0.000700096 -4.52883e-05 0.203511)
(0.000963568 -4.94692e-05 0.210989)
(0.00125872 -5.60233e-05 0.218195)
(0.00137666 -6.32517e-05 0.227387)
(0.00138249 -7.35944e-05 0.236301)
(0.001238 -8.39933e-05 0.247344)
(0.00100736 -9.64104e-05 0.257832)
(0.000611787 -0.000108472 0.270964)
(-7.04044e-05 -0.000124065 0.284489)
(-0.000970204 -0.000144125 0.303026)
(-0.00165213 -0.000175702 0.323882)
(-0.00109516 -0.000221947 0.352397)
(0.00136073 -0.000304558 0.381511)
(0.00418367 -0.000441863 0.431463)
(0.0035505 -0.00091576 0.487698)
(3.65654e-05 -0.00577791 0.712543)
(-0.0184042 -0.122665 1.89452)
(0.000163914 -4.10762e-05 0.197301)
(0.000487633 -4.33587e-05 0.20347)
(0.000703783 -4.66484e-05 0.210952)
(0.000924849 -5.18991e-05 0.218149)
(0.0010069 -5.79527e-05 0.227559)
(0.00114059 -6.69166e-05 0.236755)
(0.00129302 -7.78729e-05 0.248405)
(0.00148917 -9.30163e-05 0.259329)
(0.00143279 -0.000110411 0.272969)
(0.000938207 -0.000134236 0.286396)
(6.09624e-05 -0.000162283 0.30451)
(-0.000614011 -0.000193967 0.324126)
(-0.000351735 -0.000212983 0.352166)
(0.000844563 -0.000238261 0.383486)
(0.00133489 -0.000336428 0.441011)
(-0.000735556 -0.000857412 0.503972)
(-0.00346355 -0.0058411 0.721081)
(-0.000820062 -0.125288 1.90185)
(-6.16209e-05 -4.5091e-05 0.194505)
(0.000265281 -4.83494e-05 0.200952)
(0.000461255 -5.11972e-05 0.20849)
(0.000538953 -5.38109e-05 0.21571)
(0.00044943 -5.60464e-05 0.224804)
(0.000436333 -6.05628e-05 0.23372)
(0.000603372 -6.7957e-05 0.245482)
(0.000993761 -8.10042e-05 0.257376)
(0.00128745 -9.72565e-05 0.273068)
(0.00125317 -0.00011609 0.289009)
(0.000752333 -0.000134614 0.309381)
(-8.17909e-06 -0.000160789 0.329975)
(-0.00128326 -0.000193449 0.357932)
(-0.00379551 -0.000256898 0.387697)
(-0.00761911 -0.000394209 0.441032)
(-0.0090181 -0.000917208 0.498667)
(-0.00468966 -0.00584378 0.72131)
(-0.00120888 -0.117681 1.89233)
(-7.7848e-05 -4.85632e-05 0.191782)
(0.000235486 -5.14632e-05 0.198411)
(0.000477933 -5.37608e-05 0.206031)
(0.000504051 -5.69531e-05 0.213563)
(0.000293065 -6.01594e-05 0.222603)
(-5.75996e-05 -6.5172e-05 0.231494)
(-0.000346877 -7.10821e-05 0.243001)
(-0.000473194 -8.10951e-05 0.254922)
(-0.000540568 -9.34433e-05 0.270662)
(-0.000737381 -0.000108247 0.286925)
(-0.00118614 -0.000125284 0.30751)
(-0.00173174 -0.000155933 0.328181)
(-0.00220191 -0.000213314 0.355106)
(-0.00273762 -0.00032514 0.382069)
(-0.00381995 -0.000507632 0.43041)
(-0.00540044 -0.00102148 0.484739)
(-0.0040195 -0.00586049 0.709099)
(-0.0043193 -0.117942 1.88151)
)
;
    }
    rightWall
    {
        type            calculated;
        value           nonuniform List<vector> 
216
(
(-0.000849467 2.45495e-05 0.378955)
(-0.000624293 2.68462e-05 0.380892)
(-0.000308016 2.64242e-05 0.385067)
(-5.65423e-05 2.46881e-05 0.389358)
(0.000304881 2.09303e-05 0.396464)
(0.000523069 2.19115e-05 0.403362)
(0.00068164 2.83483e-05 0.41346)
(0.000503003 4.51578e-05 0.422871)
(-0.000185944 6.65217e-05 0.435361)
(-0.0009922 9.05713e-05 0.445984)
(-0.00193181 0.000110191 0.45969)
(-0.00204309 0.00012922 0.471856)
(-0.00116956 0.000148207 0.494166)
(0.00113463 0.00022515 0.518134)
(0.00341259 0.000335407 0.580503)
(0.00349503 0.000905016 0.622167)
(3.98593e-05 0.0071083 0.933214)
(-0.00418231 0.283932 2.36964)
(-0.000488149 2.35252e-05 0.379063)
(-0.000730669 2.50419e-05 0.380464)
(-0.00101133 2.58956e-05 0.385185)
(-0.00137458 2.79965e-05 0.388938)
(-0.00163056 2.95861e-05 0.396369)
(-0.0017276 3.58556e-05 0.402643)
(-0.00152555 4.35636e-05 0.412588)
(-0.00103556 5.58236e-05 0.421232)
(-0.000537069 6.88628e-05 0.433347)
(0.000155018 8.52179e-05 0.443676)
(0.000588563 0.00010158 0.457833)
(0.00081793 0.000126424 0.470824)
(0.000569808 0.000148659 0.494348)
(0.00049211 0.000220454 0.518787)
(0.00117791 0.000316736 0.582152)
(0.00106146 0.000876421 0.624957)
(-0.0018471 0.00708869 0.93553)
(-0.0212087 0.28491 2.36808)
(0.000427204 2.48159e-05 0.385249)
(0.000121289 3.05872e-05 0.3861)
(-0.000265669 3.72225e-05 0.38996)
(-0.000681496 4.50374e-05 0.391741)
(-0.00104351 5.04781e-05 0.397106)
(-0.00107109 5.65844e-05 0.400775)
(-0.000909924 6.05057e-05 0.408438)
(-0.000511447 6.59948e-05 0.415388)
(-0.000346058 7.0265e-05 0.427411)
(-0.000116816 7.74207e-05 0.439264)
(-0.000142846 9.02383e-05 0.456176)
(-0.000250476 0.000120978 0.471509)
(-0.00104385 0.000155803 0.495765)
(-0.00223072 0.000232254 0.517578)
(-0.00239504 0.000318917 0.577745)
(-0.00201375 0.000849618 0.620183)
(-0.00443386 0.00707434 0.932107)
(-0.0401852 0.286641 2.37297)
(0.000674466 2.23176e-05 0.388578)
(0.000845203 2.75621e-05 0.390822)
(0.000953421 3.36452e-05 0.394756)
(0.00105524 4.22501e-05 0.396704)
(0.000917845 4.83973e-05 0.401135)
(0.000890148 5.37309e-05 0.404481)
(0.000602591 5.54468e-05 0.411177)
(0.000234227 5.75795e-05 0.417423)
(-0.0004593 6.13843e-05 0.4279)
(-0.000783383 7.26443e-05 0.438271)
(-0.000485072 9.09839e-05 0.454208)
(0.000318877 0.000122739 0.469842)
(0.000699604 0.000157446 0.495501)
(-0.000429387 0.000237815 0.517045)
(-0.00244516 0.0003329 0.573881)
(-0.00519941 0.000848649 0.613286)
(-0.00706853 0.00693216 0.909996)
(-0.0457223 0.287415 2.31656)
(0.000292093 2.59874e-05 0.383754)
(0.000790623 2.69396e-05 0.387793)
(0.00119092 2.80655e-05 0.392419)
(0.00163709 3.29876e-05 0.396345)
(0.0016298 3.89185e-05 0.401628)
(0.00155132 4.5733e-05 0.407013)
(0.00109568 4.98622e-05 0.414697)
(0.000472985 5.36483e-05 0.421894)
(-0.000364045 5.83063e-05 0.431462)
(-0.00104798 6.94824e-05 0.440282)
(-0.00123187 8.55113e-05 0.454796)
(-0.00112313 0.000112443 0.470422)
(-0.000646048 0.000142526 0.497161)
(-0.000453669 0.000226569 0.519098)
(-0.00127782 0.000337809 0.573545)
(-0.0038404 0.000849702 0.608863)
(-0.00488621 0.00679421 0.892032)
(-0.0229169 0.286941 2.28355)
(0.000323219 2.62944e-05 0.376758)
(0.000751368 2.62272e-05 0.381328)
(0.00104838 2.57269e-05 0.386579)
(0.0014005 2.73145e-05 0.391895)
(0.0013585 3.17744e-05 0.398368)
(0.00115636 3.78908e-05 0.40491)
(0.000713931 4.3839e-05 0.413372)
(0.000171306 5.26271e-05 0.421224)
(-0.000338423 6.55916e-05 0.43162)
(-0.000943184 8.48199e-05 0.441151)
(-0.00123074 0.000105854 0.455294)
(-0.00150078 0.000131495 0.46878)
(-0.00118498 0.000150313 0.492261)
(-0.000450089 0.000218681 0.514278)
(0.000344543 0.000319635 0.573495)
(0.00027786 0.000816116 0.615487)
(-0.00422534 0.00665407 0.888697)
(-0.0125758 0.288377 2.25412)
(0.000163629 1.74809e-05 0.376069)
(0.000337886 1.76196e-05 0.380341)
(0.000454367 1.91768e-05 0.386231)
(0.000622319 2.33782e-05 0.391756)
(0.000637472 3.15693e-05 0.399274)
(0.000484882 4.17886e-05 0.405637)
(0.000177381 5.14145e-05 0.414292)
(-0.000286633 6.11667e-05 0.421217)
(-0.000460198 7.11053e-05 0.431549)
(-0.000437372 8.48066e-05 0.440956)
(0.00034351 0.00010195 0.455384)
(0.000887356 0.000132996 0.469037)
(0.000520357 0.000164587 0.49189)
(-0.00144267 0.00023531 0.513842)
(-0.00430809 0.000314616 0.572543)
(-0.0040419 0.000818912 0.615517)
(-0.00302883 0.00687842 0.894342)
(0.0315149 0.28868 2.29359)
(-0.000497975 1.96726e-05 0.377466)
(-0.000690066 2.00109e-05 0.381362)
(-0.000758811 2.21981e-05 0.387457)
(-0.000618501 2.83119e-05 0.392627)
(-0.00017179 3.87814e-05 0.400758)
(0.000331069 5.13679e-05 0.406993)
(0.000708164 6.19893e-05 0.416078)
(0.00066792 7.01889e-05 0.421939)
(0.00034657 7.33573e-05 0.430826)
(-8.89626e-05 7.83799e-05 0.437699)
(7.97685e-05 8.51267e-05 0.45086)
(0.00088023 0.000111802 0.465936)
(0.00168741 0.000152156 0.49281)
(0.000830204 0.000241667 0.518579)
(-0.00204738 0.000355713 0.57589)
(-0.00158156 0.000914862 0.611416)
(0.00323764 0.00715891 0.902739)
(0.0318686 0.286119 2.34561)
(-0.000465088 3.1043e-05 0.376566)
(-0.000842746 3.34546e-05 0.380152)
(-0.00103759 3.48445e-05 0.385536)
(-0.00103538 3.70027e-05 0.389705)
(-0.000466728 3.9263e-05 0.396884)
(0.000429242 4.45303e-05 0.402665)
(0.00153403 5.2364e-05 0.412408)
(0.00236269 6.23362e-05 0.420086)
(0.00245973 7.0685e-05 0.431515)
(0.00175737 7.95185e-05 0.440062)
(0.000296952 8.45352e-05 0.453455)
(-0.00104337 9.98925e-05 0.467512)
(-0.00193297 0.000122673 0.494929)
(-0.0023032 0.000212358 0.523557)
(-0.00121071 0.000331537 0.584132)
(0.00525361 0.000873003 0.618628)
(0.0128136 0.00705599 0.917084)
(0.00934842 0.286242 2.3522)
(0.000185556 3.52919e-05 0.377335)
(-7.21297e-05 3.87184e-05 0.380881)
(-0.000218734 3.9087e-05 0.385783)
(-0.00046593 3.78801e-05 0.389193)
(-0.000405149 3.39309e-05 0.394882)
(-0.000284955 3.17781e-05 0.399515)
(6.86158e-05 3.2392e-05 0.408506)
(0.000474268 4.15954e-05 0.417398)
(0.000786375 5.60807e-05 0.431677)
(0.000866017 7.3804e-05 0.443799)
(-0.00012097 9.08494e-05 0.459282)
(-0.00197418 0.000117291 0.471192)
(-0.00425517 0.000151919 0.493426)
(-0.00472264 0.000241385 0.515194)
(-0.00188842 0.000348159 0.573288)
(0.000591434 0.000847349 0.614046)
(-1.77696e-05 0.00687777 0.933834)
(0.0214108 0.286066 2.36321)
(0.000710653 3.14413e-05 0.380124)
(0.000663215 3.74338e-05 0.382833)
(0.000673964 4.14325e-05 0.387335)
(0.000375901 4.40116e-05 0.390294)
(0.00011284 4.35176e-05 0.395311)
(-0.000469033 4.40649e-05 0.398953)
(-0.000978035 4.66582e-05 0.406032)
(-0.00130219 5.55724e-05 0.412897)
(-0.00109716 6.62179e-05 0.425167)
(-0.000422636 7.92844e-05 0.43699)
(-0.000147565 9.53112e-05 0.454005)
(-0.000645207 0.000126662 0.468056)
(-0.00170933 0.000167502 0.49086)
(-0.00104149 0.000258505 0.510242)
(0.00206943 0.000365641 0.567627)
(-0.00144838 0.000923463 0.609377)
(-0.0139174 0.00721881 0.922879)
(-0.0300352 0.283804 2.3882)
(0.00136227 2.2547e-05 0.382927)
(0.00158354 2.96894e-05 0.385053)
(0.00183687 3.70203e-05 0.389675)
(0.00177609 4.40156e-05 0.392782)
(0.00163282 4.82464e-05 0.398185)
(0.00107246 5.27562e-05 0.401785)
(0.000463197 5.65775e-05 0.407811)
(-0.000181076 6.29463e-05 0.412826)
(-0.000516654 6.84181e-05 0.422585)
(-0.000567418 7.7283e-05 0.43334)
(-0.000518833 9.16467e-05 0.450954)
(-0.00041041 0.000125728 0.467505)
(-0.0003867 0.000167887 0.492347)
(0.000525969 0.000251347 0.513357)
(0.00193252 0.000336296 0.574588)
(4.17738e-05 0.000877775 0.620079)
(-0.005481 0.00714736 0.913317)
(-0.0255334 0.289035 2.34702)
)
;
    }
    leftSides_periodic0
    {
        type            cyclic;
    }
    leftSides_periodic1
    {
        type            cyclic;
    }
    rightSides_periodic0
    {
        type            cyclic;
    }
    rightSides_periodic1
    {
        type            cyclic;
    }
    leftInOut_periodic0
    {
        type            calculated;
        value           nonuniform 0();
    }
    leftInOut_periodic1
    {
        type            calculated;
        value           uniform (0 0 0);
    }
    rightInOut_periodic0
    {
        type            calculated;
        value           nonuniform 0();
    }
    rightInOut_periodic1
    {
        type            calculated;
        value           uniform (0 0 0);
    }
    procBoundary3to0
    {
        type            processor;
        value           uniform (0 0 0);
    }
    procBoundary3to4
    {
        type            processor;
        value           uniform (0 0 0);
    }
    procBoundary3to5throughleftSides_periodic1
    {
        type            processorCyclic;
        value           uniform (0 0 0);
    }
    procBoundary3to5throughrightSides_periodic1
    {
        type            processorCyclic;
        value           uniform (0 0 0);
    }
}


// ************************************************************************* //
