0 	0 	0 	0
0 	8.97896e-36 	-3.33968e-36 	1.85414e-31
5.01672e-05 	6.97398e-07 	-3.57095e-07 	0.0172955
5.01672e-05 	6.97398e-07 	-3.57095e-07 	0.0172955
0.000100334 	2.92289e-07 	-1.10465e-06 	0.0332659
0.000150502 	-3.66284e-07 	-2.28271e-06 	0.0480889
0.000150502 	-3.66284e-07 	-2.28271e-06 	0.0480889
0.000200669 	-9.14317e-07 	-3.86631e-06 	0.0618548
0.000200669 	-9.14317e-07 	-3.86631e-06 	0.0618548
0.000250836 	-1.36789e-06 	-5.86667e-06 	0.0746405
0.000301003 	-1.7699e-06 	-8.26818e-06 	0.0865094
0.000301003 	-1.7699e-06 	-8.26818e-06 	0.0865094
0.000351171 	-2.13248e-06 	-1.10675e-05 	0.0975025
0.000401338 	-2.46085e-06 	-1.42699e-05 	0.107639
0.000451505 	-2.75679e-06 	-1.78967e-05 	0.116934
0.000451505 	-2.75679e-06 	-1.78967e-05 	0.116934
0.000501672 	-3.01947e-06 	-2.19822e-05 	0.125412
0.000551839 	-3.24676e-06 	-2.65626e-05 	0.133118
0.000551839 	-3.24676e-06 	-2.65626e-05 	0.133118
0.000602007 	-3.43676e-06 	-3.16663e-05 	0.140116
0.000602007 	-3.43676e-06 	-3.16663e-05 	0.140116
0.000652174 	-3.58885e-06 	-3.73146e-05 	0.146475
0.000652174 	-3.58885e-06 	-3.73146e-05 	0.146475
0.000702341 	-3.70397e-06 	-4.35263e-05 	0.15227
0.000702341 	-3.70397e-06 	-4.35263e-05 	0.15227
0.000752508 	-3.78412e-06 	-5.03166e-05 	0.157568
0.000802676 	-3.83156e-06 	-5.76998e-05 	0.162427
0.000852843 	-3.84465e-06 	-6.577e-05 	0.166838
0.000852843 	-3.84465e-06 	-6.577e-05 	0.166838
0.00090301 	-3.83113e-06 	-7.44019e-05 	0.170913
0.00090301 	-3.83113e-06 	-7.44019e-05 	0.170913
0.000953177 	-3.79354e-06 	-8.3546e-05 	0.17469
0.00100334 	-3.73434e-06 	-9.31517e-05 	0.178205
0.00100334 	-3.73434e-06 	-9.31517e-05 	0.178205
0.00105351 	-3.65579e-06 	-0.00010317 	0.18149
0.00105351 	-3.65579e-06 	-0.00010317 	0.18149
0.00110368 	-3.55961e-06 	-0.000113565 	0.184569
0.00115385 	-3.44401e-06 	-0.000124376 	0.18742
0.00120401 	-3.31592e-06 	-0.000135455 	0.19012
0.00120401 	-3.31592e-06 	-0.000135455 	0.19012
0.00130435 	-3.02796e-06 	-0.000158284 	0.195128
0.00130435 	-3.02796e-06 	-0.000158284 	0.195128
0.00135452 	-2.86801e-06 	-0.00017002 	0.197429
0.00135452 	-2.86801e-06 	-0.00017002 	0.197429
0.00140468 	-2.69969e-06 	-0.000181903 	0.19962
0.00145485 	-2.52488e-06 	-0.000193884 	0.201728
0.00145485 	-2.52488e-06 	-0.000193884 	0.201728
0.00150502 	-2.3441e-06 	-0.000205945 	0.203758
0.00150502 	-2.3441e-06 	-0.000205945 	0.203758
0.00155518 	-2.15476e-06 	-0.000218081 	0.205681
0.00155518 	-2.15476e-06 	-0.000218081 	0.205681
0.00160535 	-1.96075e-06 	-0.000230228 	0.207543
0.00160535 	-1.96075e-06 	-0.000230228 	0.207543
0.00165552 	-1.76272e-06 	-0.000242374 	0.209353
0.00165552 	-1.76272e-06 	-0.000242374 	0.209353
0.00170569 	-1.55967e-06 	-0.000254482 	0.211092
0.00170569 	-1.55967e-06 	-0.000254482 	0.211092
0.00175585 	-1.35317e-06 	-0.000266507 	0.212776
0.00175585 	-1.35317e-06 	-0.000266507 	0.212776
0.00180602 	-1.14447e-06 	-0.000278459 	0.214421
0.00180602 	-1.14447e-06 	-0.000278459 	0.214421
0.00185619 	-9.32888e-07 	-0.000290274 	0.216013
0.00185619 	-9.32888e-07 	-0.000290274 	0.216013
0.00190635 	-7.19187e-07 	-0.000301916 	0.21756
0.00190635 	-7.19187e-07 	-0.000301916 	0.21756
0.00195652 	-5.04249e-07 	-0.000313437 	0.219079
0.00195652 	-5.04249e-07 	-0.000313437 	0.219079
0.00200669 	-2.87429e-07 	-0.000324711 	0.22055
0.00200669 	-2.87429e-07 	-0.000324711 	0.22055
0.00205686 	-6.95695e-08 	-0.000335768 	0.221989
0.00210702 	1.48975e-07 	-0.000346681 	0.223406
0.00210702 	1.48975e-07 	-0.000346681 	0.223406
0.00215719 	3.68721e-07 	-0.000357187 	0.224773
0.00220736 	5.88768e-07 	-0.000367516 	0.226123
0.00225753 	8.09296e-07 	-0.000377561 	0.227444
0.00225753 	8.09296e-07 	-0.000377561 	0.227444
0.00230769 	1.03012e-06 	-0.000387237 	0.228733
0.00230769 	1.03012e-06 	-0.000387237 	0.228733
0.00235786 	1.25105e-06 	-0.000396752 	0.230008
0.00235786 	1.25105e-06 	-0.000396752 	0.230008
0.00240803 	1.47205e-06 	-0.000405745 	0.231242
0.00240803 	1.47205e-06 	-0.000405745 	0.231242
0.00245819 	1.69297e-06 	-0.000414546 	0.232463
0.00245819 	1.69297e-06 	-0.000414546 	0.232463
0.00250836 	1.91376e-06 	-0.000422958 	0.233656
0.00250836 	1.91376e-06 	-0.000422958 	0.233656
0.00255853 	2.13428e-06 	-0.000431014 	0.234826
0.0026087 	2.35462e-06 	-0.000438816 	0.235979
0.0026087 	2.35462e-06 	-0.000438816 	0.235979
0.00265886 	2.57451e-06 	-0.000446105 	0.237101
0.00270903 	2.79429e-06 	-0.000453273 	0.238215
0.00270903 	2.79429e-06 	-0.000453273 	0.238215
0.0027592 	3.01355e-06 	-0.000459785 	0.23929
0.00280936 	3.23275e-06 	-0.000466191 	0.240359
0.00280936 	3.23275e-06 	-0.000466191 	0.240359
0.00285953 	3.45166e-06 	-0.000472032 	0.241395
0.00285953 	3.45166e-06 	-0.000472032 	0.241395
0.0029097 	3.67057e-06 	-0.000477682 	0.24242
0.0029097 	3.67057e-06 	-0.000477682 	0.24242
0.00295987 	3.88946e-06 	-0.000482849 	0.243418
0.00295987 	3.88946e-06 	-0.000482849 	0.243418
0.00301003 	4.10845e-06 	-0.000487766 	0.244401
0.0030602 	4.32761e-06 	-0.000492272 	0.24536
0.00311037 	4.54695e-06 	-0.000496502 	0.246302
0.00311037 	4.54695e-06 	-0.000496502 	0.246302
0.00316054 	4.76654e-06 	-0.000500376 	0.247223
0.00316054 	4.76654e-06 	-0.000500376 	0.247223
0.00326087 	5.20645e-06 	-0.000507264 	0.249009
0.00326087 	5.20645e-06 	-0.000507264 	0.249009
0.00331104 	5.42694e-06 	-0.000510311 	0.249875
0.0033612 	5.6479e-06 	-0.00051306 	0.250719
0.0033612 	5.6479e-06 	-0.00051306 	0.250719
0.00341137 	5.8697e-06 	-0.00051562 	0.251548
0.00341137 	5.8697e-06 	-0.00051562 	0.251548
0.00346154 	6.09275e-06 	-0.000517892 	0.252354
0.00346154 	6.09275e-06 	-0.000517892 	0.252354
0.00351171 	6.31699e-06 	-0.000520034 	0.253148
0.00356187 	6.54386e-06 	-0.00052189 	0.253917
0.00356187 	6.54386e-06 	-0.00052189 	0.253917
0.00361204 	6.77164e-06 	-0.000523678 	0.254679
0.00366221 	7.00327e-06 	-0.000525173 	0.255412
0.00366221 	7.00327e-06 	-0.000525173 	0.255412
0.00371237 	7.23503e-06 	-0.000526659 	0.256145
0.00371237 	7.23503e-06 	-0.000526659 	0.256145
0.00376254 	7.47082e-06 	-0.000527838 	0.256846
0.00376254 	7.47082e-06 	-0.000527838 	0.256846
0.00381271 	7.70661e-06 	-0.000529018 	0.257547
0.00381271 	7.70661e-06 	-0.000529018 	0.257547
0.00386288 	7.94465e-06 	-0.000529965 	0.25822
0.00391304 	8.18315e-06 	-0.000530865 	0.258889
0.00391304 	8.18315e-06 	-0.000530865 	0.258889
0.00396321 	8.42255e-06 	-0.000531621 	0.259539
0.00401338 	8.66255e-06 	-0.000532277 	0.260175
0.00401338 	8.66255e-06 	-0.000532277 	0.260175
0.00406355 	8.9028e-06 	-0.000532867 	0.260801
0.00406355 	8.9028e-06 	-0.000532867 	0.260801
0.00411371 	9.14356e-06 	-0.000533313 	0.261406
0.00411371 	9.14356e-06 	-0.000533313 	0.261406
0.00421405 	9.6252e-06 	-0.000534033 	0.262582
0.00421405 	9.6252e-06 	-0.000534033 	0.262582
0.00426421 	9.86606e-06 	-0.000534305 	0.263154
0.00426421 	9.86606e-06 	-0.000534305 	0.263154
0.00431438 	1.01065e-05 	-0.000534489 	0.263706
0.00431438 	1.01065e-05 	-0.000534489 	0.263706
0.00436455 	1.03467e-05 	-0.000534623 	0.264246
0.00436455 	1.03467e-05 	-0.000534623 	0.264246
0.00441472 	1.05866e-05 	-0.000534732 	0.264778
0.00441472 	1.05866e-05 	-0.000534732 	0.264778
0.00446488 	1.08253e-05 	-0.000534762 	0.265286
0.00446488 	1.08253e-05 	-0.000534762 	0.265286
0.00451505 	1.10639e-05 	-0.000534791 	0.265793
0.00451505 	1.10639e-05 	-0.000534791 	0.265793
0.00456522 	1.13006e-05 	-0.000534767 	0.266276
0.00456522 	1.13006e-05 	-0.000534767 	0.266276
0.00461538 	1.15368e-05 	-0.000534728 	0.266751
0.00461538 	1.15368e-05 	-0.000534728 	0.266751
0.00466555 	1.17719e-05 	-0.000534678 	0.267217
0.00471572 	1.20045e-05 	-0.000534603 	0.267659
0.00476589 	1.22371e-05 	-0.000534528 	0.268102
0.00476589 	1.22371e-05 	-0.000534528 	0.268102
0.00486622 	1.2694e-05 	-0.000534371 	0.268931
0.00486622 	1.2694e-05 	-0.000534371 	0.268931
0.00491639 	1.29209e-05 	-0.000534296 	0.269336
0.00496656 	1.31431e-05 	-0.000534239 	0.269714
0.00496656 	1.31431e-05 	-0.000534239 	0.269714
0.00501672 	1.33652e-05 	-0.000534183 	0.270092
0.00506689 	1.35836e-05 	-0.000534151 	0.270453
0.00511706 	1.37989e-05 	-0.00053414 	0.270799
0.00511706 	1.37989e-05 	-0.00053414 	0.270799
0.00521739 	1.42225e-05 	-0.000534173 	0.271464
0.00521739 	1.42225e-05 	-0.000534173 	0.271464
0.00526756 	1.44299e-05 	-0.000534225 	0.271778
0.00526756 	1.44299e-05 	-0.000534225 	0.271778
0.00531773 	1.46358e-05 	-0.000534288 	0.272087
0.00536789 	1.48341e-05 	-0.000534415 	0.27237
0.00536789 	1.48341e-05 	-0.000534415 	0.27237
0.00541806 	1.50325e-05 	-0.000534541 	0.272653
0.00546823 	1.5227e-05 	-0.000534699 	0.272924
0.00551839 	1.54155e-05 	-0.000534907 	0.273176
0.00551839 	1.54155e-05 	-0.000534907 	0.273176
0.00556856 	1.5604e-05 	-0.000535115 	0.273427
0.00556856 	1.5604e-05 	-0.000535115 	0.273427
0.0056689 	1.59642e-05 	-0.000535659 	0.273883
0.0056689 	1.59642e-05 	-0.000535659 	0.273883
0.00571906 	1.61419e-05 	-0.000535949 	0.274105
0.00576923 	1.63115e-05 	-0.000536292 	0.274306
0.00576923 	1.63115e-05 	-0.000536292 	0.274306
0.0058194 	1.64774e-05 	-0.000536657 	0.274498
0.0058194 	1.64774e-05 	-0.000536657 	0.274498
0.00591973 	1.6799e-05 	-0.000537438 	0.27486
0.00591973 	1.6799e-05 	-0.000537438 	0.27486
0.0059699 	1.69516e-05 	-0.000537868 	0.275023
0.0059699 	1.69516e-05 	-0.000537868 	0.275023
0.00602007 	1.71042e-05 	-0.000538298 	0.275186
0.00607023 	1.72447e-05 	-0.000538764 	0.275328
0.0061204 	1.73822e-05 	-0.000539241 	0.275463
0.0061204 	1.73822e-05 	-0.000539241 	0.275463
0.00617057 	1.75196e-05 	-0.000539717 	0.275599
0.00622074 	1.7644e-05 	-0.000540215 	0.275714
0.00622074 	1.7644e-05 	-0.000540215 	0.275714
0.0062709 	1.77644e-05 	-0.000540719 	0.275823
0.00632107 	1.78848e-05 	-0.000541223 	0.275933
0.00632107 	1.78848e-05 	-0.000541223 	0.275933
0.00637124 	1.79921e-05 	-0.000541733 	0.276024
0.00637124 	1.79921e-05 	-0.000541733 	0.276024
0.0064214 	1.80933e-05 	-0.000542246 	0.276107
0.0064214 	1.80933e-05 	-0.000542246 	0.276107
0.00647157 	1.81945e-05 	-0.000542759 	0.27619
0.00647157 	1.81945e-05 	-0.000542759 	0.27619
0.00652174 	1.8284e-05 	-0.000543253 	0.27626
0.00657191 	1.83636e-05 	-0.000543731 	0.276318
0.00657191 	1.83636e-05 	-0.000543731 	0.276318
0.00662207 	1.84432e-05 	-0.00054421 	0.276376
0.00667224 	1.85144e-05 	-0.000544676 	0.276426
0.00672241 	1.85699e-05 	-0.000545122 	0.276459
0.00672241 	1.85699e-05 	-0.000545122 	0.276459
0.00677258 	1.86253e-05 	-0.000545567 	0.276493
0.00682274 	1.86781e-05 	-0.00054601 	0.276524
0.00682274 	1.86781e-05 	-0.00054601 	0.276524
0.00687291 	1.87063e-05 	-0.000546434 	0.276533
0.00687291 	1.87063e-05 	-0.000546434 	0.276533
0.00692308 	1.87344e-05 	-0.000546858 	0.276542
0.00697324 	1.87626e-05 	-0.000547283 	0.276551
0.00702341 	1.87667e-05 	-0.00054765 	0.276541
0.00707358 	1.87644e-05 	-0.000548002 	0.276527
0.00707358 	1.87644e-05 	-0.000548002 	0.276527
0.00717391 	1.87447e-05 	-0.000548699 	0.276487
0.00717391 	1.87447e-05 	-0.000548699 	0.276487
0.00722408 	1.87064e-05 	-0.000549032 	0.276448
0.00722408 	1.87064e-05 	-0.000549032 	0.276448
0.00727425 	1.86682e-05 	-0.000549366 	0.276409
0.00727425 	1.86682e-05 	-0.000549366 	0.276409
0.00732441 	1.863e-05 	-0.000549699 	0.27637
0.00732441 	1.863e-05 	-0.000549699 	0.27637
0.00737458 	1.85505e-05 	-0.00054996 	0.276308
0.00737458 	1.85505e-05 	-0.00054996 	0.276308
0.00742475 	1.84707e-05 	-0.000550219 	0.276245
0.00747492 	1.83908e-05 	-0.000550479 	0.276182
0.00752508 	1.82897e-05 	-0.00055066 	0.276108
0.00752508 	1.82897e-05 	-0.00055066 	0.276108
0.00757525 	1.81672e-05 	-0.000550763 	0.276021
0.00762542 	1.80447e-05 	-0.000550866 	0.275934
0.00767559 	1.79218e-05 	-0.000550969 	0.275847
0.00767559 	1.79218e-05 	-0.000550969 	0.275847
0.00772575 	1.77585e-05 	-0.000550973 	0.275737
0.00777592 	1.75953e-05 	-0.000550977 	0.275626
0.00777592 	1.75953e-05 	-0.000550977 	0.275626
0.00782609 	1.7432e-05 	-0.000550982 	0.275515
0.00787625 	1.72492e-05 	-0.00055089 	0.275391
0.00787625 	1.72492e-05 	-0.00055089 	0.275391
0.00792642 	1.70522e-05 	-0.000550729 	0.275257
0.00797659 	1.68552e-05 	-0.000550567 	0.275123
0.00802676 	1.66525e-05 	-0.000550373 	0.274984
0.00802676 	1.66525e-05 	-0.000550373 	0.274984
0.00807692 	1.64286e-05 	-0.000550055 	0.274827
0.00807692 	1.64286e-05 	-0.000550055 	0.274827
0.00812709 	1.62047e-05 	-0.000549738 	0.27467
0.00817726 	1.59809e-05 	-0.000549421 	0.274514
0.00817726 	1.59809e-05 	-0.000549421 	0.274514
0.00822742 	1.57361e-05 	-0.000549016 	0.274336
0.00827759 	1.5489e-05 	-0.000548603 	0.274157
0.00827759 	1.5489e-05 	-0.000548603 	0.274157
0.00832776 	1.5242e-05 	-0.000548189 	0.273977
0.00832776 	1.5242e-05 	-0.000548189 	0.273977
0.00837793 	1.49821e-05 	-0.000547694 	0.273783
0.00842809 	1.47153e-05 	-0.000547154 	0.273582
0.00842809 	1.47153e-05 	-0.000547154 	0.273582
0.00847826 	1.44486e-05 	-0.000546614 	0.27338
0.00847826 	1.44486e-05 	-0.000546614 	0.27338
0.0085786 	1.38912e-05 	-0.000545352 	0.272943
0.0085786 	1.38912e-05 	-0.000545352 	0.272943
0.00862876 	1.3608e-05 	-0.000544687 	0.272719
0.00867893 	1.33206e-05 	-0.000543983 	0.272488
0.0087291 	1.30239e-05 	-0.000543194 	0.272241
0.00877926 	1.27273e-05 	-0.000542406 	0.271995
0.00882943 	1.24282e-05 	-0.000541588 	0.271743
0.0088796 	1.21207e-05 	-0.000540676 	0.271474
0.0088796 	1.21207e-05 	-0.000540676 	0.271474
0.00892977 	1.18133e-05 	-0.000539764 	0.271205
0.00892977 	1.18133e-05 	-0.000539764 	0.271205
0.00897993 	1.15041e-05 	-0.000538827 	0.270931
0.00897993 	1.15041e-05 	-0.000538827 	0.270931
0.0090301 	1.11882e-05 	-0.000537793 	0.27064
0.00908027 	1.08724e-05 	-0.000536759 	0.270348
0.00908027 	1.08724e-05 	-0.000536759 	0.270348
0.00913043 	1.0555e-05 	-0.000535697 	0.270052
0.0091806 	1.02327e-05 	-0.000534541 	0.269738
0.0091806 	1.02327e-05 	-0.000534541 	0.269738
0.00923077 	9.91046e-06 	-0.000533385 	0.269424
0.00928094 	9.58678e-06 	-0.000532191 	0.269102
0.00928094 	9.58678e-06 	-0.000532191 	0.269102
0.0093311 	9.25994e-06 	-0.000530913 	0.268765
0.00938127 	8.93309e-06 	-0.000529635 	0.268429
0.00938127 	8.93309e-06 	-0.000529635 	0.268429
0.00943144 	8.60494e-06 	-0.000528303 	0.268082
0.00943144 	8.60494e-06 	-0.000528303 	0.268082
0.00948161 	8.2751e-06 	-0.000526901 	0.267721
0.00948161 	8.2751e-06 	-0.000526901 	0.267721
0.00953177 	7.94526e-06 	-0.0005255 	0.267361
0.00953177 	7.94526e-06 	-0.0005255 	0.267361
0.00958194 	7.61441e-06 	-0.000524021 	0.266987
0.00958194 	7.61441e-06 	-0.000524021 	0.266987
0.00963211 	7.28293e-06 	-0.000522495 	0.266604
0.00968227 	6.95145e-06 	-0.000520969 	0.26622
0.00968227 	6.95145e-06 	-0.000520969 	0.26622
0.00973244 	6.61956e-06 	-0.000519335 	0.265816
0.00978261 	6.28761e-06 	-0.000517682 	0.265409
0.00978261 	6.28761e-06 	-0.000517682 	0.265409
0.00983278 	5.95572e-06 	-0.000516013 	0.264999
0.00983278 	5.95572e-06 	-0.000516013 	0.264999
0.00988294 	5.62429e-06 	-0.00051423 	0.264567
0.00993311 	5.29287e-06 	-0.000512447 	0.264136
0.00993311 	5.29287e-06 	-0.000512447 	0.264136
0.00998328 	4.96208e-06 	-0.000510603 	0.263693
0.0100334 	4.63206e-06 	-0.000508687 	0.263236
0.0100836 	4.30204e-06 	-0.00050677 	0.26278
0.0100836 	4.30204e-06 	-0.00050677 	0.26278
0.0101338 	3.97383e-06 	-0.000504739 	0.262303
0.0101839 	3.64601e-06 	-0.000502684 	0.261821
0.0101839 	3.64601e-06 	-0.000502684 	0.261821
0.0102341 	3.31889e-06 	-0.000500595 	0.261333
0.0102341 	3.31889e-06 	-0.000500595 	0.261333
0.0102843 	2.99396e-06 	-0.000498396 	0.260825
0.0103344 	2.66904e-06 	-0.000496198 	0.260317
0.0103344 	2.66904e-06 	-0.000496198 	0.260317
0.0103846 	2.34662e-06 	-0.000493893 	0.25979
0.0103846 	2.34662e-06 	-0.000493893 	0.25979
0.0104348 	2.02524e-06 	-0.000491545 	0.259256
0.0104348 	2.02524e-06 	-0.000491545 	0.259256
0.0104849 	1.70475e-06 	-0.000489162 	0.258715
0.0104849 	1.70475e-06 	-0.000489162 	0.258715
0.0105351 	1.38747e-06 	-0.000486657 	0.258153
0.0105853 	1.0702e-06 	-0.000484152 	0.25759
0.0105853 	1.0702e-06 	-0.000484152 	0.25759
0.0106856 	4.43802e-07 	-0.000478851 	0.256415
0.0106856 	4.43802e-07 	-0.000478851 	0.256415
0.0107358 	1.32989e-07 	-0.000476118 	0.255813
0.010786 	-1.74628e-07 	-0.000473277 	0.255193
0.010786 	-1.74628e-07 	-0.000473277 	0.255193
0.0108361 	-4.82212e-07 	-0.000470434 	0.254572
0.0108863 	-7.84373e-07 	-0.000467412 	0.253921
0.0108863 	-7.84373e-07 	-0.000467412 	0.253921
0.0109365 	-1.08653e-06 	-0.00046439 	0.25327
0.0109365 	-1.08653e-06 	-0.00046439 	0.25327
0.0109866 	-1.38468e-06 	-0.00046124 	0.252597
0.0110368 	-1.68098e-06 	-0.000458031 	0.251913
0.0110368 	-1.68098e-06 	-0.000458031 	0.251913
0.011087 	-1.97473e-06 	-0.000454741 	0.251217
0.011087 	-1.97473e-06 	-0.000454741 	0.251217
0.0111371 	-2.26476e-06 	-0.000451334 	0.2505
0.0111873 	-2.55365e-06 	-0.000447892 	0.249778
0.0111873 	-2.55365e-06 	-0.000447892 	0.249778
0.0112375 	-2.83692e-06 	-0.000444273 	0.249026
0.0112876 	-3.12019e-06 	-0.000440655 	0.248275
0.0112876 	-3.12019e-06 	-0.000440655 	0.248275
0.0113378 	-3.39643e-06 	-0.000436815 	0.247488
0.0113378 	-3.39643e-06 	-0.000436815 	0.247488
0.011388 	-3.67244e-06 	-0.000432969 	0.246701
0.0114381 	-3.94233e-06 	-0.000428917 	0.245881
0.0114381 	-3.94233e-06 	-0.000428917 	0.245881
0.0114883 	-4.21077e-06 	-0.000424817 	0.245054
0.0115385 	-4.47372e-06 	-0.000420516 	0.244197
0.0115385 	-4.47372e-06 	-0.000420516 	0.244197
0.0115886 	-4.73418e-06 	-0.000416124 	0.243327
0.0116388 	-4.98941e-06 	-0.000411528 	0.242428
0.0116388 	-4.98941e-06 	-0.000411528 	0.242428
0.011689 	-5.24118e-06 	-0.000406798 	0.24151
0.0117391 	-5.48793e-06 	-0.000401854 	0.240564
0.0117893 	-5.73064e-06 	-0.000396736 	0.239594
0.0118395 	-5.96862e-06 	-0.000391383 	0.238594
0.0118395 	-5.96862e-06 	-0.000391383 	0.238594
0.0118896 	-6.20259e-06 	-0.000385832 	0.237567
0.0119398 	-6.43201e-06 	-0.000380017 	0.236505
0.0119398 	-6.43201e-06 	-0.000380017 	0.236505
0.01199 	-6.65794e-06 	-0.000374001 	0.235416
0.0120401 	-6.87917e-06 	-0.000367686 	0.234285
0.0120401 	-6.87917e-06 	-0.000367686 	0.234285
0.0120903 	-7.09755e-06 	-0.00036119 	0.233129
0.0120903 	-7.09755e-06 	-0.00036119 	0.233129
0.0121906 	-7.52155e-06 	-0.000347366 	0.230694
0.0121906 	-7.52155e-06 	-0.000347366 	0.230694
0.0122408 	-7.72605e-06 	-0.000339976 	0.229402
0.012291 	-7.92934e-06 	-0.000332508 	0.228098
0.012291 	-7.92934e-06 	-0.000332508 	0.228098
0.0123411 	-8.12468e-06 	-0.000324557 	0.226712
0.0123913 	-8.31842e-06 	-0.000316514 	0.22531
0.0123913 	-8.31842e-06 	-0.000316514 	0.22531
0.0124415 	-8.50546e-06 	-0.000308085 	0.223839
0.0124415 	-8.50546e-06 	-0.000308085 	0.223839
0.0124916 	-8.68888e-06 	-0.000299465 	0.222329
0.0124916 	-8.68888e-06 	-0.000299465 	0.222329
0.0125418 	-8.86721e-06 	-0.000290574 	0.220767
0.012592 	-9.03938e-06 	-0.00028139 	0.219139
0.0126421 	-9.20851e-06 	-0.000272062 	0.21748
0.0126421 	-9.20851e-06 	-0.000272062 	0.21748
0.0126923 	-9.3683e-06 	-0.00026235 	0.215724
0.0127425 	-9.52483e-06 	-0.000252525 	0.213935
0.0127425 	-9.52483e-06 	-0.000252525 	0.213935
0.0127926 	-9.67373e-06 	-0.00024244 	0.212068
0.0128428 	-9.81568e-06 	-0.000232175 	0.210132
0.0128428 	-9.81568e-06 	-0.000232175 	0.210132
0.0129431 	-1.00789e-05 	-0.000211198 	0.206059
0.0129431 	-1.00789e-05 	-0.000211198 	0.206059
0.0129933 	-1.01991e-05 	-0.00020054 	0.203915
0.0130435 	-1.03113e-05 	-0.000189794 	0.201697
0.0130435 	-1.03113e-05 	-0.000189794 	0.201697
0.0131438 	-1.05051e-05 	-0.000168206 	0.196986
0.0131438 	-1.05051e-05 	-0.000168206 	0.196986
0.013194 	-1.05873e-05 	-0.000157434 	0.194503
0.0132441 	-1.06565e-05 	-0.000146754 	0.19191
0.0132441 	-1.06565e-05 	-0.000146754 	0.19191
0.0132943 	-1.07165e-05 	-0.000136161 	0.189241
0.0133445 	-1.07632e-05 	-0.000125718 	0.186463
0.0133445 	-1.07632e-05 	-0.000125718 	0.186463
0.0133946 	-1.07935e-05 	-0.000115514 	0.183553
0.0133946 	-1.07935e-05 	-0.000115514 	0.183553
0.0134448 	-1.08118e-05 	-0.000105504 	0.18055
0.0134448 	-1.08118e-05 	-0.000105504 	0.18055
0.013495 	-1.08167e-05 	-9.57206e-05 	0.17744
0.0135452 	-1.07983e-05 	-8.63652e-05 	0.174154
0.0135452 	-1.07983e-05 	-8.63652e-05 	0.174154
0.0135953 	-1.0764e-05 	-7.73177e-05 	0.170747
0.0135953 	-1.0764e-05 	-7.73177e-05 	0.170747
0.0136455 	-1.07125e-05 	-6.86053e-05 	0.16721
0.0136455 	-1.07125e-05 	-6.86053e-05 	0.16721
0.0136957 	-1.0639e-05 	-6.03263e-05 	0.163509
0.0136957 	-1.0639e-05 	-6.03263e-05 	0.163509
0.0137458 	-1.05383e-05 	-5.25922e-05 	0.159598
0.013796 	-1.04157e-05 	-4.53055e-05 	0.155515
0.013796 	-1.04157e-05 	-4.53055e-05 	0.155515
0.0138462 	-1.02695e-05 	-3.84967e-05 	0.151246
0.0138462 	-1.02695e-05 	-3.84967e-05 	0.151246
0.0138963 	-1.00983e-05 	-3.21972e-05 	0.146776
0.0139465 	-9.89155e-06 	-2.65985e-05 	0.142016
0.0139465 	-9.89155e-06 	-2.65985e-05 	0.142016
0.0139967 	-9.6551e-06 	-2.15585e-05 	0.137008
0.0139967 	-9.6551e-06 	-2.15585e-05 	0.137008
0.0140468 	-9.38786e-06 	-1.70767e-05 	0.13174
0.0140468 	-9.38786e-06 	-1.70767e-05 	0.13174
0.014097 	-9.08783e-06 	-1.31618e-05 	0.126189
0.0141472 	-8.75273e-06 	-9.8144e-06 	0.120332
0.0141472 	-8.75273e-06 	-9.8144e-06 	0.120332
0.0141973 	-8.3799e-06 	-7.02052e-06 	0.114143
0.0142475 	-7.96026e-06 	-4.82386e-06 	0.107522
0.0142977 	-7.50006e-06 	-3.09281e-06 	0.100484
0.0142977 	-7.50006e-06 	-3.09281e-06 	0.100484
0.0143478 	-7.00335e-06 	-1.78281e-06 	0.0930181
0.014398 	-6.47711e-06 	-8.54015e-07 	0.0851415
0.014398 	-6.47711e-06 	-8.54015e-07 	0.0851415
0.0144482 	-5.93059e-06 	-2.55501e-07 	0.0769119
0.0144983 	-5.37455e-06 	7.59128e-08 	0.0684337
0.0144983 	-5.37455e-06 	7.59128e-08 	0.0684337
0.0145485 	-4.81997e-06 	2.11167e-07 	0.0598579
0.0145485 	-4.81997e-06 	2.11167e-07 	0.0598579
0.0145987 	-4.27577e-06 	2.22206e-07 	0.0513668
0.0146488 	-3.74614e-06 	1.73109e-07 	0.0431443
0.014699 	-3.22872e-06 	1.1181e-07 	0.0353413
0.014699 	-3.22872e-06 	1.1181e-07 	0.0353413
0.0147492 	-2.71328e-06 	6.66266e-08 	0.0280552
0.0147993 	-2.17783e-06 	4.63547e-08 	0.0213316
0.0147993 	-2.17783e-06 	4.63547e-08 	0.0213316
0.0148495 	-1.57589e-06 	4.81436e-08 	0.0151809
0.0148495 	-1.57589e-06 	4.81436e-08 	0.0151809
0.0148997 	-8.85325e-07 	4.674e-08 	0.00959388
0.0148997 	-8.85325e-07 	4.674e-08 	0.00959388
0.0149498 	-2.64585e-07 	3.24466e-08 	0.00454903
0.0149498 	-2.64585e-07 	3.24466e-08 	0.00454903
0.015 	0 	0 	0
0.015 	0 	0 	0
