0 	0 	0 	0
5.01672e-05 	-3.05195e-05 	-5.60767e-06 	0.020585
0.000100334 	-6.1039e-05 	-1.12153e-05 	0.04117
0.000150502 	-9.15586e-05 	-1.6823e-05 	0.0617549
0.000200669 	-0.000122078 	-2.24307e-05 	0.0823399
0.000250836 	-0.000152598 	-2.80383e-05 	0.102925
0.000301003 	-0.000183117 	-3.3646e-05 	0.12351
0.000351171 	-0.000210459 	-4.00444e-05 	0.141924
0.000401338 	-0.000225784 	-4.9433e-05 	0.152126
0.000451505 	-0.000241108 	-5.88216e-05 	0.162329
0.000501672 	-0.000256433 	-6.82103e-05 	0.172532
0.000551839 	-0.000271758 	-7.75989e-05 	0.182735
0.000602007 	-0.000287083 	-8.69875e-05 	0.192938
0.000652174 	-0.000302408 	-9.63761e-05 	0.203141
0.000702341 	-0.000317733 	-0.000105765 	0.213344
0.000752508 	-0.000329575 	-0.00011533 	0.22216
0.000802676 	-0.000332785 	-0.000125334 	0.227537
0.000852843 	-0.000335994 	-0.000135337 	0.232915
0.00090301 	-0.000339203 	-0.000145341 	0.238293
0.000953177 	-0.000342413 	-0.000155344 	0.243671
0.00100334 	-0.000345622 	-0.000165348 	0.249049
0.00105351 	-0.000348831 	-0.000175351 	0.254426
0.00110368 	-0.000352041 	-0.000185355 	0.259804
0.00115385 	-0.00035525 	-0.000195358 	0.265182
0.00120401 	-0.000358216 	-0.000205296 	0.270454
0.00125418 	-0.00035618 	-0.00021389 	0.273554
0.00130435 	-0.000354144 	-0.000222484 	0.276654
0.00135452 	-0.000352108 	-0.000231078 	0.279755
0.00140468 	-0.000350072 	-0.000239673 	0.282855
0.00145485 	-0.000348036 	-0.000248267 	0.285955
0.00150502 	-0.000346 	-0.000256861 	0.289056
0.00155518 	-0.000343964 	-0.000265455 	0.292156
0.00160535 	-0.000341928 	-0.000274049 	0.295256
0.00165552 	-0.000339892 	-0.000282643 	0.298356
0.00170569 	-0.000337856 	-0.000291237 	0.301457
0.00175585 	-0.000335548 	-0.000299296 	0.304262
0.00180602 	-0.000332488 	-0.000305885 	0.306256
0.00185619 	-0.000329429 	-0.000312473 	0.308251
0.00190635 	-0.00032637 	-0.000319061 	0.310245
0.00195652 	-0.00032331 	-0.00032565 	0.312239
0.00200669 	-0.000320251 	-0.000332238 	0.314234
0.00205686 	-0.000317192 	-0.000338827 	0.316228
0.00210702 	-0.000314133 	-0.000345415 	0.318222
0.00215719 	-0.000311073 	-0.000352003 	0.320217
0.00220736 	-0.000308014 	-0.000358592 	0.322211
0.00225753 	-0.000304955 	-0.00036518 	0.324206
0.00230769 	-0.000301895 	-0.000371769 	0.3262
0.00235786 	-0.000298836 	-0.000378357 	0.328194
0.00240803 	-0.00029619 	-0.000383535 	0.329739
0.00245819 	-0.000293729 	-0.000388083 	0.331083
0.00250836 	-0.000291268 	-0.000392632 	0.332427
0.00255853 	-0.000288807 	-0.000397181 	0.333771
0.0026087 	-0.000286345 	-0.00040173 	0.335115
0.00265886 	-0.000283884 	-0.000406279 	0.336459
0.00270903 	-0.000281423 	-0.000410828 	0.337803
0.0027592 	-0.000278962 	-0.000415377 	0.339147
0.00280936 	-0.0002765 	-0.000419925 	0.340491
0.00285953 	-0.000274039 	-0.000424474 	0.341835
0.0029097 	-0.000271578 	-0.000429023 	0.343179
0.00295987 	-0.000269117 	-0.000433572 	0.344523
0.00301003 	-0.000266655 	-0.000438121 	0.345867
0.0030602 	-0.000264194 	-0.00044267 	0.347211
0.00311037 	-0.000261752 	-0.000447185 	0.348545
0.00316054 	-0.00026015 	-0.000450265 	0.34944
0.0032107 	-0.000258547 	-0.000453346 	0.350334
0.00326087 	-0.000256945 	-0.000456426 	0.351229
0.00331104 	-0.000255343 	-0.000459506 	0.352123
0.0033612 	-0.00025374 	-0.000462586 	0.353018
0.00341137 	-0.000252138 	-0.000465666 	0.353912
0.00346154 	-0.000250535 	-0.000468747 	0.354807
0.00351171 	-0.000248933 	-0.000471827 	0.355702
0.00356187 	-0.00024733 	-0.000474907 	0.356596
0.00361204 	-0.000245728 	-0.000477987 	0.357491
0.00366221 	-0.000244126 	-0.000481067 	0.358385
0.00371237 	-0.000242523 	-0.000484147 	0.35928
0.00376254 	-0.000240921 	-0.000487228 	0.360174
0.00381271 	-0.000239318 	-0.000490308 	0.361069
0.00386288 	-0.000237716 	-0.000493388 	0.361963
0.00391304 	-0.000236113 	-0.000496468 	0.362858
0.00396321 	-0.000234511 	-0.000499548 	0.363753
0.00401338 	-0.000233414 	-0.000501788 	0.364335
0.00406355 	-0.000232366 	-0.000503945 	0.364887
0.00411371 	-0.000231318 	-0.000506103 	0.365438
0.00416388 	-0.000230271 	-0.00050826 	0.36599
0.00421405 	-0.000229223 	-0.000510417 	0.366541
0.00426421 	-0.000228175 	-0.000512575 	0.367093
0.00431438 	-0.000227127 	-0.000514732 	0.367645
0.00436455 	-0.00022608 	-0.000516889 	0.368196
0.00441472 	-0.000225032 	-0.000519047 	0.368748
0.00446488 	-0.000223984 	-0.000521204 	0.3693
0.00451505 	-0.000222937 	-0.000523361 	0.369851
0.00456522 	-0.000221889 	-0.000525519 	0.370403
0.00461538 	-0.000220841 	-0.000527676 	0.370955
0.00466555 	-0.000219793 	-0.000529833 	0.371506
0.00471572 	-0.000218746 	-0.00053199 	0.372058
0.00476589 	-0.000217698 	-0.000534148 	0.37261
0.00481605 	-0.00021665 	-0.000536305 	0.373161
0.00486622 	-0.000215603 	-0.000538462 	0.373713
0.00491639 	-0.000214555 	-0.00054062 	0.374265
0.00496656 	-0.000213507 	-0.000542777 	0.374816
0.00501672 	-0.000212687 	-0.000544189 	0.37511
0.00506689 	-0.000211879 	-0.000545562 	0.37539
0.00511706 	-0.000211071 	-0.000546935 	0.37567
0.00516722 	-0.000210263 	-0.000548307 	0.375949
0.00521739 	-0.000209455 	-0.00054968 	0.376229
0.00526756 	-0.000208647 	-0.000551052 	0.376509
0.00531773 	-0.000207839 	-0.000552425 	0.376789
0.00536789 	-0.000207031 	-0.000553797 	0.377069
0.00541806 	-0.000206223 	-0.00055517 	0.377348
0.00546823 	-0.000205415 	-0.000556542 	0.377628
0.00551839 	-0.000204607 	-0.000557915 	0.377908
0.00556856 	-0.000203799 	-0.000559287 	0.378188
0.00561873 	-0.000202991 	-0.00056066 	0.378468
0.0056689 	-0.000202183 	-0.000562032 	0.378747
0.00571906 	-0.000201375 	-0.000563405 	0.379027
0.00576923 	-0.000200567 	-0.000564777 	0.379307
0.0058194 	-0.000199759 	-0.00056615 	0.379587
0.00586957 	-0.000198951 	-0.000567522 	0.379867
0.00591973 	-0.000198143 	-0.000568895 	0.380146
0.0059699 	-0.000197336 	-0.000570268 	0.380426
0.00602007 	-0.000196528 	-0.00057164 	0.380706
0.00607023 	-0.00019572 	-0.000573013 	0.380986
0.0061204 	-0.000194912 	-0.000574385 	0.381266
0.00617057 	-0.0001942 	-0.000575204 	0.381397
0.00622074 	-0.000193538 	-0.000575741 	0.381453
0.0062709 	-0.000192876 	-0.000576278 	0.38151
0.00632107 	-0.000192214 	-0.000576816 	0.381566
0.00637124 	-0.000191552 	-0.000577353 	0.381622
0.0064214 	-0.00019089 	-0.000577891 	0.381679
0.00647157 	-0.000190228 	-0.000578428 	0.381735
0.00652174 	-0.000189566 	-0.000578966 	0.381791
0.00657191 	-0.000188904 	-0.000579503 	0.381848
0.00662207 	-0.000188242 	-0.00058004 	0.381904
0.00667224 	-0.00018758 	-0.000580578 	0.38196
0.00672241 	-0.000186918 	-0.000581115 	0.382016
0.00677258 	-0.000186256 	-0.000581653 	0.382073
0.00682274 	-0.000185594 	-0.00058219 	0.382129
0.00687291 	-0.000184932 	-0.000582728 	0.382185
0.00692308 	-0.00018427 	-0.000583265 	0.382242
0.00697324 	-0.000183609 	-0.000583802 	0.382298
0.00702341 	-0.000182947 	-0.00058434 	0.382354
0.00707358 	-0.000182285 	-0.000584877 	0.38241
0.00712375 	-0.000181623 	-0.000585415 	0.382467
0.00717391 	-0.000180961 	-0.000585952 	0.382523
0.00722408 	-0.000180299 	-0.000586489 	0.382579
0.00727425 	-0.000179637 	-0.000587027 	0.382636
0.00732441 	-0.000178975 	-0.000587564 	0.382692
0.00737458 	-0.000178313 	-0.000588102 	0.382748
0.00742475 	-0.000177651 	-0.000588639 	0.382804
0.00747492 	-0.000176989 	-0.000589177 	0.382861
0.00752508 	-0.000176384 	-0.000589288 	0.382816
0.00757525 	-0.000175838 	-0.000588974 	0.382671
0.00762542 	-0.000175292 	-0.000588659 	0.382525
0.00767559 	-0.000174746 	-0.000588345 	0.38238
0.00772575 	-0.0001742 	-0.000588031 	0.382235
0.00777592 	-0.000173654 	-0.000587716 	0.382089
0.00782609 	-0.000173108 	-0.000587402 	0.381944
0.00787625 	-0.000172562 	-0.000587088 	0.381799
0.00792642 	-0.000172016 	-0.000586773 	0.381653
0.00797659 	-0.00017147 	-0.000586459 	0.381508
0.00802676 	-0.000170924 	-0.000586144 	0.381362
0.00807692 	-0.000170378 	-0.00058583 	0.381217
0.00812709 	-0.000169832 	-0.000585516 	0.381072
0.00817726 	-0.000169286 	-0.000585201 	0.380926
0.00822742 	-0.00016874 	-0.000584887 	0.380781
0.00827759 	-0.000168193 	-0.000584573 	0.380635
0.00832776 	-0.000167647 	-0.000584258 	0.38049
0.00837793 	-0.000167101 	-0.000583944 	0.380345
0.00842809 	-0.000166555 	-0.00058363 	0.380199
0.00847826 	-0.000166009 	-0.000583315 	0.380054
0.00852843 	-0.000165463 	-0.000583001 	0.379909
0.0085786 	-0.000164917 	-0.000582686 	0.379763
0.00862876 	-0.000164371 	-0.000582372 	0.379618
0.00867893 	-0.000163825 	-0.000582058 	0.379472
0.0087291 	-0.000163279 	-0.000581743 	0.379327
0.00877926 	-0.000162733 	-0.000581429 	0.379182
0.00882943 	-0.000162187 	-0.000581115 	0.379036
0.0088796 	-0.000161702 	-0.000580443 	0.378808
0.00892977 	-0.000161336 	-0.000579067 	0.378415
0.00897993 	-0.000160971 	-0.00057769 	0.378022
0.0090301 	-0.000160606 	-0.000576314 	0.377629
0.00908027 	-0.00016024 	-0.000574938 	0.377236
0.00913043 	-0.000159875 	-0.000573562 	0.376843
0.0091806 	-0.00015951 	-0.000572186 	0.376451
0.00923077 	-0.000159145 	-0.000570809 	0.376058
0.00928094 	-0.000158779 	-0.000569433 	0.375665
0.0093311 	-0.000158414 	-0.000568057 	0.375272
0.00938127 	-0.000158049 	-0.000566681 	0.374879
0.00943144 	-0.000157683 	-0.000565304 	0.374486
0.00948161 	-0.000157318 	-0.000563928 	0.374093
0.00953177 	-0.000156953 	-0.000562552 	0.373701
0.00958194 	-0.000156588 	-0.000561176 	0.373308
0.00963211 	-0.000156222 	-0.0005598 	0.372915
0.00968227 	-0.000155857 	-0.000558423 	0.372522
0.00973244 	-0.000155492 	-0.000557047 	0.372129
0.00978261 	-0.000155126 	-0.000555671 	0.371736
0.00983278 	-0.000154761 	-0.000554295 	0.371344
0.00988294 	-0.000154396 	-0.000552918 	0.370951
0.00993311 	-0.000154031 	-0.000551542 	0.370558
0.00998328 	-0.000153665 	-0.000550166 	0.370165
0.0100334 	-0.000153322 	-0.000548731 	0.369757
0.0100836 	-0.000153395 	-0.000546204 	0.369071
0.0101338 	-0.000153467 	-0.000543677 	0.368385
0.0101839 	-0.000153539 	-0.00054115 	0.367699
0.0102341 	-0.000153611 	-0.000538622 	0.367013
0.0102843 	-0.000153683 	-0.000536095 	0.366328
0.0103344 	-0.000153756 	-0.000533568 	0.365642
0.0103846 	-0.000153828 	-0.000531041 	0.364956
0.0104348 	-0.0001539 	-0.000528514 	0.36427
0.0104849 	-0.000153972 	-0.000525986 	0.363584
0.0105351 	-0.000154045 	-0.000523459 	0.362898
0.0105853 	-0.000154117 	-0.000520932 	0.362212
0.0106355 	-0.000154189 	-0.000518405 	0.361526
0.0106856 	-0.000154261 	-0.000515878 	0.36084
0.0107358 	-0.000154334 	-0.00051335 	0.360154
0.010786 	-0.000154406 	-0.000510823 	0.359468
0.0108361 	-0.000154478 	-0.000508296 	0.358782
0.0108863 	-0.00015455 	-0.000505769 	0.358096
0.0109365 	-0.000154622 	-0.000503242 	0.35741
0.0109866 	-0.000154695 	-0.000500714 	0.356724
0.0110368 	-0.000154842 	-0.000498046 	0.356004
0.011087 	-0.000155753 	-0.000493942 	0.354939
0.0111371 	-0.000156664 	-0.000489838 	0.353873
0.0111873 	-0.000157575 	-0.000485734 	0.352808
0.0112375 	-0.000158486 	-0.00048163 	0.351742
0.0112876 	-0.000159397 	-0.000477526 	0.350677
0.0113378 	-0.000160308 	-0.000473422 	0.349611
0.011388 	-0.000161219 	-0.000469318 	0.348546
0.0114381 	-0.00016213 	-0.000465214 	0.34748
0.0114883 	-0.000163041 	-0.00046111 	0.346414
0.0115385 	-0.000163952 	-0.000457006 	0.345349
0.0115886 	-0.000164863 	-0.000452902 	0.344283
0.0116388 	-0.000165774 	-0.000448798 	0.343218
0.011689 	-0.000166685 	-0.000444694 	0.342152
0.0117391 	-0.000167597 	-0.00044059 	0.341087
0.0117893 	-0.000168508 	-0.000436486 	0.340021
0.0118395 	-0.000169419 	-0.000432382 	0.338956
0.0118896 	-0.00017033 	-0.000428278 	0.33789
0.0119398 	-0.000172455 	-0.000421755 	0.336267
0.01199 	-0.000174608 	-0.000415176 	0.334632
0.0120401 	-0.000176762 	-0.000408596 	0.332996
0.0120903 	-0.000178915 	-0.000402017 	0.331361
0.0121405 	-0.000181068 	-0.000395438 	0.329725
0.0121906 	-0.000183222 	-0.000388859 	0.328089
0.0122408 	-0.000185375 	-0.000382279 	0.326454
0.012291 	-0.000187529 	-0.0003757 	0.324818
0.0123411 	-0.000189682 	-0.000369121 	0.323183
0.0123913 	-0.000191835 	-0.000362541 	0.321547
0.0124415 	-0.000193989 	-0.000355962 	0.319912
0.0124916 	-0.000196142 	-0.000349383 	0.318276
0.0125418 	-0.000198295 	-0.000342804 	0.31664
0.012592 	-0.000200449 	-0.000336224 	0.315005
0.0126421 	-0.000202945 	-0.000328724 	0.313073
0.0126923 	-0.00020621 	-0.000319157 	0.310478
0.0127425 	-0.000209474 	-0.000309591 	0.307883
0.0127926 	-0.000212739 	-0.000300024 	0.305288
0.0128428 	-0.000216004 	-0.000290458 	0.302692
0.012893 	-0.000219269 	-0.000280891 	0.300097
0.0129431 	-0.000222534 	-0.000271325 	0.297502
0.0129933 	-0.000225798 	-0.000261758 	0.294907
0.0130435 	-0.000229063 	-0.000252191 	0.292311
0.0130936 	-0.000232328 	-0.000242625 	0.289716
0.0131438 	-0.000235593 	-0.000233058 	0.287121
0.013194 	-0.000238858 	-0.000223492 	0.284525
0.0132441 	-0.000242122 	-0.000213925 	0.28193
0.0132943 	-0.000244838 	-0.000203039 	0.278079
0.0133445 	-0.000247355 	-0.000191674 	0.27377
0.0133946 	-0.000249872 	-0.000180309 	0.269462
0.0134448 	-0.000252388 	-0.000168944 	0.265154
0.013495 	-0.000254905 	-0.000157578 	0.260845
0.0135452 	-0.000257421 	-0.000146213 	0.256537
0.0135953 	-0.000259938 	-0.000134848 	0.252228
0.0136455 	-0.000262454 	-0.000123483 	0.24792
0.0136957 	-0.000264971 	-0.000112117 	0.243612
0.0137458 	-0.000267487 	-0.000100752 	0.239303
0.013796 	-0.000270004 	-8.93867e-05 	0.234995
0.0138462 	-0.000266743 	-8.0291e-05 	0.227466
0.0138963 	-0.0002632 	-7.13059e-05 	0.21978
0.0139465 	-0.000259657 	-6.23209e-05 	0.212093
0.0139967 	-0.000256114 	-5.33358e-05 	0.204407
0.0140468 	-0.000252571 	-4.43507e-05 	0.196721
0.014097 	-0.000249029 	-3.53656e-05 	0.189035
0.0141472 	-0.000245486 	-2.63806e-05 	0.181349
0.0141973 	-0.000241943 	-1.73955e-05 	0.173663
0.0142475 	-0.0002384 	-8.41043e-06 	0.165977
0.0142977 	-0.000227246 	-4.17327e-06 	0.155615
0.0143478 	-0.000213022 	-1.85099e-06 	0.144175
0.014398 	-0.000198797 	4.71298e-07 	0.132735
0.0144482 	-0.000184573 	2.79358e-06 	0.121295
0.0144983 	-0.000170349 	5.11587e-06 	0.109854
0.0145485 	-0.000156125 	7.43815e-06 	0.098414
0.0145987 	-0.000141901 	9.76044e-06 	0.0869738
0.0146488 	-0.000127677 	1.20827e-05 	0.0755335
0.014699 	-0.000110179 	1.11047e-05 	0.064623
0.0147492 	-9.18158e-05 	9.2539e-06 	0.0538525
0.0147993 	-7.34527e-05 	7.40312e-06 	0.043082
0.0148495 	-5.50895e-05 	5.55234e-06 	0.0323115
0.0148997 	-3.67263e-05 	3.70156e-06 	0.021541
0.0149498 	-1.83632e-05 	1.85078e-06 	0.0107705
0.015 	0 	0 	0
