-0.0075 	373
-0.00715932 	360.737
-0.00676191 	358.823
-0.00629832 	358.058
-0.00575752 	357.587
-0.00512667 	357.217
-0.00439077 	356.886
-0.00353231 	356.566
-0.00253089 	356.239
-0.00136271 	355.887
0 	355.498
0.00136271 	355.074
0.00253089 	354.63
0.00353231 	354.174
0.00439077 	353.691
0.00512667 	353.143
0.00575752 	352.45
0.00629832 	351.424
0.00676191 	349.216
0.00715932 	338.095
0.0075 	313
