/*--------------------------------*- C++ -*----------------------------------*\
| =========                 |                                                 |
| \\      /  F ield         | OpenFOAM: The Open Source CFD Toolbox           |
|  \\    /   O peration     | Version:  v1912                                 |
|   \\  /    A nd           | Website:  www.openfoam.com                      |
|    \\/     M anipulation  |                                                 |
\*---------------------------------------------------------------------------*/
FoamFile
{
    version     2.0;
    format      ascii;
    class       volScalarField;
    location    "197.6";
    object      alphat;
}
// * * * * * * * * * * * * * * * * * * * * * * * * * * * * * * * * * * * * * //

dimensions      [1 -1 -1 0 0 0 0];


internalField   nonuniform List<scalar> 
10077
(
0.0191103
0.0173595
0.0153501
0.0149788
0.0150496
0.0150572
0.0150255
0.0149909
0.0149851
0.0149943
0.0150327
0.0150678
0.0150635
0.0149952
0.0153638
0.01736
0.0186607
0.0170688
0.0153632
0.0150529
0.0151117
0.0150924
0.0150418
0.014992
0.014983
0.0149956
0.0150493
0.0151033
0.0151261
0.0150699
0.0153781
0.0170706
0.0181915
0.0167671
0.0153478
0.0150981
0.0151484
0.0151062
0.0150385
0.0149748
0.0149631
0.0149786
0.0150462
0.0151172
0.0151631
0.0151156
0.0153635
0.0167702
0.0177114
0.0164596
0.0153062
0.0151153
0.01516
0.0150989
0.0150159
0.0149408
0.014927
0.0149446
0.0150239
0.0151101
0.0151749
0.0151331
0.0153225
0.016464
0.0172291
0.0161507
0.0152411
0.0151059
0.0151473
0.0150712
0.014975
0.0148907
0.0148752
0.0148946
0.0149831
0.0150826
0.0151624
0.015124
0.0152581
0.0161563
0.0167515
0.0158438
0.0151552
0.0150715
0.0151115
0.0150241
0.0149168
0.0148251
0.0148082
0.0148291
0.014925
0.0150356
0.0151266
0.0150897
0.0151727
0.0158505
0.0162841
0.0155415
0.0150511
0.0150139
0.0150538
0.0149584
0.0148422
0.0147447
0.0147268
0.0147488
0.0148506
0.01497
0.0150689
0.0150321
0.0150688
0.0155493
0.0158313
0.0152455
0.014931
0.0149354
0.0149764
0.0148751
0.0147524
0.0146505
0.0146318
0.0146547
0.0147609
0.0148869
0.0149916
0.0149536
0.0149488
0.0152543
0.0153958
0.0149568
0.0147966
0.0148388
0.0148818
0.014776
0.0146486
0.0145431
0.0145241
0.0145474
0.0146571
0.0147878
0.0148969
0.014857
0.0148145
0.0149664
0.0149793
0.0146758
0.0146495
0.0147257
0.0147712
0.0146628
0.0145319
0.0144237
0.0144044
0.014428
0.0145405
0.0146747
0.0147862
0.0147437
0.0146675
0.0146861
0.0145825
0.0144023
0.0144914
0.0145971
0.0146455
0.0145362
0.014403
0.0142932
0.0142739
0.0142975
0.0144116
0.0145481
0.0146604
0.014615
0.0145094
0.0144132
0.0142051
0.0141357
0.0143237
0.0144541
0.0145053
0.0143968
0.0142621
0.0141518
0.0141328
0.0141561
0.0142707
0.0144086
0.01452
0.0144717
0.0143416
0.0141472
0.0138464
0.0138755
0.0141472
0.0142975
0.0143512
0.014245
0.0141097
0.0139996
0.0139811
0.014004
0.0141182
0.0142567
0.0143658
0.0143148
0.0141646
0.0138874
0.013505
0.0136207
0.013962
0.0141283
0.0141842
0.0140817
0.0139463
0.013837
0.013819
0.0138413
0.0139546
0.0140931
0.0141985
0.0141452
0.0139787
0.0136329
0.0131793
0.0133704
0.0137683
0.0139475
0.0140053
0.0139074
0.0137727
0.0136643
0.0136471
0.0136686
0.0137809
0.0139187
0.0140193
0.013964
0.0137845
0.0133829
0.0128677
0.0131238
0.0135668
0.0137563
0.0138155
0.0137227
0.0135899
0.0134825
0.0134662
0.0134868
0.013598
0.0137338
0.0138293
0.0137724
0.0135827
0.0131365
0.0125684
0.0128803
0.0133582
0.0135558
0.0136163
0.0135283
0.0133991
0.0132927
0.0132773
0.013297
0.0134071
0.0135393
0.0136298
0.0135716
0.0133738
0.0128931
0.0122798
0.0126391
0.0131426
0.0133467
0.0134083
0.0133242
0.0132008
0.0130958
0.0130813
0.0131
0.0132086
0.0133351
0.0134215
0.0133621
0.0131582
0.012652
0.0120003
0.0123997
0.0129204
0.0131294
0.0131921
0.013111
0.0129951
0.0128925
0.0128791
0.0128967
0.0130028
0.0131216
0.013205
0.0131445
0.0129358
0.0124127
0.0117285
0.0121616
0.0126914
0.0129041
0.0129679
0.0128899
0.012782
0.0126827
0.0126705
0.0126868
0.0127897
0.0129002
0.0129806
0.0129189
0.0127068
0.0121746
0.0114633
0.0119245
0.0124569
0.012671
0.0127361
0.0126612
0.0125618
0.0124664
0.0124553
0.0124705
0.0125694
0.0126713
0.0127485
0.0126855
0.0124719
0.0119375
0.0112034
0.0116882
0.0122178
0.0124302
0.0124965
0.0124257
0.0123344
0.0122437
0.0122338
0.0122477
0.0123418
0.0124356
0.0125088
0.0124444
0.0122322
0.0117011
0.0109479
0.0114525
0.0119745
0.0121833
0.0122501
0.0121839
0.0120993
0.0120148
0.012006
0.0120187
0.0121066
0.0121936
0.012262
0.0121971
0.0119883
0.0114653
0.0106963
0.0112174
0.0117271
0.0119318
0.0119979
0.0119365
0.0118575
0.0117797
0.0117718
0.0117835
0.0118646
0.0119459
0.0120095
0.011945
0.0117405
0.0112302
0.0104479
0.0109828
0.0114763
0.0116764
0.0117412
0.0116842
0.0116097
0.0115386
0.0115315
0.0115423
0.0116166
0.0116933
0.0117524
0.0116891
0.0114892
0.0109954
0.0102025
0.0107472
0.0112224
0.0114176
0.0114812
0.0114275
0.0113569
0.0112915
0.0112851
0.0112951
0.0113636
0.0114365
0.011492
0.0114298
0.0112349
0.0107595
0.0099594
0.010509
0.0109648
0.0111547
0.0112175
0.0111662
0.0110988
0.0110382
0.0110326
0.0110418
0.0111054
0.0111749
0.0112279
0.0111664
0.010977
0.010521
0.00971798
0.0102669
0.0107025
0.0108866
0.0109456
0.0108993
0.0108346
0.0107783
0.0107733
0.0107818
0.010841
0.0109078
0.0109546
0.0108979
0.0107143
0.0102785
0.00947782
0.0100203
0.0104311
0.0105687
0.010609
0.010589
0.0105512
0.010511
0.0105068
0.0105144
0.0105568
0.0105964
0.0106175
0.0105785
0.0104415
0.0100314
0.00923803
0.00976869
0.0100807
0.0102137
0.0102531
0.0102328
0.0101962
0.0101655
0.0101589
0.0101685
0.0102014
0.0102397
0.0102612
0.010223
0.0100906
0.00977939
0.00899742
0.0094826
0.00970895
0.00984834
0.00989241
0.00986396
0.00982132
0.00978901
0.00978257
0.00979184
0.00982644
0.00987071
0.0099003
0.00985736
0.00971881
0.00949007
0.00875572
0.00909581
0.00933667
0.00948088
0.00952964
0.00949353
0.0094452
0.00940911
0.00940365
0.00941184
0.00945018
0.00950004
0.00953722
0.00948968
0.00934641
0.00910268
0.00845869
0.00869848
0.00896936
0.00911338
0.00916496
0.00912419
0.00907288
0.00903447
0.00903021
0.00903713
0.0090777
0.00913046
0.0091722
0.00912189
0.00897884
0.00870546
0.00807915
0.00831992
0.00860812
0.00874733
0.00879968
0.00875726
0.00870567
0.00866711
0.00866393
0.00866967
0.0087103
0.00876326
0.00880656
0.00875548
0.00861724
0.00832702
0.00770283
0.007964
0.00825314
0.00838452
0.00843603
0.00839412
0.00834421
0.00830717
0.00830488
0.00830962
0.00834862
0.00839984
0.00844255
0.00839227
0.00826182
0.00797101
0.00735244
0.00762648
0.0079045
0.00802662
0.0080762
0.0080361
0.00798902
0.00795447
0.00795291
0.00795679
0.00799321
0.00804153
0.00808238
0.00803394
0.0079127
0.00763326
0.00702785
0.00730239
0.00756241
0.00767502
0.007722
0.00768438
0.00764072
0.00760903
0.00760805
0.00761122
0.00764468
0.00768952
0.00772784
0.00768192
0.00757011
0.00730882
0.00672342
0.00698844
0.00722739
0.00733097
0.00737493
0.00734012
0.00730011
0.00727129
0.00727078
0.00727335
0.00730383
0.00734496
0.00738043
0.00733746
0.0072346
0.00699446
0.00643388
0.00668324
0.00690046
0.00699583
0.00703649
0.00700466
0.00696834
0.00694224
0.00694208
0.00694416
0.00697182
0.0070092
0.00704167
0.00700192
0.0069072
0.00668883
0.00615585
0.00638661
0.0065829
0.00667098
0.00670823
0.00667941
0.00664672
0.00662307
0.00662317
0.00662486
0.00664995
0.00668366
0.00671309
0.00667669
0.00658917
0.00639177
0.00588768
0.006099
0.00627586
0.00635761
0.00639148
0.00636559
0.00633631
0.00631487
0.00631515
0.00631652
0.0063393
0.00636954
0.00639603
0.00636295
0.0062817
0.00610375
0.00562873
0.00582109
0.0059803
0.0060565
0.00608715
0.00606401
0.00603788
0.00601841
0.00601881
0.00601993
0.00604063
0.00606768
0.00609141
0.00606149
0.00598572
0.00582547
0.00537863
0.00555328
0.00569659
0.0057678
0.00579551
0.00577487
0.00575155
0.00573389
0.00573438
0.00573529
0.00575409
0.00577828
0.00579949
0.00577246
0.00570163
0.0055573
0.00513674
0.00529524
0.00542429
0.0054908
0.00551592
0.00549748
0.00547665
0.00546067
0.00546123
0.00546197
0.00547899
0.00550064
0.00551964
0.00549516
0.00542897
0.00529893
0.00490199
0.00504589
0.00516206
0.00522404
0.0052469
0.00523037
0.00521173
0.00519737
0.00519799
0.00519857
0.00521389
0.00523331
0.00525039
0.00522811
0.00516642
0.0050493
0.00467303
0.00480368
0.00490811
0.00496564
0.00498654
0.00497166
0.00495497
0.00494216
0.00494285
0.00494327
0.00495697
0.00497441
0.00498981
0.00496946
0.00491216
0.00480681
0.00444844
0.00456694
0.00466058
0.00471377
0.00473293
0.00471952
0.00470459
0.00469327
0.00469402
0.0046943
0.00470645
0.00472208
0.00473601
0.00471736
0.00466435
0.00456983
0.00422698
0.00433423
0.00441789
0.00446688
0.00448447
0.00447238
0.00445907
0.00444917
0.00444998
0.00445012
0.0044608
0.00447479
0.00448737
0.00447025
0.00442139
0.00433689
0.00400766
0.00410438
0.00417878
0.00422375
0.00423989
0.00422902
0.00421721
0.00420865
0.0042095
0.00420953
0.00421882
0.00423128
0.00424262
0.00422693
0.00418204
0.00410684
0.00378972
0.00387655
0.00394233
0.00398346
0.00399821
0.00398849
0.00397809
0.00397077
0.00397166
0.00397159
0.0039796
0.00399061
0.0040008
0.00398644
0.00394537
0.00387881
0.0035726
0.00365011
0.00370787
0.00374531
0.00375875
0.00375011
0.00374103
0.00373485
0.00373578
0.00373562
0.00374245
0.00375211
0.00376119
0.00374811
0.00371068
0.00365218
0.00335593
0.00342465
0.00347491
0.00350883
0.003521
0.0035134
0.00350557
0.00350043
0.00350138
0.00350114
0.00350689
0.00351527
0.0035233
0.00351146
0.00347751
0.00342654
0.00313933
0.00319978
0.00324307
0.00327364
0.00328458
0.00327794
0.00327129
0.0032671
0.00326806
0.00326776
0.00327253
0.00327971
0.00328675
0.0032761
0.00324547
0.00320151
0.00292185
0.00297466
0.00301151
0.00303896
0.00304871
0.00304298
0.00303743
0.00303407
0.00303506
0.0030347
0.00303859
0.00304466
0.00305077
0.00304128
0.00301373
0.00297624
0.00269954
0.00274586
0.00277698
0.00280183
0.00281047
0.00280552
0.00280093
0.00279831
0.00279934
0.00279891
0.00280206
0.00280714
0.00281247
0.00280404
0.00277907
0.00274731
0.00247359
0.00251354
0.0025395
0.00256178
0.00256935
0.0025652
0.00256152
0.00255952
0.00256052
0.00256007
0.00256257
0.00256672
0.00257122
0.00256385
0.00254141
0.00251486
0.00225113
0.00228506
0.00230627
0.00232606
0.00233259
0.00232919
0.00232633
0.00232489
0.00232585
0.0023254
0.0023273
0.0023306
0.00233432
0.00232796
0.00230801
0.00228623
0.00203315
0.00206146
0.00207835
0.00209573
0.00210126
0.00209857
0.00209645
0.00209548
0.00209641
0.00209595
0.00209735
0.00209987
0.00210286
0.00209747
0.00207992
0.0020625
0.00181988
0.001843
0.001856
0.0018711
0.00187568
0.00187363
0.00187219
0.00187163
0.00187251
0.00187206
0.00187301
0.00187483
0.00187716
0.00187269
0.00185741
0.00184392
0.00161192
0.0016303
0.00163986
0.00165285
0.00165654
0.00165507
0.00165421
0.00165398
0.00165481
0.00165437
0.00165496
0.00165616
0.00165789
0.00165427
0.0016411
0.00163109
0.00141027
0.0014244
0.00143099
0.00144202
0.00144491
0.00144394
0.00144359
0.00144363
0.00144439
0.00144398
0.00144426
0.00144493
0.00144612
0.00144329
0.00143208
0.00142508
0.00121628
0.00122659
0.00123062
0.00123987
0.00124202
0.0012415
0.00124157
0.00124182
0.00124251
0.00124213
0.00124217
0.00124238
0.0012431
0.00124099
0.00123156
0.00122716
0.00103121
0.0010377
0.00103919
0.00104677
0.00104814
0.00104809
0.00104861
0.00104905
0.00104968
0.00104932
0.00104914
0.00104887
0.00104911
0.00104775
0.00103999
0.00103816
0.00085443
0.000853175
0.000849012
0.000854603
0.000854291
0.000855407
0.000857136
0.000858102
0.000858693
0.000858359
0.000857632
0.000856141
0.000855192
0.000855474
0.000849664
0.000853495
0.000665718
0.00066267
0.000657733
0.000662039
0.000661361
0.000662601
0.000664377
0.000665327
0.00066582
0.000665541
0.00066479
0.000663214
0.000662116
0.000662758
0.000658255
0.000662907
0.000495204
0.000491286
0.000486287
0.00048949
0.000488674
0.000489873
0.00049153
0.000492393
0.000492787
0.000492565
0.00049186
0.000490364
0.000489281
0.000490059
0.000486689
0.000491453
0.000347973
0.000343999
0.000339526
0.000341816
0.000341041
0.000342084
0.000343486
0.000344193
0.00034449
0.000344323
0.000343735
0.000342456
0.000341502
0.000342245
0.000339819
0.000344111
0.000228208
0.0002248
0.000221248
0.000222807
0.000222172
0.000222992
0.000224069
0.000224594
0.000224802
0.000224685
0.000224244
0.000223255
0.000222498
0.000223108
0.00022145
0.00022487
0.000137941
0.000135435
0.000132955
0.000133941
0.000133489
0.000134064
0.000134804
0.000135157
0.000135291
0.000135216
0.000134917
0.000134233
0.0001337
0.000134135
0.000133083
0.000135476
7.59522e-05
7.43755e-05
7.28671e-05
7.34343e-05
7.31578e-05
7.35124e-05
7.39612e-05
7.41718e-05
7.4249e-05
7.4206e-05
7.40264e-05
7.36104e-05
7.32804e-05
7.3547e-05
7.29404e-05
7.43972e-05
3.77046e-05
3.68594e-05
3.60665e-05
3.63584e-05
3.62142e-05
3.64034e-05
3.66404e-05
3.67509e-05
3.67906e-05
3.67685e-05
3.66739e-05
3.64539e-05
3.62774e-05
3.64163e-05
3.6104e-05
3.68701e-05
1.66956e-05
1.63116e-05
1.59543e-05
1.6087e-05
1.60234e-05
1.61101e-05
1.6218e-05
1.62683e-05
1.62863e-05
1.62763e-05
1.62332e-05
1.6133e-05
1.6052e-05
1.61132e-05
1.59712e-05
1.63164e-05
6.48924e-06
6.3424e-06
6.2057e-06
6.25817e-06
6.23471e-06
6.26853e-06
6.31043e-06
6.33009e-06
6.33717e-06
6.33323e-06
6.31642e-06
6.27751e-06
6.24592e-06
6.26846e-06
6.21238e-06
6.34433e-06
2.14945e-06
2.10312e-06
2.05965e-06
2.07721e-06
2.07012e-06
2.08111e-06
2.09471e-06
2.10115e-06
2.10352e-06
2.1022e-06
2.09671e-06
2.0841e-06
2.07384e-06
2.08063e-06
2.06188e-06
2.10379e-06
5.74176e-07
5.62664e-07
5.51714e-07
5.5644e-07
5.5477e-07
5.57609e-07
5.61121e-07
5.62805e-07
5.63441e-07
5.63085e-07
5.61656e-07
5.58408e-07
5.5576e-07
5.57352e-07
5.52316e-07
5.62854e-07
1.11603e-07
1.09558e-07
1.07577e-07
1.08499e-07
1.08223e-07
1.08752e-07
1.09406e-07
1.09725e-07
1.09849e-07
1.09779e-07
1.09511e-07
1.08907e-07
1.08414e-07
1.08676e-07
1.07694e-07
1.09597e-07
1.29966e-08
1.27793e-08
1.25648e-08
1.2672e-08
1.26452e-08
1.27045e-08
1.27776e-08
1.28138e-08
1.28283e-08
1.28201e-08
1.27898e-08
1.27225e-08
1.26673e-08
1.26925e-08
1.25785e-08
1.2784e-08
8.14287e-10
7.97662e-10
7.82484e-10
7.884e-10
7.86268e-10
7.90687e-10
7.95753e-10
7.98195e-10
7.98978e-10
7.98565e-10
7.96463e-10
7.91746e-10
7.87578e-10
7.89592e-10
7.83249e-10
7.97871e-10
3.2028e-10
3.10123e-10
3.01841e-10
3.03502e-10
3.02004e-10
3.04461e-10
3.07022e-10
3.0818e-10
3.08384e-10
3.08304e-10
3.07258e-10
3.04826e-10
3.02465e-10
3.03902e-10
3.02061e-10
3.10119e-10
0.0144119
0.0152682
0.0160014
0.0157338
0.0154002
0.0152223
0.01517
0.0151587
0.0151575
0.0151633
0.0151783
0.0152317
0.015408
0.0157384
0.0160014
0.0152681
0.0148377
0.0154772
0.0159573
0.0156833
0.0153823
0.0152542
0.0152289
0.0152348
0.0152367
0.0152391
0.0152367
0.0152631
0.0153897
0.0156872
0.0159562
0.015476
0.0152081
0.0156459
0.0158988
0.0156172
0.0153457
0.0152614
0.0152599
0.0152806
0.0152853
0.0152848
0.0152673
0.01527
0.0153529
0.0156207
0.0158971
0.0156436
0.0155191
0.0157734
0.015827
0.0155377
0.0152927
0.0152463
0.0152652
0.0152987
0.0153058
0.0153026
0.0152723
0.0152545
0.0152997
0.0155408
0.0158246
0.0157701
0.0157701
0.0158601
0.0157423
0.0154465
0.0152252
0.015211
0.0152472
0.0152913
0.0153004
0.0152951
0.0152541
0.0152189
0.015232
0.0154494
0.0157394
0.015856
0.0159622
0.0159073
0.0156454
0.0153451
0.0151447
0.0151575
0.0152079
0.0152605
0.0152713
0.0152642
0.0152145
0.0151652
0.0151515
0.0153478
0.0156419
0.0159024
0.0160974
0.0159167
0.0155364
0.0152343
0.0150526
0.0150875
0.015149
0.0152083
0.0152204
0.0152119
0.0151555
0.015095
0.0150593
0.0152369
0.0155326
0.0159112
0.0161789
0.0158909
0.0154159
0.0151151
0.0149498
0.0150031
0.0150729
0.0151373
0.0151503
0.0151409
0.0150793
0.0150105
0.0149566
0.0151176
0.0154121
0.0158849
0.0162104
0.0158329
0.0152848
0.0149884
0.0148384
0.0149066
0.0149826
0.0150507
0.0150643
0.0150542
0.014989
0.014914
0.0148452
0.0149909
0.0152809
0.0158265
0.0161962
0.0157461
0.0151436
0.0148556
0.0147198
0.0147992
0.0148799
0.0149505
0.0149643
0.0149539
0.0148862
0.0148068
0.0147266
0.0148581
0.0151403
0.0157395
0.016141
0.0156337
0.014993
0.0147171
0.0145943
0.0146816
0.0147655
0.0148376
0.0148514
0.014841
0.0147718
0.0146892
0.0146011
0.0147196
0.0149902
0.0156269
0.0160492
0.0154983
0.0148333
0.0145727
0.0144617
0.0145536
0.0146396
0.0147124
0.014726
0.0147158
0.0146458
0.0145612
0.0144685
0.0145752
0.0148309
0.0154914
0.0159249
0.015342
0.0146645
0.0144219
0.0143214
0.0144149
0.0145022
0.0145752
0.0145884
0.0145785
0.0145084
0.0144227
0.0143283
0.0144244
0.0146628
0.0153351
0.0157717
0.0151669
0.014487
0.0142643
0.0141734
0.0142654
0.0143534
0.0144258
0.0144387
0.0144292
0.0143595
0.0142731
0.0141801
0.0142669
0.014486
0.0151601
0.015593
0.014975
0.0143008
0.0140987
0.014017
0.0141048
0.0141931
0.0142647
0.014277
0.014268
0.0141992
0.0141125
0.0140238
0.0141016
0.0143005
0.0149682
0.0153921
0.0147679
0.014106
0.0139237
0.0138519
0.0139336
0.0140215
0.0140919
0.0141036
0.0140952
0.0140275
0.0139413
0.0138587
0.0139271
0.0141062
0.0147613
0.0151718
0.0145473
0.0139028
0.013739
0.0136775
0.0137522
0.0138387
0.013908
0.0139189
0.0139112
0.0138447
0.01376
0.0136845
0.0137429
0.0139034
0.0145409
0.0149347
0.0143149
0.0136914
0.0135449
0.0134929
0.0135617
0.0136451
0.0137131
0.0137233
0.0137162
0.013651
0.0135694
0.0135
0.0135492
0.0136924
0.0143087
0.0146834
0.014072
0.0134724
0.013342
0.0132983
0.0133623
0.0134417
0.0135076
0.013517
0.0135107
0.0134476
0.0133699
0.0133056
0.0133467
0.0134736
0.014066
0.0144199
0.0138199
0.0132463
0.013131
0.0130945
0.0131548
0.0132294
0.0132927
0.0133012
0.0132958
0.0132351
0.0131623
0.013102
0.0131359
0.0132477
0.0138141
0.0141463
0.0135597
0.0130139
0.0129125
0.0128826
0.01294
0.0130092
0.0130696
0.0130773
0.0130727
0.0130148
0.0129474
0.0128901
0.0129176
0.0130155
0.0135542
0.0138475
0.0132924
0.0127758
0.0126875
0.0126633
0.0127185
0.0127823
0.0128395
0.0128462
0.0128425
0.0127879
0.0127259
0.0126708
0.0126928
0.0127776
0.0132871
0.0133627
0.0130182
0.0125326
0.0124564
0.0124371
0.0124909
0.0125501
0.0126029
0.0126088
0.0126059
0.0125556
0.0124982
0.0124446
0.0124618
0.0125344
0.013013
0.0128655
0.0127374
0.0122848
0.0122199
0.0122049
0.0122575
0.0123128
0.0123609
0.012366
0.0123638
0.0123182
0.0122647
0.0122123
0.0122253
0.0122866
0.0127324
0.0124187
0.0123519
0.0120327
0.0119786
0.0119672
0.012019
0.0120708
0.0121142
0.0121187
0.0121171
0.0120761
0.012026
0.0119746
0.0119839
0.0120345
0.0123526
0.0120321
0.0119449
0.011777
0.011733
0.0117248
0.0117759
0.0118245
0.0118642
0.0118681
0.0118671
0.0118298
0.0117828
0.011732
0.0117383
0.0117788
0.0119471
0.0116934
0.0115676
0.0115082
0.0114825
0.0114771
0.0115187
0.011544
0.0115535
0.0115606
0.0115563
0.0115491
0.0115254
0.0114842
0.0114877
0.0115123
0.0115696
0.0113842
0.011226
0.0111739
0.0111723
0.0111701
0.0111975
0.0112199
0.0112254
0.0112325
0.0112282
0.0112248
0.0112039
0.0111773
0.0111785
0.0111781
0.0112272
0.0110872
0.0109077
0.0108247
0.0108278
0.0108279
0.0108593
0.010886
0.0108972
0.0109028
0.0108998
0.0108906
0.0108653
0.0108346
0.0108337
0.0108282
0.0109081
0.0107889
0.0105952
0.0104743
0.0104763
0.0104787
0.0105184
0.0105498
0.0105683
0.0105721
0.0105707
0.0105541
0.0105241
0.0104849
0.0104816
0.0104771
0.0105949
0.0104792
0.010273
0.0101236
0.0101253
0.01013
0.0101762
0.0102101
0.010234
0.0102362
0.0102364
0.0102143
0.0101816
0.0101358
0.0101301
0.0101257
0.0102722
0.0101513
0.00993374
0.00977167
0.00977542
0.0097822
0.00983155
0.00986556
0.00989233
0.00989315
0.00989458
0.0098696
0.00983671
0.00978768
0.00977967
0.00977336
0.00993263
0.00980295
0.00957838
0.00941824
0.00942551
0.00943403
0.00948374
0.00951624
0.00954372
0.0095435
0.00954587
0.00952013
0.00948869
0.00943923
0.00942945
0.00941968
0.00957715
0.00943658
0.00921223
0.00906333
0.00907464
0.00908435
0.00913271
0.0091629
0.00918983
0.00918882
0.00919188
0.00916664
0.00913745
0.00908932
0.00907837
0.00906465
0.00921103
0.00905794
0.0088411
0.00870753
0.00872261
0.00873296
0.0087791
0.00880681
0.00883255
0.00883095
0.00883451
0.00881038
0.00878364
0.00873773
0.0087262
0.0087088
0.00884003
0.00867399
0.00846974
0.008352
0.00837013
0.00838065
0.00842425
0.00844961
0.00847394
0.00847191
0.0084758
0.00845302
0.00842859
0.00838523
0.00837361
0.00835328
0.00846883
0.00829077
0.00810173
0.00799841
0.00801874
0.00802906
0.00807006
0.00809339
0.00811622
0.0081139
0.00811798
0.00809661
0.00807421
0.00803346
0.00802213
0.0079997
0.00810097
0.00791294
0.00773988
0.00764886
0.00767059
0.00768045
0.00771893
0.00774053
0.00776186
0.00775938
0.00776351
0.00774358
0.00772288
0.00768468
0.00767389
0.00765019
0.00773926
0.00754399
0.00738665
0.00730582
0.00732826
0.00733748
0.00737358
0.00739374
0.00741355
0.00741102
0.00741509
0.0073966
0.00737731
0.00734153
0.00733146
0.00730717
0.00738615
0.00718669
0.00704433
0.0069719
0.00699451
0.007003
0.00703684
0.00705578
0.0070741
0.0070716
0.00707552
0.00705845
0.00704036
0.00700687
0.0069976
0.00697327
0.00704394
0.00684307
0.00671468
0.00664931
0.00667171
0.00667944
0.00671116
0.00672903
0.0067459
0.0067435
0.00674721
0.00673151
0.00671447
0.00668312
0.00667469
0.00665068
0.00671438
0.00651404
0.00639845
0.00633926
0.00636125
0.00636827
0.00639799
0.00641488
0.00643039
0.0064281
0.0064316
0.00641717
0.00640109
0.00637176
0.00636411
0.00634064
0.00639822
0.00619921
0.00609517
0.00604176
0.00606321
0.00606963
0.00609746
0.00611338
0.00612767
0.00612548
0.00612878
0.00611551
0.00610037
0.00607294
0.00606596
0.00604313
0.00609501
0.005897
0.0058033
0.00575555
0.00577645
0.00578241
0.0058084
0.00582334
0.00583654
0.00583442
0.00583756
0.00582532
0.00581113
0.00578555
0.00577908
0.00575692
0.00580321
0.00560516
0.00552072
0.00547861
0.00549893
0.00550459
0.00552879
0.00554272
0.00555495
0.00555288
0.00555589
0.00554456
0.00553135
0.00550757
0.00550147
0.00547999
0.0055207
0.00532137
0.00524529
0.00520875
0.00522847
0.00523393
0.00525637
0.00526929
0.00528065
0.00527861
0.00528152
0.00527101
0.0052588
0.00523677
0.00523092
0.00521013
0.00524534
0.0050437
0.00497524
0.00494407
0.00496315
0.0049685
0.00498923
0.00500113
0.00501168
0.00500967
0.00501249
0.00500275
0.00499153
0.00497122
0.00496552
0.00494546
0.00497535
0.00477071
0.00470923
0.00468313
0.00470153
0.00470682
0.00472587
0.00473679
0.00474657
0.00474461
0.00474733
0.00473832
0.00472806
0.00470942
0.00470383
0.00468453
0.00470941
0.00450135
0.00444633
0.00442492
0.00444259
0.00444786
0.00446529
0.00447528
0.0044843
0.0044824
0.00448501
0.00447673
0.00446738
0.00445035
0.00444483
0.00442633
0.00444657
0.00423493
0.00418591
0.00416881
0.00418572
0.00419096
0.00420685
0.00421594
0.00422422
0.0042224
0.00422489
0.00421732
0.00420883
0.00419335
0.00418788
0.00417022
0.0041862
0.00397105
0.00392764
0.00391442
0.00393056
0.0039358
0.00395019
0.00395846
0.003966
0.00396428
0.00396663
0.00395976
0.00395209
0.00393809
0.00393266
0.00391583
0.00392797
0.00370955
0.00367137
0.00366167
0.00367704
0.00368227
0.00369524
0.00370273
0.00370955
0.00370793
0.00371014
0.00370397
0.00369705
0.00368446
0.00367908
0.00366307
0.00367175
0.00345041
0.00341713
0.00341058
0.00342521
0.00343043
0.00344207
0.00344884
0.00345493
0.00345344
0.00345549
0.00345001
0.00344379
0.00343254
0.00342719
0.00341198
0.00341754
0.0031935
0.00316477
0.00316108
0.00317506
0.00318029
0.00319068
0.00319679
0.00320218
0.00320082
0.0032027
0.00319791
0.00319233
0.00318232
0.00317698
0.00316247
0.00316522
0.00293753
0.00291287
0.00291191
0.00292555
0.00293092
0.00294023
0.00294576
0.00295047
0.00294926
0.00295097
0.00294682
0.00294183
0.00293291
0.00292745
0.00291333
0.00291336
0.0026793
0.00265846
0.00265948
0.0026724
0.00267769
0.00268591
0.00269092
0.00269501
0.00269392
0.00269549
0.00269194
0.00268743
0.00267958
0.00267422
0.00266087
0.00265896
0.0024266
0.00240932
0.002412
0.00242414
0.00242932
0.00243649
0.00244096
0.00244445
0.0024435
0.00244489
0.00244192
0.00243792
0.00243109
0.00242586
0.00241334
0.00240983
0.00218078
0.00216681
0.00217088
0.00218225
0.00218728
0.00219349
0.00219745
0.00220036
0.00219955
0.00220078
0.00219834
0.00219482
0.00218894
0.00218387
0.00217216
0.00216732
0.00194227
0.00193133
0.00193652
0.0019471
0.00195196
0.00195729
0.00196078
0.00196316
0.00196249
0.00196354
0.00196161
0.00195852
0.0019535
0.00194862
0.00193775
0.00193183
0.00171173
0.00170354
0.00170955
0.00171932
0.00172396
0.00172849
0.00173156
0.00173345
0.00173292
0.0017338
0.00173231
0.00172962
0.00172538
0.00172074
0.00171071
0.00170402
0.00149017
0.00148442
0.00149098
0.00149989
0.00150424
0.00150806
0.00151074
0.00151221
0.0015118
0.00151253
0.00151143
0.00150909
0.00150554
0.00150119
0.00149206
0.00148488
0.00127866
0.00127509
0.00128194
0.00128997
0.00129401
0.00129718
0.0012995
0.0013006
0.00130031
0.00130089
0.00130012
0.00129812
0.00129519
0.00129115
0.00128294
0.00127553
0.0010771
0.00107583
0.00108299
0.00109023
0.00109401
0.00109655
0.00109852
0.00109925
0.00109908
0.00109951
0.00109908
0.00109739
0.00109507
0.0010913
0.00108391
0.00107626
0.000874582
0.000878836
0.000888389
0.000895718
0.000899908
0.000901556
0.000903121
0.000903061
0.000903119
0.000903303
0.000903647
0.000902368
0.000900942
0.000896792
0.000889352
0.000879314
0.000676284
0.00068123
0.00068964
0.000695788
0.000699361
0.000700634
0.00070191
0.000701732
0.000701827
0.000701935
0.000702355
0.000701321
0.000700238
0.000696702
0.000690463
0.000681653
0.000499171
0.000504161
0.000511132
0.000516092
0.00051901
0.000519962
0.000520964
0.000520728
0.000520838
0.000520892
0.000521324
0.00052052
0.000519723
0.000516837
0.000511806
0.000504517
0.000348007
0.000352453
0.000357886
0.000361681
0.000363934
0.000364617
0.000365363
0.000365122
0.000365228
0.000365247
0.000365638
0.000365045
0.000364482
0.000362255
0.000358407
0.000352735
0.000226488
0.000230006
0.000233924
0.000236632
0.000238249
0.000238712
0.000239231
0.000239025
0.000239113
0.000239114
0.000239427
0.000239018
0.000238641
0.000237043
0.000234299
0.000230211
0.000135962
0.000138422
0.000140991
0.000142757
0.000143818
0.00014411
0.000144442
0.000144292
0.000144355
0.00014435
0.000144569
0.000144309
0.000144073
0.000143026
0.000141237
0.000138557
7.4465e-05
7.59674e-05
7.74736e-05
7.85073e-05
7.91309e-05
7.92996e-05
7.94916e-05
7.93985e-05
7.94377e-05
7.94324e-05
7.95664e-05
7.94165e-05
7.92806e-05
7.86648e-05
7.76178e-05
7.60477e-05
3.68528e-05
3.76462e-05
3.84243e-05
3.89594e-05
3.92835e-05
3.93714e-05
3.94707e-05
3.94217e-05
3.94427e-05
3.94393e-05
3.95094e-05
3.9432e-05
3.9361e-05
3.9041e-05
3.8499e-05
3.76879e-05
1.6311e-05
1.66702e-05
1.70209e-05
1.72631e-05
1.74103e-05
1.74511e-05
1.74965e-05
1.74748e-05
1.74845e-05
1.74828e-05
1.75141e-05
1.74786e-05
1.74454e-05
1.73e-05
1.70547e-05
1.66891e-05
6.35211e-06
6.49019e-06
6.62642e-06
6.72107e-06
6.77875e-06
6.79533e-06
6.81348e-06
6.80546e-06
6.80927e-06
6.80863e-06
6.82042e-06
6.80613e-06
6.79252e-06
6.73553e-06
6.63962e-06
6.49756e-06
2.11193e-06
2.15604e-06
2.20057e-06
2.23173e-06
2.25078e-06
2.2565e-06
2.26268e-06
2.26025e-06
2.26151e-06
2.26131e-06
2.26499e-06
2.26008e-06
2.25534e-06
2.23651e-06
2.20491e-06
2.15846e-06
5.66927e-07
5.78086e-07
5.89731e-07
5.97949e-07
6.02988e-07
6.04577e-07
6.06272e-07
6.05698e-07
6.0603e-07
6.05981e-07
6.06888e-07
6.05529e-07
6.04195e-07
5.99212e-07
5.90875e-07
5.7872e-07
1.10802e-07
1.12829e-07
1.15035e-07
1.16605e-07
1.17572e-07
1.17892e-07
1.18231e-07
1.18135e-07
1.18199e-07
1.18191e-07
1.1835e-07
1.18076e-07
1.17804e-07
1.16848e-07
1.15253e-07
1.1295e-07
1.29696e-08
1.31896e-08
1.34383e-08
1.36179e-08
1.37283e-08
1.37671e-08
1.38074e-08
1.37982e-08
1.38055e-08
1.38047e-08
1.38212e-08
1.37883e-08
1.3755e-08
1.36457e-08
1.34633e-08
1.32033e-08
8.03993e-10
8.19267e-10
8.33435e-10
8.44612e-10
8.50907e-10
8.53533e-10
8.55758e-10
8.55261e-10
8.55574e-10
8.55643e-10
8.56573e-10
8.54788e-10
8.52491e-10
8.46271e-10
8.34936e-10
8.2011e-10
3.05538e-10
3.13639e-10
3.1843e-10
3.22936e-10
3.24993e-10
3.26114e-10
3.26692e-10
3.26465e-10
3.26479e-10
3.26598e-10
3.26974e-10
3.26559e-10
3.25562e-10
3.23542e-10
3.18993e-10
3.13976e-10
0.0193224
0.017376
0.0152975
0.0148913
0.0149632
0.0149639
0.0149294
0.0148891
0.0148841
0.0148928
0.0149373
0.0149756
0.014978
0.014908
0.0153105
0.017376
0.0188372
0.0170816
0.015314
0.0149757
0.0150383
0.015015
0.0149607
0.0149072
0.0148994
0.014911
0.0149687
0.0150268
0.0150532
0.0149929
0.0153281
0.0170829
0.0183394
0.0167765
0.0153019
0.01503
0.0150859
0.0150423
0.0149707
0.0149052
0.014895
0.0149092
0.0149789
0.0150542
0.015101
0.0150475
0.015317
0.0167791
0.0178353
0.0164659
0.0152641
0.015055
0.0151067
0.0150466
0.01496
0.0148838
0.0148715
0.0148878
0.0149682
0.0150584
0.0151218
0.0150728
0.0152799
0.0164698
0.0173331
0.0161544
0.0152032
0.0150521
0.0151014
0.0150287
0.0149294
0.0148439
0.0148299
0.014848
0.0149376
0.0150405
0.0151166
0.0150701
0.0152197
0.0161596
0.0168389
0.0158455
0.0151218
0.0150231
0.0150715
0.0149896
0.0148801
0.0147866
0.0147712
0.0147907
0.0148883
0.0150013
0.0150865
0.0150411
0.0151387
0.0158519
0.016358
0.015542
0.0150222
0.0149705
0.0150191
0.0149303
0.0148132
0.0147132
0.0146967
0.0147173
0.0148215
0.0149421
0.0150341
0.0149886
0.0150394
0.0155494
0.015894
0.0152455
0.0149059
0.014898
0.0149479
0.014853
0.0147306
0.0146247
0.0146074
0.0146289
0.0147389
0.0148647
0.0149628
0.014916
0.0149234
0.015254
0.0154498
0.0149574
0.0147745
0.0148084
0.0148604
0.0147605
0.0146345
0.0145235
0.0145057
0.0145277
0.0146428
0.0147721
0.0148752
0.0148263
0.0147924
0.0149667
0.0150269
0.014678
0.0146311
0.014703
0.0147576
0.0146544
0.0145268
0.014412
0.0143937
0.0144162
0.0145351
0.0146658
0.0147723
0.0147208
0.0146486
0.014688
0.0146257
0.0144071
0.0144776
0.0145827
0.0146402
0.014535
0.0144078
0.0142909
0.0142725
0.0142951
0.0144161
0.0145463
0.0146547
0.0146003
0.014495
0.0144178
0.0142461
0.0141444
0.014315
0.0144477
0.0145082
0.0144025
0.0142776
0.0141605
0.0141422
0.0141647
0.0142858
0.0144137
0.0145226
0.0144651
0.0143322
0.0141556
0.0138871
0.0138889
0.0141436
0.0142984
0.0143619
0.0142569
0.0141362
0.0140201
0.0140022
0.0140243
0.0141443
0.014268
0.0143761
0.0143157
0.0141607
0.0139006
0.0135471