/*--------------------------------*- C++ -*----------------------------------*\
| =========                 |                                                 |
| \\      /  F ield         | OpenFOAM: The Open Source CFD Toolbox           |
|  \\    /   O peration     | Version:  v1912                                 |
|   \\  /    A nd           | Website:  www.openfoam.com                      |
|    \\/     M anipulation  |                                                 |
\*---------------------------------------------------------------------------*/
FoamFile
{
    version     2.0;
    format      ascii;
    class       volScalarField;
    location    "197.6";
    object      k;
}
// * * * * * * * * * * * * * * * * * * * * * * * * * * * * * * * * * * * * * //

dimensions      [0 2 -2 0 0 0 0];


internalField   nonuniform List<scalar> 
10077
(
0.000326369
0.000279226
0.000242128
0.000237726
0.000240472
0.000241641
0.000241445
0.000241157
0.000241101
0.000241204
0.00024154
0.000241779
0.000240659
0.000237969
0.000242343
0.000279199
0.000318092
0.000276995
0.000246316
0.000243138
0.000245699
0.000246197
0.000245456
0.000244795
0.00024465
0.000244856
0.000245576
0.000246364
0.000245912
0.000243409
0.000246564
0.00027701
0.000311128
0.000275719
0.00025105
0.000249125
0.000251574
0.000251487
0.00025025
0.000249248
0.000249021
0.000249322
0.000250392
0.000251679
0.000251811
0.000249419
0.00025133
0.000275774
0.00030542
0.000275362
0.000256294
0.000255614
0.000258014
0.000257419
0.000255733
0.000254421
0.00025412
0.000254508
0.000255895
0.000257633
0.000258271
0.00025593
0.000256602
0.000275454
0.00030091
0.000275883
0.000262009
0.000262542
0.000264943
0.00026391
0.000261822
0.00026023
0.000259863
0.000260327
0.000262001
0.000264144
0.000265218
0.000262877
0.000262343
0.000276012
0.000297543
0.00027724
0.000268157
0.000269852
0.000272296
0.000270887
0.000268438
0.000266596
0.000266171
0.000266702
0.000268633
0.000271138
0.000272586
0.000270204
0.000268515
0.000277403
0.000295265
0.000279388
0.0002747
0.000277495
0.000280011
0.000278281
0.000275513
0.000273448
0.000272972
0.000273562
0.000275722
0.000278547
0.000280316
0.000277862
0.000275081
0.000279584
0.000294019
0.00028228
0.000281603
0.000285421
0.000288033
0.000286033
0.000282983
0.00028072
0.000280201
0.000280842
0.000283204
0.000286313
0.00028835
0.000285801
0.000282004
0.000282506
0.00029375
0.000285865
0.00028883
0.000293584
0.00029631
0.000294087
0.000290791
0.000288355
0.0002878
0.000288484
0.000291024
0.000294379
0.000296637
0.000293976
0.000289249
0.00028612
0.000294398
0.000290092
0.000296346
0.000301949
0.0003048
0.00030239
0.000298883
0.000296298
0.000295714
0.000296433
0.000299125
0.000302692
0.000305137
0.000302352
0.000296781
0.000290374
0.000295904
0.00029491
0.000304117
0.000310486
0.000313469
0.000310902
0.000307211
0.000304499
0.000303892
0.00030464
0.000307462
0.000311214
0.000313814
0.000310898
0.000304567
0.000295217
0.000298207
0.000300268
0.000312113
0.000319167
0.000322287
0.000319588
0.000315738
0.000312917
0.000312293
0.000313062
0.000315997
0.000319909
0.00032264
0.000319589
0.000312577
0.000300598
0.000301244
0.000306116
0.000320304
0.00032797
0.000331229
0.000328417
0.00032443
0.000321516
0.000320881
0.000321666
0.000324696
0.000328746
0.000331589
0.0003284
0.000320781
0.000306468
0.000304955
0.000312406
0.000328666
0.000336872
0.000340269
0.000337362
0.000333257
0.000330266
0.000329625
0.00033042
0.00033353
0.000337698
0.000340636
0.00033731
0.000329154
0.000312778
0.00030928
0.000319093
0.000337175
0.000345854
0.000349388
0.000346398
0.000342194
0.000339141
0.000338497
0.000339299
0.000342473
0.00034674
0.00034976
0.000346299
0.000337674
0.000319483
0.000314162
0.000326134
0.000345811
0.000354898
0.000358566
0.000355502
0.000351217
0.000348115
0.000347474
0.000348276
0.000351502
0.00035585
0.000358944
0.000355349
0.00034632
0.000326542
0.000319546
0.000333491
0.000354555
0.000363987
0.000367788
0.000364657
0.000360306
0.000357167
0.000356533
0.000357331
0.000360595
0.00036501
0.00036817
0.000364444
0.000355075
0.000333915
0.000325382
0.000341132
0.000363396
0.000373113
0.000377041
0.000373851
0.000369445
0.000366283
0.00036566
0.000366449
0.000369739
0.000374209
0.000377428
0.000373576
0.000363924
0.00034157
0.000331626
0.000349025
0.000372322
0.000382269
0.000386322
0.000383077
0.000378625
0.00037545
0.000374841
0.000375619
0.000378923
0.00038344
0.000386712
0.000382737
0.000372858
0.000349477
0.000338238
0.000357146
0.000381328
0.000391452
0.000395626
0.000392331
0.000387841
0.000384662
0.000384071
0.000384833
0.000388143
0.000392698
0.00039602
0.000391925
0.000381872
0.000357612
0.000345184
0.000365475
0.000390411
0.000400664
0.000404955
0.000401613
0.000397091
0.000393916
0.000393345
0.000394089
0.000397396
0.000401984
0.000405353
0.000401141
0.000390961
0.000365953
0.000352437
0.000373997
0.000399571
0.000409909
0.000414314
0.000410927
0.000406376
0.000403214
0.000402666
0.000403389
0.000406685
0.000411302
0.000414716
0.000410391
0.000400129
0.000374486
0.000359977
0.0003827
0.000408814
0.000419196
0.000423712
0.000420281
0.000415704
0.000412561
0.000412038
0.000412738
0.000416015
0.00042066
0.000424117
0.000419682
0.000409378
0.000383201
0.000367789
0.000391579
0.000418147
0.000428536
0.000433161
0.000429685
0.000425083
0.000421965
0.000421471
0.000422144
0.000425398
0.000430068
0.000433569
0.000429026
0.000418716
0.00039209
0.000375871
0.000400633
0.000427581
0.000437942
0.000442676
0.000439153
0.000434529
0.000431441
0.000430975
0.000431621
0.000434847
0.000439539
0.000443087
0.000438436
0.000428156
0.000401153
0.000384223
0.000409865
0.000437131
0.000447432
0.000452277
0.000448704
0.000444058
0.000441003
0.00044057
0.000441185
0.000444379
0.000449094
0.000452691
0.000447929
0.000437712
0.000410394
0.000392833
0.000419249
0.000446771
0.000456982
0.000461939
0.000458312
0.000453645
0.000450628
0.000450228
0.000450811
0.000453969
0.000458706
0.000462355
0.000457483
0.000447357
0.000419786
0.000401681
0.000428753
0.000456448
0.000466544
0.000471615
0.00046793
0.000463241
0.000460266
0.000459902
0.000460451
0.000463569
0.000468328
0.000472035
0.000467049
0.000457039
0.000429297
0.000410747
0.000438355
0.000466112
0.000476077
0.00048127
0.000477516
0.000472798
0.000469872
0.000469546
0.000470058
0.00047313
0.000477919
0.000481694
0.000476587
0.000466708
0.000438905
0.000420008
0.000448046
0.000475763
0.000485563
0.000490869
0.000487052
0.000482317
0.000479447
0.000479162
0.000479635
0.000482653
0.00048746
0.000491297
0.000486078
0.000476364
0.0004486
0.000429448
0.000457829
0.00048541
0.000494985
0.000500378
0.000496524
0.000491802
0.000489007
0.000488765
0.000489196
0.000492141
0.000496938
0.00050081
0.000495503
0.000486013
0.000458388
0.000439053
0.000467731
0.000495011
0.000504304
0.000509757
0.000505895
0.000501217
0.000498521
0.000498323
0.000498711
0.00050156
0.000506314
0.000510193
0.000504826
0.000495615
0.000468293
0.000448827
0.000477745
0.000504507
0.000513477
0.000518962
0.000515118
0.000510512
0.000507934
0.000507779
0.000508124
0.000510857
0.00051554
0.000519403
0.000514001
0.000505112
0.000478308
0.000458786
0.000487776
0.000513832
0.000522452
0.000527944
0.000524136
0.000519626
0.000517179
0.000517067
0.00051737
0.000519973
0.000524563
0.000528389
0.000522979
0.000514435
0.000488338
0.000468895
0.000497702
0.00052291
0.000531171
0.000536646
0.000532889
0.000528494
0.000526184
0.000526115
0.000526376
0.000528843
0.00053332
0.000537094
0.0005317
0.000523511
0.00049826
0.000479026
0.000507404
0.000531667
0.000539567
0.000545002
0.000541312
0.000537047
0.000534878
0.000534851
0.000535069
0.000537398
0.000541746
0.000545454
0.000540099
0.000532265
0.000507957
0.000489042
0.000516778
0.000540026
0.000547574
0.000552944
0.000549336
0.000545218
0.000543188
0.000543202
0.000543379
0.000545571
0.000549773
0.000553402
0.000548108
0.000540621
0.000517323
0.000498823
0.000525739
0.000547917
0.000555128
0.000560408
0.000556896
0.000552941
0.000551047
0.000551101
0.000551237
0.000553294
0.000557337
0.00056087
0.000555663
0.000548508
0.000526275
0.000508261
0.000534221
0.000555284
0.000562175
0.00056734
0.000563942
0.000560165
0.000558403
0.000558496
0.000558593
0.000560518
0.000564385
0.000567806
0.000562712
0.00055587
0.000534748
0.000517268
0.000542168
0.000562084
0.000568676
0.0005737
0.000570433
0.000566851
0.000565217
0.000565346
0.000565406
0.000567203
0.000570878
0.00057417
0.000569214
0.000562666
0.000542683
0.000525768
0.000549527
0.000568278
0.000574594
0.000579455
0.000576335
0.000572958
0.000571448
0.000571611
0.000571636
0.00057331
0.000576782
0.00057993
0.000575133
0.000568854
0.00055003
0.000533696
0.000556256
0.000573832
0.000579896
0.000584574
0.000581614
0.000578453
0.000577061
0.000577256
0.000577248
0.000578804
0.000582062
0.000585052
0.000580435
0.000574401
0.000556746
0.000540986
0.000562308
0.000578709
0.000584538
0.000589019
0.000586229
0.000583291
0.000582014
0.000582237
0.000582199
0.00058364
0.000586679
0.000589501
0.000585078
0.000579271
0.000562784
0.000547555
0.000567616
0.00058285
0.000588456
0.000592729
0.000590117
0.000587404
0.000586239
0.00058649
0.000586423
0.000587751
0.000590567
0.000593216
0.000588996
0.000583405
0.000568078
0.000553298
0.000572087
0.000586163
0.000591552
0.000595611
0.00059318
0.000590693
0.000589641
0.000589916
0.000589823
0.00059104
0.000593631
0.000596101
0.000592091
0.000586709
0.000572535
0.000558091
0.0005756
0.000588528
0.000593705
0.000597542
0.000595296
0.000593038
0.000592096
0.000592395
0.000592278
0.000593383
0.000595748
0.000598036
0.000594243
0.000589066
0.000576032
0.000561799
0.00057802
0.000589813
0.000594781
0.000598391
0.000596333
0.000594303
0.000593472
0.000593791
0.000593652
0.000594647
0.000596786
0.000598888
0.000595318
0.000590341
0.000578436
0.000564279
0.000579207
0.00058988
0.000594645
0.000598023
0.000596156
0.000594354
0.000593632
0.000593969
0.000593811
0.000594696
0.000596609
0.000598523
0.000595181
0.000590399
0.000579608
0.000565388
0.000579023
0.000588594
0.000593162
0.000596302
0.00059463
0.000593055
0.000592439
0.000592792
0.000592617
0.000593394
0.000595082
0.000596805
0.000593697
0.000589102
0.000579407
0.000564982
0.000577326
0.000585816
0.000590194
0.000593093
0.000591615
0.000590265
0.000589755
0.000590119
0.000589931
0.000590603
0.000592067
0.000593597
0.000590726
0.000586313
0.000577693
0.000562911
0.000573971
0.000581404
0.000585598
0.000588252
0.00058697
0.000585843
0.000585434
0.000585808
0.000585609
0.000586177
0.000587421
0.000588758
0.000586127
0.00058189
0.000574322
0.00055902
0.000568811
0.000575212
0.000579227
0.000581633
0.000580546
0.000579637
0.000579327
0.000579707
0.0005795
0.000579968
0.000580995
0.00058214
0.000579751
0.000575686
0.000569144
0.000553146
0.000561686
0.000567084
0.000570923
0.00057308
0.000572186
0.000571491
0.000571276
0.00057166
0.000571446
0.000571818
0.000572632
0.000573587
0.000571442
0.000567545
0.000562001
0.000545115
0.000552429
0.000556855
0.000560521
0.000562429
0.000561724
0.000561237
0.000561113
0.000561498
0.00056128
0.000561559
0.000562166
0.000562934
0.000561034
0.000557302
0.000552726
0.00053473
0.00054085
0.000544339
0.000547834
0.000549495
0.000548974
0.000548687
0.00054865
0.000549035
0.000548815
0.000549004
0.000549412
0.000549997
0.000548341
0.000544772
0.000541129
0.000521774
0.000526738
0.000529327
0.000532656
0.000534071
0.000533727
0.000533632
0.000533678
0.000534059
0.000533839
0.000533943
0.000534159
0.000534569
0.000533154
0.000529745
0.000526998
0.000506033
0.000509885
0.000511618
0.000514781
0.000515955
0.000515782
0.000515868
0.000515991
0.000516366
0.000516148
0.000516172
0.000516206
0.000516448
0.00051527
0.000512021
0.000510127
0.000487294
0.000490088
0.000491015
0.000494013
0.000494951
0.000494938
0.000495194
0.000495388
0.000495756
0.000495541
0.000495489
0.000495353
0.000495437
0.00049449
0.0004914
0.000490312
0.000465358
0.000467157
0.000467333
0.000470164
0.000470877
0.000471012
0.000471424
0.000471682
0.000472039
0.00047183
0.000471709
0.000471416
0.000471352
0.000470628
0.000467701
0.000467362
0.000440052
0.000440929
0.000440419
0.00044308
0.000443578
0.000443848
0.000444398
0.000444714
0.000445058
0.000444856
0.000444673
0.000444239
0.00044404
0.000443528
0.000440768
0.000441115
0.000411252
0.000411291
0.000410171
0.000412656
0.000412953
0.000413342
0.000414012
0.000414376
0.000414704
0.000414512
0.000414274
0.000413717
0.0004134
0.000413086
0.000410499
0.000411459
0.000378919
0.000378218
0.000376572
0.000378873
0.000378988
0.000379477
0.000380244
0.000380646
0.000380956
0.000380774
0.000380492
0.000379834
0.000379415
0.000379282
0.000376878
0.000378366
0.000343142
0.000341806
0.000339729
0.000341836
0.000341789
0.000342357
0.000343197
0.000343626
0.000343914
0.000343746
0.000343428
0.000342693
0.000342193
0.000342219
0.000340011
0.000341936
0.000304172
0.000302275
0.000299839
0.000301733
0.000301538
0.000302171
0.000303064
0.000303511
0.000303775
0.000303621
0.000303277
0.000302481
0.000301914
0.000302087
0.000300094
0.000302386
0.000262256
0.000259961
0.000257309
0.000258977
0.000258668
0.000259334
0.000260244
0.000260692
0.000260929
0.000260792
0.000260436
0.000259615
0.00025901
0.000259297
0.000257534
0.000260054
0.000218434
0.00021595
0.000213264
0.000214694
0.000214318
0.000214978
0.000215859
0.000216287
0.000216492
0.000216374
0.000216026
0.000215225
0.00021462
0.000214974
0.000213458
0.000216024
0.00017446
0.000172015
0.00016949
0.000170673
0.000170284
0.000170896
0.000171698
0.000172084
0.000172254
0.000172157
0.000171838
0.000171104
0.000170539
0.00017091
0.000169651
0.000172072
0.000132615
0.000130425
0.000128238
0.000129174
0.000128817
0.000129345
0.000130025
0.00013035
0.000130485
0.000130408
0.000130137
0.000129511
0.000129022
0.000129363
0.000128364
0.000130467
9.5303e-05
9.35256e-05
9.17946e-05
9.24954e-05
9.22048e-05
9.26232e-05
9.31562e-05
9.34091e-05
9.35093e-05
9.34527e-05
9.32395e-05
9.27475e-05
9.23586e-05
9.26369e-05
9.18881e-05
9.35555e-05
6.44167e-05
6.31164e-05
6.18712e-05
6.23629e-05
6.21523e-05
6.24557e-05
6.28383e-05
6.30193e-05
6.30886e-05
6.30496e-05
6.28963e-05
6.25424e-05
6.22598e-05
6.24616e-05
6.19361e-05
6.31364e-05
4.07912e-05
3.99353e-05
3.91235e-05
3.94443e-05
3.93083e-05
3.95086e-05
3.97593e-05
3.98778e-05
3.99224e-05
3.98974e-05
3.97967e-05
3.95646e-05
3.93778e-05
3.95082e-05
3.91654e-05
3.9948e-05
2.40868e-05
2.35799e-05
2.31005e-05
2.3294e-05
2.32155e-05
2.33357e-05
2.34853e-05
2.35562e-05
2.35828e-05
2.35679e-05
2.35076e-05
2.33691e-05
2.3257e-05
2.33321e-05
2.31255e-05
2.35875e-05
1.31416e-05
1.2872e-05
1.26162e-05
1.27233e-05
1.26829e-05
1.27482e-05
1.28292e-05
1.28679e-05
1.28824e-05
1.28743e-05
1.28415e-05
1.27665e-05
1.27056e-05
1.27441e-05
1.263e-05
1.28763e-05
6.50118e-06
6.3739e-06
6.25214e-06
6.30555e-06
6.28731e-06
6.31899e-06
6.35826e-06
6.37716e-06
6.38439e-06
6.38034e-06
6.36434e-06
6.32804e-06
6.29851e-06
6.31588e-06
6.25898e-06
6.37609e-06
2.8134e-06
2.76164e-06
2.7115e-06
2.73474e-06
2.7277e-06
2.74104e-06
2.75756e-06
2.7656e-06
2.76874e-06
2.76697e-06
2.76019e-06
2.74495e-06
2.73253e-06
2.7392e-06
2.71448e-06
2.76263e-06
9.95979e-07
9.78952e-07
9.62196e-07
9.70451e-07
9.68286e-07
9.7285e-07
9.78509e-07
9.81296e-07
9.82411e-07
9.81782e-07
9.79442e-07
9.74233e-07
9.69987e-07
9.72026e-07
9.63253e-07
9.79315e-07
2.54595e-07
2.50532e-07
2.46479e-07
2.48583e-07
2.48106e-07
2.49242e-07
2.50646e-07
2.51345e-07
2.5163e-07
2.51469e-07
2.50884e-07
2.49594e-07
2.48538e-07
2.48983e-07
2.46749e-07
2.50628e-07
4.88402e-08
4.78583e-08
4.69595e-08
4.73146e-08
4.71904e-08
4.74536e-08
4.77552e-08
4.79009e-08
4.7948e-08
4.79231e-08
4.77977e-08
4.75171e-08
4.72689e-08
4.7386e-08
4.70055e-08
4.7871e-08
1.14758e-07
1.11116e-07
1.08147e-07
1.08743e-07
1.08205e-07
1.09086e-07
1.10004e-07
1.10419e-07
1.10492e-07
1.10463e-07
1.10088e-07
1.09217e-07
1.08371e-07
1.08886e-07
1.08226e-07
1.11115e-07
0.00024518
0.000245738
0.000252069
0.000249387
0.000245794
0.000244248
0.000243938
0.000244166
0.000244198
0.000244231
0.000244044
0.000244356
0.000245868
0.000249427
0.000252062
0.000245705
0.000253085
0.000251841
0.000255499
0.000252879
0.000249709
0.00024873
0.000248683
0.000249088
0.000249138
0.000249161
0.000248802
0.000248852
0.000249796
0.000252924
0.000255489
0.000251802
0.000261298
0.000258451
0.00025974
0.000257158
0.00025438
0.000253922
0.000254118
0.000254687
0.000254752
0.000254766
0.000254249
0.000254058
0.00025448
0.000257208
0.000259727
0.000258407
0.000269774
0.00026551
0.000264719
0.000262165
0.000259748
0.000259766
0.000260183
0.000260901
0.00026098
0.000260987
0.000260325
0.000259915
0.000259859
0.000262219
0.000264703
0.00026546
0.000278481
0.000272968
0.000270368
0.000267841
0.000265757
0.000266205
0.000266821
0.000267674
0.000267764
0.000267766
0.000266973
0.000266365
0.000265878
0.000267899
0.000270348
0.000272913
0.000287393
0.000280781
0.000276621
0.00027413
0.00027235
0.000273185
0.000273979
0.000274953
0.000275052
0.000275051
0.00027414
0.000273355
0.00027248
0.000274191
0.000276599
0.000280721
0.000296488
0.000288911
0.000283418
0.000280976
0.000279475
0.000280656
0.000281607
0.00028269
0.000282796
0.000282793
0.000281776
0.000280835
0.000279614
0.00028104
0.000283393
0.000288845
0.000305747
0.000297323
0.000290704
0.000288326
0.000287081
0.000288565
0.000289653
0.000290833
0.000290943
0.000290941
0.00028983
0.000288754
0.000287226
0.000288392
0.000290676
0.000297252
0.000315156
0.000305984
0.000298424
0.000296127
0.000295112
0.000296861
0.000298065
0.000299331
0.000299444
0.000299443
0.00029825
0.000297057
0.000295264
0.000296196
0.000298394
0.000305909
0.000324698
0.000314863
0.000306526
0.000304326
0.000303516
0.000305494
0.0003068
0.000308141
0.000308255
0.000308257
0.00030699
0.000305697
0.000303675
0.000304397
0.000306495
0.000314783
0.000334359
0.000323935
0.000314965
0.000312874
0.000312251
0.000314428
0.000315821
0.00031723
0.000317342
0.00031735
0.000316017
0.000314637
0.000312415
0.000312948
0.000314932
0.000323851
0.000344127
0.000333181
0.000323699
0.000321733
0.00032128
0.000323629
0.000325097
0.000326568
0.000326677
0.000326691
0.000325299
0.000323845
0.000321449
0.000321809
0.000323666
0.000333093
0.000353995
0.000342583
0.000332698
0.000330868
0.00033057
0.00033307
0.000334603
0.00033613
0.000336234
0.000336255
0.000334809
0.000333291
0.000330744
0.000330946
0.000332664
0.000342491
0.000363953
0.000352126
0.00034193
0.000340247
0.000340094
0.000342723
0.000344312
0.000345891
0.000345988
0.000346019
0.000344523
0.00034295
0.000340273
0.000340328
0.000341896
0.000352031
0.000373998
0.000361798
0.000351371
0.000349841
0.000349823
0.000352568
0.000354204
0.00035583
0.00035592
0.00035596
0.000354419
0.000352799
0.000350007
0.000349925
0.000351338
0.0003617
0.000384122
0.000371585
0.000360999
0.000359626
0.000359734
0.000362582
0.000364257
0.000365928
0.000366008
0.000366061
0.000364476
0.000362819
0.000359923
0.000359714
0.000360965
0.000371485
0.000394322
0.000381478
0.000370792
0.000369579
0.000369804
0.000372749
0.000374454
0.000376167
0.000376236
0.000376302
0.000374677
0.000372989
0.000369998
0.000369671
0.000370758
0.000381375
0.000404593
0.000391464
0.000380733
0.000379684
0.000380016
0.00038305
0.000384779
0.000386531
0.000386588
0.000386668
0.000385005
0.000383295
0.000380215
0.00037978
0.0003807
0.00039136
0.000414931
0.000401536
0.000390807
0.000389924
0.000390354
0.000393473
0.000395219
0.000397008
0.00039705
0.000397146
0.000395448
0.000393721
0.000390558
0.000390024
0.000390774
0.00040143
0.000425333
0.000411685
0.000401001
0.000400287
0.000400807
0.000404003
0.000405762
0.000407587
0.000407613
0.000407727
0.000405994
0.000404256
0.000401015
0.00040039
0.000400969
0.000411577
0.0004358
0.000421906
0.000411305
0.000410762
0.000411363
0.000414632
0.000416399
0.000418259
0.000418267
0.0004184
0.000416633
0.000414888
0.000411576
0.000410869
0.000411274
0.000421797
0.000446336
0.000432196
0.000421711
0.000421341
0.000422018
0.000425353
0.000427124
0.000429018
0.000429006
0.00042916
0.000427361
0.000425613
0.000422235
0.000421453
0.000421681
0.000432086
0.000456996
0.000442553
0.000432217
0.000432023
0.00043277
0.000436165
0.000437936
0.000439864
0.000439831
0.000440007
0.000438176
0.000436428
0.000432993
0.00043214
0.000432189
0.000442443
0.000467843
0.000452982
0.000442823
0.00044281
0.000443622
0.00044707
0.000448836
0.000450798
0.000450742
0.000450943
0.000449078
0.000447337
0.00044385
0.000442931
0.000442797
0.000452872
0.000478851
0.000463516
0.000453532
0.000453704
0.000454579
0.000458072
0.000459829
0.000461826
0.000461745
0.000461972
0.000460074
0.000458343
0.000454812
0.00045383
0.000453509
0.000463405
0.000489972
0.000474201
0.000464353
0.000464715
0.000465652
0.000469182
0.000470924
0.000472957
0.000472849
0.000473104
0.000471171
0.000469457
0.00046589
0.000464847
0.000464333
0.000474087
0.000501116
0.000484991
0.000475255
0.000475812
0.00047681
0.000480371
0.000482098
0.000484176
0.000484037
0.000484324
0.000482348
0.00048065
0.000477054
0.000475951
0.000475237
0.000484875
0.00051218
0.000495788
0.000486205
0.000486957
0.000488013
0.000491603
0.000493317
0.000495449
0.000495276
0.000495597
0.00049357
0.000491887
0.000488263
0.000487103
0.000486191
0.000495672
0.000523068
0.000506487
0.000497162
0.000498112
0.000499223
0.000502835
0.000504524
0.000506701
0.000506494
0.000506851
0.000504781
0.000503124
0.000499481
0.000498264
0.000497152
0.000506373
0.000533692
0.000516984
0.000508031
0.000509191
0.000510355
0.000513972
0.000515626
0.000517836
0.000517596
0.000517987
0.000515886
0.000514267
0.000510621
0.000509352
0.000508027
0.000516875
0.000543958
0.000527183
0.000518693
0.00052007
0.000521283
0.000524892
0.000526503
0.000528738
0.000528465
0.000528891
0.000526768
0.000525194
0.000521559
0.000520242
0.000518697
0.000527079
0.000553763
0.000537022
0.00052907
0.00053066
0.000531914
0.000535497
0.000537063
0.00053931
0.000539008
0.000539465
0.000537332
0.000535806
0.0005322
0.000530845
0.000529085
0.000536926
0.00056307
0.000546467
0.000539086
0.000540878
0.000542164
0.00054571
0.000547232
0.000549485
0.000549156
0.000549641
0.000547505
0.000546026
0.000542461
0.000541076
0.000539113
0.00054638
0.000571853
0.000555476
0.000548668
0.000550645
0.000551957
0.000555457
0.000556942
0.000559193
0.000558842
0.00055935
0.000557219
0.000555781
0.000552266
0.000550858
0.000548709
0.000555399
0.000580081
0.000563998
0.000557747
0.000559891
0.000561222
0.000564672
0.000566126
0.000568368
0.000567999
0.000568527
0.000566406
0.000565004
0.000561544
0.000560119
0.000557803
0.000563932
0.000587712
0.000571977
0.000566259
0.000568552
0.000569898
0.000573292
0.000574721
0.000576949
0.000576565
0.000577108
0.000575005
0.000573631
0.000570233
0.000568796
0.000566331
0.000571922
0.000594701
0.000579359
0.000574148
0.000576573
0.000577931
0.000581264
0.000582676
0.00058488
0.000584486
0.00058504
0.000582963
0.000581611
0.000578279
0.000576834
0.000574237
0.000579316
0.000601008
0.000586102
0.000581372
0.000583913
0.000585281
0.000588548
0.000589949
0.000592121
0.000591722
0.000592281
0.000590239
0.000588902
0.000585642
0.000584192
0.000581478
0.000586071
0.000606604
0.000592179
0.000587905
0.000590548
0.000591922
0.00059512
0.000596516
0.000598645
0.000598246
0.000598805
0.000596809
0.000595481
0.000592297
0.000590844
0.000588029
0.000592159
0.000611481
0.000597584
0.000593744
0.000596476
0.000597856
0.000600979
0.000602375
0.00060445
0.000604057
0.000604611
0.00060267
0.000601347
0.000598244
0.000596789
0.000593887
0.000597577
0.000615648
0.000602325
0.000598901
0.000601711
0.000603096
0.00060614
0.000607541
0.000609552
0.000609169
0.000609712
0.000607837
0.000606515
0.000603497
0.000602041
0.000599062
0.00060233
0.00061911
0.000606401
0.000603381
0.000606262
0.000607653
0.000610615
0.000612022
0.000613962
0.000613592
0.000614121
0.00061232
0.000610996
0.000608066
0.000606609
0.000603562
0.000606419
0.000621851
0.000609792
0.000607174
0.000610118
0.000611519
0.000614396
0.00061581
0.000617671
0.000617318
0.00061783
0.000616108
0.000614783
0.000611945
0.000610482
0.000607373
0.000609822
0.00062382
0.00061244
0.000610231
0.000613236
0.000614653
0.000617439
0.000618857
0.000620635
0.000620301
0.000620793
0.000619157
0.000617832
0.00061509
0.000613616
0.00061045
0.000612484
0.000624933
0.00061426
0.000612471
0.000615534
0.000616974
0.000619665
0.000621084
0.000622773
0.000622459
0.00062293
0.000621384
0.000620062
0.000617423
0.00061593
0.00061271
0.000614317
0.00062509
0.000615151
0.00061379
0.000616908
0.000618378
0.000620969
0.000622385
0.000623981
0.00062369
0.000624138
0.000622686
0.000621372
0.000618838
0.000617321
0.000614048
0.000615221
0.000624184
0.000615003
0.000614077
0.000617247
0.000618753
0.000621238
0.000622648
0.000624147
0.00062388
0.000624304
0.000622951
0.000621647
0.000619224
0.000617675
0.000614354
0.000615088
0.000622106
0.000613705
0.000613214
0.000616433
0.000617981
0.000620357
0.000621756
0.000623154
0.000622913
0.000623311
0.00062206
0.000620771
0.000618462
0.000616876
0.00061351
0.000613804
0.000618741
0.000611139
0.000611079
0.000614345
0.000615937
0.000618202
0.000619587
0.000620881
0.000620667
0.000621036
0.000619891
0.00061862
0.000616428
0.000614802
0.000611395
0.000611251
0.000613967
0.000607178
0.000607543
0.000610851
0.000612491
0.000614642
0.00061601
0.000617196
0.000617011
0.000617351
0.000616314
0.000615065
0.000612991
0.000611321
0.000607876
0.000607303
0.000607652
0.000601683
0.000602464
0.000605811
0.000607502
0.000609538
0.000610884
0.000611962
0.000611805
0.000612116
0.000611188
0.000609964
0.00060801
0.000606294
0.000602815
0.000601821
0.000599653
0.000594507
0.000595693
0.000599075
0.000600818
0.000602738
0.000604058
0.000605026
0.000604899
0.000605179
0.000604362
0.000603166
0.000601333
0.00059957
0.00059606
0.000594658
0.000589816
0.000585489
0.000587065
0.00059048
0.000592275
0.000594078
0.000595369
0.000596227
0.000596129
0.000596379
0.000595673
0.000594509
0.000592796
0.000590985
0.000587448
0.000585653
0.000577973
0.000574457
0.000576406
0.000579849
0.000581694
0.000583382
0.00058464
0.000585389
0.000585319
0.000585539
0.000584942
0.000583814
0.00058222
0.000580363
0.000576804
0.000574632
0.000563938
0.000561218
0.000563521
0.000566988
0.000568881
0.000570454
0.000571675
0.000572316
0.000572274
0.000572464
0.000571975
0.000570886
0.000569409
0.000567509
0.000563932
0.000561404
0.000547497
0.000545549
0.000548183
0.000551668
0.000553604
0.000555065
0.000556245
0.000556779
0.000556763
0.000556925
0.000556541
0.000555496
0.000554134
0.000552195
0.000548605
0.000545745
0.000528433
0.000527229
0.000530168
0.000533662
0.000535633
0.000536984
0.000538119
0.000538551
0.000538559
0.000538695
0.000538412
0.000537412
0.000536163
0.000534192
0.000530599
0.000527434
0.000506536
0.000506039
0.00050925
0.000512742
0.000514739
0.000515982
0.000517068
0.000517403
0.000517432
0.000517543
0.000517356
0.000516406
0.000515266
0.000513273
0.000509689
0.000506252
0.000481609
0.000481772
0.000485218
0.000488691
0.000490701
0.000491839
0.000492872
0.000493115
0.000493164
0.000493251
0.000493154
0.000492257
0.000491222
0.000489219
0.000485661
0.00048199
0.000453479
0.000454247
0.000457883
0.000461316
0.000463321
0.000464359
0.000465336
0.000465494
0.000465559
0.000465626
0.00046561
0.000464769
0.000463834
0.000461839
0.000458327
0.000454469
0.00042203
0.000423337
0.000427109
0.000430474
0.000432453
0.000433396
0.000434312
0.000434395
0.000434473
0.000434522
0.000434577
0.000433794
0.000432953
0.000430987
0.00042755
0.00042356
0.000387232
0.000389001
0.000392846
0.000396108
0.000398037
0.000398887
0.000399739
0.000399758
0.000399845
0.000399879
0.000399993
0.00039927
0.00039852
0.000396605
0.000393278
0.000389222
0.000349176
0.000351321
0.000355168
0.000358289
0.000360144
0.000360903
0.000361684
0.000361649
0.000361742
0.000361763
0.000361925
0.000361267
0.000360604
0.000358765
0.000355586
0.000351538
0.000308012
0.000310474
0.000314266
0.000317214
0.000318975
0.000319639
0.000320344
0.00032026
0.000320357
0.000320365
0.000320569
0.000319981
0.000319408
0.000317663
0.000314664
0.000310684
0.000264195
0.000266845
0.000270472
0.000273194
0.000274828
0.000275399
0.000276021
0.000275901
0.000275997
0.000275996
0.000276226
0.000275713
0.000275227
0.00027361
0.000270843
0.000267042
0.000218879
0.000221548
0.000224879
0.000227313
0.000228778
0.000229257
0.000229791
0.000229652
0.000229743
0.000229736
0.000229973
0.000229537
0.000229134
0.000227684
0.000225213
0.000221728
0.000173888
0.000176391
0.000179299
0.000181383
0.000182641
0.000183031
0.000183472
0.000183331
0.000183412
0.000183402
0.000183627
0.00018327
0.000182945
0.000181701
0.000179587
0.000176547
0.000131522
0.000133691
0.000136078
0.000137767
0.000138788
0.000139094
0.000139441
0.000139313
0.000139381
0.000139371
0.000139565
0.000139287
0.000139034
0.000138025
0.000136312
0.000133819
9.41211e-05
9.58432e-05
9.76669e-05
9.89469e-05
9.9723e-05
9.99498e-05
0.000100207
0.000100105
0.000100157
0.000100148
0.000100302
0.000100096
9.99095e-05
9.91424e-05
9.78446e-05
9.59414e-05
6.34339e-05
6.46781e-05
6.59639e-05
6.68635e-05
6.74103e-05
6.7569e-05
6.77481e-05
6.76741e-05
6.77111e-05
6.77044e-05
6.78143e-05
6.76718e-05
6.75414e-05
6.7001e-05
6.6089e-05
6.47474e-05
4.01193e-05
4.09347e-05
4.1768e-05
4.2351e-05
4.27063e-05
4.28103e-05
4.29262e-05
4.28786e-05
4.29027e-05
4.28983e-05
4.29692e-05
4.2877e-05
4.27913e-05
4.24402e-05
4.18492e-05
4.09797e-05
2.37017e-05
2.41858e-05
2.46811e-05
2.50283e-05
2.52405e-05
2.53039e-05
2.53735e-05
2.53462e-05
2.53605e-05
2.5358e-05
2.53992e-05
2.53438e-05
2.52913e-05
2.50815e-05
2.47294e-05
2.42126e-05
1.29569e-05
1.32164e-05
1.34851e-05
1.36742e-05
1.379e-05
1.38256e-05
1.38642e-05
1.38502e-05
1.38579e-05
1.38566e-05
1.38783e-05
1.38474e-05
1.38177e-05
1.37032e-05
1.35114e-05
1.3231e-05
6.42925e-06
6.55331e-06
6.68444e-06
6.77721e-06
6.83416e-06
6.85227e-06
6.87167e-06
6.86532e-06
6.86912e-06
6.86853e-06
6.87864e-06
6.86304e-06
6.84781e-06
6.79148e-06
6.69736e-06
6.56045e-06
2.79265e-06