/*--------------------------------*- C++ -*----------------------------------*\
| =========                 |                                                 |
| \\      /  F ield         | OpenFOAM: The Open Source CFD Toolbox           |
|  \\    /   O peration     | Version:  v1912                                 |
|   \\  /    A nd           | Website:  www.openfoam.com                      |
|    \\/     M anipulation  |                                                 |
\*---------------------------------------------------------------------------*/
FoamFile
{
    version     2.0;
    format      ascii;
    class       surfaceScalarField;
    location    "197.6";
    object      phi;
}
// * * * * * * * * * * * * * * * * * * * * * * * * * * * * * * * * * * * * * //

dimensions      [1 0 -1 0 0 0 0];
oriented        oriented;


internalField   nonuniform List<scalar> 
28208
(
4.22927e-07
1.82383e-05
0.000135567
7.47857e-07
8.07974e-07
0.000136326
4.38262e-07
-1.79312e-05
0.000137246
1.53619e-07
-1.7769e-05
0.000137782
3.54904e-08
-1.61806e-05
0.000138001
4.7029e-09
-1.34826e-05
0.00013808
5.82647e-09
-1.15136e-05
0.000138103
1.92783e-08
-1.02581e-05
0.000138097
3.62287e-08
-1.0023e-05
0.000138103
4.56412e-08
-1.02873e-05
0.000138116
3.74669e-08
-1.15555e-05
0.000138138
-6.89032e-09
-1.35138e-05
0.000138126
-1.39715e-07
-1.61799e-05
0.000138052
-4.36062e-07
-1.77996e-05
0.000137829
-7.52948e-07
-1.80487e-05
0.000137285
6.08605e-07
0.000136351
4.17898e-07
1.74104e-05
0.000133107
7.43883e-07
4.84609e-07
0.000133813
4.46527e-07
-1.76383e-05
0.000134668
1.65834e-07
-1.74856e-05
0.000135176
4.41401e-08
-1.60526e-05
0.00013539
9.218e-09
-1.3438e-05
0.000135471
7.28328e-09
-1.15009e-05
0.000135499
1.90472e-08
-1.02595e-05
0.000135497
3.46605e-08
-1.00274e-05
0.000135504
4.24944e-08
-1.0284e-05
0.000135515
3.162e-08
-1.15327e-05
0.000135533
-1.63145e-08
-1.34549e-05
0.000135515
-1.52072e-07
-1.60363e-05
0.00013544
-4.44095e-07
-1.75035e-05
0.000135222
-7.48763e-07
-1.77475e-05
0.000134706
2.91589e-07
0.000133838
4.12221e-07
1.65985e-05
0.000130657
7.37735e-07
1.66599e-07
0.000131312
4.52238e-07
-1.7351e-05
0.000132104
1.76401e-07
-1.72013e-05
0.000132585
5.19381e-08
-1.59164e-05
0.000132794
1.32844e-08
-1.33845e-05
0.000132875
8.5069e-09
-1.14802e-05
0.000132908
1.86679e-08
-1.02542e-05
0.000132909
3.29924e-08
-1.00255e-05
0.000132917
3.93538e-08
-1.02743e-05
0.000132927
2.60536e-08
-1.15024e-05
0.00013294
-2.49599e-08
-1.33876e-05
0.000132918
-1.62728e-07
-1.58854e-05
0.000132842
-4.49412e-07
-1.7207e-05
0.00013263
-7.42176e-07
-1.74519e-05
0.000132141
-2.01024e-08
0.000131336
4.0597e-07
1.58038e-05
0.00012822
7.29694e-07
-1.44716e-07
0.000128826
4.55675e-07
-1.70688e-05
0.000129557
1.85457e-07
-1.69169e-05
0.000130012
5.89273e-08
-1.57726e-05
0.000130214
1.69241e-08
-1.33223e-05
0.000130296
9.51205e-09
-1.14516e-05
0.000130333
1.81631e-08
-1.02422e-05
0.000130338
3.12608e-08
-1.00171e-05
0.000130347
3.6266e-08
-1.0258e-05
0.000130354
2.0797e-08
-1.14647e-05
0.000130364
-3.28375e-08
-1.33125e-05
0.000130338
-1.7183e-07
-1.57278e-05
0.000130261
-4.52332e-07
-1.6911e-05
0.000130056
-7.33515e-07
-1.71617e-05
0.000129593
-3.25153e-07
0.000128848
3.99226e-07
1.50276e-05
0.000125799
7.20022e-07
-4.48219e-07
0.000126356
4.57109e-07
-1.67917e-05
0.000127029
1.93142e-07
-1.6633e-05
0.000127458
6.51622e-08
-1.56219e-05
0.000127654
2.01653e-08
-1.32517e-05
0.000127736
1.0319e-08
-1.14153e-05
0.000127777
1.75527e-08
-1.02233e-05
0.000127784
2.94933e-08
-1.00022e-05
0.000127795
3.32588e-08
-1.02351e-05
0.0001278
1.58598e-08
-1.14198e-05
0.000127807
-3.99834e-08
-1.32297e-05
0.000127776
-1.79526e-07
-1.55641e-05
0.000127699
-4.53158e-07
-1.66163e-05
0.000127501
-7.23082e-07
-1.68767e-05
0.000127064
-6.22464e-07
0.000126378
3.92068e-07
1.42707e-05
0.000123394
7.08966e-07
-7.42988e-07
0.000123904
4.56793e-07
-1.65195e-05
0.000124522
1.99588e-07
-1.63502e-05
0.000124927
7.06981e-08
-1.54647e-05
0.000125115
2.30373e-08
-1.31729e-05
0.000125196
1.09489e-08
-1.13712e-05
0.000125241
1.68579e-08
-1.01977e-05
0.000125252
2.77128e-08
-9.98074e-06
0.000125263
3.03516e-08
-1.02056e-05
0.000125267
1.1244e-08
-1.13677e-05
0.000125271
-4.64395e-08
-1.31397e-05
0.000125236
-1.85956e-07
-1.53951e-05
0.000125159
-4.52167e-07
-1.63234e-05
0.000124968
-7.11154e-07
-1.65969e-05
0.000124555
-9.11126e-07
0.000123925
3.84573e-07
1.3534e-05
0.000121006
6.96753e-07
-1.02826e-06
0.000121472
4.54959e-07
-1.62518e-05
0.000122037
2.04917e-07
-1.60688e-05
0.000122418
7.55888e-08
-1.53015e-05
0.000122599
2.55687e-08
-1.30863e-05
0.00012268
1.14225e-08
-1.13198e-05
0.000122729
1.60981e-08
-1.01654e-05
0.000122741
2.59389e-08
-9.95289e-06
0.000122753
2.75588e-08
-1.01697e-05
0.000122756
6.94695e-09
-1.13089e-05
0.000122757
-5.22495e-08
-1.30428e-05
0.000122719
-1.9125e-07
-1.52211e-05
0.000122642
-4.49614e-07
-1.60327e-05
0.000122458
-6.97992e-07
-1.63219e-05
0.000122069
-1.19039e-06
0.000121492
3.76813e-07
1.28178e-05
0.000118638
6.83595e-07
-1.30343e-06
0.000119061
4.51822e-07
-1.59885e-05
0.000119575
2.09243e-07
-1.57893e-05
0.000119934
7.98855e-08
-1.51328e-05
0.000120108
2.77874e-08
-1.29923e-05
0.000120189
1.1759e-08
-1.1261e-05
0.00012024
1.52908e-08
-1.01265e-05
0.000120255
2.41878e-08
-9.91871e-06
0.000120268
2.48907e-08
-1.01276e-05
0.000120269
2.96534e-09
-1.12434e-05
0.000120268
-5.74569e-08
-1.29394e-05
0.000120226
-1.95529e-07
-1.50426e-05
0.00012015
-4.45733e-07
-1.57446e-05
0.000119973
-6.83832e-07
-1.60517e-05
0.000119607
-1.45966e-06
0.00011908
3.68857e-07
1.21227e-05
0.00011629
6.69689e-07
-1.56799e-06
0.000116671
4.47574e-07
-1.57294e-05
0.000117139
2.12671e-07
-1.55119e-05
0.000117475
8.36363e-08
-1.4959e-05
0.000117642
2.97194e-08
-1.28911e-05
0.000117723
1.19762e-08
-1.11953e-05
0.000117777
1.44514e-08
-1.00813e-05
0.000117793
2.24725e-08
-9.8783e-06
0.000117807
2.23537e-08
-1.00792e-05
0.000117807
-6.95073e-10
-1.11715e-05
0.000117803
-6.2104e-08
-1.28297e-05
0.000117759
-1.98903e-07
-1.48599e-05
0.000117683
-4.40733e-07
-1.54594e-05
0.000117514
-6.68892e-07
-1.57859e-05
0.000117169
-1.71844e-06
0.000116689
3.6077e-07
1.14488e-05
0.000113963
6.55212e-07
-1.82153e-06
0.000114305
4.42393e-07
-1.54741e-05
0.000114728
2.15297e-07
-1.52367e-05
0.000115044
8.68856e-08
-1.47802e-05
0.000115203
3.13888e-08
-1.2783e-05
0.000115283
1.20901e-08
-1.11226e-05
0.00011534
1.3593e-08
-1.00296e-05
0.000115358
2.08037e-08
-9.83174e-06
0.000115373
1.99521e-08
-1.00248e-05
0.000115372
-4.11683e-09
-1.10933e-05
0.000115366
-6.62313e-08
-1.2714e-05
0.000115319
-2.01475e-07
-1.46734e-05
0.000115244
-4.34803e-07
-1.51772e-05
0.000115082
-6.5337e-07
-1.55244e-05
0.000114758
-1.96632e-06
0.000114322
3.52613e-07
1.07963e-05
0.000111657
6.40326e-07
-2.06372e-06
0.000111962
4.36439e-07
-1.52224e-05
0.000112343
2.1721e-07
-1.49638e-05
0.00011264
8.96745e-08
-1.45968e-05
0.000112793
3.28173e-08
-1.26681e-05
0.000112872
1.21149e-08
-1.10432e-05
0.000112931
1.2727e-08
-9.97178e-06
0.000112951
1.91901e-08
-9.77911e-06
0.000112966
1.76884e-08
-9.96438e-06
0.000112964
-7.23157e-09
-1.1009e-05
0.000112956
-6.98764e-08
-1.25925e-05
0.000112907
-2.03336e-07
-1.44832e-05
0.000112832
-4.28116e-07
-1.4898e-05
0.000112677
-6.37442e-07
-1.52667e-05
0.000112373
-2.203e-06
0.000111979
3.44441e-07
1.01651e-05
0.000109374
6.25178e-07
-2.29432e-06
0.000109644
4.29853e-07
-1.49739e-05
0.000109986
2.18489e-07
-1.46932e-05
0.000110265
9.20411e-08
-1.44088e-05
0.00011041
3.40248e-08
-1.25468e-05
0.000110489
1.20628e-08
-1.09572e-05
0.00011055
1.18627e-08
-9.90776e-06
0.000110571
1.76383e-08
-9.72046e-06
0.000110587
1.55633e-08
-9.89808e-06
0.000110584
-1.00747e-08
-1.09187e-05
0.000110574
-7.30751e-08
-1.24654e-05
0.000110523
-2.0457e-07
-1.42894e-05
0.000110449
-4.20821e-07
-1.46219e-05
0.000110301
-6.2127e-07
-1.50126e-05
0.000110015
-2.42822e-06
0.00010966
3.36303e-07
9.55524e-06
0.000107114
6.09898e-07
-2.5131e-06
0.000107351
4.22764e-07
-1.47281e-05
0.000107657
2.19207e-07
-1.44247e-05
0.000107918
9.402e-08
-1.42165e-05
0.000108057
3.50296e-08
-1.2419e-05
0.000108135
1.19449e-08
-1.08647e-05
0.000108198
1.10079e-08
-9.83761e-06
0.000108221
1.61535e-08
-9.65582e-06
0.000108236
1.35765e-08
-9.82592e-06
0.000108233
-1.26589e-08
-1.08224e-05
0.000108222
-7.58605e-08
-1.23327e-05
0.000108169
-2.05253e-07
-1.40922e-05
0.000108095
-4.13055e-07
-1.43486e-05
0.000107954
-6.04992e-07
-1.47617e-05
0.000107685
-2.64177e-06
0.000107367
3.28242e-07
8.96648e-06
0.000104878
5.94597e-07
-2.71991e-06
0.000105084
4.15283e-07
-1.44847e-05
0.000105356
2.1943e-07
-1.41583e-05
0.000105602
9.56434e-08
-1.40199e-05
0.000105734
3.58477e-08
-1.22851e-05
0.000105811
1.17703e-08
-1.07658e-05
0.000105875
1.0169e-08
-9.76135e-06
0.000105899
1.47395e-08
-9.58519e-06
0.000105915
1.17269e-08
-9.74791e-06
0.000105911
-1.49958e-08
-1.07203e-05
0.000105899
-7.82632e-08
-1.21946e-05
0.000105844
-2.05453e-07
-1.38915e-05
0.000105771
-4.04933e-07
-1.40781e-05
0.000105637
-5.88731e-07
-1.45134e-05
0.000105384
-2.8435e-06
0.000105099
3.20297e-07
8.3986e-06
0.000102666
5.79375e-07
-2.91461e-06
0.000102844
4.07508e-07
-1.42431e-05
0.000103084
2.19216e-07
-1.38938e-05
0.000103315
9.69402e-08
-1.38191e-05
0.000103441
3.6494e-08
-1.21449e-05
0.000103517
1.1547e-08
-1.06605e-05
0.000103583
9.35088e-09
-9.67899e-06
0.000103607
1.3399e-08
-9.50854e-06
0.000103624
1.00124e-08
-9.66404e-06
0.000103619
-1.70965e-08
-1.06123e-05
0.000103605
-8.03115e-08
-1.2051e-05
0.000103549
-2.05229e-07
-1.36875e-05
0.000103477
-3.96558e-07
-1.381e-05
0.000103349
-5.72593e-07
-1.42674e-05
0.000103111
-3.03328e-06
0.000102858
3.125e-07
7.85135e-06
0.000100479
5.64314e-07
-3.09709e-06
0.00010063
3.99523e-07
-1.40029e-05
0.000100842
2.18616e-07
-1.36309e-05
0.000101058
9.79368e-08
-1.3614e-05
0.000101178
3.69814e-08
-1.19985e-05
0.000101254
1.12817e-08
-1.05487e-05
0.00010132
8.55746e-09
-9.59047e-06
0.000101346
1.21336e-08
-9.42584e-06
0.000101362
8.43079e-09
-9.57426e-06
0.000101357
-1.89715e-08
-1.04984e-05
0.000101342
-8.20313e-08
-1.1902e-05
0.000101285
-2.04636e-07
-1.348e-05
0.000101214
-3.88019e-07
-1.35442e-05
0.000101092
-5.56666e-07
-1.40232e-05
0.000100868
-3.211e-06
0.000100644
3.04879e-07
7.32443e-06
9.83163e-05
5.49485e-07
-3.26724e-06
9.84426e-05
3.914e-07
-1.37636e-05
9.86279e-05
2.17679e-07
-1.33693e-05
9.88312e-05
9.86572e-08
-1.34048e-05
9.89455e-05
3.73215e-08
-1.18459e-05
9.90204e-05
1.098e-08
-1.04306e-05
9.90877e-05
7.79166e-09
-9.49574e-06
9.91139e-05
1.09443e-08
-9.33697e-06
9.91309e-05
6.97938e-09
-9.47849e-06
9.91252e-05
-2.06308e-08
-1.03786e-05
9.91095e-05
-8.34461e-08
-1.17475e-05
9.90509e-05
-2.0372e-07
-1.32691e-05
9.89806e-05
-3.79389e-07
-1.32803e-05
9.88643e-05
-5.41026e-07
-1.378e-05
9.86535e-05
-3.37654e-06
9.84562e-05
2.97455e-07
6.81752e-06
9.61796e-05
5.34946e-07
-3.42496e-06
9.62829e-05
3.83202e-07
-1.35244e-05
9.64436e-05
2.16444e-07
-1.31086e-05
9.66349e-05
9.91232e-08
-1.31913e-05
9.67435e-05
3.7525e-08
-1.16871e-05
9.68175e-05
1.06465e-08
-1.03059e-05
9.68857e-05
7.05563e-09
-9.39468e-06
9.69124e-05
9.83147e-09
-9.24182e-06
9.69296e-05
5.6553e-09
-9.37659e-06
9.69233e-05
-2.20842e-08
-1.02527e-05
9.6907e-05
-8.45778e-08
-1.15873e-05
9.68474e-05
-2.02523e-07
-1.30546e-05
9.6778e-05
-3.70731e-07
-1.30179e-05
9.66674e-05
-5.25732e-07
-1.35375e-05
9.64686e-05
-3.52981e-06
9.6296e-05
2.90245e-07
6.3303e-06
9.40685e-05
5.20742e-07
-3.57016e-06
9.41505e-05
3.74981e-07
-1.32848e-05
9.42887e-05
2.14947e-07
-1.28485e-05
9.44688e-05
9.93544e-08
-1.29733e-05
9.4572e-05
3.7601e-08
-1.15218e-05
9.46451e-05
1.0285e-08
-1.01747e-05
9.47141e-05
6.35082e-09
-9.28713e-06
9.47411e-05
8.79494e-09
-9.14022e-06
9.47584e-05
4.45545e-09
-9.26842e-06
9.47517e-05
-2.33408e-08
-1.01206e-05
9.47349e-05
-8.54462e-08
-1.14213e-05
9.46743e-05
-2.0108e-07
-1.28363e-05
9.46058e-05
-3.621e-07
-1.27566e-05
9.45007e-05
-5.10835e-07
-1.32949e-05
9.43132e-05
-3.6707e-06
9.41633e-05
2.83262e-07
5.86246e-06
9.19835e-05
5.0691e-07
-3.70273e-06
9.20457e-05
3.66778e-07
-1.30441e-05
9.2163e-05
2.1322e-07
-1.25883e-05
9.23329e-05
9.93687e-08
-1.27508e-05
9.24309e-05
3.75582e-08
-1.135e-05
9.2503e-05
9.89873e-09
-1.00366e-05
9.25727e-05
5.67814e-09
-9.1729e-06
9.25999e-05
7.83401e-09
-9.03194e-06
9.26174e-05
3.37647e-09
-9.15375e-06
9.26103e-05
-2.44096e-08
-9.98214e-06
9.25931e-05
-8.60695e-08
-1.12494e-05
9.25317e-05
-1.99424e-07
-1.26139e-05
9.24641e-05
-3.53537e-07
-1.24957e-05
9.23642e-05
-4.96371e-07
-1.30515e-05
9.2187e-05
-3.79912e-06
9.2058e-05
2.76516e-07
5.41366e-06
8.99245e-05
4.93479e-07
-3.82258e-06
8.99684e-05
3.5863e-07
-1.28017e-05
9.00665e-05
2.11291e-07
-1.23277e-05
9.02269e-05
9.91824e-08
-1.25234e-05
9.032e-05
3.7404e-08
-1.11715e-05
9.03911e-05
9.49044e-09
-9.89166e-06
9.04615e-05
5.03804e-09
-9.05179e-06
9.04887e-05
6.94757e-09
-8.91678e-06
9.05063e-05
2.41476e-09
-9.03237e-06
9.04988e-05
-2.5299e-08
-9.83711e-06
9.04813e-05
-8.64644e-08
-1.10712e-05
9.04192e-05
-1.97583e-07
-1.23873e-05
9.03527e-05
-3.45077e-07
-1.22348e-05
9.02578e-05
-4.82369e-07
-1.28067e-05
9.00901e-05
-3.91496e-06
8.99804e-05
2.70011e-07
4.98371e-06
8.78916e-05
4.80466e-07
-3.92962e-06
8.79186e-05
3.50566e-07
-1.25568e-05
8.7999e-05
2.09184e-07
-1.2066e-05
8.81508e-05
9.88101e-08
-1.22909e-05
8.82392e-05
3.71455e-08
-1.09861e-05
8.83092e-05
9.06241e-09
-9.73961e-06
8.83801e-05
4.43061e-09
-8.92358e-06
8.84073e-05
6.13417e-09
-8.79451e-06
8.8425e-05
1.56653e-09
-8.90406e-06
8.84172e-05
-2.6017e-08
-9.68532e-06
8.83995e-05
-8.66459e-08
-1.08866e-05
8.83367e-05
-1.95578e-07
-1.21562e-05
8.82713e-05
-3.36749e-07
-1.19733e-05
8.81811e-05
-4.68849e-07
-1.25598e-05
8.80221e-05
-4.01813e-06
8.79302e-05
2.63754e-07
4.57397e-06
8.58833e-05
4.67885e-07
-4.02378e-06
8.58963e-05
3.42608e-07
-1.23089e-05
8.59603e-05
2.06919e-07
-1.18027e-05
8.61041e-05
9.82648e-08
-1.20531e-05
8.61881e-05
3.67888e-08
-1.07936e-05
8.62571e-05
8.61661e-09
-9.58034e-06
8.63284e-05
3.85565e-09
-8.7881e-06
8.63556e-05
5.39203e-09
-8.66493e-06
8.63733e-05
8.2766e-10
-8.76862e-06
8.63652e-05
-2.65716e-08
-9.52662e-06
8.63474e-05
-8.66278e-08
-1.06953e-05
8.6284e-05
-1.93432e-07
-1.19201e-05
8.62197e-05
-3.28575e-07
-1.17105e-05
8.6134e-05
-4.55822e-07
-1.23101e-05
8.5983e-05
-4.10854e-06
8.59076e-05
2.57743e-07
4.18748e-06
8.38978e-05
4.5574e-07
-4.10499e-06
8.39013e-05
3.34774e-07
-1.20575e-05
8.39501e-05
2.04515e-07
-1.15372e-05
8.40868e-05
9.75584e-08
-1.18096e-05
8.41665e-05
3.63395e-08
-1.0594e-05
8.42344e-05
8.15478e-09
-9.41377e-06
8.43061e-05
3.31274e-09
-8.64522e-06
8.43331e-05
4.71916e-09
-8.52791e-06
8.43508e-05
1.92099e-10
-8.62591e-06
8.43425e-05
-2.697e-08
-9.3609e-06
8.43247e-05
-8.64227e-08
-1.04974e-05
8.42608e-05
-1.9116e-07
-1.16788e-05
8.41975e-05
-3.2057e-07
-1.1446e-05
8.41161e-05
-4.43293e-07
-1.2057e-05
8.39725e-05
-4.18613e-06
8.39122e-05
2.5197e-07
3.82709e-06
8.19351e-05
4.4403e-07
-4.17235e-06
8.19326e-05
3.27075e-07
-1.18019e-05
8.19683e-05
2.01985e-07
-1.12693e-05
8.20983e-05
9.67014e-08
-1.15604e-05
8.2174e-05
3.58027e-08
-1.03872e-05
8.22408e-05
7.67838e-09
-9.23986e-06
8.23129e-05
2.80127e-09
-8.49486e-06
8.23396e-05
4.1134e-09
-8.38334e-06
8.23574e-05
-3.38354e-10
-8.47586e-06
8.23489e-05
-2.72191e-08
-9.18808e-06
8.23311e-05
-8.60418e-08
-1.02925e-05
8.22668e-05
-1.88778e-07
-1.14321e-05
8.22045e-05
-3.12746e-07
-1.11793e-05
8.21271e-05
-4.31258e-07
-1.18001e-05
8.19902e-05
-4.25002e-06
8.19433e-05
2.4642e-07
3.49459e-06
7.99958e-05
4.32746e-07
-4.22387e-06
7.99888e-05
3.1952e-07
-1.15418e-05
8.00145e-05
1.99343e-07
-1.09984e-05
8.01384e-05
9.57028e-08
-1.13051e-05
8.02103e-05
3.51827e-08
-1.01731e-05
8.02761e-05
7.18853e-09
-9.05863e-06
8.03484e-05
2.32049e-09
-8.33703e-06
8.03749e-05
3.57243e-09
-8.23124e-06
8.03926e-05
-7.70246e-10
-8.31845e-06
8.03839e-05
-2.73255e-08
-9.00815e-06
8.03662e-05
-8.54951e-08
-1.00807e-05
8.03015e-05
-1.86297e-07
-1.11798e-05
8.02403e-05
-3.05108e-07
-1.091e-05
8.01668e-05
-4.19709e-07
-1.15389e-05
8.0036e-05
-4.2983e-06
7.99993e-05
2.4108e-07
3.19004e-06
7.80806e-05
4.21874e-07
-4.25766e-06
7.80697e-05
3.12112e-07
-1.12769e-05
7.80882e-05
1.96599e-07
-1.07243e-05
7.82067e-05
9.45708e-08
-1.10438e-05
7.82749e-05
3.44834e-08
-9.9518e-06
7.83396e-05
6.68603e-09
-8.86985e-06
7.84119e-05
1.86963e-09
-8.17126e-06
7.84378e-05
3.09368e-09
-8.07113e-06
7.84556e-05
-1.10928e-09
-8.15318e-06
7.84466e-05
-2.7295e-08
-8.82087e-06
7.84293e-05
-8.47912e-08
-9.86189e-06
7.83646e-05
-1.83727e-07
-1.09216e-05
7.83044e-05
-2.97659e-07
-1.06378e-05
7.82346e-05
-4.0863e-07
-1.1273e-05
7.81094e-05
-4.32907e-06
7.80801e-05
2.35937e-07
2.91213e-06
7.61897e-05
4.11395e-07
-4.27254e-06
7.61754e-05
3.04848e-07
-1.10062e-05
7.61884e-05
1.93761e-07
-1.04462e-05
7.63022e-05
9.3312e-08
-1.07757e-05
7.63668e-05
3.37089e-08
-9.72249e-06
7.64303e-05
6.17206e-09
-8.67263e-06
7.65023e-05
1.44788e-09
-7.99635e-06
7.65273e-05
2.6747e-09
-7.90189e-06
7.65451e-05
-1.359e-09
-7.97887e-06
7.65359e-05
-2.71338e-08
-8.62532e-06
7.65194e-05
-8.39379e-08
-9.63535e-06
7.64548e-05
-1.81076e-07
-1.0657e-05
7.63958e-05
-2.90395e-07
-1.03617e-05
7.63296e-05
-3.97999e-07
-1.10016e-05
7.62092e-05
-4.34111e-06
7.61856e-05
2.30982e-07
2.65917e-06
7.43232e-05
4.01286e-07
-4.26799e-06
7.43061e-05
2.97725e-07
-1.07279e-05
7.43136e-05
1.9084e-07
-1.01625e-05
7.44228e-05
9.19365e-08
-1.04993e-05
7.44838e-05
3.28652e-08
-9.48372e-06
7.45463e-05
5.64832e-09
-8.46559e-06
7.46183e-05
1.05428e-09
-7.81099e-06
7.46425e-05
2.31312e-09
-7.72216e-06
7.46603e-05
-1.52363e-09
-7.79419e-06
7.4651e-05
-2.685e-08
-8.42007e-06
7.4635e-05
-8.2946e-08
-9.39953e-06
7.45703e-05
-1.78352e-07
-1.03843e-05
7.45122e-05
-2.8331e-07
-1.00802e-05
7.44498e-05
-3.87791e-07
-1.07227e-05
7.43341e-05
-4.33391e-06
7.4316e-05
2.26204e-07
2.42951e-06
7.24808e-05
3.91515e-07
-4.24389e-06
7.24613e-05
2.90722e-07
-1.04402e-05
7.24621e-05
1.87842e-07
-9.87099e-06
7.25666e-05
9.04559e-08
-1.02128e-05
7.26238e-05
3.19604e-08
-9.23382e-06
7.26859e-05
5.11753e-09
-8.24724e-06
7.27582e-05
6.87293e-10
-7.61389e-06
7.2782e-05
2.00476e-09
-7.53064e-06
7.27998e-05
-1.61061e-09
-7.59781e-06
7.27903e-05
-2.64552e-08
-8.20363e-06
7.27745e-05
-8.18289e-08
-9.15275e-06
7.27094e-05
-1.75564e-07
-1.01016e-05
7.26518e-05
-2.76381e-07
-9.79116e-06
7.25931e-05
-3.77973e-07
-1.04346e-05
7.24823e-05
-4.30732e-06
7.24711e-05
2.21587e-07
2.22176e-06
7.06618e-05
3.82042e-07
-4.20063e-06
7.06402e-05
2.8382e-07
-1.01412e-05
7.06321e-05
1.84773e-07
-9.56972e-06
7.07322e-05
8.88781e-08
-9.91418e-06
7.07859e-05
3.10003e-08
-8.97116e-06
7.08476e-05
4.58238e-09
-8.01607e-06
7.09203e-05
3.43407e-10
-7.40369e-06
7.09438e-05
1.74495e-09
-7.32596e-06
7.09614e-05
-1.62795e-09
-7.38841e-06
7.09518e-05
-2.5959e-08
-7.97446e-06
7.09362e-05
-8.0596e-08
-8.89334e-06
7.08706e-05
-1.72716e-07
-9.80702e-06
7.08134e-05
-2.69588e-07
-9.49245e-06
7.07582e-05
-3.68502e-07
-1.01352e-05
7.06519e-05
-4.26166e-06
7.06497e-05
2.17096e-07
2.03496e-06
6.88655e-05
3.72821e-07
-4.13899e-06
6.884e-05
2.77014e-07
-9.82925e-06
6.88224e-05
1.81638e-07
-9.25696e-06
6.89187e-05
8.72078e-08
-9.60195e-06
6.89692e-05
2.99874e-08
-8.69436e-06
6.90304e-05
4.04372e-09
-7.77078e-06
6.91032e-05
2.6697e-11
-7.17931e-06
6.91264e-05
1.53058e-09
-7.10694e-06
6.91438e-05
-1.58066e-09
-7.16485e-06
6.91343e-05
-2.53669e-08
-7.73124e-06
6.91188e-05
-7.92532e-08
-8.61988e-06
6.9053e-05
-1.69811e-07
-9.49889e-06
6.89962e-05
-2.62924e-07
-9.18235e-06
6.89443e-05
-3.59327e-07
-9.82315e-06
6.88418e-05
-4.19765e-06
6.88493e-05
2.12702e-07
1.86859e-06
6.70902e-05
3.63819e-07
-4.05954e-06
6.70582e-05
2.70303e-07
-9.50403e-06
6.70321e-05
1.7844e-07
-8.93214e-06
6.71251e-05
8.54483e-08
-9.27565e-06
6.71727e-05
2.89227e-08
-8.40307e-06
6.72333e-05
3.50116e-09
-7.51101e-06
6.73061e-05
-2.63859e-10
-6.94052e-06
6.73289e-05
1.35926e-09
-6.87333e-06
6.73461e-05
-1.47183e-09
-6.92693e-06
6.73365e-05
-2.46825e-08
-7.47361e-06
6.73214e-05
-7.78048e-08
-8.33202e-06
6.72555e-05
-1.66853e-07
-9.17678e-06
6.71992e-05
-2.56384e-07
-8.86027e-06
6.71503e-05
-3.50414e-07
-9.49783e-06
6.70512e-05
-4.11585e-06
6.70672e-05
2.08397e-07
1.72255e-06
6.53328e-05
3.55028e-07
-3.96265e-06
6.52934e-05
2.63684e-07
-9.16609e-06
6.52604e-05
1.75181e-07
-8.5959e-06
6.53507e-05
8.36022e-08
-8.93614e-06
6.53956e-05
2.78074e-08
-8.09807e-06
6.54555e-05
2.95394e-09
-7.23746e-06
6.55281e-05
-5.35626e-10
-6.68798e-06
6.55502e-05
1.22899e-09
-6.62577e-06
6.55672e-05
-1.30381e-09
-6.67529e-06
6.55577e-05
-2.39093e-08
-7.20224e-06
6.5543e-05
-7.62548e-08
-8.03053e-06
6.54772e-05
-1.63842e-07
-8.84153e-06
6.54216e-05
-2.49965e-07
-8.52685e-06
6.53753e-05
-3.41751e-07
-9.15987e-06
6.52792e-05
-4.01665e-06
6.53021e-05
2.0418e-07
1.59693e-06
6.35908e-05
3.4644e-07
-3.8487e-06
6.3545e-05
2.57152e-07
-8.81642e-06
6.35065e-05
1.7186e-07
-8.24928e-06
6.35943e-05
8.16728e-08
-8.5847e-06
6.36367e-05
2.66428e-08
-7.78057e-06
6.36959e-05
2.40167e-09
-6.95119e-06
6.37681e-05
-7.87684e-10
-6.42269e-06
6.37895e-05
1.13778e-09
-6.36524e-06
6.38064e-05
-1.07924e-09
-6.4109e-06
6.37969e-05
-2.3051e-08
-6.9182e-06
6.37827e-05
-7.46072e-08
-7.71657e-06
6.37172e-05
-1.60779e-07
-8.49441e-06
6.36622e-05
-2.43659e-07
-8.1831e-06
6.36185e-05
-3.33329e-07
-8.81026e-06
6.35249e-05
-3.90044e-06
6.35535e-05
2.00043e-07
1.49172e-06
6.18634e-05
3.38046e-07
-3.71824e-06
6.18125e-05
2.50701e-07
-8.45614e-06
6.17695e-05
1.68478e-07
-7.89342e-06
6.18552e-05
7.96631e-08
-8.22269e-06
6.18952e-05
2.54312e-08
-7.45182e-06
6.19537e-05
1.84436e-09
-6.65339e-06
6.20255e-05
-1.02102e-09
-6.14574e-06
6.20461e-05
1.08359e-09
-6.09286e-06
6.20628e-05
-8.01282e-10
-6.13488e-06
6.20532e-05
-2.21121e-08
-6.62264e-06
6.20397e-05
-7.28661e-08
-7.39139e-06
6.19745e-05
-1.57662e-07
-8.13672e-06
6.19202e-05
-2.37459e-07
-7.83014e-06
6.1879e-05
-3.25134e-07
-8.45009e-06
6.17876e-05
-3.76776e-06
6.18208e-05
1.95977e-07
1.40658e-06
6.01502e-05
3.29828e-07
-3.57204e-06
6.00955e-05
2.44324e-07
-8.08637e-06
6.00488e-05
1.65033e-07
-7.52944e-06
6.01325e-05
7.75766e-08
-7.85138e-06
6.01702e-05
2.41751e-08
-7.11311e-06
6.02279e-05
1.28241e-09
-6.34528e-06
6.02992e-05
-1.23671e-09
-5.8583e-06
6.0319e-05
1.06427e-09
-5.80978e-06
6.03355e-05
-4.78415e-10
-5.84836e-06
6.0326e-05
-2.10973e-08
-6.31678e-06
6.03131e-05
-7.1036e-08
-7.05624e-06
6.02483e-05
-1.5449e-07
-7.76975e-06
6.01947e-05
-2.31355e-07
-7.46907e-06
6.01558e-05
-3.17149e-07
-8.08049e-06
6.00665e-05
-3.61941e-06
6.01036e-05
1.91973e-07
1.34078e-06
5.8451e-05
3.2177e-07
-3.4111e-06
5.83935e-05
2.38011e-07
-7.70824e-06
5.83435e-05
1.61526e-07
-7.15843e-06
5.84255e-05
7.5417e-08
-7.47204e-06
5.8461e-05
2.28777e-08
-6.76567e-06
5.8518e-05
7.16791e-10
-6.02806e-06
5.85887e-05
-1.43582e-09
-5.56152e-06
5.86077e-05
1.07762e-09
-5.51718e-06
5.86239e-05
-9.99463e-11
-5.55252e-06
5.86145e-05
-2.0012e-08
-6.00178e-06
5.86023e-05
-6.91214e-08
-6.71234e-06
5.85379e-05
-1.51262e-07
-7.39472e-06
5.8485e-05
-2.25338e-07
-7.10099e-06
5.84484e-05
-3.09353e-07
-7.70257e-06
5.83609e-05
-3.45639e-06
5.84014e-05
1.88018e-07
1.29323e-06
5.67656e-05
3.13853e-07
-3.23665e-06
5.6706e-05
2.31755e-07
-7.32294e-06
5.66532e-05
1.57954e-07
-6.78152e-06
5.67335e-05
7.31882e-08
-7.08592e-06
5.67669e-05
2.15423e-08
-6.41077e-06
5.68232e-05
1.49691e-10
-5.70298e-06
5.68933e-05
-1.61933e-09
-5.25665e-06
5.69114e-05
1.12135e-09
-5.21626e-06
5.69274e-05
3.21415e-10
-5.24857e-06
5.69181e-05
-1.88615e-08
-5.6789e-06
5.69065e-05
-6.71271e-08
-6.36094e-06
5.68427e-05
-1.47976e-07
-7.01286e-06
5.67904e-05
-2.19396e-07
-6.72699e-06
5.6756e-05
-3.01725e-07
-7.31752e-06
5.66702e-05
-3.27991e-06
5.67137e-05
1.84102e-07
1.2625e-06
5.50939e-05
3.06059e-07
-3.05008e-06
5.50328e-05
2.25548e-07
-6.93177e-06
5.49773e-05
1.54317e-07
-6.39995e-06
5.50562e-05
7.08944e-08
-6.69437e-06
5.50874e-05
2.01728e-08
-6.04977e-06
5.5143e-05
-4.25315e-10
-5.37138e-06
5.52125e-05
-1.78818e-09
-4.94501e-06
5.52298e-05
1.19316e-09
-4.90837e-06
5.52456e-05
7.79685e-10
-4.93783e-06
5.52363e-05
-1.76517e-08
-5.34945e-06
5.52254e-05
-6.50582e-08
-6.00338e-06
5.51621e-05
-1.44631e-07
-6.62552e-06
5.51105e-05
-2.13521e-07
-6.3483e-06
5.50782e-05
-2.94246e-07
-6.92663e-06
5.4994e-05
-3.09137e-06
5.50403e-05
1.80213e-07
1.24694e-06
5.34357e-05
2.98371e-07
-2.85304e-06
5.33735e-05
2.19382e-07
-6.53619e-06
5.33156e-05
1.50616e-07
-6.01511e-06
5.33932e-05
6.85403e-08
-6.29889e-06
5.34223e-05
1.87733e-08
-5.6842e-06
5.34772e-05
-9.98953e-10
-5.0348e-06
5.35461e-05
-1.94323e-09
-4.62812e-06
5.35625e-05
1.29069e-09
-4.595e-06
5.3578e-05
1.27281e-09
-4.62181e-06
5.35688e-05
-1.6389e-08
-5.01496e-06
5.35587e-05
-6.29201e-08
-5.64117e-06
5.34959e-05
-1.41226e-07
-6.23417e-06
5.34449e-05
-2.07702e-07
-5.96631e-06
5.34147e-05
-2.86895e-07
-6.53134e-06
5.3332e-05
-2.89241e-06
5.33809e-05
1.76341e-07
1.24461e-06
5.17912e-05
2.90774e-07
-2.64743e-06
5.17282e-05
2.13251e-07
-6.13789e-06
5.1668e-05
1.46849e-07
-5.62862e-06
5.17444e-05
6.61311e-08
-5.90121e-06
5.17714e-05
1.73485e-08
-5.31578e-06
5.18258e-05
-1.57205e-09
-4.69496e-06
5.18939e-05
-2.08524e-09
-4.30769e-06
5.19095e-05
1.41153e-09
-4.27789e-06
5.19247e-05
1.7968e-09
-4.30223e-06
5.19157e-05
-1.50798e-08
-4.67715e-06
5.19062e-05
-6.07189e-08
-5.27603e-06
5.1844e-05
-1.37761e-07
-5.84053e-06
5.17936e-05
-2.01933e-07
-5.58262e-06
5.17655e-05
-2.79654e-07
-6.13335e-06
5.1684e-05
-2.68493e-06
5.17353e-05
1.72476e-07
1.25336e-06
5.01602e-05
2.83253e-07
-2.43538e-06
5.00967e-05
2.07149e-07
-5.73884e-06
5.00346e-05
1.43017e-07
-5.24238e-06
5.01099e-05
6.36725e-08
-5.50331e-06
5.01349e-05
1.59036e-08
-4.94652e-06
5.01886e-05
-2.14314e-09
-4.35389e-06
5.0256e-05
-2.21492e-09
-3.98572e-06
5.02708e-05
1.55322e-09
-3.95902e-06
5.02857e-05
2.34729e-09
-3.98107e-06
5.02768e-05
-1.37313e-08
-4.33802e-06
5.0268e-05
-5.8461e-08
-4.90994e-06
5.02064e-05
-1.34235e-07
-5.44657e-06
5.01565e-05
-1.96205e-07
-5.19912e-06
5.01305e-05
-2.72508e-07
-5.73462e-06
5.00502e-05
-2.47106e-06
5.01037e-05
1.68611e-07
1.2708e-06
4.85429e-05
2.75795e-07
-2.21928e-06
4.84793e-05
2.01072e-07
-5.34123e-06
4.84154e-05
1.39122e-07
-4.85851e-06
4.84897e-05
6.11707e-08
-5.10741e-06
4.85127e-05
1.4444e-08
-4.57866e-06
4.85658e-05
-2.71036e-09
-4.0138e-06
4.86325e-05
-2.33288e-09
-3.66442e-06
4.86464e-05
1.71327e-09
-3.64062e-06
4.8661e-05
2.9197e-09
-3.66054e-06
4.86522e-05
-1.23507e-08
-3.9998e-06
4.86442e-05
-5.61531e-08
-4.54512e-06
4.85832e-05
-1.30649e-07
-5.05449e-06
4.85339e-05
-1.90513e-07
-4.81794e-06
4.85098e-05
-2.6544e-07
-5.33733e-06
4.84307e-05
-2.25317e-06
4.84861e-05
1.64737e-07
1.29443e-06
4.69394e-05
2.68388e-07
-2.00163e-06
4.68759e-05
1.95015e-07
-4.94744e-06
4.68105e-05
1.35166e-07
-4.47933e-06
4.6884e-05
5.86323e-08
-4.71591e-06
4.6905e-05
1.29755e-08
-4.21458e-06
4.69576e-05
-3.27167e-09
-3.67712e-06
4.70234e-05
-2.43965e-09
-3.34619e-06
4.70365e-05
1.88912e-09
-3.32508e-06
4.70508e-05
3.50935e-09
-3.34304e-06
4.70422e-05
-1.09456e-08
-3.66488e-06
4.70348e-05
-5.38024e-08
-4.18398e-06
4.69744e-05
-1.27005e-07
-4.66669e-06
4.69257e-05
-1.8485e-07
-4.44136e-06
4.69036e-05
-2.58436e-07
-4.94385e-06
4.68254e-05
-2.03378e-06
4.68825e-05
1.60846e-07
1.32169e-06
4.53496e-05
2.61019e-07
-1.78503e-06
4.52865e-05
1.88974e-07
-4.55993e-06
4.52198e-05
1.3115e-07
-4.10722e-06
4.52926e-05
5.60638e-08
-4.33128e-06
4.53118e-05
1.15039e-08
-3.85679e-06
4.53637e-05
-3.82487e-09
-3.34633e-06
4.54287e-05
-2.53568e-09
-3.03349e-06
4.54409e-05
2.07825e-09
-3.01488e-06
4.54549e-05
4.11145e-09
-3.03101e-06
4.54464e-05
-9.52353e-09
-3.33575e-06
4.54397e-05
-5.14161e-08
-3.82898e-06
4.53801e-05
-1.23303e-07
-4.28564e-06
4.53319e-05
-1.7921e-07
-4.07178e-06
4.53117e-05
-2.51481e-07
-4.55664e-06
4.52344e-05
-1.81547e-06
4.52928e-05
1.5693e-07
1.35008e-06
4.37733e-05
2.53676e-07
-1.57201e-06
4.37108e-05
1.82945e-07
-4.18114e-06
4.36432e-05
1.27077e-07
-3.74456e-06
4.37153e-05
5.34718e-08
-3.95598e-06
4.37327e-05
1.00353e-08
-3.50773e-06
4.3784e-05
-4.36767e-09
-3.02386e-06
4.38481e-05
-2.62138e-09
-2.72876e-06
4.38595e-05
2.27811e-09
-2.71245e-06
4.38731e-05
4.72121e-09
-2.72691e-06
4.38649e-05
-8.09215e-09
-3.01484e-06
4.38587e-05
-4.90013e-08
-3.48258e-06
4.38e-05
-1.19546e-07
-3.91377e-06
4.37524e-05
-1.73587e-07
-3.71155e-06
4.3734e-05
-2.4456e-07
-4.17814e-06
4.36575e-05
-1.60078e-06
4.3717e-05
1.52981e-07
1.37722e-06
4.22102e-05
2.46346e-07
-1.36499e-06
4.21485e-05
1.76922e-07
-3.81338e-06
4.20803e-05
1.22948e-07
-3.39359e-06
4.21517e-05
5.0863e-08
-3.59233e-06
4.21675e-05
8.57562e-09
-3.16973e-06
4.22182e-05
-4.89765e-09
-2.71206e-06
4.22811e-05
-2.69708e-09
-2.43431e-06
4.22919e-05
2.48619e-09
-2.42013e-06
4.23051e-05
5.3338e-09
-2.43304e-06
4.22971e-05
-6.65901e-09
-2.70448e-06
4.22915e-05
-4.65652e-08
-3.14709e-06
4.22337e-05
-1.15734e-07
-3.55342e-06
4.21867e-05
-1.67976e-07
-3.36293e-06
4.21699e-05
-2.3766e-07
-3.81066e-06
4.20942e-05
-1.39211e-06
4.21545e-05
1.48991e-07
1.40096e-06
4.06597e-05
2.39017e-07
-1.16617e-06
4.05991e-05
1.70902e-07
-3.4588e-06
4.05306e-05
1.18767e-07
-3.05637e-06
4.06013e-05
4.82437e-08
-3.24246e-06
4.06156e-05
7.13076e-09
-2.84493e-06
4.06655e-05
-5.41235e-09
-2.41304e-06
4.07274e-05
-2.76307e-09
-2.15225e-06
4.07375e-05
2.7e-09
-2.14002e-06
4.07502e-05
5.94439e-09
-2.1515e-06
4.07425e-05
-5.23157e-09
-2.40679e-06
4.07374e-05
-4.41146e-08
-2.82466e-06
4.06806e-05
-1.11871e-07
-3.2067e-06
4.06342e-05
-1.62371e-07
-3.02798e-06
4.06191e-05
-2.30765e-07
-3.45633e-06
4.05441e-05
-1.19168e-06
4.06049e-05
1.44952e-07
1.41938e-06
3.91211e-05
2.31677e-07
-9.77516e-07
3.90618e-05
1.64879e-07
-3.11927e-06
3.89932e-05
1.14535e-07
-2.73471e-06
3.90634e-05
4.56202e-08
-2.90826e-06
3.90762e-05
5.70668e-09
-2.53519e-06
3.91254e-05
-5.90919e-09
-2.12866e-06
3.9186e-05
-2.81957e-09
-1.88445e-06
3.91955e-05
2.91705e-09
-1.87398e-06
3.92078e-05
6.54811e-09
-1.88417e-06
3.92003e-05
-3.81722e-09
-2.12364e-06
3.91957e-05
-4.16564e-08
-2.51715e-06
3.914e-05
-1.07957e-07
-2.8755e-06
3.90943e-05
-1.56765e-07
-2.70849e-06
3.90807e-05
-2.23861e-07
-3.11704e-06
3.90064e-05
-1.00146e-06
3.90674e-05
1.40857e-07
1.43088e-06
3.75937e-05
2.24311e-07
-8.00685e-07
3.75357e-05
1.5885e-07
-2.79638e-06
3.74675e-05
1.10254e-07